1000 SPC/Fw water molecules t=   0.48000 step= 480
 2931
    1SOL     OW    1   2.480   0.329   2.617 -0.6874  0.3527 -0.0062
    1SOL    HW1    2   2.512   0.232   2.641  2.6784  0.1830 -0.0853
    1SOL    HW2    3   2.496   0.393   2.700 -0.5401  2.0857 -1.1774
    2SOL     OW    4   2.714   3.038   1.454 -0.2674  0.1294  0.2106
    2SOL    HW1    5   2.759   3.066   1.362  1.0239  0.7613  1.0529
    2SOL    HW2    6   2.665   3.116   1.496 -2.6162 -0.6771 -4.9924
    3SOL     OW    7   2.731   2.600   0.388 -0.0907 -0.0011  0.0973
    3SOL    HW1    8   2.693   2.503   0.395 -0.3551  1.5579  0.8092
    3SOL    HW2    9   2.802   2.615   0.459 -2.1538 -1.9631  0.7200
    4SOL     OW   10   1.321   1.496   2.352 -0.2082 -0.3458  0.1343
    4SOL    HW1   11   1.234   1.547   2.311  0.4937  0.1388  0.0360
    4SOL    HW2   12   1.296   1.413   2.415  1.2172  0.4097  4.2566
    5SOL     OW   13   1.192   1.515   3.037 -0.3801 -0.2773  0.1208
    5SOL    HW1   14   1.237   1.593   3.093  1.7697  1.7467  0.5586
    5SOL    HW2   15   1.089   1.515   3.045 -0.4001  1.3973 -2.4454
    6SOL     OW   16   0.049   1.789   2.919  0.4891  0.6419  0.3350
    6SOL    HW1   17   0.026   1.843   3.005 -0.8507 -2.8842 -1.7421
    6SOL    HW2   18   0.024   1.691   2.923  0.6608  1.7358  1.0716
    7SOL     OW   19   2.580   0.896   1.162  0.5581  0.3728 -0.0002
    7SOL    HW1   20   2.489   0.863   1.208  1.6016 -0.6718  0.8245
    7SOL    HW2   21   2.586   0.894   1.061  0.9054  3.7453  2.0711
    8SOL     OW   22   0.442   0.614   1.525  0.3906 -0.1213 -0.3818
    8SOL    HW1   23   0.524   0.559   1.552 -2.4462 -3.1031  3.7924
    8SOL    HW2   24   0.401   0.577   1.437  1.0113 -1.5027  0.6560
    9SOL     OW   25   1.159   0.948   2.276  0.4158 -0.7735  0.3788
    9SOL    HW1   26   1.234   1.014   2.239 -4.9320  0.3526 -0.1029
    9SOL    HW2   27   1.100   0.908   2.203  0.5742 -1.9152 -0.3212
   10SOL     OW   28   0.720   1.342   1.269  0.2379 -0.2387 -0.2316
   10SOL    HW1   29   0.619   1.370   1.249 -1.9513 -0.7070  3.9086
   10SOL    HW2   30   0.790   1.413   1.282 -2.8310 -1.0476 -2.3427
   11SOL     OW   31   2.375   2.697   0.942  0.2127  0.2495 -0.2635
   11SOL    HW1   32   2.347   2.693   1.043  0.2450  0.6522 -0.1675
   11SOL    HW2   33   2.483   2.692   0.930  1.3880  1.7867 -2.9877
   12SOL     OW   34   1.457   0.897   0.369  0.2364  0.0719 -0.8106
   12SOL    HW1   35   1.406   0.972   0.316 -0.0118 -0.9998 -1.7507
   12SOL    HW2   36   1.469   0.809   0.315  0.5795 -0.0498  0.3931
   13SOL     OW   37   2.530   0.660   1.808  0.3638  0.0149  0.4543
   13SOL    HW1   38   2.456   0.622   1.873 -1.8022  1.1581 -1.0088
   13SOL    HW2   39   2.497   0.652   1.709 -0.5848 -0.8481  1.6134
   14SOL     OW   40   1.958   0.053   0.694 -0.1075  0.4603  0.3619
   14SOL    HW1   41   1.884   0.086   0.630  1.1115 -0.1024  3.1130
   14SOL    HW2   42   1.928  -0.033   0.743  1.8843  1.1432 -0.9859
   15SOL     OW   43   1.954   2.011   2.839 -0.4651  0.2299 -0.6027
   15SOL    HW1   44   1.918   2.111   2.862 -1.2833 -0.7301  2.4711
   15SOL    HW2   45   1.901   1.967   2.763  1.7013  1.7378  0.3010
   16SOL     OW   46   1.601   1.738   3.078 -0.2252 -0.1234 -0.6287
   16SOL    HW1   47   1.614   1.639   3.111 -2.9199  0.1769 -0.3185
   16SOL    HW2   48   1.686   1.796   3.096 -0.5931 -0.4896 -0.6714
   17SOL     OW   49   0.090   0.496   0.131  0.2503 -0.0330  0.5278
   17SOL    HW1   50   0.162   0.547   0.075  0.2640  0.6842  1.8934
   17SOL    HW2   51   0.012   0.461   0.069  0.1657  0.2457 -1.0140
   18SOL     OW   52   0.983   2.915   2.179 -0.4683 -0.1230 -0.3938
   18SOL    HW1   53   0.895   2.868   2.158 -0.5098  0.8241 -2.0364
   18SOL    HW2   54   1.055   2.896   2.100  1.9363 -1.1828 -0.8823
   19SOL     OW   55   0.546   0.843   1.922 -0.0927 -0.1581 -0.0520
   19SOL    HW1   56   0.543   0.816   2.024  0.7218 -1.2623  0.3051
   19SOL    HW2   57   0.643   0.845   1.882  1.1646  2.0170 -3.1320
   20SOL     OW   58   0.163   2.809   0.829 -0.0385  0.0041 -0.2821
   20SOL    HW1   59   0.089   2.861   0.780 -0.7491 -0.8422 -1.5977
   20SOL    HW2   60   0.238   2.777   0.770  0.4996  2.0945 -0.3218
   21SOL     OW   61   2.783   0.188   2.111 -0.1603  0.5128 -0.5627
   21SOL    HW1   62   2.716   0.152   2.036 -3.5565 -0.7364  0.6302
   21SOL    HW2   63   2.805   0.119   2.189  0.7066 -0.6298  0.0820
   22SOL     OW   64   2.314   0.223   0.047 -0.1118  0.0422  0.7262
   22SOL    HW1   65   2.328   0.125   0.076  0.4775 -1.0836  1.8559
   22SOL    HW2   66   2.211   0.249   0.030  0.5378 -1.2009 -0.6482
   23SOL     OW   67   2.774   0.631   0.649 -0.6113 -0.1414  0.2252
   23SOL    HW1   68   2.799   0.561   0.580 -0.5537  0.9940 -0.5842
   23SOL    HW2   69   2.725   0.716   0.614 -0.7986 -3.1567  1.5817
   24SOL     OW   70   0.146   1.925   0.389 -0.6745 -0.0160 -0.2041
   24SOL    HW1   71   0.050   1.937   0.343  2.2046  0.8675 -4.4489
   24SOL    HW2   72   0.236   1.914   0.328  1.5458 -2.0093  3.0474
   25SOL     OW   73   2.241   0.503   0.216 -0.1805  0.5137 -0.2380
   25SOL    HW1   74   2.297   0.567   0.281 -3.4813  0.0837 -0.6305
   25SOL    HW2   75   2.221   0.528   0.119  1.6475 -0.2273  0.6103
   26SOL     OW   76   2.514   2.190   2.082  0.2662 -0.4532  0.0927
   26SOL    HW1   77   2.565   2.229   2.161  0.6801 -1.4347 -2.0184
   26SOL    HW2   78   2.570   2.110   2.036  0.7642  0.0071 -0.7091
   27SOL     OW   79   0.630   2.955   0.133 -0.3387 -0.4140  0.4391
   27SOL    HW1   80   0.723   3.004   0.142  0.0342  1.7938  0.6471
   27SOL    HW2   81   0.578   2.975   0.043 -1.6341 -3.0818 -0.3443
   28SOL     OW   82   1.580   0.182   0.289  0.1083 -0.1542  0.4869
   28SOL    HW1   83   1.615   0.155   0.196  1.4246  2.2070  1.0268
   28SOL    HW2   84   1.591   0.286   0.314 -0.7528  0.9459 -0.1103
   29SOL     OW   85   2.029   0.525   0.379 -0.0014 -0.3335 -0.2419
   29SOL    HW1   86   1.995   0.622   0.390 -1.4909  2.1732  1.6077
   29SOL    HW2   87   2.107   0.511   0.308 -1.5615 -1.3470  1.6891
   30SOL     OW   88   0.159   2.050   0.933  0.4672  0.3737  0.3011
   30SOL    HW1   89   0.158   2.024   0.832 -2.3045 -0.9305 -0.5786
   30SOL    HW2   90   0.066   2.090   0.956 -2.5058  1.0711  0.2573
   31SOL     OW   91   2.119   3.098   2.299  0.2974 -0.2865  0.0161
   31SOL    HW1   92   2.137   3.067   2.397 -1.1196 -2.7319  0.1538
   31SOL    HW2   93   2.018   3.088   2.276  1.0399 -2.4444  1.5472
   32SOL     OW   94   2.946   0.191   0.201  0.3436  0.0712  0.8677
   32SOL    HW1   95   2.901   0.107   0.249 -0.6679  1.2549  0.7719
   32SOL    HW2   96   3.038   0.210   0.242  2.7431  1.2933  0.7009
   33SOL     OW   97   0.916   0.328   0.520 -0.1356  0.2671  0.8405
   33SOL    HW1   98   0.866   0.235   0.493 -1.7793 -0.3415 -0.2141
   33SOL    HW2   99   1.001   0.316   0.576  0.4643  3.9004 -3.5037
   34SOL     OW  100   0.377   2.842   1.012 -0.0890  0.3995  0.1969
   34SOL    HW1  101   0.333   2.877   0.927 -0.0927 -4.5492 -0.7359
   34SOL    HW2  102   0.481   2.845   1.009 -0.7904  1.7116  1.7847
   35SOL     OW  103   0.038   0.156   1.868 -0.2860  0.9292  0.0996
   35SOL    HW1  104   0.071   0.067   1.911  1.2358  3.0038 -0.8905
   35SOL    HW2  105  -0.010   0.143   1.775  0.5421 -0.4660  0.1837
   36SOL     OW  106   1.942   1.102   1.823  0.2261 -0.8143 -0.2669
   36SOL    HW1  107   1.996   1.074   1.738  0.2923  2.6144 -0.4005
   36SOL    HW2  108   1.983   1.191   1.872  2.7820  3.1567 -0.3057
   37SOL     OW  109   1.192   0.191   0.956  0.2309 -0.3222 -0.0487
   37SOL    HW1  110   1.228   0.253   1.027  1.3896 -0.4688  0.3809
   37SOL    HW2  111   1.267   0.135   0.913  1.5573  0.0542 -1.0546
   38SOL     OW  112   1.068   2.730   2.403 -0.1059  0.6410  0.0316
   38SOL    HW1  113   1.037   2.643   2.450  0.2305  2.7892 -2.2897
   38SOL    HW2  114   0.995   2.799   2.382 -2.2436  2.0886  0.6109
   39SOL     OW  115   2.318   1.353   3.006 -0.2749 -0.3654  0.0199
   39SOL    HW1  116   2.411   1.309   3.020 -0.7122  0.9871 -1.5979
   39SOL    HW2  117   2.256   1.361   3.092 -1.2497 -0.5908  2.2967
   40SOL     OW  118   2.148   2.511   2.514  0.3514  0.2351 -0.2684
   40SOL    HW1  119   2.101   2.597   2.549 -0.6058  1.2147  0.4845
   40SOL    HW2  120   2.066   2.448   2.491 -1.6142 -2.1916 -0.1191
   41SOL     OW  121   2.938   0.716   2.748  0.4595 -0.1941  0.1158
   41SOL    HW1  122   2.846   0.765   2.761  0.3573 -2.6267 -2.3578
   41SOL    HW2  123   2.914   0.618   2.752  0.6546  1.1243 -2.4944
   42SOL     OW  124   1.742   1.781   0.557 -0.2599  0.2481  0.2207
   42SOL    HW1  125   1.685   1.703   0.518  0.3219 -1.1300 -1.7877
   42SOL    HW2  126   1.794   1.831   0.485 -0.8110 -2.1773 -0.7948
   43SOL     OW  127   0.477   1.732   1.149 -0.2695 -0.2018 -0.9131
   43SOL    HW1  128   0.472   1.671   1.238  1.2266 -1.8492 -0.4016
   43SOL    HW2  129   0.385   1.746   1.107  1.0932 -1.5103 -1.8274
   44SOL     OW  130   1.810   2.491   3.049  0.4406 -0.9881 -0.7820
   44SOL    HW1  131   1.808   2.586   3.003  0.2671  3.2623 -1.7887
   44SOL    HW2  132   1.866   2.494   3.138  0.5617 -1.2490  0.5537
   45SOL     OW  133   0.291   1.894   2.599  0.4443  0.3273  0.0079
   45SOL    HW1  134   0.237   1.903   2.511  0.1595  0.0209  1.2130
   45SOL    HW2  135   0.379   1.845   2.590 -0.9667 -0.3398 -1.6344
   46SOL     OW  136   1.206   0.677   0.192  0.4807  0.1528 -0.8303
   46SOL    HW1  137   1.237   0.750   0.127  1.9668  1.4604  0.7598
   46SOL    HW2  138   1.119   0.705   0.236  1.9426 -1.0552 -0.5378
   47SOL     OW  139   0.204   2.435   1.641 -0.2235 -0.2899 -0.0240
   47SOL    HW1  140   0.286   2.378   1.635 -0.9096  1.6574 -0.1697
   47SOL    HW2  141   0.174   2.477   1.547 -2.7917 -1.9877 -0.6196
   48SOL     OW  142   2.604   0.611   0.157  0.4689 -0.0371 -0.2369
   48SOL    HW1  143   2.556   0.616   0.260 -0.8746  2.4618  2.4396
   48SOL    HW2  144   2.690   0.670   0.159  0.5332 -3.6674  1.4997
   49SOL     OW  145   0.373   0.794   1.713  0.1975 -0.6147 -0.4500
   49SOL    HW1  146   0.439   0.815   1.793 -0.8262  0.1438  0.9111
   49SOL    HW2  147   0.400   0.718   1.645  0.0513  1.9904 -0.8360
   50SOL     OW  148   1.671   1.123   0.329 -0.1137  0.8227 -0.9783
   50SOL    HW1  149   1.663   1.018   0.304  0.2973 -2.7576 -0.4301
   50SOL    HW2  150   1.644   1.145   0.424 -1.2558  1.5555  1.3401
   51SOL     OW  151   2.975   1.920   0.293 -0.1027 -0.1170 -0.3498
   51SOL    HW1  152   2.954   1.877   0.203 -1.2684  0.2182  0.7469
   51SOL    HW2  153   2.980   1.854   0.371  0.2348  1.9771 -1.5486
   52SOL     OW  154   0.780   1.948   0.510  0.3735 -0.4470 -0.6004
   52SOL    HW1  155   0.701   2.004   0.554  0.0494  2.3295  1.0508
   52SOL    HW2  156   0.802   1.858   0.559  0.5303  0.8494 -0.9651
   53SOL     OW  157   3.094   0.359   1.549  0.4312  0.1597  0.0729
   53SOL    HW1  158   3.004   0.360   1.593 -1.4596 -2.3913  1.6803
   53SOL    HW2  159   3.085   0.395   1.452  0.8592 -2.9066 -1.6446
   54SOL     OW  160   1.764   0.449   3.078 -0.0311 -0.2038  0.0753
   54SOL    HW1  161   1.787   0.402   3.168  1.3129  0.5128  0.6947
   54SOL    HW2  162   1.656   0.460   3.068 -0.0205 -2.1339 -0.5398
   55SOL     OW  163   0.748   2.920   0.589  0.6087  0.4424  0.1568
   55SOL    HW1  164   0.676   2.996   0.602 -0.2853  0.9777 -3.8127
   55SOL    HW2  165   0.826   2.940   0.524 -0.3196  1.6465  2.8042
   56SOL     OW  166   0.456   1.568   3.025  0.0565  0.4896  0.0082
   56SOL    HW1  167   0.385   1.632   3.057  1.1698 -1.9367  0.0707
   56SOL    HW2  168   0.422   1.480   2.986 -1.1435 -3.3431 -0.5549
   57SOL     OW  169   1.806   2.484   2.653  0.0479  0.6843  0.1208
   57SOL    HW1  170   1.840   2.466   2.557 -0.1064  2.7490  0.6700
   57SOL    HW2  171   1.704   2.473   2.662 -0.8285 -0.6299 -2.8772
   58SOL     OW  172   0.661   0.383   1.123  0.5768 -0.0541 -0.1656
   58SOL    HW1  173   0.593   0.458   1.089  1.4862  1.5173 -1.3715
   58SOL    HW2  174   0.605   0.296   1.119 -1.2400  3.8912  0.7954
   59SOL     OW  175   0.398   2.371   2.760 -0.4389 -0.3321  0.1995
   59SOL    HW1  176   0.388   2.270   2.732 -0.2399 -0.6603 -0.0890
   59SOL    HW2  177   0.493   2.397   2.788  0.7477  0.7060  2.0459
   60SOL     OW  178   2.309   2.088   2.254  0.7389 -0.1990  0.2744
   60SOL    HW1  179   2.372   2.138   2.189 -0.7043 -1.8288 -2.8061
   60SOL    HW2  180   2.317   2.118   2.355 -0.2461 -0.6155  0.1330
   61SOL     OW  181   1.345   0.628   0.515 -0.8051 -0.2770 -0.2611
   61SOL    HW1  182   1.267   0.684   0.564  0.9239 -0.2581  1.3142
   61SOL    HW2  183   1.341   0.632   0.410 -1.9913 -2.4160  0.9726
   62SOL     OW  184   2.671   1.809   2.987 -0.1437  0.0231 -0.5125
   62SOL    HW1  185   2.648   1.720   3.035  0.0115 -1.2942  0.7219
   62SOL    HW2  186   2.749   1.810   2.914  0.1809 -0.6523  2.0979
   63SOL     OW  187   0.548   0.885   0.167  0.5202 -0.2236 -0.3363
   63SOL    HW1  188   0.497   0.973   0.152  1.4452 -0.1385  1.3587
   63SOL    HW2  189   0.631   0.898   0.227 -0.0303  2.2797 -0.1228
   64SOL     OW  190   0.063   0.528   2.541 -0.2786 -0.0288 -0.0155
   64SOL    HW1  191   0.061   0.551   2.640  3.3937 -1.7169  1.9230
   64SOL    HW2  192   0.106   0.598   2.475 -0.7857  4.8604 -1.5837
   65SOL     OW  193   0.194   1.497   0.611  0.3568 -0.2492 -0.5235
   65SOL    HW1  194   0.229   1.579   0.673 -1.6323  0.1394 -0.9612
   65SOL    HW2  195   0.268   1.430   0.583 -2.3772  1.1401 -3.0587
   66SOL     OW  196   2.515   0.443   0.625  0.1185  0.6292 -0.4591
   66SOL    HW1  197   2.493   0.512   0.696 -2.9058  1.6958  0.9167
   66SOL    HW2  198   2.497   0.340   0.654 -1.1215 -0.3476 -1.4662
   67SOL     OW  199   0.516   2.492   1.432  0.1619  0.2145 -0.1767
   67SOL    HW1  200   0.570   2.449   1.511 -2.2034  0.6637  1.0727
   67SOL    HW2  201   0.466   2.420   1.378 -0.0106  1.4772 -1.7352
   68SOL     OW  202   0.996   1.099   2.436  0.0516  0.2125  0.1333
   68SOL    HW1  203   1.049   1.020   2.390  0.1352  0.3642  3.2008
   68SOL    HW2  204   0.910   1.115   2.374  1.5843 -0.2897 -0.7166
   69SOL     OW  205   0.761   2.775   2.155 -0.1219  0.2567 -0.2249
   69SOL    HW1  206   0.816   2.678   2.159 -0.4099  0.4832  0.3924
   69SOL    HW2  207   0.660   2.759   2.152  2.5486  2.8174 -0.5946
   70SOL     OW  208   0.648   0.293   2.714 -0.0512  0.2056 -0.6090
   70SOL    HW1  209   0.637   0.364   2.793 -1.3885 -1.1938 -1.7530
   70SOL    HW2  210   0.624   0.194   2.745  1.0773  1.8450  1.1077
   71SOL     OW  211   1.108   1.793   0.323 -0.7926 -0.3910 -0.0207
   71SOL    HW1  212   1.027   1.734   0.353  2.7099  1.8169  1.5605
   71SOL    HW2  213   1.104   1.808   0.221 -0.4332  0.6272  0.3024
   72SOL     OW  214   1.777   0.128   2.034 -0.3593 -0.2835 -0.3451
   72SOL    HW1  215   1.826   0.132   1.941  3.6527 -1.7841 -2.0994
   72SOL    HW2  216   1.803   0.049   2.095 -0.9092 -0.0807 -0.8399
   73SOL     OW  217   2.740   2.166   2.516  0.1833 -0.4001  0.0682
   73SOL    HW1  218   2.745   2.069   2.497  0.9093  0.4348 -1.7512
   73SOL    HW2  219   2.767   2.191   2.617  1.6793  0.4382 -3.2767
   74SOL     OW  220   2.718   2.958   1.991 -0.0001 -0.5226 -0.2106
   74SOL    HW1  221   2.652   2.977   2.069 -1.9499 -3.2879  1.6162
   74SOL    HW2  222   2.810   2.941   2.026 -0.8696 -4.3984  1.0207
   75SOL     OW  223   0.917   0.770   1.010  1.0878  0.0291 -0.0186
   75SOL    HW1  224   0.826   0.816   0.989  0.0348  1.3946  0.5261
   75SOL    HW2  225   0.961   0.819   1.085  0.5705 -2.6367  0.1612
   76SOL     OW  226   1.729   1.239   2.568  0.5074  0.5489 -0.1489
   76SOL    HW1  227   1.627   1.216   2.596 -1.9046 -0.0786  0.4157
   76SOL    HW2  228   1.755   1.324   2.616 -0.4824 -0.8227 -0.1657
   77SOL     OW  229   2.903   0.968   0.971  0.1209  0.0832  0.2530
   77SOL    HW1  230   2.917   0.873   0.934 -1.1536 -0.4067 -3.2245
   77SOL    HW2  231   2.947   0.990   1.066  0.1500  3.0988  1.1309
   78SOL     OW  232   2.045   1.424   1.535  0.4734 -0.2263  0.2725
   78SOL    HW1  233   2.115   1.475   1.474 -0.9760  1.0088  2.6505
   78SOL    HW2  234   1.976   1.365   1.489  0.9170  0.4970  1.4856
   79SOL     OW  235   0.610   1.337   0.830  0.4701 -0.2350  0.6341
   79SOL    HW1  236   0.514   1.377   0.849 -0.3171 -0.0686 -1.7032
   79SOL    HW2  237   0.623   1.304   0.732  2.2404 -1.1538 -2.2617
   80SOL     OW  238   0.670   0.484   1.591  0.4204 -0.4538  0.1774
   80SOL    HW1  239   0.705   0.564   1.539 -0.7276 -0.5681  0.7965
   80SOL    HW2  240   0.727   0.400   1.585  0.2087  1.4735 -0.4651
   81SOL     OW  241   1.049   1.362   2.595  0.4292 -0.4413 -0.2791
   81SOL    HW1  242   0.996   1.298   2.654  0.7045 -4.2674  0.4874
   81SOL    HW2  243   0.988   1.409   2.518 -0.2958  1.5493  1.6199
   82SOL     OW  244   0.989   2.957   1.499 -0.1406  0.2292  0.0768
   82SOL    HW1  245   1.032   2.939   1.403  0.8861 -3.8297 -0.8066
   82SOL    HW2  246   0.883   2.934   1.495 -0.5328 -0.4302 -0.3659
   83SOL     OW  247   2.671   2.481   0.837  0.2136  0.3142  0.4559
   83SOL    HW1  248   2.589   2.428   0.802  1.9844 -0.7367  3.3259
   83SOL    HW2  249   2.683   2.564   0.785 -1.7073 -1.6096  1.1277
   84SOL     OW  250   0.730   3.074   2.357 -0.1180 -0.0102 -0.4759
   84SOL    HW1  251   0.650   3.068   2.418  0.0013  0.8923  1.6157
   84SOL    HW2  252   0.757   2.987   2.303  0.2072 -0.3218 -1.4335
   85SOL     OW  253   0.418   1.636   1.564  0.2105 -0.7968  0.4236
   85SOL    HW1  254   0.370   1.721   1.529 -1.0786 -0.9835  1.8193
   85SOL    HW2  255   0.399   1.618   1.666 -1.7275  2.8769 -0.0289
   86SOL     OW  256   0.350   0.964   1.501 -0.2562 -0.1994 -0.5808
   86SOL    HW1  257   0.330   0.912   1.415 -0.1925 -0.0557  0.4389
   86SOL    HW2  258   0.351   0.907   1.587 -0.5413  1.0979 -1.5981
   87SOL     OW  259   1.511   0.671   0.263 -0.0176  0.6585 -0.7223
   87SOL    HW1  260   1.594   0.734   0.257 -2.3039  0.8183  1.0910
   87SOL    HW2  261   1.501   0.621   0.178 -0.7378  2.3383 -0.6627
   88SOL     OW  262   1.548   1.355   0.210 -0.3437  0.1761  0.7187
   88SOL    HW1  263   1.605   1.282   0.260 -0.4616  0.9808 -0.3145
   88SOL    HW2  264   1.443   1.366   0.228 -1.4390  1.7247 -1.8480
   89SOL     OW  265   0.038   0.413   0.583 -0.4721 -0.0334  0.4315
   89SOL    HW1  266   0.101   0.327   0.582 -1.0395  1.6203 -0.1569
   89SOL    HW2  267  -0.055   0.397   0.543  0.5031  0.6349  1.4035
   90SOL     OW  268   0.922   1.583   3.026 -0.0049 -0.7003  0.3210
   90SOL    HW1  269   0.830   1.562   3.068 -1.0036  0.1902 -1.3146
   90SOL    HW2  270   0.912   1.638   2.936 -0.3444  1.5591 -0.9483
   91SOL     OW  271   1.278   1.461   1.826  0.0085 -0.0298  0.8163
   91SOL    HW1  272   1.275   1.542   1.893 -2.2868  2.2180  0.0380
   91SOL    HW2  273   1.363   1.454   1.772 -0.5949 -0.0352  0.1624
   92SOL     OW  274   3.048   1.034   1.218 -0.2312 -0.9804 -0.3527
   92SOL    HW1  275   3.119   1.093   1.165  1.3076  0.4317  2.8975
   92SOL    HW2  276   3.075   1.029   1.317 -0.7101  1.6768  0.6396
   93SOL     OW  277   3.095   2.751   0.052 -0.1933 -0.2015 -0.3673
   93SOL    HW1  278   3.063   2.752  -0.049  3.4147 -0.0187 -3.7181
   93SOL    HW2  279   3.164   2.670   0.057  1.3344 -0.8171  0.3732
   94SOL     OW  280   1.534   1.430   1.691  0.6000  0.2536  0.0454
   94SOL    HW1  281   1.586   1.350   1.657  0.6291  3.5414 -1.8709
   94SOL    HW2  282   1.588   1.488   1.761 -1.9392  1.5579  2.0518
   95SOL     OW  283   1.312   2.516   2.988  0.0720  0.0702  0.4988
   95SOL    HW1  284   1.240   2.493   3.064 -0.7949 -1.9947 -0.4742
   95SOL    HW2  285   1.347   2.427   2.942  1.8662 -1.6258 -0.1891
   96SOL     OW  286   0.559   2.016   1.249 -0.0395 -0.1655  0.7572
   96SOL    HW1  287   0.498   2.042   1.163 -2.5077  0.2994  0.6792
   96SOL    HW2  288   0.559   1.915   1.279 -3.6341  0.0704  1.7347
   97SOL     OW  289   0.364   1.557   2.496 -0.2197  0.7197 -0.1805
   97SOL    HW1  290   0.275   1.543   2.541 -1.6908 -2.1500 -2.6533
   97SOL    HW2  291   0.417   1.639   2.535 -0.9308  2.4131  0.7698
   98SOL     OW  292   1.949   1.595   1.263 -0.6676 -0.2556  0.1358
   98SOL    HW1  293   1.917   1.530   1.341  1.9504 -1.2994  1.3092
   98SOL    HW2  294   1.948   1.542   1.175  0.7607 -2.3621 -1.5565
   99SOL     OW  295   2.476   2.096   1.418 -0.0455 -0.1756 -0.3749
   99SOL    HW1  296   2.497   2.077   1.518 -0.2904  2.5024  0.1273
   99SOL    HW2  297   2.452   2.010   1.368 -2.4748  1.2275  0.9821
  100SOL     OW  298   2.306   0.382   2.058  0.2619  0.4182  0.1998
  100SOL    HW1  299   2.253   0.349   2.144  2.8105  2.5911 -2.4273
  100SOL    HW2  300   2.409   0.395   2.074 -0.5562 -1.9590 -0.8991
  101SOL     OW  301   0.405   1.494   0.265 -0.3670 -0.2098 -0.4662
  101SOL    HW1  302   0.445   1.475   0.361  0.8713  1.8180 -1.9426
  101SOL    HW2  303   0.473   1.543   0.203 -1.1363 -1.6399 -0.2448
  102SOL     OW  304   2.317   1.036   0.826  0.0885 -0.0774  0.1133
  102SOL    HW1  305   2.215   1.011   0.811 -0.1870  1.8190  1.0764
  102SOL    HW2  306   2.346   1.118   0.777 -0.3586 -0.7748 -0.4079
  103SOL     OW  307   2.309   0.035   0.405 -0.2426 -0.3730  0.1076
  103SOL    HW1  308   2.356   0.119   0.365 -1.4004  1.3570 -1.3348
  103SOL    HW2  309   2.359  -0.018   0.483 -0.9082 -1.5988  0.9408
  104SOL     OW  310   0.093   1.768   2.168 -0.3464 -0.3834  0.9956
  104SOL    HW1  311   0.127   1.745   2.067 -1.6003 -1.2024  0.3634
  104SOL    HW2  312  -0.010   1.768   2.163  1.4999 -0.6356  1.2178
  105SOL     OW  313   1.240   2.016   0.808 -0.2227  0.4071  0.6829
  105SOL    HW1  314   1.172   2.057   0.740 -0.2323  1.3933  0.6171
  105SOL    HW2  315   1.277   1.924   0.779  0.1654  1.1845 -1.4535
  106SOL     OW  316   2.129   0.543   1.373  0.1009  0.5121 -0.4031
  106SOL    HW1  317   2.105   0.461   1.431  1.1740 -1.3840  0.1268
  106SOL    HW2  318   2.126   0.634   1.424  1.2630  1.2131 -0.6675
  107SOL     OW  319   1.799   2.992   1.097 -0.3927  0.0245  0.1123
  107SOL    HW1  320   1.829   3.088   1.125 -3.4256 -0.6322 -1.9669
  107SOL    HW2  321   1.754   2.945   1.178 -0.6369 -0.6097  0.1117
  108SOL     OW  322   0.824   2.743   1.243 -0.0169  0.2213 -0.3214
  108SOL    HW1  323   0.798   2.732   1.344  0.8256 -0.3224 -1.6531
  108SOL    HW2  324   0.924   2.766   1.229 -2.0176  1.7834  0.9646
  109SOL     OW  325   2.219   0.138   0.806 -0.0594  0.3129  0.1759
  109SOL    HW1  326   2.136   0.095   0.757  1.1887  0.4509  0.4265
  109SOL    HW2  327   2.218   0.115   0.908  1.7297  0.6602 -1.0641
  110SOL     OW  328   0.441   2.791   2.698 -0.2578  0.0904  0.3407
  110SOL    HW1  329   0.438   2.808   2.599  1.4163 -0.2806  0.3112
  110SOL    HW2  330   0.527   2.746   2.729 -2.2687 -0.0629  1.5034
  111SOL     OW  331   1.346   0.515   2.263 -0.1004  0.3795  0.1378
  111SOL    HW1  332   1.275   0.572   2.313  0.2332 -0.0175 -0.9928
  111SOL    HW2  333   1.382   0.443   2.328  3.2056  1.9757  1.7919
  112SOL     OW  334   1.736   0.522   1.461 -0.1306 -0.0983  0.5012
  112SOL    HW1  335   1.726   0.529   1.357 -1.3288 -0.2241 -0.8969
  112SOL    HW2  336   1.708   0.428   1.497  0.8329 -0.2367 -1.3890
  113SOL     OW  337   2.272   1.616   1.755 -0.3346 -0.3207  0.3674
  113SOL    HW1  338   2.323   1.540   1.712 -0.3805  2.2895 -1.1536
  113SOL    HW2  339   2.333   1.661   1.827 -1.2139  2.2220 -0.0739
  114SOL     OW  340   0.320   0.536   1.278  0.4252 -0.2564  0.0057
  114SOL    HW1  341   0.322   0.633   1.255 -1.3121 -0.9693 -2.0971
  114SOL    HW2  342   0.269   0.478   1.211  3.6801 -0.4955 -0.6183
  115SOL     OW  343   2.650   1.636   1.233  0.8029  0.5096  1.0065
  115SOL    HW1  344   2.698   1.546   1.266 -0.1627 -1.6416 -0.1494
  115SOL    HW2  345   2.709   1.693   1.171  0.3033 -1.4509  2.1214
  116SOL     OW  346   1.803   1.048   0.739 -0.7454 -0.3089 -0.9949
  116SOL    HW1  347   1.735   0.987   0.693 -1.0100 -0.5500  1.4730
  116SOL    HW2  348   1.767   1.145   0.768  2.9519  1.1041  1.4438
  117SOL     OW  349   1.136   0.356   0.690  0.4007  0.3751 -0.1625
  117SOL    HW1  350   1.147   0.331   0.793 -0.9292  2.0164  1.1114
  117SOL    HW2  351   1.160   0.453   0.675  0.3571 -0.7341 -1.0490
  118SOL     OW  352   1.103   1.135   1.089  0.2984  0.6723 -0.3330
  118SOL    HW1  353   1.069   1.042   1.133 -2.3492 -1.9308  0.7648
  118SOL    HW2  354   1.127   1.211   1.151 -0.8928 -1.3485 -2.6744
  119SOL     OW  355   1.843   1.610   2.127  0.3560 -0.3682  0.0455
  119SOL    HW1  356   1.801   1.707   2.140 -1.1255  4.4913 -1.3460
  119SOL    HW2  357   1.943   1.598   2.115 -2.4827 -0.3652  0.0510
  120SOL     OW  358   2.963   2.831   0.296 -0.1140  0.2195 -0.0936
  120SOL    HW1  359   3.001   2.817   0.204  0.2582 -0.5331 -0.1131
  120SOL    HW2  360   2.884   2.765   0.319  0.6578  0.2854 -1.9932
  121SOL     OW  361   1.970   0.740   2.259  0.0189  0.5406  0.4969
  121SOL    HW1  362   2.029   0.788   2.191  0.2666  0.8071  3.6465
  121SOL    HW2  363   1.953   0.638   2.235 -0.9609 -1.2860 -0.6060
  122SOL     OW  364   2.699   2.654   1.266 -0.3714  0.1707  0.0046
  122SOL    HW1  365   2.724   2.585   1.190  1.4698 -1.6448  0.9677
  122SOL    HW2  366   2.652   2.610   1.338  0.6230  3.6665 -3.0936
  123SOL     OW  367   1.730   0.073   1.713 -0.1548 -0.2701 -0.4339
  123SOL    HW1  368   1.745   0.000   1.646 -0.9065  0.0736  1.3226
  123SOL    HW2  369   1.814   0.124   1.746  0.4516 -0.1825  0.0433
  124SOL     OW  370   0.116   0.466   1.075  0.1522 -0.9026  0.2058
  124SOL    HW1  371   0.088   0.547   1.131 -0.3217  2.5743  2.7830
  124SOL    HW2  372   0.088   0.489   0.975  0.7748  0.9694 -1.4900
  125SOL     OW  373   0.878   1.715   0.642 -0.2124 -0.7705  0.6944
  125SOL    HW1  374   0.983   1.709   0.631  2.2570 -2.4172 -1.2637
  125SOL    HW2  375   0.846   1.646   0.712 -0.6052 -2.4150 -1.8562
  126SOL     OW  376   1.907   2.359   2.416 -0.2817 -0.4522 -0.0531
  126SOL    HW1  377   1.968   2.304   2.353  0.9083 -0.3602  0.0122
  126SOL    HW2  378   1.829   2.302   2.452  0.0389 -0.9265  0.1703
  127SOL     OW  379   0.791   0.930   0.269  0.5409 -0.2419  0.5917
  127SOL    HW1  380   0.856   0.987   0.323 -1.6812  0.4092  2.6778
  127SOL    HW2  381   0.817   0.830   0.257  2.0273 -0.0878 -1.9968
  128SOL     OW  382   0.951   0.200   1.366 -0.5425  0.2068 -0.7646
  128SOL    HW1  383   0.923   0.294   1.332 -2.3239 -1.4125  0.8502
  128SOL    HW2  384   0.872   0.130   1.348  0.7658  1.2159 -1.1053
  129SOL     OW  385   1.868   0.667   1.871 -0.1938 -0.0313 -0.3401
  129SOL    HW1  386   1.892   0.688   1.772 -0.2810 -0.3376  4.7414
  129SOL    HW2  387   1.883   0.740   1.942  0.1871  2.6197 -0.9440
  130SOL     OW  388   1.321   2.211   0.993  0.6101  0.6793  0.0251
  130SOL    HW1  389   1.317   2.131   0.922 -0.6069  0.0307 -0.9212
  130SOL    HW2  390   1.393   2.282   0.966  0.2621 -2.0092  0.2445
  131SOL     OW  391   0.029   1.520   1.404 -0.2302 -0.2973 -0.0093
  131SOL    HW1  392  -0.024   1.433   1.385 -2.5061  1.6418  1.2268
  131SOL    HW2  393   0.131   1.509   1.383  0.9638  0.3186  0.5969
  132SOL     OW  394   1.998   2.392   0.517  0.5257 -0.0142 -0.5806
  132SOL    HW1  395   1.896   2.372   0.516  0.3082  0.4903 -3.0417
  132SOL    HW2  396   2.032   2.354   0.611 -1.2741  1.9257  2.3169
  133SOL     OW  397   1.890   2.279   2.872  0.1371  0.3176  0.0954
  133SOL    HW1  398   1.869   2.353   2.948 -0.6772  0.7966 -0.5811
  133SOL    HW2  399   1.905   2.326   2.782  1.1925 -3.2508 -0.9092
  134SOL     OW  400   2.715   2.343   1.638 -0.3027  0.1579  0.0337
  134SOL    HW1  401   2.673   2.328   1.734 -1.6099 -0.8425 -0.7217
  134SOL    HW2  402   2.774   2.429   1.637 -0.1467 -0.2477  1.5234
  135SOL     OW  403   0.723   1.556   2.608 -0.0068 -0.3884  0.9626
  135SOL    HW1  404   0.673   1.469   2.627 -1.3680  1.8899  1.2103
  135SOL    HW2  405   0.789   1.553   2.532  2.1474  0.4181 -4.9283
  136SOL     OW  406   1.218   2.042   0.427  0.3451 -0.1724 -0.3272
  136SOL    HW1  407   1.177   2.111   0.491 -0.1996 -0.4760 -0.7170
  136SOL    HW2  408   1.167   1.952   0.434 -2.0521 -1.1627  2.6087
  137SOL     OW  409   0.419   1.121   2.113 -0.3699  0.4001 -0.2666
  137SOL    HW1  410   0.323   1.088   2.147 -2.3505  2.4247  0.4394
  137SOL    HW2  411   0.493   1.084   2.175 -0.5637  0.2892  0.2766
  138SOL     OW  412   2.440   1.509   0.206  0.2235  0.0823  0.4332
  138SOL    HW1  413   2.358   1.490   0.145 -0.7292  1.4679 -1.9655
  138SOL    HW2  414   2.446   1.438   0.283 -1.1847 -1.0462  0.3860
  139SOL     OW  415   1.816   2.653   1.245 -0.2204  0.3840  0.7313
  139SOL    HW1  416   1.727   2.631   1.184 -0.0400 -1.1445 -0.7586
  139SOL    HW2  417   1.852   2.569   1.297 -1.2655  1.1089 -1.2709
  140SOL     OW  418   3.033   2.983   2.597  0.1946  0.0881  0.9903
  140SOL    HW1  419   3.080   2.900   2.554  2.1778  0.3842  0.9053
  140SOL    HW2  420   3.106   3.049   2.626 -0.0488 -1.5438 -1.1013
  141SOL     OW  421   1.216   1.700   1.609  0.5411  0.5022 -0.0037
  141SOL    HW1  422   1.134   1.749   1.652 -1.8141  0.2801 -0.5633
  141SOL    HW2  423   1.256   1.626   1.670  0.5288 -2.0288  1.4386
  142SOL     OW  424   1.583   0.616   2.185 -0.1067 -0.3894 -0.6625
  142SOL    HW1  425   1.603   0.594   2.090 -2.5666 -1.5064  1.0161
  142SOL    HW2  426   1.489   0.579   2.211  0.8272 -0.5149  1.4459
  143SOL     OW  427   2.744   0.881   0.517  0.0365 -0.0391 -0.2183
  143SOL    HW1  428   2.757   0.919   0.421  3.2208  0.4744 -0.2879
  143SOL    HW2  429   2.796   0.943   0.584 -0.3349  3.7045 -0.1884
  144SOL     OW  430   2.980   1.258   1.403 -0.4212 -0.0020  0.7374
  144SOL    HW1  431   2.951   1.229   1.499  0.0451 -1.5018  0.5580
  144SOL    HW2  432   2.999   1.177   1.342 -1.4138  0.0116  1.0322
  145SOL     OW  433   1.017   1.811   0.051  0.0069  0.2024 -0.6087
  145SOL    HW1  434   1.000   1.879  -0.024  0.8072 -0.4604  1.0621
  145SOL    HW2  435   0.995   1.713   0.019 -1.0752 -0.1449  0.4716
  146SOL     OW  436   2.429   0.650   1.550  0.4563  0.1125 -0.3075
  146SOL    HW1  437   2.383   0.573   1.500 -2.1131  2.7523 -1.9446
  146SOL    HW2  438   2.374   0.741   1.530 -2.6611  3.5366 -0.6378
  147SOL     OW  439   1.087   2.463   0.581  0.2547 -0.5983  0.2350
  147SOL    HW1  440   1.060   2.522   0.500 -0.2755  0.5121  1.3453
  147SOL    HW2  441   1.177   2.426   0.566 -1.0759  2.1291 -0.1075
  148SOL     OW  442   1.648   1.457   3.084  0.0376 -0.2439  0.4998
  148SOL    HW1  443   1.664   1.366   3.034 -0.9591 -0.8705  0.3586
  148SOL    HW2  444   1.614   1.429   3.180 -0.1265 -1.1452 -1.4717
  149SOL     OW  445   0.708   1.444   1.921  0.6217 -0.1729 -0.3035
  149SOL    HW1  446   0.623   1.429   1.980 -0.1710  0.2657  2.4827
  149SOL    HW2  447   0.735   1.356   1.867  0.1341 -1.7536 -2.3849
  150SOL     OW  448   2.998   1.238   0.923  0.3302  0.0820 -0.2884
  150SOL    HW1  449   3.078   1.257   0.990 -0.9438 -0.5753  0.1767
  150SOL    HW2  450   2.953   1.147   0.941  2.2611 -1.2782 -0.1487
  151SOL     OW  451   0.172   0.776   2.107 -0.0228 -0.2747  0.1367
  151SOL    HW1  452   0.160   0.830   2.023  1.5573 -0.9334  2.6068
  151SOL    HW2  453   0.254   0.720   2.094 -2.3945  1.4563 -1.1210
  152SOL     OW  454   1.365   1.712   1.271  0.3241 -0.0259  0.6786
  152SOL    HW1  455   1.390   1.789   1.334 -0.9780  0.0046 -1.5847
  152SOL    HW2  456   1.270   1.719   1.234  0.2315  1.6230 -2.0519
  153SOL     OW  457   0.027   1.519   0.155  0.3814 -0.5928  0.8088
  153SOL    HW1  458   0.025   1.414   0.168 -0.5666  1.6695 -0.9759
  153SOL    HW2  459   0.023   1.567   0.249 -0.7847 -1.4825  1.2162
  154SOL     OW  460   2.360   1.859   2.827 -0.1541  0.2750  0.2294
  154SOL    HW1  461   2.380   1.758   2.845  2.0173 -1.2704 -0.5003
  154SOL    HW2  462   2.447   1.917   2.811  1.6441  1.9816  0.0410
  155SOL     OW  463   2.477   1.254   0.369  0.2386 -0.5374 -0.3041
  155SOL    HW1  464   2.567   1.241   0.326 -3.7314  0.6584 -0.5098
  155SOL    HW2  465   2.417   1.172   0.353  0.6489  0.9269 -2.5541
  156SOL     OW  466   2.579   0.937   0.885  0.5481 -0.0919  0.6046
  156SOL    HW1  467   2.478   0.962   0.860 -0.4133  2.9728 -0.2883
  156SOL    HW2  468   2.633   1.021   0.903 -1.4742 -0.1175 -0.2410
  157SOL     OW  469   1.198   2.983   2.970  0.2260 -0.1531  0.3935
  157SOL    HW1  470   1.267   2.952   2.900  1.2012  2.0859 -0.3078
  157SOL    HW2  471   1.215   3.072   3.016 -0.8592 -0.3270  2.6536
  158SOL     OW  472   1.006   1.869   1.971 -0.4161  0.3836  0.2656
  158SOL    HW1  473   1.051   1.959   1.938 -2.7344  1.7152  1.2726
  158SOL    HW2  474   0.922   1.890   2.028 -0.6429  2.7960  1.7402
  159SOL     OW  475   0.845   0.439   1.302 -0.3530 -0.1349 -0.1992
  159SOL    HW1  476   0.817   0.535   1.336 -2.1463  0.8136 -2.1941
  159SOL    HW2  477   0.764   0.400   1.244 -1.7150  0.5006 -2.5640
  160SOL     OW  478   1.447   2.471   1.650 -0.3906 -0.5477  0.3221
  160SOL    HW1  479   1.457   2.566   1.618 -1.8251 -2.1232  1.4698
  160SOL    HW2  480   1.501   2.406   1.594 -1.2273 -3.2792  3.5412
  161SOL     OW  481   0.177   2.893   0.310 -0.3995  0.0570 -0.0318
  161SOL    HW1  482   0.084   2.849   0.340 -0.0427 -1.4233 -1.5818
  161SOL    HW2  483   0.148   2.960   0.243  0.3832 -0.8825  2.8161
  162SOL     OW  484   2.586   1.890   0.465  0.0956  0.2848  0.1666
  162SOL    HW1  485   2.576   1.844   0.370 -0.4919 -0.4949 -1.7956
  162SOL    HW2  486   2.543   1.820   0.538  0.9386 -0.3569  0.3228
  163SOL     OW  487   1.974   2.664   0.725  0.5032 -0.1636  0.6758
  163SOL    HW1  488   1.927   2.667   0.635  0.8847 -0.7092  0.9595
  163SOL    HW2  489   2.057   2.604   0.723  0.1254  0.5239  0.7324
  164SOL     OW  490   3.038   0.271   1.272 -0.2898 -0.3669 -0.4216
  164SOL    HW1  491   3.097   0.324   1.208 -0.4813 -0.9617 -2.5445
  164SOL    HW2  492   3.092   0.203   1.327  1.3906 -0.5585 -0.0253
  165SOL     OW  493   0.970   1.420   0.668 -0.4656  0.0751 -0.1763
  165SOL    HW1  494   0.898   1.429   0.744  0.2098  2.1337 -1.2632
  165SOL    HW2  495   0.935   1.465   0.578  0.7990  1.3001  0.1496
  166SOL     OW  496   1.491   1.070   1.729  0.0946  0.4683 -0.4481
  166SOL    HW1  497   1.421   1.030   1.786  0.4622 -0.7028 -2.5942
  166SOL    HW2  498   1.555   1.126   1.789  0.4467  2.1377  1.5042
  167SOL     OW  499   0.815   1.921   1.532 -0.5524 -0.3172 -0.7384
  167SOL    HW1  500   0.783   2.000   1.592 -0.2296  2.1688 -0.9647
  167SOL    HW2  501   0.740   1.850   1.511 -0.7082  0.3272  1.6891
  168SOL     OW  502   1.613   2.386   0.158 -0.2691  0.0641 -0.0159
  168SOL    HW1  503   1.675   2.401   0.073  0.8083  0.4590 -0.9713
  168SOL    HW2  504   1.641   2.307   0.223 -0.2322 -0.2905 -2.8381
  169SOL     OW  505   0.232   2.621   2.216 -0.2757  0.3325  0.2640
  169SOL    HW1  506   0.259   2.581   2.123  1.8550  1.6743 -2.8908
  169SOL    HW2  507   0.284   2.577   2.293  0.3661 -2.2918  0.1724
  170SOL     OW  508   1.234   0.309   1.934  0.3232 -0.2848  0.0367
  170SOL    HW1  509   1.284   0.268   2.017 -0.5142 -0.2350  0.1675
  170SOL    HW2  510   1.222   0.234   1.865 -0.1687  0.0574  1.2875
  171SOL     OW  511   0.212   0.788   2.410 -0.1164  0.7587 -0.2560
  171SOL    HW1  512   0.136   0.824   2.464  1.1178 -0.7960 -1.3547
  171SOL    HW2  513   0.184   0.790   2.310 -1.9592  2.1651  1.1049
  172SOL     OW  514   0.871   1.123   2.979 -0.0725 -0.7214 -0.2869
  172SOL    HW1  515   0.959   1.177   2.993  1.0934  0.0665  1.5096
  172SOL    HW2  516   0.843   1.121   2.879 -0.3702  1.0758 -2.9587
  173SOL     OW  517   0.654   2.699   0.114  0.2245 -0.1736 -0.3033
  173SOL    HW1  518   0.642   2.802   0.112  1.7413  0.0360  0.8054
  173SOL    HW2  519   0.562   2.644   0.103 -2.7640 -1.4834 -2.1756
  174SOL     OW  520   1.396   2.824   1.073 -0.1330 -0.0928  0.6514
  174SOL    HW1  521   1.468   2.877   1.023 -0.3489  0.1572  0.9822
  174SOL    HW2  522   1.342   2.752   1.012  0.1528 -0.0248 -1.4560
  175SOL     OW  523   0.447   0.040   1.648 -0.4146  0.2730 -0.3252
  175SOL    HW1  524   0.517   0.100   1.695 -0.3017  3.1847 -1.3707
  175SOL    HW2  525   0.369   0.094   1.608 -1.0887 -0.0958 -0.1646
  176SOL     OW  526   2.524   0.411   3.068  0.0809 -0.5370  0.8718
  176SOL    HW1  527   2.545   0.476   3.147  2.1726  0.0261 -0.8488
  176SOL    HW2  528   2.440   0.363   3.096  3.6766  1.2210 -2.7759
  177SOL     OW  529   0.353   0.289   0.936  0.0832 -0.2703 -0.3556
  177SOL    HW1  530   0.407   0.251   1.020 -0.9033 -2.1090  3.4898
  177SOL    HW2  531   0.257   0.328   0.954 -1.9010  0.7709  1.1245
  178SOL     OW  532   0.034   2.715   2.597 -0.0068  0.2355  0.5829
  178SOL    HW1  533  -0.032   2.638   2.624 -0.1379 -1.5274  0.7462
  178SOL    HW2  534   0.101   2.726   2.674 -2.1579 -3.3084  1.6425
  179SOL     OW  535   0.008   1.702   1.182  0.1799 -0.3156  0.2633
  179SOL    HW1  536  -0.053   1.785   1.159 -3.1752  2.3563 -2.8041
  179SOL    HW2  537  -0.016   1.650   1.274  0.6678 -1.2040  0.3051
  180SOL     OW  538   0.249   1.208   1.832  0.2563  0.0369  0.3036
  180SOL    HW1  539   0.351   1.221   1.803  0.1039  0.0270  2.9930
  180SOL    HW2  540   0.216   1.282   1.896 -1.2855  3.0100  1.4284
  181SOL     OW  541   3.058   1.857   2.548 -0.1845  0.5478 -0.2157
  181SOL    HW1  542   3.120   1.905   2.476  2.0083  0.2719 -0.6037
  181SOL    HW2  543   2.964   1.866   2.517  5.7943 -3.3783  2.5951
  182SOL     OW  544   2.311   1.268   1.156 -0.1839  0.6835  0.1160
  182SOL    HW1  545   2.222   1.223   1.113  0.8751 -1.0342  0.1967
  182SOL    HW2  546   2.312   1.371   1.163 -3.9558 -0.2764  2.4281
  183SOL     OW  547   1.485   2.268   2.494  0.9492 -0.3207  0.0324
  183SOL    HW1  548   1.407   2.202   2.489 -0.3446  1.1686 -0.3722
  183SOL    HW2  549   1.571   2.222   2.513 -3.9273  3.1905  0.2286
  184SOL     OW  550   2.044   0.935   0.825 -0.0119 -0.2158  0.3901
  184SOL    HW1  551   1.958   0.982   0.786  0.1575 -0.2094  2.0269
  184SOL    HW2  552   2.015   0.848   0.869 -1.1061  2.2283  1.5613
  185SOL     OW  553   1.597   2.685   2.082 -0.1961  0.2135 -0.0955
  185SOL    HW1  554   1.552   2.774   2.058 -3.0374 -0.0621 -1.4944
  185SOL    HW2  555   1.574   2.646   2.173 -0.3904 -0.8600 -3.5282
  186SOL     OW  556   0.066   2.213   1.724  0.0557 -0.0019  0.0299
  186SOL    HW1  557   0.082   2.316   1.702 -3.0086  0.2042  0.9046
  186SOL    HW2  558   0.151   2.160   1.687  2.8262 -0.1177 -2.2990
  187SOL     OW  559   1.381   0.721   1.684  0.5349 -0.2162 -0.1714
  187SOL    HW1  560   1.409   0.770   1.601 -2.4339 -2.9616 -0.2461
  187SOL    HW2  561   1.409   0.766   1.772 -2.8667  0.3698  0.7024
  188SOL     OW  562   2.801   2.801   1.496 -0.0278 -0.8864 -0.6130
  188SOL    HW1  563   2.799   2.906   1.497  0.0515 -0.8581 -1.6041
  188SOL    HW2  564   2.742   2.759   1.420  0.3829  0.5351 -1.9181
  189SOL     OW  565   0.843   1.027   1.389 -0.1574  0.2350 -0.3278
  189SOL    HW1  566   0.903   1.105   1.430  2.2753  2.2851 -0.5247
  189SOL    HW2  567   0.819   1.060   1.294 -0.4090 -1.5670  0.7024
  190SOL     OW  568   1.514   1.861   1.582  0.3540  0.7103 -0.6334
  190SOL    HW1  569   1.434   1.929   1.573 -0.8834 -2.8224  0.1973
  190SOL    HW2  570   1.545   1.847   1.681  0.6864  2.0304  0.6239
  191SOL     OW  571   0.977   0.756   1.562 -0.5060 -0.3153  0.0528
  191SOL    HW1  572   1.020   0.663   1.537 -2.6233 -1.9812  0.0662
  191SOL    HW2  573   1.046   0.836   1.569 -0.4347 -0.3413 -0.1752
  192SOL     OW  574   1.845   2.306   1.132  0.0018 -0.1635 -0.5133
  192SOL    HW1  575   1.752   2.289   1.085  2.8711 -1.3222 -3.6684
  192SOL    HW2  576   1.919   2.354   1.078  1.5045 -1.5223  1.9028
  193SOL     OW  577   0.504   0.606   0.402  0.1523  0.2437 -0.0077
  193SOL    HW1  578   0.472   0.554   0.487 -0.5209 -1.2052 -1.3896
  193SOL    HW2  579   0.521   0.549   0.320 -0.2485  2.3166  0.3507
  194SOL     OW  580   0.289   0.832   1.274  0.3150  0.9381  0.2227
  194SOL    HW1  581   0.204   0.777   1.257  0.5184 -0.5922 -0.6864
  194SOL    HW2  582   0.304   0.909   1.203 -0.4772  1.1703  0.3847
  195SOL     OW  583   0.971   2.935   0.425  0.1674 -0.0903  0.1700
  195SOL    HW1  584   0.972   2.831   0.397 -0.0284 -0.6893 -1.1976
  195SOL    HW2  585   1.073   2.968   0.455  1.3110  3.5115  0.6243
  196SOL     OW  586   0.297   1.418   1.407  0.0447 -0.6032 -0.0865
  196SOL    HW1  587   0.336   1.499   1.459 -1.0407 -0.7409 -1.5784
  196SOL    HW2  588   0.263   1.340   1.465  1.4518  0.4670 -1.5527
  197SOL     OW  589   0.938   2.051   0.220  0.0114 -0.1739  0.3088
  197SOL    HW1  590   0.919   2.026   0.319 -0.8184 -0.6653  0.1763
  197SOL    HW2  591   0.962   1.969   0.160 -0.7874  0.6709  1.6818
  198SOL     OW  592   0.256   1.246   0.285  0.2015  0.0926 -0.1016
  198SOL    HW1  593   0.159   1.256   0.253  2.9342 -1.1743  1.0657
  198SOL    HW2  594   0.307   1.342   0.284 -0.2875  0.8784  2.8582
  199SOL     OW  595   2.238   0.384   2.526 -0.8475  0.0917 -0.1763
  199SOL    HW1  596   2.159   0.338   2.583 -0.2702  1.6525 -0.0253
  199SOL    HW2  597   2.333   0.360   2.562  0.8621 -1.0717  2.3807
  200SOL     OW  598   0.006   2.976   0.700 -0.3497 -0.5092 -0.7089
  200SOL    HW1  599  -0.069   2.997   0.631  1.5314  3.7108 -2.6403
  200SOL    HW2  600   0.042   3.069   0.731  1.3234 -1.3268  0.0360
  201SOL     OW  601   1.114   0.744   0.641 -0.3321 -0.2549  0.2563
  201SOL    HW1  602   1.128   0.820   0.707  0.1183  0.0694  0.3383
  201SOL    HW2  603   1.026   0.744   0.588 -1.7818 -1.7558 -0.8180
  202SOL     OW  604   0.494   1.251   1.744 -0.2041 -0.0328  0.4488
  202SOL    HW1  605   0.522   1.286   1.652 -1.9618  0.5935  2.3983
  202SOL    HW2  606   0.534   1.162   1.773  2.5202 -1.6517  1.4950
  203SOL     OW  607   0.717   0.197   1.612  0.8103  0.1516  0.0213
  203SOL    HW1  608   0.729   0.130   1.539 -0.9670  1.8544 -0.8420
  203SOL    HW2  609   0.788   0.200   1.687  0.2536  3.6031  0.1498
  204SOL     OW  610   2.099   1.842   3.014  0.4163 -0.6228 -0.2028
  204SOL    HW1  611   2.075   1.747   2.982 -3.8957  1.5169 -2.1748
  204SOL    HW2  612   2.041   1.904   2.950 -0.4099 -0.6834 -1.0909
  205SOL     OW  613   1.843   1.864   0.033  0.3589 -0.2953 -0.2754
  205SOL    HW1  614   1.943   1.854   0.022 -1.9776  2.4386 -0.7928
  205SOL    HW2  615   1.809   1.957  -0.002 -2.1828  1.1211 -0.2375
  206SOL     OW  616   2.554   2.793   0.361  0.0837 -0.5439 -0.3882
  206SOL    HW1  617   2.623   2.715   0.369 -0.6358 -1.6911 -1.0589
  206SOL    HW2  618   2.567   2.859   0.286 -0.6046 -2.2978 -1.4669
  207SOL     OW  619   0.601   1.776   2.910 -0.4933 -0.0531  0.2475
  207SOL    HW1  620   0.698   1.751   2.885  2.3430  0.4508  2.1907
  207SOL    HW2  621   0.551   1.688   2.931 -0.4909 -2.1822  0.0763
  208SOL     OW  622   1.061   1.541   1.445  0.3673  0.0576 -0.6955
  208SOL    HW1  623   1.013   1.579   1.365  3.0845 -1.3994  1.2604
  208SOL    HW2  624   1.134   1.602   1.488 -1.7618 -0.8254  0.3264
  209SOL     OW  625   0.304   0.940   2.996 -0.3556 -0.2727  0.1140
  209SOL    HW1  626   0.312   0.872   2.918 -1.3167 -0.3580  0.4728
  209SOL    HW2  627   0.275   0.896   3.088  1.0554  0.9052  0.6669
  210SOL     OW  628   1.718   0.469   1.183 -0.0284  0.0810 -0.0637
  210SOL    HW1  629   1.673   0.556   1.160  0.1597 -0.8747 -0.1421
  210SOL    HW2  630   1.823   0.481   1.178 -0.8370  0.9417  0.6544
  211SOL     OW  631   2.121   1.060   1.615 -0.5273  0.1013  0.3101
  211SOL    HW1  632   2.172   1.023   1.695  0.2807  5.0389 -0.2806
  211SOL    HW2  633   2.175   1.136   1.564  1.6744  1.6915 -2.5162
  212SOL     OW  634   0.010   0.985   1.490  0.1821  0.7894 -0.5743
  212SOL    HW1  635   0.050   1.067   1.538  0.0071  0.7043  3.1551
  212SOL    HW2  636   0.051   0.893   1.514 -0.5918 -0.5742 -0.8844
  213SOL     OW  637   2.720   0.353   0.271  0.8424  0.0663  0.0437
  213SOL    HW1  638   2.797   0.302   0.219  3.6253  0.1534  0.3594
  213SOL    HW2  639   2.684   0.438   0.216 -0.0831  5.4981 -2.0823
  214SOL     OW  640   2.176   0.270   2.273  0.3541  0.2060  0.5848
  214SOL    HW1  641   2.223   0.302   2.360 -1.5345  0.7456  2.9767
  214SOL    HW2  642   2.134   0.174   2.273 -0.6496  0.7749  0.8691
  215SOL     OW  643   1.662   2.288   2.011  0.3993  0.6736  0.4016
  215SOL    HW1  644   1.765   2.300   2.029  0.6510  1.4576 -0.7617
  215SOL    HW2  645   1.602   2.348   2.063  2.3461  1.2981 -0.1397
  216SOL     OW  646   2.203   0.555   0.681  0.1901  0.0240  0.9644
  216SOL    HW1  647   2.206   0.464   0.627 -2.7849  0.3159 -0.3471
  216SOL    HW2  648   2.240   0.628   0.625 -0.5344 -1.7438  1.2699
  217SOL     OW  649   0.742   2.780   2.432 -0.2031  0.1189  0.5372
  217SOL    HW1  650   0.759   2.698   2.492  2.0890 -2.2332  0.9473
  217SOL    HW2  651   0.696   2.764   2.338 -1.9535 -0.3725 -2.0560
  218SOL     OW  652   1.895   1.391   0.064 -0.0390  0.1033 -0.1365
  218SOL    HW1  653   1.803   1.431   0.036  1.3263  2.4614  1.3049
  218SOL    HW2  654   1.899   1.311   0.136  1.9024  0.8928 -0.7209
  219SOL     OW  655   2.353   1.262   2.519 -0.2509  0.4237  0.0071
  219SOL    HW1  656   2.358   1.231   2.426 -0.6991 -0.7567  2.7716
  219SOL    HW2  657   2.402   1.202   2.591  0.8770 -0.3732  1.6098
  220SOL     OW  658   1.522   1.028   1.230  0.4871 -0.2646 -0.4327
  220SOL    HW1  659   1.615   1.076   1.249 -0.9640  0.6818 -0.6474
  220SOL    HW2  660   1.495   1.050   1.129 -0.9512 -0.8958  0.0063
  221SOL     OW  661   1.352   1.116   2.223  0.2766 -0.5129 -0.1602
  221SOL    HW1  662   1.308   1.181   2.150 -2.0271  0.9447  1.3054
  221SOL    HW2  663   1.449   1.088   2.194 -0.0723  1.2587 -0.7639
  222SOL     OW  664   1.232   0.039   1.222  0.3803 -0.3974  0.3995
  222SOL    HW1  665   1.250   0.021   1.322 -0.8754  3.7645 -0.7999
  222SOL    HW2  666   1.273   0.129   1.188  0.8065 -0.7493  0.5227
  223SOL     OW  667   2.902   0.855   2.023 -0.8442  0.3473  0.0505
  223SOL    HW1  668   2.973   0.855   2.098 -1.7889 -2.1341  0.8009
  223SOL    HW2  669   2.908   0.939   1.964 -1.5383  0.9194  0.4830
  224SOL     OW  670   1.487   0.951   2.785  0.1377  0.0378 -0.9400
  224SOL    HW1  671   1.520   0.887   2.710 -2.7031  1.5898  1.5429
  224SOL    HW2  672   1.480   1.044   2.748  1.1511 -0.8587  2.1738
  225SOL     OW  673   2.983   2.754   2.879  0.1506 -0.0306 -0.1725
  225SOL    HW1  674   2.987   2.674   2.818 -1.2439  1.0099  1.4277
  225SOL    HW2  675   3.029   2.834   2.836 -2.2870 -2.0763 -0.7613
  226SOL     OW  676   2.441   1.580   2.857 -0.2965  0.2051 -0.5645
  226SOL    HW1  677   2.480   1.551   2.763  1.6893  0.0085 -2.3005
  226SOL    HW2  678   2.392   1.509   2.911 -2.7598  0.6119 -1.1192
  227SOL     OW  679   0.900   0.117   3.018 -0.0123  0.0184 -0.3356
  227SOL    HW1  680   0.907   0.044   3.092 -0.6652  1.5690 -0.9757
  227SOL    HW2  681   0.922   0.095   2.922  1.9038  3.0243  2.8682
  228SOL     OW  682   2.385   0.632   2.829  0.3326  0.2122 -0.2935
  228SOL    HW1  683   2.323   0.636   2.744  0.2642  2.1268 -0.7349
  228SOL    HW2  684   2.469   0.578   2.811 -3.7456 -1.8023  1.3745
  229SOL     OW  685   0.542   0.519   1.865  0.0321  0.1433  0.2502
  229SOL    HW1  686   0.571   0.509   1.767 -0.9181  0.4793 -1.3955
  229SOL    HW2  687   0.606   0.591   1.896  1.6808 -0.6838  0.8214
  230SOL     OW  688   1.905   1.236   2.155  0.2785 -0.4937 -0.0258
  230SOL    HW1  689   1.981   1.267   2.095 -0.3034  0.3513 -0.6709
  230SOL    HW2  690   1.817   1.288   2.145  4.0994 -0.2743 -0.3038
  231SOL     OW  691   0.632   0.990   3.005  0.3003 -0.4787 -0.1541
  231SOL    HW1  692   0.723   1.035   2.989 -1.1769 -0.7318 -0.5423
  231SOL    HW2  693   0.610   0.951   3.099 -1.6498 -2.5387 -0.2083
  232SOL     OW  694   2.466   3.091   2.759  0.0945 -0.1762 -0.0310
  232SOL    HW1  695   2.497   3.000   2.800 -1.4475 -0.9646  0.8888
  232SOL    HW2  696   2.491   3.101   2.660 -2.2159 -0.1033 -2.3469
  233SOL     OW  697   1.697   1.276   1.090 -0.0918  0.5824  0.4015
  233SOL    HW1  698   1.664   1.314   1.002 -0.8257  1.1386 -1.0282
  233SOL    HW2  699   1.768   1.204   1.075  0.4521  4.7793  2.2322
  234SOL     OW  700   1.664   2.553   1.842 -0.6870 -0.2998  0.3896
  234SOL    HW1  701   1.631   2.577   1.940 -1.7838 -1.6764  1.1391
  234SOL    HW2  702   1.600   2.487   1.795 -2.3401  0.5034  1.1339
  235SOL     OW  703   0.061   3.001   2.900 -1.1054  0.6350  0.1356
  235SOL    HW1  704   0.110   3.077   2.842 -0.1612 -0.2373 -0.5116
  235SOL    HW2  705  -0.018   3.042   2.954 -0.7992  1.6161  1.8927
  236SOL     OW  706   2.874   0.701   0.109 -0.1655 -0.0523  0.1740
  236SOL    HW1  707   2.966   0.747   0.133 -2.8658  0.8296  0.9168
  236SOL    HW2  708   2.884   0.624   0.042 -0.2367  2.2677  2.7147
  237SOL     OW  709   1.494   1.630   1.016  0.7427  0.0824  0.2226
  237SOL    HW1  710   1.593   1.606   1.006 -0.2188 -1.4526  0.4951
  237SOL    HW2  711   1.485   1.699   1.096  0.4620 -0.3724  3.7708
  238SOL     OW  712   1.747   1.301   0.788  0.1610 -0.5303  0.1182
  238SOL    HW1  713   1.843   1.323   0.754  1.8779 -0.3529  2.0784
  238SOL    HW2  714   1.666   1.357   0.747 -2.3366  1.1167 -1.8224
  239SOL     OW  715   2.057   0.272   2.676 -0.5240  0.3943 -0.7292
  239SOL    HW1  716   2.130   0.275   2.749  2.1973 -0.4051 -0.5460
  239SOL    HW2  717   1.973   0.326   2.701 -1.1143  1.6189  2.3023
  240SOL     OW  718   0.895   0.690   0.254  0.4888 -0.2312  0.2828
  240SOL    HW1  719   0.918   0.597   0.216  1.2356 -1.9722  1.7736
  240SOL    HW2  720   0.886   0.690   0.358  0.4775 -2.9502 -3.8126
  241SOL     OW  721   0.584   0.093   0.321  0.0839  0.3975  0.0685
  241SOL    HW1  722   0.614   0.117   0.224  0.1993  4.5560  3.9317
  241SOL    HW2  723   0.552  -0.006   0.327 -0.0656 -3.0899 -0.5831
  242SOL     OW  724   0.653   2.459   1.159 -0.1917  0.4469 -0.3870
  242SOL    HW1  725   0.608   2.538   1.202 -0.4966 -2.3474 -0.6173
  242SOL    HW2  726   0.745   2.491   1.115 -0.4932  2.7470  1.1788
  243SOL     OW  727   1.116   0.643   2.440  0.0622 -0.2767  0.0283
  243SOL    HW1  728   1.070   0.725   2.413  2.0669 -2.8114  1.2548
  243SOL    HW2  729   1.054   0.568   2.468  1.4269  1.0559  0.9312
  244SOL     OW  730   2.800   1.864   2.413 -0.1777 -0.1340 -0.8008
  244SOL    HW1  731   2.867   1.836   2.334 -0.4986 -2.6459 -3.9156
  244SOL    HW2  732   2.714   1.810   2.418 -0.0024 -0.3187  1.1540
  245SOL     OW  733   2.480   0.720   2.143  0.2325 -0.7675  0.0290
  245SOL    HW1  734   2.518   0.795   2.202  1.2923 -0.2145 -1.1481
  245SOL    HW2  735   2.501   0.625   2.187 -1.1903  0.1872 -2.1171
  246SOL     OW  736   0.307   2.905   1.676  0.1102 -0.3496  0.1349
  246SOL    HW1  737   0.223   2.921   1.616 -0.3907 -0.7492  3.8082
  246SOL    HW2  738   0.366   2.991   1.689 -0.1593  0.9595  0.8677
  247SOL     OW  739   2.191   0.593   3.039  0.4591  0.4330  0.0468
  247SOL    HW1  740   2.254   0.585   2.960 -0.9536 -0.6415  0.4593
  247SOL    HW2  741   2.148   0.693   3.046 -1.0215  0.6366  2.5611
  248SOL     OW  742   2.168   1.869   1.615 -0.6198 -0.3246  0.0387
  248SOL    HW1  743   2.218   1.782   1.646 -0.5763  1.4192  1.4325
  248SOL    HW2  744   2.091   1.893   1.679 -1.4326 -3.6521  0.5172
  249SOL     OW  745   1.929   2.006   1.955  0.1482 -0.0470 -0.0401
  249SOL    HW1  746   1.913   1.957   1.865  0.1813 -0.8213  0.7835
  249SOL    HW2  747   2.027   2.047   1.962 -0.5063 -1.6924  0.8643
  250SOL     OW  748   1.053   0.721   1.871  0.7732  1.0744 -0.1535
  250SOL    HW1  749   1.083   0.655   1.947 -1.8643  0.5818  1.9097
  250SOL    HW2  750   1.030   0.679   1.778  1.8000 -2.2757  0.5482
  251SOL     OW  751   3.066   1.582   2.548 -0.5372 -0.1527 -0.1242
  251SOL    HW1  752   3.087   1.685   2.545  3.2406 -1.6911  1.1546
  251SOL    HW2  753   2.966   1.556   2.560 -0.9643  1.0785 -2.5423
  252SOL     OW  754   1.510   0.902   1.521  0.3835  0.1403 -0.3917
  252SOL    HW1  755   1.539   0.948   1.434  0.2476 -0.8521  1.3501
  252SOL    HW2  756   1.506   0.963   1.610 -3.7008 -0.9931  0.5073
  253SOL     OW  757   0.936   1.574   0.377 -0.5845 -0.2258  0.3552
  253SOL    HW1  758   0.982   1.484   0.352  3.4516 -0.2589  2.5219
  253SOL    HW2  759   0.844   1.585   0.351  4.1798 -1.2503 -1.9269
  254SOL     OW  760   2.051   2.181   1.601  0.5645 -0.2112  0.1645
  254SOL    HW1  761   1.982   2.122   1.553  4.1077 -0.1319 -0.3798
  254SOL    HW2  762   2.028   2.195   1.700 -1.6193  2.3148 -0.4141
  255SOL     OW  763   0.137   1.154   2.924 -0.1975  0.2446 -0.0280
  255SOL    HW1  764   0.187   1.240   2.898  4.3845  1.8632  1.7413
  255SOL    HW2  765   0.203   1.070   2.943 -0.3442 -1.9055 -0.6557
  256SOL     OW  766   2.824   1.365   1.857 -0.5673 -0.2349 -0.2172
  256SOL    HW1  767   2.765   1.450   1.847  0.5628  1.1756  0.6260
  256SOL    HW2  768   2.766   1.282   1.878 -0.0681  0.5644 -1.3074
  257SOL     OW  769   0.902   0.171   1.881 -0.0223 -0.3969 -1.0183
  257SOL    HW1  770   0.952   0.214   1.805 -0.9489 -2.7789 -0.8406
  257SOL    HW2  771   0.883   0.072   1.870 -0.2950 -0.9050  2.3284
  258SOL     OW  772   2.979   1.281   0.428  0.5416  0.1736  0.0430
  258SOL    HW1  773   2.908   1.357   0.448 -0.0735 -0.9402  0.9042
  258SOL    HW2  774   3.038   1.255   0.503  0.7976  1.5302  1.1567
  259SOL     OW  775   0.446   2.916   2.983 -0.0594  0.2131  0.3164
  259SOL    HW1  776   0.384   2.878   3.062 -0.7887 -0.2739 -2.7225
  259SOL    HW2  777   0.506   2.847   2.938  1.2332  1.6098  2.4861
  260SOL     OW  778   2.708   0.867   2.750  0.0330  0.5908 -0.3790
  260SOL    HW1  779   2.626   0.852   2.687  0.7918 -2.8042  0.1987
  260SOL    HW2  780   2.686   0.834   2.846 -1.1883  2.4481  0.0303
  261SOL     OW  781   2.731   1.360   1.316  0.0805  0.5663  0.0458
  261SOL    HW1  782   2.694   1.284   1.251  0.5148 -2.5841 -1.5332
  261SOL    HW2  783   2.818   1.329   1.361  0.2764  0.6350  1.5007
  262SOL     OW  784   1.458   2.907   1.978 -0.7130  0.5967 -0.8668
  262SOL    HW1  785   1.480   3.000   1.939 -0.7090 -1.3870  0.2529
  262SOL    HW2  786   1.357   2.886   2.000 -1.6472  0.3548 -1.1910
  263SOL     OW  787   0.849   0.780   2.302  0.3547 -0.1199 -0.1825
  263SOL    HW1  788   0.856   0.678   2.297 -0.8220  0.6343  1.2022
  263SOL    HW2  789   0.888   0.822   2.217  0.1085 -2.4825  0.6168
  264SOL     OW  790   2.255   0.699   0.443  0.1037 -0.0955 -1.0574
  264SOL    HW1  791   2.156   0.672   0.467 -2.6091 -0.2453 -2.7001
  264SOL    HW2  792   2.268   0.806   0.462 -0.1898  4.1987  0.1229
  265SOL     OW  793   0.899   2.272   2.674  0.0543  0.3301  0.2740
  265SOL    HW1  794   0.953   2.326   2.744  1.1035 -1.0069 -0.3866
  265SOL    HW2  795   0.870   2.179   2.721  1.7530 -3.4995 -0.9262
  266SOL     OW  796   1.339   1.711   0.046  0.0523  0.2747 -0.5137
  266SOL    HW1  797   1.327   1.790   0.116 -0.4669 -0.9546 -0.5008
  266SOL    HW2  798   1.438   1.719   0.011 -1.3526  1.8902  0.6588
  267SOL     OW  799   1.040   3.060   2.394 -0.0275  0.2172  0.4516
  267SOL    HW1  800   1.006   3.012   2.308 -1.7099  0.3051 -0.3959
  267SOL    HW2  801   1.088   3.149   2.376 -0.1702 -1.2014  2.8056
  268SOL     OW  802   0.675   1.158   1.039 -0.0155 -0.0653  0.6640
  268SOL    HW1  803   0.684   1.206   1.128 -1.4330  0.7136  1.3949
  268SOL    HW2  804   0.686   1.222   0.956  0.8423  0.2286  0.8053
  269SOL     OW  805   2.444   2.430   1.590  0.1008 -0.3622 -0.5951
  269SOL    HW1  806   2.544   2.398   1.600 -0.5927 -0.5915 -0.1230
  269SOL    HW2  807   2.396   2.451   1.684  0.9191  0.5567 -0.0531
  270SOL     OW  808   0.167   3.021   1.935 -0.3789  0.6690 -0.3168
  270SOL    HW1  809   0.199   2.989   1.841 -1.7463 -1.0812 -0.4059
  270SOL    HW2  810   0.074   2.979   1.955 -0.8673  2.2398  1.6645
  271SOL     OW  811   0.441   1.422   1.190  0.0805  0.4556  0.0065
  271SOL    HW1  812   0.400   1.401   1.096 -0.4605  1.9985  0.4360
  271SOL    HW2  813   0.376   1.413   1.270 -2.9559 -2.2836 -2.7956
  272SOL     OW  814   1.924   2.918   1.924  0.6937  0.1846  0.5490
  272SOL    HW1  815   1.882   2.859   1.849  1.5332 -1.9831 -0.9413
  272SOL    HW2  816   1.974   3.002   1.876  1.5237  1.0493  1.0467
  273SOL     OW  817   1.399   1.419   2.830 -0.2521  0.1622  0.3561
  273SOL    HW1  818   1.326   1.435   2.764 -0.6788  1.0810  0.5780
  273SOL    HW2  819   1.385   1.458   2.922 -0.9271  0.0315  0.4049
  274SOL     OW  820   1.146   0.541   2.048  0.1121  0.5106  0.2066
  274SOL    HW1  821   1.172   0.453   1.989  0.4093  0.6325  1.8716
  274SOL    HW2  822   1.212   0.561   2.121 -2.1639  0.0671  1.6937
  275SOL     OW  823   0.623   2.080   1.959  0.1164 -0.0121 -0.2166
  275SOL    HW1  824   0.587   2.178   1.979  0.1806 -0.7245 -1.2276
  275SOL    HW2  825   0.554   2.003   1.963 -0.4683 -2.2561  0.0166
  276SOL     OW  826   2.171   0.919   2.741  0.1018 -0.5195 -0.2493
  276SOL    HW1  827   2.105   0.904   2.664  1.6517 -0.5042 -0.2581
  276SOL    HW2  828   2.123   0.895   2.833 -1.8371 -1.7837  2.4269
  277SOL     OW  829   3.059   0.868   0.212  0.1545  0.4037  0.2925
  277SOL    HW1  830   3.140   0.904   0.159  1.0175 -2.4518 -0.3348
  277SOL    HW2  831   3.083   0.823   0.303  0.9464 -0.7487  1.8408
  278SOL     OW  832   0.209   0.295   2.972  0.4683  0.2384  0.3381
  278SOL    HW1  833   0.273   0.230   3.023 -0.0570  2.4834 -0.3909
  278SOL    HW2  834   0.248   0.396   2.981  0.2297 -1.0965  1.5249
  279SOL     OW  835   0.160   0.065   0.863 -0.1930  0.3992  0.2251
  279SOL    HW1  836   0.202   0.064   0.959 -1.2004  0.0869  0.1738
  279SOL    HW2  837   0.220   0.037   0.781  0.0071  1.8123 -1.4525
  280SOL     OW  838   1.631   2.905   2.561  0.5599 -0.8455 -0.1073
  280SOL    HW1  839   1.706   2.976   2.560  0.0052 -0.4975 -2.0227
  280SOL    HW2  840   1.561   2.937   2.497  2.2748 -1.7407  1.2069
  281SOL     OW  841   0.565   0.985   2.285  0.2228 -0.2257 -0.2312
  281SOL    HW1  842   0.582   0.888   2.260  0.6169 -1.6287 -0.5668
  281SOL    HW2  843   0.539   0.994   2.383 -0.1913  1.0816 -1.3726
  282SOL     OW  844   1.709   2.391   0.506 -0.4911 -0.6679 -0.0570
  282SOL    HW1  845   1.657   2.324   0.445 -4.8568  0.9586  0.8464
  282SOL    HW2  846   1.670   2.484   0.493 -1.8258 -1.4901 -2.9682
  283SOL     OW  847   1.191   0.955   0.819  0.1401 -0.3737  0.7404
  283SOL    HW1  848   1.193   0.877   0.887 -1.7472 -0.0023 -2.1273
  283SOL    HW2  849   1.141   1.043   0.856  0.0176 -1.2934  2.7140
  284SOL     OW  850   2.381   2.790   2.318  0.2680 -0.1064 -0.4527
  284SOL    HW1  851   2.440   2.857   2.268 -2.4997  0.6859 -2.1693
  284SOL    HW2  852   2.326   2.830   2.402 -0.2950  2.1765  0.0582
  285SOL     OW  853   1.330   2.965   2.528  0.0906  0.3658 -0.6642
  285SOL    HW1  854   1.356   2.981   2.433 -0.4057 -0.6933 -0.4070
  285SOL    HW2  855   1.247   3.023   2.560 -0.5335 -3.8967  0.5881
  286SOL     OW  856   0.457   0.411   0.702 -0.1784 -0.1344 -0.0401
  286SOL    HW1  857   0.424   0.348   0.781 -2.1663 -0.3511  0.6374
  286SOL    HW2  858   0.472   0.361   0.610  0.5144 -0.0122 -0.6109
  287SOL     OW  859   0.130   1.297   2.542  0.3127 -0.4849 -0.2703
  287SOL    HW1  860   0.105   1.221   2.607  1.2117 -0.3916  0.8340
  287SOL    HW2  861   0.113   1.394   2.586 -0.3340  1.4933 -0.1781
  288SOL     OW  862   1.564   2.685   1.523 -0.4431 -0.1485  0.3458
  288SOL    HW1  863   1.669   2.692   1.555  0.5862  1.3501  2.5072
  288SOL    HW2  864   1.542   2.711   1.427 -3.9979 -2.0827 -0.5479
  289SOL     OW  865   0.684   2.712   0.791  0.3547 -0.7370  0.7914
  289SOL    HW1  866   0.721   2.773   0.714 -0.5111 -1.0418  1.7490
  289SOL    HW2  867   0.685   2.754   0.887 -0.7448  0.2852  2.0067
  290SOL     OW  868   2.852   1.102   1.604 -0.4060 -0.8243  0.2486
  290SOL    HW1  869   2.775   1.153   1.652 -0.4000  1.4100  1.0348
  290SOL    HW2  870   2.918   1.052   1.672  0.6705 -1.1495 -2.1542
  291SOL     OW  871   1.960   0.034   0.090  0.1783  0.4523 -0.1638
  291SOL    HW1  872   1.965   0.043   0.194 -1.3031  0.2105  0.8220
  291SOL    HW2  873   2.007   0.109   0.033  0.3341 -0.5154 -1.6270
  292SOL     OW  874   2.990   1.168   3.026  0.1388  0.1275  0.1169
  292SOL    HW1  875   2.918   1.210   2.964  0.3430  2.0029 -0.8796
  292SOL    HW2  876   3.088   1.156   2.992 -0.5527 -1.2585 -1.4955
  293SOL     OW  877   0.615   2.141   0.137  0.2913 -0.1619  0.0714
  293SOL    HW1  878   0.549   2.172   0.215 -1.3413 -1.2099  0.6287
  293SOL    HW2  879   0.713   2.145   0.165 -2.1862  0.7010 -1.4124
  294SOL     OW  880   1.686   2.169   1.758  0.1633  1.0733 -0.3769
  294SOL    HW1  881   1.691   2.204   1.855 -0.4353 -0.2293 -1.2711
  294SOL    HW2  882   1.682   2.239   1.678  0.2749  1.0271 -1.1833
  295SOL     OW  883   1.030   0.995   0.445  0.4484 -0.2935 -0.7599
  295SOL    HW1  884   1.127   1.004   0.495  0.1410  1.2196  3.3067
  295SOL    HW2  885   0.954   1.028   0.506 -1.3596 -0.2659 -1.0098
  296SOL     OW  886   1.333   2.043   2.515 -0.5939  0.0898  0.1808
  296SOL    HW1  887   1.306   2.060   2.419 -0.6507  0.1188  1.2938
  296SOL    HW2  888   1.330   1.937   2.536 -1.3363 -4.2243  1.4681
  297SOL     OW  889   1.484   0.617   1.362 -0.0338  0.6800  0.1718
  297SOL    HW1  890   1.488   0.522   1.409 -0.2282 -0.5397 -2.0136
  297SOL    HW2  891   1.526   0.697   1.415 -0.9804  1.0716  0.2982
  298SOL     OW  892   0.440   1.219   2.887  0.3282  0.4995 -0.0478
  298SOL    HW1  893   0.473   1.184   2.981  0.4443  0.0784  1.8643
  298SOL    HW2  894   0.513   1.235   2.814  0.1552  1.1880 -1.3728
  299SOL     OW  895   0.477   0.287   1.441  0.2401 -0.0538 -0.7472
  299SOL    HW1  896   0.492   0.330   1.351  0.7804 -2.9692 -0.0970
  299SOL    HW2  897   0.559   0.289   1.497 -3.8289 -2.0033  0.9101
  300SOL     OW  898   1.201   1.797   2.895  0.7550  0.0512 -0.2809
  300SOL    HW1  899   1.168   1.710   2.846 -1.9915  0.4560  4.7764
  300SOL    HW2  900   1.210   1.780   3.001 -1.7763  2.0761  2.5105
  301SOL     OW  901   0.456   0.273   0.468  0.4935  0.1673  0.4456
  301SOL    HW1  902   0.352   0.283   0.485 -0.0444 -1.1408  1.8343
  301SOL    HW2  903   0.489   0.201   0.395 -2.8057  0.0244 -0.2699
  302SOL     OW  904   1.247   2.336   2.304  0.3310  0.6993 -0.8816
  302SOL    HW1  905   1.166   2.344   2.367 -3.1397 -2.1996  2.2128
  302SOL    HW2  906   1.255   2.242   2.262  0.6728  3.4809 -0.6606
  303SOL     OW  907   0.959   2.330   0.787  0.4460  0.3311 -0.0150
  303SOL    HW1  908   1.002   2.371   0.703 -1.3597 -1.1932  1.1060
  303SOL    HW2  909   0.953   2.403   0.861 -2.1945  1.9231 -1.5641
  304SOL     OW  910   0.141   2.057   0.647  0.4927 -0.2294 -0.5844
  304SOL    HW1  911   0.157   2.008   0.555 -0.5116  0.1136  0.5800
  304SOL    HW2  912   0.111   2.157   0.627 -0.6854  2.8126  1.0296
  305SOL     OW  913   1.586   0.887   0.605 -0.1366  0.3501 -0.0208
  305SOL    HW1  914   1.534   0.865   0.513 -0.0698  0.5612 -1.3682
  305SOL    HW2  915   1.655   0.809   0.619 -0.7038  0.6329 -3.4761
  306SOL     OW  916   0.476   1.845   1.896 -0.0227 -0.3390 -0.2136
  306SOL    HW1  917   0.576   1.823   1.872 -2.4519  0.8062 -0.0837
  306SOL    HW2  918   0.446   1.815   1.992  2.1086 -0.3008 -0.7927
  307SOL     OW  919   0.026   0.844   2.599  0.3217  0.5321 -0.1044
  307SOL    HW1  920   0.016   0.948   2.610 -1.9549 -1.6211  0.9288
  307SOL    HW2  921  -0.050   0.801   2.656  1.3071 -3.3296 -3.7229
  308SOL     OW  922   1.523   2.671   2.867  0.7060  0.2185 -0.2782
  308SOL    HW1  923   1.543   2.609   2.792 -1.9686  1.4382 -2.3915
  308SOL    HW2  924   1.430   2.644   2.917 -1.7368  1.7795  0.6767
  309SOL     OW  925   1.238   0.080   1.762  0.1494 -0.1908  0.6965
  309SOL    HW1  926   1.336   0.052   1.784  1.1108 -2.8365 -0.0848
  309SOL    HW2  927   1.226   0.104   1.661  0.5179  2.9630 -0.8704
  310SOL     OW  928   1.456   2.552   0.702  0.7839 -0.3516 -0.6918
  310SOL    HW1  929   1.395   2.604   0.768  0.9124  0.8003  2.3252
  310SOL    HW2  930   1.530   2.610   0.649  2.5579 -1.5335 -3.9398
  311SOL     OW  931   1.170   0.943   1.562  0.7810 -0.8160  0.3273
  311SOL    HW1  932   1.236   0.896   1.625 -1.3436  0.7589  0.0925
  311SOL    HW2  933   1.202   1.043   1.535 -1.4551  1.4876 -0.0195
  312SOL     OW  934   1.649   0.706   1.018  0.3939 -0.0407  0.5611
  312SOL    HW1  935   1.612   0.792   0.973  1.2913  0.4184 -3.2686
  312SOL    HW2  936   1.580   0.628   1.008  0.4871 -2.5724 -0.9040
  313SOL     OW  937   1.534   1.408   0.690 -0.8434  0.5475 -0.0968
  313SOL    HW1  938   1.439   1.450   0.706  1.2020 -0.0897  1.6933
  313SOL    HW2  939   1.529   1.312   0.649 -1.3122  1.0833 -1.3809
  314SOL     OW  940   2.980   3.062   0.013  0.0324 -0.3971  0.6873
  314SOL    HW1  941   2.965   3.119   0.095 -0.5874 -1.0447 -0.2078
  314SOL    HW2  942   2.893   3.015  -0.028 -0.8585 -2.6222  2.0280
  315SOL     OW  943   1.221   0.220   2.777  0.2930  0.0672 -0.1692
  315SOL    HW1  944   1.187   0.140   2.725 -2.7797 -0.0346  0.6945
  315SOL    HW2  945   1.229   0.191   2.879 -3.4310 -1.3489  1.0810
  316SOL     OW  946   1.688   2.109   0.912 -0.9794  0.3797  0.0852
  316SOL    HW1  947   1.631   2.118   0.996 -3.9674 -0.4195 -0.5913
  316SOL    HW2  948   1.700   2.202   0.864 -0.8789  0.2449  1.5430
  317SOL     OW  949   1.121   0.719   2.847 -0.3013 -0.1758  0.0494
  317SOL    HW1  950   1.039   0.774   2.884  0.1976  1.6174  0.1417
  317SOL    HW2  951   1.087   0.624   2.830  0.4221  0.1956 -0.2331
  318SOL     OW  952   1.428   3.019   2.252 -0.7647 -0.0907 -0.0601
  318SOL    HW1  953   1.392   3.091   2.184 -0.1240 -1.7620  3.4394
  318SOL    HW2  954   1.493   2.942   2.222 -1.7879 -0.1439  0.8102
  319SOL     OW  955   0.654   2.403   2.906 -0.2328 -0.3073 -0.0700
  319SOL    HW1  956   0.585   2.387   2.982  2.9639  1.0289  1.1050
  319SOL    HW2  957   0.750   2.370   2.921 -0.6014  3.8866 -0.2558
  320SOL     OW  958   1.638   2.182   0.342  0.1419  0.0336  0.2236
  320SOL    HW1  959   1.732   2.136   0.356  0.9789 -0.3584 -2.0410
  320SOL    HW2  960   1.565   2.145   0.408  3.3705  0.8084 -2.3842
  321SOL     OW  961   1.612   2.642   0.487  0.7377  0.0174 -0.2831
  321SOL    HW1  962   1.538   2.713   0.457 -1.2033  0.5247  0.0126
  321SOL    HW2  963   1.702   2.689   0.497 -0.7273 -1.5519  2.7055
  322SOL     OW  964   2.554   1.121   2.270  0.2852 -0.2860  0.5977
  322SOL    HW1  965   2.651   1.151   2.305  1.9270  3.6471  1.5712
  322SOL    HW2  966   2.527   1.027   2.313  0.7809 -1.6199  1.5372
  323SOL     OW  967   1.016   2.644   0.797 -0.1426 -0.4798 -0.0732
  323SOL    HW1  968   1.055   2.587   0.716  1.2128  0.8711 -0.5681
  323SOL    HW2  969   1.022   2.745   0.784 -2.0164  0.2375  1.6243
  324SOL     OW  970   0.234   2.465   2.478  0.0529 -0.1048  0.3308
  324SOL    HW1  971   0.214   2.403   2.558  2.3990  0.3333  2.2318
  324SOL    HW2  972   0.148   2.522   2.459 -1.3940  0.7041  2.2931
  325SOL     OW  973   1.211   3.049   0.461  0.2800 -0.1567 -0.1670
  325SOL    HW1  974   1.248   3.066   0.366 -0.3189  0.5348  0.3595
  325SOL    HW2  975   1.237   3.130   0.522 -0.6945 -1.2879 -1.2575
  326SOL     OW  976   2.473   0.753   3.053  0.2522  0.1358 -0.0215
  326SOL    HW1  977   2.420   0.708   2.974 -2.1512 -1.5735  2.6926
  326SOL    HW2  978   2.502   0.691   3.133  1.8257  2.4011  0.7806
  327SOL     OW  979   2.885   0.379   0.498  0.3594 -0.4304 -0.1339
  327SOL    HW1  980   2.824   0.405   0.418  1.4059 -0.1232 -0.9567
  327SOL    HW2  981   2.846   0.303   0.560  0.5827  0.4804 -1.8175
  328SOL     OW  982   2.493   0.578   0.397  0.1709  0.4157  0.4908
  328SOL    HW1  983   2.418   0.644   0.428 -0.1967  2.1520 -1.4028
  328SOL    HW2  984   2.526   0.514   0.472  1.5539  1.1051 -1.5772
  329SOL     OW  985   2.937   2.972   2.167  0.4103 -0.2355  0.0624
  329SOL    HW1  986   2.974   2.897   2.227  0.5600 -0.2673 -0.3653
  329SOL    HW2  987   3.003   3.052   2.161  0.1637 -0.2110 -0.4641
  330SOL     OW  988   0.532   0.187   1.892  0.1028  0.4412 -0.3741
  330SOL    HW1  989   0.578   0.277   1.898 -0.1749 -1.3043  1.9404
  330SOL    HW2  990   0.548   0.122   1.970 -1.8250  1.6008 -0.6976
  331SOL     OW  991   2.925   1.938   1.121 -0.2415 -0.1242 -0.0696
  331SOL    HW1  992   2.985   2.017   1.092 -0.3340 -1.0267  0.4135
  331SOL    HW2  993   2.865   1.974   1.201 -0.6022 -0.9524 -0.2211
  332SOL     OW  994   0.421   1.126   0.071 -0.2066  0.1744  0.0084
  332SOL    HW1  995   0.387   1.071  -0.008  1.7465 -1.1213  0.5378
  332SOL    HW2  996   0.360   1.207   0.092  0.2011 -1.0028 -2.4591
  333SOL     OW  997   2.870   1.053   0.311 -0.3550 -0.4261  0.0629
  333SOL    HW1  998   2.909   1.133   0.366 -2.0805  0.2762 -1.5528
  333SOL    HW2  999   2.937   0.976   0.295  1.1200  1.2913  0.5005
  334SOL     OW 1000   1.683   1.183   1.881  0.0299 -0.2503 -0.3418
  334SOL    HW1 1001   1.778   1.156   1.849 -2.1475 -1.4371  2.9955
  334SOL    HW2 1002   1.678   1.262   1.949 -3.3475  1.6331 -0.6465
  335SOL     OW 1003   1.985   2.763   2.614 -0.0511 -0.1978 -0.1407
  335SOL    HW1 1004   1.919   2.727   2.686 -3.7035  0.1781  1.9478
  335SOL    HW2 1005   2.064   2.819   2.654  4.4078  1.0799 -0.4679
  336SOL     OW 1006   0.261   0.082   2.786 -0.0774 -0.3736  0.5943
  336SOL    HW1 1007   0.367   0.072   2.771 -0.3759 -4.1829  2.9285
  336SOL    HW2 1008   0.230   0.169   2.840  0.9959  1.2409  1.1347
  337SOL     OW 1009   0.926   2.803   2.800 -0.2262  0.4451  0.6025
  337SOL    HW1 1010   0.931   2.776   2.901  0.1519  0.2634 -2.2209
  337SOL    HW2 1011   1.019   2.782   2.755 -1.3755 -0.8380 -0.0863
  338SOL     OW 1012   0.031   0.993   0.692  0.1870  0.4622  0.5283
  338SOL    HW1 1013  -0.074   0.992   0.681 -1.2552 -2.3157 -2.1541
  338SOL    HW2 1014   0.063   1.091   0.688  2.7683  0.4860  0.4589
  339SOL     OW 1015   1.681   1.391   2.087  0.3854 -0.3603 -0.1462
  339SOL    HW1 1016   1.578   1.416   2.083  0.7783  3.0737 -0.1797
  339SOL    HW2 1017   1.742   1.469   2.118  2.0676  1.8246  1.3636
  340SOL     OW 1018   2.333   0.787   1.220  0.6370 -0.7409  0.2018
  340SOL    HW1 1019   2.231   0.790   1.203  1.6682 -0.1680  1.2732
  340SOL    HW2 1020   2.371   0.692   1.190  1.1186 -2.2561 -1.1372
  341SOL     OW 1021   1.907   2.160   0.336 -0.2320  0.7268 -0.1428
  341SOL    HW1 1022   1.940   2.180   0.237 -1.6018  1.3000 -2.2698
  341SOL    HW2 1023   1.978   2.188   0.401 -1.4625 -0.7970 -0.3720
  342SOL     OW 1024   2.204   2.096   2.767  0.5339 -0.3985  0.0954
  342SOL    HW1 1025   2.254   2.007   2.783 -1.7397  1.2057 -0.8877
  342SOL    HW2 1026   2.104   2.080   2.784 -0.2170 -2.7698 -3.9900
  343SOL     OW 1027   0.326   0.791   2.773  0.6988 -0.2220 -0.2298
  343SOL    HW1 1028   0.326   0.869   2.701  0.2366  3.7075 -1.2097
  343SOL    HW2 1029   0.419   0.738   2.766 -2.2275 -3.8016 -1.3759
  344SOL     OW 1030   1.927   1.438   0.461  0.4301 -0.4652  0.2569
  344SOL    HW1 1031   1.939   1.354   0.396 -0.0488  0.1000 -1.2257
  344SOL    HW2 1032   1.829   1.478   0.463  1.6202 -2.8936  0.9083
  345SOL     OW 1033   1.393   2.278   2.903  0.0253 -0.1533  0.4491
  345SOL    HW1 1034   1.306   2.239   2.864  0.6992  0.5595 -0.5576
  345SOL    HW2 1035   1.478   2.264   2.846  0.0652  1.6628 -0.0849
  346SOL     OW 1036   2.306   0.887   1.473 -0.0083  0.5827 -0.1821
  346SOL    HW1 1037   2.264   0.981   1.480 -0.0344  1.8118  0.5392
  346SOL    HW2 1038   2.303   0.842   1.380 -1.0632 -0.0406  0.4740
  347SOL     OW 1039   0.731   2.838   1.510  0.0383 -0.6290 -0.3112
  347SOL    HW1 1040   0.704   2.759   1.572 -1.2214 -0.6592 -0.2765
  347SOL    HW2 1041   0.653   2.875   1.449  0.3373 -0.8294 -0.2717
  348SOL     OW 1042   0.104   0.655   2.848  0.4838  0.0846 -0.4968
  348SOL    HW1 1043   0.011   0.690   2.851 -0.3555  0.0525  2.7672
  348SOL    HW2 1044   0.174   0.717   2.798  0.2566  2.6809 -0.4834
  349SOL     OW 1045   1.835   0.422   2.794 -0.3871 -0.4870 -0.1933
  349SOL    HW1 1046   1.823   0.508   2.736  0.8896  2.4053  2.6181
  349SOL    HW2 1047   1.820   0.446   2.893 -0.7649  0.6788 -1.2102
  350SOL     OW 1048   1.618   0.429   0.372 -0.2615  0.0263 -0.1962
  350SOL    HW1 1049   1.685   0.440   0.456  0.1451 -2.6365  2.2758
  350SOL    HW2 1050   1.572   0.511   0.334 -1.9508 -0.8660 -0.2496
  351SOL     OW 1051   0.970   0.883   2.069 -0.0422 -0.3691  0.1553
  351SOL    HW1 1052   0.942   0.978   2.045  1.4973 -3.1874  3.4298
  351SOL    HW2 1053   0.965   0.821   1.990  0.1350 -0.7739  2.4823
  352SOL     OW 1054   2.011   1.299   0.663  0.4945  0.4086  0.0893
  352SOL    HW1 1055   1.967   1.359   0.594  1.5131 -2.8025  3.5154
  352SOL    HW2 1056   2.101   1.335   0.702  0.8400 -0.3896  0.6741
  353SOL     OW 1057   2.142   2.913   1.123  0.0734  0.8035 -0.3464
  353SOL    HW1 1058   2.210   2.836   1.148  0.6321 -0.6925 -0.9781
  353SOL    HW2 1059   2.052   2.871   1.089 -1.2226 -0.0177 -3.0237
  354SOL     OW 1060   0.243   1.405   2.862  0.0498 -0.1448  0.2808
  354SOL    HW1 1061   0.252   1.485   2.800 -0.9681 -2.4820  1.6427
  354SOL    HW2 1062   0.317   1.332   2.848  2.4316 -1.0366  3.3771
  355SOL     OW 1063   0.534   1.522   0.510  0.2579 -0.2871  0.2355
  355SOL    HW1 1064   0.546   1.613   0.555 -0.8609 -0.5681 -2.1715
  355SOL    HW2 1065   0.609   1.455   0.534  0.1118  2.6143  2.6526
  356SOL     OW 1066   0.937   0.325   2.105  0.4781 -0.4895 -0.4333
  356SOL    HW1 1067   1.024   0.381   2.096 -2.2288 -3.3293 -2.2343
  356SOL    HW2 1068   0.913   0.263   2.024  0.2980 -1.1378 -0.4811
  357SOL     OW 1069   1.028   1.306   0.361 -0.1605  0.0918  0.6052
  357SOL    HW1 1070   1.008   1.228   0.300  0.7651  1.8247  1.3291
  357SOL    HW2 1071   1.034   1.270   0.454  1.3554  0.4500 -0.5848
  358SOL     OW 1072   1.650   1.508   0.465  0.1701 -0.5851  0.6416
  358SOL    HW1 1073   1.593   1.479   0.546 -0.2623  2.0909  0.1597
  358SOL    HW2 1074   1.605   1.502   0.373  1.3423  2.2112 -0.7498
  359SOL     OW 1075   1.574   2.705   0.083  0.2123  0.2562 -0.5282
  359SOL    HW1 1076   1.603   2.627   0.026 -1.1760  1.9500  1.3484
  359SOL    HW2 1077   1.488   2.753   0.047 -0.7697  2.6070 -0.7372
  360SOL     OW 1078   0.862   0.621   0.521 -0.3378  0.1787  0.6915
  360SOL    HW1 1079   0.789   0.607   0.595 -2.1323 -0.0744  1.1831
  360SOL    HW2 1080   0.915   0.536   0.502 -1.2927  0.9720  0.1636
  361SOL     OW 1081   1.242   1.388   0.673  0.0666 -0.2876  0.1835
  361SOL    HW1 1082   1.273   1.383   0.772  0.6771 -1.8122 -2.0801
  361SOL    HW2 1083   1.153   1.435   0.657 -0.3960  3.8088 -0.5273
  362SOL     OW 1084   1.387   1.755   0.765 -0.1698  0.1595 -0.1700
  362SOL    HW1 1085   1.397   1.705   0.858 -0.1399 -1.6118  1.3932
  362SOL    HW2 1086   1.458   1.828   0.754 -0.4139  0.0634  0.8463
  363SOL     OW 1087   1.224   1.287   2.045  0.1724 -0.5052  0.4187
  363SOL    HW1 1088   1.182   1.357   2.113  2.0605  0.0094  0.5540
  363SOL    HW2 1089   1.255   1.335   1.957 -0.6385 -2.1868 -0.5779
  364SOL     OW 1090   0.541   2.351   1.915  0.0839 -0.1937  0.2777
  364SOL    HW1 1091   0.456   2.398   1.947  1.4028  0.6977 -2.6919
  364SOL    HW2 1092   0.567   2.381   1.818  2.9449  0.5286  1.1078
  365SOL     OW 1093   1.057   1.934   1.399 -0.2584 -0.4809  0.1664
  365SOL    HW1 1094   0.966   1.929   1.448 -1.5835 -0.3781 -1.6358
  365SOL    HW2 1095   1.056   1.891   1.308  1.3545  3.4178 -0.2196
  366SOL     OW 1096   2.819   2.049   0.491 -0.1664  0.0605  0.4050
  366SOL    HW1 1097   2.730   2.001   0.479 -0.1422  2.4189  2.0990
  366SOL    HW2 1098   2.882   2.037   0.405 -0.2530 -2.3982 -1.4998
  367SOL     OW 1099   0.811   1.179   0.142  0.1290 -0.7363  0.4853
  367SOL    HW1 1100   0.771   1.099   0.199 -1.2062 -1.5054  1.0545
  367SOL    HW2 1101   0.830   1.138   0.045  0.7914 -1.1337 -1.1159
  368SOL     OW 1102   1.514   0.579   0.714  0.1377  0.0400  0.4668
  368SOL    HW1 1103   1.466   0.588   0.624 -2.3426 -0.9813  2.4920
  368SOL    HW2 1104   1.590   0.645   0.727  0.7628 -0.9904  0.3660
  369SOL     OW 1105   0.260   1.739   0.047 -0.6919  0.0449 -0.2175
  369SOL    HW1 1106   0.302   1.779   0.132  2.1271  1.5112  2.0900
  369SOL    HW2 1107   0.173   1.683   0.060  0.9928 -2.3538 -1.1147
  370SOL     OW 1108   0.398   2.117   1.046  0.6926 -0.1836  0.2180
  370SOL    HW1 1109   0.426   2.216   1.023  1.4215 -0.3488 -0.3626
  370SOL    HW2 1110   0.303   2.100   1.008  1.4079 -0.5028  0.7258
  371SOL     OW 1111   2.893   2.229   2.741 -0.3822  0.3643 -0.3290
  371SOL    HW1 1112   2.888   2.203   2.839  0.2492  0.4594 -0.2572
  371SOL    HW2 1113   2.991   2.258   2.710  0.6017 -2.2125  1.0104
  372SOL     OW 1114   1.022   1.909   0.953  1.2779  0.3548  0.6264
  372SOL    HW1 1115   0.929   1.954   0.949  1.1088 -4.5291  0.0529
  372SOL    HW2 1116   1.106   1.959   0.910  1.1694  0.8398  0.7390
  373SOL     OW 1117   1.968   2.003   0.883  0.5773 -0.3651  0.0419
  373SOL    HW1 1118   2.019   1.979   0.974  0.9233 -0.4620  1.2125
  373SOL    HW2 1119   1.871   2.045   0.900 -0.9613 -0.8129  0.8698
  374SOL     OW 1120   1.823   0.462   0.551 -0.8384  0.2771  0.3799
  374SOL    HW1 1121   1.829   0.421   0.646 -0.9976  0.7520  2.1156
  374SOL    HW2 1122   1.919   0.437   0.499 -0.0565 -1.3722 -3.9262
  375SOL     OW 1123   2.366   2.161   1.137 -0.1966  0.1349  0.4894
  375SOL    HW1 1124   2.440   2.168   1.057  0.6155 -0.1207 -2.6693
  375SOL    HW2 1125   2.411   2.145   1.231  0.9064  1.1657  0.0375
  376SOL     OW 1126   3.015   0.608   1.407 -0.3224  0.0570  0.1511
  376SOL    HW1 1127   3.081   0.634   1.482 -0.9512 -0.8710  0.4723
  376SOL    HW2 1128   2.917   0.610   1.444  0.0197  1.1951 -0.7869
  377SOL     OW 1129   2.269   2.823   0.343 -0.3904 -0.0632  0.5571
  377SOL    HW1 1130   2.244   2.920   0.366 -0.1800  1.7295 -1.0109
  377SOL    HW2 1131   2.375   2.818   0.331  2.1653  0.6880 -0.4740
  378SOL     OW 1132   1.784   1.910   2.638 -0.1041 -0.5551  0.6221
  378SOL    HW1 1133   1.743   1.828   2.681 -3.1831 -0.0420 -0.4485
  378SOL    HW2 1134   1.788   1.906   2.536 -0.8882 -2.6938 -1.2575
  379SOL     OW 1135   0.875   0.091   2.746 -0.2907  0.7750  0.7320
  379SOL    HW1 1136   0.812   0.008   2.739  1.4189  2.5303  2.3507
  379SOL    HW2 1137   0.845   0.176   2.695 -0.6724  1.7795  0.1786
  380SOL     OW 1138   1.520   1.156   0.571  0.2134 -0.0199 -0.5587
  380SOL    HW1 1139   1.423   1.145   0.535 -0.5449  0.2201  1.4215
  380SOL    HW2 1140   1.562   1.071   0.599 -0.6581 -0.6284 -2.4275
  381SOL     OW 1141   1.298   1.194   1.537 -0.5873 -0.3228  0.4631
  381SOL    HW1 1142   1.344   1.213   1.447  0.6115  1.1519  1.0577
  381SOL    HW2 1143   1.369   1.166   1.611  1.4124  1.5364  1.3109
  382SOL     OW 1144   1.767   0.795   0.265  0.0981  0.0681 -0.0140
  382SOL    HW1 1145   1.802   0.777   0.170  1.4706  0.3833  0.0333
  382SOL    HW2 1146   1.844   0.822   0.327 -0.2025 -0.9552  1.1732
  383SOL     OW 1147   2.570   0.967   1.504  0.0601  0.0026  0.0947
  383SOL    HW1 1148   2.473   0.949   1.470 -1.5020 -2.4912  0.2726
  383SOL    HW2 1149   2.648   0.926   1.455 -1.1511  3.9128 -1.2057
  384SOL     OW 1150   0.881   2.287   0.065  0.2524  0.4692 -0.7225
  384SOL    HW1 1151   0.847   2.347   0.138 -0.6865  0.3109 -2.3824
  384SOL    HW2 1152   0.914   2.197   0.114 -2.6795 -0.9996  2.5642
  385SOL     OW 1153   3.002   2.011   1.778  0.4532 -0.1121  0.5878
  385SOL    HW1 1154   3.060   2.097   1.765 -1.0744  0.8726  0.4690
  385SOL    HW2 1155   3.039   1.914   1.753  0.6894 -2.3706 -1.4773
  386SOL     OW 1156   0.430   1.139   0.469  0.2030 -0.1925  0.4080
  386SOL    HW1 1157   0.435   1.033   0.461 -2.2283  0.8899  2.9533
  386SOL    HW2 1158   0.359   1.175   0.403 -0.7170 -1.2131 -1.0571
  387SOL     OW 1159   0.997   0.288   1.641  0.3741  0.2905 -0.3624
  387SOL    HW1 1160   1.037   0.384   1.643  0.5742  5.0791  2.7915
  387SOL    HW2 1161   0.992   0.253   1.543  2.2255  0.6195  1.2324
  388SOL     OW 1162   1.196   2.621   1.786  0.4611 -0.0366  0.3141
  388SOL    HW1 1163   1.235   2.632   1.691  1.4913 -2.7942  1.0653
  388SOL    HW2 1164   1.241   2.541   1.831 -0.1031  0.4389 -4.0964
  389SOL     OW 1165   0.236   0.006   1.138 -0.1383 -0.6702  0.0379
  389SOL    HW1 1166   0.169   0.019   1.214 -1.8394  0.9213 -1.3353
  389SOL    HW2 1167   0.259  -0.095   1.126 -1.4866  0.4167  2.8730
  390SOL     OW 1168   1.052   0.886   1.232  0.3819  0.5429 -0.0592
  390SOL    HW1 1169   1.153   0.878   1.267  1.1955 -0.9825  0.3319
  390SOL    HW2 1170   0.994   0.905   1.318  0.5987 -2.0899 -0.9112
  391SOL     OW 1171   2.092   1.136   1.059 -0.2054 -0.7246 -0.2638
  391SOL    HW1 1172   2.005   1.080   1.081 -2.7757 -2.0527  0.3523
  391SOL    HW2 1173   2.139   1.090   0.973  0.0077  0.1949 -2.8505
  392SOL     OW 1174   0.889   2.706   3.053  0.2980  0.0606 -0.3420
  392SOL    HW1 1175   0.796   2.701   3.106  1.0615 -4.2247  2.6510
  392SOL    HW2 1176   0.971   2.736   3.115  0.6411  0.8202  0.4889
  393SOL     OW 1177   0.379   0.561   2.094 -0.1665 -0.2591  0.6024
  393SOL    HW1 1178   0.286   0.524   2.072  1.5711 -3.5669  2.5714
  393SOL    HW2 1179   0.439   0.545   2.008 -0.1485 -1.3556  0.3321
  394SOL     OW 1180   2.879   1.839   2.805  0.8129  0.5255 -0.4023
  394SOL    HW1 1181   2.948   1.890   2.859  1.4914 -0.2997  0.4138
  394SOL    HW2 1182   2.912   1.803   2.711  2.5964 -1.8265 -1.1054
  395SOL     OW 1183   1.573   1.930   0.740 -0.1332 -0.0973 -0.0829
  395SOL    HW1 1184   1.637   1.904   0.665  1.1392 -2.2899 -1.2853
  395SOL    HW2 1185   1.620   1.984   0.813  0.5154  2.9083 -1.7789
  396SOL     OW 1186   2.781   2.053   1.311  0.1981  0.1558  0.3661
  396SOL    HW1 1187   2.821   2.037   1.405 -2.2298 -1.4771  0.3185
  396SOL    HW2 1188   2.687   2.099   1.315  1.2093  2.9451 -2.3763
  397SOL     OW 1189   1.020   2.089   0.640  0.4240 -0.0597 -0.4080
  397SOL    HW1 1190   0.952   2.036   0.589 -1.1215  3.6309 -0.7211
  397SOL    HW2 1191   0.976   2.150   0.717 -0.6405  0.2575 -0.6774
  398SOL     OW 1192   2.158   0.091   1.081 -0.4759  0.4252  0.0676
  398SOL    HW1 1193   2.146  -0.015   1.083 -0.9831  0.2077 -0.6216
  398SOL    HW2 1194   2.071   0.139   1.066  0.3596  0.7757 -1.2366
  399SOL     OW 1195   2.969   2.533   2.707 -0.2669 -0.1016 -0.4064
  399SOL    HW1 1196   2.909   2.498   2.630  0.3002 -0.3044  1.2029
  399SOL    HW2 1197   2.941   2.487   2.799 -1.0963 -1.9785  2.0865
  400SOL     OW 1198   0.849   1.602   1.286 -0.2579 -0.4547  0.5893
  400SOL    HW1 1199   0.781   1.621   1.362 -0.4624  0.9553  1.4390
  400SOL    HW2 1200   0.817   1.654   1.198  0.1274  1.7472 -0.4855
  401SOL     OW 1201   1.815   0.140   1.271 -0.1398  0.0827  0.0199
  401SOL    HW1 1202   1.872   0.189   1.344 -0.4264 -2.0637 -1.4449
  401SOL    HW2 1203   1.715   0.131   1.304 -2.3298  0.0415 -1.1042
  402SOL     OW 1204   1.314   0.130   3.044 -0.1935  0.1497  0.0451
  402SOL    HW1 1205   1.405   0.084   3.003  0.9724  0.8362 -0.7481
  402SOL    HW2 1206   1.329   0.214   3.102  1.3814 -1.7872  3.4541
  403SOL     OW 1207   2.321   1.803   0.955  0.3525  0.1746  0.1111
  403SOL    HW1 1208   2.421   1.828   0.971  3.0219 -1.9799  1.6172
  403SOL    HW2 1209   2.262   1.857   1.024  1.3948 -0.5415  0.4841
  404SOL     OW 1210   0.192   2.503   2.832 -0.1615 -0.0173  0.0739
  404SOL    HW1 1211   0.281   2.458   2.796  1.0139 -1.7035 -1.0637
  404SOL    HW2 1212   0.196   2.601   2.859  0.9291 -0.6394  0.1306
  405SOL     OW 1213   0.232   2.567   0.541  0.0674 -0.2100 -0.6061
  405SOL    HW1 1214   0.199   2.555   0.447  0.1941  2.9207  1.4251
  405SOL    HW2 1215   0.306   2.634   0.551 -1.6537 -2.5721 -0.7828
  406SOL     OW 1216   0.025   1.519   2.984 -0.8258  0.1763 -0.3934
  406SOL    HW1 1217   0.108   1.462   2.948  1.9866  1.8728 -1.2352
  406SOL    HW2 1218   0.012   1.504   3.086  2.2434 -0.7852 -0.7344
  407SOL     OW 1219   1.509   0.919   0.906  0.0720 -0.5318  0.4276
  407SOL    HW1 1220   1.457   0.864   0.839 -2.4238  1.3821  0.9146
  407SOL    HW2 1221   1.454   1.001   0.936  0.8304 -3.2245  2.0599
  408SOL     OW 1222   1.514   2.406   0.961  0.5185 -0.0068  0.0473
  408SOL    HW1 1223   1.570   2.391   0.877 -1.5873 -0.5160  0.5208
  408SOL    HW2 1224   1.526   2.500   1.015 -1.3554  1.6532  0.7864
  409SOL     OW 1225   0.668   0.856   0.669  0.2147 -0.0723  0.0564
  409SOL    HW1 1226   0.594   0.867   0.594  0.8491 -0.0888 -2.5884
  409SOL    HW2 1227   0.686   0.753   0.690 -0.1588 -0.8145 -1.9812
  410SOL     OW 1228   1.302   2.026   1.487 -0.6534  0.3075 -0.1296
  410SOL    HW1 1229   1.306   2.085   1.576  0.4152  0.9368 -1.3740
  410SOL    HW2 1230   1.220   1.972   1.460  0.5476 -2.5397 -0.4924
  411SOL     OW 1231   2.379   1.834   0.032  0.1419  0.0826 -0.3860
  411SOL    HW1 1232   2.295   1.809  -0.024  0.2208  0.8759 -1.5552
  411SOL    HW2 1233   2.457   1.852  -0.030  0.7967 -3.1547  0.6658
  412SOL     OW 1234   1.511   2.404   2.203 -0.2060 -0.1625 -0.1814
  412SOL    HW1 1235   1.586   2.403   2.271  0.6290 -0.5792  0.1983
  412SOL    HW2 1236   1.426   2.377   2.256 -0.0279 -1.2033 -2.0470
  413SOL     OW 1237   3.016   0.261   2.973  0.3954 -0.2344  0.2863
  413SOL    HW1 1238   2.972   0.180   3.022 -1.3783 -0.8278  0.2855
  413SOL    HW2 1239   3.118   0.248   2.955 -1.5294  1.8956  1.8955
  414SOL     OW 1240   1.773   1.385   1.332  0.0013  0.2369  0.3009
  414SOL    HW1 1241   1.693   1.442   1.364  2.1432  3.4283 -2.6862
  414SOL    HW2 1242   1.748   1.337   1.244 -0.9093 -0.8013 -1.0344
  415SOL     OW 1243   0.366   2.272   0.659 -0.2216  0.0909 -0.3442
  415SOL    HW1 1244   0.339   2.366   0.643  2.3352 -3.7042 -0.2226
  415SOL    HW2 1245   0.284   2.213   0.682 -0.1390  0.1922 -1.5557
  416SOL     OW 1246   0.373   1.015   1.055  0.1427 -0.2489  0.3372
  416SOL    HW1 1247   0.339   0.982   0.958 -0.3837  0.5713 -0.0276
  416SOL    HW2 1248   0.470   1.043   1.048 -0.6308 -0.7776  0.6855
  417SOL     OW 1249   2.136   2.339   1.905 -0.4218  0.8211  0.4880
  417SOL    HW1 1250   2.183   2.263   1.951 -1.9318 -1.1993  1.3221
  417SOL    HW2 1251   2.036   2.336   1.926 -2.9254  1.2613 -1.6420
  418SOL     OW 1252   1.134   0.485   1.325  0.1142  0.8226 -0.0153
  418SOL    HW1 1253   1.035   0.457   1.325  0.1793  1.9985 -0.5375
  418SOL    HW2 1254   1.194   0.442   1.250  3.4274 -2.0845 -3.6799
  419SOL     OW 1255   0.980   0.374   3.031  0.2250 -0.1751  0.2770
  419SOL    HW1 1256   0.958   0.419   2.942  1.7367  0.6733 -0.0886
  419SOL    HW2 1257   0.952   0.276   3.036  2.8238  0.9405  1.8808
  420SOL     OW 1258   0.222   2.254   0.343 -0.2238 -0.1123 -0.3066
  420SOL    HW1 1259   0.188   2.174   0.281 -1.0906  0.1863  1.7630
  420SOL    HW2 1260   0.158   2.258   0.425 -0.7984  0.8581  0.0318
  421SOL     OW 1261   0.318   3.095   0.661 -0.2275  0.2270  0.4035
  421SOL    HW1 1262   0.329   2.994   0.647  0.5432  0.5129  2.1794
  421SOL    HW2 1263   0.412   3.140   0.659  2.3831 -3.3322 -0.8171
  422SOL     OW 1264   0.924   2.498   1.030 -0.0650 -0.0776  0.0199
  422SOL    HW1 1265   0.954   2.564   0.959  0.6407 -0.3688 -1.6256
  422SOL    HW2 1266   0.963   2.506   1.126 -1.0971 -2.2907  1.8513
  423SOL     OW 1267   0.049   0.720   1.200  0.0064 -0.2365  0.2212
  423SOL    HW1 1268  -0.000   0.662   1.269  1.3523  1.5731 -0.3837
  423SOL    HW2 1269  -0.008   0.803   1.162 -1.9143  0.2150 -1.8150
  424SOL     OW 1270   1.020   2.165   2.106 -0.1290  0.0578 -1.1054
  424SOL    HW1 1271   1.015   2.268   2.088 -1.1278  2.7467  0.6712
  424SOL    HW2 1272   0.976   2.139   2.195  0.8875 -1.6313 -0.7777
  425SOL     OW 1273   1.996   1.406   1.061 -0.2671  0.7085 -0.5449
  425SOL    HW1 1274   1.993   1.304   1.090  2.4831 -1.7338 -1.1546
  425SOL    HW2 1275   2.063   1.432   0.990 -0.1331 -0.7108  1.2689
  426SOL     OW 1276   1.545   1.544   1.382 -0.5520  0.2230  0.3213
  426SOL    HW1 1277   1.481   1.604   1.324  0.7337  1.3395 -2.6680
  426SOL    HW2 1278   1.552   1.572   1.480 -1.1380  0.7062  1.9742
  427SOL     OW 1279   1.915   2.364   2.067 -0.3132 -0.3325  0.4784
  427SOL    HW1 1280   1.953   2.320   2.150 -1.9578  1.4400 -0.7028
  427SOL    HW2 1281   1.936   2.468   2.071  1.2875  0.2327  1.0278
  428SOL     OW 1282   0.898   3.037   0.129 -0.2190 -1.0152 -0.0652
  428SOL    HW1 1283   0.952   3.117   0.165  1.3743  1.9488 -1.3625
  428SOL    HW2 1284   0.953   2.956   0.107 -1.6979 -0.5597  2.9128
  429SOL     OW 1285   1.319   0.066   0.224 -0.0054  0.3616 -0.3799
  429SOL    HW1 1286   1.411   0.104   0.251 -2.4578 -0.5794 -0.1300
  429SOL    HW2 1287   1.313   0.062   0.117  1.9368 -0.0267 -1.7583
  430SOL     OW 1288   2.804   1.516   0.355  0.0540 -0.1348 -0.2680
  430SOL    HW1 1289   2.860   1.560   0.286 -2.9746 -2.2717  0.4498
  430SOL    HW2 1290   2.800   1.573   0.445 -0.2942  0.2647  0.5186
  431SOL     OW 1291   2.147   1.595   0.901  0.0436 -0.2955 -0.4567
  431SOL    HW1 1292   2.222   1.669   0.906  0.6948  1.8572 -1.0610
  431SOL    HW2 1293   2.055   1.639   0.874 -0.8777  1.1325  2.1257
  432SOL     OW 1294   2.929   2.288   1.239 -0.4304 -0.5073 -0.9778
  432SOL    HW1 1295   2.848   2.224   1.264 -2.3072 -0.3142 -2.0862
  432SOL    HW2 1296   2.995   2.304   1.326  1.6616  2.9559  2.0522
  433SOL     OW 1297   1.823   0.363   0.793 -0.1529  0.3673 -0.0239
  433SOL    HW1 1298   1.754   0.340   0.865  2.9362  0.5604  0.7667
  433SOL    HW2 1299   1.903   0.298   0.793  0.4504 -1.2376  1.4795
  434SOL     OW 1300   1.520   0.285   0.699 -0.6878  0.6337 -0.1530
  434SOL    HW1 1301   1.542   0.378   0.659  1.0093 -3.2501  0.6888
  434SOL    HW2 1302   1.533   0.283   0.800  1.8608 -1.0803  1.5018
  435SOL     OW 1303   1.439   1.492   2.095 -0.4167 -0.8564 -0.4220
  435SOL    HW1 1304   1.413   1.466   2.190  2.1859  1.4532  0.9354
  435SOL    HW2 1305   1.379   1.559   2.050  1.2849 -2.7602  0.5161
  436SOL     OW 1306   1.656   2.645   2.424 -0.2489  0.1598  0.7207
  436SOL    HW1 1307   1.646   2.744   2.441  1.4845 -2.2493 -0.1866
  436SOL    HW2 1308   1.638   2.591   2.509  0.8654 -0.2841  0.2954
  437SOL     OW 1309   1.089   2.927   0.907 -0.2329  0.3675  0.8767
  437SOL    HW1 1310   1.021   3.008   0.899 -3.4769  1.0323 -1.2349
  437SOL    HW2 1311   1.126   2.906   1.000  1.5137 -1.5322  0.1963
  438SOL     OW 1312   1.083   2.523   1.287  0.1878  0.2896 -0.2702
  438SOL    HW1 1313   1.120   2.601   1.350  1.9413 -1.1711  0.4712
  438SOL    HW2 1314   1.048   2.456   1.356  0.7212  2.0443 -0.7244
  439SOL     OW 1315   0.722   1.730   1.042  0.1816  0.6980 -0.5804
  439SOL    HW1 1316   0.750   1.776   0.952  1.8027  3.0238  0.7541
  439SOL    HW2 1317   0.617   1.741   1.063  1.6852  2.6599  3.8356
  440SOL     OW 1318   1.039   2.412   2.043 -0.1051  0.0794 -0.4200
  440SOL    HW1 1319   0.984   2.441   1.963  1.4574  0.9751 -0.4022
  440SOL    HW2 1320   1.141   2.436   2.033 -2.0407  0.6630  2.5105
  441SOL     OW 1321   0.343   2.695   1.405 -0.1207 -0.3882  0.7991
  441SOL    HW1 1322   0.423   2.630   1.433  0.5025  0.0744  0.0745
  441SOL    HW2 1323   0.348   2.726   1.303  1.6230 -1.5585  2.6496
  442SOL     OW 1324   2.230   0.648   2.609 -0.4648 -0.5209 -0.0580
  442SOL    HW1 1325   2.229   0.564   2.547  3.3512 -0.9476  0.2924
  442SOL    HW2 1326   2.139   0.680   2.637  0.9220 -1.8065 -1.5882
  443SOL     OW 1327   1.269   2.662   2.233  0.0101  0.3102 -0.1838
  443SOL    HW1 1328   1.314   2.580   2.276 -0.4630  2.9760 -2.0445
  443SOL    HW2 1329   1.193   2.703   2.290 -2.3792 -2.3870 -1.5596
  444SOL     OW 1330   1.020   1.226   1.499  0.4610  0.1728  0.1392
  444SOL    HW1 1331   1.124   1.244   1.514  2.0437  1.6123  1.6079
  444SOL    HW2 1332   0.962   1.234   1.586 -3.4565  3.5264  2.1065
  445SOL     OW 1333   0.128   2.304   1.996 -1.1555  0.2267 -1.0536
  445SOL    HW1 1334   0.089   2.236   1.930  0.5114  1.0499 -2.3907
  445SOL    HW2 1335   0.139   2.260   2.093 -2.7006 -1.3291  1.6204
  446SOL     OW 1336   0.149   1.952   2.381 -0.0482  0.0393  0.6669
  446SOL    HW1 1337   0.098   2.045   2.370  1.6114  1.0094 -3.3309
  446SOL    HW2 1338   0.154   1.901   2.290 -0.6904 -0.2311 -1.9385
  447SOL     OW 1339   1.258   1.685   1.976  0.1672 -0.4412 -0.4471
  447SOL    HW1 1340   1.167   1.732   1.997  0.7519  1.0485 -0.7437
  447SOL    HW2 1341   1.345   1.741   1.993 -0.2714  0.4899  0.7728
  448SOL     OW 1342   0.196   1.443   2.041 -0.6911 -0.0897 -0.4787
  448SOL    HW1 1343   0.177   1.518   1.974  0.5976  0.0334 -2.6005
  448SOL    HW2 1344   0.137   1.450   2.135 -3.4527  1.4732  1.4772
  449SOL     OW 1345   1.866   2.923   0.803 -0.6337  0.4575  0.6438
  449SOL    HW1 1346   1.852   2.927   0.908 -1.0294 -2.0328 -1.0961
  449SOL    HW2 1347   1.896   2.827   0.772 -0.6124 -2.9164 -1.5219
  450SOL     OW 1348   2.247   1.477   0.693 -0.1903  0.2506  0.3382
  450SOL    HW1 1349   2.212   1.513   0.784 -0.9799 -1.1734  1.8737
  450SOL    HW2 1350   2.301   1.546   0.631  0.4185  0.6470 -1.6776
  451SOL     OW 1351   1.376   3.040   1.498  0.0920  0.1433 -0.1804
  451SOL    HW1 1352   1.320   3.127   1.522 -1.1805  0.5502  2.3864
  451SOL    HW2 1353   1.408   2.994   1.579 -0.4553  0.0823  2.7047
  452SOL     OW 1354   2.660   2.291   2.290 -0.3104  0.1931  0.6282
  452SOL    HW1 1355   2.623   2.386   2.301  0.6633  1.9538  1.4362
  452SOL    HW2 1356   2.660   2.238   2.381  0.6913  1.2840  0.2255
  453SOL     OW 1357   2.474   2.656   3.070 -0.6304 -0.2227  0.6964
  453SOL    HW1 1358   2.394   2.729   3.077 -0.2596  0.4451  1.5386
  453SOL    HW2 1359   2.443   2.570   3.023  3.5616  2.1551  0.0564
  454SOL     OW 1360   0.914   1.152   2.014 -0.3585 -0.3457  0.4303
  454SOL    HW1 1361   0.889   1.110   1.921  0.9034 -2.0668 -1.6404
  454SOL    HW2 1362   1.012   1.189   2.015  2.1872 -0.6489 -0.0626
  455SOL     OW 1363   0.659   2.671   2.825  0.2251  0.3484  0.3987
  455SOL    HW1 1364   0.749   2.726   2.843  0.3012 -3.0227  0.3771
  455SOL    HW2 1365   0.670   2.579   2.875  2.2658  0.7350  1.6843
  456SOL     OW 1366   0.355   1.927   0.223  0.4245 -0.4554 -0.2350
  456SOL    HW1 1367   0.456   1.912   0.238 -0.5972 -0.6827 -0.9172
  456SOL    HW2 1368   0.341   2.011   0.166 -0.5853 -2.1361  0.6712
  457SOL     OW 1369   0.415   2.782   0.653 -0.1842  0.1185 -0.2618
  457SOL    HW1 1370   0.439   2.833   0.561 -1.2180  0.4887  0.8756
  457SOL    HW2 1371   0.491   2.758   0.717 -1.3686 -0.2957  1.5795
  458SOL     OW 1372   2.834   0.025   1.223 -0.3973 -0.0657 -0.6234
  458SOL    HW1 1373   2.886   0.112   1.237 -1.0791  1.7826  2.7010
  458SOL    HW2 1374   2.850  -0.026   1.133 -1.8184  1.4619 -1.6977
  459SOL     OW 1375   2.223   2.511   0.798 -0.8663  0.8057 -0.0068
  459SOL    HW1 1376   2.277   2.584   0.849  2.9814  0.9151 -0.2510
  459SOL    HW2 1377   2.278   2.470   0.722  0.1702 -3.2347  1.0829
  460SOL     OW 1378   1.196   2.069   2.784  0.0811 -0.2147  0.4024
  460SOL    HW1 1379   1.244   2.102   2.698  1.1062  1.0724  0.5760
  460SOL    HW2 1380   1.231   1.978   2.818  0.3776 -1.8850 -1.4740
  461SOL     OW 1381   0.415   2.097   2.723  0.4781 -0.1808  0.4602
  461SOL    HW1 1382   0.376   2.020   2.664 -0.6035 -3.3441 -0.5506
  461SOL    HW2 1383   0.439   2.069   2.822 -1.3116 -2.4366  1.6685
  462SOL     OW 1384   0.946   1.026   1.766 -0.1011  0.0953  0.4888
  462SOL    HW1 1385   1.003   0.980   1.689  2.2672  3.1742  0.1342
  462SOL    HW2 1386   0.894   1.112   1.726  0.1777  0.9309  0.9412
  463SOL     OW 1387   0.462   0.863   0.493 -0.2206  0.8478  0.1875
  463SOL    HW1 1388   0.497   0.790   0.424 -0.0949 -0.4124 -1.2226
  463SOL    HW2 1389   0.359   0.844   0.514  0.9894 -0.3980  0.1217
  464SOL     OW 1390   0.596   2.336   2.201  0.2255 -0.5275 -0.0058
  464SOL    HW1 1391   0.541   2.410   2.253  0.8168  2.0226  2.9096
  464SOL    HW2 1392   0.572   2.333   2.103 -1.4197  1.6347 -0.9232
  465SOL     OW 1393   0.255   0.900   0.846  0.3557  0.0978  0.0314
  465SOL    HW1 1394   0.162   0.921   0.797 -3.9671  2.4660  1.0496
  465SOL    HW2 1395   0.282   0.798   0.834  1.1410 -1.3628 -0.2246
  466SOL     OW 1396   1.380   1.136   1.007 -0.1443  0.2834  0.3791
  466SOL    HW1 1397   1.365   1.238   0.982 -1.8752  0.6584 -2.1784
  466SOL    HW2 1398   1.289   1.094   1.031 -0.9957 -0.6319 -0.1440
  467SOL     OW 1399   0.577   0.402   2.472  0.3913  0.1061  0.1822
  467SOL    HW1 1400   0.541   0.498   2.501  0.2547  2.2946  0.1727
  467SOL    HW2 1401   0.599   0.343   2.554  0.1450 -0.8936 -2.3731
  468SOL     OW 1402   0.408   2.258   1.617 -0.3575  0.0220 -0.2241
  468SOL    HW1 1403   0.497   2.288   1.665 -2.3892  1.9038  2.9417
  468SOL    HW2 1404   0.424   2.250   1.514  0.4512 -1.4480 -1.3559
  469SOL     OW 1405   1.422   1.304   1.297  0.6955 -0.1948  0.3120
  469SOL    HW1 1406   1.459   1.260   1.209 -1.9239 -0.5536  1.3799
  469SOL    HW2 1407   1.476   1.384   1.328  1.6781  3.0256  0.6386
  470SOL     OW 1408   3.013   1.785   0.726 -0.0061  0.3662 -0.4067
  470SOL    HW1 1409   3.081   1.863   0.700 -2.0585  1.0424  0.9584
  470SOL    HW2 1410   3.052   1.700   0.774  0.0584 -0.3056  2.1304
  471SOL     OW 1411   2.566   1.366   2.165  0.2405  0.0096  0.0177
  471SOL    HW1 1412   2.539   1.277   2.210 -0.2694 -0.7635 -1.0946
  471SOL    HW2 1413   2.667   1.392   2.179  1.4362  0.7456 -1.1162
  472SOL     OW 1414   1.145   2.407   0.070  0.1319 -0.5885  0.3863
  472SOL    HW1 1415   1.207   2.384   0.150  0.9454  0.1007  0.4885
  472SOL    HW2 1416   1.045   2.397   0.087  0.6305 -0.4807  1.4848
  473SOL     OW 1417   1.103   1.488   1.025  0.1018 -0.1437  0.1943
  473SOL    HW1 1418   1.006   1.493   0.992  0.3444 -1.2145  1.5532
  473SOL    HW2 1419   1.115   1.433   1.116  4.2636 -1.7414  1.8268
  474SOL     OW 1420   0.663   1.287   0.544  0.1961 -0.3240 -0.0587
  474SOL    HW1 1421   0.578   1.228   0.517  0.2417  0.3556  0.0232
  474SOL    HW2 1422   0.743   1.220   0.562  0.4632 -1.3735  2.4287
  475SOL     OW 1423   2.799   0.014   0.800  0.5624 -0.3863 -0.0141
  475SOL    HW1 1424   2.875   0.083   0.816 -0.4047 -0.0029 -0.7013
  475SOL    HW2 1425   2.709   0.036   0.844  2.2205  1.4873  0.3899
  476SOL     OW 1426   0.996   3.008   1.771 -0.1926 -0.6022 -0.1814
  476SOL    HW1 1427   1.098   3.028   1.790  3.1291 -0.1155 -1.4400
  476SOL    HW2 1428   0.981   2.982   1.670 -0.7039 -1.3632 -0.0660
  477SOL     OW 1429   1.464   0.319   2.395  0.1805  0.2220  0.3751
  477SOL    HW1 1430   1.458   0.344   2.495 -0.7301 -2.5780  0.2505
  477SOL    HW2 1431   1.551   0.264   2.371  0.7149 -1.2953 -1.2270
  478SOL     OW 1432   2.214   1.870   0.258  0.0496  0.1620 -0.4670
  478SOL    HW1 1433   2.167   1.777   0.284  0.4083 -4.5741 -0.9217
  478SOL    HW2 1434   2.284   1.852   0.186 -2.4459  1.1975  1.3171
  479SOL     OW 1435   1.248   0.965   2.927  0.3260 -0.1460  0.3973
  479SOL    HW1 1436   1.347   0.961   2.895 -0.7175  0.7814  1.6184
  479SOL    HW2 1437   1.195   0.877   2.909  0.7990 -0.2591  1.6052
  480SOL     OW 1438   2.666   2.337   0.387 -0.9281  0.2658 -0.0253
  480SOL    HW1 1439   2.638   2.256   0.441  0.3840  1.9547 -2.4567
  480SOL    HW2 1440   2.622   2.338   0.293 -0.6610  1.4392  0.4451
  481SOL     OW 1441   1.026   1.209   0.823 -0.8075 -0.1992 -0.3299
  481SOL    HW1 1442   1.036   1.298   0.777  1.6686 -0.2540 -2.8699
  481SOL    HW2 1443   1.052   1.210   0.922 -0.8174 -0.6499 -2.2474
  482SOL     OW 1444   1.577   0.305   1.992 -0.1367  0.7003 -0.1808
  482SOL    HW1 1445   1.576   0.392   1.938 -1.4415 -0.5382 -2.7984
  482SOL    HW2 1446   1.670   0.260   2.001 -2.2122  0.6809  0.2691
  483SOL     OW 1447   0.187   2.331   1.232 -0.5699 -0.6062  0.2832
  483SOL    HW1 1448   0.186   2.410   1.298 -0.0390  0.3549 -1.4981
  483SOL    HW2 1449   0.161   2.359   1.132 -1.7691  1.2154  2.2536
  484SOL     OW 1450   1.768   1.073   1.352  0.2145  0.2573  0.2742
  484SOL    HW1 1451   1.831   1.003   1.395 -1.0758  1.2602  0.7863
  484SOL    HW2 1452   1.772   1.169   1.393  1.1276  1.4566  2.0377
  485SOL     OW 1453   0.768   0.746   1.801  0.3737 -0.0406 -0.6120
  485SOL    HW1 1454   0.744   0.826   1.732 -1.8491  0.9025 -1.5543
  485SOL    HW2 1455   0.870   0.723   1.802  1.7828  1.0948 -0.8689
  486SOL     OW 1456   0.833   1.853   2.421  0.3043 -0.4153  0.4083
  486SOL    HW1 1457   0.837   1.835   2.523  1.1988  1.0212 -1.7467
  486SOL    HW2 1458   0.843   1.952   2.397 -0.4679  1.6437  1.2345
  487SOL     OW 1459   1.768   1.579   1.004 -0.9107  0.5711 -1.0508
  487SOL    HW1 1460   1.833   1.501   1.033 -2.3948 -2.6914  0.1264
  487SOL    HW2 1461   1.808   1.636   0.929  0.0492  0.2563 -1.1330
  488SOL     OW 1462   2.992   0.858   2.304 -0.0556  0.5519  0.1604
  488SOL    HW1 1463   3.050   0.774   2.279  0.1413 -0.7238  2.5224
  488SOL    HW2 1464   2.900   0.829   2.348  0.7197  0.7572  1.7328
  489SOL     OW 1465   2.779   0.369   1.239  0.2474  0.5244  0.0329
  489SOL    HW1 1466   2.766   0.376   1.341  1.0462 -0.1068  1.0880
  489SOL    HW2 1467   2.876   0.340   1.216  1.8085 -0.8954  1.2175
  490SOL     OW 1468   1.439   2.923   2.825 -0.1880  0.7702 -0.1924
  490SOL    HW1 1469   1.498   2.838   2.842 -1.1722 -0.1706 -2.5379
  490SOL    HW2 1470   1.427   2.957   2.730 -0.5650  1.6681  2.0262
  491SOL     OW 1471   1.728   1.490   2.685  0.0673 -0.2680 -0.5405
  491SOL    HW1 1472   1.699   1.450   2.774 -1.1032  1.0291  0.7084
  491SOL    HW2 1473   1.818   1.532   2.690 -1.0681 -0.0062  0.4948
  492SOL     OW 1474   0.583   2.072   0.620 -0.3520  0.2382 -0.5601
  492SOL    HW1 1475   0.603   2.063   0.725  0.5434 -0.5151 -0.6889
  492SOL    HW2 1476   0.521   2.146   0.602  2.1834  0.4351 -0.9140
  493SOL     OW 1477   0.478   1.377   2.087  0.5140 -0.1867 -0.0699
  493SOL    HW1 1478   0.383   1.422   2.085 -0.4914 -0.2200  0.2879
  493SOL    HW2 1479   0.469   1.277   2.110  3.3553  0.7207 -1.6093
  494SOL     OW 1480   2.699   2.549   0.113  0.0510 -0.1363 -0.1299
  494SOL    HW1 1481   2.730   2.594   0.204  0.7883 -1.4458  1.2010
  494SOL    HW2 1482   2.612   2.595   0.076 -1.4028 -0.5956  1.4853
  495SOL     OW 1483   2.525   2.805   2.600  0.3344 -0.7149  0.4963
  495SOL    HW1 1484   2.524   2.703   2.605 -3.5305  1.7803 -1.5256
  495SOL    HW2 1485   2.615   2.838   2.559 -1.8918 -2.3408 -1.3761
  496SOL     OW 1486   1.994   2.308   0.821  0.8538 -0.2474  0.2394
  496SOL    HW1 1487   2.061   2.360   0.878  1.5736 -2.0669  0.4417
  496SOL    HW2 1488   2.012   2.203   0.823  0.0905  1.1561  0.3904
  497SOL     OW 1489   0.142   2.998   2.361 -0.6531 -0.0704 -0.1639
  497SOL    HW1 1490   0.103   3.062   2.431  0.9282 -1.0686 -1.6822
  497SOL    HW2 1491   0.183   3.049   2.278 -1.9542 -1.7241  1.1105
  498SOL     OW 1492   1.162   1.374   1.249  0.4015 -0.3251  0.0835
  498SOL    HW1 1493   1.261   1.346   1.268  1.5155 -1.5281  0.4229
  498SOL    HW2 1494   1.109   1.381   1.337 -0.0358 -0.9261 -3.1928
  499SOL     OW 1495   0.634   1.775   0.297  0.1058 -0.1219 -0.6848
  499SOL    HW1 1496   0.674   1.723   0.217 -0.7676 -1.5696 -0.6665
  499SOL    HW2 1497   0.703   1.835   0.356  0.3496  2.9227  1.8354
  500SOL     OW 1498   1.475   2.866   1.713 -0.6980 -0.0841  0.5059
  500SOL    HW1 1499   1.477   2.887   1.816 -0.7920  0.7314  0.2330
  500SOL    HW2 1500   1.515   2.776   1.691 -2.6153  2.1818 -1.3701
  501SOL     OW 1501   0.793   1.127   2.274  0.3053  0.4172 -0.9224
  501SOL    HW1 1502   0.713   1.053   2.269 -4.4097 -1.8185 -0.0570
  501SOL    HW2 1503   0.824   1.159   2.182  0.6808 -0.7351 -1.8661
  502SOL     OW 1504   2.615   0.946   1.774  0.0164  0.5110  0.1071
  502SOL    HW1 1505   2.603   0.960   1.676  1.1905 -0.7242  0.7457
  502SOL    HW2 1506   2.602   0.846   1.801 -1.9263  0.8418  0.3940
  503SOL     OW 1507   1.295   0.145   0.620  0.2373  0.3804 -0.3550
  503SOL    HW1 1508   1.222   0.222   0.631  1.7843  0.3037 -0.3461
  503SOL    HW2 1509   1.391   0.180   0.649 -1.5093  0.0626  1.5977
  504SOL     OW 1510   3.010   2.331   1.488  0.2907  0.1767  0.2407
  504SOL    HW1 1511   2.983   2.425   1.532 -0.5779  1.6899 -1.4951
  504SOL    HW2 1512   3.071   2.275   1.547 -1.1537  3.7437  1.2663
  505SOL     OW 1513   2.269   1.168   1.406 -0.7492 -0.4096 -0.3984
  505SOL    HW1 1514   2.258   1.187   1.308  1.0983  0.9866  3.2846
  505SOL    HW2 1515   2.342   1.227   1.441  0.8279 -0.6894 -1.9409
  506SOL     OW 1516   1.947   0.186   1.823 -0.0036  0.4528 -0.4075
  506SOL    HW1 1517   2.029   0.124   1.805 -2.1784 -0.2458 -1.3918
  506SOL    HW2 1518   1.982   0.273   1.868  1.3830 -0.9937 -0.5297
  507SOL     OW 1519   0.565   0.727   2.205 -0.8292 -0.2344 -0.4071
  507SOL    HW1 1520   0.487   0.671   2.168  1.9875 -0.9100 -0.1184
  507SOL    HW2 1521   0.652   0.677   2.210  1.2632  1.8098  0.3774
  508SOL     OW 1522   0.330   1.657   0.763  0.2081 -0.0094 -0.1345
  508SOL    HW1 1523   0.369   1.715   0.682 -0.9491  0.8431  0.7582
  508SOL    HW2 1524   0.290   1.718   0.840  1.0731 -1.9041 -1.4493
  509SOL     OW 1525   1.304   1.191   2.470  0.0224 -0.1693 -0.5527
  509SOL    HW1 1526   1.330   1.177   2.371  2.4423  1.2048  1.3723
  509SOL    HW2 1527   1.203   1.173   2.493 -0.5373 -0.9882  1.0372
  510SOL     OW 1528   1.314   2.068   2.220 -0.6530 -0.0328 -0.0335
  510SOL    HW1 1529   1.335   2.080   2.121 -2.7195  1.4767  0.3064
  510SOL    HW2 1530   1.244   1.993   2.233 -4.1563 -0.6462 -1.9410
  511SOL     OW 1531   3.024   2.733   1.261 -0.2062 -0.2277 -0.6661
  511SOL    HW1 1532   3.031   2.728   1.157 -0.8048 -1.3557  1.7827
  511SOL    HW2 1533   2.928   2.716   1.284  2.9752  0.2746 -0.8620
  512SOL     OW 1534   2.376   0.420   1.394 -0.0038  0.0353 -0.8209
  512SOL    HW1 1535   2.285   0.432   1.352  1.5416  2.5406  2.0438
  512SOL    HW2 1536   2.446   0.388   1.330  0.3321  0.8823  0.2894
  513SOL     OW 1537   2.585   2.154   0.942 -0.3769 -0.0291 -0.1343
  513SOL    HW1 1538   2.537   2.201   0.867  0.6632  3.0165  2.0582
  513SOL    HW2 1539   2.685   2.134   0.922 -0.0658  0.8237  1.1877
  514SOL     OW 1540   0.673   2.716   0.397 -0.0860 -0.0879 -0.3016
  514SOL    HW1 1541   0.679   2.721   0.291 -1.9825  3.3888 -1.7933
  514SOL    HW2 1542   0.715   2.795   0.446  0.4506 -2.6596  1.2963
  515SOL     OW 1543   1.922   1.369   2.408  0.0627  0.2185 -0.3581
  515SOL    HW1 1544   1.919   1.314   2.325 -0.3514  0.2202  3.3589
  515SOL    HW2 1545   1.863   1.330   2.484 -3.2129  0.1559 -1.4838
  516SOL     OW 1546   0.275   0.296   1.890  0.4878  0.5015  0.2002
  516SOL    HW1 1547   0.371   0.249   1.893 -0.0698 -1.1787  0.1990
  516SOL    HW2 1548   0.195   0.233   1.875 -1.3979  0.5562  1.4226
  517SOL     OW 1549   0.496   0.174   1.153 -0.4451 -0.6213 -0.3771
  517SOL    HW1 1550   0.561   0.146   1.231 -1.5932 -0.7138 -0.6079
  517SOL    HW2 1551   0.416   0.107   1.143  2.2079  3.4560 -0.7954
  518SOL     OW 1552   2.149   3.068   1.790  0.0700  0.4804  0.0263
  518SOL    HW1 1553   2.204   3.151   1.812 -4.9308 -0.5919 -1.4977
  518SOL    HW2 1554   2.159   3.043   1.688 -0.8885  0.1370  2.2014
  519SOL     OW 1555   2.338   2.151   2.515 -0.0457 -0.0634 -0.2498
  519SOL    HW1 1556   2.299   2.131   2.610 -2.2688 -0.4346 -3.3609
  519SOL    HW2 1557   2.368   2.246   2.493 -0.5028 -2.7314  2.9010
  520SOL     OW 1558   1.839   2.751   1.719 -0.4889 -0.2615  0.2247
  520SOL    HW1 1559   1.767   2.708   1.782  0.2363  0.4581  2.2983
  520SOL    HW2 1560   1.911   2.685   1.702 -1.0762  2.7707 -1.2208
  521SOL     OW 1561   0.555   0.022   2.107  0.3524 -0.5597 -0.0822
  521SOL    HW1 1562   0.454   0.021   2.140 -0.1041  0.9025  1.9916
  521SOL    HW2 1563   0.621   0.047   2.179 -2.3030 -1.9969 -1.4049
  522SOL     OW 1564   0.232   1.871   1.472 -0.1598  0.0480  0.3454
  522SOL    HW1 1565   0.264   1.921   1.556 -0.8300 -0.6041  2.8773
  522SOL    HW2 1566   0.212   1.936   1.393  1.9005 -0.9896 -1.1148
  523SOL     OW 1567   2.169   2.919   1.532  1.0165  0.0187 -0.4785
  523SOL    HW1 1568   2.212   2.822   1.534 -0.6854  0.1801  0.6067
  523SOL    HW2 1569   2.072   2.912   1.499 -0.9947 -1.0567 -1.8356
  524SOL     OW 1570   0.188   2.781   2.814 -0.0883 -0.3476 -0.1893
  524SOL    HW1 1571   0.142   2.851   2.878 -3.1763  2.2305  2.4148
  524SOL    HW2 1572   0.281   2.811   2.781 -2.0610 -0.8497 -0.6209
  525SOL     OW 1573   2.143   2.047   0.481  0.7590  0.1002  0.3279
  525SOL    HW1 1574   2.160   2.010   0.575 -0.4112  0.1336 -2.6706
  525SOL    HW2 1575   2.174   1.985   0.402  0.5945 -2.4028 -0.0623
  526SOL     OW 1576   0.407   1.541   1.823 -0.2123  0.5408 -0.0324
  526SOL    HW1 1577   0.502   1.584   1.826 -4.5439 -0.9919  1.0509
  526SOL    HW2 1578   0.414   1.435   1.837 -2.6874  0.9447  1.2579
  527SOL     OW 1579   1.058   2.936   1.236 -0.1510 -0.2310 -0.2772
  527SOL    HW1 1580   1.125   2.861   1.256 -1.7112 -2.4547 -1.7705
  527SOL    HW2 1581   1.105   3.032   1.221 -1.1020  2.7847 -2.0245
  528SOL     OW 1582   1.363   2.361   0.556  0.5081 -0.2857 -0.0835
  528SOL    HW1 1583   1.405   2.264   0.571 -0.1933  0.9550 -0.5162
  528SOL    HW2 1584   1.397   2.429   0.624  0.3685  1.3789  0.7629
  529SOL     OW 1585   1.889   1.729   0.819  0.0302 -0.2628  0.2002
  529SOL    HW1 1586   1.829   1.726   0.732  2.3270 -0.1685  1.0268
  529SOL    HW2 1587   1.903   1.827   0.847 -1.1934 -1.2224 -1.1934
  530SOL     OW 1588   0.446   2.500   0.168  0.2540  0.7100 -0.8682
  530SOL    HW1 1589   0.477   2.457   0.259  1.8270 -0.9306  1.9275
  530SOL    HW2 1590   0.428   2.423   0.097 -0.3059  0.1081  0.9196
  531SOL     OW 1591   1.848   1.009   1.074 -0.3265 -0.7737 -0.3679
  531SOL    HW1 1592   1.805   1.003   0.982 -0.5999 -0.6932  2.8303
  531SOL    HW2 1593   1.785   0.993   1.158  1.5390 -0.3085  0.9358
  532SOL     OW 1594   0.314   1.227   0.709 -0.7131  0.5070  0.0514
  532SOL    HW1 1595   0.366   1.200   0.620 -1.8046 -0.6876  0.6316
  532SOL    HW2 1596   0.286   1.151   0.772 -0.4987  1.8696 -0.2792
  533SOL     OW 1597   1.813   0.034   2.524 -0.4221 -0.0514 -0.0215
  533SOL    HW1 1598   1.908   0.004   2.543 -3.0505  0.4894  2.4729
  533SOL    HW2 1599   1.775   0.098   2.600 -0.1847  0.3089 -0.8042
  534SOL     OW 1600   0.209   0.178   1.522 -0.4675  0.0880  0.0746
  534SOL    HW1 1601   0.304   0.222   1.513 -0.1844  1.6501 -2.0757
  534SOL    HW2 1602   0.141   0.255   1.549 -2.5741  2.2204  0.2701
  535SOL     OW 1603   1.855   0.321   0.205 -0.8543 -0.8685  0.3330
  535SOL    HW1 1604   1.927   0.386   0.243  0.5934  2.0793  4.2510
  535SOL    HW2 1605   1.790   0.291   0.277 -0.3014  0.4397  0.2394
  536SOL     OW 1606   1.245   2.623   0.925  0.7472  0.1433 -0.2542
  536SOL    HW1 1607   1.195   2.551   0.982 -0.8086  1.0199  2.7664
  536SOL    HW2 1608   1.185   2.662   0.853  1.7786 -3.1941 -0.4532
  537SOL     OW 1609   0.911   0.212   2.365 -0.0111 -0.0882  0.2043
  537SOL    HW1 1610   0.942   0.225   2.269 -0.0020 -0.4659  2.6613
  537SOL    HW2 1611   0.845   0.135   2.384 -0.1839  1.3237 -1.4230
  538SOL     OW 1612   1.675   2.364   1.523 -0.2423 -0.0435  0.0014
  538SOL    HW1 1613   1.652   2.268   1.485  0.5149 -1.1052 -2.7151
  538SOL    HW2 1614   1.774   2.386   1.497 -0.9628 -0.5094 -1.9236
  539SOL     OW 1615   0.182   1.618   2.708  0.3188 -0.3705 -0.1514
  539SOL    HW1 1616   0.100   1.619   2.652 -0.2381 -0.7891 -2.6558
  539SOL    HW2 1617   0.200   1.712   2.740  0.4459 -1.1379  0.0011
  540SOL     OW 1618   2.711   1.699   2.007  0.3505 -0.3131 -0.1990
  540SOL    HW1 1619   2.640   1.628   1.965 -3.4892  0.4718 -2.4731
  540SOL    HW2 1620   2.665   1.798   2.009 -0.2211  3.8256  0.3036
  541SOL     OW 1621   0.444   2.312   3.082 -0.2771  0.4865  0.2453
  541SOL    HW1 1622   0.501   2.230   3.112 -0.9457  2.5147 -2.3094
  541SOL    HW2 1623   0.353   2.281   3.054  0.2289  1.6552  0.4192
  542SOL     OW 1624   2.220   2.589   0.483  0.6257 -0.4359 -0.0683
  542SOL    HW1 1625   2.202   2.686   0.444 -1.2218  1.2775  0.0811
  542SOL    HW2 1626   2.141   2.527   0.477  0.8568  1.0685 -0.8274
  543SOL     OW 1627   0.987   1.799   1.711  0.0080 -0.0188 -0.1410
  543SOL    HW1 1628   1.006   1.835   1.810  0.5436 -0.0984  0.4372
  543SOL    HW2 1629   0.919   1.857   1.661  1.1743  0.0058  1.3910
  544SOL     OW 1630   0.905   0.416   0.225  0.3014 -0.2313  0.4675
  544SOL    HW1 1631   0.941   0.353   0.298  3.8570  2.8760  2.4425
  544SOL    HW2 1632   0.963   0.411   0.140  0.9687  3.3963  0.3428
  545SOL     OW 1633   1.157   1.708   0.604 -0.6477  0.5249  0.0028
  545SOL    HW1 1634   1.241   1.724   0.664 -0.6008 -0.2297 -1.4313
  545SOL    HW2 1635   1.166   1.751   0.512 -1.9986  0.6470  1.1379
  546SOL     OW 1636   2.664   1.543   0.026 -0.5403  0.1099  0.2774
  546SOL    HW1 1637   2.663   1.520  -0.076 -2.1803 -1.7676 -3.9025
  546SOL    HW2 1638   2.575   1.526   0.079  1.0196 -3.5250  0.1700
  547SOL     OW 1639   0.537   0.035   2.787 -0.0728 -0.3921 -0.4928
  547SOL    HW1 1640   0.612  -0.013   2.734 -0.0004  0.7781 -2.1720
  547SOL    HW2 1641   0.487  -0.021   2.851  0.3186  1.6178  3.3810
  548SOL     OW 1642   2.096   0.841   3.033  0.2873 -0.7935 -0.0710
  548SOL    HW1 1643   2.002   0.804   3.061  1.5608 -2.0292 -0.9850
  548SOL    HW2 1644   2.106   0.936   3.066 -2.9405 -2.4567 -0.2354
  549SOL     OW 1645   0.615   0.428   0.165 -0.1523  0.5304  0.5783
  549SOL    HW1 1646   0.615   0.514   0.109 -1.6355 -0.1268 -0.4931
  549SOL    HW2 1647   0.703   0.435   0.224  0.5796  1.9136 -1.8161
  550SOL     OW 1648   2.565   2.875   2.880  0.1484  0.5714 -0.3584
  550SOL    HW1 1649   2.542   2.801   2.953  2.2225 -2.7066  0.6440
  550SOL    HW2 1650   2.587   2.838   2.785  1.7171 -1.3779 -3.8758
  551SOL     OW 1651   0.246   0.878   0.151  0.5279  1.1397  0.0742
  551SOL    HW1 1652   0.327   0.819   0.139 -2.5597  0.7325 -0.0456
  551SOL    HW2 1653   0.241   0.915   0.248  1.6614  0.4143  0.6279
  552SOL     OW 1654   0.783   2.807   1.905 -0.2647  0.7100  0.1938
  552SOL    HW1 1655   0.761   2.810   2.007 -1.8573 -0.8742 -1.8540
  552SOL    HW2 1656   0.821   2.890   1.868 -1.0968 -3.2057  1.2696
  553SOL     OW 1657   3.062   2.550   0.366 -0.0158 -0.4343 -0.1757
  553SOL    HW1 1658   3.018   2.458   0.350  0.3359  1.1514 -0.1709
  553SOL    HW2 1659   3.008   2.590   0.445  0.2721  1.5074 -2.0985
  554SOL     OW 1660   2.197   0.291   0.560  0.7529  0.2277 -0.3474
  554SOL    HW1 1661   2.231   0.263   0.469 -1.3397  1.5867  1.3617
  554SOL    HW2 1662   2.201   0.217   0.633 -1.2140 -1.8683  0.8617
  555SOL     OW 1663   0.409   2.918   2.429 -0.0047 -0.0400 -0.1256
  555SOL    HW1 1664   0.315   2.964   2.414 -1.6578 -1.5682  1.1637
  555SOL    HW2 1665   0.459   2.901   2.338  1.8019  0.0906 -0.1936
  556SOL     OW 1666   0.894   2.314   1.677  0.1980  0.9528  0.4178
  556SOL    HW1 1667   0.933   2.407   1.702 -1.2540  0.0433  1.8101
  556SOL    HW2 1668   0.931   2.279   1.584  1.2333  3.0453 -0.5497
  557SOL     OW 1669   0.143   2.107   0.124 -0.3631 -0.1637 -0.5455
  557SOL    HW1 1670   0.076   2.028   0.116 -3.1624  2.6995 -0.4122
  557SOL    HW2 1671   0.146   2.152   0.032 -0.8599  0.0165  2.0307
  558SOL     OW 1672   2.972   2.279   0.326  0.1086 -0.1880 -0.4357
  558SOL    HW1 1673   2.869   2.282   0.344 -0.1948 -0.9808  3.0566
  558SOL    HW2 1674   2.999   2.281   0.227 -0.9426 -1.9799  0.2800
  559SOL     OW 1675   0.431   2.231   1.344 -0.1603  0.7267  0.2448
  559SOL    HW1 1676   0.336   2.235   1.295  0.2415  0.4165 -1.1066
  559SOL    HW2 1677   0.490   2.154   1.308  1.2624  3.3960  0.7072
  560SOL     OW 1678   2.090   1.124   3.099  0.3678  0.3527 -0.1164
  560SOL    HW1 1679   2.015   1.145   3.030 -2.4852 -0.1760  2.8158
  560SOL    HW2 1680   2.104   1.196   3.172  0.8583  1.0069 -2.6966
  561SOL     OW 1681   3.052   1.948   0.008 -0.6959 -0.0147  0.2510
  561SOL    HW1 1682   2.959   1.908   0.029  2.4546  1.1918 -0.5735
  561SOL    HW2 1683   3.035   2.043  -0.038  1.0935 -1.4069 -1.7255
  562SOL     OW 1684   0.892   2.160   2.361  0.1089 -0.1816 -0.2822
  562SOL    HW1 1685   0.786   2.156   2.343 -1.4746  0.2787 -3.0442
  562SOL    HW2 1686   0.918   2.181   2.455  1.3416 -1.9997 -0.1448
  563SOL     OW 1687   0.678   2.488   2.597  0.0700 -1.3183  0.3312
  563SOL    HW1 1688   0.708   2.390   2.612  0.9300  2.5446 -1.3829
  563SOL    HW2 1689   0.667   2.544   2.685  2.3489 -0.5888  0.3593
  564SOL     OW 1690   2.714   1.304   2.847  0.4562 -0.1086 -0.0738
  564SOL    HW1 1691   2.637   1.280   2.912 -0.2902  2.0125 -0.8847
  564SOL    HW2 1692   2.725   1.408   2.831  0.0979 -0.3849  2.0090
  565SOL     OW 1693   2.525   1.968   2.567 -0.1052  0.4453 -0.2050
  565SOL    HW1 1694   2.464   2.031   2.514 -1.0561 -0.3856  2.3844
  565SOL    HW2 1695   2.566   2.007   2.655 -0.0248 -0.1066  0.6053
  566SOL     OW 1696   1.958   2.864   1.330 -0.1816 -0.1586 -0.1235
  566SOL    HW1 1697   1.925   2.771   1.289  3.3375 -2.0747 -1.0621
  566SOL    HW2 1698   2.009   2.921   1.259 -0.5061  2.7302 -0.1522
  567SOL     OW 1699   2.423   0.119   2.203 -0.4971 -0.3389 -0.3230
  567SOL    HW1 1700   2.469   0.138   2.112  0.5920  0.9195 -0.2536
  567SOL    HW2 1701   2.331   0.154   2.212 -0.6986 -1.8607 -1.5997
  568SOL     OW 1702   1.501   1.828   0.354  0.3075 -0.1351 -0.6819
  568SOL    HW1 1703   1.439   1.874   0.290  1.0577  2.7069 -1.2543
  568SOL    HW2 1704   1.598   1.848   0.330 -0.5197 -1.8148  1.3270
  569SOL     OW 1705   0.275   0.623   0.791 -0.3272 -0.5934 -0.1749
  569SOL    HW1 1706   0.339   0.544   0.768 -1.1036  1.7966  2.1183
  569SOL    HW2 1707   0.175   0.600   0.795  2.7120  3.8637  1.7367
  570SOL     OW 1708   0.631   0.774   2.838  0.0818  0.7009  0.2124
  570SOL    HW1 1709   0.703   0.780   2.764  0.0574 -2.7344 -0.5133
  570SOL    HW2 1710   0.621   0.860   2.895  1.1115 -1.3114 -1.7507
  571SOL     OW 1711   0.838   3.063   1.115  0.5604  0.2753  0.4734
  571SOL    HW1 1712   0.872   3.098   1.020 -1.0741 -0.2012 -1.5452
  571SOL    HW2 1713   0.909   3.001   1.159  0.0152  0.6721  2.4858
  572SOL     OW 1714   1.554   2.624   1.166  0.1842  0.4703  0.4265
  572SOL    HW1 1715   1.509   2.559   1.236  0.0198  0.3358 -0.4503
  572SOL    HW2 1716   1.488   2.704   1.144 -0.2090 -1.4415 -1.2779
  573SOL     OW 1717   2.946   0.426   2.077  0.2196  0.4494  0.0944
  573SOL    HW1 1718   2.891   0.335   2.081  0.4070  2.1507 -1.7448
  573SOL    HW2 1719   2.891   0.507   2.036 -0.9638  0.7591 -3.4488
  574SOL     OW 1720   0.218   1.783   1.003 -0.5243  0.3437  0.1184
  574SOL    HW1 1721   0.190   1.882   0.982  2.2430 -0.1540  0.7031
  574SOL    HW2 1722   0.160   1.741   1.075  1.4312 -0.6823 -0.6135
  575SOL     OW 1723   0.845   2.158   0.978 -0.8636  0.3276 -0.1230
  575SOL    HW1 1724   0.854   2.170   1.081 -0.2356 -0.5131  0.3988
  575SOL    HW2 1725   0.890   2.233   0.922  0.1281  0.4109 -1.7191
  576SOL     OW 1726   2.920   2.901   1.719  0.5079 -0.0655 -0.1437
  576SOL    HW1 1727   2.885   2.845   1.643 -0.2140  1.1240  0.2711
  576SOL    HW2 1728   2.947   2.994   1.692  0.3423 -1.9290  0.6847
  577SOL     OW 1729   2.556   1.252   3.083 -0.0614 -0.6144 -0.1161
  577SOL    HW1 1730   2.565   1.162   3.039 -0.0460  1.5671  1.4967
  577SOL    HW2 1731   2.622   1.259   3.162 -0.7069  0.2328 -0.5584
  578SOL     OW 1732   1.313   2.693   2.562  0.4796 -0.1260  0.9693
  578SOL    HW1 1733   1.246   2.683   2.484  1.4283 -0.0828 -1.7536
  578SOL    HW2 1734   1.314   2.795   2.599  2.3521  3.0464  2.9665
  579SOL     OW 1735   0.121   2.487   0.160 -0.0638  0.3035 -0.8373
  579SOL    HW1 1736   0.070   2.532   0.238 -0.3967 -1.3790  0.7133
  579SOL    HW2 1737   0.192   2.421   0.197  0.4040  0.3495 -2.2891
  580SOL     OW 1738   1.017   2.666   0.388 -0.0346 -0.2932  0.1781
  580SOL    HW1 1739   1.112   2.681   0.349  1.5729 -0.9119  1.5535
  580SOL    HW2 1740   0.962   2.606   0.326 -0.9456  0.2501 -2.4869
  581SOL     OW 1741   1.229   2.637   1.503  0.4541 -0.0835  0.9249
  581SOL    HW1 1742   1.302   2.572   1.465  1.2920 -0.0222  2.1916
  581SOL    HW2 1743   1.251   2.731   1.460 -2.0703 -0.5600 -1.3315
  582SOL     OW 1744   1.503   0.075   1.851  0.0754  0.3930  0.0833
  582SOL    HW1 1745   1.517   0.165   1.901  1.0196 -0.8309  1.8121
  582SOL    HW2 1746   1.585   0.052   1.786  0.3992 -0.9638 -3.3146
  583SOL     OW 1747   2.469   2.982   0.553  0.4689 -0.4447 -0.4064
  583SOL    HW1 1748   2.508   2.909   0.487  0.6144  1.6988 -3.0117
  583SOL    HW2 1749   2.424   2.947   0.641 -1.2226  0.2584  2.7408
  584SOL     OW 1750   1.599   1.012   2.133  0.3608  0.5176 -0.4973
  584SOL    HW1 1751   1.647   1.062   2.057  0.5567 -0.8048 -0.4031
  584SOL    HW2 1752   1.656   0.995   2.216  2.0363 -2.3924 -1.7698
  585SOL     OW 1753   2.079   2.632   2.880  0.0378  0.0844 -0.3759
  585SOL    HW1 1754   2.097   2.536   2.839  2.1936 -5.8464 -1.2508
  585SOL    HW2 1755   1.979   2.660   2.889 -0.6923 -2.2135 -1.5865
  586SOL     OW 1756   2.743   0.258   1.552 -0.0478 -0.4488 -0.7624
  586SOL    HW1 1757   2.775   0.326   1.619 -0.3614 -2.1729 -1.7361
  586SOL    HW2 1758   2.640   0.229   1.550 -2.1898  1.8794 -0.1030
  587SOL     OW 1759   1.965   1.636   2.730 -0.1551 -0.4478  0.1898
  587SOL    HW1 1760   2.043   1.575   2.690  3.2373 -1.3183  0.0347
  587SOL    HW2 1761   1.990   1.672   2.819  1.3417  2.5000 -2.1084
  588SOL     OW 1762   0.496   2.708   2.221  0.3444  0.3627 -0.2236
  588SOL    HW1 1763   0.396   2.698   2.190  0.4711 -2.3912 -1.5101
  588SOL    HW2 1764   0.504   2.654   2.307  2.1394 -0.6066 -2.4455
  589SOL     OW 1765   2.116   1.450   2.589 -0.2691  0.0839  0.3225
  589SOL    HW1 1766   2.045   1.406   2.525 -2.5084  1.8019 -2.8765
  589SOL    HW2 1767   2.195   1.383   2.604 -1.3472 -0.6817 -0.4660
  590SOL     OW 1768   2.359   1.694   1.996 -0.2242 -0.4982 -0.0411
  590SOL    HW1 1769   2.423   1.617   2.014 -0.2002 -0.4492  1.8358
  590SOL    HW2 1770   2.361   1.761   2.078 -0.2986  2.2028 -0.7334
  591SOL     OW 1771   1.388   2.438   0.296  0.1881 -0.5373 -0.5613
  591SOL    HW1 1772   1.481   2.420   0.251  1.2220 -1.6854  0.0184
  591SOL    HW2 1773   1.377   2.405   0.393 -1.6368  1.4645  1.7099
  592SOL     OW 1774   1.723   2.332   0.769  0.0466  0.3762 -0.1533
  592SOL    HW1 1775   1.703   2.353   0.665  0.7109  1.9816  1.1465
  592SOL    HW2 1776   1.822   2.332   0.786 -0.5006 -1.0452  0.3956
  593SOL     OW 1777   0.656   0.159   0.052 -0.0385  0.6951  0.2077
  593SOL    HW1 1778   0.728   0.158  -0.027  2.6522 -1.1499 -0.5831
  593SOL    HW2 1779   0.628   0.254   0.081 -0.9968  4.0758  0.6387
  594SOL     OW 1780   0.920   1.935   2.682 -0.0391 -0.3238  0.0711
  594SOL    HW1 1781   1.012   1.970   2.716  0.4929 -2.1251  0.1231
  594SOL    HW2 1782   0.845   1.978   2.737  1.0278 -0.4997  1.4335
  595SOL     OW 1783   1.527   0.035   1.060  0.1815  0.3466 -0.6780
  595SOL    HW1 1784   1.614  -0.015   1.052 -1.0065  2.2478 -1.8786
  595SOL    HW2 1785   1.460   0.016   0.984  2.0243 -0.3686  1.5008
  596SOL     OW 1786   3.104   1.420   2.240 -0.1483  0.1994 -0.0506
  596SOL    HW1 1787   3.000   1.448   2.254 -1.6845  0.7404 -1.4224
  596SOL    HW2 1788   3.129   1.362   2.319 -0.4457  2.5908 -1.7364
  597SOL     OW 1789   2.062   2.598   1.621 -0.0243  0.0746 -0.2386
  597SOL    HW1 1790   2.083   2.526   1.544 -1.0811 -2.8712 -2.8601
  597SOL    HW2 1791   2.148   2.609   1.685  1.5141 -3.0789 -1.2022
  598SOL     OW 1792   2.501   2.924   1.338 -0.3693  0.4935  0.9871
  598SOL    HW1 1793   2.599   2.945   1.374 -1.5271  0.6979  0.7341
  598SOL    HW2 1794   2.498   2.884   1.243  0.7499 -0.1015  2.9359
  599SOL     OW 1795   2.899   0.379   2.465 -0.0281 -0.1497 -0.0811
  599SOL    HW1 1796   2.990   0.419   2.439 -0.0737  1.9558 -1.7988
  599SOL    HW2 1797   2.820   0.411   2.403 -1.0164 -1.9012  0.5370
  600SOL     OW 1798   2.815   1.095   2.704 -0.6432  0.7309 -0.5321
  600SOL    HW1 1799   2.770   0.998   2.730  0.4413 -1.6870  0.4837
  600SOL    HW2 1800   2.765   1.178   2.748 -0.6581  2.8236 -0.2836
  601SOL     OW 1801   2.998   1.240   2.020  0.9087 -0.3198  0.2687
  601SOL    HW1 1802   2.933   1.284   1.952  1.4359  1.9722 -2.4135
  601SOL    HW2 1803   3.051   1.310   2.072 -0.3255 -1.5765 -1.1405
  602SOL     OW 1804   1.492   1.713   2.348 -0.2709 -0.4482  0.1981
  602SOL    HW1 1805   1.435   1.633   2.362  1.1434  3.3793 -0.5724
  602SOL    HW2 1806   1.591   1.686   2.356 -2.8047 -1.0319 -0.1115
  603SOL     OW 1807   0.642   1.245   2.705  0.0727 -0.0328 -0.0488
  603SOL    HW1 1808   0.559   1.230   2.643  0.2364  1.6726  0.1091
  603SOL    HW2 1809   0.711   1.165   2.703  3.0180 -1.0562  0.9002
  604SOL     OW 1810   2.411   0.966   0.146 -0.3176 -0.0624 -0.1929
  604SOL    HW1 1811   2.471   1.040   0.104  1.5516  2.0085  2.3604
  604SOL    HW2 1812   2.401   0.880   0.089  0.3165  3.8409 -1.2952
  605SOL     OW 1813   2.688   1.159   1.955 -0.4456  0.0008 -0.1395
  605SOL    HW1 1814   2.660   1.082   1.896 -0.1911  0.3640 -2.0190
  605SOL    HW2 1815   2.642   1.166   2.042  0.2459 -0.6704 -1.7831
  606SOL     OW 1816   1.525   2.531   2.626 -0.4302 -0.2052  0.0157
  606SOL    HW1 1817   1.458   2.610   2.604  2.5615  0.5985  1.6747
  606SOL    HW2 1818   1.482   2.443   2.589 -3.2989  0.3205 -2.2539
  607SOL     OW 1819   1.376   1.584   0.397  0.2122 -0.4793 -0.6848
  607SOL    HW1 1820   1.330   1.600   0.485  1.2111  2.3073 -0.2086
  607SOL    HW2 1821   1.429   1.666   0.358  3.4587 -1.9708 -0.5438
  608SOL     OW 1822   1.434   2.843   0.442  0.6300 -0.7969 -0.5413
  608SOL    HW1 1823   1.513   2.903   0.404  1.6816  0.3872 -1.6581
  608SOL    HW2 1824   1.363   2.901   0.493 -0.5388 -0.5343 -0.4394
  609SOL     OW 1825   1.289   1.364   0.281  0.2953  0.2035  0.0991
  609SOL    HW1 1826   1.327   1.454   0.311 -0.1747 -3.0204 -1.6259
  609SOL    HW2 1827   1.192   1.347   0.319 -1.3740  0.3778 -0.2355
  610SOL     OW 1828   2.965   1.118   2.253 -0.0782  0.1183 -0.2038
  610SOL    HW1 1829   2.979   1.017   2.261 -0.5030 -0.1768 -0.2455
  610SOL    HW2 1830   2.977   1.155   2.156  4.2903 -0.0038  0.4750
  611SOL     OW 1831   2.517   0.293   1.146  0.0031  0.1938  0.2328
  611SOL    HW1 1832   2.471   0.211   1.190  1.1764  0.6605 -0.1796
  611SOL    HW2 1833   2.617   0.300   1.178  0.1908 -0.3540 -0.2743
  612SOL     OW 1834   0.806   2.234   1.258  0.4750  0.0446 -0.1055
  612SOL    HW1 1835   0.740   2.154   1.279  1.1427 -0.7218  1.1871
  612SOL    HW2 1836   0.760   2.306   1.199  1.1837  1.3418 -1.1986
  613SOL     OW 1837   0.876   1.467   2.397 -0.4027 -0.4513 -0.0178
  613SOL    HW1 1838   0.931   1.485   2.311 -1.7307  1.2585 -0.4266
  613SOL    HW2 1839   0.777   1.453   2.375  0.9530  0.7336  0.0273
  614SOL     OW 1840   1.662   1.610   1.869 -0.1489 -0.2087  0.5447
  614SOL    HW1 1841   1.674   1.713   1.867 -0.3394  0.2827  0.6575
  614SOL    HW2 1842   1.722   1.561   1.936 -0.0667 -0.4590 -1.0321
  615SOL     OW 1843   0.841   1.269   1.684 -0.6657 -0.3312 -0.2224
  615SOL    HW1 1844   0.747   1.272   1.633 -3.7456  0.3677  1.0151
  615SOL    HW2 1845   0.886   1.370   1.694  1.7623  0.0760  1.6593
  616SOL     OW 1846   1.101   1.602   2.224 -0.6934  0.2934  0.5212
  616SOL    HW1 1847   1.005   1.582   2.181 -0.8932 -0.6055  0.6743
  616SOL    HW2 1848   1.115   1.702   2.262  1.3397  1.6859  1.4016
  617SOL     OW 1849   2.921   1.529   1.604 -0.4989  0.0084 -0.3734
  617SOL    HW1 1850   2.903   1.451   1.675  3.1419  0.7352  1.3857
  617SOL    HW2 1851   2.987   1.504   1.531 -0.8756  0.3785  2.4927
  618SOL     OW 1852   1.894   2.090   1.356  0.0280  0.0978 -0.1426
  618SOL    HW1 1853   1.895   2.162   1.282 -1.0642 -0.3481 -0.7613
  618SOL    HW2 1854   1.898   1.986   1.329  0.0896 -3.0799 -0.6572
  619SOL     OW 1855   1.755   0.489   2.385 -0.2011  0.7308 -0.0073
  619SOL    HW1 1856   1.703   0.544   2.316 -1.4284  3.0938  3.6478
  619SOL    HW2 1857   1.742   0.386   2.380 -2.3656  0.2509  0.8305
  620SOL     OW 1858   2.307   2.904   0.773  0.4542  0.4904  0.0378
  620SOL    HW1 1859   2.205   2.933   0.779 -2.1478  0.5664 -1.0008
  620SOL    HW2 1860   2.328   2.821   0.831 -1.3911  0.4847 -0.5237
  621SOL     OW 1861   2.148   1.806   1.346  0.5645  0.5331 -0.4539
  621SOL    HW1 1862   2.131   1.849   1.439  1.0406 -1.5414 -1.3593
  621SOL    HW2 1863   2.078   1.734   1.319 -0.0434 -1.4684 -1.5783
  622SOL     OW 1864   2.271   0.922   1.837 -0.3800 -0.6184 -0.1179
  622SOL    HW1 1865   2.367   0.908   1.800  1.3476  1.2934 -1.8335
  622SOL    HW2 1866   2.233   0.839   1.886 -0.0812  2.6904 -0.5038
  623SOL     OW 1867   1.346   0.801   2.406 -0.0738  0.1111 -0.2388
  623SOL    HW1 1868   1.268   0.752   2.452 -3.4760 -0.0337 -0.3416
  623SOL    HW2 1869   1.321   0.879   2.347 -0.2996  1.3535 -0.4535
  624SOL     OW 1870   0.552   0.666   3.084  0.7855  0.6595  0.2543
  624SOL    HW1 1871   0.589   0.704   2.998  0.0753 -0.4313  0.4410
  624SOL    HW2 1872   0.579   0.725   3.164 -0.0405  1.1636  1.3348
  625SOL     OW 1873   2.783   1.736   1.000 -0.0641  0.3222 -0.1849
  625SOL    HW1 1874   2.691   1.779   1.007  1.6085  1.0344  0.1842
  625SOL    HW2 1875   2.857   1.800   1.035  0.7217  0.2874  0.0427
  626SOL     OW 1876   0.617   2.674   1.705  0.1187  0.4702  0.1686
  626SOL    HW1 1877   0.652   2.729   1.786  0.5854  2.3276  0.0045
  626SOL    HW2 1878   0.512   2.659   1.700 -1.9214 -0.9891 -0.0463
  627SOL     OW 1879   0.671   0.908   1.577  0.3302  0.6490 -0.1393
  627SOL    HW1 1880   0.588   0.886   1.522  3.6717 -1.5681  4.2663
  627SOL    HW2 1881   0.750   0.943   1.518 -0.4095  3.0552  0.1998
  628SOL     OW 1882   2.480   0.181   0.682  0.7425 -0.5319 -0.5696
  628SOL    HW1 1883   2.483   0.123   0.598 -0.9923  2.6928 -2.9481
  628SOL    HW2 1884   2.385   0.180   0.732  1.8624  0.8931  0.8201
  629SOL     OW 1885   1.903   0.919   2.025  0.0557  0.1372  1.0123
  629SOL    HW1 1886   1.923   0.987   1.949 -0.9160  2.5137  1.0338
  629SOL    HW2 1887   1.872   0.972   2.108  1.6262  0.1674  0.4340
  630SOL     OW 1888   2.943   2.332   0.792  0.1802  0.1435  0.3952
  630SOL    HW1 1889   2.873   2.407   0.783  0.8050  1.0242 -0.3667
  630SOL    HW2 1890   2.914   2.237   0.764  1.3496 -1.1808 -0.0375
  631SOL     OW 1891   3.084   0.165   2.187  0.2646  0.1152  0.5197
  631SOL    HW1 1892   3.049   0.201   2.273 -0.5551 -1.7877 -1.3273
  631SOL    HW2 1893   3.086   0.235   2.110  0.1955  0.0408 -1.7626
  632SOL     OW 1894   2.464   2.596   0.624  0.2488  0.7191  0.5808
  632SOL    HW1 1895   2.498   2.683   0.667 -1.8537 -2.3025 -0.9498
  632SOL    HW2 1896   2.379   2.610   0.569  0.5802 -0.8045  0.7758
  633SOL     OW 1897   1.476   1.198   2.674 -0.2090 -0.2528  0.1729
  633SOL    HW1 1898   1.467   1.285   2.736 -0.5075  2.0748  0.9902
  633SOL    HW2 1899   1.407   1.188   2.595 -2.5239 -3.4589 -2.2177
  634SOL     OW 1900   0.628   2.007   0.906 -0.2432 -0.4861 -0.1986
  634SOL    HW1 1901   0.547   2.035   0.963  1.3938  0.4686 -0.4658
  634SOL    HW2 1902   0.713   2.060   0.936 -1.5360 -0.5910  2.9977
  635SOL     OW 1903   2.995   2.361   0.062 -0.1722 -0.7305  0.2168
  635SOL    HW1 1904   2.931   2.423   0.003 -0.9471  2.3798  1.4260
  635SOL    HW2 1905   3.080   2.413   0.095 -0.3116  2.0829  0.7494
  636SOL     OW 1906   2.360   2.766   1.983 -0.1085 -0.0338 -0.8018
  636SOL    HW1 1907   2.350   2.872   1.991  1.1530 -0.6026 -2.3733
  636SOL    HW2 1908   2.290   2.713   2.036  1.0017 -0.5101  0.0683
  637SOL     OW 1909   2.770   0.629   1.977 -0.3554 -0.0811 -0.1869
  637SOL    HW1 1910   2.704   0.635   1.897  2.0365  1.5987  0.9744
  637SOL    HW2 1911   2.811   0.729   1.999  1.0396  2.4607 -0.9686
  638SOL     OW 1912   2.407   1.840   1.319 -0.8320 -0.1755  0.3925
  638SOL    HW1 1913   2.305   1.842   1.330 -0.1706 -3.6456 -0.6463
  638SOL    HW2 1914   2.457   1.773   1.384 -0.0169 -1.5351 -1.0043
  639SOL     OW 1915   1.305   2.200   1.711 -0.2675 -0.1293  0.2266
  639SOL    HW1 1916   1.301   2.297   1.681 -0.2762 -1.5117  2.9876
  639SOL    HW2 1917   1.218   2.162   1.743  1.0937  0.1681  0.7684
  640SOL     OW 1918   0.205   1.194   1.537  0.2419 -0.1904 -0.2649
  640SOL    HW1 1919   0.219   1.214   1.635  2.8871 -0.9182  1.4543
  640SOL    HW2 1920   0.270   1.122   1.508  0.2589 -0.5049  2.2362
  641SOL     OW 1921   1.998   0.271   1.436  0.8240  0.0994 -0.3280
  641SOL    HW1 1922   1.955   0.301   1.521  3.4731  1.1184 -0.7119
  641SOL    HW2 1923   2.075   0.203   1.454  2.0162 -1.7898  0.1812
  642SOL     OW 1924   2.023   0.084   0.369  0.1369 -0.1284 -0.5331
  642SOL    HW1 1925   2.118   0.115   0.394 -1.2459  1.2413 -1.0041
  642SOL    HW2 1926   1.962   0.090   0.454 -0.1562 -0.7233 -1.4961
  643SOL     OW 1927   2.918   1.813   2.162 -0.1254 -0.5745  0.2550
  643SOL    HW1 1928   2.851   1.760   2.101  0.8658  1.2241 -2.4087
  643SOL    HW2 1929   2.918   1.913   2.134  0.7258 -1.0670  0.5106
  644SOL     OW 1930   2.300   2.410   1.216  0.1364 -0.4967 -0.1425
  644SOL    HW1 1931   2.351   2.323   1.185 -2.3267  0.6209  0.6850
  644SOL    HW2 1932   2.251   2.400   1.305  0.6623  0.3562 -2.6819
  645SOL     OW 1933   0.581   0.833   1.283 -0.5001  0.1509  0.3483
  645SOL    HW1 1934   0.486   0.814   1.308  1.9175 -0.7245  1.2759
  645SOL    HW2 1935   0.608   0.826   1.186  1.8405  1.4843  1.1270
  646SOL     OW 1936   1.479   1.823   2.041 -0.4949  0.0916 -0.2849
  646SOL    HW1 1937   1.542   1.853   1.962  1.9231  1.3251  0.1309
  646SOL    HW2 1938   1.520   1.827   2.136 -3.0116  2.3797  0.5024
  647SOL     OW 1939   0.855   1.099   0.637 -0.7589  0.1629  0.2875
  647SOL    HW1 1940   0.913   1.131   0.720  0.9428  1.5056  0.6506
  647SOL    HW2 1941   0.799   1.012   0.650 -0.1047 -1.4285  1.9919
  648SOL     OW 1942   0.143   0.263   0.270 -0.1103 -0.2613 -0.5370
  648SOL    HW1 1943   0.146   0.185   0.200 -1.1997 -1.3738 -2.4943
  648SOL    HW2 1944   0.127   0.353   0.222 -1.3084 -2.1242 -0.6367
  649SOL     OW 1945   3.026   0.196   0.822 -0.1780  0.2624  0.6336
  649SOL    HW1 1946   3.096   0.120   0.842 -0.1821  0.0191  1.7093
  649SOL    HW2 1947   3.074   0.280   0.781  0.7336  1.4154 -0.4425
  650SOL     OW 1948   2.710   0.656   1.546  0.0050  0.3456 -0.5378
  650SOL    HW1 1949   2.605   0.653   1.553  0.1499  0.4688 -0.9886
  650SOL    HW2 1950   2.753   0.729   1.487  1.8473 -1.7620  0.7962
  651SOL     OW 1951   0.895   1.544   1.656  0.3487 -0.5279 -0.2486
  651SOL    HW1 1952   0.929   1.631   1.703 -1.3890  0.0022 -0.7722
  651SOL    HW2 1953   0.938   1.538   1.561  1.7652  2.8312 -1.9005
  652SOL     OW 1954   2.385   2.427   2.460 -0.0825 -0.4918 -0.3539
  652SOL    HW1 1955   2.295   2.475   2.479 -0.9081  1.6799 -3.7475
  652SOL    HW2 1956   2.436   2.475   2.386  2.3656 -1.6001  0.0339
  653SOL     OW 1957   2.715   1.260   0.198 -0.4221  0.7838  1.1293
  653SOL    HW1 1958   2.740   1.358   0.225  2.0195 -0.2939  1.3170
  653SOL    HW2 1959   2.790   1.195   0.232 -1.2927  0.3093 -1.3930
  654SOL     OW 1960   1.274   2.217   1.297 -0.1124  0.1915  0.0503
  654SOL    HW1 1961   1.285   2.126   1.335 -1.4501  0.6281 -2.9241
  654SOL    HW2 1962   1.285   2.215   1.195 -0.7079 -0.8313  0.2060
  655SOL     OW 1963   0.170   0.928   1.884 -0.4723 -0.1719 -0.1472
  655SOL    HW1 1964   0.220   0.886   1.805 -2.3623  0.6191  0.4838
  655SOL    HW2 1965   0.201   1.027   1.900  2.2656  0.1738 -2.2018
  656SOL     OW 1966   2.563   2.525   2.652 -0.3782 -0.1755 -0.3359
  656SOL    HW1 1967   2.664   2.503   2.622  0.7107 -0.8886 -0.3081
  656SOL    HW2 1968   2.495   2.468   2.600 -1.2865 -3.1538  0.1301
  657SOL     OW 1969   3.011   1.013   1.819  0.5051 -0.4139  0.9399
  657SOL    HW1 1970   2.990   1.099   1.867 -2.2902  1.4883 -1.7777
  657SOL    HW2 1971   3.108   0.972   1.836  1.2932  0.5147 -1.7133
  658SOL     OW 1972   1.708   0.205   2.332  0.0915 -0.2504  1.3002
  658SOL    HW1 1973   1.725   0.127   2.394 -3.6293 -0.2279 -3.1620
  658SOL    HW2 1974   1.712   0.179   2.229  0.6367  1.7889  0.5506
  659SOL     OW 1975   1.388   0.636   2.780  0.1470 -0.2133  0.4588
  659SOL    HW1 1976   1.390   0.675   2.683 -1.1006 -0.0710  1.4582
  659SOL    HW2 1977   1.292   0.650   2.823 -3.6151 -0.0775 -0.5915
  660SOL     OW 1978   1.407   0.336   1.453 -0.1961 -0.2403  0.9037
  660SOL    HW1 1979   1.398   0.370   1.553 -2.4459  1.2895 -0.6425
  660SOL    HW2 1980   1.493   0.283   1.438  0.1676 -1.2963 -3.6531
  661SOL     OW 1981   2.426   1.256   0.640 -0.3887  0.2680  1.1284
  661SOL    HW1 1982   2.465   1.261   0.541  0.3295 -0.9422  2.6609
  661SOL    HW2 1983   2.346   1.313   0.655 -0.9665 -4.0526 -4.0840
  662SOL     OW 1984   1.418   0.409   1.706 -0.0406 -0.2401 -0.0547
  662SOL    HW1 1985   1.340   0.389   1.774 -2.8476 -2.2585 -1.1548
  662SOL    HW2 1986   1.453   0.510   1.708 -1.6920 -0.8002  1.5225
  663SOL     OW 1987   0.858   1.517   2.120  0.1414 -0.4417 -0.0226
  663SOL    HW1 1988   0.835   1.617   2.122 -0.8136  2.5878  0.0925
  663SOL    HW2 1989   0.806   1.475   2.042 -0.7140  1.6862  2.0260
  664SOL     OW 1990   1.615   2.085   1.427  0.6846 -0.2498 -0.0288
  664SOL    HW1 1991   1.593   2.029   1.514 -0.6154 -0.9555 -1.6886
  664SOL    HW2 1992   1.714   2.098   1.413 -0.4130 -1.6347  1.5755
  665SOL     OW 1993   2.306   0.641   1.959  0.5505  0.0096  0.2948
  665SOL    HW1 1994   2.287   0.539   1.987 -0.0364 -0.8093 -0.7587
  665SOL    HW2 1995   2.362   0.689   2.030 -0.9671  0.6511 -0.4575
  666SOL     OW 1996   0.504   2.256   0.361  0.6152  0.3256  1.1389
  666SOL    HW1 1997   0.544   2.337   0.419 -0.5763  0.3868  1.3098
  666SOL    HW2 1998   0.401   2.242   0.368  0.6119 -2.0921  1.6015
  667SOL     OW 1999   1.937   0.237   1.054  0.8664  0.2811  0.1308
  667SOL    HW1 2000   1.975   0.334   1.063  1.2128  0.4487  3.1599
  667SOL    HW2 2001   1.862   0.221   1.130  1.6878 -0.0851  1.2136
  668SOL     OW 2002   2.000   0.515   1.126 -0.0213 -0.7204 -0.2272
  668SOL    HW1 2003   2.057   0.562   1.062 -0.4829 -1.1115  3.4546
  668SOL    HW2 2004   2.048   0.527   1.220  0.6250  0.4693 -1.7889
  669SOL     OW 2005   3.031   2.193   1.013  0.8653  0.2268 -0.8778
  669SOL    HW1 2006   3.024   2.238   0.919 -1.4769 -1.2508  2.8689
  669SOL    HW2 2007   3.010   2.255   1.096 -0.9598 -2.6924  0.9156
  670SOL     OW 2008   2.882   2.320   2.114 -0.1210  0.3646  0.3469
  670SOL    HW1 2009   2.791   2.323   2.165 -1.3458  0.7284  1.3949
  670SOL    HW2 2010   2.912   2.402   2.064 -0.5914  1.1933  3.2694
  671SOL     OW 2011   1.789   1.774   1.528 -0.0474  0.3563 -0.5558
  671SOL    HW1 2012   1.812   1.776   1.428  0.5097 -2.4063 -0.8156
  671SOL    HW2 2013   1.684   1.787   1.535 -0.8796  1.6466 -2.6949
  672SOL     OW 2014   0.470   0.658   2.523  0.1423 -0.5340 -0.5345
  672SOL    HW1 2015   0.464   0.663   2.422  0.2787 -0.5654  0.9992
  672SOL    HW2 2016   0.418   0.736   2.571 -1.5861  1.2804 -1.1775
  673SOL     OW 2017   0.099   1.251   1.124  0.5853 -0.2610  0.2945
  673SOL    HW1 2018   0.057   1.330   1.175  3.3517 -1.2421 -0.1725
  673SOL    HW2 2019   0.200   1.252   1.119  0.6232 -3.0485 -0.5246
  674SOL     OW 2020   1.627   2.990   0.314 -0.3634  0.1384  0.4010
  674SOL    HW1 2021   1.642   3.090   0.341 -2.4862  0.7017  1.5005
  674SOL    HW2 2022   1.612   2.980   0.214 -0.7407  0.7924 -2.8964
  675SOL     OW 2023   1.734   0.849   2.307 -0.0046  0.0069 -0.3609
  675SOL    HW1 2024   1.834   0.819   2.283 -0.0150  1.7367 -0.0011
  675SOL    HW2 2025   1.663   0.796   2.255 -0.7303 -1.9634  2.9299
  676SOL     OW 2026   2.557   1.482   1.918 -0.1098 -0.1571 -0.1826
  676SOL    HW1 2027   2.523   1.434   1.834  0.9082 -3.7027 -1.1056
  676SOL    HW2 2028   2.554   1.430   2.012  2.5794  3.1666  0.5100
  677SOL     OW 2029   1.932   0.688   0.894 -0.1498 -0.5517  0.2807
  677SOL    HW1 2030   1.871   0.691   0.978  1.8667 -1.5780  1.8605
  677SOL    HW2 2031   2.029   0.674   0.923 -0.9125 -0.4233  3.3410
  678SOL     OW 2032   0.084   0.743   1.630 -0.4526 -0.1466 -0.0212
  678SOL    HW1 2033   0.184   0.747   1.656  1.9678 -1.0576 -2.5738
  678SOL    HW2 2034   0.030   0.684   1.694  1.3014 -0.7046  0.0768
  679SOL     OW 2035   2.571   1.179   1.179  0.3206 -0.7310  0.3275
  679SOL    HW1 2036   2.476   1.226   1.170 -1.6358 -0.0708  1.5823
  679SOL    HW2 2037   2.570   1.080   1.161  0.4677 -0.2203 -3.3536
  680SOL     OW 2038   2.835   0.463   1.717  0.0759 -0.0923 -0.0578
  680SOL    HW1 2039   2.792   0.531   1.647 -1.9906 -2.3693  0.4182
  680SOL    HW2 2040   2.925   0.500   1.764  1.3886  2.0394  1.6953
  681SOL     OW 2041   2.962   0.059   1.584 -0.2845 -0.2138  0.1465
  681SOL    HW1 2042   3.032   0.030   1.506  0.3959 -1.0389 -2.5305
  681SOL    HW2 2043   2.880   0.116   1.550  0.3645  2.3554 -0.3729
  682SOL     OW 2044   0.691   0.040   1.331  0.6597 -0.5897 -0.1427
  682SOL    HW1 2045   0.606  -0.017   1.359  2.0587 -0.8998 -1.0217
  682SOL    HW2 2046   0.740   0.001   1.248  1.7730 -0.2829  1.1015
  683SOL     OW 2047   1.378   0.181   2.150 -0.0424 -0.4701 -0.2176
  683SOL    HW1 2048   1.381   0.234   2.239  0.7058  0.2753 -1.4785
  683SOL    HW2 2049   1.458   0.218   2.091  0.3608  0.6840  0.2570
  684SOL     OW 2050   1.458   2.096   0.551  0.0689 -0.1599 -0.2841
  684SOL    HW1 2051   1.500   2.028   0.615  0.0184  1.1666  1.6011
  684SOL    HW2 2052   1.375   2.047   0.502 -1.3908 -2.3788  2.0841
  685SOL     OW 2053   2.220   2.071   1.969 -0.1187 -0.3617 -0.7040
  685SOL    HW1 2054   2.265   2.084   1.877 -3.5516 -1.9597  1.9312
  685SOL    HW2 2055   2.272   2.024   2.043 -0.1755  1.7912  0.4115
  686SOL     OW 2056   1.453   1.817   2.831 -0.2590  0.2552 -0.2074
  686SOL    HW1 2057   1.508   1.750   2.888 -1.8845  0.2054 -0.8289
  686SOL    HW2 2058   1.350   1.803   2.849 -1.3999 -0.5314 -0.2929
  687SOL     OW 2059   1.303   2.433   1.971 -0.3395  0.8365  0.1662
  687SOL    HW1 2060   1.366   2.396   1.896  0.2219  0.5399 -2.4998
  687SOL    HW2 2061   1.350   2.470   2.054  0.4832  0.4602 -2.2785
  688SOL     OW 2062   2.022   1.519   1.780 -0.3248 -0.3597 -0.0429
  688SOL    HW1 2063   2.117   1.566   1.750  0.3463  0.6697 -0.2167
  688SOL    HW2 2064   1.990   1.454   1.705  0.9197  0.5472 -0.4644
  689SOL     OW 2065   2.390   1.090   2.758  0.1510  0.1428  0.5767
  689SOL    HW1 2066   2.303   1.032   2.765 -1.3057 -1.6737 -0.9588
  689SOL    HW2 2067   2.460   1.081   2.833  1.7059  2.0541  0.7233
  690SOL     OW 2068   2.243   2.802   0.028 -0.0903  0.2457 -0.6149
  690SOL    HW1 2069   2.165   2.786  -0.048 -1.9137 -1.6990 -3.4345
  690SOL    HW2 2070   2.215   2.781   0.126  1.8213 -0.0712  1.9788
  691SOL     OW 2071   2.577   0.399   2.090 -0.4446 -0.3435  0.6421
  691SOL    HW1 2072   2.632   0.310   2.083 -0.3522  0.1340 -0.3188
  691SOL    HW2 2073   2.605   0.467   2.016  0.5479  0.5502 -0.3735
  692SOL     OW 2074   2.673   1.205   0.815  0.3313  0.0494 -0.3530
  692SOL    HW1 2075   2.587   1.207   0.759  2.5971  1.0056 -1.3155
  692SOL    HW2 2076   2.712   1.297   0.842  0.3928 -0.3758 -1.0853
  693SOL     OW 2077   2.854   3.007   0.552  0.0952 -0.5877 -0.3346
  693SOL    HW1 2078   2.820   3.055   0.637 -1.1272  0.2091 -0.5556
  693SOL    HW2 2079   2.822   3.060   0.468  1.7164  2.0629 -1.2231
  694SOL     OW 2080   2.426   2.196   0.118 -0.2775 -0.1242 -0.7346
  694SOL    HW1 2081   2.394   2.279   0.172  2.0557  3.6829  0.5256
  694SOL    HW2 2082   2.345   2.137   0.094 -1.9059  1.3951  1.4160
  695SOL     OW 2083   0.479   2.969   1.428  0.3646  0.5488 -0.2758
  695SOL    HW1 2084   0.422   2.884   1.423  1.8637  1.0734  0.7570
  695SOL    HW2 2085   0.458   3.023   1.514  3.4292 -0.5273  0.8333
  696SOL     OW 2086   2.870   2.075   0.755  0.2456  0.1087  0.5356
  696SOL    HW1 2087   2.929   1.993   0.773  0.7136 -1.0624 -0.3072
  696SOL    HW2 2088   2.840   2.076   0.653 -0.2578  1.7199 -0.1311
  697SOL     OW 2089   1.656   1.910   1.819  0.3312 -0.2601  0.6772
  697SOL    HW1 2090   1.759   1.885   1.822  0.8064  3.8319  1.3428
  697SOL    HW2 2091   1.644   2.011   1.810  0.5020 -0.4989 -0.1444
  698SOL     OW 2092   2.874   0.427   2.731  0.0986 -0.3851 -0.0782
  698SOL    HW1 2093   2.873   0.395   2.634  2.6746  0.5679 -2.0653
  698SOL    HW2 2094   2.928   0.369   2.791  0.6003  0.6902 -1.1663
  699SOL     OW 2095   1.566   0.037   2.925  0.3775 -0.1459 -0.0593
  699SOL    HW1 2096   1.542  -0.058   2.891  0.8038 -2.1757  0.4300
  699SOL    HW2 2097   1.598   0.106   2.855  0.1317 -0.0220 -0.0659
  700SOL     OW 2098   1.013   2.285   1.436  0.7323  0.3190 -0.7557
  700SOL    HW1 2099   1.107   2.255   1.409  1.5377 -1.0607  1.5416
  700SOL    HW2 2100   0.940   2.245   1.378  1.7177  3.2543  2.0738
  701SOL     OW 2101   1.923   2.886   3.094 -0.1727 -0.3364 -0.3361
  701SOL    HW1 2102   1.927   2.827   3.177 -0.2549  0.7822  0.6974
  701SOL    HW2 2103   1.932   2.987   3.113  1.7988  0.0046  2.6545
  702SOL     OW 2104   2.068   1.308   1.955 -0.1668  0.1557 -0.4563
  702SOL    HW1 2105   2.162   1.261   1.948  0.1773  0.2393 -0.9604
  702SOL    HW2 2106   2.053   1.392   1.895  2.2193  1.6665  1.3841
  703SOL     OW 2107   1.954   0.892   1.477 -0.2224 -0.3709 -0.5552
  703SOL    HW1 2108   1.930   0.810   1.538 -1.0399 -1.3710  0.4409
  703SOL    HW2 2109   2.029   0.950   1.517 -0.1920 -0.5080  2.7640
  704SOL     OW 2110   0.295   2.037   1.679  0.1710 -0.1307  0.8694
  704SOL    HW1 2111   0.330   1.989   1.761 -1.8621  0.3117 -2.2130
  704SOL    HW2 2112   0.356   2.115   1.650  1.6046  0.3165 -0.8005
  705SOL     OW 2113   2.471   1.535   0.864  0.7173  0.6106  0.4182
  705SOL    HW1 2114   2.409   1.504   0.786 -1.8442 -0.9575 -0.4946
  705SOL    HW2 2115   2.555   1.477   0.874  0.7353  1.7180  1.1454
  706SOL     OW 2116   0.704   1.706   1.860  0.1754  0.5210  0.5120
  706SOL    HW1 2117   0.721   1.606   1.887  1.0185 -0.1127  1.5615
  706SOL    HW2 2118   0.775   1.766   1.890 -1.6751 -0.1273 -1.1589
  707SOL     OW 2119   2.310   1.200   1.967 -0.5445 -0.1098 -0.4744
  707SOL    HW1 2120   2.365   1.226   2.052  1.7089 -2.5975 -0.6971
  707SOL    HW2 2121   2.316   1.101   1.941 -0.0328  2.5286 -1.2661
  708SOL     OW 2122   2.971   0.520   3.022 -0.4546 -0.3643 -0.6019
  708SOL    HW1 2123   3.023   0.571   2.953 -1.7424  1.9463  0.2669
  708SOL    HW2 2124   2.992   0.422   3.004  0.2499  1.2026  1.9631
  709SOL     OW 2125   1.890   1.888   0.352 -0.2391 -0.2906 -0.4183
  709SOL    HW1 2126   1.920   1.982   0.385  0.9692 -0.6848  0.8628
  709SOL    HW2 2127   1.896   1.873   0.250 -1.6417  0.4913  1.0030
  710SOL     OW 2128   1.738   1.621   2.432 -0.7575  0.0791 -0.8414
  710SOL    HW1 2129   1.829   1.587   2.393  1.3681 -0.1212  1.6448
  710SOL    HW2 2130   1.715   1.591   2.529  1.4869 -1.4182 -2.7804
  711SOL     OW 2131   2.579   2.906   1.001 -0.1876 -0.1612  0.8679
  711SOL    HW1 2132   2.512   2.981   0.998  0.2077 -0.1258  1.2847
  711SOL    HW2 2133   2.675   2.942   1.020  0.3335 -1.2767 -1.2144
  712SOL     OW 2134   1.409   2.129   1.961 -0.2662 -0.3313  0.1102
  712SOL    HW1 2135   1.506   2.173   1.950  1.3907  1.6516  0.3973
  712SOL    HW2 2136   1.359   2.116   1.869 -1.8742  0.2991 -2.5644
  713SOL     OW 2137   2.778   1.489   2.533 -0.2204 -0.3890 -0.0746
  713SOL    HW1 2138   2.776   1.387   2.508  0.0815 -2.0615  2.3550
  713SOL    HW2 2139   2.697   1.527   2.586 -1.8683 -2.0445  1.2926
  714SOL     OW 2140   2.616   0.431   2.406  0.5891  0.3090  0.4942
  714SOL    HW1 2141   2.560   0.394   2.488  0.7711  2.2410  0.0782
  714SOL    HW2 2142   2.589   0.390   2.308 -0.8685 -2.8996 -1.6740
  715SOL     OW 2143   1.555   2.113   1.153 -0.4262 -0.2658 -0.0543
  715SOL    HW1 2144   1.477   2.169   1.122  0.5260 -0.7326  2.1175
  715SOL    HW2 2145   1.556   2.091   1.257 -0.2813 -2.1308  1.9123
  716SOL     OW 2146   1.208   0.168   1.473 -0.0967 -0.0225  0.4164
  716SOL    HW1 2147   1.120   0.197   1.433  3.3480 -0.4609  2.2181
  716SOL    HW2 2148   1.282   0.233   1.443 -4.5779 -3.6145  1.5620
  717SOL     OW 2149   1.141   0.527   1.592 -0.5350 -0.3674  0.4823
  717SOL    HW1 2150   1.227   0.570   1.622 -1.7793  2.7339 -0.3757
  717SOL    HW2 2151   1.150   0.509   1.488  2.3743  0.5706 -1.5273
  718SOL     OW 2152   0.673   0.886   0.969 -0.3923 -0.0057  0.2246
  718SOL    HW1 2153   0.668   0.863   0.867 -0.4793  2.4438  0.3992
  718SOL    HW2 2154   0.677   0.986   0.979 -1.3010  0.2302  0.3595
  719SOL     OW 2155   0.598   1.720   2.302  0.1721 -0.3637  0.4281
  719SOL    HW1 2156   0.654   1.776   2.375  3.4014  1.9996  1.3049
  719SOL    HW2 2157   0.617   1.620   2.304 -3.9767  1.0230 -2.0154
  720SOL     OW 2158   2.216   1.128   0.281  0.2260 -0.1447 -0.1239
  720SOL    HW1 2159   2.257   1.079   0.200 -1.4930  1.5498  2.4315
  720SOL    HW2 2160   2.218   1.069   0.367 -3.0879 -1.9262 -2.0128
  721SOL     OW 2161   2.240   3.021   2.051 -0.4458  0.9523  0.3988
  721SOL    HW1 2162   2.165   3.010   1.980 -0.3237 -2.5260 -1.1476
  721SOL    HW2 2163   2.207   3.044   2.148  3.8478  0.9229 -0.1155
  722SOL     OW 2164   2.324   1.643   0.471 -0.6362  0.0077 -0.4048
  722SOL    HW1 2165   2.378   1.602   0.390  2.3295 -2.9796 -0.9657
  722SOL    HW2 2166   2.228   1.674   0.439 -2.2256  0.5924 -2.2712
  723SOL     OW 2167   2.672   2.710   1.913  0.3928 -0.2166 -0.1990
  723SOL    HW1 2168   2.696   2.812   1.936  0.3605  1.8980  0.8132
  723SOL    HW2 2169   2.568   2.695   1.920 -1.1371  0.6630  1.4372
  724SOL     OW 2170   0.487   2.494   2.381  0.1120 -0.2825 -0.5725
  724SOL    HW1 2171   0.397   2.479   2.437 -0.9628 -0.3670 -0.8849
  724SOL    HW2 2172   0.569   2.484   2.448  0.8708  3.7518  3.4044
  725SOL     OW 2173   2.359   2.720   1.559 -0.0905 -0.3669 -0.5698
  725SOL    HW1 2174   2.434   2.789   1.524 -0.8953  3.3243 -1.0881
  725SOL    HW2 2175   2.390   2.622   1.584 -1.3542 -1.2252  0.8448
  726SOL     OW 2176   2.454   2.314   0.711  0.2762 -0.0151  0.2735
  726SOL    HW1 2177   2.430   2.392   0.649  0.6500 -0.9440  2.9605
  726SOL    HW2 2178   2.468   2.226   0.658  0.1824 -4.2626 -1.9647
  727SOL     OW 2179   0.139   3.079   0.122  1.1955  0.2057 -0.4786
  727SOL    HW1 2180   0.196   3.146   0.066  0.7067 -0.8084  0.2370
  727SOL    HW2 2181   0.058   3.044   0.064 -1.5938  0.7711 -1.6417
  728SOL     OW 2182   2.893   0.689   0.885  0.2344 -0.4456 -0.8419
  728SOL    HW1 2183   2.837   0.680   0.798 -0.5674  1.8388 -0.8318
  728SOL    HW2 2184   2.831   0.686   0.967 -1.8351 -0.9695 -0.4058
  729SOL     OW 2185   0.036   2.534   0.741 -0.5897 -0.0793  0.0479
  729SOL    HW1 2186   0.056   2.464   0.809  2.2626  0.8701 -0.3670
  729SOL    HW2 2187   0.105   2.541   0.662  2.7804 -0.0757 -0.0374
  730SOL     OW 2188   2.526   0.663   0.818  0.1651 -0.5078 -0.7559
  730SOL    HW1 2189   2.559   0.757   0.844  0.8979  0.9471 -0.9708
  730SOL    HW2 2190   2.591   0.604   0.769  0.2860  0.2644  1.6677
  731SOL     OW 2191   0.004   2.177   2.423  0.4413 -0.4546  0.0960
  731SOL    HW1 2192   0.050   2.231   2.497 -0.3532  2.1896 -1.4913
  731SOL    HW2 2193  -0.089   2.214   2.403  1.5180 -0.6530  0.7482
  732SOL     OW 2194   1.190   2.801   1.998  0.3364  0.2391 -0.7337
  732SOL    HW1 2195   1.211   2.755   2.089  2.5176  0.0213  0.2679
  732SOL    HW2 2196   1.180   2.734   1.917  2.4113 -0.9598 -1.2469
  733SOL     OW 2197   3.074   0.612   2.244 -0.1981  0.2997 -0.6950
  733SOL    HW1 2198   3.145   0.668   2.187 -0.4335  0.1449 -0.1129
  733SOL    HW2 2199   3.023   0.539   2.190  0.4410  0.2086 -1.6361
  734SOL     OW 2200   1.454   0.364   2.680 -0.4169 -0.4037  0.0933
  734SOL    HW1 2201   1.457   0.454   2.729 -3.7394 -0.0318 -3.4356
  734SOL    HW2 2202   1.380   0.303   2.714  2.8394  0.6119  1.9264
  735SOL     OW 2203   2.896   2.618   2.270  0.2498  0.0989 -0.1293
  735SOL    HW1 2204   2.889   2.590   2.172 -0.6735  1.7372  0.5695
  735SOL    HW2 2205   2.988   2.657   2.288  3.2241 -0.6028  2.3354
  736SOL     OW 2206   0.919   0.443   2.509 -0.0283  0.2252 -0.2979
  736SOL    HW1 2207   0.818   0.453   2.529  1.0614  0.8338  2.0779
  736SOL    HW2 2208   0.932   0.357   2.452  0.3098  2.3621  3.5348
  737SOL     OW 2209   2.617   0.494   2.828  0.1929  0.7914 -0.1795
  737SOL    HW1 2210   2.584   0.452   2.920 -4.9258 -0.3206 -0.9619
  737SOL    HW2 2211   2.709   0.459   2.800 -1.8858  0.9750  1.2923
  738SOL     OW 2212   1.735   1.274   2.893  0.4345 -0.3169 -0.1092
  738SOL    HW1 2213   1.833   1.234   2.905  0.5230  0.3384  0.7187
  738SOL    HW2 2214   1.677   1.207   2.834  1.0795 -1.6204 -0.7357
  739SOL     OW 2215   1.785   0.704   0.665 -0.2183 -0.1067 -0.2314
  739SOL    HW1 2216   1.834   0.706   0.759  1.5198  1.3328 -1.3237
  739SOL    HW2 2217   1.791   0.611   0.625 -2.1212 -0.7020  0.9835
  740SOL     OW 2218   1.923   1.949   2.368 -0.1727 -0.3056  0.2920
  740SOL    HW1 2219   1.991   1.884   2.406 -3.9657  3.3193  0.0210
  740SOL    HW2 2220   1.866   1.916   2.285  0.3522 -0.9617  0.3669
  741SOL     OW 2221   2.613   0.090   2.480 -0.3625  0.1424  0.5478
  741SOL    HW1 2222   2.712   0.116   2.465 -0.3445  2.7009  1.9531
  741SOL    HW2 2223   2.560   0.099   2.391  2.3569  0.8780  1.6225
  742SOL     OW 2224   2.165   1.376   0.128 -0.5081  0.0665  0.0096
  742SOL    HW1 2225   2.069   1.408   0.131 -1.1662 -1.0173  0.6803
  742SOL    HW2 2226   2.188   1.311   0.199  1.7532  0.1823  0.9265
  743SOL     OW 2227   1.771   0.630   2.619 -0.4123 -0.1877 -0.2335
  743SOL    HW1 2228   1.773   0.574   2.528 -1.4845  1.2496  0.0556
  743SOL    HW2 2229   1.703   0.704   2.610  1.9190 -5.1666 -0.5156
  744SOL     OW 2230   2.697   2.017   0.032 -0.0207 -0.7792 -0.0337
  744SOL    HW1 2231   2.612   2.068   0.066  2.0771 -1.3958  2.7306
  744SOL    HW2 2232   2.687   1.931  -0.018  1.5520  0.9153  0.5559
  745SOL     OW 2233   2.187   2.657   2.166 -0.8785 -0.2528 -0.0559
  745SOL    HW1 2234   2.087   2.669   2.185  1.1431  0.9691  2.1736
  745SOL    HW2 2235   2.247   2.710   2.231 -2.6519 -2.4336 -0.6665
  746SOL     OW 2236   0.020   2.661   1.730 -0.7918 -0.0545 -0.0668
  746SOL    HW1 2237   0.102   2.600   1.734 -0.2200  0.7474 -1.4527
  746SOL    HW2 2238   0.022   2.721   1.818  1.2375 -0.7318 -0.1087
  747SOL     OW 2239   0.014   1.788   1.648 -0.3659 -0.6131 -0.1114
  747SOL    HW1 2240  -0.047   1.704   1.617 -4.8680 -2.5096 -0.6140
  747SOL    HW2 2241   0.084   1.809   1.572 -0.5762 -0.7354 -0.1133
  748SOL     OW 2242   1.831   2.732   2.892  0.1064 -0.0114  0.6982
  748SOL    HW1 2243   1.858   2.808   2.962  1.9105 -1.7849  0.0445
  748SOL    HW2 2244   1.748   2.757   2.832  0.0279  1.6963 -0.8468
  749SOL     OW 2245   1.368   3.048   0.856  0.2990  0.0330 -0.0784
  749SOL    HW1 2246   1.280   3.028   0.796 -2.7552 -2.3418 -2.7588
  749SOL    HW2 2247   1.450   2.997   0.823 -3.1989  2.4530 -1.1649
  750SOL     OW 2248   2.291   0.196   1.874  0.1045 -0.3324  0.6720
  750SOL    HW1 2249   2.325   0.256   1.797 -0.0624  1.0620 -1.7394
  750SOL    HW2 2250   2.274   0.251   1.956 -1.1076 -0.4824 -0.4206
  751SOL     OW 2251   0.788   2.119   2.858  0.0434 -0.5181 -0.7426
  751SOL    HW1 2252   0.874   2.101   2.920 -1.7928 -0.9485  0.8548
  751SOL    HW2 2253   0.700   2.121   2.915 -1.8291 -1.4610 -1.3714
  752SOL     OW 2254   1.313   0.813   1.276 -0.2335 -0.1934 -0.4179
  752SOL    HW1 2255   1.374   0.896   1.264  1.4348 -2.8478 -2.0400
  752SOL    HW2 2256   1.367   0.727   1.305 -1.4082 -2.2862  0.3869
  753SOL     OW 2257   0.927   2.576   1.825  0.9490  0.0865  0.5077
  753SOL    HW1 2258   1.022   2.606   1.799 -0.5641  1.0142 -1.0555
  753SOL    HW2 2259   0.859   2.655   1.833 -0.9669 -0.3021 -1.0654
  754SOL     OW 2260   1.144   1.242   3.051  0.7367  0.2124 -0.0609
  754SOL    HW1 2261   1.198   1.169   3.002 -0.0677  0.8437  0.9215
  754SOL    HW2 2262   1.186   1.335   3.046  0.2415 -2.5942 -0.0370
  755SOL     OW 2263   1.979   0.459   2.216  0.3566  0.1692  0.4306
  755SOL    HW1 2264   2.053   0.399   2.258 -2.0854  2.9605 -0.6478
  755SOL    HW2 2265   1.896   0.457   2.279  0.1420  1.7443  2.9180
  756SOL     OW 2266   2.582   1.012   2.990  0.1248  0.2348  0.0196
  756SOL    HW1 2267   2.685   0.995   3.008 -0.7293 -2.2940 -2.2995
  756SOL    HW2 2268   2.530   0.920   2.995  1.0190 -2.9374 -1.0005
  757SOL     OW 2269   0.127   0.486   1.979  0.5087 -0.1042  0.6637
  757SOL    HW1 2270   0.188   0.417   1.931  1.2243 -1.6592 -0.2257
  757SOL    HW2 2271   0.030   0.456   2.002  2.9783  3.4968 -2.6802
  758SOL     OW 2272   2.212   0.090   1.498 -0.5962  0.1311  0.5099
  758SOL    HW1 2273   2.204  -0.015   1.496 -1.7158 -0.9463  0.3814
  758SOL    HW2 2274   2.290   0.127   1.444 -2.0297 -1.1001  1.4092
  759SOL     OW 2275   1.693   0.096   0.062 -0.6659  0.5526 -0.1315
  759SOL    HW1 2276   1.642   0.069  -0.028 -0.2118  1.3714 -0.7819
  759SOL    HW2 2277   1.797   0.075   0.065  0.5189  0.7049 -0.1996
  760SOL     OW 2278   2.569   2.071   2.831 -0.9577  0.5931 -0.0132
  760SOL    HW1 2279   2.607   2.006   2.901 -0.0721  0.7026 -0.1073
  760SOL    HW2 2280   2.586   2.171   2.862 -0.6101 -0.2546  2.6223
  761SOL     OW 2281   1.915   1.798   1.762 -0.0056  0.2192 -0.0860
  761SOL    HW1 2282   1.938   1.701   1.793 -2.0970 -0.8101 -1.3670
  761SOL    HW2 2283   1.878   1.793   1.661 -1.4461 -0.0948 -2.1359
  762SOL     OW 2284   0.490   2.365   0.948  0.1925  0.2869  0.0033
  762SOL    HW1 2285   0.541   2.396   0.868 -0.9378 -2.4308  1.0513
  762SOL    HW2 2286   0.544   2.384   1.035 -0.2507  0.9001 -0.9604
  763SOL     OW 2287   2.100   1.560   2.982  0.3814  0.5915  0.2304
  763SOL    HW1 2288   2.167   1.494   2.936  0.1750 -0.8424  1.2103
  763SOL    HW2 2289   2.031   1.520   3.048 -1.4523 -1.8222  1.1764
  764SOL     OW 2290   0.690   0.573   0.713  0.0743 -0.8183  0.2799
  764SOL    HW1 2291   0.605   0.506   0.719 -0.8840 -2.4268 -0.9945
  764SOL    HW2 2292   0.763   0.550   0.783  0.7115 -0.4355 -1.0825
  765SOL     OW 2293   0.782   0.262   0.775 -0.6365 -0.0581  0.6831
  765SOL    HW1 2294   0.814   0.318   0.691  1.1920  1.0842 -0.1214
  765SOL    HW2 2295   0.787   0.319   0.854 -0.1353 -3.3986 -5.4297
  766SOL     OW 2296   2.894   2.157   3.010 -0.4688  0.1222 -0.2099
  766SOL    HW1 2297   2.817   2.100   3.052  0.1668  1.3401  0.8366
  766SOL    HW2 2298   2.919   2.243   3.064  2.6163  2.0591  0.8734
  767SOL     OW 2299   2.806   1.662   0.578 -0.1854  0.0534 -0.0580
  767SOL    HW1 2300   2.718   1.704   0.611 -0.0238  1.4547 -1.1040
  767SOL    HW2 2301   2.891   1.718   0.611  0.4664  3.9662 -0.6623
  768SOL     OW 2302   1.032   0.157   0.242 -0.1860  0.0612  0.0274
  768SOL    HW1 2303   0.981   0.105   0.321  0.4565  0.3696  1.5397
  768SOL    HW2 2304   1.137   0.160   0.246  0.5256  1.9040  0.2822
  769SOL     OW 2305   1.127   1.854   2.322 -0.0020  0.7431  0.0824
  769SOL    HW1 2306   1.030   1.877   2.337  0.2630 -0.6055  0.5778
  769SOL    HW2 2307   1.171   1.814   2.411 -0.9509  0.9097  0.1644
  770SOL     OW 2308   0.165   1.130   2.310  0.0502  0.2271  0.2364
  770SOL    HW1 2309   0.169   1.196   2.386  0.8396 -0.6262 -2.0165
  770SOL    HW2 2310   0.066   1.104   2.290 -0.1021 -0.2062  3.0241
  771SOL     OW 2311   3.058   2.822   1.933  0.2051 -0.1061  0.0366
  771SOL    HW1 2312   2.987   2.852   1.866 -0.6826  4.1461  0.4048
  771SOL    HW2 2313   3.024   2.810   2.032 -2.9914  0.5167  1.5388
  772SOL     OW 2314   2.304   0.212   2.850 -0.4411 -0.3148  0.2081
  772SOL    HW1 2315   2.366   0.137   2.813  0.7404  1.0039 -0.0265
  772SOL    HW2 2316   2.322   0.242   2.949  0.4023  1.4977  2.3986
  773SOL     OW 2317   0.609   2.128   2.378  0.3815  0.4458 -0.2509
  773SOL    HW1 2318   0.577   2.181   2.298  1.4417  1.5706  1.6551
  773SOL    HW2 2319   0.558   2.130   2.470  0.1410 -0.3314 -1.3702
  774SOL     OW 2320   2.121   3.094   2.598  0.0558 -0.0243 -0.2367
  774SOL    HW1 2321   2.103   3.185   2.646  0.6983 -3.2969  0.2252
  774SOL    HW2 2322   2.176   3.030   2.659 -1.6769 -1.9998 -1.0262
  775SOL     OW 2323   2.560   2.981   2.225 -0.1198  0.3639  0.1727
  775SOL    HW1 2324   2.497   3.065   2.238 -0.6125 -0.4200  1.5053
  775SOL    HW2 2325   2.614   2.948   2.305 -2.9440 -0.7809  0.1890
  776SOL     OW 2326   3.082   1.265   0.182  0.2530  0.4140  0.3816
  776SOL    HW1 2327   3.025   1.210   0.116 -0.3176  0.0748  0.7335
  776SOL    HW2 2328   3.038   1.264   0.280 -2.4878  0.1019  1.9549
  777SOL     OW 2329   0.428   2.941   0.412 -0.2514 -0.1538 -0.4367
  777SOL    HW1 2330   0.328   2.938   0.379  0.1990  0.8951 -1.9909
  777SOL    HW2 2331   0.492   2.881   0.355 -1.2102 -0.7164 -1.4098
  778SOL     OW 2332   1.336   1.954   0.183 -0.3840  0.1970  0.5488
  778SOL    HW1 2333   1.271   1.993   0.251  1.5460 -1.3330 -1.0568
  778SOL    HW2 2334   1.394   2.029   0.140 -0.9797 -1.2228 -0.9699
  779SOL     OW 2335   0.184   0.896   0.457  0.4486 -0.0651 -0.0426
  779SOL    HW1 2336   0.148   0.802   0.432 -1.1932  3.2642  1.2724
  779SOL    HW2 2337   0.127   0.950   0.525 -1.0748  2.3244  1.1455
  780SOL     OW 2338   0.164   0.307   2.414 -0.2516  0.7298  0.1475
  780SOL    HW1 2339   0.138   0.397   2.460  0.3766  2.9117 -1.5577
  780SOL    HW2 2340   0.258   0.312   2.365 -1.1828 -0.5981  1.1880
  781SOL     OW 2341   0.680   1.650   1.506 -0.4272 -0.1790  0.1789
  781SOL    HW1 2342   0.744   1.618   1.580 -0.8970  0.3061  0.2424
  781SOL    HW2 2343   0.579   1.624   1.530 -1.7510  0.5568  1.2881
  782SOL     OW 2344   2.596   0.137   0.926  0.1224  0.3030  0.0439
  782SOL    HW1 2345   2.559   0.145   0.826  0.7229  3.3304  0.9327
  782SOL    HW2 2346   2.557   0.207   0.998  0.5460  1.4626  2.0347
  783SOL     OW 2347   2.749   0.681   2.455 -0.3372 -0.0976 -0.2601
  783SOL    HW1 2348   2.798   0.682   2.541 -0.1795  0.0021 -3.6329
  783SOL    HW2 2349   2.723   0.590   2.421  1.4838  3.4229  0.8705
  784SOL     OW 2350   1.420   2.183   0.066  0.9865  0.2699  0.1064
  784SOL    HW1 2351   1.473   2.260   0.112 -0.5383  0.5198 -4.8041
  784SOL    HW2 2352   1.373   2.215  -0.018 -2.3489 -0.7012 -1.3152
  785SOL     OW 2353   2.054   0.310   3.086  0.7421 -0.4049  0.5502
  785SOL    HW1 2354   1.971   0.309   3.142  1.6188  0.1513 -0.5424
  785SOL    HW2 2355   2.099   0.401   3.061 -1.3444 -0.1947  0.7527
  786SOL     OW 2356   2.025   2.186   2.241  0.3385  0.9464 -0.2573
  786SOL    HW1 2357   1.975   2.121   2.302 -1.4291 -0.4729  1.6136
  786SOL    HW2 2358   2.118   2.162   2.208 -3.6221  0.1221 -1.2545
  787SOL     OW 2359   1.327   0.539   0.919  0.2680 -0.5050 -0.3332
  787SOL    HW1 2360   1.275   0.627   0.927 -2.7465  2.1780 -0.5537
  787SOL    HW2 2361   1.402   0.546   0.849  0.4766  0.1693  1.2080
  788SOL     OW 2362   1.235   0.410   0.066 -0.2897 -0.6555  0.4439
  788SOL    HW1 2363   1.154   0.401   0.000 -1.0058  0.0435 -2.1935
  788SOL    HW2 2364   1.237   0.490   0.135 -0.0857  3.4650 -0.2871
  789SOL     OW 2365   2.553   0.077   1.917 -0.2204  0.5603 -1.0287
  789SOL    HW1 2366   2.454   0.078   1.906  3.0951  4.2251  0.7909
  789SOL    HW2 2367   2.588  -0.022   1.905  0.1566 -1.0224 -0.7476
  790SOL     OW 2368   2.631   2.760   0.773 -0.7700  0.1404 -0.1476
  790SOL    HW1 2369   2.715   2.802   0.720  1.7097  0.7654 -0.0043
  790SOL    HW2 2370   2.618   2.807   0.865  1.9656  0.8979 -1.3758
  791SOL     OW 2371   1.936   1.198   0.273 -0.4133  0.1832 -0.4228
  791SOL    HW1 2372   1.840   1.158   0.299 -0.2649 -1.9180  1.9716
  791SOL    HW2 2373   2.020   1.131   0.282  1.8437 -0.5532  0.7417
  792SOL     OW 2374   0.382   1.756   2.131  0.6415  0.1880  0.1094
  792SOL    HW1 2375   0.444   1.755   2.215  1.1886  0.9394 -2.1853
  792SOL    HW2 2376   0.289   1.713   2.144  2.6260 -0.1359  1.8398
  793SOL     OW 2377   2.111   1.543   2.093  0.5833  0.2778  0.3040
  793SOL    HW1 2378   2.189   1.586   2.040  0.6865  3.1440 -0.2545
  793SOL    HW2 2379   2.080   1.449   2.061  1.2905 -0.2314  0.7869
  794SOL     OW 2380   0.570   1.453   2.342  0.0669 -0.3929 -0.2641
  794SOL    HW1 2381   0.564   1.422   2.245  0.6503 -2.1894  0.6979
  794SOL    HW2 2382   0.483   1.468   2.394 -0.3496 -0.2172 -1.5664
  795SOL     OW 2383   2.537   2.259   1.814 -0.2138 -0.0303 -0.3779
  795SOL    HW1 2384   2.529   2.257   1.914  0.8989 -1.4331 -3.2889
  795SOL    HW2 2385   2.451   2.230   1.767  0.0373  1.5243  1.0282
  796SOL     OW 2386   3.092   1.106   2.698  0.2384 -0.0310 -0.0979
  796SOL    HW1 2387   2.985   1.101   2.708  0.4908  0.9440  2.3469
  796SOL    HW2 2388   3.150   1.120   2.785  0.4189 -1.1892 -0.8570
  797SOL     OW 2389   0.774   0.677   1.400 -0.1245 -0.0058 -0.2816
  797SOL    HW1 2390   0.840   0.714   1.472 -0.0106 -0.0641  1.1098
  797SOL    HW2 2391   0.711   0.754   1.371  0.4031  1.4864  0.5106
  798SOL     OW 2392   1.340   0.371   1.143 -0.2720 -0.6688 -0.1096
  798SOL    HW1 2393   1.408   0.384   1.216 -1.8594  0.4885 -2.3063
  798SOL    HW2 2394   1.358   0.436   1.064 -0.0501  2.1277 -2.8434
  799SOL     OW 2395   1.975   2.723   0.998 -0.3980 -0.0088  0.7567
  799SOL    HW1 2396   1.904   2.696   1.068  3.0339 -0.6977 -1.2212
  799SOL    HW2 2397   1.949   2.689   0.902 -0.4711 -0.3656  2.2460
  800SOL     OW 2398   3.046   0.598   1.799 -0.6184 -0.0330 -0.2942
  800SOL    HW1 2399   2.989   0.674   1.835  1.0774 -0.7851  1.2213
  800SOL    HW2 2400   3.133   0.576   1.846 -2.0579 -1.9816 -1.1028
  801SOL     OW 2401   1.961   2.253   0.091  0.0352 -0.0167  0.1982
  801SOL    HW1 2402   1.880   2.202   0.046  1.5877 -1.2222 -3.6773
  801SOL    HW2 2403   2.051   2.226   0.046  1.0855  1.3353 -0.7007
  802SOL     OW 2404   0.708   0.814   2.565 -0.0231  0.1261  0.1702
  802SOL    HW1 2405   0.768   0.807   2.478 -1.4542 -0.9227 -0.3357
  802SOL    HW2 2406   0.612   0.789   2.557 -0.3325  0.8577  1.6973
  803SOL     OW 2407   0.957   0.059   0.888  0.3230 -0.7392 -0.0345
  803SOL    HW1 2408   1.042   0.112   0.901 -0.8204  0.0765  1.0857
  803SOL    HW2 2409   0.890   0.119   0.836 -1.6987 -1.3520 -1.0713
  804SOL     OW 2410   0.270   0.034   2.173  0.0511  0.0065 -0.3162
  804SOL    HW1 2411   0.255   0.139   2.176 -1.0353  1.6097  0.2587
  804SOL    HW2 2412   0.234  -0.006   2.081 -0.9345 -2.0547 -1.4529
  805SOL     OW 2413   2.445   0.245   0.314 -0.2747 -0.0325  0.4387
  805SOL    HW1 2414   2.536   0.285   0.348  0.0099 -1.1942  0.4287
  805SOL    HW2 2415   2.400   0.298   0.232 -2.3254  0.2674  2.5289
  806SOL     OW 2416   0.645   2.389   1.661 -0.5810 -0.2885 -0.5292
  806SOL    HW1 2417   0.643   2.493   1.669 -0.8952 -0.1868 -1.5151
  806SOL    HW2 2418   0.742   2.345   1.676 -0.3136 -0.2208  2.5794
  807SOL     OW 2419   2.391   0.944   0.448  0.5797 -0.5522 -0.4124
  807SOL    HW1 2420   2.460   0.987   0.517  1.9827  1.1130  0.1912
  807SOL    HW2 2421   2.443   0.921   0.360 -0.8512  1.5605  0.8599
  808SOL     OW 2422   0.524   2.030   2.974 -0.2847  0.6085 -0.6485
  808SOL    HW1 2423   0.548   2.039   3.073 -2.6958  0.6579  1.6298
  808SOL    HW2 2424   0.547   1.936   2.938  0.5199  0.3328  1.8986
  809SOL     OW 2425   2.631   1.978   1.921  0.9105 -0.0718 -0.3829
  809SOL    HW1 2426   2.725   2.013   1.916  2.9630 -1.1247 -1.0461
  809SOL    HW2 2427   2.593   1.970   1.823  0.4032 -2.5143 -1.6635
  810SOL     OW 2428   2.107   1.045   0.551 -0.1515  0.2907 -0.3534
  810SOL    HW1 2429   2.153   0.998   0.630  1.2287  2.2575 -1.7753
  810SOL    HW2 2430   2.039   1.116   0.579  2.6648 -3.4887  0.2965
  811SOL     OW 2431   1.362   2.470   1.306  0.3721  0.7570 -0.7079
  811SOL    HW1 2432   1.348   2.366   1.326  3.2777  1.2659  0.9849
  811SOL    HW2 2433   1.276   2.515   1.276  0.0678 -0.1552  2.2052
  812SOL     OW 2434   1.467   0.827   1.955 -0.1573  0.5833 -0.0443
  812SOL    HW1 2435   1.530   0.872   2.024  2.0166 -2.1783  1.1470
  812SOL    HW2 2436   1.378   0.878   1.943 -1.2721 -0.2043 -1.3494
  813SOL     OW 2437   1.741   2.143   2.466  0.2053 -0.0080 -0.1261
  813SOL    HW1 2438   1.826   2.086   2.473  0.0739  1.3246  1.9092
  813SOL    HW2 2439   1.679   2.101   2.391  0.3428  1.5833  2.0536
  814SOL     OW 2440   2.866   1.560   2.842  0.2818 -0.1126 -0.2775
  814SOL    HW1 2441   2.953   1.516   2.866 -2.5604  1.0978  0.1985
  814SOL    HW2 2442   2.876   1.659   2.824 -0.8103 -2.4235 -1.5348
  815SOL     OW 2443   2.237   2.830   2.738 -0.6935 -0.1577  0.6464
  815SOL    HW1 2444   2.204   2.741   2.783 -1.2177  3.4387 -0.5104
  815SOL    HW2 2445   2.333   2.846   2.764 -2.9844  0.1784 -0.4136
  816SOL     OW 2446   1.652   0.305   1.590 -0.4490  0.0251  0.4839
  816SOL    HW1 2447   1.689   0.209   1.615 -0.4848  1.8947  0.6079
  816SOL    HW2 2448   1.569   0.328   1.651 -0.3204  2.1633  3.4953
  817SOL     OW 2449   0.429   1.231   2.521 -0.6277 -0.6497  0.3055
  817SOL    HW1 2450   0.333   1.264   2.526  1.0305  0.4131  1.4052
  817SOL    HW2 2451   0.478   1.282   2.445  0.4999  0.7425 -0.2142
  818SOL     OW 2452   1.955   0.817   0.482 -0.1604 -0.4577  0.1991
  818SOL    HW1 2453   1.987   0.914   0.506 -1.1413 -2.2574 -3.5059
  818SOL    HW2 2454   1.884   0.784   0.553  1.2356 -0.4103  2.6658
  819SOL     OW 2455   2.785   2.913   3.016 -0.1146  0.3918  0.0606
  819SOL    HW1 2456   2.859   2.847   2.984 -0.3246  1.2854  1.1279
  819SOL    HW2 2457   2.696   2.897   2.962  1.4851  0.4564 -0.9275
  820SOL     OW 2458   1.233   1.122   0.584  0.3801  0.5978  1.4151
  820SOL    HW1 2459   1.212   1.210   0.634 -1.8193 -2.6494 -1.1770
  820SOL    HW2 2460   1.277   1.051   0.637 -0.4225  0.3786 -0.1686
  821SOL     OW 2461   0.026   1.267   0.674 -0.3092 -0.0486  0.1862
  821SOL    HW1 2462  -0.025   1.284   0.762  2.2852  0.6278  0.2733
  821SOL    HW2 2463   0.088   1.344   0.654  0.1050 -0.6074  0.7400
  822SOL     OW 2464   2.541   1.742   2.411  0.2653 -0.5001  0.0705
  822SOL    HW1 2465   2.529   1.799   2.494  0.8184 -0.2067 -0.9148
  822SOL    HW2 2466   2.470   1.767   2.337  1.1636  0.1829  2.1361
  823SOL     OW 2467   2.022   0.810   1.226  0.1564 -0.7933  0.0537
  823SOL    HW1 2468   1.972   0.812   1.315  0.9114 -2.8999 -1.1646
  823SOL    HW2 2469   1.991   0.883   1.158  1.1409  0.6230  1.1731
  824SOL     OW 2470   0.137   2.053   2.785  0.2833  0.0705 -0.1707
  824SOL    HW1 2471   0.086   1.974   2.824  1.0990  1.8858 -1.7621
  824SOL    HW2 2472   0.213   2.024   2.718 -2.4855 -0.6857  1.5512
  825SOL     OW 2473   1.282   1.098   0.241 -0.1359  0.0536  0.6404
  825SOL    HW1 2474   1.320   1.188   0.207 -0.3255 -2.3224  0.0140
  825SOL    HW2 2475   1.210   1.100   0.314  2.0091  1.7382 -1.7954
  826SOL     OW 2476   1.942   0.649   1.594  0.2165  0.6639  0.2352
  826SOL    HW1 2477   2.020   0.578   1.601  0.4405 -0.3938 -1.1626
  826SOL    HW2 2478   1.854   0.608   1.548 -0.1762 -1.6418 -0.5396
  827SOL     OW 2479   0.697   1.404   0.288 -0.0812 -0.1948 -0.1646
  827SOL    HW1 2480   0.762   1.337   0.244  1.2353  0.7960 -0.3708
  827SOL    HW2 2481   0.649   1.377   0.377 -4.7275 -1.6950 -2.1939
  828SOL     OW 2482   2.476   0.101   1.620  0.2435  1.0339  0.1877
  828SOL    HW1 2483   2.392   0.162   1.640 -1.5775 -1.1600  1.9315
  828SOL    HW2 2484   2.453  -0.000   1.652  0.4403 -3.9051  0.2265
  829SOL     OW 2485   2.809   2.473   2.949  0.3599 -0.6245  0.0510
  829SOL    HW1 2486   2.744   2.393   2.926  0.5004  0.2625 -1.4619
  829SOL    HW2 2487   2.767   2.530   3.026  1.1432  0.2328 -2.1287
  830SOL     OW 2488   2.822   0.885   3.043  0.3047 -0.0447 -0.2049
  830SOL    HW1 2489   2.898   0.960   3.047 -1.0402  1.2623  1.2183
  830SOL    HW2 2490   2.835   0.809   3.115 -0.1342 -0.9527 -2.2263
  831SOL     OW 2491   0.036   0.654   0.371  0.8099  0.3846 -0.2626
  831SOL    HW1 2492   0.011   0.585   0.441 -1.1849 -1.4378 -4.3027
  831SOL    HW2 2493   0.076   0.608   0.288  1.6317  0.8610  4.2297
  832SOL     OW 2494   1.818   0.737   0.003 -0.2695  0.2407 -0.5057
  832SOL    HW1 2495   1.740   0.792  -0.032  1.7499 -0.5422  2.9081
  832SOL    HW2 2496   1.802   0.636  -0.008 -2.9643  1.7476  0.7045
  833SOL     OW 2497   2.421   2.116   0.528 -0.3085  0.1840  0.0047
  833SOL    HW1 2498   2.320   2.097   0.526  0.1736  2.7440 -2.3564
  833SOL    HW2 2499   2.479   2.035   0.488  0.8174  1.3505  0.3270
  834SOL     OW 2500   0.178   0.188   0.534  0.2018 -0.1054 -0.7837
  834SOL    HW1 2501   0.226   0.103   0.567  0.6228 -5.4601 -0.1459
  834SOL    HW2 2502   0.160   0.197   0.428 -0.2588  1.1743 -3.1099
  835SOL     OW 2503   2.362   1.552   1.149 -0.2747  0.4145 -0.6210
  835SOL    HW1 2504   2.460   1.582   1.158  2.8838  1.1756 -2.1083
  835SOL    HW2 2505   2.321   1.565   1.052  1.0527  1.4189 -1.8079
  836SOL     OW 2506   1.576   0.835   2.555  0.1387  0.3495 -0.2961
  836SOL    HW1 2507   1.483   0.810   2.513 -1.8659 -0.9414 -0.3549
  836SOL    HW2 2508   1.637   0.884   2.485  0.6851 -0.7216 -1.6522
  837SOL     OW 2509   1.757   0.138   0.549 -0.1874 -0.0435 -0.2213
  837SOL    HW1 2510   1.737   0.148   0.652  0.2642  0.3159  0.2946
  837SOL    HW2 2511   1.690   0.194   0.495 -0.9093  3.3754  1.0035
  838SOL     OW 2512   1.137   1.567   2.761 -0.2984  0.3358  0.6970
  838SOL    HW1 2513   1.103   1.521   2.847  0.6099  1.5757 -0.3632
  838SOL    HW2 2514   1.124   1.496   2.683 -1.3168  0.7705  0.6032
  839SOL     OW 2515   1.592   0.300   0.985  0.3797 -0.4768  0.0460
  839SOL    HW1 2516   1.609   0.363   1.068  0.7615 -1.9007  2.3430
  839SOL    HW2 2517   1.561   0.206   1.022 -0.6725 -0.0715 -1.1180
  840SOL     OW 2518   2.474   2.946   1.710 -0.4859 -0.1544  0.4630
  840SOL    HW1 2519   2.402   2.878   1.735 -2.2803 -2.3021 -0.7151
  840SOL    HW2 2520   2.572   2.927   1.736 -0.5177  0.5084 -3.4653
  841SOL     OW 2521   1.560   0.830   3.017 -0.0544  0.2065 -0.9511
  841SOL    HW1 2522   1.479   0.824   3.081 -2.5627 -0.6292  0.2006
  841SOL    HW2 2523   1.539   0.861   2.913  0.3910  0.5963 -3.0924
  842SOL     OW 2524   0.805   1.499   0.911  0.1864  0.6590 -0.0398
  842SOL    HW1 2525   0.778   1.571   0.979  1.9260 -0.6423 -0.1804
  842SOL    HW2 2526   0.724   1.442   0.877  1.3845  0.5996 -0.8221
  843SOL     OW 2527   0.089   3.097   1.376 -0.2477 -0.0451 -0.1306
  843SOL    HW1 2528   0.131   3.166   1.442  0.3055  2.3172 -0.4960
  843SOL    HW2 2529   0.073   3.009   1.424  1.0864  0.2694 -3.2959
  844SOL     OW 2530   0.795   2.470   0.249 -0.3029 -0.0521 -0.4003
  844SOL    HW1 2531   0.737   2.440   0.333 -0.1579  1.6163  0.3240
  844SOL    HW2 2532   0.740   2.548   0.201 -0.9943  1.9837  1.6737
  845SOL     OW 2533   1.662   2.893   1.326  0.2513  0.0914  0.1235
  845SOL    HW1 2534   1.723   2.808   1.330 -1.5592 -1.1273  0.7725
  845SOL    HW2 2535   1.669   2.952   1.411 -1.7488 -3.8236 -1.2168
  846SOL     OW 2536   1.597   2.933   0.752 -0.1392  0.0320  0.6198
  846SOL    HW1 2537   1.574   2.928   0.652 -0.6501 -2.2466  0.3875
  846SOL    HW2 2538   1.697   2.946   0.769  0.9765 -2.2332 -0.7076
  847SOL     OW 2539   2.068   1.668   0.368 -0.6020  0.4613  0.0042
  847SOL    HW1 2540   2.029   1.568   0.386 -2.1396 -3.3786 -3.5413
  847SOL    HW2 2541   1.996   1.733   0.389  0.9552 -4.0282  3.2359
  848SOL     OW 2542   2.449   0.843   2.628 -0.0339 -0.5326  0.5291
  848SOL    HW1 2543   2.415   0.934   2.664  1.4495 -0.5793  0.3537
  848SOL    HW2 2544   2.375   0.774   2.625 -1.5517  2.0479  0.0840
  849SOL     OW 2545   2.561   0.868   2.374  0.4405  0.0814 -0.1205
  849SOL    HW1 2546   2.640   0.805   2.388  0.6496 -0.3027 -0.5826
  849SOL    HW2 2547   2.513   0.870   2.470 -0.6568  2.1168  0.5514
  850SOL     OW 2548   1.556   0.091   1.314 -0.4919  0.1877 -0.2385
  850SOL    HW1 2549   1.537   0.068   1.216  0.2024 -1.3628  0.9619
  850SOL    HW2 2550   1.496   0.036   1.377 -2.4364  0.1311 -2.5719
  851SOL     OW 2551   0.435   1.803   0.563  0.3911  0.3436  0.1945
  851SOL    HW1 2552   0.480   1.890   0.598 -1.6174  1.0381 -0.9101
  851SOL    HW2 2553   0.407   1.803   0.461 -1.2519  1.0504  0.5425
  852SOL     OW 2554   0.797   2.082   1.746 -0.5431  0.1902 -0.2348
  852SOL    HW1 2555   0.832   2.181   1.733 -0.5422 -0.0690 -0.0663
  852SOL    HW2 2556   0.731   2.063   1.827  0.7319  1.2321 -0.6578
  853SOL     OW 2557   2.505   1.539   2.603 -0.1119 -0.4442 -0.4657
  853SOL    HW1 2558   2.459   1.455   2.570  2.8292  1.9186  1.3949
  853SOL    HW2 2559   2.513   1.611   2.533  0.8721  0.0196  2.6311
  854SOL     OW 2560   2.396   1.361   1.707 -0.0945 -0.1880 -0.2483
  854SOL    HW1 2561   2.432   1.310   1.623  0.4958  0.5453  1.3108
  854SOL    HW2 2562   2.352   1.301   1.776 -2.4451  0.8484 -1.3082
  855SOL     OW 2563   2.069   2.456   1.075 -0.5583 -0.1647  0.4321
  855SOL    HW1 2564   2.064   2.561   1.055 -2.1309  1.2647  0.1495
  855SOL    HW2 2565   2.160   2.429   1.120 -1.0779 -1.2401  1.4256
  856SOL     OW 2566   1.352   1.405   0.940 -0.0151  0.1313 -0.0154
  856SOL    HW1 2567   1.428   1.477   0.957 -1.7405  0.8454 -0.0209
  856SOL    HW2 2568   1.260   1.438   0.984  0.5231 -0.5391 -0.0397
  857SOL     OW 2569   3.036   2.725   0.989 -0.2259 -0.2501  0.0791
  857SOL    HW1 2570   2.996   2.640   0.938 -1.9184 -2.1593 -1.9157
  857SOL    HW2 2571   3.129   2.752   0.958 -1.5269 -1.5839  4.6275
  858SOL     OW 2572   2.339   2.103   1.712 -0.1465  0.0323  0.1592
  858SOL    HW1 2573   2.255   2.090   1.651  1.3613  2.2458  0.5939
  858SOL    HW2 2574   2.400   2.024   1.693  0.3197 -0.4961  1.0691
  859SOL     OW 2575   2.476   0.585   1.089  0.8326 -0.0263 -0.4391
  859SOL    HW1 2576   2.524   0.616   0.999  3.1946  0.9760  0.8381
  859SOL    HW2 2577   2.480   0.481   1.102 -1.0694 -1.5059 -0.3985
  860SOL     OW 2578   1.863   2.800   0.482  0.4810  0.1197 -0.8921
  860SOL    HW1 2579   1.849   2.781   0.380 -0.5262  0.6212  0.2823
  860SOL    HW2 2580   1.879   2.902   0.497 -0.0666 -3.8635 -2.3118
  861SOL     OW 2581   1.007   2.417   2.877  0.1676 -0.4601 -0.3510
  861SOL    HW1 2582   1.045   2.499   2.823 -0.6135  0.2804 -0.7801
  861SOL    HW2 2583   0.983   2.427   2.979 -0.5987 -1.9250  0.6960
  862SOL     OW 2584   2.915   2.563   1.590 -0.2850  0.3353  0.0664
  862SOL    HW1 2585   2.994   2.588   1.651 -1.1731 -2.6434  1.1941
  862SOL    HW2 2586   2.865   2.644   1.553 -1.7479  1.5079 -1.1157
  863SOL     OW 2587   1.816   2.723   0.216  0.5591 -0.4305 -0.4312
  863SOL    HW1 2588   1.849   2.626   0.223  1.6451 -1.1383  1.2914
  863SOL    HW2 2589   1.715   2.738   0.193  0.4990  0.1594  2.4192
  864SOL     OW 2590   2.003   1.215   2.827 -0.3335 -0.0993 -0.5707
  864SOL    HW1 2591   1.990   1.138   2.756  1.9615  1.3802  1.1708
  864SOL    HW2 2592   2.106   1.237   2.846 -1.4270 -1.7649  3.6837
  865SOL     OW 2593   2.155   1.930   0.712  0.4493 -0.3599 -0.9994
  865SOL    HW1 2594   2.244   1.889   0.749  0.2368 -0.0445  2.1450
  865SOL    HW2 2595   2.082   1.950   0.786 -1.1216  0.2157 -0.0612
  866SOL     OW 2596   2.855   2.944   1.009 -0.3842 -0.0107 -0.1497
  866SOL    HW1 2597   2.846   2.989   0.912 -1.7000 -0.5026  1.9234
  866SOL    HW2 2598   2.924   2.862   1.017 -1.0965 -3.6341  2.5297
  867SOL     OW 2599   0.343   1.419   0.921 -0.2207 -0.9836 -0.8359
  867SOL    HW1 2600   0.306   1.346   0.851 -2.5281  0.0850 -2.6327
  867SOL    HW2 2601   0.362   1.512   0.880 -2.0680 -3.0055  3.7178
  868SOL     OW 2602   0.766   1.890   2.101  0.0188  0.7061 -0.0196
  868SOL    HW1 2603   0.710   1.844   2.175  1.2654  4.1638 -3.2004
  868SOL    HW2 2604   0.723   1.980   2.069  0.4850 -0.5269 -1.3622
  869SOL     OW 2605   2.570   1.956   1.635  0.0799  0.3524  0.5860
  869SOL    HW1 2606   2.660   1.998   1.604 -2.7671 -0.8580  0.9611
  869SOL    HW2 2607   2.555   1.862   1.587 -1.1677 -1.9845  1.3254
  870SOL     OW 2608   2.288   2.697   1.236  0.2512 -0.2633  0.3928
  870SOL    HW1 2609   2.299   2.594   1.218 -1.8471 -0.5152  2.7176
  870SOL    HW2 2610   2.267   2.718   1.342 -1.5119 -1.7017  0.2886
  871SOL     OW 2611   0.029   2.298   0.534  0.2491  0.4124  0.1707
  871SOL    HW1 2612  -0.018   2.349   0.616 -2.2789 -0.3857 -0.2412
  871SOL    HW2 2613  -0.035   2.293   0.449 -0.1970  0.8218 -0.4172
  872SOL     OW 2614   2.120   0.453   1.675 -0.0815  0.5121  0.3726
  872SOL    HW1 2615   2.084   0.454   1.774 -0.9944  0.0509 -0.0716
  872SOL    HW2 2616   2.217   0.424   1.669 -1.5941  0.8058 -0.2396
  873SOL     OW 2617   1.730   2.117   3.090  0.2588  0.9935 -0.7663
  873SOL    HW1 2618   1.637   2.079   3.111  1.9789 -0.0117  2.8973
  873SOL    HW2 2619   1.739   2.171   3.004  0.6907 -2.1202 -0.2028
  874SOL     OW 2620   0.675   2.441   0.742 -0.2690 -0.8306 -0.2242
  874SOL    HW1 2621   0.689   2.547   0.766  0.1389  0.2511 -0.4172
  874SOL    HW2 2622   0.762   2.392   0.763  2.0137  1.7077 -2.2365
  875SOL     OW 2623   2.267   1.544   1.408  0.1393  0.2252  0.4467
  875SOL    HW1 2624   2.356   1.583   1.454  0.1713 -0.0940 -0.1527
  875SOL    HW2 2625   2.252   1.587   1.313 -0.9125  1.7749 -2.1837
  876SOL     OW 2626   0.075   2.299   2.675  0.2440  1.0233  0.5281
  876SOL    HW1 2627   0.116   2.205   2.702 -1.1817 -3.9888  1.7707
  876SOL    HW2 2628   0.110   2.381   2.725 -0.8698 -0.3178 -0.2417
  877SOL     OW 2629   2.915   2.644   0.587  0.2345  0.6304 -0.2453
  877SOL    HW1 2630   2.927   2.750   0.590  0.8757  0.5856 -0.5638
  877SOL    HW2 2631   2.971   2.600   0.660 -1.7830  0.6774  0.0776
  878SOL     OW 2632   2.815   1.492   2.242  0.0066  0.1809 -0.3624
  878SOL    HW1 2633   2.807   1.573   2.180  0.5626 -0.4022 -1.1714
  878SOL    HW2 2634   2.796   1.516   2.342 -1.6672  0.3061 -0.6033
  879SOL     OW 2635   2.384   0.086   1.283  0.2481 -0.1870 -0.2805
  879SOL    HW1 2636   2.418  -0.010   1.304  1.6520  2.2770 -0.2567
  879SOL    HW2 2637   2.301   0.086   1.224  1.2602 -0.9723 -0.7685
  880SOL     OW 2638   0.754   0.508   2.257  0.2631 -0.3381  0.2747
  880SOL    HW1 2639   0.700   0.464   2.332 -1.3263  2.3746 -3.0927
  880SOL    HW2 2640   0.813   0.445   2.200  1.6160 -1.0575  4.8895
  881SOL     OW 2641   0.843   0.072   0.436 -0.2458 -0.4342  0.1333
  881SOL    HW1 2642   0.880  -0.022   0.443  3.4691  1.2762  2.1484
  881SOL    HW2 2643   0.769   0.091   0.367 -1.5290 -0.4025  4.7001
  882SOL     OW 2644   2.715   1.665   1.694  0.2103  0.3091  0.6529
  882SOL    HW1 2645   2.801   1.610   1.669  1.2184 -1.7604 -1.0099
  882SOL    HW2 2646   2.724   1.714   1.786  0.7693 -1.7563 -0.0401
  883SOL     OW 2647   0.851   0.507   0.934  0.5689 -0.3238 -0.3850
  883SOL    HW1 2648   0.885   0.606   0.955  0.6773 -0.9808  2.7388
  883SOL    HW2 2649   0.800   0.465   1.015 -1.6174  0.2401 -0.4480
  884SOL     OW 2650   1.090   1.753   1.167  0.0223 -0.1349 -0.0674
  884SOL    HW1 2651   1.094   1.661   1.130 -1.2575  3.2179 -1.0151
  884SOL    HW2 2652   1.060   1.825   1.095 -0.7158  1.8949 -1.9100
  885SOL     OW 2653   2.327   1.818   2.259  0.1580 -0.2287  0.3484
  885SOL    HW1 2654   2.238   1.780   2.293 -1.4631  2.9330  1.2174
  885SOL    HW2 2655   2.321   1.919   2.268 -2.5355 -1.2511  0.4649
  886SOL     OW 2656   2.608   0.338   1.808 -0.1362 -0.1735  0.2340
  886SOL    HW1 2657   2.605   0.233   1.814  0.3520 -1.3356 -1.5331
  886SOL    HW2 2658   2.705   0.373   1.793  2.2423 -1.7051  0.8735
  887SOL     OW 2659   0.135   2.067   1.292 -0.2021  0.0171  0.2045
  887SOL    HW1 2660   0.152   2.017   1.201  0.4148 -0.7457 -0.7357
  887SOL    HW2 2661   0.116   2.172   1.278 -4.3897  1.2483 -1.3388
  888SOL     OW 2662   0.629   1.222   1.518  0.1152  0.2004  0.3413
  888SOL    HW1 2663   0.675   1.284   1.447 -1.0996 -0.7321  1.2038
  888SOL    HW2 2664   0.636   1.122   1.490 -0.3824 -2.5533 -0.7914
  889SOL     OW 2665   0.831   2.523   2.212 -0.1301 -0.2761 -0.1798
  889SOL    HW1 2666   0.744   2.467   2.198 -0.3781  1.1072 -2.3163
  889SOL    HW2 2667   0.915   2.474   2.168 -0.4599  0.1735 -2.4810
  890SOL     OW 2668   2.370   2.508   0.259  0.5283 -0.3218  0.1148
  890SOL    HW1 2669   2.397   2.605   0.233  0.7352  3.0184  1.7300
  890SOL    HW2 2670   2.293   2.519   0.328 -0.8654 -0.3075 -0.1583
  891SOL     OW 2671   2.511   1.728   0.656  0.0741 -0.2888 -0.3711
  891SOL    HW1 2672   2.482   1.694   0.749 -0.5714  2.3866 -1.6875
  891SOL    HW2 2673   2.447   1.694   0.583 -0.2170 -2.0042  0.6037
  892SOL     OW 2674   0.423   0.324   2.266 -0.5128 -0.7066  0.9079
  892SOL    HW1 2675   0.414   0.410   2.213  1.6991 -0.4875 -1.4694
  892SOL    HW2 2676   0.497   0.332   2.342  1.3606 -1.7729 -0.2268
  893SOL     OW 2677   1.671   0.204   2.737 -0.4679 -0.2108  0.5402
  893SOL    HW1 2678   1.749   0.259   2.776 -0.0166 -1.7033 -1.5567
  893SOL    HW2 2679   1.587   0.256   2.708 -1.7981 -0.8184 -1.6317
  894SOL     OW 2680   2.173   2.061   0.086  0.1729 -0.0959  0.1585
  894SOL    HW1 2681   2.184   1.999   0.002 -1.4353 -1.6338 -1.1503
  894SOL    HW2 2682   2.173   2.008   0.176  2.1347 -2.7664  0.5395
  895SOL     OW 2683   2.790   1.431   0.901  0.1669 -0.5149 -0.5717
  895SOL    HW1 2684   2.881   1.383   0.910  0.5761  0.6188  1.9312
  895SOL    HW2 2685   2.796   1.536   0.928 -0.3327  1.6114 -1.8895
  896SOL     OW 2686   1.854   1.853   1.202  0.0506 -0.4081  0.0219
  896SOL    HW1 2687   1.865   1.751   1.212 -2.0840  0.4957 -1.7589
  896SOL    HW2 2688   1.782   1.875   1.129  0.0202 -0.0332  0.1854
  897SOL     OW 2689   0.287   0.567   3.051 -0.4482  0.0506  0.2378
  897SOL    HW1 2690   0.256   0.625   2.966 -1.1236  1.6240 -1.3135
  897SOL    HW2 2691   0.379   0.597   3.082  0.4811  1.8431 -1.0996
  898SOL     OW 2692   0.664   2.826   1.037 -0.2122  0.4413 -0.2296
  898SOL    HW1 2693   0.697   2.927   1.048 -0.8020  1.6984  3.7666
  898SOL    HW2 2694   0.707   2.771   1.118  1.6385  0.3600 -0.2916
  899SOL     OW 2695   2.804   0.861   1.395 -0.7614 -0.7305 -0.2531
  899SOL    HW1 2696   2.781   0.914   1.304 -1.6767  0.9200 -0.2400
  899SOL    HW2 2697   2.899   0.887   1.432 -1.2061  0.2969 -0.0729
  900SOL     OW 2698   0.999   2.474   2.512 -0.1647  0.4800 -0.6957
  900SOL    HW1 2699   0.926   2.468   2.441  0.7459  0.2685  4.3659
  900SOL    HW2 2700   0.969   2.410   2.590 -1.8771 -1.4571 -0.7248
  901SOL     OW 2701   1.914   2.437   1.372 -0.3415 -0.0543 -0.5031
  901SOL    HW1 2702   1.887   2.402   1.277 -0.0325  0.4799  0.4411
  901SOL    HW2 2703   2.005   2.412   1.409 -2.5643  0.2209 -0.4936
  902SOL     OW 2704   2.527   1.672   1.498  0.1279 -0.1622 -0.5628
  902SOL    HW1 2705   2.594   1.672   1.575  0.6069 -1.8870 -0.7562
  902SOL    HW2 2706   2.571   1.630   1.413  0.7255  2.6684 -1.9627
  903SOL     OW 2707   0.324   2.484   1.992 -0.3185  0.1529  0.0735
  903SOL    HW1 2708   0.246   2.415   1.998  2.6197 -2.4206  0.2247
  903SOL    HW2 2709   0.323   2.545   1.910  0.9865 -0.7229 -0.0011
  904SOL     OW 2710   1.991   0.783   2.562 -0.0203  0.0543  0.0402
  904SOL    HW1 2711   1.915   0.722   2.607  1.0441 -1.4446  2.4244
  904SOL    HW2 2712   2.013   0.763   2.464  0.4946  0.7949  0.8034
  905SOL     OW 2713   2.880   0.098   2.433  1.0232  0.3846  0.8280
  905SOL    HW1 2714   2.945   0.025   2.464  0.4458 -0.0013 -1.1717
  905SOL    HW2 2715   2.884   0.191   2.474  0.2718  1.6880  0.0362
  906SOL     OW 2716   0.165   1.661   1.880  0.6744 -0.4435 -0.2596
  906SOL    HW1 2717   0.103   1.713   1.819 -1.0025 -2.5227  0.4644
  906SOL    HW2 2718   0.250   1.619   1.847 -1.4959 -1.7911  0.2895
  907SOL     OW 2719   0.198   2.429   0.974  0.0886 -0.6500  0.0140
  907SOL    HW1 2720   0.281   2.383   0.934  0.0556  0.6854 -1.5369
  907SOL    HW2 2721   0.205   2.535   0.967  0.4383  0.6206  0.8031
  908SOL     OW 2722   2.828   3.070   0.285 -0.5347  0.3518  0.4377
  908SOL    HW1 2723   2.726   3.062   0.261 -0.0421  0.5692  0.1774
  908SOL    HW2 2724   2.884   2.985   0.302  0.2666  3.6598  0.0740
  909SOL     OW 2725   0.844   1.067   2.684 -0.1960  0.1299 -0.0053
  909SOL    HW1 2726   0.787   0.977   2.675 -1.8997 -0.9556 -0.4292
  909SOL    HW2 2727   0.905   1.076   2.601  0.6497  1.8699 -0.5223
  910SOL     OW 2728   1.768   1.865   2.167  0.1320  0.1610 -0.3019
  910SOL    HW1 2729   1.804   1.900   2.075 -1.4275 -0.0110  0.2492
  910SOL    HW2 2730   1.691   1.922   2.207  0.2938 -0.6394 -2.2208
  911SOL     OW 2731   1.806   2.974   1.547  0.4950 -0.2018  0.0525
  911SOL    HW1 2732   1.866   2.984   1.460  3.2270  0.5073 -1.5511
  911SOL    HW2 2733   1.821   2.887   1.600  1.3196  1.1534  0.5948
  912SOL     OW 2734   2.846   1.030   0.709 -0.0341  0.2183  0.2030
  912SOL    HW1 2735   2.877   0.999   0.804 -1.7585 -0.9577  0.4537
  912SOL    HW2 2736   2.771   1.098   0.721  1.8615  0.2062  0.1979
  913SOL     OW 2737   2.558   1.235   1.522 -0.3831 -0.2643  0.4006
  913SOL    HW1 2738   2.577   1.134   1.510  2.3696 -1.8009 -0.2444
  913SOL    HW2 2739   2.627   1.290   1.465 -0.3547 -2.3568 -1.5552
  914SOL     OW 2740   2.747   0.625   1.150 -0.7276  0.0035  0.6700
  914SOL    HW1 2741   2.773   0.535   1.193  1.0627  2.5104 -1.8164
  914SOL    HW2 2742   2.642   0.636   1.154 -1.3163  2.4449 -0.9521
  915SOL     OW 2743   1.228   0.763   1.026  0.0209  0.3295  0.7533
  915SOL    HW1 2744   1.267   0.787   1.120 -0.1900  0.5473  2.9974
  915SOL    HW2 2745   1.151   0.702   1.036  2.0806  1.5731  1.3975
  916SOL     OW 2746   0.580   0.093   0.642  0.8064 -0.0858 -0.4029
  916SOL    HW1 2747   0.640   0.153   0.700  1.0092 -0.9709  2.8299
  916SOL    HW2 2748   0.536   0.155   0.574  1.3318 -0.9455  1.9045
  917SOL     OW 2749   2.896   2.576   1.984  0.1745  0.3501 -0.3840
  917SOL    HW1 2750   2.804   2.612   1.940 -1.5543  0.9283  0.1638
  917SOL    HW2 2751   2.971   2.557   1.918  2.0562 -0.0006 -1.7006
  918SOL     OW 2752   1.029   2.060   3.001  0.6868  0.0456 -0.1963
  918SOL    HW1 2753   1.021   2.128   3.082  0.8563 -0.2983  0.4863
  918SOL    HW2 2754   1.114   2.078   2.944 -1.1869 -1.3840 -0.5762
  919SOL     OW 2755   0.842   1.698   2.801 -0.4778 -0.2114  0.8386
  919SOL    HW1 2756   0.897   1.773   2.751 -1.0607 -2.9526 -1.9330
  919SOL    HW2 2757   0.792   1.637   2.733 -1.5600 -0.2729  2.1973
  920SOL     OW 2758   1.265   1.769   2.552 -0.4517  0.2893  0.2794
  920SOL    HW1 2759   1.352   1.741   2.502  1.8624 -0.2777  0.7748
  920SOL    HW2 2760   1.253   1.707   2.635  3.4161 -0.4261  1.2839
  921SOL     OW 2761   1.124   0.002   2.634  0.6044 -0.2793 -0.4864
  921SOL    HW1 2762   1.095  -0.024   2.537  2.6917  1.1565  1.4009
  921SOL    HW2 2763   1.040   0.031   2.689 -2.8102  1.7721 -1.3955
  922SOL     OW 2764   2.170   2.382   2.772 -0.4405  0.0978  0.7966
  922SOL    HW1 2765   2.176   2.282   2.776 -0.5557 -0.3616 -0.4895
  922SOL    HW2 2766   2.148   2.407   2.674 -1.1748 -0.3815  2.4433
  923SOL     OW 2767   1.268   2.701   0.275 -0.1118 -0.1480  0.3474
  923SOL    HW1 2768   1.320   2.768   0.336  1.2168 -1.5018 -2.3128
  923SOL    HW2 2769   1.308   2.607   0.279 -0.6230  2.3748 -1.7205
  924SOL     OW 2770   2.897   1.668   0.139  0.1076  0.5257 -0.4729
  924SOL    HW1 2771   2.828   1.619   0.085  2.0280 -0.3558  0.4855
  924SOL    HW2 2772   2.986   1.614   0.136 -0.1479 -0.1272  2.2606
  925SOL     OW 2773   0.039   2.867   1.506 -0.4137 -0.3050 -0.3147
  925SOL    HW1 2774   0.025   2.815   1.593  3.5266 -0.2552 -1.4268
  925SOL    HW2 2775   0.013   2.816   1.418  0.3155  0.5759 -1.4927
  926SOL     OW 2776   1.302   2.835   1.333  0.4780  0.2094 -0.3984
  926SOL    HW1 2777   1.335   2.848   1.234  0.0881  1.6452 -4.0346
  926SOL    HW2 2778   1.348   2.895   1.408 -1.6388  1.7627  2.0457
  927SOL     OW 2779   0.338   2.643   1.745  0.1887  0.6721 -0.4188
  927SOL    HW1 2780   0.290   2.585   1.676  0.9078  2.8754 -0.0552
  927SOL    HW2 2781   0.325   2.743   1.724 -2.4856 -1.5597  1.7884
  928SOL     OW 2782   1.594   2.078   2.237  0.2896  0.3889 -0.1331
  928SOL    HW1 2783   1.620   2.160   2.173  3.2590  1.1359  0.6922
  928SOL    HW2 2784   1.495   2.051   2.229  2.5546 -1.7100 -1.6803
  929SOL     OW 2785   2.415   2.488   2.876  0.6479  0.2809  0.2516
  929SOL    HW1 2786   2.331   2.435   2.848 -0.6020  2.0746 -1.9045
  929SOL    HW2 2787   2.479   2.517   2.794 -0.4699 -1.0871 -0.2995
  930SOL     OW 2788   2.147   1.955   1.099 -0.2228 -0.2436 -0.3485
  930SOL    HW1 2789   2.128   1.909   1.190  0.8639 -0.9288 -0.3357
  930SOL    HW2 2790   2.203   2.038   1.104 -1.0296  1.2568  1.0770
  931SOL     OW 2791   0.526   1.745   2.625  0.1044  0.8093 -0.1149
  931SOL    HW1 2792   0.541   1.774   2.723 -2.5196 -0.9216  0.4112
  931SOL    HW2 2793   0.607   1.685   2.600  0.4407 -0.9866 -1.4956
  932SOL     OW 2794   0.350   0.086   3.098 -0.1370 -0.2979  0.1717
  932SOL    HW1 2795   0.445   0.123   3.116 -1.7811 -1.5809 -3.1294
  932SOL    HW2 2796   0.353  -0.011   3.060  1.8001 -0.1592  0.5242
  933SOL     OW 2797   0.939   0.837   2.994 -0.5612  0.2456 -0.1601
  933SOL    HW1 2798   0.941   0.812   3.097  2.5761 -1.1460  0.9039
  933SOL    HW2 2799   0.914   0.935   2.979 -3.4914 -0.1798  0.2042
  934SOL     OW 2800   0.745   2.964   2.698  0.3802  0.4119 -0.2349
  934SOL    HW1 2801   0.701   2.939   2.614  1.0844 -0.2928  1.9174
  934SOL    HW2 2802   0.809   2.888   2.732  0.5073  0.8694 -2.1205
  935SOL     OW 2803   0.039   0.535   0.834  0.0225 -0.0986  0.4465
  935SOL    HW1 2804   0.022   0.514   0.733 -2.1957  0.2373 -0.5484
  935SOL    HW2 2805  -0.041   0.589   0.875  1.1556 -1.8255 -1.7773
  936SOL     OW 2806   1.085   2.829   0.092 -0.4044  0.0660 -0.2700
  936SOL    HW1 2807   1.115   2.893   0.018 -1.2667 -0.5527 -0.5136
  936SOL    HW2 2808   1.161   2.773   0.139  2.8048 -0.1517 -0.8456
  937SOL     OW 2809   1.889   2.663   2.088  0.0995  0.4238  0.3858
  937SOL    HW1 2810   1.792   2.633   2.111 -0.0329 -0.7536  0.6240
  937SOL    HW2 2811   1.895   2.726   2.008 -0.8311 -1.8605 -0.6902
  938SOL     OW 2812   2.803   2.087   1.583 -0.4518  0.0315 -0.0230
  938SOL    HW1 2813   2.773   2.189   1.598 -1.1993 -0.6880  3.2915
  938SOL    HW2 2814   2.901   2.067   1.615  0.2309 -1.1873 -0.1611
  939SOL     OW 2815   2.785   1.230   2.443  0.0891 -0.4074 -0.2254
  939SOL    HW1 2816   2.854   1.211   2.370  0.8507 -1.5480 -0.7111
  939SOL    HW2 2817   2.808   1.189   2.534 -2.5448 -0.5245 -0.5824
  940SOL     OW 2818   1.046   0.471   2.764  0.5872  0.3734  0.3118
  940SOL    HW1 2819   1.117   0.397   2.781  0.8180  0.0110 -1.8167
  940SOL    HW2 2820   1.000   0.456   2.674  1.0169 -3.6922  0.5318
  941SOL     OW 2821   0.026   2.762   2.289  0.2951  0.2248  0.0334
  941SOL    HW1 2822   0.094   2.697   2.247  0.8506 -1.5716  0.7909
  941SOL    HW2 2823   0.075   2.851   2.325 -0.0371  2.4324  1.3741
  942SOL     OW 2824   0.100   0.088   2.561  0.4154 -0.4839  0.1698
  942SOL    HW1 2825   0.165   0.091   2.645  2.0517  2.5616  0.2467
  942SOL    HW2 2826   0.117   0.172   2.498 -1.1522  1.8159  2.0718
  943SOL     OW 2827   2.092   1.683   2.347 -0.1382 -0.4055  0.3257
  943SOL    HW1 2828   2.107   1.628   2.256 -1.6597 -2.4941  0.8502
  943SOL    HW2 2829   2.102   1.623   2.434 -0.9433 -3.6388  0.9438
  944SOL     OW 2830   2.165   2.389   1.467  0.2499  0.3280  0.0074
  944SOL    HW1 2831   2.260   2.401   1.495 -0.8572 -2.6468 -0.0158
  944SOL    HW2 2832   2.120   2.310   1.518  2.5801 -0.1373 -1.9118
  945SOL     OW 2833   0.703   1.575   0.078 -0.3116 -0.0705  0.7651
  945SOL    HW1 2834   0.605   1.606   0.054 -0.9953 -0.3704 -2.2151
  945SOL    HW2 2835   0.703   1.501   0.151 -1.7969 -1.3503 -0.1330
  946SOL     OW 2836   0.410   0.962   2.524 -0.5109 -0.0497  0.0417
  946SOL    HW1 2837   0.344   0.921   2.452  0.3044 -0.0435 -0.5326
  946SOL    HW2 2838   0.416   1.067   2.522  2.0182 -2.0410  0.3482
  947SOL     OW 2839   1.475   0.501   3.085  0.6367 -0.1469 -0.0696
  947SOL    HW1 2840   1.466   0.547   2.992  2.1987  2.0290 -0.6308
  947SOL    HW2 2841   1.384   0.453   3.113 -2.5492 -1.9381  1.0520
  948SOL     OW 2842   1.871   3.010   2.176 -0.3693 -0.7626  0.3383
  948SOL    HW1 2843   1.883   2.953   2.094  2.9126  0.3418  2.5414
  948SOL    HW2 2844   1.858   2.954   2.267 -0.8622 -0.1308  0.8246
  949SOL     OW 2845   0.607   2.462   0.476  0.6058  0.5522  0.6608
  949SOL    HW1 2846   0.612   2.565   0.451 -1.9090  2.3135 -3.0193
  949SOL    HW2 2847   0.629   2.442   0.578  0.8824 -0.8005 -0.4467
  950SOL     OW 2848   0.175   2.256   2.989  0.1745  0.1755  0.3838
  950SOL    HW1 2849   0.154   2.349   2.959 -2.0995  0.1160  2.9376
  950SOL    HW2 2850   0.154   2.185   2.918  0.0188  0.7459 -1.1097
  951SOL     OW 2851   1.167   2.632   2.782  0.2486 -0.2060 -0.3529
  951SOL    HW1 2852   1.229   2.595   2.858  2.7029 -1.3399 -0.1001
  951SOL    HW2 2853   1.218   2.647   2.694 -0.6519 -1.1062  0.4051
  952SOL     OW 2854   0.039   1.651   0.415 -0.3650 -0.3574  0.2606
  952SOL    HW1 2855   0.081   1.746   0.420  0.1058  4.4177 -0.6481
  952SOL    HW2 2856   0.089   1.581   0.474 -2.7740 -0.3484 -0.0379
  953SOL     OW 2857   2.559   1.762   0.230  0.2438 -0.7031 -1.3929
  953SOL    HW1 2858   2.552   1.658   0.254 -1.5740 -3.5068 -0.0492
  953SOL    HW2 2859   2.491   1.782   0.156 -0.6622 -1.8785  0.2595
  954SOL     OW 2860   2.182   0.600   0.941  0.6413  0.1341  0.2858
  954SOL    HW1 2861   2.185   0.572   0.840 -2.1970 -0.6238  2.1680
  954SOL    HW2 2862   2.268   0.602   0.993 -1.1627 -0.8559  0.6263
  955SOL     OW 2863   0.110   2.560   1.380  0.6297  0.4272  0.8530
  955SOL    HW1 2864   0.020   2.607   1.353  1.2551 -1.1480 -1.6457
  955SOL    HW2 2865   0.184   2.628   1.387 -0.2424 -1.5712  1.4875
  956SOL     OW 2866   2.795   2.465   2.515 -0.0017 -0.3136 -0.1582
  956SOL    HW1 2867   2.787   2.365   2.498  0.0099  1.6766  0.3669
  956SOL    HW2 2868   2.803   2.526   2.434  0.8149 -0.3945  0.6525
  957SOL     OW 2869   1.561   2.091   2.752 -0.1658  0.4142  1.0507
  957SOL    HW1 2870   1.511   2.009   2.787  0.7259  0.5720  0.8214
  957SOL    HW2 2871   1.656   2.059   2.715  0.3979 -0.2490 -1.5100
  958SOL     OW 2872   2.591   2.303   2.962 -0.2822 -0.3107  0.1732
  958SOL    HW1 2873   2.541   2.389   2.933 -0.4259 -3.1026  2.0828
  958SOL    HW2 2874   2.582   2.278   3.064  3.6800 -0.1892  1.3227
  959SOL     OW 2875   0.309   2.800   0.088 -0.0430  0.2566 -0.3667
  959SOL    HW1 2876   0.238   2.849   0.146  1.0582 -0.9846 -3.0867
  959SOL    HW2 2877   0.295   2.698   0.078  1.2376 -1.7087  1.2056
  960SOL     OW 2878   1.996   0.443   1.940  0.7090  0.3521 -0.3578
  960SOL    HW1 2879   1.940   0.524   1.902 -0.0244 -0.0555 -1.5892
  960SOL    HW2 2880   1.996   0.441   2.043 -0.8208 -1.3004 -0.0704
  961SOL     OW 2881   2.578   1.908   1.055  0.2477  0.6812 -0.2227
  961SOL    HW1 2882   2.582   2.005   1.011 -0.8388  2.2729  1.1087
  961SOL    HW2 2883   2.534   1.903   1.150 -1.0031  1.5156 -0.0106
  962SOL     OW 2884   1.333   0.899   0.082 -0.7032  0.5818  0.5199
  962SOL    HW1 2885   1.288   0.917  -0.013 -2.1188  1.2372 -1.8228
  962SOL    HW2 2886   1.323   0.985   0.148 -2.2600 -0.6816  0.9750
  963SOL     OW 2887   2.301   2.542   1.824  0.2062  0.1949  0.1055
  963SOL    HW1 2888   2.251   2.461   1.872 -0.8614 -4.5780 -1.4240
  963SOL    HW2 2889   2.301   2.621   1.886  0.7637 -2.0828  1.6488
  964SOL     OW 2890   2.372   0.367   1.653  0.5377 -0.3176  0.4807
  964SOL    HW1 2891   2.458   0.369   1.708 -1.3323  0.0607  0.5067
  964SOL    HW2 2892   2.393   0.381   1.553  0.1076  1.4818 -1.0537
  965SOL     OW 2893   2.581   2.982   0.178  0.4384 -0.0746 -0.2653
  965SOL    HW1 2894   2.651   2.991   0.106  0.3435  2.5046  0.6023
  965SOL    HW2 2895   2.491   3.012   0.141  1.3647  0.6701 -1.0753
  966SOL     OW 2896   2.525   2.542   2.219 -0.2107 -0.1336  0.7822
  966SOL    HW1 2897   2.581   2.625   2.239  1.4440 -2.0391  2.7903
  966SOL    HW2 2898   2.433   2.561   2.178  2.3345 -0.1453  1.2404
  967SOL     OW 2899   2.788   2.817   2.452  0.1904 -0.4023 -0.0977
  967SOL    HW1 2900   2.830   2.771   2.372 -0.5308 -3.4194  2.0851
  967SOL    HW2 2901   2.862   2.856   2.515  0.1506  0.5168  0.0183
  968SOL     OW 2902   1.946   1.065   2.621 -0.2798  0.0630  0.1298
  968SOL    HW1 2903   1.868   1.134   2.590 -2.7761  0.9006 -1.2588
  968SOL    HW2 2904   1.946   0.973   2.578  0.1134  1.3194 -1.5896
  969SOL     OW 2905   2.742   2.457   1.100  0.0037 -0.0007  0.3455
  969SOL    HW1 2906   2.735   2.462   0.997 -0.4536 -2.6396  1.6439
  969SOL    HW2 2907   2.817   2.392   1.133 -0.5743 -0.6293  1.4724
  970SOL     OW 2908   1.093   2.108   1.860 -0.1826  0.0903  0.4328
  970SOL    HW1 2909   1.016   2.087   1.795  3.6690 -3.0904  1.0478
  970SOL    HW2 2910   1.060   2.139   1.955 -0.1097  1.1887  1.1620
  971SOL     OW 2911   2.897   2.059   2.026 -0.0947 -0.3497  0.4964
  971SOL    HW1 2912   2.907   2.155   2.057 -1.0665 -0.9630  1.5423
  971SOL    HW2 2913   2.939   2.041   1.937 -0.5697  0.5593  1.3309
  972SOL     OW 2914   1.977   2.490   0.241  0.1500  0.4160 -0.5980
  972SOL    HW1 2915   1.987   2.395   0.203 -2.3242 -1.6907  2.3626
  972SOL    HW2 2916   1.970   2.485   0.347 -1.1773  0.0213  1.5183
  973SOL     OW 2917   1.241   0.930   1.860  0.3241  0.5478  0.3166
  973SOL    HW1 2918   1.179   0.846   1.862  1.4584 -0.8302  2.0809
  973SOL    HW2 2919   1.181   1.015   1.859 -3.2170  1.1483 -0.3435
  974SOL     OW 2920   1.601   0.589   1.906 -1.2239  0.3221 -0.1221
  974SOL    HW1 2921   1.703   0.612   1.888 -1.9922 -0.2846  0.4447
  974SOL    HW2 2922   1.542   0.677   1.927  1.6647 -0.8475  1.2464
  975SOL     OW 2923   2.348   3.055   0.019  0.1491  0.2716  0.3179
  975SOL    HW1 2924   2.309   2.961   0.044 -0.0693 -1.1712  0.0610
  975SOL    HW2 2925   2.314   3.095  -0.072 -0.3698  2.5608  0.7303
  976SOL     OW 2926   1.869   2.841   2.370 -0.2339 -0.1505 -0.3726
  976SOL    HW1 2927   1.790   2.773   2.354 -0.2486  0.8990  0.6492
  976SOL    HW2 2928   1.921   2.809   2.453 -2.1497  2.5964 -0.4672
  977SOL     OW 2929   0.532   0.594   0.968 -0.0893  0.0039 -0.0310
  977SOL    HW1 2930   0.436   0.612   0.929  4.5844  0.7125  3.0910
  977SOL    HW2 2931   0.589   0.681   0.976  0.2770 -1.3693 -1.7875
   3.10000   3.10000   3.10000
