1000 SPC/Fw water molecules t=   0.07000 step= 70
 2931
    1SOL     OW    1   2.514   0.401   2.586  0.2750 -0.3974  0.5696
    1SOL    HW1    2   2.490   0.303   2.569 -3.3772 -1.1070 -0.7661
    1SOL    HW2    3   2.596   0.412   2.646 -0.3314 -2.8794  0.7246
    2SOL     OW    4   2.728   3.000   1.434  0.1142  0.6878 -0.1685
    2SOL    HW1    5   2.820   3.036   1.395 -0.2418 -1.2928  1.2255
    2SOL    HW2    6   2.680   3.073   1.488 -1.0716  1.2771  0.4007
    3SOL     OW    7   2.707   2.627   0.426 -0.5082 -0.3589 -0.3702
    3SOL    HW1    8   2.642   2.555   0.456 -0.6655  1.8420  1.0239
    3SOL    HW2    9   2.778   2.634   0.498 -2.4282 -1.6716  0.8334
    4SOL     OW   10   1.316   1.438   2.329 -0.0005  0.0978 -0.3449
    4SOL    HW1   11   1.255   1.523   2.316  2.0454  0.2308  1.4546
    4SOL    HW2   12   1.284   1.377   2.410  0.2981  0.3733  0.7704
    5SOL     OW   13   1.188   1.488   3.047  0.2324  0.0966  0.6930
    5SOL    HW1   14   1.231   1.574   3.087 -1.4117 -0.5840  0.0864
    5SOL    HW2   15   1.090   1.480   3.076  2.1012  0.3597 -1.4743
    6SOL     OW   16   0.146   1.889   2.948 -0.2120 -0.6887  0.3421
    6SOL    HW1   17   0.190   1.956   3.013 -0.6412  0.8791 -1.4872
    6SOL    HW2   18   0.101   1.803   2.997 -2.4435 -0.8880 -0.5776
    7SOL     OW   19   2.601   0.826   1.185  0.0464 -0.9337 -0.6005
    7SOL    HW1   20   2.587   0.748   1.255 -1.4978  2.4416  3.1549
    7SOL    HW2   21   2.572   0.805   1.088  1.6570  1.3396 -1.5171
    8SOL     OW   22   0.447   0.679   1.566  0.0226 -0.2006 -1.0247
    8SOL    HW1   23   0.501   0.601   1.613 -0.2617  0.8716  2.8240
    8SOL    HW2   24   0.440   0.673   1.463  1.4217  0.8534  1.2677
    9SOL     OW   25   1.142   0.899   2.267  0.2958  0.1409  0.2766
    9SOL    HW1   26   1.197   0.977   2.224 -2.6511 -0.3773 -0.7724
    9SOL    HW2   27   1.062   0.865   2.201 -2.8473 -2.0626 -0.4642
   10SOL     OW   28   0.620   1.367   1.320 -0.3513 -0.0940 -0.4174
   10SOL    HW1   29   0.571   1.386   1.225  1.5702  0.3943 -1.9163
   10SOL    HW2   30   0.708   1.418   1.324  0.9043 -2.9431 -1.2619
   11SOL     OW   31   2.318   2.552   0.909 -0.2667  0.3518  0.3218
   11SOL    HW1   32   2.340   2.593   1.000 -0.7261  0.4249 -1.1164
   11SOL    HW2   33   2.342   2.449   0.905 -1.3694 -2.1168 -0.3441
   12SOL     OW   34   1.411   0.903   0.485 -0.4838 -0.5746 -0.0660
   12SOL    HW1   35   1.460   0.946   0.409 -1.1078  1.4273  0.7406
   12SOL    HW2   36   1.379   0.807   0.464 -1.7744 -0.2567  0.1901
   13SOL     OW   37   2.447   0.674   1.777  0.2544 -0.7176 -0.2044
   13SOL    HW1   38   2.368   0.655   1.843 -2.6763  0.8880 -2.2313
   13SOL    HW2   39   2.443   0.622   1.691  1.8973 -0.1516  1.0705
   14SOL     OW   40   1.793   0.019   0.540  0.3442 -0.5068  0.1850
   14SOL    HW1   41   1.691   0.005   0.520  0.9972 -2.2047 -0.4246
   14SOL    HW2   42   1.811   0.055   0.638 -0.5899  0.6736  0.7748
   15SOL     OW   43   1.967   2.056   2.807 -0.3284  0.0143  0.3047
   15SOL    HW1   44   1.893   2.101   2.866  2.1351 -0.2714  1.7209
   15SOL    HW2   45   1.931   1.982   2.747 -1.2484  1.2400 -1.6198
   16SOL     OW   46   1.564   1.670   0.021 -0.0083  1.0187  0.4749
   16SOL    HW1   47   1.607   1.605  -0.048 -3.4354  0.5665  2.0741
   16SOL    HW2   48   1.599   1.658   0.118 -0.9033  1.2800  0.1772
   17SOL     OW   49   0.089   0.454   0.157  0.5955 -0.8864  0.5689
   17SOL    HW1   50   0.164   0.493   0.099  3.6991 -2.1237  0.2721
   17SOL    HW2   51  -0.005   0.461   0.120 -1.1002 -0.4250 -0.1089
   18SOL     OW   52   1.090   2.886   2.153  0.4423  0.2347  0.3827
   18SOL    HW1   53   1.034   2.845   2.078 -1.4120  0.0141 -0.9064
   18SOL    HW2   54   1.185   2.920   2.122  0.3445  0.8696 -0.4336
   19SOL     OW   55   0.589   1.010   1.959  0.0322 -0.6592 -0.2998
   19SOL    HW1   56   0.516   0.997   2.029 -0.4085  1.8106 -1.1481
   19SOL    HW2   57   0.633   0.921   1.937 -2.2658 -1.4349  1.6634
   20SOL     OW   58   0.266   2.739   0.852  0.1302  0.8652 -0.2393
   20SOL    HW1   59   0.189   2.802   0.827  0.7678 -1.8742 -0.7310
   20SOL    HW2   60   0.313   2.708   0.766 -0.1431  1.8554 -0.1473
   21SOL     OW   61   2.830   0.214   2.143  0.0407 -0.5608  0.5642
   21SOL    HW1   62   2.905   0.178   2.079 -1.4577 -0.2710  0.2095
   21SOL    HW2   63   2.844   0.170   2.236  1.9179  0.5019 -2.4560
   22SOL     OW   64   2.351   0.189   0.076 -0.1789  0.6890 -0.0739
   22SOL    HW1   65   2.353   0.088   0.049  0.7920 -2.3584 -1.5183
   22SOL    HW2   66   2.260   0.229   0.053  0.8957  2.8309 -2.3716
   23SOL     OW   67   2.760   0.662   0.694  0.3522  0.3594  0.1175
   23SOL    HW1   68   2.713   0.572   0.668  1.6300 -3.2739 -1.9197
   23SOL    HW2   69   2.759   0.723   0.608 -1.3720 -0.3507 -1.2925
   24SOL     OW   70   0.150   1.879   0.446  0.5770  0.5692  0.6321
   24SOL    HW1   71   0.054   1.894   0.399  0.2182  0.1180  0.2573
   24SOL    HW2   72   0.233   1.890   0.384 -1.3736 -0.1556  0.2610
   25SOL     OW   73   2.262   0.513   0.188 -0.0295 -0.4123 -0.3725
   25SOL    HW1   74   2.329   0.468   0.260 -1.8832  1.6727 -1.1831
   25SOL    HW2   75   2.264   0.461   0.096 -0.2928  0.5190  2.2920
   26SOL     OW   76   2.550   2.168   2.066  0.7901  0.3670  0.1992
   26SOL    HW1   77   2.616   2.220   2.124  0.6201  1.6062  0.6849
   26SOL    HW2   78   2.603   2.100   2.007  1.4361  1.3054 -0.1407
   27SOL     OW   79   0.674   2.986   0.128  0.1571 -0.3651 -0.1408
   27SOL    HW1   80   0.760   3.022   0.081  1.0513  1.2170 -1.5271
   27SOL    HW2   81   0.591   2.990   0.070  3.1919  0.0748 -2.7470
   28SOL     OW   82   1.459   0.236   0.198 -0.2729  0.3452  0.1946
   28SOL    HW1   83   1.559   0.203   0.177  3.6513  0.0423 -0.5521
   28SOL    HW2   84   1.465   0.336   0.226  2.7367 -1.4807 -0.2006
   29SOL     OW   85   2.023   0.587   0.309  0.1789  0.5791 -0.4294
   29SOL    HW1   86   2.040   0.687   0.328  0.0283  1.7648 -0.4819
   29SOL    HW2   87   2.107   0.533   0.298 -2.1919  0.7982  3.1459
   30SOL     OW   88   0.199   2.059   0.904  0.6336  0.3357  0.2211
   30SOL    HW1   89   0.143   2.018   0.825  0.1218  2.2890  0.0831
   30SOL    HW2   90   0.126   2.100   0.970  0.1636 -3.2183 -1.6429
   31SOL     OW   91   2.090   0.039   2.325 -0.6062  0.7035 -0.3232
   31SOL    HW1   92   2.058   0.035   2.422 -1.2547 -0.4685 -1.8561
   31SOL    HW2   93   2.034  -0.026   2.266 -0.8942  0.6667  1.9510
   32SOL     OW   94   2.997   0.117   0.237 -0.1584  0.2461 -0.0044
   32SOL    HW1   95   2.991   0.069   0.327 -0.8771  1.2105 -0.8157
   32SOL    HW2   96   3.073   0.086   0.173 -1.0919 -1.0615 -3.1779
   33SOL     OW   97   0.968   0.324   0.444 -0.2492 -0.1411 -0.1555
   33SOL    HW1   98   0.923   0.226   0.438  1.7600  1.2817 -1.2712
   33SOL    HW2   99   1.035   0.343   0.520  1.3295  2.7374 -0.4947
   34SOL     OW  100   0.382   2.882   1.043  0.6716 -0.3997  0.2273
   34SOL    HW1  101   0.343   2.818   0.966 -0.8589 -1.8093  1.8559
   34SOL    HW2  102   0.479   2.861   1.071 -0.1765  0.4330  3.1429
   35SOL     OW  103   0.040   3.097   1.806  0.0145  0.1391  0.5572
   35SOL    HW1  104   0.032   2.997   1.808 -4.6134 -0.2827  1.5291
   35SOL    HW2  105  -0.000   3.137   1.719  2.0376  2.2468 -2.1166
   36SOL     OW  106   1.895   1.159   1.785 -0.0198 -0.1764 -0.0137
   36SOL    HW1  107   1.936   1.107   1.707  0.8365 -2.2056 -0.0431
   36SOL    HW2  108   1.937   1.255   1.794  2.4385  3.5638  2.6727
   37SOL     OW  109   1.119   0.322   1.011 -0.2206 -0.1767  0.0853
   37SOL    HW1  110   1.115   0.365   1.102  1.3615 -1.8922 -0.6457
   37SOL    HW2  111   1.207   0.269   0.990 -2.1049 -1.8228 -1.2481
   38SOL     OW  112   1.150   2.710   2.351 -0.6599  0.1323  0.6804
   38SOL    HW1  113   1.072   2.652   2.392  3.4525  1.5628  0.5147
   38SOL    HW2  114   1.115   2.777   2.275  0.0534  1.7347 -1.2785
   39SOL     OW  115   2.420   1.509   3.077 -0.4814 -0.2388 -0.8266
   39SOL    HW1  116   2.455   1.420   3.051 -0.6838  0.1545 -0.8151
   39SOL    HW2  117   2.361   1.507   3.159  0.8779  0.4219 -1.1064
   40SOL     OW  118   2.049   2.495   2.594  0.0574 -0.0793 -0.7788
   40SOL    HW1  119   1.984   2.562   2.627  0.0529  0.9654 -0.2355
   40SOL    HW2  120   2.017   2.445   2.511 -2.8088 -2.8215 -2.1130
   41SOL     OW  121   2.939   0.717   2.746 -0.7155 -0.2251  0.4694
   41SOL    HW1  122   2.847   0.751   2.773  0.4280 -4.0301  0.1128
   41SOL    HW2  123   2.938   0.621   2.709 -0.2383  2.5938  1.7700
   42SOL     OW  124   1.700   1.747   0.588  0.1212  0.7107 -0.0496
   42SOL    HW1  125   1.650   1.675   0.530 -0.7500 -1.8289  0.6042
   42SOL    HW2  126   1.759   1.812   0.533  2.1408 -3.6527  0.1245
   43SOL     OW  127   0.475   1.747   1.204  0.7444  0.0073 -0.0096
   43SOL    HW1  128   0.427   1.713   1.291 -1.4433  0.2841 -0.9489
   43SOL    HW2  129   0.406   1.756   1.127 -0.4234 -0.5080  0.4015
   44SOL     OW  130   1.756   2.451   0.022  0.4258  0.0954  0.5625
   44SOL    HW1  131   1.794   2.526  -0.041 -4.2630  0.8145 -3.3226
   44SOL    HW2  132   1.808   2.453   0.110 -2.3311 -1.2618 -1.1628
   45SOL     OW  133   0.375   1.883   2.547  0.3761 -0.1861 -0.4464
   45SOL    HW1  134   0.310   1.899   2.472 -0.6419 -1.7274 -1.8450
   45SOL    HW2  135   0.438   1.802   2.536  1.7824 -0.3122 -0.5339
   46SOL     OW  136   1.182   0.677   0.180 -0.4440 -0.2305  0.7986
   46SOL    HW1  137   1.228   0.756   0.129  3.2545 -1.6658 -0.5274
   46SOL    HW2  138   1.078   0.689   0.188 -3.2880 -2.8355 -1.3973
   47SOL     OW  139   0.230   2.430   1.584 -0.1049  0.7429  0.4562
   47SOL    HW1  140   0.319   2.377   1.576  2.5564 -1.9125 -1.0929
   47SOL    HW2  141   0.212   2.490   1.502  1.6704 -1.0588  3.3180
   48SOL     OW  142   2.636   0.552   0.100 -0.6437 -0.3051 -0.2245
   48SOL    HW1  143   2.593   0.616   0.179 -2.6191  1.1283 -1.9056
   48SOL    HW2  144   2.714   0.604   0.056  0.7168  0.1913 -0.0213
   49SOL     OW  145   0.355   0.849   1.768 -0.1301 -0.6959  0.1460
   49SOL    HW1  146   0.434   0.894   1.813  1.2476  0.7053  0.5681
   49SOL    HW2  147   0.380   0.771   1.708 -1.2620  0.0706  0.3512
   50SOL     OW  148   1.724   1.084   0.281  0.9095  0.3164  0.2963
   50SOL    HW1  149   1.712   0.982   0.270  0.0006  2.2189  1.4680
   50SOL    HW2  150   1.711   1.106   0.377  2.7209  0.4152 -0.3277
   51SOL     OW  151   2.989   1.888   0.348 -0.2242 -0.0378  0.5143
   51SOL    HW1  152   3.012   1.942   0.265  1.4236  0.2108  0.1454
   51SOL    HW2  153   2.945   1.800   0.323  1.2268 -0.9157  1.6040
   52SOL     OW  154   0.813   1.905   0.481  0.0334  0.9256  0.1915
   52SOL    HW1  155   0.759   1.983   0.520  3.5222  0.1286  0.1908
   52SOL    HW2  156   0.845   1.836   0.548  0.9948 -0.3538 -0.3152
   53SOL     OW  157   3.098   0.387   1.527 -0.3537  0.0975 -0.2477
   53SOL    HW1  158   3.051   0.376   1.615  2.4521  0.3786  1.1252
   53SOL    HW2  159   3.094   0.488   1.498  0.0347 -1.8457  1.7286
   54SOL     OW  160   1.773   0.484   3.005  0.1783  0.3570 -0.0330
   54SOL    HW1  161   1.799   0.426   3.089  1.5086 -1.4743  1.9725
   54SOL    HW2  162   1.672   0.487   2.995 -1.0965  3.5493 -0.1028
   55SOL     OW  163   0.692   2.922   0.656  0.1266  0.3636  0.3151
   55SOL    HW1  164   0.674   3.012   0.714  3.2553  1.1929 -0.0541
   55SOL    HW2  165   0.777   2.933   0.605 -2.0778  2.0631  0.3884
   56SOL     OW  166   0.491   1.547   3.089  0.3970  0.1514  0.4428
   56SOL    HW1  167   0.409   1.593   3.132  0.2926 -0.9489 -1.2917
   56SOL    HW2  168   0.460   1.461   3.037  0.0780 -1.3914 -4.2509
   57SOL     OW  169   1.760   2.386   2.671  0.3912  0.0898 -0.1600
   57SOL    HW1  170   1.842   2.378   2.607  0.7257  2.3178 -2.4320
   57SOL    HW2  171   1.679   2.350   2.621  2.6515 -2.6234 -0.3678
   58SOL     OW  172   0.645   0.482   1.101 -0.1669  0.2192 -0.1280
   58SOL    HW1  173   0.598   0.551   1.038  0.8294 -2.9504  0.3039
   58SOL    HW2  174   0.589   0.397   1.087 -0.8233  2.1285 -1.0904
   59SOL     OW  175   0.470   2.389   2.687 -0.1644 -0.0105 -0.7905
   59SOL    HW1  176   0.468   2.288   2.688 -3.2591 -0.6866 -0.0512
   59SOL    HW2  177   0.529   2.421   2.760  0.4221 -1.3251  0.7234
   60SOL     OW  178   2.321   2.171   2.254  0.4143  0.3002  0.0368
   60SOL    HW1  179   2.399   2.170   2.187 -1.2580  1.1633 -1.6464
   60SOL    HW2  180   2.351   2.187   2.348 -0.7564  0.0401 -0.5794
   61SOL     OW  181   1.341   0.655   0.426 -0.0608  0.0466 -0.4203
   61SOL    HW1  182   1.245   0.667   0.461 -0.2659 -0.1319 -2.2013
   61SOL    HW2  183   1.341   0.648   0.323  2.7211 -1.8450 -1.7048
   62SOL     OW  184   2.721   1.885   3.085 -0.5257  0.4365  0.5998
   62SOL    HW1  185   2.742   1.785   3.095  0.3977  0.7769 -0.6397
   62SOL    HW2  186   2.735   1.916   2.988  3.0794 -1.9273  1.1450
   63SOL     OW  187   0.553   0.810   0.140 -0.7794 -0.1381  0.1578
   63SOL    HW1  188   0.518   0.902   0.112 -1.8864 -2.5597  0.0678
   63SOL    HW2  189   0.624   0.814   0.214  1.4792 -0.0674 -1.4566
   64SOL     OW  190   0.067   0.558   2.496  0.1892  0.1900  0.5271
   64SOL    HW1  191   0.125   0.605   2.564 -1.1863 -1.0103  0.1667
   64SOL    HW2  192   0.026   0.614   2.418 -2.6753  0.0432 -1.4778
   65SOL     OW  193   0.172   1.492   0.604  0.0484 -0.2691  0.0545
   65SOL    HW1  194   0.198   1.568   0.672 -0.3620  1.6378 -2.7101
   65SOL    HW2  195   0.252   1.471   0.542 -0.7724 -0.2069 -2.4164
   66SOL     OW  196   2.469   0.334   0.638 -0.2101 -0.2190  0.9099
   66SOL    HW1  197   2.392   0.404   0.655 -1.5895 -0.2307  0.4358
   66SOL    HW2  198   2.443   0.236   0.662  1.5071  1.3665 -2.3846
   67SOL     OW  199   0.467   2.575   1.301  0.0180  0.5380  0.2631
   67SOL    HW1  200   0.568   2.576   1.339 -1.0311 -0.5255 -1.0279
   67SOL    HW2  201   0.424   2.478   1.305  0.1230 -1.2497  0.5436
   68SOL     OW  202   0.997   1.101   2.395  0.7407  0.1060  0.0502
   68SOL    HW1  203   1.017   1.014   2.339 -3.9311 -0.9619 -0.9590
   68SOL    HW2  204   0.924   1.162   2.350 -0.5355 -2.2157 -2.4648
   69SOL     OW  205   0.777   2.722   2.162  0.0413 -0.0629 -1.1657
   69SOL    HW1  206   0.834   2.634   2.165 -1.1766  0.9553  1.9885
   69SOL    HW2  207   0.677   2.708   2.186 -2.3086 -0.6054  1.7650
   70SOL     OW  208   0.568   0.219   2.704  0.7113 -0.1375  0.3007
   70SOL    HW1  209   0.576   0.247   2.803 -0.7364 -2.6513  1.5779
   70SOL    HW2  210   0.493   0.149   2.690  0.4292  1.3408 -0.5915
   71SOL     OW  211   1.116   1.792   0.360  0.0867  0.7386 -0.0202
   71SOL    HW1  212   1.079   1.695   0.346  2.0767  2.6061  1.9864
   71SOL    HW2  213   1.095   1.855   0.279 -0.8642 -0.1056 -1.2176
   72SOL     OW  214   1.771   0.085   2.083  0.0147 -0.9129  0.3347
   72SOL    HW1  215   1.842   0.139   2.026 -0.5898 -1.4165  0.6147
   72SOL    HW2  216   1.805  -0.007   2.105 -3.0150  0.2534 -0.5730
   73SOL     OW  217   2.855   2.213   2.501  0.1896  0.6548  0.6230
   73SOL    HW1  218   2.861   2.125   2.441 -1.4284 -0.9299 -1.2269
   73SOL    HW2  219   2.882   2.196   2.599 -1.3204  1.2169  0.1126
   74SOL     OW  220   2.712   2.970   2.090  0.3490  0.2166 -0.5990
   74SOL    HW1  221   2.654   2.946   2.173 -2.1414  1.8891 -3.0184
   74SOL    HW2  222   2.808   2.935   2.101  3.0922  1.8197  0.5526
   75SOL     OW  223   0.920   0.758   0.953 -0.0774 -0.3006  0.0153
   75SOL    HW1  224   0.832   0.813   0.928  2.0233 -2.3169  0.4888
   75SOL    HW2  225   0.979   0.805   1.026  1.1747 -0.5140  0.7556
   76SOL     OW  226   1.739   1.243   2.577 -0.2483 -0.1113  0.6328
   76SOL    HW1  227   1.640   1.215   2.562  0.9062  0.9259  0.5054
   76SOL    HW2  228   1.747   1.317   2.648 -1.8451 -1.3642 -0.5554
   77SOL     OW  229   2.987   1.008   1.000  0.2459  0.2532 -0.5213
   77SOL    HW1  230   3.008   0.907   0.982 -0.4405  0.5849 -2.1394
   77SOL    HW2  231   3.058   1.050   1.064 -2.4781  0.7896 -0.2005
   78SOL     OW  232   1.980   1.399   1.447 -0.0338  0.0680  0.1195
   78SOL    HW1  233   2.050   1.400   1.370  0.2676  0.8022  1.4511
   78SOL    HW2  234   1.882   1.380   1.416 -3.1549  1.6828  3.2954
   79SOL     OW  235   0.628   1.277   0.839  0.0667 -0.1092  0.3362
   79SOL    HW1  236   0.533   1.324   0.826  1.6501 -0.1943  1.9564
   79SOL    HW2  237   0.645   1.212   0.761 -1.5978  0.8465 -0.8651
   80SOL     OW  238   0.647   0.493   1.608 -0.1805 -0.5227 -0.0403
   80SOL    HW1  239   0.700   0.558   1.549 -0.9498 -1.8133 -0.8458
   80SOL    HW2  240   0.645   0.398   1.574 -3.5026  0.5678  3.9513
   81SOL     OW  241   1.114   1.455   2.600 -0.0860 -0.2580 -0.2562
   81SOL    HW1  242   1.072   1.395   2.673 -1.4291 -0.8211 -0.5380
   81SOL    HW2  243   1.090   1.437   2.500  0.9105  0.2105  0.7106
   82SOL     OW  244   0.900   3.018   1.530  0.0952  0.0931  0.0268
   82SOL    HW1  245   0.973   2.956   1.499 -1.1831  0.7049  1.4978
   82SOL    HW2  246   0.815   2.965   1.548  1.1808  2.9611 -0.8718
   83SOL     OW  247   2.740   2.418   0.817  0.4831 -0.3083  0.7665
   83SOL    HW1  248   2.646   2.397   0.775  2.7328  1.3205  0.3565
   83SOL    HW2  249   2.793   2.499   0.778 -0.3877  1.5897 -1.8506
   84SOL     OW  250   0.654   0.012   2.411  0.0588  0.0225  0.0840
   84SOL    HW1  251   0.574   0.017   2.476 -1.4422  1.5589 -0.6206
   84SOL    HW2  252   0.744  -0.029   2.455  0.1075 -0.2421  0.7070
   85SOL     OW  253   0.347   1.650   1.466  0.1982  0.6037 -0.1582
   85SOL    HW1  254   0.308   1.746   1.488  0.0211 -2.7193  1.8327
   85SOL    HW2  255   0.356   1.587   1.553  1.5176  1.1501  1.5675
   86SOL     OW  256   0.356   1.012   1.488  0.1460  0.9302  0.0740
   86SOL    HW1  257   0.308   0.960   1.414 -0.2851  1.7029 -0.9069
   86SOL    HW2  258   0.428   0.960   1.538  0.4129  1.2397 -0.0278
   87SOL     OW  259   1.555   0.567   0.197  0.3662  0.6028 -0.1458
   87SOL    HW1  260   1.581   0.667   0.218 -0.3039  0.7732 -1.7756
   87SOL    HW2  261   1.507   0.554   0.105  0.5021  0.9785  0.5007
   88SOL     OW  262   1.619   1.317   0.206  0.1037 -0.8965 -0.4852
   88SOL    HW1  263   1.662   1.232   0.245 -2.8958  1.0173  3.1098
   88SOL    HW2  264   1.515   1.311   0.212  0.5522  1.1738  1.0633
   89SOL     OW  265   2.992   0.422   0.586 -0.1939 -0.2467 -0.2910
   89SOL    HW1  266   3.053   0.354   0.647  0.4444  0.8460 -1.0534
   89SOL    HW2  267   2.890   0.395   0.592 -2.5482  1.0136  0.8083
   90SOL     OW  268   0.870   1.628   3.071  0.9931 -0.0400 -0.5192
   90SOL    HW1  269   0.802   1.644   3.146 -0.0023  0.3304 -1.4663
   90SOL    HW2  270   0.824   1.638   2.978  0.2935  0.3581 -0.2699
   91SOL     OW  271   1.245   1.367   1.818 -0.2840  0.4381  0.1451
   91SOL    HW1  272   1.276   1.453   1.868 -1.6701  1.0583 -1.1453
   91SOL    HW2  273   1.311   1.326   1.751  1.2546  0.0068 -1.5214
   92SOL     OW  274   0.079   1.089   1.199 -0.0921 -0.2027 -0.4647
   92SOL    HW1  275   0.177   1.101   1.157  1.1864 -2.1675 -2.0399
   92SOL    HW2  276   0.078   1.036   1.290 -2.0006 -1.5339  2.6701
   93SOL     OW  277   0.110   2.833   3.054 -0.3965  0.2145  0.3813
   93SOL    HW1  278   0.012   2.855   3.035  0.4150  1.8043  1.4770
   93SOL    HW2  279   0.129   2.743   3.096 -1.1727  2.1607  2.1351
   94SOL     OW  280   1.513   1.279   1.673  0.3218  0.7208 -0.2713
   94SOL    HW1  281   1.548   1.204   1.734  2.2065  2.1792 -0.8284
   94SOL    HW2  282   1.556   1.374   1.683 -1.1801 -0.5194  1.9698
   95SOL     OW  283   1.408   2.486   2.909 -0.5039 -0.5092 -0.3309
   95SOL    HW1  284   1.368   2.459   2.999  3.3338  0.8233  1.5478
   95SOL    HW2  285   1.446   2.406   2.858  1.1216 -2.2900  0.0511
   96SOL     OW  286   0.517   2.028   1.235 -0.3646 -0.1900 -0.2069
   96SOL    HW1  287   0.481   2.060   1.143 -1.6206 -2.0368 -0.9239
   96SOL    HW2  288   0.522   1.925   1.248  1.1603 -0.9371 -1.2914
   97SOL     OW  289   0.298   1.436   2.457 -0.3790 -0.2831 -0.0166
   97SOL    HW1  290   0.224   1.384   2.511 -2.0697 -0.0576  1.1100
   97SOL    HW2  291   0.352   1.499   2.523  0.5053  1.3771  2.8329
   98SOL     OW  292   2.105   1.653   1.253 -0.8368 -0.1193  0.1549
   98SOL    HW1  293   2.100   1.550   1.223 -0.2510  1.5276  1.0058
   98SOL    HW2  294   2.184   1.670   1.316 -2.1531 -2.8955  2.0349
   99SOL     OW  295   2.514   2.173   1.364 -0.6834 -0.3702 -0.8400
   99SOL    HW1  296   2.434   2.153   1.429 -1.6736  1.1906  0.1943
   99SOL    HW2  297   2.609   2.165   1.404 -0.1883 -4.0669  0.6496
  100SOL     OW  298   2.283   0.400   2.068  0.1598  0.4240 -0.1924
  100SOL    HW1  299   2.231   0.361   2.148  1.6263  0.7679 -1.0365
  100SOL    HW2  300   2.388   0.402   2.089  2.9193  2.4159  2.6480
  101SOL     OW  301   0.408   1.416   0.246  0.3579  0.0474  1.0577
  101SOL    HW1  302   0.432   1.445   0.342 -1.8463  0.2231 -0.4971
  101SOL    HW2  303   0.426   1.490   0.174  0.8036 -1.6181 -1.8762
  102SOL     OW  304   2.237   1.102   0.870 -0.1096 -0.9470 -0.5560
  102SOL    HW1  305   2.172   1.041   0.816  1.0098  0.6336 -1.7310
  102SOL    HW2  306   2.290   1.170   0.811  0.3323  2.5705  0.6904
  103SOL     OW  307   2.282   0.085   0.393 -0.2049 -0.3363 -0.0735
  103SOL    HW1  308   2.348   0.169   0.378  2.1389  0.9616  1.2604
  103SOL    HW2  309   2.323   0.006   0.449  2.0479  0.7809 -1.5781
  104SOL     OW  310   0.089   1.855   2.146 -0.2490 -0.2596 -0.7618
  104SOL    HW1  311   0.133   1.808   2.065  0.3703  0.3347  5.0025
  104SOL    HW2  312  -0.011   1.872   2.126  0.1322  1.2272  0.5427
  105SOL     OW  313   1.084   1.964   0.813  0.4003 -0.1333  0.0608
  105SOL    HW1  314   1.045   2.047   0.760  0.2761 -0.0946 -1.7487
  105SOL    HW2  315   1.058   1.873   0.771  0.8480 -0.6417 -0.1236
  106SOL     OW  316   2.060   0.500   1.337 -0.4650 -0.2683 -0.5889
  106SOL    HW1  317   2.042   0.422   1.400  2.6421 -0.1832  0.3567
  106SOL    HW2  318   2.056   0.587   1.390 -0.9009 -0.5369  0.2223
  107SOL     OW  319   1.847   3.003   1.132 -0.4303  0.0625  0.1257
  107SOL    HW1  320   1.853   3.092   1.184 -1.0681 -1.2914  0.2480
  107SOL    HW2  321   1.796   2.925   1.181 -0.7217 -0.2543 -2.0120
  108SOL     OW  322   0.748   2.637   1.321 -0.1891  0.0130  0.3521
  108SOL    HW1  323   0.735   2.709   1.396  0.4295 -2.8308  0.4578
  108SOL    HW2  324   0.849   2.616   1.299  1.4469 -1.2325  0.6798
  109SOL     OW  325   2.025   0.145   0.683  0.2474 -0.6238 -0.0681
  109SOL    HW1  326   2.062   0.073   0.752  1.4363  0.8634  3.4833
  109SOL    HW2  327   1.942   0.198   0.719 -0.3455 -2.7152 -1.5156
  110SOL     OW  328   0.501   2.693   2.789  0.2368  0.2699 -0.6398
  110SOL    HW1  329   0.474   2.722   2.688 -1.7795 -0.4751 -2.2069
  110SOL    HW2  330   0.593   2.650   2.794 -2.9953 -1.1902 -0.4594
  111SOL     OW  331   1.282   0.533   2.354  0.3882 -0.0929 -0.0685
  111SOL    HW1  332   1.209   0.577   2.409  0.9620 -0.3907 -1.9817
  111SOL    HW2  333   1.316   0.442   2.382 -2.2865  1.7137  0.6083
  112SOL     OW  334   1.702   0.512   1.439 -0.6744 -0.5727  0.7420
  112SOL    HW1  335   1.697   0.443   1.360  1.4557  1.4218 -0.9565
  112SOL    HW2  336   1.707   0.464   1.532  0.7606  3.2200  1.4715
  113SOL     OW  337   2.280   1.657   1.756  0.0822 -0.4936 -0.4983
  113SOL    HW1  338   2.308   1.560   1.767  2.6723 -0.8539 -2.8988
  113SOL    HW2  339   2.312   1.715   1.840  1.5841 -0.3834 -0.8759
  114SOL     OW  340   0.408   0.573   1.301 -0.6645 -0.2413 -0.2922
  114SOL    HW1  341   0.376   0.658   1.252  1.6096  2.2759  1.4512
  114SOL    HW2  342   0.469   0.517   1.241  1.4438  2.1352  1.9476
  115SOL     OW  343   2.702   1.567   1.274 -0.5231 -0.7817  0.1278
  115SOL    HW1  344   2.705   1.468   1.303  2.2252 -0.5863  0.0753
  115SOL    HW2  345   2.789   1.598   1.225  1.3509 -0.3537  0.3180
  116SOL     OW  346   1.823   1.061   0.762  0.2504 -0.2158  0.2298
  116SOL    HW1  347   1.735   1.013   0.731 -0.3997  1.0610  1.1649
  116SOL    HW2  348   1.823   1.168   0.759  0.3980  1.1511 -0.1428
  117SOL     OW  349   1.083   0.422   0.685  0.1495  0.1032 -0.5581
  117SOL    HW1  350   1.090   0.430   0.789  1.9525  0.4185 -1.8188
  117SOL    HW2  351   1.102   0.510   0.635  0.0732 -0.6936 -0.0633
  118SOL     OW  352   1.082   1.058   0.994 -0.3664  0.7965  0.7479
  118SOL    HW1  353   1.068   0.977   1.059 -2.0708  2.0631 -1.1569
  118SOL    HW2  354   1.090   1.140   1.055  0.3108 -0.7448  1.3786
  119SOL     OW  355   1.836   1.631   1.985 -0.2600 -0.0193  0.2158
  119SOL    HW1  356   1.806   1.717   2.039 -0.7440  3.2324  1.3118
  119SOL    HW2  357   1.933   1.607   2.002 -4.0703  1.1413 -1.2284
  120SOL     OW  358   2.958   2.775   0.235 -0.5857 -0.2354  0.1784
  120SOL    HW1  359   2.876   2.741   0.186 -1.1810  1.1012  3.9909
  120SOL    HW2  360   3.022   2.705   0.275 -3.8746 -1.1458 -0.9481
  121SOL     OW  361   2.097   0.710   2.232 -0.2031  0.5891 -0.2484
  121SOL    HW1  362   2.159   0.730   2.155 -1.9901 -1.0567  2.7620
  121SOL    HW2  363   2.050   0.616   2.219 -3.1103  0.0522 -0.7832
  122SOL     OW  364   2.701   2.542   1.333 -0.1083 -0.3866  0.6943
  122SOL    HW1  365   2.709   2.539   1.225 -0.0694  0.5370 -3.0688
  122SOL    HW2  366   2.651   2.464   1.366  2.2592  0.7728 -1.7236
  123SOL     OW  367   1.728   0.031   1.694 -0.1496  0.6622  0.0296
  123SOL    HW1  368   1.746  -0.052   1.640 -2.0228  0.2922  0.8422
  123SOL    HW2  369   1.808   0.099   1.692  3.2122  0.6620 -0.2782
  124SOL     OW  370   0.184   0.478   0.961  0.4196  0.4165  0.4291
  124SOL    HW1  371   0.178   0.543   1.038  0.7425 -0.8206  3.6923
  124SOL    HW2  372   0.149   0.526   0.880  1.1576 -2.3562 -0.6110
  125SOL     OW  373   0.871   1.709   0.681 -0.6167  0.5498 -0.2872
  125SOL    HW1  374   0.974   1.693   0.657  0.0115  2.2412 -0.1976
  125SOL    HW2  375   0.840   1.644   0.755  1.0560  1.8257 -2.4441
  126SOL     OW  376   1.893   2.376   2.412  0.2197  0.2113 -0.0288
  126SOL    HW1  377   1.924   2.286   2.371 -0.1988  0.7354 -0.5048
  126SOL    HW2  378   1.841   2.429   2.341 -0.5143  2.6194 -0.2942
  127SOL     OW  379   0.993   0.976   0.176 -1.1037  0.6390  0.0724
  127SOL    HW1  380   1.074   0.996   0.237 -1.5165  0.4103 -0.8048
  127SOL    HW2  381   0.948   0.885   0.208 -2.7201 -0.0094  0.8046
  128SOL     OW  382   0.980   0.196   1.446  0.5495 -0.0800  0.6222
  128SOL    HW1  383   0.927   0.261   1.386 -0.0344  1.0442 -1.8889
  128SOL    HW2  384   0.951   0.096   1.443  0.5392 -2.5944 -1.6334
  129SOL     OW  385   1.758   0.719   1.818  0.0492 -0.5834  0.0233
  129SOL    HW1  386   1.784   0.729   1.718 -0.0573  2.3787  3.9363
  129SOL    HW2  387   1.772   0.812   1.870 -0.7079  2.5286 -2.6132
  130SOL     OW  388   1.257   2.096   0.995  0.6108 -0.1369  0.0954
  130SOL    HW1  389   1.199   2.024   0.947 -0.8662  0.0056 -1.2654
  130SOL    HW2  390   1.335   2.128   0.941 -0.4003  1.2123  1.8627
  131SOL     OW  391   3.036   1.509   1.329  0.5293  0.0199  0.1563
  131SOL    HW1  392   2.989   1.415   1.332 -0.6219 -0.5519  2.0394
  131SOL    HW2  393   3.141   1.502   1.350  1.3076  0.3452 -1.4033
  132SOL     OW  394   1.917   2.480   0.506  0.2887  0.1580  0.0331
  132SOL    HW1  395   1.814   2.487   0.519  0.9174 -0.5401 -2.3748
  132SOL    HW2  396   1.958   2.438   0.589 -2.1424 -0.3073 -0.8023
  133SOL     OW  397   1.793   2.289   2.924 -0.3963  0.1696  0.3777
  133SOL    HW1  398   1.787   2.352   3.010  0.6893 -2.0632  1.1107
  133SOL    HW2  399   1.771   2.329   2.832 -0.2946  0.4361  0.6101
  134SOL     OW  400   2.627   2.353   1.611 -0.6962  0.9149  0.2572
  134SOL    HW1  401   2.561   2.304   1.678  4.0551 -1.5420  0.2251
  134SOL    HW2  402   2.699   2.410   1.664 -0.3438  1.4304  1.2992
  135SOL     OW  403   0.773   1.506   2.547 -0.4640 -0.0434  0.6782
  135SOL    HW1  404   0.756   1.412   2.579 -0.9837  2.2153 -3.3701
  135SOL    HW2  405   0.857   1.506   2.477  3.3246  0.4747 -2.2321
  136SOL     OW  406   1.143   2.071   0.460  0.2048  0.3955  0.2585
  136SOL    HW1  407   1.069   2.116   0.518  0.0327  1.6989 -0.4033
  136SOL    HW2  408   1.116   1.972   0.441 -1.4528  1.7245  1.7396
  137SOL     OW  409   0.378   1.027   2.136 -0.7120  0.0631  0.7980
  137SOL    HW1  410   0.309   1.067   2.204  0.3310 -1.1933 -1.6003
  137SOL    HW2  411   0.383   0.923   2.136 -0.5349 -1.8584 -0.4600
  138SOL     OW  412   2.431   1.463   0.355  0.1312 -0.1165 -0.5789
  138SOL    HW1  413   2.346   1.453   0.301  0.5276  0.0649 -0.2922
  138SOL    HW2  414   2.473   1.383   0.406  2.7104  0.6825 -1.7176
  139SOL     OW  415   1.748   2.507   1.205  0.1714  0.3113  0.5815
  139SOL    HW1  416   1.648   2.482   1.197  2.9103 -0.5134 -2.1642
  139SOL    HW2  417   1.793   2.456   1.282  0.5144 -0.7887  0.8296
  140SOL     OW  418   2.985   3.000   2.497  0.2356  0.3487  0.6096
  140SOL    HW1  419   3.014   2.904   2.533 -3.1442 -0.7662  2.0483
  140SOL    HW2  420   3.069   3.051   2.466 -1.2738 -0.9956  1.7103
  141SOL     OW  421   1.146   1.535   1.593  0.3075  0.8764  0.1491
  141SOL    HW1  422   1.166   1.606   1.670 -1.7036 -1.0179 -0.3158
  141SOL    HW2  423   1.158   1.438   1.631 -2.1746  1.8473 -1.2269
  142SOL     OW  424   1.537   0.594   2.248 -0.1111 -0.0322  0.3317
  142SOL    HW1  425   1.555   0.590   2.145  2.2482 -1.0448 -0.9938
  142SOL    HW2  426   1.441   0.579   2.284  1.7612 -1.2989 -1.0578
  143SOL     OW  427   2.777   0.839   0.500  0.2534  0.2084 -0.7884
  143SOL    HW1  428   2.799   0.901   0.422 -0.9407 -0.9264  1.1910
  143SOL    HW2  429   2.789   0.884   0.594 -1.7559 -1.6081  0.6009
  144SOL     OW  430   2.976   1.237   1.360 -0.4588 -0.2978  0.3911
  144SOL    HW1  431   2.961   1.218   1.463 -1.8810  0.0375 -1.3680
  144SOL    HW2  432   3.057   1.178   1.318 -0.7882  1.0474 -1.3333
  145SOL     OW  433   0.998   1.865   0.094  0.1314  0.2474  0.6074
  145SOL    HW1  434   1.040   1.946   0.039  1.4226 -1.4319 -0.7163
  145SOL    HW2  435   0.974   1.780   0.035  1.0760  0.7446  1.5413
  146SOL     OW  436   2.521   0.628   1.507 -0.3724 -0.0911 -0.1956
  146SOL    HW1  437   2.470   0.553   1.459 -0.1368  0.5019 -1.6375
  146SOL    HW2  438   2.464   0.715   1.495 -0.1633 -1.7733 -0.9747
  147SOL     OW  439   1.082   2.606   0.628 -0.7237 -0.1539 -0.7550
  147SOL    HW1  440   1.027   2.638   0.547 -0.3630 -1.1789  1.4085
  147SOL    HW2  441   1.169   2.553   0.607  2.0130  0.9502 -0.6539
  148SOL     OW  442   1.661   1.422   3.020  0.3088 -0.0378  0.3981
  148SOL    HW1  443   1.683   1.333   2.961 -1.9164 -1.2834 -1.4897
  148SOL    HW2  444   1.636   1.399   3.116  1.5822 -0.0597 -1.6841
  149SOL     OW  445   0.620   1.403   1.942  0.6554 -0.2379 -0.3583
  149SOL    HW1  446   0.540   1.353   1.988 -0.6596  0.2420  0.7276
  149SOL    HW2  447   0.674   1.349   1.871  0.6197  0.1146 -1.7807
  150SOL     OW  448   2.971   1.276   0.926 -0.5887 -0.0052  0.5573
  150SOL    HW1  449   3.045   1.341   0.962 -0.2482 -2.8895 -0.3452
  150SOL    HW2  450   2.964   1.183   0.976 -0.8480 -1.2213  0.9742
  151SOL     OW  451   0.181   0.777   2.087  0.1657 -0.5820 -0.0842
  151SOL    HW1  452   0.195   0.863   2.023 -0.6558  3.0103 -0.3693
  151SOL    HW2  453   0.258   0.706   2.077 -0.7127  0.1808  0.7424
  152SOL     OW  454   1.413   1.768   1.259  0.2350  0.4455  0.2629
  152SOL    HW1  455   1.404   1.841   1.328 -1.4370  0.6263 -0.8686
  152SOL    HW2  456   1.323   1.752   1.212  0.5080 -0.4540  0.6183
  153SOL     OW  457   0.046   1.510   0.183 -0.2246 -0.1547 -0.1462
  153SOL    HW1  458   0.033   1.410   0.188  2.1681  2.1019 -1.0162
  153SOL    HW2  459   0.055   1.549   0.282  1.4451 -2.0600  3.6781
  154SOL     OW  460   2.409   1.969   2.831 -0.1887  0.0876  0.2819
  154SOL    HW1  461   2.428   1.870   2.848  0.3194 -2.4348 -0.3090
  154SOL    HW2  462   2.467   1.999   2.754 -0.0388  0.6158 -0.3561
  155SOL     OW  463   2.529   1.218   0.433 -0.3858 -0.9597 -0.9160
  155SOL    HW1  464   2.570   1.221   0.337  2.4053  2.8973  0.7743
  155SOL    HW2  465   2.526   1.117   0.470  0.0577 -2.3217  0.1678
  156SOL     OW  466   2.498   0.993   0.894  0.6905 -0.0000 -0.2493
  156SOL    HW1  467   2.408   1.039   0.922 -2.1099 -0.6625  0.9978
  156SOL    HW2  468   2.563   1.056   0.856 -0.5249 -1.0440  1.4323
  157SOL     OW  469   1.372   2.975   3.100  0.3215  0.0135  0.2482
  157SOL    HW1  470   1.394   2.905   3.028 -0.5569  0.8543 -0.7182
  157SOL    HW2  471   1.363   3.069   3.049  1.1427  2.7841 -0.3995
  158SOL     OW  472   1.075   1.871   2.023  0.0024 -0.9283 -0.1579
  158SOL    HW1  473   1.124   1.860   2.117  3.4481 -2.3163 -0.0871
  158SOL    HW2  474   0.970   1.871   2.031 -1.4509 -0.2900  0.4634
  159SOL     OW  475   0.876   0.445   1.310 -0.0413 -0.6180  0.4342
  159SOL    HW1  476   0.874   0.524   1.376  1.3451 -1.9021  1.2380
  159SOL    HW2  477   0.807   0.461   1.234 -0.7988 -0.0131  0.6965
  160SOL     OW  478   1.468   2.340   1.651  0.5567  0.2682 -0.3473
  160SOL    HW1  479   1.458   2.430   1.600 -1.4520 -1.1956  1.0964
  160SOL    HW2  480   1.569   2.319   1.674  2.8125  3.4274 -0.0659
  161SOL     OW  481   0.107   2.937   0.371  0.7031  0.4039  0.2280
  161SOL    HW1  482   0.012   2.900   0.402  2.5725 -0.3112 -0.0942
  161SOL    HW2  483   0.106   2.996   0.287  0.4661 -1.6771  0.4511
  162SOL     OW  484   2.615   1.899   0.520 -0.0929  0.3342 -0.2834
  162SOL    HW1  485   2.607   1.876   0.419  0.3374 -2.5190 -1.5485
  162SOL    HW2  486   2.613   1.811   0.578  0.6452  0.8158 -0.1535
  163SOL     OW  487   1.963   2.767   0.756  0.2274 -0.1131  0.1868
  163SOL    HW1  488   1.931   2.799   0.661  0.6362  2.0318  1.9567
  163SOL    HW2  489   1.986   2.665   0.755 -0.1475 -0.4425 -0.8718
  164SOL     OW  490   0.039   0.240   1.205 -0.4393  0.1272  0.2924
  164SOL    HW1  491   0.113   0.174   1.172 -0.5486  1.5952  2.0111
  164SOL    HW2  492   0.059   0.276   1.301 -1.4280  1.2682 -0.3769
  165SOL     OW  493   1.013   1.405   0.648 -0.4975 -0.7896  0.0511
  165SOL    HW1  494   0.966   1.455   0.722  0.6209 -0.7305 -1.7237
  165SOL    HW2  495   0.996   1.432   0.549 -0.8899 -1.7151  0.0421
  166SOL     OW  496   1.377   1.016   1.793 -0.2843 -0.0572 -0.2452
  166SOL    HW1  497   1.287   0.983   1.828  0.9049 -1.9831 -3.8665
  166SOL    HW2  498   1.448   1.059   1.863  1.0767 -0.0228  1.5547
  167SOL     OW  499   0.915   1.834   1.599 -0.8105  0.0183 -0.1906
  167SOL    HW1  500   0.883   1.934   1.592 -0.9681  1.2586 -2.4453
  167SOL    HW2  501   0.844   1.771   1.559  0.6329  0.3602  0.2639
  168SOL     OW  502   1.539   2.359   0.173 -0.0839  0.4744 -0.4573
  168SOL    HW1  503   1.614   2.391   0.109 -0.3745  2.0245  0.3537
  168SOL    HW2  504   1.573   2.332   0.267  0.1080 -2.4626 -0.5871
  169SOL     OW  505   0.167   2.559   2.165  0.0813  0.1513  0.0935
  169SOL    HW1  506   0.199   2.481   2.106 -1.0342  0.7699  0.7051
  169SOL    HW2  507   0.108   2.523   2.243 -0.0176 -0.5181  1.5890
  170SOL     OW  508   1.266   0.322   1.930  0.3585 -0.2845 -0.0182
  170SOL    HW1  509   1.296   0.288   2.025  2.6060  1.1147 -0.5793
  170SOL    HW2  510   1.204   0.259   1.878 -1.6120 -1.7795  0.1988
  171SOL     OW  511   0.243   0.823   2.418 -0.0046  0.1294 -0.5035
  171SOL    HW1  512   0.167   0.860   2.480  1.7488 -0.5407  2.1757
  171SOL    HW2  513   0.230   0.839   2.314  1.1489 -0.8464  3.0632
  172SOL     OW  514   0.897   1.124   2.913  0.3166 -0.0086  0.2947
  172SOL    HW1  515   0.989   1.153   2.952 -2.2959  2.3180  2.8615
  172SOL    HW2  516   0.883   1.121   2.811 -1.0295  0.1313 -0.0593
  173SOL     OW  517   0.686   2.718   0.159  0.0662 -0.1264  0.3432
  173SOL    HW1  518   0.699   2.820   0.169 -1.3338  0.5714 -1.1428
  173SOL    HW2  519   0.601   2.694   0.106  0.7993 -3.1460  0.3391
  174SOL     OW  520   1.293   2.755   1.051  0.5402 -0.0782 -0.3759
  174SOL    HW1  521   1.297   2.800   0.956  0.8419  0.3308 -1.7271
  174SOL    HW2  522   1.243   2.665   1.049 -1.6611  0.0760  1.9860
  175SOL     OW  523   0.364   0.030   1.690  0.0278  0.0252 -0.0545
  175SOL    HW1  524   0.399   0.104   1.757 -0.0405 -1.4460  0.4028
  175SOL    HW2  525   0.299   0.073   1.624  1.8684 -0.3916  0.2952
  176SOL     OW  526   2.630   0.343   3.011  0.1163  0.7157  0.4682
  176SOL    HW1  527   2.624   0.410   3.089  2.9922 -1.9151 -1.1224
  176SOL    HW2  528   2.571   0.262   3.020 -0.9916  2.4187 -3.0978
  177SOL     OW  529   0.373   0.310   0.861 -0.3298  0.2490 -0.4829
  177SOL    HW1  530   0.443   0.301   0.937 -1.6651 -0.6545  0.7492
  177SOL    HW2  531   0.288   0.362   0.900  0.4755  0.0369  1.6791
  178SOL     OW  532   3.079   2.683   2.600 -0.0670 -0.0712 -0.1131
  178SOL    HW1  533   3.014   2.656   2.677 -0.0231  2.1231  0.7277
  178SOL    HW2  534   3.150   2.748   2.626 -2.4966 -0.0044  4.1373
  179SOL     OW  535   0.007   1.774   1.180 -0.3254 -0.0329  0.3665
  179SOL    HW1  536  -0.066   1.834   1.135  0.6292  0.4713 -1.1139
  179SOL    HW2  537  -0.022   1.691   1.227 -0.8382  1.8654 -3.4262
  180SOL     OW  538   0.162   1.261   1.825  0.5664 -0.2060  0.3670
  180SOL    HW1  539   0.260   1.270   1.814 -1.3292 -0.5679 -1.7554
  180SOL    HW2  540   0.135   1.331   1.901 -2.5691  2.2826  2.1249
  181SOL     OW  541   3.004   1.828   2.533 -0.8886 -0.1122  0.1125
  181SOL    HW1  542   3.082   1.902   2.532  4.9746  3.8686 -1.7861
  181SOL    HW2  543   2.950   1.821   2.450  2.5244 -3.6214  1.7554
  182SOL     OW  544   2.329   1.241   1.257 -0.2420 -0.4106  0.0338
  182SOL    HW1  545   2.237   1.224   1.212 -0.6526 -0.6799 -1.7678
  182SOL    HW2  546   2.380   1.325   1.228 -1.4519  1.3883 -0.8781
  183SOL     OW  547   1.514   2.263   2.509 -0.3063 -0.2514  0.1829
  183SOL    HW1  548   1.425   2.210   2.534  0.7249 -2.0844 -0.0665
  183SOL    HW2  549   1.581   2.201   2.464  0.4220  0.6593  1.3971
  184SOL     OW  550   2.064   0.935   0.732 -0.2585 -0.0130 -0.2911
  184SOL    HW1  551   1.958   0.957   0.740 -1.4228  1.4697 -1.5545
  184SOL    HW2  552   2.091   0.840   0.760  0.3586 -1.0900 -0.8578
  185SOL     OW  553   1.645   2.750   2.170  0.3366 -0.2417  0.1725
  185SOL    HW1  554   1.591   2.833   2.136 -1.3676  0.6057 -1.2592
  185SOL    HW2  555   1.658   2.754   2.271 -0.2967  1.5756 -1.4687
  186SOL     OW  556   0.087   2.216   1.678  0.6459  0.8078  0.5525
  186SOL    HW1  557   0.138   2.296   1.638 -0.4758 -1.3155 -0.5938
  186SOL    HW2  558   0.156   2.138   1.699  3.0349  0.9337  1.4347
  187SOL     OW  559   1.424   0.665   1.728  0.0424 -0.7135  0.4782
  187SOL    HW1  560   1.465   0.743   1.673 -0.3986  1.6128  0.5457
  187SOL    HW2  561   1.409   0.699   1.829 -0.4316  0.4468  0.3268
  188SOL     OW  562   2.756   2.752   1.531 -0.1680 -0.3663 -0.3235
  188SOL    HW1  563   2.729   2.853   1.517  1.5841 -0.9586  2.2905
  188SOL    HW2  564   2.741   2.696   1.445 -1.3333  1.8761 -0.0552
  189SOL     OW  565   0.725   0.984   1.482 -0.1337  0.4380  0.0432
  189SOL    HW1  566   0.821   1.027   1.464 -0.9621  1.1909 -0.8875
  189SOL    HW2  567   0.694   0.918   1.410 -2.4943  2.1495  0.5922
  190SOL     OW  568   1.479   1.760   1.660 -0.6663  0.4217 -0.2178
  190SOL    HW1  569   1.436   1.826   1.597  1.9390  0.7618 -0.3487
  190SOL    HW2  570   1.544   1.798   1.730  2.0934 -1.2206  0.3313
  191SOL     OW  571   1.014   0.819   1.536 -0.1274 -0.4075 -0.0505
  191SOL    HW1  572   1.056   0.724   1.562  3.1165  0.3898 -0.8286
  191SOL    HW2  573   1.088   0.896   1.521  0.4287  0.3364 -1.9720
  192SOL     OW  574   1.890   2.197   1.221 -0.1623  0.0183 -0.7063
  192SOL    HW1  575   1.794   2.201   1.182 -1.7400  0.9064  1.1642
  192SOL    HW2  576   1.948   2.247   1.159 -2.0075 -1.0949  1.1766
  193SOL     OW  577   0.507   0.566   0.328  0.0706  0.2000  0.0360
  193SOL    HW1  578   0.516   0.495   0.405 -0.9590 -2.6091  2.2444
  193SOL    HW2  579   0.511   0.528   0.235 -0.4518  0.0488 -0.5771
  194SOL     OW  580   0.285   0.818   1.249 -0.1786 -0.8920  0.0430
  194SOL    HW1  581   0.186   0.783   1.230 -1.5374  1.4277 -0.1013
  194SOL    HW2  582   0.300   0.900   1.187 -0.9718 -1.0546 -0.1494
  195SOL     OW  583   0.934   2.942   0.511 -0.2512  0.2708 -0.2239
  195SOL    HW1  584   0.921   2.852   0.464 -1.1905  0.8822 -0.8603
  195SOL    HW2  585   1.029   2.972   0.510 -1.6863 -2.3320 -0.1873
  196SOL     OW  586   0.196   1.453   1.352  0.4141  0.0772  0.1443
  196SOL    HW1  587   0.269   1.526   1.380  1.5260  1.3228 -1.2043
  196SOL    HW2  588   0.198   1.375   1.421  1.9998  2.2672 -0.4805
  197SOL     OW  589   0.792   2.004   0.219  0.0130  0.0472 -0.7284
  197SOL    HW1  590   0.797   1.986   0.323 -0.9554 -0.0315 -0.3753
  197SOL    HW2  591   0.874   1.960   0.173  2.1737  0.7902  1.6282
  198SOL     OW  592   0.283   1.183   0.221 -0.0996  0.8094  0.1061
  198SOL    HW1  593   0.182   1.194   0.202 -0.4357  0.2073 -1.0233
  198SOL    HW2  594   0.333   1.277   0.225 -0.0909  0.7465  2.3119
  199SOL     OW  595   2.269   0.428   2.464  0.2468  0.2023  0.1843
  199SOL    HW1  596   2.218   0.369   2.530 -0.1322  1.9972 -0.9197
  199SOL    HW2  597   2.367   0.418   2.489  0.4655 -3.6994  1.0799
  200SOL     OW  598   0.049   2.892   0.821  0.2671 -0.1805  0.1265
  200SOL    HW1  599  -0.033   2.888   0.758 -2.0192  0.3620 -2.1314
  200SOL    HW2  600   0.062   2.992   0.838 -1.6232 -0.7037 -0.0326
  201SOL     OW  601   1.099   0.661   0.552 -0.2565 -0.1312 -0.3997
  201SOL    HW1  602   1.100   0.738   0.621 -2.2075  2.6375 -0.9038
  201SOL    HW2  603   0.999   0.642   0.514  1.2498 -0.9160  0.9549
  202SOL     OW  604   0.440   1.219   1.779 -0.0357  0.1739 -0.5276
  202SOL    HW1  605   0.484   1.214   1.684 -2.8268  0.2066 -0.1704
  202SOL    HW2  606   0.498   1.167   1.855  0.8291  0.3038  2.1241
  203SOL     OW  607   0.587   0.231   1.529  0.1547 -0.0140 -0.0543
  203SOL    HW1  608   0.598   0.198   1.428  0.2928 -2.8070  2.1066
  203SOL    HW2  609   0.591   0.157   1.605 -0.2504  0.7262  1.7177
  204SOL     OW  610   2.093   1.886   2.993 -0.6812  0.0211  0.0930
  204SOL    HW1  611   2.108   1.785   2.967  1.7233  2.1089  2.4929
  204SOL    HW2  612   2.065   1.942   2.910  1.0257  1.1099 -0.1529
  205SOL     OW  613   1.891   1.853   0.150  0.3154  0.0060 -0.3337
  205SOL    HW1  614   1.966   1.822   0.085 -1.9293  1.6558 -0.7062
  205SOL    HW2  615   1.800   1.877   0.096 -1.4890  0.4660 -1.5082
  206SOL     OW  616   2.519   2.814   0.368 -0.0978 -0.7583  0.9285
  206SOL    HW1  617   2.594   2.756   0.408 -0.7683  0.4621  1.3181
  206SOL    HW2  618   2.548   2.885   0.297 -1.3131 -0.1090  0.8067
  207SOL     OW  619   0.520   1.720   2.892 -0.3172  0.3490 -0.5508
  207SOL    HW1  620   0.613   1.699   2.850  0.2629  0.9358 -1.3736
  207SOL    HW2  621   0.504   1.667   2.983  3.7431  2.9697 -0.2248
  208SOL     OW  622   1.047   1.436   1.342  0.5842 -0.4567 -0.0602
  208SOL    HW1  623   0.968   1.495   1.311  0.7418  0.9430  0.9241
  208SOL    HW2  624   1.096   1.471   1.428  0.0777 -0.4226  2.0374
  209SOL     OW  625   0.146   0.888   3.088 -0.1057  0.1017  0.0255
  209SOL    HW1  626   0.203   0.888   3.000  2.0866  0.5989 -3.0688
  209SOL    HW2  627   0.204   0.857   3.171  0.1027  0.2730 -0.7472
  210SOL     OW  628   1.727   0.414   1.168  0.0727  0.2229 -0.2391
  210SOL    HW1  629   1.696   0.496   1.112 -0.8036  3.1560 -0.8882
  210SOL    HW2  630   1.824   0.396   1.152 -2.1099  2.3582  2.2822
  211SOL     OW  631   2.130   1.042   1.649  0.0818  0.0832  0.0615
  211SOL    HW1  632   2.170   1.001   1.732 -2.9052 -1.5842 -3.2174
  211SOL    HW2  633   2.210   1.089   1.596 -0.0793 -0.8690  0.4565
  212SOL     OW  634   0.039   1.014   1.470  0.3673  0.0787 -0.2098
  212SOL    HW1  635   0.069   1.110   1.501  0.1390  1.3173  1.4880
  212SOL    HW2  636   0.061   0.937   1.533  1.7502  0.4219 -1.8065
  213SOL     OW  637   2.773   0.288   0.305 -0.2762 -0.4446 -0.1143
  213SOL    HW1  638   2.853   0.229   0.298 -2.2267  0.6328  0.6237
  213SOL    HW2  639   2.757   0.338   0.214 -1.4835 -1.5271 -3.2536
  214SOL     OW  640   2.115   0.299   2.264  0.5087 -0.9537 -0.2003
  214SOL    HW1  641   2.152   0.352   2.347 -0.0124  0.0712  2.2127
  214SOL    HW2  642   2.125   0.195   2.274  0.2116  0.5001 -0.4857
  215SOL     OW  643   1.704   2.280   2.042 -0.2048 -0.3289 -0.4940
  215SOL    HW1  644   1.791   2.310   2.001 -1.5100  0.7586  0.8922
  215SOL    HW2  645   1.671   2.340   2.118  1.1369  1.3726 -0.8692
  216SOL     OW  646   2.250   0.525   0.642 -0.0100  0.3905  0.2014
  216SOL    HW1  647   2.179   0.460   0.603  2.0877  1.1841  1.1954
  216SOL    HW2  648   2.278   0.603   0.588 -1.1270  1.5368  0.0734
  217SOL     OW  649   0.800   2.788   2.431  0.1414  0.3140  0.3406
  217SOL    HW1  650   0.779   2.695   2.465 -0.9381  2.0402 -0.3056
  217SOL    HW2  651   0.806   2.784   2.330  0.4149 -0.3668  2.8585
  218SOL     OW  652   1.932   1.430   3.075  0.0399 -0.0362  0.6581
  218SOL    HW1  653   1.834   1.446   3.042 -0.8985 -1.7698  1.2488
  218SOL    HW2  654   1.944   1.334   3.121 -2.9306 -4.3144 -2.6117
  219SOL     OW  655   2.369   1.288   2.597  0.2646  0.0521 -0.3992
  219SOL    HW1  656   2.444   1.251   2.542 -0.2140  0.7371  2.5312
  219SOL    HW2  657   2.347   1.218   2.679 -1.2502 -4.0169  0.9125
  220SOL     OW  658   1.475   1.016   1.285 -0.5798 -0.1377 -0.4566
  220SOL    HW1  659   1.566   0.975   1.266  0.4046  1.6590 -5.4507
  220SOL    HW2  660   1.479   1.109   1.326 -1.8251  2.4410  0.7500
  221SOL     OW  661   1.294   1.108   2.170  0.1708  0.0694 -0.4667
  221SOL    HW1  662   1.240   1.182   2.114 -2.1395 -0.9661 -1.8737
  221SOL    HW2  663   1.370   1.063   2.113  1.4002 -0.8507 -0.2313
  222SOL     OW  664   1.333   0.161   1.115 -0.0679 -0.0284  0.4152
  222SOL    HW1  665   1.411   0.095   1.107 -1.0680  2.7301  0.3340
  222SOL    HW2  666   1.354   0.227   1.192  0.3979  2.0272 -0.3224
  223SOL     OW  667   2.888   0.783   2.000 -0.7707  0.3022 -0.0116
  223SOL    HW1  668   2.899   0.782   2.105  2.3975 -1.8020 -1.4581
  223SOL    HW2  669   2.928   0.876   1.967 -2.3010 -0.9422 -0.8604
  224SOL     OW  670   1.557   1.054   2.809  0.3224 -0.4988 -0.1687
  224SOL    HW1  671   1.570   0.968   2.751  0.1117  1.6432  0.9645
  224SOL    HW2  672   1.530   1.138   2.746 -0.1420  4.2619 -2.0435
  225SOL     OW  673   2.963   2.827   2.941  0.3508 -0.1581  0.3375
  225SOL    HW1  674   2.932   2.740   2.886  0.4107 -0.7711 -1.0618
  225SOL    HW2  675   2.989   2.905   2.878 -2.1724 -0.1683 -1.1013
  226SOL     OW  676   2.459   1.656   2.864 -0.1017  0.3074 -0.3903
  226SOL    HW1  677   2.481   1.598   2.783  0.7855  0.1447 -0.1652
  226SOL    HW2  678   2.438   1.592   2.944  0.9005 -1.6042  1.4276
  227SOL     OW  679   0.781   0.144   2.941 -0.1460 -0.4028  0.1288
  227SOL    HW1  680   0.827   0.087   3.015  0.1063  0.0440 -0.5634
  227SOL    HW2  681   0.815   0.117   2.847  2.1390 -1.5356 -0.6660
  228SOL     OW  682   2.352   0.540   2.772  0.3796 -0.0023  0.4569
  228SOL    HW1  683   2.297   0.582   2.690  0.0509 -2.0607 -1.7862
  228SOL    HW2  684   2.421   0.470   2.741  0.1282  0.1932  1.3184
  229SOL     OW  685   0.600   0.487   1.879  0.2157  0.5296 -0.4259
  229SOL    HW1  686   0.637   0.488   1.783  1.5226  0.4833 -2.5751
  229SOL    HW2  687   0.671   0.509   1.940  1.7610 -1.0019 -1.3230
  230SOL     OW  688   1.931   1.233   2.116 -0.3889 -0.3896  0.5967
  230SOL    HW1  689   2.014   1.278   2.067 -0.1637 -0.4111  0.1345
  230SOL    HW2  690   1.850   1.292   2.095 -0.5291 -0.6374 -4.1064
  231SOL     OW  691   0.610   1.107   2.949  0.7900 -0.2923 -0.0526
  231SOL    HW1  692   0.707   1.068   2.956  0.7039 -0.8570  2.9764
  231SOL    HW2  693   0.563   1.100   3.048 -1.1454 -0.4345  2.3279
  232SOL     OW  694   2.524   0.015   2.720  0.3158 -0.2022  0.1229
  232SOL    HW1  695   2.537  -0.085   2.745  1.0727 -0.9114  1.2725
  232SOL    HW2  696   2.555   0.042   2.624  1.0344 -2.3829  0.9765
  233SOL     OW  697   1.733   1.291   1.073  0.0939  0.1084 -0.3399
  233SOL    HW1  698   1.755   1.280   0.974  0.1861 -2.1777  0.9514
  233SOL    HW2  699   1.785   1.229   1.133 -3.2976 -0.3996 -3.1902
  234SOL     OW  700   1.640   2.588   1.926 -0.8686 -0.1340 -0.1980
  234SOL    HW1  701   1.678   2.639   2.008  0.8816 -2.0147 -1.4305
  234SOL    HW2  702   1.572   2.519   1.960  0.4213  0.4502  1.0257
  235SOL     OW  703   3.094   3.043   2.827  0.6867 -0.7879 -0.1616
  235SOL    HW1  704   3.163   3.089   2.767 -2.3649 -1.3508 -1.7048
  235SOL    HW2  705   3.035   3.111   2.879 -1.3939 -0.7358  1.1322
  236SOL     OW  706   2.873   0.688   0.038 -0.4301  0.5078  0.0171
  236SOL    HW1  707   2.934   0.740   0.106 -0.4404 -0.9835  2.4614
  236SOL    HW2  708   2.928   0.641  -0.042  2.1848 -0.7133  1.6344
  237SOL     OW  709   1.485   1.617   1.037 -0.0756  0.6059 -0.7687
  237SOL    HW1  710   1.584   1.590   1.022  1.2108 -0.8523  0.4049
  237SOL    HW2  711   1.475   1.672   1.127 -1.9222  0.0159 -0.0546
  238SOL     OW  712   1.764   1.362   0.747  0.7326  0.1043  0.0402
  238SOL    HW1  713   1.842   1.362   0.684 -1.8383 -1.1530  2.5148
  238SOL    HW2  714   1.700   1.440   0.726  2.5576 -1.3327 -2.6111
  239SOL     OW  715   2.144   0.283   2.672 -0.0046 -0.3788  0.5630
  239SOL    HW1  716   2.214   0.269   2.742  0.4216  1.3292 -1.3279
  239SOL    HW2  717   2.062   0.336   2.709  0.4916  0.8586 -0.1982
  240SOL     OW  718   0.878   0.733   0.237  0.0138 -0.1389  0.3841
  240SOL    HW1  719   0.846   0.658   0.171 -2.1725 -2.0157  2.4625
  240SOL    HW2  720   0.871   0.703   0.331 -0.6832 -0.5202 -2.1469
  241SOL     OW  721   0.581   0.020   0.356  0.3109 -0.1598 -0.2514
  241SOL    HW1  722   0.611  -0.030   0.276 -0.1897  4.5841  0.9349
  241SOL    HW2  723   0.487  -0.016   0.393 -3.1115 -0.1047 -0.4779
  242SOL     OW  724   0.682   2.438   1.138 -0.0957 -0.1511  0.4148
  242SOL    HW1  725   0.675   2.516   1.205  1.2059  0.3045 -1.9671
  242SOL    HW2  726   0.769   2.448   1.078 -1.2559  0.0632  0.8540
  243SOL     OW  727   1.085   0.638   2.501 -0.2217 -0.8920 -0.1088
  243SOL    HW1  728   1.002   0.674   2.445 -0.5209 -0.4967 -1.5671
  243SOL    HW2  729   1.060   0.574   2.577 -1.7340  1.3047  1.3084
  244SOL     OW  730   2.832   1.995   2.331  0.0977  0.0902  0.2417
  244SOL    HW1  731   2.898   1.982   2.246 -1.6409 -1.7797  0.8226
  244SOL    HW2  732   2.743   1.945   2.314  0.0617  0.1668  1.5644
  245SOL     OW  733   2.467   0.715   2.189  0.4453 -0.0815 -0.0462
  245SOL    HW1  734   2.468   0.795   2.254  2.6695  0.1302 -1.0921
  245SOL    HW2  735   2.543   0.651   2.209 -2.4616 -1.3040  1.2068
  246SOL     OW  736   0.312   2.855   1.772 -0.7917 -0.6385 -0.1088
  246SOL    HW1  737   0.233   2.855   1.708  0.0623  2.2742 -0.6278
  246SOL    HW2  738   0.358   2.948   1.763 -1.3867  1.6602  0.2701
  247SOL     OW  739   2.199   0.502   2.992  0.1107  0.0790  0.1526
  247SOL    HW1  740   2.271   0.514   2.919 -0.7285 -1.4601 -2.0590
  247SOL    HW2  741   2.145   0.587   3.017  2.9909 -0.2857  0.5591
  248SOL     OW  742   2.177   1.859   1.587  0.1810  0.4734  0.9752
  248SOL    HW1  743   2.197   1.759   1.600 -0.2919  0.0231 -1.1526
  248SOL    HW2  744   2.087   1.891   1.624  0.2839 -0.5169  1.0784
  249SOL     OW  745   1.996   1.968   1.916  0.1108 -0.5818  0.3334
  249SOL    HW1  746   1.991   1.900   1.835  1.7470 -0.2987 -1.8915
  249SOL    HW2  747   2.090   2.013   1.934 -0.0516 -1.1886  0.4279
  250SOL     OW  748   1.024   0.643   1.894 -0.1468  0.3181 -0.0915
  250SOL    HW1  749   1.034   0.588   1.986 -1.7286 -1.3473 -2.2724
  250SOL    HW2  750   1.061   0.596   1.809 -3.8957 -1.9736 -3.0218
  251SOL     OW  751   3.035   1.537   2.603  0.1130  0.3153 -0.0509
  251SOL    HW1  752   3.025   1.639   2.614  1.4244  2.5873 -1.7373
  251SOL    HW2  753   2.941   1.495   2.584 -0.1565 -0.0437 -0.6686
  252SOL     OW  754   1.542   0.905   1.618 -0.0232  0.0392  0.3256
  252SOL    HW1  755   1.611   0.957   1.562  0.3357 -0.9222  0.9897
  252SOL    HW2  756   1.486   0.964   1.687 -0.1788  1.6983 -2.6255
  253SOL     OW  757   0.995   1.521   0.359 -0.4310 -0.2962 -0.2641
  253SOL    HW1  758   1.096   1.491   0.355  2.7094 -0.0837 -0.0085
  253SOL    HW2  759   0.935   1.490   0.281  1.6199  1.9015  5.2695
  254SOL     OW  760   2.003   2.105   1.602 -0.0744  0.6762  0.0238
  254SOL    HW1  761   1.956   2.049   1.530 -1.4999  1.5492  1.9881
  254SOL    HW2  762   1.961   2.097   1.695 -0.3238  1.3007  2.3220
  255SOL     OW  763   0.114   1.169   2.969  0.1650 -0.2988 -0.4994
  255SOL    HW1  764   0.184   1.245   2.965  2.1364  0.6973  0.5271
  255SOL    HW2  765   0.152   1.084   3.015  0.7974  2.8290 -0.7193
  256SOL     OW  766   2.712   1.306   1.828 -0.5091 -0.3022  0.6377
  256SOL    HW1  767   2.664   1.299   1.738  2.7648  0.0079  0.4515
  256SOL    HW2  768   2.676   1.244   1.899 -0.0897 -1.5087  0.2596
  257SOL     OW  769   0.836   0.207   1.863  0.1161  0.7420  0.0970
  257SOL    HW1  770   0.872   0.272   1.790 -0.0656  0.6490  0.1195
  257SOL    HW2  771   0.889   0.120   1.877  0.1472  0.8364  0.2420
  258SOL     OW  772   2.950   1.273   0.406 -0.4449  0.4098 -0.2141
  258SOL    HW1  773   2.891   1.350   0.382  2.7035 -0.4813 -0.3642
  258SOL    HW2  774   2.976   1.273   0.506  0.3193  0.0875 -1.3116
  259SOL     OW  775   0.496   2.891   2.987  0.2449 -0.7367  0.3152
  259SOL    HW1  776   0.455   2.844   3.072  1.4663 -3.7566 -1.8634
  259SOL    HW2  777   0.527   2.822   2.917  0.5166 -1.6182  3.6883
  260SOL     OW  778   2.661   0.747   2.695  0.1392 -0.5060  0.1476
  260SOL    HW1  779   2.576   0.805   2.705  1.6558 -1.4691  1.9510
  260SOL    HW2  780   2.656   0.652   2.734 -2.1088  0.8929 -1.1768
  261SOL     OW  781   2.708   1.309   1.339  0.2363  0.3012 -0.5825
  261SOL    HW1  782   2.658   1.227   1.301  0.4678 -0.1496  0.8287
  261SOL    HW2  783   2.810   1.293   1.336 -0.2556  0.4916 -0.0139
  262SOL     OW  784   1.495   2.961   2.049 -0.0746  0.2249 -0.4424
  262SOL    HW1  785   1.506   3.022   1.968  3.9518 -1.4218  2.1337
  262SOL    HW2  786   1.447   2.872   2.020 -0.8427 -0.3162 -1.8468
  263SOL     OW  787   0.859   0.733   2.344  0.9540  0.8021  0.3448
  263SOL    HW1  788   0.772   0.681   2.315  1.9759  0.1679 -1.5672
  263SOL    HW2  789   0.890   0.797   2.266  0.4993 -2.7310 -1.1097
  264SOL     OW  790   2.314   0.756   0.476 -0.1013  0.3622  0.1752
  264SOL    HW1  791   2.218   0.788   0.477 -1.2386  0.2892  1.2839
  264SOL    HW2  792   2.381   0.832   0.461 -1.3154 -2.5939  0.4451
  265SOL     OW  793   0.915   2.299   2.698 -0.0411  0.2689 -0.1132
  265SOL    HW1  794   0.967   2.379   2.743 -0.3124  1.9379  2.3771
  265SOL    HW2  795   0.888   2.233   2.773  0.4034  2.1348 -1.4679
  266SOL     OW  796   1.281   1.739   0.020 -0.1372 -0.1496  0.1456
  266SOL    HW1  797   1.247   1.805   0.092 -0.4180  0.1584  0.4627
  266SOL    HW2  798   1.383   1.710   0.034 -0.2081  1.4061  1.2299
  267SOL     OW  799   1.103   0.024   2.320 -0.0362 -0.1888 -0.1122
  267SOL    HW1  800   1.042  -0.051   2.283 -0.1317  0.0026 -1.3684
  267SOL    HW2  801   1.203   0.019   2.287 -0.8477 -1.9668  0.5859
  268SOL     OW  802   0.661   1.151   1.098 -0.5407  0.3237 -0.3845
  268SOL    HW1  803   0.646   1.203   1.185 -1.2269  0.2397  0.6105
  268SOL    HW2  804   0.649   1.194   1.005 -1.3909 -2.5909  1.5147
  269SOL     OW  805   2.405   2.556   1.574  0.6047  0.1276  0.3225
  269SOL    HW1  806   2.468   2.477   1.569  0.3861  0.5256 -0.1941
  269SOL    HW2  807   2.379   2.578   1.672  0.6197 -2.9785  2.2069
  270SOL     OW  808   0.302   2.777   2.069 -0.1704 -0.6361 -0.2244
  270SOL    HW1  809   0.276   2.788   1.970 -1.2005  0.5086 -0.3534
  270SOL    HW2  810   0.268   2.688   2.112  0.8033 -1.0450 -2.1177
  271SOL     OW  811   0.405   1.372   1.148  0.8021 -0.3961  0.4144
  271SOL    HW1  812   0.365   1.359   1.054  1.7354  3.1224  4.0198
  271SOL    HW2  813   0.342   1.416   1.220  0.3263  1.0825 -1.2209
  272SOL     OW  814   1.974   2.809   1.887  0.0911  0.2072 -0.2686
  272SOL    HW1  815   1.906   2.811   1.809 -0.0769  0.0359 -0.9820
  272SOL    HW2  816   2.056   2.874   1.877 -1.6645 -1.5338  0.6143
  273SOL     OW  817   1.412   1.429   2.880 -0.4244 -0.6053 -0.4599
  273SOL    HW1  818   1.513   1.432   2.903 -1.1725 -1.0202 -0.4661
  273SOL    HW2  819   1.348   1.476   2.948  2.4149 -1.1363 -0.4873
  274SOL     OW  820   1.104   0.473   2.105  0.3112  0.2855 -0.8282
  274SOL    HW1  821   1.178   0.439   2.046  0.0837 -0.6446  1.2591
  274SOL    HW2  822   1.139   0.519   2.193  1.9183  0.2944  3.0824
  275SOL     OW  823   0.668   2.087   1.894 -0.3253  0.3174  0.3616
  275SOL    HW1  824   0.673   2.183   1.934 -2.8057 -0.6831 -1.9717
  275SOL    HW2  825   0.569   2.055   1.888  0.0723  0.5113  2.2305
  276SOL     OW  826   2.149   0.905   2.750  0.5320  0.0903  0.6248
  276SOL    HW1  827   2.086   0.934   2.677  1.5099  0.2147  0.3481
  276SOL    HW2  828   2.130   0.804   2.775 -0.1914 -2.2490 -2.1509
  277SOL     OW  829   3.058   0.856   0.215 -0.5157 -0.6062 -0.2654
  277SOL    HW1  830   3.136   0.878   0.158 -2.2830  1.4258  2.0955
  277SOL    HW2  831   3.071   0.776   0.270 -5.0140  2.2059  1.6778
  278SOL     OW  832   0.256   0.282   2.913 -0.9600  0.2452  0.6126
  278SOL    HW1  833   0.350   0.249   2.945  1.1116 -1.0901  0.2282
  278SOL    HW2  834   0.255   0.384   2.893  2.2849 -1.8501  2.7907
  279SOL     OW  835   0.117   0.057   0.896 -0.2750 -0.3582  0.0078
  279SOL    HW1  836   0.155   0.048   0.993 -1.6456  0.8713 -0.4560
  279SOL    HW2  837   0.189   0.044   0.820  1.1626 -0.5776 -2.5100
  280SOL     OW  838   1.647   2.954   2.492  0.7279 -0.1277  0.1801
  280SOL    HW1  839   1.727   3.000   2.540 -1.3612 -2.0609 -0.8831
  280SOL    HW2  840   1.552   2.985   2.521 -2.0090 -5.0578 -1.1157
  281SOL     OW  841   0.655   1.030   2.337 -0.1694 -0.7704 -0.0609
  281SOL    HW1  842   0.634   0.959   2.264  2.2267  0.2437 -1.1939
  281SOL    HW2  843   0.710   0.993   2.415 -2.2074 -1.3127 -0.6418
  282SOL     OW  844   1.663   2.498   0.564 -0.6819 -0.4343  0.2253
  282SOL    HW1  845   1.622   2.420   0.509  1.2049  0.2682 -0.0348
  282SOL    HW2  846   1.608   2.585   0.566  2.1056  1.0164  1.4304
  283SOL     OW  847   1.109   0.881   0.720 -0.5909  0.6301 -0.1893
  283SOL    HW1  848   1.170   0.826   0.778 -3.2162 -0.6241 -0.6818
  283SOL    HW2  849   1.066   0.963   0.770 -1.2827 -2.7655 -1.0033
  284SOL     OW  850   2.215   2.819   2.425  0.1797  0.3664  0.2424
  284SOL    HW1  851   2.216   2.815   2.527 -1.3683  0.3717 -2.8079
  284SOL    HW2  852   2.192   2.919   2.386 -1.8359  1.7507 -1.3594
  285SOL     OW  853   1.378   3.058   2.535 -0.4064  0.1262 -0.0716
  285SOL    HW1  854   1.386   3.083   2.433  0.3596  2.4958 -1.7989
  285SOL    HW2  855   1.294   3.100   2.570  2.9344 -0.6254 -0.7917
  286SOL     OW  856   0.429   0.448   0.630 -0.0661  0.5367  0.1818
  286SOL    HW1  857   0.405   0.410   0.730 -2.4805  2.6318  3.6157
  286SOL    HW2  858   0.424   0.369   0.556 -2.0689  0.3903 -2.3486
  287SOL     OW  859   0.081   1.300   2.534 -0.0554 -0.0781 -0.1846
  287SOL    HW1  860   0.031   1.215   2.576 -0.1087 -1.9141  0.8530
  287SOL    HW2  861   0.030   1.393   2.559 -0.5566 -0.6157 -1.6659
  288SOL     OW  862   1.592   2.581   1.476 -0.3354 -0.2943  0.3263
  288SOL    HW1  863   1.694   2.564   1.510  2.5179 -0.0379  1.4897
  288SOL    HW2  864   1.579   2.557   1.380  0.4931 -0.8438 -1.7140
  289SOL     OW  865   0.624   2.727   0.846  0.0655  0.6963 -0.4059
  289SOL    HW1  866   0.655   2.789   0.770  2.4195 -0.7755  2.9218
  289SOL    HW2  867   0.648   2.763   0.943 -0.8441  2.2714  0.8157
  290SOL     OW  868   2.984   1.281   1.660 -0.6216 -0.2091  0.2428
  290SOL    HW1  869   2.897   1.276   1.710 -0.2386 -1.7217  0.9209
  290SOL    HW2  870   3.069   1.299   1.718 -0.5720 -1.5199 -1.5972
  291SOL     OW  871   1.990   0.042   0.095  0.0572 -0.2863 -0.4321
  291SOL    HW1  872   2.015   0.026   0.195 -0.3597 -0.3535  1.0308
  291SOL    HW2  873   2.072   0.085   0.047  1.1632 -0.2393  1.1278
  292SOL     OW  874   2.950   1.186   3.069  0.5371  0.0008 -0.2845
  292SOL    HW1  875   2.877   1.233   3.011 -0.7951  2.1434  0.8517
  292SOL    HW2  876   3.044   1.213   3.035  0.3937  1.7224  0.2426
  293SOL     OW  877   0.546   2.097   0.153  0.2585 -1.0735 -0.1633
  293SOL    HW1  878   0.505   2.159   0.229  2.9431  0.8852  0.7675
  293SOL    HW2  879   0.642   2.060   0.183  1.7152  0.2928  0.9355
  294SOL     OW  880   1.614   2.108   1.844  0.1311  0.2279  0.3828
  294SOL    HW1  881   1.657   2.153   1.932  2.8671  1.6704  1.6590
  294SOL    HW2  882   1.656   2.144   1.757  1.2870  0.8794  1.4272
  295SOL     OW  883   0.974   1.178   0.406 -0.1015  0.2225 -0.4496
  295SOL    HW1  884   1.057   1.151   0.459 -3.0368 -0.3546 -2.0159
  295SOL    HW2  885   0.884   1.152   0.441  0.2688  0.5282 -2.9823
  296SOL     OW  886   1.288   2.109   2.522  0.1532  0.2976  0.2097
  296SOL    HW1  887   1.254   2.171   2.453  0.7869 -1.0249  0.8757
  296SOL    HW2  888   1.293   2.007   2.504 -0.5955 -2.9092  1.3744
  297SOL     OW  889   1.504   0.709   1.375  0.4803  0.2247 -0.2573
  297SOL    HW1  890   1.588   0.647   1.364  0.7940 -1.7580 -0.7763
  297SOL    HW2  891   1.516   0.773   1.454 -0.5899 -2.3245  0.6918
  298SOL     OW  892   0.549   1.342   2.834 -0.6910 -0.4034 -0.1890
  298SOL    HW1  893   0.578   1.251   2.877 -1.3344 -1.2752  2.0876
  298SOL    HW2  894   0.612   1.370   2.759 -0.0849 -1.4938  2.0020
  299SOL     OW  895   0.356   0.380   1.509 -0.0664 -0.0379 -0.2091
  299SOL    HW1  896   0.363   0.457   1.439  1.4826  1.5378  1.0770
  299SOL    HW2  897   0.439   0.318   1.512 -0.4170  0.4257 -0.7489
  300SOL     OW  898   1.287   1.816   2.847  0.1927 -0.4393 -0.5857
  300SOL    HW1  899   1.280   1.732   2.788  0.8721 -0.1687  1.2043
  300SOL    HW2  900   1.291   1.787   2.949  2.2544  1.8333 -0.0859
  301SOL     OW  901   0.428   0.272   0.436  0.2178  0.5152 -0.2020
  301SOL    HW1  902   0.332   0.238   0.419  1.1762  1.8503 -0.1961
  301SOL    HW2  903   0.492   0.223   0.376 -1.3069 -0.4056  0.4168
  302SOL     OW  904   1.180   2.310   2.369  0.3554 -0.6047 -0.3402
  302SOL    HW1  905   1.125   2.383   2.426  0.4618  4.6501 -0.3962
  302SOL    HW2  906   1.119   2.251   2.311  2.4867  1.9334  1.4818
  303SOL     OW  907   0.927   2.407   0.762  0.1087  0.1035 -0.5033
  303SOL    HW1  908   0.976   2.472   0.698 -0.6676  1.3652  1.9872
  303SOL    HW2  909   0.933   2.438   0.861  1.0453 -2.6315  0.0592
  304SOL     OW  910   0.075   1.989   0.674  0.0229 -0.0191 -0.1594
  304SOL    HW1  911   0.129   1.959   0.598 -2.6193 -0.4921  1.6269
  304SOL    HW2  912   0.015   2.069   0.643 -2.2975  1.2348  2.6385
  305SOL     OW  913   1.606   0.884   0.682  0.0229  0.3279 -0.0713
  305SOL    HW1  914   1.532   0.889   0.607  2.4048  0.7498 -1.3003
  305SOL    HW2  915   1.694   0.839   0.645  0.0998 -0.9366  3.0826
  306SOL     OW  916   0.424   1.933   1.940  0.0566 -0.8378  0.4303
  306SOL    HW1  917   0.465   1.857   1.882  0.9668  2.5729  1.7720
  306SOL    HW2  918   0.430   1.915   2.043  1.4372 -2.3475 -0.4257
  307SOL     OW  919   3.098   0.872   2.545 -0.1262  0.0416 -0.1831
  307SOL    HW1  920   3.095   0.967   2.589  1.4856  0.9957  1.0610
  307SOL    HW2  921   3.020   0.807   2.568 -4.4215  0.5549 -1.8717
  308SOL     OW  922   1.564   2.687   2.798  0.3475 -0.3299  0.2057
  308SOL    HW1  923   1.570   2.635   2.713 -1.0733 -2.0596  2.6657
  308SOL    HW2  924   1.495   2.642   2.864 -2.3719  0.1465  2.3843
  309SOL     OW  925   1.261   0.015   1.820 -0.5066 -0.0712 -0.2341
  309SOL    HW1  926   1.358   0.027   1.840 -1.8300 -0.5175  0.4419
  309SOL    HW2  927   1.261   0.029   1.718  1.3972 -0.1328  1.2790
  310SOL     OW  928   1.435   2.650   0.708 -0.0749  0.5841 -0.6807
  310SOL    HW1  929   1.361   2.705   0.752  0.1813  1.6660  2.5741
  310SOL    HW2  930   1.508   2.713   0.669  1.6921  1.2486 -3.2822
  311SOL     OW  931   1.223   0.992   1.460 -0.2124 -0.5438  0.3832
  311SOL    HW1  932   1.300   0.932   1.440 -0.4553  2.1684 -3.1610
  311SOL    HW2  933   1.247   1.095   1.463  2.3932 -0.7513  0.3646
  312SOL     OW  934   1.632   0.641   1.014 -0.0964 -0.1046 -0.4549
  312SOL    HW1  935   1.599   0.730   1.051  1.1442 -0.5145 -0.9684
  312SOL    HW2  936   1.559   0.588   0.966 -0.4880  0.1823  1.3434
  313SOL     OW  937   1.590   1.447   0.480 -0.5138 -0.0877  0.0493
  313SOL    HW1  938   1.488   1.433   0.484  0.8165 -1.4302 -3.2980
  313SOL    HW2  939   1.636   1.358   0.463  3.7141  1.4509  1.7676
  314SOL     OW  940   2.925   0.070   3.070 -0.4175 -0.1456 -0.3659
  314SOL    HW1  941   2.929   0.099   3.168 -0.8272  0.9130 -0.8778
  314SOL    HW2  942   2.849  -0.002   3.057 -3.5824  1.3698 -2.7800
  315SOL     OW  943   1.286   0.239   2.752  0.0012  0.0897  0.7178
  315SOL    HW1  944   1.211   0.213   2.681  0.7532 -0.4899 -0.6637
  315SOL    HW2  945   1.278   0.181   2.838 -0.7754 -2.9126 -2.4343
  316SOL     OW  946   1.709   2.090   0.912  0.6685  0.1430 -0.5677
  316SOL    HW1  947   1.686   2.136   1.001  1.2518  0.5181  3.0842
  316SOL    HW2  948   1.716   2.154   0.836 -0.9276 -3.9640  1.9986
  317SOL     OW  949   1.162   0.699   2.809 -0.0831  0.5146  0.4432
  317SOL    HW1  950   1.118   0.735   2.898  1.6204 -0.2682 -0.3038
  317SOL    HW2  951   1.112   0.610   2.781 -1.2073  0.5673 -0.1515
  318SOL     OW  952   1.407   0.010   2.258  0.1178  0.0883  0.0915
  318SOL    HW1  953   1.386   0.108   2.230  1.7703 -3.6663 -1.1606
  318SOL    HW2  954   1.438  -0.048   2.176 -1.1619 -0.9427 -1.0517
  319SOL     OW  955   0.655   2.402   2.930 -0.2698 -0.1664  0.3128
  319SOL    HW1  956   0.591   2.387   3.011  0.8332 -1.3050 -1.3420
  319SOL    HW2  957   0.673   2.308   2.890  0.0067  0.6111  0.3646
  320SOL     OW  958   1.600   2.272   0.437  0.5907  0.2811 -0.4649
  320SOL    HW1  959   1.694   2.227   0.456  3.6131  1.6794 -0.7315
  320SOL    HW2  960   1.524   2.230   0.493  1.0911 -1.7290 -1.9777
  321SOL     OW  961   1.621   2.772   0.522 -0.6311 -0.5082  1.2767
  321SOL    HW1  962   1.553   2.823   0.463 -0.0475 -0.2315 -0.1552
  321SOL    HW2  963   1.720   2.793   0.510 -0.5147 -1.0130 -0.9094
  322SOL     OW  964   2.677   1.107   2.265  0.4000 -0.7830 -0.4901
  322SOL    HW1  965   2.723   1.114   2.358  1.6162 -1.8556  0.5258
  322SOL    HW2  966   2.602   1.041   2.275 -1.5196  0.1367 -1.0182
  323SOL     OW  967   1.001   2.735   0.872  0.2809 -0.6408 -0.0649
  323SOL    HW1  968   1.043   2.700   0.788 -1.0774 -1.3109  2.8627
  323SOL    HW2  969   1.002   2.839   0.876 -2.5237  0.8766  1.0424
  324SOL     OW  970   0.081   2.497   2.427  0.3124 -0.2028  0.0880
  324SOL    HW1  971   0.035   2.404   2.440 -2.4697 -2.1176  1.5408
  324SOL    HW2  972   0.026   2.572   2.473  0.5781  1.0429  0.1344
  325SOL     OW  973   1.201   3.061   0.476 -0.1712  0.1678 -0.5773
  325SOL    HW1  974   1.195   3.106   0.380 -1.3881  1.1787  2.7839
  325SOL    HW2  975   1.189   3.126   0.560  0.1636 -0.4285  0.8031
  326SOL     OW  976   2.309   0.806   0.076  0.0568 -0.8873 -0.5838
  326SOL    HW1  977   2.218   0.820   0.024 -2.4656  3.0716  2.7011
  326SOL    HW2  978   2.309   0.720   0.134 -0.8660 -1.0979 -0.2517
  327SOL     OW  979   2.692   0.434   0.538  0.1299 -0.0827 -0.1422
  327SOL    HW1  980   2.732   0.386   0.454  0.5667  0.7163 -0.9083
  327SOL    HW2  981   2.601   0.393   0.571  0.7611  0.2025 -2.1263
  328SOL     OW  982   2.539   0.618   0.352 -0.3183  0.1977 -0.2673
  328SOL    HW1  983   2.443   0.626   0.394 -0.4683 -4.0918  2.6166
  328SOL    HW2  984   2.614   0.592   0.423 -1.3886  2.5078  3.5492
  329SOL     OW  985   2.995   2.940   2.127 -0.6120 -0.0974 -0.0966
  329SOL    HW1  986   3.062   2.909   2.204  0.6381 -1.5228  1.0831
  329SOL    HW2  987   3.011   3.044   2.100 -2.8596 -0.5702 -4.6386
  330SOL     OW  988   0.496   0.227   1.857  0.4480  0.1942 -0.7704
  330SOL    HW1  989   0.501   0.330   1.850 -0.3525 -0.8428  0.9220
  330SOL    HW2  990   0.583   0.192   1.902 -0.6535 -1.0403 -0.8276
  331SOL     OW  991   2.875   1.927   1.090  0.0402 -0.4682  0.1716
  331SOL    HW1  992   2.924   2.018   1.067  1.1600  0.8241 -0.8531
  331SOL    HW2  993   2.798   1.941   1.162  3.3735 -0.9057 -1.0050
  332SOL     OW  994   0.429   1.036   0.025  0.9142  0.2663 -0.0076
  332SOL    HW1  995   0.376   0.997  -0.060 -0.9579  0.1519  1.6057
  332SOL    HW2  996   0.364   1.084   0.091 -0.3231 -2.9602 -1.2454
  333SOL     OW  997   2.859   1.026   0.311 -0.1968 -0.1321 -0.4805
  333SOL    HW1  998   2.906   1.097   0.369 -0.5032  0.0867  0.0622
  333SOL    HW2  999   2.927   0.969   0.265  1.6053 -0.9271  0.8764
  334SOL     OW 1000   1.640   1.149   1.898 -0.0673 -0.1168  0.6162
  334SOL    HW1 1001   1.714   1.128   1.832  0.2297  2.7822 -3.4409
  334SOL    HW2 1002   1.649   1.249   1.929  0.6356  2.9140  0.7941
  335SOL     OW 1003   1.951   2.807   2.619  0.8664 -0.2514 -0.0531
  335SOL    HW1 1004   1.996   2.777   2.704  2.4800  1.2650  0.2157
  335SOL    HW2 1005   1.861   2.847   2.643  1.3381 -1.1141  0.9332
  336SOL     OW 1006   0.207   0.064   2.694  0.2384 -0.1866 -0.2175
  336SOL    HW1 1007   0.297   0.024   2.714 -1.6584  1.8308  1.9130
  336SOL    HW2 1008   0.200   0.158   2.738  1.3465  0.3348  0.0577
  337SOL     OW 1009   1.002   2.811   2.819 -0.4764  0.0875 -0.2761
  337SOL    HW1 1010   0.982   2.796   2.922  0.6136  0.6853  2.5638
  337SOL    HW2 1011   1.103   2.785   2.797  2.1287  1.5206  0.3982
  338SOL     OW 1012   0.008   1.014   0.608 -0.1292 -0.5757 -0.7453
  338SOL    HW1 1013  -0.083   0.996   0.654  0.6473 -0.9733  2.0345
  338SOL    HW2 1014   0.014   1.114   0.606 -1.0654 -0.8647  1.2614
  339SOL     OW 1015   1.716   1.395   2.058  0.2174 -0.0458  0.3126
  339SOL    HW1 1016   1.619   1.399   2.091  1.1530  1.7710  1.5143
  339SOL    HW2 1017   1.751   1.488   2.027  0.5063 -1.8499  2.2932
  340SOL     OW 1018   2.286   0.791   1.283  0.1400 -0.2641  0.0593
  340SOL    HW1 1019   2.196   0.827   1.241 -1.7608 -1.0241 -1.7320
  340SOL    HW2 1020   2.331   0.726   1.221 -0.5337  0.9121 -1.0693
  341SOL     OW 1021   1.876   2.167   0.472  0.3755  0.6864  0.0842
  341SOL    HW1 1022   1.862   2.199   0.368  0.0360  1.0163 -1.1222
  341SOL    HW2 1023   1.974   2.181   0.504 -1.7767  1.6229  1.3525
  342SOL     OW 1024   2.234   2.195   2.807 -0.0838  0.3599  0.5718
  342SOL    HW1 1025   2.297   2.123   2.840 -2.4183  2.2495 -1.6897
  342SOL    HW2 1026   2.144   2.151   2.776 -2.2495 -2.7127  0.5285
  343SOL     OW 1027   0.310   0.890   2.865  0.1734  0.3650 -0.0043
  343SOL    HW1 1028   0.287   0.946   2.779 -0.4976  0.6568 -1.9319
  343SOL    HW2 1029   0.405   0.859   2.867 -1.1487 -0.7047  0.5305
  344SOL     OW 1030   1.882   1.464   0.303 -0.7505  0.1822  0.5876
  344SOL    HW1 1031   1.844   1.395   0.233 -0.2521  0.7117 -1.0124
  344SOL    HW2 1032   1.846   1.562   0.292 -0.2057 -1.3171 -0.8258
  345SOL     OW 1033   1.453   2.211   2.858 -0.7123 -0.0587 -0.4915
  345SOL    HW1 1034   1.364   2.160   2.834 -0.3833 -0.3161  2.3984
  345SOL    HW2 1035   1.539   2.172   2.813 -0.0527  0.2069 -0.1192
  346SOL     OW 1036   2.413   0.886   1.500  0.9004  0.3129 -0.9695
  346SOL    HW1 1037   2.387   0.982   1.519 -0.5008 -1.2982  1.4746
  346SOL    HW2 1038   2.348   0.845   1.427 -0.9147 -1.4711 -0.5173
  347SOL     OW 1039   0.675   2.800   1.519  0.3514 -1.1199 -0.4708
  347SOL    HW1 1040   0.660   2.734   1.599 -1.2831 -1.0280 -0.1478
  347SOL    HW2 1041   0.583   2.845   1.491 -0.9405 -1.9344 -1.4895
  348SOL     OW 1042   0.101   0.690   2.810 -0.8076 -0.3821 -0.4070
  348SOL    HW1 1043   0.001   0.707   2.808  0.2474  0.3401  2.2613
  348SOL    HW2 1044   0.152   0.777   2.810 -0.5308 -1.0101 -1.0935
  349SOL     OW 1045   1.925   0.468   2.738 -0.0915 -0.1114  0.4906
  349SOL    HW1 1046   1.917   0.553   2.676 -0.2720 -0.1108 -0.5098
  349SOL    HW2 1047   1.889   0.486   2.833 -3.2179 -1.1922 -0.3413
  350SOL     OW 1048   1.669   0.369   0.350 -0.4960 -0.8283  0.4622
  350SOL    HW1 1049   1.729   0.388   0.433 -0.2728  4.2447 -1.7481
  350SOL    HW2 1050   1.651   0.450   0.281 -0.1387  0.5870 -1.0100
  351SOL     OW 1051   0.925   0.908   2.111  0.2288  0.0166 -0.1684
  351SOL    HW1 1052   0.924   1.008   2.090 -1.3809 -3.5633  1.2097
  351SOL    HW2 1053   0.861   0.854   2.046 -1.1673  1.2607  0.9616
  352SOL     OW 1054   1.968   1.369   0.564 -0.0560  0.0216  0.3324
  352SOL    HW1 1055   1.931   1.409   0.471 -1.7530  3.5560 -0.8409
  352SOL    HW2 1056   2.036   1.438   0.608 -1.3647 -0.3056 -0.3316
  353SOL     OW 1057   2.143   2.808   1.194  0.2730  0.2208  0.0384
  353SOL    HW1 1058   2.231   2.771   1.161 -2.1959  1.8290  0.7353
  353SOL    HW2 1059   2.060   2.761   1.156  0.0177 -0.5965 -1.4664
  354SOL     OW 1060   0.302   1.364   2.922  0.3387 -0.3294 -0.0317
  354SOL    HW1 1061   0.267   1.443   2.873  1.5339 -0.3020 -0.6120
  354SOL    HW2 1062   0.402   1.345   2.900 -0.6688 -2.2759 -1.2687
  355SOL     OW 1063   0.452   1.489   0.522 -0.2264 -0.3909  0.8095
  355SOL    HW1 1064   0.514   1.575   0.518 -1.2722  1.7377 -0.0802
  355SOL    HW2 1065   0.513   1.403   0.525  0.7489 -1.8135 -0.7901
  356SOL     OW 1066   0.801   0.400   2.073  0.6862  0.0453  0.0246
  356SOL    HW1 1067   0.889   0.396   2.128 -1.0481  2.2130 -0.9806
  356SOL    HW2 1068   0.800   0.329   1.993  2.9303  1.1062  0.2095
  357SOL     OW 1069   1.068   1.316   0.175  0.3236 -0.7684 -0.3914
  357SOL    HW1 1070   1.041   1.264   0.090 -3.7847  2.1233 -0.1154
  357SOL    HW2 1071   1.036   1.265   0.260 -2.2891  3.2761  2.5937
  358SOL     OW 1072   1.612   1.648   0.281  0.3514  0.2588  0.3988
  358SOL    HW1 1073   1.620   1.549   0.313 -1.7827 -1.3734  1.0980
  358SOL    HW2 1074   1.540   1.702   0.335 -1.6105  0.3014  1.4751
  359SOL     OW 1075   1.569   2.712   0.125  0.0706 -0.1638 -0.0219
  359SOL    HW1 1076   1.592   2.662   0.038  0.3386  2.0318  2.1602
  359SOL    HW2 1077   1.472   2.688   0.161 -1.4935 -0.6302  0.4967
  360SOL     OW 1078   0.867   0.582   0.457  0.6639  0.1875  0.7022
  360SOL    HW1 1079   0.783   0.597   0.520  1.2307  0.3353 -4.1765
  360SOL    HW2 1080   0.900   0.483   0.455  2.4838  0.0577  0.5494
  361SOL     OW 1081   1.286   1.370   0.636  0.4285  0.0235  0.1433
  361SOL    HW1 1082   1.322   1.392   0.730 -2.0537  0.0173  0.7417
  361SOL    HW2 1083   1.181   1.372   0.639 -0.2177 -1.9998  2.8511
  362SOL     OW 1084   1.384   1.732   0.784  0.0508 -0.1467 -0.0970
  362SOL    HW1 1085   1.431   1.688   0.862 -0.8070  0.5110  0.9263
  362SOL    HW2 1086   1.427   1.820   0.756 -0.0517 -1.0055 -3.4908
  363SOL     OW 1087   1.124   1.295   2.037  0.1420  0.5668 -0.2369
  363SOL    HW1 1088   1.111   1.383   2.091 -2.9536  1.3442 -1.1408
  363SOL    HW2 1089   1.164   1.312   1.941  2.0015  0.7426 -1.2636
  364SOL     OW 1090   0.580   2.357   2.007  0.1503 -0.7848  0.5384
  364SOL    HW1 1091   0.474   2.369   2.001  0.0600  0.0476 -0.2876
  364SOL    HW2 1092   0.620   2.410   1.926  1.0386 -0.0544  2.3624
  365SOL     OW 1093   1.142   1.768   1.443 -0.0114  0.5723 -0.0397
  365SOL    HW1 1094   1.065   1.818   1.487  0.2001 -0.5601 -1.0195
  365SOL    HW2 1095   1.146   1.670   1.468  0.5047  0.7377  1.5665
  366SOL     OW 1096   2.830   2.066   0.483  0.3313 -0.3455 -0.2644
  366SOL    HW1 1097   2.744   2.010   0.505 -2.0831  1.6229 -1.5169
  366SOL    HW2 1098   2.895   2.011   0.420 -4.1069 -0.3976 -1.3123
  367SOL     OW 1099   0.829   1.168   0.074 -0.1421 -0.0467 -0.0961
  367SOL    HW1 1100   0.877   1.085   0.105 -0.3410 -1.4537  2.2753
  367SOL    HW2 1101   0.839   1.184  -0.027 -1.6308  0.0818 -1.7938
  368SOL     OW 1102   1.504   0.487   0.607  0.1396 -0.7395  0.6764
  368SOL    HW1 1103   1.463   0.548   0.529  0.3553  0.9766 -1.2568
  368SOL    HW2 1104   1.606   0.485   0.604  1.3609  0.7737 -0.5178
  369SOL     OW 1105   0.289   1.668   0.108  0.4779 -0.3020 -0.4037
  369SOL    HW1 1106   0.293   1.771   0.120  1.8019  3.2267  0.8487
  369SOL    HW2 1107   0.204   1.619   0.135  0.5680 -0.1768 -3.6310
  370SOL     OW 1108   0.461   2.118   0.983 -0.0153  0.1045  0.0322
  370SOL    HW1 1109   0.470   2.220   0.969  0.4441 -0.0489 -0.5602
  370SOL    HW2 1110   0.367   2.087   0.948  0.0857 -1.7424  1.4200
  371SOL     OW 1111   2.970   2.185   2.786 -0.3857  0.7299 -0.5375
  371SOL    HW1 1112   2.971   2.184   2.893  0.5653 -2.0368  2.2745
  371SOL    HW2 1113   3.041   2.251   2.745 -0.9229 -1.2183  3.0862
  372SOL     OW 1114   0.869   1.909   1.012  0.0697 -0.5659  0.3936
  372SOL    HW1 1115   0.829   1.977   1.078 -1.5466 -1.2653 -1.2875
  372SOL    HW2 1116   0.944   1.947   0.951  1.8018 -1.9367 -1.3054
  373SOL     OW 1117   1.930   1.938   0.928 -0.1420  0.6584  0.6714
  373SOL    HW1 1118   1.997   1.967   1.005  2.3032 -2.2787 -0.3755
  373SOL    HW2 1119   1.835   1.975   0.938  0.9004  0.9193  0.3921
  374SOL     OW 1120   1.821   0.452   0.581  0.6766  0.1247  0.0162
  374SOL    HW1 1121   1.839   0.390   0.656 -3.3206 -0.8878 -0.7532
  374SOL    HW2 1122   1.909   0.463   0.524 -0.1960  1.7574  0.8197
  375SOL     OW 1123   2.472   2.311   1.129  0.1312 -0.5404 -0.4762
  375SOL    HW1 1124   2.500   2.257   1.043  2.0600 -2.0565  0.9640
  375SOL    HW2 1125   2.501   2.256   1.210  0.8247  1.6947 -2.0307
  376SOL     OW 1126   3.053   0.653   1.469  0.6205 -0.4361 -0.3318
  376SOL    HW1 1127   3.100   0.727   1.525  0.7400  1.7220  1.1490
  376SOL    HW2 1128   2.952   0.667   1.460  2.0170  0.7327 -0.2575
  377SOL     OW 1129   2.177   2.802   0.323  0.3809  0.2687  0.0112
  377SOL    HW1 1130   2.113   2.872   0.358 -0.4126 -1.7345 -0.8568
  377SOL    HW2 1131   2.270   2.836   0.294  1.4899  2.4276  0.9208
  378SOL     OW 1132   1.875   1.828   2.675  0.0173  0.2659 -0.1726
  378SOL    HW1 1133   1.941   1.751   2.692  0.4660  2.6475  0.4632
  378SOL    HW2 1134   1.779   1.805   2.648  0.1699 -0.3724 -2.1872
  379SOL     OW 1135   0.877   0.113   2.697 -0.0679  0.5522  0.6097
  379SOL    HW1 1136   0.894   0.014   2.670  0.0333  2.0740 -0.6499
  379SOL    HW2 1137   0.795   0.151   2.643 -0.8942  0.0298  1.0371
  380SOL     OW 1138   1.580   1.135   0.529 -0.3363  0.5466  0.5652
  380SOL    HW1 1139   1.517   1.052   0.540 -0.1025 -0.5648 -0.0174
  380SOL    HW2 1140   1.588   1.196   0.608  0.9075  0.2604 -1.2121
  381SOL     OW 1141   1.297   1.266   1.506 -0.3360 -0.2514 -0.1664
  381SOL    HW1 1142   1.333   1.335   1.443 -0.5014 -1.0955  0.3997
  381SOL    HW2 1143   1.362   1.238   1.584  0.4793 -2.0350  0.1300
  382SOL     OW 1144   1.727   0.794   0.258  0.0612 -0.1943  0.3192
  382SOL    HW1 1145   1.753   0.786   0.155  1.8300 -2.0587 -0.4916
  382SOL    HW2 1146   1.777   0.724   0.309 -1.5913  1.1143 -0.1692
  383SOL     OW 1147   2.657   1.004   1.534  0.9294 -0.0973  0.1372
  383SOL    HW1 1148   2.567   0.956   1.509 -2.1055 -0.0587  0.1467
  383SOL    HW2 1149   2.722   1.013   1.461 -3.0732  3.8274  3.3682
  384SOL     OW 1150   1.013   2.305   0.125 -0.1743  0.1585  0.2985
  384SOL    HW1 1151   0.922   2.348   0.120  0.5719  1.4272 -0.8748
  384SOL    HW2 1152   1.025   2.253   0.219 -0.2846 -1.2716  0.7197
  385SOL     OW 1153   2.978   2.056   1.687 -0.1604  0.4090  0.0334
  385SOL    HW1 1154   3.063   2.121   1.678  0.7503 -0.7821  0.8843
  385SOL    HW2 1155   2.995   1.950   1.684 -0.0006 -4.9153  1.1775
  386SOL     OW 1156   0.424   1.045   0.449  0.5150 -0.4666  0.6287
  386SOL    HW1 1157   0.417   0.940   0.444  0.3972  0.1695 -0.5747
  386SOL    HW2 1158   0.370   1.091   0.366 -1.7966 -0.2161 -0.7065
  387SOL     OW 1159   1.014   0.360   1.696 -0.3332  0.2037 -0.3948
  387SOL    HW1 1160   1.076   0.446   1.679  0.4725 -0.5930  0.3469
  387SOL    HW2 1161   1.010   0.299   1.617 -0.0655 -2.4001  1.7830
  388SOL     OW 1162   1.270   2.559   1.754  0.2868 -0.0464 -0.2295
  388SOL    HW1 1163   1.287   2.546   1.651 -0.2309  0.3486 -1.6822
  388SOL    HW2 1164   1.311   2.481   1.806 -1.9863 -0.3247 -0.0632
  389SOL     OW 1165   0.235   3.104   1.135 -0.0135  0.0125  0.0002
  389SOL    HW1 1166   0.214   3.069   1.235 -0.3975  0.4738  1.6483
  389SOL    HW2 1167   0.282   3.029   1.077  2.7903  0.5158  3.7196
  390SOL     OW 1168   1.072   0.856   1.165 -0.1141 -0.1974 -0.2598
  390SOL    HW1 1169   1.165   0.804   1.159  2.5915 -1.4028  0.4884
  390SOL    HW2 1170   1.051   0.890   1.257  2.0835  0.2087 -2.6740
  391SOL     OW 1171   2.075   1.140   1.087 -0.0403  0.4492 -0.6305
  391SOL    HW1 1172   2.063   1.052   1.139 -0.9062  2.5426 -0.4537
  391SOL    HW2 1173   2.116   1.126   0.991  1.4763 -0.5115  1.8127
  392SOL     OW 1174   0.915   2.709   3.084 -0.3242 -0.1566  0.5080
  392SOL    HW1 1175   0.833   2.711   3.149 -1.8909 -0.8892  0.9259
  392SOL    HW2 1176   0.991   2.768   3.122  1.6817 -1.0937 -0.0515
  393SOL     OW 1177   0.361   0.585   1.992 -0.0608 -0.3788 -0.3096
  393SOL    HW1 1178   0.280   0.521   1.979  0.5608 -1.3945  1.9328
  393SOL    HW2 1179   0.442   0.558   1.933  0.1277  0.7525 -0.7469
  394SOL     OW 1180   2.823   1.810   2.747  0.0591 -0.6183  0.1603
  394SOL    HW1 1181   2.868   1.824   2.655  0.5924 -0.3745  1.6008
  394SOL    HW2 1182   2.757   1.892   2.763  1.4280 -1.6840 -2.7634
  395SOL     OW 1183   1.554   1.952   0.710  0.3306  0.0244 -0.0201
  395SOL    HW1 1184   1.631   1.894   0.678  0.2740  1.5131 -0.0429
  395SOL    HW2 1185   1.572   2.015   0.782 -0.9570 -1.7276 -0.0208
  396SOL     OW 1186   2.730   1.958   1.324 -0.2236  0.4170 -0.1802
  396SOL    HW1 1187   2.757   2.002   1.416  0.3092 -3.0738  2.5210
  396SOL    HW2 1188   2.626   1.955   1.314  0.5272 -0.5166 -0.5458
  397SOL     OW 1189   0.963   2.156   0.639  0.3974  0.0238  0.4798
  397SOL    HW1 1190   0.885   2.108   0.597 -0.1924 -0.0284 -1.5290
  397SOL    HW2 1191   0.939   2.247   0.678  3.1444  0.2614 -0.5437
  398SOL     OW 1192   2.227   3.075   1.109 -0.1823 -0.0632 -0.5556
  398SOL    HW1 1193   2.178   2.992   1.145  2.1589  1.4466 -1.5167
  398SOL    HW2 1194   2.163   3.151   1.078 -2.9128  0.2513 -3.4104
  399SOL     OW 1195   2.889   2.587   2.769 -0.3093 -0.3828 -0.3130
  399SOL    HW1 1196   2.854   2.546   2.681  1.8918 -0.6326  2.4119
  399SOL    HW2 1197   2.838   2.558   2.856  1.4758  3.5362 -0.3764
  400SOL     OW 1198   0.803   1.566   1.301 -0.6391  0.1968 -0.2474
  400SOL    HW1 1199   0.762   1.607   1.389 -0.2254  0.9713  0.9140
  400SOL    HW2 1200   0.773   1.609   1.210  1.4262 -1.0033  0.0155
  401SOL     OW 1201   1.859   0.151   1.280 -0.3324 -0.1327  0.3128
  401SOL    HW1 1202   1.900   0.186   1.367 -0.3471 -0.5826  0.3987
  401SOL    HW2 1203   1.763   0.185   1.262 -1.3171 -0.6244 -1.8023
  402SOL     OW 1204   1.355   0.136   3.018 -1.1833 -0.1883 -0.2829
  402SOL    HW1 1205   1.450   0.157   2.967  2.8834  0.7669  1.9599
  402SOL    HW2 1206   1.340   0.191   3.105  2.1451  2.4787  0.3895
  403SOL     OW 1207   2.260   1.861   0.953 -0.5286  0.3182  0.0729
  403SOL    HW1 1208   2.351   1.837   0.999  1.1779 -2.4253 -1.8466
  403SOL    HW2 1209   2.216   1.946   0.992  0.8086 -1.7907  0.9650
  404SOL     OW 1210   0.227   2.478   2.771  0.4778 -0.3397  0.3609
  404SOL    HW1 1211   0.305   2.451   2.707 -0.3377 -0.1100 -1.4597
  404SOL    HW2 1212   0.212   2.578   2.784  0.3847 -0.9863 -1.2099
  405SOL     OW 1213   0.188   2.517   0.565  0.0502 -0.4963  0.4803
  405SOL    HW1 1214   0.194   2.418   0.593  1.9079 -1.5289 -1.4663
  405SOL    HW2 1215   0.278   2.564   0.589  2.6878  0.1552 -1.0963
  406SOL     OW 1216   0.038   1.641   3.021 -0.0750 -0.0895 -0.3432
  406SOL    HW1 1217   0.075   1.604   2.935 -1.4615  1.2492  2.1979
  406SOL    HW2 1218   0.042   1.567   3.098  0.2594 -2.3818 -0.9570
  407SOL     OW 1219   1.559   0.932   0.947  0.4716  0.5457  0.5759
  407SOL    HW1 1220   1.581   0.887   0.856  0.8662 -2.1135  1.1449
  407SOL    HW2 1221   1.464   0.974   0.950  0.5573  3.1146  2.9331
  408SOL     OW 1222   1.467   2.319   0.913 -0.2054 -0.2284  0.1211
  408SOL    HW1 1223   1.552   2.326   0.850  0.5613  0.9253  0.6969
  408SOL    HW2 1224   1.464   2.397   0.982  0.0490  0.9748 -0.2855
  409SOL     OW 1225   0.613   0.854   0.687  0.0470  0.1254  0.0428
  409SOL    HW1 1226   0.520   0.863   0.648 -1.1413 -1.6325  0.8024
  409SOL    HW2 1227   0.642   0.759   0.677  3.6038  0.8760 -1.9785
  410SOL     OW 1228   1.356   1.948   1.479  0.1762  1.0376  0.4919
  410SOL    HW1 1229   1.324   2.035   1.517  2.1157 -0.8051  0.2075
  410SOL    HW2 1230   1.282   1.877   1.480  2.0979 -1.6281  0.5126
  411SOL     OW 1231   2.375   1.856   0.064  0.2285 -0.2887  0.2265
  411SOL    HW1 1232   2.293   1.862  -0.005 -0.4036 -0.4941 -3.0557
  411SOL    HW2 1233   2.458   1.901   0.026  0.4458  0.7261  1.2605
  412SOL     OW 1234   1.620   2.446   2.261 -0.0239  0.0003  0.3084
  412SOL    HW1 1235   1.627   2.538   2.300 -0.7495  0.3531  1.3027
  412SOL    HW2 1236   1.542   2.400   2.307 -0.3295 -1.1707  0.2495
  413SOL     OW 1237   3.072   0.267   2.880 -0.0633  0.8311 -0.3806
  413SOL    HW1 1238   3.011   0.224   2.950  1.2263  0.7037 -0.0034
  413SOL    HW2 1239   3.165   0.269   2.915 -2.6606  0.4354 -1.4297
  414SOL     OW 1240   1.708   1.359   1.375 -0.2111 -0.3338 -0.3965
  414SOL    HW1 1241   1.621   1.396   1.404  4.0745  1.5928 -2.2027
  414SOL    HW2 1242   1.730   1.378   1.270 -0.4431  0.6713 -2.2465
  415SOL     OW 1243   0.215   2.280   0.664  0.2598  0.2858  0.1010
  415SOL    HW1 1244   0.222   2.192   0.721  0.0887  1.3993 -1.9851
  415SOL    HW2 1245   0.110   2.290   0.632 -1.2513 -1.7110  2.5803
  416SOL     OW 1246   0.320   1.073   1.076  0.3368 -0.4363 -0.5177
  416SOL    HW1 1247   0.319   1.039   0.975 -0.4329 -0.5220 -0.8509
  416SOL    HW2 1248   0.409   1.114   1.104  1.2150  0.2666  1.3766
  417SOL     OW 1249   2.200   2.339   1.867 -0.3443  0.0402  0.4376
  417SOL    HW1 1250   2.249   2.253   1.894  0.2258  0.0573 -0.7972
  417SOL    HW2 1251   2.113   2.347   1.917  1.2032  2.8676  0.1100
  418SOL     OW 1252   1.135   0.553   1.349 -0.3782 -0.3486  0.3556
  418SOL    HW1 1253   1.053   0.514   1.314 -1.1133  2.4863 -0.0370
  418SOL    HW2 1254   1.221   0.525   1.297  0.9013 -2.3586 -4.2666
  419SOL     OW 1255   0.958   0.387   2.991  0.0719 -0.2170  0.0601
  419SOL    HW1 1256   0.984   0.445   2.908 -0.5425 -0.4499 -0.0603
  419SOL    HW2 1257   0.923   0.295   2.961  0.0324  0.0596 -1.1954
  420SOL     OW 1258   0.187   2.242   0.355 -0.9304  0.5851  0.5429
  420SOL    HW1 1259   0.166   2.214   0.255  4.2196 -1.4790  3.5458
  420SOL    HW2 1260   0.104   2.243   0.422 -1.2272  2.0251  3.1004
  421SOL     OW 1261   0.319   0.070   0.711  0.7862  0.4829  0.1592
  421SOL    HW1 1262   0.356  -0.004   0.654 -1.4996 -0.3817  0.1401
  421SOL    HW2 1263   0.393   0.136   0.742  1.0222  1.7986 -1.0845
  422SOL     OW 1264   0.922   2.527   1.029  0.1537 -0.1416  0.3500
  422SOL    HW1 1265   0.932   2.601   0.960 -2.5795  0.5099  0.0129
  422SOL    HW2 1266   0.951   2.552   1.122  2.7013  0.2467 -3.0461
  423SOL     OW 1267   0.058   0.689   1.220  0.2356  0.5563  0.1057
  423SOL    HW1 1268   0.077   0.676   1.316 -3.0780 -0.9462 -1.4348
  423SOL    HW2 1269  -0.024   0.633   1.187 -0.1189  1.6220 -2.9669
  424SOL     OW 1270   0.996   2.153   2.220 -0.4971 -0.3287  0.3589
  424SOL    HW1 1271   0.953   2.197   2.134 -1.0288 -2.2800 -0.9323
  424SOL    HW2 1272   0.932   2.139   2.300  0.3021  1.6863 -0.4282
  425SOL     OW 1273   2.061   1.401   1.129 -0.3646  0.1302  0.2614
  425SOL    HW1 1274   2.080   1.297   1.107 -2.6684 -2.0727 -2.2285
  425SOL    HW2 1275   2.095   1.459   1.052  0.9219 -1.3323 -0.8524
  426SOL     OW 1276   1.478   1.538   1.428  0.6874 -0.3448 -0.4026
  426SOL    HW1 1277   1.464   1.623   1.364  0.1416 -0.2689 -0.3926
  426SOL    HW2 1278   1.487   1.569   1.526  0.2866  0.0578 -1.2021
  427SOL     OW 1279   1.988   2.327   2.020 -0.3616 -0.0714  0.2377
  427SOL    HW1 1280   1.991   2.268   2.102 -1.2375 -2.1360  3.0352
  427SOL    HW2 1281   1.980   2.427   2.047 -1.6246  0.8894 -0.6521
  428SOL     OW 1282   0.914   0.012   0.050 -0.0615 -0.5682 -0.3635
  428SOL    HW1 1283   0.954   0.093   0.107 -1.6179  0.1882 -1.7035
  428SOL    HW2 1284   0.981  -0.065   0.046 -0.3033  1.4015  0.5070
  429SOL     OW 1285   1.242   0.067   0.224  0.3299 -0.4348 -0.4350
  429SOL    HW1 1286   1.339   0.103   0.226 -3.2742  2.9310  2.9855
  429SOL    HW2 1287   1.235  -0.026   0.173  0.4545 -1.4516  1.1087
  430SOL     OW 1288   2.778   1.480   0.303 -0.3022  0.4285  0.3850
  430SOL    HW1 1289   2.738   1.538   0.235  0.6592 -0.9410 -0.8245
  430SOL    HW2 1290   2.806   1.530   0.392 -1.5385  0.6447  3.2317
  431SOL     OW 1291   2.105   1.613   0.928 -0.5963  0.4078  0.0859
  431SOL    HW1 1292   2.163   1.699   0.946 -3.0413  2.1092  1.8768
  431SOL    HW2 1293   2.027   1.635   0.863 -0.6058  2.1634 -1.1526
  432SOL     OW 1294   2.932   2.182   1.265 -0.0884  0.4599 -0.4706
  432SOL    HW1 1295   2.842   2.133   1.274 -1.9776  3.9707  1.9192
  432SOL    HW2 1296   2.936   2.277   1.312 -0.6500  1.1941  0.6340
  433SOL     OW 1297   1.857   0.291   0.829 -0.2560 -0.8807  0.0448
  433SOL    HW1 1298   1.772   0.252   0.866  0.4358 -3.4016 -0.3958
  433SOL    HW2 1299   1.911   0.345   0.900  2.9003  0.8242  0.4657
  434SOL     OW 1300   1.473   0.227   0.725  0.1143  0.6894 -0.4253
  434SOL    HW1 1301   1.476   0.312   0.672  1.6884 -1.7567  2.4487
  434SOL    HW2 1302   1.518   0.231   0.820  1.3474  0.3717  0.4562
  435SOL     OW 1303   1.431   1.403   2.067 -0.3227  0.4194 -0.2708
  435SOL    HW1 1304   1.393   1.393   2.165 -0.3229  1.3143  1.0812
  435SOL    HW2 1305   1.405   1.494   2.021  0.0600  3.5429  0.5483
  436SOL     OW 1306   1.673   2.682   2.449 -0.4206 -0.2518 -0.3407
  436SOL    HW1 1307   1.642   2.781   2.455  3.4114  0.0328  0.9479
  436SOL    HW2 1308   1.602   2.620   2.488  3.1889  0.3557  1.3445
  437SOL     OW 1309   1.017   3.009   0.870 -0.6138 -0.4850  0.2934
  437SOL    HW1 1310   0.940   3.081   0.861 -1.3789  0.0542 -2.0643
  437SOL    HW2 1311   1.064   3.018   0.963  1.2735 -1.2055 -1.3299
  438SOL     OW 1312   1.000   2.557   1.289  0.3171 -0.5823  1.0073
  438SOL    HW1 1313   1.081   2.608   1.327 -1.6058  0.7824  0.7295
  438SOL    HW2 1314   0.998   2.455   1.309 -0.1035 -2.1880 -1.1387
  439SOL     OW 1315   0.705   1.688   1.060 -0.4907  0.1509  0.1218
  439SOL    HW1 1316   0.775   1.764   1.045 -0.2764  0.9798 -0.7267
  439SOL    HW2 1317   0.619   1.724   1.104  0.4166  0.1436 -1.3230
  440SOL     OW 1318   0.958   2.326   1.983  0.5430 -0.0886 -0.5228
  440SOL    HW1 1319   0.970   2.425   1.950 -0.2189  1.2893 -0.0130
  440SOL    HW2 1320   0.998   2.256   1.917 -3.0887  0.6183 -2.2375
  441SOL     OW 1321   0.368   2.827   1.321  0.3085  0.5872 -0.1581
  441SOL    HW1 1322   0.411   2.734   1.308  1.8548  1.8790 -0.0733
  441SOL    HW2 1323   0.326   2.863   1.231 -3.6227  0.5586  2.2281
  442SOL     OW 1324   2.225   0.682   2.569 -0.0058 -0.0331 -0.0916
  442SOL    HW1 1325   2.234   0.591   2.516  1.0845 -0.4327 -0.1718
  442SOL    HW2 1326   2.172   0.756   2.523  2.5269  1.0184  0.5663
  443SOL     OW 1327   1.319   2.492   2.236 -0.4179  0.2201 -0.5593
  443SOL    HW1 1328   1.281   2.411   2.286  0.1955  1.5883  1.3269
  443SOL    HW2 1329   1.288   2.583   2.272  1.7858  1.2622  0.5251
  444SOL     OW 1330   0.952   1.171   1.438  0.3404  1.1300  0.3266
  444SOL    HW1 1331   1.037   1.119   1.431 -1.5747 -0.0808  0.5335
  444SOL    HW2 1332   0.976   1.269   1.418  0.8488 -2.0778 -1.9734
  445SOL     OW 1333   0.152   2.120   2.033 -0.0636  0.6507  0.2934
  445SOL    HW1 1334   0.179   2.020   2.028 -0.2483  2.4324 -0.1880
  445SOL    HW2 1335   0.096   2.132   2.121 -0.5927 -0.2060  3.2071
  446SOL     OW 1336   0.122   2.002   2.393 -0.3073 -0.0433  0.5074
  446SOL    HW1 1337   0.091   2.098   2.363  1.2187 -2.2003  1.8864
  446SOL    HW2 1338   0.126   1.934   2.311 -0.5457  2.1231 -0.8359
  447SOL     OW 1339   1.298   1.617   1.920 -0.6735  0.4377  0.6064
  447SOL    HW1 1340   1.247   1.679   1.852  1.2446  1.1649 -0.8347
  447SOL    HW2 1341   1.366   1.673   1.979 -1.5550  2.1382  0.3142
  448SOL     OW 1342   0.157   1.473   2.014  0.2976 -0.0868 -0.2298
  448SOL    HW1 1343   0.170   1.565   1.963 -2.3272  1.7213 -2.9690
  448SOL    HW2 1344   0.105   1.484   2.101  1.5850  0.6778 -1.3541
  449SOL     OW 1345   1.877   3.037   0.835  0.2687 -0.1145  0.2652
  449SOL    HW1 1346   1.863   3.037   0.930  2.2573  1.8347 -3.4688
  449SOL    HW2 1347   1.914   2.946   0.806 -0.3061 -0.0737 -0.8982
  450SOL     OW 1348   2.183   1.512   0.681  0.7205  0.0338  0.0653
  450SOL    HW1 1349   2.185   1.516   0.783  2.3407 -2.2184 -1.0334
  450SOL    HW2 1350   2.244   1.580   0.638 -0.3737 -0.2223 -0.0372
  451SOL     OW 1351   1.392   2.981   1.471 -0.3988 -0.0722 -0.5215
  451SOL    HW1 1352   1.330   3.059   1.492  2.0960 -2.5025  2.0284
  451SOL    HW2 1353   1.428   2.940   1.557 -0.7083  0.5967  0.9922
  452SOL     OW 1354   2.671   2.312   2.279  0.2450 -0.4391  0.6217
  452SOL    HW1 1355   2.587   2.377   2.267  0.8237 -1.0351  0.0199
  452SOL    HW2 1356   2.690   2.284   2.377  2.5135 -0.6741 -0.3450
  453SOL     OW 1357   2.492   2.682   0.009 -0.0829 -0.0394 -0.0744
  453SOL    HW1 1358   2.390   2.719   0.014 -2.4492  1.9986 -2.5119
  453SOL    HW2 1359   2.506   2.610  -0.067  1.9970  0.5143 -2.9062
  454SOL     OW 1360   0.884   1.157   2.028  0.3266 -0.0659  0.1989
  454SOL    HW1 1361   0.865   1.165   1.927 -0.8011  0.8272  0.5330
  454SOL    HW2 1362   0.985   1.188   2.045  0.0961  1.3813  0.6075
  455SOL     OW 1363   0.776   2.604   2.799 -0.7294  0.0855  0.5412
  455SOL    HW1 1364   0.850   2.673   2.825 -1.7550 -0.6872 -1.5031
  455SOL    HW2 1365   0.765   2.535   2.872 -0.4643  2.3411 -2.4335
  456SOL     OW 1366   0.307   1.930   0.208  0.1406  0.1002  0.4128
  456SOL    HW1 1367   0.396   1.968   0.240 -0.5196  0.9135  0.9414
  456SOL    HW2 1368   0.245   2.009   0.182  0.7411  0.8786  0.2144
  457SOL     OW 1369   0.408   2.671   0.642  0.0237 -1.0188 -0.0186
  457SOL    HW1 1370   0.438   2.700   0.548 -2.0764  0.7428  0.7476
  457SOL    HW2 1371   0.489   2.658   0.709 -0.0183  0.8408  2.1834
  458SOL     OW 1372   2.949   0.011   1.287 -0.9833  0.1489  0.3128
  458SOL    HW1 1373   2.993   0.100   1.253  1.0719 -1.3899 -1.1320
  458SOL    HW2 1374   2.946  -0.058   1.209 -0.9925  1.2137  0.8452
  459SOL     OW 1375   2.105   2.517   0.734 -0.2616 -0.1925 -0.1931
  459SOL    HW1 1376   2.172   2.553   0.799 -2.5359 -1.7417 -0.5694
  459SOL    HW2 1377   2.133   2.534   0.638 -0.1046 -3.7406 -2.4664
  460SOL     OW 1378   1.224   2.077   2.794  0.0344 -0.3034 -0.0059
  460SOL    HW1 1379   1.183   2.103   2.701 -0.4553  0.6552 -1.9342
  460SOL    HW2 1380   1.257   1.979   2.802 -0.3399  0.4875 -0.6785
  461SOL     OW 1381   0.477   2.117   2.758  0.3137  0.2743  1.0345
  461SOL    HW1 1382   0.385   2.071   2.739  0.9881 -2.4841 -2.3617
  461SOL    HW2 1383   0.519   2.073   2.839 -0.3931  1.7928  1.3254
  462SOL     OW 1384   0.968   1.025   1.722 -0.4164 -0.3081 -0.0586
  462SOL    HW1 1385   0.959   0.963   1.642  1.2230  0.3183 -0.3520
  462SOL    HW2 1386   0.916   1.112   1.712  0.1417  0.3595 -0.4732
  463SOL     OW 1387   0.426   0.774   0.489 -0.1762 -0.0663 -0.7430
  463SOL    HW1 1388   0.456   0.690   0.429  2.5773  0.0002 -1.4769
  463SOL    HW2 1389   0.323   0.772   0.504  0.1788 -1.4334  1.3092
  464SOL     OW 1390   0.532   2.337   2.282 -0.1326  0.1687 -0.4828
  464SOL    HW1 1391   0.490   2.423   2.319  0.3543 -1.1925 -1.6414
  464SOL    HW2 1392   0.550   2.336   2.180 -1.4499 -3.5598  0.5941
  465SOL     OW 1393   0.240   0.990   0.815  0.1970  0.8813  0.0624
  465SOL    HW1 1394   0.155   1.002   0.756  0.2629 -0.2050 -0.8939
  465SOL    HW2 1395   0.297   0.901   0.798  0.6136  0.1130 -0.0838
  466SOL     OW 1396   1.345   1.152   0.854 -0.4963  0.0677  0.4307
  466SOL    HW1 1397   1.368   1.251   0.876 -1.3039  0.4927  0.0935
  466SOL    HW2 1398   1.257   1.121   0.897 -1.5859 -0.7439 -1.1747
  467SOL     OW 1399   0.625   0.455   2.565  0.5025  0.5741  0.2417
  467SOL    HW1 1400   0.555   0.522   2.596  0.0819 -3.1619  1.3697
  467SOL    HW2 1401   0.623   0.365   2.611 -1.4641 -0.9772 -0.0143
  468SOL     OW 1402   0.480   2.265   1.597  0.1224  0.1371 -0.1884
  468SOL    HW1 1403   0.552   2.332   1.630 -0.8764 -0.0564 -0.3137
  468SOL    HW2 1404   0.473   2.256   1.495 -1.7797  0.3313  0.3397
  469SOL     OW 1405   1.423   1.336   1.231 -0.3088 -0.5326  0.6307
  469SOL    HW1 1406   1.490   1.310   1.157 -0.2801  1.7738  1.7600
  469SOL    HW2 1407   1.457   1.411   1.291  1.6451 -0.2856  0.1407
  470SOL     OW 1408   2.979   1.849   0.796  0.0458  0.1310 -0.0132
  470SOL    HW1 1409   3.076   1.867   0.757  1.1556 -2.0191 -2.4268
  470SOL    HW2 1410   2.973   1.853   0.897  1.7611 -0.2690  1.1256
  471SOL     OW 1411   2.687   1.397   2.179 -0.1254  0.1274  0.1326
  471SOL    HW1 1412   2.674   1.299   2.213 -2.1641  0.2002  0.9055
  471SOL    HW2 1413   2.781   1.437   2.205  2.6313  2.2662 -0.7793
  472SOL     OW 1414   1.293   2.395   0.059 -0.1516  0.1643 -0.4665
  472SOL    HW1 1415   1.384   2.366   0.106  0.5061  2.8989 -0.1246
  472SOL    HW2 1416   1.207   2.347   0.094 -0.3487 -0.9114 -1.6072
  473SOL     OW 1417   1.076   1.491   0.967 -0.0006 -0.0089  0.5607
  473SOL    HW1 1418   0.984   1.500   0.922  0.4897 -2.5936 -1.1780
  473SOL    HW2 1419   1.079   1.419   1.043  0.2430  0.1376  1.0219
  474SOL     OW 1420   0.634   1.275   0.443 -0.1117  0.2728  0.2550
  474SOL    HW1 1421   0.586   1.264   0.351 -0.9590  1.5256  0.4193
  474SOL    HW2 1422   0.684   1.193   0.477 -0.6235  1.4973  2.8056
  475SOL     OW 1423   2.892   0.030   0.853  0.0896  0.2237 -0.6242
  475SOL    HW1 1424   2.946   0.119   0.859 -1.7691  2.6807  1.3249
  475SOL    HW2 1425   2.792   0.043   0.873 -1.0602  0.6188 -4.4883
  476SOL     OW 1426   0.982   3.054   1.810  0.3407 -0.3976 -0.3579
  476SOL    HW1 1427   1.084   3.053   1.810 -1.5170 -2.3467 -1.8855
  476SOL    HW2 1428   0.947   3.084   1.721  0.9268  1.5506  1.9704
  477SOL     OW 1429   1.453   0.317   2.448 -0.7182  0.2235 -0.3540
  477SOL    HW1 1430   1.444   0.372   2.536 -0.8396  2.8578 -0.6186
  477SOL    HW2 1431   1.535   0.253   2.442  0.8660 -0.6698  0.6181
  478SOL     OW 1432   2.262   1.949   0.335  0.4019  0.4621 -1.1077
  478SOL    HW1 1433   2.200   1.865   0.359 -0.6811 -1.8141  1.8425
  478SOL    HW2 1434   2.343   1.916   0.286 -2.4509 -1.0669  1.2209
  479SOL     OW 1435   1.281   1.009   2.875 -0.2784 -0.6734 -0.3050
  479SOL    HW1 1436   1.380   1.045   2.848  2.2496  0.5406 -0.4819
  479SOL    HW2 1437   1.238   0.949   2.801 -1.9751 -0.3843  0.3318
  480SOL     OW 1438   2.644   2.272   0.431  0.4564  0.4053 -0.0325
  480SOL    HW1 1439   2.721   2.205   0.453  0.7006  1.7810 -1.1065
  480SOL    HW2 1440   2.547   2.248   0.469 -1.6346  1.1396  0.5194
  481SOL     OW 1441   0.958   1.117   0.752  0.3676  0.3744  0.7567
  481SOL    HW1 1442   0.979   1.206   0.704  0.5746  4.7103 -0.2070
  481SOL    HW2 1443   0.976   1.121   0.851  0.0753 -1.0238  0.0013
  482SOL     OW 1444   1.564   0.285   2.033  0.3643 -0.1687  0.3669
  482SOL    HW1 1445   1.597   0.380   2.011 -0.7557  0.1868 -2.3283
  482SOL    HW2 1446   1.643   0.220   2.054 -0.1970  0.2162  1.3326
  483SOL     OW 1447   0.170   2.373   1.211 -0.1249  0.0247  0.4667
  483SOL    HW1 1448   0.173   2.436   1.296  1.8833  1.3780  3.2070
  483SOL    HW2 1449   0.197   2.419   1.126  0.8022  0.9995  3.7471
  484SOL     OW 1450   1.731   1.040   1.458 -0.0090  0.0558  0.3801
  484SOL    HW1 1451   1.828   1.015   1.443 -2.5723  0.2442  1.4475
  484SOL    HW2 1452   1.719   1.141   1.447 -0.8102  0.1743 -0.0610
  485SOL     OW 1453   0.780   0.754   1.940 -0.0718  0.2081  1.2062
  485SOL    HW1 1454   0.723   0.762   1.853  1.9330  2.2593 -0.0878
  485SOL    HW2 1455   0.870   0.705   1.926  1.3292 -0.5211  0.4443
  486SOL     OW 1456   0.912   1.861   2.473 -0.0632  0.1627 -0.3373
  486SOL    HW1 1457   0.901   1.859   2.577  0.4181 -0.9896 -2.6772
  486SOL    HW2 1458   0.905   1.959   2.430 -1.0150  2.5279 -0.6487
  487SOL     OW 1459   1.749   1.576   1.025 -0.1267  0.2868 -0.0989
  487SOL    HW1 1460   1.775   1.475   1.036 -0.1204 -0.2141  2.0928
  487SOL    HW2 1461   1.791   1.625   0.942 -1.0820  1.7537  0.8292
  488SOL     OW 1462   2.920   0.835   2.256  0.8138 -0.2804 -0.4628
  488SOL    HW1 1463   2.997   0.764   2.255  2.1599  0.0112  0.2316
  488SOL    HW2 1464   2.848   0.815   2.325  2.1325 -0.3039 -1.5969
  489SOL     OW 1465   2.846   0.324   1.288 -0.1984  0.2452  0.0506
  489SOL    HW1 1466   2.808   0.295   1.380 -1.7644 -0.3662 -0.4817
  489SOL    HW2 1467   2.951   0.326   1.291  2.2384 -0.1810  0.4152
  490SOL     OW 1468   1.500   3.010   2.794 -0.6868 -0.2314  0.1284
  490SOL    HW1 1469   1.549   2.918   2.789  0.1190  0.4152  1.7731
  490SOL    HW2 1470   1.464   3.042   2.701  0.6964  1.2817  0.0853
  491SOL     OW 1471   1.790   1.488   2.752 -0.1122 -0.6369 -0.4125
  491SOL    HW1 1472   1.776   1.424   2.838  2.4090 -0.2091  1.0814
  491SOL    HW2 1473   1.871   1.558   2.757 -0.2875 -0.5143 -0.0993
  492SOL     OW 1474   0.673   2.120   0.595 -0.3377 -1.1365  0.2069
  492SOL    HW1 1475   0.703   2.137   0.695  1.5662  0.4323 -3.9870
  492SOL    HW2 1476   0.578   2.161   0.570 -2.8868  0.4254 -2.1404
  493SOL     OW 1477   0.379   1.336   2.099 -0.0526 -0.0442 -0.0734
  493SOL    HW1 1478   0.290   1.372   2.059  0.2424 -0.8320 -0.2364
  493SOL    HW2 1479   0.391   1.234   2.097 -0.4365 -1.4683  0.0443
  494SOL     OW 1480   2.713   2.653   0.165  0.3426  0.0663  0.0183
  494SOL    HW1 1481   2.702   2.653   0.274 -0.7711 -1.9658  0.2148
  494SOL    HW2 1482   2.624   2.683   0.113  0.5511 -2.0562 -2.1072
  495SOL     OW 1483   2.542   2.808   2.653 -0.3734  0.3444 -0.2509
  495SOL    HW1 1484   2.522   2.704   2.652 -0.3302 -2.9165 -2.3092
  495SOL    HW2 1485   2.607   2.838   2.578  0.0185 -2.5101 -0.5364
  496SOL     OW 1486   1.977   2.260   0.842 -0.6011  0.7642 -0.4601
  496SOL    HW1 1487   2.032   2.191   0.796 -1.1868  1.2041  0.1319
  496SOL    HW2 1488   2.022   2.351   0.860 -1.4623 -0.8552 -1.5251
  497SOL     OW 1489   0.350   2.970   2.343 -0.4544 -0.0486  0.2446
  497SOL    HW1 1490   0.297   3.056   2.375 -1.0038  3.7369  0.4070
  497SOL    HW2 1491   0.423   2.993   2.273  1.4584  0.1875 -2.1985
  498SOL     OW 1492   1.174   1.295   1.157  0.2361  0.2730  0.0525
  498SOL    HW1 1493   1.276   1.317   1.169  0.9755 -0.3585  0.5740
  498SOL    HW2 1494   1.110   1.333   1.225 -2.4388  0.0583 -2.7510
  499SOL     OW 1495   0.624   1.717   0.433 -0.3399  0.8961 -0.6908
  499SOL    HW1 1496   0.617   1.668   0.343  0.3509 -0.0983  1.0972
  499SOL    HW2 1497   0.712   1.777   0.430  2.2497 -0.5529  1.6204
  500SOL     OW 1498   1.461   2.770   1.667  0.0070 -0.4062 -0.2719
  500SOL    HW1 1499   1.495   2.769   1.765  1.2370 -0.5272  2.2290
  500SOL    HW2 1500   1.507   2.702   1.609  0.4062 -1.6131  2.5163
  501SOL     OW 1501   0.796   1.260   2.281  0.1593  0.6483  0.2649
  501SOL    HW1 1502   0.725   1.193   2.318  0.0458 -1.1752 -1.3601
  501SOL    HW2 1503   0.817   1.236   2.184 -0.4696  0.9528 -2.3373
  502SOL     OW 1504   2.534   0.924   1.788  0.1228 -0.6464  0.4777
  502SOL    HW1 1505   2.619   0.942   1.735  0.2474 -0.2223 -1.8433
  502SOL    HW2 1506   2.506   0.825   1.793  2.2116  3.8809  1.3827
  503SOL     OW 1507   1.221   0.133   0.705  0.7416  0.0485  0.4560
  503SOL    HW1 1508   1.151   0.200   0.733 -1.1041 -0.8186 -3.7693
  503SOL    HW2 1509   1.316   0.177   0.714 -1.0103 -0.0449  2.6298
  504SOL     OW 1510   2.950   2.382   1.515  0.0670 -0.4623 -0.3024
  504SOL    HW1 1511   2.893   2.449   1.576 -2.4733  2.0156  0.6201
  504SOL    HW2 1512   2.940   2.287   1.546  1.9993  0.7205  1.5163
  505SOL     OW 1513   2.321   1.157   1.512  0.1853  0.1061  0.0879
  505SOL    HW1 1514   2.336   1.193   1.414 -2.2426  0.5606  1.5614
  505SOL    HW2 1515   2.390   1.203   1.575 -0.1619 -4.8299  0.8814
  506SOL     OW 1516   1.936   0.252   1.879  0.3685 -0.0296 -0.3819
  506SOL    HW1 1517   2.032   0.237   1.854 -2.5638  0.3831 -0.6918
  506SOL    HW2 1518   1.915   0.345   1.910 -0.1620  1.1146 -2.5213
  507SOL     OW 1519   0.481   0.769   2.152 -0.2529  0.0434 -0.2055
  507SOL    HW1 1520   0.439   0.698   2.087 -1.1902 -0.0095  1.2917
  507SOL    HW2 1521   0.547   0.720   2.213  1.9549  0.8236  1.9341
  508SOL     OW 1522   0.327   1.639   0.786  0.1792  0.2952 -0.0492
  508SOL    HW1 1523   0.426   1.677   0.767  0.6878 -0.8123 -0.1071
  508SOL    HW2 1524   0.281   1.691   0.861  0.2905 -2.1081 -2.2875
  509SOL     OW 1525   1.274   1.185   2.464  0.0186  0.3120  0.7471
  509SOL    HW1 1526   1.296   1.185   2.363  0.3357 -0.2991  1.9574
  509SOL    HW2 1527   1.183   1.141   2.486  0.0764 -0.1641 -4.8435
  510SOL     OW 1528   1.413   2.043   2.199 -0.3166  0.1269  0.3195
  510SOL    HW1 1529   1.413   2.085   2.108 -0.0417 -0.9754  2.3395
  510SOL    HW2 1530   1.328   1.982   2.220 -2.9406  0.2951 -1.0544
  511SOL     OW 1531   3.002   2.649   1.369  0.1788 -0.0456 -0.2000
  511SOL    HW1 1532   2.954   2.664   1.281  1.1770 -1.4205 -0.3236
  511SOL    HW2 1533   2.972   2.561   1.410  0.6087  0.3967 -1.3610
  512SOL     OW 1534   2.370   0.432   1.374 -0.2276  0.1360  0.4771
  512SOL    HW1 1535   2.277   0.433   1.326  0.4316 -1.9274  0.2965
  512SOL    HW2 1536   2.447   0.382   1.327 -1.4542 -0.9489  0.3714
  513SOL     OW 1537   2.565   2.136   0.922 -0.4065 -0.6179 -0.9455
  513SOL    HW1 1538   2.523   2.212   0.863 -2.1812  1.9115 -1.7667
  513SOL    HW2 1539   2.645   2.090   0.876 -0.2767 -0.1269 -0.5108
  514SOL     OW 1540   0.562   2.789   0.438  0.2202 -0.8452 -0.0920
  514SOL    HW1 1541   0.599   2.765   0.342 -1.0789 -1.2857 -0.9970
  514SOL    HW2 1542   0.632   2.826   0.503 -0.9665  3.0606  0.6667
  515SOL     OW 1543   1.960   1.344   2.402  0.1660 -0.0955 -0.1137
  515SOL    HW1 1544   1.962   1.309   2.306  2.3017 -0.9391 -1.4289
  515SOL    HW2 1545   1.897   1.285   2.463 -0.5661 -2.5585 -0.6277
  516SOL     OW 1546   0.237   0.154   1.943  0.4908  0.3990  0.7547
  516SOL    HW1 1547   0.328   0.192   1.910 -1.7152 -0.1318 -1.2606
  516SOL    HW2 1548   0.194   0.098   1.869 -1.6352  1.5824 -0.4172
  517SOL     OW 1549   0.506   0.250   1.110  0.2033  0.2688 -0.1822
  517SOL    HW1 1550   0.572   0.194   1.163 -0.7236 -1.6624 -0.9427
  517SOL    HW2 1551   0.411   0.218   1.120 -0.5339 -1.3353 -0.3649
  518SOL     OW 1552   2.222   3.025   1.862 -0.3124 -0.2132 -0.7872
  518SOL    HW1 1553   2.224   3.128   1.878 -0.5981  0.0038 -2.0914
  518SOL    HW2 1554   2.227   3.007   1.759 -0.7076 -1.0353 -3.3729
  519SOL     OW 1555   2.369   2.234   2.536 -0.3673  0.0210  0.1347
  519SOL    HW1 1556   2.337   2.213   2.633 -1.1529  0.6359  1.3244
  519SOL    HW2 1557   2.362   2.336   2.513 -2.7681 -0.5484 -1.5963
  520SOL     OW 1558   1.773   2.632   1.695 -0.0632  0.0171 -0.4696
  520SOL    HW1 1559   1.723   2.601   1.785  1.0360 -0.7378 -1.9169
  520SOL    HW2 1560   1.866   2.590   1.676  3.2468  0.5942  0.1322
  521SOL     OW 1561   0.647   0.080   2.142  0.3172 -0.0664 -0.3344
  521SOL    HW1 1562   0.554   0.036   2.110 -0.2614 -1.1033 -0.2796
  521SOL    HW2 1563   0.658   0.053   2.240  1.7097 -1.2320  0.6684
  522SOL     OW 1564   0.235   1.898   1.538  0.7099 -0.6693 -0.6341
  522SOL    HW1 1565   0.279   1.970   1.602  1.3676 -0.4661  2.4406
  522SOL    HW2 1566   0.204   1.939   1.450  0.4894 -1.9320 -0.4755
  523SOL     OW 1567   2.221   2.965   1.582  0.9284 -0.6060 -0.0652
  523SOL    HW1 1568   2.315   2.933   1.559 -2.4763  1.2206  3.4756
  523SOL    HW2 1569   2.148   2.911   1.526 -1.8394 -0.9218  1.8016
  524SOL     OW 1570   0.210   2.764   2.803  0.7204 -0.0010 -0.8054
  524SOL    HW1 1571   0.180   2.792   2.902 -0.7199  0.4109  0.8286
  524SOL    HW2 1572   0.307   2.766   2.785 -1.5848  0.4299 -1.4635
  525SOL     OW 1573   2.127   2.126   0.501  0.3203 -0.4997  0.0534
  525SOL    HW1 1574   2.109   2.069   0.590  0.9956 -0.6858  3.9428
  525SOL    HW2 1575   2.172   2.066   0.427 -0.9878  0.6776  1.0249
  526SOL     OW 1576   0.399   1.499   1.690 -0.3615  0.3705  0.7492
  526SOL    HW1 1577   0.455   1.565   1.742 -0.1441  1.0666 -3.4027
  526SOL    HW2 1578   0.434   1.400   1.690  0.3997 -2.3410 -0.2395
  527SOL     OW 1579   1.149   3.052   1.110 -0.2897 -0.8873 -0.2957
  527SOL    HW1 1580   1.211   2.975   1.087  1.2929  1.2256  0.8717
  527SOL    HW2 1581   1.198   3.146   1.115  3.1068 -0.7456 -0.9311
  528SOL     OW 1582   1.290   2.419   0.614 -0.3356 -0.6666 -0.4518
  528SOL    HW1 1583   1.333   2.325   0.624 -2.8868  3.6181  1.5597
  528SOL    HW2 1584   1.355   2.498   0.623  0.3704  2.0484 -0.7697
  529SOL     OW 1585   1.853   1.694   0.818 -0.4125 -0.1653  0.0921
  529SOL    HW1 1586   1.783   1.702   0.740 -1.0972 -1.6939  1.0099
  529SOL    HW2 1587   1.891   1.787   0.851  0.1112  3.4240 -3.4919
  530SOL     OW 1588   0.455   2.548   0.141 -0.8021 -0.2663  0.1049
  530SOL    HW1 1589   0.499   2.512   0.230 -0.2637 -1.5370  1.7940
  530SOL    HW2 1590   0.425   2.472   0.076 -0.2720  0.9169  0.4550
  531SOL     OW 1591   1.814   0.988   1.036  0.1849  0.5061 -0.2543
  531SOL    HW1 1592   1.857   1.033   0.954  2.5631  0.4844  0.8990
  531SOL    HW2 1593   1.718   0.953   1.014 -0.2358  1.8578  1.7792
  532SOL     OW 1594   0.407   1.186   0.697  0.2154  0.9004  0.1104
  532SOL    HW1 1595   0.428   1.162   0.598 -0.1365  1.6354  2.0750
  532SOL    HW2 1596   0.346   1.113   0.743 -2.3068 -1.6966 -2.4346
  533SOL     OW 1597   1.813   3.088   2.647  0.3401  0.3933 -0.4757
  533SOL    HW1 1598   1.914   3.082   2.664  1.2910 -0.9896  0.3958
  533SOL    HW2 1599   1.783   3.186   2.640 -1.1135 -2.0898 -1.2532
  534SOL     OW 1600   0.184   0.177   1.556  0.5574 -0.1860 -0.1413
  534SOL    HW1 1601   0.237   0.263   1.547  0.2418 -0.6031  0.3268
  534SOL    HW2 1602   0.085   0.189   1.549 -0.4734 -0.5511 -0.5473
  535SOL     OW 1603   1.891   0.383   0.165 -0.7373 -0.4584 -0.2142
  535SOL    HW1 1604   1.925   0.466   0.221  1.3571  0.0391  0.2447
  535SOL    HW2 1605   1.834   0.323   0.228  3.9971  2.0538 -3.5480
  536SOL     OW 1606   1.232   2.486   0.923  0.0799  0.2326  0.4950
  536SOL    HW1 1607   1.270   2.408   0.862  1.8786 -0.4432 -1.7353
  536SOL    HW2 1608   1.164   2.542   0.872  0.0846 -0.7659  0.6076
  537SOL     OW 1609   0.892   0.232   2.315 -0.5452  0.7604  0.2711
  537SOL    HW1 1610   0.800   0.214   2.264 -0.5930  0.7765 -3.2328
  537SOL    HW2 1611   0.962   0.156   2.291 -0.4703  1.2336  1.8288
  538SOL     OW 1612   1.740   2.229   1.629 -0.1400  0.9239  0.4588
  538SOL    HW1 1613   1.695   2.164   1.560 -2.1772 -0.9428  1.0654
  538SOL    HW2 1614   1.808   2.285   1.576 -1.4100  0.1564  3.5267
  539SOL     OW 1615   0.154   1.549   2.783 -0.3235 -0.0803  0.1333
  539SOL    HW1 1616   0.079   1.546   2.715 -1.9368  0.1061 -0.9247
  539SOL    HW2 1617   0.229   1.602   2.745 -2.1777  0.7150 -0.5614
  540SOL     OW 1618   2.658   1.791   2.129 -0.7859 -0.0773 -0.1407
  540SOL    HW1 1619   2.603   1.711   2.097  0.3275 -0.2598 -1.6232
  540SOL    HW2 1620   2.606   1.877   2.105 -0.1957  2.0303  1.9827
  541SOL     OW 1621   0.418   2.310   0.003 -0.0368 -0.0184 -0.6143
  541SOL    HW1 1622   0.473   2.227   0.032 -1.0455 -1.1985  0.4715
  541SOL    HW2 1623   0.333   2.297  -0.058 -3.1840  1.0404 -1.0450
  542SOL     OW 1624   2.176   2.583   0.470  0.1261 -0.0657 -0.1728
  542SOL    HW1 1625   2.174   2.675   0.423  1.1291 -2.2858 -0.1643
  542SOL    HW2 1626   2.085   2.541   0.461 -0.9592  0.3965 -1.3522
  543SOL     OW 1627   1.108   1.756   1.773  0.4529  1.1907  0.4011
  543SOL    HW1 1628   1.106   1.807   1.865 -1.2665  0.5915 -0.2630
  543SOL    HW2 1629   1.044   1.792   1.704 -3.3372 -2.0901  0.2937
  544SOL     OW 1630   0.843   0.477   0.113  0.0353 -0.2821  0.2739
  544SOL    HW1 1631   0.842   0.412   0.189  2.3174 -0.1559  0.5537
  544SOL    HW2 1632   0.892   0.436   0.030 -0.2782 -0.7657  1.5621
  545SOL     OW 1633   1.148   1.724   0.639  0.2756  0.1932  0.6950
  545SOL    HW1 1634   1.234   1.703   0.690  0.1030 -0.5012  0.0425
  545SOL    HW2 1635   1.159   1.727   0.537  0.3298  0.6677 -0.8909
  546SOL     OW 1636   2.713   1.595   0.034  0.3801 -0.4770  0.2286
  546SOL    HW1 1637   2.782   1.570  -0.040  2.4207  2.7504 -2.8165
  546SOL    HW2 1638   2.613   1.600   0.015  1.4941  0.1274  4.0685
  547SOL     OW 1639   0.474   3.059   2.720  0.0602  0.2633 -0.2430
  547SOL    HW1 1640   0.483   2.985   2.647  0.6854 -0.2639  3.0819
  547SOL    HW2 1641   0.518   3.032   2.806  0.7118 -0.9992 -1.4097
  548SOL     OW 1642   2.064   0.774   2.985 -0.2654  0.1707  0.6438
  548SOL    HW1 1643   1.958   0.760   3.003  2.4676  0.1654  0.8253
  548SOL    HW2 1644   2.075   0.875   2.953 -0.3081  1.5211 -1.3153
  549SOL     OW 1645   0.570   0.459   0.093 -0.3116 -0.0163  0.1409
  549SOL    HW1 1646   0.541   0.539   0.039 -2.1704  1.2253  2.6582
  549SOL    HW2 1647   0.672   0.463   0.104  0.7588 -0.5701  0.2178
  550SOL     OW 1648   2.519   2.899   2.906 -0.1822 -0.4712 -0.0284
  550SOL    HW1 1649   2.529   2.814   2.966  1.0048  0.7694  1.4331
  550SOL    HW2 1650   2.525   2.866   2.806  2.2091 -0.5669 -1.5925
  551SOL     OW 1651   0.271   0.829   0.230 -0.0787  0.0586  0.0690
  551SOL    HW1 1652   0.364   0.795   0.249 -0.0565  1.1605  0.7484
  551SOL    HW2 1653   0.210   0.832   0.317 -1.5527 -0.5992 -0.6412
  552SOL     OW 1654   0.855   2.819   1.924 -0.1985 -0.5457  0.4433
  552SOL    HW1 1655   0.811   2.811   2.021 -0.4969 -0.3140 -0.0000
  552SOL    HW2 1656   0.912   2.907   1.906  3.9094  0.3894  2.7417
  553SOL     OW 1657   3.094   2.559   0.359 -0.1575  0.1764 -0.1210
  553SOL    HW1 1658   3.044   2.470   0.337  0.5482  1.4093  0.7116
  553SOL    HW2 1659   3.137   2.555   0.456  2.1273 -0.9319 -0.0075
  554SOL     OW 1660   2.097   0.348   0.487 -0.3091 -0.0461 -0.1235
  554SOL    HW1 1661   2.193   0.349   0.452 -2.5372 -3.3627 -0.3865
  554SOL    HW2 1662   2.079   0.262   0.544  0.0403 -3.3542  0.4569
  555SOL     OW 1663   0.528   2.855   2.521  0.2903 -0.0991 -0.2275
  555SOL    HW1 1664   0.453   2.876   2.447 -1.4575 -0.6671 -1.4296
  555SOL    HW2 1665   0.623   2.835   2.487 -2.2998  0.1994  0.8624
  556SOL     OW 1666   0.973   2.361   1.636 -0.3754 -0.3521  0.3651
  556SOL    HW1 1667   0.990   2.433   1.711 -3.3757 -1.2634  0.4783
  556SOL    HW2 1668   0.986   2.401   1.539  2.4711 -0.1056 -1.1283
  557SOL     OW 1669   0.130   2.123   0.100  0.2378 -0.0432  0.2643
  557SOL    HW1 1670   0.038   2.068   0.091 -2.1414  0.5777  2.6519
  557SOL    HW2 1671   0.154   2.185   0.021  2.1469  0.2953  1.3236
  558SOL     OW 1672   2.996   2.308   0.272 -0.1406 -0.2180 -0.0524
  558SOL    HW1 1673   2.925   2.231   0.295 -3.0630 -1.1560  0.1609
  558SOL    HW2 1674   3.009   2.325   0.170  2.2051  1.8927 -1.1133
  559SOL     OW 1675   0.399   2.282   1.326 -1.0103  0.4183 -1.1094
  559SOL    HW1 1676   0.313   2.319   1.276 -0.9553  1.9586 -0.4307
  559SOL    HW2 1677   0.424   2.187   1.292 -2.2752  0.0416  0.2012
  560SOL     OW 1678   2.063   1.062   3.013 -0.5810 -0.1609  0.1584
  560SOL    HW1 1679   2.057   1.124   2.929 -0.5984  0.0245 -0.6393
  560SOL    HW2 1680   2.001   1.095   3.090 -3.7224  1.8061 -0.8089
  561SOL     OW 1681   3.001   1.954   0.078  0.1739  0.2724  0.2462
  561SOL    HW1 1682   2.985   1.853   0.083  1.0116  1.0062  2.6677
  561SOL    HW2 1683   2.945   2.000   0.004 -0.7405 -2.1473 -0.0965
  562SOL     OW 1684   0.849   2.131   2.468 -0.3061  0.6125 -0.3202
  562SOL    HW1 1685   0.749   2.113   2.434 -0.7140 -0.4413 -1.0843
  562SOL    HW2 1686   0.859   2.196   2.552  2.2461  4.5243  3.1124
  563SOL     OW 1687   0.655   2.567   2.552 -0.4617 -0.1702  0.0431
  563SOL    HW1 1688   0.592   2.487   2.556 -1.2257  0.2841 -0.0875
  563SOL    HW2 1689   0.687   2.582   2.649 -0.8135  0.2272 -0.3277
  564SOL     OW 1690   2.766   1.322   2.936 -0.0907 -0.7054 -0.3086
  564SOL    HW1 1691   2.663   1.310   2.961  1.0600 -0.7116  0.5659
  564SOL    HW2 1692   2.790   1.421   2.909  0.3534 -1.6201 -2.9463
  565SOL     OW 1693   2.552   2.029   2.574 -0.3827  0.0773 -0.4528
  565SOL    HW1 1694   2.492   2.097   2.529 -0.1989 -2.9149  0.1954
  565SOL    HW2 1695   2.640   2.072   2.611 -1.2003 -1.3413  1.3083
  566SOL     OW 1696   2.035   2.818   1.453 -0.3017 -0.2410 -0.1539
  566SOL    HW1 1697   2.028   2.726   1.490 -0.1286  0.9265 -2.1415
  566SOL    HW2 1698   2.074   2.817   1.357  0.8163  1.3929 -1.2951
  567SOL     OW 1699   2.390   0.102   2.219  0.0457  0.5770 -0.0389
  567SOL    HW1 1700   2.426   0.131   2.128 -0.1872  2.2050  0.3678
  567SOL    HW2 1701   2.336   0.016   2.207  2.1599 -0.9361  1.3285
  568SOL     OW 1702   1.423   1.806   0.478  1.0950  0.2030  0.7578
  568SOL    HW1 1703   1.376   1.843   0.394 -2.0514  1.2167 -0.1683
  568SOL    HW2 1704   1.467   1.881   0.529 -0.4791 -1.6589 -3.0476
  569SOL     OW 1705   0.292   0.687   0.754  0.0249  0.0488  0.4464
  569SOL    HW1 1706   0.348   0.606   0.706  1.5873 -1.5375 -6.0283
  569SOL    HW2 1707   0.190   0.684   0.726  0.6387 -2.9563 -4.2702
  570SOL     OW 1708   0.595   0.868   2.810  0.1011 -0.4388  0.0706
  570SOL    HW1 1709   0.677   0.841   2.749  2.0357 -2.6073  0.0886
  570SOL    HW2 1710   0.591   0.970   2.824 -0.3729 -1.5813  0.7242
  571SOL     OW 1711   0.846   3.078   1.184 -0.4614  0.1770 -0.2660
  571SOL    HW1 1712   0.872   3.143   1.106  0.4200 -0.0420 -0.2873
  571SOL    HW2 1713   0.924   3.019   1.217 -1.9638 -0.2163 -0.6263
  572SOL     OW 1714   1.485   2.574   1.179 -0.1945  0.2506  0.2092
  572SOL    HW1 1715   1.423   2.489   1.209  1.5371 -0.8916  0.0638
  572SOL    HW2 1716   1.423   2.648   1.134 -1.2088 -2.1286 -1.0124
  573SOL     OW 1717   2.938   0.487   2.069  0.1024  0.0798  0.0932
  573SOL    HW1 1718   2.872   0.406   2.067  0.7070 -0.3146  2.4621
  573SOL    HW2 1719   2.892   0.574   2.033 -1.1909  3.0481 -2.6678
  574SOL     OW 1720   0.241   1.759   1.027 -0.5339 -0.1774 -0.0461
  574SOL    HW1 1721   0.251   1.853   0.978  0.3779 -0.7688  1.9192
  574SOL    HW2 1722   0.142   1.740   1.058 -1.6348  0.2889 -3.0243
  575SOL     OW 1723   0.958   2.201   1.029 -0.6472  0.6876 -0.0209
  575SOL    HW1 1724   1.002   2.234   1.117 -1.5435 -2.8721  1.2959
  575SOL    HW2 1725   1.011   2.222   0.944  0.7901  1.4653 -1.0858
  576SOL     OW 1726   2.873   2.913   1.747  0.3680  0.5894 -0.1015
  576SOL    HW1 1727   2.813   2.851   1.692 -1.2043 -1.7129  0.9460
  576SOL    HW2 1728   2.830   3.001   1.771  1.4407 -0.4701  0.1243
  577SOL     OW 1729   2.522   1.254   3.071 -0.1042 -0.0484  0.5881
  577SOL    HW1 1730   2.514   1.158   3.028 -0.6359 -1.2190  0.1563
  577SOL    HW2 1731   2.581   1.247   3.157  0.1315  0.6649 -3.8346
  578SOL     OW 1732   1.330   2.777   2.567  0.3341  0.3575  0.0537
  578SOL    HW1 1733   1.278   2.748   2.483  1.4471  1.1447 -1.7346
  578SOL    HW2 1734   1.353   2.875   2.562  1.9181 -2.5822  1.0237
  579SOL     OW 1735   0.134   2.578   0.120 -0.0567 -0.0653  0.2026
  579SOL    HW1 1736   0.079   2.599   0.209 -1.7490 -0.1609  2.2039
  579SOL    HW2 1737   0.209   2.515   0.137 -1.8384  0.1550  1.3185
  580SOL     OW 1738   0.930   2.685   0.393 -0.1645  0.5173  0.3527
  580SOL    HW1 1739   1.007   2.663   0.323  1.8090 -1.4920  0.3242
  580SOL    HW2 1740   0.853   2.618   0.385  3.7223 -0.2043 -0.1777
  581SOL     OW 1741   1.215   2.502   1.442  0.1912  0.8797 -0.2006
  581SOL    HW1 1742   1.249   2.419   1.392 -0.5213 -2.8296  0.8713
  581SOL    HW2 1743   1.255   2.591   1.412 -0.8029  1.0758 -0.5152
  582SOL     OW 1744   1.518   0.057   1.863  0.3495 -0.0238 -0.2618
  582SOL    HW1 1745   1.526   0.146   1.912 -1.1707  1.2418 -1.1826
  582SOL    HW2 1746   1.592   0.059   1.789 -0.1375 -0.1931  4.0524
  583SOL     OW 1747   2.372   2.951   0.556  0.6115 -0.1045  0.3794
  583SOL    HW1 1748   2.431   2.903   0.487 -1.7169  0.7028 -0.1261
  583SOL    HW2 1749   2.331   2.888   0.627  0.4146  2.8913  1.3808
  584SOL     OW 1750   1.534   0.962   2.068  0.0436 -0.0128  0.2597
  584SOL    HW1 1751   1.582   1.043   2.014  0.7773 -0.0023 -0.5264
  584SOL    HW2 1752   1.572   0.952   2.168 -0.7306  1.7689  1.1708
  585SOL     OW 1753   2.085   2.718   2.848 -0.4204 -0.3348 -0.1922
  585SOL    HW1 1754   2.130   2.621   2.832 -0.3066  0.0970  2.4994
  585SOL    HW2 1755   1.986   2.708   2.882  2.1727  0.6000  1.1061
  586SOL     OW 1756   2.795   0.279   1.563 -0.4714  0.2102  0.4345
  586SOL    HW1 1757   2.821   0.374   1.596 -0.4116  2.3757 -1.6977
  586SOL    HW2 1758   2.704   0.252   1.609 -1.1714 -2.3042  0.1093
  587SOL     OW 1759   2.036   1.612   2.724 -0.1340 -0.1741  0.4879
  587SOL    HW1 1760   2.100   1.560   2.661 -0.7112  0.5949 -1.1238
  587SOL    HW2 1761   2.072   1.613   2.817 -2.5317  4.3739  1.5100
  588SOL     OW 1762   0.508   2.696   2.248  0.4115 -0.3448  0.2824
  588SOL    HW1 1763   0.436   2.746   2.186  0.3520 -0.8491 -1.7602
  588SOL    HW2 1764   0.465   2.636   2.323 -0.8511 -0.6939 -0.4254
  589SOL     OW 1765   2.170   1.480   2.513  0.2932  0.1510 -0.0123
  589SOL    HW1 1766   2.086   1.438   2.466 -0.2612  1.7794 -1.9670
  589SOL    HW2 1767   2.238   1.408   2.536 -0.1159  2.3502  1.3307
  590SOL     OW 1768   2.338   1.774   2.036  0.5728  0.5288  0.2105
  590SOL    HW1 1769   2.416   1.707   2.046 -0.4846  0.7146  1.5286
  590SOL    HW2 1770   2.317   1.826   2.124 -0.9248 -2.1528 -2.2761
  591SOL     OW 1771   1.310   2.477   0.340 -0.5489  0.6986  0.0471
  591SOL    HW1 1772   1.394   2.441   0.286 -0.2822 -0.4033  1.5520
  591SOL    HW2 1773   1.297   2.444   0.437 -0.4616  1.5415 -0.9324
  592SOL     OW 1774   1.698   2.320   0.780 -0.4020 -0.1814 -0.2144
  592SOL    HW1 1775   1.680   2.399   0.714  1.7426 -1.0487  1.9745
  592SOL    HW2 1776   1.804   2.309   0.796  1.2253 -0.1334  1.3890
  593SOL     OW 1777   0.525   0.268   2.985 -0.5563 -0.1289 -0.1323
  593SOL    HW1 1778   0.618   0.227   2.979 -1.3591  2.9924  0.9206
  593SOL    HW2 1779   0.522   0.327   3.068  2.9085 -1.6123  1.4079
  594SOL     OW 1780   0.936   1.872   2.749 -0.3525 -0.0794  0.1241
  594SOL    HW1 1781   1.029   1.856   2.795 -1.8746  2.8499  1.9902
  594SOL    HW2 1782   0.910   1.972   2.749  0.9207  0.5921 -0.9843
  595SOL     OW 1783   1.545   3.064   1.033  0.0975  0.0218 -0.2971
  595SOL    HW1 1784   1.633   3.024   1.078  0.8468 -1.0149 -0.5415
  595SOL    HW2 1785   1.539   3.035   0.934  0.0876  1.1297  0.9191
  596SOL     OW 1786   3.072   1.485   2.230  0.2806 -0.4209  0.0709
  596SOL    HW1 1787   2.988   1.535   2.272 -4.5203  3.2479 -0.1273
  596SOL    HW2 1788   3.136   1.446   2.297  1.8508 -2.2850 -1.6937
  597SOL     OW 1789   2.046   2.573   1.602 -0.5391  0.3246 -0.2857
  597SOL    HW1 1790   2.104   2.510   1.552 -0.4984  0.5453 -1.1834
  597SOL    HW2 1791   2.103   2.613   1.674 -0.7824 -1.0116 -0.5786
  598SOL     OW 1792   2.610   2.858   1.230 -0.0573  0.0954 -0.4330
  598SOL    HW1 1793   2.666   2.887   1.314  0.1697 -0.5199 -0.8983
  598SOL    HW2 1794   2.669   2.814   1.155  0.0758  0.6369  1.1861
  599SOL     OW 1795   2.940   0.354   2.426  0.1607 -0.3130 -0.3900
  599SOL    HW1 1796   3.028   0.379   2.380 -0.3820 -0.8006 -0.4351
  599SOL    HW2 1797   2.851   0.396   2.390 -0.4319 -0.6551  1.9667
  600SOL     OW 1798   2.784   1.088   2.760 -0.0768 -0.3949 -0.0829
  600SOL    HW1 1799   2.729   1.013   2.805  0.3253  1.6911  0.9878
  600SOL    HW2 1800   2.810   1.162   2.824  3.7138 -0.4521  1.2127
  601SOL     OW 1801   2.958   1.299   2.042 -0.4072  0.3965  0.1066
  601SOL    HW1 1802   2.872   1.329   1.988  1.8888 -1.4361  0.2334
  601SOL    HW2 1803   3.000   1.369   2.109  1.5832  1.2292 -2.8853
  602SOL     OW 1804   1.545   1.657   2.281 -0.3203  1.2369 -0.0002
  602SOL    HW1 1805   1.483   1.575   2.280  1.0189 -2.1889 -0.0585
  602SOL    HW2 1806   1.641   1.633   2.319  2.1104 -3.5257 -3.5721
  603SOL     OW 1807   0.717   1.239   2.596 -0.1573  0.3044  0.1925
  603SOL    HW1 1808   0.624   1.211   2.564 -0.6893  1.4260  1.3421
  603SOL    HW2 1809   0.782   1.159   2.615  1.0623 -3.8918 -0.2486
  604SOL     OW 1810   2.406   1.046   0.200  0.3286 -0.3553 -0.5578
  604SOL    HW1 1811   2.466   1.113   0.145 -0.5040  2.2303 -0.8450
  604SOL    HW2 1812   2.373   0.965   0.140 -0.9269  1.2660 -0.6317
  605SOL     OW 1813   2.594   1.112   1.984  0.2037  0.4460 -0.3213
  605SOL    HW1 1814   2.591   1.028   1.921  3.4401 -0.5618 -0.6033
  605SOL    HW2 1815   2.648   1.100   2.069 -1.2523 -0.1501 -1.6448
  606SOL     OW 1816   1.474   2.536   2.554  0.1072 -0.3266 -0.0120
  606SOL    HW1 1817   1.390   2.588   2.549  2.4444 -0.0263  2.5685
  606SOL    HW2 1818   1.466   2.439   2.514  0.4412  0.3753  0.1466
  607SOL     OW 1819   1.307   1.544   0.435  0.2405  0.0589  0.4036
  607SOL    HW1 1820   1.293   1.485   0.519  0.5201  0.2484  1.2422
  607SOL    HW2 1821   1.353   1.629   0.467 -1.1501 -0.9083 -1.5547
  608SOL     OW 1822   1.380   2.871   0.380 -0.1245  0.4486 -0.0771
  608SOL    HW1 1823   1.436   2.922   0.313 -1.2453  0.2800  1.7815
  608SOL    HW2 1824   1.329   2.933   0.446  0.9192 -2.2933  1.3954
  609SOL     OW 1825   1.331   1.336   0.206 -0.5643 -0.3805 -0.3214
  609SOL    HW1 1826   1.355   1.426   0.242  1.7515 -1.8979 -0.9511
  609SOL    HW2 1827   1.229   1.341   0.179 -1.7979  1.0635  2.2472
  610SOL     OW 1828   3.001   1.117   2.270  0.2454 -0.8293  0.2950
  610SOL    HW1 1829   2.990   1.015   2.254  0.4050 -1.0914  2.7732
  610SOL    HW2 1830   2.947   1.176   2.206  2.8965 -0.8316 -0.0805
  611SOL     OW 1831   2.579   0.310   1.225 -0.8750  0.3879  0.4563
  611SOL    HW1 1832   2.547   0.215   1.206 -0.4082 -0.5614  1.1870
  611SOL    HW2 1833   2.682   0.310   1.241 -2.3359 -2.2123  0.2881
  612SOL     OW 1834   0.750   2.186   1.261  0.4469 -0.6703 -0.1812
  612SOL    HW1 1835   0.686   2.109   1.255  1.8990  1.4340 -0.8265
  612SOL    HW2 1836   0.702   2.273   1.228 -1.8924  0.3777 -1.3088
  613SOL     OW 1837   0.968   1.449   2.343  0.0914 -1.2390  0.2955
  613SOL    HW1 1838   1.004   1.510   2.262  1.0741  0.2368 -2.5283
  613SOL    HW2 1839   0.889   1.391   2.307 -0.0219 -1.0385 -2.8858
  614SOL     OW 1840   1.613   1.528   1.735  0.4369 -0.6392  0.0920
  614SOL    HW1 1841   1.546   1.607   1.748  0.8774  1.5664  1.5549
  614SOL    HW2 1842   1.702   1.543   1.784  1.2206  0.6521 -1.4012
  615SOL     OW 1843   0.792   1.260   1.748  0.3795  0.9634 -0.0103
  615SOL    HW1 1844   0.706   1.244   1.696 -2.2298 -0.6796 -2.3712
  615SOL    HW2 1845   0.839   1.342   1.719  0.5016 -1.3038 -0.0378
  616SOL     OW 1846   1.074   1.565   2.100 -0.3693 -0.0188  0.6621
  616SOL    HW1 1847   1.013   1.570   2.018  0.7252  1.6653  3.0778
  616SOL    HW2 1848   1.121   1.653   2.125  0.2658  1.7151  0.2010
  617SOL     OW 1849   2.982   1.543   1.587 -0.6372  0.0710  0.2457
  617SOL    HW1 1850   2.951   1.445   1.602 -3.0504  1.1175  1.6780
  617SOL    HW2 1851   2.996   1.559   1.485  0.2726  0.2315  0.1300
  618SOL     OW 1852   1.864   1.971   1.390 -0.2406  0.6660 -0.3092
  618SOL    HW1 1853   1.907   2.045   1.329  0.9944  2.5083 -3.4176
  618SOL    HW2 1854   1.854   1.878   1.341  0.9639  1.5184  0.0803
  619SOL     OW 1855   1.725   0.420   2.343  0.4867  0.5600  0.1075
  619SOL    HW1 1856   1.654   0.475   2.300  1.4559 -2.6897  2.8729
  619SOL    HW2 1857   1.694   0.321   2.365  1.1240  1.2646 -1.4293
  620SOL     OW 1858   2.250   2.822   0.774  0.0929 -0.1431 -0.0609
  620SOL    HW1 1859   2.146   2.819   0.756 -0.5359 -0.6941 -2.9574
  620SOL    HW2 1860   2.288   2.733   0.807 -0.3258  2.5953  0.3278
  621SOL     OW 1861   2.191   1.920   1.297 -0.2252  0.4124  0.7229
  621SOL    HW1 1862   2.161   1.920   1.396 -1.1368  1.4455  0.6466
  621SOL    HW2 1863   2.156   1.836   1.248 -0.3107 -0.5127  2.0979
  622SOL     OW 1864   2.233   0.936   1.866  0.1193  0.4116  0.3382
  622SOL    HW1 1865   2.327   0.903   1.836 -0.2068 -2.1214 -3.5506
  622SOL    HW2 1866   2.179   0.871   1.922  3.1095  1.0443 -1.6328
  623SOL     OW 1867   1.272   0.843   2.526  0.0988  0.0160 -0.3860
  623SOL    HW1 1868   1.213   0.765   2.555 -0.7283  0.2338  0.4420
  623SOL    HW2 1869   1.260   0.860   2.430 -1.0588  2.0862  1.2722
  624SOL     OW 1870   0.484   0.657   3.010  0.0291 -0.4160 -0.3253
  624SOL    HW1 1871   0.511   0.702   2.920 -0.1797  1.7305 -0.4084
  624SOL    HW2 1872   0.507   0.720   3.089 -0.5950 -0.3196 -1.6538
  625SOL     OW 1873   2.732   1.707   1.001  0.2556  0.4640  0.3348
  625SOL    HW1 1874   2.637   1.711   1.047 -0.5137  0.6924 -0.1008
  625SOL    HW2 1875   2.785   1.799   1.012  1.5744  0.3945 -0.9127
  626SOL     OW 1876   0.649   2.650   1.758 -0.2032  0.4948 -0.4590
  626SOL    HW1 1877   0.709   2.720   1.814 -0.9599  1.6246 -0.1838
  626SOL    HW2 1878   0.548   2.645   1.791  1.5415  1.1561 -1.8003
  627SOL     OW 1879   0.658   0.828   1.729 -0.2432 -0.0818  0.4145
  627SOL    HW1 1880   0.619   0.748   1.678 -2.1183 -0.4369  1.0960
  627SOL    HW2 1881   0.705   0.896   1.663  1.4926  1.6900 -1.9099
  628SOL     OW 1882   2.370   0.064   0.746 -0.3194  0.7868  0.0568
  628SOL    HW1 1883   2.363  -0.024   0.687 -3.3955 -1.9086 -0.2073
  628SOL    HW2 1884   2.331   0.049   0.836 -2.0702  2.2366 -0.2752
  629SOL     OW 1885   1.861   0.933   1.965  0.5292 -0.0985  0.5460
  629SOL    HW1 1886   1.896   1.003   1.900 -1.0724 -2.7510 -1.1560
  629SOL    HW2 1887   1.868   0.963   2.063  0.1224 -2.2642 -0.1252
  630SOL     OW 1888   2.908   2.204   0.792  0.0286  0.0881  0.2384
  630SOL    HW1 1889   2.874   2.297   0.813  1.8915 -0.2509 -2.4877
  630SOL    HW2 1890   2.834   2.139   0.757 -0.9680 -0.9760  0.8030
  631SOL     OW 1891   3.039   0.098   2.033 -0.5625  0.3430  0.1773
  631SOL    HW1 1892   3.095   0.161   2.091 -0.4426  1.1106 -0.9748
  631SOL    HW2 1893   3.077   0.094   1.933 -0.9193 -1.3662 -4.2692
  632SOL     OW 1894   2.491   2.576   0.618  0.3654  0.0336 -0.3307
  632SOL    HW1 1895   2.535   2.664   0.650  0.6254 -1.9117  0.5354
  632SOL    HW2 1896   2.413   2.587   0.547 -1.0369 -0.2351 -3.7778
  633SOL     OW 1897   1.454   1.257   2.677  0.4489  0.5817  0.7325
  633SOL    HW1 1898   1.433   1.329   2.745  1.5021  1.0115 -1.9388
  633SOL    HW2 1899   1.378   1.236   2.608 -1.7608  0.9606  0.8457
  634SOL     OW 1900   0.720   2.174   0.862 -0.0342 -0.7404  0.0597
  634SOL    HW1 1901   0.635   2.135   0.905  0.0363  1.8894  0.4616
  634SOL    HW2 1902   0.789   2.192   0.937  0.9798 -0.8600 -0.3701
  635SOL     OW 1903   3.029   2.433   0.004  0.1909  0.0237 -0.2722
  635SOL    HW1 1904   2.940   2.481  -0.023  0.5713  0.7719 -1.1128
  635SOL    HW2 1905   3.106   2.496   0.038 -0.6448  0.1709  0.5916
  636SOL     OW 1906   2.377   2.683   2.061  0.3431  0.4352 -0.8082
  636SOL    HW1 1907   2.369   2.777   2.110 -0.2211  0.3639  0.7749
  636SOL    HW2 1908   2.322   2.609   2.109 -3.6270  2.4715  0.4523
  637SOL     OW 1909   2.676   0.616   1.951  0.2499  0.3420  0.0229
  637SOL    HW1 1910   2.605   0.622   1.873  0.7098 -0.2064 -1.9227
  637SOL    HW2 1911   2.730   0.708   1.961  0.2770 -0.7956  2.8803
  638SOL     OW 1912   2.476   1.867   1.346  0.6207  0.8633  0.1870
  638SOL    HW1 1913   2.374   1.884   1.326  0.9138  1.4576 -0.0618
  638SOL    HW2 1914   2.490   1.779   1.399  3.0888  2.0224 -0.7392
  639SOL     OW 1915   1.262   2.186   1.551  0.2227  0.0628  0.3236
  639SOL    HW1 1916   1.346   2.246   1.586 -1.1356  1.2690  0.6211
  639SOL    HW2 1917   1.172   2.231   1.576 -0.9757  1.3372  2.1334
  640SOL     OW 1918   0.183   1.245   1.523 -0.2897 -0.6353  0.1313
  640SOL    HW1 1919   0.171   1.265   1.623 -2.2280  2.4191  1.0635
  640SOL    HW2 1920   0.261   1.184   1.497 -1.3286 -1.4554  0.2096
  641SOL     OW 1921   1.973   0.281   1.501  0.1437 -0.1103  0.2881
  641SOL    HW1 1922   1.889   0.294   1.561  2.1580 -0.3776  0.2293
  641SOL    HW2 1923   2.064   0.275   1.555  1.6776 -2.9972  3.6327
  642SOL     OW 1924   2.032   3.065   0.389 -0.1101 -0.0971 -0.7376
  642SOL    HW1 1925   2.116   3.131   0.376  0.4316 -1.3238 -0.9706
  642SOL    HW2 1926   1.957   3.106   0.454  0.4300  0.1887 -1.9557
  643SOL     OW 1927   2.936   1.934   2.095 -0.0817  0.0841 -0.1446
  643SOL    HW1 1928   2.862   1.864   2.092 -0.8095  1.7039 -0.3524
  643SOL    HW2 1929   2.920   2.006   2.025  1.6718 -1.1419 -1.7525
  644SOL     OW 1930   2.273   2.434   1.296  0.2171 -0.7240 -0.1854
  644SOL    HW1 1931   2.339   2.381   1.230 -1.8694  0.7122 -3.0542
  644SOL    HW2 1932   2.296   2.423   1.398 -0.1262 -0.5855  1.3956
  645SOL     OW 1933   0.652   0.792   1.272  0.4193  0.1434 -0.2367
  645SOL    HW1 1934   0.558   0.756   1.259  2.1319  0.6675  0.6688
  645SOL    HW2 1935   0.709   0.810   1.188  2.5574  2.7003  0.6712
  646SOL     OW 1936   1.519   1.744   2.026  0.3901  0.2968  0.3550
  646SOL    HW1 1937   1.603   1.786   1.974  1.6895 -0.1194  1.4434
  646SOL    HW2 1938   1.550   1.723   2.126  0.5456 -0.2291  1.2935
  647SOL     OW 1939   0.745   1.074   0.572  0.2029  0.0022  0.4461
  647SOL    HW1 1940   0.835   1.071   0.627  0.4849 -0.4488  0.8918
  647SOL    HW2 1941   0.683   0.994   0.596 -0.6612  2.3603  2.8012
  648SOL     OW 1942   0.143   0.233   0.375  0.4343 -0.0914 -0.0515
  648SOL    HW1 1943   0.060   0.176   0.366  1.1680 -1.3696  3.5641
  648SOL    HW2 1944   0.141   0.309   0.309  1.8494  0.0690 -1.8868
  649SOL     OW 1945   3.014   0.258   0.948 -0.0454 -0.0798 -0.4086
  649SOL    HW1 1946   3.081   0.291   0.877 -0.9418  1.0556  0.2163
  649SOL    HW2 1947   3.053   0.263   1.041 -0.9532  1.5107 -1.5828
  650SOL     OW 1948   2.766   0.709   1.428  0.8248  0.1201 -0.0397
  650SOL    HW1 1949   2.673   0.660   1.453 -0.1990  0.1865  0.3715
  650SOL    HW2 1950   2.761   0.816   1.414 -0.3929  2.2938 -0.4849
  651SOL     OW 1951   0.875   1.517   1.692 -0.2282 -0.0685  0.1739
  651SOL    HW1 1952   0.840   1.574   1.774 -0.1651 -1.7927  0.7709
  651SOL    HW2 1953   0.966   1.550   1.657  0.1408  0.9860  0.1008
  652SOL     OW 1954   2.291   2.569   2.515  0.9890 -0.1433  0.1663
  652SOL    HW1 1955   2.212   2.525   2.565  1.1993 -1.6687  0.3689
  652SOL    HW2 1956   2.269   2.665   2.491  1.7943 -2.3560  0.6765
  653SOL     OW 1957   2.684   1.229   0.186 -0.0994  0.3155 -0.3812
  653SOL    HW1 1958   2.725   1.323   0.218  3.2447  0.3868 -0.3592
  653SOL    HW2 1959   2.749   1.152   0.209 -2.1500  0.7535 -0.8335
  654SOL     OW 1960   1.188   2.060   1.256  0.2105  0.3963 -0.2231
  654SOL    HW1 1961   1.197   1.969   1.304  2.4275  0.0920 -0.2103
  654SOL    HW2 1962   1.226   2.062   1.157  0.4017 -0.2805  3.1240
  655SOL     OW 1963   0.156   0.985   1.889  0.5982 -0.3263  0.4047
  655SOL    HW1 1964   0.233   0.935   1.837  0.6448  2.0123 -0.0212
  655SOL    HW2 1965   0.156   1.088   1.873  1.1088 -1.3805  0.3484
  656SOL     OW 1966   2.547   2.535   2.631  0.5287  0.0053 -0.0618
  656SOL    HW1 1967   2.643   2.512   2.599 -0.6807  0.7852  1.2542
  656SOL    HW2 1968   2.480   2.531   2.553  0.9015  1.2251 -1.1368
  657SOL     OW 1969   3.000   1.012   1.950  0.8650  0.2644  0.2040
  657SOL    HW1 1970   2.973   1.111   1.977 -2.5132  0.5552 -0.2630
  657SOL    HW2 1971   3.100   1.000   1.927 -1.1975  0.6389  0.5442
  658SOL     OW 1972   1.682   0.163   2.342 -0.2399  0.0957 -0.2907
  658SOL    HW1 1973   1.676   0.079   2.390  0.5365  0.6008 -0.8720
  658SOL    HW2 1974   1.725   0.148   2.251  0.3217  0.5705 -0.5852
  659SOL     OW 1975   1.432   0.683   2.800  0.0192  0.0535  0.6888
  659SOL    HW1 1976   1.471   0.760   2.745 -0.5090 -1.7374 -0.6113
  659SOL    HW2 1977   1.327   0.683   2.801 -3.0681  0.7452 -0.6377
  660SOL     OW 1978   1.435   0.283   1.412  0.1405 -0.6051 -0.2591
  660SOL    HW1 1979   1.463   0.345   1.493  1.7637 -0.6613 -1.7397
  660SOL    HW2 1980   1.508   0.212   1.378  1.9507 -3.0420 -0.3224
  661SOL     OW 1981   2.368   1.290   0.678  0.7940 -0.4105 -0.1764
  661SOL    HW1 1982   2.409   1.248   0.588 -0.9437 -0.8320  1.4990
  661SOL    HW2 1983   2.299   1.365   0.648  0.3101  0.8538 -2.7493
  662SOL     OW 1984   1.475   0.384   1.678  0.1042  0.3320 -0.0937
  662SOL    HW1 1985   1.399   0.329   1.724 -0.7867 -1.8431 -0.5875
  662SOL    HW2 1986   1.460   0.483   1.678 -2.2748 -2.5272 -1.3911
  663SOL     OW 1987   0.783   1.632   1.930  0.1065 -0.2753  0.1717
  663SOL    HW1 1988   0.800   1.714   2.000  0.8597  0.7189  1.3641
  663SOL    HW2 1989   0.750   1.544   1.977  0.9408  1.2902 -1.6897
  664SOL     OW 1990   1.618   2.060   1.447  0.2610  0.2184 -0.4798
  664SOL    HW1 1991   1.531   2.009   1.478 -0.9708  0.5808 -0.7027
  664SOL    HW2 1992   1.702   2.001   1.427  0.7727 -0.9389 -3.2782
  665SOL     OW 1993   2.268   0.669   2.028 -0.7657 -0.1350 -0.3795
  665SOL    HW1 1994   2.251   0.563   2.031 -1.1548  0.2349  1.2046
  665SOL    HW2 1995   2.352   0.696   2.085  0.5927 -1.0438  0.7713
  666SOL     OW 1996   0.448   2.244   0.389  0.2434  0.1914 -0.0593
  666SOL    HW1 1997   0.476   2.331   0.437 -1.1949 -0.6624 -1.9124
  666SOL    HW2 1998   0.344   2.240   0.370 -0.4751  1.5716  0.2355
  667SOL     OW 1999   2.042   0.187   1.085 -0.3240  0.4927  0.3419
  667SOL    HW1 2000   2.048   0.285   1.059  1.3295  0.3296 -0.2150
  667SOL    HW2 2001   1.984   0.176   1.167  1.9284 -0.0582  0.1029
  668SOL     OW 2002   1.988   0.483   1.080 -0.5688  0.3117  0.4635
  668SOL    HW1 2003   2.073   0.497   1.017  1.5373  2.3982  0.1946
  668SOL    HW2 2004   2.017   0.485   1.178  1.3951  1.3378 -3.1463
  669SOL     OW 2005   3.069   2.132   1.025 -0.4534  0.1003 -0.3061
  669SOL    HW1 2006   3.018   2.164   0.942 -2.5765  0.3422  1.9312
  669SOL    HW2 2007   3.036   2.178   1.115  0.9011  1.5326  1.6191
  670SOL     OW 2008   2.930   2.398   2.175  0.7233 -0.1531 -0.0339
  670SOL    HW1 2009   2.841   2.355   2.195 -0.0025 -0.8332 -2.2069
  670SOL    HW2 2010   2.916   2.478   2.114 -1.6752  0.6875 -0.7740
  671SOL     OW 2011   1.813   1.649   1.534 -0.1793 -0.0428  0.3224
  671SOL    HW1 2012   1.824   1.652   1.432 -1.8040  0.6205 -1.6866
  671SOL    HW2 2013   1.726   1.606   1.573 -2.5502  0.7708  4.3652
  672SOL     OW 2014   0.480   0.727   2.569  0.5942 -0.1125  0.4440
  672SOL    HW1 2015   0.408   0.697   2.505  2.6894 -2.0405  3.5769
  672SOL    HW2 2016   0.458   0.824   2.615  0.1903 -0.4686  0.7883
  673SOL     OW 2017   0.075   1.430   1.020 -0.0932 -0.2557  0.7537
  673SOL    HW1 2018   0.097   1.469   1.116 -1.4968  2.5340  0.4298
  673SOL    HW2 2019   0.151   1.374   0.975  1.7069 -5.0353  1.7762
  674SOL     OW 2020   1.557   3.025   0.231  0.3062 -0.5180  0.5427
  674SOL    HW1 2021   1.651   3.050   0.202 -1.9014 -2.2896 -1.5681
  674SOL    HW2 2022   1.493   3.007   0.152 -0.4530  1.3712 -0.6773
  675SOL     OW 2023   1.642   0.845   2.304 -0.0807  0.3065 -0.1093
  675SOL    HW1 2024   1.742   0.843   2.284 -2.1231  1.1750  0.5813
  675SOL    HW2 2025   1.603   0.751   2.307  0.9020 -1.3141  1.2353
  676SOL     OW 2026   2.545   1.564   2.003  0.5399 -0.5093  0.5171
  676SOL    HW1 2027   2.535   1.506   1.913  1.0786 -0.8613 -3.7874
  676SOL    HW2 2028   2.582   1.507   2.081  0.4883  2.2291 -0.1660
  677SOL     OW 2029   1.874   0.696   0.883 -1.1444  0.5408 -0.2665
  677SOL    HW1 2030   1.780   0.706   0.924 -2.4783  0.8196 -2.0511
  677SOL    HW2 2031   1.938   0.643   0.941 -1.9402 -0.5895 -0.6681
  678SOL     OW 2032   0.103   0.814   1.643 -0.5932  0.4523  0.1723
  678SOL    HW1 2033   0.201   0.843   1.669 -1.1409  3.3538 -0.0733
  678SOL    HW2 2034   0.057   0.765   1.721  0.0522 -1.7964 -2.2434
  679SOL     OW 2035   2.565   1.104   1.217 -0.0808  0.3562  0.1102
  679SOL    HW1 2036   2.463   1.137   1.219  0.1934  0.5059 -0.7594
  679SOL    HW2 2037   2.578   1.002   1.219  0.8598 -1.3166 -1.1813
  680SOL     OW 2038   2.826   0.520   1.672 -0.3833  0.1695  0.1680
  680SOL    HW1 2039   2.793   0.585   1.600 -0.4178  0.5500  1.9892
  680SOL    HW2 2040   2.898   0.566   1.733  0.5048  0.0187  0.0793
  681SOL     OW 2041   3.009   0.089   1.573 -0.1674 -1.6196 -0.1239
  681SOL    HW1 2042   3.026   0.069   1.473  1.4645  0.2718 -1.9161
  681SOL    HW2 2043   2.949   0.169   1.576  0.4364 -2.9588 -0.4937
  682SOL     OW 2044   0.605   0.097   1.293 -0.0378 -0.4701 -0.3231
  682SOL    HW1 2045   0.547   0.016   1.332  0.6618 -1.0089 -2.9067
  682SOL    HW2 2046   0.701   0.067   1.261  0.7615  0.2188 -0.3500
  683SOL     OW 2047   1.359   0.249   2.188  0.0291  0.3422  0.1464
  683SOL    HW1 2048   1.376   0.275   2.289 -1.8810 -0.0992  1.3919
  683SOL    HW2 2049   1.444   0.267   2.124 -2.5760  1.9084  1.3164
  684SOL     OW 2050   1.377   2.166   0.577 -0.2080  0.2698  0.1414
  684SOL    HW1 2051   1.419   2.093   0.636  1.3296 -3.6697 -1.9721
  684SOL    HW2 2052   1.291   2.135   0.526  0.6469 -0.0198 -2.1754
  685SOL     OW 2053   2.261   2.080   1.978 -0.3556 -0.0805 -0.0639
  685SOL    HW1 2054   2.341   2.020   1.960  1.2181  2.1031 -0.1333
  685SOL    HW2 2055   2.243   2.113   2.073 -0.9965  0.2448 -1.4669
  686SOL     OW 2056   1.539   1.841   2.900 -0.1356  0.3714  0.1205
  686SOL    HW1 2057   1.555   1.787   2.987  0.7398  1.5748  0.0628
  686SOL    HW2 2058   1.436   1.844   2.868 -2.1190 -2.7537  1.0049
  687SOL     OW 2059   1.410   2.436   1.976  0.0235  0.7952 -0.1286
  687SOL    HW1 2060   1.374   2.340   1.947 -0.7512 -0.0303 -0.5598
  687SOL    HW2 2061   1.369   2.459   2.067 -0.1912  0.5694 -2.4248
  688SOL     OW 2062   2.052   1.509   1.712  0.0116  0.2933  0.0494
  688SOL    HW1 2063   2.131   1.579   1.717 -0.5084 -0.8772  0.1274
  688SOL    HW2 2064   2.001   1.500   1.622  0.8520 -0.5917  0.3116
  689SOL     OW 2065   2.325   1.114   2.803  0.9282  0.4649 -0.1650
  689SOL    HW1 2066   2.238   1.060   2.785  0.4115 -0.6467  1.6416
  689SOL    HW2 2067   2.384   1.070   2.873  1.1724 -1.5575 -0.4820
  690SOL     OW 2068   2.230   2.777   0.022  0.0552 -0.3320  0.9286
  690SOL    HW1 2069   2.166   2.822  -0.050 -3.1859 -2.2005 -2.4800
  690SOL    HW2 2070   2.178   2.715   0.081 -2.7031 -2.0915 -3.5964
  691SOL     OW 2071   2.580   0.407   2.096 -0.3429 -0.2928 -0.3187
  691SOL    HW1 2072   2.623   0.320   2.052  0.9329  0.3124  2.2255
  691SOL    HW2 2073   2.611   0.494   2.042  0.5379  0.5728 -1.1609
  692SOL     OW 2074   2.663   1.230   0.726  0.2206 -0.4366  0.5419
  692SOL    HW1 2075   2.602   1.258   0.646 -0.0380 -0.1966 -0.0414
  692SOL    HW2 2076   2.694   1.313   0.787  0.5721 -0.1442 -1.1578
  693SOL     OW 2077   2.900   2.907   0.663 -0.3126 -0.1494 -0.4235
  693SOL    HW1 2078   2.884   2.987   0.724  0.6966 -0.7019 -1.6071
  693SOL    HW2 2079   2.877   2.930   0.564 -0.8511 -0.6107  1.5211
  694SOL     OW 2080   2.392   2.275   0.117 -0.2094 -0.2817  0.4796
  694SOL    HW1 2081   2.406   2.360   0.179 -0.6949  2.3308 -1.4020
  694SOL    HW2 2082   2.310   2.217   0.133  1.7872  3.3009 -2.4007
  695SOL     OW 2083   0.500   3.014   1.460  0.1295  0.1075 -0.7135
  695SOL    HW1 2084   0.438   2.938   1.415 -1.6555 -1.0604  2.0973
  695SOL    HW2 2085   0.448   3.067   1.534 -3.4584  0.7511 -0.6073
  696SOL     OW 2086   2.745   1.988   0.766  0.1577 -0.1784  0.0328
  696SOL    HW1 2087   2.835   1.934   0.781  0.5173  1.9439  0.3684
  696SOL    HW2 2088   2.699   1.953   0.679  1.8007 -1.0933  2.6496
  697SOL     OW 2089   1.702   1.852   1.853  0.6154 -0.6608  0.2075
  697SOL    HW1 2090   1.798   1.846   1.818 -2.4765  0.3267 -4.5074
  697SOL    HW2 2091   1.661   1.950   1.849 -2.3455  0.4901  0.4248
  698SOL     OW 2092   2.910   0.394   2.697 -0.1752 -0.1672 -0.5295
  698SOL    HW1 2093   2.942   0.371   2.600  1.2790 -0.2679 -1.2962
  698SOL    HW2 2094   2.960   0.340   2.770  0.1835  1.5683 -1.3232
  699SOL     OW 2095   1.654   0.118   2.924  0.3921 -0.1069  0.1162
  699SOL    HW1 2096   1.587   0.050   2.879  0.6824 -1.7974  0.4111
  699SOL    HW2 2097   1.722   0.145   2.851  1.7942 -1.6949  1.2452
  700SOL     OW 2098   0.994   2.278   1.359  0.2329 -0.0845 -0.0674
  700SOL    HW1 2099   1.063   2.197   1.353  4.3082 -1.0159 -1.2309
  700SOL    HW2 2100   0.895   2.262   1.345  1.1188  1.9806 -0.9436
  701SOL     OW 2101   1.875   2.897   0.021  0.2916 -0.3320 -0.2776
  701SOL    HW1 2102   1.859   2.844   0.106  3.5217  1.4958  1.6510
  701SOL    HW2 2103   1.929   2.985   0.042 -0.2942  0.8005  3.3693
  702SOL     OW 2104   2.107   1.374   1.949 -0.0053  0.1978  0.0698
  702SOL    HW1 2105   2.181   1.299   1.935 -1.1319  0.3860  0.0135
  702SOL    HW2 2106   2.090   1.429   1.861  2.4316  0.9316  0.9675
  703SOL     OW 2107   1.984   0.931   1.446  0.3167 -0.0068  0.2910
  703SOL    HW1 2108   1.960   0.836   1.484  2.6858  0.0349  0.1628
  703SOL    HW2 2109   2.055   0.979   1.504 -0.5126  0.7900  0.1214
  704SOL     OW 2110   0.336   2.070   1.714 -0.1280  0.3030  0.3650
  704SOL    HW1 2111   0.351   2.035   1.810 -0.1172 -1.5016 -0.2441
  704SOL    HW2 2112   0.403   2.147   1.684  0.2107  0.6322  1.6200
  705SOL     OW 2113   2.479   1.410   0.926  0.2291 -0.0548 -0.2663
  705SOL    HW1 2114   2.422   1.356   0.857 -0.7888  1.7562 -1.7677
  705SOL    HW2 2115   2.577   1.424   0.896  0.1402  0.0283 -1.3657
  706SOL     OW 2116   0.537   1.725   1.787  0.2387 -0.1266 -0.0592
  706SOL    HW1 2117   0.585   1.779   1.707  3.0339  0.8612 -2.6082
  706SOL    HW2 2118   0.604   1.692   1.857 -1.2687  2.5612  2.6371
  707SOL     OW 2119   2.317   1.187   1.882  0.0723  0.4486  0.9901
  707SOL    HW1 2120   2.418   1.157   1.895  0.7139 -1.1800 -4.1825
  707SOL    HW2 2121   2.260   1.101   1.883  0.9385  2.7670  0.1980
  708SOL     OW 2122   3.032   0.536   2.987  0.2904 -0.7817  0.2708
  708SOL    HW1 2123   3.097   0.618   2.957 -0.7833  1.4352 -0.2451
  708SOL    HW2 2124   3.054   0.446   2.937  0.0012 -0.4240  3.0995
  709SOL     OW 2125   1.849   1.913   0.434  0.3111  0.0327 -0.3169
  709SOL    HW1 2126   1.848   2.015   0.461 -1.9868  0.4150  0.9987
  709SOL    HW2 2127   1.829   1.898   0.335  0.9727 -0.3296  0.4810
  710SOL     OW 2128   1.750   1.547   2.433  0.0512 -0.2738  0.9246
  710SOL    HW1 2129   1.825   1.480   2.398  1.0835 -0.8873 -1.0255
  710SOL    HW2 2130   1.728   1.541   2.530  0.3194 -0.2877 -1.6744
  711SOL     OW 2131   2.706   2.848   0.977 -0.5001  0.5525 -0.2261
  711SOL    HW1 2132   2.657   2.938   0.949 -0.9528 -1.0738  0.3597
  711SOL    HW2 2133   2.801   2.873   1.020  0.1046  0.5157 -2.1310
  712SOL     OW 2134   1.346   2.169   1.927  0.4452 -1.0951  0.1250
  712SOL    HW1 2135   1.415   2.151   1.855  1.2521 -0.0354  5.2786
  712SOL    HW2 2136   1.249   2.139   1.898  2.2134 -3.9778 -2.2324
  713SOL     OW 2137   2.790   1.452   2.541 -0.2356 -0.1744  0.0143
  713SOL    HW1 2138   2.801   1.352   2.526  0.7789  1.4768 -1.8125
  713SOL    HW2 2139   2.696   1.471   2.582 -2.2322 -4.7790 -2.3609
  714SOL     OW 2140   2.664   0.434   2.343  0.1323  0.6165  0.3923
  714SOL    HW1 2141   2.603   0.408   2.415 -1.4368  4.2993 -1.7892
  714SOL    HW2 2142   2.619   0.409   2.253  0.3751 -0.3226 -1.3497
  715SOL     OW 2143   1.630   2.175   1.179  0.6857 -0.3960 -0.2528
  715SOL    HW1 2144   1.540   2.212   1.150  2.6499 -1.0580  0.7419
  715SOL    HW2 2145   1.623   2.129   1.272 -2.6899 -0.2271  1.8262
  716SOL     OW 2146   1.253   0.119   1.537  0.0024 -0.3438  0.3236
  716SOL    HW1 2147   1.158   0.139   1.499  3.0062  0.7303  1.9810
  716SOL    HW2 2148   1.325   0.187   1.506 -1.8481 -2.3317  2.2047
  717SOL     OW 2149   1.170   0.590   1.623 -0.0878 -0.1510  0.0947
  717SOL    HW1 2150   1.259   0.638   1.659  1.2051  0.3745  1.9982
  717SOL    HW2 2151   1.179   0.569   1.524  2.1822 -1.1052  0.1346
  718SOL     OW 2152   0.655   0.888   0.963 -0.5628 -0.0160 -0.3200
  718SOL    HW1 2153   0.628   0.905   0.865 -0.2254  2.0160  1.1671
  718SOL    HW2 2154   0.680   0.979   1.006 -0.0508  0.0909 -1.3264
  719SOL     OW 2155   0.736   1.731   2.277 -0.2416 -0.6609 -0.2373
  719SOL    HW1 2156   0.783   1.739   2.373  0.5996 -0.0196  0.4066
  719SOL    HW2 2157   0.673   1.653   2.274  0.3815  1.6483  0.9125
  720SOL     OW 2158   2.168   1.195   0.283 -0.5920 -0.8138  0.2714
  720SOL    HW1 2159   2.256   1.159   0.242 -1.6121 -1.1404  1.1908
  720SOL    HW2 2160   2.152   1.170   0.386 -0.2447  0.6122  0.7515
  721SOL     OW 2161   2.230   2.922   2.129  0.0682 -0.0675  1.0445
  721SOL    HW1 2162   2.246   2.928   2.022 -0.9296  3.3644 -0.9364
  721SOL    HW2 2163   2.130   2.945   2.151  1.7505  0.3934 -0.7742
  722SOL     OW 2164   2.331   1.689   0.561  0.0441 -0.0374 -0.5269
  722SOL    HW1 2165   2.397   1.692   0.482 -2.0598 -1.5565 -0.2619
  722SOL    HW2 2166   2.246   1.740   0.542  0.0270  0.4231 -0.7379
  723SOL     OW 2167   2.617   2.764   1.951  0.4847  0.2546  0.1617
  723SOL    HW1 2168   2.640   2.844   2.013  0.1438  1.8212  0.2195
  723SOL    HW2 2169   2.529   2.720   1.983  1.5803 -1.2822 -2.8083
  724SOL     OW 2170   0.385   2.520   2.416 -0.0138  0.3554 -0.5514
  724SOL    HW1 2171   0.285   2.543   2.408  2.2404 -0.5237 -0.5862
  724SOL    HW2 2172   0.412   2.479   2.509  0.5723 -1.1454  1.3257
  725SOL     OW 2173   2.442   2.822   1.479  0.3373  0.1853 -0.8222
  725SOL    HW1 2174   2.493   2.830   1.383  1.5162  0.4226 -5.8439
  725SOL    HW2 2175   2.444   2.729   1.524  1.0599  1.2615 -0.4347
  726SOL     OW 2176   2.482   2.332   0.730  0.2900  0.3071 -0.3157
  726SOL    HW1 2177   2.474   2.429   0.694 -0.5803 -0.3573 -1.2322
  726SOL    HW2 2178   2.444   2.255   0.667  2.2417  0.3882  1.7782
  727SOL     OW 2179   0.118   3.087   0.127  0.2732  0.0922 -0.2021
  727SOL    HW1 2180   0.195   3.137   0.090 -2.7224  2.0333 -0.8800
  727SOL    HW2 2181   0.078   3.019   0.059  0.2318 -3.1329  1.9009
  728SOL     OW 2182   2.938   0.740   0.946 -0.6407 -0.0396  0.5795
  728SOL    HW1 2183   2.873   0.750   0.864  0.8909  2.6902 -0.2640
  728SOL    HW2 2184   2.907   0.663   1.012 -0.4993  0.5349  0.7565
  729SOL     OW 2185   0.012   2.533   0.781  0.1712  0.4896 -0.0117
  729SOL    HW1 2186   0.079   2.510   0.851 -1.1728  1.7126 -0.2681
  729SOL    HW2 2187   0.057   2.542   0.691 -0.3404 -0.5068  0.3642
  730SOL     OW 2188   2.566   0.730   0.921 -0.4655 -0.1695 -0.5011
  730SOL    HW1 2189   2.537   0.829   0.905  0.4528  0.2269  0.2344
  730SOL    HW2 2190   2.652   0.706   0.870 -0.2572  0.4901  1.0770
  731SOL     OW 2191   3.090   2.236   2.343  0.0034  0.0587  0.3750
  731SOL    HW1 2192   3.023   2.232   2.425 -2.9695 -1.6220  0.9565
  731SOL    HW2 2193   3.053   2.288   2.261 -0.3838  2.0158  2.3605
  732SOL     OW 2194   1.333   2.745   1.981 -0.2163  0.0898  0.0023
  732SOL    HW1 2195   1.369   2.656   2.024 -2.2241  0.2039  2.0621
  732SOL    HW2 2196   1.297   2.735   1.885  2.1522  2.4564  0.1388
  733SOL     OW 2197   0.002   0.647   2.231  0.1880 -0.2910  0.2056
  733SOL    HW1 2198   0.070   0.699   2.170  0.6250 -2.2128 -0.9739
  733SOL    HW2 2199  -0.047   0.568   2.183  0.8851  0.0919  0.5179
  734SOL     OW 2200   1.507   0.391   2.714 -0.5205 -0.4211 -0.1779
  734SOL    HW1 2201   1.489   0.486   2.746  1.1511 -0.6241  0.9198
  734SOL    HW2 2202   1.436   0.325   2.752  0.1581 -2.7176 -2.8851
  735SOL     OW 2203   2.882   2.669   2.329  0.3005 -0.9001  0.0123
  735SOL    HW1 2204   2.872   2.640   2.233  1.2342  0.7560  0.8519
  735SOL    HW2 2205   2.962   2.734   2.335  2.5127  0.5145  0.2976
  736SOL     OW 2206   0.888   0.410   2.523  0.6780 -0.4618  0.0480
  736SOL    HW1 2207   0.789   0.440   2.541  1.5158  2.2529  0.8654
  736SOL    HW2 2208   0.906   0.346   2.442 -1.3871  1.0277  0.3042
  737SOL     OW 2209   2.679   0.486   2.792 -0.0588  0.5472 -0.3017
  737SOL    HW1 2210   2.664   0.445   2.890 -2.9815  0.1070  2.3487
  737SOL    HW2 2211   2.765   0.448   2.754 -1.6008 -0.4806 -2.0521
  738SOL     OW 2212   1.768   1.237   2.860  0.2185 -0.3332  0.1875
  738SOL    HW1 2213   1.868   1.216   2.856 -1.4783  1.5633  3.7532
  738SOL    HW2 2214   1.704   1.159   2.830 -0.0386 -1.4531  0.9977
  739SOL     OW 2215   1.846   0.718   0.622 -0.0188 -0.3291  0.1773
  739SOL    HW1 2216   1.860   0.727   0.722 -1.0549  0.3109 -3.0318
  739SOL    HW2 2217   1.836   0.614   0.594  3.0531 -5.0013  0.8062
  740SOL     OW 2218   1.977   1.928   2.350 -0.1687  0.6695 -0.0285
  740SOL    HW1 2219   2.006   1.841   2.396 -2.8224  2.9300 -1.9899
  740SOL    HW2 2220   1.901   1.901   2.274 -2.0093 -1.6207 -1.6775
  741SOL     OW 2221   2.546   0.113   2.455 -0.0987  0.0430  0.0509
  741SOL    HW1 2222   2.651   0.109   2.436  0.9041 -1.5359 -0.8722
  741SOL    HW2 2223   2.487   0.096   2.371 -1.3314 -0.8921  0.2628
  742SOL     OW 2224   2.204   1.466   0.187  0.0434  0.2113 -0.2647
  742SOL    HW1 2225   2.124   1.518   0.160  2.0581 -0.4296  2.6047
  742SOL    HW2 2226   2.174   1.370   0.214  0.4090  0.0645 -0.2631
  743SOL     OW 2227   1.773   0.642   2.554  0.6068 -0.1272 -0.0075
  743SOL    HW1 2228   1.760   0.561   2.489  2.6011 -3.3897  1.4403
  743SOL    HW2 2229   1.704   0.650   2.631 -0.0404  0.0627  0.3147
  744SOL     OW 2230   2.689   2.132   0.174 -0.9950  0.0587 -0.5860
  744SOL    HW1 2231   2.628   2.166   0.253 -2.4100  0.4624 -0.5255
  744SOL    HW2 2232   2.697   2.033   0.155 -0.2506 -1.5139 -2.5534
  745SOL     OW 2233   2.212   2.503   2.215 -0.7628 -0.2887  0.1816
  745SOL    HW1 2234   2.129   2.540   2.163 -2.6207  0.1611 -1.1801
  745SOL    HW2 2235   2.198   2.496   2.317  1.9339 -1.7172 -0.9755
  746SOL     OW 2236   3.084   2.548   1.792  0.2330  0.5357 -0.1389
  746SOL    HW1 2237   3.157   2.495   1.739 -0.1874 -0.5541 -2.3712
  746SOL    HW2 2238   3.116   2.634   1.841 -0.0112 -1.7730  2.8267
  747SOL     OW 2239   3.085   1.790   1.669  0.0462 -0.4234  0.1672
  747SOL    HW1 2240   3.076   1.695   1.635  1.7201 -1.4226 -1.9462
  747SOL    HW2 2241   3.144   1.837   1.598 -1.2606  0.0796 -0.6009
  748SOL     OW 2242   1.823   2.687   2.945  0.3268  0.0412 -0.1826
  748SOL    HW1 2243   1.836   2.782   2.990  1.1755  3.4241 -1.0115
  748SOL    HW2 2244   1.732   2.677   2.897 -5.5873  3.2786  1.6104
  749SOL     OW 2245   1.274   2.894   0.816  0.2232  0.5592 -0.1233
  749SOL    HW1 2246   1.188   2.956   0.781 -2.5020  4.1608  0.3462
  749SOL    HW2 2247   1.361   2.940   0.788 -1.1772 -1.2720  0.9010
  750SOL     OW 2248   2.277   0.227   1.853  0.1650  0.1213  0.4183
  750SOL    HW1 2249   2.309   0.276   1.768 -0.8391 -1.8586  3.6415
  750SOL    HW2 2250   2.273   0.297   1.929  1.3638  1.6518 -1.3939
  751SOL     OW 2251   0.817   2.126   2.916 -0.1433  0.5693  0.2416
  751SOL    HW1 2252   0.906   2.094   2.949 -0.9411  2.2413 -0.2583
  751SOL    HW2 2253   0.735   2.067   2.947 -0.3112 -1.2603 -0.4011
  752SOL     OW 2254   1.354   0.782   1.137  0.6998  0.8299 -0.2183
  752SOL    HW1 2255   1.384   0.873   1.174  0.2453  0.0828 -0.6893
  752SOL    HW2 2256   1.367   0.706   1.210 -1.8981 -0.5968 -0.0819
  753SOL     OW 2257   1.002   2.564   1.824  0.1566  1.2330 -0.5403
  753SOL    HW1 2258   1.108   2.560   1.801 -2.0100  0.9992  1.5699
  753SOL    HW2 2259   0.966   2.664   1.833  1.5237 -1.7536  0.4491
  754SOL     OW 2260   1.135   1.205   2.997 -0.1027 -0.9213  0.0755
  754SOL    HW1 2261   1.196   1.124   2.969  0.4016 -1.5829 -2.5985
  754SOL    HW2 2262   1.184   1.295   2.993  0.1485 -0.2809 -1.1565
  755SOL     OW 2263   1.934   0.487   2.191  0.1714 -0.3095 -0.0036
  755SOL    HW1 2264   1.989   0.404   2.194  0.0408  1.9933  0.0871
  755SOL    HW2 2265   1.862   0.497   2.267 -2.4285  0.1242  3.3951
  756SOL     OW 2266   2.505   0.980   2.970 -0.0287  0.3575 -0.3871
  756SOL    HW1 2267   2.603   0.951   2.978 -0.5491 -0.7941  1.2390
  756SOL    HW2 2268   2.444   0.908   3.015  1.3747 -2.5831  0.9851
  757SOL     OW 2269   0.125   0.418   1.959 -0.1271  0.1578  0.3649
  757SOL    HW1 2270   0.176   0.323   1.950  2.4058 -1.1207 -0.5680
  757SOL    HW2 2271   0.063   0.433   2.038 -0.9853  1.5843 -3.8199
  758SOL     OW 2272   2.321   0.079   1.412 -0.3336 -0.2484  0.1997
  758SOL    HW1 2273   2.261   0.018   1.476  1.0653 -0.6046  0.8027
  758SOL    HW2 2274   2.302   0.062   1.313 -0.4467  2.3031  1.2605
  759SOL     OW 2275   1.727   0.122   0.088 -0.1934  0.0209 -0.2155
  759SOL    HW1 2276   1.703   0.110  -0.011 -0.2072  0.3273  0.7970
  759SOL    HW2 2277   1.824   0.094   0.097  0.1049  0.1350 -0.5384
  760SOL     OW 2278   2.714   2.087   2.826  0.0896 -0.9047  0.5135
  760SOL    HW1 2279   2.661   2.150   2.887 -0.4948 -2.9666  0.5352
  760SOL    HW2 2280   2.811   2.118   2.802  2.2724  2.1414  1.2592
  761SOL     OW 2281   1.948   1.775   1.722 -0.0557 -0.3980 -1.1175
  761SOL    HW1 2282   1.983   1.693   1.778 -1.7729  0.8821  2.8207
  761SOL    HW2 2283   1.904   1.744   1.632 -0.9779  1.2103 -1.3596
  762SOL     OW 2284   0.509   2.392   0.933  0.2054  0.2014  0.3459
  762SOL    HW1 2285   0.557   2.383   0.840 -0.0923  0.0015 -0.1958
  762SOL    HW2 2286   0.570   2.430   1.012  0.3436  0.1885 -0.5523
  763SOL     OW 2287   2.125   1.609   2.997  0.0686 -0.1596  0.5637
  763SOL    HW1 2288   2.221   1.588   3.020 -3.0362  0.4679 -0.4042
  763SOL    HW2 2289   2.059   1.531   3.021 -1.8938 -2.4648 -0.3706
  764SOL     OW 2290   0.661   0.569   0.635  0.5348  0.3009 -0.4994
  764SOL    HW1 2291   0.566   0.521   0.628 -3.6831  0.1850  0.9996
  764SOL    HW2 2292   0.715   0.542   0.714 -0.2534  0.7281 -0.3028
  765SOL     OW 2293   0.828   0.266   0.725 -0.1980  0.2609 -0.3238
  765SOL    HW1 2294   0.848   0.298   0.624  1.0914  4.3028 -1.8906
  765SOL    HW2 2295   0.817   0.344   0.784 -0.3994 -3.7668 -1.9477
  766SOL     OW 2296   2.899   2.201   3.056 -0.0014 -0.6079  0.0690
  766SOL    HW1 2297   2.814   2.185   3.107 -0.3827  0.3137 -0.0711
  766SOL    HW2 2298   2.942   2.297   3.059  1.2602 -0.9475 -2.0608
  767SOL     OW 2299   2.839   1.619   0.525 -0.1819 -0.0988  0.8446
  767SOL    HW1 2300   2.795   1.612   0.617  1.5512  0.7658  0.6816
  767SOL    HW2 2301   2.916   1.685   0.524 -2.0133 -0.0108 -1.4811
  768SOL     OW 2302   1.025   0.223   0.186  0.0302  0.0317 -0.2286
  768SOL    HW1 2303   1.002   0.292   0.258  0.1639 -1.1829  0.4796
  768SOL    HW2 2304   1.120   0.185   0.200  1.0250  0.8526 -1.3773
  769SOL     OW 2305   1.130   1.801   2.280 -0.0871  0.3297  0.4008
  769SOL    HW1 2306   1.031   1.828   2.312 -4.0534  0.2493  0.3265
  769SOL    HW2 2307   1.198   1.793   2.360  0.4135 -0.1215 -2.1539
  770SOL     OW 2308   0.197   1.154   2.284  0.2726 -0.0218  0.1875
  770SOL    HW1 2309   0.174   1.219   2.360 -1.3093 -2.6377 -0.7378
  770SOL    HW2 2310   0.117   1.099   2.252 -1.5144  0.5605 -1.4477
  771SOL     OW 2311   3.071   2.801   1.900 -0.0701 -0.2492  0.2079
  771SOL    HW1 2312   3.000   2.845   1.840 -1.4129  0.3879  1.6789
  771SOL    HW2 2313   3.069   2.844   1.992 -1.4545 -1.4820 -0.6741
  772SOL     OW 2314   2.353   0.210   2.834  0.2255 -0.0680 -0.3054
  772SOL    HW1 2315   2.417   0.145   2.790  1.5618  0.4600 -0.5906
  772SOL    HW2 2316   2.338   0.202   2.939 -0.3020 -0.1385  1.3723
  773SOL     OW 2317   0.577   2.095   2.425 -0.1647  0.4098 -0.5824
  773SOL    HW1 2318   0.513   2.165   2.382  3.8660  1.1569  1.4363
  773SOL    HW2 2319   0.529   2.038   2.503 -1.4032 -1.2637 -1.5107
  774SOL     OW 2320   2.101   0.007   2.641 -0.0796  0.2107 -0.1374
  774SOL    HW1 2321   2.127   0.107   2.641 -2.1086 -1.0222 -0.2357
  774SOL    HW2 2322   2.188  -0.053   2.640 -0.7120 -1.6895 -3.9406
  775SOL     OW 2323   2.531   2.872   2.278  0.5170  0.1225 -0.1746
  775SOL    HW1 2324   2.447   2.912   2.330  0.2608  1.2677  0.9843
  775SOL    HW2 2325   2.605   2.843   2.341 -1.4856 -1.1393 -2.9943
  776SOL     OW 2326   0.016   1.219   0.190  0.2921 -0.1096  0.3787
  776SOL    HW1 2327  -0.052   1.184   0.122 -1.6835 -1.1253  1.2047
  776SOL    HW2 2328  -0.039   1.238   0.277 -0.2300 -0.7416 -0.2793
  777SOL     OW 2329   0.372   2.997   0.496 -0.9473 -0.3359 -0.1559
  777SOL    HW1 2330   0.283   2.984   0.451  0.0503 -0.5136  0.5582
  777SOL    HW2 2331   0.412   2.907   0.514  0.7346  1.3139 -0.8767
  778SOL     OW 2332   1.352   2.000   0.273  0.6830 -0.1593  0.4529
  778SOL    HW1 2333   1.273   2.049   0.321  0.6748 -1.6352 -1.2694
  778SOL    HW2 2334   1.392   2.040   0.187  0.7114 -0.2179  1.8276
  779SOL     OW 2335   0.144   0.810   0.490  0.3252  0.5962 -0.4729
  779SOL    HW1 2336   0.084   0.728   0.475  1.8437  3.4247 -0.6382
  779SOL    HW2 2337   0.089   0.893   0.535 -0.2984  0.3377  1.4155
  780SOL     OW 2338   0.116   0.344   2.345 -0.6206 -0.0625 -0.0850
  780SOL    HW1 2339   0.111   0.424   2.413 -1.3563  0.0707  2.1071
  780SOL    HW2 2340   0.212   0.328   2.315 -0.5285 -0.3243  0.6245
  781SOL     OW 2341   0.694   1.662   1.543 -0.2941 -0.0218  0.2188
  781SOL    HW1 2342   0.749   1.602   1.606  0.7089  2.7166 -0.6479
  781SOL    HW2 2343   0.596   1.633   1.525  0.0109 -1.6753  1.6149
  782SOL     OW 2344   2.608   3.095   0.896 -0.1472 -0.2193  0.5419
  782SOL    HW1 2345   2.554   3.113   0.807 -0.1492  1.0906  1.2431
  782SOL    HW2 2346   2.553   3.126   0.978  1.2632  0.6315 -1.8050
  783SOL     OW 2347   2.709   0.702   2.412 -0.3303  0.1247 -0.0336
  783SOL    HW1 2348   2.730   0.701   2.513  0.1644 -2.1738 -0.9406
  783SOL    HW2 2349   2.684   0.604   2.383 -0.4604  0.1260  0.7539
  784SOL     OW 2350   1.431   2.114   0.046 -0.0737 -0.5175 -0.1237
  784SOL    HW1 2351   1.494   2.179   0.101 -0.7999 -2.0986 -0.1738
  784SOL    HW2 2352   1.413   2.158  -0.049 -0.0762  1.8495 -2.0333
  785SOL     OW 2353   2.102   0.290   0.028  0.1906 -0.1352 -0.5745
  785SOL    HW1 2354   2.016   0.322   0.081  1.7014  0.2837  3.1754
  785SOL    HW2 2355   2.143   0.363  -0.035 -0.4649 -4.6946 -2.2898
  786SOL     OW 2356   2.041   2.192   2.287  0.0433  0.2104 -0.0239
  786SOL    HW1 2357   2.005   2.092   2.312 -0.5796 -0.3294  1.3475
  786SOL    HW2 2358   2.140   2.193   2.272 -3.4439 -2.8691 -0.7754
  787SOL     OW 2359   1.428   0.529   0.897  0.2310 -0.1034 -0.1212
  787SOL    HW1 2360   1.349   0.595   0.893  1.0422  0.7478  2.1037
  787SOL    HW2 2361   1.443   0.491   0.806 -1.0013  2.1099  2.4450
  788SOL     OW 2362   1.222   0.440   0.005 -0.2064  0.0742  0.1893
  788SOL    HW1 2363   1.137   0.394  -0.034 -1.9329  1.9712 -0.2771
  788SOL    HW2 2364   1.194   0.511   0.073 -1.1589 -0.8929  1.6717
  789SOL     OW 2365   2.573   0.114   1.964 -0.1212  0.1933 -0.4193
  789SOL    HW1 2366   2.531   0.061   1.892  1.4309  4.3420  2.0669
  789SOL    HW2 2367   2.637   0.057   2.022 -1.7870 -0.0264 -1.6987
  790SOL     OW 2368   2.610   2.818   0.714  0.4659 -0.3304  0.2831
  790SOL    HW1 2369   2.696   2.854   0.663  2.6152  1.3157 -1.6280
  790SOL    HW2 2370   2.618   2.821   0.813  0.0676 -0.9292 -1.5454
  791SOL     OW 2371   1.927   1.194   0.117 -0.2019  0.0493 -0.4285
  791SOL    HW1 2372   1.838   1.161   0.159 -3.2628  1.6025 -2.9829
  791SOL    HW2 2373   2.010   1.169   0.176  3.7152  1.5097  1.8976
  792SOL     OW 2374   0.449   1.870   2.208 -0.6064 -1.0363 -0.3989
  792SOL    HW1 2375   0.478   1.924   2.291 -0.1490  1.3217 -3.2166
  792SOL    HW2 2376   0.455   1.771   2.226  1.6328  1.5353 -1.2372
  793SOL     OW 2377   2.098   1.617   2.083 -0.3921  0.0640  0.1561
  793SOL    HW1 2378   2.184   1.676   2.068  2.4655  0.5332 -1.2599
  793SOL    HW2 2379   2.112   1.525   2.045 -1.3543 -1.2467  1.5086
  794SOL     OW 2380   0.457   1.578   2.251  0.3046 -0.6105  0.2289
  794SOL    HW1 2381   0.452   1.492   2.193  2.2710  0.4718 -0.3068
  794SOL    HW2 2382   0.385   1.590   2.325 -0.0854  1.6333 -0.8406
  795SOL     OW 2383   2.468   2.234   1.799  0.1614  0.4381  0.2016
  795SOL    HW1 2384   2.505   2.208   1.891  1.4741 -1.1931  0.4700
  795SOL    HW2 2385   2.425   2.155   1.743 -4.0586 -0.7203 -1.6457
  796SOL     OW 2386   3.089   1.072   2.713 -0.2500  0.0251 -0.3833
  796SOL    HW1 2387   2.988   1.066   2.739 -0.0333 -1.7561 -0.1827
  796SOL    HW2 2388   3.154   1.107   2.791  0.8072  1.4710  1.4662
  797SOL     OW 2389   0.814   0.659   1.468  0.0928 -0.3916 -0.0728
  797SOL    HW1 2390   0.882   0.736   1.499 -0.9409 -0.9804  0.5764
  797SOL    HW2 2391   0.737   0.691   1.404  0.5201 -0.3810  0.7485
  798SOL     OW 2392   1.367   0.478   1.177 -0.3639 -0.3879  0.1988
  798SOL    HW1 2393   1.413   0.436   1.256 -1.0797  0.8473  0.8744
  798SOL    HW2 2394   1.413   0.458   1.087  1.5115  0.3693  0.3052
  799SOL     OW 2395   1.943   2.639   1.056  0.0931 -0.1169  0.0016
  799SOL    HW1 2396   1.869   2.603   1.121 -0.3044  2.2824 -2.3062
  799SOL    HW2 2397   1.904   2.695   0.977 -0.4389  1.3665 -0.7407
  800SOL     OW 2398   3.066   0.625   1.816  0.4945  0.0718 -0.3918
  800SOL    HW1 2399   3.020   0.668   1.901 -0.8578  1.1032 -1.9384
  800SOL    HW2 2400   3.157   0.581   1.836 -1.6047 -1.1618 -1.0102
  801SOL     OW 2401   1.893   2.187   0.193  0.1312 -0.4110  0.0114
  801SOL    HW1 2402   1.821   2.147   0.127 -0.7710 -0.2488 -2.5054
  801SOL    HW2 2403   1.985   2.154   0.157 -1.0364 -0.3226  1.3603
  802SOL     OW 2404   0.731   0.818   2.564 -0.3435 -0.1695  0.3457
  802SOL    HW1 2405   0.793   0.792   2.485 -2.2957 -2.3955  1.2091
  802SOL    HW2 2406   0.642   0.763   2.567 -1.3100 -3.4231  0.3512
  803SOL     OW 2407   0.902   0.167   0.973  0.5753 -0.1185  0.1546
  803SOL    HW1 2408   0.984   0.231   0.987 -1.7319  0.6089 -0.3454
  803SOL    HW2 2409   0.852   0.181   0.882  0.7385 -0.7638  1.9017
  804SOL     OW 2410   0.399   3.057   2.077  0.3602 -0.6627  0.2590
  804SOL    HW1 2411   0.334   3.132   2.039  1.0713 -1.1608 -0.9064
  804SOL    HW2 2412   0.369   2.960   2.050  1.9889  0.1099 -0.9767
  805SOL     OW 2413   2.454   0.313   0.305  0.4843  0.1932 -0.1867
  805SOL    HW1 2414   2.557   0.309   0.313  0.8379  1.9846  3.2359
  805SOL    HW2 2415   2.421   0.258   0.218 -2.8311  1.5396 -0.2955
  806SOL     OW 2416   0.711   2.416   1.673  0.0459 -0.2758 -0.0469
  806SOL    HW1 2417   0.687   2.507   1.714  1.0507 -1.7187  0.9022
  806SOL    HW2 2418   0.810   2.394   1.672 -0.4823 -0.4001 -0.8659
  807SOL     OW 2419   2.503   0.945   0.442  0.4821  0.7344  0.4369
  807SOL    HW1 2420   2.592   0.895   0.416  1.8479  1.9287 -2.4517
  807SOL    HW2 2421   2.453   0.983   0.358  2.8396 -1.5414 -1.8284
  808SOL     OW 2422   0.578   1.982   2.989 -0.8453  0.2505 -0.9411
  808SOL    HW1 2423   0.568   2.007   3.089 -0.1409  0.5342  2.0454
  808SOL    HW2 2424   0.534   1.892   2.967  0.3881 -0.1931  0.5791
  809SOL     OW 2425   2.691   1.994   1.917  0.0006 -0.2678 -0.1706
  809SOL    HW1 2426   2.763   2.069   1.908  0.2709 -1.3166  0.7427
  809SOL    HW2 2427   2.660   1.949   1.829 -1.7311  1.4865  0.2692
  810SOL     OW 2428   2.106   1.135   0.539 -0.2212 -0.2116  0.2243
  810SOL    HW1 2429   2.080   1.056   0.611  1.6608 -0.7556  2.4674
  810SOL    HW2 2430   2.052   1.225   0.555  2.5431 -1.7026  2.6098
  811SOL     OW 2431   1.328   2.326   1.216 -0.6987  0.5384  0.1486
  811SOL    HW1 2432   1.303   2.231   1.252  1.6561 -0.3209 -3.1355
  811SOL    HW2 2433   1.267   2.365   1.141 -0.1327  0.6231  0.8888
  812SOL     OW 2434   1.363   0.756   1.982  0.2493 -0.0266 -0.2372
  812SOL    HW1 2435   1.432   0.826   2.023 -0.2099  1.0868 -1.4018
  812SOL    HW2 2436   1.279   0.812   1.962  1.0358 -0.0682  1.0795
  813SOL     OW 2437   1.697   2.024   2.484 -0.1966 -0.0207  0.3888
  813SOL    HW1 2438   1.792   1.990   2.512  4.0004  0.3666  2.3821
  813SOL    HW2 2439   1.694   2.034   2.376  1.8905  0.9044  0.4659
  814SOL     OW 2440   2.873   1.575   2.905  0.4619  0.1278 -0.4957
  814SOL    HW1 2441   2.968   1.592   2.941  1.3991 -0.0611  0.7852
  814SOL    HW2 2442   2.858   1.633   2.820 -0.2063 -2.0624 -0.1675
  815SOL     OW 2443   2.276   2.889   2.691 -0.3203 -0.0339  0.5690
  815SOL    HW1 2444   2.223   2.838   2.768  0.1425 -0.7099 -0.8373
  815SOL    HW2 2445   2.371   2.853   2.675 -0.6145 -2.2602 -0.6751
  816SOL     OW 2446   1.742   0.328   1.657  0.0719 -0.1599  0.3223
  816SOL    HW1 2447   1.643   0.305   1.675  0.0077  3.0248  0.0605
  816SOL    HW2 2448   1.797   0.362   1.740  1.0943 -0.7224  3.9118
  817SOL     OW 2449   0.476   1.226   2.473  0.0163  0.6057  0.2253
  817SOL    HW1 2450   0.399   1.292   2.449  0.8588 -0.9042 -0.6760
  817SOL    HW2 2451   0.527   1.193   2.389 -0.5330  2.3201 -2.5980
  818SOL     OW 2452   2.014   0.839   0.440  0.0714  0.5137 -0.0831
  818SOL    HW1 2453   2.010   0.940   0.433 -1.2015  0.8674 -2.5637
  818SOL    HW2 2454   1.953   0.795   0.515 -1.1012 -0.0867  1.1449
  819SOL     OW 2455   2.755   2.969   3.060 -0.6329 -0.1256  0.3652
  819SOL    HW1 2456   2.825   2.895   3.030  2.2751 -0.0962 -1.2308
  819SOL    HW2 2457   2.664   2.954   3.011  1.7040 -3.0684  0.0526
  820SOL     OW 2458   1.200   1.093   0.550  0.5017  0.1377 -0.0807
  820SOL    HW1 2459   1.246   1.173   0.598 -1.8064  0.7152 -2.9604
  820SOL    HW2 2460   1.178   1.016   0.620 -1.0121 -0.1814  0.4949
  821SOL     OW 2461   3.073   1.285   0.656  0.0892 -0.1362  0.6436
  821SOL    HW1 2462   3.022   1.298   0.742  0.9184 -1.0103 -2.7543
  821SOL    HW2 2463   3.143   1.364   0.638 -2.1085  0.2572 -2.6256
  822SOL     OW 2464   2.567   1.773   2.469 -0.0452 -0.3598 -0.5176
  822SOL    HW1 2465   2.542   1.867   2.508  1.5838  0.2817 -0.6077
  822SOL    HW2 2466   2.527   1.763   2.373 -1.3821  1.3396  1.2031
  823SOL     OW 2467   2.034   0.895   1.177  0.7746 -0.0257  0.1000
  823SOL    HW1 2468   2.023   0.909   1.281 -0.3114 -1.2424  0.3248
  823SOL    HW2 2469   1.946   0.916   1.121 -0.5716 -0.4532 -0.7723
  824SOL     OW 2470   0.189   2.051   2.718 -0.0345 -0.1899 -0.3162
  824SOL    HW1 2471   0.170   1.976   2.786 -0.1725 -0.0488 -3.1212
  824SOL    HW2 2472   0.230   2.013   2.633 -0.7546 -1.4064  2.7297
  825SOL     OW 2473   1.248   1.048   0.267  0.0028 -0.6055 -0.3584
  825SOL    HW1 2474   1.241   1.054   0.371  1.6191  2.5889 -0.1023
  825SOL    HW2 2475   1.256   1.142   0.227 -1.6963 -1.4787  2.4577
  826SOL     OW 2476   1.915   0.678   1.553  0.0766 -0.1690 -0.0014
  826SOL    HW1 2477   1.958   0.606   1.615  0.4071 -2.4937  1.3078
  826SOL    HW2 2478   1.840   0.642   1.491 -0.8739 -0.9255 -1.2134
  827SOL     OW 2479   0.775   1.407   0.245 -0.4694  0.3802 -0.0393
  827SOL    HW1 2480   0.788   1.325   0.179 -0.5592 -2.4188 -0.5939
  827SOL    HW2 2481   0.773   1.381   0.345  0.9132  0.3361 -1.4728
  828SOL     OW 2482   2.584   0.059   1.592 -0.1400  0.0614 -0.3470
  828SOL    HW1 2483   2.495   0.076   1.545 -0.0874  3.2087  0.5241
  828SOL    HW2 2484   2.574  -0.024   1.655  1.6834 -0.3894  2.1388
  829SOL     OW 2485   2.757   2.492   3.019  0.7081 -0.3207  0.2886
  829SOL    HW1 2486   2.712   2.398   3.005 -0.0863  0.4763  0.2583
  829SOL    HW2 2487   2.737   2.524   3.116  3.5926  1.9604  1.7840
  830SOL     OW 2488   2.777   0.927   2.987 -0.3534 -0.0807  0.4293
  830SOL    HW1 2489   2.860   0.986   3.015  2.5842  0.5264 -2.6165
  830SOL    HW2 2490   2.787   0.834   3.030  1.8083 -0.9116  1.5949
  831SOL     OW 2491   3.079   0.584   0.386 -0.4179 -0.2720 -0.2823
  831SOL    HW1 2492   3.057   0.510   0.462 -1.0643 -2.3307  0.2531
  831SOL    HW2 2493   3.127   0.542   0.305  1.1926  2.6867  1.6954
  832SOL     OW 2494   1.803   0.753   3.054 -0.0212  0.2072 -0.1085
  832SOL    HW1 2495   1.720   0.811   3.032 -2.4190 -1.0721  1.0536
  832SOL    HW2 2496   1.786   0.649   3.044  0.3571 -0.3369 -2.6424
  833SOL     OW 2497   2.439   2.121   0.553  0.4968 -0.0302 -0.8427
  833SOL    HW1 2498   2.349   2.145   0.513  1.1462 -2.5454 -2.1984
  833SOL    HW2 2499   2.473   2.027   0.536 -0.7282  1.6552  0.6936
  834SOL     OW 2500   0.059   0.229   0.671  0.4278  0.0517 -0.7079
  834SOL    HW1 2501   0.086   0.169   0.750  3.0998  0.2616  1.9845
  834SOL    HW2 2502   0.141   0.236   0.612 -2.4619  2.6396 -1.2811
  835SOL     OW 2503   2.432   1.467   1.184 -0.3085  0.5046  0.1287
  835SOL    HW1 2504   2.528   1.498   1.216  1.9510  1.1197 -0.6298
  835SOL    HW2 2505   2.438   1.443   1.082 -4.7155 -1.0701  2.3520
  836SOL     OW 2506   1.533   0.862   2.592 -0.5138 -0.0699  0.2523
  836SOL    HW1 2507   1.429   0.869   2.568 -1.4783  0.6966 -3.1225
  836SOL    HW2 2508   1.591   0.868   2.506  2.0225  0.0443  0.4690
  837SOL     OW 2509   1.524   0.054   0.486  0.2549 -0.5741  0.2102
  837SOL    HW1 2510   1.517   0.160   0.495 -1.5907 -1.4593  2.0573
  837SOL    HW2 2511   1.541   0.014   0.393  0.2238  0.5596  0.0215
  838SOL     OW 2512   1.316   1.605   2.681 -0.6417 -0.5087  0.2247
  838SOL    HW1 2513   1.380   1.546   2.735  1.6986  2.2629  1.0595
  838SOL    HW2 2514   1.233   1.550   2.641 -1.0307  0.9590 -1.5976
  839SOL     OW 2515   1.603   0.253   0.985 -0.2441 -0.1472  0.1286
  839SOL    HW1 2516   1.643   0.309   1.062 -0.3103  0.0515  1.1067
  839SOL    HW2 2517   1.586   0.156   1.003  2.2377  1.7999 -3.9732
  840SOL     OW 2518   2.554   2.916   1.728 -0.2794  0.5958  0.6908
  840SOL    HW1 2519   2.558   2.886   1.627  0.5984 -0.1025  0.7828
  840SOL    HW2 2520   2.588   2.843   1.793  0.6504  0.4443 -5.4730
  841SOL     OW 2521   1.587   0.925   3.036  0.5067  0.0520 -0.1591
  841SOL    HW1 2522   1.508   0.919   3.096  0.6684  0.6029 -0.2157
  841SOL    HW2 2523   1.570   0.976   2.946 -0.8949 -2.2334  1.6940
  842SOL     OW 2524   0.819   1.520   0.874  0.1033  0.4281 -0.2877
  842SOL    HW1 2525   0.780   1.585   0.950  1.1204  2.8349 -0.5176
  842SOL    HW2 2526   0.761   1.431   0.862  2.7530 -0.6910  0.0109
  843SOL     OW 2527   0.159   3.067   1.394  0.7599  0.0373 -0.3421
  843SOL    HW1 2528   0.172   3.151   1.449  1.6489  0.4551 -1.3795
  843SOL    HW2 2529   0.118   2.993   1.455  3.4951 -2.4694  0.4485
  844SOL     OW 2530   0.799   2.460   0.245  0.1191  0.1990  0.0396
  844SOL    HW1 2531   0.715   2.443   0.306 -0.8740 -0.0667  0.1939
  844SOL    HW2 2532   0.786   2.531   0.171 -0.0595  1.5916  0.7903
  845SOL     OW 2533   1.652   2.829   1.269  0.2354 -0.0568 -0.2629
  845SOL    HW1 2534   1.611   2.735   1.234 -1.3462  0.7423  2.3766
  845SOL    HW2 2535   1.636   2.845   1.369 -2.1693 -0.1292 -3.2248
  846SOL     OW 2536   1.523   3.018   0.746  0.1195 -0.5082 -0.5213
  846SOL    HW1 2537   1.487   3.071   0.664  0.6202  0.1726 -0.3070
  846SOL    HW2 2538   1.614   2.980   0.724  1.0802  1.5119  4.0379
  847SOL     OW 2539   2.086   1.770   0.454 -0.0613 -0.2362  0.0770
  847SOL    HW1 2540   2.028   1.697   0.502 -2.2650 -4.3444  3.1057
  847SOL    HW2 2541   2.030   1.852   0.444 -1.7575 -0.3533  2.3108
  848SOL     OW 2542   2.428   0.886   2.637 -0.4178  0.2369  0.1190
  848SOL    HW1 2543   2.409   0.964   2.702  2.3834 -0.7288  2.5741
  848SOL    HW2 2544   2.353   0.815   2.641 -1.4890 -0.8675 -0.3899
  849SOL     OW 2545   2.517   0.894   2.389 -0.1357 -0.1778  0.5875
  849SOL    HW1 2546   2.597   0.823   2.393  0.3230 -0.5165  2.0651
  849SOL    HW2 2547   2.465   0.907   2.475 -1.4440  1.3861 -3.3037
  850SOL     OW 2548   1.570   0.060   1.336 -0.1356  0.6905 -0.7489
  850SOL    HW1 2549   1.568   0.020   1.244  2.4331  2.9373 -0.8444
  850SOL    HW2 2550   1.527   0.002   1.410  1.4447  5.3773  0.3809
  851SOL     OW 2551   0.586   1.708   0.708 -0.0892  0.1788 -0.5173
  851SOL    HW1 2552   0.669   1.746   0.758 -2.0491  0.6020 -1.6623
  851SOL    HW2 2553   0.602   1.713   0.601 -0.7375 -0.4963  2.1163
  852SOL     OW 2554   0.852   2.095   1.657  0.7052  0.1017  0.2969
  852SOL    HW1 2555   0.879   2.196   1.656 -2.1231  2.1889  0.3931
  852SOL    HW2 2556   0.781   2.076   1.727  0.5373  1.1098 -0.3127
  853SOL     OW 2557   2.541   1.528   2.629  0.1166 -0.2568 -0.0097
  853SOL    HW1 2558   2.467   1.456   2.613 -2.1713  2.1390 -0.4656
  853SOL    HW2 2559   2.536   1.613   2.566  0.0253  1.5720  0.1481
  854SOL     OW 2560   2.411   1.421   1.785 -0.0397  0.5058  0.2300
  854SOL    HW1 2561   2.470   1.395   1.705  0.7581  0.6339  0.0833
  854SOL    HW2 2562   2.359   1.336   1.828 -0.2688 -0.5041  1.6954
  855SOL     OW 2563   2.061   2.383   1.121  0.5229  0.1422 -0.1972
  855SOL    HW1 2564   2.014   2.476   1.104 -2.8974 -1.7246  0.3088
  855SOL    HW2 2565   2.140   2.392   1.189 -1.1693  2.0574 -0.5564
  856SOL     OW 2566   1.325   1.427   0.914 -0.2485  0.2627 -0.0970
  856SOL    HW1 2567   1.387   1.503   0.948  0.9466  3.6533 -1.4141
  856SOL    HW2 2568   1.226   1.453   0.932  0.6922 -0.4385 -0.6623
  857SOL     OW 2569   0.016   2.730   1.082 -0.5169  0.3141  0.5409
  857SOL    HW1 2570   0.026   2.717   0.979  1.1014 -1.9250 -1.0119
  857SOL    HW2 2571   0.053   2.651   1.132 -1.1977  3.6844  0.1494
  858SOL     OW 2572   2.390   2.037   1.606 -0.0834 -0.7389 -0.8570
  858SOL    HW1 2573   2.308   1.975   1.585  2.7867  2.3246 -1.3129
  858SOL    HW2 2574   2.482   1.985   1.617  1.2851  1.6230 -0.9570
  859SOL     OW 2575   2.450   0.559   1.090  0.5517 -0.2286 -0.1257
  859SOL    HW1 2576   2.501   0.613   1.022 -0.4171 -0.5764  0.7755
  859SOL    HW2 2577   2.500   0.489   1.143  0.7966 -1.9349 -1.7390
  860SOL     OW 2578   1.892   2.828   0.495  0.3273  0.4900  0.5933
  860SOL    HW1 2579   1.893   2.777   0.403  2.0083 -0.8880  0.0429
  860SOL    HW2 2580   1.913   2.928   0.489  1.8491 -2.8837 -1.7076
  861SOL     OW 2581   1.035   2.495   2.871 -0.1036  0.3824 -0.3269
  861SOL    HW1 2582   1.109   2.556   2.830 -0.9960 -0.9081 -0.8441
  861SOL    HW2 2583   0.990   2.531   2.958 -1.0443 -1.6198 -1.5298
  862SOL     OW 2584   2.829   2.538   1.687 -0.0749  0.1079  0.1007
  862SOL    HW1 2585   2.920   2.544   1.732 -1.2737 -4.8915 -1.0669
  862SOL    HW2 2586   2.801   2.632   1.652  1.2665  1.1206 -2.6516
  863SOL     OW 2587   1.830   2.732   0.225 -0.1889 -0.2790  0.2778
  863SOL    HW1 2588   1.860   2.628   0.239  0.3210 -0.9406 -2.2797
  863SOL    HW2 2589   1.731   2.737   0.192  0.0617  2.0967 -0.5672
  864SOL     OW 2590   2.039   1.219   2.801 -0.6906  0.2062  0.3581
  864SOL    HW1 2591   2.021   1.152   2.721  1.5315  1.2742 -0.4430
  864SOL    HW2 2592   2.137   1.260   2.809  0.4059  2.9201  0.6521
  865SOL     OW 2593   2.115   1.963   0.712  0.4221 -0.2909  0.4020
  865SOL    HW1 2594   2.201   1.931   0.760  2.6048 -0.7043  0.0663
  865SOL    HW2 2595   2.038   1.952   0.782  0.7565 -0.4708  1.0130
  866SOL     OW 2596   2.959   2.946   1.077 -0.0827  0.4194 -0.7643
  866SOL    HW1 2597   2.981   2.996   0.991  0.0880 -2.0306  2.2711
  866SOL    HW2 2598   3.025   2.862   1.091  0.1334 -2.0829  1.4393
  867SOL     OW 2599   0.318   1.373   0.872 -0.4630  0.2807 -0.5057
  867SOL    HW1 2600   0.335   1.292   0.805  0.6605 -1.1569 -1.7315
  867SOL    HW2 2601   0.315   1.464   0.822  0.2224  1.6058 -0.6687
  868SOL     OW 2602   0.793   1.887   2.061  0.1328 -0.7720 -0.3278
  868SOL    HW1 2603   0.738   1.842   2.138 -0.2514  0.9256  1.1427
  868SOL    HW2 2604   0.753   1.979   2.017  0.4985 -1.4087 -1.6407
  869SOL     OW 2605   2.618   1.902   1.652 -0.0250  0.3174 -0.0888
  869SOL    HW1 2606   2.693   1.947   1.603 -1.6956  1.6192  1.4638
  869SOL    HW2 2607   2.599   1.806   1.615 -2.8775 -1.4855 -2.2852
  870SOL     OW 2608   2.385   2.700   1.137  0.0371  0.4179 -0.0439
  870SOL    HW1 2609   2.341   2.623   1.188  1.5934  0.8184 -2.0400
  870SOL    HW2 2610   2.473   2.750   1.178  1.7985 -0.2516  0.4069
  871SOL     OW 2611   3.076   2.269   0.543 -0.1179 -0.1688 -0.5340
  871SOL    HW1 2612   3.009   2.223   0.607 -1.5625  1.6458  0.3997
  871SOL    HW2 2613   3.035   2.314   0.460 -0.5667  2.7214 -0.7773
  872SOL     OW 2614   2.082   0.476   1.708  0.2866 -0.5499  0.3774
  872SOL    HW1 2615   2.045   0.489   1.803 -1.5887 -0.9715 -3.0874
  872SOL    HW2 2616   2.185   0.469   1.703  1.0565 -0.0228 -2.9359
  873SOL     OW 2617   1.707   2.084   3.069  0.0992  0.7282 -0.3058
  873SOL    HW1 2618   1.620   2.037   3.039 -0.8388 -0.4353  1.4167
  873SOL    HW2 2619   1.734   2.161   3.004  0.7649 -1.0219 -0.6285
  874SOL     OW 2620   0.672   2.489   0.705  0.4758 -0.0890  0.1969
  874SOL    HW1 2621   0.663   2.576   0.756 -1.6642 -2.2804 -0.8153
  874SOL    HW2 2622   0.764   2.439   0.731  2.0224 -1.6200  1.3942
  875SOL     OW 2623   2.320   1.626   1.398 -1.1865 -0.4586  0.1204
  875SOL    HW1 2624   2.358   1.617   1.493 -3.6681  1.0351  1.3106
  875SOL    HW2 2625   2.368   1.565   1.326  3.0450 -1.2809 -0.8685
  876SOL     OW 2626   0.073   2.287   2.636 -0.4159 -0.4173 -0.7573
  876SOL    HW1 2627   0.133   2.200   2.656  2.2106 -2.2861 -0.7115
  876SOL    HW2 2628   0.114   2.368   2.682  0.0142 -0.0338  1.2568
  877SOL     OW 2629   2.871   2.627   0.678  0.4259  0.4768 -0.2588
  877SOL    HW1 2630   2.866   2.732   0.675 -5.6543  0.9659  2.4829
  877SOL    HW2 2631   2.950   2.586   0.727  0.4387  0.6577  1.5076
  878SOL     OW 2632   2.840   1.617   2.306  0.1270  0.0743 -0.0645
  878SOL    HW1 2633   2.757   1.649   2.254 -1.7451  0.3561  1.9784
  878SOL    HW2 2634   2.818   1.579   2.402 -2.5094 -1.4078 -0.6176
  879SOL     OW 2635   2.485   0.019   1.146 -0.3895  0.2811  0.5600
  879SOL    HW1 2636   2.504  -0.084   1.158 -0.3027 -0.2767 -1.1946
  879SOL    HW2 2637   2.385   0.038   1.117  1.2801  0.4489  0.0333
  880SOL     OW 2638   0.626   0.536   2.259  0.0716 -0.0369 -0.3313
  880SOL    HW1 2639   0.638   0.493   2.354 -0.1660  2.9253 -0.2706
  880SOL    HW2 2640   0.672   0.479   2.184 -2.6847 -1.6714  0.9442
  881SOL     OW 2641   0.820   0.078   0.448  0.5693 -0.0822 -0.8612
  881SOL    HW1 2642   0.870  -0.012   0.477 -2.2667 -3.4914 -3.8974
  881SOL    HW2 2643   0.730   0.059   0.400  0.2305  0.5571  2.5797
  882SOL     OW 2644   2.735   1.614   1.714 -0.2282 -0.2209 -0.1013
  882SOL    HW1 2645   2.835   1.623   1.683  1.9775 -2.5196 -2.1466
  882SOL    HW2 2646   2.723   1.587   1.814 -0.2748 -0.1514 -2.7284
  883SOL     OW 2647   0.812   0.505   0.861 -0.3569  0.2222  0.7508
  883SOL    HW1 2648   0.848   0.599   0.884  1.1019 -1.3993 -2.7887
  883SOL    HW2 2649   0.763   0.465   0.942 -1.8960  1.0612  0.1450
  884SOL     OW 2650   1.195   1.718   1.096 -0.1978 -0.4456  0.2487
  884SOL    HW1 2651   1.130   1.655   1.059  4.0855  2.5334  1.6646
  884SOL    HW2 2652   1.232   1.781   1.020  0.7644  0.6128  0.4648
  885SOL     OW 2653   2.323   1.879   2.278 -0.4236  0.6427 -0.0976
  885SOL    HW1 2654   2.235   1.826   2.299  0.0305 -3.2842 -2.7864
  885SOL    HW2 2655   2.318   1.980   2.293 -0.8682  0.9396 -1.4105
  886SOL     OW 2656   2.602   0.360   1.794  0.2220 -0.5504  0.2573
  886SOL    HW1 2657   2.609   0.268   1.844 -0.0526 -2.2424  2.6036
  886SOL    HW2 2658   2.684   0.403   1.754 -1.7181 -0.7012  1.0941
  887SOL     OW 2659   0.125   2.066   1.324  0.0741  0.2389 -0.8107
  887SOL    HW1 2660   0.081   1.991   1.274  3.4270  1.7832 -3.1841
  887SOL    HW2 2661   0.094   2.160   1.300 -0.7074  0.9252 -0.3815
  888SOL     OW 2662   0.583   1.237   1.560 -0.3720  0.2053 -0.5540
  888SOL    HW1 2663   0.587   1.301   1.482  0.1779  0.4585  2.1361
  888SOL    HW2 2664   0.631   1.148   1.535  0.3343 -3.8592 -0.7710
  889SOL     OW 2665   0.824   2.442   2.227 -0.0389  0.1285  0.4117
  889SOL    HW1 2666   0.723   2.428   2.235  1.9859  0.5590 -0.0620
  889SOL    HW2 2667   0.865   2.384   2.149 -0.2113 -2.7034  1.5788
  890SOL     OW 2668   2.397   2.469   0.291 -0.2527  0.0430 -0.4105
  890SOL    HW1 2669   2.470   2.541   0.307  0.8849  2.1213 -1.7553
  890SOL    HW2 2670   2.318   2.462   0.354  0.6535 -2.3152 -1.9870
  891SOL     OW 2671   2.620   1.707   0.711  0.2717 -0.4319 -0.5594
  891SOL    HW1 2672   2.630   1.753   0.807 -1.5297 -2.2829 -0.3656
  891SOL    HW2 2673   2.523   1.671   0.689 -0.7669 -2.4074  0.7236
  892SOL     OW 2674   0.371   0.312   2.238  0.2644  0.4811 -0.4920
  892SOL    HW1 2675   0.471   0.304   2.247  1.4472  0.7767  0.3263
  892SOL    HW2 2676   0.335   0.263   2.155  0.3411 -0.4124 -0.3460
  893SOL     OW 2677   1.748   0.262   2.682 -0.3386  0.4649  0.3144
  893SOL    HW1 2678   1.836   0.307   2.706 -3.5233 -1.5343  1.3861
  893SOL    HW2 2679   1.668   0.324   2.686  3.2281  0.0202  0.1770
  894SOL     OW 2680   2.139   2.073   0.105  0.1832 -0.5986 -0.2452
  894SOL    HW1 2681   2.105   2.016   0.031 -0.1695 -0.0635  0.1295
  894SOL    HW2 2682   2.170   2.020   0.188  0.2160 -2.0689  0.3011
  895SOL     OW 2683   2.773   1.441   0.859 -0.2422 -0.0831  0.5377
  895SOL    HW1 2684   2.853   1.379   0.891  1.3135 -1.3754 -1.9521
  895SOL    HW2 2685   2.788   1.537   0.888 -0.4466 -2.6401 -2.2689
  896SOL     OW 2686   1.852   1.734   1.262  0.4402  0.3953 -0.3911
  896SOL    HW1 2687   1.951   1.701   1.271  1.5781  2.1226  1.6554
  896SOL    HW2 2688   1.806   1.698   1.175  1.7561  1.6809 -2.4761
  897SOL     OW 2689   0.236   0.552   3.000 -0.6981  0.3018  0.1651
  897SOL    HW1 2690   0.186   0.610   2.933  2.8205  0.4319  0.5160
  897SOL    HW2 2691   0.333   0.584   3.001 -1.2333 -0.1602  1.4432
  898SOL     OW 2692   0.670   2.836   1.098  0.0931 -0.2889 -0.2674
  898SOL    HW1 2693   0.690   2.923   1.150 -0.4905  1.6078 -0.5073
  898SOL    HW2 2694   0.695   2.748   1.148 -1.1826 -0.6580  0.1819
  899SOL     OW 2695   2.882   0.946   1.356  0.1028  0.2731 -0.3932
  899SOL    HW1 2696   2.867   0.946   1.254  0.3636  0.6176 -0.6946
  899SOL    HW2 2697   2.972   0.978   1.394 -2.2270 -1.7123 -1.7575
  900SOL     OW 2698   0.968   2.506   2.466  0.3724 -0.2432  0.5909
  900SOL    HW1 2699   0.910   2.473   2.383  1.7944 -2.2239 -2.7631
  900SOL    HW2 2700   0.934   2.459   2.553 -0.2410 -0.1951  0.3869
  901SOL     OW 2701   1.885   2.374   1.422 -0.1453  0.3733  0.1527
  901SOL    HW1 2702   1.900   2.297   1.348  0.8472  2.1696 -0.0766
  901SOL    HW2 2703   1.966   2.382   1.485  0.5534  0.5773 -0.9036
  902SOL     OW 2704   2.581   1.642   1.510 -0.4075 -0.6875 -0.1507
  902SOL    HW1 2705   2.642   1.626   1.597 -0.6787 -4.4071  0.7165
  902SOL    HW2 2706   2.631   1.620   1.421 -2.7474  0.3634  0.4360
  903SOL     OW 2707   0.307   2.370   1.989  0.4008  0.3648 -0.3550
  903SOL    HW1 2708   0.273   2.275   2.003  0.9797  0.7973  1.3998
  903SOL    HW2 2709   0.284   2.402   1.895 -0.3945 -0.8111 -2.3011
  904SOL     OW 2710   1.979   0.826   2.458  0.0778  0.1436  0.0812
  904SOL    HW1 2711   1.907   0.752   2.491 -1.1986  0.9975 -0.7300
  904SOL    HW2 2712   2.026   0.804   2.368 -1.0672  1.8448  0.7849
  905SOL     OW 2713   2.811   0.117   2.400  0.1476 -0.3028  0.1836
  905SOL    HW1 2714   2.861   0.033   2.434 -0.3900 -1.4293 -4.0627
  905SOL    HW2 2715   2.867   0.205   2.425 -0.8829  1.4744  0.8155
  906SOL     OW 2716   0.143   1.746   1.910 -0.0076  0.3069  0.0907
  906SOL    HW1 2717   0.068   1.777   1.840 -0.9698 -0.8333 -2.1980
  906SOL    HW2 2718   0.236   1.738   1.860 -0.4498 -0.8283 -0.4496
  907SOL     OW 2719   0.232   2.495   0.968 -0.2960 -0.2649 -0.4994
  907SOL    HW1 2720   0.312   2.435   0.943 -0.4400 -1.4424 -2.0148
  907SOL    HW2 2721   0.256   2.592   0.940 -0.4076  0.2611  2.1993
  908SOL     OW 2722   2.864   2.966   0.396 -0.4860  0.7249 -0.0613
  908SOL    HW1 2723   2.801   3.036   0.353  1.8609  0.6055  1.3555
  908SOL    HW2 2724   2.901   2.893   0.328  2.5677 -0.4136 -0.4171
  909SOL     OW 2725   0.896   1.026   2.644 -0.2403 -0.1700  1.0898
  909SOL    HW1 2726   0.854   0.935   2.630 -0.0900  1.6715  1.4953
  909SOL    HW2 2727   0.951   1.052   2.560 -0.5900 -0.3357 -1.2575
  910SOL     OW 2728   1.820   1.876   2.126 -0.4235 -0.2873  0.1402
  910SOL    HW1 2729   1.884   1.913   2.056 -1.4318  0.7077  1.2170
  910SOL    HW2 2730   1.759   1.948   2.171  2.3176  2.7069 -2.4453
  911SOL     OW 2731   1.751   2.877   1.545 -0.0953  0.6302 -0.5569
  911SOL    HW1 2732   1.834   2.862   1.484 -0.5924 -0.3740  0.5314
  911SOL    HW2 2733   1.725   2.791   1.597  2.7113  1.4018  0.1249
  912SOL     OW 2734   2.849   0.989   0.728  0.6871  0.7208  0.9024
  912SOL    HW1 2735   2.879   0.993   0.827  2.1765  0.3808 -0.2925
  912SOL    HW2 2736   2.788   1.069   0.700 -2.1145 -1.2698 -0.1917
  913SOL     OW 2737   2.585   1.274   1.582 -0.4605 -0.5043 -0.8281
  913SOL    HW1 2738   2.620   1.181   1.565 -0.5606 -0.6306 -1.2310
  913SOL    HW2 2739   2.618   1.336   1.506  0.3029  0.6350  1.2458
  914SOL     OW 2740   2.878   0.580   1.172 -0.3237  0.6662  0.3952
  914SOL    HW1 2741   2.854   0.485   1.201 -0.0246  1.4792  0.5859
  914SOL    HW2 2742   2.854   0.656   1.236  1.1602 -0.3620  2.5864
  915SOL     OW 2743   1.201   0.712   0.914 -0.1633  0.6324  0.1397
  915SOL    HW1 2744   1.262   0.737   0.997  0.6860  1.1604  1.5825
  915SOL    HW2 2745   1.100   0.715   0.924  1.1245 -0.0424  0.7516
  916SOL     OW 2746   0.599   0.081   0.678  0.3950 -0.2163  0.1447
  916SOL    HW1 2747   0.675   0.150   0.710  0.7442 -0.6386 -2.0541
  916SOL    HW2 2748   0.594   0.074   0.574 -0.8624 -1.0770  2.3750
  917SOL     OW 2749   2.843   2.622   2.035  0.0971  0.0225  0.0504
  917SOL    HW1 2750   2.759   2.657   1.987 -1.0263 -0.1836  0.2456
  917SOL    HW2 2751   2.924   2.655   1.981  2.5052 -1.8987 -0.7870
  918SOL     OW 2752   1.078   2.095   3.050 -0.0921 -0.1694 -0.2731
  918SOL    HW1 2753   1.074   2.190   3.096 -2.1508 -1.0436  2.1138
  918SOL    HW2 2754   1.143   2.091   2.971  1.2285  2.6013  0.0685
  919SOL     OW 2755   0.775   1.647   2.786  0.2253 -0.5447  0.2345
  919SOL    HW1 2756   0.828   1.730   2.754  3.2064 -0.3653 -1.8355
  919SOL    HW2 2757   0.774   1.570   2.716  0.6384 -3.5697  0.3194
  920SOL     OW 2758   1.343   1.820   2.471 -0.1138 -0.0704 -0.3405
  920SOL    HW1 2759   1.432   1.815   2.415  0.2169  1.5172  1.2724
  920SOL    HW2 2760   1.339   1.747   2.546 -0.9532  1.3268 -2.2175
  921SOL     OW 2761   1.131   0.109   2.573  0.4202 -0.7112  0.1558
  921SOL    HW1 2762   1.131   0.102   2.472 -1.3448 -1.4576  2.1547
  921SOL    HW2 2763   1.032   0.106   2.613 -0.6868 -0.6279  2.2576
  922SOL     OW 2764   2.182   2.468   2.820  0.2209 -0.1021 -0.6412
  922SOL    HW1 2765   2.218   2.372   2.852  2.5826 -1.5169  0.4908
  922SOL    HW2 2766   2.117   2.462   2.737  0.7265 -0.9390  1.4924
  923SOL     OW 2767   1.192   2.697   0.287  0.4136 -0.1111  0.1859
  923SOL    HW1 2768   1.269   2.747   0.337  1.9529  0.2938  0.3994
  923SOL    HW2 2769   1.222   2.599   0.267  2.0189 -1.7861  0.6830
  924SOL     OW 2770   2.948   1.699   0.142 -0.0514  0.2660  0.1729
  924SOL    HW1 2771   2.856   1.660   0.113  2.3549 -1.2601 -0.0218
  924SOL    HW2 2772   3.022   1.626   0.171 -1.3758 -0.0031 -0.9653
  925SOL     OW 2773   0.019   2.886   1.572  0.3187 -0.1079 -0.2408
  925SOL    HW1 2774  -0.049   2.950   1.613  0.7114 -2.5616 -1.0232
  925SOL    HW2 2775  -0.026   2.802   1.520  1.3794 -1.1526 -3.2832
  926SOL     OW 2776   1.261   2.758   1.336  0.3773  0.3665  0.5833
  926SOL    HW1 2777   1.288   2.766   1.237  0.9144 -1.5397 -1.3355
  926SOL    HW2 2778   1.293   2.837   1.393 -3.3384  3.3330  0.7223
  927SOL     OW 2779   0.357   2.589   1.785 -0.3801  0.1427 -0.0404
  927SOL    HW1 2780   0.310   2.541   1.705  0.7120  0.0604  0.9991
  927SOL    HW2 2781   0.332   2.691   1.784 -0.1417  0.2496 -0.0532
  928SOL     OW 2782   1.678   2.071   2.219 -0.1771  0.2560  0.4542
  928SOL    HW1 2783   1.696   2.149   2.155 -0.7410  2.6990  0.3023
  928SOL    HW2 2784   1.576   2.060   2.228  0.7341 -0.9194 -2.1326
  929SOL     OW 2785   2.438   2.505   2.896  0.8138  0.0486 -0.4370
  929SOL    HW1 2786   2.338   2.481   2.872 -1.7413 -1.5037 -0.1642
  929SOL    HW2 2787   2.500   2.519   2.812 -3.7158 -2.8996  0.2169
  930SOL     OW 2788   2.120   2.088   1.082  0.0485 -0.0846  0.0968
  930SOL    HW1 2789   2.134   2.061   1.182 -0.6068  1.7821  0.2665
  930SOL    HW2 2790   2.095   2.187   1.069 -1.3746  1.5356 -0.6289
  931SOL     OW 2791   0.471   1.602   2.630 -0.2249  0.2791 -0.2020
  931SOL    HW1 2792   0.478   1.627   2.729  2.3451  0.0713  0.5441
  931SOL    HW2 2793   0.568   1.589   2.598  0.2969 -1.5488 -1.4027
  932SOL     OW 2794   0.352   0.043   3.093  0.1474  0.5854  0.3993
  932SOL    HW1 2795   0.402   0.127   3.066 -0.8083  2.0521 -0.1712
  932SOL    HW2 2796   0.369  -0.035   3.023 -1.3966 -1.6454 -2.5302
  933SOL     OW 2797   1.014   0.829   3.000  0.3335 -0.3771  0.2998
  933SOL    HW1 2798   1.026   0.927   3.040  3.0865  1.9100 -0.1552
  933SOL    HW2 2799   0.931   0.785   3.041 -0.1436  0.2983 -0.4732
  934SOL     OW 2800   0.893   2.957   2.627  0.4105 -0.6594  0.5330
  934SOL    HW1 2801   0.860   2.890   2.554  0.9109  0.0516 -0.7965
  934SOL    HW2 2802   0.938   2.901   2.703 -1.9815 -0.2584 -3.5958
  935SOL     OW 2803   3.105   0.610   0.763  0.4082 -0.5117  0.3397
  935SOL    HW1 2804   3.045   0.557   0.687 -2.5920 -2.2193 -0.2779
  935SOL    HW2 2805   3.048   0.678   0.817  0.5466 -2.5684 -0.6245
  936SOL     OW 2806   1.111   2.883   0.089  0.0082  0.2226 -0.0600
  936SOL    HW1 2807   1.182   2.922   0.024  0.0163  0.1635 -0.7306
  936SOL    HW2 2808   1.157   2.820   0.158  0.1086 -0.2489 -0.6816
  937SOL     OW 2809   1.977   2.596   2.083 -0.2308 -0.3244 -0.4630
  937SOL    HW1 2810   1.951   2.646   2.174 -0.7402  0.9322  1.4947
  937SOL    HW2 2811   1.984   2.660   2.003 -2.8826 -1.7364  0.1003
  938SOL     OW 2812   2.753   2.113   1.537  0.4942 -0.4132  0.0270
  938SOL    HW1 2813   2.697   2.200   1.567 -0.0730  1.5321  1.8831
  938SOL    HW2 2814   2.834   2.093   1.603  0.7847  1.9409  1.7485
  939SOL     OW 2815   2.832   1.189   2.488 -0.0702 -1.1019  0.1834
  939SOL    HW1 2816   2.922   1.176   2.437 -0.1778 -1.1454 -1.9612
  939SOL    HW2 2817   2.828   1.125   2.572 -2.2591  1.7556  1.8459
  940SOL     OW 2818   1.053   0.439   2.738  0.2146  0.5720 -0.2266
  940SOL    HW1 2819   1.133   0.376   2.741 -1.7007  0.1169  1.2757
  940SOL    HW2 2820   0.976   0.400   2.677 -1.2654 -0.8157 -1.6259
  941SOL     OW 2821   0.086   2.808   2.281 -0.1017  0.0511  0.1626
  941SOL    HW1 2822   0.122   2.761   2.195  0.7313 -1.6487 -0.9259
  941SOL    HW2 2823   0.157   2.851   2.342  0.2248  0.5905 -0.3926
  942SOL     OW 2824   0.126   0.055   2.437 -0.5383  0.5969  0.1988
  942SOL    HW1 2825   0.148   0.044   2.541 -0.9543 -1.6054 -0.1535
  942SOL    HW2 2826   0.086   0.148   2.412  0.2981 -1.0618 -0.6260
  943SOL     OW 2827   2.140   1.689   2.345  0.3171 -0.1651 -0.6217
  943SOL    HW1 2828   2.116   1.646   2.256 -0.9209  2.6494  0.9572
  943SOL    HW2 2829   2.152   1.616   2.417 -1.2848 -0.9233  2.5141
  944SOL     OW 2830   2.196   2.305   1.573 -0.2451 -0.0313  0.2803
  944SOL    HW1 2831   2.226   2.325   1.668  1.2947  2.4134 -0.3527
  944SOL    HW2 2832   2.147   2.214   1.560  0.4843  2.2840 -0.5698
  945SOL     OW 2833   0.669   1.649   0.185  0.1879 -0.3786 -0.0849
  945SOL    HW1 2834   0.597   1.628   0.113  1.3926  0.1341  0.5509
  945SOL    HW2 2835   0.728   1.568   0.210  0.6860 -0.7142 -0.1082
  946SOL     OW 2836   0.362   0.992   2.604 -0.3804  0.1446  0.7253
  946SOL    HW1 2837   0.328   0.925   2.531  0.0243 -1.5837  3.1691
  946SOL    HW2 2838   0.389   1.083   2.556 -1.5519  0.0335  0.9092
  947SOL     OW 2839   1.463   0.537   3.029 -0.0683 -0.3676 -0.0682
  947SOL    HW1 2840   1.464   0.601   2.947  0.3750  3.3790  0.6876
  947SOL    HW2 2841   1.368   0.497   3.047 -1.8227  2.2078  0.9672
  948SOL     OW 2842   1.966   2.941   2.160  0.3642  0.0956  0.3654
  948SOL    HW1 2843   1.946   2.924   2.060 -0.7210 -0.0680 -2.5915
  948SOL    HW2 2844   1.947   2.857   2.219 -1.6213  2.6797  2.0228
  949SOL     OW 2845   0.577   2.492   0.432  0.1741 -0.6610 -0.2492
  949SOL    HW1 2846   0.539   2.591   0.424 -2.2613  0.5219 -2.4598
  949SOL    HW2 2847   0.590   2.460   0.529 -3.5765  2.1974 -1.3405
  950SOL     OW 2848   0.212   2.248   2.946 -0.6634  0.8608 -0.7039
  950SOL    HW1 2849   0.196   2.342   2.909 -3.8323 -3.5473 -0.4270
  950SOL    HW2 2850   0.225   2.176   2.875  1.1999 -2.6430 -0.4956
  951SOL     OW 2851   1.250   2.670   2.806 -0.8835  0.0040  0.1302
  951SOL    HW1 2852   1.316   2.594   2.850 -1.3233 -3.5768  1.4434
  951SOL    HW2 2853   1.283   2.703   2.715 -0.1845 -0.5787  1.7323
  952SOL     OW 2854   0.034   1.631   0.412 -0.2197 -0.6108  0.5226
  952SOL    HW1 2855   0.095   1.707   0.445  1.5440 -3.0024  0.1335
  952SOL    HW2 2856   0.033   1.558   0.481  4.7753  2.2561 -0.6301
  953SOL     OW 2857   2.484   1.726   0.309  0.5481  0.3986 -0.2680
  953SOL    HW1 2858   2.484   1.620   0.320 -1.9662 -1.7459  0.4932
  953SOL    HW2 2859   2.444   1.753   0.221 -1.3221  0.2971  1.8233
  954SOL     OW 2860   2.208   0.516   0.930  0.0700  0.2456 -0.1509
  954SOL    HW1 2861   2.211   0.521   0.830 -1.0122 -0.5574  0.9487
  954SOL    HW2 2862   2.297   0.520   0.983 -0.5858 -1.5207  3.6067
  955SOL     OW 2863   0.181   2.607   1.382  0.2421 -0.4685  0.0266
  955SOL    HW1 2864   0.083   2.640   1.382  1.6370  1.7442  0.7159
  955SOL    HW2 2865   0.250   2.680   1.372 -1.7578 -2.0710 -0.5357
  956SOL     OW 2866   2.791   2.507   2.537 -0.1199  0.3906 -0.5014
  956SOL    HW1 2867   2.830   2.408   2.530  1.5140  0.6020 -1.6426
  956SOL    HW2 2868   2.827   2.569   2.463  1.7372 -1.0839 -0.6150
  957SOL     OW 2869   1.632   2.060   2.733 -0.3535  0.3706 -0.2213
  957SOL    HW1 2870   1.603   1.968   2.768 -2.4504  0.9880  1.7087
  957SOL    HW2 2871   1.638   2.060   2.626  3.2334 -0.2750  1.7461
  958SOL     OW 2872   2.606   2.266   3.037  0.1037  0.5196  0.2468
  958SOL    HW1 2873   2.512   2.302   3.032  0.6445 -0.5227 -2.7274
  958SOL    HW2 2874   2.614   2.204   3.125 -0.5570 -3.1069  0.9150
  959SOL     OW 2875   0.389   2.811   0.127  0.2906  0.2631  0.2014
  959SOL    HW1 2876   0.312   2.848   0.183  1.7610 -0.9842 -0.9409
  959SOL    HW2 2877   0.398   2.704   0.134 -0.7890 -2.3583  1.7314
  960SOL     OW 2878   1.910   0.518   1.927 -0.3964  0.0361  0.2361
  960SOL    HW1 2879   1.852   0.592   1.888 -0.4239 -2.0990  2.3306
  960SOL    HW2 2880   1.910   0.519   2.033  0.6037 -2.1200  1.7872
  961SOL     OW 2881   2.506   1.898   1.064  0.2095  0.0628  0.0342
  961SOL    HW1 2882   2.520   1.997   1.031  1.1112  1.5924  2.2732
  961SOL    HW2 2883   2.494   1.883   1.164 -1.9173 -1.1454 -0.9764
  962SOL     OW 2884   1.318   0.915   0.040 -0.4158 -0.1279  0.0122
  962SOL    HW1 2885   1.283   0.942  -0.055 -0.1212 -0.5130 -0.0865
  962SOL    HW2 2886   1.284   0.977   0.110 -2.0808 -1.2328  1.2947
  963SOL     OW 2887   2.314   2.581   1.826  0.5881  0.2345  0.0975
  963SOL    HW1 2888   2.282   2.481   1.838  1.9207 -0.4738 -1.1428
  963SOL    HW2 2889   2.337   2.621   1.916 -0.4780  0.2338 -0.0281
  964SOL     OW 2890   2.361   0.413   1.670  0.9466  0.6858 -0.2406
  964SOL    HW1 2891   2.453   0.408   1.708 -1.6155  0.2893 -1.4567
  964SOL    HW2 2892   2.361   0.399   1.567  0.4431 -0.7139  2.2964
  965SOL     OW 2893   2.637   3.005   0.204 -0.0856  0.1564 -1.0780
  965SOL    HW1 2894   2.696   2.975   0.124  1.8953  1.2153  1.0350
  965SOL    HW2 2895   2.549   3.051   0.177  0.6402 -0.1266 -1.3086
  966SOL     OW 2896   2.481   2.491   2.242 -0.8352  0.2606  0.0846
  966SOL    HW1 2897   2.510   2.585   2.204 -0.2177  1.2386  0.2512
  966SOL    HW2 2898   2.379   2.476   2.237  1.6955  0.4582 -0.6179
  967SOL     OW 2899   2.745   2.825   2.480  0.0587 -0.0497 -0.6163
  967SOL    HW1 2900   2.791   2.735   2.454  3.5524 -1.3121  1.2935
  967SOL    HW2 2901   2.814   2.905   2.493 -1.3287  3.5190 -1.4440
  968SOL     OW 2902   1.972   1.057   2.580  0.4491 -0.2930  0.0191
  968SOL    HW1 2903   1.895   1.125   2.566 -2.3614 -1.8836 -0.9976
  968SOL    HW2 2904   1.967   0.975   2.519 -1.5024 -0.1996 -1.4214
  969SOL     OW 2905   2.735   2.566   1.051  1.0876 -0.5968 -0.1588
  969SOL    HW1 2906   2.729   2.663   1.008  2.4898 -0.9738 -1.9808
  969SOL    HW2 2907   2.747   2.496   0.977 -1.5284 -0.7286 -0.0005
  970SOL     OW 2908   1.072   2.112   1.857  0.1306  0.1172 -0.1283
  970SOL    HW1 2909   1.058   2.045   1.933 -1.3182  1.4061 -0.6291
  970SOL    HW2 2910   1.046   2.068   1.766 -0.9122  0.3975 -1.7693
  971SOL     OW 2911   2.915   2.183   1.953 -0.3661 -0.2401 -0.3412
  971SOL    HW1 2912   2.945   2.267   2.006  0.1785  0.0568 -0.9259
  971SOL    HW2 2913   2.936   2.192   1.851 -2.1753  1.0317  0.7609
  972SOL     OW 2914   1.884   2.446   0.250  0.0857  0.4036 -0.1728
  972SOL    HW1 2915   1.923   2.349   0.232  2.3622 -3.5438 -1.4402
  972SOL    HW2 2916   1.875   2.453   0.353  0.5585 -1.0187 -2.8286
  973SOL     OW 2917   1.147   0.908   1.885  0.1390  0.2820 -0.1637
  973SOL    HW1 2918   1.093   0.823   1.903  2.1600  1.4522  2.9252
  973SOL    HW2 2919   1.087   0.977   1.831  1.2915  1.7731 -1.2035
  974SOL     OW 2920   1.582   0.560   1.969  0.3606  0.6598 -0.0397
  974SOL    HW1 2921   1.658   0.621   1.934 -1.1337  2.9902 -0.8062
  974SOL    HW2 2922   1.498   0.572   1.912  1.8560 -1.0856 -1.5074
  975SOL     OW 2923   2.361   3.020   0.038  0.1239  0.0901 -0.2668
  975SOL    HW1 2924   2.314   2.938   0.080 -0.4157  1.7373  1.7186
  975SOL    HW2 2925   2.415   2.994  -0.048 -0.9361  1.0039  1.5200
  976SOL     OW 2926   1.914   2.725   2.328 -0.2740 -0.5156  0.7963
  976SOL    HW1 2927   1.826   2.693   2.372 -0.0451 -0.7192 -0.0184
  976SOL    HW2 2928   1.982   2.755   2.397  2.3290  0.3727 -1.5299
  977SOL     OW 2929   0.484   0.688   0.982 -0.5608 -0.1041  0.4793
  977SOL    HW1 2930   0.416   0.685   0.906 -1.4841  1.3956 -0.1363
  977SOL    HW2 2931   0.547   0.773   0.976  1.7130  1.6944  0.8756
   3.10000   3.10000   3.10000
