1000 SPC/Fw water molecules t=   0.35000 step= 350
 2931
    1SOL     OW    1   2.536   0.310   2.543  0.0997  0.1288  0.2045
    1SOL    HW1    2   2.549   0.210   2.542 -1.3894  0.8613  1.6339
    1SOL    HW2    3   2.575   0.355   2.629 -1.7766 -1.6312  0.4488
    2SOL     OW    4   2.711   3.020   1.393 -0.5849  0.0311  0.5706
    2SOL    HW1    5   2.790   3.060   1.339  2.0328  1.0977  0.0779
    2SOL    HW2    6   2.656   3.084   1.447 -1.6991 -2.6271  1.7360
    3SOL     OW    7   2.706   2.581   0.418  0.5820 -0.0646 -0.2407
    3SOL    HW1    8   2.703   2.479   0.400 -0.8740 -0.1640 -1.4006
    3SOL    HW2    9   2.778   2.607   0.485  0.4960  2.8469 -1.1158
    4SOL     OW   10   1.341   1.483   2.382  0.0029 -0.3417 -0.0708
    4SOL    HW1   11   1.240   1.495   2.382  2.3479 -2.5711 -0.9039
    4SOL    HW2   12   1.368   1.405   2.441 -0.4186 -1.3490 -0.9131
    5SOL     OW   13   1.213   1.491   3.015 -0.3255 -0.0866 -0.0833
    5SOL    HW1   14   1.276   1.558   3.067 -0.9433  1.3745  0.9469
    5SOL    HW2   15   1.115   1.525   3.013  1.6615  0.4217  0.1871
    6SOL     OW   16   0.011   1.799   2.897  0.0167 -0.4226 -0.3299
    6SOL    HW1   17  -0.037   1.852   2.973 -1.4104  0.9313 -1.2266
    6SOL    HW2   18   0.013   1.698   2.922  0.0286 -3.4309 -1.7276
    7SOL     OW   19   2.558   0.884   1.143 -0.1750  0.1745 -0.2772
    7SOL    HW1   20   2.463   0.863   1.188 -2.4786 -2.5136  2.1143
    7SOL    HW2   21   2.545   0.905   1.044 -1.3648 -0.8134 -0.3301
    8SOL     OW   22   0.429   0.633   1.559 -0.6196 -0.0873 -0.4698
    8SOL    HW1   23   0.515   0.573   1.565 -1.0167 -2.6321  0.6272
    8SOL    HW2   24   0.371   0.617   1.470 -1.1837 -1.1437 -0.5540
    9SOL     OW   25   1.177   0.971   2.274 -0.1376  0.2413 -0.3448
    9SOL    HW1   26   1.227   1.060   2.247  0.9007 -1.1296  0.8292
    9SOL    HW2   27   1.108   0.941   2.208 -3.4628 -0.4413 -0.4254
   10SOL     OW   28   0.744   1.318   1.236  0.6982  0.7600  0.1184
   10SOL    HW1   29   0.640   1.342   1.228 -3.7412 -1.0327  2.3959
   10SOL    HW2   30   0.795   1.406   1.223 -2.3528 -0.4758  0.2380
   11SOL     OW   31   2.345   2.623   0.945 -0.3337  0.6706  0.2689
   11SOL    HW1   32   2.324   2.649   1.039  0.9909  0.4963 -2.2123
   11SOL    HW2   33   2.449   2.614   0.938  1.4431  0.4087 -0.3587
   12SOL     OW   34   1.447   0.903   0.424 -0.0614  0.4652 -0.2351
   12SOL    HW1   35   1.438   0.933   0.326 -0.6221  1.5691 -0.5946
   12SOL    HW2   36   1.404   0.811   0.446 -0.4084  1.9292  1.6233
   13SOL     OW   37   2.517   0.659   1.840 -0.0239  0.1817  0.4552
   13SOL    HW1   38   2.418   0.658   1.866 -0.7100  0.6241 -0.4697
   13SOL    HW2   39   2.550   0.573   1.796  0.4504  2.4332 -1.0847
   14SOL     OW   40   1.934   0.015   0.634  0.1118  0.5575  0.3578
   14SOL    HW1   41   1.860   0.083   0.597 -1.9363  0.2727  0.5598
   14SOL    HW2   42   1.901  -0.048   0.710 -1.2449 -0.5471  1.3080
   15SOL     OW   43   1.965   2.010   2.861 -0.2472 -0.1480 -0.2231
   15SOL    HW1   44   1.938   2.103   2.902 -0.5913  1.2482 -0.3639
   15SOL    HW2   45   1.923   1.988   2.769 -1.1122  0.1621  0.8588
   16SOL     OW   46   1.627   1.728   0.008 -0.3897  0.5530 -0.6698
   16SOL    HW1   47   1.653   1.631   0.031 -0.4599  1.0584 -0.7516
   16SOL    HW2   48   1.703   1.795   0.022 -1.4227  0.4885  2.0631
   17SOL     OW   49   0.118   0.447   0.168 -0.6477  0.8273  0.4855
   17SOL    HW1   50   0.206   0.501   0.168 -0.8770 -0.4166 -1.0175
   17SOL    HW2   51   0.056   0.463   0.087 -0.4314  0.6646  0.7729
   18SOL     OW   52   0.981   2.907   2.204 -0.5860  0.0169 -0.5284
   18SOL    HW1   53   0.909   2.852   2.161  1.5265 -1.2798  1.1840
   18SOL    HW2   54   1.072   2.913   2.145  1.4742 -1.8330 -0.0241
   19SOL     OW   55   0.491   0.906   1.961  0.5505 -0.8623  0.2021
   19SOL    HW1   56   0.454   0.946   2.051  1.9076 -3.5010  0.7870
   19SOL    HW2   57   0.593   0.902   1.960 -1.7074  1.3253 -0.3006
   20SOL     OW   58   0.213   2.795   0.841 -0.1251  0.3583 -1.3265
   20SOL    HW1   59   0.125   2.829   0.789 -1.2713  0.2833 -2.9008
   20SOL    HW2   60   0.299   2.812   0.783  1.1920  2.0307  2.0539
   21SOL     OW   61   2.759   0.200   2.141 -0.1463  0.4054  0.2587
   21SOL    HW1   62   2.749   0.122   2.075 -2.1356  1.9977  0.3803
   21SOL    HW2   63   2.781   0.168   2.237  0.2838  1.0251 -2.2193
   22SOL     OW   64   2.312   0.193   3.090 -0.5297  0.5113  0.5545
   22SOL    HW1   65   2.331   0.095   3.071  0.4192  1.5768 -0.1449
   22SOL    HW2   66   2.210   0.215   3.101  0.6023  1.3477 -0.6445
   23SOL     OW   67   2.798   0.663   0.658  0.4267 -0.2457  0.0790
   23SOL    HW1   68   2.834   0.589   0.599  1.4693 -1.0304  1.9108
   23SOL    HW2   69   2.770   0.744   0.596 -0.1267 -0.2722  0.3164
   24SOL     OW   70   0.177   1.899   0.449 -0.4910 -0.1773  0.2172
   24SOL    HW1   71   0.082   1.894   0.404 -1.2701 -0.2834 -1.4835
   24SOL    HW2   72   0.243   1.897   0.367  0.2297  1.1829 -1.5219
   25SOL     OW   73   2.252   0.476   0.186  0.0473 -0.3889 -0.0109
   25SOL    HW1   74   2.293   0.382   0.217  0.2798 -0.1628  1.8286
   25SOL    HW2   75   2.244   0.481   0.084 -0.1623  3.7300  1.6555
   26SOL     OW   76   2.496   2.195   2.103 -0.0705  0.1082 -0.2761
   26SOL    HW1   77   2.563   2.247   2.158 -1.1920 -1.0221 -0.2757
   26SOL    HW2   78   2.534   2.107   2.058 -1.4839 -2.0434  0.0645
   27SOL     OW   79   0.681   2.941   0.099 -0.0887  0.0797  0.2350
   27SOL    HW1   80   0.764   3.001   0.102 -0.3578 -0.4236 -1.2092
   27SOL    HW2   81   0.632   2.956   0.009 -0.5450  0.3153  1.3201
   28SOL     OW   82   1.574   0.156   0.281 -0.2510 -0.0087 -0.1941
   28SOL    HW1   83   1.633   0.132   0.201 -0.7623 -1.0482  0.4053
   28SOL    HW2   84   1.595   0.256   0.316 -0.2981  1.6962  0.0674
   29SOL     OW   85   2.045   0.599   0.313  0.3927 -0.3046  0.7044
   29SOL    HW1   86   2.042   0.691   0.352  1.4551  1.6564  1.0294
   29SOL    HW2   87   2.138   0.571   0.275 -1.6663  0.8016  0.5098
   30SOL     OW   88   0.129   2.027   0.944 -0.1521 -0.3191 -0.5044
   30SOL    HW1   89   0.119   2.021   0.839  2.1000 -2.5939  0.1692
   30SOL    HW2   90   0.062   2.095   0.988 -0.7029 -1.5897  3.6922
   31SOL     OW   91   2.117   0.007   2.297 -0.1879 -0.5282  0.5659
   31SOL    HW1   92   2.106  -0.010   2.397 -0.8790  1.9976  1.3226
   31SOL    HW2   93   2.036  -0.031   2.244 -0.8838  2.2428 -1.2668
   32SOL     OW   94   2.895   0.161   0.139 -0.0939  0.5781  0.1822
   32SOL    HW1   95   2.866   0.079   0.201  0.6877  2.6675  0.5144
   32SOL    HW2   96   2.991   0.188   0.152 -0.8598  0.7437  1.9796
   33SOL     OW   97   0.958   0.314   0.471  0.0143  0.3685  0.4220
   33SOL    HW1   98   0.904   0.223   0.461 -2.9415 -1.7530  1.7376
   33SOL    HW2   99   1.030   0.305   0.539 -3.1442 -2.2723 -1.3834
   34SOL     OW  100   0.422   2.867   1.072 -0.5393 -0.4180  0.5099
   34SOL    HW1  101   0.353   2.831   1.005  1.3344 -2.1163 -1.0891
   34SOL    HW2  102   0.521   2.853   1.048 -0.5142 -0.5115  0.0430
   35SOL     OW  103   0.052   0.049   1.850 -0.0704  0.0737 -0.0644
   35SOL    HW1  104   0.054  -0.043   1.891  0.8907  1.7541  0.6128
   35SOL    HW2  105  -0.004   0.060   1.765 -0.0465 -0.0973  0.4015
   36SOL     OW  106   1.937   1.147   1.803  0.0348 -0.4944 -0.1452
   36SOL    HW1  107   2.012   1.115   1.743 -3.7026 -1.0727  0.5693
   36SOL    HW2  108   1.953   1.231   1.858 -0.0854 -0.4316 -0.5227
   37SOL     OW  109   1.187   0.249   0.936  0.6991  0.0223  0.2890
   37SOL    HW1  110   1.244   0.328   0.971  0.5424 -0.7030  0.8622
   37SOL    HW2  111   1.181   0.170   1.008 -1.8454 -2.2261 -0.2026
   38SOL     OW  112   1.092   2.681   2.409 -0.8141  0.3898  0.2531
   38SOL    HW1  113   1.065   2.582   2.441  1.0044 -0.6303  0.3815
   38SOL    HW2  114   1.012   2.740   2.392 -1.1393  0.8193 -2.6994
   39SOL     OW  115   2.308   1.409   3.011 -0.1695 -0.4215  0.0545
   39SOL    HW1  116   2.399   1.358   3.004 -2.7093  1.5219 -0.4234
   39SOL    HW2  117   2.261   1.388   3.103  0.6319 -0.6861  0.0609
   40SOL     OW  118   2.118   2.539   2.506 -0.7262  0.0228 -0.0860
   40SOL    HW1  119   2.093   2.628   2.554  0.4852 -3.0568  0.6289
   40SOL    HW2  120   2.045   2.489   2.449  3.4985 -1.7835  0.7591
   41SOL     OW  121   2.920   0.705   2.745 -0.1460 -0.5118  0.0992
   41SOL    HW1  122   2.822   0.733   2.782 -0.0478 -0.1144  4.4465
   41SOL    HW2  123   2.931   0.601   2.723 -1.1995 -0.6141  1.2315
   42SOL     OW  124   1.782   1.743   0.602 -0.2965  0.3151 -1.0178
   42SOL    HW1  125   1.734   1.653   0.579  0.9847 -1.6262 -0.1121
   42SOL    HW2  126   1.826   1.787   0.519  0.0092  1.8011  3.1811
   43SOL     OW  127   0.446   1.755   1.242  0.0367  1.1629 -0.9183
   43SOL    HW1  128   0.416   1.706   1.329 -1.6194  0.0302  0.2229
   43SOL    HW2  129   0.365   1.787   1.188  0.8456 -1.8397 -2.1165
   44SOL     OW  130   1.769   2.561   0.016  0.3942  0.1990  0.2949
   44SOL    HW1  131   1.802   2.617  -0.067 -0.0449 -2.5504 -2.0218
   44SOL    HW2  132   1.843   2.542   0.091  0.7751 -1.5027 -1.8949
   45SOL     OW  133   0.292   1.936   2.580 -0.3380 -0.3487  0.4176
   45SOL    HW1  134   0.239   1.930   2.490 -0.3496 -0.2725 -0.1516
   45SOL    HW2  135   0.365   1.863   2.591 -0.3239 -0.5527  2.8458
   46SOL     OW  136   1.149   0.637   0.228  0.0161 -0.1459  0.4860
   46SOL    HW1  137   1.208   0.721   0.210 -0.1696  0.4481  0.0156
   46SOL    HW2  138   1.045   0.649   0.223 -0.0430  2.1999 -0.2981
   47SOL     OW  139   0.239   2.455   1.600 -0.5257 -0.3021 -0.1764
   47SOL    HW1  140   0.307   2.381   1.601 -1.4965  1.5438  0.0149
   47SOL    HW2  141   0.196   2.471   1.501 -0.5111  0.5797 -4.2150
   48SOL     OW  142   2.565   0.584   0.171  0.4098  0.3019 -0.1197
   48SOL    HW1  143   2.539   0.580   0.272 -1.5069 -2.4640  2.3833
   48SOL    HW2  144   2.654   0.617   0.143 -3.0123  0.2480 -1.0260
   49SOL     OW  145   0.341   0.818   1.748  0.1085 -0.5498 -0.0046
   49SOL    HW1  146   0.392   0.829   1.837  2.7762  1.8432 -0.8404
   49SOL    HW2  147   0.389   0.746   1.688  1.2769 -0.5483  0.6313
   50SOL     OW  148   1.711   1.079   0.385 -0.0451  0.2301  0.0587
   50SOL    HW1  149   1.706   0.973   0.364 -1.5204 -0.0171 -0.2461
   50SOL    HW2  150   1.634   1.114   0.444  3.0731  0.1142 -0.6879
   51SOL     OW  151   3.015   1.891   0.364 -0.3822 -0.3380 -0.3411
   51SOL    HW1  152   3.040   1.895   0.266 -0.9115  1.2318 -0.0805
   51SOL    HW2  153   2.953   1.811   0.378  0.8671 -0.1321 -0.7295
   52SOL     OW  154   0.779   1.980   0.520  0.9756 -0.4935 -1.1453
   52SOL    HW1  155   0.702   2.016   0.580 -0.5009 -0.7467  0.2449
   52SOL    HW2  156   0.823   1.897   0.566 -0.1396  1.2557 -2.2197
   53SOL     OW  157   0.019   0.360   1.553 -0.0506 -0.3758  0.4140
   53SOL    HW1  158  -0.072   0.332   1.587  0.5926  1.3362 -1.7277
   53SOL    HW2  159   0.013   0.452   1.497 -0.1542 -0.8908  0.1398
   54SOL     OW  160   1.754   0.459   3.050  0.0158  0.3504 -0.0345
   54SOL    HW1  161   1.813   0.415   3.118 -0.3919  1.3875 -0.5844
   54SOL    HW2  162   1.656   0.469   3.076  2.8887  2.6076 -0.5243
   55SOL     OW  163   0.710   2.964   0.588  0.4071  0.3800 -0.7275
   55SOL    HW1  164   0.660   3.054   0.596 -1.5852  1.3342  1.4524
   55SOL    HW2  165   0.803   2.981   0.551 -1.0347 -2.3776 -0.5783
   56SOL     OW  166   0.462   1.559   3.012 -0.0344  0.4732 -0.2661
   56SOL    HW1  167   0.435   1.614   3.099  2.0738  1.1976 -2.1461
   56SOL    HW2  168   0.389   1.492   2.986 -1.0421 -1.7893  0.3770
   57SOL     OW  169   1.793   2.414   2.673  0.0483  0.2462  0.1105
   57SOL    HW1  170   1.843   2.407   2.583  2.4940  0.1020  0.2126
   57SOL    HW2  171   1.700   2.458   2.660  1.1086  2.3352  1.9768
   58SOL     OW  172   0.623   0.433   1.129  0.3031 -0.7186  0.1852
   58SOL    HW1  173   0.560   0.518   1.108 -0.8228  4.2769 -2.4605
   58SOL    HW2  174   0.574   0.339   1.144 -0.3554 -2.4892  0.0183
   59SOL     OW  175   0.441   2.407   2.706 -0.4227  0.1593  0.5756
   59SOL    HW1  176   0.466   2.307   2.683 -0.7506  1.6381  1.2374
   59SOL    HW2  177   0.513   2.448   2.764 -1.8573 -1.0271  0.9550
   60SOL     OW  178   2.296   2.125   2.285 -0.3099 -0.6754  0.1259
   60SOL    HW1  179   2.363   2.162   2.215 -0.7506  0.1182  0.1976
   60SOL    HW2  180   2.307   2.163   2.383 -1.0704  1.5657 -1.1244
   61SOL     OW  181   1.411   0.635   0.493 -0.5713 -0.2048  0.8653
   61SOL    HW1  182   1.314   0.666   0.500  0.4363  0.2626  0.2463
   61SOL    HW2  183   1.431   0.610   0.397  0.4814  3.7165  1.6385
   62SOL     OW  184   2.636   1.830   3.063  0.0878 -0.5854 -0.6100
   62SOL    HW1  185   2.611   1.730   3.076 -0.3832 -1.5607 -1.4899
   62SOL    HW2  186   2.713   1.829   2.989  0.4100 -0.8826  0.0839
   63SOL     OW  187   0.511   0.853   0.159  0.2872  0.3666 -0.0021
   63SOL    HW1  188   0.505   0.955   0.136 -1.1430  0.7986 -0.7716
   63SOL    HW2  189   0.564   0.834   0.246 -1.8914 -1.4742  2.0874
   64SOL     OW  190   0.103   0.473   2.516  0.0874  0.6985  0.4934
   64SOL    HW1  191   0.165   0.535   2.579 -3.0830  0.9586  1.6822
   64SOL    HW2  192   0.095   0.507   2.413  1.1452 -1.4479 -2.9481
   65SOL     OW  193   0.201   1.477   0.646 -0.5760  0.0592 -0.6495
   65SOL    HW1  194   0.248   1.563   0.681 -1.5116  2.3238  0.3339
   65SOL    HW2  195   0.265   1.433   0.581 -1.3767  0.7110 -0.0955
   66SOL     OW  196   2.514   0.410   0.661 -0.0068  0.1289 -0.0800
   66SOL    HW1  197   2.487   0.484   0.724  0.2741 -1.0157 -0.2868
   66SOL    HW2  198   2.494   0.311   0.703  1.7523 -0.8153  1.1009
   67SOL     OW  199   0.497   2.510   1.368 -0.5216  0.1475  0.5124
   67SOL    HW1  200   0.553   2.558   1.444  2.5260 -0.5240  1.5360
   67SOL    HW2  201   0.503   2.408   1.368 -0.2241 -0.5421  0.9295
   68SOL     OW  202   1.040   1.102   2.474  0.4414 -0.2157  0.1789
   68SOL    HW1  203   1.083   1.014   2.438 -0.0820 -1.1425 -1.5231
   68SOL    HW2  204   0.966   1.147   2.417  1.7679  1.7235 -0.3804
   69SOL     OW  205   0.762   2.719   2.124 -0.3688  0.5928  0.2574
   69SOL    HW1  206   0.820   2.639   2.159 -0.2330 -1.3020  1.1383
   69SOL    HW2  207   0.669   2.707   2.149  1.7993  1.7462 -0.8571
   70SOL     OW  208   0.649   0.265   2.746  0.3989  0.1185  0.3938
   70SOL    HW1  209   0.670   0.332   2.818 -0.3181 -0.5229 -1.0009
   70SOL    HW2  210   0.594   0.183   2.774  2.3958 -0.3578  0.2057
   71SOL     OW  211   1.130   1.796   0.342  0.3094  0.0404  0.0694
   71SOL    HW1  212   1.067   1.714   0.368 -2.4898  1.6099 -0.8675
   71SOL    HW2  213   1.135   1.819   0.243  0.6795 -1.1384 -0.2919
   72SOL     OW  214   1.817   0.142   2.104  0.2325  0.2301 -0.8676
   72SOL    HW1  215   1.873   0.174   2.022  0.4857  1.9181 -0.1001
   72SOL    HW2  216   1.840   0.043   2.130 -1.6785  2.4027 -1.2859
   73SOL     OW  217   2.756   2.214   2.510 -0.3110  0.3751  0.0601
   73SOL    HW1  218   2.756   2.125   2.472 -0.3994  1.2308  1.2315
   73SOL    HW2  219   2.779   2.215   2.613 -2.5402 -1.5976  2.0253
   74SOL     OW  220   2.744   2.962   2.033 -0.1819 -0.3975 -0.3966
   74SOL    HW1  221   2.661   2.965   2.103 -1.0438 -1.3095  0.0654
   74SOL    HW2  222   2.837   2.976   2.078 -0.5698 -0.2772 -0.8827
   75SOL     OW  223   0.906   0.740   1.028  0.2833 -0.0676  0.0739
   75SOL    HW1  224   0.819   0.799   1.000 -3.7418  1.6373  0.6122
   75SOL    HW2  225   0.954   0.776   1.112  0.5362 -0.5723  0.0518
   76SOL     OW  226   1.741   1.246   2.592  0.0932  0.2865  0.0705
   76SOL    HW1  227   1.645   1.208   2.613  0.4061 -1.6291  1.1603
   76SOL    HW2  228   1.749   1.344   2.619 -0.8724 -4.2366  0.9851
   77SOL     OW  229   2.927   0.990   0.965  0.2103 -0.0093  0.7660
   77SOL    HW1  230   2.901   0.892   0.961 -0.8915  2.4475  1.1986
   77SOL    HW2  231   2.977   1.014   1.052 -1.4146 -5.1423  1.7268
   78SOL     OW  232   1.961   1.411   1.523  0.3631  0.3095 -0.0069
   78SOL    HW1  233   2.050   1.375   1.490  0.6300 -0.6107 -0.0626
   78SOL    HW2  234   1.890   1.397   1.452 -1.7151 -1.4895  0.0203
   79SOL     OW  235   0.587   1.351   0.815  0.0825  0.2573 -0.0163
   79SOL    HW1  236   0.503   1.410   0.838  1.3186  0.4543  0.7352
   79SOL    HW2  237   0.591   1.320   0.716 -0.9847  0.1248  0.8491
   80SOL     OW  238   0.660   0.496   1.589 -0.3310  0.2792  0.2074
   80SOL    HW1  239   0.713   0.558   1.523 -2.0274  0.4565 -1.3730
   80SOL    HW2  240   0.685   0.393   1.578  0.3372  0.1757  0.4185
   81SOL     OW  241   0.993   1.367   2.621 -0.4563 -0.0685 -0.3286
   81SOL    HW1  242   0.998   1.270   2.637  2.3930  0.5387 -1.5298
   81SOL    HW2  243   0.960   1.388   2.524  0.1349 -1.8527  0.5719
   82SOL     OW  244   0.957   2.969   1.546  0.1724 -0.4349  0.0650
   82SOL    HW1  245   1.030   2.964   1.476 -1.7665 -0.1750 -0.2408
   82SOL    HW2  246   0.878   2.907   1.528  1.1325  3.0550  1.8025
   83SOL     OW  247   2.728   2.488   0.788 -0.6469 -0.5115 -0.2336
   83SOL    HW1  248   2.665   2.406   0.762 -4.5211  0.7787 -2.5919
   83SOL    HW2  249   2.692   2.575   0.751 -0.0385  0.2190  0.2627
   84SOL     OW  250   0.689   3.099   2.411 -0.5540 -0.4399 -0.4152
   84SOL    HW1  251   0.596   3.087   2.456 -0.4350  1.7353 -0.0837
   84SOL    HW2  252   0.736   3.003   2.404  0.0960 -2.9929  2.4787
   85SOL     OW  253   0.428   1.683   1.515  0.3844 -0.1346  0.4703
   85SOL    HW1  254   0.375   1.772   1.515  1.6227  1.6161  0.8832
   85SOL    HW2  255   0.417   1.635   1.605  2.3220 -1.1189  0.0947
   86SOL     OW  256   0.360   0.989   1.493  0.1546  0.0660  0.3573
   86SOL    HW1  257   0.348   0.933   1.407 -1.1295  0.0796 -0.2119
   86SOL    HW2  258   0.409   0.939   1.570  0.2526 -0.0325  2.0346
   87SOL     OW  259   1.523   0.623   0.243 -0.2912  0.3196 -0.2184
   87SOL    HW1  260   1.598   0.698   0.238  0.9663  1.1533 -2.2888
   87SOL    HW2  261   1.483   0.600   0.151  1.8378  0.3795 -1.0873
   88SOL     OW  262   1.560   1.290   0.196  0.1918  0.6572 -0.4641
   88SOL    HW1  263   1.603   1.214   0.256  0.0029  0.1958 -0.4554
   88SOL    HW2  264   1.457   1.297   0.223 -1.3900  1.2670  1.0581
   89SOL     OW  265   3.061   0.437   0.564  0.9568 -0.0545 -0.2120
   89SOL    HW1  266   3.131   0.357   0.576  1.1770 -0.9675 -1.4143
   89SOL    HW2  267   2.967   0.400   0.580 -0.8400  0.2820 -2.7338
   90SOL     OW  268   0.952   1.649   3.012 -0.3004 -0.4625 -0.1626
   90SOL    HW1  269   0.873   1.628   3.076  3.2079  1.3619  0.9583
   90SOL    HW2  270   0.926   1.653   2.911  0.4993 -1.6718 -0.3100
   91SOL     OW  271   1.277   1.480   1.788 -0.4964  0.2029 -0.0080
   91SOL    HW1  272   1.289   1.567   1.849 -0.9457 -0.1055  1.3234
   91SOL    HW2  273   1.368   1.435   1.770 -0.3413 -0.1963  3.4484
   92SOL     OW  274   3.083   1.057   1.211 -0.9160 -0.1798  0.2183
   92SOL    HW1  275   3.151   1.106   1.148 -0.5574  0.0214 -1.5880
   92SOL    HW2  276   3.109   1.042   1.309 -1.5671 -1.0533 -0.1329
   93SOL     OW  277   0.008   2.750   0.067  0.1629 -1.1857 -0.4952
   93SOL    HW1  278  -0.008   2.765  -0.036 -0.9088 -0.4952  0.4356
   93SOL    HW2  279   0.050   2.657   0.101 -1.8090  0.0441  1.7997
   94SOL     OW  280   1.526   1.373   1.683  0.3490  0.5588  0.1105
   94SOL    HW1  281   1.547   1.273   1.695  1.6472  2.4570 -0.8490
   94SOL    HW2  282   1.606   1.435   1.707  0.4994  0.3738  2.0252
   95SOL     OW  283   1.310   2.473   2.946 -0.2274  0.1110  0.8887
   95SOL    HW1  284   1.257   2.459   3.033 -0.6595  1.2942 -1.9908
   95SOL    HW2  285   1.318   2.392   2.887 -0.5342  3.1411  0.9621
   96SOL     OW  286   0.546   1.990   1.209  0.6395 -0.4994 -0.3008
   96SOL    HW1  287   0.489   2.020   1.129  0.0125 -1.4172  1.3002
   96SOL    HW2  288   0.513   1.895   1.232  0.1883  1.4898 -0.5779
   97SOL     OW  289   0.381   1.486   2.527 -0.1759  0.4031  0.1333
   97SOL    HW1  290   0.281   1.484   2.544  0.3717  2.6066  0.9863
   97SOL    HW2  291   0.413   1.573   2.576 -0.0074  1.2218 -0.7344
   98SOL     OW  292   1.985   1.655   1.292 -0.3311 -0.3156 -0.3918
   98SOL    HW1  293   1.999   1.583   1.212 -1.9262 -2.3378 -0.9736
   98SOL    HW2  294   2.024   1.620   1.379 -0.5249 -1.4421 -2.9241
   99SOL     OW  295   2.503   2.141   1.362  0.4454 -0.3638  0.2053
   99SOL    HW1  296   2.508   2.199   1.447 -4.1357  1.7479  0.1848
   99SOL    HW2  297   2.466   2.047   1.380 -1.8006  0.4216  2.6496
  100SOL     OW  298   2.325   0.375   2.022 -0.3271  0.0325  0.1159
  100SOL    HW1  299   2.279   0.324   2.099 -0.7502  0.2703 -0.2802
  100SOL    HW2  300   2.421   0.388   2.045  1.2152  0.9926 -0.0801
  101SOL     OW  301   0.372   1.513   0.276 -0.0954  0.4327 -0.3492
  101SOL    HW1  302   0.422   1.562   0.348  0.9945 -1.0849 -2.4291
  101SOL    HW2  303   0.311   1.576   0.223 -1.7849 -1.0970  1.2408
  102SOL     OW  304   2.305   1.082   0.810 -0.1584 -0.0550  0.0437
  102SOL    HW1  305   2.237   1.014   0.765  0.1869 -2.3879 -0.2268
  102SOL    HW2  306   2.359   1.135   0.744  0.7572 -2.4532  0.2701
  103SOL     OW  307   2.305   0.038   0.406 -0.3643 -0.0163 -0.1671
  103SOL    HW1  308   2.359   0.112   0.364  2.2043 -1.2140 -0.3170
  103SOL    HW2  309   2.361  -0.009   0.482 -0.0355  1.1489  1.0447
  104SOL     OW  310   0.061   1.862   2.101 -0.2465 -0.1544  0.5563
  104SOL    HW1  311   0.091   1.792   2.025  1.9868 -1.5745 -1.2141
  104SOL    HW2  312  -0.033   1.861   2.140 -1.0371 -0.7482 -1.6623
  105SOL     OW  313   1.208   1.981   0.822  0.8181  0.2962 -0.4506
  105SOL    HW1  314   1.137   2.021   0.757  0.5146  0.0536 -0.4193
  105SOL    HW2  315   1.256   1.897   0.784  1.4086  0.7337  1.6211
  106SOL     OW  316   2.082   0.452   1.369  0.1869  0.5297  0.3113
  106SOL    HW1  317   2.055   0.368   1.428 -3.7266  2.1037 -0.1617
  106SOL    HW2  318   2.035   0.536   1.411  1.2711 -0.0891  1.2346
  107SOL     OW  319   1.802   3.019   1.062 -0.0572 -0.2383 -0.3265
  107SOL    HW1  320   1.872   3.068   1.123  0.6850 -2.6782  0.5315
  107SOL    HW2  321   1.746   2.954   1.120  0.4106 -1.9234  1.4414
  108SOL     OW  322   0.774   2.673   1.279  0.5604  1.3431  0.0700
  108SOL    HW1  323   0.757   2.748   1.346 -1.5643  0.6899  1.7173
  108SOL    HW2  324   0.870   2.640   1.284 -0.3316  1.7169  0.9713
  109SOL     OW  325   2.168   0.110   0.794  0.7365  0.0448  0.9002
  109SOL    HW1  326   2.081   0.064   0.762 -0.9564  0.4843  1.6827
  109SOL    HW2  327   2.184   0.110   0.895  0.5567 -0.7767  0.5036
  110SOL     OW  328   0.454   2.817   2.718  0.0270  0.1404 -0.9384
  110SOL    HW1  329   0.494   2.894   2.661  2.5546  2.2598 -0.7795
  110SOL    HW2  330   0.529   2.750   2.755  1.7850 -2.3415 -2.3569
  111SOL     OW  331   1.312   0.540   2.273 -0.4165  0.2152 -0.0753
  111SOL    HW1  332   1.225   0.585   2.319 -0.9823 -1.0560 -0.5056
  111SOL    HW2  333   1.357   0.468   2.335 -3.6368  0.4615  1.8816
  112SOL     OW  334   1.752   0.517   1.406 -0.0460 -0.1574  0.5587
  112SOL    HW1  335   1.742   0.513   1.302  1.5123  1.6396 -1.3990
  112SOL    HW2  336   1.727   0.432   1.458  0.5890 -0.1013 -0.8461
  113SOL     OW  337   2.329   1.615   1.715 -0.0604 -0.2961  0.2902
  113SOL    HW1  338   2.370   1.520   1.707  0.4227  1.0188  1.4743
  113SOL    HW2  339   2.327   1.659   1.812 -1.2530  0.2061  1.8195
  114SOL     OW  340   0.304   0.549   1.315 -0.1374 -0.0721  0.0062
  114SOL    HW1  341   0.327   0.644   1.281  3.4861 -0.1848  0.9276
  114SOL    HW2  342   0.259   0.487   1.243 -0.5308 -1.8407  0.2471
  115SOL     OW  343   2.614   1.589   1.218  0.2811 -0.2415 -0.0493
  115SOL    HW1  344   2.654   1.500   1.254 -0.5741 -0.5371 -0.3704
  115SOL    HW2  345   2.670   1.625   1.142 -0.4765 -0.6874  0.8678
  116SOL     OW  346   1.811   1.045   0.797 -0.1003 -0.6040  0.8427
  116SOL    HW1  347   1.743   0.990   0.749  0.9048  1.2689 -1.0940
  116SOL    HW2  348   1.785   1.144   0.798 -1.6653  0.4287 -0.2516
  117SOL     OW  349   1.117   0.349   0.697 -0.2430 -0.1360  0.4522
  117SOL    HW1  350   1.129   0.312   0.796 -0.4842 -0.1351  1.9139
  117SOL    HW2  351   1.108   0.450   0.689 -0.6688 -1.1523  1.3892
  118SOL     OW  352   1.114   1.096   1.149  0.3305  0.4953  0.1040
  118SOL    HW1  353   1.057   1.018   1.193  0.8187 -3.1553 -1.1048
  118SOL    HW2  354   1.121   1.176   1.213 -1.3276 -1.2138 -3.1232
  119SOL     OW  355   1.827   1.613   2.081 -0.1344 -0.0569  0.4255
  119SOL    HW1  356   1.798   1.707   2.118  1.8494  2.6682  0.9820
  119SOL    HW2  357   1.932   1.617   2.064 -2.9828  0.3926  1.3912
  120SOL     OW  358   2.980   2.815   0.300 -0.5404 -0.1465  0.3213
  120SOL    HW1  359   3.009   2.796   0.203  2.6982  0.3771  1.6911
  120SOL    HW2  360   2.973   2.721   0.352 -1.6374 -2.1322  0.9001
  121SOL     OW  361   2.001   0.713   2.202 -0.3812  0.4218  0.7351
  121SOL    HW1  362   2.027   0.761   2.114  1.1886 -0.7934  3.4872
  121SOL    HW2  363   1.989   0.611   2.191  0.6946 -1.0836 -0.2189
  122SOL     OW  364   2.724   2.594   1.333 -0.1178  0.1976 -0.5828
  122SOL    HW1  365   2.719   2.584   1.228  1.1409 -0.0044 -5.6658
  122SOL    HW2  366   2.725   2.503   1.381 -2.9993  1.5803 -2.8323
  123SOL     OW  367   1.724   0.053   1.725  0.2498 -0.0177 -0.1493
  123SOL    HW1  368   1.734  -0.020   1.650  0.4617 -1.0022  1.0152
  123SOL    HW2  369   1.820   0.088   1.754  3.2747 -0.7943  1.5461
  124SOL     OW  370   0.111   0.481   1.079 -0.4309  0.0872 -0.5812
  124SOL    HW1  371   0.078   0.568   1.128  1.2919 -0.6693 -0.2149
  124SOL    HW2  372   0.078   0.465   0.977  0.7496  0.2011  1.4732
  125SOL     OW  373   0.876   1.794   0.656  0.5607 -0.1023  0.4539
  125SOL    HW1  374   0.969   1.746   0.653  2.1185 -0.0374 -0.0807
  125SOL    HW2  375   0.856   1.833   0.752  0.0962 -1.1555 -0.9144
  126SOL     OW  376   1.914   2.386   2.399  0.2154 -0.5166  0.0978
  126SOL    HW1  377   1.982   2.332   2.342  0.0590  1.6825 -1.9573
  126SOL    HW2  378   1.825   2.333   2.410  0.8805 -0.0039 -0.5597
  127SOL     OW  379   0.779   0.958   0.211 -0.1675 -0.0650  0.5926
  127SOL    HW1  380   0.846   1.000   0.282 -1.8346  0.7272  1.3882
  127SOL    HW2  381   0.813   0.864   0.180  0.7029 -1.4797 -0.3830
  128SOL     OW  382   0.947   0.169   1.442 -0.2328 -0.3033 -0.5960
  128SOL    HW1  383   0.900   0.224   1.372 -1.0687 -0.0382  1.4430
  128SOL    HW2  384   0.940   0.067   1.433  0.7626 -0.4538 -3.2783
  129SOL     OW  385   1.880   0.679   1.859  0.5895 -0.2686 -0.5653
  129SOL    HW1  386   1.899   0.692   1.755  0.3762 -0.1842  1.0513
  129SOL    HW2  387   1.897   0.772   1.904 -0.8104  1.6849  2.7840
  130SOL     OW  388   1.322   2.118   1.009 -0.4382  0.7787  0.0592
  130SOL    HW1  389   1.287   2.049   0.939  1.3507 -1.5506 -0.5155
  130SOL    HW2  390   1.343   2.213   0.975 -1.0191 -1.2190  0.2598
  131SOL     OW  391   0.014   1.524   1.366  0.0531  0.2955 -0.4073
  131SOL    HW1  392  -0.036   1.435   1.348  2.0167  0.2736 -1.7937
  131SOL    HW2  393   0.116   1.508   1.375  1.0169 -0.7754  0.6613
  132SOL     OW  394   1.977   2.432   0.534  0.7271 -0.3702  0.3901
  132SOL    HW1  395   1.873   2.410   0.540  2.0690 -1.8154  0.8231
  132SOL    HW2  396   2.040   2.396   0.611  1.5528  2.6632  0.4989
  133SOL     OW  397   1.852   2.267   2.919  0.4413 -0.0446 -0.5158
  133SOL    HW1  398   1.828   2.320   3.006 -0.2679  0.3441 -0.1120
  133SOL    HW2  399   1.857   2.328   2.839 -0.5031  0.5014  2.6038
  134SOL     OW  400   2.716   2.362   1.618  0.5111 -0.1724  0.4665
  134SOL    HW1  401   2.648   2.350   1.699 -1.2797  1.5654 -0.1550
  134SOL    HW2  402   2.796   2.428   1.633 -0.6152  0.4219  0.6468
  135SOL     OW  403   0.730   1.529   2.602 -0.1384 -0.2131  0.3643
  135SOL    HW1  404   0.706   1.436   2.654  0.9640 -0.4383 -3.3416
  135SOL    HW2  405   0.796   1.503   2.523  1.0250 -3.8278 -2.1950
  136SOL     OW  406   1.204   2.022   0.470 -0.1475  0.1843 -0.2683
  136SOL    HW1  407   1.124   2.055   0.528  2.4522  0.8377  0.9550
  136SOL    HW2  408   1.184   1.935   0.413  0.9704 -0.7445 -1.2097
  137SOL     OW  409   0.406   1.068   2.173  0.2548  0.8154 -0.8581
  137SOL    HW1  410   0.311   1.069   2.224  0.5505  1.8478 -0.1120
  137SOL    HW2  411   0.483   1.028   2.230 -2.4705 -1.0300 -1.5070
  138SOL     OW  412   2.460   1.503   0.187  0.0394  0.0103 -0.4726
  138SOL    HW1  413   2.361   1.493   0.154  0.3779  1.7186  0.9488
  138SOL    HW2  414   2.484   1.425   0.252 -2.0513  0.1202 -1.4925
  139SOL     OW  415   1.800   2.637   1.197  0.0899  0.3912  0.4001
  139SOL    HW1  416   1.706   2.600   1.175 -1.2052  0.5737  0.3902
  139SOL    HW2  417   1.861   2.567   1.237  1.0864  2.4617 -2.9159
  140SOL     OW  418   2.996   2.958   2.476 -0.0783  0.4677  0.3050
  140SOL    HW1  419   3.033   2.864   2.495 -1.0963 -2.7376  0.8619
  140SOL    HW2  420   3.045   3.039   2.516  0.8513  0.1089 -1.2435
  141SOL     OW  421   1.228   1.658   1.562  0.3928  0.4825  1.0465
  141SOL    HW1  422   1.187   1.752   1.588  0.3352 -0.3483 -0.1090
  141SOL    HW2  423   1.219   1.589   1.643 -1.7747  0.2000 -0.1465
  142SOL     OW  424   1.575   0.618   2.244  1.0306  0.1460 -0.6020
  142SOL    HW1  425   1.606   0.599   2.147 -1.9946 -1.7260 -2.5647
  142SOL    HW2  426   1.467   0.612   2.252 -2.1868  0.6714 -0.8942
  143SOL     OW  427   2.720   0.888   0.510  0.2162 -0.2522 -0.1806
  143SOL    HW1  428   2.756   0.912   0.412  1.0419 -0.2730 -1.3983
  143SOL    HW2  429   2.750   0.947   0.591 -3.4228  1.3916  2.4693
  144SOL     OW  430   2.999   1.270   1.336 -0.6436 -0.2170  0.0233
  144SOL    HW1  431   2.971   1.229   1.427 -0.0722  0.8028  0.4142
  144SOL    HW2  432   3.035   1.196   1.271  1.9147  1.5459 -1.9511
  145SOL     OW  433   1.059   1.860   0.054 -0.4281 -0.1226  0.0792
  145SOL    HW1  434   1.034   1.937  -0.009 -0.2276 -1.0365 -0.9480
  145SOL    HW2  435   1.024   1.767   0.020 -1.3181 -1.6838 -0.2437
  146SOL     OW  436   2.490   0.636   1.512 -0.7491 -0.0330  0.2225
  146SOL    HW1  437   2.456   0.551   1.466  4.8939 -0.5022  2.9774
  146SOL    HW2  438   2.433   0.724   1.493 -2.1359  0.1910  1.5555
  147SOL     OW  439   1.041   2.517   0.601  0.4591 -0.4702  0.2193
  147SOL    HW1  440   1.005   2.561   0.507 -0.0544  0.0916 -2.2627
  147SOL    HW2  441   1.138   2.481   0.594  0.6170 -0.5661 -0.2417
  148SOL     OW  442   1.649   1.446   3.090 -0.8149  0.4100 -0.4353
  148SOL    HW1  443   1.676   1.383   3.013  0.6623 -2.0344 -0.8002
  148SOL    HW2  444   1.593   1.400   3.171  1.8285  0.8711  4.6355
  149SOL     OW  445   0.692   1.420   1.949  0.3534  0.2680 -0.2906
  149SOL    HW1  446   0.604   1.412   2.002  1.9616  0.2250 -1.2356
  149SOL    HW2  447   0.711   1.340   1.885 -0.3907 -0.0084  1.3482
  150SOL     OW  448   2.949   1.272   0.935 -0.0160 -0.2525 -0.8159
  150SOL    HW1  449   3.044   1.295   0.972 -0.9395  1.3294  1.8665
  150SOL    HW2  450   2.937   1.172   0.917  0.6873 -0.5277  0.3397
  151SOL     OW  451   0.200   0.773   2.161 -0.1642 -0.1356  0.1438
  151SOL    HW1  452   0.178   0.859   2.110 -1.7381  2.2709  0.0069
  151SOL    HW2  453   0.249   0.699   2.101  3.2540 -0.7389 -2.2545
  152SOL     OW  454   1.393   1.740   1.259 -0.6247 -0.2826  0.0463
  152SOL    HW1  455   1.409   1.796   1.347  1.4617  1.0815 -2.5147
  152SOL    HW2  456   1.293   1.720   1.244 -0.2724  0.3271 -0.2799
  153SOL     OW  457   0.035   1.538   0.147  0.2035 -0.4622  0.2634
  153SOL    HW1  458   0.010   1.438   0.163 -2.0533  1.5226 -1.0893
  153SOL    HW2  459   0.067   1.587   0.230 -0.5941  1.5442  1.0772
  154SOL     OW  460   2.383   1.875   2.814 -0.4295 -0.5714  0.1016
  154SOL    HW1  461   2.398   1.771   2.824 -1.6121  1.4530  0.1996
  154SOL    HW2  462   2.424   1.915   2.726 -2.1782  0.4938  0.7403
  155SOL     OW  463   2.496   1.256   0.332  0.2835  0.1058 -0.2287
  155SOL    HW1  464   2.596   1.262   0.301  1.6352 -0.8743 -1.2870
  155SOL    HW2  465   2.452   1.164   0.323 -1.4025 -2.2483 -2.3997
  156SOL     OW  466   2.556   0.940   0.877  0.1502  0.5351  0.1086
  156SOL    HW1  467   2.454   0.958   0.875 -1.8245  0.5210  0.4836
  156SOL    HW2  468   2.615   1.023   0.860  1.1240 -2.6583 -0.4901
  157SOL     OW  469   1.223   3.002   2.980 -0.4219 -0.2721 -0.3137
  157SOL    HW1  470   1.301   2.963   2.918 -2.4312 -1.3293 -2.0604
  157SOL    HW2  471   1.234   3.103   3.002 -3.6273 -1.5673  3.3125
  158SOL     OW  472   1.042   1.861   2.020 -0.2587 -0.5323 -0.3197
  158SOL    HW1  473   1.095   1.851   2.109  1.7710  1.7639  0.2605
  158SOL    HW2  474   0.942   1.866   2.029 -0.4352  0.4392 -0.1908
  159SOL     OW  475   0.856   0.402   1.282 -0.0229  0.5791 -0.1133
  159SOL    HW1  476   0.844   0.485   1.341  1.9464 -0.1053 -1.5291
  159SOL    HW2  477   0.781   0.394   1.211 -0.5197 -1.5312 -0.2068
  160SOL     OW  478   1.477   2.478   1.641 -0.2202  0.3382  0.1598
  160SOL    HW1  479   1.501   2.560   1.580  0.7472  1.0655  1.0381
  160SOL    HW2  480   1.537   2.398   1.614  3.7410  0.2704 -3.4376
  161SOL     OW  481   0.166   2.905   0.349  1.1127 -0.1536  0.1600
  161SOL    HW1  482   0.067   2.863   0.373 -3.1153  1.4121  0.9334
  161SOL    HW2  483   0.160   3.006   0.321 -1.3850 -2.0820  1.7314
  162SOL     OW  484   2.601   1.910   0.516  0.0521 -0.1386  0.5274
  162SOL    HW1  485   2.576   1.852   0.435 -0.2317  1.0000 -1.4779
  162SOL    HW2  486   2.601   1.867   0.613 -1.9638 -0.8964  1.2514
  163SOL     OW  487   1.962   2.664   0.728 -0.1174 -0.2532 -0.1949
  163SOL    HW1  488   1.926   2.704   0.639 -0.2642 -0.3795 -2.1295
  163SOL    HW2  489   2.035   2.587   0.715 -0.2252 -1.1807 -0.2203
  164SOL     OW  490   3.043   0.306   1.202  0.0509 -0.4174  0.0990
  164SOL    HW1  491   3.098   0.370   1.136  1.3022  0.8032  1.8281
  164SOL    HW2  492   3.096   0.294   1.292 -1.9890  1.4312  2.5865
  165SOL     OW  493   0.997   1.466   0.677  0.0539 -0.3852  0.3263
  165SOL    HW1  494   0.920   1.461   0.745  2.4019  0.6288 -1.0394
  165SOL    HW2  495   0.994   1.544   0.607  0.4800 -1.8527 -1.3017
  166SOL     OW  496   1.437   1.072   1.750  0.2231 -0.0268  0.0491
  166SOL    HW1  497   1.365   1.008   1.794  2.0120  1.3339  0.8102
  166SOL    HW2  498   1.519   1.100   1.814  3.4585 -0.5563  0.1867
  167SOL     OW  499   0.854   1.939   1.531 -0.4947 -0.0705 -0.2058
  167SOL    HW1  500   0.842   1.983   1.624 -1.3261 -0.4287 -0.0366
  167SOL    HW2  501   0.782   1.865   1.508  1.2361 -0.4178 -0.8664
  168SOL     OW  502   1.568   2.374   0.162  0.8524  0.1058  0.4626
  168SOL    HW1  503   1.640   2.391   0.092 -0.5502 -0.2725  0.5697
  168SOL    HW2  504   1.603   2.319   0.239 -0.4247  0.8896 -1.3303
  169SOL     OW  505   0.177   2.599   2.216  0.0157  0.5412  0.4300
  169SOL    HW1  506   0.254   2.548   2.162  0.0087  1.3250 -0.2927
  169SOL    HW2  507   0.150   2.549   2.303 -0.6603  1.4462 -1.6811
  170SOL     OW  508   1.265   0.284   1.911 -0.2708  0.3876  0.1649
  170SOL    HW1  509   1.301   0.257   2.007 -0.1951  0.0992  1.5583
  170SOL    HW2  510   1.224   0.208   1.857  1.7416 -0.2163  1.0717
  171SOL     OW  511   0.248   0.774   2.433 -0.3564 -0.3046  0.4636
  171SOL    HW1  512   0.153   0.796   2.474 -1.8832 -0.6671  0.5423
  171SOL    HW2  513   0.259   0.784   2.324 -0.5394  0.0748 -3.9250
  172SOL     OW  514   0.875   1.158   2.925 -0.4583 -0.1530 -0.2971
  172SOL    HW1  515   0.972   1.188   2.956  0.0352 -1.0296 -2.0668
  172SOL    HW2  516   0.871   1.133   2.824 -0.7439  0.4385  1.2338
  173SOL     OW  517   0.656   2.684   0.150 -0.2557 -0.2351 -0.3670
  173SOL    HW1  518   0.657   2.786   0.134 -2.9701 -3.4624 -1.4921
  173SOL    HW2  519   0.559   2.648   0.161  0.4586  0.0986  1.8216
  174SOL     OW  520   1.397   2.792   1.056  0.0533  0.7777 -0.0890
  174SOL    HW1  521   1.408   2.872   0.997 -0.2696 -0.0749  1.0434
  174SOL    HW2  522   1.337   2.720   1.012  0.1164  0.8031  0.3002
  175SOL     OW  523   0.390   0.005   1.663  0.3210 -0.6868  0.1622
  175SOL    HW1  524   0.449   0.059   1.733  2.7110 -0.6573  0.9172
  175SOL    HW2  525   0.326   0.070   1.607 -0.5655 -2.7895 -0.5007
  176SOL     OW  526   2.502   0.405   3.068 -0.2621  0.5866 -0.4938
  176SOL    HW1  527   2.517   0.472   3.151  0.8397 -0.7493  2.1179
  176SOL    HW2  528   2.430   0.326   3.076  2.1021  1.2694  1.4885
  177SOL     OW  529   0.394   0.369   0.935  0.0629 -0.8545  0.5460
  177SOL    HW1  530   0.476   0.315   0.965 -1.9466 -1.1697 -0.7017
  177SOL    HW2  531   0.308   0.363   0.991  0.8176  2.7595 -3.1570
  178SOL     OW  532   0.026   2.695   2.588  0.6876 -0.4089 -0.1328
  178SOL    HW1  533  -0.041   2.634   2.643 -2.2786 -0.9677 -1.5607
  178SOL    HW2  534   0.099   2.735   2.648 -0.4078 -0.9832 -0.3701
  179SOL     OW  535   0.026   1.694   1.170 -0.1477 -0.2014  0.4256
  179SOL    HW1  536  -0.038   1.773   1.175  0.8019  0.9009  1.6518
  179SOL    HW2  537   0.013   1.639   1.261 -0.4540  3.2311  0.4907
  180SOL     OW  538   0.219   1.271   1.830 -0.1136 -0.2957 -0.2205
  180SOL    HW1  539   0.316   1.270   1.782 -2.1258 -2.5717 -0.3373
  180SOL    HW2  540   0.201   1.341   1.902  1.6443 -4.0714  2.6802
  181SOL     OW  541   3.029   1.828   2.559 -0.1176  0.1618  0.7847
  181SOL    HW1  542   3.115   1.854   2.511  2.3775 -2.9260 -2.5579
  181SOL    HW2  543   2.941   1.862   2.519  6.4315 -0.5235 -1.7203
  182SOL     OW  544   2.332   1.220   1.199 -0.2228  0.6694 -0.5491
  182SOL    HW1  545   2.276   1.177   1.125  0.1158 -0.3740 -0.3393
  182SOL    HW2  546   2.338   1.317   1.183  1.1986 -0.8876 -2.0632
  183SOL     OW  547   1.489   2.272   2.548  0.2286  0.2885 -0.2602
  183SOL    HW1  548   1.426   2.188   2.550  0.6342 -5.0859  0.4367
  183SOL    HW2  549   1.586   2.249   2.527  0.6401 -0.6991 -3.1224
  184SOL     OW  550   2.054   0.929   0.800  0.4488 -0.0763  0.5929
  184SOL    HW1  551   1.957   0.971   0.812 -0.7831  1.2880  0.1572
  184SOL    HW2  552   2.073   0.844   0.850  0.2178  1.6040  1.9776
  185SOL     OW  553   1.649   2.675   2.097 -0.0186 -0.5660  0.3444
  185SOL    HW1  554   1.582   2.738   2.051  0.1626  0.7927 -2.6413
  185SOL    HW2  555   1.649   2.693   2.202 -2.4879 -1.0312  0.4815
  186SOL     OW  556   0.138   2.207   1.744 -0.3889 -0.0859 -0.3506
  186SOL    HW1  557   0.167   2.306   1.725  2.0980 -2.1255  1.2557
  186SOL    HW2  558   0.209   2.135   1.722 -2.1041 -2.1870  0.5210
  187SOL     OW  559   1.406   0.682   1.669 -0.7528 -0.0756 -0.2574
  187SOL    HW1  560   1.446   0.754   1.607 -0.5646  0.5247 -0.5160
  187SOL    HW2  561   1.438   0.698   1.768  1.7708  0.3292  2.0355
  188SOL     OW  562   2.762   2.791   1.546  0.2092  0.7523 -0.5986
  188SOL    HW1  563   2.733   2.886   1.515 -1.3322 -0.6115  0.4175
  188SOL    HW2  564   2.742   2.725   1.468  0.9074  1.2657  1.1975
  189SOL     OW  565   0.822   0.994   1.423  0.3813 -0.2219 -0.2499
  189SOL    HW1  566   0.893   1.070   1.436 -0.9238  0.5650 -3.2843
  189SOL    HW2  567   0.804   0.963   1.325  0.2952  0.5426  2.7458
  190SOL     OW  568   1.503   1.704   1.579 -0.0158  0.9470 -0.5222
  190SOL    HW1  569   1.404   1.692   1.549  1.6780  0.1255 -0.1640
  190SOL    HW2  570   1.519   1.780   1.642 -0.4172 -0.6249  0.6983
  191SOL     OW  571   1.000   0.788   1.556  0.0999 -0.2968  0.1937
  191SOL    HW1  572   1.028   0.689   1.568 -0.0961 -1.8195  0.2374
  191SOL    HW2  573   1.087   0.841   1.534  0.5347 -1.1855 -2.6137
  192SOL     OW  574   1.841   2.301   1.188  0.3820  0.1517 -0.6982
  192SOL    HW1  575   1.747   2.267   1.157 -0.9444 -1.0786  3.6841
  192SOL    HW2  576   1.911   2.296   1.115 -2.3664 -3.5185  0.4858
  193SOL     OW  577   0.519   0.556   0.383 -0.1469 -0.1542  0.2553
  193SOL    HW1  578   0.484   0.462   0.410  1.3215 -1.6948  1.8420
  193SOL    HW2  579   0.582   0.548   0.304 -2.3736  1.3301  1.0536
  194SOL     OW  580   0.306   0.820   1.239  0.0646 -0.0508 -0.2960
  194SOL    HW1  581   0.208   0.785   1.231  0.6309 -1.7062  0.2155
  194SOL    HW2  582   0.324   0.898   1.168 -0.0194 -0.3112  0.4538
  195SOL     OW  583   0.955   2.910   0.447  0.2749 -0.1863 -0.3855
  195SOL    HW1  584   0.978   2.816   0.422  1.5279  3.7527 -0.7785
  195SOL    HW2  585   1.038   2.967   0.461 -1.0924 -0.6532  2.0585
  196SOL     OW  586   0.267   1.439   1.418  0.2355  0.4084  0.1784
  196SOL    HW1  587   0.337   1.507   1.447  1.9817  1.2222 -0.5052
  196SOL    HW2  588   0.244   1.369   1.493  1.1879 -1.0577  0.1688
  197SOL     OW  589   0.865   2.027   0.257  0.3809 -0.0172  0.0158
  197SOL    HW1  590   0.843   2.006   0.356  0.7629  2.7433  1.6273
  197SOL    HW2  591   0.937   1.967   0.217 -1.3315 -0.6562  0.9172
  198SOL     OW  592   0.266   1.252   0.258 -0.3235 -0.2818 -0.3060
  198SOL    HW1  593   0.178   1.238   0.208  0.1402 -0.3435  2.2567
  198SOL    HW2  594   0.303   1.348   0.254 -1.7398  2.4700  0.3981
  199SOL     OW  595   2.269   0.366   2.545  0.2108 -0.2144 -0.5567
  199SOL    HW1  596   2.215   0.299   2.611  1.5218  0.7697 -1.2624
  199SOL    HW2  597   2.370   0.349   2.549 -0.6801  3.9148  0.9546
  200SOL     OW  598   3.092   2.931   0.741  0.3229  0.6986 -0.1261
  200SOL    HW1  599   3.001   2.946   0.691 -0.4883 -1.7088  0.5945
  200SOL    HW2  600   3.135   3.011   0.799  0.9445  0.2315  0.1471
  201SOL     OW  601   1.140   0.712   0.558 -0.0902  0.2960  0.8586
  201SOL    HW1  602   1.114   0.795   0.614 -2.5609  1.3292 -1.8545
  201SOL    HW2  603   1.050   0.664   0.521 -1.7904 -1.3758 -1.4960
  202SOL     OW  604   0.470   1.261   1.726  0.6301 -0.0814 -0.0823
  202SOL    HW1  605   0.513   1.240   1.630 -0.0843  0.3914 -0.9669
  202SOL    HW2  606   0.528   1.227   1.802  0.4072  0.0845  2.8823
  203SOL     OW  607   0.680   0.226   1.565 -0.3831 -0.4071  0.6647
  203SOL    HW1  608   0.694   0.158   1.490  0.5772 -2.1740 -0.0703
  203SOL    HW2  609   0.752   0.211   1.639  3.3418 -2.8829  0.8425
  204SOL     OW  610   2.082   1.831   3.020 -0.1505  0.0994  0.1465
  204SOL    HW1  611   2.063   1.730   3.034 -0.1191 -1.9794  2.2471
  204SOL    HW2  612   2.032   1.883   2.943 -0.4508  3.5374 -3.4689
  205SOL     OW  613   1.853   1.887   0.077  0.2065 -0.3045 -0.1536
  205SOL    HW1  614   1.950   1.899   0.037 -0.5526  0.0342  1.0091
  205SOL    HW2  615   1.790   1.972   0.061 -0.9580  2.8116 -0.9807
  206SOL     OW  616   2.567   2.830   0.408 -0.5209  0.2389  0.7094
  206SOL    HW1  617   2.614   2.734   0.413  0.7645 -1.1862 -0.7018
  206SOL    HW2  618   2.584   2.876   0.315  0.7493  0.5780  0.8551
  207SOL     OW  619   0.637   1.735   2.896 -0.1381 -0.0759  0.3143
  207SOL    HW1  620   0.727   1.703   2.855 -2.0524 -0.4882 -0.7111
  207SOL    HW2  621   0.575   1.658   2.939  1.1646  1.2572  2.3749
  208SOL     OW  622   1.027   1.496   1.443 -0.3315  0.4527  0.2384
  208SOL    HW1  623   0.961   1.541   1.376  0.0414  0.4915 -1.6967
  208SOL    HW2  624   1.094   1.568   1.480  2.8762  1.8606  0.7135
  209SOL     OW  625   0.234   0.939   3.042  0.7802  0.0967 -0.4278
  209SOL    HW1  626   0.260   0.899   2.953  1.5907  0.1753  1.6034
  209SOL    HW2  627   0.234   0.869   3.120 -0.0585  0.0403  0.0568
  210SOL     OW  628   1.722   0.504   1.124  0.1664  0.2327  0.0192
  210SOL    HW1  629   1.683   0.584   1.077  0.4139 -0.9595  1.6802
  210SOL    HW2  630   1.825   0.483   1.105  0.6794 -0.5305 -0.5626
  211SOL     OW  631   2.170   1.047   1.674  0.5149  0.0130 -0.5009
  211SOL    HW1  632   2.242   0.989   1.722 -2.3386  1.0559  0.1513
  211SOL    HW2  633   2.204   1.107   1.596 -0.9976  3.5417 -2.4530
  212SOL     OW  634   0.033   0.960   1.468 -0.5954  0.0326 -0.0614
  212SOL    HW1  635   0.085   1.048   1.497  3.5888 -1.3810 -1.9700
  212SOL    HW2  636   0.082   0.876   1.518 -1.5313 -1.5407 -1.7845
  213SOL     OW  637   2.729   0.355   0.264 -0.0068 -0.4865 -0.0071
  213SOL    HW1  638   2.777   0.301   0.189 -1.8341  2.8410  1.7140
  213SOL    HW2  639   2.708   0.450   0.230  0.0713  0.0542 -2.6300
  214SOL     OW  640   2.217   0.269   2.272  0.1633 -0.0167 -0.0018
  214SOL    HW1  641   2.231   0.313   2.366 -0.5423 -0.7994  1.1523
  214SOL    HW2  642   2.184   0.167   2.283  0.1343 -2.1079 -0.7680
  215SOL     OW  643   1.672   2.277   2.069  0.0988  0.1784  0.0673
  215SOL    HW1  644   1.774   2.311   2.055  0.3464  0.2311 -2.3192
  215SOL    HW2  645   1.623   2.342   2.136 -0.8439 -2.1070  0.3892
  216SOL     OW  646   2.220   0.528   0.661 -0.1749  0.2985  0.1410
  216SOL    HW1  647   2.201   0.433   0.614 -0.0856 -3.0494 -1.6107
  216SOL    HW2  648   2.223   0.609   0.598 -2.4283 -0.0035  2.6352
  217SOL     OW  649   0.782   2.801   2.406 -0.2663 -0.4366  1.1260
  217SOL    HW1  650   0.747   2.716   2.462  0.2511 -1.0440  0.1765
  217SOL    HW2  651   0.784   2.777   2.300 -0.4096  0.4715 -0.1859
  218SOL     OW  652   1.915   1.423   0.083  0.8949 -0.6072 -0.0402
  218SOL    HW1  653   1.817   1.437   0.052  1.8103  1.8220 -2.3880
  218SOL    HW2  654   1.903   1.382   0.178 -1.9353  1.6001  0.8117
  219SOL     OW  655   2.386   1.323   2.532  0.1115 -0.3504 -0.4153
  219SOL    HW1  656   2.457   1.286   2.468 -4.7825 -1.2145 -0.0823
  219SOL    HW2  657   2.382   1.266   2.621 -0.5472 -0.2883  3.1504
  220SOL     OW  658   1.475   1.034   1.262  0.3908  0.2873 -0.3095
  220SOL    HW1  659   1.574   1.051   1.288 -0.4829  2.6246  0.8617
  220SOL    HW2  660   1.435   1.082   1.179 -0.6544  2.1426 -0.1454
  221SOL     OW  661   1.312   1.207   2.188  0.3153 -0.2908  0.3374
  221SOL    HW1  662   1.250   1.250   2.118  1.8453  0.8303 -0.9870
  221SOL    HW2  663   1.405   1.181   2.153  0.1473 -1.5005  1.5378
  222SOL     OW  664   1.216   0.066   1.145  0.2183  0.3833  0.1310
  222SOL    HW1  665   1.296   0.014   1.109 -2.0364  0.9907  1.1818
  222SOL    HW2  666   1.240   0.147   1.200 -3.0672  0.6710 -1.5351
  223SOL     OW  667   2.935   0.837   2.015  0.7402 -0.3099 -0.1441
  223SOL    HW1  668   2.929   0.835   2.119 -0.9805  1.3774 -1.4837
  223SOL    HW2  669   2.955   0.929   1.974  1.3256 -0.2678  1.7303
  224SOL     OW  670   1.538   0.962   2.814 -0.2380 -0.3543  0.7794
  224SOL    HW1  671   1.562   0.891   2.739 -1.8533 -0.9066  0.5252
  224SOL    HW2  672   1.507   1.050   2.777 -1.2065  0.1732 -1.6270
  225SOL     OW  673   3.044   2.788   2.906  0.1850 -0.4263 -0.0012
  225SOL    HW1  674   3.004   2.729   2.833 -3.4857 -1.9001 -0.1965
  225SOL    HW2  675   3.116   2.855   2.872 -0.0328  1.4531 -0.4558
  226SOL     OW  676   2.473   1.611   2.865  0.0423  0.0588  0.5921
  226SOL    HW1  677   2.495   1.575   2.766 -0.6486 -1.3793 -0.1834
  226SOL    HW2  678   2.417   1.539   2.917 -0.1249  1.2260 -0.7521
  227SOL     OW  679   0.863   0.112   2.984  0.1221  0.5374  0.1274
  227SOL    HW1  680   0.886   0.037   3.054  4.2579 -1.3276  0.8974
  227SOL    HW2  681   0.856   0.072   2.889 -0.5671  0.8049 -0.1459
  228SOL     OW  682   2.356   0.584   2.830  0.1378 -0.1720  0.8965
  228SOL    HW1  683   2.348   0.643   2.743 -2.3883  2.9422 -0.7005
  228SOL    HW2  684   2.419   0.501   2.820 -0.5547 -0.0688 -1.1242
  229SOL     OW  685   0.575   0.506   1.856  0.0202  0.2343 -0.1087
  229SOL    HW1  686   0.568   0.476   1.753  1.8512  0.4388  0.2642
  229SOL    HW2  687   0.629   0.596   1.859 -1.7995 -2.5508 -4.9333
  230SOL     OW  688   1.891   1.241   2.154 -0.4419  0.0400  0.4457
  230SOL    HW1  689   1.959   1.262   2.080  3.0732  0.3631 -0.7071
  230SOL    HW2  690   1.802   1.293   2.149 -1.3405 -2.3995  2.1436
  231SOL     OW  691   0.638   0.993   3.000  0.2681 -0.1142 -0.1390
  231SOL    HW1  692   0.720   1.058   2.986 -0.2126  0.4738 -1.7808
  231SOL    HW2  693   0.584   1.025   3.083  0.6472 -0.4870  3.1439
  232SOL     OW  694   2.503   0.032   2.735 -0.4666  0.0269 -0.3856
  232SOL    HW1  695   2.531  -0.044   2.800  1.9371 -0.3232 -2.8514
  232SOL    HW2  696   2.529   0.014   2.636 -0.6997  0.1378 -0.5229
  233SOL     OW  697   1.691   1.263   1.063 -0.1733 -0.1724  0.7797
  233SOL    HW1  698   1.738   1.289   0.974  0.9874 -1.6101 -0.9037
  233SOL    HW2  699   1.711   1.164   1.090  0.7965  0.0519 -0.2239
  234SOL     OW  700   1.663   2.606   1.834  0.0287 -0.4433 -0.1646
  234SOL    HW1  701   1.655   2.610   1.939  0.3368  0.3716 -0.6770
  234SOL    HW2  702   1.587   2.558   1.785  2.9054 -1.8069 -0.4064
  235SOL     OW  703   0.128   3.017   2.899  0.4355  0.3106  0.3237
  235SOL    HW1  704   0.177   3.079   2.830  0.0915 -1.8481  1.4001
  235SOL    HW2  705   0.051   3.057   2.951  1.3523  0.3241 -1.4202
  236SOL     OW  706   2.839   0.674   0.110  0.3103 -0.2537  0.4976
  236SOL    HW1  707   2.911   0.745   0.137  3.6742  0.8150 -0.8148
  236SOL    HW2  708   2.879   0.598   0.056  0.5430 -0.6044  0.3657
  237SOL     OW  709   1.501   1.613   1.036 -0.0361  0.2640 -0.2456
  237SOL    HW1  710   1.601   1.587   1.032 -2.5756  1.1840 -2.4284
  237SOL    HW2  711   1.472   1.674   1.118  1.2095  0.4081  1.9802
  238SOL     OW  712   1.797   1.343   0.812  0.6415 -0.0571  0.5969
  238SOL    HW1  713   1.878   1.349   0.743 -1.7483 -2.1406 -1.4846
  238SOL    HW2  714   1.712   1.384   0.763  0.5647 -0.0139 -0.9772
  239SOL     OW  715   2.076   0.244   2.730 -0.3974  0.3051  0.4242
  239SOL    HW1  716   2.162   0.231   2.791 -0.2899 -0.5463 -0.7825
  239SOL    HW2  717   2.014   0.325   2.759 -1.6873  1.0052 -0.0228
  240SOL     OW  718   0.866   0.702   0.231  0.0168 -0.0008 -0.2277
  240SOL    HW1  719   0.835   0.613   0.188  0.4246 -1.3242 -0.6750
  240SOL    HW2  720   0.863   0.688   0.335  2.0848  2.9124 -3.1010
  241SOL     OW  721   0.544   0.047   0.335  0.0504  0.1137 -0.2155
  241SOL    HW1  722   0.584   0.017   0.243 -0.5309 -0.7231  2.7725
  241SOL    HW2  723   0.515  -0.032   0.389  2.0130 -1.7208  0.1730
  242SOL     OW  724   0.695   2.449   1.145 -0.3400 -0.1421  0.1180
  242SOL    HW1  725   0.669   2.519   1.213  3.0717  0.4408 -2.8087
  242SOL    HW2  726   0.792   2.462   1.102  0.7814 -0.4434 -1.1790
  243SOL     OW  727   1.092   0.615   2.414  0.3519  0.5980 -0.3749
  243SOL    HW1  728   1.022   0.684   2.377 -0.4456  3.5531 -1.0641
  243SOL    HW2  729   1.046   0.532   2.463 -2.2793 -1.0707  2.3106
  244SOL     OW  730   2.792   1.909   2.430 -0.1117 -0.6553 -0.5155
  244SOL    HW1  731   2.833   1.888   2.332 -0.7204 -0.4686 -2.8091
  244SOL    HW2  732   2.717   1.843   2.457  1.8396  0.8189  2.1687
  245SOL     OW  733   2.467   0.741   2.134 -0.1949 -0.2965 -0.1030
  245SOL    HW1  734   2.503   0.793   2.212 -0.3937 -1.6374  0.0214
  245SOL    HW2  735   2.524   0.755   2.047  0.0864  2.0347  0.3856
  246SOL     OW  736   0.228   2.900   1.694  0.7581  0.5091 -0.3279
  246SOL    HW1  737   0.170   2.882   1.609 -0.4257  1.2334  1.3088
  246SOL    HW2  738   0.293   2.981   1.686  1.9554  0.6908  0.4602
  247SOL     OW  739   2.169   0.557   3.027  0.0285 -0.2386  0.1957
  247SOL    HW1  740   2.237   0.558   2.951 -0.6163  1.0343  0.3687
  247SOL    HW2  741   2.131   0.655   3.040  0.8483  2.4608  0.5245
  248SOL     OW  742   2.182   1.850   1.629  0.2677 -0.2019 -0.6478
  248SOL    HW1  743   2.261   1.790   1.658  1.8899  1.2387  0.1876
  248SOL    HW2  744   2.097   1.834   1.682  0.5847  1.6106  0.0889
  249SOL     OW  745   1.967   1.969   1.959  0.0084  0.7551  0.3672
  249SOL    HW1  746   1.951   1.901   1.886 -0.4903  0.0752  1.9456
  249SOL    HW2  747   2.064   2.009   1.959  0.1720  0.6307 -1.6518
  250SOL     OW  748   1.015   0.652   1.845  0.0269 -0.0252 -0.1530
  250SOL    HW1  749   1.061   0.595   1.921  0.3106  0.4816 -0.6277
  250SOL    HW2  750   1.042   0.612   1.753  0.8045  2.0784  0.7924
  251SOL     OW  751   3.034   1.562   2.576  0.8927 -0.1526 -0.0788
  251SOL    HW1  752   3.031   1.663   2.555  0.8087 -0.8758 -0.1978
  251SOL    HW2  753   2.936   1.527   2.583  1.1717  1.8700 -1.9581
  252SOL     OW  754   1.498   0.913   1.535 -0.2657 -0.0160 -0.2155
  252SOL    HW1  755   1.517   0.971   1.454 -0.6479 -0.3486  0.1307
  252SOL    HW2  756   1.491   0.978   1.621 -0.0198  2.4662  2.1815
  253SOL     OW  757   0.958   1.565   0.379 -0.5417  0.8789 -0.4427
  253SOL    HW1  758   1.033   1.494   0.380  5.2123 -0.4956  1.2448
  253SOL    HW2  759   0.863   1.520   0.385 -1.2436  2.5236 -0.2881
  254SOL     OW  760   1.999   2.178   1.595  0.0313  0.2730 -0.4157
  254SOL    HW1  761   1.958   2.143   1.505 -0.0902  0.6382  0.4795
  254SOL    HW2  762   1.981   2.119   1.674 -0.1044 -0.8426 -0.5225
  255SOL     OW  763   0.112   1.162   2.919  0.0775  0.1777  0.1311
  255SOL    HW1  764   0.174   1.234   2.885 -3.3741  1.9316  2.3487
  255SOL    HW2  765   0.160   1.072   2.952 -2.0120 -0.3428 -1.6544
  256SOL     OW  766   2.791   1.362   1.838  0.0432  0.6463 -0.2268
  256SOL    HW1  767   2.732   1.438   1.879 -1.0059 -0.4097  0.7154
  256SOL    HW2  768   2.751   1.268   1.860 -0.0638  2.9365 -1.2627
  257SOL     OW  769   0.898   0.201   1.930  0.0734 -0.0924  0.4646
  257SOL    HW1  770   0.926   0.253   1.843  2.2495  0.8958 -0.0022
  257SOL    HW2  771   0.908   0.097   1.915  0.8802 -1.4831 -0.4126
  258SOL     OW  772   2.959   1.249   0.405  0.1180  0.0382  0.4872
  258SOL    HW1  773   2.911   1.345   0.393 -0.6153 -0.2650 -1.1283
  258SOL    HW2  774   2.988   1.237   0.503 -0.4326  0.4386 -0.0708
  259SOL     OW  775   0.423   2.928   2.991  0.0318  0.9972 -0.4662
  259SOL    HW1  776   0.416   2.861   3.073  2.5814  2.1001  2.1795
  259SOL    HW2  777   0.404   2.877   2.904 -2.8788  0.5043  0.5071
  260SOL     OW  778   2.654   0.782   2.781  0.1734  0.8299 -0.0100
  260SOL    HW1  779   2.604   0.826   2.701 -1.1051 -1.9486 -1.8101
  260SOL    HW2  780   2.605   0.698   2.817  1.4464  0.8213  1.6477
  261SOL     OW  781   2.713   1.331   1.329  0.7411  0.1899  0.4427
  261SOL    HW1  782   2.684   1.248   1.268 -1.0009  2.9036 -0.5122
  261SOL    HW2  783   2.814   1.339   1.339 -1.6247 -0.4829 -0.2954
  262SOL     OW  784   1.466   2.909   2.032 -0.0245 -0.2037 -0.2783
  262SOL    HW1  785   1.468   2.995   1.972 -1.0017 -2.2663 -1.3270
  262SOL    HW2  786   1.376   2.857   2.017 -1.9436 -0.9362  4.1284
  263SOL     OW  787   0.883   0.775   2.305  0.1728  0.0371  0.5472
  263SOL    HW1  788   0.829   0.686   2.294  2.1379 -2.1544 -0.8329
  263SOL    HW2  789   0.906   0.823   2.214  0.2825 -0.2895 -1.2581
  264SOL     OW  790   2.257   0.746   0.496 -0.0999 -0.1004 -0.4683
  264SOL    HW1  791   2.163   0.789   0.498  2.2839 -1.0187  0.9074
  264SOL    HW2  792   2.337   0.809   0.465 -1.1497 -0.9759 -0.4025
  265SOL     OW  793   0.872   2.304   2.694  0.2710 -0.3682  0.2205
  265SOL    HW1  794   0.913   2.377   2.754 -0.5940 -2.0760 -1.6501
  265SOL    HW2  795   0.793   2.249   2.738 -1.3635 -1.7764 -0.8067
  266SOL     OW  796   1.342   1.709   0.051  0.2204 -0.2835  0.1146
  266SOL    HW1  797   1.278   1.780   0.087  0.6609  0.2612  1.1005
  266SOL    HW2  798   1.444   1.729   0.043  1.0599  0.5583  1.2660
  267SOL     OW  799   1.084   0.013   2.378  0.3167 -0.2924  0.2613
  267SOL    HW1  800   1.059  -0.071   2.325 -1.8620  0.0457 -1.4717
  267SOL    HW2  801   1.014   0.087   2.360 -1.0174 -1.1008  1.2197
  268SOL     OW  802   0.654   1.161   1.027  0.1969  0.0441 -0.7145
  268SOL    HW1  803   0.703   1.220   1.096 -0.2352  0.0692 -0.7406
  268SOL    HW2  804   0.631   1.214   0.936  0.8304  0.5061  0.2134
  269SOL     OW  805   2.438   2.504   1.606 -0.4683 -0.8732 -0.0330
  269SOL    HW1  806   2.500   2.425   1.624 -0.2237  1.7553 -0.6061
  269SOL    HW2  807   2.397   2.539   1.694  2.5251  1.0271 -0.7701
  270SOL     OW  808   0.220   2.935   1.966 -0.0793  0.8581 -0.8766
  270SOL    HW1  809   0.229   2.944   1.864  1.3175 -0.6610 -0.2717
  270SOL    HW2  810   0.139   2.879   2.001 -0.1656  1.0939 -1.3204
  271SOL     OW  811   0.447   1.401   1.198 -0.0534  0.1720  0.1574
  271SOL    HW1  812   0.410   1.411   1.099  2.2825 -1.5029 -0.9212
  271SOL    HW2  813   0.371   1.412   1.265  1.1757 -1.9950 -0.5488
  272SOL     OW  814   1.909   2.904   1.893  0.1547  0.4800 -0.2641
  272SOL    HW1  815   1.873   2.849   1.815  0.8471  1.3337  1.7699
  272SOL    HW2  816   1.995   2.962   1.867 -1.4311  0.6841 -1.1198
  273SOL     OW  817   1.450   1.434   2.850 -0.5202 -0.3352 -0.3235
  273SOL    HW1  818   1.547   1.466   2.861 -0.3888  1.3983 -2.9075
  273SOL    HW2  819   1.404   1.411   2.941 -0.0614 -1.9470  0.9899
  274SOL     OW  820   1.164   0.507   2.026 -0.4773 -0.3985 -0.1084
  274SOL    HW1  821   1.194   0.424   1.967  0.2209 -0.8535  0.0148
  274SOL    HW2  822   1.233   0.524   2.096  0.0473  1.2520 -0.9260
  275SOL     OW  823   0.627   2.061   2.004  0.0770 -0.1629  0.1634
  275SOL    HW1  824   0.634   2.166   2.018  0.4920 -0.4645  0.6862
  275SOL    HW2  825   0.536   2.037   1.964 -1.2687  0.9662 -0.4488
  276SOL     OW  826   2.162   0.995   2.804 -0.4552 -0.2407 -0.1934
  276SOL    HW1  827   2.092   0.998   2.727  4.2512 -1.2077  1.9549
  276SOL    HW2  828   2.134   0.930   2.882 -0.1345 -2.0983  0.1532
  277SOL     OW  829   3.036   0.838   0.193  0.2221 -0.1918  0.2317
  277SOL    HW1  830   3.122   0.856   0.130 -0.4143  2.4438 -0.4093
  277SOL    HW2  831   3.056   0.773   0.276  0.5072 -2.1214  1.3040
  278SOL     OW  832   0.182   0.244   2.986 -0.1268 -0.2133 -0.2785
  278SOL    HW1  833   0.243   0.184   3.039  0.2481  0.0294  3.1085
  278SOL    HW2  834   0.181   0.348   3.009 -1.6984  0.5750  1.4932
  279SOL     OW  835   0.156   0.026   0.861 -0.1297  0.6706  0.1604
  279SOL    HW1  836   0.187  -0.000   0.958  1.4801  2.0934  0.8105
  279SOL    HW2  837   0.240   0.035   0.802  0.7811 -0.4498  0.6945
  280SOL     OW  838   1.670   2.938   2.524 -0.8036 -0.2269  0.4541
  280SOL    HW1  839   1.741   3.020   2.530  0.5177  3.5007 -2.5975
  280SOL    HW2  840   1.569   2.966   2.506 -2.6262  0.1458  0.0652
  281SOL     OW  841   0.582   0.967   2.335 -0.1238  0.1842 -0.1034
  281SOL    HW1  842   0.571   0.868   2.301  0.4827 -0.2082 -1.1094
  281SOL    HW2  843   0.573   0.973   2.439 -2.8427 -3.5749 -1.9444
  282SOL     OW  844   1.695   2.445   0.506  0.4504  0.2446 -0.3809
  282SOL    HW1  845   1.658   2.372   0.440  1.7851 -2.8481 -1.6082
  282SOL    HW2  846   1.655   2.539   0.496 -1.5271  0.8862  2.7886
  283SOL     OW  847   1.182   0.969   0.738  0.4754 -0.3025  0.2378
  283SOL    HW1  848   1.201   0.892   0.802  0.4013  1.2747 -2.2995
  283SOL    HW2  849   1.115   1.039   0.780 -0.6491  0.7518 -0.2702
  284SOL     OW  850   2.326   2.796   2.393  1.0952  0.2843  0.0726
  284SOL    HW1  851   2.411   2.843   2.358 -3.4151  3.6966  0.8767
  284SOL    HW2  852   2.334   2.764   2.494  1.0862  0.1803  1.6685
  285SOL     OW  853   1.355   2.973   2.526 -0.6510 -0.6529  0.1664
  285SOL    HW1  854   1.381   2.995   2.430 -0.7562  1.1667  0.6203
  285SOL    HW2  855   1.283   3.042   2.562 -1.2703  0.4665  0.7667
  286SOL     OW  856   0.475   0.438   0.686  0.0739 -0.5069  0.2737
  286SOL    HW1  857   0.450   0.380   0.767 -0.7329 -1.4653 -1.9194
  286SOL    HW2  858   0.442   0.401   0.597 -0.4984  1.2668  0.6596
  287SOL     OW  859   0.099   1.345   2.480  0.2063  0.0700  0.2069
  287SOL    HW1  860   0.082   1.249   2.511  1.2581  1.1829  0.3516
  287SOL    HW2  861   0.031   1.414   2.522  0.2055  0.4744  3.7547
  288SOL     OW  862   1.600   2.660   1.463 -0.1042  0.6805  0.0032
  288SOL    HW1  863   1.705   2.660   1.474  5.0286  0.8339 -1.0690
  288SOL    HW2  864   1.582   2.684   1.369  1.5647  2.2980  1.0925
  289SOL     OW  865   0.662   2.742   0.763 -0.6399 -0.0068 -0.0673
  289SOL    HW1  866   0.719   2.822   0.724 -0.6469 -0.8638 -0.4779
  289SOL    HW2  867   0.658   2.751   0.865 -0.2008  1.5759  0.9147
  290SOL     OW  868   2.898   1.207   1.602 -0.5314 -0.3716 -0.6352
  290SOL    HW1  869   2.852   1.277   1.658 -2.6614 -3.4091 -1.5219
  290SOL    HW2  870   2.932   1.128   1.661  1.1149  2.0924 -0.5640
  291SOL     OW  871   1.990   0.054   0.071  0.5596  0.5283  0.8687
  291SOL    HW1  872   1.991   0.063   0.175  3.2345  1.0967  0.9461
  291SOL    HW2  873   2.019   0.147   0.030  1.0420  0.0428 -0.8359
  292SOL     OW  874   2.960   1.169   3.041  0.4358 -0.7361 -0.4696
  292SOL    HW1  875   2.896   1.232   2.988  0.7463  1.1599  0.9336
  292SOL    HW2  876   3.057   1.179   2.998  0.0966  0.8607  1.7328
  293SOL     OW  877   0.635   2.072   0.127  0.5938  0.2631 -0.1183
  293SOL    HW1  878   0.575   2.115   0.199 -0.4766 -0.3363  1.5268
  293SOL    HW2  879   0.730   2.069   0.166 -0.8674 -1.1533  0.8658
  294SOL     OW  880   1.675   2.142   1.759 -0.2478  0.1566 -0.5927
  294SOL    HW1  881   1.706   2.191   1.846  1.6383 -0.0670 -0.4378
  294SOL    HW2  882   1.697   2.209   1.678 -0.2852  0.3950 -1.9075
  295SOL     OW  883   0.979   1.027   0.393  0.4115 -0.4439  0.1237
  295SOL    HW1  884   1.083   1.005   0.397  0.9177 -1.8778 -0.2251
  295SOL    HW2  885   0.936   1.044   0.482  2.3372 -0.8743 -3.6251
  296SOL     OW  886   1.297   2.033   2.516  0.2274 -0.1579  0.1356
  296SOL    HW1  887   1.295   2.045   2.410 -2.6394 -0.7249  3.2072
  296SOL    HW2  888   1.332   1.937   2.547  1.6413 -0.1830 -0.8341
  297SOL     OW  889   1.476   0.655   1.341 -0.3001 -0.3831 -0.1194
  297SOL    HW1  890   1.547   0.581   1.358 -0.9811 -1.3906  0.7464
  297SOL    HW2  891   1.487   0.726   1.415 -0.8576 -0.6364 -0.5813
  298SOL     OW  892   0.476   1.215   2.859 -0.5506 -0.1902 -0.0479
  298SOL    HW1  893   0.516   1.141   2.921  1.7735  0.6767  0.9532
  298SOL    HW2  894   0.550   1.246   2.792 -1.7091 -0.9920  0.3219
  299SOL     OW  895   0.418   0.327   1.450  0.9835 -0.0042  0.2288
  299SOL    HW1  896   0.364   0.413   1.434  3.5456  1.9803  2.0884
  299SOL    HW2  897   0.514   0.339   1.482 -1.0377  1.8404  1.9499
  300SOL     OW  898   1.216   1.804   2.882 -0.9667  0.3956  0.1067
  300SOL    HW1  899   1.217   1.720   2.823  0.8485  4.1128 -0.1477
  300SOL    HW2  900   1.163   1.797   2.969 -1.2539 -1.4956  0.8372
  301SOL     OW  901   0.434   0.281   0.425 -0.0203 -0.0939 -0.2665
  301SOL    HW1  902   0.333   0.259   0.422  1.2352 -0.7570  1.8340
  301SOL    HW2  903   0.484   0.219   0.362 -1.4510  3.1950  1.3660
  302SOL     OW  904   1.227   2.323   2.326  0.1422  0.4751 -0.1606
  302SOL    HW1  905   1.160   2.344   2.400  0.1457  3.6895  1.3800
  302SOL    HW2  906   1.249   2.219   2.313  0.7531  1.6713  0.8917
  303SOL     OW  907   0.930   2.359   0.797  0.4855  0.1724  0.0067
  303SOL    HW1  908   0.985   2.410   0.722 -1.0448  2.1774  0.3701
  303SOL    HW2  909   0.915   2.419   0.883 -2.6290 -1.1272  1.8699
  304SOL     OW  910   0.144   2.079   0.683  0.0665 -0.8362  0.2504
  304SOL    HW1  911   0.181   2.009   0.617 -3.4207  1.3112  0.7464
  304SOL    HW2  912   0.082   2.150   0.642 -0.1776  0.0396  1.4890
  305SOL     OW  913   1.617   0.892   0.638 -0.1448 -0.4775 -0.5452
  305SOL    HW1  914   1.536   0.886   0.569 -2.3227  1.9213 -3.3744
  305SOL    HW2  915   1.699   0.831   0.621  1.4811  0.4964  2.4897
  306SOL     OW  916   0.440   1.865   1.881  0.2715  0.1047 -0.3981
  306SOL    HW1  917   0.508   1.802   1.829 -0.4546 -0.7609 -1.5801
  306SOL    HW2  918   0.400   1.811   1.958 -0.7285  1.6452  0.9662
  307SOL     OW  919   0.026   0.827   2.580  0.2554  0.1709  0.2673
  307SOL    HW1  920   0.051   0.929   2.585 -0.5591 -0.1375  0.8327
  307SOL    HW2  921  -0.047   0.791   2.646  1.0119  1.8439  1.0749
  308SOL     OW  922   1.574   2.623   2.869 -0.3038  0.1164  0.2171
  308SOL    HW1  923   1.583   2.578   2.780 -0.8565  2.9062  1.9817
  308SOL    HW2  924   1.494   2.582   2.926  0.7787 -4.2468  2.7152
  309SOL     OW  925   1.225   0.047   1.756 -0.2320  0.5201 -0.4780
  309SOL    HW1  926   1.318   0.017   1.803 -3.1312  1.4460  2.2372
  309SOL    HW2  927   1.237   0.072   1.653  1.0009  0.4798 -2.2961
  310SOL     OW  928   1.370   2.635   0.707  0.9123 -0.3162 -0.1483
  310SOL    HW1  929   1.356   2.699   0.786  1.9240 -1.1951 -0.2693
  310SOL    HW2  930   1.455   2.671   0.655 -0.0304  1.6648  1.2410
  311SOL     OW  931   1.229   0.923   1.516 -0.1093  0.0863  0.5389
  311SOL    HW1  932   1.288   0.881   1.446 -1.5306  0.3681  3.8795
  311SOL    HW2  933   1.273   1.011   1.545  0.6443  2.2352 -1.8831
  312SOL     OW  934   1.605   0.688   0.949  0.2731  0.0519  0.3986
  312SOL    HW1  935   1.582   0.793   0.945 -1.4911 -1.2707 -3.3432
  312SOL    HW2  936   1.518   0.629   0.932  1.6277 -1.3258  0.4858
  313SOL     OW  937   1.557   1.425   0.619 -0.4795 -0.8383 -0.0018
  313SOL    HW1  938   1.466   1.470   0.596  2.1890  0.8005  0.3612
  313SOL    HW2  939   1.547   1.323   0.621 -2.5358  0.3492  0.3430
  314SOL     OW  940   2.960   0.016   2.998  0.4560  0.3918  0.4845
  314SOL    HW1  941   2.927   0.056   3.089  1.0251 -1.2215  0.4031
  314SOL    HW2  942   2.894  -0.061   2.969 -1.5811  1.1434 -2.3379
  315SOL     OW  943   1.249   0.239   2.782 -0.5294  0.1909 -0.0319
  315SOL    HW1  944   1.212   0.171   2.712 -1.7126  1.5374 -0.1392
  315SOL    HW2  945   1.245   0.205   2.883  3.9086  0.0662  1.5143
  316SOL     OW  946   1.693   2.072   0.903  0.2732  0.1483  0.2036
  316SOL    HW1  947   1.666   2.093   1.000  0.3273 -1.1553  1.0947
  316SOL    HW2  948   1.697   2.160   0.839 -2.2220  0.5512  1.2960
  317SOL     OW  949   1.125   0.687   2.853  0.1648 -0.1106 -0.4026
  317SOL    HW1  950   1.051   0.736   2.914  0.3502  0.8959 -0.3601
  317SOL    HW2  951   1.097   0.602   2.800 -1.3422  0.8593  0.1418
  318SOL     OW  952   1.456   3.070   2.300  0.6150 -0.2101 -0.1980
  318SOL    HW1  953   1.416   3.160   2.256 -1.3130  0.4884  0.0591
  318SOL    HW2  954   1.469   3.006   2.217  1.1010 -3.2788 -1.3607
  319SOL     OW  955   0.646   2.404   2.932  0.3467  0.2391 -0.4373
  319SOL    HW1  956   0.564   2.367   2.991 -1.7461  0.0246 -1.4262
  319SOL    HW2  957   0.713   2.324   2.912  1.8898  2.0899 -1.0168
  320SOL     OW  958   1.632   2.204   0.354  0.1676 -0.4199 -0.5573
  320SOL    HW1  959   1.719   2.161   0.383  1.6718 -2.5442  0.4591
  320SOL    HW2  960   1.545   2.161   0.390  0.2503  0.1925 -1.3568
  321SOL     OW  961   1.571   2.687   0.534 -0.3316 -0.3277  0.0960
  321SOL    HW1  962   1.502   2.763   0.511  0.0653  1.7740  0.3083
  321SOL    HW2  963   1.662   2.725   0.560 -2.0595 -1.8426  0.5647
  322SOL     OW  964   2.594   1.128   2.271 -0.9527 -0.5609 -0.3593
  322SOL    HW1  965   2.636   1.175   2.353 -1.7146 -0.7352  0.0534
  322SOL    HW2  966   2.597   1.026   2.293 -0.1656  3.0913 -0.3980
  323SOL     OW  967   0.972   2.677   0.808  0.0555 -0.3506 -0.1053
  323SOL    HW1  968   0.985   2.628   0.712 -1.5224  0.0890 -1.0727
  323SOL    HW2  969   0.962   2.779   0.799 -1.8659 -1.9119 -0.5064
  324SOL     OW  970   0.135   2.481   2.464  0.4134  0.3046  0.3070
  324SOL    HW1  971   0.098   2.398   2.511  2.5370  0.5407 -0.3939
  324SOL    HW2  972   0.091   2.570   2.500 -0.0661 -0.7509 -0.1724
  325SOL     OW  973   1.189   3.091   0.466 -0.4157 -0.3994  0.3019
  325SOL    HW1  974   1.225   3.095   0.368  0.3151 -0.7246 -2.4212
  325SOL    HW2  975   1.232   3.158   0.532  1.5248  1.7104 -0.9063
  326SOL     OW  976   2.421   0.752   3.090  0.5104  0.1205 -0.4026
  326SOL    HW1  977   2.410   0.708   2.995 -0.5384 -2.6837 -0.0948
  326SOL    HW2  978   2.468   0.686   3.152  2.1971  0.7920  0.1217
  327SOL     OW  979   2.797   0.397   0.537  1.1969  0.1631 -0.1083
  327SOL    HW1  980   2.775   0.380   0.438  2.4143 -0.3555  0.3519
  327SOL    HW2  981   2.707   0.394   0.593  1.1220 -3.3770  0.5879
  328SOL     OW  982   2.479   0.552   0.422  0.0649 -0.0994 -0.8291
  328SOL    HW1  983   2.386   0.586   0.408  0.5363 -0.1333 -0.0494
  328SOL    HW2  984   2.492   0.503   0.510 -2.2976  0.8417 -1.4163
  329SOL     OW  985   2.981   3.005   2.147  0.0359 -0.5969  0.1599
  329SOL    HW1  986   2.992   2.934   2.218 -0.0485 -0.2211 -1.5311
  329SOL    HW2  987   3.039   3.093   2.159 -0.8812  0.8526  0.8524
  330SOL     OW  988   0.520   0.163   1.898  0.3264  0.1599 -0.1889
  330SOL    HW1  989   0.570   0.252   1.884 -1.8597  0.4208 -0.6977
  330SOL    HW2  990   0.564   0.105   1.971 -1.0554 -1.3948 -0.3357
  331SOL     OW  991   2.939   1.920   1.143  0.0900  0.2665 -0.0821
  331SOL    HW1  992   2.975   1.994   1.082  1.7346 -1.5023  0.0740
  331SOL    HW2  993   2.853   1.950   1.201 -0.6877  3.4897 -0.7404
  332SOL     OW  994   0.430   1.105   0.068 -0.2677  1.1616  0.6603
  332SOL    HW1  995   0.351   1.061   0.016 -2.3659  1.0134 -0.7877
  332SOL    HW2  996   0.396   1.162   0.149 -0.3579  1.3840 -0.2529
  333SOL     OW  997   2.859   1.019   0.301  0.4199 -0.0120 -0.0213
  333SOL    HW1  998   2.905   1.096   0.355 -3.2067  2.7156 -0.5160
  333SOL    HW2  999   2.926   0.962   0.246  3.1682  0.5862  3.4416
  334SOL     OW 1000   1.648   1.160   1.921 -0.0515  0.2006  0.0793
  334SOL    HW1 1001   1.740   1.141   1.880 -3.0514 -0.1752 -1.0019
  334SOL    HW2 1002   1.649   1.256   1.958  2.2217  1.7529  1.4100
  335SOL     OW 1003   2.002   2.779   2.634  0.5992 -0.1248  0.0112
  335SOL    HW1 1004   1.948   2.788   2.722  4.6524 -0.9907  1.5584
  335SOL    HW2 1005   2.085   2.842   2.641 -0.7809 -0.7381  4.7465
  336SOL     OW 1006   0.253   0.107   2.742  0.1092  0.2902  0.1424
  336SOL    HW1 1007   0.354   0.088   2.720 -0.7983  0.4209 -1.0690
  336SOL    HW2 1008   0.253   0.169   2.824  0.8206 -0.9665  0.1897
  337SOL     OW 1009   0.902   2.767   2.832 -0.4967 -0.2747 -0.5477
  337SOL    HW1 1010   0.882   2.761   2.933 -0.5895 -0.8330 -1.6056
  337SOL    HW2 1011   0.999   2.744   2.804  1.6196  0.0506  0.0344
  338SOL     OW 1012   0.026   1.006   0.611  0.4409 -0.0891  0.1639
  338SOL    HW1 1013  -0.067   0.964   0.598  0.1489  1.2990  2.5050
  338SOL    HW2 1014   0.011   1.101   0.646 -0.4085 -3.5344  1.8119
  339SOL     OW 1015   1.665   1.397   2.074 -0.5788  0.3579  0.0788
  339SOL    HW1 1016   1.568   1.435   2.096  1.2583 -2.4742  1.7844
  339SOL    HW2 1017   1.732   1.477   2.089 -1.6204 -1.7249  1.7013
  340SOL     OW 1018   2.297   0.807   1.173 -0.1638  0.2912 -0.1921
  340SOL    HW1 1019   2.203   0.840   1.197  1.2826  0.1318 -0.1889
  340SOL    HW2 1020   2.297   0.719   1.119  1.1841 -0.0442  1.4215
  341SOL     OW 1021   1.916   2.133   0.374 -0.1349  0.0296  0.1742
  341SOL    HW1 1022   1.919   2.216   0.309 -0.1567  1.8485 -0.8695
  341SOL    HW2 1023   2.006   2.111   0.426 -0.5968  2.1152 -2.0753
  342SOL     OW 1024   2.206   2.075   2.754  0.1236 -0.5666  0.4098
  342SOL    HW1 1025   2.273   2.021   2.818  1.0139  3.2383  2.0776
  342SOL    HW2 1026   2.109   2.050   2.773 -1.9161  1.0372 -0.3524
  343SOL     OW 1027   0.330   0.831   2.780 -0.2543 -0.8000 -0.1458
  343SOL    HW1 1028   0.334   0.901   2.705  0.1158 -1.6736  1.0938
  343SOL    HW2 1029   0.424   0.807   2.817 -2.8660  0.1004 -3.0098
  344SOL     OW 1030   1.903   1.472   0.387  0.1353 -0.2136  0.6599
  344SOL    HW1 1031   1.891   1.373   0.365 -1.3057 -0.4374  0.0319
  344SOL    HW2 1032   1.815   1.517   0.419  0.2894  0.6544 -1.3081
  345SOL     OW 1033   1.376   2.215   2.842  0.0802  0.2518 -0.0756
  345SOL    HW1 1034   1.296   2.159   2.800  0.2178  0.5863  0.2651
  345SOL    HW2 1035   1.465   2.183   2.798  0.2279  0.1543  0.8825
  346SOL     OW 1036   2.342   0.850   1.440 -0.4831 -0.0313  0.2758
  346SOL    HW1 1037   2.280   0.919   1.489 -2.2778 -0.5322 -0.5426
  346SOL    HW2 1038   2.319   0.843   1.339  0.4504  0.6354  1.1056
  347SOL     OW 1039   0.730   2.838   1.510 -0.0085  0.1214  0.4093
  347SOL    HW1 1040   0.710   2.775   1.588  2.1004 -0.1603  0.0692
  347SOL    HW2 1041   0.650   2.899   1.486  0.3722  2.4845  2.7365
  348SOL     OW 1042   0.111   0.704   2.858 -0.2819 -0.1568 -0.1148
  348SOL    HW1 1043   0.030   0.767   2.842  1.1881  0.6865 -1.4897
  348SOL    HW2 1044   0.195   0.742   2.802  0.3911 -1.3858 -2.4036
  349SOL     OW 1045   1.895   0.432   2.813 -0.5011 -0.0207  0.1895
  349SOL    HW1 1046   1.877   0.506   2.741  3.6085  3.5258 -1.2874
  349SOL    HW2 1047   1.841   0.447   2.900  1.1812 -0.8158  1.8541
  350SOL     OW 1048   1.679   0.395   0.381 -0.6833 -0.6211  0.5658
  350SOL    HW1 1049   1.762   0.409   0.442 -0.7822  3.8012  1.0479
  350SOL    HW2 1050   1.650   0.483   0.342  0.8088 -1.3467 -2.7326
  351SOL     OW 1051   0.919   0.916   2.073  0.5828 -0.2377 -0.1587
  351SOL    HW1 1052   0.939   1.019   2.067 -1.5977  0.6354 -2.2781
  351SOL    HW2 1053   0.873   0.882   1.991 -0.2044  0.7811 -1.2400
  352SOL     OW 1054   1.986   1.340   0.607 -0.0317 -0.0955  0.3895
  352SOL    HW1 1055   1.940   1.403   0.542  0.1419 -1.7151 -2.8143
  352SOL    HW2 1056   2.087   1.367   0.615  3.8479  1.3729  1.5397
  353SOL     OW 1057   2.125   2.869   1.129 -0.3587  0.1922 -0.2639
  353SOL    HW1 1058   2.209   2.825   1.175 -0.9108  3.8858 -0.4328
  353SOL    HW2 1059   2.077   2.805   1.063  1.9216 -1.0567 -1.0246
  354SOL     OW 1060   0.244   1.393   2.853 -0.3791  0.0894 -0.1808
  354SOL    HW1 1061   0.230   1.485   2.804  1.1035 -0.6774  3.3858
  354SOL    HW2 1062   0.339   1.351   2.838  0.5967  0.8604 -2.0256
  355SOL     OW 1063   0.478   1.515   0.563  0.5376  0.5034 -0.0741
  355SOL    HW1 1064   0.519   1.609   0.581  2.2189  2.2404 -1.3414
  355SOL    HW2 1065   0.546   1.439   0.554  1.1335 -1.8124  0.8324
  356SOL     OW 1066   0.898   0.401   2.123  0.5567 -0.2829 -0.0890
  356SOL    HW1 1067   0.991   0.450   2.127 -0.0945 -2.0121  1.0466
  356SOL    HW2 1068   0.894   0.341   2.037 -2.2288 -0.0450 -2.1376
  357SOL     OW 1069   1.038   1.271   0.259 -0.7541 -0.2135  0.8191
  357SOL    HW1 1070   0.983   1.297   0.171 -1.1923 -2.6505  1.1807
  357SOL    HW2 1071   1.004   1.191   0.318 -1.0791 -1.6088 -0.7945
  358SOL     OW 1072   1.656   1.581   0.415 -0.2528 -0.4202  0.8022
  358SOL    HW1 1073   1.611   1.511   0.478 -2.3479 -0.9861  1.6364
  358SOL    HW2 1074   1.584   1.648   0.380 -2.3825  0.3702 -1.4803
  359SOL     OW 1075   1.558   2.694   0.166 -0.0880 -0.4511 -0.8261
  359SOL    HW1 1076   1.607   2.649   0.087  0.2881  0.6974  1.9877
  359SOL    HW2 1077   1.482   2.755   0.136 -2.7864  0.4096 -1.1558
  360SOL     OW 1078   0.903   0.608   0.513  0.4163  0.0669  0.3487
  360SOL    HW1 1079   0.812   0.629   0.568 -2.3525  0.1769  1.5510
  360SOL    HW2 1080   0.916   0.506   0.496  2.4869  0.0867  0.7101
  361SOL     OW 1081   1.243   1.380   0.657  0.0588 -0.2752 -0.1927
  361SOL    HW1 1082   1.289   1.368   0.752  0.0545 -2.2909  0.4655
  361SOL    HW2 1083   1.148   1.425   0.669 -2.7460  0.3537  1.6613
  362SOL     OW 1084   1.398   1.762   0.776 -0.0808 -0.1598 -0.3779
  362SOL    HW1 1085   1.435   1.729   0.868 -1.4506 -0.1805 -0.4275
  362SOL    HW2 1086   1.464   1.819   0.721 -2.7905  0.4350  1.9147
  363SOL     OW 1087   1.156   1.361   2.000  0.0385 -0.1758  0.1556
  363SOL    HW1 1088   1.163   1.432   2.076  3.8014 -1.2142  0.2035
  363SOL    HW2 1089   1.195   1.395   1.912 -0.1967 -1.3189  1.3622
  364SOL     OW 1090   0.570   2.328   1.962 -0.6861  0.1893 -0.6888
  364SOL    HW1 1091   0.488   2.382   1.991 -0.9682  0.4417 -0.3640
  364SOL    HW2 1092   0.593   2.339   1.860  1.2662 -0.4200 -2.1005
  365SOL     OW 1093   1.083   1.931   1.369 -0.2030  0.5244  0.1214
  365SOL    HW1 1094   0.994   1.915   1.425 -1.2137 -1.7675  0.9056
  365SOL    HW2 1095   1.081   1.886   1.274 -0.0845  1.0151 -0.1718
  366SOL     OW 1096   2.827   2.069   0.469 -0.0208  0.5568 -0.1762
  366SOL    HW1 1097   2.739   2.019   0.481  2.9036 -0.4702  0.6628
  366SOL    HW2 1098   2.896   2.022   0.405  2.5183 -0.1879 -1.2411
  367SOL     OW 1099   0.809   1.221   0.088  0.2260 -0.4898  0.6158
  367SOL    HW1 1100   0.753   1.149   0.137  1.2617  1.8315 -1.7443
  367SOL    HW2 1101   0.852   1.196  -0.006 -1.8511  0.8595  1.8832
  368SOL     OW 1102   1.558   0.540   0.691 -0.4337  0.3284  0.3029
  368SOL    HW1 1103   1.513   0.580   0.606 -1.1016  4.0091  0.2523
  368SOL    HW2 1104   1.653   0.581   0.708  1.2234  0.2447 -1.2661
  369SOL     OW 1105   0.292   1.700   0.109  0.2742 -0.0325 -0.1308
  369SOL    HW1 1106   0.297   1.797   0.135 -0.6520  0.7916 -2.4361
  369SOL    HW2 1107   0.197   1.678   0.068 -0.2556  3.5459  2.4110
  370SOL     OW 1108   0.397   2.117   0.976 -0.3024 -0.2913  0.2450
  370SOL    HW1 1109   0.427   2.212   0.945 -1.7775  1.6500  1.8702
  370SOL    HW2 1110   0.298   2.091   0.955  0.6074 -0.0753  0.9784
  371SOL     OW 1111   2.908   2.200   2.750  0.4267 -0.1445 -0.2247
  371SOL    HW1 1112   2.933   2.145   2.829 -1.4387  0.5613 -1.1808
  371SOL    HW2 1113   2.989   2.255   2.711 -0.1733  2.2966  1.0398
  372SOL     OW 1114   0.913   1.852   0.931  0.1324 -0.3436 -0.8563
  372SOL    HW1 1115   0.911   1.942   0.985  0.0404 -1.3287  0.6553
  372SOL    HW2 1116   1.011   1.835   0.901  1.3026 -0.2120 -3.0404
  373SOL     OW 1117   1.988   2.003   0.933  0.1075 -0.1205  0.3330
  373SOL    HW1 1118   2.052   2.010   1.015  0.0619 -2.1598 -1.3485
  373SOL    HW2 1119   1.893   2.039   0.950  3.1733  1.4629  1.4625
  374SOL     OW 1120   1.900   0.434   0.544 -0.4621 -0.0949  0.4273
  374SOL    HW1 1121   1.867   0.394   0.630  3.1008  2.7685 -2.6722
  374SOL    HW2 1122   2.005   0.415   0.521 -0.7267  0.8888 -0.8834
  375SOL     OW 1123   2.402   2.195   1.094 -0.4908 -1.0171  0.6547
  375SOL    HW1 1124   2.475   2.177   1.021 -1.3902 -2.5660 -0.5203
  375SOL    HW2 1125   2.440   2.181   1.188 -1.3146 -0.8512 -2.5432
  376SOL     OW 1126   3.043   0.613   1.452  0.3256  0.1737  0.2432
  376SOL    HW1 1127   3.099   0.675   1.512  0.0013  0.7112 -0.4176
  376SOL    HW2 1128   2.938   0.620   1.462  0.0480  0.2856  0.0028
  377SOL     OW 1129   2.256   2.882   0.353  0.4167 -0.3759 -0.5108
  377SOL    HW1 1130   2.251   2.986   0.354 -0.7461 -2.5212 -0.5793
  377SOL    HW2 1131   2.351   2.839   0.377  0.6892 -1.5412  0.5266
  378SOL     OW 1132   1.867   1.893   2.631 -0.3109 -0.0798 -0.3310
  378SOL    HW1 1133   1.904   1.805   2.676  1.0332  1.0563  2.1670
  378SOL    HW2 1134   1.867   1.891   2.527 -1.3129  2.9547 -1.5780
  379SOL     OW 1135   0.849   0.081   2.714 -0.7392 -0.6170  0.0989
  379SOL    HW1 1136   0.823  -0.016   2.679  0.9624 -1.2056  0.4931
  379SOL    HW2 1137   0.771   0.149   2.694 -3.4649 -0.8791 -1.2858
  380SOL     OW 1138   1.527   1.152   0.586 -0.2499  0.1377  0.2007
  380SOL    HW1 1139   1.423   1.151   0.556 -2.9072  1.1250 -1.2361
  380SOL    HW2 1140   1.568   1.056   0.590  0.4321  1.6418  3.2270
  381SOL     OW 1141   1.305   1.210   1.502  0.4267  0.1063 -0.2196
  381SOL    HW1 1142   1.341   1.241   1.413 -1.0792 -1.7407  2.0312
  381SOL    HW2 1143   1.340   1.263   1.584  1.4401 -0.0580 -0.1579
  382SOL     OW 1144   1.741   0.820   0.269  0.1813 -0.3176  0.0890
  382SOL    HW1 1145   1.773   0.780   0.176  1.7846 -0.0224 -1.0446
  382SOL    HW2 1146   1.803   0.789   0.348  0.7046 -0.8430 -1.1653
  383SOL     OW 1147   2.604   1.019   1.529 -0.2032 -0.2998 -0.3934
  383SOL    HW1 1148   2.514   0.984   1.486 -2.8362 -3.2476 -0.9389
  383SOL    HW2 1149   2.689   0.997   1.469 -0.6846  0.1718  1.9514
  384SOL     OW 1150   0.949   2.266   0.140 -0.3294  0.4296 -0.6406
  384SOL    HW1 1151   0.890   2.339   0.179  1.1034 -0.9186  0.3025
  384SOL    HW2 1152   0.921   2.165   0.165 -1.2604 -3.7588 -2.9020
  385SOL     OW 1153   3.016   2.011   1.731 -0.3058 -0.0205  0.6544
  385SOL    HW1 1154   3.079   2.088   1.758  2.9043 -1.8124 -1.8310
  385SOL    HW2 1155   3.079   1.938   1.698  2.1284 -0.4087  0.6944
  386SOL     OW 1156   0.437   1.121   0.438  0.0804  0.0855 -0.3704
  386SOL    HW1 1157   0.409   1.019   0.437 -0.7138  0.1605  1.5945
  386SOL    HW2 1158   0.380   1.179   0.376 -1.4366  1.5519 -0.4334
  387SOL     OW 1159   0.973   0.337   1.679 -0.0371 -0.8441 -0.2586
  387SOL    HW1 1160   1.023   0.427   1.673  1.2119  0.1997 -0.2906
  387SOL    HW2 1161   0.973   0.283   1.588 -0.7839  3.3626  1.4837
  388SOL     OW 1162   1.193   2.610   1.782 -0.8084  0.1313  0.0427
  388SOL    HW1 1163   1.202   2.627   1.681 -0.5763  2.9879 -2.2907
  388SOL    HW2 1164   1.259   2.543   1.823  2.1233  1.4939  0.9483
  389SOL     OW 1165   0.247   3.080   1.148  0.2379  0.1725 -0.2761
  389SOL    HW1 1166   0.192   3.078   1.234 -1.5193  3.1817  0.4821
  389SOL    HW2 1167   0.320   3.002   1.137  2.8724 -0.7702  1.8268
  390SOL     OW 1168   1.020   0.866   1.258  0.4728  0.4012 -0.2908
  390SOL    HW1 1169   1.121   0.842   1.245  1.6252  1.1466  0.4820
  390SOL    HW2 1170   0.973   0.847   1.349  2.2402  1.7249 -2.2089
  391SOL     OW 1171   2.122   1.141   1.016 -0.3653 -0.3487  0.2108
  391SOL    HW1 1172   2.037   1.088   1.031  1.8236  2.8792  2.1966
  391SOL    HW2 1173   2.183   1.105   0.936 -2.0525 -2.6991  1.0929
  392SOL     OW 1174   0.871   2.715   3.092  0.0056  0.4145  0.2708
  392SOL    HW1 1175   0.802   2.691   3.162 -0.4729  0.3666 -1.8563
  392SOL    HW2 1176   0.959   2.753   3.131 -0.5142 -1.0057  0.4846
  393SOL     OW 1177   0.329   0.582   1.979  0.2316 -0.0963  0.5068
  393SOL    HW1 1178   0.245   0.524   1.963  0.6783  0.1795  2.1703
  393SOL    HW2 1179   0.418   0.553   1.930  0.0706  1.8731 -0.2275
  394SOL     OW 1180   2.826   1.788   2.782  0.4927  0.6911 -0.1500
  394SOL    HW1 1181   2.919   1.804   2.737  0.4144 -1.4745  0.9418
  394SOL    HW2 1182   2.772   1.881   2.789 -0.1979  1.7598  0.0165
  395SOL     OW 1183   1.593   1.926   0.680  0.2737 -0.1223  0.5967
  395SOL    HW1 1184   1.666   1.852   0.649 -1.3971 -2.2343 -0.6624
  395SOL    HW2 1185   1.617   1.975   0.772 -1.0946 -0.3449  0.2297
  396SOL     OW 1186   2.754   2.061   1.269  0.2583  0.2406  0.2265
  396SOL    HW1 1187   2.774   2.055   1.368 -1.6006  0.1966 -0.4714
  396SOL    HW2 1188   2.651   2.064   1.255 -1.1813 -0.2173 -0.8177
  397SOL     OW 1189   1.002   2.095   0.649 -0.3102 -0.9473 -0.3213
  397SOL    HW1 1190   0.924   2.058   0.598  0.6521  0.6136  0.2696
  397SOL    HW2 1191   0.981   2.181   0.708  1.2180  1.8871  0.2383
  398SOL     OW 1192   2.143   0.046   1.088  0.3003  0.1955 -0.4926
  398SOL    HW1 1193   2.117  -0.058   1.098 -1.5881 -0.7342  1.0052
  398SOL    HW2 1194   2.066   0.111   1.078  0.8865 -0.1772 -3.4150
  399SOL     OW 1195   2.951   2.594   2.743  0.4598 -0.7418 -0.7492
  399SOL    HW1 1196   2.899   2.557   2.657  1.6374  0.4807  0.4451
  399SOL    HW2 1197   2.904   2.568   2.834 -0.0627  0.4143  0.9701
  400SOL     OW 1198   0.828   1.602   1.270  0.4353 -0.0064 -0.0088
  400SOL    HW1 1199   0.767   1.651   1.339 -0.9431  0.2365 -1.6691
  400SOL    HW2 1200   0.807   1.626   1.169  1.9880 -0.3402 -0.3040
  401SOL     OW 1201   1.845   0.105   1.290 -0.3365  0.3594 -0.0696
  401SOL    HW1 1202   1.893   0.160   1.365 -0.1463 -2.7179 -1.7787
  401SOL    HW2 1203   1.749   0.075   1.315 -0.0600 -0.2483  1.6545
  402SOL     OW 1204   1.303   0.160   3.046  0.1344 -0.1560 -0.0727
  402SOL    HW1 1205   1.405   0.146   3.028 -1.5899  0.5938  0.9901
  402SOL    HW2 1206   1.277   0.241   3.095 -0.8883 -4.0501 -4.8209
  403SOL     OW 1207   2.263   1.792   0.965  0.2649  0.4529 -0.4825
  403SOL    HW1 1208   2.364   1.795   0.962 -0.2358  2.7405 -1.4687
  403SOL    HW2 1209   2.222   1.856   1.038  0.9879 -0.4963 -1.7600
  404SOL     OW 1210   0.198   2.447   2.799 -0.2556 -0.1175  0.3242
  404SOL    HW1 1211   0.299   2.444   2.764  0.5261  0.8760  0.4747
  404SOL    HW2 1212   0.173   2.547   2.811  3.6770 -1.5119  4.2192
  405SOL     OW 1213   0.264   2.495   0.595  0.2400  0.9786  0.1688
  405SOL    HW1 1214   0.239   2.472   0.499 -1.3877  0.3167 -0.6377
  405SOL    HW2 1215   0.335   2.571   0.603  4.2311  1.3429 -0.9446
  406SOL     OW 1216   0.030   1.510   2.969 -0.0961 -0.0161 -0.5046
  406SOL    HW1 1217   0.101   1.436   2.940  0.0650 -0.0601 -1.1297
  406SOL    HW2 1218   0.023   1.521   3.071 -0.2482  1.2152 -1.3014
  407SOL     OW 1219   1.543   0.945   0.935  0.1610 -0.2444 -0.7057
  407SOL    HW1 1220   1.545   0.934   0.833  0.9955  0.0199 -1.9210
  407SOL    HW2 1221   1.477   1.020   0.968  0.1899  1.5298  0.0119
  408SOL     OW 1222   1.451   2.351   0.964  0.2305  0.3090  0.3098
  408SOL    HW1 1223   1.534   2.354   0.904 -0.3189  1.2215 -0.2524
  408SOL    HW2 1224   1.462   2.428   1.035  2.4799  2.4759  2.4518
  409SOL     OW 1225   0.632   0.885   0.665  0.5443  0.0890 -0.1443
  409SOL    HW1 1226   0.561   0.920   0.603  1.0042  0.9514  0.9029
  409SOL    HW2 1227   0.649   0.784   0.652  0.2470  2.2096  0.7306
  410SOL     OW 1228   1.328   1.997   1.499  0.4400 -0.1211  0.0234
  410SOL    HW1 1229   1.321   2.082   1.567 -1.8780  1.4338 -0.0533
  410SOL    HW2 1230   1.233   1.965   1.477 -1.0358  2.4947  1.2269
  411SOL     OW 1231   2.367   1.846   0.031  0.3775 -0.0075  0.0089
  411SOL    HW1 1232   2.290   1.828  -0.037 -2.1627 -2.4191 -1.3775
  411SOL    HW2 1233   2.462   1.833  -0.007 -1.2137 -0.3305 -1.7027
  412SOL     OW 1234   1.507   2.410   2.250  0.3217 -0.3334 -0.6057
  412SOL    HW1 1235   1.455   2.492   2.214  0.4555 -0.5312  1.5006
  412SOL    HW2 1236   1.455   2.367   2.334 -2.1735  0.3108 -2.5566
  413SOL     OW 1237   3.031   0.259   2.897  0.3435 -0.2167  0.5310
  413SOL    HW1 1238   2.974   0.176   2.911 -1.1062 -0.0475  2.6882
  413SOL    HW2 1239   3.123   0.249   2.947 -0.3124 -0.5332 -0.0205
  414SOL     OW 1240   1.782   1.326   1.317  0.1751 -0.3193 -0.5186
  414SOL    HW1 1241   1.700   1.382   1.358  0.4557 -2.2812 -0.1908
  414SOL    HW2 1242   1.783   1.328   1.211 -0.3498  0.6196 -3.1950
  415SOL     OW 1243   0.352   2.264   0.664  0.4426  0.7894 -0.1140
  415SOL    HW1 1244   0.313   2.359   0.639 -3.3255 -0.9060 -0.6490
  415SOL    HW2 1245   0.278   2.195   0.687 -2.5314  0.0799  1.7177
  416SOL     OW 1246   0.354   1.035   1.040  0.1669 -0.2419  0.2313
  416SOL    HW1 1247   0.315   1.003   0.948  0.1012 -0.0482 -0.2562
  416SOL    HW2 1248   0.414   1.115   1.041 -0.0262 -3.3569 -0.1408
  417SOL     OW 1249   2.145   2.334   1.865 -0.0649 -0.0180  0.1774
  417SOL    HW1 1250   2.181   2.234   1.865 -0.8664 -1.6326 -0.2581
  417SOL    HW2 1251   2.041   2.346   1.895 -0.3151  2.6831  1.9482
  418SOL     OW 1252   1.122   0.408   1.381  0.1646  0.0781 -0.4063
  418SOL    HW1 1253   1.025   0.416   1.347  5.3097  0.3519  1.7193
  418SOL    HW2 1254   1.187   0.420   1.301 -1.2774  0.4082 -1.1781
  419SOL     OW 1255   0.973   0.359   3.004 -0.0051  0.0502  0.0442
  419SOL    HW1 1256   0.972   0.405   2.910 -2.1089 -0.5282 -0.9110
  419SOL    HW2 1257   0.937   0.260   3.002 -1.2713  0.5631 -0.6533
  420SOL     OW 1258   0.200   2.289   0.366  0.1110 -0.1124  0.2985
  420SOL    HW1 1259   0.189   2.238   0.272 -0.6505  0.8501 -2.3615
  420SOL    HW2 1260   0.122   2.287   0.434 -1.3388 -1.1122  0.8448
  421SOL     OW 1261   0.344   0.013   0.659 -0.1305 -1.0560 -0.3759
  421SOL    HW1 1262   0.328  -0.069   0.599 -2.2117  0.6511 -0.6451
  421SOL    HW2 1263   0.444   0.040   0.675  0.1557 -1.4173  0.0169
  422SOL     OW 1264   0.935   2.514   1.019 -0.0575 -0.0947 -0.3904
  422SOL    HW1 1265   0.955   2.597   0.957  1.8515 -0.7895 -0.6801
  422SOL    HW2 1266   0.965   2.536   1.120  0.6354  3.0969 -0.2124
  423SOL     OW 1267   0.015   0.721   1.205 -0.1952  0.4383 -0.0626
  423SOL    HW1 1268  -0.007   0.679   1.296  0.6902  2.6221 -3.6088
  423SOL    HW2 1269  -0.046   0.803   1.184 -1.4521  1.5458 -2.4929
  424SOL     OW 1270   1.004   2.147   2.215  0.7167 -0.2481 -0.5653
  424SOL    HW1 1271   1.009   2.245   2.179  1.0324  0.0334 -3.4378
  424SOL    HW2 1272   0.956   2.141   2.309  0.1338  0.5952 -2.8339
  425SOL     OW 1273   2.035   1.412   1.085  0.1435 -0.1060 -0.3331
  425SOL    HW1 1274   2.053   1.311   1.087 -1.6762  0.2189  0.4816
  425SOL    HW2 1275   2.085   1.452   1.008 -0.7114 -0.3001  4.9594
  426SOL     OW 1276   1.563   1.504   1.402 -0.0177  0.3685  0.3395
  426SOL    HW1 1277   1.534   1.584   1.336 -2.2088  1.3679 -0.8536
  426SOL    HW2 1278   1.564   1.541   1.501  2.2740  1.9495  0.2814
  427SOL     OW 1279   1.925   2.354   2.021 -0.2592 -0.2318 -0.0749
  427SOL    HW1 1280   1.970   2.289   2.088 -2.5520  2.0428 -0.3473
  427SOL    HW2 1281   1.933   2.457   2.040 -0.7700  1.0976 -0.8414
  428SOL     OW 1282   0.939   3.065   0.109  0.0327 -0.4384  0.3883
  428SOL    HW1 1283   0.980   3.148   0.163  1.2207  0.8066  2.8090
  428SOL    HW2 1284   1.012   2.989   0.092 -1.1093  0.5118 -0.3829
  429SOL     OW 1285   1.328   0.022   0.220  0.4270  0.5990  0.2934
  429SOL    HW1 1286   1.419   0.057   0.249 -0.3344 -0.3858  1.5818
  429SOL    HW2 1287   1.315   0.004   0.119  0.1252  0.6245 -2.3125
  430SOL     OW 1288   2.816   1.513   0.370 -0.1214 -0.0008 -0.1706
  430SOL    HW1 1289   2.758   1.560   0.302  2.9428  1.1040  2.4819
  430SOL    HW2 1290   2.810   1.552   0.467 -1.3884  1.2971  0.5338
  431SOL     OW 1291   2.114   1.589   0.862 -0.6384  0.3180  0.4355
  431SOL    HW1 1292   2.176   1.654   0.917 -2.0917  0.0276  2.2681
  431SOL    HW2 1293   2.021   1.630   0.843 -0.6523 -1.7711  0.4969
  432SOL     OW 1294   2.884   2.295   1.235 -0.2365 -0.3251  0.1333
  432SOL    HW1 1295   2.833   2.209   1.256  2.5070 -0.6180 -2.8436
  432SOL    HW2 1296   2.966   2.293   1.297 -1.1746 -1.8332  2.7531
  433SOL     OW 1297   1.840   0.300   0.788 -0.2856  0.4986 -0.3421
  433SOL    HW1 1298   1.756   0.342   0.831 -0.7993  1.0485 -1.1233
  433SOL    HW2 1299   1.902   0.251   0.851  2.8618  1.6066  0.2210
  434SOL     OW 1300   1.539   0.266   0.722  0.2291  0.2500 -0.3981
  434SOL    HW1 1301   1.541   0.368   0.686 -0.4705  1.2257  2.4100
  434SOL    HW2 1302   1.568   0.264   0.821 -1.0499 -1.0214  2.0991
  435SOL     OW 1303   1.420   1.526   2.125  0.4822  0.5921 -0.2359
  435SOL    HW1 1304   1.394   1.488   2.218 -0.7202 -0.7071  2.0033
  435SOL    HW2 1305   1.338   1.570   2.080 -0.6706 -0.3494 -2.4536
  436SOL     OW 1306   1.620   2.730   2.384  0.1958 -0.4348 -0.6092
  436SOL    HW1 1307   1.643   2.823   2.429 -0.7900 -0.0986  1.9887
  436SOL    HW2 1308   1.609   2.658   2.456 -0.2427 -0.9206  0.9204
  437SOL     OW 1309   1.061   2.953   0.821  0.8100 -0.8286  0.1917
  437SOL    HW1 1310   1.014   3.045   0.806  0.6092  1.5039  0.5697
  437SOL    HW2 1311   1.114   2.960   0.909 -0.4178 -0.2869  0.3437
  438SOL     OW 1312   1.000   2.506   1.309  0.2721 -0.6139 -0.6479
  438SOL    HW1 1313   1.042   2.567   1.388  1.3451 -1.1628 -0.4324
  438SOL    HW2 1314   1.005   2.400   1.321  0.4687 -0.3167  0.5838
  439SOL     OW 1315   0.705   1.689   1.025  0.2267 -0.1035 -0.0028
  439SOL    HW1 1316   0.742   1.778   0.995 -2.3365  0.0479 -0.3035
  439SOL    HW2 1317   0.604   1.697   1.036  1.5741 -0.6932  1.2454
  440SOL     OW 1318   1.037   2.423   2.032  0.1748  0.6782  0.5131
  440SOL    HW1 1319   0.978   2.453   1.953  0.3066  3.3410 -0.0162
  440SOL    HW2 1320   1.139   2.443   2.014  0.6278  1.2387  1.1867
  441SOL     OW 1321   0.338   2.716   1.300 -0.0101 -0.5551 -0.1606
  441SOL    HW1 1322   0.392   2.637   1.334  2.1275  2.1520  0.3820
  441SOL    HW2 1323   0.372   2.750   1.210 -1.0895  0.4291  0.0684
  442SOL     OW 1324   2.243   0.657   2.574  0.3360  0.3876  0.2634
  442SOL    HW1 1325   2.248   0.555   2.600 -1.7848 -1.4898  0.7183
  442SOL    HW2 1326   2.158   0.676   2.519  0.5014 -0.6448  0.3086
  443SOL     OW 1327   1.261   2.557   2.218  0.3675  0.1773  0.2359
  443SOL    HW1 1328   1.239   2.458   2.251  1.8037  0.7165  2.0058
  443SOL    HW2 1329   1.206   2.621   2.272  0.6637  0.6903  1.2570
  444SOL     OW 1330   1.021   1.216   1.461  0.5593  0.1941 -0.1481
  444SOL    HW1 1331   1.122   1.196   1.484 -2.1551 -0.2539  0.4284
  444SOL    HW2 1332   1.005   1.319   1.462  2.5720 -0.9105 -1.4571
  445SOL     OW 1333   0.189   2.267   2.101 -0.4781  0.1419 -0.5538
  445SOL    HW1 1334   0.088   2.257   2.126  3.0897 -0.6569  0.0437
  445SOL    HW2 1335   0.246   2.186   2.133  0.7014  0.3515  0.1638
  446SOL     OW 1336   0.130   1.955   2.369 -0.2158  0.3351 -0.7906
  446SOL    HW1 1337   0.077   2.047   2.363  2.0660  1.3928  1.9283
  446SOL    HW2 1338   0.141   1.914   2.276  3.2714 -1.0854  1.3161
  447SOL     OW 1339   1.286   1.723   1.917  0.0573 -0.2931  0.4357
  447SOL    HW1 1340   1.198   1.766   1.951 -0.6892 -2.6826 -0.0481
  447SOL    HW2 1341   1.366   1.764   1.971 -1.8353  0.3175 -0.4476
  448SOL     OW 1342   0.183   1.462   2.035 -0.0634  0.0748  0.2802
  448SOL    HW1 1343   0.199   1.549   1.986 -0.3245 -1.7130  2.4900
  448SOL    HW2 1344   0.117   1.483   2.116  2.3836  0.4297  0.2018
  449SOL     OW 1345   1.842   2.941   0.820  0.6863  0.1061  0.6509
  449SOL    HW1 1346   1.826   2.971   0.921 -0.7913 -0.4541 -2.2975
  449SOL    HW2 1347   1.893   2.852   0.807  0.7603 -1.3239 -0.0630
  450SOL     OW 1348   2.244   1.458   0.675 -0.4276 -0.7833  0.0261
  450SOL    HW1 1349   2.172   1.507   0.733  1.5320  0.0457 -1.6853
  450SOL    HW2 1350   2.299   1.530   0.621 -0.6306 -0.8369  0.6069
  451SOL     OW 1351   1.405   3.012   1.471 -0.2793  0.4203  0.9140
  451SOL    HW1 1352   1.330   3.091   1.479 -2.5745  1.0458 -0.7394
  451SOL    HW2 1353   1.439   2.970   1.558  2.7072 -1.6399 -2.7071
  452SOL     OW 1354   2.699   2.324   2.253 -0.1661 -0.0429  0.0378
  452SOL    HW1 1355   2.617   2.390   2.245  0.4717  1.9133 -2.3860
  452SOL    HW2 1356   2.735   2.307   2.353 -2.4302  0.6980  1.7813
  453SOL     OW 1357   2.462   2.649   3.078 -0.1568 -0.3148 -0.3632
  453SOL    HW1 1358   2.383   2.704   3.111 -0.4440  1.8254 -0.8862
  453SOL    HW2 1359   2.450   2.612   2.989  0.7192  1.6082  2.0453
  454SOL     OW 1360   0.939   1.197   2.007  0.0914  0.4906 -0.5782
  454SOL    HW1 1361   0.924   1.146   1.917 -1.0371 -0.8976  0.5257
  454SOL    HW2 1362   1.020   1.265   2.006  1.0622  0.4204  0.7024
  455SOL     OW 1363   0.642   2.642   2.812  0.2288  0.1740  0.7228
  455SOL    HW1 1364   0.725   2.709   2.824  3.2165  2.0504 -2.6643
  455SOL    HW2 1365   0.645   2.553   2.869 -0.3751 -2.6773  2.0005
  456SOL     OW 1366   0.371   1.945   0.219 -0.0064  0.2480 -0.5916
  456SOL    HW1 1367   0.466   1.919   0.251 -1.9269 -0.0816  2.8072
  456SOL    HW2 1368   0.355   2.047   0.214  2.2539  0.1723 -0.5236
  457SOL     OW 1369   0.418   2.770   0.661 -0.1485  0.3962 -0.3346
  457SOL    HW1 1370   0.403   2.819   0.567  2.2555 -0.7404 -1.3669
  457SOL    HW2 1371   0.520   2.756   0.674  1.6577 -0.8759  1.5871
  458SOL     OW 1372   2.924   0.039   1.260 -0.2312  0.0064 -0.0883
  458SOL    HW1 1373   2.959   0.137   1.264  0.8000  1.2433 -2.0597
  458SOL    HW2 1374   2.936   0.003   1.161 -1.7815  0.1250 -1.5770
  459SOL     OW 1375   2.192   2.484   0.763  0.7641  0.0713  0.2901
  459SOL    HW1 1376   2.246   2.548   0.829 -0.6576  0.8119  0.7658
  459SOL    HW2 1377   2.241   2.394   0.740 -1.4762 -1.7827  0.0718
  460SOL     OW 1378   1.180   2.058   2.754  0.7422 -0.2684 -0.3568
  460SOL    HW1 1379   1.217   2.063   2.656  1.3816 -0.6873  0.2853
  460SOL    HW2 1380   1.212   1.970   2.802  2.3948 -0.4538  0.0664
  461SOL     OW 1381   0.462   2.132   2.720 -0.5473 -0.7635 -0.0584
  461SOL    HW1 1382   0.402   2.079   2.657  0.5557  2.0009 -0.2977
  461SOL    HW2 1383   0.474   2.090   2.815 -0.8276  3.7453 -2.6712
  462SOL     OW 1384   0.952   1.014   1.752 -0.1097  0.0310 -0.0729
  462SOL    HW1 1385   0.955   0.935   1.689 -2.1818  0.9217  1.3640
  462SOL    HW2 1386   0.869   1.072   1.738  1.3709 -0.5242  2.2289
  463SOL     OW 1387   0.437   0.842   0.473 -0.2944  0.5705  0.2394
  463SOL    HW1 1388   0.483   0.755   0.455  0.8778  1.1703  0.5473
  463SOL    HW2 1389   0.333   0.842   0.478  0.9243  0.4351 -1.0675
  464SOL     OW 1390   0.603   2.346   2.237  0.5781  0.4390 -0.1373
  464SOL    HW1 1391   0.545   2.401   2.308  2.4543  1.0880  0.6275
  464SOL    HW2 1392   0.564   2.347   2.139 -2.9144  1.1036  1.1432
  465SOL     OW 1393   0.248   0.945   0.806  0.2454  0.2700  0.3953
  465SOL    HW1 1394   0.154   0.957   0.767  1.5530 -1.8681  1.0150
  465SOL    HW2 1395   0.269   0.844   0.799 -1.0449  1.2543 -1.0810
  466SOL     OW 1396   1.360   1.132   1.029 -0.2742 -0.2001  0.1815
  466SOL    HW1 1397   1.358   1.228   0.986  4.1147  0.3027 -1.1367
  466SOL    HW2 1398   1.268   1.091   1.052 -1.1831  2.7680  0.6026
  467SOL     OW 1399   0.614   0.421   2.474 -0.2308  0.0364 -0.4746
  467SOL    HW1 1400   0.551   0.488   2.523  0.5020  1.1529  1.6540
  467SOL    HW2 1401   0.632   0.339   2.530 -0.7409  2.3035 -0.5109
  468SOL     OW 1402   0.440   2.246   1.616 -0.2870 -0.3021  0.6870
  468SOL    HW1 1403   0.529   2.293   1.650 -0.9204 -0.3835  0.3997
  468SOL    HW2 1404   0.437   2.229   1.513  0.5654  0.4352  1.5241
  469SOL     OW 1405   1.391   1.347   1.238 -0.3485 -0.8056  0.2672
  469SOL    HW1 1406   1.431   1.372   1.139  0.2038 -0.4590  0.1069
  469SOL    HW2 1407   1.453   1.387   1.311 -1.3320  1.0005  0.6922
  470SOL     OW 1408   3.034   1.797   0.756  0.2471 -0.5567 -0.2173
  470SOL    HW1 1409   3.106   1.766   0.686 -0.1349  0.4162  0.1280
  470SOL    HW2 1410   3.040   1.734   0.834  0.6837  0.8737 -1.3447
  471SOL     OW 1411   2.582   1.394   2.187 -0.7634  0.1230 -0.2710
  471SOL    HW1 1412   2.588   1.291   2.197  0.2998  1.3187 -1.4917
  471SOL    HW2 1413   2.677   1.435   2.197  0.4243  0.7379 -0.4050
  472SOL     OW 1414   1.146   2.488   0.105 -0.6013 -0.5868 -0.0930
  472SOL    HW1 1415   1.223   2.486   0.179  2.9147 -1.6250 -2.3104
  472SOL    HW2 1416   1.091   2.402   0.107 -1.6224  0.4490 -0.2955
  473SOL     OW 1417   1.059   1.524   1.009  0.0559 -0.6032  0.0368
  473SOL    HW1 1418   0.971   1.522   0.954  0.2764 -0.8690  1.6021
  473SOL    HW2 1419   1.056   1.460   1.093 -0.7717 -2.3858 -0.2553
  474SOL     OW 1420   0.650   1.283   0.545  0.2681 -0.0783  0.2611
  474SOL    HW1 1421   0.582   1.215   0.502 -0.5712  0.8742  0.6827
  474SOL    HW2 1422   0.734   1.245   0.593 -0.4644  0.1092  0.6929
  475SOL     OW 1423   2.813   0.064   0.819 -0.5124 -0.1819  0.4155
  475SOL    HW1 1424   2.881   0.143   0.825  0.7624 -0.1614 -0.0992
  475SOL    HW2 1425   2.719   0.102   0.843 -1.2268 -1.2964 -2.2822
  476SOL     OW 1426   0.958   3.059   1.804  0.0124 -0.7216 -0.2656
  476SOL    HW1 1427   1.053   3.105   1.796  0.8061 -1.4285 -1.0054
  476SOL    HW2 1428   0.926   3.027   1.709 -0.7840  0.2965  2.2017
  477SOL     OW 1429   1.446   0.301   2.403  0.5055 -0.1723  0.1486
  477SOL    HW1 1430   1.444   0.315   2.507  0.3288 -1.4666 -0.0702
  477SOL    HW2 1431   1.534   0.251   2.373  1.4080 -1.8398  1.8937
  478SOL     OW 1432   2.249   1.899   0.279  0.1411 -0.3226  0.0380
  478SOL    HW1 1433   2.214   1.832   0.349 -0.1761  0.1246  3.9771
  478SOL    HW2 1434   2.303   1.858   0.198  0.8567  2.4542  3.3657
  479SOL     OW 1435   1.249   0.968   2.901 -0.2613  0.2271  0.0065
  479SOL    HW1 1436   1.338   0.981   2.849 -0.7100 -0.4427 -2.4662
  479SOL    HW2 1437   1.187   0.897   2.858 -2.3941  0.3543  2.4279
  480SOL     OW 1438   2.662   2.302   0.384  0.4801 -0.1880 -0.0647
  480SOL    HW1 1439   2.725   2.248   0.444 -2.4597 -1.4014  0.5110
  480SOL    HW2 1440   2.564   2.277   0.391 -0.0814  0.4795  1.1413
  481SOL     OW 1441   1.042   1.168   0.882  0.1586  0.5207  0.2415
  481SOL    HW1 1442   1.062   1.264   0.859  2.2663  0.9328 -1.2367
  481SOL    HW2 1443   1.083   1.137   0.976  1.8754  0.3371  0.2486
  482SOL     OW 1444   1.566   0.301   1.980 -0.3414  0.0823  0.0794
  482SOL    HW1 1445   1.574   0.402   1.966 -0.2837  1.5187  0.2440
  482SOL    HW2 1446   1.652   0.260   2.024  1.5414 -0.7240 -0.6839
  483SOL     OW 1447   0.224   2.325   1.197  0.0857  0.2827  0.1632
  483SOL    HW1 1448   0.184   2.403   1.246  0.1032 -2.3673  1.7250
  483SOL    HW2 1449   0.227   2.351   1.096 -0.0686 -0.6458  1.4653
  484SOL     OW 1450   1.734   1.054   1.341  0.8171  0.1695 -0.5542
  484SOL    HW1 1451   1.807   1.006   1.399  0.7210 -0.3891 -3.8886
  484SOL    HW2 1452   1.747   1.157   1.340  0.8575  0.6708 -1.3451
  485SOL     OW 1453   0.739   0.745   1.838  0.0735 -0.4468 -0.4134
  485SOL    HW1 1454   0.714   0.818   1.769  0.6618 -0.6795 -0.1185
  485SOL    HW2 1455   0.831   0.705   1.823 -3.5092  0.9126  1.2369
  486SOL     OW 1456   0.841   1.887   2.424 -0.3841  0.2634 -0.1965
  486SOL    HW1 1457   0.862   1.936   2.517  0.6274 -1.5974  0.1849
  486SOL    HW2 1458   0.796   1.945   2.355  0.1937  2.2455  0.2788
  487SOL     OW 1459   1.778   1.616   1.038 -0.0181 -0.4159  0.3294
  487SOL    HW1 1460   1.821   1.523   1.057  1.6431 -0.1184 -2.4671
  487SOL    HW2 1461   1.835   1.676   0.977  0.3865 -1.5693  1.0462
  488SOL     OW 1462   2.930   0.792   2.280  0.3050  0.4438  0.4068
  488SOL    HW1 1463   3.001   0.721   2.261 -1.7606  0.6499 -1.0520
  488SOL    HW2 1464   2.879   0.762   2.368 -0.5012 -0.8167 -0.9796
  489SOL     OW 1465   2.771   0.327   1.300 -0.1471 -0.6104  0.2587
  489SOL    HW1 1466   2.774   0.269   1.385 -0.5770  2.8719  1.8458
  489SOL    HW2 1467   2.857   0.321   1.242 -0.0409  1.0959 -0.2996
  490SOL     OW 1468   1.437   2.921   2.819 -0.1138 -0.4341  0.1965
  490SOL    HW1 1469   1.495   2.836   2.839  2.7639  0.9080 -0.6322
  490SOL    HW2 1470   1.401   2.915   2.722 -1.6407 -0.1759  0.9965
  491SOL     OW 1471   1.749   1.494   2.722 -0.3698  0.4282 -0.4038
  491SOL    HW1 1472   1.753   1.422   2.799  0.6475 -2.2208  1.1567
  491SOL    HW2 1473   1.829   1.564   2.728  2.4445 -0.1525 -0.2666
  492SOL     OW 1474   0.545   2.072   0.645 -0.6876 -0.8677  0.2453
  492SOL    HW1 1475   0.608   2.068   0.736 -0.7487 -0.8618  2.5210
  492SOL    HW2 1476   0.480   2.150   0.646  1.1246  0.9946  0.4869
  493SOL     OW 1477   0.434   1.347   2.089  0.4706  0.0276  0.4087
  493SOL    HW1 1478   0.348   1.401   2.068 -0.4725 -1.9702 -0.9711
  493SOL    HW2 1479   0.423   1.246   2.077  1.5652  1.2448 -0.6943
  494SOL     OW 1480   2.707   2.628   0.107 -0.0895 -0.7687 -0.3445
  494SOL    HW1 1481   2.716   2.616   0.211 -1.3083 -1.3815  0.8764
  494SOL    HW2 1482   2.615   2.661   0.073 -0.6583 -0.6998  1.1354
  495SOL     OW 1483   2.531   2.830   2.635 -0.0327 -0.0259 -0.1433
  495SOL    HW1 1484   2.545   2.729   2.627 -2.6411 -0.6986 -4.0179
  495SOL    HW2 1485   2.566   2.880   2.551 -0.2506  1.7736 -0.6481
  496SOL     OW 1486   1.967   2.293   0.823  0.7820  0.6251 -0.5922
  496SOL    HW1 1487   2.033   2.343   0.880 -2.3613  1.0351  0.3077
  496SOL    HW2 1488   1.978   2.189   0.833  1.3192 -0.1626  0.7967
  497SOL     OW 1489   0.212   3.004   2.370 -0.3890 -0.5109  0.4962
  497SOL    HW1 1490   0.151   3.063   2.421 -1.8369  0.0600  1.0122
  497SOL    HW2 1491   0.237   3.047   2.280  0.1384 -0.0463 -0.0829
  498SOL     OW 1492   1.131   1.377   1.228 -0.4638 -0.0280 -0.2660
  498SOL    HW1 1493   1.236   1.368   1.225  0.8948  1.6191  1.7545
  498SOL    HW2 1494   1.096   1.420   1.317  0.4118 -1.0493 -0.9099
  499SOL     OW 1495   0.606   1.832   0.340  0.6961 -0.3077  0.0564
  499SOL    HW1 1496   0.647   1.766   0.275  0.3513  0.3879  2.7701
  499SOL    HW2 1497   0.685   1.870   0.398  0.7826 -0.7908  1.8626
  500SOL     OW 1498   1.539   2.873   1.684 -0.1857  0.3186 -0.4507
  500SOL    HW1 1499   1.560   2.839   1.778 -0.4495  0.6537  1.7163
  500SOL    HW2 1500   1.527   2.794   1.620  0.6026 -0.9297  2.3053
  501SOL     OW 1501   0.797   1.181   2.293 -0.1935 -0.0577 -0.1459
  501SOL    HW1 1502   0.733   1.095   2.298 -0.9973  0.2941 -0.5735
  501SOL    HW2 1503   0.840   1.186   2.201 -0.5996 -1.9956  4.7381
  502SOL     OW 1504   2.593   0.928   1.774 -0.3582  0.4039  0.5143
  502SOL    HW1 1505   2.603   0.965   1.677  0.2469  0.6121  1.7310
  502SOL    HW2 1506   2.604   0.819   1.781 -1.5453 -1.5421 -0.9659
  503SOL     OW 1507   1.303   0.127   0.676 -0.4100  0.0995 -0.3094
  503SOL    HW1 1508   1.233   0.200   0.682  0.7498 -0.1452 -2.6528
  503SOL    HW2 1509   1.396   0.164   0.698  0.4689 -1.6860 -1.0044
  504SOL     OW 1510   3.038   2.312   1.504  0.4230 -0.3383  0.8787
  504SOL    HW1 1511   2.983   2.397   1.520 -1.1138  1.4552 -0.8172
  504SOL    HW2 1512   3.048   2.256   1.585 -1.4893  1.6035 -2.1676
  505SOL     OW 1513   2.305   1.172   1.467  0.2404 -0.1828 -0.0450
  505SOL    HW1 1514   2.314   1.155   1.364  1.4343 -0.7784 -0.8461
  505SOL    HW2 1515   2.341   1.264   1.496  0.4566  2.2877  3.7333
  506SOL     OW 1516   1.953   0.167   1.834  0.6723 -0.2588  0.3176
  506SOL    HW1 1517   2.050   0.125   1.834 -0.7513 -1.4162  1.2246
  506SOL    HW2 1518   1.946   0.263   1.872  2.8694 -1.7989 -0.2486
  507SOL     OW 1519   0.504   0.701   2.204  0.0352  0.2498 -0.2460
  507SOL    HW1 1520   0.497   0.753   2.111  0.7822  0.7137 -0.7839
  507SOL    HW2 1521   0.591   0.646   2.212  3.7117  2.3806  1.3274
  508SOL     OW 1522   0.309   1.698   0.786  0.4050 -0.0512 -0.4140
  508SOL    HW1 1523   0.353   1.737   0.703  4.6293  0.8844 -0.3011
  508SOL    HW2 1524   0.304   1.764   0.865  0.7923 -0.2889  2.2066
  509SOL     OW 1525   1.286   1.221   2.456 -0.4770  0.6939  0.4123
  509SOL    HW1 1526   1.291   1.233   2.355 -0.1185 -1.3892  0.2633
  509SOL    HW2 1527   1.209   1.155   2.478 -2.2174  0.2124 -0.4389
  510SOL     OW 1528   1.292   2.017   2.219 -0.0712  0.0842 -0.1250
  510SOL    HW1 1529   1.314   2.042   2.119  0.2592  0.7095  0.6529
  510SOL    HW2 1530   1.240   1.926   2.230 -0.4864 -3.8863  0.4240
  511SOL     OW 1531   3.003   2.761   1.295  0.0560  0.0314  0.5203
  511SOL    HW1 1532   3.034   2.799   1.202  0.0093 -0.0952 -1.3579
  511SOL    HW2 1533   2.904   2.738   1.297 -0.1772  1.7365 -1.5406
  512SOL     OW 1534   2.358   0.433   1.374  0.2901 -0.4053 -0.1937
  512SOL    HW1 1535   2.265   0.471   1.346 -0.4015  0.7501 -1.6924
  512SOL    HW2 1536   2.413   0.394   1.296 -1.5880 -0.4715 -3.1561
  513SOL     OW 1537   2.578   2.110   0.891  0.0655  0.7038  0.9077
  513SOL    HW1 1538   2.561   2.188   0.827  0.3670 -0.8289 -0.7437
  513SOL    HW2 1539   2.672   2.068   0.873  2.0120  1.3923  1.0815
  514SOL     OW 1540   0.622   2.721   0.434 -0.0292  0.1896  0.0244
  514SOL    HW1 1541   0.654   2.752   0.339  0.2274  1.9056 -1.5362
  514SOL    HW2 1542   0.675   2.765   0.510 -1.9291  0.8105 -0.5022
  515SOL     OW 1543   1.939   1.341   2.409 -0.3040  0.1923  0.1309
  515SOL    HW1 1544   1.921   1.297   2.318  1.4473  0.7626  0.1599
  515SOL    HW2 1545   1.881   1.299   2.485  0.8065 -0.5390  3.6052
  516SOL     OW 1546   0.246   0.227   1.873 -0.2082  0.6616 -0.2169
  516SOL    HW1 1547   0.346   0.193   1.897 -0.7422  1.0961 -0.0854
  516SOL    HW2 1548   0.180   0.150   1.853  1.2685  1.8788 -2.9414
  517SOL     OW 1549   0.475   0.208   1.160  0.0680  0.1300 -0.1528
  517SOL    HW1 1550   0.541   0.162   1.218  1.6389 -0.7352 -0.6585
  517SOL    HW2 1551   0.383   0.169   1.172  0.2444 -0.2766  0.1392
  518SOL     OW 1552   2.154   3.010   1.831 -0.6136  0.1013 -0.1778
  518SOL    HW1 1553   2.198   3.102   1.841 -0.2058  0.5706 -2.0439
  518SOL    HW2 1554   2.162   2.970   1.738 -4.1990 -1.1244 -1.6458
  519SOL     OW 1555   2.359   2.213   2.544  0.1658 -0.4653 -0.3886
  519SOL    HW1 1556   2.298   2.186   2.626 -3.5314 -1.8690 -2.2600
  519SOL    HW2 1557   2.388   2.313   2.554  1.7061 -0.8380 -0.5585
  520SOL     OW 1558   1.854   2.736   1.688  0.5339  0.7033 -0.1069
  520SOL    HW1 1559   1.797   2.674   1.757 -0.7693 -3.4120  0.9113
  520SOL    HW2 1560   1.939   2.694   1.651 -1.4612  0.2949 -0.3142
  521SOL     OW 1561   0.588   0.057   2.149  0.1719 -0.1594  0.4463
  521SOL    HW1 1562   0.487   0.051   2.165 -1.6191 -1.5531 -3.0153
  521SOL    HW2 1563   0.642   0.044   2.233 -1.9694 -1.4214 -1.2729
  522SOL     OW 1564   0.245   1.899   1.474 -0.3189 -0.6844 -0.2557
  522SOL    HW1 1565   0.265   1.942   1.566  0.6408  0.1938 -0.1982
  522SOL    HW2 1566   0.199   1.967   1.407  0.3955  1.0728  2.2159
  523SOL     OW 1567   2.148   2.934   1.570 -0.0700 -0.3942  0.0627
  523SOL    HW1 1568   2.238   2.879   1.595 -0.2402 -1.3773  0.7871
  523SOL    HW2 1569   2.082   2.890   1.506 -2.5688 -0.9343  1.4865
  524SOL     OW 1570   0.214   2.757   2.795 -0.2623 -0.4209 -0.1072
  524SOL    HW1 1571   0.185   2.842   2.850 -0.3729  1.1939  0.1877
  524SOL    HW2 1572   0.312   2.765   2.757 -3.7133  1.6205  0.5742
  525SOL     OW 1573   2.126   2.059   0.489  0.1494 -0.2111  0.5585
  525SOL    HW1 1574   2.156   2.018   0.578 -2.2902 -0.4656 -0.6311
  525SOL    HW2 1575   2.171   2.008   0.406  2.4543 -0.6686 -2.2418
  526SOL     OW 1576   0.421   1.547   1.739  0.1819 -0.1519  0.4324
  526SOL    HW1 1577   0.515   1.569   1.775 -4.3456 -0.6584  2.4097
  526SOL    HW2 1578   0.399   1.449   1.729  0.3944 -0.7166  2.6503
  527SOL     OW 1579   1.059   2.956   1.189 -0.6089 -0.3002  0.3319
  527SOL    HW1 1580   1.135   2.888   1.199 -0.5121  0.8903  1.5967
  527SOL    HW2 1581   1.103   3.049   1.185  2.3894  0.2889 -0.9444
  528SOL     OW 1582   1.307   2.396   0.576  0.0393 -0.6670  0.1739
  528SOL    HW1 1583   1.351   2.298   0.587  0.9298  0.0340 -0.9609
  528SOL    HW2 1584   1.354   2.468   0.631  1.3530 -0.3378 -2.3790
  529SOL     OW 1585   1.880   1.764   0.845  0.4763 -0.4269 -0.6798
  529SOL    HW1 1586   1.857   1.766   0.742 -0.5341  1.0986 -2.3352
  529SOL    HW2 1587   1.916   1.851   0.884 -1.2863  1.0108  0.1239
  530SOL     OW 1588   0.429   2.498   0.157  0.4626 -0.1880  0.0301
  530SOL    HW1 1589   0.452   2.440   0.238 -0.6697 -0.3333  1.1477
  530SOL    HW2 1590   0.434   2.446   0.065 -1.2755  0.0595  2.3097
  531SOL     OW 1591   1.834   0.999   1.055  0.2378  0.4064  0.4760
  531SOL    HW1 1592   1.823   1.021   0.956  0.0272  0.0327  1.4101
  531SOL    HW2 1593   1.746   0.960   1.090  0.9393 -1.5935  1.9887
  532SOL     OW 1594   0.384   1.152   0.722 -0.5035 -0.3046  0.4208
  532SOL    HW1 1595   0.402   1.126   0.623 -0.3286 -0.3430  0.2851
  532SOL    HW2 1596   0.327   1.075   0.760 -2.9110  2.3722  0.2234
  533SOL     OW 1597   1.827   0.054   2.537  0.2037  0.5114 -0.7584
  533SOL    HW1 1598   1.925   0.025   2.541 -1.2315 -1.6771  0.2959
  533SOL    HW2 1599   1.797   0.117   2.618 -1.2927  0.2481  2.4872
  534SOL     OW 1600   0.225   0.196   1.574 -0.1355  0.3224 -0.4012
  534SOL    HW1 1601   0.311   0.250   1.543 -1.1907 -1.1776  0.6667
  534SOL    HW2 1602   0.142   0.258   1.591  1.7880 -1.3576  1.1715
  535SOL     OW 1603   1.892   0.406   0.174  0.3162 -0.2593  0.2660
  535SOL    HW1 1604   1.943   0.485   0.217  4.3175  0.8169  0.1999
  535SOL    HW2 1605   1.811   0.363   0.231 -0.2000 -2.3222 -3.6510
  536SOL     OW 1606   1.248   2.546   1.015  0.0779  0.6915 -0.5820
  536SOL    HW1 1607   1.231   2.450   1.046 -2.0123 -0.6250  0.8888
  536SOL    HW2 1608   1.190   2.571   0.934  2.2822  0.3516  0.0556
  537SOL     OW 1609   0.879   0.222   2.332  0.2590 -0.0971 -0.0891
  537SOL    HW1 1610   0.900   0.232   2.232  3.5156  1.1590  0.5002
  537SOL    HW2 1611   0.793   0.163   2.346 -0.3756 -1.6814  0.5614
  538SOL     OW 1612   1.699   2.338   1.558  0.2821  0.1698 -0.2151
  538SOL    HW1 1613   1.637   2.288   1.493 -1.5556 -0.1158  0.5573
  538SOL    HW2 1614   1.790   2.379   1.524 -0.0370  0.3657  1.4281
  539SOL     OW 1615   0.184   1.618   2.699  0.2819  0.1585 -0.0517
  539SOL    HW1 1616   0.106   1.594   2.627 -2.2004  1.7393 -1.0128
  539SOL    HW2 1617   0.153   1.705   2.754 -1.5984  1.2747 -2.0301
  540SOL     OW 1618   2.696   1.731   2.067 -0.2148 -0.0177 -1.2179
  540SOL    HW1 1619   2.649   1.643   2.041  2.2065  0.0053  3.5559
  540SOL    HW2 1620   2.652   1.820   2.036 -0.8248  0.2877  2.2342
  541SOL     OW 1621   0.443   2.303   3.085 -0.2327  0.6106 -0.1654
  541SOL    HW1 1622   0.507   2.235   3.135  0.4620 -0.9006 -2.5184
  541SOL    HW2 1623   0.375   2.260   3.021  0.9701 -1.4744  0.0096
  542SOL     OW 1624   2.191   2.631   0.458 -0.3591 -0.5245  0.7843
  542SOL    HW1 1625   2.172   2.724   0.406 -0.6583  0.8463 -2.3039
  542SOL    HW2 1626   2.110   2.582   0.496  2.2084  0.1369  0.9966
  543SOL     OW 1627   1.034   1.795   1.738 -0.6267 -0.1647 -0.4596
  543SOL    HW1 1628   1.032   1.796   1.843  0.3911  0.8753  1.8551
  543SOL    HW2 1629   0.999   1.878   1.694  2.8482 -1.0047  0.2497
  544SOL     OW 1630   0.861   0.432   0.151  0.4343  0.1610  0.2560
  544SOL    HW1 1631   0.893   0.364   0.223  0.6434 -1.3318 -1.9313
  544SOL    HW2 1632   0.907   0.410   0.056  3.3327  1.6957  0.2769
  545SOL     OW 1633   1.178   1.712   0.620 -0.2906 -0.5102 -0.0646
  545SOL    HW1 1634   1.264   1.726   0.681 -0.0620 -3.3626  0.7351
  545SOL    HW2 1635   1.190   1.748   0.525  1.9827  1.0321  0.5560
  546SOL     OW 1636   2.665   1.577   0.036 -0.6087 -0.5411 -0.3854
  546SOL    HW1 1637   2.698   1.526  -0.049 -0.5078 -2.7533 -0.7639
  546SOL    HW2 1638   2.577   1.533   0.084  0.2186  4.2011 -0.6456
  547SOL     OW 1639   0.531   0.016   2.781  0.0570  0.5883  0.5725
  547SOL    HW1 1640   0.615  -0.035   2.737  3.9943 -3.7041  1.2915
  547SOL    HW2 1641   0.480  -0.046   2.845 -1.2799 -1.4635  0.2085
  548SOL     OW 1642   2.076   0.821   3.022 -0.1885  0.1687 -0.7298
  548SOL    HW1 1643   1.984   0.782   3.058 -2.6301 -0.3421  0.7417
  548SOL    HW2 1644   2.092   0.918   3.047  2.4864 -0.6928 -2.0824
  549SOL     OW 1645   0.575   0.414   0.113 -0.0914 -0.2093  0.2970
  549SOL    HW1 1646   0.541   0.502   0.062 -0.0809 -2.1349 -0.0033
  549SOL    HW2 1647   0.680   0.405   0.137  0.3639  0.0767 -1.7121
  550SOL     OW 1648   2.517   2.895   2.897 -0.4511 -0.1821 -0.7566
  550SOL    HW1 1649   2.497   2.804   2.947  0.2551  1.5954 -1.5280
  550SOL    HW2 1650   2.526   2.890   2.794  0.8602  3.9279  0.7848
  551SOL     OW 1651   0.241   0.785   0.175  0.0556  0.2175  0.3798
  551SOL    HW1 1652   0.343   0.798   0.168  0.2094  0.6718  1.9290
  551SOL    HW2 1653   0.204   0.787   0.274 -4.8308 -1.3279  1.6225
  552SOL     OW 1654   0.841   2.831   1.874 -0.0925  0.3207 -1.1062
  552SOL    HW1 1655   0.811   2.803   1.969  1.3847 -0.9039  2.7927
  552SOL    HW2 1656   0.878   2.924   1.868  1.6014  0.7409  0.4071
  553SOL     OW 1657   3.075   2.557   0.421 -0.5124 -0.0992 -0.1497
  553SOL    HW1 1658   3.044   2.460   0.397 -0.3716  0.8069 -0.7255
  553SOL    HW2 1659   3.040   2.598   0.511 -1.7510 -0.6788 -1.0352
  554SOL     OW 1660   2.128   0.265   0.571 -0.0462 -0.5016 -0.0561
  554SOL    HW1 1661   2.102   0.216   0.482  3.8426  0.6625  0.4875
  554SOL    HW2 1662   2.149   0.197   0.646  0.4459 -1.8669  0.0359
  555SOL     OW 1663   0.478   2.947   2.440  0.1518 -0.1783 -0.2717
  555SOL    HW1 1664   0.378   2.969   2.425  1.1241  0.9185  0.6392
  555SOL    HW2 1665   0.522   2.895   2.360 -3.1484 -2.2458  0.9281
  556SOL     OW 1666   0.903   2.269   1.662  0.3255 -0.0652  0.8879
  556SOL    HW1 1667   0.926   2.368   1.685 -2.1225 -0.6405  1.0559
  556SOL    HW2 1668   0.930   2.243   1.567  0.0704 -0.1620 -0.0044
  557SOL     OW 1669   0.163   2.132   0.130  0.3890  0.0808 -0.2284
  557SOL    HW1 1670   0.105   2.047   0.144 -0.2462 -1.9020 -1.5414
  557SOL    HW2 1671   0.180   2.159   0.029  1.4610 -0.6806 -0.3880
  558SOL     OW 1672   2.967   2.336   0.272  0.5396  0.1589  0.2761
  558SOL    HW1 1673   2.872   2.296   0.279 -1.3108 -2.6212 -0.7935
  558SOL    HW2 1674   3.004   2.335   0.176 -1.2154  0.3050  0.2922
  559SOL     OW 1675   0.447   2.216   1.333  0.2302 -0.2865 -0.0465
  559SOL    HW1 1676   0.372   2.250   1.267 -1.6998 -2.1739 -1.6551
  559SOL    HW2 1677   0.478   2.122   1.308 -1.9271 -0.0738  3.6301
  560SOL     OW 1678   2.049   1.110   0.002  0.2089  0.8050  0.2308
  560SOL    HW1 1679   2.037   1.168  -0.082  2.8154  0.6120  0.1209
  560SOL    HW2 1680   2.007   1.155   0.084  1.4100 -0.8703  0.8316
  561SOL     OW 1681   3.039   1.915   0.058 -0.1103 -0.3640 -0.4974
  561SOL    HW1 1682   2.983   1.829   0.052  2.1606  0.3409 -1.4396
  561SOL    HW2 1683   2.999   2.004   0.024  0.2464 -0.3212 -3.1157
  562SOL     OW 1684   0.859   2.173   2.445  0.4751  0.2012  0.1821
  562SOL    HW1 1685   0.758   2.177   2.414 -0.8652  1.0102  1.7168
  562SOL    HW2 1686   0.864   2.171   2.543 -2.1560 -1.0815 -1.9950
  563SOL     OW 1687   0.733   2.534   2.537 -0.1635  0.0035  0.1655
  563SOL    HW1 1688   0.801   2.456   2.533  0.0143  2.4122 -0.8412
  563SOL    HW2 1689   0.714   2.558   2.633 -0.2065  1.2480 -0.5459
  564SOL     OW 1690   2.741   1.292   2.837 -0.4371  0.3621  0.0557
  564SOL    HW1 1691   2.668   1.289   2.910 -2.0915 -1.6660 -1.6347
  564SOL    HW2 1692   2.779   1.388   2.831 -0.3733  0.3975  0.8106
  565SOL     OW 1693   2.502   1.979   2.595  0.3426 -0.4142 -0.5115
  565SOL    HW1 1694   2.462   2.062   2.543 -0.9328 -0.6018  0.9558
  565SOL    HW2 1695   2.583   2.010   2.656 -0.2025  1.6957  2.1414
  566SOL     OW 1696   1.987   2.862   1.353 -0.1790  0.3583 -0.1716
  566SOL    HW1 1697   1.947   2.764   1.341  0.9359  0.8203  1.4774
  566SOL    HW2 1698   2.051   2.888   1.274 -0.4545 -0.9821  0.4717
  567SOL     OW 1699   2.454   0.156   2.264 -0.2250  0.4042 -0.6233
  567SOL    HW1 1700   2.473   0.142   2.161  2.2258 -0.3176 -1.4971
  567SOL    HW2 1701   2.365   0.207   2.280 -0.9795 -2.4208 -0.0625
  568SOL     OW 1702   1.466   1.819   0.426  0.7239  0.0234 -0.1193
  568SOL    HW1 1703   1.443   1.864   0.338 -0.2931  0.7025 -0.2836
  568SOL    HW2 1704   1.521   1.885   0.495  0.6286  2.3807 -1.0409
  569SOL     OW 1705   0.305   0.649   0.796  0.3166 -0.0937  0.0340
  569SOL    HW1 1706   0.360   0.586   0.738  1.8631 -3.6342 -2.9792
  569SOL    HW2 1707   0.240   0.599   0.852 -1.0439 -0.0696  1.0163
  570SOL     OW 1708   0.606   0.784   2.849 -0.1286 -0.2261 -0.0898
  570SOL    HW1 1709   0.679   0.797   2.780  0.1429  2.7157 -1.7199
  570SOL    HW2 1710   0.604   0.865   2.914 -1.5305  0.8097 -1.4229
  571SOL     OW 1711   0.813   3.046   1.113 -0.1883 -0.5897 -0.3136
  571SOL    HW1 1712   0.839   3.116   1.042  0.5180 -1.3240  1.3240
  571SOL    HW2 1713   0.896   2.991   1.143 -0.0895  2.7472 -1.2470
  572SOL     OW 1714   1.543   2.570   1.155  0.1634  0.0647 -0.0754
  572SOL    HW1 1715   1.478   2.519   1.215  0.8957 -1.1208  1.9478
  572SOL    HW2 1716   1.504   2.653   1.110 -0.0142 -1.1611 -0.0449
  573SOL     OW 1717   2.943   0.416   2.091  0.0593  0.0255 -0.0459
  573SOL    HW1 1718   2.908   0.326   2.129  1.4541  2.2272  0.8147
  573SOL    HW2 1719   2.866   0.480   2.085  0.6159  1.1491 -2.1335
  574SOL     OW 1720   0.256   1.804   1.055  0.0521  0.1754 -0.1688
  574SOL    HW1 1721   0.227   1.902   1.032 -3.2403  1.4882  0.7101
  574SOL    HW2 1722   0.183   1.749   1.100  0.1718 -0.9905  1.0792
  575SOL     OW 1723   0.888   2.135   1.017  0.1846  0.2811  0.0454
  575SOL    HW1 1724   0.847   2.178   1.105  0.1917  1.0795 -0.6291
  575SOL    HW2 1725   0.928   2.210   0.957 -0.1931  1.5121 -0.3975
  576SOL     OW 1726   2.919   2.924   1.740  0.0730  0.5532  0.6425
  576SOL    HW1 1727   2.867   2.870   1.668 -1.1652 -3.5090  0.8111
  576SOL    HW2 1728   2.957   3.015   1.703  0.8462  0.3365 -0.0812
  577SOL     OW 1729   2.564   1.282   3.049  0.2199 -0.1997 -0.3407
  577SOL    HW1 1730   2.549   1.183   3.019  1.2978 -2.6029 -0.0215
  577SOL    HW2 1731   2.616   1.296   3.143  2.1652  1.3732  2.9045
  578SOL     OW 1732   1.320   2.719   2.547 -0.1115 -0.6171  0.0084
  578SOL    HW1 1733   1.231   2.711   2.495  1.5242  1.6284  2.3917
  578SOL    HW2 1734   1.351   2.821   2.544 -0.1614  0.7557 -1.3266
  579SOL     OW 1735   0.115   2.545   0.181  0.0098  0.0277 -0.4542
  579SOL    HW1 1736   0.082   2.558   0.278 -0.9786  0.4987 -0.6223
  579SOL    HW2 1737   0.195   2.477   0.169 -1.9661 -2.2179  1.2742
  580SOL     OW 1738   1.015   2.646   0.358 -0.3073 -0.1372  0.1083
  580SOL    HW1 1739   1.107   2.662   0.309 -0.0234  0.5715 -1.8003
  580SOL    HW2 1740   0.949   2.588   0.300  0.5188  0.1057 -0.1755
  581SOL     OW 1741   1.189   2.619   1.492 -0.2835 -0.0285  0.6886
  581SOL    HW1 1742   1.261   2.544   1.489  0.5450  0.4381 -0.0431
  581SOL    HW2 1743   1.212   2.711   1.443 -1.4300 -1.0863  0.0468
  582SOL     OW 1744   1.487   0.038   1.850  0.0856  0.0960  0.0578
  582SOL    HW1 1745   1.486   0.133   1.890 -3.5649 -1.9561 -3.0395
  582SOL    HW2 1746   1.583   0.020   1.804 -0.1484  2.9700 -0.7971
  583SOL     OW 1747   2.441   2.985   0.604  0.2393  0.2639 -0.1560
  583SOL    HW1 1748   2.515   2.936   0.549 -1.7375 -1.4231  0.3733
  583SOL    HW2 1749   2.385   2.917   0.656  3.1863 -0.5317  0.8062
  584SOL     OW 1750   1.568   0.994   2.116  0.4523  0.3451  0.0013
  584SOL    HW1 1751   1.616   1.037   2.032  0.3269  1.2369 -1.3463
  584SOL    HW2 1752   1.633   0.979   2.196  0.6723 -1.8608  1.2585
  585SOL     OW 1753   2.117   2.654   2.930  0.1326  0.0801 -0.0838
  585SOL    HW1 1754   2.136   2.557   2.898  0.2582 -1.4153  0.7207
  585SOL    HW2 1755   2.013   2.679   2.929  3.2294  0.0006  2.1904
  586SOL     OW 1756   2.766   0.217   1.561 -0.1004  0.5814 -0.4670
  586SOL    HW1 1757   2.777   0.305   1.606  0.0464 -2.8012 -3.0623
  586SOL    HW2 1758   2.669   0.176   1.573  0.7375 -1.9433 -1.1670
  587SOL     OW 1759   1.994   1.628   2.730 -0.5348  0.4966  0.5152
  587SOL    HW1 1760   2.044   1.572   2.653 -0.1793  0.1874 -3.0717
  587SOL    HW2 1761   2.026   1.614   2.828 -2.2161 -0.2631 -1.9272
  588SOL     OW 1762   0.468   2.721   2.239  0.2070 -0.3302  0.5119
  588SOL    HW1 1763   0.381   2.765   2.200 -1.4534  1.6016  0.2403
  588SOL    HW2 1764   0.452   2.637   2.298 -2.5223  0.7631  0.6158
  589SOL     OW 1765   2.147   1.483   2.534  0.1200 -1.2781  0.3964
  589SOL    HW1 1766   2.067   1.426   2.499  1.9710 -2.3003 -0.0036
  589SOL    HW2 1767   2.240   1.434   2.526 -1.4466  2.3052 -0.8517
  590SOL     OW 1768   2.324   1.696   1.994  0.4104 -0.2930  0.0011
  590SOL    HW1 1769   2.409   1.637   1.995 -1.9037 -0.5438 -2.1124
  590SOL    HW2 1770   2.340   1.793   2.037  2.3037  1.0374 -2.3664
  591SOL     OW 1771   1.329   2.463   0.284  0.5720 -0.3088 -0.3443
  591SOL    HW1 1772   1.423   2.438   0.241  2.0985 -0.2607  1.8766
  591SOL    HW2 1773   1.328   2.432   0.385  1.3238  0.7043  0.3535
  592SOL     OW 1774   1.694   2.344   0.787 -0.2444  0.0844  0.3240
  592SOL    HW1 1775   1.659   2.379   0.689 -1.8533 -1.3797 -2.6498
  592SOL    HW2 1776   1.795   2.348   0.801  1.1341 -1.6737 -1.9592
  593SOL     OW 1777   0.602   0.170   3.059  0.7654 -0.1409  0.9555
  593SOL    HW1 1778   0.700   0.156   3.014 -0.2232 -0.9444 -2.8003
  593SOL    HW2 1779   0.600   0.251   3.124  2.7765  0.5505 -2.2901
  594SOL     OW 1780   0.915   1.986   2.677  0.1426  0.4578 -0.0448
  594SOL    HW1 1781   1.020   1.986   2.667  0.8808  2.7430  0.3567
  594SOL    HW2 1782   0.881   2.062   2.735  0.2763  1.0809 -1.2113
  595SOL     OW 1783   1.561   0.047   1.080  0.2293  0.2584  1.0186
  595SOL    HW1 1784   1.653  -0.001   1.081  1.4792 -1.2567  4.0861
  595SOL    HW2 1785   1.493   0.003   1.013 -1.6221  2.0292 -1.1128
  596SOL     OW 1786   3.086   1.401   2.241  0.6103 -0.6783  0.3147
  596SOL    HW1 1787   2.991   1.437   2.258  0.9145 -0.0150  2.2871
  596SOL    HW2 1788   3.155   1.394   2.315 -3.3996 -2.9068 -3.1535
  597SOL     OW 1789   2.098   2.622   1.636 -0.1990 -0.1204  0.7162
  597SOL    HW1 1790   2.127   2.543   1.579  0.6212  1.5799  1.9468
  597SOL    HW2 1791   2.160   2.626   1.720 -1.1323  1.3062 -3.4239
  598SOL     OW 1792   2.549   2.907   1.220  0.0788  0.1108  0.7326
  598SOL    HW1 1793   2.609   2.938   1.298 -2.0793 -0.5535  3.5385
  598SOL    HW2 1794   2.605   2.898   1.135  0.9626  2.1052  2.6202
  599SOL     OW 1795   2.901   0.345   2.455 -0.0078  0.7701  0.6368
  599SOL    HW1 1796   3.002   0.363   2.467 -1.9217  0.3601  3.7279
  599SOL    HW2 1797   2.843   0.427   2.421  0.9530  0.1333  0.5297
  600SOL     OW 1798   2.827   1.063   2.708 -0.2469  0.6067  0.0926
  600SOL    HW1 1799   2.799   0.974   2.754 -1.5267  1.8167  1.2065
  600SOL    HW2 1800   2.784   1.140   2.756 -0.7929 -0.1959 -1.7223
  601SOL     OW 1801   3.005   1.252   2.040  0.5252 -0.3512 -0.2333
  601SOL    HW1 1802   2.962   1.315   1.967 -0.4783  1.1277 -2.7182
  601SOL    HW2 1803   3.028   1.305   2.129 -0.1383 -0.9075 -0.7676
  602SOL     OW 1804   1.546   1.714   2.388 -0.2835  0.4765  0.0028
  602SOL    HW1 1805   1.504   1.649   2.325 -0.8305  0.2043 -0.4627
  602SOL    HW2 1806   1.631   1.677   2.435  1.6540 -2.4881  2.9367
  603SOL     OW 1807   0.663   1.266   2.663 -0.4455  0.1283  0.7190
  603SOL    HW1 1808   0.598   1.254   2.585  3.7502  0.1263  1.1999
  603SOL    HW2 1809   0.720   1.185   2.677 -2.0518  0.8160  0.0689
  604SOL     OW 1810   2.414   0.963   0.198  0.0184 -0.0935 -0.3630
  604SOL    HW1 1811   2.480   0.994   0.128  1.1593  1.4928  0.2134
  604SOL    HW2 1812   2.365   0.880   0.164  0.2302  1.2911 -0.4626
  605SOL     OW 1813   2.686   1.139   1.940  0.1868 -0.3969  0.0791
  605SOL    HW1 1814   2.647   1.067   1.871 -1.5602 -1.4093 -2.4407
  605SOL    HW2 1815   2.653   1.117   2.038 -0.8992 -0.4417  0.4258
  606SOL     OW 1816   1.558   2.541   2.601 -0.3263  0.1418  0.4727
  606SOL    HW1 1817   1.482   2.614   2.587  2.4587 -0.6090 -1.7207
  606SOL    HW2 1818   1.525   2.440   2.596 -0.1214 -3.2353 -0.6397
  607SOL     OW 1819   1.354   1.566   0.447  0.1266  0.6489 -0.0880
  607SOL    HW1 1820   1.296   1.578   0.532  1.6300 -1.3720  0.4415
  607SOL    HW2 1821   1.389   1.660   0.407  0.5697  0.5391 -2.0428
  608SOL     OW 1822   1.413   2.906   0.447  0.6071 -0.4346  0.1071
  608SOL    HW1 1823   1.493   2.941   0.388 -2.3588 -1.1325  0.3879
  608SOL    HW2 1824   1.353   2.981   0.484 -0.8364 -2.2426 -1.8954
  609SOL     OW 1825   1.311   1.349   0.264 -0.1561  0.4459  0.1574
  609SOL    HW1 1826   1.339   1.432   0.322  1.7121 -1.5874 -0.7305
  609SOL    HW2 1827   1.207   1.341   0.251 -3.3107  1.6264  0.7035
  610SOL     OW 1828   2.959   1.084   2.301  0.0620  0.7221 -0.0695
  610SOL    HW1 1829   2.935   0.982   2.302 -0.6254  0.3331 -0.2841
  610SOL    HW2 1830   2.970   1.129   2.205  0.5740  0.9319 -0.1440
  611SOL     OW 1831   2.512   0.322   1.183  0.2824 -0.0460 -0.7152
  611SOL    HW1 1832   2.487   0.229   1.218  0.4348  0.5173 -0.4929
  611SOL    HW2 1833   2.607   0.353   1.219 -0.3372  2.2870 -0.7441
  612SOL     OW 1834   0.745   2.189   1.252  0.1091  0.2124  0.3771
  612SOL    HW1 1835   0.697   2.098   1.231  0.4560  1.7350  1.1408
  612SOL    HW2 1836   0.685   2.270   1.240 -1.4307 -1.1161  1.1106
  613SOL     OW 1837   0.894   1.443   2.372  0.2681  0.2713 -0.4210
  613SOL    HW1 1838   0.974   1.472   2.316  1.2868 -2.1889  0.7958
  613SOL    HW2 1839   0.825   1.384   2.322 -0.5217  4.2660  1.9628
  614SOL     OW 1840   1.673   1.585   1.819  0.0559  0.1240 -0.1554
  614SOL    HW1 1841   1.656   1.685   1.810 -0.1445  0.9167 -0.4472
  614SOL    HW2 1842   1.687   1.558   1.918 -2.1379  0.3975 -0.2465
  615SOL     OW 1843   0.773   1.249   1.734  0.4847  0.7104 -0.4563
  615SOL    HW1 1844   0.727   1.219   1.653  2.0521  0.8211  2.0682
  615SOL    HW2 1845   0.832   1.329   1.712 -0.2785 -3.4064 -1.3448
  616SOL     OW 1846   1.089   1.541   2.197  0.3936 -0.5811 -0.3340
  616SOL    HW1 1847   1.003   1.545   2.141  2.0455  2.3842  0.8227
  616SOL    HW2 1848   1.116   1.635   2.222  1.2293 -2.3888  1.0430
  617SOL     OW 1849   2.985   1.562   1.635  0.2540  0.4954 -0.0705
  617SOL    HW1 1850   2.997   1.480   1.697 -1.4446 -0.5478 -0.1486
  617SOL    HW2 1851   3.023   1.548   1.542 -0.2495  2.3560  0.7261
  618SOL     OW 1852   1.871   2.101   1.367  0.3026  0.4229  0.2279
  618SOL    HW1 1853   1.844   2.179   1.304  0.9523 -2.4516 -0.2718
  618SOL    HW2 1854   1.851   2.010   1.312  1.9807 -0.7764 -0.8059
  619SOL     OW 1855   1.755   0.456   2.378  0.3000  0.6026  0.4306
  619SOL    HW1 1856   1.678   0.512   2.327 -0.5558 -1.0244 -2.1225
  619SOL    HW2 1857   1.728   0.353   2.374 -0.9538 -1.7175 -0.0454
  620SOL     OW 1858   2.282   2.845   0.786  0.3782 -0.2610  0.0513
  620SOL    HW1 1859   2.183   2.879   0.780 -1.9621  2.3690  0.8197
  620SOL    HW2 1860   2.297   2.771   0.856  0.1888  2.4113 -0.2557
  621SOL     OW 1861   2.163   1.871   1.361 -0.2955  0.0022 -0.1595
  621SOL    HW1 1862   2.161   1.876   1.465 -0.5759 -1.8236 -1.0090
  621SOL    HW2 1863   2.080   1.822   1.325  0.1158 -1.0249 -0.1430
  622SOL     OW 1864   2.331   0.955   1.871  0.3611  0.4528 -0.2306
  622SOL    HW1 1865   2.430   0.929   1.855  3.0938 -1.5504 -0.6484
  622SOL    HW2 1866   2.276   0.867   1.888  0.6707 -0.1442 -2.4847
  623SOL     OW 1867   1.307   0.808   2.465  0.3198 -0.3354 -0.8503
  623SOL    HW1 1868   1.249   0.718   2.458  1.0913 -3.3172  3.5380
  623SOL    HW2 1869   1.277   0.889   2.405  0.0653 -0.5041  1.7293
  624SOL     OW 1870   0.520   0.638   3.084  0.3547 -0.5431  0.4867
  624SOL    HW1 1871   0.542   0.681   2.990  0.5650 -0.3474 -0.2917
  624SOL    HW2 1872   0.535   0.709   3.164  4.2363  1.5030  0.2064
  625SOL     OW 1873   2.783   1.713   1.034 -0.0139  0.2260 -0.5313
  625SOL    HW1 1874   2.693   1.761   1.011 -0.9061  0.7410  0.8721
  625SOL    HW2 1875   2.856   1.779   1.068  2.1772 -0.0491  1.6518
  626SOL     OW 1876   0.642   2.690   1.719 -0.4218  0.4748 -0.5351
  626SOL    HW1 1877   0.689   2.763   1.778 -1.6663  3.6726 -2.6640
  626SOL    HW2 1878   0.535   2.694   1.731 -0.8618  0.3287  1.8136
  627SOL     OW 1879   0.660   0.868   1.600 -0.4340  0.4017 -0.6533
  627SOL    HW1 1880   0.606   0.798   1.550  0.6770  1.2835  0.2415
  627SOL    HW2 1881   0.730   0.910   1.539  2.8207 -0.2637 -1.2201
  628SOL     OW 1882   2.428   0.165   0.716  0.1164  0.0641 -0.2135
  628SOL    HW1 1883   2.463   0.090   0.657  1.0113 -2.5979  0.7696
  628SOL    HW2 1884   2.327   0.154   0.730 -0.5402  0.7184  0.0020
  629SOL     OW 1885   1.902   0.926   1.979 -0.1345 -0.1602  0.0142
  629SOL    HW1 1886   1.915   0.987   1.896  0.1984  1.6131 -1.0194
  629SOL    HW2 1887   1.898   0.971   2.074  0.4971 -1.6438  2.0194
  630SOL     OW 1888   2.909   2.269   0.786  0.6795  0.3342  0.1234
  630SOL    HW1 1889   2.862   2.363   0.773 -0.9302  0.8035 -1.5513
  630SOL    HW2 1890   2.844   2.190   0.770 -1.6366  1.9795 -0.0359
  631SOL     OW 1891   0.035   0.137   2.148 -0.4089 -0.3926  0.5613
  631SOL    HW1 1892   0.083   0.198   2.217 -1.2479 -0.6357 -0.9304
  631SOL    HW2 1893   0.058   0.156   2.050  0.3364  2.3079 -1.3987
  632SOL     OW 1894   2.440   2.558   0.581 -0.2293  0.1842 -0.2765
  632SOL    HW1 1895   2.521   2.622   0.592 -2.3040  1.2608  1.2546
  632SOL    HW2 1896   2.350   2.602   0.559 -1.6884  1.7408 -0.7843
  633SOL     OW 1897   1.449   1.206   2.682  0.3213  0.0369  0.0718
  633SOL    HW1 1898   1.421   1.295   2.732 -2.4303 -1.5052 -2.8575
  633SOL    HW2 1899   1.385   1.200   2.601 -0.5064  0.6031  0.3867
  634SOL     OW 1900   0.664   2.057   0.882 -0.6929 -0.0187  0.7566
  634SOL    HW1 1901   0.573   2.055   0.928 -0.6985 -3.2896  1.4673
  634SOL    HW2 1902   0.743   2.098   0.934  1.1767 -1.0876  0.4082
  635SOL     OW 1903   3.045   2.391   0.014 -0.4988  0.1510  0.4007
  635SOL    HW1 1904   2.960   2.428  -0.031  0.3495 -1.8665 -0.0502
  635SOL    HW2 1905   3.102   2.462   0.063 -1.1243 -2.0550  1.5074
  636SOL     OW 1906   2.378   2.745   2.035  0.2261 -0.7599 -0.8098
  636SOL    HW1 1907   2.344   2.845   2.051 -1.6149  0.6837 -2.4442
  636SOL    HW2 1908   2.330   2.687   2.105 -0.7642  0.5911  2.5754
  637SOL     OW 1909   2.747   0.603   1.998  0.0459 -0.4435 -0.4498
  637SOL    HW1 1910   2.680   0.605   1.922  1.7476 -0.2218  1.1071
  637SOL    HW2 1911   2.801   0.689   2.017  1.8901  0.2703  0.4222
  638SOL     OW 1912   2.416   1.862   1.298  0.0205 -0.1941 -0.0817
  638SOL    HW1 1913   2.315   1.868   1.322  0.5617  0.0673 -0.1666
  638SOL    HW2 1914   2.466   1.790   1.356  0.9560 -1.6501  0.0616
  639SOL     OW 1915   1.320   2.218   1.672  0.1184 -0.1386  0.2322
  639SOL    HW1 1916   1.349   2.319   1.684  1.8775  1.4114  0.2027
  639SOL    HW2 1917   1.232   2.196   1.720 -1.1649  0.4027  0.0565
  640SOL     OW 1918   0.181   1.194   1.546  0.0720 -0.2629  0.0914
  640SOL    HW1 1919   0.184   1.217   1.649 -2.2417  2.4694  0.9438
  640SOL    HW2 1920   0.257   1.129   1.508 -0.5215 -0.5493 -2.3342
  641SOL     OW 1921   1.943   0.241   1.493 -0.0928  0.7851 -0.1091
  641SOL    HW1 1922   1.893   0.271   1.581  0.6872  0.2601  0.1586
  641SOL    HW2 1923   2.030   0.184   1.508  3.0825  0.4617  0.8341
  642SOL     OW 1924   2.023   0.070   0.359 -0.0601  0.3262  0.1905
  642SOL    HW1 1925   2.127   0.059   0.357 -0.0687  2.0901  0.1038
  642SOL    HW2 1926   1.975   0.042   0.448  2.7829  0.9787  1.9618
  643SOL     OW 1927   2.883   1.877   2.185 -0.0670 -0.6522  0.1524
  643SOL    HW1 1928   2.808   1.824   2.136  1.2508 -0.5307  0.1093
  643SOL    HW2 1929   2.890   1.974   2.154  0.6174 -0.4591  0.0842
  644SOL     OW 1930   2.289   2.415   1.250  0.1923  0.2565 -0.0856
  644SOL    HW1 1931   2.339   2.335   1.205  0.1223 -1.8402 -1.2315
  644SOL    HW2 1932   2.267   2.389   1.347 -2.4613  0.5425  2.0377
  645SOL     OW 1933   0.637   0.821   1.236 -0.8855 -0.1405 -0.5964
  645SOL    HW1 1934   0.534   0.817   1.255 -2.4259  0.2880 -0.5497
  645SOL    HW2 1935   0.654   0.835   1.131  0.9590 -1.1892 -4.5698
  646SOL     OW 1936   1.486   1.839   2.051  0.2857 -0.2628  0.1810
  646SOL    HW1 1937   1.564   1.874   1.991 -0.5277  0.1807 -0.9941
  646SOL    HW2 1938   1.510   1.835   2.151 -1.7920  1.2081 -0.1793
  647SOL     OW 1939   0.822   1.110   0.683 -0.0235 -0.4410 -0.1486
  647SOL    HW1 1940   0.905   1.138   0.744 -0.0642  0.9904 -0.4953
  647SOL    HW2 1941   0.746   1.065   0.738  0.6074 -0.8211 -1.8801
  648SOL     OW 1942   0.167   0.227   0.333 -0.5987  0.4878 -0.5707
  648SOL    HW1 1943   0.157   0.146   0.269  1.0183 -1.7599  0.1478
  648SOL    HW2 1944   0.163   0.319   0.290  2.1189 -0.7965  0.5452
  649SOL     OW 1945   3.021   0.250   0.765  0.5542 -0.8751 -0.2685
  649SOL    HW1 1946   3.099   0.201   0.716  1.6265  1.8580  2.0675
  649SOL    HW2 1947   3.056   0.322   0.829 -0.4674 -0.9160 -0.7292
  650SOL     OW 1948   2.775   0.659   1.518 -0.7528  0.2222  0.3730
  650SOL    HW1 1949   2.675   0.625   1.503 -4.2431 -1.8661 -1.2521
  650SOL    HW2 1950   2.775   0.759   1.495 -3.4952  1.4621 -0.0016
  651SOL     OW 1951   0.870   1.538   1.670  0.0483  0.2607 -0.0388
  651SOL    HW1 1952   0.917   1.590   1.746  0.7061 -1.4564 -0.1979
  651SOL    HW2 1953   0.927   1.531   1.585  0.9296 -2.2929 -0.5714
  652SOL     OW 1954   2.373   2.497   2.462  0.1393 -0.0442 -0.3590
  652SOL    HW1 1955   2.270   2.530   2.462 -1.2536 -0.2581  0.2063
  652SOL    HW2 1956   2.422   2.496   2.369  2.4919  0.3340  0.0901
  653SOL     OW 1957   2.733   1.265   0.191  0.0015 -0.2856  0.2585
  653SOL    HW1 1958   2.785   1.332   0.251  0.8986  1.7061 -0.7196
  653SOL    HW2 1959   2.767   1.165   0.192  0.2687 -0.7091  0.8603
  654SOL     OW 1960   1.272   2.184   1.282  0.2039  0.1722 -0.0191
  654SOL    HW1 1961   1.292   2.105   1.347 -0.4108  1.0197  2.7361
  654SOL    HW2 1962   1.276   2.155   1.177 -0.8105  0.5205 -3.0227
  655SOL     OW 1963   0.153   0.972   1.903  0.0655  0.0796 -0.4154
  655SOL    HW1 1964   0.223   0.935   1.839 -2.6775 -1.4926  0.3943
  655SOL    HW2 1965   0.180   1.064   1.940 -1.6204  0.1668  0.3238
  656SOL     OW 1966   2.580   2.550   2.635  0.3145  0.2048  0.0183
  656SOL    HW1 1967   2.680   2.523   2.608  0.6237 -0.1250  2.4297
  656SOL    HW2 1968   2.508   2.521   2.566  0.6674 -1.8466  3.0174
  657SOL     OW 1969   3.016   1.077   1.827  0.2233 -0.0680 -0.0747
  657SOL    HW1 1970   2.991   1.141   1.903  1.1353 -0.7878  3.0210
  657SOL    HW2 1971   3.111   1.030   1.847  1.4902 -0.9890  1.2871
  658SOL     OW 1972   1.687   0.198   2.340  0.4604 -0.7130  0.2588
  658SOL    HW1 1973   1.746   0.166   2.415 -1.8924 -1.1562 -1.5158
  658SOL    HW2 1974   1.731   0.176   2.245  1.7956  3.0934 -1.5589
  659SOL     OW 1975   1.424   0.634   2.749  0.1152  0.6263 -0.2644
  659SOL    HW1 1976   1.477   0.709   2.698 -0.9170 -1.5670 -0.1161
  659SOL    HW2 1977   1.336   0.657   2.792 -0.0799 -1.6519 -0.8173
  660SOL     OW 1978   1.451   0.333   1.394 -0.0867  0.0172 -0.1458
  660SOL    HW1 1979   1.451   0.365   1.491  1.4694 -2.7790 -2.1403
  660SOL    HW2 1980   1.512   0.254   1.376  1.0352  0.5539  3.6153
  661SOL     OW 1981   2.421   1.263   0.626 -0.0078 -0.0926  0.4123
  661SOL    HW1 1982   2.445   1.259   0.521  1.7974 -1.9742 -3.6137
  661SOL    HW2 1983   2.353   1.337   0.644  1.2029 -0.9904  1.6888
  662SOL     OW 1984   1.471   0.418   1.684 -0.2543  0.6425  0.4761
  662SOL    HW1 1985   1.463   0.376   1.774  2.6991  1.5347 -0.1218
  662SOL    HW2 1986   1.435   0.517   1.687 -0.3857 -1.4694  1.1398
  663SOL     OW 1987   0.882   1.586   2.049 -1.0099 -0.2803  0.7494
  663SOL    HW1 1988   0.838   1.676   2.024 -2.3887  2.3152  0.2786
  663SOL    HW2 1989   0.836   1.501   2.006  1.8293 -1.0066 -0.9466
  664SOL     OW 1990   1.554   2.113   1.431  0.0973  0.2548 -0.1397
  664SOL    HW1 1991   1.467   2.059   1.461  0.8365 -1.7834  0.8004
  664SOL    HW2 1992   1.640   2.077   1.469 -0.9958  0.4833 -5.2665
  665SOL     OW 1993   2.247   0.689   1.953  0.3511 -0.1570  0.0006
  665SOL    HW1 1994   2.209   0.590   1.954  0.6134 -3.3751  0.4733
  665SOL    HW2 1995   2.308   0.706   2.032  1.0625 -2.0333  0.0195
  666SOL     OW 1996   0.486   2.225   0.329  0.0994  0.1392 -0.4186
  666SOL    HW1 1997   0.558   2.261   0.395 -0.7709  0.4483 -0.0887
  666SOL    HW2 1998   0.396   2.236   0.376  0.3469 -1.5506  0.4130
  667SOL     OW 1999   1.954   0.231   1.063 -0.3210  0.1338 -0.4492
  667SOL    HW1 2000   1.984   0.330   1.068 -3.0847  0.7009 -1.3237
  667SOL    HW2 2001   1.911   0.197   1.153 -0.8121 -0.0487 -2.2482
  668SOL     OW 2002   1.985   0.476   1.127  0.1904  0.6771  0.1969
  668SOL    HW1 2003   2.059   0.509   1.062  0.6310 -2.3690 -4.4890
  668SOL    HW2 2004   2.014   0.477   1.233  1.9347 -0.7123  3.6311
  669SOL     OW 2005   3.018   2.189   1.016 -0.4065  0.0663 -1.0724
  669SOL    HW1 2006   2.984   2.233   0.928  0.3836  1.4392 -0.9586
  669SOL    HW2 2007   2.974   2.238   1.093  1.4746  2.8814  0.1174
  670SOL     OW 2008   2.915   2.290   2.078 -0.1370  0.3102 -0.1029
  670SOL    HW1 2009   2.824   2.286   2.136 -0.4769  0.0719 -1.1596
  670SOL    HW2 2010   2.919   2.385   2.036  0.6347 -1.7678  1.0666
  671SOL     OW 2011   1.803   1.770   1.537 -0.2842  0.4120  0.1839
  671SOL    HW1 2012   1.850   1.722   1.457 -1.5031 -3.1473  1.4337
  671SOL    HW2 2013   1.699   1.778   1.537 -1.7540  0.7073  2.3747
  672SOL     OW 2014   0.462   0.652   2.561 -0.0916  0.0635 -0.5372
  672SOL    HW1 2015   0.390   0.658   2.484  1.6260 -2.6630  0.8735
  672SOL    HW2 2016   0.423   0.689   2.651 -0.7160  0.7412  1.2488
  673SOL     OW 2017   0.089   1.334   1.098 -0.2873 -0.5229  0.4635
  673SOL    HW1 2018   0.025   1.402   1.146 -1.0431  0.5009  1.2492
  673SOL    HW2 2019   0.175   1.376   1.069  1.4482 -2.5490  0.4381
  674SOL     OW 2020   1.635   2.968   0.293 -0.1109 -0.3851  0.6273
  674SOL    HW1 2021   1.623   3.018   0.198 -0.0917  0.6042  0.6675
  674SOL    HW2 2022   1.705   2.894   0.285  0.8386  1.8548 -0.1153
  675SOL     OW 2023   1.721   0.845   2.348  0.3327  0.1691  0.0182
  675SOL    HW1 2024   1.826   0.843   2.347  0.2328 -1.4173 -0.6056
  675SOL    HW2 2025   1.681   0.756   2.321  1.0181 -0.0860  0.3932
  676SOL     OW 2026   2.566   1.529   1.951  0.3148  0.2083 -0.4475
  676SOL    HW1 2027   2.519   1.494   1.869 -3.6248  0.2502  0.8938
  676SOL    HW2 2028   2.550   1.461   2.031 -0.1285  0.1814 -1.2221
  677SOL     OW 2029   1.879   0.705   0.913  0.7280  0.3103  0.0922
  677SOL    HW1 2030   1.789   0.654   0.923 -1.8997  0.9163  1.3543
  677SOL    HW2 2031   1.959   0.675   0.968  1.4974  1.7716 -0.0830
  678SOL     OW 2032   0.112   0.749   1.625 -0.1044 -0.7690 -0.3323
  678SOL    HW1 2033   0.209   0.770   1.661 -0.0709 -0.5196  1.1722
  678SOL    HW2 2034   0.047   0.719   1.703 -1.1766  3.8879  0.1092
  679SOL     OW 2035   2.621   1.151   1.167  0.0760  0.3329 -0.0679
  679SOL    HW1 2036   2.530   1.203   1.159  0.6710  3.2503 -0.3780
  679SOL    HW2 2037   2.612   1.052   1.143 -2.3217  2.5654 -1.8397
  680SOL     OW 2038   2.846   0.477   1.699 -0.1133  0.0569  0.0568
  680SOL    HW1 2039   2.823   0.555   1.634 -0.4765 -1.3886  1.6774
  680SOL    HW2 2040   2.936   0.501   1.745  0.2171  0.8473  1.3378
  681SOL     OW 2041   2.993   0.082   1.612 -0.2804  0.2689  0.0592
  681SOL    HW1 2042   3.059   0.072   1.531  0.7111 -0.0439  2.1590
  681SOL    HW2 2043   2.904   0.121   1.578  2.6209 -4.3342 -0.3103
  682SOL     OW 2044   0.672   0.036   1.335 -0.1123  0.0842  0.5475
  682SOL    HW1 2045   0.580  -0.006   1.366 -0.9176 -3.2353 -0.2287
  682SOL    HW2 2046   0.713  -0.013   1.255  1.0150  1.6959  0.3878
  683SOL     OW 2047   1.368   0.208   2.167 -0.4024  0.0343  0.0787
  683SOL    HW1 2048   1.380   0.240   2.265  1.0770 -0.0118 -0.5030
  683SOL    HW2 2049   1.443   0.238   2.098 -0.6104  0.5477 -3.5318
  684SOL     OW 2050   1.439   2.119   0.546 -0.2815 -0.4297 -0.0733
  684SOL    HW1 2051   1.480   2.055   0.613 -0.5636  0.7298 -1.0026
  684SOL    HW2 2052   1.348   2.086   0.501 -0.6082 -1.0341  0.0502
  685SOL     OW 2053   2.218   2.040   1.943 -0.6563 -0.2825  0.3433
  685SOL    HW1 2054   2.288   2.052   1.866 -1.1795 -2.1230 -0.7782
  685SOL    HW2 2055   2.257   2.075   2.030 -2.1131  1.0344  1.7922
  686SOL     OW 2056   1.503   1.839   2.889  0.7690 -0.2324 -0.4399
  686SOL    HW1 2057   1.551   1.791   2.968 -0.8422  1.1420  1.6860
  686SOL    HW2 2058   1.402   1.820   2.884 -0.2615 -0.0434 -0.7411
  687SOL     OW 2059   1.298   2.407   1.972  0.4447 -0.2149 -0.0542
  687SOL    HW1 2060   1.344   2.314   1.970 -1.3195 -1.3123 -1.1321
  687SOL    HW2 2061   1.293   2.444   2.070 -0.6740 -0.8734 -1.4262
  688SOL     OW 2062   2.073   1.512   1.745 -0.3510  0.2539  0.2694
  688SOL    HW1 2063   2.151   1.568   1.704 -2.4646  3.0391 -0.1403
  688SOL    HW2 2064   2.014   1.477   1.670  2.4888 -2.1347  1.8813
  689SOL     OW 2065   2.383   1.119   2.744 -0.2301 -0.4011 -0.2901
  689SOL    HW1 2066   2.287   1.082   2.760  0.9377 -0.5110  1.4960
  689SOL    HW2 2067   2.431   1.112   2.835 -1.8429 -0.8104 -0.4119
  690SOL     OW 2068   2.219   2.770   0.053  0.2459 -0.4265  0.1969
  690SOL    HW1 2069   2.158   2.729  -0.025 -2.7469 -1.9127 -0.2375
  690SOL    HW2 2070   2.155   2.794   0.128  2.5252 -0.1621 -2.0881
  691SOL     OW 2071   2.590   0.410   2.100  0.7987 -0.8498  0.3825
  691SOL    HW1 2072   2.656   0.327   2.099 -0.2192 -0.7944 -3.4838
  691SOL    HW2 2073   2.640   0.496   2.073 -0.4654  0.2479  0.8903
  692SOL     OW 2074   2.652   1.189   0.811 -0.3162  0.2228  0.6302
  692SOL    HW1 2075   2.595   1.231   0.734 -2.0293  1.4009  0.1229
  692SOL    HW2 2076   2.689   1.261   0.878  1.2772  0.6890  1.3620
  693SOL     OW 2077   2.845   2.956   0.599 -0.1316  0.3873 -0.6881
  693SOL    HW1 2078   2.821   3.018   0.681  1.9006 -1.2263 -0.4140
  693SOL    HW2 2079   2.835   3.001   0.503  1.5041  0.9648 -1.0854
  694SOL     OW 2080   2.439   2.226   0.162  0.0971  0.8764 -0.1479
  694SOL    HW1 2081   2.413   2.317   0.210 -0.1600 -0.6799  2.6346
  694SOL    HW2 2082   2.351   2.182   0.121  0.1562  1.3684  3.1750
  695SOL     OW 2083   0.465   2.960   1.430  0.4620  0.0009 -0.1211
  695SOL    HW1 2084   0.401   2.885   1.400 -0.8992 -0.3931  0.1628
  695SOL    HW2 2085   0.442   3.006   1.521  1.4550  0.6192  1.8098
  696SOL     OW 2086   2.818   2.007   0.756  0.5213  0.6633 -0.2881
  696SOL    HW1 2087   2.870   1.927   0.792 -1.8306  0.3708 -0.3007
  696SOL    HW2 2088   2.823   2.018   0.651  1.1597  2.2223  0.2818
  697SOL     OW 2089   1.673   1.880   1.833  0.0846  0.2270 -0.0761
  697SOL    HW1 2090   1.771   1.846   1.824 -1.7604 -1.8634  0.4595
  697SOL    HW2 2091   1.659   1.972   1.792 -0.3179 -0.6877 -0.2328
  698SOL     OW 2092   2.887   0.433   2.713  0.4983  0.1425  0.0461
  698SOL    HW1 2093   2.900   0.395   2.613  1.9224 -4.5184 -1.0200
  698SOL    HW2 2094   2.934   0.368   2.785 -0.0110  0.1056  2.3816
  699SOL     OW 2095   1.564   0.064   2.903 -0.2331 -0.0975 -0.1139
  699SOL    HW1 2096   1.519  -0.015   2.851 -1.2563 -0.3482 -0.7055
  699SOL    HW2 2097   1.633   0.116   2.842  1.6739 -0.7323  1.0916
  700SOL     OW 2098   0.993   2.238   1.354 -0.1951  0.3940  0.0530
  700SOL    HW1 2099   1.063   2.163   1.352  0.4223 -3.0981 -0.8586
  700SOL    HW2 2100   0.899   2.205   1.319  0.6815 -2.7792 -0.3847
  701SOL     OW 2101   1.901   2.858   0.027  0.2099 -0.3656 -0.1446
  701SOL    HW1 2102   1.870   2.801   0.105 -1.8092  1.3255 -5.1838
  701SOL    HW2 2103   1.964   2.933   0.055 -0.6864 -1.3331 -3.2450
  702SOL     OW 2104   2.092   1.330   1.972 -0.0059 -0.5760 -0.0200
  702SOL    HW1 2105   2.179   1.271   1.964  0.5817 -1.1264 -0.4705
  702SOL    HW2 2106   2.084   1.388   1.885 -0.5734 -0.0809  0.4815
  703SOL     OW 2107   1.921   0.905   1.503  0.3859 -0.0954 -0.3951
  703SOL    HW1 2108   1.932   0.800   1.520 -0.4006 -1.1415 -1.4068
  703SOL    HW2 2109   1.943   0.963   1.585 -1.5786 -0.4578 -0.6954
  704SOL     OW 2110   0.323   2.018   1.704  0.0689 -0.0285  0.5925
  704SOL    HW1 2111   0.365   1.954   1.776 -0.6365  2.0181  0.3658
  704SOL    HW2 2112   0.390   2.086   1.659  0.9254  0.7036 -1.2972
  705SOL     OW 2113   2.473   1.490   0.897  0.8567  0.1414  0.0032
  705SOL    HW1 2114   2.410   1.427   0.845 -0.0618 -0.1333 -0.5143
  705SOL    HW2 2115   2.563   1.444   0.916 -1.0667 -0.2154 -0.7426
  706SOL     OW 2116   0.648   1.720   1.834 -0.1502  0.5575  1.0017
  706SOL    HW1 2117   0.719   1.684   1.762  3.9965 -3.4048 -1.4184
  706SOL    HW2 2118   0.689   1.765   1.916  0.4159  2.7654 -0.7350
  707SOL     OW 2119   2.345   1.209   1.956  0.1649 -0.5376  0.1681
  707SOL    HW1 2120   2.357   1.213   2.058 -0.2521 -1.1368  1.0084
  707SOL    HW2 2121   2.345   1.111   1.918 -1.5495  0.6108 -1.6552
  708SOL     OW 2122   3.013   0.516   3.069 -0.3244  0.4441 -0.2188
  708SOL    HW1 2123   3.047   0.590   2.999  1.7827  0.0588 -2.6695
  708SOL    HW2 2124   2.984   0.421   3.029  0.5955  0.8242 -1.0487
  709SOL     OW 2125   1.896   1.873   0.370 -0.6849 -0.5536 -0.0692
  709SOL    HW1 2126   1.916   1.974   0.360 -0.2368  0.7787 -0.0211
  709SOL    HW2 2127   1.879   1.830   0.277  0.7256 -0.4358 -0.5797
  710SOL     OW 2128   1.783   1.630   2.476 -0.5048 -0.1817  0.2874
  710SOL    HW1 2129   1.836   1.573   2.412  0.2124  3.7160 -1.2080
  710SOL    HW2 2130   1.776   1.594   2.572  0.4932  2.2915 -2.8702
  711SOL     OW 2131   2.627   2.931   0.975 -0.2462  0.2072  0.2551
  711SOL    HW1 2132   2.577   3.023   0.977 -2.0928  0.8154 -0.1638
  711SOL    HW2 2133   2.732   2.944   0.985  2.6395  0.8292 -1.0384
  712SOL     OW 2134   1.393   2.120   1.974  0.3917  0.0642 -0.3442
  712SOL    HW1 2135   1.486   2.144   1.928 -1.7239  1.2243  2.7623
  712SOL    HW2 2136   1.316   2.106   1.905  2.3595  0.2376 -0.0409
  713SOL     OW 2137   2.779   1.472   2.531 -0.1997  0.3747  0.4693
  713SOL    HW1 2138   2.782   1.367   2.519  1.2361  3.1947 -1.1310
  713SOL    HW2 2139   2.681   1.504   2.548  1.2545  1.9572 -1.8276
  714SOL     OW 2140   2.669   0.474   2.380 -1.2438 -0.5106  0.6398
  714SOL    HW1 2141   2.616   0.406   2.434  1.7875  0.5898 -4.4344
  714SOL    HW2 2142   2.621   0.491   2.291  1.3349 -0.6126 -1.5680
  715SOL     OW 2143   1.587   2.190   1.161 -0.6837 -0.2977 -0.2218
  715SOL    HW1 2144   1.502   2.198   1.101  0.5476 -2.2033  1.6708
  715SOL    HW2 2145   1.559   2.159   1.259  0.9630 -2.0235  1.5424
  716SOL     OW 2146   1.227   0.156   1.477  0.1258  0.0155 -0.2458
  716SOL    HW1 2147   1.130   0.181   1.490 -1.0216  4.0904  1.6716
  716SOL    HW2 2148   1.286   0.232   1.437 -1.7474  2.0293 -1.4230
  717SOL     OW 2149   1.145   0.556   1.612  0.7420 -0.1517 -0.6624
  717SOL    HW1 2150   1.234   0.603   1.632 -1.2875  1.0420  1.1318
  717SOL    HW2 2151   1.140   0.506   1.520 -0.8898  0.2361  0.7338
  718SOL     OW 2152   0.650   0.898   0.966 -0.4389 -0.1254  0.1947
  718SOL    HW1 2153   0.631   0.880   0.862 -1.8274 -1.4286  0.0584
  718SOL    HW2 2154   0.647   1.000   0.996  0.8909  0.0187  2.2000
  719SOL     OW 2155   0.627   1.743   2.299 -1.0743 -0.5081 -0.0050
  719SOL    HW1 2156   0.707   1.772   2.360  1.7368 -0.0767  2.2816
  719SOL    HW2 2157   0.610   1.642   2.309  1.5065  2.0322  1.0009
  720SOL     OW 2158   2.216   1.150   0.300 -0.1502 -0.0797 -0.0425
  720SOL    HW1 2159   2.262   1.067   0.256  1.2982  0.3621  2.1803
  720SOL    HW2 2160   2.189   1.130   0.398 -0.0836  1.1781  2.0012
  721SOL     OW 2161   2.260   3.000   2.089 -0.1820  0.0440 -0.7260
  721SOL    HW1 2162   2.189   2.984   2.020 -4.2957  2.5760 -0.8781
  721SOL    HW2 2163   2.219   3.044   2.173 -0.7607  2.1974 -3.1642
  722SOL     OW 2164   2.362   1.637   0.499 -0.2283  0.1861 -0.6264
  722SOL    HW1 2165   2.423   1.677   0.422 -1.0786 -0.2128 -0.3501
  722SOL    HW2 2166   2.262   1.642   0.470  2.5153  0.0542 -0.6757
  723SOL     OW 2167   2.660   2.743   1.921  0.3091 -0.2886  0.4550
  723SOL    HW1 2168   2.703   2.828   1.963  1.8962 -1.5754 -3.1950
  723SOL    HW2 2169   2.560   2.730   1.937  2.8652  0.1725  0.6579
  724SOL     OW 2170   0.457   2.498   2.403  0.0285  0.2952 -0.6177
  724SOL    HW1 2171   0.359   2.503   2.445  1.6206 -1.8315  1.0590
  724SOL    HW2 2172   0.535   2.506   2.469  0.5649  0.6892 -2.2048
  725SOL     OW 2173   2.386   2.803   1.550 -0.3825 -0.4530  0.6768
  725SOL    HW1 2174   2.357   2.806   1.451 -2.0527 -0.1624 -1.6659
  725SOL    HW2 2175   2.396   2.703   1.569 -1.0946 -0.1315  0.0249
  726SOL     OW 2176   2.507   2.318   0.695  0.3223 -0.0439  0.2260
  726SOL    HW1 2177   2.479   2.407   0.642 -2.2987 -2.3444  1.9807
  726SOL    HW2 2178   2.465   2.232   0.648 -1.2524 -1.7457 -2.6178
  727SOL     OW 2179   0.101   0.029   0.166 -0.3091  0.1638  0.2081
  727SOL    HW1 2180   0.185   0.026   0.099 -1.8458  0.7555  0.3339
  727SOL    HW2 2181   0.022  -0.032   0.141  0.4577 -2.1790  0.4262
  728SOL     OW 2182   2.912   0.718   0.924  0.2986 -0.2736 -0.7908
  728SOL    HW1 2183   2.858   0.713   0.832  0.0256  2.9566 -1.7235
  728SOL    HW2 2184   2.873   0.659   1.000 -2.1519  0.1974  0.3423
  729SOL     OW 2185   0.035   2.510   0.759  0.5775  0.0113  0.0115
  729SOL    HW1 2186   0.084   2.467   0.838 -3.1892 -0.3788 -2.1389
  729SOL    HW2 2187   0.098   2.533   0.677 -1.7241  2.2734 -2.0946
  730SOL     OW 2188   2.573   0.653   0.889 -0.3978 -0.1900 -0.6011
  730SOL    HW1 2189   2.563   0.755   0.875 -1.2706 -0.1547  2.4231
  730SOL    HW2 2190   2.622   0.605   0.810 -2.7579 -1.5304  0.9991
  731SOL     OW 2191   3.072   2.174   2.365  0.1345 -0.2852  0.3009
  731SOL    HW1 2192   3.083   2.214   2.459  1.5467  0.8235  1.5040
  731SOL    HW2 2193   3.048   2.241   2.289  0.3930 -1.5634 -0.9765
  732SOL     OW 2194   1.244   2.755   2.012 -0.3528  0.3701  0.1739
  732SOL    HW1 2195   1.257   2.692   2.093 -0.4626  0.9063 -1.2649
  732SOL    HW2 2196   1.220   2.703   1.923 -1.9277  1.8686  0.8499
  733SOL     OW 2197   0.006   0.583   2.261  0.2725 -0.5514 -0.6690
  733SOL    HW1 2198   0.078   0.642   2.213 -0.1433 -0.2193 -1.0236
  733SOL    HW2 2199  -0.030   0.506   2.205 -0.7579  0.5326  0.5444
  734SOL     OW 2200   1.457   0.367   2.674  0.0039 -0.0922 -0.3318
  734SOL    HW1 2201   1.445   0.468   2.695 -1.4204  1.4366 -0.1954
  734SOL    HW2 2202   1.382   0.307   2.714 -0.2878 -1.2400  0.0119
  735SOL     OW 2203   2.858   2.630   2.285 -0.3603 -0.8962 -0.1856
  735SOL    HW1 2204   2.837   2.612   2.182  2.9463  2.7671  1.0706
  735SOL    HW2 2205   2.951   2.678   2.294 -0.0201  0.0075  0.7325
  736SOL     OW 2206   0.915   0.430   2.504  0.1452  0.0919  0.0349
  736SOL    HW1 2207   0.826   0.471   2.530  0.2405  2.4360 -1.4920
  736SOL    HW2 2208   0.906   0.365   2.423 -3.5718  0.6649  1.6990
  737SOL     OW 2209   2.612   0.425   2.803 -0.2340  0.4467  0.5074
  737SOL    HW1 2210   2.594   0.411   2.905  1.1996 -2.7688  1.9692
  737SOL    HW2 2211   2.713   0.425   2.774 -1.1184  1.0316  1.9294
  738SOL     OW 2212   1.720   1.258   2.884 -0.3352  0.2207 -0.4999
  738SOL    HW1 2213   1.824   1.269   2.897 -1.9766 -1.4893 -1.1213
  738SOL    HW2 2214   1.686   1.162   2.859  0.0587  1.4614 -3.0031
  739SOL     OW 2215   1.819   0.674   0.651 -1.0687  0.3483 -0.1827
  739SOL    HW1 2216   1.859   0.680   0.753 -1.7267 -0.1029  1.9606
  739SOL    HW2 2217   1.851   0.591   0.600 -0.6915  1.0127 -0.2707
  740SOL     OW 2218   1.940   1.918   2.374 -0.3261 -0.0708  0.5119
  740SOL    HW1 2219   2.009   1.841   2.396 -0.1308  1.2043  1.0988
  740SOL    HW2 2220   1.891   1.888   2.286  0.9524 -0.5493 -4.8921
  741SOL     OW 2221   2.562   0.013   2.461 -0.6604  0.2029  0.4633
  741SOL    HW1 2222   2.662   0.036   2.447  0.6851  0.2343  2.4909
  741SOL    HW2 2223   2.504   0.052   2.381  0.4899  1.6872  0.9437
  742SOL     OW 2224   2.202   1.393   0.165  0.1130 -1.0183  0.0574
  742SOL    HW1 2225   2.099   1.417   0.144  0.1385  1.0776 -2.4951
  742SOL    HW2 2226   2.215   1.312   0.234  0.7828 -1.0203  3.2721
  743SOL     OW 2227   1.805   0.598   2.610 -0.8003 -0.2449  0.1035
  743SOL    HW1 2228   1.803   0.554   2.514 -1.6075  0.8611 -4.1990
  743SOL    HW2 2229   1.716   0.623   2.648  0.7144  1.4874 -0.5293
  744SOL     OW 2230   2.671   2.113   0.062  0.1318 -0.1177 -0.4229
  744SOL    HW1 2231   2.595   2.169   0.114 -3.3560 -0.1809  0.7860
  744SOL    HW2 2232   2.636   2.020   0.048 -0.9749  0.1217  0.1039
  745SOL     OW 2233   2.251   2.602   2.214 -0.0121  0.3147 -1.0334
  745SOL    HW1 2234   2.151   2.580   2.213 -1.6608 -0.7884 -0.0785
  745SOL    HW2 2235   2.273   2.679   2.282  2.2285  1.8877 -0.6732
  746SOL     OW 2236   0.052   2.632   1.745  0.2031 -0.1345 -0.1171
  746SOL    HW1 2237   0.141   2.580   1.739  0.2371  0.1988  1.1855
  746SOL    HW2 2238   0.031   2.688   1.833  0.7216  0.0528  0.5570
  747SOL     OW 2239   0.042   1.769   1.643 -0.0060 -0.0487 -0.1555
  747SOL    HW1 2240  -0.036   1.700   1.644 -0.5429  1.6850  1.1340
  747SOL    HW2 2241   0.102   1.757   1.558 -5.9444 -1.1545  1.7471
  748SOL     OW 2242   1.846   2.732   2.890 -1.0491  0.3553 -0.0302
  748SOL    HW1 2243   1.846   2.797   2.970 -1.1792  1.7102 -3.5249
  748SOL    HW2 2244   1.756   2.731   2.848 -0.0932 -1.1583  0.0058
  749SOL     OW 2245   1.406   3.025   0.894 -0.0544 -0.2963 -0.5774
  749SOL    HW1 2246   1.328   3.064   0.837 -2.3755  2.8596 -2.8750
  749SOL    HW2 2247   1.485   3.004   0.830 -0.7829 -0.2555  4.9145
  750SOL     OW 2248   2.253   0.177   1.841 -0.2471 -0.0400  0.0484
  750SOL    HW1 2249   2.270   0.227   1.745  1.7720  2.2267 -1.9687
  750SOL    HW2 2250   2.296   0.237   1.916  2.7667  0.2614 -0.8736
  751SOL     OW 2251   0.754   2.147   2.874 -0.0204  0.5232 -0.0697
  751SOL    HW1 2252   0.837   2.100   2.913 -0.9408  2.1523 -2.9032
  751SOL    HW2 2253   0.666   2.097   2.889  1.1039 -0.4256  0.1535
  752SOL     OW 2254   1.285   0.824   1.249 -0.2493  0.0271  0.9833
  752SOL    HW1 2255   1.336   0.914   1.245 -0.3466 -2.3214 -1.1758
  752SOL    HW2 2256   1.352   0.744   1.257 -2.3466 -2.3937 -2.7002
  753SOL     OW 2257   0.917   2.541   1.808 -0.2781 -0.6095  0.0189
  753SOL    HW1 2258   1.020   2.568   1.803  1.3550 -0.5028  1.1898
  753SOL    HW2 2259   0.857   2.630   1.816 -0.5686  1.7324 -1.1768
  754SOL     OW 2260   1.139   1.202   3.031 -0.2691  0.7033  0.3489
  754SOL    HW1 2261   1.184   1.128   2.975  1.6413 -1.3429  1.4769
  754SOL    HW2 2262   1.184   1.293   3.027 -0.0208  0.4550  0.6936
  755SOL     OW 2263   1.979   0.433   2.221 -0.0535 -0.1742 -0.6210
  755SOL    HW1 2264   2.052   0.361   2.248 -1.2291  1.5814 -2.8293
  755SOL    HW2 2265   1.888   0.423   2.267 -0.9391 -1.3060  1.7273
  756SOL     OW 2266   2.511   1.002   2.982  1.0408  0.0664  0.3708
  756SOL    HW1 2267   2.612   0.982   2.997 -1.4504  0.4186 -1.7002
  756SOL    HW2 2268   2.456   0.920   3.010 -0.6467  0.4566 -0.5568
  757SOL     OW 2269   0.105   0.434   1.988 -0.0433  0.3401  0.9219
  757SOL    HW1 2270   0.148   0.345   1.952 -0.0140 -2.3446 -1.1841
  757SOL    HW2 2271   0.011   0.415   2.034  1.0198  0.4219 -2.1517
  758SOL     OW 2272   2.194   0.093   1.500  0.3161  0.0714 -0.3897
  758SOL    HW1 2273   2.176  -0.002   1.543 -1.3594 -0.3784  1.0018
  758SOL    HW2 2274   2.271   0.090   1.433 -0.6020  0.7211  1.3470
  759SOL     OW 2275   1.699   0.025   0.076 -0.2061  0.3500 -0.0036
  759SOL    HW1 2276   1.657   0.027  -0.019  0.5263 -0.4930  0.6879
  759SOL    HW2 2277   1.800   0.019   0.068 -2.1157  0.9483  0.6805
  760SOL     OW 2278   2.687   2.029   2.833 -0.4226 -0.1641  0.5568
  760SOL    HW1 2279   2.609   1.985   2.884  1.0954  1.0425  0.1333
  760SOL    HW2 2280   2.690   2.132   2.834 -0.1895  0.3757 -1.1481
  761SOL     OW 2281   1.933   1.782   1.766 -0.3274  0.1892  0.4162
  761SOL    HW1 2282   1.973   1.694   1.799 -0.4363  1.3758  0.1977
  761SOL    HW2 2283   1.876   1.778   1.677  0.0328  1.4270 -0.7668
  762SOL     OW 2284   0.495   2.401   0.973 -0.4726 -0.1162 -0.0436
  762SOL    HW1 2285   0.540   2.388   0.880  2.2420 -3.1247  1.1792
  762SOL    HW2 2286   0.565   2.431   1.046  1.7034  0.8427  1.1071
  763SOL     OW 2287   2.067   1.542   2.981 -0.1285 -0.3524 -0.1332
  763SOL    HW1 2288   2.170   1.519   2.968 -2.3678 -2.7818 -1.3036
  763SOL    HW2 2289   2.021   1.498   3.062 -3.3480  1.4061 -2.4921
  764SOL     OW 2290   0.697   0.621   0.680  0.4926 -0.1628  0.4801
  764SOL    HW1 2291   0.614   0.561   0.668 -0.5134  2.0311  0.7978
  764SOL    HW2 2292   0.745   0.599   0.764 -3.2369  0.7089 -1.3353
  765SOL     OW 2293   0.792   0.305   0.737 -0.2682  0.4321  0.4418
  765SOL    HW1 2294   0.865   0.294   0.665  3.6554 -1.4521 -3.9732
  765SOL    HW2 2295   0.797   0.390   0.794  0.8209 -1.3082 -1.7120
  766SOL     OW 2296   2.930   2.136   3.048  0.1758  0.2186 -0.4087
  766SOL    HW1 2297   2.842   2.136   3.108  0.8477  0.4371 -0.7660
  766SOL    HW2 2298   2.978   2.228   3.047 -0.8071  1.4857  0.8475
  767SOL     OW 2299   2.787   1.637   0.609 -0.3281  0.4378  0.0808
  767SOL    HW1 2300   2.690   1.650   0.642  1.1887 -2.0885  0.7154
  767SOL    HW2 2301   2.859   1.696   0.656 -0.1171  1.9580 -2.2648
  768SOL     OW 2302   1.072   0.172   0.223  0.4834 -0.5103 -0.0159
  768SOL    HW1 2303   1.061   0.253   0.288 -0.4985 -2.6690  2.1218
  768SOL    HW2 2304   1.166   0.134   0.236 -3.2530 -0.1656 -0.2573
  769SOL     OW 2305   1.109   1.805   2.302  0.1438  0.7824 -0.1412
  769SOL    HW1 2306   1.018   1.842   2.330 -0.2533 -1.7674 -0.2773
  769SOL    HW2 2307   1.171   1.778   2.383  0.2532 -1.7074  1.0962
  770SOL     OW 2308   0.175   1.121   2.302 -0.0270  0.0998 -0.1312
  770SOL    HW1 2309   0.162   1.209   2.354  0.0642 -1.0595  0.0410
  770SOL    HW2 2310   0.087   1.077   2.275 -1.3811 -0.6446  1.4234
  771SOL     OW 2311   3.050   2.829   1.949 -0.7425  0.6610  0.2439
  771SOL    HW1 2312   2.999   2.854   1.860  1.7686 -3.0248  0.8010
  771SOL    HW2 2313   3.004   2.871   2.035  2.4672 -0.3297  1.1613
  772SOL     OW 2314   2.351   0.237   2.818  0.0707 -0.7408  0.2678
  772SOL    HW1 2315   2.406   0.153   2.791 -0.8767  2.3151  0.9568
  772SOL    HW2 2316   2.345   0.242   2.923  0.2100 -2.3024  1.4310
  773SOL     OW 2317   0.603   2.117   2.373 -0.2147 -0.1393 -0.0737
  773SOL    HW1 2318   0.602   2.180   2.291  2.9172 -2.1415  2.5075
  773SOL    HW2 2319   0.529   2.144   2.441  1.3077  0.3042  0.6153
  774SOL     OW 2320   2.095   0.008   2.586 -0.1960 -0.0320 -0.3255
  774SOL    HW1 2321   2.114   0.102   2.631 -0.1937  0.7037  0.3174
  774SOL    HW2 2322   2.154  -0.072   2.613  2.7837 -0.2183 -0.8917
  775SOL     OW 2323   2.558   2.956   2.226  1.3609 -0.1062  1.2519
  775SOL    HW1 2324   2.477   3.023   2.216  1.1248  0.2201  0.0435
  775SOL    HW2 2325   2.621   2.980   2.302 -0.0944 -2.6103 -2.3215
  776SOL     OW 2326   3.092   1.270   0.178  0.3519 -0.2917 -0.3987
  776SOL    HW1 2327   3.048   1.221   0.099  2.3447  0.5144 -0.5808
  776SOL    HW2 2328   3.049   1.259   0.275 -0.8390  2.5052  2.2115
  777SOL     OW 2329   0.424   2.900   0.426  0.7533 -0.3833  0.3356
  777SOL    HW1 2330   0.334   2.904   0.374  2.6286  0.8013  1.0552
  777SOL    HW2 2331   0.483   2.820   0.403  0.8732  1.4659  1.0165
  778SOL     OW 2332   1.321   2.003   0.202 -0.3570 -0.9915 -0.3426
  778SOL    HW1 2333   1.271   2.050   0.280  1.1476  0.1836 -0.2909
  778SOL    HW2 2334   1.346   2.067   0.125 -0.0145  0.8669  0.2712
  779SOL     OW 2335   0.169   0.832   0.463  0.0725 -0.0599 -0.5885
  779SOL    HW1 2336   0.110   0.745   0.472  0.7722  1.3057 -2.9587
  779SOL    HW2 2337   0.114   0.914   0.493  0.6683  2.5821 -1.3999
  780SOL     OW 2338   0.147   0.274   2.348  0.9231  0.2058  0.2881
  780SOL    HW1 2339   0.129   0.332   2.431 -2.2458 -0.2781 -0.0238
  780SOL    HW2 2340   0.231   0.303   2.294  1.3367  0.5665  2.1450
  781SOL     OW 2341   0.698   1.705   1.494 -0.4144 -0.2570  0.1025
  781SOL    HW1 2342   0.723   1.632   1.563 -1.3754 -1.0701 -1.2956
  781SOL    HW2 2343   0.595   1.722   1.482 -1.2950 -0.4811 -1.0037
  782SOL     OW 2344   2.529   0.105   0.954 -0.0368  0.2093  0.0994
  782SOL    HW1 2345   2.484   0.131   0.863  0.3565  0.5274  1.5038
  782SOL    HW2 2346   2.467   0.133   1.031  1.2822  0.7176  0.2789
  783SOL     OW 2347   2.768   0.704   2.469 -0.7257 -0.5530 -0.2961
  783SOL    HW1 2348   2.798   0.699   2.567 -0.2769  3.2751  1.3901
  783SOL    HW2 2349   2.731   0.611   2.438  0.3360 -1.8237 -3.5902
  784SOL     OW 2350   1.409   2.211   0.013 -0.0575  0.2194  0.3527
  784SOL    HW1 2351   1.454   2.289   0.072 -0.9007  0.0433  3.1229
  784SOL    HW2 2352   1.409   2.226  -0.088 -0.1690  2.3291 -0.2308
  785SOL     OW 2353   2.061   0.301   3.091  0.2402  0.2049 -0.4533
  785SOL    HW1 2354   2.000   0.336   3.166  1.2846 -2.2838 -1.8121
  785SOL    HW2 2355   2.092   0.386   3.034  0.2218 -0.9477 -1.8629
  786SOL     OW 2356   2.030   2.168   2.232  0.1594  0.1976  0.4438
  786SOL    HW1 2357   1.980   2.092   2.284 -2.0131 -3.0399  1.6605
  786SOL    HW2 2358   2.137   2.154   2.250 -1.0317 -0.1111 -0.4539
  787SOL     OW 2359   1.372   0.548   0.917 -0.0238 -0.7540 -0.0479
  787SOL    HW1 2360   1.285   0.603   0.894 -0.8098 -1.7644  1.0604
  787SOL    HW2 2361   1.437   0.531   0.833 -1.5352  1.2196  2.7243
  788SOL     OW 2362   1.222   0.445   0.041 -0.5711  0.0927  0.5965
  788SOL    HW1 2363   1.145   0.419  -0.026  1.4118  1.1752  0.3782
  788SOL    HW2 2364   1.187   0.520   0.108  0.0765 -0.7846 -1.0172
  789SOL     OW 2365   2.509   0.114   1.965 -0.1563 -0.3973  0.4421
  789SOL    HW1 2366   2.425   0.081   1.917  4.6356  2.9772  1.2906
  789SOL    HW2 2367   2.596   0.080   1.923 -0.0300  2.0946 -2.9854
  790SOL     OW 2368   2.645   2.745   0.732  0.1572 -0.0293  0.5243
  790SOL    HW1 2369   2.734   2.778   0.688  3.7141 -1.7673 -1.3047
  790SOL    HW2 2370   2.600   2.803   0.802  0.6984 -0.3906 -1.2517
  791SOL     OW 2371   1.925   1.208   0.270 -0.3473 -0.3892  0.9393
  791SOL    HW1 2372   1.842   1.161   0.308  2.6097  0.7784 -1.8415
  791SOL    HW2 2373   2.009   1.152   0.265 -0.6669  1.9006 -1.6570
  792SOL     OW 2374   0.378   1.736   2.099 -0.2311  0.1727 -0.2768
  792SOL    HW1 2375   0.464   1.682   2.116  0.5342 -1.1769 -0.6251
  792SOL    HW2 2376   0.339   1.774   2.184 -1.6370 -0.4970 -0.9602
  793SOL     OW 2377   2.102   1.588   2.100 -0.2012 -0.0798  0.1826
  793SOL    HW1 2378   2.173   1.649   2.056  2.3331  0.2292  1.6055
  793SOL    HW2 2379   2.106   1.495   2.054  3.0845 -0.0162  0.7948
  794SOL     OW 2380   0.564   1.483   2.318 -0.0369 -0.2469  0.4816
  794SOL    HW1 2381   0.519   1.441   2.233  0.8038  1.0468 -0.6792
  794SOL    HW2 2382   0.497   1.479   2.402 -0.5374  0.1510  0.4044
  795SOL     OW 2383   2.534   2.314   1.811  0.5916 -0.3567 -0.2621
  795SOL    HW1 2384   2.556   2.310   1.911 -0.4959  2.0307  0.8466
  795SOL    HW2 2385   2.467   2.238   1.785 -3.1742 -2.2131  0.7608
  796SOL     OW 2386   0.014   1.106   2.655  0.3318 -0.1361  0.3393
  796SOL    HW1 2387  -0.090   1.102   2.660 -0.2613  1.6177  0.2355
  796SOL    HW2 2388   0.046   1.137   2.747  1.5644 -1.2988  0.9257
  797SOL     OW 2389   0.791   0.652   1.404 -0.0879  0.1992  0.5641
  797SOL    HW1 2390   0.871   0.703   1.451 -0.0748 -1.4964  0.9716
  797SOL    HW2 2391   0.736   0.708   1.332  0.9123  0.7443 -0.5119
  798SOL     OW 2392   1.324   0.390   1.163 -0.2695 -0.4285 -0.4841
  798SOL    HW1 2393   1.375   0.365   1.251 -3.1464 -1.5943 -3.0901
  798SOL    HW2 2394   1.378   0.446   1.093 -0.0463  0.0420 -1.1604
  799SOL     OW 2395   1.982   2.693   0.986  0.6359  0.7420 -0.3734
  799SOL    HW1 2396   1.906   2.674   1.053  0.0513  1.0675 -2.1049
  799SOL    HW2 2397   1.967   2.664   0.888 -1.2820  0.2727 -1.8994
  800SOL     OW 2398   3.073   0.615   1.813 -0.5097  0.7697 -0.2555
  800SOL    HW1 2399   3.028   0.699   1.858 -1.1236  3.3228 -0.7736
  800SOL    HW2 2400   3.126   0.559   1.884  0.8077  0.8053  0.3809
  801SOL     OW 2401   1.922   2.263   0.107  0.4077 -0.1111 -0.9604
  801SOL    HW1 2402   1.839   2.222   0.064 -0.4819  2.5285 -1.2590
  801SOL    HW2 2403   2.010   2.211   0.090 -0.5265  1.0557 -0.1609
  802SOL     OW 2404   0.724   0.796   2.583  0.2791  0.7716 -0.1761
  802SOL    HW1 2405   0.807   0.768   2.520  2.5049  0.9188 -0.1713
  802SOL    HW2 2406   0.642   0.742   2.554  1.6741 -0.6097  0.2520
  803SOL     OW 2407   0.937   0.102   0.913  0.4434 -0.3970  0.1251
  803SOL    HW1 2408   1.023   0.155   0.942 -0.7956 -0.9393  1.2060
  803SOL    HW2 2409   0.859   0.166   0.876  0.4407  1.0988 -1.5858
  804SOL     OW 2410   0.305   0.047   2.148 -1.1511  0.6487  0.2155
  804SOL    HW1 2411   0.270   0.145   2.143  0.3377 -0.2003 -0.2840
  804SOL    HW2 2412   0.294  -0.006   2.059 -1.7989  2.3442  1.2273
  805SOL     OW 2413   2.411   0.233   0.238  0.2007  0.3138 -0.2937
  805SOL    HW1 2414   2.502   0.268   0.254 -2.2189 -1.9900 -1.3195
  805SOL    HW2 2415   2.394   0.202   0.143 -1.6733  2.6082 -0.1962
  806SOL     OW 2416   0.644   2.403   1.685  0.3846 -0.1907 -0.0832
  806SOL    HW1 2417   0.655   2.506   1.688 -0.4044 -1.0309 -0.6373
  806SOL    HW2 2418   0.728   2.365   1.638 -0.4931  0.6758 -1.5953
  807SOL     OW 2419   2.455   0.991   0.465 -1.0996  0.5251 -0.1741
  807SOL    HW1 2420   2.522   0.927   0.510 -2.0451  0.0932 -0.4093
  807SOL    HW2 2421   2.442   0.985   0.363 -1.5897 -0.5617  3.1650
  808SOL     OW 2422   0.519   1.976   2.938  0.3212 -0.0053  0.4571
  808SOL    HW1 2423   0.531   1.988   3.039 -1.7012 -1.3367  1.6475
  808SOL    HW2 2424   0.546   1.876   2.911 -1.9335  0.7635 -1.1210
  809SOL     OW 2425   2.588   1.960   1.975  0.6664  0.1966  0.5729
  809SOL    HW1 2426   2.691   1.970   1.967 -1.8094  0.0372  1.5041
  809SOL    HW2 2427   2.543   1.959   1.880  2.6974  1.0780 -0.4191
  810SOL     OW 2428   2.055   1.088   0.509  0.8284 -0.1213 -0.2737
  810SOL    HW1 2429   2.053   1.024   0.588 -0.7719 -3.6063  0.3803
  810SOL    HW2 2430   2.012   1.179   0.536  0.8633  1.8002 -1.4173
  811SOL     OW 2431   1.332   2.439   1.287  0.4732 -0.0853  0.4264
  811SOL    HW1 2432   1.319   2.333   1.279 -2.6021 -1.9190  1.2190
  811SOL    HW2 2433   1.254   2.486   1.245  1.4999 -0.8524 -0.1440
  812SOL     OW 2434   1.440   0.781   1.939  0.6671  0.2432  0.1233
  812SOL    HW1 2435   1.485   0.822   2.023 -2.1865 -1.5514  2.6175
  812SOL    HW2 2436   1.345   0.821   1.924  2.2204  1.1305  0.5572
  813SOL     OW 2437   1.742   2.160   2.436  0.3375  0.8069  0.2384
  813SOL    HW1 2438   1.775   2.087   2.496 -3.0442 -0.3539  1.0715
  813SOL    HW2 2439   1.693   2.128   2.348 -1.9981 -1.1148 -0.5959
  814SOL     OW 2440   2.857   1.547   2.917  0.2161 -0.8180 -0.0423
  814SOL    HW1 2441   2.959   1.533   2.921  1.5653  0.6890  0.1434
  814SOL    HW2 2442   2.826   1.638   2.876 -1.3902  1.9001 -0.1300
  815SOL     OW 2443   2.263   2.876   2.683  0.0948 -0.7207 -0.1357
  815SOL    HW1 2444   2.260   2.816   2.767  2.7295 -1.6859 -1.2013
  815SOL    HW2 2445   2.351   2.881   2.637 -0.4205 -1.8173 -0.3096
  816SOL     OW 2446   1.711   0.326   1.640 -1.1101 -0.0235 -0.8475
  816SOL    HW1 2447   1.699   0.231   1.680 -0.2627  2.0739 -0.1928
  816SOL    HW2 2448   1.629   0.385   1.652 -1.5727  0.4601 -0.0843
  817SOL     OW 2449   0.456   1.225   2.469 -0.3364  0.7111  0.5809
  817SOL    HW1 2450   0.413   1.318   2.486 -1.1912 -0.1611 -2.5326
  817SOL    HW2 2451   0.491   1.218   2.372  1.5883  2.0334 -0.9582
  818SOL     OW 2452   1.985   0.834   0.436 -0.4921 -0.0688 -0.7060
  818SOL    HW1 2453   1.989   0.938   0.442  0.7010 -1.7481  0.0497
  818SOL    HW2 2454   1.951   0.781   0.520  0.3741  1.3641  1.3182
  819SOL     OW 2455   2.761   2.918   3.038  0.2845 -0.4459  0.0587
  819SOL    HW1 2456   2.811   2.834   3.062  0.2355 -0.1196  0.1063
  819SOL    HW2 2457   2.688   2.906   2.965  0.4835  0.7486  0.6658
  820SOL     OW 2458   1.254   1.157   0.519  0.0188 -0.0016  0.4380
  820SOL    HW1 2459   1.251   1.257   0.561  2.3630  2.0938 -0.0602
  820SOL    HW2 2460   1.225   1.089   0.590 -0.4186 -1.8375  2.4425
  821SOL     OW 2461   3.071   1.279   0.661 -0.0379 -0.5014  0.1172
  821SOL    HW1 2462   3.009   1.281   0.750 -0.3698 -0.8186  1.3520
  821SOL    HW2 2463   3.143   1.356   0.659  2.0970  0.9713 -0.0038
  822SOL     OW 2464   2.516   1.767   2.430  0.0677  0.0140 -0.1387
  822SOL    HW1 2465   2.487   1.851   2.487 -1.2495  1.2461 -0.9485
  822SOL    HW2 2466   2.472   1.769   2.332  0.9275 -1.2495 -2.6829
  823SOL     OW 2467   2.037   0.883   1.244 -0.8049 -0.1897 -0.0625
  823SOL    HW1 2468   1.989   0.911   1.331  1.4973  3.9289 -0.6717
  823SOL    HW2 2469   1.984   0.916   1.161 -0.5680  2.2447 -1.2738
  824SOL     OW 2470   0.115   2.029   2.768 -0.2955 -0.1355  0.5208
  824SOL    HW1 2471   0.069   1.944   2.799  0.1555  1.7795  1.7126
  824SOL    HW2 2472   0.193   2.000   2.703 -0.6928  0.8991 -0.1947
  825SOL     OW 2473   1.255   1.064   0.213  0.5046  0.4020  0.1696
  825SOL    HW1 2474   1.283   1.112   0.300 -0.5037 -0.2321  0.1804
  825SOL    HW2 2475   1.252   1.141   0.141 -1.5626 -2.3167 -1.3016
  826SOL     OW 2476   1.950   0.636   1.544 -0.1630  0.3038  0.4587
  826SOL    HW1 2477   2.010   0.570   1.596 -0.0219  3.2587  2.7063
  826SOL    HW2 2478   1.864   0.596   1.505  0.5575  0.6793  0.8134
  827SOL     OW 2479   0.724   1.447   0.309  0.4314  0.2516 -0.2108
  827SOL    HW1 2480   0.739   1.391   0.224  0.1474 -1.0257  0.3169
  827SOL    HW2 2481   0.692   1.383   0.388  0.0508 -0.0795  1.9408
  828SOL     OW 2482   2.534   0.071   1.583 -0.8762  0.3202  0.0049
  828SOL    HW1 2483   2.445   0.124   1.595  2.3762  0.0365 -0.0838
  828SOL    HW2 2484   2.553  -0.015   1.641  0.0930  0.3162 -2.2776
  829SOL     OW 2485   2.813   2.485   2.982  0.1401  0.4748 -0.2276
  829SOL    HW1 2486   2.761   2.416   2.926  0.3057 -0.9759  1.9965
  829SOL    HW2 2487   2.769   2.529   3.063 -0.7660  1.0697 -3.5131
  830SOL     OW 2488   2.779   0.943   3.020  0.1544 -0.0335 -0.1914
  830SOL    HW1 2489   2.858   1.006   3.034 -0.7419 -0.0590  1.3926
  830SOL    HW2 2490   2.791   0.855   3.065 -1.4764  1.1873 -1.4887
  831SOL     OW 2491   3.099   0.617   0.360  0.2391  0.5285 -0.4490
  831SOL    HW1 2492   3.072   0.559   0.438 -1.0302 -0.7344  1.4712
  831SOL    HW2 2493   3.113   0.562   0.274  2.2036  2.6892 -1.8349
  832SOL     OW 2494   1.840   0.722   0.046  0.4968 -0.4062 -0.0975
  832SOL    HW1 2495   1.766   0.783   0.004  3.1445  2.1839 -0.0992
  832SOL    HW2 2496   1.834   0.628   0.006 -1.0818 -2.1812  1.9567
  833SOL     OW 2497   2.403   2.129   0.516 -0.6571 -0.4328  0.1399
  833SOL    HW1 2498   2.312   2.140   0.477  1.5180 -1.6477  0.5205
  833SOL    HW2 2499   2.460   2.056   0.472 -1.1075  1.9466 -0.3665
  834SOL     OW 2500   0.141   0.218   0.590  0.3914 -0.0405 -0.7673
  834SOL    HW1 2501   0.204   0.148   0.627 -1.9971 -1.4862 -2.5685
  834SOL    HW2 2502   0.134   0.200   0.484  0.6042 -1.5258  2.7680
  835SOL     OW 2503   2.336   1.536   1.134  0.4414 -0.0313 -0.3610
  835SOL    HW1 2504   2.405   1.583   1.190 -1.2779 -0.5839  0.0750
  835SOL    HW2 2505   2.360   1.525   1.031 -3.5312  0.3835 -0.5930
  836SOL     OW 2506   1.563   0.801   2.582  0.3242  0.0333  0.2490
  836SOL    HW1 2507   1.467   0.788   2.540  1.0695  0.6842 -1.1671
  836SOL    HW2 2508   1.628   0.838   2.509  0.7694 -0.8821  1.7321
  837SOL     OW 2509   1.715   0.118   0.523  1.0173  0.2088  0.2222
  837SOL    HW1 2510   1.639   0.166   0.581  0.8877 -1.0242  2.6357
  837SOL    HW2 2511   1.684   0.078   0.433  2.7189  0.1959  0.5031
  838SOL     OW 2512   1.213   1.584   2.713 -0.0837 -0.1303  0.2425
  838SOL    HW1 2513   1.297   1.535   2.750 -0.8075 -1.0343  0.8278
  838SOL    HW2 2514   1.123   1.534   2.704 -0.8841 -1.0749  0.6722
  839SOL     OW 2515   1.601   0.292   0.989 -0.2849  0.1561 -0.1165
  839SOL    HW1 2516   1.636   0.372   1.049 -2.6641  0.3837  2.4260
  839SOL    HW2 2517   1.565   0.204   1.038  0.1265 -1.3035 -2.6280
  840SOL     OW 2518   2.549   2.949   1.735 -0.2352 -0.3369  0.2632
  840SOL    HW1 2519   2.481   2.887   1.685 -1.9274 -1.8232 -0.9696
  840SOL    HW2 2520   2.617   2.887   1.792  1.0592 -2.1865 -1.4972
  841SOL     OW 2521   1.602   0.845   3.055 -0.0642 -0.4426  0.1052
  841SOL    HW1 2522   1.510   0.837   3.095  0.9461 -0.4518 -3.6313
  841SOL    HW2 2523   1.588   0.889   2.956 -0.8630 -2.9033 -2.1909
  842SOL     OW 2524   0.824   1.483   0.899  0.2293 -0.5805  0.1060
  842SOL    HW1 2525   0.795   1.563   0.957 -0.8270  1.4709  0.1106
  842SOL    HW2 2526   0.742   1.421   0.872 -2.9066 -0.9565  1.3367
  843SOL     OW 2527   0.115   0.016   1.382 -0.4064  0.1145 -0.1566
  843SOL    HW1 2528   0.167   0.076   1.453 -1.1470 -0.8970 -0.3708
  843SOL    HW2 2529   0.076  -0.075   1.412 -0.1114  2.2484  0.0237
  844SOL     OW 2530   0.795   2.473   0.269  0.0673  0.8215  0.1399
  844SOL    HW1 2531   0.766   2.430   0.357 -0.4644  0.3569 -1.0448
  844SOL    HW2 2532   0.730   2.541   0.223  0.7427  1.4372  0.4461
  845SOL     OW 2533   1.676   2.881   1.251 -0.1142  0.4839  0.3139
  845SOL    HW1 2534   1.721   2.793   1.220 -0.7394 -3.3958 -0.1223
  845SOL    HW2 2535   1.702   2.907   1.349 -0.0236 -0.4949 -0.0804
  846SOL     OW 2536   1.569   2.958   0.691  0.1149 -0.0810  0.2344
  846SOL    HW1 2537   1.544   2.974   0.591 -1.7313  0.7290 -1.2672
  846SOL    HW2 2538   1.670   2.963   0.714  0.8534 -0.0176  0.8277
  847SOL     OW 2539   2.103   1.676   0.429 -0.2014 -0.0445 -0.3560
  847SOL    HW1 2540   2.041   1.600   0.391 -1.8706 -4.0589  1.8900
  847SOL    HW2 2541   2.060   1.767   0.414  2.0401 -3.7901  0.5225
  848SOL     OW 2542   2.443   0.866   2.605  0.3342 -0.2477  0.3500
  848SOL    HW1 2543   2.409   0.957   2.646 -0.3682  1.4906 -2.3383
  848SOL    HW2 2544   2.369   0.795   2.602 -0.3291 -0.2978 -0.5090
  849SOL     OW 2545   2.571   0.855   2.359  0.3815 -0.1507  0.2424
  849SOL    HW1 2546   2.658   0.804   2.385 -1.4893 -2.7804 -0.3123
  849SOL    HW2 2547   2.498   0.852   2.440  1.1368 -1.4539  0.3887
  850SOL     OW 2548   1.580   0.091   1.354 -0.1473  0.3623 -0.3697
  850SOL    HW1 2549   1.593   0.088   1.250 -1.0858  0.1746 -2.4195
  850SOL    HW2 2550   1.526   0.008   1.399 -0.8031 -0.2240  1.6117
  851SOL     OW 2551   0.449   1.813   0.575 -0.1819  0.8196 -0.2162
  851SOL    HW1 2552   0.481   1.901   0.618  1.7554 -0.9142 -1.7744
  851SOL    HW2 2553   0.479   1.818   0.474 -2.1904 -3.5562 -1.1471
  852SOL     OW 2554   0.841   2.041   1.799 -0.3121  0.4439 -0.0613
  852SOL    HW1 2555   0.863   2.139   1.779  2.3792  1.5304  2.5179
  852SOL    HW2 2556   0.768   2.039   1.873 -0.2328 -0.1804 -0.6361
  853SOL     OW 2557   2.522   1.542   2.613 -0.0954 -0.4966  0.0148
  853SOL    HW1 2558   2.463   1.467   2.567 -0.1853 -0.7910 -1.9869
  853SOL    HW2 2559   2.528   1.628   2.557  0.7733  0.0963 -2.5115
  854SOL     OW 2560   2.444   1.379   1.762 -0.3784  0.3448 -0.3243
  854SOL    HW1 2561   2.505   1.329   1.692  2.2256  0.3534  1.3082
  854SOL    HW2 2562   2.403   1.316   1.834 -2.6145 -1.1945 -0.2855
  855SOL     OW 2563   2.067   2.423   1.075  0.3562  0.4421 -0.3672
  855SOL    HW1 2564   2.047   2.522   1.049  0.7223  1.6659  1.7911
  855SOL    HW2 2565   2.153   2.416   1.135 -1.9365  0.9838  2.0217
  856SOL     OW 2566   1.304   1.421   0.942 -0.4247 -0.0228  0.1803
  856SOL    HW1 2567   1.368   1.483   0.987  0.4000 -1.5956 -1.4602
  856SOL    HW2 2568   1.209   1.450   0.962  1.2260  1.2689  0.2850
  857SOL     OW 2569   3.078   2.765   1.016 -0.3453  0.3179 -0.4015
  857SOL    HW1 2570   3.054   2.663   1.015 -2.0434 -2.7196 -1.4451
  857SOL    HW2 2571   3.162   2.784   0.957 -1.9950 -1.8393 -0.3142
  858SOL     OW 2572   2.378   2.083   1.725  0.4743  0.1047 -0.1382
  858SOL    HW1 2573   2.279   2.053   1.695  1.6127 -0.8170  0.0174
  858SOL    HW2 2574   2.453   2.017   1.696 -2.3010 -0.1041 -2.3768
  859SOL     OW 2575   2.389   0.551   1.048 -0.1965  0.5392  0.5299
  859SOL    HW1 2576   2.467   0.600   0.996 -0.2473 -1.9075  2.1982
  859SOL    HW2 2577   2.417   0.459   1.084 -2.5301  0.6626 -1.8399
  860SOL     OW 2578   1.812   2.828   0.518 -0.4663 -0.2440 -0.9005
  860SOL    HW1 2579   1.833   2.811   0.421  3.0079  1.2161 -1.2603
  860SOL    HW2 2580   1.843   2.921   0.553 -0.1743 -1.6834  1.6142
  861SOL     OW 2581   0.977   2.489   2.869  0.4675 -0.3146 -0.3135
  861SOL    HW1 2582   1.065   2.543   2.847 -0.5001 -0.0507 -0.5347
  861SOL    HW2 2583   0.926   2.539   2.946 -0.7243 -1.5030  0.4584
  862SOL     OW 2584   2.912   2.553   1.634  0.5629 -0.3373 -0.1791
  862SOL    HW1 2585   2.998   2.578   1.692  0.0373  4.2889 -2.1988
  862SOL    HW2 2586   2.858   2.632   1.597 -1.0429 -0.8787 -0.6918
  863SOL     OW 2587   1.811   2.728   0.261  0.2621  0.0631 -0.0658
  863SOL    HW1 2588   1.858   2.634   0.283 -0.4542 -3.1331 -1.4855
  863SOL    HW2 2589   1.710   2.710   0.230 -0.6331  0.0413 -0.1703
  864SOL     OW 2590   2.019   1.261   2.836  0.5086 -0.3607  0.2256
  864SOL    HW1 2591   2.031   1.197   2.760 -1.3473  2.6134  1.5525
  864SOL    HW2 2592   2.096   1.324   2.856  0.6423 -0.2378 -1.7448
  865SOL     OW 2593   2.183   1.933   0.735  0.1781 -0.0282 -0.1283
  865SOL    HW1 2594   2.263   1.883   0.774 -0.4246  0.2164 -1.5877
  865SOL    HW2 2595   2.110   1.947   0.807  0.6063 -0.2147 -1.5169
  866SOL     OW 2596   2.899   2.976   1.016 -0.4608 -0.4540 -0.2285
  866SOL    HW1 2597   2.903   3.044   0.939 -2.3839 -3.2297 -0.0152
  866SOL    HW2 2598   2.973   2.908   1.004  1.2826 -0.3011 -2.3385
  867SOL     OW 2599   0.352   1.440   0.919  0.2703  0.5765  0.3816
  867SOL    HW1 2600   0.338   1.366   0.851  0.3316 -1.6614 -0.8401
  867SOL    HW2 2601   0.329   1.528   0.877  0.0776 -0.8874  0.2376
  868SOL     OW 2602   0.747   1.838   2.066  0.2727 -0.3620 -0.3557
  868SOL    HW1 2603   0.698   1.805   2.149  0.7368 -1.9594 -0.5576
  868SOL    HW2 2604   0.717   1.937   2.043  0.2513  3.9573  1.8111
  869SOL     OW 2605   2.580   1.923   1.667 -0.0880  0.8234 -0.4497
  869SOL    HW1 2606   2.668   1.972   1.645 -1.4473 -3.3083  0.4206
  869SOL    HW2 2607   2.574   1.825   1.638 -3.2815 -0.2869 -2.4611
  870SOL     OW 2608   2.326   2.735   1.247 -0.4244 -0.4327 -0.0857
  870SOL    HW1 2609   2.350   2.641   1.264 -0.2729  3.1326 -0.7013
  870SOL    HW2 2610   2.408   2.795   1.227  0.6099  0.4970  3.4291
  871SOL     OW 2611   3.059   2.257   0.560  0.0245  0.6654  0.4067
  871SOL    HW1 2612   3.001   2.264   0.649  0.2381  0.3216 -0.5357
  871SOL    HW2 2613   3.015   2.233   0.473  2.9282 -0.4393  1.8391
  872SOL     OW 2614   2.095   0.456   1.702 -0.1968 -0.7956 -0.0922
  872SOL    HW1 2615   2.057   0.427   1.796  0.3375 -1.0543  1.7408
  872SOL    HW2 2616   2.179   0.406   1.673  1.7973  0.9285  2.4294
  873SOL     OW 2617   1.693   2.096   0.014  0.0870  0.1066 -0.0683
  873SOL    HW1 2618   1.594   2.070   0.022 -0.7417 -3.0982  1.4852
  873SOL    HW2 2619   1.704   2.153  -0.072 -1.1965 -1.1538 -1.3624
  874SOL     OW 2620   0.659   2.443   0.762  0.0262  0.2771  0.0452
  874SOL    HW1 2621   0.649   2.548   0.771 -1.3068  1.1245 -2.3065
  874SOL    HW2 2622   0.752   2.404   0.773  0.7902  0.7777 -0.0488
  875SOL     OW 2623   2.244   1.495   1.426  0.4458  0.2279  0.3197
  875SOL    HW1 2624   2.324   1.546   1.472 -0.7951 -0.2154 -1.3965
  875SOL    HW2 2625   2.241   1.496   1.325 -0.3587 -0.9787  2.4791
  876SOL     OW 2626   0.058   2.260   2.643 -0.1652  0.4136  0.4914
  876SOL    HW1 2627   0.082   2.168   2.685  2.3761 -2.3096  2.2913
  876SOL    HW2 2628   0.094   2.333   2.710  2.5203 -1.8279 -1.9211
  877SOL     OW 2629   2.927   2.679   0.627 -0.3318 -0.4983 -0.0657
  877SOL    HW1 2630   2.943   2.782   0.643  3.2235 -0.9868  1.5833
  877SOL    HW2 2631   2.983   2.620   0.689 -1.2893  0.8107 -1.5688
  878SOL     OW 2632   2.826   1.517   2.230  0.0790 -0.3284 -0.1648
  878SOL    HW1 2633   2.811   1.605   2.181 -1.2291 -1.2421  1.2661
  878SOL    HW2 2634   2.803   1.525   2.331 -1.3583 -1.1162 -0.7790
  879SOL     OW 2635   2.410   0.054   1.219  0.0732  0.3239  0.3043
  879SOL    HW1 2636   2.449  -0.040   1.191  0.2828 -1.7351  1.2780
  879SOL    HW2 2637   2.310   0.067   1.190 -1.6814 -2.7544 -2.2391
  880SOL     OW 2638   0.730   0.554   2.279 -0.2074 -1.0578 -0.0128
  880SOL    HW1 2639   0.671   0.495   2.345 -1.3800 -1.3321 -1.2752
  880SOL    HW2 2640   0.789   0.491   2.220  1.9060  0.2298 -0.0547
  881SOL     OW 2641   0.822   0.093   0.416  0.0437  0.0917  0.3028
  881SOL    HW1 2642   0.884   0.025   0.376 -0.9109 -1.3061 -0.5679
  881SOL    HW2 2643   0.723   0.079   0.384 -0.5291 -1.4317 -1.5192
  882SOL     OW 2644   2.731   1.664   1.693  0.2276 -0.0152  0.3081
  882SOL    HW1 2645   2.826   1.636   1.670  0.8456  1.4713  1.6133
  882SOL    HW2 2646   2.709   1.653   1.797  0.1372  0.0064 -0.7737
  883SOL     OW 2647   0.815   0.502   0.924  0.1523 -0.0975 -0.0480
  883SOL    HW1 2648   0.869   0.585   0.962  0.2753 -0.3076  1.2511
  883SOL    HW2 2649   0.756   0.459   0.996 -2.5711 -1.2810 -1.8503
  884SOL     OW 2650   1.109   1.772   1.114 -0.1110 -0.5999  0.2116
  884SOL    HW1 2651   1.102   1.674   1.079  1.1779  1.7761  2.8761
  884SOL    HW2 2652   1.029   1.833   1.085 -1.9590  3.0149  0.0338
  885SOL     OW 2653   2.333   1.850   2.223  0.1202  0.0941 -0.1528
  885SOL    HW1 2654   2.282   1.786   2.286 -2.0592 -2.3171 -1.3299
  885SOL    HW2 2655   2.314   1.949   2.244  0.0644  1.4062 -2.4645
  886SOL     OW 2656   2.618   0.369   1.804 -0.0278 -0.6122  0.2951
  886SOL    HW1 2657   2.608   0.318   1.894 -0.2747 -0.7866  1.0579
  886SOL    HW2 2658   2.711   0.411   1.782 -1.5475  1.1526  1.6685
  887SOL     OW 2659   0.150   2.051   1.252 -0.0211 -0.0504 -0.3316
  887SOL    HW1 2660   0.057   2.012   1.233  0.6755  1.8443  1.9436
  887SOL    HW2 2661   0.169   2.143   1.211  1.7463 -2.1392  0.2451
  888SOL     OW 2662   0.648   1.213   1.495  0.3024  0.1573 -0.1304
  888SOL    HW1 2663   0.697   1.273   1.424  0.8137 -1.2111  1.2972
  888SOL    HW2 2664   0.666   1.115   1.490 -0.3838 -0.8220  2.7904
  889SOL     OW 2665   0.864   2.446   2.228 -0.2130 -0.1409  0.5531
  889SOL    HW1 2666   0.786   2.378   2.232  0.5706  1.0926 -0.4017
  889SOL    HW2 2667   0.925   2.433   2.146 -0.5633  2.1613 -1.1951
  890SOL     OW 2668   2.329   2.471   0.223  0.3186 -0.8951 -0.1360
  890SOL    HW1 2669   2.359   2.526   0.138  1.3809  0.7776 -0.3119
  890SOL    HW2 2670   2.360   2.509   0.319  2.2636 -3.1795 -0.3303
  891SOL     OW 2671   2.533   1.693   0.714  0.2165  0.6192 -0.1797
  891SOL    HW1 2672   2.525   1.660   0.812  0.4754  0.7967 -0.1394
  891SOL    HW2 2673   2.451   1.667   0.656 -2.5082 -1.9017  2.0372
  892SOL     OW 2674   0.376   0.390   2.216  0.3629  0.0008  0.0121
  892SOL    HW1 2675   0.373   0.407   2.116  1.1076 -2.5999 -0.0006
  892SOL    HW2 2676   0.474   0.400   2.255  1.2558 -0.5902  0.3474
  893SOL     OW 2677   1.698   0.242   2.715  0.3456 -0.6508 -0.3516
  893SOL    HW1 2678   1.776   0.301   2.757  0.7155  0.9253 -0.3487
  893SOL    HW2 2679   1.614   0.305   2.695 -2.1994  1.7257  1.6299
  894SOL     OW 2680   2.171   2.091   0.087  0.2850 -0.1471 -0.4164
  894SOL    HW1 2681   2.184   2.035   0.000 -2.5359 -0.4260 -0.4767
  894SOL    HW2 2682   2.199   2.042   0.174 -0.8753  1.4397 -1.0804
  895SOL     OW 2683   2.741   1.426   0.944 -0.3975  0.0040 -0.3106
  895SOL    HW1 2684   2.826   1.370   0.942 -2.0354  1.1106 -0.6831
  895SOL    HW2 2685   2.750   1.522   0.991 -1.1321  1.6652 -1.7835
  896SOL     OW 2686   1.823   1.867   1.223  0.6349 -0.2002  0.1034
  896SOL    HW1 2687   1.892   1.793   1.223 -0.7112  1.6485 -0.9750
  896SOL    HW2 2688   1.738   1.851   1.167 -0.2997  0.4019 -0.1850
  897SOL     OW 2689   0.250   0.519   3.020  0.3893 -0.3087  0.2940
  897SOL    HW1 2690   0.181   0.565   2.953 -2.1327 -2.0485  0.6772
  897SOL    HW2 2691   0.344   0.560   3.026  0.2556 -2.5714 -2.5496
  898SOL     OW 2692   0.689   2.798   1.063  0.1413 -0.2406 -0.7855
  898SOL    HW1 2693   0.724   2.892   1.091 -3.3464  1.5690 -2.5994
  898SOL    HW2 2694   0.711   2.719   1.129  0.4833  0.6676  0.8182
  899SOL     OW 2695   2.851   0.907   1.427  0.2052 -0.9950  0.1819
  899SOL    HW1 2696   2.830   0.935   1.330  0.0421  2.5660  1.6186
  899SOL    HW2 2697   2.946   0.932   1.458 -2.9393 -2.3174 -0.5927
  900SOL     OW 2698   1.019   2.418   2.466 -0.8869 -0.1226 -0.1140
  900SOL    HW1 2699   0.961   2.425   2.381 -0.8463  0.5483 -1.1834
  900SOL    HW2 2700   0.987   2.353   2.541 -0.1140 -4.0807  1.7987
  901SOL     OW 2701   1.918   2.460   1.411  0.1851 -0.0769  0.1746
  901SOL    HW1 2702   1.892   2.389   1.333 -0.9551  0.6452 -1.9753
  901SOL    HW2 2703   2.012   2.435   1.451 -0.4453  1.4407  2.3797
  902SOL     OW 2704   2.543   1.644   1.457 -0.5439  0.4105  0.1611
  902SOL    HW1 2705   2.617   1.621   1.525 -1.3729 -1.3338  0.7656
  902SOL    HW2 2706   2.571   1.630   1.356 -0.4982 -0.0771 -0.2657
  903SOL     OW 2707   0.334   2.475   2.005  0.1002  0.4188  0.1217
  903SOL    HW1 2708   0.254   2.409   2.028  1.0187 -1.3093 -2.6071
  903SOL    HW2 2709   0.329   2.506   1.907  1.8852 -0.6131 -1.6490
  904SOL     OW 2710   1.999   0.772   2.468  0.0952  0.5954 -0.2168
  904SOL    HW1 2711   1.917   0.723   2.512 -2.2516 -0.4167  1.5202
  904SOL    HW2 2712   2.012   0.742   2.368 -0.8000 -2.8978  0.3201
  905SOL     OW 2713   2.820   0.091   2.397  0.6724 -0.2117 -0.6185
  905SOL    HW1 2714   2.880   0.010   2.430  1.9399 -1.6660  0.0339
  905SOL    HW2 2715   2.860   0.184   2.428  0.5052  1.3141  1.8165
  906SOL     OW 2716   0.172   1.695   1.893 -0.0500 -0.1717 -0.2454
  906SOL    HW1 2717   0.136   1.701   1.791 -1.4200 -2.0030 -2.8772
  906SOL    HW2 2718   0.270   1.734   1.899  1.3686  0.7071  1.6071
  907SOL     OW 2719   0.245   2.509   0.954 -0.3049 -0.6980 -0.2697
  907SOL    HW1 2720   0.334   2.457   0.961 -1.5975 -0.8115 -0.2897
  907SOL    HW2 2721   0.258   2.610   0.928  0.4131  0.4012  1.6594
  908SOL     OW 2722   2.833   3.038   0.282  0.1237  0.4857 -0.3224
  908SOL    HW1 2723   2.750   3.005   0.225 -1.6616 -1.1390 -2.1568
  908SOL    HW2 2724   2.890   2.954   0.306 -0.2927 -1.9736 -0.9145
  909SOL     OW 2725   0.825   1.035   2.681  0.2322 -0.1512  0.3381
  909SOL    HW1 2726   0.792   0.935   2.694  1.5435 -0.1780  0.4309
  909SOL    HW2 2727   0.888   1.045   2.602 -1.1326 -0.0475  3.1248
  910SOL     OW 2728   1.773   1.882   2.159 -0.0495 -0.0130  0.0508
  910SOL    HW1 2729   1.843   1.922   2.093  0.8633 -1.6246  2.5288
  910SOL    HW2 2730   1.709   1.960   2.188  0.0867 -2.4186  1.5029
  911SOL     OW 2731   1.774   2.983   1.502 -0.0777 -0.1012  0.9138
  911SOL    HW1 2732   1.867   2.980   1.452  0.2927 -0.8765 -0.4913
  911SOL    HW2 2733   1.755   2.891   1.548  1.0386  0.6054  0.6551
  912SOL     OW 2734   2.836   1.014   0.716  0.0614 -0.1849 -0.1511
  912SOL    HW1 2735   2.852   0.983   0.816  1.1033  1.1246  1.7043
  912SOL    HW2 2736   2.780   1.099   0.707  1.4657 -0.2646 -0.2424
  913SOL     OW 2737   2.572   1.287   1.550 -0.1421  0.0024 -1.0829
  913SOL    HW1 2738   2.591   1.187   1.534 -1.9059 -0.6102 -0.8725
  913SOL    HW2 2739   2.627   1.353   1.490 -2.2259  1.8501  0.8584
  914SOL     OW 2740   2.779   0.582   1.160 -0.1095  0.1328 -0.0189
  914SOL    HW1 2741   2.784   0.504   1.225 -0.8334  2.5010 -2.8232
  914SOL    HW2 2742   2.686   0.604   1.133  0.1072 -1.5083  1.7368
  915SOL     OW 2743   1.184   0.797   0.952 -0.0590 -0.0359  0.5290
  915SOL    HW1 2744   1.230   0.793   1.046  0.7879  0.8107  3.5743
  915SOL    HW2 2745   1.084   0.766   0.954  0.5915  0.9030  0.5537
  916SOL     OW 2746   0.586   0.142   0.675 -0.3490 -0.1170  0.4263
  916SOL    HW1 2747   0.679   0.185   0.702  1.1799  3.1656  1.0616
  916SOL    HW2 2748   0.538   0.187   0.588  1.2078 -0.7636 -0.2780
  917SOL     OW 2749   2.871   2.573   2.010 -0.5200  0.1592 -0.0663
  917SOL    HW1 2750   2.785   2.617   1.967  0.6511 -1.3406 -0.5308
  917SOL    HW2 2751   2.952   2.612   1.966 -3.1664 -1.5915 -2.7347
  918SOL     OW 2752   1.007   2.106   3.002  0.1897 -0.9408  0.2429
  918SOL    HW1 2753   1.018   2.179   3.073 -1.4557  2.1940 -0.8056
  918SOL    HW2 2754   1.074   2.114   2.927 -1.9516  0.1668  0.6275
  919SOL     OW 2755   0.880   1.710   2.756 -0.1294  0.2058 -0.1797
  919SOL    HW1 2756   0.882   1.803   2.713  0.4827 -0.9720  0.1191
  919SOL    HW2 2757   0.840   1.632   2.702  0.2049  0.8334  0.2229
  920SOL     OW 2758   1.306   1.763   2.505  0.0219 -0.3276  0.3289
  920SOL    HW1 2759   1.399   1.751   2.458  0.2477  1.1567 -2.6068
  920SOL    HW2 2760   1.276   1.688   2.572  0.1036  2.5487  2.2613
  921SOL     OW 2761   1.128   0.034   2.653  0.3605 -0.0648  0.2478
  921SOL    HW1 2762   1.115   0.027   2.547  3.0013 -2.7332  1.7127
  921SOL    HW2 2763   1.037   0.018   2.698 -1.8812 -4.6310 -0.0831
  922SOL     OW 2764   2.185   2.382   2.756 -0.1756 -0.2276 -0.1258
  922SOL    HW1 2765   2.157   2.283   2.774  1.5639 -3.1546 -1.3840
  922SOL    HW2 2766   2.180   2.411   2.651  2.2545 -0.2961 -1.1048
  923SOL     OW 2767   1.280   2.750   0.262 -0.0715  0.0730  0.0703
  923SOL    HW1 2768   1.320   2.814   0.333 -1.3833  2.3769 -0.3046
  923SOL    HW2 2769   1.307   2.653   0.282  0.1027 -0.1962  1.7892
  924SOL     OW 2770   2.899   1.697   0.138 -0.3464  1.0145  0.3716
  924SOL    HW1 2771   2.815   1.678   0.079  0.7196  0.0773 -1.2199
  924SOL    HW2 2772   2.981   1.629   0.124  2.7701 -1.1534  0.6606
  925SOL     OW 2773   0.036   2.861   1.510  0.5137  0.2005  0.3481
  925SOL    HW1 2774   0.005   2.806   1.591  0.7245 -0.3709 -1.0656
  925SOL    HW2 2775  -0.020   2.836   1.425 -1.8041 -2.2601 -1.1421
  926SOL     OW 2776   1.308   2.813   1.317  0.2777  0.3957 -0.3064
  926SOL    HW1 2777   1.354   2.792   1.227  3.0141  1.4963  0.8985
  926SOL    HW2 2778   1.362   2.892   1.362  1.1831 -0.9385 -1.5630
  927SOL     OW 2779   0.368   2.644   1.739  0.0336  0.2916  0.2071
  927SOL    HW1 2780   0.327   2.568   1.678 -0.2270  0.7346 -3.2787
  927SOL    HW2 2781   0.310   2.730   1.744  0.5992  1.9045  0.4011
  928SOL     OW 2782   1.590   2.062   2.220  0.0153  0.0118 -0.0180
  928SOL    HW1 2783   1.621   2.145   2.165  0.4895 -0.2507 -0.9953
  928SOL    HW2 2784   1.506   2.025   2.175  2.0452  1.7362 -1.1936
  929SOL     OW 2785   2.413   2.500   2.850 -0.6531  0.2074  0.3155
  929SOL    HW1 2786   2.331   2.464   2.803 -0.3902  1.2854 -2.7150
  929SOL    HW2 2787   2.493   2.504   2.778  1.7340  0.3669  2.9560
  930SOL     OW 2788   2.184   2.028   1.128 -0.0497 -0.4990  0.4318
  930SOL    HW1 2789   2.172   1.983   1.226 -2.1967  0.3419  1.3702
  930SOL    HW2 2790   2.276   2.071   1.118 -0.2294 -0.2612  0.8965
  931SOL     OW 2791   0.501   1.726   2.634  0.1824  0.1973  0.3331
  931SOL    HW1 2792   0.539   1.754   2.728 -0.7574 -0.2535 -2.7713
  931SOL    HW2 2793   0.577   1.683   2.576  0.3397  0.6959  2.6538
  932SOL     OW 2794   0.335   0.059   3.076  0.0727  0.6450 -0.6572
  932SOL    HW1 2795   0.432   0.097   3.077  0.2589  1.4657 -3.1854
  932SOL    HW2 2796   0.333  -0.036   3.043 -1.2846 -0.5576 -0.8939
  933SOL     OW 2797   0.976   0.845   3.032 -0.4768  0.1494 -0.0607
  933SOL    HW1 2798   0.986   0.820   3.133 -3.6871  0.7141  1.5328
  933SOL    HW2 2799   0.970   0.947   3.019  2.2721 -2.1164 -0.1125
  934SOL     OW 2800   0.732   2.923   2.675 -0.2171  0.3779 -0.0409
  934SOL    HW1 2801   0.719   2.899   2.576 -1.9709  0.8744  0.4980
  934SOL    HW2 2802   0.813   2.869   2.721  2.2934 -1.8137  2.9078
  935SOL     OW 2803   0.020   0.529   0.827 -0.4403  0.3843  0.4678
  935SOL    HW1 2804   0.009   0.516   0.728  1.4428  0.2359 -0.4499
  935SOL    HW2 2805  -0.045   0.599   0.865 -0.2106 -2.5770  0.5635
  936SOL     OW 2806   1.100   2.826   0.077 -0.2770  0.0861 -0.1804
  936SOL    HW1 2807   1.136   2.860  -0.016 -1.0062 -0.5566  2.1354
  936SOL    HW2 2808   1.181   2.794   0.138 -0.3889 -1.0190  1.6967
  937SOL     OW 2809   1.959   2.634   2.052 -0.7262  0.5049  0.3695
  937SOL    HW1 2810   1.856   2.618   2.053 -1.3130 -0.8577 -1.5378
  937SOL    HW2 2811   1.981   2.724   2.003 -1.8879 -1.0691  0.6063
  938SOL     OW 2812   2.787   2.087   1.564 -0.1640  0.1567 -0.1217
  938SOL    HW1 2813   2.743   2.180   1.569 -0.8312 -0.3794  1.9809
  938SOL    HW2 2814   2.880   2.091   1.608 -0.0016 -0.2851 -0.2621
  939SOL     OW 2815   2.789   1.209   2.487 -0.0686  0.6581  0.5792
  939SOL    HW1 2816   2.844   1.168   2.408 -0.6507  0.5682 -1.0459
  939SOL    HW2 2817   2.804   1.156   2.576  0.6428  1.1068 -0.1729
  940SOL     OW 2818   1.050   0.446   2.739 -0.5155 -0.6121  0.5994
  940SOL    HW1 2819   1.132   0.378   2.734  2.0592  1.9747  2.9155
  940SOL    HW2 2820   0.999   0.451   2.652 -0.9344  0.9675  1.7903
  941SOL     OW 2821   0.008   2.798   2.279 -0.2965 -0.6656 -1.0256
  941SOL    HW1 2822   0.077   2.734   2.236  0.3103  3.0815  1.4632
  941SOL    HW2 2823   0.063   2.863   2.341 -0.2034  0.1143 -1.2465
  942SOL     OW 2824   0.054   0.089   2.537 -0.0856  0.0100  0.3034
  942SOL    HW1 2825   0.116   0.095   2.620 -2.3638 -1.2878  2.4405
  942SOL    HW2 2826   0.087   0.148   2.458 -1.1863  1.7480  1.8809
  943SOL     OW 2827   2.136   1.700   2.367 -0.7340  0.1014 -0.6807
  943SOL    HW1 2828   2.107   1.664   2.274 -0.0520  1.8226 -0.1186
  943SOL    HW2 2829   2.155   1.635   2.443  0.1282  2.5841 -0.1151
  944SOL     OW 2830   2.178   2.355   1.501  0.5914 -0.0811 -0.0115
  944SOL    HW1 2831   2.271   2.348   1.548  1.7265  0.4913 -0.9488
  944SOL    HW2 2832   2.104   2.291   1.551 -2.8336 -1.0259 -0.8754
  945SOL     OW 2833   0.723   1.592   0.070 -0.2676 -0.0670  0.1686
  945SOL    HW1 2834   0.636   1.577   0.012 -0.6501 -1.3518 -1.7576
  945SOL    HW2 2835   0.713   1.556   0.167 -1.7601 -1.0542 -2.2217
  946SOL     OW 2836   0.336   0.993   2.570  0.6016 -0.3825 -0.7383
  946SOL    HW1 2837   0.301   0.944   2.488 -0.6880  0.6894 -1.1172
  946SOL    HW2 2838   0.362   1.089   2.545  1.0089 -0.9176  1.7539
  947SOL     OW 2839   1.461   0.562   3.079  0.6023  0.0376  0.0611
  947SOL    HW1 2840   1.467   0.610   2.989 -2.7814 -0.3990  2.7932
  947SOL    HW2 2841   1.368   0.518   3.092  2.6503 -0.0032 -0.4299
  948SOL     OW 2842   1.896   2.991   2.151 -0.0509  0.2988 -0.1353
  948SOL    HW1 2843   1.873   2.963   2.056  0.0567  1.2557 -0.3863
  948SOL    HW2 2844   1.888   2.913   2.221 -0.0366 -3.4292  0.9823
  949SOL     OW 2845   0.613   2.437   0.478 -0.2815 -0.1593  0.1740
  949SOL    HW1 2846   0.599   2.532   0.454 -0.8169  0.2162  3.2805
  949SOL    HW2 2847   0.617   2.427   0.580  2.6627  1.1493 -2.2556
  950SOL     OW 2848   0.216   2.209   2.955 -0.2257  0.7480  0.3731
  950SOL    HW1 2849   0.228   2.313   2.924  0.2709  1.9733  0.2330
  950SOL    HW2 2850   0.186   2.143   2.876 -1.2293 -1.4665 -1.4590
  951SOL     OW 2851   1.165   2.652   2.781 -0.1626 -0.0662 -0.6079
  951SOL    HW1 2852   1.225   2.594   2.843 -0.5263 -2.1135  0.2883
  951SOL    HW2 2853   1.215   2.685   2.697 -1.2729  1.4845  1.7046
  952SOL     OW 2854   0.140   1.617   0.410 -0.1619  0.1628  0.2202
  952SOL    HW1 2855   0.143   1.710   0.456  1.1030  1.3827  2.3481
  952SOL    HW2 2856   0.172   1.543   0.478  1.4140  2.5627 -0.3379
  953SOL     OW 2857   2.520   1.746   0.287  0.2990  0.4385 -1.1383
  953SOL    HW1 2858   2.502   1.652   0.241  0.1917 -1.3239 -2.1607
  953SOL    HW2 2859   2.515   1.830   0.224 -2.4413  0.9581  2.7046
  954SOL     OW 2860   2.137   0.583   0.917  0.2083  0.1656  0.9612
  954SOL    HW1 2861   2.148   0.545   0.815  1.7111 -1.0686 -2.4532
  954SOL    HW2 2862   2.227   0.566   0.969  3.9827 -0.8416 -2.0291
  955SOL     OW 2863   0.147   2.568   1.366 -0.0057 -0.2181  0.2427
  955SOL    HW1 2864   0.052   2.611   1.350 -0.2083  4.9646  0.3072
  955SOL    HW2 2865   0.224   2.631   1.338 -1.4052 -1.1353 -1.1459
  956SOL     OW 2866   2.823   2.485   2.536 -0.1903  0.0300  0.1160
  956SOL    HW1 2867   2.828   2.381   2.523 -2.7164 -2.1593  0.4389
  956SOL    HW2 2868   2.840   2.533   2.444  1.3861  0.8260  0.4197
  957SOL     OW 2869   1.588   2.043   2.738 -0.7541 -0.0009 -0.2062
  957SOL    HW1 2870   1.550   1.965   2.795 -0.4319 -0.1135 -1.9966
  957SOL    HW2 2871   1.687   2.033   2.702  0.9298  1.3584 -0.6799
  958SOL     OW 2872   2.619   2.277   2.921 -0.7547 -0.2533  0.5939
  958SOL    HW1 2873   2.531   2.329   2.907  1.8542 -0.4659  0.5068
  958SOL    HW2 2874   2.641   2.261   3.019 -1.1334 -2.1999  2.1451
  959SOL     OW 2875   0.363   2.755   0.098 -0.3924  0.1544  0.1937
  959SOL    HW1 2876   0.280   2.764   0.163 -0.1604 -0.5618 -0.0439
  959SOL    HW2 2877   0.392   2.657   0.098  0.4688 -1.3264 -2.8318
  960SOL     OW 2878   1.956   0.415   1.951 -0.1071  0.1001  0.0244
  960SOL    HW1 2879   1.936   0.509   1.906  1.4638  0.3893  1.7419
  960SOL    HW2 2880   1.971   0.420   2.052 -1.4636  0.4525  0.0031
  961SOL     OW 2881   2.545   1.844   1.001  0.1297 -0.2376  0.4490
  961SOL    HW1 2882   2.555   1.918   0.929  3.0629 -0.6788  0.4089
  961SOL    HW2 2883   2.507   1.873   1.091  1.2755 -1.8461 -1.0795
  962SOL     OW 2884   1.312   0.841   0.057  0.2559  0.5932  0.0741
  962SOL    HW1 2885   1.273   0.858  -0.036 -0.1444  0.1592  0.1388
  962SOL    HW2 2886   1.306   0.924   0.117  2.6910 -2.0775 -1.6407
  963SOL     OW 2887   2.304   2.560   1.835 -0.1525  0.2723  0.0813
  963SOL    HW1 2888   2.243   2.487   1.881 -1.4368  0.4590 -0.4708
  963SOL    HW2 2889   2.352   2.627   1.900 -3.8781 -1.7211  1.2386
  964SOL     OW 2890   2.347   0.347   1.638  0.4580  0.3797  0.2089
  964SOL    HW1 2891   2.418   0.403   1.694 -3.5503  1.5901 -0.7907
  964SOL    HW2 2892   2.343   0.373   1.535 -0.4434  2.7159 -0.5522
  965SOL     OW 2893   2.603   2.954   0.144 -0.2661  0.4873 -0.0551
  965SOL    HW1 2894   2.668   2.916   0.069  0.7632 -1.5017 -0.6422
  965SOL    HW2 2895   2.544   3.034   0.111 -0.7818  0.9709 -0.9279
  966SOL     OW 2896   2.496   2.502   2.202  0.2947  0.0851 -0.1454
  966SOL    HW1 2897   2.550   2.548   2.128  2.7052 -0.1617 -0.1426
  966SOL    HW2 2898   2.393   2.521   2.189  0.0359 -1.3224 -0.7559
  967SOL     OW 2899   2.729   2.845   2.430 -0.7424  0.3840 -0.1186
  967SOL    HW1 2900   2.739   2.753   2.383  2.3718  1.8421 -0.2663
  967SOL    HW2 2901   2.816   2.903   2.427  1.0018  0.4789  2.0674
  968SOL     OW 2902   1.957   1.038   2.644  0.1070 -0.1618 -0.0753
  968SOL    HW1 2903   1.877   1.091   2.604  1.6242  1.5347 -0.7587
  968SOL    HW2 2904   1.985   0.963   2.581 -0.4225  0.4907  2.7984
  969SOL     OW 2905   2.779   2.508   1.058 -0.5549 -0.3221  0.4238
  969SOL    HW1 2906   2.764   2.508   0.954  0.5696 -1.1113 -0.2688
  969SOL    HW2 2907   2.833   2.427   1.095 -0.9532 -0.1455  0.5815
  970SOL     OW 2908   1.125   2.141   1.869 -0.9284 -0.7137 -0.4945
  970SOL    HW1 2909   1.071   2.056   1.889 -1.9451  1.1634 -0.8407
  970SOL    HW2 2910   1.099   2.213   1.936 -1.7130  1.4480 -0.0174
  971SOL     OW 2911   2.841   2.055   1.943 -0.1796 -0.6098  0.5059
  971SOL    HW1 2912   2.872   2.143   1.997  1.2036 -0.7059  1.2757
  971SOL    HW2 2913   2.904   2.034   1.859 -0.7908  1.7535 -1.0197
  972SOL     OW 2914   1.923   2.491   0.259  0.3546  0.2664  0.0785
  972SOL    HW1 2915   1.916   2.421   0.187 -2.0761  1.5199 -0.3199
  972SOL    HW2 2916   1.966   2.464   0.353 -0.6871  1.0163  2.0194
  973SOL     OW 2917   1.192   0.897   1.876  0.5223  0.2563 -0.0897
  973SOL    HW1 2918   1.142   0.807   1.904 -1.0502  1.3742  0.4260
  973SOL    HW2 2919   1.132   0.963   1.822  0.1287  1.4257 -0.9106
  974SOL     OW 2920   1.643   0.581   1.986  0.0955 -0.3270 -0.1857
  974SOL    HW1 2921   1.726   0.611   1.936  0.5330 -0.1198 -0.9022
  974SOL    HW2 2922   1.562   0.639   1.963 -0.1940 -1.5916 -0.3335
  975SOL     OW 2923   2.362   3.041   3.052 -0.0104  0.4432  0.2449
  975SOL    HW1 2924   2.307   2.960   3.088  0.9783  0.7653 -0.3101
  975SOL    HW2 2925   2.443   3.007   2.993 -1.4187  2.1200 -1.7663
  976SOL     OW 2926   1.911   2.787   2.359 -0.1129  0.6789 -0.0505
  976SOL    HW1 2927   1.813   2.753   2.353 -1.4464  1.1420  1.2355
  976SOL    HW2 2928   1.948   2.788   2.454  0.7094  0.6677 -2.1293
  977SOL     OW 2929   0.493   0.671   1.027  0.7321 -0.4392 -0.2355
  977SOL    HW1 2930   0.439   0.641   0.946 -0.2974  0.0376 -0.5323
  977SOL    HW2 2931   0.525   0.764   1.021 -0.5678  0.6941  2.0549
   3.10000   3.10000   3.10000
