1000 SPC/Fw water molecules t=   1.13000 step= 1130
 2931
    1SOL     OW    1   2.564   0.338   2.619  0.0987  0.0836 -0.8109
    1SOL    HW1    2   2.564   0.234   2.607  2.2314 -0.7757  2.6090
    1SOL    HW2    3   2.589   0.366   2.720 -0.1782  1.9018 -0.4987
    2SOL     OW    4   2.751   3.019   1.387  0.5962 -0.0237 -0.1666
    2SOL    HW1    5   2.830   3.043   1.318 -0.7308  1.1160 -2.3076
    2SOL    HW2    6   2.709   3.103   1.435  0.2103  1.8114 -0.0514
    3SOL     OW    7   2.611   2.606   0.433  0.2743 -0.1370 -0.1835
    3SOL    HW1    8   2.611   2.501   0.433 -0.7411  1.6798  0.6406
    3SOL    HW2    9   2.667   2.649   0.510  0.0539 -0.4676  0.3628
    4SOL     OW   10   1.226   1.545   2.349  0.2201 -0.4797  0.7115
    4SOL    HW1   11   1.140   1.555   2.287 -3.6578 -0.2481 -0.4508
    4SOL    HW2   12   1.236   1.446   2.384  1.5824 -1.0838 -0.7735
    5SOL     OW   13   1.136   1.556   3.031 -0.6809  0.5147  0.5373
    5SOL    HW1   14   1.200   1.635   3.062 -1.0593  2.2393  0.5659
    5SOL    HW2   15   1.041   1.585   3.012 -0.5955 -0.6512 -0.2540
    6SOL     OW   16   0.187   1.743   2.986  0.3814  0.3538  0.3701
    6SOL    HW1   17   0.106   1.766   3.050  1.1956 -0.0663 -0.7809
    6SOL    HW2   18   0.284   1.740   3.034  3.3810 -1.1016  0.2807
    7SOL     OW   19   2.564   0.901   1.060 -0.4725 -0.4561  0.0474
    7SOL    HW1   20   2.476   0.862   1.103  0.2575 -0.7096 -1.5722
    7SOL    HW2   21   2.563   0.888   0.957 -0.5106  3.7461  0.1584
    8SOL     OW   22   0.424   0.606   1.484  0.5191  0.1312 -0.6168
    8SOL    HW1   23   0.527   0.583   1.490 -0.3734 -1.5184 -0.7191
    8SOL    HW2   24   0.388   0.587   1.391  2.4325 -0.8399  0.6422
    9SOL     OW   25   1.208   0.925   2.431  0.0488 -0.3048  0.6415
    9SOL    HW1   26   1.235   0.937   2.326  0.9309 -2.2107 -1.2455
    9SOL    HW2   27   1.166   0.831   2.448  2.1475 -1.6536 -3.1153
   10SOL     OW   28   0.659   1.368   1.308 -0.1151 -0.2524  0.2117
   10SOL    HW1   29   0.572   1.382   1.251  0.8886 -0.7763 -0.1513
   10SOL    HW2   30   0.707   1.452   1.331 -2.9745 -0.2128  0.0008
   11SOL     OW   31   2.316   2.820   0.848  0.2420  0.1336  0.1251
   11SOL    HW1   32   2.278   2.830   0.939 -2.2028 -0.8191  0.9086
   11SOL    HW2   33   2.413   2.776   0.846  2.4710 -1.9055  0.2920
   12SOL     OW   34   1.503   0.854   0.411 -0.6143 -0.3959  0.8728
   12SOL    HW1   35   1.424   0.909   0.370 -1.3737  0.4423  1.1399
   12SOL    HW2   36   1.537   0.776   0.348  2.4847  1.6211  0.5035
   13SOL     OW   37   2.471   0.713   1.775 -0.1322  0.3089  0.4962
   13SOL    HW1   38   2.404   0.653   1.825  2.6984  0.5665 -0.8784
   13SOL    HW2   39   2.461   0.695   1.675 -1.0103 -3.4299  1.0907
   14SOL     OW   40   1.843   0.098   0.686 -0.0005 -0.1954  0.1443
   14SOL    HW1   41   1.750   0.108   0.639  0.3308  1.5765 -0.2131
   14SOL    HW2   42   1.864  -0.002   0.706 -0.4749 -0.0012  0.1612
   15SOL     OW   43   1.906   2.092   2.736 -1.2735  0.1605  0.1301
   15SOL    HW1   44   1.837   2.170   2.745 -1.8401 -0.0183  1.9720
   15SOL    HW2   45   1.901   2.041   2.647  0.2035  1.0586 -2.0938
   16SOL     OW   46   1.617   1.695   2.997 -0.6673 -0.1145  0.3420
   16SOL    HW1   47   1.608   1.615   3.058 -1.1685 -0.9052  0.5358
   16SOL    HW2   48   1.716   1.728   3.000  1.0561  1.2114  0.3838
   17SOL     OW   49   0.069   0.452   0.153 -0.4888  0.1797 -0.3633
   17SOL    HW1   50   0.147   0.503   0.121 -1.6345 -0.5811  1.1788
   17SOL    HW2   51  -0.015   0.472   0.099  1.6856  0.3600  1.0508
   18SOL     OW   52   0.924   2.955   2.137  0.1974  0.1946 -0.0389
   18SOL    HW1   53   0.834   2.900   2.147 -1.5011  0.0743  1.8379
   18SOL    HW2   54   0.994   2.906   2.090 -0.9089  2.2145  1.0227
   19SOL     OW   55   0.520   0.818   1.882 -1.1320 -0.0080 -0.6510
   19SOL    HW1   56   0.537   0.772   1.969 -0.6659  1.8452 -0.8625
   19SOL    HW2   57   0.592   0.895   1.871  2.1319  0.4221  0.0727
   20SOL     OW   58   0.184   2.796   0.862  0.0828  0.1516 -0.4398
   20SOL    HW1   59   0.102   2.845   0.833  1.3692  0.6967 -0.5583
   20SOL    HW2   60   0.223   2.733   0.791  1.1408  0.2556 -0.0262
   21SOL     OW   61   2.695   0.256   1.995  0.2330 -0.4034 -0.4754
   21SOL    HW1   62   2.638   0.178   1.951 -2.2522 -1.8047  0.4973
   21SOL    HW2   63   2.767   0.224   2.060  2.1747  0.9667 -1.3868
   22SOL     OW   64   2.328   0.255   0.140 -0.1393 -1.1260 -0.7411
   22SOL    HW1   65   2.319   0.156   0.115  0.1333 -1.7621 -1.5253
   22SOL    HW2   66   2.261   0.312   0.088  2.6466 -2.2288 -1.1806
   23SOL     OW   67   2.788   0.592   0.635 -0.1281 -0.1699  0.5160
   23SOL    HW1   68   2.797   0.497   0.607  2.6875  2.7776  0.5391
   23SOL    HW2   69   2.744   0.648   0.562  1.4419  0.9118 -0.0787
   24SOL     OW   70   0.230   1.939   0.430  0.3667 -0.3618  0.2908
   24SOL    HW1   71   0.186   1.997   0.361  0.2528 -0.3304 -0.3883
   24SOL    HW2   72   0.305   1.888   0.390 -3.4837  0.9270  0.0221
   25SOL     OW   73   2.248   0.657   0.239 -0.1739 -0.0921 -0.6969
   25SOL    HW1   74   2.242   0.675   0.139  0.8944 -1.6253 -1.6350
   25SOL    HW2   75   2.311   0.575   0.258  0.3866  2.1959 -0.2244
   26SOL     OW   76   2.473   2.168   2.054 -0.2460  0.2106 -0.4018
   26SOL    HW1   77   2.546   2.216   2.105  0.1250  0.1254  0.1720
   26SOL    HW2   78   2.519   2.094   2.000  0.3398  2.1223 -1.8633
   27SOL     OW   79   0.590   2.900   0.219  0.3932 -0.1485  0.9727
   27SOL    HW1   80   0.695   2.905   0.219  0.3471  0.9234 -0.6871
   27SOL    HW2   81   0.560   2.883   0.122  2.1964  1.5329  2.5502
   28SOL     OW   82   1.583   0.177   0.294 -0.1958 -0.1708 -0.3269
   28SOL    HW1   83   1.637   0.153   0.209  0.0159  0.5099  1.1038
   28SOL    HW2   84   1.621   0.267   0.337 -0.8969 -0.1509 -0.5040
   29SOL     OW   85   1.972   0.577   0.324 -0.0075  0.3685 -0.1744
   29SOL    HW1   86   1.926   0.652   0.377 -0.8028 -4.8800  0.4546
   29SOL    HW2   87   2.069   0.591   0.294 -2.0217 -0.0766  0.7846
   30SOL     OW   88   0.164   2.059   0.925  0.4715  0.6288 -0.4642
   30SOL    HW1   89   0.136   2.017   0.834  1.1492 -0.7909  0.7001
   30SOL    HW2   90   0.089   2.117   0.965  1.0425 -0.6255  2.9804
   31SOL     OW   91   2.139   0.016   2.382 -0.5319  0.7319  0.3542
   31SOL    HW1   92   2.081   0.026   2.468  1.9224  0.3559  1.4071
   31SOL    HW2   93   2.080  -0.021   2.302 -3.8182  0.8595  0.3322
   32SOL     OW   94   2.994   0.024   0.212  0.0624 -0.2136 -0.4439
   32SOL    HW1   95   2.985  -0.075   0.200  1.7547  0.5198 -1.1181
   32SOL    HW2   96   3.087   0.062   0.240  0.7934 -1.2811 -1.6160
   33SOL     OW   97   0.888   0.338   0.598 -0.3609  0.2705  0.5223
   33SOL    HW1   98   0.879   0.252   0.538  2.1186 -1.3676  0.8496
   33SOL    HW2   99   0.988   0.368   0.612 -2.4447  1.2832  2.6118
   34SOL     OW  100   0.344   2.720   1.082 -0.0219 -0.2018  0.2032
   34SOL    HW1  101   0.275   2.719   1.003 -0.2452  1.7857 -2.5546
   34SOL    HW2  102   0.431   2.774   1.069  0.3640 -0.5549  0.7960
   35SOL     OW  103   0.038   0.103   1.896  0.8369 -0.0754 -0.0750
   35SOL    HW1  104   0.094   0.022   1.934  0.3587 -1.3929 -0.0089
   35SOL    HW2  105   0.033   0.113   1.793  0.5542 -1.1990  0.3461
   36SOL     OW  106   1.925   1.250   1.622 -0.4151  0.0140 -0.4115
   36SOL    HW1  107   1.981   1.160   1.620 -0.3812 -3.7927  1.1146
   36SOL    HW2  108   1.952   1.323   1.552 -0.0035  1.4293 -0.1558
   37SOL     OW  109   1.172   0.238   0.970  0.1700  0.5348 -0.0801
   37SOL    HW1  110   1.206   0.322   1.019  0.4151 -2.2194 -0.6941
   37SOL    HW2  111   1.247   0.192   0.915 -2.5652  2.2692  0.7973
   38SOL     OW  112   1.145   2.813   2.395  0.0115 -0.0308 -0.5589
   38SOL    HW1  113   1.098   2.729   2.365  2.5105  0.3072  1.5966
   38SOL    HW2  114   1.087   2.901   2.400  0.6540 -0.0657 -0.2604
   39SOL     OW  115   2.316   1.445   3.061  0.4833 -0.3741  0.1172
   39SOL    HW1  116   2.372   1.358   3.064  1.2463 -2.2494  1.0645
   39SOL    HW2  117   2.278   1.470   3.152 -1.8676 -1.0427  0.0273
   40SOL     OW  118   1.994   2.447   2.579  0.3163  0.5395  1.0442
   40SOL    HW1  119   2.003   2.549   2.562 -0.0859 -0.1366  4.1639
   40SOL    HW2  120   1.920   2.399   2.520  0.4331 -1.7291 -0.1860
   41SOL     OW  121   3.026   0.667   2.806  0.0873 -0.3191 -0.2364
   41SOL    HW1  122   2.947   0.730   2.798 -0.4515 -1.4600 -1.0126
   41SOL    HW2  123   3.016   0.589   2.743 -0.9335  1.1024  2.9786
   42SOL     OW  124   1.767   1.803   0.472 -0.3682  0.2806  0.5207
   42SOL    HW1  125   1.718   1.709   0.479  1.4663 -2.9887  0.1210
   42SOL    HW2  126   1.786   1.820   0.368  0.8464 -1.6562  1.2126
   43SOL     OW  127   0.417   1.689   1.149  0.0353 -0.3073  0.7376
   43SOL    HW1  128   0.426   1.606   1.206 -0.5471 -0.1566  0.2683
   43SOL    HW2  129   0.320   1.732   1.152 -0.4514  0.9169 -2.7661
   44SOL     OW  130   1.712   2.367   3.000 -0.3678 -0.5701 -0.3538
   44SOL    HW1  131   1.642   2.440   3.021  0.1689  0.9564 -0.2258
   44SOL    HW2  132   1.733   2.362   2.902 -0.4734 -0.7240 -2.3416
   45SOL     OW  133   0.349   1.898   2.624 -0.0899 -0.5128 -0.5090
   45SOL    HW1  134   0.329   1.929   2.527 -0.3431  1.2490  0.8636
   45SOL    HW2  135   0.415   1.816   2.629  0.1279 -1.4538  0.4735
   46SOL     OW  136   1.283   0.620   0.144  0.5097  0.0326 -0.0053
   46SOL    HW1  137   1.310   0.708   0.099  1.3642 -1.6616 -1.8881
   46SOL    HW2  138   1.178   0.608   0.150 -2.1604  0.1922  0.2184
   47SOL     OW  139   0.232   2.524   1.559 -0.0717 -0.4445  0.5115
   47SOL    HW1  140   0.183   2.433   1.581  2.0257 -2.3543  1.3786
   47SOL    HW2  141   0.228   2.559   1.462  0.1125  2.0156 -1.6404
   48SOL     OW  142   2.635   0.632   0.140  0.1348  0.2749  0.1526
   48SOL    HW1  143   2.636   0.616   0.240 -2.2531  0.4434 -1.6039
   48SOL    HW2  144   2.721   0.678   0.101  3.1045 -0.3765  0.6071
   49SOL     OW  145   0.311   0.746   1.715  1.0084 -0.0099 -0.5848
   49SOL    HW1  146   0.368   0.747   1.801  1.4041 -1.4427  0.7077
   49SOL    HW2  147   0.354   0.700   1.631 -0.2720  0.8749 -1.2075
   50SOL     OW  148   1.679   1.127   0.348 -0.1329 -0.3527 -0.0556
   50SOL    HW1  149   1.651   1.047   0.295  0.6565 -1.1714  0.7147
   50SOL    HW2  150   1.632   1.130   0.437  1.2159 -0.2856  1.4864
   51SOL     OW  151   2.963   1.747   0.264  0.8953 -0.5714  0.2406
   51SOL    HW1  152   2.953   1.655   0.218  2.5264  1.5435 -0.4002
   51SOL    HW2  153   3.028   1.742   0.342 -0.1626  1.2726  3.5698
   52SOL     OW  154   0.802   2.117   0.590 -0.0422  0.6411  0.1675
   52SOL    HW1  155   0.702   2.143   0.613  0.1829  0.4598  2.0424
   52SOL    HW2  156   0.834   2.029   0.628  2.0834  1.3171  0.7846
   53SOL     OW  157   0.236   0.428   1.598 -0.7582  0.3192  0.1598
   53SOL    HW1  158   0.308   0.493   1.565 -1.4655  1.5592  0.0607
   53SOL    HW2  159   0.141   0.471   1.597 -0.9797  3.1733 -1.3317
   54SOL     OW  160   1.820   0.495   3.054  0.1050 -0.1856 -0.1735
   54SOL    HW1  161   1.875   0.455   3.132 -2.0961 -1.6610 -0.1949
   54SOL    HW2  162   1.722   0.502   3.073  4.4264 -1.5125 -1.1262
   55SOL     OW  163   0.774   2.883   0.685  0.2163  0.1845 -0.6488
   55SOL    HW1  164   0.727   2.971   0.711  3.6925  1.8612 -2.4783
   55SOL    HW2  165   0.872   2.903   0.664  0.1554  0.4426  0.8160
   56SOL     OW  166   0.617   1.585   0.014 -0.4370  0.6358  0.3845
   56SOL    HW1  167   0.532   1.627   0.052  0.5873  3.5830 -0.6460
   56SOL    HW2  168   0.596   1.502  -0.047 -1.0636  0.7079 -1.5284
   57SOL     OW  169   1.736   2.517   2.336 -0.6305 -0.2839  0.0657
   57SOL    HW1  170   1.778   2.425   2.341  2.8717 -1.1253 -0.4912
   57SOL    HW2  171   1.661   2.527   2.411 -0.7558  0.2628  0.5625
   58SOL     OW  172   0.693   0.295   1.070 -0.4849  0.4217 -0.2534
   58SOL    HW1  173   0.595   0.309   1.111 -0.0585 -0.6979 -0.7321
   58SOL    HW2  174   0.733   0.203   1.106 -0.3431 -1.7990  0.3284
   59SOL     OW  175   0.399   2.302   2.727  0.1104  0.4932  0.2491
   59SOL    HW1  176   0.435   2.209   2.691  1.7296 -0.6233 -1.7287
   59SOL    HW2  177   0.470   2.366   2.771 -0.7554 -0.0967 -1.0250
   60SOL     OW  178   2.323   2.098   2.292 -0.1815  0.0548  0.7891
   60SOL    HW1  179   2.373   2.133   2.213 -2.9535 -0.3175 -3.4063
   60SOL    HW2  180   2.338   2.153   2.376  2.1698 -1.0164  0.4768
   61SOL     OW  181   1.271   0.590   0.443 -0.7004 -0.4144 -0.2976
   61SOL    HW1  182   1.176   0.627   0.472  0.5397 -1.5486  1.3600
   61SOL    HW2  183   1.303   0.612   0.352 -0.8213 -1.5077  1.3031
   62SOL     OW  184   2.716   1.770   2.923 -0.0772 -0.3002 -0.1671
   62SOL    HW1  185   2.668   1.765   2.833  0.8808  1.1960  0.1824
   62SOL    HW2  186   2.819   1.755   2.925  1.3935 -4.4178  0.6459
   63SOL     OW  187   0.523   0.813   0.206  0.1820  0.4599  0.2230
   63SOL    HW1  188   0.586   0.893   0.186 -0.6502 -0.3454  1.2636
   63SOL    HW2  189   0.515   0.790   0.308  0.0580 -2.7484 -1.1487
   64SOL     OW  190   0.030   0.441   2.453 -0.5626  0.5162  0.2786
   64SOL    HW1  191   0.121   0.492   2.465  0.6040  1.4251  2.0653
   64SOL    HW2  192  -0.038   0.511   2.419 -2.5151  2.4912 -1.2927
   65SOL     OW  193   0.176   1.499   0.613  0.3077  0.0042  0.5174
   65SOL    HW1  194   0.192   1.563   0.700 -0.3321 -0.1221  3.3597
   65SOL    HW2  195   0.266   1.490   0.563  0.7128  2.3029  0.7757
   66SOL     OW  196   2.543   0.363   0.565 -0.4576 -0.0271 -0.1259
   66SOL    HW1  197   2.638   0.326   0.591  0.4174  0.1990 -1.6640
   66SOL    HW2  198   2.465   0.349   0.636  0.8851  4.5080  0.3528
   67SOL     OW  199   0.562   2.470   1.437  0.2639 -0.1226 -0.4832
   67SOL    HW1  200   0.651   2.444   1.488  1.2183  0.4350  1.5262
   67SOL    HW2  201   0.490   2.395   1.427  1.2615  0.2796 -0.0193
   68SOL     OW  202   0.971   1.042   2.524 -0.2014 -0.4668  0.5744
   68SOL    HW1  203   1.049   0.986   2.495  0.1079  0.3533 -0.4804
   68SOL    HW2  204   0.918   1.075   2.444 -3.4851 -0.8788  1.4942
   69SOL     OW  205   0.700   2.798   2.157  0.2434  0.2126  0.0866
   69SOL    HW1  206   0.725   2.696   2.141 -1.6354 -1.1034  0.1279
   69SOL    HW2  207   0.597   2.809   2.159 -3.1974  1.7226 -0.8245
   70SOL     OW  208   0.484   0.184   2.598  0.2132 -0.5674 -0.6701
   70SOL    HW1  209   0.384   0.170   2.619  0.7563 -0.0976 -0.1126
   70SOL    HW2  210   0.539   0.093   2.617 -0.0819 -0.6913 -0.5960
   71SOL     OW  211   1.112   1.799   0.386 -0.2214  0.4755 -0.3578
   71SOL    HW1  212   1.064   1.741   0.453 -3.6939  1.3307 -0.9332
   71SOL    HW2  213   1.071   1.808   0.288  1.2068  0.5745  0.3815
   72SOL     OW  214   1.812   0.201   2.163 -0.3127  0.4554  0.0159
   72SOL    HW1  215   1.874   0.281   2.147 -0.6845 -4.1046 -1.0989
   72SOL    HW2  216   1.859   0.116   2.138  0.5943 -0.5627  0.0643
   73SOL     OW  217   2.815   2.194   2.388  0.1717  0.4299  0.2238
   73SOL    HW1  218   2.811   2.090   2.367 -2.1370 -1.5195  0.3207
   73SOL    HW2  219   2.851   2.207   2.485  0.5406  0.1878 -1.6824
   74SOL     OW  220   2.669   2.850   2.185 -0.6611 -0.0697  0.3403
   74SOL    HW1  221   2.647   2.833   2.283 -1.6430  0.0053 -2.5935
   74SOL    HW2  222   2.749   2.918   2.177  1.7823  2.0580  0.2799
   75SOL     OW  223   0.975   0.838   1.108 -0.0348  0.3054 -0.3092
   75SOL    HW1  224   0.901   0.875   1.045 -0.4868 -1.0912 -1.8161
   75SOL    HW2  225   0.983   0.893   1.196  2.9715 -3.3520  0.2422
   76SOL     OW  226   1.758   1.192   2.484  0.6474  0.0985 -0.3630
   76SOL    HW1  227   1.662   1.159   2.470  4.1083 -0.2353  0.0458
   76SOL    HW2  228   1.760   1.276   2.545  1.5446 -0.9670  0.1681
   77SOL     OW  229   2.934   0.952   1.010  0.3516 -0.4029  0.4177
   77SOL    HW1  230   2.894   0.854   1.003 -0.3342 -1.2267  0.5217
   77SOL    HW2  231   2.994   0.960   1.098 -0.6289  0.0703  0.5342
   78SOL     OW  232   1.998   1.487   1.466 -0.0046  0.1068  0.4597
   78SOL    HW1  233   2.090   1.516   1.426 -0.8200 -0.3371  0.6692
   78SOL    HW2  234   1.918   1.498   1.396 -2.6121  0.9667  2.2488
   79SOL     OW  235   0.622   1.413   0.787  0.1906 -0.0320 -0.0604
   79SOL    HW1  236   0.527   1.391   0.816 -1.4232  1.2542  0.8155
   79SOL    HW2  237   0.654   1.361   0.707  1.1138  4.3255  0.9317
   80SOL     OW  238   0.659   0.462   1.545  0.3416 -0.6631 -0.6017
   80SOL    HW1  239   0.712   0.525   1.477  1.2400  0.4329 -0.0508
   80SOL    HW2  240   0.653   0.363   1.517  0.2321 -0.1020 -0.0073
   81SOL     OW  241   1.051   1.307   2.627  0.1842 -0.1497  0.0062
   81SOL    HW1  242   1.063   1.207   2.598  0.7334 -1.9157  2.4685
   81SOL    HW2  243   0.991   1.368   2.564 -1.9650 -0.2973  0.8182
   82SOL     OW  244   0.946   3.009   1.524 -0.4937 -0.1362 -0.4452
   82SOL    HW1  245   0.856   2.973   1.484  0.0251  0.2917  0.0280
   82SOL    HW2  246   1.022   3.001   1.454 -0.3312 -0.6653 -0.4849
   83SOL     OW  247   2.624   2.389   0.838 -0.0444 -0.1527  0.2670
   83SOL    HW1  248   2.521   2.389   0.848  2.6173 -0.1865  0.1133
   83SOL    HW2  249   2.648   2.361   0.738 -0.8975 -2.3383 -2.4459
   84SOL     OW  250   0.670   3.064   2.398  0.5126  0.8196 -0.5221
   84SOL    HW1  251   0.613   3.077   2.484  1.3420 -0.2509 -0.3165
   84SOL    HW2  252   0.717   2.971   2.407  2.5987 -2.2410  0.2489
   85SOL     OW  253   0.287   1.607   1.437 -0.4262 -0.1580 -0.0592
   85SOL    HW1  254   0.238   1.696   1.426 -1.5296 -1.8346  0.0325
   85SOL    HW2  255   0.331   1.603   1.526  0.7713 -0.5380 -1.2206
   86SOL     OW  256   0.462   1.062   1.499  0.5217  0.4621 -1.0296
   86SOL    HW1  257   0.415   1.007   1.421 -1.1493 -0.3816  0.3645
   86SOL    HW2  258   0.554   1.020   1.529  0.5159  1.1146  1.7036
   87SOL     OW  259   1.622   0.654   0.252  1.0863  0.3997  0.6561
   87SOL    HW1  260   1.686   0.731   0.224 -0.8364 -2.9446 -1.8067
   87SOL    HW2  261   1.603   0.586   0.171 -0.2990  0.0715 -0.8681
   88SOL     OW  262   1.552   1.363   0.276  1.1984  0.2699  0.3596
   88SOL    HW1  263   1.592   1.277   0.319 -0.5500 -0.1261 -2.5120
   88SOL    HW2  264   1.448   1.364   0.270  3.8448  0.1680 -1.4284
   89SOL     OW  265   3.095   0.434   0.583  0.1431 -0.5607  0.0631
   89SOL    HW1  266   3.145   0.337   0.574  1.8208 -2.9632  0.0807
   89SOL    HW2  267   2.992   0.423   0.572 -0.2130 -1.2952 -0.4778
   90SOL     OW  268   0.890   1.565   0.053  0.1252  0.3803  0.0931
   90SOL    HW1  269   0.891   1.479   0.114  0.7623 -1.8532 -1.7319
   90SOL    HW2  270   0.803   1.581  -0.001  1.4203  0.9845  0.1163
   91SOL     OW  271   1.232   1.479   1.786 -0.5487 -0.1088 -0.2377
   91SOL    HW1  272   1.204   1.552   1.853  0.5321  0.8733 -1.8101
   91SOL    HW2  273   1.332   1.464   1.783  0.5204 -0.7701 -0.6614
   92SOL     OW  274   3.097   0.953   1.232  0.0364  0.2230 -0.2320
   92SOL    HW1  275   3.158   1.030   1.190  1.0998  1.5282  1.2108
   92SOL    HW2  276   3.083   0.961   1.336 -0.6871  0.9107 -0.1218
   93SOL     OW  277   3.074   2.734   0.049  0.2819 -0.2969  0.2579
   93SOL    HW1  278   3.030   2.743  -0.045 -2.0225 -0.3631 -0.6869
   93SOL    HW2  279   3.081   2.637   0.087  1.4514 -1.2005  3.1753
   94SOL     OW  280   1.499   1.470   1.818  0.4227  0.1458  0.2972
   94SOL    HW1  281   1.572   1.398   1.800 -0.4792 -2.0316  1.0433
   94SOL    HW2  282   1.528   1.566   1.858  1.6348  1.8067  0.2801
   95SOL     OW  283   1.457   2.507   2.988  0.8628 -0.2843 -0.5805
   95SOL    HW1  284   1.383   2.543   3.048 -0.6331  0.7353  0.3212
   95SOL    HW2  285   1.438   2.414   2.951 -0.3675  2.2909 -1.1532
   96SOL     OW  286   0.558   2.100   1.317  0.0043 -0.2102 -0.2105
   96SOL    HW1  287   0.533   2.049   1.232  1.2972 -0.6402 -0.4790
   96SOL    HW2  288   0.633   2.059   1.377 -0.3680  0.5168 -0.1887
   97SOL     OW  289   0.317   1.624   2.445 -0.5089  0.2620 -0.0684
   97SOL    HW1  290   0.255   1.694   2.396 -1.3543 -2.2647 -0.1528
   97SOL    HW2  291   0.279   1.593   2.539 -1.8914  2.4543  1.6324
   98SOL     OW  292   2.101   1.630   1.181  0.2477 -0.6982  0.1725
   98SOL    HW1  293   2.006   1.591   1.183  3.0106 -0.0555 -0.0290
   98SOL    HW2  294   2.177   1.558   1.176 -1.4453 -1.2958 -0.1548
   99SOL     OW  295   2.543   2.055   1.304  0.2556  0.2835  0.2666
   99SOL    HW1  296   2.610   2.082   1.377  1.8988 -1.9231 -1.5405
   99SOL    HW2  297   2.488   1.972   1.324  0.8308  1.9054 -0.7053
  100SOL     OW  298   2.298   0.409   2.095 -0.1724  0.3993  0.0562
  100SOL    HW1  299   2.251   0.384   2.186  2.2720  1.9039  0.3791
  100SOL    HW2  300   2.399   0.427   2.119 -2.1844 -0.9157 -0.6484
  101SOL     OW  301   0.423   1.493   0.472  0.4482 -0.1275 -0.3985
  101SOL    HW1  302   0.418   1.584   0.523 -1.2172 -2.7915  1.7334
  101SOL    HW2  303   0.516   1.477   0.429  2.3665  1.9524 -1.1170
  102SOL     OW  304   2.263   1.053   0.819  0.1032  0.3454  0.0760
  102SOL    HW1  305   2.173   1.013   0.790 -0.4058 -0.3082 -3.6179
  102SOL    HW2  306   2.337   1.059   0.743 -0.3177  1.7011 -2.1961
  103SOL     OW  307   2.213   0.094   0.376 -0.1309  0.2887  0.2911
  103SOL    HW1  308   2.254   0.178   0.326 -1.5514  1.2030 -1.6774
  103SOL    HW2  309   2.278   0.036   0.427  1.1388  1.1178 -0.9620
  104SOL     OW  310   0.091   1.827   2.130 -0.1487  0.5213 -0.5200
  104SOL    HW1  311   0.138   1.811   2.040  0.8661  1.7437  1.6472
  104SOL    HW2  312  -0.010   1.836   2.121 -2.7217  2.1131 -0.2921
  105SOL     OW  313   1.278   2.107   0.783 -0.3417  0.2923  0.1068
  105SOL    HW1  314   1.356   2.118   0.714  2.3166  1.1278  1.0411
  105SOL    HW2  315   1.204   2.040   0.757 -0.7225  0.6580 -0.2724
  106SOL     OW  316   2.130   0.368   1.400  0.1764 -0.1496 -0.2941
  106SOL    HW1  317   2.114   0.263   1.403 -0.6404 -1.9003 -0.4115
  106SOL    HW2  318   2.122   0.411   1.495  0.0635 -0.3270  1.4401
  107SOL     OW  319   1.913   2.947   1.232 -0.0941 -0.4611 -0.1243
  107SOL    HW1  320   1.889   3.027   1.290  2.0808 -0.4791 -2.4163
  107SOL    HW2  321   1.833   2.910   1.184  1.3639  2.7300  0.1199
  108SOL     OW  322   0.805   2.801   1.277 -0.0127  0.0691 -0.2615
  108SOL    HW1  323   0.830   2.701   1.267  0.1431 -0.8084 -1.2534
  108SOL    HW2  324   0.884   2.866   1.259  2.4062  1.0086 -0.0871
  109SOL     OW  325   2.111   0.124   0.759 -0.2153  0.3302 -0.3732
  109SOL    HW1  326   2.009   0.125   0.736 -0.3488  0.0688  0.0844
  109SOL    HW2  327   2.131   0.094   0.857  1.3892  1.0225 -0.3052
  110SOL     OW  328   0.487   2.813   2.755  0.0732 -0.1678 -0.0986
  110SOL    HW1  329   0.456   2.767   2.666 -0.7271 -0.2853 -2.2442
  110SOL    HW2  330   0.551   2.755   2.810 -2.5256  0.0404 -3.1043
  111SOL     OW  331   1.266   0.469   2.336 -1.0725 -0.0407  0.2925
  111SOL    HW1  332   1.187   0.509   2.385  1.1311 -1.0531 -1.1407
  111SOL    HW2  333   1.334   0.427   2.405 -0.2609  0.2944  1.0535
  112SOL     OW  334   1.750   0.494   1.485  0.1993 -0.6799  0.3425
  112SOL    HW1  335   1.736   0.467   1.389  0.6546  0.7092 -0.1165
  112SOL    HW2  336   1.718   0.433   1.555 -0.2416  1.8282  0.6058
  113SOL     OW  337   2.387   1.631   1.756  0.3102 -0.2366 -0.5505
  113SOL    HW1  338   2.444   1.540   1.764  0.5466 -1.5334 -0.3469
  113SOL    HW2  339   2.361   1.668   1.853 -1.3997 -2.0234  0.9907
  114SOL     OW  340   0.326   0.532   1.238 -0.4404  0.0591 -0.1010
  114SOL    HW1  341   0.388   0.557   1.156  4.5786  1.3045 -1.8918
  114SOL    HW2  342   0.237   0.578   1.222  0.2773  1.5320  0.8094
  115SOL     OW  343   2.750   1.630   1.214  0.6228 -0.3693  0.8636
  115SOL    HW1  344   2.717   1.529   1.210 -0.3383  1.5203 -0.7977
  115SOL    HW2  345   2.848   1.640   1.205 -1.1972  0.0108 -0.8172
  116SOL     OW  346   1.795   1.023   0.607  1.1734  0.5743  0.4699
  116SOL    HW1  347   1.739   0.932   0.605 -1.9470 -0.1463  1.7174
  116SOL    HW2  348   1.739   1.101   0.652 -2.7326  2.1700  1.3800
  117SOL     OW  349   1.171   0.378   0.554 -0.2480  0.1686  0.4584
  117SOL    HW1  350   1.232   0.454   0.522  1.2101  3.2964 -2.3487
  117SOL    HW2  351   1.147   0.310   0.480  0.4516  1.5424  2.3926
  118SOL     OW  352   1.088   1.180   1.122 -0.6339  0.1729  0.3775
  118SOL    HW1  353   1.033   1.130   1.200  0.3009  0.0448  0.6942
  118SOL    HW2  354   1.130   1.271   1.159  3.0650 -1.7604  1.4942
  119SOL     OW  355   1.819   1.580   2.158 -0.2338 -0.5100  0.0375
  119SOL    HW1  356   1.776   1.673   2.139  0.6248 -0.6148  0.4012
  119SOL    HW2  357   1.920   1.579   2.133 -1.3177 -0.4249  1.2981
  120SOL     OW  358   2.926   2.858   0.246 -0.3598 -0.2411  0.3820
  120SOL    HW1  359   3.000   2.806   0.194  0.5457  0.9540  1.2953
  120SOL    HW2  360   2.836   2.818   0.223 -0.1463  1.9772  1.1030
  121SOL     OW  361   1.933   0.737   2.225 -0.4006 -0.1754 -0.5534
  121SOL    HW1  362   1.907   0.800   2.148 -1.2601 -0.0155 -0.6534
  121SOL    HW2  363   1.932   0.637   2.197  0.2474 -0.5201  0.1479
  122SOL     OW  364   2.688   2.571   1.324  0.3815  0.7660  0.6761
  122SOL    HW1  365   2.737   2.538   1.241 -2.5173  2.3875  1.5313
  122SOL    HW2  366   2.584   2.580   1.314  0.2665 -2.2781  0.9684
  123SOL     OW  367   1.752   0.038   1.709 -0.4785  0.1492 -0.1052
  123SOL    HW1  368   1.797  -0.026   1.644 -2.7213  0.5179  0.5163
  123SOL    HW2  369   1.830   0.091   1.766  2.1588 -2.8633 -0.4915
  124SOL     OW  370   0.052   0.451   1.105 -0.3551  0.4558  0.1475
  124SOL    HW1  371   0.060   0.538   1.167 -0.3643 -1.1626  0.3016
  124SOL    HW2  372   0.055   0.475   1.008 -2.2715 -1.0192  0.4779
  125SOL     OW  373   0.887   1.886   0.736  0.5678  0.3162  0.4804
  125SOL    HW1  374   0.975   1.831   0.755  0.5945 -1.0640  0.4491
  125SOL    HW2  375   0.826   1.894   0.814  0.2526  0.5393 -0.8046
  126SOL     OW  376   1.832   2.272   2.418  0.1254  0.3139 -0.2658
  126SOL    HW1  377   1.904   2.237   2.348 -2.4080  0.0162 -1.6912
  126SOL    HW2  378   1.769   2.190   2.444 -2.4653  0.5245  2.4086
  127SOL     OW  379   0.931   0.927   0.173 -0.0566  0.5123 -0.0268
  127SOL    HW1  380   0.949   0.980   0.263 -3.5908 -0.5472  1.4779
  127SOL    HW2  381   0.903   0.829   0.193 -1.3022 -2.0023 -0.2103
  128SOL     OW  382   0.907   0.233   1.395 -0.1308  0.6369  0.1528
  128SOL    HW1  383   0.901   0.294   1.312 -0.1892  4.1671 -1.6761
  128SOL    HW2  384   0.880   0.139   1.373 -2.6494  2.0603  3.0897
  129SOL     OW  385   1.863   0.675   1.868  0.3439  0.0578  0.2603
  129SOL    HW1  386   1.854   0.707   1.771 -1.3855  0.3620 -1.1765
  129SOL    HW2  387   1.904   0.754   1.932  0.3141  3.5388  0.9182
  130SOL     OW  388   1.420   2.145   1.036  0.1885  0.0812  0.3287
  130SOL    HW1  389   1.351   2.105   0.969  2.0666 -1.0468  0.1202
  130SOL    HW2  390   1.487   2.212   0.996  1.7048 -0.2598 -1.5256
  131SOL     OW  391   3.010   1.389   1.376  0.4376 -1.2665  0.6221
  131SOL    HW1  392   2.966   1.307   1.414  0.8353 -0.5747 -1.0120
  131SOL    HW2  393   3.111   1.391   1.372 -0.8382  1.1492 -2.3669
  132SOL     OW  394   2.039   2.424   0.467  0.1777 -0.1168 -0.1491
  132SOL    HW1  395   1.960   2.486   0.482 -3.9239 -1.8267 -1.4197
  132SOL    HW2  396   2.031   2.335   0.524  2.9562  0.3282 -0.0431
  133SOL     OW  397   1.764   2.345   2.727 -0.3792 -0.2440 -0.1765
  133SOL    HW1  398   1.704   2.413   2.680 -0.0738  1.9131 -0.4572
  133SOL    HW2  399   1.861   2.377   2.723  0.7068  0.0703  3.6641
  134SOL     OW  400   2.676   2.286   1.598  0.3789 -0.7219 -0.0302
  134SOL    HW1  401   2.580   2.308   1.634 -0.7438 -3.4268 -1.1788
  134SOL    HW2  402   2.744   2.364   1.604  0.1029 -0.1755 -1.4655
  135SOL     OW  403   0.725   1.459   2.682  0.0681  0.1536 -0.0742
  135SOL    HW1  404   0.672   1.380   2.720 -2.0068  2.3995 -1.3360
  135SOL    HW2  405   0.737   1.454   2.577  0.3227 -1.0052  0.6247
  136SOL     OW  406   1.235   2.036   0.489  0.2164 -0.2114  0.0906
  136SOL    HW1  407   1.166   2.112   0.498  1.4795  2.3534  2.0089
  136SOL    HW2  408   1.185   1.944   0.470 -1.1237 -1.0295  2.2512
  137SOL     OW  409   0.435   1.197   2.250 -0.0330  0.0341  0.5106
  137SOL    HW1  410   0.333   1.157   2.246 -1.3204  1.2918  0.5662
  137SOL    HW2  411   0.504   1.120   2.249 -0.2623  0.8749 -2.4350
  138SOL     OW  412   2.502   1.512   0.265  0.0157  0.0885  0.0393
  138SOL    HW1  413   2.402   1.483   0.261  1.9645 -0.4296  0.3695
  138SOL    HW2  414   2.561   1.434   0.304  0.5103  1.1443 -1.3252
  139SOL     OW  415   1.903   2.624   1.412  0.1247 -0.0567  1.1735
  139SOL    HW1  416   1.835   2.687   1.370  1.6387 -0.2104 -0.4146
  139SOL    HW2  417   1.894   2.529   1.378 -1.2695 -0.4037  0.6683
  140SOL     OW  418   3.017   2.976   2.529  0.3150  0.4678  0.4013
  140SOL    HW1  419   3.070   2.889   2.558  1.2438 -1.8226  0.7755
  140SOL    HW2  420   3.077   3.045   2.473  1.1360  2.5690 -0.7659
  141SOL     OW  421   1.315   1.710   1.631 -0.1906 -0.0062  0.8810
  141SOL    HW1  422   1.238   1.780   1.642 -1.7358 -0.3657 -1.4887
  141SOL    HW2  423   1.284   1.612   1.645  2.9753 -0.7643  1.6679
  142SOL     OW  424   1.543   0.600   2.250  0.1366 -0.3875 -0.1532
  142SOL    HW1  425   1.584   0.574   2.157  0.1934 -1.4096 -1.5118
  142SOL    HW2  426   1.454   0.549   2.283 -0.8142 -0.0262 -0.4319
  143SOL     OW  427   2.759   0.907   0.508  0.5392  0.0299  0.2325
  143SOL    HW1  428   2.799   0.954   0.426  1.3751 -0.6741  1.6518
  143SOL    HW2  429   2.813   0.930   0.599 -0.0232  3.5193 -0.0827
  144SOL     OW  430   2.874   1.174   1.521  0.2684 -0.3278  0.0282
  144SOL    HW1  431   2.824   1.171   1.610 -3.4497 -3.1247  0.1941
  144SOL    HW2  432   2.951   1.107   1.516  1.0182 -0.6077  1.5605
  145SOL     OW  433   1.033   1.815   0.126 -0.3482 -0.4035 -0.4256
  145SOL    HW1  434   1.121   1.828   0.077 -0.5622  0.6868  0.5418
  145SOL    HW2  435   0.993   1.721   0.111 -0.5720 -1.8247  1.2109
  146SOL     OW  436   2.455   0.670   1.519  0.0758  0.3439  0.3600
  146SOL    HW1  437   2.447   0.579   1.460  2.3654 -2.5213  0.2555
  146SOL    HW2  438   2.389   0.747   1.488 -3.3370 -0.6912 -2.6286
  147SOL     OW  439   1.104   2.565   0.612 -0.0904  0.6479  0.6445
  147SOL    HW1  440   1.074   2.634   0.536 -0.1033 -0.9461 -0.8794
  147SOL    HW2  441   1.201   2.520   0.598  2.2708 -3.0027  2.7280
  148SOL     OW  442   1.620   1.440   0.015  0.4760 -0.4550 -0.1960
  148SOL    HW1  443   1.584   1.381  -0.064 -0.6616 -0.1484 -2.0224
  148SOL    HW2  444   1.584   1.418   0.109 -0.8521  1.3410 -0.3482
  149SOL     OW  445   0.643   1.458   1.947 -0.0953  0.4377 -0.8401
  149SOL    HW1  446   0.548   1.420   1.965  1.5296 -2.3994  1.6475
  149SOL    HW2  447   0.693   1.398   1.883 -0.3330  1.1517  0.5444
  150SOL     OW  448   3.039   1.224   0.974 -0.2649  0.1336  0.3820
  150SOL    HW1  449   3.130   1.220   1.027 -1.7207 -5.6193  0.3390
  150SOL    HW2  450   2.991   1.132   0.978 -0.9354  1.2265  2.3478
  151SOL     OW  451   0.147   0.699   2.111  0.3133  0.0936  0.1503
  151SOL    HW1  452   0.105   0.769   2.051  0.6040  0.4528  1.3490
  151SOL    HW2  453   0.214   0.637   2.060 -0.0783  0.7158 -0.7813
  152SOL     OW  454   1.455   1.790   1.173 -0.4686 -0.4062 -0.3026
  152SOL    HW1  455   1.491   1.889   1.175  2.5558  2.3308 -3.6760
  152SOL    HW2  456   1.351   1.787   1.150  0.5882 -0.8338  0.4689
  153SOL     OW  457   0.139   1.555   0.215  0.4805  0.0815  0.2788
  153SOL    HW1  458   0.109   1.459   0.204  1.1280 -0.0449  0.1765
  153SOL    HW2  459   0.113   1.596   0.305 -1.1376 -0.9354 -0.5722
  154SOL     OW  460   2.358   1.901   2.858 -0.2083  0.4216 -0.2001
  154SOL    HW1  461   2.375   1.806   2.892 -0.8194  0.3329  2.9641
  154SOL    HW2  462   2.415   1.920   2.769  2.3783 -0.9993 -1.4828
  155SOL     OW  463   2.529   1.150   0.396  0.0503 -0.4750 -0.1343
  155SOL    HW1  464   2.615   1.146   0.337  0.9520 -2.6777  0.9590
  155SOL    HW2  465   2.446   1.116   0.342 -2.8503 -3.5862  0.4586
  156SOL     OW  466   2.466   0.863   0.769 -0.0023 -0.3588 -0.7103
  156SOL    HW1  467   2.373   0.867   0.813 -0.5194 -2.2163  0.8439
  156SOL    HW2  468   2.465   0.884   0.667  1.1960 -1.8309  0.3243
  157SOL     OW  469   1.237   3.002   2.964  0.2177  0.0596  0.5481
  157SOL    HW1  470   1.327   2.976   2.921 -2.1465  0.6714  0.2944
  157SOL    HW2  471   1.238   3.098   3.003 -0.0020  2.6632  2.2082
  158SOL     OW  472   0.975   1.882   1.883 -0.2617 -0.0709 -0.2900
  158SOL    HW1  473   1.015   1.974   1.863  0.0691 -1.3658 -0.7703
  158SOL    HW2  474   0.892   1.887   1.947  0.8530  3.8528  0.0705
  159SOL     OW  475   0.886   0.449   1.196  0.2784  0.5455  0.0144
  159SOL    HW1  476   0.832   0.511   1.252  1.2852 -0.9292  1.8183
  159SOL    HW2  477   0.826   0.395   1.129 -0.0826 -1.6639 -2.0411
  160SOL     OW  478   1.356   2.460   1.577  0.6030  0.1302 -0.2781
  160SOL    HW1  479   1.331   2.380   1.635 -0.7462  1.6086 -0.0458
  160SOL    HW2  480   1.454   2.469   1.566 -1.0484  1.8363  0.2691
  161SOL     OW  481   3.087   2.898   0.462 -0.3501 -0.8407 -0.8224
  161SOL    HW1  482   3.027   2.814   0.479  0.6768 -0.3077 -0.7384
  161SOL    HW2  483   3.036   2.950   0.385  0.0030 -3.3042  1.4177
  162SOL     OW  484   2.598   1.843   0.486 -0.0912 -0.2088 -0.0172
  162SOL    HW1  485   2.558   1.806   0.394 -4.3594 -2.2227  1.3163
  162SOL    HW2  486   2.566   1.794   0.571 -0.0859 -2.3247  0.2264
  163SOL     OW  487   1.971   2.718   0.732  0.7127 -0.4978 -0.2206
  163SOL    HW1  488   1.954   2.749   0.633 -0.8096  0.6931 -1.0428
  163SOL    HW2  489   2.036   2.639   0.736 -1.8137 -1.6397  0.3450
  164SOL     OW  490   3.050   0.195   1.258  0.4208  0.0036  0.4408
  164SOL    HW1  491   3.114   0.264   1.226  0.0513 -3.7501  2.0517
  164SOL    HW2  492   3.094   0.134   1.324 -0.0534  0.0107 -1.8506
  165SOL     OW  493   1.013   1.391   0.752  0.3191  0.6493  0.2553
  165SOL    HW1  494   0.956   1.394   0.841  0.7585 -1.4106  1.5265
  165SOL    HW2  495   1.015   1.475   0.695  0.6060  0.0801 -1.8255
  166SOL     OW  496   1.592   1.008   1.812  0.4140 -0.0586  0.1716
  166SOL    HW1  497   1.510   1.022   1.876 -3.0615 -2.2481 -1.5663
  166SOL    HW2  498   1.644   1.098   1.809  0.0669  2.2040 -1.3294
  167SOL     OW  499   0.755   1.979   1.476  0.1796  0.0095 -0.1613
  167SOL    HW1  500   0.770   2.042   1.555  1.5750 -1.4578 -0.1098
  167SOL    HW2  501   0.716   1.892   1.506 -0.3193  1.9559 -2.5460
  168SOL     OW  502   1.618   2.353   0.156 -0.3457 -0.0573  0.2253
  168SOL    HW1  503   1.690   2.366   0.083 -0.6141 -0.7951 -1.1274
  168SOL    HW2  504   1.667   2.310   0.236 -0.4723 -0.9091  1.2581
  169SOL     OW  505   0.183   2.572   2.237  0.4013 -0.2908 -0.0867
  169SOL    HW1  506   0.186   2.529   2.140 -2.6406  0.4826  0.5848
  169SOL    HW2  507   0.196   2.495   2.307 -0.1347 -0.5829  1.9326
  170SOL     OW  508   1.110   0.229   2.002  0.1150  0.3388  0.0761
  170SOL    HW1  509   1.176   0.220   2.087  1.5301 -1.9352  0.7619
  170SOL    HW2  510   1.150   0.195   1.910  0.1658  0.5196 -3.9332
  171SOL     OW  511   0.180   0.791   2.365  0.0287 -0.3417 -0.1203
  171SOL    HW1  512   0.090   0.821   2.420 -0.7383  0.4733 -0.0930
  171SOL    HW2  513   0.165   0.756   2.266 -0.8677 -1.1501 -1.5822
  172SOL     OW  514   0.960   0.971   2.887  0.0132  0.2987 -0.5006
  172SOL    HW1  515   0.943   1.047   2.954  2.0153 -2.3688  2.3165
  172SOL    HW2  516   0.887   0.969   2.814  0.9421  1.6661  1.7963
  173SOL     OW  517   0.566   2.536   0.120  0.2046 -0.6489 -0.1559
  173SOL    HW1  518   0.513   2.524   0.031 -2.3325 -1.8337  0.6885
  173SOL    HW2  519   0.515   2.564   0.205 -2.6326  0.4686 -2.3246
  174SOL     OW  520   1.527   2.789   1.023 -0.3576  0.0990 -0.3139
  174SOL    HW1  521   1.558   2.854   0.942 -0.3146  2.1883 -0.8676
  174SOL    HW2  522   1.481   2.711   0.985  0.5643  0.8801  1.2289
  175SOL     OW  523   0.480   3.061   1.721  0.2353  0.0764  0.1819
  175SOL    HW1  524   0.545   3.016   1.787  1.6823  0.9552 -0.5728
  175SOL    HW2  525   0.458   3.158   1.742 -1.2168 -0.9268 -0.3013
  176SOL     OW  526   2.538   0.385   0.021 -0.3589 -0.4152  0.0876
  176SOL    HW1  527   2.560   0.476   0.077  0.3497  0.7172 -0.8552
  176SOL    HW2  528   2.487   0.311   0.074 -1.0311 -0.9009  1.8956
  177SOL     OW  529   0.296   0.323   0.923  0.2583 -0.4469  0.2634
  177SOL    HW1  530   0.299   0.221   0.944 -0.3364 -0.4748  0.6599
  177SOL    HW2  531   0.258   0.373   1.006 -2.2307  2.1347 -0.8715
  178SOL     OW  532   0.041   2.751   2.578 -0.3346 -0.5555  0.7110
  178SOL    HW1  533   0.003   2.656   2.552  2.4433  1.0491 -1.3269
  178SOL    HW2  534   0.128   2.745   2.634 -0.0522  0.8439  1.8981
  179SOL     OW  535   3.010   1.580   1.164  0.0853  0.0346 -0.0804
  179SOL    HW1  536   3.060   1.550   1.081 -2.1394  2.3809 -0.7110
  179SOL    HW2  537   3.008   1.509   1.241 -0.0537 -2.8676  0.2830
  180SOL     OW  538   0.185   1.296   1.812  0.0314 -0.0143 -0.2502
  180SOL    HW1  539   0.268   1.252   1.858 -0.8974  2.2038  1.0763
  180SOL    HW2  540   0.157   1.392   1.850  1.0196  4.1053  0.1333
  181SOL     OW  541   3.093   1.906   2.472 -0.8578  0.4780 -0.0782
  181SOL    HW1  542   3.139   1.995   2.458  0.8502  1.5854  0.2858
  181SOL    HW2  543   2.996   1.891   2.428 -1.8754 -0.5109  0.5538
  182SOL     OW  544   2.355   1.216   1.207  0.2011  0.1497  0.5538
  182SOL    HW1  545   2.267   1.189   1.157 -0.6736  1.6503  1.8017
  182SOL    HW2  546   2.369   1.318   1.200 -2.8115 -3.9822 -0.4856
  183SOL     OW  547   1.408   2.254   2.539 -0.5913 -0.1769  0.3092
  183SOL    HW1  548   1.324   2.215   2.586  0.5731  2.0005 -1.8160
  183SOL    HW2  549   1.485   2.190   2.533  2.0530  0.9459 -1.3508
  184SOL     OW  550   2.027   0.945   0.719  0.2657  0.3221  0.5298
  184SOL    HW1  551   1.941   0.993   0.675 -1.7907  2.7645  0.0876
  184SOL    HW2  552   1.996   0.846   0.745 -0.5378 -2.3082  1.6781
  185SOL     OW  553   1.574   2.751   1.949 -0.0694 -0.6263  0.1348
  185SOL    HW1  554   1.497   2.822   1.948  1.2198 -0.7567 -0.8528
  185SOL    HW2  555   1.612   2.736   2.047  0.8041  1.6427  0.5654
  186SOL     OW  556   0.119   2.235   1.654 -0.6167 -0.9388 -0.5378
  186SOL    HW1  557   0.104   2.294   1.740 -0.8349  2.0900  2.1751
  186SOL    HW2  558   0.198   2.166   1.654  0.1804  0.5069 -1.3215
  187SOL     OW  559   1.385   0.667   1.646 -0.0650 -0.4788  0.1644
  187SOL    HW1  560   1.478   0.716   1.619  0.7821  0.0292  0.3510
  187SOL    HW2  561   1.404   0.608   1.733  1.4436 -2.4261 -1.4076
  188SOL     OW  562   2.812   2.764   1.447  0.1275 -0.8270  0.0997
  188SOL    HW1  563   2.778   2.857   1.416 -1.7526 -0.1460 -2.7692
  188SOL    HW2  564   2.766   2.685   1.397  0.0710  0.8815  0.3816
  189SOL     OW  565   0.898   1.189   1.446 -0.0823  0.5809 -0.5614
  189SOL    HW1  566   0.978   1.237   1.492 -0.3394  2.5594  2.4581
  189SOL    HW2  567   0.824   1.263   1.434 -1.6199  1.3694 -1.2443
  190SOL     OW  568   1.464   1.933   1.611  0.3466 -0.6926  0.0273
  190SOL    HW1  569   1.417   1.842   1.590 -1.4591 -1.6172 -2.5645
  190SOL    HW2  570   1.471   1.945   1.714  0.7284  2.7402 -1.7408
  191SOL     OW  571   0.907   0.753   1.491 -0.1732  0.1356  0.0640
  191SOL    HW1  572   0.975   0.693   1.540  1.0757  0.6344 -1.8038
  191SOL    HW2  573   0.937   0.847   1.464  0.0676 -2.2736 -0.1809
  192SOL     OW  574   1.846   2.324   1.108 -0.2741  0.4865  0.5023
  192SOL    HW1  575   1.747   2.331   1.079 -1.7605  0.6972 -0.1562
  192SOL    HW2  576   1.914   2.296   1.039  0.1729  1.5158  2.7201
  193SOL     OW  577   0.512   0.536   0.423 -0.2531 -0.4798  0.1989
  193SOL    HW1  578   0.448   0.457   0.441 -1.5478  0.1701 -1.8733
  193SOL    HW2  579   0.559   0.525   0.329 -2.3412  0.7723  1.9930
  194SOL     OW  580   0.351   0.894   1.295 -0.1783  0.5955  0.3366
  194SOL    HW1  581   0.337   0.799   1.333 -0.3814  2.9449  1.1040
  194SOL    HW2  582   0.320   0.905   1.195  0.4002 -1.2058 -0.6476
  195SOL     OW  583   1.018   2.911   0.545 -0.4099 -0.1948  0.7712
  195SOL    HW1  584   0.988   2.845   0.471 -1.1948 -0.3048 -1.0352
  195SOL    HW2  585   1.100   2.962   0.511  0.3134 -1.3014 -4.7454
  196SOL     OW  586   0.196   1.357   1.361  0.1713  1.0914  0.2694
  196SOL    HW1  587   0.224   1.447   1.402  3.5080 -0.5171  0.2109
  196SOL    HW2  588   0.208   1.278   1.429 -0.7716 -0.4221 -0.5757
  197SOL     OW  589   0.824   2.047   0.239  0.0685 -0.1667  0.0217
  197SOL    HW1  590   0.781   1.961   0.285 -2.9713  1.0802 -0.4369
  197SOL    HW2  591   0.834   2.027   0.140 -3.8952 -0.7162  0.7145
  198SOL     OW  592   0.303   1.282   0.358  0.9611  0.3255  0.2891
  198SOL    HW1  593   0.206   1.302   0.324 -0.0395 -1.1727  1.1923
  198SOL    HW2  594   0.348   1.371   0.395 -2.5444 -1.2727 -0.1029
  199SOL     OW  595   2.298   0.415   2.567 -0.5179  0.9784  0.7096
  199SOL    HW1  596   2.214   0.403   2.618  0.0334 -1.0890 -1.7615
  199SOL    HW2  597   2.378   0.383   2.624  0.0532  0.8173  0.9978
  200SOL     OW  598   3.079   2.944   0.745 -0.3718  0.1078  0.3878
  200SOL    HW1  599   3.005   3.015   0.728  3.5631  2.5382 -1.3640
  200SOL    HW2  600   3.123   2.908   0.659  0.3434  0.7450  2.5231
  201SOL     OW  601   1.030   0.693   0.534 -0.3776 -0.1966 -0.2244
  201SOL    HW1  602   1.059   0.719   0.630  1.3802  0.3444 -1.6994
  201SOL    HW2  603   0.931   0.653   0.543 -4.1839 -2.8769  1.4132
  202SOL     OW  604   0.391   1.131   1.940  0.0288  0.4331 -0.4509
  202SOL    HW1  605   0.477   1.112   1.883  1.2896  1.7386  0.5922
  202SOL    HW2  606   0.427   1.174   2.027  2.6684 -0.6416 -0.8855
  203SOL     OW  607   0.609   0.206   1.484  0.9133 -0.3477 -0.1236
  203SOL    HW1  608   0.648   0.153   1.404 -1.9901 -2.2505  1.8589
  203SOL    HW2  609   0.645   0.168   1.571  1.4107  0.2657 -2.3682
  204SOL     OW  610   2.100   1.799   2.914  0.2571  0.6413  0.3443
  204SOL    HW1  611   2.086   1.696   2.927 -1.0617 -0.3845 -0.0414
  204SOL    HW2  612   2.168   1.832   2.849  0.9017  0.0566 -1.4110
  205SOL     OW  613   1.855   1.823   3.031 -0.3099 -0.2942  0.4913
  205SOL    HW1  614   1.953   1.817   2.994 -0.1193 -0.2730 -0.2262
  205SOL    HW2  615   1.803   1.910   3.007  0.3362 -0.8462  0.9301
  206SOL     OW  616   2.427   2.808   0.347 -0.4494 -0.0755  0.1409
  206SOL    HW1  617   2.448   2.713   0.383 -0.0524 -0.1725  1.0789
  206SOL    HW2  618   2.514   2.858   0.321  1.6519  1.7683 -0.5071
  207SOL     OW  619   0.678   1.831   2.940 -0.2087 -0.3485  0.0958
  207SOL    HW1  620   0.751   1.785   2.883 -1.5838 -2.1035 -0.5530
  207SOL    HW2  621   0.673   1.786   3.031  0.5744  0.3012 -0.4750
  208SOL     OW  622   1.160   1.609   1.396 -0.0981  0.9422 -0.8409
  208SOL    HW1  623   1.165   1.669   1.311  1.3034  0.4640  0.1736
  208SOL    HW2  624   1.182   1.663   1.480  0.3245 -0.4089  0.3668
  209SOL     OW  625   0.245   0.939   3.062  0.1693  0.5097  0.1782
  209SOL    HW1  626   0.222   0.851   3.007 -1.5962  1.6092 -0.8624
  209SOL    HW2  627   0.233   0.924   3.167 -1.1055 -0.0935  0.0044
  210SOL     OW  628   1.725   0.497   1.169 -0.4383  0.2222  0.3529
  210SOL    HW1  629   1.695   0.592   1.149 -0.6863  2.0009 -1.4444
  210SOL    HW2  630   1.831   0.500   1.175  0.5649  0.4369 -0.1016
  211SOL     OW  631   2.084   1.048   1.600  0.0768 -0.8729 -0.0165
  211SOL    HW1  632   2.097   0.979   1.681 -1.8479 -1.5019  0.4599
  211SOL    HW2  633   2.175   1.090   1.567 -1.2614 -1.4471 -1.8342
  212SOL     OW  634   0.012   0.967   1.512 -0.1689  0.3067  0.2476
  212SOL    HW1  635   0.071   1.051   1.526  2.3194 -1.5861  0.5576
  212SOL    HW2  636   0.034   0.891   1.577 -0.6992 -0.4853 -0.7197
  213SOL     OW  637   2.751   0.169   0.385 -0.7146 -0.1871 -0.0632
  213SOL    HW1  638   2.814   0.169   0.297 -2.5751  0.7123  1.6675
  213SOL    HW2  639   2.686   0.091   0.398 -2.1823  1.3027  0.0828
  214SOL     OW  640   2.196   0.315   2.326  0.1510  0.4103 -0.5528
  214SOL    HW1  641   2.232   0.336   2.423  2.7874  1.5161 -0.2457
  214SOL    HW2  642   2.221   0.215   2.302 -3.2660 -0.1221  0.4349
  215SOL     OW  643   1.621   2.317   2.084  0.2967 -0.7166 -0.0488
  215SOL    HW1  644   1.723   2.339   2.087 -0.5908  1.2810 -1.5040
  215SOL    HW2  645   1.560   2.395   2.126 -1.5885 -0.7340  2.0040
  216SOL     OW  646   2.205   0.636   0.684  0.2810  0.2317 -0.2858
  216SOL    HW1  647   2.176   0.560   0.626  2.2521  0.2269 -2.2564
  216SOL    HW2  648   2.203   0.724   0.630  1.0690  0.2367 -2.7088
  217SOL     OW  649   0.763   2.794   2.442  0.3638 -0.4446  0.1011
  217SOL    HW1  650   0.714   2.717   2.492 -1.1476  0.1457  2.2188
  217SOL    HW2  651   0.779   2.780   2.337 -1.3638 -0.5282 -0.4447
  218SOL     OW  652   1.896   1.434   0.026 -0.4064  0.2086  0.3074
  218SOL    HW1  653   1.800   1.453  -0.004 -0.0588  0.1723  0.3394
  218SOL    HW2  654   1.905   1.371   0.101  0.7682  0.2793 -1.8379
  219SOL     OW  655   2.446   1.306   2.518  0.2753 -0.1398  0.1856
  219SOL    HW1  656   2.469   1.259   2.425 -1.0312 -2.8761 -0.0994
  219SOL    HW2  657   2.470   1.241   2.597  1.8984 -0.7767 -0.5922
  220SOL     OW  658   1.466   1.055   1.309 -0.2462 -0.4849  0.4563
  220SOL    HW1  659   1.566   1.037   1.310 -2.0499 -1.0154  0.6565
  220SOL    HW2  660   1.431   1.090   1.218  1.7104 -1.2942 -1.1281
  221SOL     OW  661   1.280   0.982   2.177 -0.3689  0.1994  0.1060
  221SOL    HW1  662   1.216   1.030   2.111  0.8232 -2.4172 -1.8799
  221SOL    HW2  663   1.379   1.018   2.159  1.7165  1.2465 -1.4201
  222SOL     OW  664   1.117   0.082   1.196  0.4266  0.7298  0.0319
  222SOL    HW1  665   1.166   0.126   1.275 -1.2644  2.3322 -0.3670
  222SOL    HW2  666   1.126   0.128   1.106 -0.0415 -1.7541 -1.4588
  223SOL     OW  667   2.707   0.931   2.148 -0.5420 -0.4913 -0.6399
  223SOL    HW1  668   2.677   1.025   2.177  0.2914 -1.5699 -0.4061
  223SOL    HW2  669   2.797   0.901   2.193  1.4444  1.4399 -0.5846
  224SOL     OW  670   1.512   1.088   2.735 -0.3037 -0.0969  0.4013
  224SOL    HW1  671   1.560   0.997   2.697  0.8152 -3.2898  0.3540
  224SOL    HW2  672   1.481   1.151   2.664  2.5386  0.3940 -1.3686
  225SOL     OW  673   2.988   2.751   2.882  0.1331 -0.8217 -0.1325
  225SOL    HW1  674   2.887   2.731   2.845  0.4480 -1.6218 -0.1448
  225SOL    HW2  675   3.065   2.722   2.819  0.2419  0.4919  0.5037
  226SOL     OW  676   2.458   1.619   2.891 -0.1351  0.0590  0.0967
  226SOL    HW1  677   2.438   1.612   2.791  2.8173  0.4161  3.9654
  226SOL    HW2  678   2.399   1.559   2.951 -0.9516 -0.6352  2.4978
  227SOL     OW  679   0.836   0.165   3.095 -0.4925  0.7405 -0.5205
  227SOL    HW1  680   0.892   0.244   3.064  0.0387 -2.5508  0.2749
  227SOL    HW2  681   0.796   0.122   3.011  0.3032  1.9854  1.3376
  228SOL     OW  682   2.428   0.581   2.873  0.2437 -0.1173 -0.0201
  228SOL    HW1  683   2.485   0.646   2.812 -0.8947 -2.2932  3.4540
  228SOL    HW2  684   2.481   0.495   2.894 -0.1805  0.0138  0.2692
  229SOL     OW  685   0.562   0.504   1.822 -0.2020  0.6934  0.2242
  229SOL    HW1  686   0.558   0.403   1.845 -0.7643 -1.6625 -0.2527
  229SOL    HW2  687   0.604   0.506   1.728 -0.7325 -2.4498  0.4282
  230SOL     OW  688   1.942   1.156   2.078 -0.2433  0.0504  0.1458
  230SOL    HW1  689   2.003   1.232   2.042 -1.1570 -1.3541 -0.1853
  230SOL    HW2  690   1.846   1.190   2.091 -0.0027  1.1999  0.3354
  231SOL     OW  691   0.640   1.036   0.056  0.0313  0.3039 -0.4097
  231SOL    HW1  692   0.726   1.087   0.015  0.1241  1.7251 -1.9252
  231SOL    HW2  693   0.566   1.102   0.080  0.4024 -1.4673  0.0859
  232SOL     OW  694   2.439   3.079   2.891  0.5192  0.1643 -0.7509
  232SOL    HW1  695   2.476   2.982   2.883  1.2279  0.3305 -0.5741
  232SOL    HW2  696   2.483   3.132   2.815  0.0600  1.0355  1.2929
  233SOL     OW  697   1.720   1.214   1.132  1.1041 -0.1644 -0.0699
  233SOL    HW1  698   1.759   1.161   1.053  2.1428 -1.2792  1.8362
  233SOL    HW2  699   1.732   1.160   1.223  2.1648  0.5183  3.0530
  234SOL     OW  700   1.570   2.493   1.858  0.2634 -0.0914 -0.5866
  234SOL    HW1  701   1.559   2.593   1.883 -0.1835 -0.1621 -1.6141
  234SOL    HW2  702   1.636   2.439   1.921  2.1684 -1.6161 -2.8114
  235SOL     OW  703   3.093   3.044   2.807 -0.2584 -0.0523 -0.1942
  235SOL    HW1  704   3.051   3.027   2.712 -0.7687  0.2065  0.6901
  235SOL    HW2  705   3.032   3.073   2.882 -0.8658 -1.4463 -1.2568
  236SOL     OW  706   2.867   0.748   0.067 -0.2171 -0.1785 -0.3339
  236SOL    HW1  707   2.930   0.788   0.141 -0.8746  0.4852 -1.5600
  236SOL    HW2  708   2.906   0.663   0.026  0.7963  0.2567 -2.0200
  237SOL     OW  709   1.561   1.641   0.963 -0.3376 -0.3030  0.2828
  237SOL    HW1  710   1.663   1.629   0.934  2.4379 -1.6952 -1.0532
  237SOL    HW2  711   1.544   1.699   1.047  0.8684  0.0358 -0.6399
  238SOL     OW  712   1.794   1.247   0.811  0.1492 -0.0527 -0.8333
  238SOL    HW1  713   1.867   1.284   0.871  1.3477 -3.1891 -0.9709
  238SOL    HW2  714   1.712   1.311   0.786 -0.5448  0.6217 -0.1781
  239SOL     OW  715   2.107   0.316   2.738 -0.0239 -0.2689  0.7732
  239SOL    HW1  716   2.123   0.241   2.812 -1.5562 -0.6696 -1.6712
  239SOL    HW2  717   2.019   0.371   2.753 -0.1264 -0.6939  2.4245
  240SOL     OW  718   0.935   0.661   0.267 -0.1141  1.0137 -0.0164
  240SOL    HW1  719   0.947   0.566   0.227  0.1381  1.6888 -1.9620
  240SOL    HW2  720   0.988   0.679   0.353  0.7260 -0.9942 -0.5683
  241SOL     OW  721   0.616   0.041   0.406  0.0222 -0.1021  0.4185
  241SOL    HW1  722   0.630   0.127   0.350  0.2530 -3.2169  0.7762
  241SOL    HW2  723   0.575  -0.040   0.349 -0.5303 -0.0732 -0.2281
  242SOL     OW  724   0.601   2.487   1.140  0.0569 -0.4144 -0.0973
  242SOL    HW1  725   0.594   2.479   1.244 -1.0658 -3.7816 -0.2151
  242SOL    HW2  726   0.568   2.578   1.100 -1.0342 -0.5579 -0.9481
  243SOL     OW  727   1.075   0.604   2.499  0.2234 -0.4462 -0.5172
  243SOL    HW1  728   0.990   0.628   2.442 -0.5684  2.2910 -1.8878
  243SOL    HW2  729   1.056   0.551   2.584  0.1731  2.3313  1.7085
  244SOL     OW  730   2.849   1.873   2.338  0.3069 -0.5006  0.0294
  244SOL    HW1  731   2.851   1.870   2.230  1.5763  1.6819 -0.4900
  244SOL    HW2  732   2.761   1.832   2.382 -4.3009  1.4388  1.3520
  245SOL     OW  733   2.253   0.854   2.142 -1.0529  0.6238 -0.3981
  245SOL    HW1  734   2.346   0.871   2.180 -1.5423  0.5156  0.8686
  245SOL    HW2  735   2.185   0.860   2.221 -3.7124  2.7286  2.8813
  246SOL     OW  736   0.226   2.919   1.713 -0.1635 -0.3927 -0.2606
  246SOL    HW1  737   0.152   2.928   1.633 -2.0305  0.1357 -3.1059
  246SOL    HW2  738   0.308   2.981   1.693  0.5156  0.5055 -0.8918
  247SOL     OW  739   2.205   0.637   3.008  0.2128 -0.5019 -0.2790
  247SOL    HW1  740   2.285   0.607   2.946 -2.0949  1.5885  0.6601
  247SOL    HW2  741   2.160   0.725   2.973  2.1425 -0.1709 -1.5041
  248SOL     OW  742   2.171   1.824   1.595  0.4512  0.2255 -0.3879
  248SOL    HW1  743   2.255   1.791   1.638 -2.0629  0.8485 -0.0090
  248SOL    HW2  744   2.090   1.813   1.662  1.4742 -0.6763  0.7741
  249SOL     OW  745   1.874   1.967   1.932  0.8975  0.4891 -0.1801
  249SOL    HW1  746   1.880   1.891   1.860  0.4005  0.7293 -1.4800
  249SOL    HW2  747   1.962   2.022   1.941  0.0619 -0.9548 -0.5849
  250SOL     OW  748   1.083   0.685   1.873 -0.2078  0.0601 -0.3851
  250SOL    HW1  749   1.137   0.628   1.941  1.9085  0.2813  0.7696
  250SOL    HW2  750   1.067   0.633   1.780 -0.5200  0.5771 -1.7393
  251SOL     OW  751   0.036   1.624   2.535 -0.5533  0.1054  0.6333
  251SOL    HW1  752   0.015   1.729   2.543  1.7719 -0.3848  1.8950
  251SOL    HW2  753  -0.056   1.570   2.541 -1.4234  0.4730  1.8031
  252SOL     OW  754   1.614   0.811   1.581  0.1579 -0.2092  0.6644
  252SOL    HW1  755   1.701   0.818   1.520 -1.0223  0.0832  0.4927
  252SOL    HW2  756   1.608   0.888   1.652  0.1008 -1.8373 -0.2603
  253SOL     OW  757   1.001   1.571   0.547 -0.4358  0.1287 -0.0750
  253SOL    HW1  758   0.974   1.503   0.478 -0.1678  1.9260 -0.2179
  253SOL    HW2  759   0.916   1.620   0.588 -0.8941  0.9122 -0.2052
  254SOL     OW  760   2.035   2.178   1.631 -0.0767  0.1978 -0.1561
  254SOL    HW1  761   1.990   2.115   1.560 -1.0353  0.5403 -0.0139
  254SOL    HW2  762   1.966   2.219   1.697 -1.1159 -1.1694 -1.2551
  255SOL     OW  763   0.127   1.135   2.933  1.3012  0.3225 -0.0891
  255SOL    HW1  764   0.184   1.214   2.909 -2.8890 -1.2979 -1.2135
  255SOL    HW2  765   0.183   1.052   2.969 -2.0657  0.5126 -0.3175
  256SOL     OW  766   2.842   1.409   1.770  0.7182  0.5838  0.0422
  256SOL    HW1  767   2.759   1.460   1.811  0.6097 -1.4047  0.8349
  256SOL    HW2  768   2.825   1.304   1.757  1.5284 -1.8532  1.1299
  257SOL     OW  769   0.753   0.144   1.739  0.1792 -0.0972 -0.7336
  257SOL    HW1  770   0.822   0.220   1.744 -0.2251  1.7156 -0.0436
  257SOL    HW2  771   0.794   0.047   1.747 -1.2386  0.2525  0.1151
  258SOL     OW  772   3.013   1.229   0.444 -0.2121 -0.5138 -0.2634
  258SOL    HW1  773   2.923   1.275   0.419 -1.0285  0.5083  1.2046
  258SOL    HW2  774   3.042   1.226   0.548  3.5366 -1.0347  0.5666
  259SOL     OW  775   0.460   2.928   3.054 -0.2543 -0.1186 -0.1150
  259SOL    HW1  776   0.384   2.872   3.089  0.7613  0.3616 -1.5497
  259SOL    HW2  777   0.517   2.884   2.978  2.2826 -1.6998 -2.5204
  260SOL     OW  778   2.742   0.720   2.796 -0.1939 -0.6443 -0.0038
  260SOL    HW1  779   2.661   0.767   2.749 -1.4450  0.8292  0.7149
  260SOL    HW2  780   2.728   0.703   2.896 -5.5883 -0.2574 -1.3592
  261SOL     OW  781   2.696   1.374   1.283 -0.5115  0.0233  0.4642
  261SOL    HW1  782   2.684   1.316   1.199 -1.3747  0.2443  0.0428
  261SOL    HW2  783   2.772   1.348   1.351 -0.4847 -0.5562  3.1897
  262SOL     OW  784   1.390   2.963   1.979  0.0022  0.1216 -0.1717
  262SOL    HW1  785   1.446   3.044   1.937  2.4100  0.1147 -0.2357
  262SOL    HW2  786   1.288   2.952   1.956 -2.0864  1.0830  1.2591
  263SOL     OW  787   0.853   0.667   2.351 -0.0573 -0.6869 -0.1582
  263SOL    HW1  788   0.791   0.595   2.306 -0.6370  2.7361 -3.5977
  263SOL    HW2  789   0.889   0.742   2.287  1.1762 -0.7561 -1.8584
  264SOL     OW  790   2.226   0.808   0.448  1.0262 -0.3270  0.6824
  264SOL    HW1  791   2.208   0.752   0.364  2.6136  2.9155 -1.8443
  264SOL    HW2  792   2.320   0.846   0.454 -1.4363  1.2622 -0.1196
  265SOL     OW  793   0.953   2.450   2.616 -0.2343 -0.3694 -0.4409
  265SOL    HW1  794   0.998   2.493   2.699 -2.4929  0.0956 -0.8370
  265SOL    HW2  795   0.938   2.348   2.630  2.3621  4.0443 -0.4085
  266SOL     OW  796   1.319   1.773   3.048  0.6532  0.3528 -0.8246
  266SOL    HW1  797   1.316   1.845   3.127 -2.2579  0.1077 -0.9567
  266SOL    HW2  798   1.417   1.736   3.042  1.9612  0.2906 -0.4538
  267SOL     OW  799   1.041   0.027   2.344  0.1704 -0.2127  0.0525
  267SOL    HW1  800   1.022  -0.015   2.251 -0.0659  2.7295 -1.5085
  267SOL    HW2  801   0.962   0.082   2.376 -0.5055  0.1227  0.1608
  268SOL     OW  802   0.611   1.154   1.048 -0.2640 -0.0276  0.2250
  268SOL    HW1  803   0.620   1.217   1.135 -0.0816 -0.6586  1.8577
  268SOL    HW2  804   0.589   1.203   0.963 -1.1487 -0.4788 -1.4154
  269SOL     OW  805   2.297   2.564   1.611 -0.4983 -0.2833  0.2568
  269SOL    HW1  806   2.385   2.511   1.583  0.1686 -0.9389 -0.9806
  269SOL    HW2  807   2.258   2.544   1.709 -0.8058 -1.1209  0.0209
  270SOL     OW  808   0.161   2.964   1.976 -0.3695  0.7640 -0.6073
  270SOL    HW1  809   0.179   2.953   1.872 -1.3220  1.1311 -0.5924
  270SOL    HW2  810   0.115   2.880   2.016  0.6524  1.0806 -0.9983
  271SOL     OW  811   0.423   1.406   1.199  0.1513 -0.2980 -0.0899
  271SOL    HW1  812   0.419   1.402   1.092  1.6766 -0.3707  0.1115
  271SOL    HW2  813   0.331   1.378   1.241 -1.1555  2.2207  1.2689
  272SOL     OW  814   2.034   2.916   1.932  0.4434  0.2394 -0.3012
  272SOL    HW1  815   1.955   2.876   1.873 -2.5905 -2.0345 -0.8177
  272SOL    HW2  816   2.108   2.948   1.874 -0.7313  0.0877  1.9007
  273SOL     OW  817   1.484   1.449   2.740  0.3588  0.1625  0.0738
  273SOL    HW1  818   1.385   1.464   2.765 -0.2066  1.0527 -1.2131
  273SOL    HW2  819   1.528   1.378   2.798 -0.4510  1.0831  0.3307
  274SOL     OW  820   1.194   0.498   2.057  0.2938 -0.0090 -0.0085
  274SOL    HW1  821   1.151   0.403   2.050 -1.2905  0.1451  2.8685
  274SOL    HW2  822   1.214   0.514   2.156  0.7439 -0.4929 -0.2906
  275SOL     OW  823   0.617   2.091   1.887 -0.0446 -0.1899  0.3799
  275SOL    HW1  824   0.571   2.179   1.901 -2.0041 -1.5875  0.8815
  275SOL    HW2  825   0.555   2.012   1.870  2.2864  0.6168 -2.1279
  276SOL     OW  826   2.217   1.041   2.740  0.2779  0.6070  0.4587
  276SOL    HW1  827   2.141   1.041   2.667  1.3731  0.7607 -0.0070
  276SOL    HW2  828   2.191   0.984   2.823 -2.8084 -1.6703  0.0101
  277SOL     OW  829   3.094   0.800   0.230 -0.4985 -0.4485  0.2579
  277SOL    HW1  830   3.190   0.842   0.213  1.5455 -0.8850  0.4650
  277SOL    HW2  831   3.097   0.729   0.307 -1.3237 -2.1131  1.5454
  278SOL     OW  832   0.242   0.319   2.986  0.1953  0.0402 -0.6486
  278SOL    HW1  833   0.318   0.247   2.987  0.8252 -3.6478 -0.7251
  278SOL    HW2  834   0.255   0.408   3.044  0.2773  0.0506 -1.8663
  279SOL     OW  835   0.199   0.065   0.896  0.6921 -1.1177  0.1683
  279SOL    HW1  836   0.179   0.012   0.984 -1.0956 -1.6061  1.5922
  279SOL    HW2  837   0.264   0.019   0.831  0.4089 -2.1919  1.9496
  280SOL     OW  838   1.598   2.941   2.430 -0.2071  0.1991  0.2850
  280SOL    HW1  839   1.647   3.005   2.500  2.9914  2.2950 -0.7599
  280SOL    HW2  840   1.523   2.983   2.366 -0.4134  2.1819  0.2574
  281SOL     OW  841   0.577   0.950   2.272  0.3550  0.3860  0.9045
  281SOL    HW1  842   0.565   0.864   2.213  1.0004 -1.4111 -1.1604
  281SOL    HW2  843   0.512   0.948   2.355  0.6460  0.5837  0.7506
  282SOL     OW  844   1.777   2.507   0.507 -0.2562  0.1906  0.0587
  282SOL    HW1  845   1.725   2.417   0.495  1.5778  0.5023  1.8431
  282SOL    HW2  846   1.717   2.585   0.538 -0.9482 -1.5033 -3.3751
  283SOL     OW  847   1.235   0.936   0.820 -0.0885  0.3291 -0.5857
  283SOL    HW1  848   1.260   0.868   0.896 -0.7179  0.2043 -0.7028
  283SOL    HW2  849   1.142   0.981   0.831  0.2820 -2.1521  2.4065
  284SOL     OW  850   2.233   2.844   2.538 -0.6351  0.2923 -0.6561
  284SOL    HW1  851   2.332   2.837   2.492  2.0881 -1.9313  1.3919
  284SOL    HW2  852   2.230   2.895   2.627 -4.2077 -1.5156 -0.9625
  285SOL     OW  853   1.337   3.034   2.571  0.3181  0.0528  0.3370
  285SOL    HW1  854   1.344   3.024   2.463 -0.2691  0.5847 -2.3928
  285SOL    HW2  855   1.258   3.095   2.602  0.5033 -0.8436 -1.4039
  286SOL     OW  856   0.440   0.431   0.715  0.0651  0.1598  0.2928
  286SOL    HW1  857   0.391   0.404   0.800  1.8149 -0.5531 -1.2477
  286SOL    HW2  858   0.431   0.367   0.635 -2.0365  0.7740 -1.7423
  287SOL     OW  859   0.094   1.260   2.488  0.0268 -0.0597 -0.3648
  287SOL    HW1  860   0.073   1.189   2.566 -1.0455 -0.8708  0.1495
  287SOL    HW2  861   0.076   1.357   2.502  0.1883 -2.3244  1.5181
  288SOL     OW  862   1.591   2.639   1.620 -0.1236 -0.6376 -0.1624
  288SOL    HW1  863   1.591   2.555   1.691  1.3058 -3.7275 -0.1579
  288SOL    HW2  864   1.614   2.604   1.525 -2.2812  1.2167  2.7549
  289SOL     OW  865   0.621   2.743   0.865 -0.3391  0.5036 -0.2334
  289SOL    HW1  866   0.697   2.770   0.795  0.0706 -2.3601  0.9182
  289SOL    HW2  867   0.617   2.806   0.948  0.9840 -1.0010  2.4076
  290SOL     OW  868   2.799   1.143   1.791 -0.3693 -0.2649  0.1739
  290SOL    HW1  869   2.727   1.069   1.770  1.8056 -1.9113 -0.4662
  290SOL    HW2  870   2.872   1.100   1.858 -0.6574 -0.9359  3.0298
  291SOL     OW  871   2.001   0.018   0.017 -0.3294 -0.1442  0.1696
  291SOL    HW1  872   2.002   0.041   0.117  1.2511  0.6785 -2.2458
  291SOL    HW2  873   2.080   0.061  -0.036  0.2748  3.7333  2.8654
  292SOL     OW  874   3.008   1.201   3.076 -0.1638  0.3469  0.1540
  292SOL    HW1  875   2.933   1.256   3.023 -2.0886  1.6181 -1.1944
  292SOL    HW2  876   3.098   1.179   3.018  1.0545  2.7189 -0.0494
  293SOL     OW  877   0.557   2.146   0.271  0.3068  0.7568  0.3049
  293SOL    HW1  878   0.514   2.206   0.348  0.0632 -1.8166 -2.0515
  293SOL    HW2  879   0.660   2.154   0.273 -0.1185  0.0220  2.3361
  294SOL     OW  880   1.833   2.282   1.768 -0.3479 -0.0819 -0.0497
  294SOL    HW1  881   1.854   2.336   1.852 -1.8647  0.4582  1.0496
  294SOL    HW2  882   1.794   2.330   1.685 -0.1843  0.0461  3.1885
  295SOL     OW  883   0.978   1.062   0.430  0.5102 -0.4638  0.0001
  295SOL    HW1  884   1.063   1.045   0.486 -2.5246 -0.0198  0.5046
  295SOL    HW2  885   0.890   1.052   0.494 -0.4147 -1.8740 -1.7594
  296SOL     OW  886   1.195   2.117   2.601  0.6237 -0.3685  0.0927
  296SOL    HW1  887   1.091   2.136   2.598  1.0916 -1.6960  1.5479
  296SOL    HW2  888   1.209   2.027   2.552 -1.3945 -0.1117  1.3951
  297SOL     OW  889   1.386   0.627   1.314 -0.4666 -0.1439 -0.6728
  297SOL    HW1  890   1.427   0.584   1.400  0.2429  0.8014  2.4717
  297SOL    HW2  891   1.456   0.674   1.253 -1.6585  0.6212  3.0456
  298SOL     OW  892   0.497   1.365   2.983 -0.4256  0.4177  0.0985
  298SOL    HW1  893   0.479   1.315   3.074 -0.4306  0.3676 -2.5515
  298SOL    HW2  894   0.528   1.304   2.906  2.6872 -1.2110 -1.7246
  299SOL     OW  895   0.467   0.284   1.218 -0.0712  0.2998  0.5977
  299SOL    HW1  896   0.407   0.368   1.230 -0.4392 -2.8620 -3.3024
  299SOL    HW2  897   0.507   0.252   1.309 -1.4142 -0.3549  2.7627
  300SOL     OW  898   1.259   1.694   2.667  0.4850 -0.2111 -0.4380
  300SOL    HW1  899   1.233   1.608   2.718 -0.0888 -1.5765 -1.2296
  300SOL    HW2  900   1.348   1.737   2.700 -1.3751 -3.3105  0.8750
  301SOL     OW  901   0.368   0.292   0.485 -0.2231  0.2814 -0.3225
  301SOL    HW1  902   0.268   0.257   0.474  1.1040 -1.0370 -0.3307
  301SOL    HW2  903   0.435   0.220   0.448 -2.4406 -0.4382  2.3560
  302SOL     OW  904   1.283   2.422   2.363 -0.3153  0.3145 -0.1733
  302SOL    HW1  905   1.219   2.495   2.395  0.5659 -1.8867 -1.6518
  302SOL    HW2  906   1.301   2.347   2.433  1.4230 -1.1586  1.1403
  303SOL     OW  907   0.947   2.400   0.792 -0.4726  0.5598 -0.0785
  303SOL    HW1  908   1.008   2.441   0.719  1.5758 -0.3460 -2.9647
  303SOL    HW2  909   0.975   2.434   0.886  3.1182 -0.9309 -1.3693
  304SOL     OW  910   0.103   1.956   0.679  0.0855  0.1733  0.4172
  304SOL    HW1  911   0.160   1.934   0.596 -3.0397 -1.2557  2.3636
  304SOL    HW2  912   0.023   2.023   0.658  0.3045 -0.7133 -2.8412
  305SOL     OW  913   1.588   0.832   0.654 -0.5440  0.1646 -0.1780
  305SOL    HW1  914   1.531   0.826   0.563 -2.3893 -0.4790  1.6769
  305SOL    HW2  915   1.620   0.736   0.669 -0.1041 -1.3875 -2.9184
  306SOL     OW  916   0.448   1.874   1.889  0.2020 -0.3174 -0.2861
  306SOL    HW1  917   0.519   1.797   1.878 -1.0628 -0.7294  0.1369
  306SOL    HW2  918   0.452   1.918   1.988 -0.3871 -0.0762 -1.0632
  307SOL     OW  919   3.071   0.876   2.512  0.4416  0.2751  0.2980
  307SOL    HW1  920   3.089   0.966   2.560  1.0293  0.5324 -0.6428
  307SOL    HW2  921   2.986   0.827   2.544 -0.1757 -1.4095  0.3775
  308SOL     OW  922   1.568   2.683   2.787  0.6280  0.4092  0.1504
  308SOL    HW1  923   1.552   2.631   2.696  0.0146 -0.2379  0.0918
  308SOL    HW2  924   1.560   2.619   2.868 -0.2336  3.7683  3.3843
  309SOL     OW  925   1.260   0.198   1.772 -0.7614 -0.3628 -0.1032
  309SOL    HW1  926   1.349   0.142   1.771  0.1845 -1.1368  1.6798
  309SOL    HW2  927   1.210   0.191   1.684 -0.2336  1.1016  0.4876
  310SOL     OW  928   1.527   2.564   0.691  0.4841  0.0515  0.2906
  310SOL    HW1  929   1.500   2.539   0.786 -0.6190  0.5177  0.9453
  310SOL    HW2  930   1.595   2.642   0.688 -1.2449 -2.9780 -2.1051
  311SOL     OW  931   1.151   0.908   1.707 -0.3786 -0.3218  0.7112
  311SOL    HW1  932   1.114   0.827   1.758  1.4876  0.6458 -0.7371
  311SOL    HW2  933   1.203   0.881   1.624  0.9752  0.9357  2.4053
  312SOL     OW  934   1.568   0.746   1.147 -0.2683  0.0699 -0.3706
  312SOL    HW1  935   1.603   0.846   1.132  1.5223 -0.6179  1.7882
  312SOL    HW2  936   1.531   0.701   1.057  1.5226  0.9305 -0.1177
  313SOL     OW  937   1.588   1.404   0.703  0.4028 -0.4642  0.1001
  313SOL    HW1  938   1.523   1.465   0.757 -1.1551 -0.1724  1.8829
  313SOL    HW2  939   1.555   1.314   0.674  1.9277  3.1374 -2.4517
  314SOL     OW  940   2.965   0.032   3.052 -0.1400 -0.2204  0.3942
  314SOL    HW1  941   2.989   0.054   3.152  2.3348 -0.6624  1.3640
  314SOL    HW2  942   2.869  -0.009   3.041 -2.0258 -2.3945 -1.3440
  315SOL     OW  943   1.112   0.236   2.815 -0.3634  0.0720 -0.4216
  315SOL    HW1  944   1.100   0.178   2.727 -0.0938 -0.7377 -0.0200
  315SOL    HW2  945   1.144   0.181   2.894  0.4126  0.6172 -3.2496
  316SOL     OW  946   1.763   2.062   0.952 -0.2654 -0.0897 -0.5343
  316SOL    HW1  947   1.694   2.081   1.027 -1.8038  1.2596  1.9603
  316SOL    HW2  948   1.762   2.142   0.887  0.0977 -1.2238  1.1064
  317SOL     OW  949   1.197   0.665   2.829  0.3136 -0.5074  0.6526
  317SOL    HW1  950   1.167   0.685   2.926 -2.0842 -1.1763 -2.5753
  317SOL    HW2  951   1.121   0.626   2.777 -0.3418  0.9012 -1.3596
  318SOL     OW  952   1.420   3.022   2.235  0.3176  0.3147 -0.1807
  318SOL    HW1  953   1.369   3.112   2.228  1.6432  0.4693 -0.1858
  318SOL    HW2  954   1.421   2.977   2.140 -0.1334  0.6579  0.0181
  319SOL     OW  955   0.582   2.416   2.911 -0.2926 -0.4249 -0.4432
  319SOL    HW1  956   0.543   2.358   2.991 -0.5372 -0.6214  1.4998
  319SOL    HW2  957   0.661   2.368   2.855  2.1854 -1.5115 -1.3811
  320SOL     OW  958   1.690   2.235   0.416  0.6382 -0.2917  0.0136
  320SOL    HW1  959   1.763   2.160   0.399 -2.2401  0.1396  0.7760
  320SOL    HW2  960   1.625   2.208   0.491  0.7902 -0.7652  3.3255
  321SOL     OW  961   1.677   2.784   0.565  0.3621 -0.0840 -0.2191
  321SOL    HW1  962   1.602   2.812   0.497 -3.4399  2.2036 -1.0726
  321SOL    HW2  963   1.769   2.809   0.530  0.4479 -0.8419 -1.2383
  322SOL     OW  964   2.591   1.129   2.320  0.3974 -0.1304 -0.2777
  322SOL    HW1  965   2.668   1.149   2.392 -0.6581  1.1236 -0.6712
  322SOL    HW2  966   2.543   1.037   2.334  0.5859  1.6269 -0.6670
  323SOL     OW  967   1.174   2.692   0.855 -0.5804 -0.3522 -0.6445
  323SOL    HW1  968   1.146   2.668   0.755  0.2978 -1.2475 -2.9173
  323SOL    HW2  969   1.138   2.781   0.886  1.4679  1.7968 -0.4772
  324SOL     OW  970   0.265   2.463   2.505 -0.1213  0.8102  0.0674
  324SOL    HW1  971   0.260   2.403   2.591  0.8335  0.7079  2.0769
  324SOL    HW2  972   0.275   2.567   2.526  1.9083  3.2122  1.9052
  325SOL     OW  973   1.259   3.035   0.446 -0.5181 -0.9714 -0.0084
  325SOL    HW1  974   1.283   3.077   0.352  0.0856 -1.2278 -1.4412
  325SOL    HW2  975   1.277   3.103   0.525  2.2359  0.9623  0.8634
  326SOL     OW  976   2.442   0.777   3.098 -0.1705 -0.3032 -0.2128
  326SOL    HW1  977   2.365   0.724   3.049 -1.6878  1.8074 -4.0692
  326SOL    HW2  978   2.513   0.716   3.139  0.4675 -1.1527  2.0995
  327SOL     OW  979   2.815   0.315   0.602 -0.3662  0.5144 -0.8877
  327SOL    HW1  980   2.796   0.254   0.515  1.4486 -1.1442 -0.2529
  327SOL    HW2  981   2.831   0.243   0.673  0.5871 -1.7307 -1.3192
  328SOL     OW  982   2.593   0.581   0.402  0.3731  0.4086  0.1419
  328SOL    HW1  983   2.545   0.674   0.411 -2.1946 -0.4205  0.4613
  328SOL    HW2  984   2.580   0.524   0.484 -1.2594  0.0725  0.1330
  329SOL     OW  985   2.930   2.944   2.160 -0.2861 -0.2190  0.0231
  329SOL    HW1  986   3.011   2.907   2.211 -0.2542  2.6852  0.1045
  329SOL    HW2  987   2.929   3.045   2.153 -2.0124 -1.8187 -2.3196
  330SOL     OW  988   0.546   0.210   1.887  0.7770 -0.5190  0.3577
  330SOL    HW1  989   0.626   0.198   1.819 -3.8157 -2.2664 -0.5037
  330SOL    HW2  990   0.544   0.143   1.968 -0.0943  2.6664 -1.0132
  331SOL     OW  991   3.005   1.958   1.099  0.2309 -0.3032 -0.1875
  331SOL    HW1  992   2.945   2.020   1.045 -0.2641 -3.0812 -1.1370
  331SOL    HW2  993   2.960   1.912   1.184  0.3470 -1.3054  0.4757
  332SOL     OW  994   0.406   1.194   0.089 -0.0435  0.3683  0.3515
  332SOL    HW1  995   0.361   1.122   0.023 -2.0275 -1.9359 -2.4672
  332SOL    HW2  996   0.341   1.212   0.167  0.7136  1.2472  1.3108
  333SOL     OW  997   2.927   1.041   0.247  0.1582 -0.4476  0.1253
  333SOL    HW1  998   2.958   1.093   0.334  0.7123  2.4973 -0.1801
  333SOL    HW2  999   3.002   0.969   0.215  3.5811 -0.6317  1.4530
  334SOL     OW 1000   1.707   1.279   1.817 -0.2443 -0.1846 -0.3507
  334SOL    HW1 1001   1.788   1.268   1.757 -2.0569  1.6399 -0.2088
  334SOL    HW2 1002   1.724   1.286   1.919 -1.7733 -0.3217 -1.9515
  335SOL     OW 1003   2.001   2.719   2.578 -0.2409  0.4866 -0.3746
  335SOL    HW1 1004   1.948   2.735   2.669 -0.2890  1.7604 -1.5060
  335SOL    HW2 1005   2.088   2.780   2.573 -0.2779  0.4499  0.8202
  336SOL     OW 1006   0.246   0.082   2.716  0.1019 -0.3710  0.3631
  336SOL    HW1 1007   0.300   0.105   2.801 -0.8624  2.1942  1.3453
  336SOL    HW2 1008   0.156   0.043   2.745  1.3153 -0.1281 -1.7441
  337SOL     OW 1009   0.995   2.870   2.879 -0.7914  0.0757  0.9437
  337SOL    HW1 1010   0.971   2.803   2.959 -0.2767 -3.3358  0.8387
  337SOL    HW2 1011   1.074   2.930   2.905  0.9489  0.8350  0.2380
  338SOL     OW 1012   0.076   1.019   0.666  0.2397  0.1656  0.4798
  338SOL    HW1 1013  -0.012   0.973   0.695 -1.3503  0.2381  0.0684
  338SOL    HW2 1014   0.079   1.123   0.673 -0.4282 -0.6067 -1.1526
  339SOL     OW 1015   1.713   1.317   2.101 -0.0219 -0.0024  0.1782
  339SOL    HW1 1016   1.622   1.362   2.111  4.2063  1.8982  1.2970
  339SOL    HW2 1017   1.777   1.374   2.160 -2.6789 -2.9209  3.9646
  340SOL     OW 1018   2.290   0.773   1.158  0.1342 -0.7928  0.1255
  340SOL    HW1 1019   2.185   0.781   1.143 -2.1445  2.1719  0.3927
  340SOL    HW2 1020   2.331   0.684   1.124 -1.2092 -0.8139  1.4863
  341SOL     OW 1021   1.920   2.091   0.292  0.1189 -0.0457  0.0254
  341SOL    HW1 1022   1.941   2.129   0.195  1.9378 -0.6852  0.9258
  341SOL    HW2 1023   2.004   2.067   0.346 -1.7928 -0.0941  1.2134
  342SOL     OW 1024   2.184   2.129   2.793 -0.5427  0.6983  0.0919
  342SOL    HW1 1025   2.260   2.070   2.833  2.4352  0.0735 -0.9212
  342SOL    HW2 1026   2.100   2.072   2.771  0.9833 -1.3045 -2.6031
  343SOL     OW 1027   0.370   0.824   2.795  0.4380 -0.3625  0.1436
  343SOL    HW1 1028   0.374   0.792   2.697 -1.3712 -0.0036  1.9568
  343SOL    HW2 1029   0.464   0.859   2.830  0.4581  3.3114  2.2902
  344SOL     OW 1030   1.925   1.470   0.433 -0.5519  0.2202  0.0065
  344SOL    HW1 1031   1.921   1.390   0.366 -2.4431  0.0717  1.4736
  344SOL    HW2 1032   1.828   1.496   0.460 -1.3074 -0.5848 -1.4411
  345SOL     OW 1033   1.412   2.253   2.893 -0.2424 -0.0170 -0.2626
  345SOL    HW1 1034   1.315   2.243   2.860  1.0728  0.4350 -1.8335
  345SOL    HW2 1035   1.488   2.198   2.841  0.0840 -0.6322 -0.5211
  346SOL     OW 1036   2.358   0.886   1.394  0.3207  0.3009  0.0396
  346SOL    HW1 1037   2.293   0.958   1.422  0.2506 -2.3555  0.3496
  346SOL    HW2 1038   2.332   0.850   1.299 -0.9529 -0.0304 -1.8548
  347SOL     OW 1039   0.749   2.731   1.616  0.1180  0.3729 -0.0233
  347SOL    HW1 1040   0.672   2.732   1.688  0.1488 -1.1219  0.6840
  347SOL    HW2 1041   0.726   2.787   1.536 -0.6531 -1.1553 -1.0352
  348SOL     OW 1042   0.172   0.718   2.914 -0.1640 -0.0989  0.1637
  348SOL    HW1 1043   0.083   0.685   2.863 -2.2156 -0.9486 -2.7150
  348SOL    HW2 1044   0.242   0.767   2.852 -0.1413  3.1232 -0.8364
  349SOL     OW 1045   1.876   0.432   2.781  0.2402 -0.1194 -0.3290
  349SOL    HW1 1046   1.864   0.518   2.725 -0.5803 -2.7044 -3.5212
  349SOL    HW2 1047   1.863   0.445   2.882 -1.4774  0.5573  1.4145
  350SOL     OW 1048   1.645   0.419   0.390  0.1176 -0.3283  0.1782
  350SOL    HW1 1049   1.742   0.403   0.425 -1.9524  0.4559 -0.4378
  350SOL    HW2 1050   1.631   0.511   0.345 -0.4550 -1.9434 -0.3205
  351SOL     OW 1051   0.984   0.809   2.111  0.1368  0.1617 -0.4151
  351SOL    HW1 1052   1.012   0.909   2.099 -1.5233  2.0906 -0.1780
  351SOL    HW2 1053   1.016   0.743   2.038 -1.2363  1.4249 -0.1015
  352SOL     OW 1054   2.058   1.343   0.658  0.3248  0.0462  0.1821
  352SOL    HW1 1055   2.029   1.399   0.577  2.4829  0.9530 -1.9951
  352SOL    HW2 1056   1.986   1.282   0.693  4.1504 -0.0845  1.4179
  353SOL     OW 1057   2.144   2.804   1.103  0.3072  0.0922  0.1308
  353SOL    HW1 1058   2.211   2.763   1.167  1.6217  2.7158 -1.6266
  353SOL    HW2 1059   2.057   2.752   1.087 -0.0705  1.6378 -0.8894
  354SOL     OW 1060   0.233   1.369   2.867 -0.2334 -0.0775 -0.1647
  354SOL    HW1 1061   0.197   1.453   2.814  2.2134  2.3200 -0.4419
  354SOL    HW2 1062   0.329   1.389   2.909 -0.4927  1.4731 -1.4763
  355SOL     OW 1063   0.717   1.599   0.566  0.3511  0.0149 -0.7727
  355SOL    HW1 1064   0.701   1.528   0.640  2.1619  0.0634  0.2192
  355SOL    HW2 1065   0.720   1.564   0.470  0.6141  2.5130 -0.7451
  356SOL     OW 1066   0.799   0.335   2.046 -0.1336 -0.0526 -0.0723
  356SOL    HW1 1067   0.874   0.268   2.037 -2.9529 -0.0500  0.9725
  356SOL    HW2 1068   0.777   0.382   1.961  3.3487 -1.6128  4.3115
  357SOL     OW 1069   1.007   1.325   0.311 -1.1490  0.0573  0.2537
  357SOL    HW1 1070   1.111   1.332   0.301 -1.5682 -0.5061 -0.4872
  357SOL    HW2 1071   0.978   1.243   0.374  2.0393  0.1908  0.8185
  358SOL     OW 1072   1.656   1.545   0.473 -0.3195 -0.1993 -0.4274
  358SOL    HW1 1073   1.643   1.502   0.570 -2.8690 -1.0018  1.7006
  358SOL    HW2 1074   1.619   1.481   0.393 -1.4121 -0.8505 -1.5700
  359SOL     OW 1075   1.569   2.625   0.214  0.2074 -0.3907  0.0947
  359SOL    HW1 1076   1.577   2.518   0.218 -1.2967 -0.9836  0.3521
  359SOL    HW2 1077   1.520   2.665   0.294 -0.2432 -1.7141  1.5328
  360SOL     OW 1078   0.789   0.573   0.529 -0.1020 -0.0880  0.1383
  360SOL    HW1 1079   0.690   0.569   0.499 -0.6249 -1.0294 -0.7964
  360SOL    HW2 1080   0.820   0.485   0.571  2.4964 -2.9608  0.8901
  361SOL     OW 1081   1.260   1.304   0.666  0.6652 -0.0969 -0.2350
  361SOL    HW1 1082   1.319   1.370   0.723  1.7870  0.3354  0.2633
  361SOL    HW2 1083   1.161   1.332   0.679 -0.5354 -0.1781  1.7832
  362SOL     OW 1084   1.384   1.801   0.813  0.0364 -0.6050 -0.5832
  362SOL    HW1 1085   1.447   1.726   0.843  1.0891  0.4317  1.4435
  362SOL    HW2 1086   1.430   1.875   0.759 -0.9313  1.4130  0.5544
  363SOL     OW 1087   1.231   1.342   2.051  0.1561  0.5680 -0.0638
  363SOL    HW1 1088   1.325   1.374   2.076 -0.1526 -1.5487 -0.5033
  363SOL    HW2 1089   1.229   1.360   1.951  1.1933 -1.5372  0.3155
  364SOL     OW 1090   0.523   2.334   1.989 -0.3231  0.4432  0.0755
  364SOL    HW1 1091   0.423   2.369   1.995 -0.8027  2.5265 -0.5036
  364SOL    HW2 1092   0.583   2.385   1.923  0.8479  1.4799  3.8564
  365SOL     OW 1093   0.979   1.977   1.331 -0.1062  0.0557 -0.0896
  365SOL    HW1 1094   0.889   1.993   1.378 -0.0478  2.1967 -0.9374
  365SOL    HW2 1095   0.981   1.993   1.227  2.6163  0.1083 -2.3060
  366SOL     OW 1096   2.838   1.955   0.386  0.4816  0.3604 -0.0594
  366SOL    HW1 1097   2.761   1.913   0.439  0.5278 -2.1437  2.7380
  366SOL    HW2 1098   2.881   1.885   0.326 -0.4643  1.7619  0.2936
  367SOL     OW 1099   0.883   1.141   3.086  0.0886  0.2346 -0.2000
  367SOL    HW1 1100   0.916   1.064   3.151  1.4354 -1.9668  1.3489
  367SOL    HW2 1101   0.946   1.224   3.089  0.4230 -0.5577  2.9549
  368SOL     OW 1102   1.453   0.541   0.658  0.2091 -0.3363 -0.0717
  368SOL    HW1 1103   1.397   0.543   0.572  1.6556 -3.3074 -3.0773
  368SOL    HW2 1104   1.554   0.543   0.642  1.4489 -0.7337 -4.0515
  369SOL     OW 1105   0.366   1.676   0.116  0.1199 -0.0091  0.7330
  369SOL    HW1 1106   0.392   1.757   0.176 -1.2186 -1.3948 -1.8549
  369SOL    HW2 1107   0.288   1.620   0.156  2.1785 -1.8438 -0.8743
  370SOL     OW 1108   0.426   2.034   1.038  0.5707  0.1476  0.6219
  370SOL    HW1 1109   0.418   2.129   0.998 -0.1631 -1.1104  1.1405
  370SOL    HW2 1110   0.335   1.991   1.035 -0.8695  0.4112  0.1702
  371SOL     OW 1111   2.907   2.207   2.646  0.0690  0.2869 -0.3545
  371SOL    HW1 1112   2.840   2.166   2.714 -2.4400 -2.1130 -0.2034
  371SOL    HW2 1113   3.002   2.207   2.686  0.9218 -1.5450  1.6645
  372SOL     OW 1114   1.038   2.013   1.058 -0.2091  0.0729  0.0631
  372SOL    HW1 1115   0.958   2.059   1.012  0.7764 -0.1865  1.6732
  372SOL    HW2 1116   1.130   2.028   1.012 -1.0385 -1.3662 -0.8776
  373SOL     OW 1117   1.981   1.949   0.831 -0.6358 -0.2474 -0.1671
  373SOL    HW1 1118   2.063   1.964   0.894 -0.5808 -2.4172 -0.9165
  373SOL    HW2 1119   1.900   1.992   0.882 -0.9078 -2.2034 -1.3248
  374SOL     OW 1120   1.862   0.391   0.566 -0.0343 -0.3732 -0.1336
  374SOL    HW1 1121   1.856   0.351   0.663  1.3810  1.9698 -1.7318
  374SOL    HW2 1122   1.951   0.407   0.532 -2.4935 -0.5779 -0.2344
  375SOL     OW 1123   2.396   2.153   1.069  0.1478 -0.0240 -0.0799
  375SOL    HW1 1124   2.436   2.099   0.991  0.4948 -0.7903  0.5523
  375SOL    HW2 1125   2.441   2.129   1.157  1.8344  2.9371 -0.9424
  376SOL     OW 1126   3.044   0.568   1.505 -0.7485 -0.4790  0.1344
  376SOL    HW1 1127   3.086   0.640   1.570  1.0444 -1.2902  0.5750
  376SOL    HW2 1128   2.955   0.524   1.539 -0.6194  4.5700  0.6142
  377SOL     OW 1129   2.163   2.920   0.281 -0.3432 -0.2202  0.1598
  377SOL    HW1 1130   2.161   3.018   0.323 -2.4302  1.4738 -0.6326
  377SOL    HW2 1131   2.244   2.864   0.313  0.9801  1.5483  0.4709
  378SOL     OW 1132   1.787   1.857   2.613 -0.4564 -0.1551 -0.4854
  378SOL    HW1 1133   1.818   1.850   2.713 -1.4728 -1.7944  0.4515
  378SOL    HW2 1134   1.747   1.773   2.567 -1.1570 -1.3109  1.1829
  379SOL     OW 1135   0.699   0.101   2.881  0.1889  0.1224 -0.2530
  379SOL    HW1 1136   0.686   0.010   2.825 -4.3291 -2.6598 -0.4660
  379SOL    HW2 1137   0.726   0.182   2.823 -1.6711 -0.3709 -0.9018
  380SOL     OW 1138   1.519   1.145   0.622  0.0260  0.0643  0.0891
  380SOL    HW1 1139   1.420   1.176   0.625 -1.9274  1.7625  0.6747
  380SOL    HW2 1140   1.531   1.045   0.655  1.6371  0.6382  1.0193
  381SOL     OW 1141   1.344   1.176   1.524  0.2862 -0.4443 -0.1476
  381SOL    HW1 1142   1.383   1.144   1.434 -0.1883  0.0336  0.5146
  381SOL    HW2 1143   1.371   1.110   1.599  2.5702  0.5999  2.3405
  382SOL     OW 1144   1.778   0.867   0.179  0.1213  0.3471  0.3681
  382SOL    HW1 1145   1.813   0.847   0.083 -0.0981 -1.5381  1.1459
  382SOL    HW2 1146   1.856   0.892   0.243  1.2851 -1.2508 -2.6662
  383SOL     OW 1147   2.591   1.017   1.456 -0.4770 -0.5625  0.1430
  383SOL    HW1 1148   2.495   1.002   1.418  1.4699 -0.5729 -0.9021
  383SOL    HW2 1149   2.668   0.956   1.405  1.5661 -0.6292 -0.8116
  384SOL     OW 1150   0.989   2.261   0.128 -0.0794 -0.4856  0.6995
  384SOL    HW1 1151   0.927   2.337   0.155  1.0211 -1.7605  0.0016
  384SOL    HW2 1152   0.979   2.180   0.188 -0.8751  0.8181  0.2419
  385SOL     OW 1153   3.017   2.052   1.647 -0.2816 -0.3328  0.1230
  385SOL    HW1 1154   3.100   2.120   1.658  1.3966  1.4568  0.6650
  385SOL    HW2 1155   3.059   1.957   1.629 -0.5429 -1.4879 -1.7140
  386SOL     OW 1156   0.487   1.070   0.424  0.3879 -0.3157  0.3052
  386SOL    HW1 1157   0.448   0.978   0.447 -1.2752  0.4880 -0.1536
  386SOL    HW2 1158   0.418   1.144   0.397 -1.0426  1.9369 -0.9079
  387SOL     OW 1159   0.976   0.291   1.678  0.0437  0.0885  0.4148
  387SOL    HW1 1160   1.028   0.380   1.700  0.3210  2.4248 -0.2721
  387SOL    HW2 1161   0.937   0.286   1.582  2.4326 -0.6856  0.5526
  388SOL     OW 1162   1.201   2.690   1.737  0.1377  0.1129  0.2092
  388SOL    HW1 1163   1.216   2.676   1.636 -0.6424 -3.5069  0.2708
  388SOL    HW2 1164   1.234   2.612   1.796  1.4410  0.1578 -0.0050
  389SOL     OW 1165   0.200   3.023   1.129  0.0174  0.4820  0.3400
  389SOL    HW1 1166   0.161   3.025   1.228 -0.3269  1.0299  1.4053
  389SOL    HW2 1167   0.199   2.933   1.076 -3.0558  3.3051  0.6028
  390SOL     OW 1168   1.016   0.980   1.341  0.1030  0.9839 -0.6299
  390SOL    HW1 1169   1.110   0.950   1.381 -1.2053 -0.8397  0.9042
  390SOL    HW2 1170   0.979   1.067   1.380 -0.2958 -2.2334  1.2659
  391SOL     OW 1171   2.143   1.086   1.076  0.0066  0.0204 -0.1232
  391SOL    HW1 1172   2.136   1.000   1.140  0.9802  0.8851  1.1131
  391SOL    HW2 1173   2.201   1.072   0.991  2.5321  1.8797 -0.3171
  392SOL     OW 1174   0.849   2.745   3.094 -0.2732 -0.4130 -0.5096
  392SOL    HW1 1175   0.910   2.663   3.092 -0.2367 -0.6912  1.1329
  392SOL    HW2 1176   0.869   2.808   3.180 -2.4866  0.5753  2.5123
  393SOL     OW 1177   0.360   0.525   2.003  0.5544  0.2570 -0.2264
  393SOL    HW1 1178   0.315   0.428   1.988  0.0501 -0.0904  0.8688
  393SOL    HW2 1179   0.440   0.527   1.939 -0.1820 -4.1936 -2.4237
  394SOL     OW 1180   3.054   1.821   2.801 -0.7438 -0.2382 -0.3741
  394SOL    HW1 1181   3.075   1.810   2.903 -2.5334  2.0842  2.2039
  394SOL    HW2 1182   3.099   1.902   2.760 -0.2844 -3.3841 -2.6229
  395SOL     OW 1183   1.638   1.959   0.683  0.6706  0.2836  0.0483
  395SOL    HW1 1184   1.689   1.916   0.604 -0.7635 -0.7309  0.7093
  395SOL    HW2 1185   1.684   1.950   0.773 -1.8599 -1.0168 -0.4164
  396SOL     OW 1186   2.843   1.875   1.297 -0.2518  0.1086  0.0211
  396SOL    HW1 1187   2.793   1.784   1.291  2.5989 -0.5042  2.3399
  396SOL    HW2 1188   2.813   1.931   1.374  0.3316  2.2892  1.0499
  397SOL     OW 1189   1.037   2.238   0.506 -0.1426 -0.3440 -0.0419
  397SOL    HW1 1190   0.937   2.205   0.514 -0.8392  0.3713  0.6607
  397SOL    HW2 1191   1.050   2.335   0.524  1.0550 -0.8962 -1.0996
  398SOL     OW 1192   2.133   3.055   1.004 -0.1694  0.6660 -0.0497
  398SOL    HW1 1193   2.153   2.963   1.050  0.5928  2.2306 -2.1642
  398SOL    HW2 1194   2.077   3.116   1.064 -2.8661  0.2780  0.9824
  399SOL     OW 1195   3.035   2.498   2.526  0.2004 -0.7447 -0.0446
  399SOL    HW1 1196   2.946   2.491   2.473 -0.5298 -2.7915 -0.6744
  399SOL    HW2 1197   3.024   2.480   2.623  1.3989  2.2950 -3.4822
  400SOL     OW 1198   0.770   1.622   1.340 -0.1085  0.0378 -0.3530
  400SOL    HW1 1199   0.719   1.697   1.397 -0.7381  1.8313  1.2590
  400SOL    HW2 1200   0.806   1.654   1.252  0.7850 -2.4690  1.4158
  401SOL     OW 1201   1.788   0.093   1.345 -0.4356  0.1745 -0.5404
  401SOL    HW1 1202   1.821   0.107   1.440 -0.0167 -0.3569  0.2776
  401SOL    HW2 1203   1.686   0.098   1.339  1.1635 -1.3459 -1.7627
  402SOL     OW 1204   1.323   0.143   3.057 -0.0219  0.3772  0.1779
  402SOL    HW1 1205   1.406   0.113   3.004  0.6025 -2.1622  1.3992
  402SOL    HW2 1206   1.305   0.248   3.063 -1.1736 -1.1203  1.8211
  403SOL     OW 1207   2.322   1.776   0.879  0.0186 -0.1824 -0.1225
  403SOL    HW1 1208   2.423   1.762   0.906  0.3087  1.7297  1.1170
  403SOL    HW2 1209   2.280   1.838   0.951  1.3140 -0.8031  3.2756
  404SOL     OW 1210   0.185   2.521   2.800  0.1083  0.3522 -0.3878
  404SOL    HW1 1211   0.274   2.477   2.828 -3.1280 -0.2541 -0.8512
  404SOL    HW2 1212   0.166   2.619   2.830  0.1172  0.7025 -0.5500
  405SOL     OW 1213   0.168   2.401   0.667 -0.1022 -0.3356  0.1029
  405SOL    HW1 1214   0.140   2.403   0.569  1.2367 -3.3748  1.6594
  405SOL    HW2 1215   0.182   2.493   0.712 -1.2259  1.8391  0.6347
  406SOL     OW 1216   0.026   1.501   3.029  0.5385  0.3213  0.1947
  406SOL    HW1 1217   0.045   1.402   3.029  0.3396  3.5895 -1.4987
  406SOL    HW2 1218   0.114   1.557   3.028  4.2554 -0.0887  0.3252
  407SOL     OW 1219   1.580   0.962   0.890  0.1795 -0.1144  0.4260
  407SOL    HW1 1220   1.565   0.902   0.810  0.8185  3.0593 -1.2404
  407SOL    HW2 1221   1.495   0.981   0.951 -4.1631  0.6584  2.4430
  408SOL     OW 1222   1.584   2.331   0.942  0.2977  0.6423  0.1235
  408SOL    HW1 1223   1.649   2.335   0.861  0.3993 -1.4331 -2.1775
  408SOL    HW2 1224   1.502   2.388   0.929  2.3303 -1.1095  0.2470
  409SOL     OW 1225   0.635   0.845   0.676 -0.3393  0.0780  0.5516
  409SOL    HW1 1226   0.561   0.841   0.599 -2.3576 -0.5617 -0.2947
  409SOL    HW2 1227   0.627   0.758   0.731 -1.2106  1.6301 -2.5658
  410SOL     OW 1228   1.270   2.055   1.421  0.1823 -0.1476 -0.3066
  410SOL    HW1 1229   1.337   2.001   1.477  0.9420  1.3270  0.8854
  410SOL    HW2 1230   1.169   2.038   1.444  4.3996  1.3805 -1.8774
  411SOL     OW 1231   2.518   1.856   3.092  0.7091  0.0282 -0.2767
  411SOL    HW1 1232   2.444   1.899   3.031 -0.3491  0.7235 -0.1652
  411SOL    HW2 1233   2.595   1.810   3.036  0.0543  0.0715 -0.4243
  412SOL     OW 1234   1.459   2.501   2.195 -0.1382 -0.2546 -0.0527
  412SOL    HW1 1235   1.502   2.573   2.255  1.1379  0.4971  0.1727
  412SOL    HW2 1236   1.386   2.450   2.245  0.5951 -0.3802 -0.0243
  413SOL     OW 1237   3.076   0.280   2.970 -0.1391 -0.4600  0.3866
  413SOL    HW1 1238   3.047   0.191   3.012  0.6536  0.7470  1.4172
  413SOL    HW2 1239   3.172   0.302   2.998  0.3497 -2.8840  0.5638
  414SOL     OW 1240   1.824   1.506   1.240 -0.0231  0.9904  0.0582
  414SOL    HW1 1241   1.728   1.528   1.256  3.2215 -1.9292 -1.1392
  414SOL    HW2 1242   1.838   1.418   1.188  0.4854 -1.2966  1.5245
  415SOL     OW 1243   0.329   2.171   0.723  0.3706  0.1827 -0.2145
  415SOL    HW1 1244   0.269   2.249   0.692 -0.5262  1.6445 -1.3230
  415SOL    HW2 1245   0.281   2.114   0.798  0.7467 -1.2155 -2.9956
  416SOL     OW 1246   0.336   1.015   1.047  0.3524  0.3510  0.4888
  416SOL    HW1 1247   0.315   0.940   0.982 -2.4179  0.3629  0.0104
  416SOL    HW2 1248   0.439   1.039   1.050  2.5505 -0.8151  0.7750
  417SOL     OW 1249   2.182   2.286   1.933  0.5491 -0.0106  0.4177
  417SOL    HW1 1250   2.278   2.248   1.944  0.6435 -0.4965  0.2841
  417SOL    HW2 1251   2.116   2.213   1.912  2.4194 -0.8994  1.4407
  418SOL     OW 1252   1.114   0.510   1.346 -0.5530  0.0724  0.4813
  418SOL    HW1 1253   1.029   0.492   1.288  1.3980 -1.5231 -1.1363
  418SOL    HW2 1254   1.192   0.533   1.291 -2.8399  0.8303  2.4457
  419SOL     OW 1255   0.925   0.423   3.006  0.0629  0.4716  0.0296
  419SOL    HW1 1256   0.939   0.387   2.908  0.0702 -0.3487  0.5299
  419SOL    HW2 1257   0.908   0.529   3.012 -3.9177  1.8650  1.8076
  420SOL     OW 1258   0.062   2.248   0.436 -0.1001 -0.1598  0.2664
  420SOL    HW1 1259   0.055   2.201   0.342 -0.5730  0.1922 -1.3544
  420SOL    HW2 1260   0.009   2.200   0.512 -1.0745 -1.2899 -1.4109
  421SOL     OW 1261   0.373   2.986   0.682 -0.7199  0.4568 -0.3836
  421SOL    HW1 1262   0.349   2.913   0.755  0.4635 -2.4519 -2.0008
  421SOL    HW2 1263   0.472   3.017   0.692  1.8841 -0.0452  0.5121
  422SOL     OW 1264   1.047   2.501   1.020  0.2488 -0.3670 -0.1968
  422SOL    HW1 1265   1.087   2.581   0.965  1.1805  0.7063 -2.8742
  422SOL    HW2 1266   1.030   2.526   1.121  0.1187 -4.5417  0.6360
  423SOL     OW 1267   0.081   0.663   1.255 -0.2291 -0.0695  0.2971
  423SOL    HW1 1268   0.020   0.614   1.324  2.1060  0.6337  0.0634
  423SOL    HW2 1269   0.055   0.758   1.242 -0.9436 -3.5425  0.0016
  424SOL     OW 1270   1.007   2.221   2.029 -0.4024  0.0366  0.3359
  424SOL    HW1 1271   0.983   2.320   2.026 -0.9726 -1.7163  1.1957
  424SOL    HW2 1272   0.980   2.166   2.114  0.6254  0.0140  1.6502
  425SOL     OW 1273   1.998   1.366   0.981  0.3823 -0.2921  0.2144
  425SOL    HW1 1274   2.057   1.288   1.011  0.3768 -1.4612  0.3313
  425SOL    HW2 1275   2.045   1.439   0.925 -2.7429 -2.7102 -1.0831
  426SOL     OW 1276   1.534   1.618   1.374 -0.6358  0.0776  0.0163
  426SOL    HW1 1277   1.484   1.663   1.299  1.1791 -0.2537 -2.8478
  426SOL    HW2 1278   1.478   1.589   1.458 -1.0582  1.2889 -0.8088
  427SOL     OW 1279   1.886   2.380   2.043  0.4060 -0.1018  0.0922
  427SOL    HW1 1280   1.919   2.296   2.092 -0.8013  0.1360 -2.0281
  427SOL    HW2 1281   1.945   2.467   2.059  0.6099 -0.9734 -0.2667
  428SOL     OW 1282   0.880   2.995   0.208  0.0930  0.6304  0.3173
  428SOL    HW1 1283   0.865   3.090   0.170 -0.7289  2.0423 -0.7197
  428SOL    HW2 1284   0.958   2.947   0.161 -0.0720 -1.9699  1.5705
  429SOL     OW 1285   1.345   0.066   0.217  0.1133 -0.0640  0.5243
  429SOL    HW1 1286   1.438   0.093   0.255  1.5456  0.5216  2.4663
  429SOL    HW2 1287   1.342   0.080   0.114  3.7325 -0.9929 -0.2520
  430SOL     OW 1288   2.819   1.404   0.322 -0.4615 -0.0201 -0.5440
  430SOL    HW1 1289   2.857   1.441   0.234 -0.6497  1.2809 -0.7233
  430SOL    HW2 1290   2.788   1.483   0.385 -2.4278 -2.6940  0.6291
  431SOL     OW 1291   2.134   1.572   0.857 -0.4150 -0.2386  0.2903
  431SOL    HW1 1292   2.207   1.646   0.871 -0.1641 -1.4567 -2.2404
  431SOL    HW2 1293   2.090   1.572   0.762  1.0789  0.0677  1.9168
  432SOL     OW 1294   2.877   2.247   1.236 -0.4693 -0.2363  1.0132
  432SOL    HW1 1295   2.823   2.168   1.269 -0.8121  0.5150  3.3934
  432SOL    HW2 1296   2.936   2.297   1.305 -0.4479  1.5530 -1.4867
  433SOL     OW 1297   1.942   0.398   0.858 -0.6959 -0.1951 -0.4075
  433SOL    HW1 1298   1.886   0.328   0.910  0.9303  0.1039 -0.1320
  433SOL    HW2 1299   2.047   0.378   0.864  1.8409 -1.7185 -0.9730
  434SOL     OW 1300   1.503   0.303   0.735 -0.6502  0.3527 -0.2206
  434SOL    HW1 1301   1.490   0.400   0.698 -0.5521  0.7627 -3.6152
  434SOL    HW2 1302   1.558   0.300   0.829  1.5335 -1.7708  1.1539
  435SOL     OW 1303   1.464   1.464   2.132  0.9949  0.3681 -0.4087
  435SOL    HW1 1304   1.421   1.482   2.226 -0.7266  0.8637 -2.2480
  435SOL    HW2 1305   1.480   1.540   2.067 -1.5430  0.2053 -1.9772
  436SOL     OW 1306   1.676   2.749   2.202 -0.2142  0.0636  0.2075
  436SOL    HW1 1307   1.610   2.820   2.237  2.1211  1.8639 -3.3633
  436SOL    HW2 1308   1.694   2.670   2.270  0.0071  0.7839  1.3699
  437SOL     OW 1309   1.040   2.912   0.939 -0.1991  0.2985  0.3255
  437SOL    HW1 1310   1.041   2.981   0.861 -0.8040  0.1096 -2.7881
  437SOL    HW2 1311   1.012   2.944   1.035 -1.3045 -1.5207  1.7264
  438SOL     OW 1312   1.022   2.583   1.280 -0.2711  0.8618  0.1927
  438SOL    HW1 1313   1.108   2.612   1.336 -1.7975  1.4124  1.1435
  438SOL    HW2 1314   1.003   2.484   1.301  1.0436 -0.3949 -1.1231
  439SOL     OW 1315   0.680   1.729   1.080  0.0421  0.3193  0.3724
  439SOL    HW1 1316   0.667   1.803   1.007  0.8956  1.0079  1.2635
  439SOL    HW2 1317   0.587   1.701   1.121  0.2490  0.0177  1.4203
  440SOL     OW 1318   0.983   2.482   1.970 -0.0769  0.0134 -0.1549
  440SOL    HW1 1319   0.965   2.530   1.882  0.7963 -1.0461  0.8542
  440SOL    HW2 1320   1.086   2.475   1.997  2.2506  1.3522  0.7323
  441SOL     OW 1321   0.480   2.722   1.381  1.0751  0.0082  0.6257
  441SOL    HW1 1322   0.530   2.646   1.425 -2.2556 -1.1448 -1.9893
  441SOL    HW2 1323   0.377   2.702   1.367 -3.0925  1.7626  0.7678
  442SOL     OW 1324   2.345   0.648   2.426 -0.3674  0.3256 -0.1140
  442SOL    HW1 1325   2.350   0.562   2.483 -1.4681 -0.4555  0.1840
  442SOL    HW2 1326   2.245   0.683   2.434 -0.8126 -2.4348 -1.0061
  443SOL     OW 1327   1.242   2.732   2.145 -0.0946 -0.5574 -0.5248
  443SOL    HW1 1328   1.226   2.778   2.239  1.8061  3.9044 -3.2534
  443SOL    HW2 1329   1.226   2.636   2.135 -1.2332  2.7182  2.7923
  444SOL     OW 1330   1.098   1.285   1.605 -0.9096 -0.0629  0.0405
  444SOL    HW1 1331   1.192   1.258   1.575 -2.2462  2.0771 -0.8612
  444SOL    HW2 1332   1.105   1.363   1.674  0.2767 -2.1879  1.2210
  445SOL     OW 1333   0.026   2.391   1.851 -0.4820  0.2964 -0.0855
  445SOL    HW1 1334   0.003   2.483   1.802 -1.4524  1.1308 -3.0090
  445SOL    HW2 1335  -0.063   2.337   1.873  1.0469 -1.6322 -0.6599
  446SOL     OW 1336   0.260   1.931   2.338 -0.4704  0.2486  0.2061
  446SOL    HW1 1337   0.227   2.027   2.362 -1.2045  1.3955  0.3117
  446SOL    HW2 1338   0.190   1.891   2.264 -1.3387 -2.3986 -3.0964
  447SOL     OW 1339   1.192   1.713   1.920 -0.3809 -0.1130  0.0386
  447SOL    HW1 1340   1.117   1.786   1.923 -0.8376 -0.9540 -1.0378
  447SOL    HW2 1341   1.282   1.749   1.880  0.9512 -0.6167 -0.3605
  448SOL     OW 1342   0.116   1.519   1.971  0.2894 -0.0078 -0.3909
  448SOL    HW1 1343   0.129   1.614   1.927  1.2355  3.5783 -0.8253
  448SOL    HW2 1344   0.067   1.521   2.065 -0.9453 -0.5366  0.4823
  449SOL     OW 1345   1.917   2.958   0.858  1.2654 -0.4723 -0.0459
  449SOL    HW1 1346   1.996   2.977   0.919 -1.8366 -1.0598  1.2115
  449SOL    HW2 1347   1.922   2.860   0.827  2.3492  1.4701 -0.2348
  450SOL     OW 1348   2.349   1.400   0.725 -0.0777 -0.7581  0.3338
  450SOL    HW1 1349   2.259   1.381   0.776 -2.7903 -2.2108 -1.7071
  450SOL    HW2 1350   2.343   1.489   0.672 -0.2329 -0.9925 -0.6744
  451SOL     OW 1351   1.359   2.995   1.463 -0.3479  0.7896 -0.0088
  451SOL    HW1 1352   1.287   3.069   1.490 -1.2897  0.7346  1.2921
  451SOL    HW2 1353   1.409   2.954   1.547 -0.2129 -2.4085 -1.2831
  452SOL     OW 1354   2.699   2.291   2.164 -0.1438 -0.0209 -0.5301
  452SOL    HW1 1355   2.655   2.383   2.182 -1.4837 -0.2466  1.8459
  452SOL    HW2 1356   2.753   2.252   2.241 -0.9364 -0.2835  0.4004
  453SOL     OW 1357   2.482   2.650   3.092  0.1659  0.1674 -0.2305
  453SOL    HW1 1358   2.405   2.708   3.127 -2.1209  0.4004 -1.8585
  453SOL    HW2 1359   2.456   2.576   3.024  0.4767 -3.4416 -1.3834
  454SOL     OW 1360   1.018   1.163   2.102  0.2348 -0.1707 -0.3140
  454SOL    HW1 1361   0.972   1.163   2.008  0.9115  2.4585  0.0280
  454SOL    HW2 1362   1.085   1.244   2.111  2.1276 -1.6026 -1.6021
  455SOL     OW 1363   0.642   2.682   2.932  0.1786 -0.4469  0.0710
  455SOL    HW1 1364   0.709   2.706   3.010  3.5252 -2.2367 -1.0555
  455SOL    HW2 1365   0.627   2.578   2.932 -0.0323  2.1474  0.8039
  456SOL     OW 1366   0.457   1.863   0.295 -0.1112 -0.1137  0.4344
  456SOL    HW1 1367   0.545   1.832   0.344  0.0044  0.2817  1.0432
  456SOL    HW2 1368   0.464   1.959   0.254  0.7963  1.1344 -0.3424
  457SOL     OW 1369   0.267   2.653   0.642 -0.0296  0.0769  0.1266
  457SOL    HW1 1370   0.261   2.726   0.565 -0.3575  0.7703 -0.3098
  457SOL    HW2 1371   0.365   2.606   0.649  0.3252 -0.7308  1.7679
  458SOL     OW 1372   2.954   3.043   1.210  0.2888  0.0710  0.2353
  458SOL    HW1 1373   2.996   3.140   1.217 -0.2876  0.7227 -1.8471
  458SOL    HW2 1374   2.967   2.994   1.117  3.2213 -0.2160 -0.9692
  459SOL     OW 1375   2.176   2.559   0.769 -0.5038 -0.0535  0.1710
  459SOL    HW1 1376   2.186   2.659   0.792  0.7815 -1.3942  0.3922
  459SOL    HW2 1377   2.262   2.510   0.741  0.2315 -0.5272 -0.7027
  460SOL     OW 1378   1.177   2.003   2.860 -0.4594  0.1352  0.3749
  460SOL    HW1 1379   1.207   2.043   2.772 -1.6889 -2.8729 -0.8332
  460SOL    HW2 1380   1.239   1.927   2.892  0.3100 -0.0176  1.5034
  461SOL     OW 1381   0.547   2.079   2.690  0.0476 -0.1162  0.2091
  461SOL    HW1 1382   0.480   1.997   2.679 -1.3593  0.1455  1.3730
  461SOL    HW2 1383   0.589   2.090   2.788 -1.9411 -1.7553 -0.5734
  462SOL     OW 1384   0.961   1.136   1.829 -0.0311 -0.3536  0.1786
  462SOL    HW1 1385   1.023   1.071   1.780 -0.7200 -2.3554  1.3435
  462SOL    HW2 1386   0.945   1.221   1.781 -2.7676 -5.2972  1.4672
  463SOL     OW 1387   0.468   0.790   0.479 -0.1264 -0.6381  0.3704
  463SOL    HW1 1388   0.496   0.686   0.470 -2.8877 -4.3265 -1.8318
  463SOL    HW2 1389   0.368   0.800   0.498  1.3959 -1.9888  1.9329
  464SOL     OW 1390   0.617   2.272   2.238 -0.1269 -0.0772  0.1334
  464SOL    HW1 1391   0.577   2.343   2.302  0.5184  0.6117 -2.7736
  464SOL    HW2 1392   0.594   2.291   2.140 -1.6471 -0.9781  0.3246
  465SOL     OW 1393   0.307   0.914   0.774 -0.1699  0.1517  0.2383
  465SOL    HW1 1394   0.213   0.957   0.759  2.7256 -0.6202  1.4446
  465SOL    HW2 1395   0.307   0.810   0.799  2.7501 -3.9269 -2.2736
  466SOL     OW 1396   1.365   1.119   1.065 -0.7764  0.3092  0.6728
  466SOL    HW1 1397   1.421   1.191   1.011  0.3546  0.2047 -2.6314
  466SOL    HW2 1398   1.267   1.144   1.087 -1.1266  1.9395 -1.1595
  467SOL     OW 1399   0.454   0.364   2.367 -0.3716 -0.0184  0.2914
  467SOL    HW1 1400   0.415   0.458   2.384 -0.9091  0.1985 -1.8613
  467SOL    HW2 1401   0.456   0.313   2.456  1.7348 -0.2483  0.7614
  468SOL     OW 1402   0.451   2.291   1.664 -0.0033  0.1424 -0.6245
  468SOL    HW1 1403   0.540   2.343   1.673 -0.1723  2.4888  0.3802
  468SOL    HW2 1404   0.423   2.281   1.562  1.2759  2.5886  0.4874
  469SOL     OW 1405   1.508   1.392   1.191  0.3494 -0.2575  0.2195
  469SOL    HW1 1406   1.575   1.321   1.164 -4.1379 -0.1250 -0.2095
  469SOL    HW2 1407   1.546   1.445   1.273  0.4681 -2.3005  1.6936
  470SOL     OW 1408   3.029   1.668   0.769  0.2907 -0.3568  0.4649
  470SOL    HW1 1409   3.093   1.748   0.768  1.6766  1.5252 -1.0399
  470SOL    HW2 1410   2.958   1.674   0.842  0.8942  0.5123  0.2761
  471SOL     OW 1411   2.681   1.307   2.140 -0.8164 -0.1071  0.6167
  471SOL    HW1 1412   2.638   1.234   2.202 -0.6249  0.2644  1.1576
  471SOL    HW2 1413   2.749   1.365   2.186 -0.9465 -2.0490  0.0471
  472SOL     OW 1414   1.134   2.477   3.076 -0.1351 -0.0141 -0.1633
  472SOL    HW1 1415   1.189   2.459   3.160 -0.7567  1.8267 -2.1105
  472SOL    HW2 1416   1.081   2.398   3.039  1.7245  0.4148  1.2798
  473SOL     OW 1417   1.111   1.538   1.007 -1.0542 -0.3561 -0.5528
  473SOL    HW1 1418   1.015   1.527   0.981  3.3730  0.5860 -2.6197
  473SOL    HW2 1419   1.146   1.466   1.075  0.7971 -0.6103  1.9463
  474SOL     OW 1420   0.703   1.302   0.553  0.3773 -0.5098  0.1259
  474SOL    HW1 1421   0.655   1.263   0.469 -1.5072 -0.4336  1.4224
  474SOL    HW2 1422   0.760   1.230   0.598 -0.9946 -0.5282 -0.2600
  475SOL     OW 1423   2.837   0.087   0.798 -0.5106  0.2038  0.4074
  475SOL    HW1 1424   2.921   0.128   0.836 -1.7889 -0.0536 -1.3236
  475SOL    HW2 1425   2.750   0.114   0.843  0.7440  0.7689 -1.1501
  476SOL     OW 1426   0.953   3.028   1.828 -0.0951  0.2790 -0.6620
  476SOL    HW1 1427   1.020   2.983   1.892 -1.0866  1.0113 -2.3835
  476SOL    HW2 1428   0.963   3.001   1.730 -3.3194  1.4586  0.3393
  477SOL     OW 1429   1.472   0.327   2.473 -0.0421  0.0988  0.0641
  477SOL    HW1 1430   1.464   0.313   2.572  0.4543  0.3092 -2.4377
  477SOL    HW2 1431   1.565   0.283   2.447  1.7571  0.8342  0.4221
  478SOL     OW 1432   2.221   1.850   0.260 -0.1902 -0.1993  0.2538
  478SOL    HW1 1433   2.142   1.789   0.252  0.8769  2.5323  0.3894
  478SOL    HW2 1434   2.316   1.802   0.272  0.3004 -0.8142  2.9209
  479SOL     OW 1435   1.257   1.072   2.919 -0.5493  0.1449 -0.2322
  479SOL    HW1 1436   1.339   1.078   2.852  2.2871  0.9681  0.1413
  479SOL    HW2 1437   1.164   1.060   2.885 -0.8387  0.1556  2.9248
  480SOL     OW 1438   2.564   2.348   0.381 -0.3623 -0.2178 -0.7400
  480SOL    HW1 1439   2.514   2.257   0.397  1.0329 -1.2446 -1.0264
  480SOL    HW2 1440   2.511   2.396   0.303 -2.0227  3.6046  0.9174
  481SOL     OW 1441   1.009   1.124   0.844  0.4685  0.2654 -0.9505
  481SOL    HW1 1442   1.026   1.205   0.785  2.1051 -1.3312 -1.0415
  481SOL    HW2 1443   1.004   1.142   0.945 -2.2714 -0.6034 -1.7019
  482SOL     OW 1444   1.568   0.281   2.056  0.4730 -0.0376  0.1107
  482SOL    HW1 1445   1.595   0.368   1.996  0.3300  0.5380 -1.5634
  482SOL    HW2 1446   1.648   0.245   2.107  1.8072 -0.5087 -1.9890
  483SOL     OW 1447   0.127   2.309   1.280 -0.1466 -0.4529 -0.1629
  483SOL    HW1 1448   0.050   2.315   1.352 -0.1129  0.9158 -0.1735
  483SOL    HW2 1449   0.149   2.401   1.235  1.1894 -0.5259 -1.6635
  484SOL     OW 1450   1.742   1.061   1.361 -0.1770  0.1146 -0.0114
  484SOL    HW1 1451   1.789   0.969   1.363 -2.5762  0.4269  0.7486
  484SOL    HW2 1452   1.765   1.111   1.447  2.8115 -1.0918 -1.8660
  485SOL     OW 1453   0.667   1.035   1.806 -0.2966  0.0410 -0.5303
  485SOL    HW1 1454   0.659   0.998   1.710 -1.9966 -2.1613  1.0458
  485SOL    HW2 1455   0.760   1.082   1.831  1.6163  0.9161 -0.0214
  486SOL     OW 1456   0.842   1.959   2.454  0.3414  0.1811 -0.1279
  486SOL    HW1 1457   0.905   1.931   2.534  1.7134  1.5491  0.6244
  486SOL    HW2 1458   0.828   2.063   2.466  2.7766 -1.0130  2.0256
  487SOL     OW 1459   1.854   1.633   0.939 -0.5192 -0.4794  0.2467
  487SOL    HW1 1460   1.915   1.566   0.983 -0.7897  0.7618 -0.6466
  487SOL    HW2 1461   1.904   1.671   0.852 -3.1311 -2.2302 -1.4189
  488SOL     OW 1462   2.957   0.869   2.253 -0.1521  0.3344  0.2537
  488SOL    HW1 1463   2.977   0.770   2.228 -2.6506 -1.0615  1.4508
  488SOL    HW2 1464   2.970   0.884   2.355  0.2840 -1.1044 -0.5635
  489SOL     OW 1465   2.754   0.214   1.314  0.0895 -0.0998  0.2164
  489SOL    HW1 1466   2.715   0.195   1.411  1.2575  1.2827 -0.1315
  489SOL    HW2 1467   2.852   0.204   1.315 -1.2749 -0.9851  0.5123
  490SOL     OW 1468   1.450   2.946   2.825  0.3162 -0.8208  0.0692
  490SOL    HW1 1469   1.485   2.851   2.819  0.2658  0.4860 -1.2782
  490SOL    HW2 1470   1.404   2.976   2.735 -2.5857 -1.1861 -0.5461
  491SOL     OW 1471   1.819   1.455   2.610  0.5441  0.3317 -0.4456
  491SOL    HW1 1472   1.786   1.435   2.705  2.1176 -1.5287  0.5715
  491SOL    HW2 1473   1.921   1.486   2.609  0.5258  0.1737 -0.0034
  492SOL     OW 1474   0.523   1.977   0.687  0.5115 -0.3113  0.3589
  492SOL    HW1 1475   0.574   1.965   0.771  0.2102 -0.8711 -2.6687
  492SOL    HW2 1476   0.458   2.059   0.689 -1.5660 -0.1062 -2.2105
  493SOL     OW 1477   0.388   1.401   2.046 -0.1685  0.0184  0.3561
  493SOL    HW1 1478   0.292   1.436   2.023  0.2359  0.4850  0.1792
  493SOL    HW2 1479   0.393   1.362   2.144 -1.6014 -2.5788  3.0225
  494SOL     OW 1480   2.716   2.691   0.156 -0.3979  0.3445  0.5659
  494SOL    HW1 1481   2.698   2.623   0.230 -1.2156 -2.5517  0.8748
  494SOL    HW2 1482   2.628   2.712   0.102 -1.9502  1.6099 -1.2893
  495SOL     OW 1483   2.742   2.676   2.726  0.3643 -0.6823 -0.8041
  495SOL    HW1 1484   2.669   2.603   2.715  0.8810 -1.5974 -0.6815
  495SOL    HW2 1485   2.780   2.704   2.633 -0.5003 -2.2609  0.4835
  496SOL     OW 1486   2.053   2.254   0.703 -0.3075 -0.0775  0.2186
  496SOL    HW1 1487   2.091   2.277   0.797  0.3963 -0.9124 -0.0879
  496SOL    HW2 1488   2.116   2.182   0.660  0.8445 -2.2309 -1.3691
  497SOL     OW 1489   0.251   2.972   2.441  0.0809 -0.1378  0.3436
  497SOL    HW1 1490   0.219   3.059   2.490 -0.7287  0.2814  0.2062
  497SOL    HW2 1491   0.293   3.001   2.351  0.5259 -0.5428  0.8248
  498SOL     OW 1492   1.220   1.406   1.212  0.2408  0.1749  0.2634
  498SOL    HW1 1493   1.326   1.392   1.202  0.6296  0.3693 -1.5803
  498SOL    HW2 1494   1.199   1.468   1.292  1.2559 -1.0138 -0.2764
  499SOL     OW 1495   0.698   1.850   0.439  0.2489 -0.1571  0.5560
  499SOL    HW1 1496   0.753   1.760   0.453  2.3947  0.5639 -1.3879
  499SOL    HW2 1497   0.677   1.900   0.526  0.6559  0.8338  1.0664
  500SOL     OW 1498   1.444   2.871   1.688  0.5995  0.7767 -0.1318
  500SOL    HW1 1499   1.354   2.859   1.728  0.8317 -0.2366  1.1370
  500SOL    HW2 1500   1.489   2.781   1.668 -4.9020  0.9639 -1.7420
  501SOL     OW 1501   0.811   1.122   2.287 -0.0669 -0.2972 -0.3692
  501SOL    HW1 1502   0.733   1.060   2.261  1.9904  1.9594 -0.3526
  501SOL    HW2 1503   0.879   1.129   2.211 -0.8066 -0.0928 -2.0964
  502SOL     OW 1504   2.608   0.954   1.735  0.5356  0.2223 -0.1028
  502SOL    HW1 1505   2.591   0.991   1.639  0.1148 -0.0983  1.5835
  502SOL    HW2 1506   2.582   0.851   1.741  2.7504 -2.9040 -0.2862
  503SOL     OW 1507   1.297   0.105   0.663 -0.4558  0.3550 -0.0507
  503SOL    HW1 1508   1.230   0.183   0.666 -0.3462  0.3765 -0.3644
  503SOL    HW2 1509   1.375   0.128   0.722 -2.1563  3.3595 -0.4643
  504SOL     OW 1510   3.014   2.333   1.474  0.3683 -0.0380 -0.2581
  504SOL    HW1 1511   2.946   2.407   1.507 -1.8157  0.9399 -0.5565
  504SOL    HW2 1512   3.022   2.270   1.552  0.4760  0.5802 -2.2502
  505SOL     OW 1513   2.299   1.167   1.466 -0.4701  0.2484  0.4042
  505SOL    HW1 1514   2.316   1.184   1.369 -1.4603 -2.4642  3.3554
  505SOL    HW2 1515   2.355   1.230   1.530 -0.3194 -0.8765 -1.6100
  506SOL     OW 1516   1.967   0.166   1.807  0.4229  0.6810 -0.1193
  506SOL    HW1 1517   2.044   0.111   1.841 -2.3396  2.4080 -0.3396
  506SOL    HW2 1518   1.964   0.260   1.849 -0.9744 -3.1631 -0.0741
  507SOL     OW 1519   0.519   0.700   2.147  0.2254  0.0596  0.3014
  507SOL    HW1 1520   0.459   0.644   2.090  1.1611 -3.3717  0.4401
  507SOL    HW2 1521   0.607   0.649   2.157  0.2008  1.9030 -0.5522
  508SOL     OW 1522   0.262   1.638   0.836 -0.8394  0.0519  0.3584
  508SOL    HW1 1523   0.357   1.671   0.807  2.4679 -1.3734  2.6372
  508SOL    HW2 1524   0.225   1.704   0.905 -1.9852 -0.0519 -0.6447
  509SOL     OW 1525   1.223   1.256   2.341  0.4267 -0.3751  0.1149
  509SOL    HW1 1526   1.227   1.284   2.239  0.1499 -0.7922 -0.8628
  509SOL    HW2 1527   1.201   1.163   2.358  1.8749  3.9114 -4.3616
  510SOL     OW 1528   1.265   1.998   2.118 -0.0437  0.1574 -0.5231
  510SOL    HW1 1529   1.264   2.096   2.090  0.2990  1.3679 -1.2726
  510SOL    HW2 1530   1.182   1.964   2.167  1.1310  0.4150 -2.9266
  511SOL     OW 1531   3.051   2.773   1.312 -0.0835  0.5743 -0.0846
  511SOL    HW1 1532   3.009   2.796   1.219  1.3548 -1.5813  0.5742
  511SOL    HW2 1533   2.976   2.753   1.389 -0.0507  1.9385  0.2943
  512SOL     OW 1534   2.395   0.448   1.359 -0.3627  0.2377 -0.5851
  512SOL    HW1 1535   2.289   0.440   1.342 -2.9101  0.0947 -1.5561
  512SOL    HW2 1536   2.447   0.391   1.286 -1.4372  1.0093  0.2968
  513SOL     OW 1537   2.541   2.039   0.843  0.0540 -0.1413 -0.1686
  513SOL    HW1 1538   2.495   2.105   0.778 -0.6257  0.7530 -0.2250
  513SOL    HW2 1539   2.613   1.970   0.804 -0.8117  0.1855 -1.2742
  514SOL     OW 1540   0.602   2.747   0.467 -0.2470  0.3829  0.3880
  514SOL    HW1 1541   0.607   2.801   0.379 -0.6627  0.4720  0.8963
  514SOL    HW2 1542   0.642   2.797   0.551  0.1519 -1.1708  2.7409
  515SOL     OW 1543   1.983   1.154   2.352  0.2176 -0.3801 -0.4008
  515SOL    HW1 1544   1.983   1.150   2.246  2.5352 -1.2164 -5.5234
  515SOL    HW2 1545   1.896   1.194   2.394 -1.8488 -1.5633  4.7571
  516SOL     OW 1546   0.230   0.311   1.893 -0.4091  0.4876  0.4315
  516SOL    HW1 1547   0.293   0.284   1.817  0.7671  1.9247 -0.6129
  516SOL    HW2 1548   0.158   0.235   1.919  0.8002 -1.0104  0.4469
  517SOL     OW 1549   0.445   0.009   1.177  0.1953 -0.2668  0.1133
  517SOL    HW1 1550   0.456   0.111   1.190  3.2739 -1.4472 -0.3665
  517SOL    HW2 1551   0.346  -0.029   1.169 -0.1094 -1.8813 -0.4591
  518SOL     OW 1552   2.241   3.095   1.825  0.6315  0.4181  0.0669
  518SOL    HW1 1553   2.284   3.192   1.836  1.1443 -0.3358 -1.6351
  518SOL    HW2 1554   2.265   3.061   1.732 -0.3663  0.2541  2.4426
  519SOL     OW 1555   2.340   2.196   2.569  0.1824  0.5388  0.2174
  519SOL    HW1 1556   2.272   2.171   2.641  0.5276  1.1524 -0.2761
  519SOL    HW2 1557   2.337   2.296   2.552 -1.2230  1.3118  1.4287
  520SOL     OW 1558   1.815   2.794   1.796 -0.1839  0.5698  0.2905
  520SOL    HW1 1559   1.713   2.794   1.812  1.9010 -0.4036  1.1064
  520SOL    HW2 1560   1.847   2.699   1.782  1.4250  1.3402  1.8073
  521SOL     OW 1561   0.584   3.089   2.115  0.3100  0.5693  0.8676
  521SOL    HW1 1562   0.483   3.071   2.123  1.7474 -1.3350  1.3726
  521SOL    HW2 1563   0.631   3.085   2.210 -1.2094 -0.9718  2.3276
  522SOL     OW 1564   0.197   1.900   1.475 -0.2522  0.2781  0.4205
  522SOL    HW1 1565   0.259   1.958   1.538  2.9235 -0.4842 -1.2829
  522SOL    HW2 1566   0.161   1.958   1.398  2.1165 -2.2283 -1.5293
  523SOL     OW 1567   2.235   3.006   1.556 -0.0192  0.2030 -0.5110
  523SOL    HW1 1568   2.325   2.964   1.571 -1.4268 -1.0623  3.5292
  523SOL    HW2 1569   2.172   2.936   1.513 -0.4463 -0.0721 -2.3565
  524SOL     OW 1570   0.155   2.797   2.838 -0.1410  0.3999  0.5338
  524SOL    HW1 1571   0.074   2.859   2.855 -1.2646 -1.1861  0.1345
  524SOL    HW2 1572   0.246   2.831   2.865  1.1359 -0.3814 -1.8345
  525SOL     OW 1573   2.156   2.030   0.441  0.2516 -0.1025  0.4947
  525SOL    HW1 1574   2.191   1.984   0.525 -1.8173  0.5085  0.5888
  525SOL    HW2 1575   2.180   1.968   0.360 -2.3785  0.7902  0.7207
  526SOL     OW 1576   0.444   1.564   1.651 -0.2153  0.4572  0.2994
  526SOL    HW1 1577   0.481   1.598   1.743 -1.0940  1.2368  3.1606
  526SOL    HW2 1578   0.481   1.473   1.619 -1.8708 -0.3983 -0.7993
  527SOL     OW 1579   1.052   2.922   1.217  0.3126 -0.1571 -0.0549
  527SOL    HW1 1580   1.131   2.855   1.217  0.8779  0.6437  0.6849
  527SOL    HW2 1581   1.080   3.025   1.223  0.7819 -0.3840 -0.1866
  528SOL     OW 1582   1.337   2.435   0.555 -0.7930 -0.2470  0.1627
  528SOL    HW1 1583   1.360   2.335   0.552  2.0667  0.0977 -1.4944
  528SOL    HW2 1584   1.412   2.492   0.604  0.2641  3.0324 -0.0050
  529SOL     OW 1585   1.939   1.736   0.677 -0.1187  0.1284 -0.2487
  529SOL    HW1 1586   1.887   1.757   0.591 -1.8509  1.6553  1.5102
  529SOL    HW2 1587   1.938   1.810   0.753  0.6798  2.2195  1.7844
  530SOL     OW 1588   0.316   2.621   0.287 -0.3057  0.0088  0.5537
  530SOL    HW1 1589   0.295   2.704   0.346  1.5232  1.4511 -2.2490
  530SOL    HW2 1590   0.317   2.532   0.339 -2.6674 -1.7610  2.8229
  531SOL     OW 1591   1.849   0.985   0.946 -0.3119 -0.0509  0.4875
  531SOL    HW1 1592   1.883   1.065   0.887  0.0889  1.6769  0.6054
  531SOL    HW2 1593   1.755   0.947   0.914  0.9981  1.3445 -0.3112
  532SOL     OW 1594   0.413   1.187   0.705  0.5602 -0.3814 -0.0196
  532SOL    HW1 1595   0.470   1.195   0.625  0.6049  0.3815  1.9090
  532SOL    HW2 1596   0.378   1.093   0.726 -1.0324 -1.5157 -1.2019
  533SOL     OW 1597   1.733   0.012   2.594 -0.2811 -0.4377 -0.1596
  533SOL    HW1 1598   1.838  -0.005   2.606  0.1590 -1.5174 -0.0957
  533SOL    HW2 1599   1.696   0.085   2.663 -2.0388  1.4435 -1.7057
  534SOL     OW 1600   0.369   0.217   1.631 -0.0603 -0.2855  0.4486
  534SOL    HW1 1601   0.450   0.217   1.570 -0.4034 -0.8321  1.5679
  534SOL    HW2 1602   0.319   0.305   1.621  0.3203 -0.6277  0.7547
  535SOL     OW 1603   1.957   0.375   0.143  0.2186 -0.2458 -0.7936
  535SOL    HW1 1604   1.959   0.458   0.208 -0.1608  3.0662 -1.9772
  535SOL    HW2 1605   1.956   0.284   0.199  0.6692 -0.1883  1.0345
  536SOL     OW 1606   1.416   2.556   0.940  0.2016  0.1214 -0.0549
  536SOL    HW1 1607   1.401   2.535   1.042 -0.8932 -0.9837 -0.6702
  536SOL    HW2 1608   1.337   2.616   0.904 -2.3757  1.0403 -0.7863
  537SOL     OW 1609   0.794   0.227   2.376 -0.3942  0.4383  0.7243
  537SOL    HW1 1610   0.810   0.315   2.328 -1.8549 -0.3731 -0.0320
  537SOL    HW2 1611   0.707   0.179   2.356 -0.1001  1.9279  0.6007
  538SOL     OW 1612   1.655   2.370   1.544 -0.4595  0.4019  0.3920
  538SOL    HW1 1613   1.621   2.272   1.542  1.6334  0.6678 -0.8652
  538SOL    HW2 1614   1.717   2.398   1.467 -0.7849 -1.3041  2.6057
  539SOL     OW 1615   0.216   1.607   2.733 -0.1483 -0.0032 -0.1410
  539SOL    HW1 1616   0.137   1.619   2.668  0.8088  1.3771 -1.6904
  539SOL    HW2 1617   0.218   1.675   2.813  0.7050  0.5323  0.6849
  540SOL     OW 1618   2.696   1.697   1.920 -0.3654  0.8687  0.2143
  540SOL    HW1 1619   2.695   1.638   2.004 -1.9968  0.9414 -0.5421
  540SOL    HW2 1620   2.626   1.767   1.906  2.0562 -1.8627  0.3470
  541SOL     OW 1621   0.478   2.209   0.015  0.0300 -0.5762  0.1989
  541SOL    HW1 1622   0.525   2.194   0.107 -1.8351  1.9690  0.9284
  541SOL    HW2 1623   0.370   2.200   0.013 -1.4748 -0.3703  0.2430
  542SOL     OW 1624   2.262   2.582   0.448  0.0717 -0.0038  0.1399
  542SOL    HW1 1625   2.247   2.675   0.403 -1.8919  0.6056  1.4273
  542SOL    HW2 1626   2.175   2.521   0.443  0.7411  0.4926 -4.1345
  543SOL     OW 1627   1.082   1.842   1.550  0.1390  0.3532 -0.3185
  543SOL    HW1 1628   1.065   1.895   1.638  1.4425  1.0345  1.6331
  543SOL    HW2 1629   1.036   1.885   1.464 -0.3501  0.8397  0.9776
  544SOL     OW 1630   0.998   0.421   0.165  0.4429 -0.4140  0.1409
  544SOL    HW1 1631   1.010   0.333   0.220  0.7174 -2.2536  0.8157
  544SOL    HW2 1632   0.975   0.405   0.063 -0.5388  3.1482 -3.5783
  545SOL     OW 1633   1.110   1.728   0.800 -0.4776 -0.2922  0.1155
  545SOL    HW1 1634   1.205   1.763   0.799 -0.7766 -1.7193 -1.8213
  545SOL    HW2 1635   1.108   1.631   0.830 -0.1512  0.7090  1.4870
  546SOL     OW 1636   2.657   1.481   3.032 -0.5480 -0.3836 -1.0864
  546SOL    HW1 1637   2.627   1.567   2.988  1.7646 -2.4426  0.9637
  546SOL    HW2 1638   2.583   1.414   3.059 -1.1684 -0.3643  0.5344
  547SOL     OW 1639   0.592   3.037   2.668 -0.0724 -0.1798  0.5524
  547SOL    HW1 1640   0.684   3.007   2.646 -0.6366 -0.6595 -1.9093
  547SOL    HW2 1641   0.543   2.962   2.721  0.8353 -0.3857  2.2113
  548SOL     OW 1642   2.095   0.889   2.975 -0.6477  0.4951 -0.6854
  548SOL    HW1 1643   1.999   0.842   2.994  0.8906  1.4644  0.7722
  548SOL    HW2 1644   2.096   0.991   3.005 -0.1007  2.1101 -0.5122
  549SOL     OW 1645   0.697   0.510   0.218  0.3442  0.0240 -0.6387
  549SOL    HW1 1646   0.674   0.531   0.120 -1.6143  0.1524 -0.0265
  549SOL    HW2 1647   0.772   0.568   0.251  0.1380  4.1361  2.6405
  550SOL     OW 1648   2.563   2.823   2.888  0.5952 -0.1053  0.5769
  550SOL    HW1 1649   2.537   2.765   2.969 -1.2618  1.7183  3.1745
  550SOL    HW2 1650   2.606   2.764   2.811  0.9332  2.5189 -0.5025
  551SOL     OW 1651   0.252   0.881   0.225  0.4759 -0.2679  0.4147
  551SOL    HW1 1652   0.345   0.855   0.182  1.3280 -0.7225  1.7607
  551SOL    HW2 1653   0.252   0.889   0.330 -1.4757 -0.7719 -0.4730
  552SOL     OW 1654   0.682   2.946   1.890 -1.2429 -0.4484  0.3903
  552SOL    HW1 1655   0.659   2.977   1.982  0.1758  0.2350 -3.2633
  552SOL    HW2 1656   0.783   2.959   1.867 -1.7381 -0.1184 -0.3692
  553SOL     OW 1657   2.976   2.521   0.359 -0.4585 -0.5592  0.0357
  553SOL    HW1 1658   2.921   2.438   0.343  2.3758  2.0399  1.5529
  553SOL    HW2 1659   2.929   2.593   0.417 -1.9895 -0.2651 -0.9553
  554SOL     OW 1660   2.164   0.382   0.567 -0.3597  0.1876  0.2004
  554SOL    HW1 1661   2.241   0.380   0.495 -2.2218  1.1564  0.4654
  554SOL    HW2 1662   2.145   0.285   0.600 -2.9466  0.1241 -1.3607
  555SOL     OW 1663   0.387   2.727   2.522  0.1080  0.0898  0.0115
  555SOL    HW1 1664   0.344   2.815   2.502  0.0914 -2.5733  0.0033
  555SOL    HW2 1665   0.452   2.701   2.443 -1.4667 -0.3761  0.5114
  556SOL     OW 1666   0.843   2.406   1.502 -0.1470 -0.2925  0.1231
  556SOL    HW1 1667   0.855   2.503   1.525  2.3597 -1.3533  1.6442
  556SOL    HW2 1668   0.913   2.363   1.436  0.9838 -0.2229  1.8786
  557SOL     OW 1669   0.090   2.097   0.217  0.7257  0.3250  0.2702
  557SOL    HW1 1670   0.003   2.053   0.178 -1.5341  2.7722  2.9767
  557SOL    HW2 1671   0.157   2.134   0.145  2.2439  0.1246  1.3469
  558SOL     OW 1672   2.815   2.283   0.324 -0.3866  0.1536  0.5196
  558SOL    HW1 1673   2.727   2.319   0.369 -1.1747 -0.4450  1.4023
  558SOL    HW2 1674   2.799   2.183   0.297 -2.6501  1.9225 -0.2602
  559SOL     OW 1675   0.372   2.285   1.393 -0.3444 -0.1026  0.4557
  559SOL    HW1 1676   0.274   2.283   1.362  2.3008 -1.2730  0.5158
  559SOL    HW2 1677   0.435   2.204   1.372  1.1363  0.5574  1.3475
  560SOL     OW 1678   2.104   1.161   3.059  0.4966  0.8854  0.1922
  560SOL    HW1 1679   2.123   1.174   3.160 -0.2988  0.8636  1.5452
  560SOL    HW2 1680   2.148   1.236   3.004  0.2389  1.4114  1.1651
  561SOL     OW 1681   3.065   1.852   0.037 -0.3407 -0.0219  0.1832
  561SOL    HW1 1682   3.021   1.809   0.123  1.0529  4.0681  1.2932
  561SOL    HW2 1683   3.011   1.940   0.014  1.1770 -1.2567 -0.3777
  562SOL     OW 1684   0.965   2.223   2.331 -0.7097 -0.3671 -0.1108
  562SOL    HW1 1685   0.905   2.259   2.404  2.8964 -0.6052  1.4909
  562SOL    HW2 1686   1.062   2.269   2.310  2.7149  0.3273  2.3817
  563SOL     OW 1687   0.712   2.583   2.618 -0.1726  0.3273 -0.1087
  563SOL    HW1 1688   0.795   2.520   2.610 -0.8399 -2.8906  1.7155
  563SOL    HW2 1689   0.716   2.634   2.711 -2.3249  0.3080  0.5246
  564SOL     OW 1690   2.836   1.323   2.901 -0.7452 -0.0369 -0.0604
  564SOL    HW1 1691   2.766   1.364   2.970 -1.3681 -1.6229  2.1679
  564SOL    HW2 1692   2.904   1.389   2.861 -0.5004 -0.7057  0.2063
  565SOL     OW 1693   2.534   2.017   2.639  0.0051  0.0278 -0.0365
  565SOL    HW1 1694   2.470   2.090   2.611  2.1445  1.1584  3.0104
  565SOL    HW2 1695   2.620   2.049   2.685 -0.9156 -1.7621 -0.6498
  566SOL     OW 1696   2.085   2.839   1.426  0.2920 -0.3012  0.4685
  566SOL    HW1 1697   2.021   2.759   1.438 -0.8003  3.1603  1.5507
  566SOL    HW2 1698   2.063   2.890   1.338 -1.6391  1.0796  0.1647
  567SOL     OW 1699   2.417   3.080   2.369  0.3764 -0.6126  0.3111
  567SOL    HW1 1700   2.329   3.130   2.403 -2.6573 -1.8625 -0.0247
  567SOL    HW2 1701   2.411   3.076   2.268  0.0837  1.5225  1.7336
  568SOL     OW 1702   1.517   1.747   0.226  0.4715 -0.0167 -0.5957
  568SOL    HW1 1703   1.464   1.835   0.242  1.4002 -0.9376  0.3788
  568SOL    HW2 1704   1.621   1.757   0.207 -0.1577 -1.5717 -0.4312
  569SOL     OW 1705   0.299   0.633   0.850  0.2873  0.0012  0.2854
  569SOL    HW1 1706   0.376   0.577   0.804 -0.7467  1.0722 -0.9231
  569SOL    HW2 1707   0.198   0.604   0.827 -2.4420  0.5135  0.2849
  570SOL     OW 1708   0.608   0.867   2.925  0.5204 -0.2407  0.1471
  570SOL    HW1 1709   0.694   0.859   2.872 -2.6656 -0.1295  1.5490
  570SOL    HW2 1710   0.621   0.929   3.010 -0.8051 -0.1896 -1.1810
  571SOL     OW 1711   0.795   3.079   1.023 -0.1356 -0.5471  0.5926
  571SOL    HW1 1712   0.827   3.129   0.942  0.2141 -0.6473 -0.7805
  571SOL    HW2 1713   0.778   2.978   1.014  1.0225 -1.4884  0.3172
  572SOL     OW 1714   1.626   2.584   1.326  0.5801 -0.0729  0.3356
  572SOL    HW1 1715   1.556   2.548   1.254 -2.1272 -3.1785 -1.0573
  572SOL    HW2 1716   1.625   2.689   1.341  0.3010 -0.3383 -1.4707
  573SOL     OW 1717   2.908   0.511   2.003  0.6113 -0.5880 -0.4285
  573SOL    HW1 1718   2.814   0.464   2.019 -0.2032 -0.0569 -0.6990
  573SOL    HW2 1719   2.944   0.500   1.910 -2.2142  3.2889  0.9931
  574SOL     OW 1720   0.158   1.763   1.081 -0.5667  0.8712  0.1165
  574SOL    HW1 1721   0.115   1.853   1.075 -0.1185 -0.2510  1.3400
  574SOL    HW2 1722   0.094   1.701   1.131 -0.9597  0.3019 -0.1320
  575SOL     OW 1723   0.837   2.171   0.925 -0.3392  0.4958  0.1248
  575SOL    HW1 1724   0.830   2.223   1.014 -2.1483  0.2173  2.2013
  575SOL    HW2 1725   0.881   2.228   0.849  0.0548  0.2880 -1.1587
  576SOL     OW 1726   2.876   3.012   1.683 -0.2334 -0.3314 -0.2568
  576SOL    HW1 1727   2.773   3.009   1.701  0.1881 -0.0723  1.8882
  576SOL    HW2 1728   2.906   3.110   1.673 -1.7407 -1.3834 -3.9996
  577SOL     OW 1729   2.483   1.212   0.005  0.1946 -0.4068 -0.0751
  577SOL    HW1 1730   2.499   1.132  -0.062  0.7213 -0.4450 -1.2164
  577SOL    HW2 1731   2.560   1.199   0.078  2.9746 -0.9782 -1.4238
  578SOL     OW 1732   1.425   2.718   2.430  0.7138 -0.2455  0.0268
  578SOL    HW1 1733   1.323   2.721   2.436  1.9932  0.7268  0.3348
  578SOL    HW2 1734   1.475   2.805   2.469  1.0418  1.7508  1.8762
  579SOL     OW 1735   0.056   2.499   0.160 -0.3786  0.0158  0.2753
  579SOL    HW1 1736  -0.020   2.491   0.233  1.3948 -1.4826  1.6908
  579SOL    HW2 1737   0.143   2.536   0.201  1.3372  0.7862 -2.1905
  580SOL     OW 1738   0.963   2.685   0.381 -0.2097 -0.0642 -0.1835
  580SOL    HW1 1739   1.036   2.657   0.318 -3.2079  0.0305  0.1846
  580SOL    HW2 1740   0.880   2.615   0.385 -1.8838 -2.8383 -0.0914
  581SOL     OW 1741   1.235   2.664   1.462 -0.1967  0.4621 -0.2788
  581SOL    HW1 1742   1.300   2.581   1.482 -1.5987 -2.2905  1.1798
  581SOL    HW2 1743   1.292   2.743   1.430 -0.3031 -1.4032 -0.1208
  582SOL     OW 1744   1.513   0.068   1.849  0.2206  0.3313  0.0142
  582SOL    HW1 1745   1.545   0.140   1.917  0.2546  1.0177  0.5851
  582SOL    HW2 1746   1.587   0.029   1.788 -1.8693  0.1016 -2.3750
  583SOL     OW 1747   2.456   3.069   0.556 -0.1678 -0.0659 -0.2983
  583SOL    HW1 1748   2.517   3.003   0.506 -0.8159  0.6593  1.1890
  583SOL    HW2 1749   2.366   3.034   0.604  1.4701  1.4986  0.7835
  584SOL     OW 1750   1.547   1.053   2.148 -0.2100  0.6621  0.4799
  584SOL    HW1 1751   1.616   1.131   2.132  2.3960  1.9096  1.1381
  584SOL    HW2 1752   1.575   0.971   2.206 -1.6727  0.7784 -1.4814
  585SOL     OW 1753   2.150   2.670   2.931  0.4699 -0.1916 -0.1097
  585SOL    HW1 1754   2.180   2.581   2.887 -1.4787  1.9963 -0.5257
  585SOL    HW2 1755   2.051   2.670   2.962 -1.1572  2.2918  1.4714
  586SOL     OW 1756   2.824   0.369   1.620 -0.0214 -0.1818  0.3698
  586SOL    HW1 1757   2.817   0.451   1.677  0.3874  2.2468 -0.5054
  586SOL    HW2 1758   2.741   0.341   1.563  0.5097 -1.7835 -1.7601
  587SOL     OW 1759   2.079   1.556   2.630  0.3928 -0.2901  0.4034
  587SOL    HW1 1760   2.098   1.468   2.582 -0.9863 -1.7139  4.0433
  587SOL    HW2 1761   2.094   1.546   2.733 -0.6052 -2.1171  0.1514
  588SOL     OW 1762   0.458   2.656   2.247 -0.2236 -0.6044 -0.1737
  588SOL    HW1 1763   0.355   2.658   2.247 -1.6242  1.3297  0.6558
  588SOL    HW2 1764   0.498   2.578   2.300  0.6540  0.9754 -2.1843
  589SOL     OW 1765   2.143   1.343   2.474 -0.3484  0.0216 -0.2131
  589SOL    HW1 1766   2.086   1.276   2.417  1.1368 -1.5500  1.3813
  589SOL    HW2 1767   2.237   1.312   2.497 -0.0944  0.5839 -2.1961
  590SOL     OW 1768   2.346   1.692   2.043 -0.2113  0.4721  0.1587
  590SOL    HW1 1769   2.381   1.593   2.026 -0.9966  2.0960 -0.2168
  590SOL    HW2 1770   2.369   1.738   2.136 -0.9399  0.9310 -1.2504
  591SOL     OW 1771   1.281   2.424   0.220 -0.2625 -0.2591 -0.7233
  591SOL    HW1 1772   1.337   2.354   0.175 -2.1413 -0.6356  2.1317
  591SOL    HW2 1773   1.284   2.412   0.325  0.5509  1.9802 -0.1118
  592SOL     OW 1774   1.783   2.272   0.734 -0.3036  0.2737 -0.0104
  592SOL    HW1 1775   1.782   2.360   0.678  1.2491  0.9366 -2.6750
  592SOL    HW2 1776   1.880   2.233   0.734 -2.2411 -1.4774 -1.3499
  593SOL     OW 1777   0.702   0.232   0.231  0.3744  0.0259 -0.4555
  593SOL    HW1 1778   0.745   0.196   0.140 -0.1861  3.2253 -2.8419
  593SOL    HW2 1779   0.677   0.336   0.232 -2.3115 -0.2065 -1.2295
  594SOL     OW 1780   1.027   1.839   2.676 -0.0191 -0.5483 -0.0248
  594SOL    HW1 1781   1.106   1.770   2.653 -0.5347 -2.3183  0.9903
  594SOL    HW2 1782   1.065   1.913   2.741  0.1421  1.5397  2.1263
  595SOL     OW 1783   1.534   0.016   1.074  0.2701  0.3895  0.0062
  595SOL    HW1 1784   1.601  -0.057   1.040  0.9207  0.9253  0.9374
  595SOL    HW2 1785   1.442   0.009   1.024  1.4337  1.6360 -0.1141
  596SOL     OW 1786   0.037   1.469   2.255  0.2129  0.8614  0.4381
  596SOL    HW1 1787   0.028   1.375   2.293  0.9367 -1.5348 -1.4017
  596SOL    HW2 1788   0.049   1.541   2.330 -0.6116  3.1268  1.5895
  597SOL     OW 1789   1.937   2.556   1.722 -0.3420  0.7029  0.1799
  597SOL    HW1 1790   1.917   2.518   1.627  2.7154 -0.9169  0.6608
  597SOL    HW2 1791   2.019   2.508   1.767 -0.4355 -3.4947 -0.9625
  598SOL     OW 1792   2.551   2.946   1.217  0.3514 -0.4865  0.1855
  598SOL    HW1 1793   2.618   2.974   1.292 -0.6536  1.0721  0.8797
  598SOL    HW2 1794   2.602   2.938   1.126 -0.7464 -2.0606  0.5270
  599SOL     OW 1795   2.876   0.330   2.500 -0.2359 -0.0579 -0.2179
  599SOL    HW1 1796   2.971   0.357   2.461  0.1799  2.0209  0.7418
  599SOL    HW2 1797   2.802   0.402   2.481  1.7552  2.3549 -2.1814
  600SOL     OW 1798   2.796   1.116   2.743 -0.1526  0.6071  0.0780
  600SOL    HW1 1799   2.769   1.047   2.815  0.1526 -0.8566 -1.5170
  600SOL    HW2 1800   2.794   1.210   2.785 -0.5825  1.1777 -1.6977
  601SOL     OW 1801   3.007   1.323   1.988  0.7736 -0.2260  0.6313
  601SOL    HW1 1802   2.942   1.370   1.915 -0.1127  0.1639 -0.6595
  601SOL    HW2 1803   3.102   1.361   1.981 -0.3805 -2.3064 -1.8563
  602SOL     OW 1804   1.422   1.746   2.297  0.1986  0.2757 -0.4564
  602SOL    HW1 1805   1.340   1.687   2.297  0.3180  0.6616  0.4213
  602SOL    HW2 1806   1.496   1.712   2.360  0.8700 -1.1042 -0.1516
  603SOL     OW 1807   0.600   1.219   2.770  0.3941 -0.5428  0.3861
  603SOL    HW1 1808   0.504   1.200   2.735 -0.0934  0.4904  1.7470
  603SOL    HW2 1809   0.675   1.163   2.727  0.6564  2.1086  2.9190
  604SOL     OW 1810   2.382   1.002   0.160  0.5384  0.5159 -0.0231
  604SOL    HW1 1811   2.406   1.080   0.093 -1.2071 -1.0329  0.2695
  604SOL    HW2 1812   2.375   0.910   0.106 -0.2135 -1.0698 -1.3795
  605SOL     OW 1813   2.531   1.140   1.938 -0.5322 -0.6802 -0.5613
  605SOL    HW1 1814   2.557   1.055   1.894 -0.8635 -0.5441  0.7133
  605SOL    HW2 1815   2.605   1.186   1.998  1.7814 -0.2134  1.2916
  606SOL     OW 1816   1.540   2.503   2.566  0.5638 -0.8002  0.1077
  606SOL    HW1 1817   1.488   2.580   2.517 -5.5088 -1.6019  0.7170
  606SOL    HW2 1818   1.493   2.413   2.546  2.3151 -0.3029 -2.1629
  607SOL     OW 1819   1.324   1.588   0.337  0.2809 -0.4997 -0.3363
  607SOL    HW1 1820   1.267   1.657   0.396 -0.0065  0.1960 -2.4562
  607SOL    HW2 1821   1.412   1.633   0.304 -1.6043 -0.9367  1.6318
  608SOL     OW 1822   1.435   2.813   0.395  0.5702 -0.0813  0.2432
  608SOL    HW1 1823   1.482   2.877   0.327 -0.7106 -1.4919  0.8736
  608SOL    HW2 1824   1.364   2.862   0.454 -0.8326 -1.7766 -3.0794
  609SOL     OW 1825   1.277   1.330   0.258 -0.3239 -0.1975  0.1996
  609SOL    HW1 1826   1.291   1.426   0.293  0.7015 -0.2356  0.8591
  609SOL    HW2 1827   1.212   1.330   0.176  1.4496  2.3248  3.2459
  610SOL     OW 1828   2.942   1.161   2.244 -0.1260 -0.1620 -0.3955
  610SOL    HW1 1829   2.949   1.067   2.204  0.3393  0.3998 -0.2656
  610SOL    HW2 1830   2.972   1.234   2.178 -0.7112 -0.6610 -0.2726
  611SOL     OW 1831   2.533   0.284   1.159 -0.1601  0.2712 -0.0512
  611SOL    HW1 1832   2.475   0.198   1.173 -1.5216  0.9960  1.8933
  611SOL    HW2 1833   2.627   0.269   1.204 -0.3833 -0.8466  1.2137
  612SOL     OW 1834   0.763   2.259   1.162 -0.2881 -0.1763  0.1466
  612SOL    HW1 1835   0.698   2.188   1.203  2.4328 -2.1670 -2.4293
  612SOL    HW2 1836   0.724   2.354   1.170 -1.2132  2.3777 -0.1011
  613SOL     OW 1837   0.824   1.397   2.411 -0.4904 -0.4195 -0.7533
  613SOL    HW1 1838   0.804   1.467   2.338 -2.6452  0.0478  1.8677
  613SOL    HW2 1839   0.812   1.301   2.377 -0.0316  0.5339  0.6470
  614SOL     OW 1840   1.558   1.704   1.964 -0.0089 -0.3354  0.3735
  614SOL    HW1 1841   1.506   1.780   1.910  1.7505 -0.8658 -2.1853
  614SOL    HW2 1842   1.599   1.738   2.053 -1.1889 -0.6455  0.2490
  615SOL     OW 1843   0.817   1.347   1.715  0.0476  0.6847  0.5067
  615SOL    HW1 1844   0.730   1.319   1.674  1.2493  1.4440 -0.8602
  615SOL    HW2 1845   0.862   1.427   1.668  0.0665 -4.2222 -0.1681
  616SOL     OW 1846   1.049   1.603   2.143  0.5042  0.4184 -0.1122
  616SOL    HW1 1847   0.943   1.597   2.125  1.5493  0.5512 -0.6131
  616SOL    HW2 1848   1.112   1.614   2.058  0.7703  0.8468 -1.0369
  617SOL     OW 1849   2.960   1.565   1.578 -0.0053  0.7867 -0.6262
  617SOL    HW1 1850   2.911   1.503   1.647 -0.7524  0.4586 -0.6253
  617SOL    HW2 1851   2.972   1.512   1.486  1.4911 -4.2726 -2.3363
  618SOL     OW 1852   1.896   2.014   1.434  0.3754  0.6478 -0.7946
  618SOL    HW1 1853   1.940   2.008   1.340  2.1481  2.2181  2.3576
  618SOL    HW2 1854   1.911   1.926   1.485  1.8294  3.1247  0.4369
  619SOL     OW 1855   1.751   0.510   2.420 -0.3986 -0.1473  0.1523
  619SOL    HW1 1856   1.666   0.541   2.365  0.2436 -0.8345 -2.7365
  619SOL    HW2 1857   1.743   0.406   2.425 -0.3581 -0.2209 -0.9951
  620SOL     OW 1858   2.215   2.974   0.653 -0.2705  0.3477 -0.8557
  620SOL    HW1 1859   2.162   3.056   0.677  0.3704  0.2808 -1.2622
  620SOL    HW2 1860   2.239   2.916   0.741  0.3167 -1.1729 -0.6154
  621SOL     OW 1861   2.121   1.859   1.319  0.0883 -0.0420 -0.2804
  621SOL    HW1 1862   2.131   1.855   1.421 -0.4506  0.3192 -1.3698
  621SOL    HW2 1863   2.097   1.763   1.272 -0.5685 -0.0116  2.9560
  622SOL     OW 1864   2.245   0.888   1.790 -0.4262 -0.0664 -0.2708
  622SOL    HW1 1865   2.342   0.908   1.769 -0.6155 -2.2900 -0.0967
  622SOL    HW2 1866   2.228   0.789   1.808  1.0029  0.1424  0.7373
  623SOL     OW 1867   1.359   0.808   2.630 -0.4223 -0.0680 -0.5094
  623SOL    HW1 1868   1.297   0.772   2.700 -0.1427  0.1209 -0.1287
  623SOL    HW2 1869   1.313   0.864   2.555  1.1878  0.9890 -2.0566
  624SOL     OW 1870   0.585   0.636   3.074 -0.3100 -0.3771  0.1545
  624SOL    HW1 1871   0.592   0.710   2.996 -2.7816  3.6045 -1.3221
  624SOL    HW2 1872   0.542   0.679   3.158  0.0793  0.4650 -0.6458
  625SOL     OW 1873   2.833   1.752   0.961 -0.7749  0.3233 -0.0209
  625SOL    HW1 1874   2.738   1.746   1.009 -2.1489 -3.2160 -1.0970
  625SOL    HW2 1875   2.911   1.776   1.026 -2.2435 -0.3590  1.1491
  626SOL     OW 1876   0.610   2.685   1.857 -0.1254 -0.3849  0.2740
  626SOL    HW1 1877   0.639   2.784   1.878 -0.8208  0.8051 -0.3438
  626SOL    HW2 1878   0.506   2.676   1.842 -1.7174 -0.0585  2.7534
  627SOL     OW 1879   0.723   0.987   1.536 -0.5169 -0.0685  1.1854
  627SOL    HW1 1880   0.741   0.912   1.462  1.1795  0.4620 -0.9139
  627SOL    HW2 1881   0.806   1.051   1.534 -0.2542 -0.2460  0.8860
  628SOL     OW 1882   2.394   0.170   0.728 -0.0546 -0.1891 -0.1416
  628SOL    HW1 1883   2.450   0.104   0.667 -2.3805 -2.6740 -0.0068
  628SOL    HW2 1884   2.308   0.132   0.757  1.7865  0.3198 -0.1713
  629SOL     OW 1885   1.952   0.894   1.996  0.1926 -0.5273  0.7819
  629SOL    HW1 1886   2.051   0.888   1.963 -0.3240  1.8860 -1.7696
  629SOL    HW2 1887   1.919   0.990   2.013  1.4736  0.7245  0.0192
  630SOL     OW 1888   2.836   2.213   0.824 -0.5807 -0.3005 -0.9656
  630SOL    HW1 1889   2.744   2.215   0.878  0.2994  1.3684  2.0010
  630SOL    HW2 1890   2.853   2.119   0.783 -1.4514  2.7709 -2.1943
  631SOL     OW 1891   2.934   0.136   2.110 -0.3172  0.1023  0.3071
  631SOL    HW1 1892   3.004   0.180   2.174  3.4865  0.8657  1.6440
  631SOL    HW2 1893   2.967   0.134   2.015 -1.9377 -2.1306  1.4476
  632SOL     OW 1894   2.426   2.519   0.674 -0.0863  0.1451 -0.2224
  632SOL    HW1 1895   2.474   2.599   0.712  1.5618 -2.1418 -1.9882
  632SOL    HW2 1896   2.377   2.537   0.584 -3.4217  3.5913  0.8650
  633SOL     OW 1897   1.477   1.263   2.514 -0.0693  0.5480  0.0967
  633SOL    HW1 1898   1.492   1.354   2.559 -1.1074  0.9634 -2.1574
  633SOL    HW2 1899   1.392   1.262   2.457  1.3314  1.8827  0.6210
  634SOL     OW 1900   0.668   1.961   0.922 -0.9947  0.5171 -0.5278
  634SOL    HW1 1901   0.580   1.968   0.975  0.8686 -0.1035  0.5657
  634SOL    HW2 1902   0.720   2.054   0.927  1.1281 -0.1287 -0.6395
  635SOL     OW 1903   3.088   2.325   3.053 -0.0142  0.2947 -0.0655
  635SOL    HW1 1904   3.019   2.373   2.998  1.6587 -2.5126 -0.5042
  635SOL    HW2 1905   3.130   2.385   3.125 -0.2995  1.7238 -1.1066
  636SOL     OW 1906   2.277   2.716   2.086  0.0334  0.2387 -0.2685
  636SOL    HW1 1907   2.287   2.814   2.096 -1.3210 -0.5686 -0.6393
  636SOL    HW2 1908   2.242   2.661   2.169  0.8527 -0.7723 -0.7017
  637SOL     OW 1909   2.593   0.735   2.017 -0.4362  0.3265 -0.4862
  637SOL    HW1 1910   2.569   0.750   1.921 -0.9275  1.5695 -0.5911
  637SOL    HW2 1911   2.640   0.817   2.062 -0.5764 -1.5217  0.9431
  638SOL     OW 1912   2.397   1.808   1.258 -0.1341  0.1092  0.4020
  638SOL    HW1 1913   2.297   1.833   1.271 -1.3946 -0.1592  2.4143
  638SOL    HW2 1914   2.433   1.758   1.346 -0.2368  0.5818  1.4813
  639SOL     OW 1915   1.315   2.187   1.705  0.0438  0.2118  0.0462
  639SOL    HW1 1916   1.345   2.151   1.613  1.3524  0.3841 -0.9553
  639SOL    HW2 1917   1.220   2.156   1.737 -0.0274  4.1066  1.2057
  640SOL     OW 1918   0.218   1.157   1.555 -0.2103  0.3835  0.0068
  640SOL    HW1 1919   0.193   1.210   1.642 -3.4288  0.2345 -0.8240
  640SOL    HW2 1920   0.307   1.100   1.562 -0.2898  0.9296 -0.7312
  641SOL     OW 1921   2.040   0.132   1.544  0.0795 -0.6184  0.1637
  641SOL    HW1 1922   1.996   0.166   1.636  4.2210 -0.2637  3.4655
  641SOL    HW2 1923   2.066   0.033   1.548 -1.4765 -1.3996  1.8706
  642SOL     OW 1924   1.949   0.120   0.298  0.1770 -0.2967 -0.1713
  642SOL    HW1 1925   2.034   0.079   0.349  0.8706  0.7994  2.5772
  642SOL    HW2 1926   1.866   0.135   0.364 -1.9412 -0.5229  1.1114
  643SOL     OW 1927   2.884   1.861   2.076 -0.1370 -0.2433  0.1588
  643SOL    HW1 1928   2.859   1.784   2.011 -0.9863 -2.4736  1.1579
  643SOL    HW2 1929   2.877   1.953   2.024 -2.8421  1.0749  0.5189
  644SOL     OW 1930   2.267   2.370   1.205  0.0550 -0.4867 -0.1947
  644SOL    HW1 1931   2.315   2.301   1.147  0.0651  0.9926  0.1942
  644SOL    HW2 1932   2.229   2.348   1.297 -1.9455 -1.8354 -0.1093
  645SOL     OW 1933   0.641   0.864   1.262 -0.1228 -0.1789 -0.6114
  645SOL    HW1 1934   0.572   0.930   1.306 -0.3261  0.5987  0.4553
  645SOL    HW2 1935   0.660   0.880   1.163  1.1739  0.3325 -1.9975
  646SOL     OW 1936   1.433   1.929   1.898  0.0205  0.4186 -0.5033
  646SOL    HW1 1937   1.495   2.012   1.884  1.3250 -0.0042  0.0707
  646SOL    HW2 1938   1.378   1.939   1.987  2.0737  1.3379 -1.2802
  647SOL     OW 1939   0.817   1.076   0.647 -0.0756 -0.1396  0.0720
  647SOL    HW1 1940   0.885   1.061   0.725 -0.5796 -1.2869 -1.9487
  647SOL    HW2 1941   0.757   0.994   0.646  2.1372 -0.2848 -0.7890
  648SOL     OW 1942   0.125   0.187   0.227  0.3729 -0.1391  0.0957
  648SOL    HW1 1943   0.172   0.124   0.163 -0.5209  0.8925  1.3391
  648SOL    HW2 1944   0.085   0.273   0.182  0.7399  1.9932 -0.6421
  649SOL     OW 1945   3.053   0.236   0.885  0.2323  0.2043  0.1668
  649SOL    HW1 1946   3.151   0.230   0.857 -0.0323  3.3075  0.3303
  649SOL    HW2 1947   3.039   0.313   0.951  0.6923  0.1559 -0.1181
  650SOL     OW 1948   2.712   0.650   1.442  0.3528 -0.1827  0.5062
  650SOL    HW1 1949   2.609   0.650   1.466 -2.3691  0.3281 -0.2074
  650SOL    HW2 1950   2.729   0.728   1.379 -1.7759 -0.0978  0.0156
  651SOL     OW 1951   0.939   1.559   1.589 -0.2707 -0.4086  0.2567
  651SOL    HW1 1952   0.959   1.659   1.605  4.0108  0.8755 -0.1944
  651SOL    HW2 1953   0.986   1.536   1.499  0.5461 -0.4579  2.2468
  652SOL     OW 1954   2.275   2.451   2.529 -0.5520  0.2076 -0.1997
  652SOL    HW1 1955   2.183   2.445   2.578 -1.1004  2.2983  2.5285
  652SOL    HW2 1956   2.275   2.532   2.459  1.1553  2.0606  0.3930
  653SOL     OW 1957   2.691   1.193   0.179  0.3228  0.2439  0.3448
  653SOL    HW1 1958   2.737   1.271   0.228  1.9134 -0.8745  0.2121
  653SOL    HW2 1959   2.766   1.132   0.148  1.5730  2.4855 -3.2194
  654SOL     OW 1960   1.294   2.257   1.258 -0.1502  0.1319 -0.2109
  654SOL    HW1 1961   1.284   2.178   1.324 -1.7558  0.6300  0.3171
  654SOL    HW2 1962   1.339   2.223   1.171  0.9347 -0.6442 -3.2462
  655SOL     OW 1963   0.202   0.969   1.864  0.1926  0.0423  0.0327
  655SOL    HW1 1964   0.239   0.915   1.781 -0.0333  0.7159 -1.0256
  655SOL    HW2 1965   0.266   1.039   1.909 -0.0407  1.0899 -0.5472
  656SOL     OW 1966   2.546   2.512   2.646 -0.2685  0.3307  1.2897
  656SOL    HW1 1967   2.625   2.480   2.587  0.9143  2.4181 -2.6942
  656SOL    HW2 1968   2.452   2.517   2.593  0.9561 -0.2534 -1.1410
  657SOL     OW 1969   3.053   1.061   1.938  0.7348  0.0880 -0.2231
  657SOL    HW1 1970   3.045   1.163   1.955 -1.6906  1.2377  2.3962
  657SOL    HW2 1971   3.150   1.038   1.902  1.0374  1.2623 -1.4519
  658SOL     OW 1972   1.722   0.236   2.417 -0.2016  0.3461  0.6941
  658SOL    HW1 1973   1.715   0.158   2.485  0.6742 -2.6841 -0.5840
  658SOL    HW2 1974   1.773   0.208   2.332 -0.4207  1.6884 -1.9231
  659SOL     OW 1975   1.456   0.654   2.942 -0.3760 -0.1089  0.0568
  659SOL    HW1 1976   1.512   0.743   2.938  3.0856  0.0684 -0.9561
  659SOL    HW2 1977   1.355   0.660   2.914 -0.3624  1.9351  0.2143
  660SOL     OW 1978   1.404   0.344   1.454  0.5221 -0.3091 -0.0004
  660SOL    HW1 1979   1.471   0.358   1.535 -1.0757  0.3884 -2.0541
  660SOL    HW2 1980   1.439   0.270   1.388  1.8133 -2.4438 -0.6533
  661SOL     OW 1981   2.504   1.190   0.677 -0.4225 -0.2672  0.5373
  661SOL    HW1 1982   2.508   1.155   0.578  0.7972  1.0503  0.6160
  661SOL    HW2 1983   2.446   1.272   0.684  1.5240  0.8062  1.1488
  662SOL     OW 1984   1.368   0.450   1.856  0.0846  0.0546  0.2296
  662SOL    HW1 1985   1.328   0.360   1.822  0.5760 -1.6691  0.6246
  662SOL    HW2 1986   1.314   0.487   1.938 -1.4728  1.5383  0.1093
  663SOL     OW 1987   0.763   1.553   2.187  0.1540  0.2435 -0.5316
  663SOL    HW1 1988   0.721   1.643   2.214  2.7076 -3.8570  1.1881
  663SOL    HW2 1989   0.728   1.512   2.103  2.7364  1.5979 -2.3316
  664SOL     OW 1990   1.639   2.105   1.493 -0.0824  0.5352 -0.3016
  664SOL    HW1 1991   1.575   2.048   1.550 -1.4374  0.1683  1.1624
  664SOL    HW2 1992   1.738   2.070   1.490  1.4276  2.5689  2.1510
  665SOL     OW 1993   2.259   0.643   1.960  0.0143 -0.4450 -0.1582
  665SOL    HW1 1994   2.276   0.550   2.004 -3.8715  0.0400  0.4826
  665SOL    HW2 1995   2.269   0.724   2.029 -1.2441  2.1552 -1.5406
  666SOL     OW 1996   0.385   2.351   0.423  0.4451  0.2307  0.4510
  666SOL    HW1 1997   0.461   2.392   0.482 -0.0406  1.2342 -0.5965
  666SOL    HW2 1998   0.311   2.290   0.473 -0.6833 -2.8407  0.5102
  667SOL     OW 1999   1.992   0.152   1.164  0.3650  0.5437 -0.6568
  667SOL    HW1 2000   1.969   0.248   1.148  2.2281  0.5342 -1.0067
  667SOL    HW2 2001   1.933   0.111   1.239  2.1144 -2.0085  0.6780
  668SOL     OW 2002   1.992   0.492   1.201 -0.0543 -0.5996  0.4186
  668SOL    HW1 2003   2.056   0.511   1.120  0.9967 -0.1070 -0.1023
  668SOL    HW2 2004   2.042   0.443   1.281  0.9970 -0.0454 -2.7526
  669SOL     OW 2005   3.055   2.226   0.993 -0.9718  0.5043 -0.0054
  669SOL    HW1 2006   2.985   2.246   0.924  2.7527  2.0114  0.1009
  669SOL    HW2 2007   3.029   2.211   1.089  0.6582  0.9234 -1.7508
  670SOL     OW 2008   2.856   2.345   1.943  0.2237  0.0090  0.2207
  670SOL    HW1 2009   2.800   2.307   2.024  0.6019  1.2871  0.7612
  670SOL    HW2 2010   2.847   2.445   1.938  1.6984 -0.7019  0.2720
  671SOL     OW 2011   1.765   1.735   1.448  0.1609 -0.3346 -0.2850
  671SOL    HW1 2012   1.783   1.778   1.357  0.0929 -1.0542  1.4490
  671SOL    HW2 2013   1.663   1.722   1.457 -2.5382 -0.8343  0.5570
  672SOL     OW 2014   0.369   0.622   2.362 -0.2180 -0.0587  0.1263
  672SOL    HW1 2015   0.439   0.640   2.287 -1.0970 -3.0930 -1.4886
  672SOL    HW2 2016   0.295   0.690   2.366  1.1395 -0.8029  0.3877
  673SOL     OW 2017   0.142   1.164   1.161  0.2719 -0.3740 -0.5818
  673SOL    HW1 2018   0.169   1.226   1.240 -1.2174 -0.7585 -2.8529
  673SOL    HW2 2019   0.222   1.097   1.135  3.0972  0.4201 -1.4899
  674SOL     OW 2020   1.602   2.935   0.226 -0.2060  0.1455 -0.3409
  674SOL    HW1 2021   1.635   3.012   0.163  3.4767  2.9767  0.9851
  674SOL    HW2 2022   1.615   2.844   0.185 -1.6073 -0.5354  0.8928
  675SOL     OW 2023   1.664   0.838   2.315 -0.0175  0.9285  0.0827
  675SOL    HW1 2024   1.764   0.832   2.312 -1.4460  1.8375  1.1698
  675SOL    HW2 2025   1.605   0.753   2.300 -0.8955 -1.7510 -0.1860
  676SOL     OW 2026   2.482   1.457   2.020  0.2795  0.2236  0.3913
  676SOL    HW1 2027   2.474   1.407   1.925  0.0803 -0.4842 -0.6410
  676SOL    HW2 2028   2.558   1.415   2.073 -1.8732  0.6144  0.3124
  677SOL     OW 2029   1.959   0.690   0.818 -0.2877 -0.6609 -0.5024
  677SOL    HW1 2030   1.985   0.718   0.911 -1.1186 -0.5314 -1.9394
  677SOL    HW2 2031   1.982   0.592   0.803  0.2131  0.8242  2.6063
  678SOL     OW 2032   0.043   0.748   1.668 -0.2934 -0.3864 -0.5214
  678SOL    HW1 2033   0.150   0.742   1.690  1.0115 -1.5023 -2.2814
  678SOL    HW2 2034  -0.017   0.750   1.751  0.1324 -1.9847 -0.4355
  679SOL     OW 2035   2.596   1.160   1.114 -0.1223 -0.6409  0.3681
  679SOL    HW1 2036   2.506   1.172   1.165  1.1492 -1.4324 -1.6066
  679SOL    HW2 2037   2.601   1.059   1.085  2.1839 -0.1262 -1.8572
  680SOL     OW 2038   2.773   0.626   1.706 -0.0784  0.2490 -0.2313
  680SOL    HW1 2039   2.755   0.636   1.603 -0.7227 -1.0003 -1.1784
  680SOL    HW2 2040   2.860   0.678   1.730  0.5401 -1.8088 -2.3304
  681SOL     OW 2041   2.997   0.159   1.639 -0.1444 -0.9624 -0.2517
  681SOL    HW1 2042   3.061   0.172   1.559 -0.8001  1.7039 -2.9700
  681SOL    HW2 2043   2.924   0.241   1.641 -1.4947  1.9643 -0.9192
  682SOL     OW 2044   0.709   0.038   1.289  0.4312  0.6289  0.3392
  682SOL    HW1 2045   0.658  -0.027   1.355  0.0153 -0.2134  4.5730
  682SOL    HW2 2046   0.713   0.002   1.189  0.6311 -3.6021 -1.7877
  683SOL     OW 2047   1.321   0.216   2.193 -0.2308  0.4623 -0.2470
  683SOL    HW1 2048   1.333   0.262   2.284 -0.0398 -1.9377 -0.9450
  683SOL    HW2 2049   1.403   0.234   2.135 -0.6924  0.5215 -1.3088
  684SOL     OW 2050   1.464   2.136   0.557  0.0606  0.6959  0.1599
  684SOL    HW1 2051   1.540   2.076   0.594  1.6780  0.0920 -1.6537
  684SOL    HW2 2052   1.381   2.084   0.520 -1.0193  0.6001  0.3420
  685SOL     OW 2053   2.160   2.006   1.948 -0.2857 -0.0500 -0.1743
  685SOL    HW1 2054   2.214   2.057   1.881  0.0346  1.1344 -1.2435
  685SOL    HW2 2055   2.223   1.972   2.023  0.7967  0.9560 -2.1100
  686SOL     OW 2056   1.516   1.804   2.765 -0.0371 -0.3164  0.1872
  686SOL    HW1 2057   1.531   1.757   2.856  2.6645 -0.9438 -0.8039
  686SOL    HW2 2058   1.543   1.736   2.693 -2.7818  1.6358 -1.3908
  687SOL     OW 2059   1.260   2.509   1.970 -0.2732  0.3638 -0.1202
  687SOL    HW1 2060   1.280   2.409   1.958  3.0150  1.0705 -0.7284
  687SOL    HW2 2061   1.351   2.563   1.985  3.5909  0.7750 -3.2229
  688SOL     OW 2062   2.067   1.563   1.745  0.1219 -0.7525 -0.5370
  688SOL    HW1 2063   2.169   1.569   1.767 -0.6740 -0.7227  0.2647
  688SOL    HW2 2064   2.043   1.520   1.651 -2.2311 -0.9683 -1.6359
  689SOL     OW 2065   2.471   1.078   2.663 -0.1556  0.3627  0.5052
  689SOL    HW1 2066   2.374   1.088   2.690  2.9439 -0.2671  0.1114
  689SOL    HW2 2067   2.526   1.083   2.749  2.2380 -0.5004  0.7431
  690SOL     OW 2068   2.275   2.799   0.056 -0.1411 -0.0142  0.1470
  690SOL    HW1 2069   2.238   2.781  -0.042  1.2200  0.1657 -2.5504
  690SOL    HW2 2070   2.206   2.829   0.131 -0.5580 -2.5771  1.5319
  691SOL     OW 2071   2.567   0.481   2.122 -0.5856 -0.4588 -0.6301
  691SOL    HW1 2072   2.611   0.394   2.086  0.8991 -2.2603 -2.6574
  691SOL    HW2 2073   2.589   0.565   2.068 -0.2692 -1.3218  0.1751
  692SOL     OW 2074   2.770   1.217   0.722  0.1431  0.3205  0.3079
  692SOL    HW1 2075   2.672   1.200   0.694  0.4578  1.6912  0.7804
  692SOL    HW2 2076   2.796   1.320   0.739  2.3053  0.8098 -1.1057
  693SOL     OW 2077   2.781   2.945   0.648  0.2379 -0.4882 -0.3370
  693SOL    HW1 2078   2.782   3.031   0.708 -1.1327 -1.0401 -2.3546
  693SOL    HW2 2079   2.713   2.954   0.569 -1.1345  0.4539 -0.8995
  694SOL     OW 2080   2.411   2.214   0.083  0.5433  0.1629 -0.0010
  694SOL    HW1 2081   2.396   2.303   0.140  0.4306  0.6192  2.5202
  694SOL    HW2 2082   2.324   2.160   0.064  1.2789 -2.0298 -0.2459
  695SOL     OW 2083   0.602   2.954   1.489  0.2229 -0.1109 -0.2029
  695SOL    HW1 2084   0.559   2.866   1.450 -1.8551 -1.3156 -0.9571
  695SOL    HW2 2085   0.550   2.996   1.567 -1.1175  2.2417 -1.0675
  696SOL     OW 2086   2.817   1.954   0.747 -1.0409 -0.2044 -0.0544
  696SOL    HW1 2087   2.836   1.887   0.822  1.0035 -0.6037  0.5257
  696SOL    HW2 2088   2.858   1.924   0.659 -2.2289  3.0918  0.2746
  697SOL     OW 2089   1.641   2.078   1.824  0.0612 -0.0724  0.5509
  697SOL    HW1 2090   1.715   2.027   1.868  0.7706  1.2582 -2.7876
  697SOL    HW2 2091   1.678   2.167   1.782  0.4522 -2.0224  0.9528
  698SOL     OW 2092   2.967   0.393   2.755  0.2240 -0.0031 -0.6123
  698SOL    HW1 2093   2.938   0.337   2.676 -4.0546  1.7549  1.7750
  698SOL    HW2 2094   3.018   0.334   2.827  0.4250 -0.7371 -1.4462
  699SOL     OW 2095   1.572   0.081   2.946 -0.0943 -0.3454 -0.0810
  699SOL    HW1 2096   1.547  -0.017   2.915  0.1613  0.3865 -2.5736
  699SOL    HW2 2097   1.630   0.136   2.883  2.0979 -1.9757 -1.3418
  700SOL     OW 2098   1.016   2.300   1.313 -0.1314 -0.1530  0.0876
  700SOL    HW1 2099   1.107   2.268   1.270  0.0540 -0.4621 -1.2690
  700SOL    HW2 2100   0.940   2.291   1.247  0.3782 -1.0485 -0.4410
  701SOL     OW 2101   1.931   2.837   3.056 -0.3861 -0.1469 -0.3552
  701SOL    HW1 2102   1.895   2.789   3.140  2.4303  2.4801 -0.2608
  701SOL    HW2 2103   1.969   2.930   3.084  0.0056 -1.3636 -0.1839
  702SOL     OW 2104   2.059   1.344   1.914  0.9004  0.2769 -0.2375
  702SOL    HW1 2105   2.130   1.273   1.878 -2.9871  1.1385 -0.9267
  702SOL    HW2 2106   2.015   1.396   1.833  0.4964  3.6320 -1.6642
  703SOL     OW 2107   1.962   0.886   1.409  0.4827 -0.0344 -0.0164
  703SOL    HW1 2108   1.954   0.795   1.460 -0.1349  0.1621  0.0346
  703SOL    HW2 2109   2.018   0.956   1.462 -1.2645 -1.2565 -1.8926
  704SOL     OW 2110   0.332   2.038   1.666 -0.4263 -0.2133 -0.2975
  704SOL    HW1 2111   0.371   1.968   1.731 -2.1988  0.0748 -2.2728
  704SOL    HW2 2112   0.388   2.128   1.678 -1.7387  2.5815 -0.1447
  705SOL     OW 2113   2.504   1.386   0.964  0.3663 -0.2506  0.0162
  705SOL    HW1 2114   2.463   1.379   0.868 -1.4632 -0.4596  1.1305
  705SOL    HW2 2115   2.551   1.299   0.986 -0.8299  1.4457 -1.6972
  706SOL     OW 2116   0.648   1.718   1.829 -0.3919  0.0825  0.1432
  706SOL    HW1 2117   0.637   1.623   1.874  1.5045 -1.0245  1.8886
  706SOL    HW2 2118   0.705   1.786   1.880  0.8168 -0.2464 -1.6912
  707SOL     OW 2119   2.249   1.164   1.880 -0.1204 -0.4344  0.2967
  707SOL    HW1 2120   2.344   1.167   1.913 -2.4596 -1.3956  0.2960
  707SOL    HW2 2121   2.211   1.067   1.878 -0.1930 -0.2286  0.8593
  708SOL     OW 2122   2.975   0.519   3.042 -0.6203 -0.0236  0.4581
  708SOL    HW1 2123   2.994   0.573   2.952  1.1530 -2.0771 -1.8956
  708SOL    HW2 2124   3.032   0.425   3.034  4.7216 -3.4658  1.6835
  709SOL     OW 2125   1.777   1.863   0.199 -0.0711  0.8482 -0.4758
  709SOL    HW1 2126   1.800   1.948   0.250  0.2063 -1.6943 -0.2928
  709SOL    HW2 2127   1.832   1.857   0.109  0.2894 -1.3562 -1.6756
  710SOL     OW 2128   1.691   1.622   2.413 -0.3133 -0.0465  0.0775
  710SOL    HW1 2129   1.733   1.593   2.324 -0.6874  0.6957  3.4850
  710SOL    HW2 2130   1.703   1.543   2.480 -0.5732 -0.2959 -2.0842
  711SOL     OW 2131   2.674   2.965   0.957 -1.4064 -0.0298 -0.3192
  711SOL    HW1 2132   2.630   3.055   0.934  0.4213  0.5693  0.7687
  711SOL    HW2 2133   2.778   2.969   0.977  0.0365  0.8128 -0.4210
  712SOL     OW 2134   1.366   2.234   1.986  0.4162 -0.4825 -0.3587
  712SOL    HW1 2135   1.464   2.262   2.008 -1.8463  3.6454  1.1567
  712SOL    HW2 2136   1.358   2.212   1.884  0.8582  1.5093  1.4845
  713SOL     OW 2137   2.930   1.465   2.575 -0.4935  0.1451 -0.6395
  713SOL    HW1 2138   2.872   1.379   2.552 -0.9641 -0.3337 -0.1472
  713SOL    HW2 2139   2.904   1.499   2.673  1.1452  0.2762  1.8962
  714SOL     OW 2140   2.669   0.494   2.407 -0.3142 -0.6454 -0.6428
  714SOL    HW1 2141   2.620   0.437   2.477  2.3379 -0.0983 -1.1726
  714SOL    HW2 2142   2.629   0.495   2.314 -0.8056  0.5929  0.7472
  715SOL     OW 2143   1.596   2.041   1.204  0.0540 -0.0893  0.4105
  715SOL    HW1 2144   1.525   2.093   1.150  1.4466 -0.0135 -0.6518
  715SOL    HW2 2145   1.604   2.071   1.302  1.9976  0.0912 -2.5343
  716SOL     OW 2146   1.187   0.171   1.491 -0.2890  0.3808  0.1949
  716SOL    HW1 2147   1.085   0.185   1.488 -0.0397  0.8852  2.4689
  716SOL    HW2 2148   1.242   0.260   1.483  3.1282 -1.2746  0.5736
  717SOL     OW 2149   1.116   0.582   1.624  0.3814  0.4733 -0.0071
  717SOL    HW1 2150   1.214   0.621   1.645  0.2193  0.2555  0.9505
  717SOL    HW2 2151   1.098   0.547   1.527  1.6995 -0.5297  2.1956
  718SOL     OW 2152   0.728   0.929   0.937  0.5791 -0.2342  0.0652
  718SOL    HW1 2153   0.697   0.912   0.839 -0.8206  2.7771  0.0316
  718SOL    HW2 2154   0.692   1.020   0.976  0.4789  1.8792 -2.6809
  719SOL     OW 2155   0.674   1.802   2.267 -0.1410  0.5538 -0.3248
  719SOL    HW1 2156   0.745   1.861   2.317  1.2061  0.3253 -0.3226
  719SOL    HW2 2157   0.582   1.795   2.319 -4.0907 -2.0225 -0.6644
  720SOL     OW 2158   2.175   1.155   0.254 -0.2301 -0.1426  0.2088
  720SOL    HW1 2159   2.241   1.081   0.216 -0.4833 -0.6032 -0.6886
  720SOL    HW2 2160   2.170   1.150   0.358  1.8003  0.8160 -1.4956
  721SOL     OW 2161   2.282   2.995   2.094  0.2714 -0.3022 -0.4410
  721SOL    HW1 2162   2.256   3.016   1.997  1.5559  1.7700 -1.0237
  721SOL    HW2 2163   2.207   2.983   2.167 -3.6224 -0.0487 -1.8916
  722SOL     OW 2164   2.354   1.626   0.569  0.1877  0.0181  0.4726
  722SOL    HW1 2165   2.380   1.607   0.472 -0.1678 -1.3166  0.0570
  722SOL    HW2 2166   2.284   1.704   0.582 -2.5903  1.2934  0.9786
  723SOL     OW 2167   2.541   2.698   2.004  1.1385 -0.7893  0.4667
  723SOL    HW1 2168   2.586   2.766   2.066 -0.3565  0.1026 -1.0885
  723SOL    HW2 2169   2.439   2.693   2.027  0.0773 -0.4603 -0.1737
  724SOL     OW 2170   0.531   2.468   2.420 -0.0016  0.2579 -0.1454
  724SOL    HW1 2171   0.442   2.456   2.464 -1.0870 -4.0039 -0.4578
  724SOL    HW2 2172   0.609   2.471   2.484 -0.0810  0.0605 -0.5221
  725SOL     OW 2173   2.427   2.785   1.511 -0.1478 -0.3027 -0.0281
  725SOL    HW1 2174   2.459   2.788   1.413  1.3444 -0.6588 -1.8492
  725SOL    HW2 2175   2.375   2.695   1.537  0.2424 -1.2278 -0.4521
  726SOL     OW 2176   2.413   2.231   0.679 -0.7288 -0.1105 -0.3782
  726SOL    HW1 2177   2.427   2.333   0.669 -1.4742 -3.6485  0.9184
  726SOL    HW2 2178   2.395   2.178   0.586 -0.3663 -2.3553 -2.8468
  727SOL     OW 2179   0.145   3.061   0.047  0.3073 -0.3633  0.0912
  727SOL    HW1 2180   0.192   2.969   0.064  0.6052 -0.1113 -0.6303
  727SOL    HW2 2181   0.095   3.059  -0.043 -0.4580  1.3499  3.3694
  728SOL     OW 2182   2.873   0.687   0.978  0.5323  0.4371  0.3289
  728SOL    HW1 2183   2.791   0.669   0.920 -0.3790 -1.9791 -0.9537
  728SOL    HW2 2184   2.876   0.626   1.061 -1.9103 -1.7901 -0.0975
  729SOL     OW 2185   2.991   2.507   0.756 -0.6010  0.7636 -0.1520
  729SOL    HW1 2186   2.914   2.435   0.776 -4.0925 -4.0983  0.0988
  729SOL    HW2 2187   3.084   2.460   0.750  0.5068  0.0955 -0.8692
  730SOL     OW 2188   2.617   0.653   0.841 -0.4633 -0.3195  0.1063
  730SOL    HW1 2189   2.576   0.739   0.797  1.4779 -2.2215  0.2059
  730SOL    HW2 2190   2.662   0.603   0.768 -2.9205  0.5472  4.2656
  731SOL     OW 2191   0.141   2.159   2.438  0.0169 -0.4658 -0.2505
  731SOL    HW1 2192   0.096   2.205   2.519  1.3572 -2.0628  1.5474
  731SOL    HW2 2193   0.179   2.219   2.365  1.0707 -1.6737  3.1371
  732SOL     OW 2194   1.124   2.844   1.945 -0.4578  0.1793  0.2237
  732SOL    HW1 2195   1.166   2.799   2.029 -0.4512  1.3600  1.6288
  732SOL    HW2 2196   1.137   2.788   1.855  0.1240 -2.6233 -1.8287
  733SOL     OW 2197   3.045   0.560   2.228  0.1465  0.5920 -0.3833
  733SOL    HW1 2198   3.127   0.601   2.191  2.1751 -2.4932  1.0331
  733SOL    HW2 2199   2.984   0.513   2.154  0.7485 -1.2582 -3.3873
  734SOL     OW 2200   1.416   0.368   2.757 -0.0411  0.2012 -0.1529
  734SOL    HW1 2201   1.417   0.458   2.815 -0.4459  1.3457  0.9510
  734SOL    HW2 2202   1.333   0.312   2.773 -0.4682  0.9512  0.3290
  735SOL     OW 2203   2.886   2.631   2.247  0.2967 -0.1382  0.6323
  735SOL    HW1 2204   2.851   2.638   2.148 -3.0394 -2.9198 -0.6468
  735SOL    HW2 2205   2.986   2.640   2.250  0.4690 -1.4696  0.0221
  736SOL     OW 2206   0.749   0.307   2.661 -0.1514  0.3167 -0.5424
  736SOL    HW1 2207   0.651   0.292   2.672  3.1296  0.0328 -0.2023
  736SOL    HW2 2208   0.776   0.286   2.562 -1.0273 -2.1572  2.2618
  737SOL     OW 2209   2.677   0.383   2.863 -0.3329 -0.3488 -0.3235
  737SOL    HW1 2210   2.645   0.363   2.960  2.6417  0.1842  1.0578
  737SOL    HW2 2211   2.774   0.413   2.851 -0.0970 -3.0171 -1.7377
  738SOL     OW 2212   1.606   1.259   2.918 -0.2265 -0.3737  0.0301
  738SOL    HW1 2213   1.702   1.217   2.916 -2.0237 -0.4563  0.9190
  738SOL    HW2 2214   1.537   1.195   2.881  1.7326  1.5989 -0.1962
  739SOL     OW 2215   1.725   0.602   0.696 -0.2703 -0.3320  0.0659
  739SOL    HW1 2216   1.812   0.644   0.743  0.7462 -0.1322  1.2192
  739SOL    HW2 2217   1.752   0.527   0.629  0.4388 -1.5691  0.0992
  740SOL     OW 2218   2.009   1.924   2.276 -0.3448  0.2192  0.4945
  740SOL    HW1 2219   2.062   1.842   2.321  2.8700 -1.5365  1.5553
  740SOL    HW2 2220   1.918   1.893   2.240 -0.6004  3.3475  3.2266
  741SOL     OW 2221   2.534   0.069   2.638  0.2463  0.0872  0.0555
  741SOL    HW1 2222   2.640   0.066   2.636 -0.0653 -1.6345  3.5370
  741SOL    HW2 2223   2.489   0.056   2.547 -0.9727 -0.2853 -0.5736
  742SOL     OW 2224   2.230   1.463   0.219 -0.5013  0.0678 -0.7668
  742SOL    HW1 2225   2.166   1.546   0.225  1.5260  1.5736  0.7442
  742SOL    HW2 2226   2.197   1.373   0.257  0.8452  1.3246 -0.5371
  743SOL     OW 2227   1.824   0.667   2.611  0.1779 -0.3002 -0.0470
  743SOL    HW1 2228   1.791   0.599   2.541  1.4200  0.9940  1.0349
  743SOL    HW2 2229   1.753   0.748   2.614 -0.5652  2.4844 -0.1693
  744SOL     OW 2230   2.659   2.100   0.072  0.2414 -0.2186 -0.5779
  744SOL    HW1 2231   2.575   2.155   0.070  1.6391  1.2880  0.6063
  744SOL    HW2 2232   2.645   2.000   0.062  4.0898  3.2299  0.8162
  745SOL     OW 2233   2.160   2.633   2.334 -0.0770 -0.2065 -0.1504
  745SOL    HW1 2234   2.076   2.650   2.271 -3.8927  0.0084  2.0877
  745SOL    HW2 2235   2.175   2.710   2.403 -1.2416  1.7313 -0.3411
  746SOL     OW 2236   3.064   2.633   1.724  0.0415 -0.2806  0.0020
  746SOL    HW1 2237   3.132   2.656   1.651 -1.3452 -1.5937  1.5863
  746SOL    HW2 2238   3.053   2.710   1.793  1.0269 -0.2647 -1.2668
  747SOL     OW 2239   0.005   1.800   1.627 -0.0370  0.2147  0.1921
  747SOL    HW1 2240  -0.049   1.712   1.601  1.1090  1.7375  2.3192
  747SOL    HW2 2241   0.089   1.820   1.564  1.1956  1.2072 -2.4619
  748SOL     OW 2242   1.853   2.736   2.824  0.5149 -0.1508 -0.3408
  748SOL    HW1 2243   1.859   2.769   2.921 -4.1996 -0.0581  0.9574
  748SOL    HW2 2244   1.752   2.737   2.803 -0.9426  0.7181  0.7170
  749SOL     OW 2245   1.313   3.063   0.937 -0.1288 -0.1101 -0.4345
  749SOL    HW1 2246   1.255   2.994   0.985  0.0293  2.0567 -2.2521
  749SOL    HW2 2247   1.318   3.047   0.834  5.5344  1.4709 -2.2194
  750SOL     OW 2248   2.393   0.205   1.864  0.3981  0.5298  0.6177
  750SOL    HW1 2249   2.384   0.272   1.781 -0.4000 -0.5859  0.3094
  750SOL    HW2 2250   2.353   0.245   1.951  1.5738  0.2886  0.7049
  751SOL     OW 2251   0.927   2.210   2.709  0.3319  0.6055 -0.3404
  751SOL    HW1 2252   0.970   2.214   2.804 -1.0086 -0.5562  0.3747
  751SOL    HW2 2253   0.843   2.154   2.704  1.3823  0.2420 -2.5683
  752SOL     OW 2254   1.257   0.869   1.423 -0.0119  0.3486  0.6645
  752SOL    HW1 2255   1.334   0.931   1.390  1.8678  1.4873  0.5406
  752SOL    HW2 2256   1.291   0.772   1.403  0.4405 -2.7870  1.1111
  753SOL     OW 2257   0.948   2.581   1.717  0.4649  0.2267  0.3066
  753SOL    HW1 2258   1.049   2.610   1.703  1.0021  0.5634 -0.5437
  753SOL    HW2 2259   0.876   2.643   1.676  1.3980 -3.1679 -1.2808
  754SOL     OW 2260   1.150   1.286   3.103  1.1387  0.6208  0.1952
  754SOL    HW1 2261   1.196   1.213   3.050 -3.4415  0.6054  0.2690
  754SOL    HW2 2262   1.163   1.382   3.068  1.1630  0.0825  2.2131
  755SOL     OW 2263   1.972   0.444   2.206  0.1843 -0.1819 -0.2250
  755SOL    HW1 2264   2.057   0.395   2.241  1.9174 -1.3578 -3.8261
  755SOL    HW2 2265   1.911   0.482   2.276  1.1748 -2.3901 -0.7723
  756SOL     OW 2266   2.554   0.995   2.963 -0.0472 -0.2686 -0.3130
  756SOL    HW1 2267   2.643   1.003   3.010  1.0976 -0.8932 -1.8407
  756SOL    HW2 2268   2.504   0.904   2.993 -2.1527 -2.3092  2.1705
  757SOL     OW 2269   3.059   0.440   1.792  0.1253 -0.1593  0.8015
  757SOL    HW1 2270   3.148   0.432   1.848 -1.4457 -0.6666 -1.2826
  757SOL    HW2 2271   3.064   0.373   1.714  1.3022 -0.1342 -0.0864
  758SOL     OW 2272   2.392   0.086   1.415 -0.1236 -0.1396 -0.3564
  758SOL    HW1 2273   2.325   0.029   1.469 -1.4375  4.6377 -1.7696
  758SOL    HW2 2274   2.393   0.074   1.310 -1.5143  2.7174  1.8248
  759SOL     OW 2275   1.711   0.071   0.069  0.0278 -0.6910  0.0347
  759SOL    HW1 2276   1.645   0.073  -0.012 -0.9210 -1.2876 -0.5734
  759SOL    HW2 2277   1.812   0.065   0.039 -0.3692  3.4862  1.9361
  760SOL     OW 2278   2.733   2.097   2.812 -0.1998 -0.1934 -0.1137
  760SOL    HW1 2279   2.788   2.021   2.858  2.0329  0.2700 -2.8430
  760SOL    HW2 2280   2.705   2.168   2.878  2.6779 -1.4172 -0.7431
  761SOL     OW 2281   1.900   1.786   1.724  0.1507  0.1083  0.1150
  761SOL    HW1 2282   1.959   1.703   1.744  0.2948 -2.8093  1.8322
  761SOL    HW2 2283   1.837   1.768   1.644 -1.6165 -0.8698  0.0938
  762SOL     OW 2284   0.461   2.317   0.975  0.1551  0.2568  0.5563
  762SOL    HW1 2285   0.507   2.348   0.885 -0.9769 -2.6314 -2.3656
  762SOL    HW2 2286   0.501   2.368   1.055 -1.0851 -1.2403  1.0446
  763SOL     OW 2287   2.079   1.506   2.928 -0.0300 -0.1439 -0.0849
  763SOL    HW1 2288   2.174   1.474   2.965 -0.1071 -0.7889  0.8999
  763SOL    HW2 2289   2.002   1.503   3.002  1.2939 -1.0337  1.1235
  764SOL     OW 2290   0.624   0.598   0.855  0.4969 -0.0206 -0.2707
  764SOL    HW1 2291   0.583   0.518   0.805 -1.3290  1.2920  1.7988
  764SOL    HW2 2292   0.726   0.587   0.875  0.6338  0.2596  2.8949
  765SOL     OW 2293   0.710   0.235   0.798  0.3207 -0.4055 -0.3756
  765SOL    HW1 2294   0.768   0.295   0.743 -2.2170 -0.1341  2.1938
  765SOL    HW2 2295   0.693   0.268   0.895 -0.0073  1.0049  0.5857
  766SOL     OW 2296   2.923   2.088   3.094  0.0714 -0.1556 -0.2913
  766SOL    HW1 2297   2.831   2.112   3.130  0.7388  1.4038  0.5855
  766SOL    HW2 2298   2.987   2.173   3.096  2.3113 -0.4862  1.8946
  767SOL     OW 2299   2.819   1.564   0.580  0.6851  0.0974 -0.4739
  767SOL    HW1 2300   2.752   1.560   0.660 -1.9117 -0.9133 -0.0759
  767SOL    HW2 2301   2.913   1.570   0.612 -0.2059 -1.0879 -4.1594
  768SOL     OW 2302   1.106   0.206   0.364  0.2143 -0.2945 -0.4766
  768SOL    HW1 2303   1.058   0.130   0.412 -1.1371 -0.1768  0.3121
  768SOL    HW2 2304   1.182   0.170   0.304 -0.7562  1.6823  2.4733
  769SOL     OW 2305   1.042   1.901   2.230  0.9784  0.0103 -0.2292
  769SOL    HW1 2306   1.009   1.901   2.331  0.2975 -1.2770 -0.5162
  769SOL    HW2 2307   1.028   1.802   2.195 -0.5872 -2.7024  1.5881
  770SOL     OW 2308   0.162   1.184   2.242 -0.1534  0.6573 -0.3174
  770SOL    HW1 2309   0.155   1.221   2.343 -0.8115 -0.8269  0.9670
  770SOL    HW2 2310   0.079   1.135   2.215 -0.2128  1.0160  0.1441
  771SOL     OW 2311   2.977   2.859   1.904 -0.6694  0.3141 -0.0923
  771SOL    HW1 2312   2.934   2.917   1.829 -2.0222  0.6932 -2.2379
  771SOL    HW2 2313   2.971   2.900   2.003 -1.6136 -0.0234  1.1622
  772SOL     OW 2314   2.181   0.152   2.934 -0.4413 -0.7525  0.1367
  772SOL    HW1 2315   2.267   0.101   2.925 -0.3497  1.3871  0.9316
  772SOL    HW2 2316   2.199   0.241   2.988 -0.3756 -2.9827 -1.8227
  773SOL     OW 2317   0.694   2.207   2.488 -0.3011  0.0423  0.0818
  773SOL    HW1 2318   0.665   2.230   2.390  1.0079 -0.7101  0.2035
  773SOL    HW2 2319   0.629   2.146   2.536  1.0815  1.2265 -1.6824
  774SOL     OW 2320   2.010   0.029   2.645  0.1214  0.3293 -0.0539
  774SOL    HW1 2321   2.030   0.126   2.661  5.5692  0.7624  3.0281
  774SOL    HW2 2322   2.070  -0.031   2.707  0.0866 -0.5245 -2.7977
  775SOL     OW 2323   2.527   2.817   2.433  0.1717 -0.1625  0.1580
  775SOL    HW1 2324   2.489   2.911   2.405  3.8715 -0.2246 -0.4643
  775SOL    HW2 2325   2.619   2.827   2.478 -2.0979 -0.8378  1.2718
  776SOL     OW 2326   0.077   1.294   0.199 -0.0938 -0.6682  0.0775
  776SOL    HW1 2327   0.019   1.278   0.114  0.4937 -2.0320 -1.7021
  776SOL    HW2 2328   0.023   1.288   0.283  1.2498  1.4910  0.5008
  777SOL     OW 2329   0.261   2.838   0.455 -0.4468 -0.4036  0.9402
  777SOL    HW1 2330   0.176   2.901   0.461 -0.2179 -2.3159  2.1143
  777SOL    HW2 2331   0.350   2.887   0.474  0.3813 -0.4433  0.3515
  778SOL     OW 2332   1.326   1.950   0.183  0.4446 -0.1944 -0.0620
  778SOL    HW1 2333   1.295   1.941   0.278 -0.1679  1.6616  1.2041
  778SOL    HW2 2334   1.347   2.048   0.151  2.2579 -1.2647 -0.4172
  779SOL     OW 2335   0.200   0.854   0.488  0.1548 -0.0751 -0.1548
  779SOL    HW1 2336   0.156   0.763   0.463  2.0222  0.0841 -0.4237
  779SOL    HW2 2337   0.146   0.917   0.551  0.0960  1.0263 -0.5963
  780SOL     OW 2338   0.091   0.268   2.253 -0.1685 -0.3086 -0.0713
  780SOL    HW1 2339   0.081   0.338   2.331 -0.2827  0.6129 -0.6116
  780SOL    HW2 2340   0.183   0.271   2.200  1.3919  0.8779 -1.9317
  781SOL     OW 2341   0.625   1.748   1.555 -0.0150 -0.3922  0.0165
  781SOL    HW1 2342   0.653   1.721   1.651  0.5711 -1.7216  0.3192
  781SOL    HW2 2343   0.552   1.683   1.533  0.6686 -1.8866  1.8834
  782SOL     OW 2344   2.595   0.172   0.921 -0.2288 -0.6936  0.1547
  782SOL    HW1 2345   2.522   0.184   0.850  1.6131 -0.8609 -2.7254
  782SOL    HW2 2346   2.569   0.219   1.008 -0.3032 -0.8649 -3.0114
  783SOL     OW 2347   2.863   0.708   2.532 -0.4404 -0.3186 -0.3845
  783SOL    HW1 2348   2.847   0.702   2.631  0.2200 -0.6199  1.1508
  783SOL    HW2 2349   2.794   0.661   2.473  0.5751 -2.0669 -0.4426
  784SOL     OW 2350   1.394   2.203   0.074  0.0973  0.4150 -0.1862
  784SOL    HW1 2351   1.482   2.225   0.124 -1.4886  1.4713 -2.5555
  784SOL    HW2 2352   1.404   2.219  -0.029 -0.8031 -0.1632  0.3985
  785SOL     OW 2353   2.163   0.383   3.074  0.6920 -0.2034 -0.7330
  785SOL    HW1 2354   2.073   0.368   3.130 -1.3418  0.5702  1.5451
  785SOL    HW2 2355   2.174   0.481   3.046 -1.7216 -0.7731  2.9153
  786SOL     OW 2356   2.005   2.195   2.227  0.1494 -0.4450 -0.5321
  786SOL    HW1 2357   2.012   2.094   2.249 -0.3527  2.9361  0.3418
  786SOL    HW2 2358   2.096   2.241   2.202  0.7446  0.6239  0.8591
  787SOL     OW 2359   1.423   0.617   0.927 -0.7770 -0.1761 -0.0510
  787SOL    HW1 2360   1.336   0.676   0.941  1.2432  0.6989 -0.4978
  787SOL    HW2 2361   1.447   0.596   0.827  0.5556 -0.7020  0.4813
  788SOL     OW 2362   1.233   0.405   3.055 -0.2107  0.8579 -0.1439
  788SOL    HW1 2363   1.136   0.427   3.032 -0.3494  2.4317 -0.1773
  788SOL    HW2 2364   1.261   0.475   3.120 -1.6946 -2.2551 -0.9661
  789SOL     OW 2365   2.589   0.016   1.799  0.2424 -0.0488 -0.3586
  789SOL    HW1 2366   2.503   0.079   1.815 -1.5674  4.0872  2.5358
  789SOL    HW2 2367   2.569  -0.082   1.798  0.2408  2.1628 -0.2388
  790SOL     OW 2368   2.581   2.718   0.842  0.4852 -0.0083  0.6689
  790SOL    HW1 2369   2.621   2.807   0.811 -2.0683  0.5189  1.6584
  790SOL    HW2 2370   2.633   2.668   0.915 -0.8430  2.9875 -2.2328
  791SOL     OW 2371   1.910   1.256   0.273 -0.0374  0.4935 -0.0166
  791SOL    HW1 2372   1.836   1.195   0.308 -1.5994  1.2966 -0.0997
  791SOL    HW2 2373   1.997   1.204   0.256 -0.4005  2.3607  0.0489
  792SOL     OW 2374   0.446   1.989   2.132  0.4705  0.0691  0.0173
  792SOL    HW1 2375   0.488   2.081   2.122  0.3077  1.7072  1.0136
  792SOL    HW2 2376   0.418   1.959   2.227  2.2590  2.7101  0.3492
  793SOL     OW 2377   2.086   1.573   2.078  0.3121 -0.6133 -0.6697
  793SOL    HW1 2378   2.153   1.643   2.045  1.2836  1.5695 -0.4386
  793SOL    HW2 2379   2.078   1.496   2.013  2.1082  0.5880  0.0584
  794SOL     OW 2380   0.454   1.353   2.477  0.4309 -0.0568 -0.1600
  794SOL    HW1 2381   0.464   1.286   2.396  3.1348  0.8906 -2.0014
  794SOL    HW2 2382   0.435   1.449   2.443  1.4630  2.6570  1.9723
  795SOL     OW 2383   2.435   2.336   1.728  1.1799  0.7208  0.9250
  795SOL    HW1 2384   2.446   2.383   1.821 -1.1034  2.9839 -0.6498
  795SOL    HW2 2385   2.385   2.241   1.733 -2.8115 -0.0002  0.2135
  796SOL     OW 2386   0.008   1.095   2.692  0.1913 -0.0928  0.4994
  796SOL    HW1 2387  -0.093   1.113   2.694 -1.3599 -1.4171  0.4429
  796SOL    HW2 2388   0.043   1.110   2.789 -0.4280  1.9706  1.3538
  797SOL     OW 2389   0.742   0.623   1.345 -0.6471  0.1718  0.1525
  797SOL    HW1 2390   0.804   0.677   1.412  1.8770  0.0501 -1.0663
  797SOL    HW2 2391   0.677   0.682   1.291 -0.0466  1.5153 -1.6762
  798SOL     OW 2392   1.332   0.421   1.094 -0.2119 -0.0481 -0.7844
  798SOL    HW1 2393   1.385   0.437   1.181 -0.2199  1.3017  1.9195
  798SOL    HW2 2394   1.374   0.483   1.020  0.5367 -1.9253  1.1032
  799SOL     OW 2395   1.947   2.612   1.054 -0.1571  0.0997 -0.2872
  799SOL    HW1 2396   1.914   2.511   1.058 -0.3865 -0.3738  0.2138
  799SOL    HW2 2397   1.871   2.668   1.015  0.9745 -3.7732  0.1637
  800SOL     OW 2398   2.931   0.813   1.868 -0.7329  0.5284 -0.7707
  800SOL    HW1 2399   2.962   0.905   1.903 -0.3733 -0.8307 -0.6105
  800SOL    HW2 2400   2.868   0.762   1.935  0.2459  2.8887  2.6328
  801SOL     OW 2401   1.998   2.197   0.032  0.5308 -0.3399  0.0024
  801SOL    HW1 2402   1.943   2.173  -0.048  1.1761  0.0602 -0.0767
  801SOL    HW2 2403   2.084   2.137   0.048 -0.5633 -0.6772 -1.9166
  802SOL     OW 2404   0.620   0.820   2.584  0.9233  0.0458 -0.2644
  802SOL    HW1 2405   0.698   0.816   2.519 -0.8740  2.8557 -0.4046
  802SOL    HW2 2406   0.530   0.850   2.541 -1.2499 -0.5771 -0.1946
  803SOL     OW 2407   0.982   0.095   0.845  0.4198  0.3732  0.8329
  803SOL    HW1 2408   1.056   0.148   0.897  1.0531 -0.4483  0.8992
  803SOL    HW2 2409   0.928   0.148   0.776 -0.0978 -1.2128 -1.9062
  804SOL     OW 2410   0.315   3.062   2.196  0.1055 -0.1451  0.4513
  804SOL    HW1 2411   0.295   3.162   2.196 -2.0839 -1.6185 -0.0958
  804SOL    HW2 2412   0.266   3.011   2.122 -1.3202 -0.8692  2.9080
  805SOL     OW 2413   2.348   0.405   0.363  0.2993  0.0069 -0.0917
  805SOL    HW1 2414   2.437   0.395   0.417  4.7390  1.5920 -0.2516
  805SOL    HW2 2415   2.352   0.354   0.270 -1.3758 -0.6842 -1.6518
  806SOL     OW 2416   0.712   2.446   1.791  0.6505 -0.2187  0.2152
  806SOL    HW1 2417   0.690   2.546   1.814 -0.3074  1.8306 -4.0531
  806SOL    HW2 2418   0.805   2.440   1.751 -0.0924  0.3849  0.5119
  807SOL     OW 2419   2.494   0.843   0.416 -0.7584  0.7603  0.7348
  807SOL    HW1 2420   2.574   0.885   0.469 -0.9266 -1.7096 -2.6412
  807SOL    HW2 2421   2.470   0.883   0.320 -0.7424  1.4976  0.0111
  808SOL     OW 2422   0.637   2.088   2.933  0.4232 -0.1679 -0.0528
  808SOL    HW1 2423   0.574   2.127   3.010 -2.1024 -1.4106  1.9928
  808SOL    HW2 2424   0.653   1.982   2.939  0.4596 -0.7614  0.0816
  809SOL     OW 2425   2.582   1.981   1.877 -0.3109 -0.0634 -0.2145
  809SOL    HW1 2426   2.674   2.024   1.865 -1.2524 -2.2846 -1.0840
  809SOL    HW2 2427   2.550   1.939   1.787  1.7133  1.8274 -2.1344
  810SOL     OW 2428   2.208   1.105   0.519  0.1869  0.3779 -0.7726
  810SOL    HW1 2429   2.200   1.018   0.581  0.1359  0.0467  1.1429
  810SOL    HW2 2430   2.174   1.194   0.572 -0.0211  0.8489  0.4085
  811SOL     OW 2431   1.383   2.511   1.200  0.2641  0.2247 -0.3517
  811SOL    HW1 2432   1.370   2.411   1.229  0.3614 -2.6922  0.3969
  811SOL    HW2 2433   1.330   2.578   1.257  0.0060 -0.0119 -0.7477
  812SOL     OW 2434   1.419   0.732   1.976 -0.1391 -0.1398  0.1908
  812SOL    HW1 2435   1.412   0.772   2.072 -0.7750 -0.6832  1.1831
  812SOL    HW2 2436   1.366   0.776   1.902  1.8547 -0.9154 -0.2975
  813SOL     OW 2437   1.662   2.061   2.478 -0.1055 -0.1403 -0.2834
  813SOL    HW1 2438   1.695   1.969   2.517  0.7336  1.8665 -0.1143
  813SOL    HW2 2439   1.619   2.053   2.381 -2.8958 -2.5471 -0.9107
  814SOL     OW 2440   2.934   1.584   2.841  0.2358  0.3040  0.2687
  814SOL    HW1 2441   2.996   1.547   2.919  1.8916 -0.9090  1.0000
  814SOL    HW2 2442   2.973   1.673   2.801  0.3849  4.4473  0.7389
  815SOL     OW 2443   2.186   2.953   2.779 -0.0090  0.7318  0.6581
  815SOL    HW1 2444   2.140   2.874   2.831 -1.8036 -1.9116  1.1351
  815SOL    HW2 2445   2.262   3.007   2.832  0.3131  0.6246  1.7854
  816SOL     OW 2446   1.595   0.345   1.674 -0.3869  0.2175 -0.0164
  816SOL    HW1 2447   1.620   0.245   1.680  1.3951  2.7600  4.2988
  816SOL    HW2 2448   1.533   0.370   1.756  0.3022  2.1475  2.2211
  817SOL     OW 2449   0.371   1.161   2.633 -0.2967 -0.1428  0.1911
  817SOL    HW1 2450   0.267   1.164   2.653 -0.3094  0.3632  2.6462
  817SOL    HW2 2451   0.411   1.243   2.576  0.2486  1.9231 -1.5125
  818SOL     OW 2452   1.964   0.894   0.394 -0.2519 -0.9982 -0.1939
  818SOL    HW1 2453   2.060   0.876   0.424  0.0723 -1.6744 -1.1324
  818SOL    HW2 2454   1.910   0.954   0.462  0.1704 -2.5978 -1.0525
  819SOL     OW 2455   2.765   2.955   3.029  0.4424  0.0363  0.3163
  819SOL    HW1 2456   2.848   2.899   3.055 -1.6809  0.8533  2.5755
  819SOL    HW2 2457   2.690   2.898   2.988 -0.2154  2.5820  0.7076
  820SOL     OW 2458   1.210   1.042   0.560  0.1123 -0.2113 -0.1979
  820SOL    HW1 2459   1.237   1.136   0.586  0.8567  0.9859  0.4483
  820SOL    HW2 2460   1.217   0.975   0.644  1.3555 -2.7563  0.1120
  821SOL     OW 2461   0.036   1.295   0.688  0.0783 -0.1312  0.7049
  821SOL    HW1 2462  -0.009   1.306   0.777  0.0283 -2.6478 -2.6396
  821SOL    HW2 2463   0.101   1.373   0.655  0.9226 -1.4592 -1.7115
  822SOL     OW 2464   2.600   1.780   2.458 -0.0015  0.0498  0.1665
  822SOL    HW1 2465   2.610   1.862   2.522  0.1489  1.4546  0.8905
  822SOL    HW2 2466   2.512   1.789   2.401 -1.2030  1.2060  0.2965
  823SOL     OW 2467   2.005   0.815   1.127 -0.3867  0.6716  0.0112
  823SOL    HW1 2468   1.993   0.836   1.231  1.1882  0.6083  1.7954
  823SOL    HW2 2469   1.940   0.870   1.074  2.0218  1.1214  2.9720
  824SOL     OW 2470   0.179   2.007   2.809 -0.1715  0.1165  0.0645
  824SOL    HW1 2471   0.169   1.927   2.877 -0.1931 -0.3269 -0.9888
  824SOL    HW2 2472   0.244   1.970   2.737  0.6396  1.4513 -1.6177
  825SOL     OW 2473   1.294   1.039   0.296  0.1620  0.0117 -0.1087
  825SOL    HW1 2474   1.301   1.131   0.257  5.0783 -2.2499  0.5644
  825SOL    HW2 2475   1.258   1.042   0.397 -2.9502  2.0779  1.7249
  826SOL     OW 2476   1.960   0.658   1.549  0.1733  0.3327  0.1138
  826SOL    HW1 2477   2.024   0.595   1.606  0.7837  1.4669  0.7796
  826SOL    HW2 2478   1.877   0.601   1.517  1.6384  0.3701  0.6197
  827SOL     OW 2479   0.733   1.202   0.279 -0.6584 -0.0934 -0.0110
  827SOL    HW1 2480   0.829   1.178   0.245 -1.2776  1.0817  1.0453
  827SOL    HW2 2481   0.682   1.116   0.313  0.4173  1.9947 -0.6131
  828SOL     OW 2482   2.632   0.126   1.529 -0.0597 -0.8843  0.0184
  828SOL    HW1 2483   2.537   0.113   1.491  2.1752 -2.6459  0.1381
  828SOL    HW2 2484   2.638   0.078   1.624  2.3596 -0.3392 -0.4579
  829SOL     OW 2485   2.898   2.441   2.899  0.0421  0.0703 -0.5626
  829SOL    HW1 2486   2.819   2.385   2.936  1.9369 -1.6046 -0.1981
  829SOL    HW2 2487   2.880   2.541   2.879  0.0607  0.9671 -1.9426
  830SOL     OW 2488   2.811   0.985   3.048  0.3495  0.4691  0.0193
  830SOL    HW1 2489   2.887   1.056   3.063  1.1677 -0.1109 -0.7996
  830SOL    HW2 2490   2.845   0.894   3.091  0.0798  0.8528  0.6901
  831SOL     OW 2491   0.121   0.593   0.400  0.4536 -0.3283  0.2283
  831SOL    HW1 2492   0.062   0.545   0.474  0.1166 -0.5202  0.3412
  831SOL    HW2 2493   0.121   0.532   0.316  1.5052 -0.7055 -0.4999
  832SOL     OW 2494   1.839   0.793   3.007  0.5215 -0.2876 -0.3320
  832SOL    HW1 2495   1.756   0.850   2.980 -0.7908  0.1001  1.8617
  832SOL    HW2 2496   1.829   0.690   2.994 -1.0926  1.5437  0.5850
  833SOL     OW 2497   2.458   2.086   0.455 -0.4483 -0.6533  0.4103
  833SOL    HW1 2498   2.361   2.068   0.422 -2.5807  1.7709 -1.2682
  833SOL    HW2 2499   2.506   1.998   0.471 -1.0882  1.0058  1.8839
  834SOL     OW 2500   0.111   0.195   0.498  0.1795 -0.4601  0.2563
  834SOL    HW1 2501   0.137   0.102   0.538 -1.0578  0.3954  0.6105
  834SOL    HW2 2502   0.092   0.199   0.398  0.3855 -0.4373 -0.8617
  835SOL     OW 2503   2.359   1.499   1.159  0.7381  0.0596  0.0103
  835SOL    HW1 2504   2.379   1.602   1.177 -0.6159  0.8367 -1.3851
  835SOL    HW2 2505   2.399   1.455   1.074 -2.5442 -1.4645 -1.8888
  836SOL     OW 2506   1.639   0.859   2.590  0.7251  0.3299 -0.5461
  836SOL    HW1 2507   1.542   0.822   2.609 -1.0778  1.3301  1.0842
  836SOL    HW2 2508   1.646   0.891   2.490 -0.5137 -0.3446 -1.8780
  837SOL     OW 2509   1.603   0.117   0.554  0.2737 -0.4856 -0.1054
  837SOL    HW1 2510   1.561   0.196   0.602  0.8216 -1.8718 -0.3403
  837SOL    HW2 2511   1.583   0.117   0.451  0.8750 -0.4520  0.2648
  838SOL     OW 2512   1.205   1.456   2.785 -0.0155 -1.1192 -0.2787
  838SOL    HW1 2513   1.176   1.478   2.883 -0.3756  1.0819 -1.5818
  838SOL    HW2 2514   1.139   1.398   2.725 -2.0026  0.9418 -0.6811
  839SOL     OW 2515   1.679   0.253   0.981 -0.4308  0.0430  0.4056
  839SOL    HW1 2516   1.690   0.333   1.045 -0.5534  1.9918 -0.2410
  839SOL    HW2 2517   1.614   0.184   1.023  1.4097 -0.7401  0.9511
  840SOL     OW 2518   2.521   2.870   1.755  0.0946  0.2972  0.0582
  840SOL    HW1 2519   2.505   2.818   1.660  0.2445 -0.1111 -0.4475
  840SOL    HW2 2520   2.537   2.804   1.835 -0.8974  0.4430  1.6581
  841SOL     OW 2521   1.585   0.916   2.967  0.1395  0.3221  0.0524
  841SOL    HW1 2522   1.545   0.960   3.053 -1.3584 -0.7430 -1.2737
  841SOL    HW2 2523   1.569   0.971   2.881 -1.6462 -0.1179  2.7068
  842SOL     OW 2524   0.846   1.517   0.960  0.5323 -0.1709  0.3404
  842SOL    HW1 2525   0.806   1.604   0.997  0.0365 -0.7628  0.9158
  842SOL    HW2 2526   0.781   1.450   0.928  1.0412  0.1833  0.1885
  843SOL     OW 2527   0.150   0.127   1.485 -0.0579 -0.2831 -0.4493
  843SOL    HW1 2528   0.251   0.147   1.493 -0.9654  0.6125  2.2803
  843SOL    HW2 2529   0.120   0.023   1.496 -2.5864 -0.9849  2.6418
  844SOL     OW 2530   0.767   2.492   0.293 -0.1768 -0.3029 -0.1634
  844SOL    HW1 2531   0.725   2.469   0.384  0.8228  0.3519 -2.1623
  844SOL    HW2 2532   0.701   2.509   0.213 -0.7078  0.3804  2.0060
  845SOL     OW 2533   1.637   2.858   1.371  0.3655  0.7679  0.1066
  845SOL    HW1 2534   1.701   2.891   1.447  0.0535 -1.0617  2.8871
  845SOL    HW2 2535   1.560   2.920   1.341  0.1849 -0.0871 -0.8117
  846SOL     OW 2536   1.644   2.978   0.843  0.4568 -0.1658  0.6474
  846SOL    HW1 2537   1.602   3.031   0.764 -0.2983 -0.4808 -2.0203
  846SOL    HW2 2538   1.747   2.967   0.842 -0.6530  2.1707 -2.6406
  847SOL     OW 2539   2.018   1.653   0.237  0.1052  0.1371 -0.2111
  847SOL    HW1 2540   1.997   1.606   0.323 -0.3241  2.0863  0.2233
  847SOL    HW2 2541   1.954   1.621   0.160  0.7499 -0.6198 -2.7050
  848SOL     OW 2542   2.520   0.795   2.669  0.3206 -0.2025 -0.0425
  848SOL    HW1 2543   2.492   0.897   2.672 -0.3522  0.6582  4.2214
  848SOL    HW2 2544   2.496   0.749   2.583 -1.1334  0.2668  3.8073
  849SOL     OW 2545   2.494   0.876   2.344 -0.3739  0.4230  0.2727
  849SOL    HW1 2546   2.587   0.846   2.302  0.5660  1.2425  0.2909
  849SOL    HW2 2547   2.440   0.794   2.379  1.2824 -0.1865  2.0552
  850SOL     OW 2548   1.507   0.102   1.346 -0.2654 -0.1262  0.2860
  850SOL    HW1 2549   1.501   0.095   1.244  2.4359  1.8278 -1.8962
  850SOL    HW2 2550   1.456   0.025   1.391  0.2500 -0.9111 -1.1163
  851SOL     OW 2551   0.459   1.706   0.643 -0.1576 -0.2528  0.1389
  851SOL    HW1 2552   0.466   1.811   0.668 -0.2559  1.2133 -0.9260
  851SOL    HW2 2553   0.553   1.663   0.631  0.6146 -0.4831  2.9672
  852SOL     OW 2554   0.788   2.151   1.668  0.3822  0.0527 -0.4758
  852SOL    HW1 2555   0.795   2.249   1.625 -1.0399  2.7123  0.2408
  852SOL    HW2 2556   0.724   2.154   1.746  2.0994 -1.0232 -0.4557
  853SOL     OW 2557   2.479   1.569   2.611  0.0685 -0.0294 -0.2103
  853SOL    HW1 2558   2.455   1.479   2.563 -3.0503 -1.3357  0.8456
  853SOL    HW2 2559   2.547   1.633   2.559 -0.8059 -0.4138 -1.0255
  854SOL     OW 2560   2.521   1.363   1.768 -0.1844  0.8501  0.1577
  854SOL    HW1 2561   2.522   1.358   1.664 -0.4590  0.5022  0.3894
  854SOL    HW2 2562   2.539   1.269   1.810  1.1606  1.6452  1.2720
  855SOL     OW 2563   2.116   2.359   0.976  0.2576  0.4404 -0.3301
  855SOL    HW1 2564   2.130   2.446   0.919 -0.1424  0.4566  0.0376
  855SOL    HW2 2565   2.161   2.360   1.071 -0.1902  1.5695 -2.4229
  856SOL     OW 2566   1.349   1.473   0.875  0.8264 -0.3734  0.1665
  856SOL    HW1 2567   1.424   1.512   0.934  0.5479 -0.3739 -0.1369
  856SOL    HW2 2568   1.257   1.514   0.909 -1.8912  1.8887  2.8506
  857SOL     OW 2569   2.967   2.650   1.034 -0.0517  0.2792 -0.1665
  857SOL    HW1 2570   2.892   2.596   1.080 -0.7629  0.8658 -0.7112
  857SOL    HW2 2571   3.027   2.589   0.968  1.8182 -1.3346 -0.6067
  858SOL     OW 2572   2.307   2.085   1.710  0.5088  0.4729 -0.3957
  858SOL    HW1 2573   2.212   2.098   1.672 -1.3562  1.5691  0.1511
  858SOL    HW2 2574   2.380   2.036   1.652  0.3718 -1.3970  1.7030
  859SOL     OW 2575   2.432   0.553   1.032 -0.0820 -0.1138  0.4555
  859SOL    HW1 2576   2.506   0.584   0.958  2.1271  2.6639 -2.2311
  859SOL    HW2 2577   2.458   0.469   1.088  1.1694 -0.6378  0.2309
  860SOL     OW 2578   1.936   2.826   0.474 -0.1419 -0.3140  0.3313
  860SOL    HW1 2579   1.942   2.784   0.376  2.7952  2.2901  1.9051
  860SOL    HW2 2580   2.012   2.891   0.485  1.4005 -1.8331 -0.3099
  861SOL     OW 2581   1.074   2.560   2.818  0.4854  0.6275 -0.0556
  861SOL    HW1 2582   1.152   2.620   2.782  1.6257  3.2179  2.0168
  861SOL    HW2 2583   1.082   2.532   2.919  1.4920 -0.2558  1.3109
  862SOL     OW 2584   2.843   2.507   1.596 -0.1082 -0.2400  0.1144
  862SOL    HW1 2585   2.907   2.573   1.648  0.3020 -1.1991 -0.1540
  862SOL    HW2 2586   2.811   2.557   1.515  3.5554 -0.4105  2.1244
  863SOL     OW 2587   1.843   2.684   0.187 -0.0043 -0.1170  0.2071
  863SOL    HW1 2588   1.889   2.589   0.188  0.6642 -0.9032  2.2754
  863SOL    HW2 2589   1.745   2.686   0.213  2.1924  0.9373  0.0046
  864SOL     OW 2590   1.878   1.147   2.874 -0.4761 -0.1500  0.2311
  864SOL    HW1 2591   1.922   1.084   2.806 -0.8209  0.2526 -1.4581
  864SOL    HW2 2592   1.935   1.161   2.960  3.0640 -2.8081  1.3593
  865SOL     OW 2593   2.213   1.833   0.637 -0.1796  0.5369  0.8903
  865SOL    HW1 2594   2.242   1.829   0.736 -0.9527  0.4763  2.7685
  865SOL    HW2 2595   2.119   1.792   0.623 -0.5179 -0.6188 -0.5296
  866SOL     OW 2596   2.955   2.928   0.979  0.5632 -0.4576  0.1019
  866SOL    HW1 2597   3.000   2.945   0.890 -2.7879 -0.4290  0.8404
  866SOL    HW2 2598   2.946   2.824   0.992  1.5731 -2.1414 -0.1792
  867SOL     OW 2599   0.326   1.397   0.936 -0.2359 -0.4586  0.0978
  867SOL    HW1 2600   0.292   1.321   0.874 -0.6429  3.2764 -1.2858
  867SOL    HW2 2601   0.281   1.489   0.920  1.4181  2.0412  0.2516
  868SOL     OW 2602   0.753   1.891   2.025  0.2962  0.3347 -0.1155
  868SOL    HW1 2603   0.741   1.861   2.123  0.5235  0.1233  1.2643
  868SOL    HW2 2604   0.736   1.995   2.012 -1.1857  0.2028  0.5016
  869SOL     OW 2605   2.526   1.934   1.596 -0.3253 -0.2175  0.0595
  869SOL    HW1 2606   2.618   1.973   1.576  0.4935  0.5207  0.6650
  869SOL    HW2 2607   2.512   1.843   1.547 -1.9494  0.2975  0.3698
  870SOL     OW 2608   2.309   2.643   1.288 -0.0124 -0.5876  0.0362
  870SOL    HW1 2609   2.285   2.548   1.260 -0.8970  3.0904  0.6931
  870SOL    HW2 2610   2.249   2.683   1.357 -0.5112 -1.6477  0.3455
  871SOL     OW 2611   2.985   2.101   0.578  0.4551 -0.1078 -0.1911
  871SOL    HW1 2612   2.945   2.194   0.602  0.1686 -1.8335 -0.2931
  871SOL    HW2 2613   2.956   2.056   0.492  0.3913  0.4066 -0.2192
  872SOL     OW 2614   2.124   0.479   1.683 -0.2024  0.1003  0.4076
  872SOL    HW1 2615   2.072   0.450   1.770  3.6627 -0.8657  0.2514
  872SOL    HW2 2616   2.217   0.433   1.673 -1.0144  0.3970  0.4556
  873SOL     OW 2617   1.733   2.066   3.016  0.0177  0.2369 -0.5419
  873SOL    HW1 2618   1.731   2.158   3.064 -2.0324  1.6172 -1.6718
  873SOL    HW2 2619   1.675   2.067   2.930  0.2556 -0.0928 -2.6520
  874SOL     OW 2620   0.650   2.478   0.797 -0.1917 -0.0670 -0.0221
  874SOL    HW1 2621   0.643   2.571   0.837 -1.3329 -3.6365  0.7024
  874SOL    HW2 2622   0.748   2.442   0.791  2.0846 -1.1873 -1.6047
  875SOL     OW 2623   2.282   1.486   1.438  0.5245 -0.6447 -0.3390
  875SOL    HW1 2624   2.347   1.518   1.508 -0.3155  0.5435  1.6874
  875SOL    HW2 2625   2.316   1.499   1.342 -0.3567 -0.4245  1.8471
  876SOL     OW 2626   0.086   2.238   2.698 -0.2619  0.2450 -0.8564
  876SOL    HW1 2627   0.118   2.145   2.743  0.6216 -4.2979 -0.1949
  876SOL    HW2 2628   0.150   2.314   2.730 -0.0040  0.9353 -0.9799
  877SOL     OW 2629   2.875   2.693   0.554 -0.2189  0.0046  0.6414
  877SOL    HW1 2630   2.839   2.779   0.608 -1.6924 -1.1590  1.1798
  877SOL    HW2 2631   2.928   2.630   0.615  0.8712 -0.1497 -0.4712
  878SOL     OW 2632   2.819   1.586   2.183  0.2004  0.5365 -0.0401
  878SOL    HW1 2633   2.920   1.586   2.212  0.2503 -0.3396  0.3634
  878SOL    HW2 2634   2.767   1.650   2.243  0.7492  1.0822 -0.8336
  879SOL     OW 2635   2.365   0.035   1.145  0.0442  0.0704 -0.2824
  879SOL    HW1 2636   2.430  -0.044   1.158 -2.6585 -0.8249  0.4482
  879SOL    HW2 2637   2.284   0.008   1.085  0.7815 -2.3017  0.7551
  880SOL     OW 2638   0.677   0.487   2.235  0.4048  0.0578 -0.2700
  880SOL    HW1 2639   0.612   0.438   2.294  1.4077 -0.0376 -0.3625
  880SOL    HW2 2640   0.714   0.430   2.157 -1.6601  0.2786  0.0242
  881SOL     OW 2641   0.871   0.078   0.494 -0.2692  0.0296  0.1864
  881SOL    HW1 2642   0.918  -0.009   0.524 -0.3895  0.4275  0.9264
  881SOL    HW2 2643   0.780   0.072   0.436 -2.0770  0.3786 -0.7171
  882SOL     OW 2644   2.711   1.679   1.631 -0.4926 -0.4744 -0.9870
  882SOL    HW1 2645   2.810   1.669   1.603 -1.0731 -3.7584 -0.6712
  882SOL    HW2 2646   2.707   1.681   1.735 -0.4291  1.7940  1.3206
  883SOL     OW 2647   0.864   0.602   0.966  0.0360 -0.4076 -0.0417
  883SOL    HW1 2648   0.898   0.696   0.982 -0.6876 -1.2694 -1.4495
  883SOL    HW2 2649   0.879   0.538   1.047 -0.0666  0.3353 -1.9035
  884SOL     OW 2650   1.186   1.784   1.143  0.0323  0.0414 -0.0447
  884SOL    HW1 2651   1.184   1.715   1.066  1.7040  1.7670 -3.0962
  884SOL    HW2 2652   1.107   1.858   1.142  1.5339 -1.2357  1.3175
  885SOL     OW 2653   2.347   1.814   2.294  0.1451  0.2382  0.0779
  885SOL    HW1 2654   2.264   1.762   2.327  0.3837  1.1284  1.2910
  885SOL    HW2 2655   2.338   1.912   2.300 -1.4601 -2.3638 -1.8680
  886SOL     OW 2656   2.588   0.451   1.814 -0.0176  0.7496 -0.0023
  886SOL    HW1 2657   2.628   0.367   1.863  2.2153  1.6004  1.1120
  886SOL    HW2 2658   2.659   0.527   1.802  1.3231 -1.1960 -2.4047
  887SOL     OW 2659   0.127   2.029   1.244  0.4614  0.4658 -0.2891
  887SOL    HW1 2660   0.034   2.010   1.204  1.4523  3.3924 -2.2467
  887SOL    HW2 2661   0.160   2.123   1.234  2.1272 -1.5016  1.3957
  888SOL     OW 2662   0.551   1.329   1.562 -0.2256 -0.3647 -0.2271
  888SOL    HW1 2663   0.584   1.357   1.466  0.3826 -0.1351  0.3474
  888SOL    HW2 2664   0.483   1.246   1.552 -0.4855 -0.6890 -1.5091
  889SOL     OW 2665   0.828   2.550   2.192  0.0306  0.3990  0.3339
  889SOL    HW1 2666   0.767   2.471   2.225 -1.3307 -1.4061  1.4142
  889SOL    HW2 2667   0.895   2.534   2.111  1.8865 -1.4097  1.4219
  890SOL     OW 2668   2.375   2.469   0.213 -0.4488  0.4070  0.1985
  890SOL    HW1 2669   2.393   2.534   0.135 -0.6582  0.8692  1.3613
  890SOL    HW2 2670   2.327   2.511   0.293  0.6466 -1.2987 -0.5252
  891SOL     OW 2671   2.607   1.641   0.764 -0.1455 -0.3592 -0.0905
  891SOL    HW1 2672   2.643   1.605   0.855  1.2398 -2.6531 -2.8101
  891SOL    HW2 2673   2.511   1.606   0.755 -1.3563 -1.0253  0.1202
  892SOL     OW 2674   0.349   0.246   2.144 -0.8144 -0.1387  0.0290
  892SOL    HW1 2675   0.406   0.248   2.055 -0.8636  0.2834 -1.4604
  892SOL    HW2 2676   0.399   0.277   2.230  2.4615 -2.8890 -0.0646
  893SOL     OW 2677   1.680   0.247   2.741 -0.1692  0.0127  0.4062
  893SOL    HW1 2678   1.763   0.303   2.722  0.9927 -2.4782 -0.3924
  893SOL    HW2 2679   1.591   0.301   2.734  0.6495  0.1041  0.1122
  894SOL     OW 2680   2.194   2.016   0.014  0.0947  0.3776  0.4059
  894SOL    HW1 2681   2.182   1.952  -0.073 -0.3910 -0.8776 -1.5885
  894SOL    HW2 2682   2.212   1.958   0.095  0.4398  1.4431 -1.0327
  895SOL     OW 2683   2.855   1.423   0.883  0.1772 -0.0490 -0.2156
  895SOL    HW1 2684   2.924   1.353   0.920  1.3392 -0.4074 -0.2185
  895SOL    HW2 2685   2.853   1.514   0.927 -0.5971 -2.0538 -3.5594
  896SOL     OW 2686   1.808   1.861   1.202 -0.3490  0.3412 -0.6610
  896SOL    HW1 2687   1.854   1.839   1.112  1.9976  1.7978  0.8160
  896SOL    HW2 2688   1.734   1.932   1.197  0.1180  0.3754 -2.3978
  897SOL     OW 2689   0.278   0.555   3.099 -0.2747 -0.5061 -0.6356
  897SOL    HW1 2690   0.223   0.619   3.042  2.1212 -0.8617  2.2493
  897SOL    HW2 2691   0.379   0.559   3.093 -1.7011  0.5417 -1.6675
  898SOL     OW 2692   0.583   2.861   1.106  0.2837 -0.1248  0.1112
  898SOL    HW1 2693   0.532   2.945   1.142 -0.9063  1.5328 -0.0158
  898SOL    HW2 2694   0.644   2.816   1.177  1.1457  0.1652 -0.0697
  899SOL     OW 2695   2.764   0.888   1.280 -0.3750 -0.1819  0.1119
  899SOL    HW1 2696   2.699   0.904   1.199  0.2037  0.9965 -2.1372
  899SOL    HW2 2697   2.848   0.949   1.273  0.5333  1.4537 -1.4501
  900SOL     OW 2698   1.011   2.562   2.374 -0.7118 -0.5283  0.6987
  900SOL    HW1 2699   0.931   2.571   2.304 -2.1432 -0.8547 -1.4828
  900SOL    HW2 2700   0.982   2.533   2.468 -0.5377 -1.9139 -1.8347
  901SOL     OW 2701   1.895   2.353   1.372 -0.0840  0.2799  0.3307
  901SOL    HW1 2702   1.886   2.326   1.273 -0.0430  0.0249  0.4921
  901SOL    HW2 2703   1.987   2.344   1.413 -0.2550 -1.6992  2.4158
  902SOL     OW 2704   2.518   1.665   1.446  0.4029 -0.0788 -0.0044
  902SOL    HW1 2705   2.585   1.675   1.527 -1.0588 -0.5852  0.5330
  902SOL    HW2 2706   2.569   1.626   1.363  1.1488  1.4734  2.2049
  903SOL     OW 2707   0.260   2.482   1.963  0.5361  0.2277  0.0865
  903SOL    HW1 2708   0.196   2.418   1.906  2.0458 -0.7234 -3.3100
  903SOL    HW2 2709   0.310   2.548   1.903 -1.5060 -0.6551  0.1102
  904SOL     OW 2710   2.077   0.718   2.458  0.1500 -0.7346 -0.0995
  904SOL    HW1 2711   2.009   0.706   2.537  0.7185 -0.7738 -0.9336
  904SOL    HW2 2712   2.030   0.715   2.367 -0.7310 -0.6042 -1.5485
  905SOL     OW 2713   2.814   0.064   2.576 -0.3620 -0.1669  0.3254
  905SOL    HW1 2714   2.872  -0.018   2.553  0.9801  1.0295 -0.2048
  905SOL    HW2 2715   2.858   0.151   2.537 -3.6517  0.5455  1.0637
  906SOL     OW 2716   0.137   1.780   1.859  0.1216  0.5315 -0.0697
  906SOL    HW1 2717   0.086   1.798   1.769  0.6329 -1.1036 -0.4797
  906SOL    HW2 2718   0.238   1.764   1.853 -2.5568 -0.5496 -2.3159
  907SOL     OW 2719   0.138   2.435   0.995  0.2143  0.9102  0.0670
  907SOL    HW1 2720   0.232   2.400   0.961  2.4476  0.6187 -2.1584
  907SOL    HW2 2721   0.068   2.354   1.000  0.5489 -1.3919 -0.4170
  908SOL     OW 2722   2.677   2.948   0.385 -0.5447  0.3518  0.2974
  908SOL    HW1 2723   2.654   2.985   0.289  0.6607 -1.0602  0.4878
  908SOL    HW2 2724   2.763   2.893   0.381  1.6461 -0.3638  0.4621
  909SOL     OW 2725   0.771   1.018   2.695  0.2054 -0.8281  0.5436
  909SOL    HW1 2726   0.700   0.959   2.643 -1.6462 -0.9627  0.2375
  909SOL    HW2 2727   0.855   1.045   2.636  2.3527 -0.4826  0.0613
  910SOL     OW 2728   1.744   1.837   2.146  0.1791  0.1432  0.2738
  910SOL    HW1 2729   1.802   1.885   2.071 -0.7996  1.6129 -2.1601
  910SOL    HW2 2730   1.669   1.903   2.183 -3.9151  2.6768 -1.7349
  911SOL     OW 2731   1.871   2.923   1.572  0.4143  0.0504  0.4915
  911SOL    HW1 2732   1.964   2.900   1.537 -1.1640 -1.0662  1.5634
  911SOL    HW2 2733   1.845   2.871   1.661 -1.4095 -0.0163 -0.4305
  912SOL     OW 2734   2.902   0.986   0.739  0.2541 -0.2027  0.1077
  912SOL    HW1 2735   2.900   0.983   0.841  0.4346  0.8014 -1.6012
  912SOL    HW2 2736   2.860   1.078   0.709  1.2673 -1.6305 -1.5033
  913SOL     OW 2737   2.546   1.293   1.510  0.1176  0.3233  0.5424
  913SOL    HW1 2738   2.566   1.190   1.488 -0.6256  0.5254  0.5803
  913SOL    HW2 2739   2.567   1.349   1.429  1.4611 -1.4562  2.7176
  914SOL     OW 2740   2.878   0.563   1.228 -0.9302 -0.0613  0.0767
  914SOL    HW1 2741   2.936   0.476   1.213  1.3431 -1.4453 -1.4305
  914SOL    HW2 2742   2.804   0.565   1.302 -2.5837  1.6463 -1.2728
  915SOL     OW 2743   1.235   0.776   1.064  0.5309  0.3390 -0.5248
  915SOL    HW1 2744   1.290   0.790   1.150 -4.7496 -1.5928  0.0130
  915SOL    HW2 2745   1.131   0.799   1.076  0.4083 -1.7342 -0.8144
  916SOL     OW 2746   0.605   0.017   0.669  1.0820  0.3193 -0.0363
  916SOL    HW1 2747   0.643   0.101   0.715  0.6540 -1.5349 -1.3262
  916SOL    HW2 2748   0.602   0.030   0.564  0.1778  0.9339  0.2314
  917SOL     OW 2749   2.828   2.616   1.964 -0.7580  0.4942  0.2765
  917SOL    HW1 2750   2.728   2.612   1.945 -0.7051 -1.3887  2.0832
  917SOL    HW2 2751   2.871   2.709   1.962  0.2833 -2.1633 -2.3577
  918SOL     OW 2752   1.056   2.226   2.968  0.5413  0.4257 -0.1575
  918SOL    HW1 2753   1.022   2.230   3.068 -1.5763  1.1088  0.5298
  918SOL    HW2 2754   1.123   2.151   2.943 -1.0932 -2.7762  0.4151
  919SOL     OW 2755   0.870   1.655   2.823  0.2541 -0.3060  0.3004
  919SOL    HW1 2756   0.917   1.722   2.755 -0.6227  0.2870  0.2390
  919SOL    HW2 2757   0.828   1.573   2.773  1.9290  0.6062  2.0229
  920SOL     OW 2758   1.240   1.895   2.478  0.2916  0.8385  0.4324
  920SOL    HW1 2759   1.282   1.890   2.380 -1.2190  1.4554 -2.5411
  920SOL    HW2 2760   1.247   1.804   2.528  1.2950  0.7737  1.0012
  921SOL     OW 2761   1.090   0.028   2.622  0.4218  0.3967  0.1472
  921SOL    HW1 2762   1.081   0.032   2.518  0.0668  0.4030  0.3687
  921SOL    HW2 2763   1.034  -0.056   2.665  0.1245  0.5491  1.6180
  922SOL     OW 2764   2.189   2.415   2.808  0.1053  0.1844  0.7821
  922SOL    HW1 2765   2.181   2.310   2.818  0.8013  1.1469 -3.1571
  922SOL    HW2 2766   2.117   2.445   2.744  4.2530 -1.6596 -0.0558
  923SOL     OW 2767   1.231   2.680   0.249  0.2070  1.3153 -0.3037
  923SOL    HW1 2768   1.303   2.728   0.306 -0.4445 -0.4780  0.8512
  923SOL    HW2 2769   1.252   2.580   0.234 -0.9810  3.1549 -0.5232
  924SOL     OW 2770   2.894   1.513   0.087 -0.5030 -0.2402 -0.6950
  924SOL    HW1 2771   2.807   1.510   0.032  0.6000  2.4933  1.1990
  924SOL    HW2 2772   2.972   1.553   0.028 -1.8267  1.9403 -0.8307
  925SOL     OW 2773   0.046   2.979   1.507 -0.0999  0.3425 -0.0672
  925SOL    HW1 2774  -0.019   2.957   1.584 -1.0233 -0.0699 -3.0755
  925SOL    HW2 2775   0.038   2.904   1.434 -0.3533 -0.0106 -1.7702
  926SOL     OW 2776   1.340   2.820   1.244  0.3293 -0.0284  0.3909
  926SOL    HW1 2777   1.419   2.804   1.182 -0.4929  0.2404  0.6400
  926SOL    HW2 2778   1.354   2.888   1.321  0.4923  0.1992 -0.4083
  927SOL     OW 2779   0.338   2.670   1.769 -0.3166  0.0283  0.2624
  927SOL    HW1 2780   0.305   2.612   1.688 -1.3578 -0.5970  3.2716
  927SOL    HW2 2781   0.310   2.769   1.759 -0.6614  1.4334  1.3456
  928SOL     OW 2782   1.542   2.041   2.224  0.4007 -0.4787 -0.6733
  928SOL    HW1 2783   1.583   2.121   2.172  0.5641  0.4093  0.3230
  928SOL    HW2 2784   1.440   2.025   2.200 -4.5248 -1.2129  0.8127
  929SOL     OW 2785   2.439   2.475   2.888 -0.7309  0.0896 -0.6721
  929SOL    HW1 2786   2.342   2.455   2.864  1.8182  1.6993  0.5191
  929SOL    HW2 2787   2.500   2.493   2.802 -0.2432 -1.7841 -2.1297
  930SOL     OW 2788   2.178   1.957   1.045  0.1729  0.0453  0.1019
  930SOL    HW1 2789   2.131   1.940   1.135  2.4748 -0.4264  0.2059
  930SOL    HW2 2790   2.238   2.045   1.049  0.3948  2.1887  0.7583
  931SOL     OW 2791   0.560   1.707   2.717 -0.7726  0.0251 -0.2286
  931SOL    HW1 2792   0.608   1.775   2.780  3.0239 -0.7530 -0.5708
  931SOL    HW2 2793   0.612   1.617   2.714  3.5425  2.7652  2.2092
  932SOL     OW 2794   0.414   0.095   2.962 -0.6130  0.3091 -0.2238
  932SOL    HW1 2795   0.515   0.092   2.937  2.7324 -2.7637 -2.7928
  932SOL    HW2 2796   0.396   0.014   3.025 -0.1772  2.9588  0.3516
  933SOL     OW 2797   1.041   0.756   3.030 -0.2793 -0.8463 -0.1451
  933SOL    HW1 2798   1.055   0.796   3.122  2.1434 -0.3767 -1.6957
  933SOL    HW2 2799   1.018   0.830   2.963  0.1634 -0.3346  0.0760
  934SOL     OW 2800   0.861   2.946   2.653  0.7130  0.6318  0.3683
  934SOL    HW1 2801   0.846   2.883   2.569  1.8875  4.5386 -3.0662
  934SOL    HW2 2802   0.887   2.903   2.744 -1.8626  1.1516 -1.0508
  935SOL     OW 2803   0.017   0.556   0.835 -0.0423  0.1952  0.1718
  935SOL    HW1 2804  -0.005   0.504   0.744  0.2149 -0.2001 -1.2463
  935SOL    HW2 2805  -0.049   0.630   0.856 -0.0382 -3.3586 -2.8232
  936SOL     OW 2806   1.097   2.879   0.087  0.9077  0.3568  0.0306
  936SOL    HW1 2807   1.159   2.934   0.029 -2.1292 -3.9499 -0.2501
  936SOL    HW2 2808   1.150   2.806   0.141 -1.3292 -1.2530  0.9576
  937SOL     OW 2809   1.965   2.634   2.108  0.6291  0.6407  0.3092
  937SOL    HW1 2810   1.868   2.643   2.146 -3.6547  1.4901  0.1905
  937SOL    HW2 2811   1.983   2.684   2.017 -0.0328  0.3692 -0.5751
  938SOL     OW 2812   2.774   2.052   1.505  0.0667 -0.0509 -0.4433
  938SOL    HW1 2813   2.728   2.144   1.525 -1.1427  1.3915 -2.6351
  938SOL    HW2 2814   2.871   2.050   1.536 -1.2178  2.6329  0.2826
  939SOL     OW 2815   2.811   1.216   2.480  0.6421  0.2997  0.2016
  939SOL    HW1 2816   2.895   1.180   2.429 -3.0686 -3.2858 -0.3148
  939SOL    HW2 2817   2.808   1.191   2.579  0.0560  2.3079 -1.2341
  940SOL     OW 2818   0.998   0.471   2.735 -0.4676 -0.5260 -0.4245
  940SOL    HW1 2819   1.050   0.385   2.764  1.3937  0.2063  0.2550
  940SOL    HW2 2820   0.915   0.433   2.687 -0.8789  1.7900 -0.5072
  941SOL     OW 2821   0.077   2.832   2.269  0.1614 -0.0204 -0.6878
  941SOL    HW1 2822   0.107   2.741   2.252 -1.2496  2.5773  3.1765
  941SOL    HW2 2823   0.133   2.868   2.350 -1.3249 -1.3415 -2.0842
  942SOL     OW 2824   0.056   0.108   2.464 -0.2560  0.2426  0.3066
  942SOL    HW1 2825   0.082   0.172   2.542 -0.4612 -0.0288  1.8853
  942SOL    HW2 2826   0.055   0.162   2.370  2.6654  0.2768 -2.0385
  943SOL     OW 2827   2.103   1.693   2.381 -0.1763 -0.6558 -0.6031
  943SOL    HW1 2828   2.083   1.627   2.298 -0.3164 -3.5794 -1.8838
  943SOL    HW2 2829   2.077   1.658   2.477 -0.6107  2.9590 -1.1498
  944SOL     OW 2830   2.150   2.364   1.471 -0.4377  0.2954  0.2575
  944SOL    HW1 2831   2.201   2.446   1.507  1.7949  0.0673 -0.9819
  944SOL    HW2 2832   2.116   2.305   1.550 -0.8721 -3.8064 -0.4290
  945SOL     OW 2833   0.719   1.496   0.316 -0.1928  0.0394  0.6913
  945SOL    HW1 2834   0.724   1.534   0.218 -0.8413  2.1745  0.4506
  945SOL    HW2 2835   0.739   1.390   0.317  2.0640 -1.8187  1.1267
  946SOL     OW 2836   0.394   0.929   2.480  0.2795  0.2179  0.3453
  946SOL    HW1 2837   0.303   0.899   2.441  2.5433 -2.9059  0.6219
  946SOL    HW2 2838   0.388   1.018   2.538  0.1865  2.3359 -2.0373
  947SOL     OW 2839   1.551   0.470   0.049 -0.1951  0.2036  0.2172
  947SOL    HW1 2840   1.508   0.530  -0.026 -0.2191  0.1699 -2.7302
  947SOL    HW2 2841   1.500   0.380   0.056  0.9651  4.8911  1.8306
  948SOL     OW 2842   1.969   3.062   2.172  0.5061 -0.6104  0.6859
  948SOL    HW1 2843   1.987   3.027   2.076  0.6548  2.9308 -2.1316
  948SOL    HW2 2844   1.925   2.992   2.235 -2.5070  2.9447 -2.3820
  949SOL     OW 2845   0.586   2.486   0.543  0.2456  0.0893  0.0755
  949SOL    HW1 2846   0.586   2.582   0.510  1.1727  0.1268 -2.6224
  949SOL    HW2 2847   0.612   2.467   0.643  3.3099 -1.4325  0.3634
  950SOL     OW 2848   0.202   2.141   3.059  0.2941 -0.4529  0.3073
  950SOL    HW1 2849   0.126   2.215   3.057 -3.4070 -1.4304  1.9805
  950SOL    HW2 2850   0.217   2.097   2.966  2.5706  0.5383  0.2567
  951SOL     OW 2851   1.204   2.777   2.698 -0.0171  0.2311 -1.0160
  951SOL    HW1 2852   1.189   2.794   2.599  0.0594 -0.1166 -1.8287
  951SOL    HW2 2853   1.135   2.826   2.756  0.9321 -0.9282 -1.7463
  952SOL     OW 2854   0.053   1.687   0.451  0.9103 -0.1614 -0.5250
  952SOL    HW1 2855   0.083   1.786   0.471  0.2914 -0.5668  1.3398
  952SOL    HW2 2856   0.075   1.615   0.518 -3.4603  2.6121  2.1397
  953SOL     OW 2857   2.474   1.774   0.248  0.7096 -0.1009 -1.0039
  953SOL    HW1 2858   2.488   1.668   0.252 -0.3224  1.3889 -2.4898
  953SOL    HW2 2859   2.494   1.807   0.154 -1.5865  2.1253 -0.3421
  954SOL     OW 2860   2.174   0.541   0.957  0.0210 -0.0230  0.3403
  954SOL    HW1 2861   2.176   0.575   0.857 -0.0517 -1.7105 -0.5253
  954SOL    HW2 2862   2.271   0.537   0.996  0.2055  0.6453  0.9863
  955SOL     OW 2863   0.180   2.638   1.294  0.0642 -0.1646  0.3327
  955SOL    HW1 2864   0.086   2.674   1.283  0.0789  1.2310 -0.7135
  955SOL    HW2 2865   0.243   2.649   1.207  0.8058 -3.7701 -0.8303
  956SOL     OW 2866   2.752   2.466   2.430  0.5643  0.5234 -0.7866
  956SOL    HW1 2867   2.772   2.365   2.412  1.9447 -2.9561  2.5437
  956SOL    HW2 2868   2.770   2.529   2.352 -2.3376 -1.7250  0.4594
  957SOL     OW 2869   1.576   2.069   2.787 -0.0222 -0.2041 -0.2943
  957SOL    HW1 2870   1.556   1.966   2.794 -2.3458  1.4299 -0.3690
  957SOL    HW2 2871   1.653   2.097   2.722  1.1284  1.9596  1.0153
  958SOL     OW 2872   2.681   2.288   2.988  0.6386  0.7709 -0.2021
  958SOL    HW1 2873   2.589   2.334   2.981 -0.3508 -0.2859  1.6807
  958SOL    HW2 2874   2.694   2.244   3.080  0.2511  0.3843  1.4269
  959SOL     OW 2875   0.238   2.811   0.056 -0.8226 -0.1312 -0.2557
  959SOL    HW1 2876   0.137   2.790   0.038  0.6625  0.5471 -1.2021
  959SOL    HW2 2877   0.277   2.752   0.131 -0.8253 -0.2553  0.0203
  960SOL     OW 2878   1.954   0.409   1.911 -0.2457 -0.6225 -0.6350
  960SOL    HW1 2879   1.909   0.503   1.893  0.2485 -0.9239 -0.4449
  960SOL    HW2 2880   1.997   0.414   2.002  0.4364  2.5003 -0.7273
  961SOL     OW 2881   2.579   1.816   1.031 -0.5582  0.6265  0.0611
  961SOL    HW1 2882   2.560   1.901   0.976  2.5851 -1.6158 -1.0335
  961SOL    HW2 2883   2.548   1.821   1.131  1.4274  1.5186 -1.2419
  962SOL     OW 2884   1.274   0.890   0.055 -0.1373  0.2470 -0.2427
  962SOL    HW1 2885   1.280   0.963  -0.020 -1.2431  0.4574  1.4737
  962SOL    HW2 2886   1.274   0.922   0.154 -0.4769 -0.1174  0.4854
  963SOL     OW 2887   2.210   2.547   1.878 -0.3433  0.5464 -0.2405
  963SOL    HW1 2888   2.181   2.452   1.908  0.9637 -0.0084  0.2521
  963SOL    HW2 2889   2.212   2.612   1.955 -0.2631 -1.1738  2.5909
  964SOL     OW 2890   2.386   0.383   1.653  0.3523  0.2434  0.2164
  964SOL    HW1 2891   2.458   0.434   1.707  0.7393  0.6916  0.4089
  964SOL    HW2 2892   2.407   0.366   1.553  0.6921  1.9672 -1.2334
  965SOL     OW 2893   2.597   3.057   0.155 -0.7256 -0.1713  0.3634
  965SOL    HW1 2894   2.664   3.027   0.081  0.1669 -0.6626  1.7914
  965SOL    HW2 2895   2.494   3.078   0.124 -0.7791  0.5794  0.0987
  966SOL     OW 2896   2.478   2.484   2.204 -0.1389 -0.0241 -0.0373
  966SOL    HW1 2897   2.428   2.501   2.292 -0.1559  0.3797 -1.2706
  966SOL    HW2 2898   2.520   2.572   2.165 -1.0857  0.6274  1.0834
  967SOL     OW 2899   2.816   2.763   2.472  0.1623  0.3046 -0.9192
  967SOL    HW1 2900   2.830   2.692   2.396  0.7278 -1.3242 -0.7505
  967SOL    HW2 2901   2.885   2.844   2.470  0.8798 -0.4812  0.9096
  968SOL     OW 2902   1.947   1.045   2.617  0.1466  0.5100  0.3182
  968SOL    HW1 2903   1.873   1.100   2.575 -3.4640  1.7678  1.2114
  968SOL    HW2 2904   1.979   0.967   2.554  2.5587 -1.7457 -0.0012
  969SOL     OW 2905   2.759   2.456   1.094 -0.0248 -0.5982 -0.2120
  969SOL    HW1 2906   2.725   2.442   0.998 -0.6084  0.0360 -0.6778
  969SOL    HW2 2907   2.775   2.366   1.147 -1.1125 -0.3416 -0.8122
  970SOL     OW 2908   1.058   2.107   1.793  0.3822  0.0532 -0.6108
  970SOL    HW1 2909   0.977   2.118   1.728  2.1519 -1.9400  0.1464
  970SOL    HW2 2910   1.047   2.151   1.889 -2.1299 -1.2895 -1.0050
  971SOL     OW 2911   2.843   2.064   1.856  0.2777  0.4345 -0.1613
  971SOL    HW1 2912   2.865   2.163   1.887 -2.7270  2.1182  1.6932
  971SOL    HW2 2913   2.899   2.035   1.771 -2.3563 -0.9635 -0.2294
  972SOL     OW 2914   1.959   2.425   0.167 -0.3281 -0.4123 -0.1499
  972SOL    HW1 2915   1.992   2.352   0.101 -0.3737 -1.6116  0.4635
  972SOL    HW2 2916   1.974   2.388   0.261 -1.2758  1.9220 -0.9319
  973SOL     OW 2917   1.310   1.068   1.869  0.0823  0.0394 -0.1521
  973SOL    HW1 2918   1.251   1.004   1.816  1.3884  0.7212  0.0005
  973SOL    HW2 2919   1.286   1.169   1.865  1.6599 -0.7083 -0.1996
  974SOL     OW 2920   1.636   0.554   1.982 -0.2781  0.0935  0.2047
  974SOL    HW1 2921   1.708   0.602   1.927 -2.2100 -2.0866  0.1880
  974SOL    HW2 2922   1.549   0.606   1.970  3.1589  0.0012 -0.5436
  975SOL     OW 2923   2.343   3.064   0.037  0.2655 -0.1346  0.4113
  975SOL    HW1 2924   2.329   2.967   0.066 -1.5907 -1.0461 -0.0405
  975SOL    HW2 2925   2.386   3.072  -0.057 -0.4681 -0.7087  1.3083
  976SOL     OW 2926   1.922   2.838   2.321  0.0605  0.1800  0.3343
  976SOL    HW1 2927   1.827   2.822   2.283  3.0048 -1.2188 -0.2485
  976SOL    HW2 2928   1.944   2.781   2.408  0.4573 -2.7898 -0.2646
  977SOL     OW 2929   0.461   0.712   1.043  0.2124  0.1838 -0.4352
  977SOL    HW1 2930   0.385   0.682   0.972  0.7114 -3.4616  0.7970
  977SOL    HW2 2931   0.552   0.680   1.007 -1.8015  1.5282 -0.8033
   3.10000   3.10000   3.10000
