1000 SPC/Fw water molecules t=   0.38000 step= 380
 2931
    1SOL     OW    1   2.536   0.307   2.568 -0.2830 -0.1551  1.2417
    1SOL    HW1    2   2.518   0.207   2.554  2.7493  0.3549  1.7795
    1SOL    HW2    3   2.563   0.331   2.668  2.0928 -1.5261  0.2029
    2SOL     OW    4   2.701   3.034   1.422 -0.1471  1.2618  1.1058
    2SOL    HW1    5   2.779   3.080   1.375  0.0976  0.8500  0.2601
    2SOL    HW2    6   2.633   3.094   1.466 -0.0341 -2.8761  0.6425
    3SOL     OW    7   2.726   2.586   0.403  0.7463  0.1590 -0.2356
    3SOL    HW1    8   2.684   2.493   0.411 -0.5049  0.7321 -2.9614
    3SOL    HW2    9   2.773   2.612   0.490 -0.0603  1.0923 -0.8705
    4SOL     OW   10   1.344   1.474   2.375 -0.0754  0.0317 -0.3769
    4SOL    HW1   11   1.244   1.491   2.350  2.6907 -0.6105 -0.8509
    4SOL    HW2   12   1.354   1.385   2.426 -2.1447  0.0275 -1.1646
    5SOL     OW   13   1.204   1.492   3.022 -0.3437  0.0289  0.2096
    5SOL    HW1   14   1.254   1.553   3.091 -0.7484  0.5456  2.7569
    5SOL    HW2   15   1.104   1.523   3.006  0.1371  0.5997  1.7432
    6SOL     OW   16   0.016   1.783   2.885  0.2953 -0.4782 -0.0788
    6SOL    HW1   17  -0.008   1.816   2.979  1.9388 -0.2707 -0.1846
    6SOL    HW2   18   0.021   1.681   2.892  0.8001 -1.7742 -1.2054
    7SOL     OW   19   2.553   0.885   1.142  0.1109 -0.0060 -0.1078
    7SOL    HW1   20   2.448   0.875   1.141 -2.9859  2.9489 -0.1654
    7SOL    HW2   21   2.577   0.920   1.050  1.2661  1.5973  2.8253
    8SOL     OW   22   0.410   0.636   1.547 -0.6763  0.2726  0.0349
    8SOL    HW1   23   0.491   0.576   1.573  1.7713  0.5251 -1.5375
    8SOL    HW2   24   0.352   0.591   1.470  0.2107 -0.4271 -2.6643
    9SOL     OW   25   1.166   0.971   2.262 -0.3785 -0.1113 -0.6184
    9SOL    HW1   26   1.232   1.043   2.223 -1.6309  0.7169  1.1198
    9SOL    HW2   27   1.102   0.937   2.196 -0.8175 -1.7341  0.1155
   10SOL     OW   28   0.742   1.339   1.245 -0.3575  0.7125  0.5195
   10SOL    HW1   29   0.643   1.363   1.223 -1.7017  3.6134 -3.8289
   10SOL    HW2   30   0.789   1.432   1.246  0.6139 -2.4859  0.6006
   11SOL     OW   31   2.342   2.645   0.955 -0.0982  0.6486  0.5971
   11SOL    HW1   32   2.341   2.662   1.055  1.2616  0.1004 -3.1473
   11SOL    HW2   33   2.443   2.631   0.927  1.7964  1.3953  1.0684
   12SOL     OW   34   1.446   0.919   0.413 -0.2839  0.3042 -0.4985
   12SOL    HW1   35   1.381   0.963   0.347 -0.8286  2.6100  1.0347
   12SOL    HW2   36   1.405   0.838   0.465  1.8121  0.8941  0.2768
   13SOL     OW   37   2.520   0.664   1.846  0.0495  0.2881 -0.3585
   13SOL    HW1   38   2.426   0.665   1.890  1.9137 -1.8636  2.3873
   13SOL    HW2   39   2.518   0.631   1.748 -0.6674  1.9825  0.8386
   14SOL     OW   40   1.946   0.026   0.653  0.9942  0.2354  0.7568
   14SOL    HW1   41   1.864   0.065   0.603 -0.0397 -0.0313  1.2932
   14SOL    HW2   42   1.924  -0.048   0.721  0.6572 -1.1007  0.0599
   15SOL     OW   43   1.950   2.015   2.853 -0.5628  0.0858 -0.1566
   15SOL    HW1   44   1.912   2.113   2.862  0.2343  0.7566 -0.3354
   15SOL    HW2   45   1.910   1.960   2.776  1.3312  2.6965 -0.5865
   16SOL     OW   46   1.617   1.743   0.000 -0.1303  0.0622 -0.0715
   16SOL    HW1   47   1.615   1.649  -0.043  0.6342  0.6972  0.9022
   16SOL    HW2   48   1.705   1.765   0.047 -1.3911  0.4519 -0.5422
   17SOL     OW   49   0.103   0.475   0.174 -0.2647  0.7030 -0.3874
   17SOL    HW1   50   0.179   0.472   0.104 -2.8882 -0.4397 -1.8816
   17SOL    HW2   51   0.006   0.479   0.134 -1.4657  1.6026  2.3922
   18SOL     OW   52   0.975   2.904   2.187 -0.2849 -0.2499 -0.4571
   18SOL    HW1   53   0.891   2.852   2.164  1.1237  1.4285  0.6450
   18SOL    HW2   54   1.065   2.863   2.142  1.4566 -1.7990 -1.7317
   19SOL     OW   55   0.505   0.878   1.966  0.3591 -0.7524 -0.1692
   19SOL    HW1   56   0.477   0.971   2.010  2.7828  1.6058 -2.0193
   19SOL    HW2   57   0.606   0.873   1.941 -0.8251 -2.2969  0.9245
   20SOL     OW   58   0.209   2.803   0.815 -0.1839 -0.1159 -0.4407
   20SOL    HW1   59   0.129   2.867   0.788 -2.1717  2.9881  1.1196
   20SOL    HW2   60   0.255   2.766   0.730 -1.8341 -0.7561 -1.1263
   21SOL     OW   61   2.766   0.199   2.147  0.5977 -0.7244  0.5187
   21SOL    HW1   62   2.711   0.135   2.085  0.0772  0.8438 -0.1450
   21SOL    HW2   63   2.799   0.149   2.235  1.2155 -1.1151 -1.3696
   22SOL     OW   64   2.307   0.217   0.002 -0.0288  0.6214  0.2970
   22SOL    HW1   65   2.314   0.115   0.000  1.6413  2.7124 -0.5935
   22SOL    HW2   66   2.207   0.253  -0.014  0.4353  0.6702  0.5035
   23SOL     OW   67   2.812   0.657   0.665  0.2246 -0.4955  0.0524
   23SOL    HW1   68   2.790   0.563   0.637 -0.9582  0.6798  0.7737
   23SOL    HW2   69   2.763   0.721   0.597  0.5410  0.7064  1.0484
   24SOL     OW   70   0.159   1.898   0.450 -0.6196  0.3257  0.2444
   24SOL    HW1   71   0.065   1.898   0.405  0.4985 -0.7230 -2.0773
   24SOL    HW2   72   0.215   1.954   0.383 -2.1060  1.1438 -1.4874
   25SOL     OW   73   2.252   0.474   0.195  0.0187  0.1870  0.0007
   25SOL    HW1   74   2.328   0.399   0.205  2.0786  0.1113  3.0434
   25SOL    HW2   75   2.232   0.486   0.096 -1.1323 -0.6388  2.0876
   26SOL     OW   76   2.489   2.189   2.098 -0.1948 -0.2558  0.2046
   26SOL    HW1   77   2.564   2.246   2.136 -3.2616  1.1657 -1.8981
   26SOL    HW2   78   2.523   2.106   2.040  0.2676 -0.7329 -2.2605
   27SOL     OW   79   0.672   2.953   0.103 -0.4308  0.5353 -0.0403
   27SOL    HW1   80   0.773   2.978   0.116 -0.8234  1.3087  1.7869
   27SOL    HW2   81   0.633   3.018   0.030  1.2541  2.0692  0.6189
   28SOL     OW   82   1.561   0.160   0.278 -0.2673  0.1644 -0.0645
   28SOL    HW1   83   1.609   0.133   0.192 -2.3630  0.6914  0.4796
   28SOL    HW2   84   1.601   0.253   0.313 -1.3570  3.1301 -0.9840
   29SOL     OW   85   2.049   0.580   0.330 -0.0048 -1.1538  0.3109
   29SOL    HW1   86   2.031   0.676   0.345 -0.2609 -1.8479  0.5038
   29SOL    HW2   87   2.147   0.559   0.295 -1.0375  1.0971  2.8636
   30SOL     OW   88   0.125   2.016   0.943 -0.0843  0.0138 -0.1790
   30SOL    HW1   89   0.158   2.028   0.842  0.0928 -3.4467 -1.5575
   30SOL    HW2   90   0.055   2.088   0.969 -0.9933  0.7746  3.3861
   31SOL     OW   91   2.107   0.005   2.309 -0.4999  0.0019  0.2831
   31SOL    HW1   92   2.113  -0.003   2.411  2.3078  0.8444 -0.4707
   31SOL    HW2   93   2.025  -0.043   2.269  0.1624  0.4305 -0.1296
   32SOL     OW   94   2.899   0.180   0.146  0.2726  0.5675  0.3270
   32SOL    HW1   95   2.877   0.082   0.185  1.7497 -0.0121 -1.1390
   32SOL    HW2   96   2.983   0.222   0.183  0.1930 -0.4150  0.5591
   33SOL     OW   97   0.950   0.323   0.482 -0.1474  0.5118  0.5029
   33SOL    HW1   98   0.906   0.233   0.456  1.4398 -2.0910  1.9458
   33SOL    HW2   99   1.014   0.310   0.561 -3.9103  0.9441 -2.4039
   34SOL     OW  100   0.404   2.847   1.082 -0.5533 -0.6717  0.0117
   34SOL    HW1  101   0.360   2.867   0.993  0.9156  2.2259  0.8781
   34SOL    HW2  102   0.502   2.816   1.076 -1.2981  0.1177 -1.7831
   35SOL     OW  103   0.043   0.058   1.844 -0.5602  0.3585 -0.1879
   35SOL    HW1  104   0.076  -0.033   1.878  2.2769  3.1040 -2.2920
   35SOL    HW2  105  -0.031   0.055   1.773  1.5759  0.5255  0.1841
   36SOL     OW  106   1.933   1.129   1.802  0.3166 -0.4964 -0.1090
   36SOL    HW1  107   1.998   1.089   1.732 -3.6855  0.3281  1.2017
   36SOL    HW2  108   1.972   1.206   1.859 -1.5741 -1.5727  1.0274
   37SOL     OW  109   1.201   0.247   0.949  0.3487 -0.0301  0.0008
   37SOL    HW1  110   1.239   0.323   1.010 -2.3730  1.0499  1.0843
   37SOL    HW2  111   1.226   0.154   0.992  0.7970 -2.4295  0.6250
   38SOL     OW  112   1.070   2.688   2.414 -0.7316  0.0368  0.1484
   38SOL    HW1  113   1.019   2.599   2.442 -1.4792 -0.6457 -0.5168
   38SOL    HW2  114   1.006   2.761   2.388  1.6640  2.8627  1.2269
   39SOL     OW  115   2.304   1.396   3.011  0.1291 -0.4138 -0.1545
   39SOL    HW1  116   2.397   1.347   2.997 -1.1668 -0.7627  0.4938
   39SOL    HW2  117   2.272   1.387   3.112 -0.9377 -0.5043  1.3626
   40SOL     OW  118   2.100   2.534   2.511 -0.7981 -0.1471  0.4008
   40SOL    HW1  119   2.072   2.636   2.535  3.2986  1.8567 -0.8597
   40SOL    HW2  120   2.025   2.474   2.458  0.1441 -1.5963 -1.8948
   41SOL     OW  121   2.920   0.695   2.750  0.3740 -0.0467  0.0861
   41SOL    HW1  122   2.836   0.756   2.775 -3.3311  1.1586 -2.5390
   41SOL    HW2  123   2.903   0.591   2.746  1.1865 -1.7436  0.6084
   42SOL     OW  124   1.774   1.756   0.576 -0.2612  0.5749 -0.9021
   42SOL    HW1  125   1.718   1.682   0.526 -3.3267 -1.2462  1.5539
   42SOL    HW2  126   1.830   1.807   0.503  0.9903 -2.2002  0.3545
   43SOL     OW  127   0.446   1.760   1.221  0.0402 -0.4397 -0.8584
   43SOL    HW1  128   0.408   1.737   1.314  0.6870  0.2109  1.0480
   43SOL    HW2  129   0.371   1.784   1.154  0.6779  1.5400  2.7898
   44SOL     OW  130   1.778   2.553   0.015  0.1087 -0.5401 -0.1543
   44SOL    HW1  131   1.778   2.598  -0.079 -0.8599  1.0449 -0.9328
   44SOL    HW2  132   1.869   2.564   0.072  0.9221 -0.2581  1.1900
   45SOL     OW  133   0.288   1.924   2.598 -0.1434 -0.6092  0.2881
   45SOL    HW1  134   0.252   1.953   2.505  0.3639  1.7076  0.7982
   45SOL    HW2  135   0.352   1.844   2.591  1.1446  0.4013  0.6305
   46SOL     OW  136   1.150   0.642   0.237  0.2846  0.2725  0.2993
   46SOL    HW1  137   1.223   0.680   0.175 -0.5751 -0.6690 -2.1757
   46SOL    HW2  138   1.055   0.684   0.231  0.0314  0.2850 -1.5572
   47SOL     OW  139   0.228   2.445   1.595 -0.2215 -0.5449  0.1581
   47SOL    HW1  140   0.286   2.371   1.562 -0.6522  2.2773  0.7298
   47SOL    HW2  141   0.171   2.491   1.517 -2.1846  1.2655 -3.1082
   48SOL     OW  142   2.580   0.593   0.162  0.8179  0.7000 -0.2024
   48SOL    HW1  143   2.519   0.578   0.246 -0.9662 -0.5360 -0.8748
   48SOL    HW2  144   2.670   0.637   0.172 -1.0431 -5.6211 -3.9494
   49SOL     OW  145   0.353   0.808   1.747  0.3616 -0.0872 -0.0649
   49SOL    HW1  146   0.413   0.817   1.830 -0.7860 -3.7325  1.0716
   49SOL    HW2  147   0.383   0.726   1.689  1.1348  0.4850 -0.9064
   50SOL     OW  148   1.708   1.085   0.381 -0.3241  0.2475  0.0005
   50SOL    HW1  149   1.673   0.995   0.330 -0.7409 -2.7022 -1.6195
   50SOL    HW2  150   1.655   1.102   0.470 -0.0253 -0.4503 -0.1948
   51SOL     OW  151   3.004   1.885   0.346 -0.4345 -0.0171 -0.5658
   51SOL    HW1  152   2.985   1.916   0.251 -1.0872 -0.4028  1.0819
   51SOL    HW2  153   2.985   1.785   0.353  2.0958  1.2864 -1.5336
   52SOL     OW  154   0.793   1.976   0.490  0.1032 -0.1491 -0.2928
   52SOL    HW1  155   0.710   2.027   0.526 -0.0254  0.7787  1.4628
   52SOL    HW2  156   0.820   1.899   0.557 -1.3306  0.5788 -2.2350
   53SOL     OW  157   0.007   0.357   1.559 -0.5175 -0.2184  0.1760
   53SOL    HW1  158  -0.070   0.327   1.618  0.7579  1.4307  1.2792
   53SOL    HW2  159  -0.001   0.460   1.527 -3.0648  1.1850 -0.9941
   54SOL     OW  160   1.755   0.476   3.049 -0.3301  0.6214  0.3411
   54SOL    HW1  161   1.782   0.439   3.139 -1.4181 -0.5710 -3.0785
   54SOL    HW2  162   1.653   0.504   3.040  1.8526 -1.3934 -1.0526
   55SOL     OW  163   0.715   2.965   0.574  0.5048 -0.3786 -0.4129
   55SOL    HW1  164   0.728   3.058   0.613 -0.6161  0.1827 -0.2409
   55SOL    HW2  165   0.800   2.946   0.518 -1.7067 -1.6693  2.0571
   56SOL     OW  166   0.460   1.568   3.012 -0.2922  0.1921  0.2645
   56SOL    HW1  167   0.377   1.616   3.062 -1.5437 -0.5077 -0.4301
   56SOL    HW2  168   0.438   1.472   2.988  1.9714 -2.4474 -1.5052
   57SOL     OW  169   1.804   2.422   2.681  0.4554  0.4160  0.1843
   57SOL    HW1  170   1.865   2.407   2.600  0.8430 -1.1487 -0.1288
   57SOL    HW2  171   1.721   2.478   2.656 -1.0042 -1.5359  1.8324
   58SOL     OW  172   0.632   0.423   1.126  0.3437 -0.0751 -0.2001
   58SOL    HW1  173   0.590   0.514   1.099 -1.6406  3.4986 -0.0118
   58SOL    HW2  174   0.569   0.342   1.139  2.5888 -2.9764 -1.4714
   59SOL     OW  175   0.437   2.408   2.721  0.0579 -0.1139  0.4600
   59SOL    HW1  176   0.439   2.300   2.725  0.6792 -0.4503 -0.4901
   59SOL    HW2  177   0.518   2.447   2.769  0.8255 -1.1687 -1.5084
   60SOL     OW  178   2.293   2.113   2.279  0.1308 -0.2934 -0.4360
   60SOL    HW1  179   2.361   2.153   2.212 -0.3419  0.6001 -0.2434
   60SOL    HW2  180   2.320   2.120   2.381  1.8791 -0.5504 -0.4863
   61SOL     OW  181   1.388   0.641   0.510 -0.7724  0.2218  0.0682
   61SOL    HW1  182   1.284   0.635   0.521  0.4791  2.7041 -0.4342
   61SOL    HW2  183   1.415   0.619   0.414 -3.6955 -1.0092  2.4413
   62SOL     OW  184   2.642   1.823   3.037  0.4332  0.2808 -0.9666
   62SOL    HW1  185   2.653   1.726   3.068 -0.6975 -0.7349 -0.4286
   62SOL    HW2  186   2.705   1.832   2.950  0.2811 -2.1392 -2.4907
   63SOL     OW  187   0.510   0.861   0.166 -0.5043  0.4474  0.4131
   63SOL    HW1  188   0.473   0.949   0.125 -0.8267 -0.1516 -2.2791
   63SOL    HW2  189   0.563   0.881   0.252  2.7522  0.2310 -0.3146
   64SOL     OW  190   0.097   0.498   2.523 -0.5923  0.9426  0.2611
   64SOL    HW1  191   0.050   0.534   2.612 -1.9351 -2.6204  2.3585
   64SOL    HW2  192   0.081   0.559   2.437 -1.0387  4.3351 -3.2907
   65SOL     OW  193   0.187   1.476   0.630 -0.1588 -0.2184 -0.2931
   65SOL    HW1  194   0.179   1.558   0.691 -1.3489 -0.1915 -0.1339
   65SOL    HW2  195   0.286   1.455   0.628 -2.2978  2.3790  0.3079
   66SOL     OW  196   2.521   0.419   0.662  0.2193  0.5522 -0.1373
   66SOL    HW1  197   2.442   0.473   0.696 -0.1565 -0.7882 -1.4668
   66SOL    HW2  198   2.490   0.321   0.630 -0.2756 -1.9498 -0.2401
   67SOL     OW  199   0.494   2.508   1.394  0.0389 -0.3706  0.7967
   67SOL    HW1  200   0.584   2.485   1.441  0.8971 -3.4526  1.1067
   67SOL    HW2  201   0.457   2.434   1.337 -0.1310  1.0169  0.2138
   68SOL     OW  202   1.037   1.096   2.480 -0.4534  0.2210  0.0861
   68SOL    HW1  203   1.095   1.042   2.413 -0.3903 -0.3641  1.4575
   68SOL    HW2  204   0.956   1.149   2.443 -2.9966 -4.0762  0.8038
   69SOL     OW  205   0.760   2.733   2.139 -0.3874  0.7002  0.4030
   69SOL    HW1  206   0.755   2.631   2.158 -1.1853  0.5058  1.3763
   69SOL    HW2  207   0.669   2.772   2.135  4.2569 -1.1296  1.9340
   70SOL     OW  208   0.655   0.271   2.750 -0.0963  0.2636  0.1591
   70SOL    HW1  209   0.661   0.333   2.832  0.4186 -1.4173 -1.4774
   70SOL    HW2  210   0.604   0.183   2.765  1.5275  1.5859 -1.6361
   71SOL     OW  211   1.130   1.795   0.340 -0.1959  0.0928 -0.1699
   71SOL    HW1  212   1.070   1.710   0.359  2.0789 -1.0186  0.5356
   71SOL    HW2  213   1.152   1.816   0.243 -0.5264 -1.1548  0.4757
   72SOL     OW  214   1.817   0.161   2.077 -0.1969  0.3802 -0.9265
   72SOL    HW1  215   1.870   0.167   1.986  0.3472  0.4655 -2.4239
   72SOL    HW2  216   1.830   0.063   2.116  0.3920  1.9351  0.8729
   73SOL     OW  217   2.744   2.219   2.520 -0.2290 -0.1538  0.1354
   73SOL    HW1  218   2.761   2.145   2.459 -1.0973  1.6036  3.8581
   73SOL    HW2  219   2.809   2.223   2.603  0.6363 -0.4153 -0.2714
   74SOL     OW  220   2.740   2.964   2.023  0.1928  0.2700 -0.3801
   74SOL    HW1  221   2.668   2.956   2.103 -2.6626  2.6524  1.3397
   74SOL    HW2  222   2.835   2.982   2.059  0.2829 -0.2196 -0.5547
   75SOL     OW  223   0.910   0.747   1.032  0.3285  0.2132  0.3373
   75SOL    HW1  224   0.823   0.793   0.992 -3.2197  2.4254 -2.1754
   75SOL    HW2  225   0.939   0.784   1.123 -0.3926  0.7365 -0.0857
   76SOL     OW  226   1.744   1.242   2.591  0.1129 -0.0294 -0.2160
   76SOL    HW1  227   1.650   1.196   2.570 -1.6090 -0.2224 -2.6625
   76SOL    HW2  228   1.738   1.342   2.622  1.3589 -3.3699 -0.4556
   77SOL     OW  229   2.931   0.985   0.993 -0.1678 -0.2685  0.5209
   77SOL    HW1  230   2.946   0.886   0.974  2.7755  2.3197  3.8640
   77SOL    HW2  231   2.978   1.020   1.081  2.0730 -1.5955 -1.6503
   78SOL     OW  232   1.972   1.414   1.514  0.5700 -0.0204 -0.4881
   78SOL    HW1  233   2.065   1.429   1.476 -0.7925  2.2978  0.8665
   78SOL    HW2  234   1.917   1.361   1.450  2.4470  0.7460 -1.2649
   79SOL     OW  235   0.600   1.357   0.823  0.2180 -0.0605  0.4264
   79SOL    HW1  236   0.517   1.401   0.872 -0.1929 -0.1535  0.6818
   79SOL    HW2  237   0.574   1.302   0.739  1.0562 -0.7695  0.4812
   80SOL     OW  238   0.650   0.495   1.585 -0.1601 -0.3437 -0.2994
   80SOL    HW1  239   0.709   0.556   1.525  1.1649  0.6958  0.4923
   80SOL    HW2  240   0.693   0.400   1.599 -0.0165 -1.2576 -0.0553
   81SOL     OW  241   0.989   1.363   2.615  0.2261 -0.1059 -0.0807
   81SOL    HW1  242   1.058   1.295   2.594 -0.6359  2.0524 -1.2968
   81SOL    HW2  243   0.945   1.404   2.527  1.0474 -0.5213  0.0656
   82SOL     OW  244   0.966   2.963   1.541  0.1036 -0.2433 -0.5439
   82SOL    HW1  245   1.029   2.936   1.464  0.7351  0.0012  1.4875
   82SOL    HW2  246   0.870   2.915   1.536  2.8671 -0.2164  0.6134
   83SOL     OW  247   2.705   2.469   0.779 -0.2861 -0.4040  0.1921
   83SOL    HW1  248   2.632   2.413   0.728  0.8045 -3.1552 -1.3455
   83SOL    HW2  249   2.696   2.569   0.772 -4.0525 -2.2570 -3.0639
   84SOL     OW  250   0.693   3.094   2.396  0.1361 -0.0285 -0.7052
   84SOL    HW1  251   0.604   3.042   2.408  2.6106 -3.6892  0.2883
   84SOL    HW2  252   0.774   3.031   2.421  5.0217  1.2205  1.3016
   85SOL     OW  253   0.429   1.681   1.522 -0.5855 -0.1654  0.5024
   85SOL    HW1  254   0.348   1.741   1.504 -0.3478 -1.3496 -2.0250
   85SOL    HW2  255   0.423   1.637   1.614  0.2629  0.9299 -1.6200
   86SOL     OW  256   0.363   0.989   1.503  0.0492 -0.2068  0.4017
   86SOL    HW1  257   0.344   0.929   1.423  0.3918  0.9040 -0.7837
   86SOL    HW2  258   0.376   0.936   1.590 -0.3602 -0.3785  1.3371
   87SOL     OW  259   1.524   0.636   0.238  0.0222  0.2861  0.2252
   87SOL    HW1  260   1.594   0.710   0.266  1.6956  0.9422  0.6480
   87SOL    HW2  261   1.514   0.620   0.137  1.6413  2.5501  0.3405
   88SOL     OW  262   1.568   1.308   0.189  0.3472  0.5822 -0.1199
   88SOL    HW1  263   1.594   1.218   0.236 -0.1273 -0.1196  0.7996
   88SOL    HW2  264   1.468   1.321   0.208 -1.1252  0.0102  0.9678
   89SOL     OW  265   3.095   0.444   0.552  1.0497  0.3828 -0.3502
   89SOL    HW1  266   3.147   0.353   0.573  1.9293  0.3540  0.1580
   89SOL    HW2  267   2.996   0.427   0.549  2.4910  0.9622  0.6038
   90SOL     OW  268   0.953   1.632   3.014 -0.2482 -0.5020  0.0331
   90SOL    HW1  269   0.864   1.605   3.063  1.8609 -1.7939  0.3816
   90SOL    HW2  270   0.934   1.670   2.917  1.4235 -0.3227 -1.0314
   91SOL     OW  271   1.266   1.486   1.789 -0.3594 -0.0149 -0.3667
   91SOL    HW1  272   1.280   1.576   1.848  2.3568 -0.3869  3.7485
   91SOL    HW2  273   1.353   1.452   1.747  0.0178  1.4272 -0.3730
   92SOL     OW  274   3.062   1.042   1.206 -0.4054 -0.7040  0.0884
   92SOL    HW1  275   3.145   1.094   1.173 -1.2280  1.3966 -0.8189
   92SOL    HW2  276   3.076   0.977   1.283 -2.2113 -0.0252 -0.4846
   93SOL     OW  277  -0.000   2.740   0.060 -0.3538  0.1638 -0.0140
   93SOL    HW1  278  -0.028   2.762  -0.040 -1.7578  3.2655  0.1432
   93SOL    HW2  279   0.071   2.660   0.076  0.3866 -1.6888  0.1033
   94SOL     OW  280   1.534   1.392   1.692  0.0115  0.6160  0.4296
   94SOL    HW1  281   1.596   1.309   1.691  0.4891  2.7923  0.4418
   94SOL    HW2  282   1.580   1.475   1.737  1.6486  1.2327 -1.2903
   95SOL     OW  283   1.303   2.485   2.967 -0.3976  0.2955  0.6859
   95SOL    HW1  284   1.227   2.490   3.040  2.0573  0.4908 -0.2336
   95SOL    HW2  285   1.324   2.391   2.932  0.3855  3.6081  0.5556
   96SOL     OW  286   0.572   1.999   1.195  0.7781  0.8010 -0.4340
   96SOL    HW1  287   0.506   2.047   1.126  1.1028 -0.8291 -2.3689
   96SOL    HW2  288   0.536   1.899   1.203  0.6613  2.1914 -1.6126
   97SOL     OW  289   0.377   1.505   2.530 -0.0649  0.5498 -0.0065
   97SOL    HW1  290   0.278   1.508   2.554  0.7522  2.7488 -0.3092
   97SOL    HW2  291   0.421   1.588   2.578 -1.6897  1.8846  1.1736
   98SOL     OW  292   1.981   1.635   1.278  0.0369 -0.6407  0.0018
   98SOL    HW1  293   1.928   1.588   1.196 -1.9956 -1.1726 -2.6255
   98SOL    HW2  294   2.020   1.566   1.344 -0.8200 -2.3073 -3.0116
   99SOL     OW  295   2.500   2.134   1.367 -0.3660 -0.1027 -0.1919
   99SOL    HW1  296   2.450   2.206   1.419 -1.2281 -2.0438  1.7662
   99SOL    HW2  297   2.474   2.038   1.389  1.3244  0.3084 -0.2966
  100SOL     OW  298   2.318   0.377   2.030 -0.2345  0.2965  0.5272
  100SOL    HW1  299   2.267   0.371   2.118  1.2784 -0.3070 -1.1780
  100SOL    HW2  300   2.414   0.393   2.048 -1.6325 -2.0444 -0.5640
  101SOL     OW  301   0.371   1.505   0.271  0.2770 -0.4942 -0.1362
  101SOL    HW1  302   0.444   1.503   0.342 -3.0194 -2.5415 -0.2387
  101SOL    HW2  303   0.384   1.581   0.203  2.3321 -2.5585  0.1033
  102SOL     OW  304   2.306   1.067   0.808  0.2511 -0.5069 -0.2355
  102SOL    HW1  305   2.220   1.005   0.801 -1.5400 -0.8106  1.7687
  102SOL    HW2  306   2.326   1.126   0.731 -1.9236 -1.6571  1.9369
  103SOL     OW  307   2.295   0.042   0.402 -0.4051  0.1736 -0.2289
  103SOL    HW1  308   2.343   0.112   0.348 -1.1403  0.4284  1.8910
  103SOL    HW2  309   2.357   0.011   0.483  2.2450  1.3136 -0.8301
  104SOL     OW  310   0.061   1.850   2.114 -0.0708 -0.5841  0.3714
  104SOL    HW1  311   0.106   1.815   2.025  1.1724 -0.7755 -2.0457
  104SOL    HW2  312  -0.039   1.838   2.131  2.0903 -0.2052  2.5070
  105SOL     OW  313   1.226   1.983   0.802  0.4446 -0.0862 -0.8047
  105SOL    HW1  314   1.150   1.997   0.733 -0.3017 -0.0637 -0.2349
  105SOL    HW2  315   1.279   1.893   0.787  1.0152  0.3455  0.0108
  106SOL     OW  316   2.087   0.473   1.383  0.3450  0.8106  0.1922
  106SOL    HW1  317   2.027   0.393   1.419  2.1876  0.0172  3.5813
  106SOL    HW2  318   2.087   0.550   1.455  0.8361 -0.3741  2.2890
  107SOL     OW  319   1.803   3.009   1.072  0.1606 -0.1863  0.4458
  107SOL    HW1  320   1.862   3.081   1.119 -1.4849 -0.0180  2.0136
  107SOL    HW2  321   1.747   2.957   1.140 -0.2973  0.5183  0.6199
  108SOL     OW  322   0.791   2.712   1.290  0.6200  0.8313  0.4190
  108SOL    HW1  323   0.775   2.767   1.375  2.5709  1.8897 -1.5538
  108SOL    HW2  324   0.853   2.634   1.308 -0.8757  2.6154 -0.2935
  109SOL     OW  325   2.183   0.108   0.819  0.2710 -0.1688  0.5451
  109SOL    HW1  326   2.094   0.087   0.773  0.9185 -0.7668  0.8234
  109SOL    HW2  327   2.190   0.075   0.918 -0.5533  1.6864 -0.3025
  110SOL     OW  328   0.459   2.818   2.690 -0.2355 -0.2692 -0.7178
  110SOL    HW1  329   0.494   2.871   2.611 -0.3643 -0.7268 -3.0479
  110SOL    HW2  330   0.532   2.766   2.742  2.2884  2.8384  1.7803
  111SOL     OW  331   1.302   0.540   2.270 -0.0117 -0.1825 -0.5102
  111SOL    HW1  332   1.235   0.585   2.341  1.4496 -0.1563  3.3740
  111SOL    HW2  333   1.339   0.446   2.295 -0.1278 -1.0887 -0.1260
  112SOL     OW  334   1.750   0.513   1.417  0.0952 -0.2681  0.2980
  112SOL    HW1  335   1.731   0.498   1.317 -2.6743 -1.2901  0.0851
  112SOL    HW2  336   1.739   0.430   1.478 -1.5087  3.6860  2.3953
  113SOL     OW  337   2.320   1.626   1.729 -0.6877  0.5140  0.2362
  113SOL    HW1  338   2.365   1.535   1.720 -0.7655  2.5187  1.1911
  113SOL    HW2  339   2.323   1.672   1.826  3.3825  3.3450  1.1479
  114SOL     OW  340   0.306   0.544   1.316  0.1217 -0.2947 -0.2935
  114SOL    HW1  341   0.343   0.626   1.268 -0.5261  1.3258  1.0911
  114SOL    HW2  342   0.237   0.491   1.257 -2.2743 -1.5943  0.7613
  115SOL     OW  343   2.623   1.572   1.214  0.3990 -0.5952 -0.2188
  115SOL    HW1  344   2.670   1.482   1.242  1.5182  0.5142  1.2562
  115SOL    HW2  345   2.687   1.628   1.156 -1.6650 -1.6216  0.6243
  116SOL     OW  346   1.804   1.037   0.805 -0.0459 -0.2836 -0.2180
  116SOL    HW1  347   1.743   0.993   0.739  0.1782  2.8258  2.1383
  116SOL    HW2  348   1.797   1.139   0.802 -1.4103 -0.6024 -0.6988
  117SOL     OW  349   1.109   0.342   0.711 -0.0390 -0.1750  0.3416
  117SOL    HW1  350   1.143   0.303   0.803 -1.0595  0.1017  2.4268
  117SOL    HW2  351   1.114   0.443   0.705 -0.0989 -1.9555  0.4968
  118SOL     OW  352   1.120   1.111   1.142 -0.1894  0.8600 -0.2059
  118SOL    HW1  353   1.085   1.020   1.181 -0.9587 -1.4809  0.6865
  118SOL    HW2  354   1.071   1.189   1.188  2.8547 -0.5849 -1.0453
  119SOL     OW  355   1.820   1.617   2.100 -0.2083 -0.3209  0.5533
  119SOL    HW1  356   1.796   1.718   2.115  0.2926  2.9124  1.1167
  119SOL    HW2  357   1.928   1.608   2.106 -0.2400  1.7343 -0.2303
  120SOL     OW  358   2.974   2.807   0.308  0.1989 -0.1028 -0.1273
  120SOL    HW1  359   3.003   2.781   0.214 -4.0061 -0.1856 -0.4387
  120SOL    HW2  360   2.942   2.720   0.359 -1.4385 -1.4466  1.8323
  121SOL     OW  361   1.991   0.717   2.220 -0.1635  0.1033  0.3108
  121SOL    HW1  362   2.059   0.752   2.151 -1.3224 -1.9162  1.6943
  121SOL    HW2  363   1.974   0.615   2.210 -2.1725 -0.5209 -0.8680
  122SOL     OW  364   2.722   2.605   1.308 -0.1314  0.5157 -0.2511
  122SOL    HW1  365   2.750   2.585   1.211 -0.6425 -0.9795 -3.9477
  122SOL    HW2  366   2.654   2.538   1.343  0.0893  4.1080 -1.4741
  123SOL     OW  367   1.736   0.058   1.722  0.0854  0.4174 -0.1402
  123SOL    HW1  368   1.760   0.012   1.631  0.3721  0.2189 -0.7537
  123SOL    HW2  369   1.821   0.066   1.780  3.0897  0.4880  1.0003
  124SOL     OW  370   0.107   0.487   1.073  0.1503  0.3574  0.2363
  124SOL    HW1  371   0.082   0.568   1.136 -0.4751  0.8858  1.6455
  124SOL    HW2  372   0.063   0.490   0.971 -1.1303 -1.1609 -1.5728
  125SOL     OW  373   0.904   1.776   0.665  0.8541 -0.7023 -0.1911
  125SOL    HW1  374   0.997   1.739   0.635  1.8246 -3.3756 -1.0205
  125SOL    HW2  375   0.889   1.764   0.770  0.6631 -2.1165 -0.4146
  126SOL     OW  376   1.922   2.369   2.400  0.1872 -0.6484  0.1545
  126SOL    HW1  377   1.976   2.330   2.319  1.4164 -1.0915  0.3071
  126SOL    HW2  378   1.853   2.297   2.434 -0.4407  0.4024  0.4394
  127SOL     OW  379   0.776   0.964   0.228 -0.0309  0.4566  0.6566
  127SOL    HW1  380   0.856   0.989   0.292  2.4940 -0.5083 -0.7833
  127SOL    HW2  381   0.769   0.861   0.223 -0.4186 -1.1821 -1.2373
  128SOL     OW  382   0.941   0.166   1.425 -0.1403  0.2695 -0.7141
  128SOL    HW1  383   0.883   0.237   1.382  1.4189 -1.2132  0.9405
  128SOL    HW2  384   0.922   0.069   1.397 -1.7786  0.4398  1.4095
  129SOL     OW  385   1.894   0.671   1.852  0.1923 -0.2575 -0.1997
  129SOL    HW1  386   1.906   0.688   1.748 -0.2461 -1.9827  0.7801
  129SOL    HW2  387   1.901   0.765   1.891  2.3855  1.1454 -0.6143
  130SOL     OW  388   1.314   2.141   1.022 -0.0665  1.0560  0.3155
  130SOL    HW1  389   1.256   2.097   0.948 -0.2211 -0.1449  0.3044
  130SOL    HW2  390   1.372   2.221   0.993 -0.7955 -1.3908  1.5057
  131SOL     OW  391   0.016   1.515   1.371 -0.2544 -0.5466  0.6358
  131SOL    HW1  392  -0.042   1.430   1.365  2.6289 -0.5570  0.0103
  131SOL    HW2  393   0.115   1.496   1.393  0.1986 -1.5178 -1.4852
  132SOL     OW  394   2.004   2.425   0.541  0.6694 -0.0291  0.0518
  132SOL    HW1  395   1.898   2.426   0.540  0.2538  0.4811 -0.8346
  132SOL    HW2  396   2.049   2.393   0.633  0.9825 -2.7018  0.6522
  133SOL     OW  397   1.861   2.267   2.901  0.0491 -0.1256 -1.0954
  133SOL    HW1  398   1.895   2.331   2.978  2.3394  0.1742 -1.0371
  133SOL    HW2  399   1.815   2.317   2.825  1.7295  1.1371  2.6730
  134SOL     OW  400   2.727   2.356   1.628  0.4571 -0.2291  0.0806
  134SOL    HW1  401   2.676   2.319   1.713 -0.4441 -0.1921  0.4149
  134SOL    HW2  402   2.810   2.419   1.640  0.4976 -0.5868  0.4549
  135SOL     OW  403   0.730   1.524   2.599 -0.4223  0.4732 -0.0457
  135SOL    HW1  404   0.726   1.430   2.656  2.6326 -1.4827  0.5902
  135SOL    HW2  405   0.783   1.511   2.512  3.3401 -2.7892 -3.2223
  136SOL     OW  406   1.197   2.025   0.459 -0.6626  0.0562 -0.2641
  136SOL    HW1  407   1.123   2.071   0.517  0.1738  1.1126 -0.8008
  136SOL    HW2  408   1.163   1.937   0.414  1.3758 -2.0903 -1.6369
  137SOL     OW  409   0.408   1.096   2.146  0.1154  1.0599 -0.7085
  137SOL    HW1  410   0.303   1.087   2.163 -1.4099 -3.8722 -1.8801
  137SOL    HW2  411   0.464   1.043   2.217  0.0102 -0.0998 -2.3853
  138SOL     OW  412   2.451   1.499   0.180 -0.3838 -0.1892  0.0776
  138SOL    HW1  413   2.346   1.497   0.166 -1.1997 -2.2671  0.4978
  138SOL    HW2  414   2.483   1.418   0.242  0.2559  0.1698  0.8811
  139SOL     OW  415   1.803   2.651   1.204  0.2355  0.1570  0.1886
  139SOL    HW1  416   1.709   2.617   1.176  0.3042  2.2878  0.3187
  139SOL    HW2  417   1.864   2.577   1.236 -2.2323  3.1119  1.0252
  140SOL     OW  418   2.989   2.969   2.493 -0.0526  0.2960  0.8164
  140SOL    HW1  419   3.039   2.882   2.508  1.6140  0.0044 -0.6177
  140SOL    HW2  420   3.041   3.057   2.511 -4.2700  0.8668  1.2738
  141SOL     OW  421   1.234   1.666   1.589  0.0439  0.0973  0.8053
  141SOL    HW1  422   1.159   1.725   1.639 -1.4388 -0.8758  2.0289
  141SOL    HW2  423   1.258   1.582   1.650  0.9113 -2.0218  0.8242
  142SOL     OW  424   1.596   0.624   2.230  0.8103  0.3788 -0.1824
  142SOL    HW1  425   1.619   0.607   2.132 -0.3046  0.8638 -0.2967
  142SOL    HW2  426   1.497   0.598   2.252 -2.8096 -1.2292 -1.5148
  143SOL     OW  427   2.719   0.880   0.502  0.0770 -0.2677 -0.1820
  143SOL    HW1  428   2.758   0.924   0.414 -2.9935  0.6770 -3.2055
  143SOL    HW2  429   2.768   0.899   0.590  1.0646 -0.3867  0.9238
  144SOL     OW  430   2.978   1.281   1.347 -0.4157  0.2502  0.8480
  144SOL    HW1  431   2.958   1.251   1.445 -1.1382  1.4547  0.4196
  144SOL    HW2  432   2.995   1.198   1.288 -0.8399  1.2691 -0.9435
  145SOL     OW  433   1.044   1.852   0.059 -0.4603 -0.1200  0.3642
  145SOL    HW1  434   1.043   1.946   0.020 -1.1246 -1.8536  0.7572
  145SOL    HW2  435   0.997   1.782  -0.001 -0.4921 -0.5172 -0.6129
  146SOL     OW  436   2.475   0.629   1.527 -0.7333 -0.3708  0.2330
  146SOL    HW1  437   2.440   0.560   1.458 -0.2145 -0.1693  2.6739
  146SOL    HW2  438   2.430   0.726   1.515  0.9048  3.5344  3.0851
  147SOL     OW  439   1.058   2.502   0.596  0.8134 -0.6432 -0.0357
  147SOL    HW1  440   1.047   2.566   0.511 -0.0863  2.1799 -2.2572
  147SOL    HW2  441   1.139   2.440   0.592  0.1744 -1.2143 -2.1635
  148SOL     OW  442   1.637   1.454   3.079 -0.2128  0.4033 -0.5889
  148SOL    HW1  443   1.636   1.396   2.996  2.0030  2.2249 -2.7408
  148SOL    HW2  444   1.599   1.414   3.170 -1.4043 -0.4657  0.5704
  149SOL     OW  445   0.695   1.420   1.940 -0.3633 -0.1714 -0.2973
  149SOL    HW1  446   0.611   1.376   1.986  0.4555 -1.5768 -1.3892
  149SOL    HW2  447   0.743   1.358   1.869  0.0282 -0.3789 -0.5214
  150SOL     OW  448   2.962   1.259   0.914  0.2215 -0.3446 -0.2629
  150SOL    HW1  449   3.019   1.308   0.987  3.3678 -1.2906 -1.4418
  150SOL    HW2  450   2.923   1.171   0.949  1.3016 -0.4856 -1.5057
  151SOL     OW  451   0.195   0.767   2.153 -0.3347 -0.1243 -0.3687
  151SOL    HW1  452   0.160   0.841   2.096 -0.5930  0.0324 -0.7923
  151SOL    HW2  453   0.280   0.723   2.116  1.3059 -1.5582 -0.6074
  152SOL     OW  454   1.378   1.730   1.260 -0.4995 -0.2242 -0.1674
  152SOL    HW1  455   1.414   1.811   1.317 -0.0195 -1.6852  1.8126
  152SOL    HW2  456   1.294   1.759   1.207 -0.4100 -0.2206 -0.6403
  153SOL     OW  457   0.035   1.537   0.160  0.1535 -0.0468  0.6111
  153SOL    HW1  458   0.044   1.436   0.134 -1.1838  1.6156  0.6474
  153SOL    HW2  459   0.085   1.564   0.243 -0.3700  1.4299 -0.1749
  154SOL     OW  460   2.373   1.859   2.823 -0.1245 -0.6202  0.2272
  154SOL    HW1  461   2.424   1.780   2.874 -0.5733  0.3802  3.3246
  154SOL    HW2  462   2.393   1.859   2.720  0.4407 -1.4792 -0.8764
  155SOL     OW  463   2.504   1.263   0.325  0.0130  0.5277 -0.1214
  155SOL    HW1  464   2.589   1.243   0.273 -0.5009 -0.7144  1.1054
  155SOL    HW2  465   2.424   1.204   0.314 -0.9590  0.6089 -0.0195
  156SOL     OW  466   2.549   0.946   0.877 -0.1418  0.2455 -0.1912
  156SOL    HW1  467   2.453   0.986   0.864 -2.4167 -2.2367 -0.1915
  156SOL    HW2  468   2.626   1.013   0.866 -1.0255 -2.1548  1.7353
  157SOL     OW  469   1.201   2.988   2.977 -0.5135 -0.2952  0.0227
  157SOL    HW1  470   1.279   2.939   2.922 -0.6503 -5.4207  0.3348
  157SOL    HW2  471   1.228   3.086   2.998 -1.7442  0.9568 -1.0194
  158SOL     OW  472   1.036   1.846   2.009 -0.4675 -0.2376 -0.4284
  158SOL    HW1  473   1.070   1.905   2.087  0.1438  0.7170 -1.0973
  158SOL    HW2  474   0.937   1.831   2.006  1.9366 -3.5362 -1.6856
  159SOL     OW  475   0.857   0.416   1.283 -0.0131  0.5306  0.1914
  159SOL    HW1  476   0.855   0.512   1.326  1.4464 -1.5480  2.2477
  159SOL    HW2  477   0.780   0.402   1.215  0.3311  0.3431 -0.5778
  160SOL     OW  478   1.478   2.484   1.641 -0.1843  0.0646  0.0894
  160SOL    HW1  479   1.470   2.575   1.593  0.4894 -0.9660 -0.8549
  160SOL    HW2  480   1.557   2.432   1.609  0.2995  0.1722 -2.3503
  161SOL     OW  481   0.183   2.901   0.353  0.8882 -0.1182 -0.1332
  161SOL    HW1  482   0.097   2.851   0.395 -4.8003 -1.1141  2.3404
  161SOL    HW2  483   0.167   2.991   0.301 -2.1739 -0.6177 -0.2160
  162SOL     OW  484   2.601   1.903   0.523 -0.0942 -0.2672 -0.1430
  162SOL    HW1  485   2.604   1.857   0.432  0.4859  0.9657 -0.6185
  162SOL    HW2  486   2.576   1.850   0.612  2.4796  0.9771  2.0795
  163SOL     OW  487   1.958   2.660   0.715 -0.0405 -0.1055 -0.2239
  163SOL    HW1  488   1.902   2.661   0.629 -1.5244 -0.1487 -0.6926
  163SOL    HW2  489   2.053   2.617   0.704  1.5481  1.9066 -2.4270
  164SOL     OW  490   3.042   0.294   1.220 -0.1971 -0.4720  0.8014
  164SOL    HW1  491   3.110   0.342   1.154  0.8523 -0.0749 -1.2395
  164SOL    HW2  492   3.064   0.313   1.320  1.4634  1.3156  1.8055
  165SOL     OW  493   0.992   1.455   0.682 -0.4808 -0.2548  0.1922
  165SOL    HW1  494   0.934   1.469   0.769  1.7072 -2.7993 -0.6526
  165SOL    HW2  495   0.958   1.505   0.596 -1.9964 -0.3325 -0.1382
  166SOL     OW  496   1.454   1.070   1.759  0.3912 -0.2360  0.1583
  166SOL    HW1  497   1.357   1.049   1.795 -0.1037  1.3449 -0.5072
  166SOL    HW2  498   1.522   1.113   1.828  1.8099  2.2990  3.1700
  167SOL     OW  499   0.842   1.932   1.527 -0.3861 -0.4521  0.0444
  167SOL    HW1  500   0.815   1.986   1.611 -0.1035  0.6207 -0.4576
  167SOL    HW2  501   0.781   1.847   1.509 -2.2612  0.6897 -1.3666
  168SOL     OW  502   1.588   2.385   0.168  0.9530  0.4301 -0.0061
  168SOL    HW1  503   1.669   2.447   0.146  0.2306  0.2947  1.6891
  168SOL    HW2  504   1.621   2.296   0.209 -1.1002  3.1458 -0.4254
  169SOL     OW  505   0.188   2.610   2.220  0.6903 -0.0719  0.0219
  169SOL    HW1  506   0.224   2.559   2.134  0.3894 -1.3188 -2.3696
  169SOL    HW2  507   0.200   2.553   2.309  1.5368  1.0629  0.9581
  170SOL     OW  508   1.258   0.285   1.918 -0.4299 -0.2380 -0.1468
  170SOL    HW1  509   1.263   0.239   2.012  1.4720 -1.6272  0.0503
  170SOL    HW2  510   1.218   0.230   1.842 -0.3520  0.6907  1.3247
  171SOL     OW  511   0.232   0.761   2.428 -0.4700 -0.5717 -0.0697
  171SOL    HW1  512   0.162   0.787   2.498 -0.4192  1.7173  0.4515
  171SOL    HW2  513   0.201   0.758   2.327 -1.5280  1.5905 -4.7659
  172SOL     OW  514   0.865   1.150   2.928 -0.4248 -0.3768  0.4184
  172SOL    HW1  515   0.960   1.195   2.944  0.6783  0.6361  1.3627
  172SOL    HW2  516   0.861   1.096   2.836  2.2313 -0.3530 -0.3843
  173SOL     OW  517   0.645   2.670   0.147 -0.1192 -0.2268 -0.1639
  173SOL    HW1  518   0.619   2.771   0.136 -1.9477 -3.0639  1.9793
  173SOL    HW2  519   0.563   2.606   0.130 -0.6652  0.2061 -1.9764
  174SOL     OW  520   1.399   2.806   1.052 -0.1316  0.3512 -0.3783
  174SOL    HW1  521   1.383   2.888   0.993  0.8834 -2.1529  1.2864
  174SOL    HW2  522   1.319   2.738   1.045 -0.1494  1.1525  0.1801
  175SOL     OW  523   0.416   0.001   1.666  1.1746  0.5613  0.1236
  175SOL    HW1  524   0.485   0.019   1.742  3.0295 -1.2117  1.8552
  175SOL    HW2  525   0.349   0.082   1.654  0.9803  1.5633 -1.5946
  176SOL     OW  526   2.502   0.419   3.061  0.1545  0.2184 -0.3195
  176SOL    HW1  527   2.529   0.496   3.128 -0.2622  2.2568  0.9851
  176SOL    HW2  528   2.420   0.350   3.076 -0.9865  1.6820  0.6370
  177SOL     OW  529   0.389   0.343   0.943 -0.6548 -0.8043  0.2841
  177SOL    HW1  530   0.404   0.277   1.025  1.5562  0.3428  0.0863
  177SOL    HW2  531   0.309   0.412   0.954  1.5156  0.6462 -2.7299
  178SOL     OW  532   0.046   2.698   2.582  0.6381  0.4295  0.0892
  178SOL    HW1  533  -0.037   2.654   2.626 -0.9540 -1.1729 -1.0832
  178SOL    HW2  534   0.126   2.711   2.647 -0.2690  2.6010 -1.4937
  179SOL     OW  535   0.023   1.708   1.169  0.1097  0.6943 -0.4226
  179SOL    HW1  536  -0.048   1.780   1.187 -1.7977 -1.1825  0.9600
  179SOL    HW2  537   0.009   1.627   1.241 -1.3085  0.5268 -0.0921
  180SOL     OW  538   0.214   1.250   1.825 -0.0178 -0.8317  0.1228
  180SOL    HW1  539   0.318   1.257   1.791  0.4292 -0.6912 -2.0199
  180SOL    HW2  540   0.185   1.324   1.889 -3.0324  0.0974 -3.7481
  181SOL     OW  541   3.040   1.833   2.568  0.0050  0.1946  0.2236
  181SOL    HW1  542   3.123   1.862   2.519 -0.5676  3.3330 -1.3306
  181SOL    HW2  543   2.948   1.872   2.539  4.6867 -2.2905  1.0439
  182SOL     OW  544   2.331   1.243   1.175 -0.0755  1.1152 -0.8544
  182SOL    HW1  545   2.249   1.189   1.141  0.8422  1.4636 -0.1655
  182SOL    HW2  546   2.317   1.340   1.153 -0.7224 -2.1493  0.3610
  183SOL     OW  547   1.499   2.274   2.532  0.5268  0.4711 -0.7108
  183SOL    HW1  548   1.451   2.197   2.577 -0.3987 -1.7072  0.2492
  183SOL    HW2  549   1.585   2.249   2.488 -0.7568 -1.6315  1.0698
  184SOL     OW  550   2.069   0.930   0.811  0.3260 -0.0143  0.2838
  184SOL    HW1  551   1.982   0.984   0.796  0.2674  1.0790 -0.0304
  184SOL    HW2  552   2.054   0.839   0.854  1.3207  0.0674 -3.2222
  185SOL     OW  553   1.641   2.665   2.104 -0.1115 -0.1777  0.1491
  185SOL    HW1  554   1.626   2.762   2.078 -2.0476  0.9025  0.0211
  185SOL    HW2  555   1.649   2.657   2.209  0.6874  0.1813  0.2582
  186SOL     OW  556   0.115   2.199   1.735 -0.8723 -0.2282 -0.4295
  186SOL    HW1  557   0.157   2.294   1.709 -2.7982  0.2972 -0.2878
  186SOL    HW2  558   0.187   2.124   1.745  0.7419  0.5116 -0.3177
  187SOL     OW  559   1.385   0.690   1.672 -0.8331  0.5929  0.0330
  187SOL    HW1  560   1.419   0.766   1.613  1.8524 -0.2246  1.6712
  187SOL    HW2  561   1.400   0.712   1.771 -0.2931  0.6175  2.1954
  188SOL     OW  562   2.769   2.799   1.531  0.3958 -0.2952 -0.5785
  188SOL    HW1  563   2.764   2.895   1.486  0.3636 -0.1914  0.4796
  188SOL    HW2  564   2.743   2.725   1.459 -0.7660  0.1780 -0.2545
  189SOL     OW  565   0.836   0.994   1.412  0.4238 -0.0179 -0.6967
  189SOL    HW1  566   0.894   1.084   1.420 -0.1995  0.9845  1.5310
  189SOL    HW2  567   0.766   0.984   1.333  0.8018  3.0146  0.7774
  190SOL     OW  568   1.507   1.743   1.572  0.1963  1.2473  0.2294
  190SOL    HW1  569   1.412   1.709   1.540  0.1565  5.4461 -2.0535
  190SOL    HW2  570   1.502   1.783   1.665 -0.0074  2.5647 -1.5643
  191SOL     OW  571   1.000   0.773   1.555 -0.2456 -0.4066  0.1239
  191SOL    HW1  572   1.053   0.685   1.563  1.3287 -0.2556 -2.5562
  191SOL    HW2  573   1.071   0.848   1.561 -0.0278 -1.9486 -0.4634
  192SOL     OW  574   1.839   2.299   1.179 -0.1613  0.0522 -0.4578
  192SOL    HW1  575   1.736   2.287   1.167 -0.2152 -1.0560 -0.7864
  192SOL    HW2  576   1.885   2.333   1.094 -0.2645  3.2171  3.8081
  193SOL     OW  577   0.514   0.554   0.393 -0.1691  0.1287  0.0512
  193SOL    HW1  578   0.488   0.456   0.417 -0.9018 -0.2619  1.0754
  193SOL    HW2  579   0.511   0.568   0.293 -1.7856  0.3988  2.7731
  194SOL     OW  580   0.310   0.823   1.231  0.1391  0.2073 -0.2206
  194SOL    HW1  581   0.211   0.792   1.233 -0.8643  1.1773  0.7329
  194SOL    HW2  582   0.320   0.909   1.166  1.2224  1.6574 -0.4524
  195SOL     OW  583   0.960   2.916   0.441 -0.0166  0.1866 -0.1544
  195SOL    HW1  584   0.976   2.820   0.406 -0.4643  3.1954  2.7477
  195SOL    HW2  585   1.051   2.964   0.464 -0.3156 -0.9819 -4.3043
  196SOL     OW  586   0.278   1.452   1.422  0.3608  0.2196  0.1422
  196SOL    HW1  587   0.338   1.506   1.483 -0.5362  0.5878  0.8129
  196SOL    HW2  588   0.266   1.356   1.457 -0.2298  0.3382  0.0941
  197SOL     OW  589   0.886   2.026   0.250  1.0885 -0.1621 -0.6054
  197SOL    HW1  590   0.846   2.017   0.345 -0.5084 -2.2891 -1.5797
  197SOL    HW2  591   0.939   1.943   0.223  0.4737  2.4937 -2.2460
  198SOL     OW  592   0.261   1.254   0.255 -0.3543  0.4065  0.1593
  198SOL    HW1  593   0.160   1.261   0.233  3.0682  0.8898 -1.6308
  198SOL    HW2  594   0.308   1.345   0.265  1.1715 -0.1657 -0.3116
  199SOL     OW  595   2.266   0.367   2.523 -0.0956  0.2305 -0.8011
  199SOL    HW1  596   2.216   0.328   2.612 -2.0159  0.8086 -0.6651
  199SOL    HW2  597   2.367   0.347   2.527 -1.5229 -2.1921 -1.0482
  200SOL     OW  598   3.098   2.950   0.734  0.1260  0.8367 -0.3888
  200SOL    HW1  599   3.014   2.979   0.677 -0.9852 -0.4568 -2.2739
  200SOL    HW2  600   3.151   3.027   0.787  0.4628  1.8195  2.0193
  201SOL     OW  601   1.143   0.725   0.580  0.4036  0.5701  0.7369
  201SOL    HW1  602   1.157   0.816   0.628  1.9965 -0.6425  3.1917
  201SOL    HW2  603   1.042   0.697   0.576 -3.3793  2.2210  1.6654
  202SOL     OW  604   0.483   1.258   1.727  0.4038 -0.0620  0.1249
  202SOL    HW1  605   0.514   1.263   1.625 -1.6022  0.4923 -1.9388
  202SOL    HW2  606   0.561   1.227   1.782  1.7228 -1.2867  0.5111
  203SOL     OW  607   0.680   0.209   1.584 -0.1859 -0.3183  0.5017
  203SOL    HW1  608   0.645   0.151   1.511  0.8909 -1.8503  1.4289
  203SOL    HW2  609   0.756   0.163   1.632  0.5745 -3.3430  0.1817
  204SOL     OW  610   2.082   1.833   3.028  0.0883 -0.0661  0.1036
  204SOL    HW1  611   2.102   1.742   2.988  3.9071 -0.7084  1.1204
  204SOL    HW2  612   2.049   1.907   2.968 -1.5824  3.2561  1.0355
  205SOL     OW  613   1.854   1.882   0.080  0.2665 -0.5177  0.3814
  205SOL    HW1  614   1.929   1.839   0.019 -1.3978 -1.1003 -0.2141
  205SOL    HW2  615   1.805   1.963   0.039 -2.4333  0.8062 -1.9078
  206SOL     OW  616   2.553   2.831   0.419 -0.6528  0.0043  0.1311
  206SOL    HW1  617   2.609   2.742   0.424  1.3299 -2.2965 -0.1068
  206SOL    HW2  618   2.572   2.882   0.331 -0.1566 -0.6447 -1.3685
  207SOL     OW  619   0.628   1.740   2.895 -0.1516  0.5808 -0.3926
  207SOL    HW1  620   0.724   1.712   2.859  0.7690 -0.4624  0.0064
  207SOL    HW2  621   0.564   1.659   2.931 -2.0305 -0.6990  0.1891
  208SOL     OW  622   1.022   1.516   1.447 -0.0634  0.5562 -0.0733
  208SOL    HW1  623   0.958   1.567   1.386  0.9117 -0.7943 -0.8087
  208SOL    HW2  624   1.098   1.577   1.477  0.2997  2.0260  1.8674
  209SOL     OW  625   0.260   0.943   3.029  0.9880  0.1914 -0.4743
  209SOL    HW1  626   0.291   0.887   2.950 -0.6025  1.4801  1.1151
  209SOL    HW2  627   0.245   0.888   3.117  0.1091 -0.4144 -0.9099
  210SOL     OW  628   1.722   0.507   1.136 -0.1001  0.2538  0.5767
  210SOL    HW1  629   1.676   0.563   1.063  1.0249 -2.7941  0.6660
  210SOL    HW2  630   1.827   0.519   1.138  1.2034 -1.1365  0.4289
  211SOL     OW  631   2.168   1.055   1.654 -0.2218  0.1293 -0.2449
  211SOL    HW1  632   2.223   1.037   1.742 -2.7729 -1.3184 -0.6158
  211SOL    HW2  633   2.224   1.086   1.573 -1.4393  1.7838 -3.6342
  212SOL     OW  634   0.021   0.959   1.462 -0.4691 -0.1766 -0.2196
  212SOL    HW1  635   0.061   1.051   1.494 -2.6504  2.7660 -0.4145
  212SOL    HW2  636   0.056   0.880   1.527  2.5806 -0.2142  2.1478
  213SOL     OW  637   2.724   0.347   0.265 -0.2332 -0.3569  0.2994
  213SOL    HW1  638   2.790   0.280   0.210 -1.4996  1.3070 -0.9763
  213SOL    HW2  639   2.690   0.423   0.203  0.2521 -0.0161 -2.6390
  214SOL     OW  640   2.204   0.268   2.277 -0.7835  0.2432  0.1385
  214SOL    HW1  641   2.231   0.301   2.371 -0.2517  0.1665  1.0696
  214SOL    HW2  642   2.157   0.173   2.288 -1.1261 -2.1999  0.8741
  215SOL     OW  643   1.666   2.273   2.064 -0.4654 -0.2389 -0.5302
  215SOL    HW1  644   1.760   2.319   2.042  2.7389 -0.7471 -0.0779
  215SOL    HW2  645   1.613   2.340   2.126 -1.5849 -0.6446 -0.0670
  216SOL     OW  646   2.210   0.528   0.667 -0.0888  0.1496  0.1433
  216SOL    HW1  647   2.169   0.436   0.634 -4.8793 -2.0396  0.3347
  216SOL    HW2  648   2.240   0.591   0.591 -0.8903 -1.2748  0.6379
  217SOL     OW  649   0.769   2.787   2.442 -0.3304 -0.1915  1.3150
  217SOL    HW1  650   0.764   2.680   2.455 -1.5676 -2.5556  2.1242
  217SOL    HW2  651   0.738   2.814   2.343 -3.0172  0.1256 -1.7987
  218SOL     OW  652   1.935   1.414   0.078  0.1318 -0.3582 -0.1870
  218SOL    HW1  653   1.844   1.427   0.031 -0.5916 -2.1915  2.3419
  218SOL    HW2  654   1.916   1.332   0.142  2.8054 -2.7660 -2.0973
  219SOL     OW  655   2.384   1.305   2.527 -0.3621 -0.9177 -0.3459
  219SOL    HW1  656   2.339   1.261   2.446 -1.0551  2.7242  1.8157
  219SOL    HW2  657   2.389   1.239   2.608  1.8307 -3.5933  1.4552
  220SOL     OW  658   1.483   1.042   1.261  0.4548  0.0505  0.2069
  220SOL    HW1  659   1.586   1.043   1.274 -0.8950 -0.7451 -0.1750
  220SOL    HW2  660   1.441   1.085   1.176 -0.2295 -2.5239 -0.6018
  221SOL     OW  661   1.326   1.192   2.193  0.7645 -0.9075  0.1082
  221SOL    HW1  662   1.292   1.258   2.121 -0.0624 -0.2267  2.0809
  221SOL    HW2  663   1.409   1.135   2.168  0.3461  0.7528 -1.4147
  222SOL     OW  664   1.220   0.075   1.148  0.5583  0.0435  0.5813
  222SOL    HW1  665   1.317   0.050   1.172 -1.9276  1.1359  0.6986
  222SOL    HW2  666   1.187   0.159   1.198 -3.0128 -1.6235 -2.2960
  223SOL     OW  667   2.952   0.823   2.003  0.4868 -0.7611 -0.6275
  223SOL    HW1  668   2.958   0.830   2.107  2.4495  0.5329 -1.9750
  223SOL    HW2  669   2.969   0.911   1.952 -0.3862 -0.5590  0.7446
  224SOL     OW  670   1.524   0.958   2.818 -0.6090  0.1408 -0.2245
  224SOL    HW1  671   1.549   0.893   2.739  0.1926  0.8457 -0.3853
  224SOL    HW2  672   1.494   1.047   2.789 -0.2889 -1.3461 -0.8496
  225SOL     OW  673   3.036   2.778   2.906 -0.5859 -0.2905 -0.1658
  225SOL    HW1  674   3.032   2.705   2.837  0.1988 -1.3585  0.5766
  225SOL    HW2  675   3.065   2.868   2.866 -1.4690  0.4710  0.4351
  226SOL     OW  676   2.467   1.612   2.882 -0.3303  0.0999  0.6521
  226SOL    HW1  677   2.504   1.578   2.787  0.0201 -1.3720 -2.0805
  226SOL    HW2  678   2.395   1.544   2.919 -0.3992 -1.3959 -0.2859
  227SOL     OW  679   0.870   0.122   2.987  0.5233  0.3601 -0.1038
  227SOL    HW1  680   0.918   0.049   3.042 -1.5773 -2.9889  0.8218
  227SOL    HW2  681   0.874   0.091   2.890 -1.9291 -1.7488  1.8174
  228SOL     OW  682   2.359   0.587   2.850  0.1691  0.1175  0.4328
  228SOL    HW1  683   2.307   0.607   2.763 -0.4143 -1.4558 -2.5345
  228SOL    HW2  684   2.450   0.541   2.833  1.0413  2.9268  3.0862
  229SOL     OW  685   0.570   0.513   1.850 -0.4973  0.0667  0.3414
  229SOL    HW1  686   0.613   0.479   1.756  2.5432  4.6540 -3.2896
  229SOL    HW2  687   0.616   0.603   1.886 -0.2791  0.3704 -0.5052
  230SOL     OW  688   1.885   1.241   2.167 -0.2514  0.2929  0.2014
  230SOL    HW1  689   1.958   1.264   2.104  1.5695 -3.7448 -0.6223
  230SOL    HW2  690   1.791   1.273   2.137  0.0364 -0.2167  2.5931
  231SOL     OW  691   0.644   1.004   2.999  0.3572  0.4636 -0.0700
  231SOL    HW1  692   0.734   1.053   2.972  0.5168  1.4988  0.5609
  231SOL    HW2  693   0.637   1.005   3.100  1.3218 -0.2588  1.5671
  232SOL     OW  694   2.493   0.032   2.722 -0.5259  0.0188  0.0908
  232SOL    HW1  695   2.538  -0.039   2.784 -0.6116 -0.8216 -0.2821
  232SOL    HW2  696   2.514   0.018   2.620  3.2601  0.2987  0.2539
  233SOL     OW  697   1.691   1.255   1.071 -0.0669 -0.4152 -0.0067
  233SOL    HW1  698   1.725   1.306   0.990  0.3928  0.2009 -0.6384
  233SOL    HW2  699   1.736   1.161   1.079  1.4253  0.4814 -1.9839
  234SOL     OW  700   1.668   2.592   1.825  0.2872 -0.5665 -0.2571
  234SOL    HW1  701   1.661   2.615   1.928  0.7817  1.7399 -0.2510
  234SOL    HW2  702   1.625   2.503   1.798 -0.0075  0.8484 -0.4683
  235SOL     OW  703   0.133   3.016   2.904 -0.2333 -0.0674  0.0993
  235SOL    HW1  704   0.192   3.082   2.842 -0.4179 -0.7866  0.2109
  235SOL    HW2  705   0.045   3.053   2.944  1.0889 -1.1207 -0.2433
  236SOL     OW  706   2.844   0.669   0.120 -0.0803 -0.1717  0.2444
  236SOL    HW1  707   2.890   0.743   0.172  0.7312  0.0880  0.5020
  236SOL    HW2  708   2.903   0.620   0.057 -1.3701  3.1595  0.4365
  237SOL     OW  709   1.494   1.623   1.023 -0.0411  0.4306 -0.6829
  237SOL    HW1  710   1.596   1.615   1.047 -2.4375 -2.1194  1.6359
  237SOL    HW2  711   1.429   1.640   1.105 -3.6653 -0.9425 -0.2643
  238SOL     OW  712   1.804   1.334   0.820  0.0150 -0.6288  0.3584
  238SOL    HW1  713   1.894   1.350   0.767  0.4107  2.0262  0.0849
  238SOL    HW2  714   1.728   1.395   0.779 -0.9898  1.4433 -1.6253
  239SOL     OW  715   2.073   0.249   2.738  0.0986 -0.1046  0.1790
  239SOL    HW1  716   2.163   0.257   2.795  2.4666 -0.7803 -0.2456
  239SOL    HW2  717   1.995   0.307   2.777 -1.0720  2.0087  0.3094
  240SOL     OW  718   0.872   0.697   0.220  0.2868 -0.2545  0.2124
  240SOL    HW1  719   0.873   0.597   0.195  0.4832 -0.2945 -3.2088
  240SOL    HW2  720   0.873   0.699   0.326 -0.8664 -0.8132 -2.2852
  241SOL     OW  721   0.556   0.039   0.331  0.4814 -0.1046 -0.2281
  241SOL    HW1  722   0.561   0.035   0.225 -0.7132 -0.4648  1.4764
  241SOL    HW2  723   0.504  -0.038   0.370  0.3723 -0.8966 -2.6954
  242SOL     OW  724   0.692   2.448   1.148 -0.1881  0.2086  0.3645
  242SOL    HW1  725   0.698   2.539   1.193 -0.5791 -2.2572 -1.4802
  242SOL    HW2  726   0.756   2.435   1.064  1.4259  0.6021 -1.3075
  243SOL     OW  727   1.093   0.636   2.408  0.0547  0.6604 -0.0670
  243SOL    HW1  728   1.030   0.707   2.374 -1.7861  0.4935  0.2382
  243SOL    HW2  729   1.041   0.555   2.442  0.4393 -1.7980  1.6015
  244SOL     OW  730   2.789   1.898   2.431 -0.2656 -0.3121  0.5699
  244SOL    HW1  731   2.838   1.881   2.337  4.3749  0.1639 -1.3302
  244SOL    HW2  732   2.702   1.840   2.436 -0.2491  0.4846 -1.8257
  245SOL     OW  733   2.458   0.735   2.128 -0.3884 -0.1156  0.0207
  245SOL    HW1  734   2.483   0.743   2.225 -0.6268 -0.2162 -1.8901
  245SOL    HW2  735   2.538   0.760   2.064  0.8756 -1.0749  1.0717
  246SOL     OW  736   0.251   2.897   1.690  0.6457 -0.5042 -0.1404
  246SOL    HW1  737   0.166   2.909   1.628  1.3485 -1.7633 -0.1518
  246SOL    HW2  738   0.320   2.975   1.681  1.2871 -1.0969 -0.3074
  247SOL     OW  739   2.172   0.556   3.033  0.2395 -0.1498  0.3094
  247SOL    HW1  740   2.244   0.550   2.962 -1.3330  1.2546  1.7812
  247SOL    HW2  741   2.118   0.644   3.020 -1.1766  0.4336 -2.9388
  248SOL     OW  742   2.195   1.847   1.619  0.3677 -0.2172 -0.0357
  248SOL    HW1  743   2.243   1.758   1.635 -0.1345 -0.2376 -0.4630
  248SOL    HW2  744   2.114   1.859   1.679  1.5796  1.6050 -0.9217
  249SOL     OW  745   1.948   1.985   1.973 -1.0438  0.1550  0.3525
  249SOL    HW1  746   1.942   1.911   1.903  1.0001  2.8466  0.5391
  249SOL    HW2  747   2.047   2.016   1.987 -2.5915  1.0852  1.3032
  250SOL     OW  748   1.016   0.656   1.845  0.1122  0.2806  0.1468
  250SOL    HW1  749   1.042   0.588   1.923 -0.7955 -0.5207  0.6963
  250SOL    HW2  750   1.078   0.636   1.762 -1.1574 -0.6115 -0.3753
  251SOL     OW  751   3.058   1.556   2.571  0.4673 -0.2152 -0.0846
  251SOL    HW1  752   3.042   1.659   2.576 -0.2398 -1.0154 -2.3524
  251SOL    HW2  753   2.967   1.509   2.547  0.2312  0.9995  0.2160
  252SOL     OW  754   1.501   0.909   1.527  0.1804 -0.4305 -0.7987
  252SOL    HW1  755   1.512   0.963   1.443  0.0135  0.8919  2.2329
  252SOL    HW2  756   1.483   0.977   1.605  1.3974  1.3016  2.3098
  253SOL     OW  757   0.957   1.593   0.374  0.0327  0.9381 -0.3802
  253SOL    HW1  758   1.023   1.522   0.355  1.7433 -1.6498 -0.7518
  253SOL    HW2  759   0.877   1.580   0.312 -0.4399  2.6616  2.0181
  254SOL     OW  760   2.002   2.180   1.586  0.2038  0.0502 -0.0368
  254SOL    HW1  761   1.946   2.148   1.504  1.4038 -1.3112  1.0017
  254SOL    HW2  762   1.964   2.155   1.675 -0.8118  2.3069 -0.6257
  255SOL     OW  763   0.108   1.163   2.922  0.3240 -0.0901  0.0939
  255SOL    HW1  764   0.150   1.256   2.913 -2.4904 -0.3053 -2.2187
  255SOL    HW2  765   0.169   1.093   2.979 -0.5941 -1.1814  1.7347
  256SOL     OW  766   2.794   1.381   1.834  0.3440  0.3202  0.0195
  256SOL    HW1  767   2.720   1.455   1.844 -1.1190  0.2176 -1.2897
  256SOL    HW2  768   2.767   1.291   1.880 -1.4129  1.7616 -0.3365
  257SOL     OW  769   0.905   0.201   1.932  0.2412  0.0454 -0.1353
  257SOL    HW1  770   0.929   0.256   1.847 -1.3994  0.0887 -2.3187
  257SOL    HW2  771   0.897   0.101   1.909 -0.5828 -1.3315 -0.2632
  258SOL     OW  772   2.956   1.263   0.421  0.0165  0.5678  0.5641
  258SOL    HW1  773   2.891   1.349   0.429 -2.7362  1.7954 -0.3549
  258SOL    HW2  774   3.010   1.256   0.508 -1.0946  0.4555  0.7904
  259SOL     OW  775   0.427   2.940   2.978  0.0825 -0.1018 -0.1989
  259SOL    HW1  776   0.408   2.882   3.063 -1.1240 -2.2772 -1.3811
  259SOL    HW2  777   0.422   2.879   2.897  4.3686  2.7424 -1.3920
  260SOL     OW  778   2.655   0.799   2.776 -0.0107  0.4569 -0.1058
  260SOL    HW1  779   2.570   0.822   2.720 -0.2513  0.7466 -0.0952
  260SOL    HW2  780   2.636   0.761   2.870  0.2337  3.1450  1.1068
  261SOL     OW  781   2.736   1.354   1.329  0.4785  0.6949 -0.2829
  261SOL    HW1  782   2.695   1.279   1.262  0.8478  0.4758 -2.0871
  261SOL    HW2  783   2.840   1.339   1.343 -0.3372  4.1902 -1.7631
  262SOL     OW  784   1.470   2.902   2.027  0.4471 -0.0681 -0.2040
  262SOL    HW1  785   1.466   2.988   1.965  0.0830  1.4874  2.2622
  262SOL    HW2  786   1.379   2.852   2.020  0.1176 -1.3509 -2.6462
  263SOL     OW  787   0.889   0.772   2.317 -0.1479  0.0713  0.4031
  263SOL    HW1  788   0.829   0.692   2.297 -0.3009  0.4903 -1.4917
  263SOL    HW2  789   0.893   0.843   2.244  0.4647  0.1275 -0.0353
  264SOL     OW  790   2.258   0.743   0.482  0.1496 -0.0119 -0.4497
  264SOL    HW1  791   2.159   0.773   0.460  0.2359 -2.0206 -1.8063
  264SOL    HW2  792   2.326   0.823   0.511 -1.0391  1.3741  2.3824
  265SOL     OW  793   0.882   2.294   2.692  0.7008 -0.0617 -0.1739
  265SOL    HW1  794   0.938   2.369   2.740 -1.3370 -1.0928 -1.2149
  265SOL    HW2  795   0.817   2.243   2.759 -0.7509 -2.4598  0.0303
  266SOL     OW  796   1.348   1.703   0.057  0.1948 -0.0190  0.0998
  266SOL    HW1  797   1.314   1.795   0.085  0.7083 -0.7989  0.7527
  266SOL    HW2  798   1.450   1.688   0.045 -0.5106 -1.7220  0.9166
  267SOL     OW  799   1.082   0.002   2.387 -0.2855 -0.2032  0.4220
  267SOL    HW1  800   1.051  -0.058   2.311  0.9025 -0.2672 -0.3357
  267SOL    HW2  801   1.043   0.097   2.373  0.1362 -0.8323 -3.8762
  268SOL     OW  802   0.658   1.165   1.005  0.2401 -0.0255 -0.4716
  268SOL    HW1  803   0.703   1.209   1.086 -0.0719  1.3630 -0.8785
  268SOL    HW2  804   0.634   1.238   0.928 -0.6139  0.7346 -1.8938
  269SOL     OW  805   2.423   2.485   1.601 -0.3216 -0.5640 -0.0999
  269SOL    HW1  806   2.525   2.468   1.598 -2.0588  0.8709 -0.4061
  269SOL    HW2  807   2.386   2.490   1.699 -0.5047 -0.4136 -1.1942
  270SOL     OW  808   0.214   2.958   1.949 -0.4132  0.5473 -0.1771
  270SOL    HW1  809   0.248   2.943   1.852 -0.9387  2.3253  0.0497
  270SOL    HW2  810   0.137   2.896   1.982  0.2893 -0.6546  0.1037
  271SOL     OW  811   0.456   1.398   1.198  0.2247 -0.2504 -0.0502
  271SOL    HW1  812   0.425   1.440   1.106  1.3514  1.7257 -0.1374
  271SOL    HW2  813   0.382   1.416   1.267  4.3435  2.0961  1.5363
  272SOL     OW  814   1.908   2.917   1.893 -0.2373  0.1009  0.2590
  272SOL    HW1  815   1.882   2.852   1.815  0.1656  1.8097  0.5576
  272SOL    HW2  816   2.007   2.960   1.881  0.0580  1.4222 -1.1165
  273SOL     OW  817   1.433   1.424   2.834 -0.3964 -0.0292 -0.5133
  273SOL    HW1  818   1.466   1.510   2.789 -3.4075 -0.2070 -3.7389
  273SOL    HW2  819   1.388   1.446   2.926 -3.5754  0.3410 -0.2619
  274SOL     OW  820   1.149   0.502   2.028 -0.4798  0.1261  0.3561
  274SOL    HW1  821   1.203   0.428   1.974  0.3463  0.4816  0.2075
  274SOL    HW2  822   1.201   0.528   2.108 -2.2470 -1.3389 -0.4677
  275SOL     OW  823   0.627   2.067   2.002 -0.0895  0.3562 -0.3447
  275SOL    HW1  824   0.588   2.166   1.994 -2.5378 -0.4311 -1.1785
  275SOL    HW2  825   0.561   2.002   1.961  0.3069 -0.6977 -0.1654
  276SOL     OW  826   2.157   0.973   2.807 -0.1683 -0.7396 -0.1072
  276SOL    HW1  827   2.070   1.009   2.753  2.2071 -2.5864 -1.1094
  276SOL    HW2  828   2.136   0.894   2.876 -0.5621 -1.4413  2.8528
  277SOL     OW  829   3.048   0.837   0.203  0.3588  0.2869  0.2335
  277SOL    HW1  830   3.140   0.873   0.163  2.2825  0.6274  0.0823
  277SOL    HW2  831   3.063   0.745   0.253 -0.5446 -1.8083  2.6230
  278SOL     OW  832   0.178   0.257   2.980  0.2657  0.4891 -0.4687
  278SOL    HW1  833   0.229   0.176   3.009 -0.2620  3.6266  0.3552
  278SOL    HW2  834   0.223   0.352   2.990 -0.7465  1.4968 -1.0373
  279SOL     OW  835   0.157   0.044   0.870  0.0101  0.4433  0.1636
  279SOL    HW1  836   0.183   0.043   0.971  1.2344 -0.9164  0.8437
  279SOL    HW2  837   0.231   0.001   0.815  0.4535  0.2008  1.3965
  280SOL     OW  838   1.638   2.945   2.537 -1.2575 -0.0618  0.3448
  280SOL    HW1  839   1.720   3.007   2.522  1.9230  1.9433  2.3496
  280SOL    HW2  840   1.543   2.985   2.544 -2.3908  1.5742  0.8100
  281SOL     OW  841   0.580   0.960   2.333 -0.0858 -0.1322 -0.0057
  281SOL    HW1  842   0.574   0.877   2.267 -2.2484 -1.8242 -1.3629
  281SOL    HW2  843   0.519   0.951   2.418 -0.5693 -0.8166 -1.0442
  282SOL     OW  844   1.706   2.440   0.502  0.2375 -0.2491 -0.0179
  282SOL    HW1  845   1.695   2.384   0.416  1.5089 -2.4623 -1.2284
  282SOL    HW2  846   1.645   2.521   0.507  2.5643  1.3804  1.0506
  283SOL     OW  847   1.190   0.970   0.737  0.2418 -0.0268  0.1248
  283SOL    HW1  848   1.220   0.896   0.802 -1.1899  1.4326 -2.3898
  283SOL    HW2  849   1.145   1.050   0.790  0.1009  1.7264 -0.0848
  284SOL     OW  850   2.356   2.801   2.388  0.6768  0.2559 -0.5765
  284SOL    HW1  851   2.344   2.898   2.356 -1.2794 -2.5250 -1.7799
  284SOL    HW2  852   2.356   2.794   2.494  1.2175  0.5344  2.2463
  285SOL     OW  853   1.343   2.974   2.536  0.0179  0.4075  0.4914
  285SOL    HW1  854   1.358   3.013   2.445 -2.4108 -3.0386  0.8536
  285SOL    HW2  855   1.260   3.019   2.583 -2.5184  0.3175 -1.3709
  286SOL     OW  856   0.472   0.433   0.685 -0.3263 -0.0912  0.0280
  286SOL    HW1  857   0.460   0.400   0.783  1.9796  0.2996 -1.1065
  286SOL    HW2  858   0.454   0.359   0.615  1.5757 -0.5347  2.0993
  287SOL     OW  859   0.106   1.338   2.501  0.3889 -0.6044  1.1135
  287SOL    HW1  860   0.087   1.276   2.580 -1.5397  1.6986  0.5159
  287SOL    HW2  861   0.053   1.430   2.504 -0.8269  0.9050 -1.7921
  288SOL     OW  862   1.606   2.686   1.472 -0.1346  1.0213  0.5986
  288SOL    HW1  863   1.692   2.632   1.446  1.4680 -1.7998 -4.5773
  288SOL    HW2  864   1.581   2.739   1.392  2.7032  0.0646  2.5088
  289SOL     OW  865   0.651   2.741   0.770 -0.1583 -0.0730  0.2788
  289SOL    HW1  866   0.679   2.824   0.711  0.1447  0.1759  1.5630
  289SOL    HW2  867   0.696   2.747   0.862  0.5378 -0.3418  0.0598
  290SOL     OW  868   2.886   1.195   1.583 -0.3056 -0.2848 -0.4914
  290SOL    HW1  869   2.787   1.206   1.602  1.3063 -2.4222 -2.1506
  290SOL    HW2  870   2.943   1.176   1.670 -3.0379 -0.7645 -0.2639
  291SOL     OW  871   2.000   0.059   0.099  0.0584 -0.1757  0.7746
  291SOL    HW1  872   2.005   0.079   0.202 -2.1506 -0.1385  1.0324
  291SOL    HW2  873   2.024   0.147   0.046  1.1165  1.2739  1.7507
  292SOL     OW  874   2.971   1.153   3.035  0.0163 -0.5668  0.0351
  292SOL    HW1  875   2.904   1.214   2.985 -0.2511 -0.2697 -0.7389
  292SOL    HW2  876   3.053   1.130   2.969  1.0361 -0.1601 -0.0893
  293SOL     OW  877   0.636   2.088   0.124 -0.2796  0.5693 -0.1809
  293SOL    HW1  878   0.609   2.149   0.201  1.6528  2.2492 -0.6800
  293SOL    HW2  879   0.724   2.039   0.151 -0.8143  3.2240 -1.3286
  294SOL     OW  880   1.672   2.149   1.747  0.0157  0.0166  0.0173
  294SOL    HW1  881   1.734   2.187   1.821  0.7962  1.0305 -0.1741
  294SOL    HW2  882   1.669   2.224   1.672  0.0200  1.6367 -1.4204
  295SOL     OW  883   0.993   1.014   0.397  0.3131 -0.3388  0.6039
  295SOL    HW1  884   1.091   0.972   0.389  2.2345 -2.4198 -0.3411
  295SOL    HW2  885   0.968   1.046   0.493  1.4482  0.2013 -2.4220
  296SOL     OW  886   1.310   2.031   2.512  0.4200  0.0948 -0.3479
  296SOL    HW1  887   1.265   2.072   2.422  2.9373  1.4924 -0.5927
  296SOL    HW2  888   1.329   1.925   2.508  0.3093 -2.9203 -1.9746
  297SOL     OW  889   1.470   0.639   1.342 -0.0712 -0.5502  0.2448
  297SOL    HW1  890   1.522   0.550   1.350 -0.7291 -0.9468 -0.9960
  297SOL    HW2  891   1.529   0.712   1.382  2.1698 -2.6204 -1.4684
  298SOL     OW  892   0.456   1.213   2.861 -0.9721  0.1274  0.0898
  298SOL    HW1  893   0.493   1.161   2.944 -0.4044 -1.5456  1.1223
  298SOL    HW2  894   0.535   1.226   2.791  0.4616 -0.6010  1.6674
  299SOL     OW  895   0.447   0.333   1.463  0.7684  0.0020  0.4907
  299SOL    HW1  896   0.461   0.391   1.380  4.5511 -3.0160 -0.4992
  299SOL    HW2  897   0.529   0.308   1.517  0.1893  0.5040 -1.8083
  300SOL     OW  898   1.193   1.819   2.882 -0.7883  0.0140 -0.2713
  300SOL    HW1  899   1.182   1.744   2.811 -0.2219  1.3292  2.7041
  300SOL    HW2  900   1.173   1.790   2.979  1.9504  2.4433  1.4943
  301SOL     OW  901   0.433   0.287   0.432 -0.0117 -0.0753  0.3562
  301SOL    HW1  902   0.334   0.284   0.396  1.8313  3.0039 -2.6985
  301SOL    HW2  903   0.490   0.213   0.385 -0.8156  1.7884  3.0382
  302SOL     OW  904   1.238   2.329   2.329  0.1708 -0.1889  0.2008
  302SOL    HW1  905   1.158   2.368   2.377  0.1989  0.6991  0.9682
  302SOL    HW2  906   1.221   2.229   2.293  1.0141  0.3197 -2.4276
  303SOL     OW  907   0.937   2.357   0.798  0.2312 -0.3167 -0.1118
  303SOL    HW1  908   0.975   2.397   0.709  0.0794 -2.7837 -0.9058
  303SOL    HW2  909   0.965   2.411   0.884  1.1113  1.5657  0.1755
  304SOL     OW  910   0.141   2.060   0.678 -0.1309 -0.5806 -0.6202
  304SOL    HW1  911   0.162   1.992   0.601  1.2674  1.3051  2.4275
  304SOL    HW2  912   0.077   2.137   0.654  0.1684 -1.0509 -2.3312
  305SOL     OW  913   1.617   0.887   0.630  0.0043 -0.0956  0.0668
  305SOL    HW1  914   1.572   0.907   0.537 -1.1915  3.9891 -1.4521
  305SOL    HW2  915   1.644   0.790   0.649  1.2736  0.9071  0.9805
  306SOL     OW  916   0.442   1.874   1.879  0.4329  0.2452  0.5930
  306SOL    HW1  917   0.524   1.816   1.848  0.2314  0.6642 -0.7610
  306SOL    HW2  918   0.409   1.830   1.965 -2.2333 -1.8791 -2.8907
  307SOL     OW  919   0.028   0.835   2.595 -0.1285  0.1856  0.5127
  307SOL    HW1  920   0.022   0.939   2.615 -0.7118 -0.2451  1.2115
  307SOL    HW2  921  -0.058   0.777   2.598 -0.3099  1.1969 -0.8860
  308SOL     OW  922   1.563   2.628   2.879 -0.2530  0.3287  0.0180
  308SOL    HW1  923   1.531   2.620   2.784  1.6630  0.0063  3.4551
  308SOL    HW2  924   1.518   2.555   2.941 -2.8623 -0.0089  1.6624
  309SOL     OW  925   1.216   0.066   1.744 -0.1592  0.6600 -0.2223
  309SOL    HW1  926   1.312   0.016   1.757  1.5450 -0.4709 -2.1603
  309SOL    HW2  927   1.207   0.117   1.652 -3.9651  3.0208 -1.9891
  310SOL     OW  928   1.390   2.619   0.714  0.1908 -0.8914  0.6998
  310SOL    HW1  929   1.399   2.703   0.775  2.5186  0.5280 -1.8070
  310SOL    HW2  930   1.460   2.634   0.634  0.9964 -0.5253 -0.1307
  311SOL     OW  931   1.211   0.939   1.533 -0.8444  0.7142  0.4859
  311SOL    HW1  932   1.263   0.874   1.473 -2.6106  3.8111  1.7546
  311SOL    HW2  933   1.246   1.035   1.516  1.0021  0.3935  0.3022
  312SOL     OW  934   1.616   0.683   0.969  0.4259 -0.1188  1.1222
  312SOL    HW1  935   1.592   0.786   0.959  0.5133  0.8194  0.3433
  312SOL    HW2  936   1.534   0.620   0.943 -1.4259  0.3332 -2.8190
  313SOL     OW  937   1.545   1.408   0.625 -0.4742 -0.1549  0.3620
  313SOL    HW1  938   1.445   1.442   0.614 -0.5856 -3.5638  0.8088
  313SOL    HW2  939   1.548   1.307   0.602  1.9112  0.6670  1.9158
  314SOL     OW  940   2.970   0.021   3.013  0.4263 -0.0395  0.7531
  314SOL    HW1  941   2.954   0.080   3.099 -0.0926  2.3450 -1.1721
  314SOL    HW2  942   2.902  -0.059   3.015 -0.4334 -1.6991  3.1683
  315SOL     OW  943   1.234   0.246   2.785 -0.5961  0.0667  0.1218
  315SOL    HW1  944   1.192   0.168   2.731  2.2852  1.0870 -3.0951
  315SOL    HW2  945   1.292   0.215   2.868 -0.1388  1.2392  2.8808
  316SOL     OW  946   1.698   2.083   0.914  0.0664  0.3290  0.3855
  316SOL    HW1  947   1.653   2.067   1.004 -0.4318  0.6430  1.1488
  316SOL    HW2  948   1.688   2.183   0.876  1.8017  1.8827  0.0139
  317SOL     OW  949   1.130   0.692   2.842  0.2860  0.2064 -0.3126
  317SOL    HW1  950   1.075   0.727   2.927 -1.5362 -0.3025  1.2066
  317SOL    HW2  951   1.099   0.603   2.798  0.5503  1.3352 -1.1144
  318SOL     OW  952   1.467   3.056   2.287  0.2070 -0.4460 -0.3204
  318SOL    HW1  953   1.426   3.135   2.233  0.0439 -0.2068 -1.3042
  318SOL    HW2  954   1.517   3.005   2.214  1.3596 -1.4640 -1.4185
  319SOL     OW  955   0.652   2.410   2.922  0.0673  0.0201 -0.0826
  319SOL    HW1  956   0.572   2.386   2.985 -1.5274  0.9645  1.5279
  319SOL    HW2  957   0.706   2.321   2.907 -0.9807 -0.7498 -2.2338
  320SOL     OW  958   1.640   2.186   0.347  0.0470 -0.7899  0.0465
  320SOL    HW1  959   1.738   2.161   0.352  1.2115  2.6889 -0.3649
  320SOL    HW2  960   1.581   2.165   0.428  2.2190  0.0003 -0.9484
  321SOL     OW  961   1.568   2.684   0.530  0.6386 -0.3363 -0.7331
  321SOL    HW1  962   1.493   2.746   0.488 -1.6779  1.2832  1.5141
  321SOL    HW2  963   1.662   2.727   0.523 -2.8538  1.9204  0.4598
  322SOL     OW  964   2.568   1.117   2.264 -0.8988 -0.3061 -0.2676
  322SOL    HW1  965   2.645   1.148   2.329  1.3336 -1.6064 -1.0133
  322SOL    HW2  966   2.554   1.012   2.276 -0.0599  1.0704  0.3338
  323SOL     OW  967   0.973   2.672   0.803  0.1671  0.2519 -0.1014
  323SOL    HW1  968   1.015   2.610   0.726  1.1946 -1.8908 -1.1891
  323SOL    HW2  969   1.020   2.762   0.814  2.1356 -1.7410 -0.4943
  324SOL     OW  970   0.154   2.480   2.464  0.9915 -0.4462 -0.0688
  324SOL    HW1  971   0.132   2.398   2.525 -1.2106  0.3319 -0.9963
  324SOL    HW2  972   0.111   2.570   2.501  0.1984  0.4132 -1.6917
  325SOL     OW  973   1.184   3.075   0.464  0.0782 -0.7538 -0.0357
  325SOL    HW1  974   1.231   3.119   0.386  0.3189  1.3967  0.8464
  325SOL    HW2  975   1.212   3.107   0.556 -1.7679 -1.0624 -0.4979
  326SOL     OW  976   2.438   0.750   3.075  0.5833  0.0593 -0.2465
  326SOL    HW1  977   2.387   0.682   3.016  0.8183  0.3455 -1.8132
  326SOL    HW2  978   2.496   0.699   3.142  0.1051 -1.5431 -2.7763
  327SOL     OW  979   2.825   0.397   0.531  0.6950 -0.0457 -0.4398
  327SOL    HW1  980   2.784   0.397   0.436 -0.0360  1.5007  1.1323
  327SOL    HW2  981   2.754   0.360   0.599  1.0805 -0.0395  0.8824
  328SOL     OW  982   2.475   0.548   0.404 -0.3593 -0.2212 -0.3902
  328SOL    HW1  983   2.387   0.594   0.424  2.5218 -0.4757  2.2085
  328SOL    HW2  984   2.515   0.496   0.481 -0.2715  2.8252 -2.1929
  329SOL     OW  985   2.978   2.998   2.156 -0.0772 -0.0860  0.2659
  329SOL    HW1  986   3.022   2.917   2.206 -2.8897  0.6588  0.8758
  329SOL    HW2  987   3.030   3.090   2.162  0.5291  0.6150  1.5090
  330SOL     OW  988   0.525   0.165   1.889  0.1810  0.2476 -0.1238
  330SOL    HW1  989   0.557   0.263   1.880 -0.2451 -0.5028 -2.0441
  330SOL    HW2  990   0.554   0.128   1.980 -0.4432 -1.0141 -0.7945
  331SOL     OW  991   2.950   1.926   1.135  0.7404  0.0241 -0.4123
  331SOL    HW1  992   2.993   1.979   1.060 -1.5204  1.3868  0.7527
  331SOL    HW2  993   2.877   1.977   1.193 -1.4134 -1.4194  0.5737
  332SOL     OW  994   0.421   1.131   0.084 -0.1237  0.5762  0.3352
  332SOL    HW1  995   0.371   1.082   0.010  0.4080 -0.5364 -0.9708
  332SOL    HW2  996   0.359   1.192   0.144 -1.3226 -1.8096  0.9170
  333SOL     OW  997   2.867   1.027   0.304  0.2075  0.4163  0.3375
  333SOL    HW1  998   2.914   1.092   0.371  2.7804 -2.4542  1.2245
  333SOL    HW2  999   2.929   0.950   0.273 -1.6490  1.2583 -3.1643
  334SOL     OW 1000   1.654   1.173   1.916  0.5535  0.4321 -0.3741
  334SOL    HW1 1001   1.742   1.168   1.862 -0.7920  2.1481  2.9785
  334SOL    HW2 1002   1.646   1.263   1.964 -1.2868  2.0981 -1.6791
  335SOL     OW 1003   2.019   2.769   2.638  0.1312 -0.8532 -0.5163
  335SOL    HW1 1004   1.961   2.748   2.724  0.9061  4.3142  2.4996
  335SOL    HW2 1005   2.112   2.816   2.663 -0.0886  0.3881  2.7493
  336SOL     OW 1006   0.254   0.112   2.748 -0.0656  0.2031  0.3055
  336SOL    HW1 1007   0.358   0.113   2.725  0.1656  0.3936  1.7082
  336SOL    HW2 1008   0.236   0.196   2.805  0.1402  0.8145 -2.4501
  337SOL     OW 1009   0.892   2.762   2.814  0.0023 -0.1176 -0.2001
  337SOL    HW1 1010   0.890   2.765   2.917  0.6433  0.4058 -3.0536
  337SOL    HW2 1011   0.982   2.753   2.769 -1.1508  1.1097 -2.1187
  338SOL     OW 1012   0.033   1.002   0.626  0.3510 -0.2406  0.7230
  338SOL    HW1 1013  -0.064   0.970   0.650 -0.6509  2.2691 -0.3834
  338SOL    HW2 1014   0.029   1.103   0.599 -1.1678 -2.5483 -1.0582
  339SOL     OW 1015   1.653   1.398   2.080 -0.2109 -0.0343  0.0270
  339SOL    HW1 1016   1.554   1.443   2.090  0.1779  0.0642  0.5394
  339SOL    HW2 1017   1.725   1.479   2.084  1.3031 -0.3384  1.7772
  340SOL     OW 1018   2.288   0.809   1.174 -0.5010 -0.2580  0.1939
  340SOL    HW1 1019   2.187   0.831   1.168  1.5877  1.1744  0.2437
  340SOL    HW2 1020   2.314   0.713   1.143 -0.1137  0.1679 -0.1608
  341SOL     OW 1021   1.898   2.148   0.370 -0.5577  0.4422  0.0453
  341SOL    HW1 1022   1.922   2.187   0.275  1.8675 -1.4467 -3.1489
  341SOL    HW2 1023   1.980   2.132   0.434 -0.8317  0.1446 -1.2595
  342SOL     OW 1024   2.207   2.082   2.764  0.0491  0.3646  0.1822
  342SOL    HW1 1025   2.271   1.996   2.769 -0.0281 -0.2856 -1.9052
  342SOL    HW2 1026   2.113   2.061   2.793 -0.5489  3.8075  0.6321
  343SOL     OW 1027   0.334   0.807   2.774  0.4009 -0.6743 -0.1399
  343SOL    HW1 1028   0.317   0.877   2.700  2.5727 -0.7260  1.3865
  343SOL    HW2 1029   0.434   0.814   2.816 -1.6934 -0.3089 -0.6467
  344SOL     OW 1030   1.904   1.461   0.401  0.0314 -0.5453  0.1043
  344SOL    HW1 1031   1.906   1.370   0.353  0.5820  0.2454  0.6680
  344SOL    HW2 1032   1.813   1.508   0.384  0.0414 -2.5876  3.5772
  345SOL     OW 1033   1.385   2.232   2.843  0.3190  0.5810  0.2997
  345SOL    HW1 1034   1.297   2.182   2.811 -0.0521  1.2565 -1.3700
  345SOL    HW2 1035   1.466   2.183   2.797  0.8624  1.7548 -0.1579
  346SOL     OW 1036   2.326   0.854   1.451 -0.3524  0.0450  0.3038
  346SOL    HW1 1037   2.246   0.911   1.487 -0.9576  0.7635  1.0537
  346SOL    HW2 1038   2.323   0.847   1.346 -1.8500  0.8183  0.1880
  347SOL     OW 1039   0.725   2.845   1.514 -0.5046  0.3173 -0.0269
  347SOL    HW1 1040   0.690   2.775   1.581  0.3605  2.7475  0.5829
  347SOL    HW2 1041   0.648   2.905   1.478  0.3253 -1.1505 -3.6098
  348SOL     OW 1042   0.096   0.688   2.859 -0.7591 -0.8814  0.5176
  348SOL    HW1 1043   0.012   0.712   2.801 -0.5611 -3.5466 -2.1676
  348SOL    HW2 1044   0.177   0.753   2.832 -0.1764  2.4933 -1.9601
  349SOL     OW 1045   1.886   0.431   2.817 -0.4918  0.0170  0.1974
  349SOL    HW1 1046   1.864   0.504   2.750 -1.5867 -1.1109 -2.9716
  349SOL    HW2 1047   1.835   0.440   2.906  1.0364 -1.9843  0.5494
  350SOL     OW 1048   1.661   0.386   0.383 -0.6971 -0.2628 -0.3062
  350SOL    HW1 1049   1.725   0.412   0.461 -0.4628  0.8950 -0.1217
  350SOL    HW2 1050   1.598   0.462   0.364  0.5244  0.2660  4.3549
  351SOL     OW 1051   0.934   0.916   2.066  0.4795 -0.0214 -0.0196
  351SOL    HW1 1052   0.932   1.009   2.021  0.6350 -1.5639 -2.3711
  351SOL    HW2 1053   0.928   0.840   2.002  2.0027  1.0339 -0.1566
  352SOL     OW 1054   1.998   1.333   0.619  0.2876 -0.4390  0.3400
  352SOL    HW1 1055   1.952   1.395   0.556 -1.4498 -1.7492  4.2169
  352SOL    HW2 1056   2.073   1.381   0.669  2.9420  0.5319  0.1305
  353SOL     OW 1057   2.122   2.887   1.119  0.1635  0.7156 -0.1475
  353SOL    HW1 1058   2.202   2.831   1.161 -1.4703  0.2387  0.1148
  353SOL    HW2 1059   2.059   2.828   1.061 -0.9684  1.9722 -0.3478
  354SOL     OW 1060   0.246   1.396   2.849  0.1521  0.2331 -0.2431
  354SOL    HW1 1061   0.263   1.465   2.770  2.3969 -2.5396 -1.3885
  354SOL    HW2 1062   0.312   1.314   2.847  1.3310 -0.9240  1.5274
  355SOL     OW 1063   0.500   1.526   0.555  0.8716  0.1491 -0.4590
  355SOL    HW1 1064   0.528   1.619   0.589 -1.6847  0.6096  2.5111
  355SOL    HW2 1065   0.567   1.454   0.571  0.4443  1.0060  1.0351
  356SOL     OW 1066   0.914   0.395   2.118  0.4830 -0.2456 -0.1570
  356SOL    HW1 1067   1.001   0.432   2.070 -1.7498  2.6096 -0.0904
  356SOL    HW2 1068   0.888   0.309   2.066  2.5764 -2.6693  0.1275
  357SOL     OW 1069   1.015   1.267   0.282 -0.3421  0.0427  0.6780
  357SOL    HW1 1070   0.935   1.261   0.210 -2.8071 -0.3187  2.2461
  357SOL    HW2 1071   1.028   1.188   0.348 -3.1528  0.2915  2.7192
  358SOL     OW 1072   1.648   1.568   0.432  0.1078 -0.2883  0.2494
  358SOL    HW1 1073   1.617   1.494   0.496  0.7500 -0.8739  0.6391
  358SOL    HW2 1074   1.568   1.625   0.405 -3.0545 -1.3270  1.3699
  359SOL     OW 1075   1.555   2.687   0.143  0.1160 -0.3810 -0.8555
  359SOL    HW1 1076   1.616   2.631   0.079 -0.1196  1.3004  0.9416
  359SOL    HW2 1077   1.459   2.677   0.117 -1.4312 -1.9033 -1.0149
  360SOL     OW 1078   0.909   0.599   0.512  0.2439 -0.5417 -0.3155
  360SOL    HW1 1079   0.830   0.603   0.580 -2.4836  0.3957  0.8357
  360SOL    HW2 1080   0.920   0.506   0.472 -1.0322  0.3125 -1.6200
  361SOL     OW 1081   1.251   1.380   0.665  0.3991  0.1290  0.4229
  361SOL    HW1 1082   1.285   1.396   0.763  0.4544  1.8395  0.9290
  361SOL    HW2 1083   1.154   1.411   0.657 -0.7195  1.6524  0.4151
  362SOL     OW 1084   1.388   1.755   0.773 -0.2438 -0.2576  0.1973
  362SOL    HW1 1085   1.406   1.688   0.854 -0.3190 -1.4278  0.6316
  362SOL    HW2 1086   1.474   1.811   0.747 -1.1326 -1.3706 -0.5546
  363SOL     OW 1087   1.167   1.346   2.007  0.4808 -0.5626  0.0929
  363SOL    HW1 1088   1.120   1.409   2.077  0.7971 -0.7994 -0.1497
  363SOL    HW2 1089   1.199   1.397   1.922  0.6464 -0.3398  2.7159
  364SOL     OW 1090   0.550   2.335   1.939 -0.4681  0.2083 -0.6519
  364SOL    HW1 1091   0.470   2.397   1.955 -0.1401 -0.8085  1.6327
  364SOL    HW2 1092   0.610   2.364   1.858 -0.1496  1.0013 -2.3874
  365SOL     OW 1093   1.081   1.945   1.376  0.1869  0.3848  0.2405
  365SOL    HW1 1094   0.986   1.971   1.413 -1.5985  2.5204  0.3841
  365SOL    HW2 1095   1.076   1.872   1.302 -1.2870 -1.1111  1.0403
  366SOL     OW 1096   2.829   2.080   0.466 -0.2261  0.0267  0.2396
  366SOL    HW1 1097   2.742   2.030   0.488  1.2504  2.6590 -0.7928
  366SOL    HW2 1098   2.909   2.018   0.437  0.7793 -1.8281 -1.4407
  367SOL     OW 1099   0.812   1.215   0.109  0.0673 -0.2021  0.8290
  367SOL    HW1 1100   0.819   1.112   0.140  1.2823  0.4040  0.3831
  367SOL    HW2 1101   0.806   1.235   0.002 -0.3844  0.1556  0.0027
  368SOL     OW 1102   1.547   0.551   0.704 -0.5263  0.0250  0.4776
  368SOL    HW1 1103   1.481   0.572   0.629  1.3121  1.6411 -1.4421
  368SOL    HW2 1104   1.643   0.588   0.685  0.6205  1.5636  0.9052
  369SOL     OW 1105   0.292   1.715   0.092  0.1064  0.5455 -0.8928
  369SOL    HW1 1106   0.337   1.795   0.138 -2.5463  1.2587  2.0331
  369SOL    HW2 1107   0.188   1.714   0.116  0.5074  1.3253  2.0916
  370SOL     OW 1108   0.392   2.111   0.992 -0.1282 -0.2559  1.0410
  370SOL    HW1 1109   0.395   2.215   0.997 -0.0776  0.5919 -1.2735
  370SOL    HW2 1110   0.298   2.065   0.988  0.3919  0.3018  1.5136
  371SOL     OW 1111   2.910   2.203   2.745 -0.1150  0.0196  0.0900
  371SOL    HW1 1112   2.913   2.174   2.841 -0.2804  3.0757 -1.8076
  371SOL    HW2 1113   3.006   2.225   2.707 -0.1032 -0.2189 -1.8062
  372SOL     OW 1114   0.926   1.857   0.914  0.5531  0.6281 -0.1580
  372SOL    HW1 1115   0.888   1.952   0.910 -0.1406 -0.4564 -1.4451
  372SOL    HW2 1116   1.009   1.859   0.853  1.5854  1.8635 -0.1814
  373SOL     OW 1117   1.993   2.003   0.938  0.1342  0.2041  0.0075
  373SOL    HW1 1118   2.058   2.000   1.023 -1.5989 -0.3563  0.4023
  373SOL    HW2 1119   1.893   2.023   0.964  0.4904 -3.0574 -1.7078
  374SOL     OW 1120   1.884   0.442   0.555 -0.9863  0.2559  0.3267
  374SOL    HW1 1121   1.883   0.378   0.639  1.4284  4.7522 -0.4464
  374SOL    HW2 1122   1.967   0.426   0.483  2.0501  0.9896 -0.2317
  375SOL     OW 1123   2.390   2.164   1.117 -0.2471 -0.7583  1.0094
  375SOL    HW1 1124   2.443   2.153   1.027  1.7978  0.0781  0.9130
  375SOL    HW2 1125   2.453   2.147   1.200 -2.8967 -1.1862 -0.2030
  376SOL     OW 1126   3.047   0.616   1.450  0.0398 -0.1388 -0.2445
  376SOL    HW1 1127   3.130   0.657   1.498 -0.3030  2.6590 -3.6286
  376SOL    HW2 1128   2.954   0.641   1.490 -0.1935 -0.1639  0.6850
  377SOL     OW 1129   2.266   2.859   0.332  0.2168 -0.7817 -0.7110
  377SOL    HW1 1130   2.257   2.961   0.358 -0.6261 -0.9004 -1.6726
  377SOL    HW2 1131   2.354   2.810   0.370  2.9783 -2.6683 -0.8006
  378SOL     OW 1132   1.855   1.897   2.634 -0.4366 -0.0159  0.1488
  378SOL    HW1 1133   1.858   1.794   2.652 -4.9496 -1.2868  1.9600
  378SOL    HW2 1134   1.888   1.921   2.539  1.4154  2.6741  0.2194
  379SOL     OW 1135   0.835   0.058   2.716  0.2487 -0.4127  0.1849
  379SOL    HW1 1136   0.771  -0.024   2.693 -0.5918 -0.1734  0.2778
  379SOL    HW2 1137   0.785   0.146   2.702 -0.6312  0.9921  0.7846
  380SOL     OW 1138   1.517   1.153   0.591 -0.0778 -0.3961  0.2047
  380SOL    HW1 1139   1.426   1.140   0.537 -3.6331  0.8603 -2.1254
  380SOL    HW2 1140   1.525   1.080   0.663  0.5496  0.2535  0.7436
  381SOL     OW 1141   1.313   1.209   1.499  0.3613 -0.2902 -0.3500
  381SOL    HW1 1142   1.344   1.217   1.400 -0.9538  0.5706  2.0787
  381SOL    HW2 1143   1.386   1.240   1.568  0.6959 -0.9951  0.7459
  382SOL     OW 1144   1.746   0.806   0.277 -0.0525 -0.3299  0.4219
  382SOL    HW1 1145   1.776   0.788   0.178  0.4557 -2.6269 -1.1360
  382SOL    HW2 1146   1.827   0.820   0.343  1.4951  0.6628 -0.3166
  383SOL     OW 1147   2.590   1.004   1.513 -0.1643 -0.6432 -0.2282
  383SOL    HW1 1148   2.520   0.947   1.461 -3.7534 -0.4243 -3.0585
  383SOL    HW2 1149   2.688   0.961   1.506 -0.7438 -1.0831 -0.5094
  384SOL     OW 1150   0.937   2.276   0.117 -0.7083  0.6256 -0.5604
  384SOL    HW1 1151   0.892   2.353   0.166 -0.7102 -0.4035 -3.7171
  384SOL    HW2 1152   0.934   2.183   0.169  1.5776 -2.4053  2.2418
  385SOL     OW 1153   3.018   2.013   1.744 -0.4976  0.0168  0.3578
  385SOL    HW1 1154   3.097   2.080   1.737 -0.1333 -1.3877 -0.1229
  385SOL    HW2 1155   3.056   1.920   1.723  5.4772  1.5428 -0.8417
  386SOL     OW 1156   0.436   1.131   0.436  0.0570  0.3578  0.1102
  386SOL    HW1 1157   0.470   1.031   0.434  1.0641  0.5677  0.4195
  386SOL    HW2 1158   0.377   1.156   0.360  0.9393  1.0603  0.4408
  387SOL     OW 1159   0.972   0.317   1.676 -0.1878 -0.8615  0.0101
  387SOL    HW1 1160   1.052   0.379   1.668  1.2771  0.1654 -2.1095
  387SOL    HW2 1161   0.953   0.258   1.586  1.8572 -0.9212  0.8943
  388SOL     OW 1162   1.170   2.614   1.781 -0.6003  0.1076 -0.3085
  388SOL    HW1 1163   1.160   2.631   1.683 -1.4166 -0.4752 -0.2368
  388SOL    HW2 1164   1.255   2.568   1.809 -2.3002  0.0424  1.9604
  389SOL     OW 1165   0.258   3.096   1.138  0.2513  0.9399 -0.0866
  389SOL    HW1 1166   0.188   3.103   1.209  0.3912 -0.2767 -0.8733
  389SOL    HW2 1167   0.299   3.000   1.128 -0.0202 -0.3639 -4.8529
  390SOL     OW 1168   1.031   0.872   1.248 -0.1348  0.3426 -0.1775
  390SOL    HW1 1169   1.122   0.822   1.263 -1.5367 -2.1072 -0.1774
  390SOL    HW2 1170   0.977   0.910   1.332  0.0278 -1.0096 -2.1273
  391SOL     OW 1171   2.110   1.136   1.033 -0.7641  0.0260  0.8632
  391SOL    HW1 1172   2.018   1.088   1.050  1.5681 -0.9381 -0.9119
  391SOL    HW2 1173   2.165   1.100   0.948  1.2781  0.3810  0.9405
  392SOL     OW 1174   0.868   2.717   3.085 -0.1985 -0.1576 -0.4408
  392SOL    HW1 1175   0.789   2.710   3.151  1.1091  1.0673 -1.4363
  392SOL    HW2 1176   0.955   2.763   3.123 -1.0693  1.0321 -3.0862
  393SOL     OW 1177   0.342   0.588   1.998  0.5259  0.0004  0.8733
  393SOL    HW1 1178   0.252   0.537   2.007 -0.6032  2.7204 -0.4446
  393SOL    HW2 1179   0.407   0.549   1.923  1.3527  0.1601 -0.1737
  394SOL     OW 1180   2.840   1.809   2.785  0.5121  0.4075  0.0049
  394SOL    HW1 1181   2.914   1.810   2.712  0.5914  1.4476  0.1550
  394SOL    HW2 1182   2.781   1.897   2.781 -2.1523  2.1692  1.8954
  395SOL     OW 1183   1.597   1.924   0.699  0.1048  0.1250  0.6029
  395SOL    HW1 1184   1.661   1.857   0.645  1.9743 -2.0490 -1.0924
  395SOL    HW2 1185   1.650   1.986   0.768 -0.4406  2.0161  2.4706
  396SOL     OW 1186   2.753   2.062   1.283  0.0518  0.0483  0.7246
  396SOL    HW1 1187   2.787   2.063   1.379  0.3875 -0.8388 -1.6654
  396SOL    HW2 1188   2.653   2.088   1.284 -0.9986 -0.4592  3.1753
  397SOL     OW 1189   1.002   2.078   0.646  0.0821 -0.3508 -0.2343
  397SOL    HW1 1190   0.920   2.042   0.601  3.3962 -1.4202  1.5218
  397SOL    HW2 1191   0.992   2.176   0.685 -0.8030  1.1382  2.4849
  398SOL     OW 1192   2.161   0.049   1.069  0.7559  0.3001 -0.5605
  398SOL    HW1 1193   2.137  -0.054   1.092  0.5815 -2.1282 -0.3925
  398SOL    HW2 1194   2.090   0.117   1.091  2.0848 -1.9238  1.7105
  399SOL     OW 1195   2.950   2.568   2.741  0.0764 -0.9480  0.1335
  399SOL    HW1 1196   2.907   2.526   2.652 -0.7458  1.3341 -0.4163
  399SOL    HW2 1197   2.913   2.522   2.829 -2.9113 -0.5439  1.9439
  400SOL     OW 1198   0.841   1.601   1.267  0.3085  0.0780  0.0288
  400SOL    HW1 1199   0.785   1.645   1.344 -0.1569 -0.0961  0.1326
  400SOL    HW2 1200   0.820   1.637   1.169 -0.2006 -0.1780 -0.8634
  401SOL     OW 1201   1.838   0.109   1.281 -0.0590  0.2345 -0.4076
  401SOL    HW1 1202   1.903   0.159   1.349 -1.5684 -1.0850 -0.5827
  401SOL    HW2 1203   1.736   0.119   1.299 -0.4223  0.7951 -1.3891
  402SOL     OW 1204   1.306   0.150   3.042  0.1923  0.0589  0.1487
  402SOL    HW1 1205   1.412   0.153   3.022 -0.8996 -1.7817 -1.0070
  402SOL    HW2 1206   1.266   0.236   3.080  1.9921 -4.4623 -1.4382
  403SOL     OW 1207   2.277   1.808   0.954  0.6012  0.4626 -0.3302
  403SOL    HW1 1208   2.378   1.791   0.967 -0.1831 -0.7559  0.8760
  403SOL    HW2 1209   2.235   1.874   1.027  0.7931  0.2344 -0.2873
  404SOL     OW 1210   0.190   2.449   2.815 -0.6608  0.2874  0.7177
  404SOL    HW1 1211   0.283   2.445   2.762  2.5802  1.2804  1.2105
  404SOL    HW2 1212   0.182   2.545   2.857 -0.9384  1.2215 -2.7225
  405SOL     OW 1213   0.269   2.537   0.590  0.0561  1.3607 -0.3135
  405SOL    HW1 1214   0.239   2.516   0.496  0.3779  1.8006  0.0425
  405SOL    HW2 1215   0.332   2.616   0.595 -1.7447  4.2881  0.6987
  406SOL     OW 1216   0.021   1.518   2.959 -0.1818  0.3511 -0.0982
  406SOL    HW1 1217   0.101   1.479   2.901  1.1522  0.2080 -0.9525
  406SOL    HW2 1218   0.045   1.526   3.059 -1.6994  1.4674 -0.7772
  407SOL     OW 1219   1.544   0.945   0.907 -0.2100 -0.0277 -0.8820
  407SOL    HW1 1220   1.540   0.940   0.807  0.3939 -1.6641 -0.8105
  407SOL    HW2 1221   1.465   0.994   0.953 -0.9534  0.1094 -0.6897
  408SOL     OW 1222   1.467   2.368   0.968  0.5480  0.4617 -0.1846
  408SOL    HW1 1223   1.533   2.370   0.890  0.6397  0.4384  1.9245
  408SOL    HW2 1224   1.505   2.433   1.041  3.0276  2.1008  0.6386
  409SOL     OW 1225   0.649   0.894   0.673  0.6083 -0.1241  0.3043
  409SOL    HW1 1226   0.571   0.883   0.606  0.6325  0.8053  2.1160
  409SOL    HW2 1227   0.695   0.801   0.690 -0.4414  1.7357  0.9653
  410SOL     OW 1228   1.325   2.001   1.502 -0.0354  0.1171 -0.2215
  410SOL    HW1 1229   1.310   2.059   1.591 -3.4077  0.4680  2.8298
  410SOL    HW2 1230   1.234   1.966   1.471 -1.4180 -0.0794  1.6393
  411SOL     OW 1231   2.369   1.841   0.033 -0.0617 -0.1069  0.3501
  411SOL    HW1 1232   2.279   1.832  -0.015 -1.3275  0.7662 -1.8257
  411SOL    HW2 1233   2.451   1.841  -0.028 -0.5319 -1.9954  1.5038
  412SOL     OW 1234   1.514   2.401   2.235  0.2885 -0.2013 -0.5290
  412SOL    HW1 1235   1.501   2.503   2.247 -0.4835 -0.2697  1.8313
  412SOL    HW2 1236   1.435   2.342   2.281 -2.0862  0.8321  0.7595
  413SOL     OW 1237   3.022   0.265   2.912 -0.6420  0.6894  0.1787
  413SOL    HW1 1238   3.004   0.171   2.948 -0.4935  0.1987 -1.2181
  413SOL    HW2 1239   3.125   0.285   2.910 -1.7907  0.7565  3.6371
  414SOL     OW 1240   1.785   1.327   1.310  0.1166  0.4633  0.4368
  414SOL    HW1 1241   1.719   1.397   1.357  1.0016  3.0277 -0.3742
  414SOL    HW2 1242   1.751   1.299   1.215 -1.4081 -1.2128 -1.6511
  415SOL     OW 1243   0.360   2.270   0.666  0.5597  0.0036  0.0426
  415SOL    HW1 1244   0.338   2.370   0.662  0.0291 -1.5523  0.9248
  415SOL    HW2 1245   0.284   2.207   0.690 -2.7184  1.2283 -0.5427
  416SOL     OW 1246   0.359   1.022   1.055  0.4198 -0.4853  0.6044
  416SOL    HW1 1247   0.298   0.997   0.971 -1.3285  0.4920  0.9061
  416SOL    HW2 1248   0.455   1.048   1.038 -2.5790 -1.9935  0.0708
  417SOL     OW 1249   2.147   2.332   1.870  0.3579 -0.0089  0.0924
  417SOL    HW1 1250   2.160   2.229   1.853  2.6944 -2.3116 -1.8296
  417SOL    HW2 1251   2.057   2.355   1.925 -3.5041 -0.0787  0.4526
  418SOL     OW 1252   1.135   0.419   1.362  0.2281  0.3018 -0.6796
  418SOL    HW1 1253   1.034   0.393   1.332  2.7270  2.4577 -1.2057
  418SOL    HW2 1254   1.199   0.420   1.278  0.6153 -0.1439 -2.4856
  419SOL     OW 1255   0.974   0.369   3.005  0.1545  0.5537  0.5306
  419SOL    HW1 1256   1.001   0.398   2.908 -0.5679  1.4989 -0.5441
  419SOL    HW2 1257   0.920   0.280   3.009 -0.2035  0.8022 -2.1433
  420SOL     OW 1258   0.199   2.285   0.368 -0.0534 -0.2172 -0.0267
  420SOL    HW1 1259   0.172   2.220   0.289 -0.9192 -2.3387 -0.5401
  420SOL    HW2 1260   0.138   2.293   0.450  0.9348  2.5668  0.4768
  421SOL     OW 1261   0.333   3.084   0.648 -0.2688 -0.9594 -0.4398
  421SOL    HW1 1262   0.358   3.013   0.577  0.2799  0.1177 -0.0914
  421SOL    HW2 1263   0.415   3.136   0.686 -2.2864  1.6077  1.2632
  422SOL     OW 1264   0.933   2.512   1.016 -0.2206 -0.3719 -0.1413
  422SOL    HW1 1265   0.929   2.594   0.953  0.3763  2.4807  2.6334
  422SOL    HW2 1266   0.985   2.536   1.106  1.5285  0.2033  1.7525
  423SOL     OW 1267   0.019   0.737   1.198  0.2664  0.2096  0.0296
  423SOL    HW1 1268  -0.025   0.687   1.280  2.0993  1.9086 -2.0004
  423SOL    HW2 1269  -0.052   0.758   1.123 -1.0453 -1.9594 -3.5473
  424SOL     OW 1270   1.020   2.142   2.190  0.4040 -0.1646 -0.7552
  424SOL    HW1 1271   1.061   2.223   2.139  1.8134  1.5565 -1.6789
  424SOL    HW2 1272   0.964   2.169   2.277 -0.6012 -0.7635 -0.9022
  425SOL     OW 1273   2.029   1.410   1.085 -0.0993  0.1499 -0.2388
  425SOL    HW1 1274   2.070   1.321   1.050  0.2623  0.6312  0.2909
  425SOL    HW2 1275   2.068   1.490   1.031 -4.6904 -1.5586  2.3473
  426SOL     OW 1276   1.561   1.514   1.397 -0.0768 -0.0179 -0.5126
  426SOL    HW1 1277   1.504   1.592   1.352 -1.3146  4.3168 -0.1833
  426SOL    HW2 1278   1.576   1.536   1.498 -0.2985 -0.8796  1.3598
  427SOL     OW 1279   1.920   2.359   2.023  0.1162  0.2441  0.3183
  427SOL    HW1 1280   1.942   2.286   2.095  0.2669  0.8224 -1.9271
  427SOL    HW2 1281   1.928   2.461   2.048 -2.5293  2.0991  1.2046
  428SOL     OW 1282   0.937   3.051   0.119 -0.2389 -0.7773  0.1481
  428SOL    HW1 1283   0.990   3.133   0.156  0.4200  2.5495  1.8803
  428SOL    HW2 1284   0.995   2.961   0.127  1.0830 -0.7712  0.5110
  429SOL     OW 1285   1.334   0.041   0.229  0.1022  1.0297  0.4154
  429SOL    HW1 1286   1.414   0.091   0.269 -0.8379 -2.1116 -0.1109
  429SOL    HW2 1287   1.334   0.032   0.127 -0.5602 -1.5686 -0.6273
  430SOL     OW 1288   2.815   1.508   0.366  0.1160 -0.2184 -0.4001
  430SOL    HW1 1289   2.842   1.584   0.305  1.0233 -1.8603  3.2883
  430SOL    HW2 1290   2.791   1.537   0.464 -0.9825  0.9914  0.1433
  431SOL     OW 1291   2.096   1.596   0.881 -0.2734  0.2418  0.6532
  431SOL    HW1 1292   2.173   1.666   0.897  1.7548 -0.6499  0.1741
  431SOL    HW2 1293   2.005   1.643   0.857  0.4516  1.1993  1.4963
  432SOL     OW 1294   2.891   2.292   1.239  0.2218  0.1676 -0.0366
  432SOL    HW1 1295   2.835   2.203   1.239  1.7606  2.2838  4.2572
  432SOL    HW2 1296   2.895   2.321   1.340 -0.5994  0.0600  0.3933
  433SOL     OW 1297   1.836   0.321   0.784 -0.1915  0.4298  0.2251
  433SOL    HW1 1298   1.739   0.294   0.805 -0.2406 -0.3013 -1.9923
  433SOL    HW2 1299   1.903   0.300   0.858  0.5853  1.5742  0.6431
  434SOL     OW 1300   1.542   0.270   0.715  0.0499  0.0071 -0.3038
  434SOL    HW1 1301   1.556   0.368   0.676  0.6363  0.2559 -1.2300
  434SOL    HW2 1302   1.537   0.274   0.815 -0.9084  2.0996  0.2442
  435SOL     OW 1303   1.429   1.536   2.121  0.3484  0.3970 -0.3833
  435SOL    HW1 1304   1.375   1.535   2.206 -0.4919 -1.2896 -0.1330
  435SOL    HW2 1305   1.400   1.612   2.060  0.6701  1.9155  1.6685
  436SOL     OW 1306   1.631   2.706   2.368  0.6186 -1.0005 -0.3846
  436SOL    HW1 1307   1.616   2.785   2.432 -2.5223 -1.2972 -0.8922
  436SOL    HW2 1308   1.616   2.619   2.416 -0.5191 -0.0720  1.3428
  437SOL     OW 1309   1.080   2.935   0.830  0.5442 -0.8968  0.3687
  437SOL    HW1 1310   1.032   3.026   0.836  0.2021  1.1160  2.7652
  437SOL    HW2 1311   1.108   2.907   0.926 -0.4374  0.3635  0.4477
  438SOL     OW 1312   1.014   2.498   1.294  0.4478  0.0926 -0.6000
  438SOL    HW1 1313   1.082   2.532   1.370  0.8950  1.1149  1.8862
  438SOL    HW2 1314   0.981   2.399   1.295  0.7207 -0.7127  0.2012
  439SOL     OW 1315   0.707   1.685   1.029 -0.1097 -0.0634  0.3508
  439SOL    HW1 1316   0.741   1.769   0.983 -0.2812 -1.3115  1.9888
  439SOL    HW2 1317   0.641   1.711   1.105  2.5221  1.9649 -0.8561
  440SOL     OW 1318   1.035   2.442   2.037 -0.0632  0.2987  0.0364
  440SOL    HW1 1319   0.987   2.487   1.960  0.0374 -0.1327  0.4427
  440SOL    HW2 1320   1.138   2.429   2.020  0.3696  1.5047 -0.2413
  441SOL     OW 1321   0.351   2.719   1.293  0.4607  0.2873 -0.1149
  441SOL    HW1 1322   0.415   2.641   1.307 -2.7633  1.8097  2.3503
  441SOL    HW2 1323   0.369   2.774   1.206  0.7449 -2.1661  0.5197
  442SOL     OW 1324   2.250   0.663   2.586  0.1151  0.3930  0.5089
  442SOL    HW1 1325   2.247   0.585   2.519  0.3843  1.8383 -3.2557
  442SOL    HW2 1326   2.182   0.737   2.566 -0.0162 -0.9641  1.5878
  443SOL     OW 1327   1.274   2.578   2.221  0.5511  1.0731  0.1192
  443SOL    HW1 1328   1.246   2.480   2.246 -0.9931  1.5154 -1.9861
  443SOL    HW2 1329   1.225   2.644   2.278 -0.1833  0.4746 -1.7482
  444SOL     OW 1330   1.030   1.215   1.456  0.0692 -0.1857 -0.1104
  444SOL    HW1 1331   1.127   1.190   1.498  1.4192  1.6578 -0.2862
  444SOL    HW2 1332   1.013   1.318   1.467 -1.5078 -0.5206  1.6371
  445SOL     OW 1333   0.181   2.268   2.084 -0.3444  0.0609 -0.7688
  445SOL    HW1 1334   0.077   2.245   2.082  1.1281  0.3386 -1.8545
  445SOL    HW2 1335   0.238   2.195   2.134 -0.6618 -1.2658  1.7993
  446SOL     OW 1336   0.135   1.954   2.349 -0.0522 -0.4324 -0.4790
  446SOL    HW1 1337   0.070   2.030   2.384  3.1729  2.9611 -1.1192
  446SOL    HW2 1338   0.096   1.904   2.269  2.8009 -0.5041 -0.0269
  447SOL     OW 1339   1.281   1.708   1.934 -0.2297 -0.2783  0.6797
  447SOL    HW1 1340   1.190   1.755   1.958 -0.3937 -0.5599  0.8459
  447SOL    HW2 1341   1.357   1.768   1.976 -0.3827 -1.3811  1.4451
  448SOL     OW 1342   0.191   1.457   2.049  0.3930 -0.4835  0.3496
  448SOL    HW1 1343   0.157   1.535   1.989  0.1423 -1.8499  2.3788
  448SOL    HW2 1344   0.114   1.426   2.119 -0.5556  0.9101  0.7285
  449SOL     OW 1345   1.864   2.935   0.815  0.6569 -0.2395 -0.2909
  449SOL    HW1 1346   1.836   2.974   0.912  0.8915 -0.8655 -0.7255
  449SOL    HW2 1347   1.878   2.833   0.809 -0.2141 -1.8719 -3.2068
  450SOL     OW 1348   2.233   1.440   0.672 -0.2018 -0.4367  0.0823
  450SOL    HW1 1349   2.218   1.494   0.760  0.0843  0.3163 -1.4994
  450SOL    HW2 1350   2.260   1.507   0.592 -0.6887  1.8495 -0.0910
  451SOL     OW 1351   1.399   3.025   1.490  0.0391  0.3057  0.7507
  451SOL    HW1 1352   1.328   3.102   1.518 -2.5123  4.7222 -0.7372
  451SOL    HW2 1353   1.444   2.975   1.568 -0.5835 -3.4623 -1.3377
  452SOL     OW 1354   2.693   2.318   2.255  0.0332 -0.4528  0.0653
  452SOL    HW1 1355   2.633   2.401   2.236 -3.1242 -1.2657 -0.5410
  452SOL    HW2 1356   2.673   2.269   2.347 -0.3518 -1.9538  1.0480
  453SOL     OW 1357   2.455   2.652   3.072 -0.2398 -0.0691  0.0020
  453SOL    HW1 1358   2.369   2.700   3.104  0.3070 -0.6096 -2.0660
  453SOL    HW2 1359   2.434   2.579   3.006  1.2104  7.3236 -0.0204
  454SOL     OW 1360   0.939   1.198   1.997 -0.1567 -0.2111 -0.3012
  454SOL    HW1 1361   0.929   1.180   1.894 -1.7339 -0.5670 -0.9088
  454SOL    HW2 1362   1.023   1.256   2.022  1.8321 -1.2027  1.6897
  455SOL     OW 1363   0.656   2.651   2.822  0.3459  0.3415 -0.0749
  455SOL    HW1 1364   0.750   2.698   2.825  0.8769  3.5222  0.4722
  455SOL    HW2 1365   0.646   2.561   2.867 -0.8074 -0.9844 -1.0607
  456SOL     OW 1366   0.373   1.945   0.213  0.2483 -0.2838  0.1387
  456SOL    HW1 1367   0.465   1.924   0.256  1.3111  1.7367 -2.7734
  456SOL    HW2 1368   0.360   2.042   0.178 -0.6984 -1.3507 -0.9561
  457SOL     OW 1369   0.414   2.772   0.657 -0.3309 -0.3683  0.0797
  457SOL    HW1 1370   0.438   2.849   0.588 -0.4676  1.5353  0.4349
  457SOL    HW2 1371   0.495   2.760   0.717  1.8226  0.0512 -1.1904
  458SOL     OW 1372   2.911   0.042   1.248 -0.8071 -0.1276 -0.3851
  458SOL    HW1 1373   2.993   0.088   1.207  1.2019 -1.1659 -0.2461
  458SOL    HW2 1374   2.895  -0.050   1.203  1.1932 -1.2624 -0.6740
  459SOL     OW 1375   2.204   2.485   0.769  0.2560  0.0677  0.2878
  459SOL    HW1 1376   2.253   2.547   0.840 -0.1145  2.6767  0.9975
  459SOL    HW2 1377   2.244   2.389   0.764  0.3821 -1.7315 -0.9851
  460SOL     OW 1378   1.194   2.045   2.754  0.0163 -0.2262  0.4466
  460SOL    HW1 1379   1.248   2.040   2.663 -0.0715  0.1119 -0.4965
  460SOL    HW2 1380   1.190   1.952   2.802  0.3744 -1.7037 -0.4762
  461SOL     OW 1381   0.443   2.120   2.708 -0.6330 -0.6155 -0.2651
  461SOL    HW1 1382   0.383   2.049   2.657 -2.4407  1.0880 -0.5874
  461SOL    HW2 1383   0.486   2.079   2.798  0.2750  2.1544 -0.7784
  462SOL     OW 1384   0.945   1.017   1.757 -0.2533  0.2948 -0.0915
  462SOL    HW1 1385   0.944   0.936   1.692 -0.8561  0.4722  2.3871
  462SOL    HW2 1386   0.906   1.103   1.714  1.0716 -1.5751 -0.6209
  463SOL     OW 1387   0.435   0.853   0.475  0.1540 -0.1194  0.0000
  463SOL    HW1 1388   0.471   0.758   0.476 -0.8727  1.0583 -0.1577
  463SOL    HW2 1389   0.330   0.863   0.463  2.1630  2.5604 -0.5371
  464SOL     OW 1390   0.617   2.357   2.227  0.3158  0.2478 -0.5768
  464SOL    HW1 1391   0.543   2.410   2.284 -3.6909 -0.3622 -0.9475
  464SOL    HW2 1392   0.594   2.344   2.125  1.3722 -0.9567 -2.3252
  465SOL     OW 1393   0.241   0.932   0.816 -0.2373 -0.7129  0.3265
  465SOL    HW1 1394   0.160   0.942   0.749  1.1663 -1.7364 -0.5737
  465SOL    HW2 1395   0.290   0.841   0.801 -3.3801 -1.2680 -0.5199
  466SOL     OW 1396   1.362   1.132   1.024  0.3933  0.2683 -0.2177
  466SOL    HW1 1397   1.367   1.220   0.968 -2.3246  0.4427 -1.9498
  466SOL    HW2 1398   1.272   1.126   1.079 -0.4779 -4.0940 -2.2659
  467SOL     OW 1399   0.598   0.422   2.476 -0.5735 -0.1297  0.4388
  467SOL    HW1 1400   0.532   0.500   2.496 -2.3926 -0.2201  0.7193
  467SOL    HW2 1401   0.602   0.355   2.553 -1.3687  2.0851 -0.7774
  468SOL     OW 1402   0.432   2.244   1.624 -0.2473  0.3090 -0.0376
  468SOL    HW1 1403   0.509   2.309   1.662  1.0195  0.3118 -0.5397
  468SOL    HW2 1404   0.450   2.211   1.526  0.7098 -0.9743  0.4933
  469SOL     OW 1405   1.392   1.333   1.256  0.1248 -0.3176  0.8565
  469SOL    HW1 1406   1.444   1.302   1.164  1.6536 -2.6678 -0.4036
  469SOL    HW2 1407   1.455   1.391   1.313  2.1957 -0.4347  0.6148
  470SOL     OW 1408   3.034   1.779   0.746 -0.0655 -0.4801 -0.2775
  470SOL    HW1 1409   3.121   1.820   0.699 -0.4140  1.3764  1.0398
  470SOL    HW2 1410   3.060   1.760   0.843 -0.7961  1.0903 -1.8648
  471SOL     OW 1411   2.568   1.395   2.173 -0.4007 -0.2361 -0.5650
  471SOL    HW1 1412   2.540   1.305   2.216 -1.0007  2.2332  1.6887
  471SOL    HW2 1413   2.654   1.429   2.218 -0.6583  0.0984  1.0027
  472SOL     OW 1414   1.128   2.467   0.090 -0.5367 -0.7413 -0.6208
  472SOL    HW1 1415   1.200   2.455   0.165 -0.8492  0.2327  1.4014
  472SOL    HW2 1416   1.051   2.399   0.100  0.9016 -1.8553 -3.0647
  473SOL     OW 1417   1.063   1.506   1.012  0.1173 -0.3512 -0.1763
  473SOL    HW1 1418   0.965   1.483   0.983  0.5110  1.5210  1.0915
  473SOL    HW2 1419   1.087   1.463   1.106 -1.7131 -0.5791  1.8006
  474SOL     OW 1420   0.651   1.283   0.547 -0.1532 -0.0814 -0.1763
  474SOL    HW1 1421   0.578   1.238   0.485 -0.2005  0.5613 -0.4633
  474SOL    HW2 1422   0.722   1.222   0.595 -0.1382  1.2093  0.6060
  475SOL     OW 1423   2.802   0.051   0.823 -0.3559 -0.2941 -0.1764
  475SOL    HW1 1424   2.879   0.118   0.801  1.7937 -1.5158  0.2926
  475SOL    HW2 1425   2.730   0.106   0.872  1.7999 -1.0910  2.2980
  476SOL     OW 1426   0.971   3.050   1.799  0.6843 -0.1839 -0.3626
  476SOL    HW1 1427   1.062   3.097   1.824  0.4094  2.8128  2.5101
  476SOL    HW2 1428   0.967   3.032   1.693  2.2817  0.4299  0.5006
  477SOL     OW 1429   1.460   0.295   2.409  0.2090 -0.0035 -0.0572
  477SOL    HW1 1430   1.461   0.335   2.507  2.1747 -0.6666  0.3259
  477SOL    HW2 1431   1.550   0.249   2.382  1.3463 -0.4272 -0.3674
  478SOL     OW 1432   2.249   1.895   0.294 -0.0610 -0.1837  0.0150
  478SOL    HW1 1433   2.224   1.801   0.326 -2.4479 -1.7974  1.5774
  478SOL    HW2 1434   2.273   1.903   0.190  0.5895  2.5681  2.2782
  479SOL     OW 1435   1.236   0.972   2.903 -0.4549 -0.1361  0.1928
  479SOL    HW1 1436   1.327   0.959   2.858  0.6496  0.5449  2.0468
  479SOL    HW2 1437   1.172   0.895   2.879 -0.1350  0.3933 -1.7906
  480SOL     OW 1438   2.677   2.297   0.390  0.5174 -0.0921  0.2973
  480SOL    HW1 1439   2.722   2.205   0.395  0.2440  1.7199 -1.8930
  480SOL    HW2 1440   2.579   2.298   0.367  1.5976 -1.6663 -2.3900
  481SOL     OW 1441   1.051   1.182   0.881  0.2551  0.3244 -0.3281
  481SOL    HW1 1442   1.080   1.275   0.863 -0.9372  0.9402  0.5700
  481SOL    HW2 1443   1.046   1.157   0.983  0.5166 -0.0549  0.5473
  482SOL     OW 1444   1.562   0.305   1.985  0.0019 -0.0277  0.2720
  482SOL    HW1 1445   1.607   0.395   1.997 -0.0926 -0.2908 -1.1112
  482SOL    HW2 1446   1.630   0.226   1.983  0.7842 -0.4837 -0.0252
  483SOL     OW 1447   0.225   2.328   1.204  0.0077  0.3478  0.4452
  483SOL    HW1 1448   0.176   2.371   1.281 -0.7667 -1.7420 -2.0267
  483SOL    HW2 1449   0.223   2.399   1.125  0.4825 -1.3991  0.6384
  484SOL     OW 1450   1.755   1.059   1.324  0.6440 -0.3686 -0.1636
  484SOL    HW1 1451   1.798   0.997   1.398 -1.5697  1.9337  1.5392
  484SOL    HW2 1452   1.796   1.154   1.329 -1.5958  1.7434 -0.9430
  485SOL     OW 1453   0.740   0.737   1.831  0.3719 -0.4538 -0.1080
  485SOL    HW1 1454   0.712   0.753   1.731 -0.0291  0.6855  0.0508
  485SOL    HW2 1455   0.839   0.701   1.840 -1.7149  1.8243 -1.4351
  486SOL     OW 1456   0.830   1.889   2.415 -0.3053 -0.1075 -0.1764
  486SOL    HW1 1457   0.880   1.884   2.508  0.4436 -0.5501 -0.4945
  486SOL    HW2 1458   0.805   1.983   2.389  0.3703 -0.7818 -1.6113
  487SOL     OW 1459   1.781   1.596   1.044 -0.0957 -0.6400 -0.1040
  487SOL    HW1 1460   1.841   1.509   1.044  1.6855 -0.2570  1.0237
  487SOL    HW2 1461   1.810   1.665   0.973  3.3733 -1.6355  1.5404
  488SOL     OW 1462   2.940   0.811   2.287  0.5057  0.6717  0.2126
  488SOL    HW1 1463   3.017   0.744   2.303 -0.1279  2.0788  0.3608
  488SOL    HW2 1464   2.858   0.785   2.349  0.1533 -0.1759 -0.4009
  489SOL     OW 1465   2.769   0.325   1.298  0.0764  0.0790 -0.3796
  489SOL    HW1 1466   2.747   0.286   1.392 -2.0623  1.3532 -0.9137
  489SOL    HW2 1467   2.850   0.276   1.254 -0.4473 -0.5205 -2.5228
  490SOL     OW 1468   1.435   2.912   2.820 -0.0656 -0.1706 -0.1557
  490SOL    HW1 1469   1.498   2.832   2.843 -1.4445 -1.7649  1.7361
  490SOL    HW2 1470   1.403   2.900   2.722  1.5106  0.2305 -0.5559
  491SOL     OW 1471   1.747   1.497   2.719 -0.3475 -0.1508 -0.2044
  491SOL    HW1 1472   1.720   1.439   2.800  0.7415 -0.8118  3.6328
  491SOL    HW2 1473   1.831   1.556   2.734  0.8485  1.6233 -1.1803
  492SOL     OW 1474   0.534   2.053   0.652 -0.2857 -0.0531 -0.2064
  492SOL    HW1 1475   0.580   2.039   0.749  2.4375 -0.4514  1.5693
  492SOL    HW2 1476   0.473   2.132   0.646  1.0234 -0.9243  2.5934
  493SOL     OW 1477   0.452   1.352   2.097  0.8751  0.3141  0.4448
  493SOL    HW1 1478   0.362   1.402   2.080  1.2287  0.7967 -0.2037
  493SOL    HW2 1479   0.440   1.253   2.127 -2.4555  1.3439 -2.5906
  494SOL     OW 1480   2.702   2.605   0.099 -0.1035 -0.8633 -0.4454
  494SOL    HW1 1481   2.709   2.596   0.203 -1.2198  0.5275  0.7769
  494SOL    HW2 1482   2.607   2.611   0.060  0.4691  0.4287  0.7119
  495SOL     OW 1483   2.530   2.828   2.616  0.1910 -0.3503 -0.6168
  495SOL    HW1 1484   2.548   2.734   2.648  0.6646  1.3812  0.2483
  495SOL    HW2 1485   2.605   2.862   2.553 -0.2934 -2.6328 -2.5572
  496SOL     OW 1486   1.983   2.307   0.812  0.2792  0.5339  0.0378
  496SOL    HW1 1487   2.012   2.374   0.881  0.6084 -1.2540 -2.2218
  496SOL    HW2 1488   2.045   2.222   0.811  1.3080  0.0453 -1.7911
  497SOL     OW 1489   0.195   2.996   2.382 -0.6258  0.1023  0.3875
  497SOL    HW1 1490   0.165   3.056   2.454  1.0122 -1.4559 -0.6477
  497SOL    HW2 1491   0.239   3.049   2.307 -1.3331 -0.6462  1.7506
  498SOL     OW 1492   1.119   1.372   1.221 -0.5183 -0.2291 -0.0089
  498SOL    HW1 1493   1.218   1.346   1.237  0.6436 -0.7212  1.4860
  498SOL    HW2 1494   1.075   1.426   1.299  1.4093  0.5801 -0.6148
  499SOL     OW 1495   0.621   1.819   0.343  0.2852 -0.5965 -0.2704
  499SOL    HW1 1496   0.675   1.763   0.276 -0.6167  1.2703  0.8812
  499SOL    HW2 1497   0.689   1.888   0.387  2.5040 -0.3379 -0.8394
  500SOL     OW 1498   1.530   2.876   1.673 -0.4148  0.0030 -0.3412
  500SOL    HW1 1499   1.553   2.911   1.766  0.9303  0.9969 -0.1048
  500SOL    HW2 1500   1.594   2.801   1.643  1.0380  3.3882  0.7968
  501SOL     OW 1501   0.790   1.172   2.293 -0.0838 -0.2349 -0.1569
  501SOL    HW1 1502   0.720   1.091   2.306 -0.6842 -3.5161 -0.0308
  501SOL    HW2 1503   0.826   1.174   2.194 -2.5274 -0.4039  1.6708
  502SOL     OW 1504   2.585   0.933   1.790  0.0327  0.1730  0.1491
  502SOL    HW1 1505   2.593   0.966   1.692 -0.7089 -1.9997 -0.9433
  502SOL    HW2 1506   2.577   0.826   1.801  1.6955 -2.9395  2.2731
  503SOL     OW 1507   1.297   0.130   0.662 -0.0218  0.3407 -0.5132
  503SOL    HW1 1508   1.228   0.203   0.679  0.4518 -2.8491  0.5503
  503SOL    HW2 1509   1.392   0.170   0.663 -1.5180 -0.0785 -0.3116
  504SOL     OW 1510   3.039   2.308   1.521  0.2481 -0.2749  0.7667
  504SOL    HW1 1511   3.020   2.405   1.545 -0.9284  0.2320  1.3566
  504SOL    HW2 1512   3.113   2.264   1.576 -0.8452  1.5668 -4.5791
  505SOL     OW 1513   2.311   1.173   1.467  0.3448  0.2487 -0.3343
  505SOL    HW1 1514   2.306   1.196   1.367 -2.9653 -0.7326  0.0176
  505SOL    HW2 1515   2.376   1.233   1.516  2.7571  0.2981  0.1150
  506SOL     OW 1516   1.971   0.157   1.848  0.3620 -0.2306  0.6111
  506SOL    HW1 1517   2.069   0.116   1.836  1.0712  0.6703 -0.9636
  506SOL    HW2 1518   1.964   0.261   1.856 -0.1420 -1.2395  0.2956
  507SOL     OW 1519   0.525   0.719   2.197  1.0670  0.4453 -0.1007
  507SOL    HW1 1520   0.453   0.679   2.130 -2.7785  0.2968  1.5349
  507SOL    HW2 1521   0.577   0.648   2.245  0.0973 -1.2373  0.7689
  508SOL     OW 1522   0.322   1.694   0.782  0.2967 -0.1401  0.2896
  508SOL    HW1 1523   0.357   1.748   0.705 -2.6982 -2.5296 -1.2859
  508SOL    HW2 1524   0.302   1.747   0.866  0.4489  0.5608 -1.1283
  509SOL     OW 1525   1.275   1.232   2.472 -0.0031  0.2060  0.5774
  509SOL    HW1 1526   1.303   1.206   2.377 -1.8298  0.9642  2.0421
  509SOL    HW2 1527   1.183   1.191   2.492  1.0388 -3.5216 -0.2448
  510SOL     OW 1528   1.295   2.019   2.222  0.3540  0.4747  0.1078
  510SOL    HW1 1529   1.306   2.046   2.122  1.4535 -0.2334 -0.3103
  510SOL    HW2 1530   1.222   1.949   2.237 -2.8784 -0.5405  1.6623
  511SOL     OW 1531   3.007   2.763   1.301  0.1917 -0.0240  0.1977
  511SOL    HW1 1532   3.042   2.760   1.204 -1.1430 -1.0309 -1.1129
  511SOL    HW2 1533   2.908   2.748   1.313  2.0311 -0.7464 -0.0746
  512SOL     OW 1534   2.363   0.426   1.369  0.1973 -0.2085  0.2724
  512SOL    HW1 1535   2.263   0.403   1.369 -0.0108 -1.5842 -2.5853
  512SOL    HW2 1536   2.416   0.392   1.291 -0.2849  0.5209  0.2968
  513SOL     OW 1537   2.587   2.129   0.913  0.1832  0.6372  0.5877
  513SOL    HW1 1538   2.535   2.184   0.845  1.6530  0.2553  1.3327
  513SOL    HW2 1539   2.679   2.101   0.872 -0.0809 -1.2614 -1.1827
  514SOL     OW 1540   0.632   2.722   0.430  0.6511  0.0070  0.0632
  514SOL    HW1 1541   0.682   2.693   0.343  0.6833 -3.1857 -1.1768
  514SOL    HW2 1542   0.667   2.808   0.473  1.7119 -1.1207 -2.7857
  515SOL     OW 1543   1.934   1.344   2.419 -0.2527  0.0173 -0.0831
  515SOL    HW1 1544   1.923   1.312   2.323  1.1837  0.2033  1.6613
  515SOL    HW2 1545   1.848   1.328   2.474 -0.7412  0.9990  2.9649
  516SOL     OW 1546   0.248   0.256   1.874  0.0280  1.0211 -0.0652
  516SOL    HW1 1547   0.349   0.219   1.857  1.8481  0.2543  0.2694
  516SOL    HW2 1548   0.176   0.184   1.850 -0.0396  1.1109  3.4691
  517SOL     OW 1549   0.477   0.197   1.159 -0.2574 -0.9885  0.2215
  517SOL    HW1 1550   0.546   0.161   1.219 -1.6834  1.3111 -0.3604
  517SOL    HW2 1551   0.398   0.135   1.153  3.1390 -0.7499 -0.9844
  518SOL     OW 1552   2.136   3.026   1.818 -0.0443  0.9093 -0.7164
  518SOL    HW1 1553   2.211   3.093   1.823 -2.6972  0.3656  1.1189
  518SOL    HW2 1554   2.134   2.972   1.732  0.8026  0.8691  0.8594
  519SOL     OW 1555   2.357   2.193   2.530 -0.3534 -0.6712 -0.4581
  519SOL    HW1 1556   2.284   2.172   2.601  1.1153 -0.5076  2.5139
  519SOL    HW2 1557   2.361   2.296   2.522 -0.4077 -0.9570 -2.8886
  520SOL     OW 1558   1.858   2.750   1.681  0.1561  0.5133 -0.3455
  520SOL    HW1 1559   1.775   2.700   1.725 -2.3689 -1.4991  2.3985
  520SOL    HW2 1560   1.948   2.700   1.681 -2.0225  0.8447 -0.8910
  521SOL     OW 1561   0.582   0.049   2.152 -0.5037 -0.4275  0.0282
  521SOL    HW1 1562   0.480   0.045   2.159 -0.5728  1.0993  1.7014
  521SOL    HW2 1563   0.628   0.029   2.242  1.2447  2.7702 -3.8720
  522SOL     OW 1564   0.240   1.882   1.470 -0.1270 -0.7920 -0.1596
  522SOL    HW1 1565   0.248   1.950   1.546  0.5196  1.9396 -2.1608
  522SOL    HW2 1566   0.230   1.925   1.374 -0.0390 -0.6651 -0.1841
  523SOL     OW 1567   2.137   2.922   1.575 -0.6041 -0.3275 -0.1172
  523SOL    HW1 1568   2.226   2.862   1.585  0.4778 -0.6164  2.0323
  523SOL    HW2 1569   2.078   2.905   1.494  0.6590  0.6031 -1.4645
  524SOL     OW 1570   0.205   2.752   2.793  0.1463 -0.2686 -0.2573
  524SOL    HW1 1571   0.168   2.828   2.856 -0.4913  2.3327  0.9764
  524SOL    HW2 1572   0.298   2.777   2.745 -0.3493  0.6640  1.7451
  525SOL     OW 1573   2.144   2.047   0.497  0.2128 -0.3944  0.2897
  525SOL    HW1 1574   2.164   2.001   0.588  2.1361  0.7982 -2.1117
  525SOL    HW2 1575   2.173   1.982   0.420  0.9900 -1.7532 -2.7361
  526SOL     OW 1576   0.428   1.537   1.760  0.2812 -0.2073  0.9496
  526SOL    HW1 1577   0.443   1.596   1.844 -1.7877 -2.7798 -1.9468
  526SOL    HW2 1578   0.453   1.438   1.764  2.8075  1.7766 -0.2373
  527SOL     OW 1579   1.051   2.948   1.203 -0.2754 -0.3721  0.5374
  527SOL    HW1 1580   1.100   2.877   1.259  1.1855  1.6598 -0.3991
  527SOL    HW2 1581   1.116   3.022   1.177  1.1699 -0.7918  2.1190
  528SOL     OW 1582   1.310   2.380   0.573  0.0771 -0.2133 -0.2057
  528SOL    HW1 1583   1.376   2.293   0.575  0.4515 -2.0895  0.2182
  528SOL    HW2 1584   1.336   2.452   0.639 -1.0616 -2.1900  1.5474
  529SOL     OW 1585   1.894   1.756   0.828  0.0378 -0.2154 -0.5274
  529SOL    HW1 1586   1.850   1.745   0.734  1.4869  0.0704 -1.4195
  529SOL    HW2 1587   1.933   1.845   0.851  1.5757 -2.4080 -0.2077
  530SOL     OW 1588   0.441   2.494   0.171  0.3151 -0.2107  0.5517
  530SOL    HW1 1589   0.436   2.467   0.270 -0.2547  0.6862  1.3236
  530SOL    HW2 1590   0.454   2.414   0.099  1.2290  0.8134  0.8767
  531SOL     OW 1591   1.846   1.008   1.078  0.3894  0.0907  0.3492
  531SOL    HW1 1592   1.815   1.001   0.981  1.1669  1.0157  3.2312
  531SOL    HW2 1593   1.786   0.951   1.138 -1.0488  3.0017  1.2341
  532SOL     OW 1594   0.372   1.163   0.726 -0.2626  0.6515 -0.0729
  532SOL    HW1 1595   0.398   1.157   0.624 -0.9920  1.6388 -0.4908
  532SOL    HW2 1596   0.349   1.068   0.757  1.8843  1.9246 -0.1128
  533SOL     OW 1597   1.830   0.065   2.525  0.2155 -0.3146  0.0624
  533SOL    HW1 1598   1.923   0.037   2.551 -0.7828  1.0181 -2.9879
  533SOL    HW2 1599   1.788   0.141   2.584 -0.0787  2.7884 -0.1094
  534SOL     OW 1600   0.226   0.188   1.560  0.1040 -0.5204 -0.7487
  534SOL    HW1 1601   0.313   0.231   1.514  1.7402  0.5541  1.8275
  534SOL    HW2 1602   0.142   0.256   1.561 -0.0475  0.4691  0.0704
  535SOL     OW 1603   1.905   0.397   0.184  0.3411 -0.4284  0.7120
  535SOL    HW1 1604   1.964   0.471   0.223  1.6060  4.1143 -3.0056
  535SOL    HW2 1605   1.846   0.346   0.258 -0.6603 -1.8362  0.1618
  536SOL     OW 1606   1.240   2.574   0.999 -0.3592  1.0697 -0.8596
  536SOL    HW1 1607   1.268   2.480   1.029  3.3916  1.1125  0.2819
  536SOL    HW2 1608   1.248   2.583   0.896  1.9170  1.4860  1.1092
  537SOL     OW 1609   0.890   0.209   2.338  0.3910 -0.3892  0.2889
  537SOL    HW1 1610   0.872   0.287   2.276  0.4067  0.5180  2.3103
  537SOL    HW2 1611   0.819   0.136   2.319 -0.2985 -1.7880  0.9134
  538SOL     OW 1612   1.699   2.340   1.551 -0.0910  0.1114 -0.5805
  538SOL    HW1 1613   1.662   2.262   1.495 -0.3368 -2.2391  2.4579
  538SOL    HW2 1614   1.784   2.392   1.513  0.2565  0.9561  1.1421
  539SOL     OW 1615   0.180   1.628   2.697  0.3936  0.0571  0.1639
  539SOL    HW1 1616   0.081   1.597   2.676 -4.9662  1.5430 -0.4125
  539SOL    HW2 1617   0.188   1.726   2.739 -1.2862  3.2085  0.6258
  540SOL     OW 1618   2.697   1.727   2.047  0.0856 -0.2031 -0.8199
  540SOL    HW1 1619   2.650   1.654   1.985 -0.0734 -0.5330  2.2645
  540SOL    HW2 1620   2.675   1.830   2.034  2.7451  0.7546  1.6279
  541SOL     OW 1621   0.445   2.303   3.070  0.2998 -0.0506 -0.3546
  541SOL    HW1 1622   0.506   2.222   3.101 -1.7185 -3.7043 -1.6180
  541SOL    HW2 1623   0.356   2.280   3.023  1.7095  0.5355 -2.7117
  542SOL     OW 1624   2.188   2.618   0.482 -0.0856 -0.7774  0.6580
  542SOL    HW1 1625   2.178   2.704   0.422 -0.3392  3.3363  0.1684
  542SOL    HW2 1626   2.117   2.543   0.469  2.4769 -0.7317  0.3038
  543SOL     OW 1627   1.020   1.791   1.733 -0.5117  0.0627 -0.4787
  543SOL    HW1 1628   1.021   1.828   1.830 -0.6429 -0.1639  0.7602
  543SOL    HW2 1629   0.966   1.843   1.665 -1.2283 -4.3317  1.5669
  544SOL     OW 1630   0.874   0.435   0.154  0.2935  0.1259  0.2280
  544SOL    HW1 1631   0.897   0.355   0.217  1.3409  0.0804  0.1554
  544SOL    HW2 1632   0.903   0.417   0.053 -1.7949 -2.5290 -2.0030
  545SOL     OW 1633   1.164   1.700   0.620 -0.6977 -0.2289 -0.0044
  545SOL    HW1 1634   1.244   1.709   0.688  0.5543  2.4131 -0.7681
  545SOL    HW2 1635   1.179   1.747   0.531 -2.4072 -1.3154 -0.3625
  546SOL     OW 1636   2.659   1.559   0.023  0.1836 -0.5847 -0.1079
  546SOL    HW1 1637   2.676   1.511  -0.067  1.0199  1.9028 -4.1889
  546SOL    HW2 1638   2.573   1.517   0.079 -1.3721 -1.6503 -0.0680
  547SOL     OW 1639   0.540   0.019   2.798  0.1881  0.4603  0.6428
  547SOL    HW1 1640   0.602  -0.051   2.753 -0.3745 -3.3952 -3.2016
  547SOL    HW2 1641   0.493  -0.019   2.877  2.2921 -2.0439  0.9634
  548SOL     OW 1642   2.068   0.829   3.008 -0.1580  0.4363  0.0604
  548SOL    HW1 1643   1.988   0.776   3.049 -2.2953 -1.7560 -1.6812
  548SOL    HW2 1644   2.078   0.921   3.048 -1.9229 -0.9565 -1.5320
  549SOL     OW 1645   0.587   0.400   0.121  0.6100 -0.5418  0.1778
  549SOL    HW1 1646   0.538   0.483   0.077  1.5845  0.8158  0.3011
  549SOL    HW2 1647   0.688   0.412   0.158  1.6774 -0.9444  3.5117
  550SOL     OW 1648   2.518   2.887   2.875  0.0980 -0.7350 -0.3493
  550SOL    HW1 1649   2.491   2.826   2.960  0.5809  1.4221  1.4120
  550SOL    HW2 1650   2.521   2.836   2.783  1.5257  0.6144 -0.9834
  551SOL     OW 1651   0.236   0.793   0.185  0.1120  0.3553  0.0765
  551SOL    HW1 1652   0.338   0.798   0.175 -0.9263 -0.9469 -3.4619
  551SOL    HW2 1653   0.209   0.808   0.284  0.7098  3.4421  1.9908
  552SOL     OW 1654   0.828   2.824   1.853 -0.5317 -0.5636 -0.5600
  552SOL    HW1 1655   0.821   2.812   1.952 -0.6420  0.8787 -0.1350
  552SOL    HW2 1656   0.874   2.909   1.828 -3.7557 -2.1322 -0.3814
  553SOL     OW 1657   3.058   2.555   0.410 -0.6181 -0.1098 -0.6661
  553SOL    HW1 1658   3.025   2.463   0.367  0.2423 -0.9129  0.1557
  553SOL    HW2 1659   3.019   2.582   0.504  1.1255 -0.3848  0.7312
  554SOL     OW 1660   2.137   0.261   0.566  0.6245  0.3119 -0.3250
  554SOL    HW1 1661   2.181   0.200   0.491  1.5370 -0.5073  2.6474
  554SOL    HW2 1662   2.125   0.211   0.654 -0.2220  0.3887  0.6077
  555SOL     OW 1663   0.463   2.931   2.435 -0.8250 -0.5936  0.0850
  555SOL    HW1 1664   0.364   2.966   2.438 -0.7910 -2.3354 -1.6525
  555SOL    HW2 1665   0.470   2.831   2.400 -0.2264  0.2498 -1.4500
  556SOL     OW 1666   0.910   2.280   1.681  0.2100  0.8412  0.4110
  556SOL    HW1 1667   0.940   2.359   1.743  0.6948 -1.2340  1.4760
  556SOL    HW2 1668   0.970   2.272   1.598  1.2650  0.0995  1.0768
  557SOL     OW 1669   0.171   2.135   0.119  0.1939  0.3042 -0.3626
  557SOL    HW1 1670   0.113   2.052   0.103 -0.3330 -0.4688 -0.4257
  557SOL    HW2 1671   0.184   2.199   0.038 -1.4024  1.0342 -0.1545
  558SOL     OW 1672   2.972   2.330   0.286  0.0837 -0.3176  0.5745
  558SOL    HW1 1673   2.874   2.315   0.309 -1.7670  2.3275  1.0166
  558SOL    HW2 1674   2.986   2.352   0.186 -2.4420 -1.0025  1.6112
  559SOL     OW 1675   0.446   2.215   1.342 -0.1678 -0.0943  0.5984
  559SOL    HW1 1676   0.368   2.250   1.282 -0.1037  1.4724 -0.6184
  559SOL    HW2 1677   0.483   2.126   1.308  0.0160  3.4233 -1.4774
  560SOL     OW 1678   2.060   1.128   0.006  0.3329  0.6569 -0.0706
  560SOL    HW1 1679   2.071   1.165  -0.089  0.9545 -1.7596  0.1303
  560SOL    HW2 1680   1.990   1.185   0.057 -0.2289 -1.0006 -0.4267
  561SOL     OW 1681   3.046   1.913   0.040  0.1880  0.1163 -0.4894
  561SOL    HW1 1682   2.983   1.842   0.084  2.0632  0.0526 -4.7746
  561SOL    HW2 1683   3.007   2.000   0.001  0.7090 -0.1587  0.7793
  562SOL     OW 1684   0.864   2.177   2.440  0.3609 -0.1371 -0.3709
  562SOL    HW1 1685   0.760   2.156   2.429 -2.0223  1.6108  0.8597
  562SOL    HW2 1686   0.885   2.198   2.536 -3.2575  0.3763 -2.8299
  563SOL     OW 1687   0.722   2.544   2.542 -0.4013  0.2882  0.3174
  563SOL    HW1 1688   0.808   2.486   2.541 -2.2600  0.9502 -0.1975
  563SOL    HW2 1689   0.687   2.551   2.636 -1.0774 -0.3247 -1.5106
  564SOL     OW 1690   2.732   1.304   2.835 -0.1116  0.5626  0.0349
  564SOL    HW1 1691   2.657   1.292   2.904  1.5603 -0.4189  0.2277
  564SOL    HW2 1692   2.787   1.390   2.858  0.8596 -0.3338 -1.0906
  565SOL     OW 1693   2.512   1.977   2.588  0.1768 -0.0830 -0.0154
  565SOL    HW1 1694   2.475   2.073   2.568  3.1914  0.9775 -1.3672
  565SOL    HW2 1695   2.591   1.984   2.658  2.9507 -0.3072  0.5724
  566SOL     OW 1696   1.976   2.868   1.359 -0.5460  0.1900  0.4234
  566SOL    HW1 1697   1.943   2.769   1.382 -0.1532 -0.7718  0.7179
  566SOL    HW2 1698   2.013   2.880   1.261 -0.0470 -0.1151  0.4787
  567SOL     OW 1699   2.460   0.151   2.240  0.4033 -0.2566 -0.6060
  567SOL    HW1 1700   2.505   0.158   2.146  0.3093 -2.2799 -3.0195
  567SOL    HW2 1701   2.371   0.204   2.242  0.2362 -1.5447  0.4898
  568SOL     OW 1702   1.486   1.827   0.410  0.4035  0.0963 -0.7899
  568SOL    HW1 1703   1.425   1.875   0.348  1.1403  1.8087 -0.7654
  568SOL    HW2 1704   1.523   1.885   0.493  0.3367  1.7509  1.5062
  569SOL     OW 1705   0.318   0.642   0.799  0.1527 -0.2287  0.2133
  569SOL    HW1 1706   0.370   0.574   0.751  0.9492  0.5926  0.1552
  569SOL    HW2 1707   0.223   0.631   0.780  3.4461  1.2127 -3.1054
  570SOL     OW 1708   0.594   0.777   2.838 -0.4230 -0.2477 -0.4390
  570SOL    HW1 1709   0.640   0.765   2.750  1.3682 -1.4009  0.9637
  570SOL    HW2 1710   0.642   0.846   2.898 -0.6969 -0.9688 -1.5924
  571SOL     OW 1711   0.808   3.035   1.106 -0.1590 -0.1284 -0.2419
  571SOL    HW1 1712   0.836   3.093   1.022  2.6614 -0.0420  1.1983
  571SOL    HW2 1713   0.889   2.986   1.152 -1.0287  0.5243 -1.5383
  572SOL     OW 1714   1.544   2.568   1.157 -0.2418 -0.1141  0.0214
  572SOL    HW1 1715   1.487   2.519   1.227  0.5383  1.6921  0.4710
  572SOL    HW2 1716   1.503   2.655   1.122  3.5972 -0.3804  2.0094
  573SOL     OW 1717   2.947   0.421   2.089 -0.1210 -0.1420 -0.3554
  573SOL    HW1 1718   2.894   0.332   2.109  1.5279  1.3671 -0.8021
  573SOL    HW2 1719   2.896   0.473   2.019  0.3529  0.7425  1.7478
  574SOL     OW 1720   0.246   1.803   1.045 -0.5935 -0.5063 -0.5758
  574SOL    HW1 1721   0.216   1.894   1.005  0.2659  0.2602 -0.8363
  574SOL    HW2 1722   0.172   1.761   1.101 -0.8121  2.4289 -0.7349
  575SOL     OW 1723   0.892   2.142   1.014  0.0035 -0.1373 -0.3238
  575SOL    HW1 1724   0.860   2.169   1.110  0.8874 -0.1417  0.4815
  575SOL    HW2 1725   0.924   2.223   0.959 -0.3975  2.2757  0.7534
  576SOL     OW 1726   2.917   2.936   1.744 -0.2984  0.4035 -0.2009
  576SOL    HW1 1727   2.851   2.877   1.695 -1.0547 -0.4788 -0.9863
  576SOL    HW2 1728   2.934   3.023   1.690  1.3812  1.5298  0.7287
  577SOL     OW 1729   2.569   1.268   3.048 -0.1751 -0.4759  0.0415
  577SOL    HW1 1730   2.539   1.173   3.028 -0.8893 -0.4868 -2.1883
  577SOL    HW2 1731   2.629   1.280   3.133  2.4263 -1.8394  3.1189
  578SOL     OW 1732   1.321   2.695   2.551  0.0330 -1.1932  0.1506
  578SOL    HW1 1733   1.235   2.658   2.503  1.1831  0.7738 -0.5137
  578SOL    HW2 1734   1.330   2.800   2.533 -1.2942  1.2884 -0.7189
  579SOL     OW 1735   0.119   2.524   0.180  0.2947 -1.1257  0.2640
  579SOL    HW1 1736   0.056   2.555   0.256 -0.4925 -0.9860  0.1325
  579SOL    HW2 1737   0.198   2.462   0.211  1.5411 -0.0451  1.2484
  580SOL     OW 1738   1.009   2.644   0.356 -0.2005  0.0838  0.1185
  580SOL    HW1 1739   1.086   2.651   0.286  0.7796 -1.9026 -1.5563
  580SOL    HW2 1740   0.934   2.573   0.333 -0.6548 -0.5088  0.5165
  581SOL     OW 1741   1.186   2.619   1.504  0.0923 -0.0596  0.0386
  581SOL    HW1 1742   1.250   2.536   1.508  0.0537 -0.7651  2.0948
  581SOL    HW2 1743   1.220   2.707   1.454  1.6337  0.7768  1.2823
  582SOL     OW 1744   1.481   0.042   1.851 -0.4543  0.2634  0.0743
  582SOL    HW1 1745   1.463   0.133   1.899  1.4335 -1.4681  0.8003
  582SOL    HW2 1746   1.581   0.037   1.811  1.8679 -1.1404 -0.0422
  583SOL     OW 1747   2.448   2.997   0.604  0.0360  0.8588  0.2547
  583SOL    HW1 1748   2.490   2.928   0.534  1.2129 -0.2225  1.7868
  583SOL    HW2 1749   2.395   2.948   0.677 -0.1344 -2.4157 -2.7802
  584SOL     OW 1750   1.573   0.997   2.126 -0.0377  0.0258  0.5310
  584SOL    HW1 1751   1.612   1.062   2.053 -0.5996 -0.2864 -2.1954
  584SOL    HW2 1752   1.649   0.956   2.181  0.5099  0.2319  1.6485
  585SOL     OW 1753   2.119   2.650   2.926 -0.3732 -0.0747 -0.2236
  585SOL    HW1 1754   2.131   2.554   2.888  1.2530 -2.1710 -2.1166
  585SOL    HW2 1755   2.020   2.690   2.907  0.4701  0.2951 -1.1419
  586SOL     OW 1756   2.760   0.231   1.544 -0.2822  0.5545  0.1962
  586SOL    HW1 1757   2.767   0.298   1.621  1.0004 -1.3557 -3.2173
  586SOL    HW2 1758   2.671   0.171   1.555 -2.3234 -0.6274 -1.5298
  587SOL     OW 1759   1.977   1.641   2.733 -0.3552  0.4908  0.3710
  587SOL    HW1 1760   2.043   1.617   2.655  1.0882 -0.7465 -3.4524
  587SOL    HW2 1761   2.008   1.607   2.830 -1.6376  0.9304 -0.0080
  588SOL     OW 1762   0.473   2.725   2.250  0.3513  0.3532  0.1939
  588SOL    HW1 1763   0.385   2.750   2.200 -2.0447 -1.2399 -0.8501
  588SOL    HW2 1764   0.473   2.631   2.292  1.7130  1.0656 -0.8306
  589SOL     OW 1765   2.147   1.453   2.545  0.1030 -0.6222  0.2861
  589SOL    HW1 1766   2.064   1.406   2.500 -1.6440 -0.4808  2.6741
  589SOL    HW2 1767   2.236   1.391   2.552 -2.0723 -2.3536  1.3598
  590SOL     OW 1768   2.342   1.689   1.982  0.7350 -0.3424 -0.2119
  590SOL    HW1 1769   2.432   1.635   1.976  0.8877  1.3629 -0.5926
  590SOL    HW2 1770   2.336   1.754   2.068 -1.5625 -1.1017  2.5435
  591SOL     OW 1771   1.356   2.459   0.286  0.6440  0.2892  0.2066
  591SOL    HW1 1772   1.449   2.424   0.248  0.3638 -2.9396 -1.1945
  591SOL    HW2 1773   1.336   2.413   0.379  1.3741 -3.1454  0.3647
  592SOL     OW 1774   1.687   2.338   0.786 -0.0326 -0.4583 -0.0562
  592SOL    HW1 1775   1.670   2.385   0.692  0.3322  2.5087 -2.1007
  592SOL    HW2 1776   1.782   2.330   0.814 -1.5260  0.0415  1.9361
  593SOL     OW 1777   0.616   0.165   3.081  0.0050 -0.1299  0.8560
  593SOL    HW1 1778   0.720   0.133   3.083  3.2214 -0.0672  1.7482
  593SOL    HW2 1779   0.596   0.246   3.145 -1.8589 -1.3065  2.6352
  594SOL     OW 1780   0.924   1.999   2.674  0.2388  0.0263  0.0181
  594SOL    HW1 1781   1.010   2.043   2.716 -0.5608  2.6511  0.6081
  594SOL    HW2 1782   0.836   2.024   2.717  0.7436 -1.3317 -0.1192
  595SOL     OW 1783   1.558   0.047   1.098 -0.2292 -0.4447 -0.2967
  595SOL    HW1 1784   1.649   0.003   1.101 -0.1608  0.1044  0.0625
  595SOL    HW2 1785   1.503   0.006   1.022 -2.7690 -0.9762  0.6056
  596SOL     OW 1786   3.099   1.389   2.247  0.4325 -0.2600  0.1463
  596SOL    HW1 1787   3.014   1.444   2.221 -0.1749 -1.1012 -1.0597
  596SOL    HW2 1788   3.116   1.355   2.345 -0.4200  2.4258 -4.0456
  597SOL     OW 1789   2.096   2.619   1.651  0.0926 -0.1006  0.5176
  597SOL    HW1 1790   2.119   2.533   1.598 -1.5564  0.0631  0.5090
  597SOL    HW2 1791   2.169   2.638   1.729  0.0741 -2.0017 -0.9454
  598SOL     OW 1792   2.533   2.902   1.252 -0.7143 -0.2864  0.7329
  598SOL    HW1 1793   2.621   2.937   1.290 -1.6960 -0.5799 -0.8616
  598SOL    HW2 1794   2.536   2.899   1.151 -2.5624 -0.5235  3.4914
  599SOL     OW 1795   2.911   0.360   2.472  0.3263  0.3964  0.1438
  599SOL    HW1 1796   2.979   0.438   2.470 -0.8397  0.7017 -1.8611
  599SOL    HW2 1797   2.818   0.382   2.424 -1.2682 -2.0195  0.9671
  600SOL     OW 1798   2.819   1.081   2.718 -0.0591  0.5879  0.4964
  600SOL    HW1 1799   2.777   0.993   2.759 -0.8750  1.0252  0.4425
  600SOL    HW2 1800   2.797   1.163   2.776 -1.8267 -2.3193 -0.4332
  601SOL     OW 1801   3.010   1.241   2.027  0.1632 -0.3043 -0.4030
  601SOL    HW1 1802   2.946   1.305   1.977 -3.3810  2.1780  0.3625
  601SOL    HW2 1803   3.069   1.293   2.098 -0.1544 -1.8845  1.4413
  602SOL     OW 1804   1.534   1.724   2.382 -0.4869  0.2474 -0.6289
  602SOL    HW1 1805   1.515   1.639   2.337  0.3970  1.0805  2.7754
  602SOL    HW2 1806   1.628   1.731   2.415 -0.3056  0.6866  0.5799
  603SOL     OW 1807   0.650   1.267   2.680 -0.4549 -0.0566  0.3497
  603SOL    HW1 1808   0.579   1.244   2.605  0.5986 -2.6324  3.1332
  603SOL    HW2 1809   0.726   1.199   2.686 -1.4431  1.1858 -1.6524
  604SOL     OW 1810   2.413   0.965   0.185 -0.0623  0.0950 -0.6338
  604SOL    HW1 1811   2.491   1.017   0.148  0.0345  0.2105  1.0742
  604SOL    HW2 1812   2.390   0.886   0.122  0.8786  1.3491  0.5434
  605SOL     OW 1813   2.685   1.126   1.941  0.1272  0.0240  0.2456
  605SOL    HW1 1814   2.671   1.035   1.893 -0.3230 -3.3075 -0.2546
  605SOL    HW2 1815   2.671   1.118   2.044  1.5048  0.4523  1.6368
  606SOL     OW 1816   1.540   2.540   2.609 -0.9757  0.0507  0.0551
  606SOL    HW1 1817   1.449   2.596   2.596  0.2107  0.5903  0.8451
  606SOL    HW2 1818   1.533   2.437   2.598  0.6943 -2.6853  0.6988
  607SOL     OW 1819   1.360   1.576   0.441 -0.1077 -0.0247 -0.0815
  607SOL    HW1 1820   1.270   1.560   0.489 -1.0907 -0.2005 -1.7271
  607SOL    HW2 1821   1.392   1.678   0.449  3.2523  2.2060  0.9263
  608SOL     OW 1822   1.423   2.894   0.452 -0.0406 -0.1925 -0.0239
  608SOL    HW1 1823   1.505   2.938   0.394  0.8177  0.0724  1.8872
  608SOL    HW2 1824   1.339   2.956   0.453  1.0163  0.4764  0.8406
  609SOL     OW 1825   1.299   1.366   0.272 -0.3070  0.7065  0.4608
  609SOL    HW1 1826   1.311   1.453   0.328 -0.8035  0.4314 -1.3336
  609SOL    HW2 1827   1.202   1.334   0.266 -2.8891 -0.1135 -0.8748
  610SOL     OW 1828   2.959   1.104   2.295 -0.0108  0.6017 -0.1665
  610SOL    HW1 1829   2.965   1.001   2.296  0.5330 -0.3801 -0.1856
  610SOL    HW2 1830   2.966   1.150   2.199  0.2249  1.7716 -1.4329
  611SOL     OW 1831   2.517   0.317   1.163  0.0215 -0.6419 -0.6433
  611SOL    HW1 1832   2.466   0.233   1.195 -1.8709  2.2466  0.2719
  611SOL    HW2 1833   2.619   0.316   1.192  0.2906 -0.8866  0.4866
  612SOL     OW 1834   0.747   2.190   1.261  0.1338  0.1432  0.3416
  612SOL    HW1 1835   0.674   2.112   1.259  0.2918  1.1025 -2.6662
  612SOL    HW2 1836   0.715   2.281   1.225  0.8102 -0.8377 -1.5484
  613SOL     OW 1837   0.901   1.452   2.369 -0.1320  0.4364 -0.2202
  613SOL    HW1 1838   0.969   1.477   2.295  0.4280  1.4937  1.8194
  613SOL    HW2 1839   0.804   1.435   2.332  1.6817 -0.7048  1.0955
  614SOL     OW 1840   1.668   1.588   1.816 -0.4318  0.1389  0.0754
  614SOL    HW1 1841   1.665   1.690   1.811  1.4028  0.4578  0.3247
  614SOL    HW2 1842   1.694   1.557   1.912  2.4809  0.0889 -1.0741
  615SOL     OW 1843   0.795   1.263   1.726  0.9438  0.7403 -0.2397
  615SOL    HW1 1844   0.738   1.257   1.641  5.0492  0.0616  2.0269
  615SOL    HW2 1845   0.840   1.358   1.737 -2.6475 -1.0512 -1.1547
  616SOL     OW 1846   1.109   1.534   2.197  0.3623  0.2634  0.1477
  616SOL    HW1 1847   1.031   1.552   2.129  2.5420 -0.7666  1.8553
  616SOL    HW2 1848   1.133   1.622   2.244 -0.6473 -0.0890 -3.1779
  617SOL     OW 1849   2.981   1.561   1.633 -0.3191 -0.6270 -0.4072
  617SOL    HW1 1850   2.928   1.478   1.666 -2.1102  0.5949  0.2865
  617SOL    HW2 1851   3.011   1.553   1.536 -1.0704  0.3542  2.0933
  618SOL     OW 1852   1.876   2.103   1.371  0.1161  0.1268  0.1162
  618SOL    HW1 1853   1.889   2.165   1.287 -1.2495 -1.4278 -0.0477
  618SOL    HW2 1854   1.876   2.002   1.334 -1.0917 -2.1829 -2.0633
  619SOL     OW 1855   1.757   0.466   2.383  0.2636  0.1046  0.2549
  619SOL    HW1 1856   1.697   0.529   2.324 -1.3906  0.6583 -0.7644
  619SOL    HW2 1857   1.724   0.368   2.375 -0.9730 -1.7570 -4.2113
  620SOL     OW 1858   2.291   2.850   0.783  0.4977  0.1482 -0.1975
  620SOL    HW1 1859   2.202   2.895   0.814 -1.8725  2.0302  1.5738
  620SOL    HW2 1860   2.310   2.760   0.831  0.4986  2.1405 -1.6115
  621SOL     OW 1861   2.143   1.867   1.355 -0.5656 -0.3547 -0.2121
  621SOL    HW1 1862   2.154   1.872   1.459 -2.1874  0.6079 -0.9234
  621SOL    HW2 1863   2.101   1.777   1.325 -1.1876 -0.9320  1.2342
  622SOL     OW 1864   2.339   0.954   1.860 -0.4189 -0.1556 -0.4086
  622SOL    HW1 1865   2.438   0.956   1.835  1.5654 -0.7327  0.6813
  622SOL    HW2 1866   2.318   0.862   1.903  1.2520  0.8622  1.0074
  623SOL     OW 1867   1.322   0.795   2.451  0.5566 -0.2675 -0.5632
  623SOL    HW1 1868   1.257   0.717   2.480 -1.4485 -2.4010  2.0629
  623SOL    HW2 1869   1.287   0.848   2.365  3.4572  2.4004 -1.2451
  624SOL     OW 1870   0.534   0.635   3.086  0.3212 -0.1933 -0.1436
  624SOL    HW1 1871   0.583   0.659   2.998  1.3274  2.1813 -0.6049
  624SOL    HW2 1872   0.502   0.719   3.142 -2.4478  2.1166  0.2861
  625SOL     OW 1873   2.784   1.714   1.021  0.0551 -0.1393 -0.3482
  625SOL    HW1 1874   2.696   1.760   0.993  0.1570 -1.6279 -2.2548
  625SOL    HW2 1875   2.848   1.779   1.067  0.8720  1.5820 -1.4755
  626SOL     OW 1876   0.629   2.700   1.711 -0.1370 -0.2510 -0.1135
  626SOL    HW1 1877   0.679   2.751   1.788 -0.7012 -1.6916  2.3039
  626SOL    HW2 1878   0.524   2.687   1.733 -2.7602  2.7293  0.4927
  627SOL     OW 1879   0.651   0.880   1.585 -0.4545  0.0705 -0.4078
  627SOL    HW1 1880   0.593   0.808   1.541  0.8863  3.0942 -0.2567
  627SOL    HW2 1881   0.718   0.920   1.522 -0.9426  0.7096  0.3399
  628SOL     OW 1882   2.430   0.153   0.705 -0.1002 -0.5971 -0.4317
  628SOL    HW1 1883   2.448   0.058   0.674 -0.2858  0.1881 -1.7060
  628SOL    HW2 1884   2.337   0.158   0.748  1.0065 -1.6295  0.0775
  629SOL     OW 1885   1.900   0.923   1.980 -0.0464 -0.2280  0.1725
  629SOL    HW1 1886   1.907   1.010   1.925 -0.6585 -0.1953 -2.0355
  629SOL    HW2 1887   1.898   0.926   2.084 -0.4008 -1.0437  1.2085
  630SOL     OW 1888   2.912   2.292   0.779 -0.1053  0.9893 -0.2413
  630SOL    HW1 1889   2.827   2.356   0.779 -4.3116 -0.9062 -0.9159
  630SOL    HW2 1890   2.886   2.193   0.778 -0.4250  0.2981 -2.4004
  631SOL     OW 1891   0.008   0.129   2.158 -1.2478 -0.0887  0.5740
  631SOL    HW1 1892   0.062   0.178   2.232 -0.6761 -1.2916 -2.2226
  631SOL    HW2 1893   0.031   0.158   2.064 -0.0790  0.0144 -0.7686
  632SOL     OW 1894   2.431   2.567   0.576 -0.1291  0.2698  0.1123
  632SOL    HW1 1895   2.461   2.654   0.624 -1.5021 -0.4455 -0.3677
  632SOL    HW2 1896   2.336   2.565   0.543 -0.8046 -0.3981  1.1659
  633SOL     OW 1897   1.459   1.198   2.681  0.7742 -0.5338  0.0371
  633SOL    HW1 1898   1.452   1.281   2.751 -2.0833  0.7001 -0.8160
  633SOL    HW2 1899   1.382   1.213   2.611 -1.4475  1.3323  1.8489
  634SOL     OW 1900   0.646   2.046   0.906 -0.5019 -0.3974  1.1183
  634SOL    HW1 1901   0.557   2.080   0.940 -0.8286  1.0074 -4.4715
  634SOL    HW2 1902   0.730   2.084   0.951 -0.4137  0.0237 -0.7291
  635SOL     OW 1903   3.026   2.391   0.024 -0.4718  0.2296  0.1687
  635SOL    HW1 1904   2.967   2.443  -0.046 -1.8536 -1.5403  1.2502
  635SOL    HW2 1905   3.116   2.438   0.048 -0.2782 -2.1091 -0.5097
  636SOL     OW 1906   2.389   2.739   2.007  0.7224  0.2299 -0.8566
  636SOL    HW1 1907   2.377   2.843   2.007  0.6296  0.9796  1.7842
  636SOL    HW2 1908   2.335   2.703   2.083  0.6897  1.6677 -1.4277
  637SOL     OW 1909   2.760   0.601   1.988  0.2594  0.3325 -0.5575
  637SOL    HW1 1910   2.667   0.631   1.954  2.6063 -3.1031  1.6974
  637SOL    HW2 1911   2.834   0.671   1.993  0.6679  0.0232  0.2048
  638SOL     OW 1912   2.429   1.855   1.295  0.4845 -0.2472 -0.2042
  638SOL    HW1 1913   2.326   1.853   1.294  1.3946  0.1946 -0.8130
  638SOL    HW2 1914   2.467   1.784   1.362  0.4084 -0.5698  1.9329
  639SOL     OW 1915   1.319   2.215   1.678 -0.0689 -0.1610  0.2390
  639SOL    HW1 1916   1.376   2.301   1.667  0.4557  0.8289 -0.5949
  639SOL    HW2 1917   1.246   2.223   1.746  1.0213 -0.6550  0.5075
  640SOL     OW 1918   0.184   1.190   1.547  0.0993 -0.0810  0.1864
  640SOL    HW1 1919   0.154   1.222   1.641 -1.0912  2.5706  1.4255
  640SOL    HW2 1920   0.267   1.124   1.549  1.7216 -1.8114 -3.5518
  641SOL     OW 1921   1.957   0.261   1.492  0.2579  0.6593 -0.2191
  641SOL    HW1 1922   1.877   0.282   1.557  0.0681  0.6345 -0.6037
  641SOL    HW2 1923   2.043   0.230   1.537  1.9475 -0.4251  1.6362
  642SOL     OW 1924   2.033   0.080   0.368  0.5120  0.2661  0.2678
  642SOL    HW1 1925   2.129   0.041   0.376 -1.0390 -1.4451  2.1255
  642SOL    HW2 1926   1.975   0.084   0.454 -0.6279  1.3330 -0.6789
  643SOL     OW 1927   2.891   1.858   2.176  0.4146 -0.6077 -0.8832
  643SOL    HW1 1928   2.816   1.800   2.132 -0.5911  0.3199  2.2241
  643SOL    HW2 1929   2.900   1.948   2.126 -0.4901 -0.6469 -0.8607
  644SOL     OW 1930   2.290   2.422   1.248 -0.1586  0.2282 -0.1252
  644SOL    HW1 1931   2.329   2.342   1.196  1.2213  0.3887  0.1465
  644SOL    HW2 1932   2.266   2.388   1.338  2.3963  1.1385  0.1087
  645SOL     OW 1933   0.616   0.819   1.226 -0.4782  0.0278  0.4180
  645SOL    HW1 1934   0.515   0.810   1.242 -1.4711 -1.3934  0.9341
  645SOL    HW2 1935   0.631   0.855   1.131 -0.8896  2.5278 -2.4362
  646SOL     OW 1936   1.493   1.831   2.053  0.3467 -0.4681 -0.0572
  646SOL    HW1 1937   1.562   1.845   1.977  0.0910  1.0377 -0.7499
  646SOL    HW2 1938   1.538   1.818   2.146 -0.6351 -0.6989 -0.3699
  647SOL     OW 1939   0.829   1.104   0.675  0.3651 -0.2563 -0.5479
  647SOL    HW1 1940   0.860   1.112   0.776 -0.3599 -0.1612  1.6922
  647SOL    HW2 1941   0.792   1.008   0.653 -0.9100  0.3930 -1.6864
  648SOL     OW 1942   0.157   0.241   0.310 -0.3834  0.8293 -0.8595
  648SOL    HW1 1943   0.117   0.152   0.272  0.7466 -1.2009 -0.2584
  648SOL    HW2 1944   0.127   0.330   0.267 -0.1585 -0.3045  1.5714
  649SOL     OW 1945   3.032   0.218   0.770 -0.0928 -1.1293  0.2196
  649SOL    HW1 1946   3.129   0.207   0.727  0.4468 -0.4700  1.4080
  649SOL    HW2 1947   3.011   0.314   0.801  1.5778 -0.7287 -0.6247
  650SOL     OW 1948   2.741   0.661   1.527 -0.6446 -0.0574  0.3732
  650SOL    HW1 1949   2.640   0.681   1.528 -3.2412  1.8428  1.0095
  650SOL    HW2 1950   2.784   0.735   1.473 -3.0882 -0.6486 -0.8034
  651SOL     OW 1951   0.873   1.540   1.671  0.2865  0.1056  0.1371
  651SOL    HW1 1952   0.919   1.624   1.714 -3.1527  1.8611 -0.7972
  651SOL    HW2 1953   0.911   1.515   1.579 -0.6449 -0.2885 -0.1559
  652SOL     OW 1954   2.389   2.486   2.460  0.6401 -0.5373  0.1347
  652SOL    HW1 1955   2.288   2.513   2.476 -1.4392  0.4354  2.0859
  652SOL    HW2 1956   2.431   2.517   2.369  2.0947 -0.9050 -0.8383
  653SOL     OW 1957   2.734   1.256   0.193  0.1432 -0.3193 -0.3538
  653SOL    HW1 1958   2.770   1.349   0.215 -1.2607  0.6303  1.4062
  653SOL    HW2 1959   2.794   1.175   0.223  0.0124 -0.8482  0.9840
  654SOL     OW 1960   1.272   2.178   1.279 -0.0068 -0.3617  0.2633
  654SOL    HW1 1961   1.319   2.118   1.347 -0.0115 -0.0522  1.1837
  654SOL    HW2 1962   1.286   2.149   1.179 -0.9147  0.8574 -3.4101
  655SOL     OW 1963   0.157   0.970   1.896  0.7868 -0.3792 -0.4371
  655SOL    HW1 1964   0.219   0.892   1.868 -1.1629 -0.1272  2.7511
  655SOL    HW2 1965   0.194   1.060   1.861 -1.0882 -0.1290 -1.6504
  656SOL     OW 1966   2.582   2.557   2.645 -0.3647  0.4520  0.2587
  656SOL    HW1 1967   2.683   2.546   2.611  1.6638  0.0438  1.4262
  656SOL    HW2 1968   2.510   2.537   2.570 -0.5063  1.1268  0.6639
  657SOL     OW 1969   3.018   1.070   1.828 -0.3790 -0.2388 -0.3306
  657SOL    HW1 1970   3.019   1.136   1.903  0.8226 -1.0273 -0.1560
  657SOL    HW2 1971   3.108   1.015   1.828  1.5777 -0.9586  1.6605
  658SOL     OW 1972   1.701   0.186   2.336  0.2377 -0.2451 -0.4627
  658SOL    HW1 1973   1.747   0.119   2.397  1.4448  5.6754 -1.2166
  658SOL    HW2 1974   1.741   0.180   2.238  0.3272 -0.2885 -2.0407
  659SOL     OW 1975   1.419   0.640   2.750 -0.4864  0.0475 -0.0811
  659SOL    HW1 1976   1.476   0.689   2.673  0.9812  0.0992  1.6583
  659SOL    HW2 1977   1.319   0.663   2.753  0.1431 -0.1148  1.4155
  660SOL     OW 1978   1.450   0.330   1.397 -0.2873  0.2497  0.1872
  660SOL    HW1 1979   1.462   0.378   1.489  2.5796 -3.3305 -1.1571
  660SOL    HW2 1980   1.506   0.247   1.382 -0.8235  2.2207  1.7783
  661SOL     OW 1981   2.434   1.254   0.637  0.1817 -0.3514  0.5778
  661SOL    HW1 1982   2.463   1.225   0.542  3.1612 -1.1057 -1.6273
  661SOL    HW2 1983   2.350   1.310   0.629  2.8196 -0.6693  0.5806
  662SOL     OW 1984   1.457   0.430   1.699 -0.6410  0.1962  0.5536
  662SOL    HW1 1985   1.431   0.413   1.795 -2.5983  1.7332 -1.6349
  662SOL    HW2 1986   1.449   0.536   1.678  1.3604 -0.3861  0.7594
  663SOL     OW 1987   0.858   1.582   2.068 -0.4008 -0.2373  0.9322
  663SOL    HW1 1988   0.843   1.681   2.078  2.0763  1.7339 -0.6259
  663SOL    HW2 1989   0.777   1.527   2.027 -0.8776 -0.1288  0.4381
  664SOL     OW 1990   1.573   2.122   1.418  1.2508  0.1821 -0.5131
  664SOL    HW1 1991   1.494   2.076   1.472 -0.1919  1.2025  0.4100
  664SOL    HW2 1992   1.656   2.064   1.404 -1.6079  1.3802  1.2323
  665SOL     OW 1993   2.265   0.676   1.957  0.9001 -0.1990  0.1513
  665SOL    HW1 1994   2.226   0.579   1.951 -0.4261 -2.3065  1.0148
  665SOL    HW2 1995   2.323   0.693   2.039 -0.8362 -1.6118 -0.4091
  666SOL     OW 1996   0.485   2.227   0.320 -0.1056  0.1308 -0.2870
  666SOL    HW1 1997   0.531   2.307   0.371 -1.0725 -0.2581  0.6596
  666SOL    HW2 1998   0.385   2.231   0.337  0.7272  1.3622 -0.9202
  667SOL     OW 1999   1.934   0.225   1.044 -1.0132 -0.2675 -0.5439
  667SOL    HW1 2000   1.948   0.323   1.075  3.0862 -1.3046 -1.5165
  667SOL    HW2 2001   1.878   0.166   1.113  0.2139  0.5560  0.3296
  668SOL     OW 2002   1.998   0.502   1.122  0.4047  0.8422 -0.4719
  668SOL    HW1 2003   2.059   0.538   1.051  0.1648  1.7809 -0.2703
  668SOL    HW2 2004   2.040   0.495   1.219 -1.9681  1.9521  5.0808
  669SOL     OW 2005   3.017   2.186   1.000  0.3087 -0.2851 -0.2191
  669SOL    HW1 2006   2.979   2.236   0.917  0.6676  1.3972  2.0445
  669SOL    HW2 2007   2.998   2.244   1.080 -0.6205 -2.4470  0.0664
  670SOL     OW 2008   2.909   2.294   2.081 -0.0313  0.1255  0.1517
  670SOL    HW1 2009   2.832   2.312   2.155 -2.6624  0.5389  1.3939
  670SOL    HW2 2010   2.924   2.386   2.031 -2.0424 -0.6376 -0.6623
  671SOL     OW 2011   1.786   1.776   1.540 -0.6375 -0.0635  0.1399
  671SOL    HW1 2012   1.820   1.697   1.481  1.1601  0.7731 -0.5178
  671SOL    HW2 2013   1.684   1.782   1.562 -2.7739  1.7319 -1.5294
  672SOL     OW 2014   0.469   0.650   2.551  0.4525  0.1688 -0.6040
  672SOL    HW1 2015   0.416   0.683   2.466  0.3554  0.4128  1.0340
  672SOL    HW2 2016   0.421   0.687   2.638 -1.1678 -2.1398  2.8648
  673SOL     OW 2017   0.076   1.321   1.108 -0.2860 -0.3372  0.2848
  673SOL    HW1 2018   0.079   1.396   1.179  1.4333 -0.5600  1.5659
  673SOL    HW2 2019   0.168   1.295   1.080 -2.4563 -3.2103 -0.2873
  674SOL     OW 2020   1.631   2.960   0.306 -0.0962 -0.1385  0.4509
  674SOL    HW1 2021   1.665   3.034   0.235  1.2672  0.3487 -2.1228
  674SOL    HW2 2022   1.706   2.898   0.337 -0.1391  0.0408  1.3968
  675SOL     OW 2023   1.731   0.845   2.346  0.1089 -0.0165 -0.3132
  675SOL    HW1 2024   1.832   0.817   2.334 -0.1304 -1.8548 -0.1650
  675SOL    HW2 2025   1.669   0.779   2.301  1.7724 -0.4808  1.0620
  676SOL     OW 2026   2.564   1.526   1.938 -0.0031 -0.2659 -0.5645
  676SOL    HW1 2027   2.529   1.459   1.872 -0.7520 -1.0228  2.3710
  676SOL    HW2 2028   2.564   1.479   2.036 -1.6216 -1.1546 -0.5776
  677SOL     OW 2029   1.899   0.717   0.912  0.8257  0.5229 -0.0280
  677SOL    HW1 2030   1.821   0.751   0.969 -0.8348  1.7314 -0.5933
  677SOL    HW2 2031   1.952   0.639   0.947 -0.7971 -0.9055 -3.2936
  678SOL     OW 2032   0.109   0.738   1.615 -0.1287 -0.2313 -0.2651
  678SOL    HW1 2033   0.206   0.766   1.641  1.0244  1.0453 -0.3890
  678SOL    HW2 2034   0.059   0.683   1.690  1.3736 -0.0874  1.9270
  679SOL     OW 2035   2.613   1.165   1.160 -0.4949  0.3947 -0.0388
  679SOL    HW1 2036   2.511   1.192   1.148 -2.7405 -2.0817 -1.5132
  679SOL    HW2 2037   2.623   1.065   1.178  1.9143  2.4134  0.4810
  680SOL     OW 2038   2.848   0.475   1.707  0.0441 -0.1465  0.1154
  680SOL    HW1 2039   2.796   0.532   1.634 -0.1380 -1.5711  1.6206
  680SOL    HW2 2040   2.918   0.538   1.752 -0.6852  1.9872  0.1112
  681SOL     OW 2041   2.993   0.073   1.617 -0.3284 -0.3046  0.0409
  681SOL    HW1 2042   3.066   0.086   1.540  0.2864 -0.5536 -0.5136
  681SOL    HW2 2043   2.912   0.139   1.600  2.6473 -0.1369  1.7995
  682SOL     OW 2044   0.663   0.039   1.348 -0.0089  0.2980  0.1224
  682SOL    HW1 2045   0.599  -0.042   1.368 -2.3793  1.0698  1.1934
  682SOL    HW2 2046   0.722   0.024   1.266 -2.5647 -1.6342  0.3998
  683SOL     OW 2047   1.363   0.212   2.158  0.0556  0.0826 -0.0399
  683SOL    HW1 2048   1.372   0.234   2.258 -1.7857 -2.0790 -0.7263
  683SOL    HW2 2049   1.441   0.242   2.095  0.3371  2.0831 -1.7967
  684SOL     OW 2050   1.440   2.114   0.543  0.6658  0.0161  0.1716
  684SOL    HW1 2051   1.486   2.057   0.614 -1.8674  0.6325 -0.1579
  684SOL    HW2 2052   1.343   2.082   0.511 -0.0255  0.4547 -2.5120
  685SOL     OW 2053   2.213   2.042   1.954  0.2667  0.3507  0.5020
  685SOL    HW1 2054   2.297   2.042   1.891 -1.0780  0.6950 -1.3448
  685SOL    HW2 2055   2.239   2.086   2.039  0.2759 -0.2802  0.2812
  686SOL     OW 2056   1.512   1.831   2.874 -0.1166 -0.2783 -0.6893
  686SOL    HW1 2057   1.573   1.808   2.956  0.4455  0.8975 -0.8518
  686SOL    HW2 2058   1.412   1.828   2.895  0.2346  0.3599  0.7542
  687SOL     OW 2059   1.312   2.398   1.973  0.4842 -0.3715  0.2952
  687SOL    HW1 2060   1.342   2.299   1.971  1.1150 -0.9432 -0.0868
  687SOL    HW2 2061   1.378   2.455   2.031  1.9142  0.9166 -3.8196
  688SOL     OW 2062   2.059   1.519   1.762 -0.6103  0.1086  0.5940
  688SOL    HW1 2063   2.159   1.545   1.741  0.3907 -2.3234  1.0186
  688SOL    HW2 2064   2.012   1.494   1.674  0.5272  3.3907  2.8462
  689SOL     OW 2065   2.381   1.111   2.736  0.2023 -0.1893 -0.5396
  689SOL    HW1 2066   2.296   1.069   2.781  1.3428 -0.2412  1.5253
  689SOL    HW2 2067   2.465   1.086   2.792 -1.1937 -0.2192  1.0005
  690SOL     OW 2068   2.237   2.763   0.055  1.0653  0.1424  0.5798
  690SOL    HW1 2069   2.159   2.731  -0.011 -3.0414  0.7588 -0.6717
  690SOL    HW2 2070   2.195   2.778   0.149  0.0610 -1.0818 -2.8996
  691SOL     OW 2071   2.600   0.398   2.107  0.0483  0.1794  0.1952
  691SOL    HW1 2072   2.660   0.322   2.150 -0.6226 -1.0072 -1.6498
  691SOL    HW2 2073   2.662   0.464   2.059 -0.6907 -0.4989  0.1423
  692SOL     OW 2074   2.642   1.204   0.820 -0.3082  0.4141  0.0919
  692SOL    HW1 2075   2.550   1.209   0.771 -0.9874 -1.5353 -2.0952
  692SOL    HW2 2076   2.657   1.285   0.882 -1.9891  1.7872 -0.0778
  693SOL     OW 2077   2.849   2.975   0.587  0.2597  0.8781 -0.2310
  693SOL    HW1 2078   2.791   3.043   0.643 -1.5683  0.1744 -0.0098
  693SOL    HW2 2079   2.837   2.979   0.482 -0.0720 -2.2564 -2.1429
  694SOL     OW 2080   2.443   2.231   0.158  0.4977 -0.9062 -0.5471
  694SOL    HW1 2081   2.410   2.332   0.162 -2.0209  0.3406  0.7674
  694SOL    HW2 2082   2.368   2.163   0.124 -0.3489 -1.0804 -0.3708
  695SOL     OW 2083   0.482   2.959   1.434  0.5546 -0.1696  0.1426
  695SOL    HW1 2084   0.420   2.887   1.395  1.9484 -0.5870  0.3729
  695SOL    HW2 2085   0.440   3.023   1.502 -0.1388  0.4306 -0.5191
  696SOL     OW 2086   2.831   2.029   0.750  0.6943  0.8224 -0.0918
  696SOL    HW1 2087   2.889   1.945   0.762 -0.2095  0.8662 -0.7691
  696SOL    HW2 2088   2.828   2.065   0.649 -2.6296  0.2835 -1.2812
  697SOL     OW 2089   1.668   1.878   1.829 -0.0740 -0.0371 -0.1220
  697SOL    HW1 2090   1.770   1.853   1.825 -0.8838  0.2396 -0.4178
  697SOL    HW2 2091   1.652   1.975   1.801 -3.6584 -2.7904 -0.6655
  698SOL     OW 2092   2.902   0.427   2.734  0.2646 -0.0578  1.4720
  698SOL    HW1 2093   2.871   0.390   2.641 -0.2598  0.4857 -2.9120
  698SOL    HW2 2094   2.965   0.358   2.784  0.6124 -4.0133  0.6669
  699SOL     OW 2095   1.559   0.062   2.907 -0.1402 -0.0311  0.3688
  699SOL    HW1 2096   1.521  -0.031   2.880  0.2612 -1.8640  0.9528
  699SOL    HW2 2097   1.607   0.106   2.824 -0.6246  0.3252 -1.2135
  700SOL     OW 2098   0.988   2.238   1.362 -0.2039  0.2133  0.6414
  700SOL    HW1 2099   1.065   2.184   1.327 -0.0521 -1.0434 -1.4287
  700SOL    HW2 2100   0.894   2.204   1.336  1.3337 -1.9180  0.1391
  701SOL     OW 2101   1.908   2.855   0.014  0.1767  0.3981  0.0308
  701SOL    HW1 2102   1.864   2.822   0.104  1.7897 -1.8426 -2.8736
  701SOL    HW2 2103   1.930   2.957   0.021 -0.1296 -0.2553 -3.7017
  702SOL     OW 2104   2.089   1.318   1.964 -0.2768 -0.0775 -0.2168
  702SOL    HW1 2105   2.189   1.285   1.963  0.6229 -0.1876 -0.2388
  702SOL    HW2 2106   2.081   1.404   1.904 -0.2156 -1.1430 -1.7138
  703SOL     OW 2107   1.930   0.908   1.486  0.2611  0.1744 -0.4260
  703SOL    HW1 2108   1.934   0.802   1.500  0.2798 -1.6401  0.6294
  703SOL    HW2 2109   1.943   0.958   1.576  1.0755  2.7386 -1.7670
  704SOL     OW 2110   0.315   2.022   1.705 -0.7404  0.0642 -0.1721
  704SOL    HW1 2111   0.371   1.947   1.755 -1.6590  0.1947 -2.1832
  704SOL    HW2 2112   0.367   2.112   1.697  1.1629  0.6922 -1.7651
  705SOL     OW 2113   2.482   1.494   0.889 -0.1998  0.3017 -0.5358
  705SOL    HW1 2114   2.456   1.416   0.827  2.9125 -1.5456 -1.0496
  705SOL    HW2 2115   2.579   1.476   0.927 -1.9642  1.2551  0.6372
  706SOL     OW 2116   0.665   1.721   1.843  0.8037  0.1233  0.0983
  706SOL    HW1 2117   0.698   1.624   1.826 -2.2196 -5.9071  0.2190
  706SOL    HW2 2118   0.711   1.766   1.920  0.4845 -4.4226 -0.0259
  707SOL     OW 2119   2.341   1.197   1.966 -0.1467 -0.4364  0.4637
  707SOL    HW1 2120   2.407   1.208   2.043  1.9158  3.4122 -1.6603
  707SOL    HW2 2121   2.341   1.101   1.925 -0.7227  0.3940  1.6919
  708SOL     OW 2122   3.012   0.521   3.049  0.2297 -0.1201 -0.5283
  708SOL    HW1 2123   3.071   0.593   2.999  0.6585  1.8025 -2.5564
  708SOL    HW2 2124   3.003   0.423   3.010 -0.5618  0.1692 -2.4807
  709SOL     OW 2125   1.880   1.853   0.363 -0.4081 -0.3771 -0.5090
  709SOL    HW1 2126   1.885   1.949   0.396  1.7355  0.3518 -0.8142
  709SOL    HW2 2127   1.869   1.854   0.259 -0.4480  0.0481 -0.2457
  710SOL     OW 2128   1.772   1.629   2.475 -0.0580 -0.3454  0.0484
  710SOL    HW1 2129   1.860   1.594   2.436 -0.5955  0.8196  0.5796
  710SOL    HW2 2130   1.740   1.574   2.559 -2.1461  3.5169 -2.0419
  711SOL     OW 2131   2.623   2.942   0.970 -0.4850  0.2986 -0.2487
  711SOL    HW1 2132   2.595   3.038   0.947  0.4150  0.9329 -0.1760
  711SOL    HW2 2133   2.721   2.937   1.004  1.1123 -1.0695  0.1071
  712SOL     OW 2134   1.399   2.131   1.967  0.1159  0.6311 -0.3213
  712SOL    HW1 2135   1.507   2.148   1.969  0.6549 -0.8239  1.9751
  712SOL    HW2 2136   1.369   2.082   1.878  1.5741 -1.1957 -0.3129
  713SOL     OW 2137   2.783   1.493   2.533  0.4901  0.5607  0.0468
  713SOL    HW1 2138   2.781   1.385   2.528 -0.6259  0.6377 -1.8105
  713SOL    HW2 2139   2.711   1.526   2.603  0.3250  2.6958 -0.9338
  714SOL     OW 2140   2.642   0.465   2.374 -0.9006 -0.6017 -0.1807
  714SOL    HW1 2141   2.593   0.424   2.459  1.7829  2.7369 -2.4694
  714SOL    HW2 2142   2.604   0.421   2.287 -3.6579 -0.4465  0.0292
  715SOL     OW 2143   1.576   2.168   1.161 -0.2883 -0.7465 -0.2372
  715SOL    HW1 2144   1.490   2.202   1.113  1.5893  0.0166 -0.0553
  715SOL    HW2 2145   1.565   2.174   1.266 -0.2109 -0.5242  2.5466
  716SOL     OW 2146   1.232   0.157   1.478  0.1780 -0.1677  0.3175
  716SOL    HW1 2147   1.140   0.157   1.445  2.3898 -0.7184 -3.2626
  716SOL    HW2 2148   1.293   0.233   1.450 -1.2533 -0.5389  0.8331
  717SOL     OW 2149   1.161   0.556   1.601  0.7210 -0.0624 -0.3155
  717SOL    HW1 2150   1.257   0.589   1.618 -0.4276 -0.5363  0.9161
  717SOL    HW2 2151   1.148   0.502   1.508 -2.8444  1.3906 -1.2684
  718SOL     OW 2152   0.643   0.894   0.968 -0.0087  0.1178 -0.3133
  718SOL    HW1 2153   0.632   0.877   0.863  0.7549 -2.5327 -1.6510
  718SOL    HW2 2154   0.660   0.994   0.991 -0.4445  1.3241  0.6780
  719SOL     OW 2155   0.612   1.735   2.297 -0.4309 -0.2492 -0.5399
  719SOL    HW1 2156   0.660   1.797   2.363  0.0640  0.4310  2.6170
  719SOL    HW2 2157   0.604   1.638   2.333  0.7585  3.1891  0.3821
  720SOL     OW 2158   2.215   1.145   0.301  0.1494 -0.5421 -0.0137
  720SOL    HW1 2159   2.268   1.077   0.243 -2.8382  0.6408 -2.1278
  720SOL    HW2 2160   2.171   1.101   0.381  1.5773 -0.9401  0.0518
  721SOL     OW 2161   2.251   3.001   2.066 -0.0317 -0.0344 -0.5776
  721SOL    HW1 2162   2.210   3.025   1.980 -2.1132  0.0563  1.0567
  721SOL    HW2 2163   2.191   3.028   2.145 -1.3531 -1.1583 -3.6799
  722SOL     OW 2164   2.358   1.640   0.485 -0.1023 -0.0447 -0.1492
  722SOL    HW1 2165   2.428   1.654   0.407 -0.3037  0.3616 -2.2063
  722SOL    HW2 2166   2.258   1.664   0.452  0.0378  0.7056 -0.5362
  723SOL     OW 2167   2.662   2.722   1.926 -0.5363 -0.4948  0.2222
  723SOL    HW1 2168   2.712   2.810   1.957 -1.5603 -0.4850  0.2920
  723SOL    HW2 2169   2.558   2.718   1.948  0.5847 -3.4776 -3.8210
  724SOL     OW 2170   0.461   2.505   2.399  0.3798  0.0520  0.2941
  724SOL    HW1 2171   0.381   2.454   2.450 -0.6944 -0.0489 -0.5036
  724SOL    HW2 2172   0.539   2.538   2.459 -0.3411 -0.1737  1.1123
  725SOL     OW 2173   2.372   2.780   1.563 -0.3164 -0.9425  0.4060
  725SOL    HW1 2174   2.387   2.797   1.464  3.3590 -2.5505 -0.1241
  725SOL    HW2 2175   2.413   2.687   1.579 -1.2903  0.4070 -0.5383
  726SOL     OW 2176   2.504   2.308   0.696 -0.5117 -0.0768  0.1219
  726SOL    HW1 2177   2.471   2.404   0.662 -0.0826 -1.1115 -3.1509
  726SOL    HW2 2178   2.489   2.236   0.623 -0.5243 -2.7996 -2.4568
  727SOL     OW 2179   0.094   0.021   0.165 -0.1343 -0.5562 -0.1683
  727SOL    HW1 2180   0.162   0.062   0.093  0.0247  0.7966  0.0178
  727SOL    HW2 2181   0.040  -0.062   0.137 -1.0639 -1.0892 -1.8174
  728SOL     OW 2182   2.912   0.709   0.903 -0.1631 -0.3156 -0.5345
  728SOL    HW1 2183   2.875   0.682   0.806 -0.7321 -0.2494 -2.1708
  728SOL    HW2 2184   2.857   0.671   0.982  0.4709 -0.6020  1.6176
  729SOL     OW 2185   0.036   2.519   0.751  0.1279  0.3915  0.0025
  729SOL    HW1 2186   0.073   2.496   0.846 -3.8499  0.5209 -0.2210
  729SOL    HW2 2187   0.116   2.522   0.680  0.4203 -0.9337 -3.3961
  730SOL     OW 2188   2.562   0.651   0.871 -0.1836  0.1913 -0.7603
  730SOL    HW1 2189   2.561   0.755   0.877 -2.8626  1.1052  0.0702
  730SOL    HW2 2190   2.633   0.620   0.799 -0.0430 -1.7082  0.2204
  731SOL     OW 2191   3.078   2.175   2.376 -0.1162  0.3027  0.5422
  731SOL    HW1 2192   3.089   2.215   2.469  1.6643  0.7128  0.8627
  731SOL    HW2 2193   2.999   2.212   2.321 -0.9278 -1.2735  0.7905
  732SOL     OW 2194   1.225   2.767   2.024 -0.9382  0.3889  0.5387
  732SOL    HW1 2195   1.244   2.678   2.077 -0.4825  1.4212  1.1824
  732SOL    HW2 2196   1.193   2.749   1.925  0.2290 -0.2012 -0.1507
  733SOL     OW 2197   0.015   0.571   2.246  0.2729 -0.2801 -0.2651
  733SOL    HW1 2198   0.098   0.610   2.194  0.0096 -0.2004 -0.4755
  733SOL    HW2 2199  -0.046   0.513   2.187  0.1814  1.0190  2.2288
  734SOL     OW 2200   1.455   0.369   2.668 -0.0845  0.1741  0.0497
  734SOL    HW1 2201   1.469   0.464   2.702  0.9511  0.0191  1.0425
  734SOL    HW2 2202   1.363   0.332   2.692 -0.3560  1.2513 -1.9579
  735SOL     OW 2203   2.859   2.614   2.286  0.0423 -0.5259  0.2355
  735SOL    HW1 2204   2.853   2.576   2.185  0.0250 -0.9437 -0.0722
  735SOL    HW2 2205   2.942   2.676   2.300  2.2683  1.6733 -3.3307
  736SOL     OW 2206   0.912   0.437   2.506 -0.0065  0.0664  0.1912
  736SOL    HW1 2207   0.826   0.484   2.481 -0.1940 -2.0233 -1.5292
  736SOL    HW2 2208   0.920   0.340   2.472  0.3695  2.3364 -0.7649
  737SOL     OW 2209   2.606   0.436   2.814 -0.2070  0.3628 -0.0183
  737SOL    HW1 2210   2.560   0.437   2.906 -0.3738  2.4754  1.2181
  737SOL    HW2 2211   2.711   0.442   2.815 -0.8970 -1.1603  1.8290
  738SOL     OW 2212   1.719   1.269   2.875 -0.0514  0.4839 -0.0453
  738SOL    HW1 2213   1.812   1.220   2.875 -1.1734  0.1609 -0.1563
  738SOL    HW2 2214   1.635   1.220   2.834 -0.9441  0.9054  0.0605
  739SOL     OW 2215   1.790   0.687   0.646 -0.8079  0.0618 -0.2142
  739SOL    HW1 2216   1.827   0.712   0.743  1.0100  1.7787  1.8714
  739SOL    HW2 2217   1.836   0.604   0.608 -0.5632  1.0843 -0.3661
  740SOL     OW 2218   1.937   1.917   2.376  0.3155  0.0694  0.1098
  740SOL    HW1 2219   2.014   1.850   2.350 -2.0873  0.1962 -2.3475
  740SOL    HW2 2220   1.859   1.885   2.319 -2.5915 -0.0293 -0.3171
  741SOL     OW 2221   2.551   0.033   2.477 -0.1403  0.9730 -0.2052
  741SOL    HW1 2222   2.648   0.006   2.462 -0.4327 -0.9710  0.1836
  741SOL    HW2 2223   2.502   0.065   2.390 -1.3293 -0.4436  0.3200
  742SOL     OW 2224   2.200   1.371   0.162 -0.1765 -0.4121 -0.3697
  742SOL    HW1 2225   2.098   1.391   0.139 -2.9896  1.9176 -0.1720
  742SOL    HW2 2226   2.216   1.274   0.195  1.5591 -3.1911  0.0601
  743SOL     OW 2227   1.786   0.604   2.605 -0.6965  0.7028  0.4135
  743SOL    HW1 2228   1.777   0.530   2.536  1.3942  1.1852 -2.3782
  743SOL    HW2 2229   1.703   0.655   2.630  1.9341 -0.3856 -2.2690
  744SOL     OW 2230   2.665   2.109   0.050 -0.0327 -0.5437 -0.7581
  744SOL    HW1 2231   2.595   2.149   0.118 -0.7125  0.5780  2.2615
  744SOL    HW2 2232   2.669   2.010   0.058 -1.0232  1.4121  3.1399
  745SOL     OW 2233   2.237   2.614   2.198 -0.7240  0.5972 -0.1700
  745SOL    HW1 2234   2.140   2.620   2.174 -0.0335  0.6262 -2.0032
  745SOL    HW2 2235   2.261   2.670   2.280 -0.2536 -0.8346  0.6598
  746SOL     OW 2236   0.052   2.638   1.745 -0.0015  0.2225 -0.2571
  746SOL    HW1 2237   0.115   2.563   1.715 -0.5913  0.2371 -0.3253
  746SOL    HW2 2238   0.074   2.696   1.831  0.3254  0.9263  0.8074
  747SOL     OW 2239   0.041   1.781   1.650  0.0715  0.7806  0.3755
  747SOL    HW1 2240   0.005   1.683   1.630  1.7182 -0.1896 -3.8006
  747SOL    HW2 2241   0.092   1.824   1.564  1.1870  0.6183  3.9798
  748SOL     OW 2242   1.819   2.736   2.878 -0.8381 -0.1117 -0.3794
  748SOL    HW1 2243   1.850   2.790   2.963 -0.7472 -4.0875 -0.6086
  748SOL    HW2 2244   1.724   2.700   2.889  0.6068  2.3667 -1.2966
  749SOL     OW 2245   1.392   3.026   0.882 -0.3707 -0.0744 -0.5686
  749SOL    HW1 2246   1.333   3.098   0.840 -3.1492  3.4908  1.4642
  749SOL    HW2 2247   1.454   2.984   0.807 -0.7571  3.5052  2.0725
  750SOL     OW 2248   2.257   0.177   1.836  0.2351 -0.3469  0.1216
  750SOL    HW1 2249   2.273   0.218   1.738  0.9620  2.9476 -4.2018
  750SOL    HW2 2250   2.239   0.251   1.905 -1.1604  1.5535 -0.8741
  751SOL     OW 2251   0.751   2.148   2.877 -0.0526 -0.4083  0.6951
  751SOL    HW1 2252   0.819   2.153   2.958 -1.3849 -0.8801 -0.4558
  751SOL    HW2 2253   0.664   2.097   2.898 -0.7785  1.5747 -0.8373
  752SOL     OW 2254   1.287   0.823   1.263  0.7754  0.0249  0.3318
  752SOL    HW1 2255   1.361   0.896   1.260 -2.2484  0.4472  0.1846
  752SOL    HW2 2256   1.322   0.734   1.305  0.6055  0.6744  1.8821
  753SOL     OW 2257   0.917   2.532   1.806  0.0466 -0.4266 -0.3631
  753SOL    HW1 2258   1.015   2.565   1.785  1.3314  1.8307  1.3273
  753SOL    HW2 2259   0.851   2.613   1.801 -1.0844  1.7775  1.3086
  754SOL     OW 2260   1.133   1.217   3.039 -0.1612  0.6128  0.3138
  754SOL    HW1 2261   1.206   1.160   2.998 -1.3433  0.7948 -2.3526
  754SOL    HW2 2262   1.153   1.316   3.040 -1.4261 -1.1578  0.4356
  755SOL     OW 2263   1.977   0.430   2.208  0.3576  0.0464  0.0592
  755SOL    HW1 2264   2.062   0.369   2.231 -2.0810 -0.4526  0.6823
  755SOL    HW2 2265   1.911   0.442   2.284 -2.5732 -0.9849 -1.0215
  756SOL     OW 2266   2.533   1.012   2.992  0.5714  0.1491  0.1743
  756SOL    HW1 2267   2.637   0.988   2.996 -1.0419  3.1496  3.3204
  756SOL    HW2 2268   2.481   0.924   3.011  0.1796  0.4853  0.7928
  757SOL     OW 2269   0.103   0.437   2.001 -0.1149  0.3020  0.0502
  757SOL    HW1 2270   0.156   0.359   1.961  1.9602 -2.4436  1.3082
  757SOL    HW2 2271   0.009   0.403   2.041  1.7979  0.1856  2.3717
  758SOL     OW 2272   2.199   0.096   1.495  0.2992  0.2412 -0.2613
  758SOL    HW1 2273   2.173  -0.004   1.503  0.1460 -1.3477  0.7677
  758SOL    HW2 2274   2.266   0.112   1.419 -1.9487  0.6963  0.1282
  759SOL     OW 2275   1.694   0.038   0.072  0.0977  0.5536 -0.1589
  759SOL    HW1 2276   1.652   0.038  -0.026 -0.0127  0.8646  0.0842
  759SOL    HW2 2277   1.796   0.054   0.066 -1.7301  0.4459 -1.1286
  760SOL     OW 2278   2.668   2.018   2.840 -0.8489 -0.4033  0.1564
  760SOL    HW1 2279   2.599   1.972   2.901 -0.0391 -0.7568 -1.8333
  760SOL    HW2 2280   2.679   2.121   2.854 -1.6983  0.1447 -1.3831
  761SOL     OW 2281   1.928   1.786   1.778 -0.1640 -0.1137  0.3560
  761SOL    HW1 2282   1.939   1.685   1.800  1.2523  1.6217  0.7200
  761SOL    HW2 2283   1.892   1.809   1.682 -0.1623  1.2227 -0.2182
  762SOL     OW 2284   0.483   2.387   0.972 -0.4478 -0.6117 -0.2102
  762SOL    HW1 2285   0.525   2.413   0.884 -1.1915  1.0724  1.3135
  762SOL    HW2 2286   0.544   2.400   1.053  1.5247 -0.5009  0.0080
  763SOL     OW 2287   2.060   1.538   2.971 -0.1459 -0.0739 -0.3634
  763SOL    HW1 2288   2.159   1.492   2.980  3.0052  2.8388 -3.0036
  763SOL    HW2 2289   1.995   1.497   3.041  1.0582  0.6018  0.5498
  764SOL     OW 2290   0.697   0.616   0.699 -0.0244 -0.3231  1.0441
  764SOL    HW1 2291   0.629   0.547   0.659  1.2535 -0.2179 -0.2182
  764SOL    HW2 2292   0.746   0.579   0.781 -0.9775  0.1726 -3.4965
  765SOL     OW 2293   0.800   0.305   0.741  0.5003 -0.0860  0.5235
  765SOL    HW1 2294   0.827   0.338   0.651 -1.5325  2.8811 -2.8887
  765SOL    HW2 2295   0.818   0.368   0.819 -0.3548 -3.7045 -2.3215
  766SOL     OW 2296   2.933   2.145   3.036 -0.0291  0.1729 -0.4587
  766SOL    HW1 2297   2.828   2.148   3.059 -0.5503  1.0630  0.0550
  766SOL    HW2 2298   2.985   2.222   3.082 -0.0548  1.2503  0.2486
  767SOL     OW 2299   2.784   1.650   0.608 -0.0505  0.4869  0.0286
  767SOL    HW1 2300   2.691   1.667   0.651  0.4235  2.0581 -2.5698
  767SOL    HW2 2301   2.862   1.711   0.645  2.6787 -1.9791  0.7950
  768SOL     OW 2302   1.082   0.160   0.228  0.4710 -0.4267  0.1852
  768SOL    HW1 2303   1.062   0.162   0.333  0.2847 -2.4940  0.9691
  768SOL    HW2 2304   1.185   0.143   0.214 -1.5806  1.4120  0.8238
  769SOL     OW 2305   1.117   1.818   2.303  0.1498  0.2944  0.2418
  769SOL    HW1 2306   1.021   1.838   2.326  2.1539  1.0750 -0.9251
  769SOL    HW2 2307   1.185   1.821   2.383  1.2002  0.1569  0.7469
  770SOL     OW 2308   0.168   1.123   2.299 -0.1580  0.2363  0.0550
  770SOL    HW1 2309   0.195   1.204   2.357 -0.0666 -1.0484 -1.0066
  770SOL    HW2 2310   0.084   1.077   2.332 -0.3650  0.4950  0.4357
  771SOL     OW 2311   3.048   2.832   1.955  0.2853  0.1687 -0.0150
  771SOL    HW1 2312   2.997   2.874   1.871  1.9854 -2.1513 -2.6681
  771SOL    HW2 2313   3.016   2.882   2.045 -1.9200 -2.8385  3.0327
  772SOL     OW 2314   2.341   0.222   2.830 -0.5915 -0.3167  0.1040
  772SOL    HW1 2315   2.402   0.147   2.784 -1.7533 -0.5497  1.9770
  772SOL    HW2 2316   2.344   0.211   2.934  0.7316  0.2461  1.8308
  773SOL     OW 2317   0.604   2.111   2.378  0.1244  0.1078  0.2735
  773SOL    HW1 2318   0.584   2.200   2.327 -0.3113 -1.6100  1.0951
  773SOL    HW2 2319   0.535   2.098   2.457 -0.2693 -3.4149  0.5786
  774SOL     OW 2320   2.097   0.006   2.577  0.0841 -0.0245  0.0603
  774SOL    HW1 2321   2.065   0.086   2.638  2.6006  2.0424 -0.6048
  774SOL    HW2 2322   2.167  -0.056   2.614 -0.9191 -0.9842 -0.3547
  775SOL     OW 2323   2.582   2.950   2.240  0.3772 -0.1746  0.0742
  775SOL    HW1 2324   2.549   3.048   2.263  2.1257  1.6780  1.3785
  775SOL    HW2 2325   2.607   2.900   2.328 -0.4891 -1.3385 -3.9120
  776SOL     OW 2326   3.101   1.262   0.168  0.0776 -0.6256 -0.5117
  776SOL    HW1 2327   3.061   1.215   0.084  1.3198  1.7329 -1.0080
  776SOL    HW2 2328   3.051   1.245   0.259 -0.8292  0.5857  2.5126
  777SOL     OW 2329   0.442   2.911   0.429  0.3166  0.7058 -0.2023
  777SOL    HW1 2330   0.341   2.888   0.408  0.7707  3.1556  0.0818
  777SOL    HW2 2331   0.507   2.835   0.399 -0.7989  1.9370 -0.5610
  778SOL     OW 2332   1.319   1.979   0.191  0.0179 -0.8145 -0.3446
  778SOL    HW1 2333   1.272   2.012   0.278  0.2930 -0.4401 -1.2076
  778SOL    HW2 2334   1.335   2.053   0.122  0.4966  0.2741  0.9236
  779SOL     OW 2335   0.166   0.832   0.439 -0.4955 -0.1310 -0.5320
  779SOL    HW1 2336   0.093   0.757   0.414  0.7878  0.2889 -1.5124
  779SOL    HW2 2337   0.131   0.887   0.518 -0.3035  0.9814 -0.0012
  780SOL     OW 2338   0.177   0.281   2.360  0.8930  0.3295  0.3778
  780SOL    HW1 2339   0.148   0.362   2.417  2.9127 -0.0571  0.8335
  780SOL    HW2 2340   0.261   0.298   2.299 -0.7119 -2.0325 -0.6356
  781SOL     OW 2341   0.694   1.695   1.490  0.5861 -0.5936 -0.1365
  781SOL    HW1 2342   0.753   1.655   1.566  0.0722  2.7776  1.4543
  781SOL    HW2 2343   0.590   1.695   1.509 -0.4269  1.3590 -0.6459
  782SOL     OW 2344   2.535   0.103   0.957  0.4760 -0.1549 -0.0383
  782SOL    HW1 2345   2.490   0.153   0.876  1.1946 -1.1740  0.5087
  782SOL    HW2 2346   2.535   0.165   1.040  1.9232  1.3884 -1.3402
  783SOL     OW 2347   2.757   0.690   2.467 -0.0804 -0.4005  0.4500
  783SOL    HW1 2348   2.762   0.709   2.564 -0.4958 -0.0239 -0.3479
  783SOL    HW2 2349   2.694   0.611   2.451  0.1813  0.3964 -3.6889
  784SOL     OW 2350   1.403   2.210   0.033 -0.3726 -0.1734  0.7550
  784SOL    HW1 2351   1.468   2.285   0.071  1.7044  0.6491  0.1513
  784SOL    HW2 2352   1.389   2.214  -0.066  0.4388 -4.1042  0.6901
  785SOL     OW 2353   2.066   0.308   3.070 -0.3299  0.4908 -0.5090
  785SOL    HW1 2354   2.002   0.331   3.150 -0.4849 -0.8675 -1.6201
  785SOL    HW2 2355   2.093   0.405   3.032  1.3898  1.2919 -1.1762
  786SOL     OW 2356   2.026   2.174   2.247 -0.2078  0.4923  0.2282
  786SOL    HW1 2357   1.968   2.104   2.292 -2.1661 -2.6540  1.7478
  786SOL    HW2 2358   2.130   2.145   2.266  1.3633  0.1998  0.9931
  787SOL     OW 2359   1.368   0.525   0.919 -0.2827 -0.6637  0.1441
  787SOL    HW1 2360   1.309   0.613   0.929  0.8378  2.9898  1.1464
  787SOL    HW2 2361   1.426   0.522   0.825  1.6725 -0.9521  0.6388
  788SOL     OW 2362   1.210   0.443   0.049 -0.2290 -0.3342  0.1466
  788SOL    HW1 2363   1.112   0.425   0.008 -1.5194 -0.7391  0.0443
  788SOL    HW2 2364   1.198   0.484   0.148 -0.3583 -0.2700  1.3008
  789SOL     OW 2365   2.520   0.108   1.975  0.3065  0.0172  0.2343
  789SOL    HW1 2366   2.415   0.101   1.982  4.6143  0.0091  2.5214
  789SOL    HW2 2367   2.563   0.051   1.899 -2.0364 -4.5646  0.5537
  790SOL     OW 2368   2.655   2.742   0.744  0.3848  0.2278  0.6757
  790SOL    HW1 2369   2.720   2.755   0.664 -0.0765 -0.6212 -3.1335
  790SOL    HW2 2370   2.648   2.818   0.813  0.0689 -3.1895  0.7766
  791SOL     OW 2371   1.922   1.211   0.289  0.1222  0.3065  0.5312
  791SOL    HW1 2372   1.837   1.164   0.335  0.5777  3.8664 -0.8358
  791SOL    HW2 2373   2.014   1.174   0.319 -1.3171  1.1363  0.6303
  792SOL     OW 2374   0.374   1.737   2.101 -0.1116  0.0445  0.5129
  792SOL    HW1 2375   0.453   1.702   2.157 -0.3252  2.3699  2.4581
  792SOL    HW2 2376   0.290   1.750   2.155 -0.8416 -1.0537 -3.3408
  793SOL     OW 2377   2.103   1.584   2.109  0.1318 -0.3002  0.4642
  793SOL    HW1 2378   2.169   1.622   2.040 -2.5722 -1.4961 -3.1722
  793SOL    HW2 2379   2.103   1.481   2.101 -0.7507 -0.1232 -0.1121
  794SOL     OW 2380   0.561   1.469   2.327 -0.0012 -0.6612  0.1943
  794SOL    HW1 2381   0.522   1.429   2.238  0.1693 -0.4506 -1.3760
  794SOL    HW2 2382   0.481   1.490   2.395 -1.4425  0.4482  1.1612
  795SOL     OW 2383   2.543   2.296   1.812  0.1874 -0.5354  0.4583
  795SOL    HW1 2384   2.510   2.343   1.895 -1.8229 -1.1904 -1.0866
  795SOL    HW2 2385   2.479   2.225   1.780  0.1698 -1.8518 -1.4362
  796SOL     OW 2386   0.021   1.105   2.664  0.1208 -0.0463  0.3158
  796SOL    HW1 2387  -0.081   1.102   2.683  0.7873 -0.1613  0.7761
  796SOL    HW2 2388   0.066   1.117   2.756 -1.0692  1.2803 -0.1931
  797SOL     OW 2389   0.790   0.659   1.417 -0.0438  0.2987  0.3388
  797SOL    HW1 2390   0.865   0.714   1.470  2.1936  0.4766 -0.7438
  797SOL    HW2 2391   0.731   0.714   1.349 -2.1595  0.6913 -0.7325
  798SOL     OW 2392   1.312   0.377   1.148 -0.1471 -0.1263 -0.0178
  798SOL    HW1 2393   1.388   0.378   1.224 -0.3353 -0.6300 -1.4762
  798SOL    HW2 2394   1.331   0.444   1.066 -0.9505  0.2911 -3.5005
  799SOL     OW 2395   1.994   2.704   0.978  0.1409  0.1942 -0.2477
  799SOL    HW1 2396   1.901   2.713   1.021  2.0379 -0.9614 -1.1859
  799SOL    HW2 2397   1.996   2.680   0.880 -0.7003 -1.4114  0.8957
  800SOL     OW 2398   3.048   0.644   1.820 -0.8204  0.8779  0.4315
  800SOL    HW1 2399   3.017   0.706   1.897 -1.2628  1.3825  2.3166
  800SOL    HW2 2400   3.129   0.590   1.853 -0.6286 -0.3592  0.4151
  801SOL     OW 2401   1.930   2.263   0.087  0.4887 -0.3536 -0.2205
  801SOL    HW1 2402   1.857   2.192   0.064 -0.5044  1.7322 -2.1704
  801SOL    HW2 2403   2.027   2.231   0.063 -0.1531  1.9809 -1.4757
  802SOL     OW 2404   0.734   0.807   2.577 -0.0045  0.1759 -0.2487
  802SOL    HW1 2405   0.781   0.837   2.485  0.2096  1.3995 -2.5750
  802SOL    HW2 2406   0.654   0.751   2.554  0.9691  0.6518 -0.2489
  803SOL     OW 2407   0.942   0.099   0.911  0.1966 -0.2118 -0.2091
  803SOL    HW1 2408   1.021   0.161   0.942 -0.1608  1.4077  0.1369
  803SOL    HW2 2409   0.886   0.139   0.830 -1.7698  1.3251 -1.9309
  804SOL     OW 2410   0.288   0.056   2.154 -0.1025 -0.1081  0.3281
  804SOL    HW1 2411   0.270   0.160   2.146  0.2300 -0.0236 -0.7318
  804SOL    HW2 2412   0.228  -0.005   2.091  0.1790  1.1466 -0.9474
  805SOL     OW 2413   2.417   0.242   0.238  0.5817  0.2651  0.1386
  805SOL    HW1 2414   2.517   0.260   0.233 -3.7118 -0.6151  1.0708
  805SOL    HW2 2415   2.378   0.209   0.148  2.4713 -0.2836  2.4215
  806SOL     OW 2416   0.653   2.401   1.682  0.2881  0.0334  0.0281
  806SOL    HW1 2417   0.674   2.501   1.697  1.3511 -1.0097 -1.6128
  806SOL    HW2 2418   0.743   2.348   1.688  0.1249  0.5244  2.6752
  807SOL     OW 2419   2.421   0.990   0.463 -0.9440 -0.4249 -0.2347
  807SOL    HW1 2420   2.511   1.011   0.509 -2.2207  2.3049 -0.1846
  807SOL    HW2 2421   2.419   0.968   0.359 -0.5139 -0.0794  2.2712
  808SOL     OW 2422   0.528   1.984   2.958  0.5941  0.4591  0.6860
  808SOL    HW1 2423   0.520   2.003   3.058 -0.1814  2.6505  0.9844
  808SOL    HW2 2424   0.583   1.892   2.941 -0.1995 -1.2909  1.4876
  809SOL     OW 2425   2.596   1.973   1.982 -0.0645  0.6612  0.0186
  809SOL    HW1 2426   2.695   2.012   1.986  0.4220 -1.5620 -1.7609
  809SOL    HW2 2427   2.568   1.942   1.884 -0.7735 -2.1610 -0.6061
  810SOL     OW 2428   2.074   1.080   0.522  0.4745 -0.1325  0.9761
  810SOL    HW1 2429   2.099   1.032   0.605  3.6271 -1.4458 -0.5383
  810SOL    HW2 2430   2.046   1.176   0.546 -0.3282 -1.1140  1.0864
  811SOL     OW 2431   1.346   2.446   1.301  0.3894  0.6964  0.5121
  811SOL    HW1 2432   1.328   2.344   1.290  1.0056 -0.3019 -1.9036
  811SOL    HW2 2433   1.280   2.499   1.247  1.2723 -1.3255  1.2781
  812SOL     OW 2434   1.456   0.785   1.948  0.3871  0.0571  0.1980
  812SOL    HW1 2435   1.501   0.844   2.020  1.4233  2.7933 -2.4618
  812SOL    HW2 2436   1.370   0.830   1.910  0.5798  0.4663  2.6005
  813SOL     OW 2437   1.736   2.178   2.440 -0.4798  0.4589  0.2622
  813SOL    HW1 2438   1.770   2.120   2.512  0.6870  1.2439 -2.2279
  813SOL    HW2 2439   1.692   2.131   2.358  2.3706 -0.5075 -1.5421
  814SOL     OW 2440   2.859   1.527   2.908  0.0279 -0.7906 -0.6215
  814SOL    HW1 2441   2.954   1.514   2.944 -1.9789  0.0496  1.5793
  814SOL    HW2 2442   2.847   1.614   2.858  0.4066  1.2740  0.7407
  815SOL     OW 2443   2.266   2.853   2.684  0.1884 -0.6365  0.2806
  815SOL    HW1 2444   2.242   2.804   2.773  0.6381  0.6246  0.1360
  815SOL    HW2 2445   2.361   2.883   2.671 -1.8413 -2.2179  2.1194
  816SOL     OW 2446   1.691   0.320   1.611 -0.3084 -0.7136 -1.0589
  816SOL    HW1 2447   1.709   0.223   1.649 -1.1168  1.1094 -1.0513
  816SOL    HW2 2448   1.607   0.363   1.651  1.5702  0.0917  0.3850
  817SOL     OW 2449   0.449   1.244   2.478 -0.2760  0.4589  0.3948
  817SOL    HW1 2450   0.416   1.335   2.517  1.7960 -0.3047  0.4490
  817SOL    HW2 2451   0.516   1.259   2.402  1.5082  3.1309  0.2525
  818SOL     OW 2452   1.971   0.832   0.430 -0.3802  0.1705 -0.0215
  818SOL    HW1 2453   2.003   0.932   0.429 -1.0111 -1.1522  2.5446
  818SOL    HW2 2454   1.903   0.804   0.503 -1.6168 -0.4170 -0.6478
  819SOL     OW 2455   2.772   2.901   3.033  0.3425 -0.7030 -0.3393
  819SOL    HW1 2456   2.841   2.828   3.025  0.7523  1.4593 -1.2165
  819SOL    HW2 2457   2.688   2.886   2.973  1.0956  0.0517 -0.1549
  820SOL     OW 2458   1.254   1.141   0.529 -0.2545 -0.9938  0.0755
  820SOL    HW1 2459   1.240   1.234   0.575  1.0139  0.0461  1.4320
  820SOL    HW2 2460   1.240   1.072   0.598  0.3419 -1.7809 -0.5911
  821SOL     OW 2461   3.077   1.269   0.670  0.4832 -0.2340  0.0206
  821SOL    HW1 2462   3.030   1.270   0.767 -0.1473 -1.9816  2.5978
  821SOL    HW2 2463   3.145   1.344   0.656  1.1142  1.8254  0.1938
  822SOL     OW 2464   2.521   1.757   2.422  0.3664 -0.3824 -0.2272
  822SOL    HW1 2465   2.531   1.832   2.492 -0.3028 -0.8828  1.4000
  822SOL    HW2 2466   2.462   1.792   2.341 -3.0868  0.3754 -0.2575
  823SOL     OW 2467   2.019   0.885   1.231 -0.1777 -0.0988 -0.4691
  823SOL    HW1 2468   2.010   0.879   1.333 -2.2260 -2.0357 -1.8161
  823SOL    HW2 2469   1.951   0.949   1.188  0.8927  2.2364  0.0567
  824SOL     OW 2470   0.111   2.026   2.785 -0.3458 -0.3764  0.6849
  824SOL    HW1 2471   0.063   1.945   2.826  0.3992  1.3419 -1.8019
  824SOL    HW2 2472   0.178   1.988   2.713  2.0178  1.6287  2.2073
  825SOL     OW 2473   1.273   1.070   0.219  0.2538  0.1081  0.4092
  825SOL    HW1 2474   1.277   1.141   0.294  3.9322  0.8572 -1.0401
  825SOL    HW2 2475   1.189   1.099   0.164  0.4203 -1.1820  0.9852
  826SOL     OW 2476   1.948   0.646   1.568 -0.1581 -0.1732  0.9703
  826SOL    HW1 2477   1.999   0.568   1.613  0.4109  0.9561 -1.1964
  826SOL    HW2 2478   1.867   0.614   1.512  0.0417  3.0977  1.6972
  827SOL     OW 2479   0.730   1.439   0.303  0.2261 -0.5014 -0.4881
  827SOL    HW1 2480   0.771   1.353   0.265 -0.1111 -1.1896  1.3990
  827SOL    HW2 2481   0.710   1.425   0.404  0.2882  0.4650  1.6317
  828SOL     OW 2482   2.518   0.078   1.579 -0.4520  0.3615  0.0299
  828SOL    HW1 2483   2.463   0.168   1.597  1.2552  0.2533 -1.4595
  828SOL    HW2 2484   2.509  -0.002   1.650  0.0742 -0.9393 -0.1045
  829SOL     OW 2485   2.818   2.497   2.971  0.2272  0.3573 -0.1555
  829SOL    HW1 2486   2.757   2.413   2.962 -0.9483  2.6216 -1.2134
  829SOL    HW2 2487   2.800   2.561   3.050  1.2721 -2.7880 -1.3288
  830SOL     OW 2488   2.788   0.943   3.016  0.7285 -0.2497  0.1227
  830SOL    HW1 2489   2.854   1.021   3.032  0.0218 -0.4370 -1.5687
  830SOL    HW2 2490   2.806   0.867   3.081  0.8952  2.9061 -0.9881
  831SOL     OW 2491   0.009   0.635   0.354  0.6501  0.3795  0.3512
  831SOL    HW1 2492  -0.013   0.595   0.441 -0.7431  2.2666 -0.0562
  831SOL    HW2 2493   0.058   0.569   0.292 -2.8888  0.9722 -0.7709
  832SOL     OW 2494   1.854   0.718   0.029  0.1150  0.2715 -0.8368
  832SOL    HW1 2495   1.768   0.755  -0.013  0.5631 -1.8853  0.1315
  832SOL    HW2 2496   1.846   0.617   0.035  4.4724  0.2434 -1.2375
  833SOL     OW 2497   2.396   2.127   0.521  0.1658 -0.1278  0.3398
  833SOL    HW1 2498   2.299   2.107   0.545  3.0164  0.9259 -0.1306
  833SOL    HW2 2499   2.461   2.045   0.532 -1.1190  1.2946  2.5317
  834SOL     OW 2500   0.151   0.210   0.584  0.2361 -0.1977  0.1655
  834SOL    HW1 2501   0.208   0.128   0.614  1.6570 -0.6536 -1.6275
  834SOL    HW2 2502   0.163   0.223   0.474  0.5475 -2.5760 -1.2549
  835SOL     OW 2503   2.344   1.529   1.134  0.6359 -0.2866  0.2228
  835SOL    HW1 2504   2.439   1.545   1.171 -0.5521 -2.7344  2.2925
  835SOL    HW2 2505   2.341   1.536   1.026 -1.9549 -0.8811 -0.9785
  836SOL     OW 2506   1.569   0.806   2.584  0.3031  0.2499 -0.0495
  836SOL    HW1 2507   1.481   0.827   2.528 -1.3718  0.2015  0.3144
  836SOL    HW2 2508   1.653   0.814   2.523 -1.1862  0.4177 -1.5539
  837SOL     OW 2509   1.733   0.123   0.534  0.1471  0.4335  0.1455
  837SOL    HW1 2510   1.710   0.192   0.612  1.7007  1.0765  2.9948
  837SOL    HW2 2511   1.690   0.146   0.443 -0.5647 -0.2159  0.4546
  838SOL     OW 2512   1.212   1.577   2.722 -0.1300 -0.2706  0.4138
  838SOL    HW1 2513   1.268   1.521   2.789 -1.0857 -0.1646  0.0373
  838SOL    HW2 2514   1.129   1.535   2.678  0.9124  0.5650 -2.0481
  839SOL     OW 2515   1.591   0.299   0.984 -0.1109  0.1822 -0.2656
  839SOL    HW1 2516   1.631   0.387   1.025  1.7036  2.1127 -3.0196
  839SOL    HW2 2517   1.611   0.207   1.033 -2.0212  0.2855  2.9841
  840SOL     OW 2518   2.537   2.934   1.733 -0.5440 -0.1750 -0.3543
  840SOL    HW1 2519   2.473   2.871   1.685 -1.1381 -2.4842 -0.2030
  840SOL    HW2 2520   2.609   2.876   1.785 -0.3220 -1.0962  2.4524
  841SOL     OW 2521   1.602   0.827   3.053  0.0710 -0.7846  0.1886
  841SOL    HW1 2522   1.526   0.823   3.121  2.0800  1.0792  0.1939
  841SOL    HW2 2523   1.579   0.907   2.981 -1.7429  2.9642  0.0212
  842SOL     OW 2524   0.817   1.469   0.898  0.1013 -0.1853 -0.1288
  842SOL    HW1 2525   0.773   1.545   0.948 -0.5448 -2.8153  2.4225
  842SOL    HW2 2526   0.748   1.408   0.851 -1.7515  0.5739 -1.1403
  843SOL     OW 2527   0.104   0.021   1.383 -0.4093  0.0391  0.0746
  843SOL    HW1 2528   0.159   0.090   1.446  1.8048 -0.2299  0.9075
  843SOL    HW2 2529   0.080  -0.074   1.423  1.5225  0.6185  0.0865
  844SOL     OW 2530   0.803   2.493   0.272  0.2572  0.4504  0.1032
  844SOL    HW1 2531   0.729   2.464   0.340  1.8100  0.1808  0.4698
  844SOL    HW2 2532   0.774   2.554   0.190  0.2797 -0.9917 -1.5498
  845SOL     OW 2533   1.670   2.882   1.263 -0.3197  0.0567  0.7520
  845SOL    HW1 2534   1.737   2.806   1.260  1.8129  1.2817  0.0619
  845SOL    HW2 2535   1.678   2.938   1.351 -1.5743 -1.1265  0.1539
  846SOL     OW 2536   1.579   2.957   0.702  0.5068 -0.1435  0.3333
  846SOL    HW1 2537   1.535   2.927   0.613 -1.6389 -2.6369  0.3837
  846SOL    HW2 2538   1.680   2.940   0.706  0.8588 -0.4694  1.0963
  847SOL     OW 2539   2.094   1.667   0.417 -0.5652  0.1784 -0.2793
  847SOL    HW1 2540   2.059   1.572   0.437 -0.0214 -3.9599 -2.2027
  847SOL    HW2 2541   2.013   1.729   0.396  3.4367 -2.0103 -2.7368
  848SOL     OW 2542   2.448   0.860   2.610  0.0026 -0.0262  0.0505
  848SOL    HW1 2543   2.413   0.949   2.651 -1.2204 -0.7828  2.1920
  848SOL    HW2 2544   2.375   0.788   2.608  2.2652 -1.9246  1.6013
  849SOL     OW 2545   2.575   0.851   2.363 -0.1262  0.1080 -0.2104
  849SOL    HW1 2546   2.657   0.791   2.382 -0.3047  0.3780  0.8912
  849SOL    HW2 2547   2.524   0.889   2.453 -0.9757  0.1384  2.4250
  850SOL     OW 2548   1.569   0.100   1.351 -0.4181  0.2943  0.5775
  850SOL    HW1 2549   1.560   0.079   1.250  2.7924  1.0125 -1.1280
  850SOL    HW2 2550   1.520   0.032   1.417 -1.5650 -1.6834  1.5412
  851SOL     OW 2551   0.447   1.826   0.571 -0.2648 -0.0091 -0.1748
  851SOL    HW1 2552   0.467   1.927   0.590  0.2614 -2.0279  2.8401
  851SOL    HW2 2553   0.465   1.809   0.468  1.9534  1.9096 -0.4175
  852SOL     OW 2554   0.831   2.046   1.802 -0.4246  0.0195  0.0494
  852SOL    HW1 2555   0.845   2.120   1.733 -2.1040 -0.8225 -0.3784
  852SOL    HW2 2556   0.756   2.078   1.867  1.2732  0.8657  0.3632
  853SOL     OW 2557   2.518   1.539   2.601 -0.2636  0.1298 -0.1482
  853SOL    HW1 2558   2.485   1.444   2.576  0.7583 -0.0362 -1.5088
  853SOL    HW2 2559   2.502   1.606   2.530  0.3950 -1.4116 -1.5834
  854SOL     OW 2560   2.433   1.380   1.758 -0.2823 -0.1815 -0.3643
  854SOL    HW1 2561   2.469   1.356   1.662 -1.5336 -1.3988 -0.6721
  854SOL    HW2 2562   2.412   1.298   1.815  1.4986  0.0850  0.9919
  855SOL     OW 2563   2.078   2.444   1.062  0.2571  0.7710 -0.5838
  855SOL    HW1 2564   2.074   2.538   1.016  0.8642  1.0012 -1.4904
  855SOL    HW2 2565   2.156   2.436   1.131  1.3613  1.8078 -2.3739
  856SOL     OW 2566   1.305   1.416   0.943  0.5108 -0.0248 -0.3885
  856SOL    HW1 2567   1.382   1.483   0.947 -2.2377 -1.4497  2.7326
  856SOL    HW2 2568   1.215   1.461   0.968  1.7459 -3.1679 -0.1957
  857SOL     OW 2569   3.069   2.762   1.004 -0.0630 -0.1086 -0.2525
  857SOL    HW1 2570   3.010   2.686   0.967 -1.6906 -1.2286 -3.9801
  857SOL    HW2 2571   3.151   2.781   0.943 -1.4925 -0.1093 -0.0120
  858SOL     OW 2572   2.375   2.090   1.720 -0.2989  0.6556 -0.0482
  858SOL    HW1 2573   2.302   2.051   1.650 -0.0748 -2.0620 -0.7346
  858SOL    HW2 2574   2.466   2.039   1.718 -2.1476 -2.1064  0.1456
  859SOL     OW 2575   2.379   0.565   1.067 -0.0878  0.4339  0.6539
  859SOL    HW1 2576   2.442   0.595   0.985  0.0749  0.1594  1.0214
  859SOL    HW2 2577   2.406   0.472   1.105  2.4857  2.6304  1.5931
  860SOL     OW 2578   1.810   2.821   0.507  0.2538 -0.3079 -0.1137
  860SOL    HW1 2579   1.822   2.781   0.417 -2.3120 -1.0473  1.9244
  860SOL    HW2 2580   1.864   2.909   0.526  0.4309 -1.2073 -1.7883
  861SOL     OW 2581   0.979   2.466   2.866 -0.0698 -0.8625 -0.0111
  861SOL    HW1 2582   1.032   2.542   2.814  1.2423 -1.0781 -0.5265
  861SOL    HW2 2583   0.970   2.500   2.965  1.8579 -0.7619  1.7258
  862SOL     OW 2584   2.924   2.551   1.622  0.4987  0.0668 -0.6991
  862SOL    HW1 2585   3.011   2.565   1.681 -2.5882 -1.1413  3.9095
  862SOL    HW2 2586   2.865   2.635   1.616  1.4160  1.3853  2.0217
  863SOL     OW 2587   1.811   2.737   0.253 -0.0811  0.7112 -0.3087
  863SOL    HW1 2588   1.866   2.649   0.251  0.3134 -1.7084  0.5677
  863SOL    HW2 2589   1.709   2.719   0.225 -1.0487 -0.5795 -3.4601
  864SOL     OW 2590   2.029   1.256   2.848  0.2424 -0.5466  0.1665
  864SOL    HW1 2591   1.995   1.173   2.799  0.4709  3.0252  3.0311
  864SOL    HW2 2592   2.105   1.306   2.802 -1.8795 -0.4899 -0.1661
  865SOL     OW 2593   2.181   1.936   0.724 -0.3516 -0.0301 -0.0304
  865SOL    HW1 2594   2.237   1.863   0.773 -0.5258  0.7979 -0.3027
  865SOL    HW2 2595   2.106   1.971   0.788  0.5161  1.5909 -0.8007
  866SOL     OW 2596   2.884   2.965   1.007 -0.5585 -0.1012 -0.1528
  866SOL    HW1 2597   2.894   3.044   0.939  1.5469 -2.2819  2.2507
  866SOL    HW2 2598   2.965   2.906   1.003 -0.6048  1.2678 -0.3274
  867SOL     OW 2599   0.356   1.449   0.928  0.0849  0.3747  0.2295
  867SOL    HW1 2600   0.308   1.375   0.881 -1.6043  1.3905  0.2226
  867SOL    HW2 2601   0.345   1.534   0.876  2.0724 -3.6185  1.2425
  868SOL     OW 2602   0.758   1.830   2.069  0.2152 -0.1508  0.8694
  868SOL    HW1 2603   0.716   1.802   2.157  0.2387  3.3816 -1.0272
  868SOL    HW2 2604   0.726   1.923   2.041  2.8234  0.7737 -1.4677
  869SOL     OW 2605   2.577   1.931   1.650  0.3507  0.2149 -0.6843
  869SOL    HW1 2606   2.647   1.992   1.602 -5.0141  0.5862 -0.0068
  869SOL    HW2 2607   2.556   1.840   1.608  0.7735 -0.9952 -1.0197
  870SOL     OW 2608   2.324   2.728   1.246  0.0428 -0.6724 -0.0923
  870SOL    HW1 2609   2.319   2.630   1.270 -0.5625  4.5884 -0.1770
  870SOL    HW2 2610   2.421   2.768   1.237 -0.8385 -1.1310 -0.7667
  871SOL     OW 2611   3.075   2.267   0.564  0.5443  0.0736 -0.1100
  871SOL    HW1 2612   3.056   2.321   0.655  4.4161  1.6533 -0.1737
  871SOL    HW2 2613   2.999   2.266   0.495  3.0036  2.2187  0.5492
  872SOL     OW 2614   2.090   0.436   1.705 -0.1707 -0.3768 -0.0934
  872SOL    HW1 2615   2.054   0.427   1.803  0.4982  1.1147  1.7685
  872SOL    HW2 2616   2.185   0.406   1.687 -1.6441 -1.2591  0.5351
  873SOL     OW 2617   1.696   2.099   0.006  0.2285 -0.1166 -0.2529
  873SOL    HW1 2618   1.614   2.098   0.064  0.2614  3.9052  0.5179
  873SOL    HW2 2619   1.666   2.092  -0.092 -0.8936 -0.1115  0.8061
  874SOL     OW 2620   0.667   2.455   0.754  0.5430  0.4714 -0.2281
  874SOL    HW1 2621   0.661   2.561   0.761  0.2246  1.2480  0.7470
  874SOL    HW2 2622   0.756   2.412   0.771 -1.8935 -1.3359  0.1531
  875SOL     OW 2623   2.254   1.501   1.433  0.3404  0.2395 -0.0275
  875SOL    HW1 2624   2.332   1.557   1.481 -0.9589  0.0623  0.9871
  875SOL    HW2 2625   2.266   1.487   1.332  0.6191  0.8319  1.6398
  876SOL     OW 2626   0.064   2.272   2.653  0.3020  0.5649  0.1605
  876SOL    HW1 2627   0.071   2.180   2.695  3.2674 -0.9925  2.1448
  876SOL    HW2 2628   0.093   2.346   2.724 -3.5295 -0.5122  0.5785
  877SOL     OW 2629   2.923   2.659   0.626 -0.1510 -0.9506 -0.0650
  877SOL    HW1 2630   2.957   2.760   0.620 -0.2879  0.6078  0.2324
  877SOL    HW2 2631   2.976   2.599   0.691  1.4177  2.0841 -0.9103
  878SOL     OW 2632   2.822   1.508   2.235 -0.1539 -0.2310  0.4388
  878SOL    HW1 2633   2.810   1.598   2.190 -0.7361 -1.8100  1.3905
  878SOL    HW2 2634   2.818   1.514   2.340  0.1531  1.0931  0.0711
  879SOL     OW 2635   2.402   0.062   1.224 -0.1797  0.6401  0.3517
  879SOL    HW1 2636   2.452  -0.017   1.269 -1.5633 -1.9749  0.0773
  879SOL    HW2 2637   2.333   0.036   1.153  0.0793  0.3597 -1.2682
  880SOL     OW 2638   0.732   0.533   2.264  0.1614 -0.4562 -0.5965
  880SOL    HW1 2639   0.696   0.473   2.343 -0.0575 -0.8354 -0.8303
  880SOL    HW2 2640   0.792   0.477   2.201  0.8632  1.0995 -1.5372
  881SOL     OW 2641   0.818   0.089   0.417  0.0487 -0.0893 -0.0731
  881SOL    HW1 2642   0.865   0.002   0.405 -2.3767  0.4111  0.6451
  881SOL    HW2 2643   0.718   0.082   0.394  0.2493 -2.0262  0.0988
  882SOL     OW 2644   2.732   1.663   1.699 -0.2451 -0.0420  0.0085
  882SOL    HW1 2645   2.826   1.628   1.681 -0.8013  0.2013 -0.0146
  882SOL    HW2 2646   2.708   1.674   1.803  1.1797  1.4196  0.6026
  883SOL     OW 2647   0.813   0.503   0.922 -0.3524  0.1662  0.1005
  883SOL    HW1 2648   0.873   0.574   0.973  1.9160  0.5741 -1.6747
  883SOL    HW2 2649   0.749   0.458   0.988  2.2892 -0.9114  1.3749
  884SOL     OW 2650   1.105   1.763   1.133 -0.0203 -0.6223  0.7006
  884SOL    HW1 2651   1.103   1.661   1.108 -0.3163  1.0998  2.7981
  884SOL    HW2 2652   1.049   1.819   1.066 -0.9485  3.4535 -1.2636
  885SOL     OW 2653   2.333   1.853   2.220 -0.2062  0.1402  0.0339
  885SOL    HW1 2654   2.252   1.806   2.262  0.5396 -2.2156  0.3839
  885SOL    HW2 2655   2.342   1.949   2.250  2.0560 -0.2797 -1.6853
  886SOL     OW 2656   2.610   0.355   1.811 -0.2585 -0.4531  0.0621
  886SOL    HW1 2657   2.583   0.342   1.910 -2.0748  1.2940  0.6222
  886SOL    HW2 2658   2.706   0.391   1.792 -1.5238  0.3889 -0.5756
  887SOL     OW 2659   0.151   2.050   1.250 -0.0013  0.3044  0.2675
  887SOL    HW1 2660   0.050   2.059   1.275  0.7657 -0.7468  0.8582
  887SOL    HW2 2661   0.195   2.143   1.226 -0.3089 -0.5562 -0.9421
  888SOL     OW 2662   0.656   1.213   1.497  0.1674 -0.0406 -0.0753
  888SOL    HW1 2663   0.702   1.250   1.409 -0.9082  0.2776  0.8271
  888SOL    HW2 2664   0.622   1.118   1.493 -2.2393  1.2218  0.8442
  889SOL     OW 2665   0.860   2.453   2.247 -0.0873  0.4607  0.4229
  889SOL    HW1 2666   0.766   2.407   2.236  1.8241 -0.8108  3.6051
  889SOL    HW2 2667   0.927   2.430   2.173 -0.6320  1.2904  0.6558
  890SOL     OW 2668   2.346   2.462   0.226  0.4880  0.6043  0.3922
  890SOL    HW1 2669   2.338   2.543   0.158 -1.7331  3.1138 -1.2232
  890SOL    HW2 2670   2.305   2.476   0.325 -3.8238 -1.0394  0.9404
  891SOL     OW 2671   2.534   1.713   0.711 -0.0474  0.5381 -0.1366
  891SOL    HW1 2672   2.511   1.656   0.794 -2.7535  0.3552 -1.9189
  891SOL    HW2 2673   2.482   1.688   0.626  0.0398  1.2236 -1.1167
  892SOL     OW 2674   0.388   0.378   2.219  0.4035 -0.4169  0.0052
  892SOL    HW1 2675   0.383   0.449   2.146  0.2125  1.7976  3.1558
  892SOL    HW2 2676   0.463   0.398   2.291  0.1202 -1.2021  2.5496
  893SOL     OW 2677   1.708   0.227   2.711  0.3029 -0.6998 -0.0714
  893SOL    HW1 2678   1.774   0.306   2.731  0.2207  1.0988  1.4244
  893SOL    HW2 2679   1.618   0.266   2.679 -0.8345  1.6015 -2.4410
  894SOL     OW 2680   2.174   2.088   0.074 -0.1435 -0.1468 -0.2560
  894SOL    HW1 2681   2.130   2.033  -0.004  0.0796 -0.0808 -1.4392
  894SOL    HW2 2682   2.180   2.038   0.166  0.0304  1.8894  0.4656
  895SOL     OW 2683   2.731   1.436   0.937  0.4865  0.2699 -0.2493
  895SOL    HW1 2684   2.810   1.371   0.928 -2.2144  0.8983 -0.4494
  895SOL    HW2 2685   2.759   1.541   0.934  0.6584  2.5160  1.2127
  896SOL     OW 2686   1.838   1.868   1.220  0.5035 -0.0913  0.0821
  896SOL    HW1 2687   1.890   1.795   1.270  0.3635  3.1545 -1.3130
  896SOL    HW2 2688   1.751   1.840   1.173  0.7027 -0.7167 -0.6334
  897SOL     OW 2689   0.257   0.507   3.023  0.6277 -0.1729  0.2110
  897SOL    HW1 2690   0.205   0.588   2.976 -1.3749  0.6055 -1.9755
  897SOL    HW2 2691   0.354   0.526   3.052 -0.6170 -1.0471  2.6179
  898SOL     OW 2692   0.685   2.799   1.031  0.0449  0.1510 -1.0435
  898SOL    HW1 2693   0.724   2.890   1.002 -0.7426  0.0604 -0.8842
  898SOL    HW2 2694   0.723   2.760   1.121 -2.6057 -1.3551 -0.5134
  899SOL     OW 2695   2.851   0.888   1.428  0.1295 -0.2224  0.1140
  899SOL    HW1 2696   2.820   0.953   1.353 -0.8276 -1.5559 -0.7531
  899SOL    HW2 2697   2.947   0.912   1.467 -1.4674  0.2714 -1.4916
  900SOL     OW 2698   0.993   2.420   2.465 -0.6704  0.3973 -0.2805
  900SOL    HW1 2699   0.940   2.432   2.378  0.1942  3.0656  1.6405
  900SOL    HW2 2700   0.959   2.353   2.532 -1.2627  1.2746  3.2542
  901SOL     OW 2701   1.919   2.456   1.409  0.0396 -0.2431 -0.1981
  901SOL    HW1 2702   1.904   2.390   1.329 -2.1835 -2.1741 -1.5778
  901SOL    HW2 2703   2.000   2.419   1.461  0.3138  0.2157  1.0135
  902SOL     OW 2704   2.522   1.661   1.470 -0.6982  0.5600  0.6203
  902SOL    HW1 2705   2.568   1.653   1.560 -0.9085  2.4155  0.4973
  902SOL    HW2 2706   2.576   1.618   1.390 -0.4311  0.2718  0.0859
  903SOL     OW 2707   0.341   2.488   1.998  0.1977  0.5159 -0.5159
  903SOL    HW1 2708   0.267   2.415   2.021 -1.0917  2.0771  2.1583
  903SOL    HW2 2709   0.309   2.554   1.928 -2.5596  2.2696  1.6715
  904SOL     OW 2710   1.994   0.785   2.478 -0.0868  0.5288  0.9180
  904SOL    HW1 2711   1.947   0.703   2.520 -1.4118 -2.6040 -1.2044
  904SOL    HW2 2712   1.994   0.775   2.375  1.4549  1.1877  1.0445
  905SOL     OW 2713   2.840   0.086   2.387  0.3874  0.1393 -0.4187
  905SOL    HW1 2714   2.908   0.008   2.380 -0.1007 -2.1854 -0.6466
  905SOL    HW2 2715   2.883   0.169   2.430  3.2080 -0.4172  1.3165
  906SOL     OW 2716   0.166   1.692   1.883 -0.4134  0.0139 -0.1668
  906SOL    HW1 2717   0.129   1.737   1.795 -2.1378  3.5474 -2.0469
  906SOL    HW2 2718   0.264   1.719   1.893  1.7880 -1.6589  0.7154
  907SOL     OW 2719   0.233   2.486   0.953 -0.5351 -0.6979  0.0789
  907SOL    HW1 2720   0.334   2.464   0.945 -1.7974 -1.1564  1.3549
  907SOL    HW2 2721   0.208   2.581   0.914 -0.3070  0.5163 -1.2933
  908SOL     OW 2722   2.831   3.044   0.272  0.0504  0.3146 -0.1961
  908SOL    HW1 2723   2.732   3.028   0.246 -2.0924 -1.3637 -0.2397
  908SOL    HW2 2724   2.880   2.955   0.275 -1.0813 -0.6958  0.3270
  909SOL     OW 2725   0.836   1.038   2.690  0.5474  0.4786 -0.0335
  909SOL    HW1 2726   0.782   0.961   2.637  0.2719 -0.5257 -1.4252
  909SOL    HW2 2727   0.925   1.065   2.643 -0.1170 -2.0350  2.0331
  910SOL     OW 2728   1.786   1.874   2.156  0.1520  0.0253 -0.3106
  910SOL    HW1 2729   1.832   1.928   2.079  2.2889 -2.1713  1.4091
  910SOL    HW2 2730   1.701   1.930   2.184  1.6261 -0.1803 -0.9806
  911SOL     OW 2731   1.777   2.971   1.527  0.2070 -0.4092  0.8302
  911SOL    HW1 2732   1.853   2.957   1.456  1.5717 -1.4569 -1.0460
  911SOL    HW2 2733   1.796   2.907   1.608  1.3029 -1.2651 -0.2101
  912SOL     OW 2734   2.843   1.015   0.716  0.2632  0.3423  0.0566
  912SOL    HW1 2735   2.915   1.011   0.790  0.3040 -0.1692  1.4911
  912SOL    HW2 2736   2.768   1.082   0.735 -0.0633 -2.6346  0.2363
  913SOL     OW 2737   2.560   1.287   1.532 -0.4303 -0.3422 -0.5385
  913SOL    HW1 2738   2.546   1.186   1.545 -1.4959 -0.2291  1.5286
  913SOL    HW2 2739   2.629   1.311   1.454  0.5131  2.8073  0.7115
  914SOL     OW 2740   2.775   0.590   1.151 -0.0849  0.2379 -0.4017
  914SOL    HW1 2741   2.789   0.504   1.208 -2.2176  3.1925 -2.3849
  914SOL    HW2 2742   2.683   0.632   1.163  2.0014 -0.3572  1.8301
  915SOL     OW 2743   1.186   0.789   0.974  0.0479 -0.3725  0.5223
  915SOL    HW1 2744   1.227   0.842   1.053  1.0809  1.9362  2.4047
  915SOL    HW2 2745   1.082   0.777   0.985  0.6667 -1.6540  1.1480
  916SOL     OW 2746   0.580   0.136   0.678 -0.6019 -0.5509  0.0014
  916SOL    HW1 2747   0.634   0.203   0.735  3.2164  0.2288 -0.0359
  916SOL    HW2 2748   0.545   0.169   0.582  1.2678  0.7531 -1.7044
  917SOL     OW 2749   2.857   2.572   2.003 -0.0011 -0.3765 -0.1582
  917SOL    HW1 2750   2.773   2.638   1.979  0.1819  0.3165 -1.1514
  917SOL    HW2 2751   2.940   2.606   1.956 -1.5846  1.6576  1.4682
  918SOL     OW 2752   1.007   2.083   3.007  0.0209 -0.4572 -0.0376
  918SOL    HW1 2753   1.006   2.158   3.077  2.0749 -2.2219  1.7881
  918SOL    HW2 2754   1.082   2.094   2.939 -0.9823 -1.4516  2.7564
  919SOL     OW 2755   0.872   1.711   2.753 -0.1727  0.1945 -0.0498
  919SOL    HW1 2756   0.912   1.802   2.725 -0.6008 -1.3481  0.2688
  919SOL    HW2 2757   0.837   1.647   2.679 -0.4273 -0.1656  1.8972
  920SOL     OW 2758   1.302   1.755   2.515 -0.2322 -0.3076  0.6646
  920SOL    HW1 2759   1.395   1.740   2.471 -0.1375  1.6043 -1.8232
  920SOL    HW2 2760   1.273   1.684   2.587 -3.4809 -1.5077 -2.1017
  921SOL     OW 2761   1.138   0.019   2.653  0.2838 -0.5528 -0.1850
  921SOL    HW1 2762   1.113   0.034   2.550 -0.1482 -1.4437  0.5149
  921SOL    HW2 2763   1.052   0.009   2.707 -1.4365  0.2397  1.5225
  922SOL     OW 2764   2.184   2.373   2.745  0.1921 -0.0808 -0.3323
  922SOL    HW1 2765   2.193   2.272   2.751 -0.7136 -1.9420  0.9916
  922SOL    HW2 2766   2.120   2.412   2.666 -4.1954  0.3592 -0.5293
  923SOL     OW 2767   1.273   2.745   0.268 -0.1815 -0.4810  0.1110
  923SOL    HW1 2768   1.340   2.802   0.321  0.7871 -2.0567 -0.1922
  923SOL    HW2 2769   1.311   2.652   0.253 -2.0458 -0.3981 -0.8523
  924SOL     OW 2770   2.890   1.712   0.144 -0.5366  0.1364  0.4782
  924SOL    HW1 2771   2.813   1.661   0.099 -0.0808  0.5435 -1.1886
  924SOL    HW2 2772   2.979   1.656   0.152  2.9847 -1.2769 -3.1405
  925SOL     OW 2773   0.043   2.865   1.515  0.3427  0.1893  0.3284
  925SOL    HW1 2774   0.034   2.793   1.588 -1.0217  0.0571 -1.7692
  925SOL    HW2 2775  -0.016   2.842   1.435 -2.0105 -0.0138 -0.0147
  926SOL     OW 2776   1.314   2.823   1.310 -0.2727  0.1798  0.1352
  926SOL    HW1 2777   1.358   2.844   1.219  0.9165  2.0799  0.4791
  926SOL    HW2 2778   1.347   2.895   1.383  2.2020  1.9570 -0.9885
  927SOL     OW 2779   0.365   2.657   1.745 -0.1639  0.5307  0.2335
  927SOL    HW1 2780   0.336   2.587   1.676  0.4670 -2.3718  2.0487
  927SOL    HW2 2781   0.333   2.753   1.725 -1.3171 -0.2874 -1.2304
  928SOL     OW 2782   1.593   2.071   2.218 -0.0018  0.1064  0.3000
  928SOL    HW1 2783   1.617   2.146   2.148 -2.7486  1.0506 -0.0124
  928SOL    HW2 2784   1.493   2.077   2.243  2.5740  2.1237  1.6591
  929SOL     OW 2785   2.405   2.504   2.859 -0.2589 -0.1236  0.2073
  929SOL    HW1 2786   2.324   2.452   2.830  0.7804 -1.3612  1.6094
  929SOL    HW2 2787   2.455   2.533   2.769 -0.9612 -1.0850 -0.7953
  930SOL     OW 2788   2.173   2.008   1.134 -0.5573 -0.4913 -0.1710
  930SOL    HW1 2789   2.167   1.957   1.229 -1.1443 -4.2502  0.2521
  930SOL    HW2 2790   2.244   2.082   1.140  1.0380 -2.2695  0.2244
  931SOL     OW 2791   0.509   1.729   2.640  0.1645 -0.0315  0.1963
  931SOL    HW1 2792   0.499   1.742   2.746  0.4741 -0.5811 -0.6846
  931SOL    HW2 2793   0.601   1.683   2.613  1.3882 -0.1117  1.7217
  932SOL     OW 2794   0.348   0.080   3.070  0.9167  0.6004  0.1605
  932SOL    HW1 2795   0.432   0.129   3.105 -1.2509  0.1059  2.6485
  932SOL    HW2 2796   0.369  -0.012   3.038 -0.1639  2.5158 -0.4641
  933SOL     OW 2797   0.968   0.847   3.035 -0.1270  0.1832  0.0588
  933SOL    HW1 2798   0.872   0.820   3.070 -2.9741 -1.0684 -2.8472
  933SOL    HW2 2799   0.975   0.947   3.010 -1.3487 -1.3571  0.3822
  934SOL     OW 2800   0.730   2.930   2.674 -0.3887 -0.3168 -0.3820
  934SOL    HW1 2801   0.748   2.876   2.591  1.6088  1.5862  0.1694
  934SOL    HW2 2802   0.779   2.887   2.754  1.6434  0.8938  3.0907
  935SOL     OW 2803   0.008   0.537   0.832 -0.5607  0.3216 -0.3700
  935SOL    HW1 2804  -0.000   0.506   0.737 -0.5572 -0.0662  0.4945
  935SOL    HW2 2805  -0.065   0.609   0.857  2.6055  0.5626  0.1610
  936SOL     OW 2806   1.097   2.835   0.077  0.0710  0.4742  0.1007
  936SOL    HW1 2807   1.140   2.893  -0.003 -2.6464  1.0043 -0.5411
  936SOL    HW2 2808   1.174   2.800   0.140  2.6739  1.1285  1.0647
  937SOL     OW 2809   1.926   2.642   2.057 -1.0217  0.1712  0.2622
  937SOL    HW1 2810   1.842   2.662   2.113 -0.7033  1.4615  2.0117
  937SOL    HW2 2811   1.980   2.728   2.031 -1.0128 -0.8713  0.0968
  938SOL     OW 2812   2.785   2.091   1.560  0.1992 -0.0268 -0.0443
  938SOL    HW1 2813   2.787   2.193   1.576  1.3213 -0.6572 -2.7034
  938SOL    HW2 2814   2.865   2.048   1.611 -0.3934  1.3813  0.2338
  939SOL     OW 2815   2.788   1.224   2.486 -0.0283  0.3289 -0.3860
  939SOL    HW1 2816   2.867   1.195   2.425  1.3057 -0.4304 -0.5214
  939SOL    HW2 2817   2.778   1.162   2.570 -0.9220  0.8400 -0.4288
  940SOL     OW 2818   1.038   0.434   2.763 -0.2123 -0.6595  0.6407
  940SOL    HW1 2819   1.117   0.363   2.774  0.5512 -1.4495 -0.2375
  940SOL    HW2 2820   0.990   0.422   2.675 -1.4121  5.3314  1.7530
  941SOL     OW 2821  -0.002   2.788   2.256 -0.5227 -0.1081 -0.4275
  941SOL    HW1 2822   0.046   2.696   2.238  0.0743  1.3938 -0.6625
  941SOL    HW2 2823   0.066   2.846   2.317  2.4986 -1.8467  0.7553
  942SOL     OW 2824   0.052   0.082   2.546  0.2087 -0.1484  0.2659
  942SOL    HW1 2825   0.107   0.090   2.634  0.9666 -1.4163 -0.2142
  942SOL    HW2 2826   0.078   0.156   2.478 -0.9865 -2.2683 -1.2843
  943SOL     OW 2827   2.116   1.709   2.345 -0.7901 -0.0372 -0.6807
  943SOL    HW1 2828   2.096   1.661   2.251  1.3365  3.0924 -1.3532
  943SOL    HW2 2829   2.134   1.648   2.426  0.8571  2.4187 -0.8986
  944SOL     OW 2830   2.192   2.358   1.499  0.4984  0.3392 -0.0965
  944SOL    HW1 2831   2.261   2.403   1.560  1.6342  2.7209 -1.6126
  944SOL    HW2 2832   2.143   2.279   1.551 -1.3848 -1.9961  1.6492
  945SOL     OW 2833   0.711   1.589   0.070 -0.0556 -0.1975  0.0851
  945SOL    HW1 2834   0.642   1.545   0.003 -3.9141 -0.0142  0.3848
  945SOL    HW2 2835   0.716   1.537   0.160 -1.0009  0.1087 -0.8233
  946SOL     OW 2836   0.361   0.987   2.555  0.9927 -0.1027 -0.5956
  946SOL    HW1 2837   0.304   0.929   2.494  1.1804 -0.3458  0.6269
  946SOL    HW2 2838   0.377   1.080   2.510 -1.6691 -1.5274  0.0867
  947SOL     OW 2839   1.479   0.554   3.080  0.6072 -0.4665 -0.0583
  947SOL    HW1 2840   1.457   0.616   2.998  0.3973 -1.9023  1.2604
  947SOL    HW2 2841   1.392   0.502   3.113 -0.9907  0.9611 -1.7917
  948SOL     OW 2842   1.896   2.993   2.154  0.2425  0.1501  0.0679
  948SOL    HW1 2843   1.902   2.953   2.062 -2.2787  0.3562  2.2938
  948SOL    HW2 2844   1.897   2.922   2.230 -2.7603 -1.6703  1.3652
  949SOL     OW 2845   0.608   2.438   0.482 -0.0886  0.0604 -0.1735
  949SOL    HW1 2846   0.609   2.539   0.486  0.5314 -1.8970  2.1323
  949SOL    HW2 2847   0.608   2.397   0.579 -3.2300  2.8543 -1.6262
  950SOL     OW 2848   0.208   2.228   2.965 -0.5254  0.3723  0.8307
  950SOL    HW1 2849   0.175   2.309   2.903  1.2192  2.6387 -2.4301
  950SOL    HW2 2850   0.185   2.136   2.921  1.3060 -2.7049 -2.5227
  951SOL     OW 2851   1.167   2.653   2.769  0.2331  0.2291 -0.3690
  951SOL    HW1 2852   1.220   2.609   2.846 -0.8421  0.1859  1.6276
  951SOL    HW2 2853   1.227   2.677   2.687 -1.4553 -2.3151 -0.4718
  952SOL     OW 2854   0.126   1.634   0.411 -0.7843  0.3823 -0.4236
  952SOL    HW1 2855   0.168   1.726   0.418  0.3521  1.4576  1.3664
  952SOL    HW2 2856   0.138   1.579   0.502 -1.7980  2.3986  0.0762
  953SOL     OW 2857   2.528   1.763   0.264  0.2008  0.7109 -0.7277
  953SOL    HW1 2858   2.532   1.661   0.243  1.4278 -2.2013  2.4622
  953SOL    HW2 2859   2.484   1.821   0.187  0.1504 -0.4272 -0.6429
  954SOL     OW 2860   2.156   0.580   0.936  0.2052  0.2497  0.4981
  954SOL    HW1 2861   2.175   0.562   0.834  4.7594 -2.8001 -2.2431
  954SOL    HW2 2862   2.243   0.577   0.991  1.1317 -2.4716  1.4743
  955SOL     OW 2863   0.126   2.558   1.369 -0.5628 -0.4578  0.1721
  955SOL    HW1 2864   0.035   2.609   1.368 -2.6920 -0.1363 -2.7291
  955SOL    HW2 2865   0.206   2.612   1.336 -4.3419  1.3117  0.6082
  956SOL     OW 2866   2.819   2.480   2.526 -0.1669 -0.2681 -0.7559
  956SOL    HW1 2867   2.785   2.382   2.524 -0.2091 -1.3242 -0.0818
  956SOL    HW2 2868   2.825   2.515   2.429 -1.3791  0.4079 -1.1789
  957SOL     OW 2869   1.571   2.048   2.730 -0.5309  0.1576 -0.0765
  957SOL    HW1 2870   1.536   1.968   2.786 -0.8988  2.2047 -0.4316
  957SOL    HW2 2871   1.667   2.036   2.686  1.1357 -0.3571 -2.4335
  958SOL     OW 2872   2.601   2.278   2.946 -0.6740  0.2733  0.7877
  958SOL    HW1 2873   2.523   2.345   2.936  1.9311 -0.6517 -0.0506
  958SOL    HW2 2874   2.586   2.209   3.018 -0.5848  1.3510  2.1992
  959SOL     OW 2875   0.351   2.762   0.100 -0.5667  0.3925 -0.1380
  959SOL    HW1 2876   0.260   2.793   0.142  0.1542  2.0892 -0.2738
  959SOL    HW2 2877   0.364   2.664   0.116 -0.2199  0.9489  3.6283
  960SOL     OW 2878   1.956   0.423   1.942  0.0047  0.0774 -0.7808
  960SOL    HW1 2879   1.922   0.518   1.907  0.7861  1.4995 -0.0717
  960SOL    HW2 2880   1.953   0.413   2.045  1.2941  2.4060 -0.9194
  961SOL     OW 2881   2.547   1.842   1.014 -0.1454  0.3280  0.9111
  961SOL    HW1 2882   2.556   1.945   0.992 -1.3275  0.5820  0.0444
  961SOL    HW2 2883   2.517   1.822   1.112  0.8427 -2.1910 -1.4020
  962SOL     OW 2884   1.323   0.855   0.057  0.3901  0.5734  0.0892
  962SOL    HW1 2885   1.297   0.887  -0.037  1.6343  0.7050  0.0121
  962SOL    HW2 2886   1.306   0.931   0.130  0.3039 -1.4494 -0.9606
  963SOL     OW 2887   2.290   2.565   1.832 -0.7514 -0.1429 -0.5722
  963SOL    HW1 2888   2.251   2.468   1.853 -0.8858 -1.9046  4.0974
  963SOL    HW2 2889   2.323   2.625   1.914  3.6348 -0.6326 -3.6109
  964SOL     OW 2890   2.355   0.362   1.642  0.4138  0.5186  0.3931
  964SOL    HW1 2891   2.447   0.370   1.697  0.7271 -4.1382 -0.7479
  964SOL    HW2 2892   2.362   0.368   1.537  0.9497 -0.0126 -2.2869
  965SOL     OW 2893   2.593   2.974   0.150 -0.4879  0.7381  0.3867
  965SOL    HW1 2894   2.667   2.951   0.081  1.6422  1.1602  0.3817
  965SOL    HW2 2895   2.498   2.980   0.109 -1.7920 -1.9892  0.0301
  966SOL     OW 2896   2.512   2.507   2.194  0.4507  0.6421 -0.3600
  966SOL    HW1 2897   2.556   2.592   2.162 -0.2531  1.9764  1.3886
  966SOL    HW2 2898   2.409   2.513   2.178  0.4123 -1.4254 -0.5364
  967SOL     OW 2899   2.728   2.857   2.436  0.4358  0.1283  0.7503
  967SOL    HW1 2900   2.745   2.800   2.351  0.0470  2.3377  0.0643
  967SOL    HW2 2901   2.815   2.900   2.475  2.7946  1.8391 -1.8643
  968SOL     OW 2902   1.955   1.038   2.632 -0.3822  0.0395 -0.5547
  968SOL    HW1 2903   1.885   1.113   2.605 -0.9337  0.8200 -0.3125
  968SOL    HW2 2904   1.941   0.955   2.572  0.9936  2.1187  0.1936
  969SOL     OW 2905   2.766   2.497   1.072 -0.2893 -0.5303  0.4210
  969SOL    HW1 2906   2.737   2.465   0.977 -2.0504 -0.7863  0.8084
  969SOL    HW2 2907   2.794   2.422   1.137  0.4123 -0.5656 -0.2932
  970SOL     OW 2908   1.100   2.127   1.858 -0.7372 -0.4071 -0.3100
  970SOL    HW1 2909   1.022   2.059   1.858 -0.0595  1.7585 -1.6355
  970SOL    HW2 2910   1.066   2.214   1.894 -1.9179 -0.0181 -0.7599
  971SOL     OW 2911   2.848   2.047   1.964  0.5454 -0.1226  0.9020
  971SOL    HW1 2912   2.867   2.150   1.986 -0.0573  3.2277  0.3009
  971SOL    HW2 2913   2.904   2.012   1.880  3.6333 -0.1817  0.6016
  972SOL     OW 2914   1.936   2.490   0.263  0.6592 -0.4171  0.1370
  972SOL    HW1 2915   1.962   2.409   0.206  0.2081  3.3004 -2.7347
  972SOL    HW2 2916   1.945   2.483   0.368 -0.1624 -0.2595  1.8119
  973SOL     OW 2917   1.206   0.907   1.870  0.6379  0.3373 -0.2736
  973SOL    HW1 2918   1.142   0.828   1.904  0.5312 -0.8767  0.6330
  973SOL    HW2 2919   1.160   0.979   1.813 -1.1096  1.2838 -0.8430
  974SOL     OW 2920   1.642   0.570   1.967  0.0374 -0.0890 -0.9434
  974SOL    HW1 2921   1.735   0.582   1.932 -1.7480 -1.0419 -0.7228
  974SOL    HW2 2922   1.581   0.651   1.944  1.1498 -1.5430  0.1183
  975SOL     OW 2923   2.359   3.049   3.065 -0.3711  0.0552  0.6569
  975SOL    HW1 2924   2.297   2.980   3.114 -0.8393 -0.0826  0.5463
  975SOL    HW2 2925   2.389   3.012   2.970  0.5349 -0.0886  0.1226
  976SOL     OW 2926   1.904   2.810   2.355 -0.0909  0.8693  0.0726
  976SOL    HW1 2927   1.807   2.776   2.367 -0.0245  0.1805 -1.3226
  976SOL    HW2 2928   1.956   2.818   2.443 -1.9623  0.7695 -1.4950
  977SOL     OW 2929   0.507   0.647   1.014  0.1643 -0.9613 -0.7617
  977SOL    HW1 2930   0.433   0.632   0.947  1.3728 -0.3862  1.6301
  977SOL    HW2 2931   0.548   0.737   1.008  1.6744 -4.6480 -1.5778
   3.10000   3.10000   3.10000
