1000 SPC/Fw water molecules t=   1.91000 step= 1910
 2931
    1SOL     OW    1   2.529   0.284   2.703  0.3930 -0.3809  0.6779
    1SOL    HW1    2   2.549   0.178   2.710  1.8400 -2.6593 -1.9973
    1SOL    HW2    3   2.585   0.341   2.770 -1.2603  0.3798 -0.4214
    2SOL     OW    4   2.787   2.806   1.291  0.3624 -0.6799 -0.6892
    2SOL    HW1    5   2.860   2.859   1.245 -2.3896 -0.1707  0.2043
    2SOL    HW2    6   2.757   2.850   1.376  0.9941 -2.1737 -2.5199
    3SOL     OW    7   2.749   2.444   0.462  0.2351 -0.8847  0.1607
    3SOL    HW1    8   2.649   2.427   0.485 -0.4065  4.1683 -3.0148
    3SOL    HW2    9   2.791   2.503   0.536  2.7429 -3.1657 -0.1737
    4SOL     OW   10   1.210   1.553   2.433 -0.7397 -0.8494 -0.1377
    4SOL    HW1   11   1.162   1.574   2.340 -1.5530  3.8169 -0.3277
    4SOL    HW2   12   1.189   1.461   2.472 -0.4178 -0.4736  0.5357
    5SOL     OW   13   1.151   1.575   2.906 -0.0371 -0.6321 -0.0904
    5SOL    HW1   14   1.203   1.658   2.945  1.9343  1.9434  0.6395
    5SOL    HW2   15   1.059   1.599   2.857 -2.7490  0.0702 -1.4438
    6SOL     OW   16   0.186   1.858   0.018  0.0462  0.3685 -0.1814
    6SOL    HW1   17   0.093   1.892   0.040  2.2279  0.6860 -1.4075
    6SOL    HW2   18   0.222   1.781   0.071 -3.0843  2.3353 -2.3634
    7SOL     OW   19   2.551   0.860   1.051  0.5391 -0.0263  0.4573
    7SOL    HW1   20   2.463   0.825   1.101  0.6540  2.1004  1.0245
    7SOL    HW2   21   2.527   0.863   0.952 -0.8587 -2.2801  3.1450
    8SOL     OW   22   0.463   0.733   1.494  0.3883 -0.1336 -0.6274
    8SOL    HW1   23   0.562   0.715   1.523  0.3182  0.0718 -1.1018
    8SOL    HW2   24   0.458   0.724   1.390  0.5662  0.4145 -1.8702
    9SOL     OW   25   1.127   0.862   2.328  0.4943 -0.6124 -0.6806
    9SOL    HW1   26   1.181   0.896   2.245  1.0683  0.8351  1.9686
    9SOL    HW2   27   1.107   0.765   2.306 -1.7041 -2.5651  0.2524
   10SOL     OW   28   0.599   1.484   1.254 -0.1444  0.1541 -0.3830
   10SOL    HW1   29   0.517   1.472   1.192  2.2916  0.5111  0.6750
   10SOL    HW2   30   0.613   1.586   1.280  0.6342  0.8166  1.7899
   11SOL     OW   31   2.351   2.828   0.939  0.1682 -0.0608 -0.3708
   11SOL    HW1   32   2.286   2.834   1.023 -2.3460  1.1120  3.4123
   11SOL    HW2   33   2.452   2.826   0.960 -1.2235 -0.4969  0.3942
   12SOL     OW   34   1.433   0.834   0.512 -0.3486  0.1589  0.5710
   12SOL    HW1   35   1.337   0.796   0.512  1.6042 -2.3890 -0.3845
   12SOL    HW2   36   1.496   0.776   0.459 -3.9080  0.1438 -0.7933
   13SOL     OW   37   2.442   0.710   1.843  0.0763 -0.6204 -0.0324
   13SOL    HW1   38   2.365   0.663   1.894  2.0524 -1.2390  1.7740
   13SOL    HW2   39   2.444   0.686   1.746 -0.4331 -0.6455  4.1879
   14SOL     OW   40   1.923   3.033   0.644  0.0136 -0.0219  0.3453
   14SOL    HW1   41   1.836   3.087   0.633  2.3065 -3.6798  1.5343
   14SOL    HW2   42   1.940   3.009   0.745  0.4084 -2.2670 -0.1367
   15SOL     OW   43   1.876   2.107   2.639 -0.8475 -0.6559 -0.2374
   15SOL    HW1   44   1.805   2.094   2.710 -0.1618  1.4504 -4.3068
   15SOL    HW2   45   1.896   2.021   2.582  0.8956  0.9252  3.0967
   16SOL     OW   46   1.554   1.749   2.994 -0.3495 -0.3377  0.1807
   16SOL    HW1   47   1.544   1.706   3.088  0.5612 -2.2479 -0.6019
   16SOL    HW2   48   1.638   1.804   2.973 -0.1407  0.5543 -1.6353
   17SOL     OW   49   0.060   0.464   0.210  0.1501 -0.2283 -0.4208
   17SOL    HW1   50   0.156   0.486   0.184 -0.8215  2.2345 -0.7381
   17SOL    HW2   51  -0.012   0.486   0.141 -2.8094  1.9881  0.8503
   18SOL     OW   52   0.854   2.834   2.237  0.5311  0.0123  0.1594
   18SOL    HW1   53   0.806   2.748   2.274  1.5700 -1.1675  0.6107
   18SOL    HW2   54   0.896   2.813   2.143 -0.7586  0.0780 -0.8521
   19SOL     OW   55   0.500   0.921   1.927  0.5229  0.1196 -0.1909
   19SOL    HW1   56   0.541   0.846   1.983  0.0935  0.1853  0.6519
   19SOL    HW2   57   0.566   0.985   1.887 -0.8941 -0.2150 -0.2234
   20SOL     OW   58   0.217   2.784   0.755  0.0472 -0.4299  0.6742
   20SOL    HW1   59   0.118   2.834   0.749 -2.8140  0.7935 -1.6727
   20SOL    HW2   60   0.225   2.703   0.695  0.2189  2.0560  0.8568
   21SOL     OW   61   2.832   0.282   1.981  0.1816  0.5687 -0.3832
   21SOL    HW1   62   2.765   0.212   1.952 -0.1345  1.6668 -0.2031
   21SOL    HW2   63   2.898   0.244   2.052 -0.3628 -1.0714 -0.1707
   22SOL     OW   64   2.423   0.204   0.072  0.1885 -0.1376 -0.7146
   22SOL    HW1   65   2.449   0.110   0.033 -2.1869 -3.0388  1.0151
   22SOL    HW2   66   2.340   0.251   0.031 -3.1017  3.0024 -1.6685
   23SOL     OW   67   2.817   0.507   0.664 -0.4169  0.2692  0.3270
   23SOL    HW1   68   2.847   0.412   0.658  1.4477  0.6928 -0.8112
   23SOL    HW2   69   2.865   0.569   0.602 -1.2880  1.7081 -1.4591
   24SOL     OW   70   0.272   1.914   0.449  0.0401 -0.2913 -0.7887
   24SOL    HW1   71   0.263   1.981   0.374  1.8684  0.1474  1.1738
   24SOL    HW2   72   0.342   1.837   0.427  1.4156 -1.5541 -0.4515
   25SOL     OW   73   2.296   0.583   0.253  0.1376 -0.2585  0.0586
   25SOL    HW1   74   2.271   0.570   0.153  1.0073 -2.4498 -0.0073
   25SOL    HW2   75   2.340   0.499   0.290 -0.4669  1.8565  2.5319
   26SOL     OW   76   2.469   2.155   2.141 -0.5190 -0.5059  0.0780
   26SOL    HW1   77   2.530   2.224   2.185 -0.4470 -0.2744 -3.4066
   26SOL    HW2   78   2.508   2.101   2.063 -2.3529 -0.6256 -0.4240
   27SOL     OW   79   0.641   3.012   0.176  0.1163  0.4288 -0.1268
   27SOL    HW1   80   0.734   3.042   0.150 -0.7854 -2.2576  3.5513
   27SOL    HW2   81   0.568   3.036   0.103 -1.1079  1.1791  2.9992
   28SOL     OW   82   1.560   0.178   0.332  0.2683 -0.2316  0.4130
   28SOL    HW1   83   1.590   0.141   0.241  2.9246 -0.2077  1.3340
   28SOL    HW2   84   1.636   0.242   0.376  2.0140 -0.8232  0.4560
   29SOL     OW   85   2.011   0.550   0.308 -0.5341  0.0371  0.2711
   29SOL    HW1   86   1.977   0.613   0.384 -2.4035  0.6614 -0.1821
   29SOL    HW2   87   2.114   0.559   0.286  2.7883 -0.9793 -1.6867
   30SOL     OW   88   0.192   2.118   0.890 -0.6085 -0.6516  0.2819
   30SOL    HW1   89   0.151   2.032   0.852  0.6111 -0.2295 -2.0164
   30SOL    HW2   90   0.126   2.193   0.907  1.4520 -0.6785 -1.9131
   31SOL     OW   91   2.097   0.106   2.372 -0.1461 -0.4296 -0.2375
   31SOL    HW1   92   2.047   0.068   2.456  0.2984  0.1393  0.0643
   31SOL    HW2   93   2.068   0.066   2.279 -2.3509  3.6444  0.6879
   32SOL     OW   94   3.082   3.054   0.226 -0.1779  0.1098  0.0090
   32SOL    HW1   95   3.046   2.962   0.254  1.4410  2.5745  0.5663
   32SOL    HW2   96   3.179   3.050   0.200 -2.1366  0.1992  0.0194
   33SOL     OW   97   0.874   0.273   0.656  0.2466 -0.6485  0.1505
   33SOL    HW1   98   0.866   0.190   0.598  1.1133  0.9882  1.7742
   33SOL    HW2   99   0.953   0.329   0.629  0.9952 -0.7706  1.9457
   34SOL     OW  100   0.341   2.654   1.008  0.2887  0.0120 -0.6883
   34SOL    HW1  101   0.292   2.684   0.920  1.4849 -0.6593  0.1836
   34SOL    HW2  102   0.422   2.716   1.023 -2.2075  1.7836  1.3840
   35SOL     OW  103   0.104   0.209   1.900  0.3172 -0.3445  0.9629
   35SOL    HW1  104   0.094   0.116   1.945 -0.7239  0.7803  0.4502
   35SOL    HW2  105   0.093   0.213   1.794 -3.2116  0.1695 -0.1639
   36SOL     OW  106   1.859   1.228   1.468 -0.4827  0.1240  0.2142
   36SOL    HW1  107   1.953   1.216   1.514 -0.4066 -0.2511  0.8143
   36SOL    HW2  108   1.856   1.298   1.396 -1.3461  2.9403  2.4733
   37SOL     OW  109   1.167   0.246   0.997  0.0408 -0.0992 -0.4003
   37SOL    HW1  110   1.185   0.348   1.004 -0.3660  1.1015 -1.0134
   37SOL    HW2  111   1.247   0.200   0.952 -1.9792  0.4134  0.8659
   38SOL     OW  112   1.114   2.815   2.460  0.3747 -0.1155  0.4415
   38SOL    HW1  113   1.028   2.763   2.489  0.5548  1.4082  0.1971
   38SOL    HW2  114   1.094   2.874   2.378 -1.8102  0.1452  1.3798
   39SOL     OW  115   2.469   1.416   3.010  0.1159 -0.1337  0.6077
   39SOL    HW1  116   2.535   1.343   3.045 -0.3562  0.7398  2.4750
   39SOL    HW2  117   2.384   1.412   3.067  0.7490 -0.7721 -0.6754
   40SOL     OW  118   2.040   2.498   2.555 -0.0252  0.1669  0.5656
   40SOL    HW1  119   2.004   2.594   2.543 -2.8174  0.4096 -0.7964
   40SOL    HW2  120   1.976   2.417   2.531  2.4546  1.5241  0.9551
   41SOL     OW  121   3.021   0.702   2.804  0.4047 -0.0910 -0.0582
   41SOL    HW1  122   3.001   0.791   2.857  0.7138  0.2317 -0.7384
   41SOL    HW2  123   2.935   0.651   2.771 -2.9347 -0.7796  0.9079
   42SOL     OW  124   1.740   1.749   0.473  0.9232 -0.7568 -0.5578
   42SOL    HW1  125   1.711   1.648   0.473  0.3036  0.5020  0.5056
   42SOL    HW2  126   1.765   1.783   0.378 -1.1194 -0.3063 -0.1481
   43SOL     OW  127   0.430   1.775   1.126 -0.0878  1.0757  0.1557
   43SOL    HW1  128   0.376   1.701   1.077 -2.5422 -0.0022  0.8296
   43SOL    HW2  129   0.405   1.769   1.225 -2.6361 -0.7405 -2.1918
   44SOL     OW  130   1.708   2.374   2.959  0.0260  0.6552  0.1882
   44SOL    HW1  131   1.621   2.406   3.003  1.7716 -0.5034  0.7151
   44SOL    HW2  132   1.726   2.416   2.864  0.5463  1.4946  0.6403
   45SOL     OW  133   0.359   1.937   2.611 -0.2557  0.0374 -0.1037
   45SOL    HW1  134   0.306   1.922   2.522  0.5509 -2.5696 -0.4424
   45SOL    HW2  135   0.418   1.851   2.626 -0.3625 -3.1043  1.0765
   46SOL     OW  136   1.306   0.722   0.245 -0.1311  0.4899 -0.7428
   46SOL    HW1  137   1.292   0.819   0.218 -2.6916  1.1674 -1.4899
   46SOL    HW2  138   1.242   0.662   0.198  1.1476 -0.2189  1.5142
   47SOL     OW  139   0.159   2.342   1.608  0.2007 -0.3004  0.1310
   47SOL    HW1  140   0.072   2.313   1.655  1.8333  0.9615  2.1663
   47SOL    HW2  141   0.150   2.346   1.503  0.5051  1.9784 -0.3346
   48SOL     OW  142   2.651   0.694   0.151  0.2957 -0.4860  1.0722
   48SOL    HW1  143   2.664   0.665   0.251  0.5200 -0.7204 -0.0687
   48SOL    HW2  144   2.737   0.737   0.105  0.8264 -1.8720  1.0707
   49SOL     OW  145   0.334   0.846   1.731 -0.2909  0.2123 -0.1991
   49SOL    HW1  146   0.389   0.886   1.811  1.0551  2.5625 -0.4854
   49SOL    HW2  147   0.402   0.822   1.654  1.0506 -2.7858  2.5735
   50SOL     OW  148   1.680   1.094   0.332 -0.0362 -0.2344  0.5367
   50SOL    HW1  149   1.703   1.001   0.288  0.8963 -2.3753 -1.6221
   50SOL    HW2  150   1.636   1.090   0.428 -1.6953 -3.9134  0.5944
   51SOL     OW  151   2.934   1.719   0.317 -0.6117 -0.5422  0.4384
   51SOL    HW1  152   2.925   1.660   0.230  2.0589 -0.9183 -0.2630
   51SOL    HW2  153   3.016   1.692   0.369 -1.3389  2.0089 -0.8365
   52SOL     OW  154   0.802   2.181   0.561 -0.0330  0.0701 -0.2141
   52SOL    HW1  155   0.713   2.190   0.506 -1.2164  0.0700 -1.2875
   52SOL    HW2  156   0.793   2.137   0.655  0.7183  0.5737  0.5463
   53SOL     OW  157   0.299   0.482   1.486  0.2887  0.3861  0.4767
   53SOL    HW1  158   0.372   0.553   1.473  0.4735  0.7580  0.6598
   53SOL    HW2  159   0.210   0.500   1.439  0.1791  1.8286 -0.4657
   54SOL     OW  160   1.785   0.442   0.003  0.5248 -0.1416 -0.1068
   54SOL    HW1  161   1.860   0.396   0.061  0.8324  0.6570  0.6648
   54SOL    HW2  162   1.690   0.408   0.026 -1.5104  0.7267 -1.2343
   55SOL     OW  163   0.787   2.902   0.628 -0.4638  0.0312 -0.2496
   55SOL    HW1  164   0.721   2.981   0.646  0.1484 -0.8073 -2.4807
   55SOL    HW2  165   0.883   2.925   0.593 -0.8918 -3.1984  0.3013
   56SOL     OW  166   0.515   1.606   3.055 -0.4052  0.3727  0.6954
   56SOL    HW1  167   0.432   1.607   3.118  2.1061  2.3838  1.2310
   56SOL    HW2  168   0.533   1.506   3.025  1.4706 -0.6655 -0.3335
   57SOL     OW  169   1.683   2.478   2.378 -0.1884 -0.1026  0.3460
   57SOL    HW1  170   1.759   2.411   2.401 -0.5358 -0.3666  2.4629
   57SOL    HW2  171   1.606   2.472   2.447  0.2583 -1.5761 -0.1424
   58SOL     OW  172   0.650   0.176   1.072  0.2619 -0.3539  0.4050
   58SOL    HW1  173   0.554   0.185   1.119  0.1657  0.0420  1.0084
   58SOL    HW2  174   0.688   0.081   1.091 -0.6351 -2.7905 -1.4145
   59SOL     OW  175   0.457   2.366   2.583 -0.0074 -0.1903 -0.0491
   59SOL    HW1  176   0.497   2.275   2.615 -0.7666  1.6587 -2.2687
   59SOL    HW2  177   0.526   2.444   2.590  0.3175  0.7671  1.6171
   60SOL     OW  178   2.323   2.065   2.363  0.3313 -0.3602  0.5188
   60SOL    HW1  179   2.387   2.100   2.290 -0.8899  1.3055 -2.7472
   60SOL    HW2  180   2.331   2.118   2.450  0.1361 -0.7316  0.0560
   61SOL     OW  181   1.203   0.641   0.482 -0.4131 -0.0888  0.7507
   61SOL    HW1  182   1.099   0.649   0.482  0.5220 -0.2512 -1.5974
   61SOL    HW2  183   1.247   0.664   0.388  2.7716 -1.0151 -0.4656
   62SOL     OW  184   2.789   1.704   2.688 -0.6114  0.5860  0.0160
   62SOL    HW1  185   2.704   1.643   2.676 -0.3002 -2.1165 -2.4074
   62SOL    HW2  186   2.845   1.679   2.769  0.5174 -0.4841 -3.6182
   63SOL     OW  187   0.531   0.819   0.202 -0.4597 -0.5949 -0.2074
   63SOL    HW1  188   0.598   0.895   0.184  0.0866 -1.7190 -0.3975
   63SOL    HW2  189   0.521   0.794   0.304 -1.3174  3.0535 -1.7929
   64SOL     OW  190   3.054   0.566   2.380  0.8819 -0.0557  0.0244
   64SOL    HW1  191   2.989   0.592   2.454 -0.2750 -0.8864  1.2330
   64SOL    HW2  192   3.042   0.617   2.291  0.3525  0.8911  0.9515
   65SOL     OW  193   0.146   1.443   0.641 -0.6088 -0.3062  0.3508
   65SOL    HW1  194   0.151   1.501   0.729 -2.1580 -1.5250 -1.3421
   65SOL    HW2  195   0.173   1.494   0.553 -0.6351 -0.3302  0.0934
   66SOL     OW  196   2.603   0.312   0.521  0.1810 -0.0164  0.1470
   66SOL    HW1  197   2.701   0.287   0.507 -3.5718 -0.3690 -1.6894
   66SOL    HW2  198   2.552   0.246   0.572 -0.4906  1.9194 -4.4214
   67SOL     OW  199   0.569   2.493   1.532  0.2633 -0.1922  0.1645
   67SOL    HW1  200   0.657   2.465   1.574 -2.4461 -1.4172 -1.7547
   67SOL    HW2  201   0.509   2.410   1.505 -0.6810 -1.8397 -0.6231
   68SOL     OW  202   0.903   1.003   2.528 -0.1708 -0.1523  0.0022
   68SOL    HW1  203   0.970   0.943   2.478 -0.6069 -3.9990 -0.3815
   68SOL    HW2  204   0.867   1.076   2.464  3.9689  0.0082 -1.0615
   69SOL     OW  205   0.713   2.605   2.305 -0.9357 -0.0661 -0.3503
   69SOL    HW1  206   0.757   2.524   2.257  0.9599 -0.6176  1.5080
   69SOL    HW2  207   0.609   2.610   2.283 -4.8350 -6.5698 -1.2265
   70SOL     OW  208   0.544   0.159   2.575 -0.0050 -0.2670  0.2348
   70SOL    HW1  209   0.448   0.127   2.592  1.0249 -1.0758 -1.4202
   70SOL    HW2  210   0.616   0.085   2.557  0.2472 -0.9446  1.5086
   71SOL     OW  211   1.075   1.783   0.326  0.3943  0.6690  0.0343
   71SOL    HW1  212   0.989   1.790   0.385  0.7359  3.0278 -1.1990
   71SOL    HW2  213   1.050   1.794   0.227 -0.0278  0.3879  1.7621
   72SOL     OW  214   1.842   0.209   2.142 -0.3123 -0.0972 -0.3637
   72SOL    HW1  215   1.879   0.297   2.090  0.1552  0.9106 -0.1652
   72SOL    HW2  216   1.883   0.121   2.106 -3.3585 -0.1110  1.0354
   73SOL     OW  217   2.768   2.202   2.441  0.5672  0.1027 -0.4216
   73SOL    HW1  218   2.781   2.112   2.391  1.4512 -2.7262  2.3280
   73SOL    HW2  219   2.819   2.192   2.529 -2.2874 -0.3259  0.3420
   74SOL     OW  220   2.690   2.995   2.130  0.6014  0.7973 -0.0486
   74SOL    HW1  221   2.626   2.944   2.188  1.3181 -1.5900 -3.4888
   74SOL    HW2  222   2.780   3.015   2.175 -1.3290 -3.1789 -0.9514
   75SOL     OW  223   0.933   0.811   1.145 -0.2652  0.1678 -0.6639
   75SOL    HW1  224   0.835   0.835   1.109 -1.4072  0.5863 -4.1172
   75SOL    HW2  225   0.961   0.869   1.225  1.7722 -0.9350  0.6820
   76SOL     OW  226   1.834   1.267   2.592 -0.3113 -0.2626 -0.1298
   76SOL    HW1  227   1.729   1.249   2.593 -1.1954  0.4754 -2.3249
   76SOL    HW2  228   1.854   1.363   2.638 -2.8957  2.9397 -2.4433
   77SOL     OW  229   2.939   0.910   1.024 -0.6483  0.3757 -0.1733
   77SOL    HW1  230   2.889   0.822   1.046 -0.3142 -0.8004 -2.3519
   77SOL    HW2  231   3.038   0.910   1.063  0.2971  0.4811  1.4635
   78SOL     OW  232   1.940   1.466   1.285  0.0569  0.1037 -0.5379
   78SOL    HW1  233   2.033   1.439   1.244  0.0869  1.4686  0.8608
   78SOL    HW2  234   1.864   1.480   1.216 -1.8471 -0.3500 -1.1411
   79SOL     OW  235   0.643   1.500   0.841 -0.1797  0.3427 -0.1897
   79SOL    HW1  236   0.539   1.479   0.826  0.4019 -0.4614 -1.3359
   79SOL    HW2  237   0.702   1.414   0.822  1.8785 -0.5912 -0.1495
   80SOL     OW  238   0.705   0.462   1.570  0.0721 -0.2772 -0.3102
   80SOL    HW1  239   0.678   0.517   1.486  0.8674  0.4753  2.0654
   80SOL    HW2  240   0.665   0.370   1.570  0.7986  0.7011  2.9808
   81SOL     OW  241   1.056   1.295   2.451  0.0085 -0.0493 -0.7351
   81SOL    HW1  242   0.968   1.347   2.437  2.3963  0.3276  0.9597
   81SOL    HW2  243   1.072   1.220   2.382 -2.3357  1.5189  0.3177
   82SOL     OW  244   0.949   2.940   1.655  0.1043  0.5160  0.7795
   82SOL    HW1  245   1.003   2.859   1.618  1.1893 -2.0415 -1.0675
   82SOL    HW2  246   0.938   3.015   1.587 -0.8961 -3.5947 -1.2437
   83SOL     OW  247   2.635   2.365   0.904  0.2389  0.3427  0.3718
   83SOL    HW1  248   2.537   2.327   0.894 -2.5358  0.6581 -0.7523
   83SOL    HW2  249   2.641   2.467   0.896  2.4501 -1.7679 -1.7974
   84SOL     OW  250   0.779   3.074   2.337  0.5224  0.7829  0.0089
   84SOL    HW1  251   0.762   3.072   2.438  2.2189 -0.7151  2.4524
   84SOL    HW2  252   0.782   2.976   2.296 -0.7923  0.6395 -2.7666
   85SOL     OW  253   0.258   1.698   1.357 -0.1433 -0.1173  0.8392
   85SOL    HW1  254   0.219   1.778   1.408 -0.1000 -2.0012  1.9282
   85SOL    HW2  255   0.321   1.644   1.421  0.5430  3.6984 -1.3173
   86SOL     OW  256   0.469   1.066   1.402  0.5090  0.0694 -0.0975
   86SOL    HW1  257   0.441   1.064   1.305  0.0926  1.4740  1.4639
   86SOL    HW2  258   0.528   0.982   1.419 -2.8569 -2.5115 -0.3642
   87SOL     OW  259   1.611   0.669   0.357 -0.6884  0.5051 -0.2413
   87SOL    HW1  260   1.680   0.734   0.314  1.2013 -1.5046  2.2869
   87SOL    HW2  261   1.538   0.649   0.291  2.8188 -0.3772 -1.0644
   88SOL     OW  262   1.539   1.351   0.294 -0.1573  0.0121  0.1897
   88SOL    HW1  263   1.594   1.278   0.259 -3.7546  4.4360 -0.0224
   88SOL    HW2  264   1.438   1.323   0.296 -0.4947 -0.1934  1.6375
   89SOL     OW  265   3.059   0.355   0.647  0.2209  0.4608 -0.7811
   89SOL    HW1  266   3.160   0.328   0.650 -0.7696 -3.5665  2.1966
   89SOL    HW2  267   3.012   0.286   0.584  0.6698  1.6866 -0.1527
   90SOL     OW  268   0.754   1.575   0.137 -0.1300  0.2444  0.6230
   90SOL    HW1  269   0.855   1.591   0.150 -0.6690 -0.1172  2.1763
   90SOL    HW2  270   0.728   1.534   0.045  0.0771 -0.6290  0.7116
   91SOL     OW  271   1.268   1.531   1.667 -0.1562 -0.3489  0.3497
   91SOL    HW1  272   1.250   1.537   1.770  0.5997  1.3419  2.4482
   91SOL    HW2  273   1.368   1.505   1.642  2.7980  0.8418 -1.4416
   92SOL     OW  274   0.078   0.968   1.144  0.3934 -0.2129 -0.1460
   92SOL    HW1  275   0.081   1.066   1.101  0.4648  1.2000 -0.4801
   92SOL    HW2  276   0.075   0.975   1.253 -0.2580 -0.1339  2.5014
   93SOL     OW  277   3.024   2.676   0.063 -0.2262  0.3115  0.1488
   93SOL    HW1  278   3.013   2.675  -0.039  1.1347  1.5194 -1.8535
   93SOL    HW2  279   3.099   2.610   0.092  2.3206 -1.0001  2.1865
   94SOL     OW  280   1.552   1.430   1.621  0.0330  0.6998 -0.4240
   94SOL    HW1  281   1.580   1.345   1.676  0.3745 -0.8885  1.6102
   94SOL    HW2  282   1.631   1.478   1.576 -0.1256  1.6954 -2.5953
   95SOL     OW  283   1.418   2.471   2.928  0.6375  0.0478 -0.2000
   95SOL    HW1  284   1.319   2.462   2.959  1.9412 -0.0726 -2.6050
   95SOL    HW2  285   1.445   2.391   2.866  0.5364 -2.2761 -0.5046
   96SOL     OW  286   0.596   2.150   1.270 -0.1212 -0.5657  0.0602
   96SOL    HW1  287   0.559   2.104   1.184  1.0402 -0.4318 -0.6578
   96SOL    HW2  288   0.631   2.084   1.340 -1.5739 -0.8932  0.6434
   97SOL     OW  289   0.285   1.615   2.409  0.4262 -0.2412 -0.1143
   97SOL    HW1  290   0.257   1.718   2.423  1.2873  2.4985 -0.2248
   97SOL    HW2  291   0.285   1.564   2.500 -0.6219  1.6912  3.3382
   98SOL     OW  292   2.272   1.680   1.210  0.1980  0.1221 -0.6765
   98SOL    HW1  293   2.232   1.587   1.206 -1.1965  2.4067  1.9933
   98SOL    HW2  294   2.362   1.699   1.158 -0.7300  0.4800 -0.3865
   99SOL     OW  295   2.613   2.091   1.271 -0.4716  0.6033  0.5493
   99SOL    HW1  296   2.645   2.146   1.356 -1.9044  1.2957  0.7083
   99SOL    HW2  297   2.536   2.021   1.293 -2.4622 -3.3852  3.4743
  100SOL     OW  298   2.333   0.385   2.120 -0.2170 -0.2519  0.2809
  100SOL    HW1  299   2.310   0.373   2.219 -0.1841 -0.8735 -2.2779
  100SOL    HW2  300   2.431   0.409   2.107  0.1935  1.1724 -0.1749
  101SOL     OW  301   0.341   1.491   0.413  0.9781 -0.5133  0.8359
  101SOL    HW1  302   0.356   1.557   0.490 -1.7620 -1.4427 -2.1426
  101SOL    HW2  303   0.416   1.422   0.410 -3.3596 -1.1138  2.3612
  102SOL     OW  304   2.298   1.048   0.889  0.5938  0.5679 -0.4771
  102SOL    HW1  305   2.258   0.950   0.871 -2.4092 -1.9681 -0.1200
  102SOL    HW2  306   2.353   1.085   0.811 -0.7432  0.3373  2.8541
  103SOL     OW  307   2.251   0.053   0.343 -0.1475 -0.1711 -0.6764
  103SOL    HW1  308   2.267   0.159   0.330  2.1532  3.8283  1.2763
  103SOL    HW2  309   2.333   0.005   0.377  0.6581 -2.0374 -1.7167
  104SOL     OW  310   0.040   1.822   2.184  0.4366  0.1681 -0.2979
  104SOL    HW1  311   0.080   1.833   2.088  0.5640  0.0301  2.5404
  104SOL    HW2  312  -0.062   1.832   2.193 -1.5283  1.3048  1.8616
  105SOL     OW  313   1.264   2.093   0.798 -0.3488  0.3613  0.0035
  105SOL    HW1  314   1.170   2.068   0.766 -3.8567 -0.0361  3.8408
  105SOL    HW2  315   1.337   2.035   0.752 -1.0555 -1.5750  0.3638
  106SOL     OW  316   2.134   0.399   1.454  0.0767 -0.1227  0.4315
  106SOL    HW1  317   2.033   0.369   1.456 -0.2658  1.8755  1.4266
  106SOL    HW2  318   2.161   0.456   1.541  0.7155  0.3595  2.2969
  107SOL     OW  319   1.930   2.924   1.188  0.0748  0.5832  0.4360
  107SOL    HW1  320   1.876   3.000   1.228  2.0969 -1.6301 -0.3931
  107SOL    HW2  321   1.877   2.841   1.147 -0.2186  0.7221  1.9984
  108SOL     OW  322   0.904   2.780   1.081  0.0634  0.2311  0.0564
  108SOL    HW1  323   0.939   2.702   1.023 -1.2251  0.3049  0.3970
  108SOL    HW2  324   0.983   2.840   1.121 -1.5959  0.3267  2.3744
  109SOL     OW  325   2.195   0.110   0.747 -0.0300 -0.6246  0.0445
  109SOL    HW1  326   2.133   0.045   0.700 -0.9939  1.9301  0.1098
  109SOL    HW2  327   2.165   0.133   0.844 -0.0137  1.7765 -0.0384
  110SOL     OW  328   0.503   2.823   2.794  0.0458 -0.4903  1.1120
  110SOL    HW1  329   0.520   2.836   2.693 -0.1174 -0.5027  2.0020
  110SOL    HW2  330   0.546   2.740   2.834 -0.6827  2.2890  1.5703
  111SOL     OW  331   1.318   0.625   2.367 -0.0885 -0.1673 -0.0949
  111SOL    HW1  332   1.228   0.647   2.410  2.3309 -1.0737  0.0901
  111SOL    HW2  333   1.374   0.548   2.409  2.3664  0.3036 -0.6745
  112SOL     OW  334   1.754   0.537   1.515  0.1158  0.4086 -0.4738
  112SOL    HW1  335   1.728   0.568   1.423  1.7823  2.7984  1.6929
  112SOL    HW2  336   1.673   0.553   1.581 -4.9048 -0.1309  0.3900
  113SOL     OW  337   2.278   1.697   1.769  0.2498  0.1910 -0.2848
  113SOL    HW1  338   2.324   1.606   1.745 -2.0517  1.9937  0.9662
  113SOL    HW2  339   2.287   1.722   1.871  1.2161  1.5781  1.3911
  114SOL     OW  340   0.315   0.443   1.180  0.3362  0.2107  0.1933
  114SOL    HW1  341   0.219   0.462   1.157  0.7212  0.7338  0.8863
  114SOL    HW2  342   0.392   0.489   1.119  3.6048 -0.5513 -2.0373
  115SOL     OW  343   2.708   1.581   1.271  0.3402  0.2936 -0.1412
  115SOL    HW1  344   2.699   1.479   1.275  2.0696  1.3894 -1.7101
  115SOL    HW2  345   2.805   1.607   1.254  1.2410  0.7864  0.7914
  116SOL     OW  346   1.880   0.932   0.663 -0.2416  0.1243  0.4598
  116SOL    HW1  347   1.789   0.888   0.663  1.4346 -1.7851  1.4022
  116SOL    HW2  348   1.872   1.021   0.713 -0.4815  1.8102  0.2687
  117SOL     OW  349   1.104   0.378   0.538  0.1291  0.5412 -0.0757
  117SOL    HW1  350   1.148   0.471   0.521 -2.1998 -0.5888  1.9236
  117SOL    HW2  351   1.082   0.338   0.445  0.5861 -1.8282  1.8851
  118SOL     OW  352   1.138   1.226   1.123 -0.2806 -0.1072  0.5446
  118SOL    HW1  353   1.126   1.193   1.219 -1.3340 -1.3614 -2.5027
  118SOL    HW2  354   1.172   1.321   1.114 -0.2713  0.8124  2.2647
  119SOL     OW  355   1.909   1.612   2.235  0.6156  0.2023  0.0132
  119SOL    HW1  356   1.847   1.675   2.175 -0.3695  2.6647  2.5630
  119SOL    HW2  357   1.991   1.583   2.180  1.6339  3.0028  0.0557
  120SOL     OW  358   2.970   2.818   0.290 -0.7441  0.0435 -0.5262
  120SOL    HW1  359   2.982   2.759   0.206 -1.8374  3.2105 -0.0955
  120SOL    HW2  360   2.877   2.820   0.322  3.1803  0.2528  1.7658
  121SOL     OW  361   1.996   0.793   2.334 -0.5937 -0.0247  0.3084
  121SOL    HW1  362   2.034   0.853   2.259  1.3251  2.0406 -1.4981
  121SOL    HW2  363   2.023   0.692   2.318 -1.4928 -0.6480  0.7194
  122SOL     OW  364   2.576   2.470   1.399 -0.5097 -0.0997  0.0864
  122SOL    HW1  365   2.631   2.425   1.325 -2.4404  3.9670  0.3369
  122SOL    HW2  366   2.590   2.425   1.492  1.3181 -1.4931 -0.1939
  123SOL     OW  367   1.654   0.191   1.650  0.5352 -0.1894  0.2596
  123SOL    HW1  368   1.684   0.098   1.617 -1.6901 -0.3636 -0.5083
  123SOL    HW2  369   1.732   0.247   1.691 -0.7397 -2.6039  1.1723
  124SOL     OW  370   3.026   0.415   1.165 -0.3474  1.0014 -0.0573
  124SOL    HW1  371   2.925   0.423   1.201  0.0193 -3.3487  2.2569
  124SOL    HW2  372   3.039   0.450   1.070 -0.1013 -1.4875  1.9368
  125SOL     OW  373   0.923   1.935   0.732  0.0239  0.1454  0.3156
  125SOL    HW1  374   0.997   1.876   0.775  2.0877  2.0490  0.1649
  125SOL    HW2  375   0.841   1.962   0.795 -1.7156  1.3734  1.8982
  126SOL     OW  376   1.910   2.276   2.436 -0.2944  0.1010  0.5287
  126SOL    HW1  377   1.982   2.246   2.371 -1.7456 -2.3245  2.3516
  126SOL    HW2  378   1.893   2.210   2.518 -1.4016  1.2563 -0.0652
  127SOL     OW  379   0.964   0.948   0.185  0.6389  0.3195 -0.0660
  127SOL    HW1  380   0.953   0.997   0.275 -1.1828  1.2590  0.8360
  127SOL    HW2  381   0.934   0.849   0.189  2.4135  0.5996  1.6802
  128SOL     OW  382   0.890   0.187   1.399  0.2795  0.2705  0.1759
  128SOL    HW1  383   0.870   0.264   1.330 -2.6229  0.3016 -2.7684
  128SOL    HW2  384   0.839   0.100   1.375 -2.6793 -0.3333  0.0309
  129SOL     OW  385   1.901   0.683   1.882 -0.0410 -0.1164  0.8019
  129SOL    HW1  386   1.925   0.668   1.778  0.7594 -1.9892 -0.8437
  129SOL    HW2  387   1.930   0.776   1.913  2.0245 -0.1441 -0.3882
  130SOL     OW  388   1.393   2.198   1.006 -0.2015  0.3025 -0.4969
  130SOL    HW1  389   1.330   2.163   0.931  0.2298  1.6129  0.2690
  130SOL    HW2  390   1.447   2.285   0.983  0.1113 -1.0433 -0.9971
  131SOL     OW  391   3.034   1.389   1.404 -0.4186 -0.0222 -0.4307
  131SOL    HW1  392   2.980   1.298   1.377 -3.2236 -3.2772 -1.6017
  131SOL    HW2  393   3.137   1.390   1.392  0.6213 -1.7970  0.3031
  132SOL     OW  394   2.037   2.437   0.544 -0.0417 -0.2378 -0.1078
  132SOL    HW1  395   1.931   2.453   0.544 -2.3951 -1.0003  3.3951
  132SOL    HW2  396   2.070   2.347   0.588 -0.9693  1.4174 -2.6580
  133SOL     OW  397   1.748   2.472   2.713 -0.0360 -0.6142 -0.0280
  133SOL    HW1  398   1.657   2.467   2.655 -1.8473  0.4476 -0.8580
  133SOL    HW2  399   1.779   2.569   2.724  1.6988 -1.1838 -0.1509
  134SOL     OW  400   2.579   2.412   1.666  0.3586  0.3007  0.1779
  134SOL    HW1  401   2.541   2.379   1.757  0.0934  3.8557 -1.3692
  134SOL    HW2  402   2.637   2.496   1.683 -1.1801 -0.5126  0.4352
  135SOL     OW  403   0.784   1.326   2.662 -0.3855  0.3861  0.4593
  135SOL    HW1  404   0.717   1.269   2.716  2.9505 -1.9910 -1.2354
  135SOL    HW2  405   0.757   1.342   2.568  2.3252  0.0774 -0.3384
  136SOL     OW  406   1.209   2.016   0.416 -0.0644  0.1896 -0.1368
  136SOL    HW1  407   1.157   2.103   0.452  0.6809  0.5229 -1.0622
  136SOL    HW2  408   1.147   1.932   0.406  1.0316  1.5431 -2.3293
  137SOL     OW  409   0.455   1.162   2.257 -0.0008  0.7681 -0.2512
  137SOL    HW1  410   0.360   1.124   2.239 -0.1226 -0.2336 -0.5594
  137SOL    HW2  411   0.523   1.090   2.286  3.4374  0.0813 -1.3590
  138SOL     OW  412   2.423   1.510   0.301  0.0467  0.5848  0.4893
  138SOL    HW1  413   2.334   1.477   0.257  0.4120 -0.1586  0.1076
  138SOL    HW2  414   2.495   1.439   0.327 -3.3499  3.5623  0.9387
  139SOL     OW  415   1.916   2.634   1.553 -0.1664  0.2986 -0.3205
  139SOL    HW1  416   1.811   2.648   1.537 -0.8389 -0.1949 -0.8219
  139SOL    HW2  417   1.961   2.576   1.479 -1.1058  1.7974 -3.0436
  140SOL     OW  418   3.044   3.016   2.645 -0.0529 -0.1685  0.0624
  140SOL    HW1  419   3.035   2.917   2.607  1.3197  2.3625  0.7523
  140SOL    HW2  420   3.095   3.082   2.580  0.0806 -1.0190  1.7716
  141SOL     OW  421   1.265   1.621   1.416 -0.3114 -0.1423 -1.0987
  141SOL    HW1  422   1.176   1.662   1.385  1.7121 -1.6205 -0.0274
  141SOL    HW2  423   1.255   1.588   1.516 -0.2854 -1.2495 -0.7622
  142SOL     OW  424   1.590   0.655   2.238  0.1976  0.2116  0.3410
  142SOL    HW1  425   1.610   0.620   2.141 -0.0024  1.5977 -2.0943
  142SOL    HW2  426   1.499   0.626   2.273 -0.5027  0.5169  0.8894
  143SOL     OW  427   2.819   0.784   0.567  0.0023 -0.1278  0.4907
  143SOL    HW1  428   2.866   0.831   0.486  0.2135 -1.8343 -1.5916
  143SOL    HW2  429   2.849   0.823   0.657  0.4652  0.0635 -1.9136
  144SOL     OW  430   2.937   1.099   1.407  0.0087  0.1726 -0.1218
  144SOL    HW1  431   2.908   1.108   1.508 -1.8573  2.3492 -1.3503
  144SOL    HW2  432   3.017   1.032   1.399 -0.5465 -2.3478  0.6782
  145SOL     OW  433   0.956   1.855   0.051 -0.1535  0.8058  0.3141
  145SOL    HW1  434   0.982   1.880  -0.050 -1.8404  2.2889 -0.4964
  145SOL    HW2  435   0.876   1.790   0.058 -0.1946  1.2278  1.0870
  146SOL     OW  436   2.459   0.626   1.536 -0.6496  0.0640  0.0747
  146SOL    HW1  437   2.457   0.543   1.481 -0.4454  1.1734 -0.4561
  146SOL    HW2  438   2.387   0.703   1.514 -1.0238 -0.1248 -1.9683
  147SOL     OW  439   1.059   2.501   0.524 -0.6458 -0.3255 -0.5669
  147SOL    HW1  440   1.003   2.562   0.458  0.7062  0.1311 -1.1756
  147SOL    HW2  441   1.150   2.479   0.484 -0.6780 -0.7788  0.0125
  148SOL     OW  442   1.567   1.386   0.003 -0.4063 -0.1393  0.3789
  148SOL    HW1  443   1.570   1.281  -0.008  0.0648 -0.7000 -1.9336
  148SOL    HW2  444   1.546   1.411   0.098 -1.3009 -0.5668 -2.0309
  149SOL     OW  445   0.706   1.470   1.976  0.6413  0.5194 -0.0970
  149SOL    HW1  446   0.621   1.444   2.027  1.8041 -0.3587 -1.9352
  149SOL    HW2  447   0.708   1.431   1.879 -0.0475  0.1575 -1.7935
  150SOL     OW  448   2.954   1.225   1.013  0.6975 -0.2598  0.2899
  150SOL    HW1  449   3.041   1.242   1.071  2.6479 -2.1721  2.4249
  150SOL    HW2  450   2.931   1.122   1.007 -1.8953  2.6112 -3.5319
  151SOL     OW  451   0.141   0.832   2.113  0.2367  0.1051 -0.2358
  151SOL    HW1  452   0.148   0.930   2.078 -1.1902  0.8488  2.3758
  151SOL    HW2  453   0.206   0.770   2.063 -1.7419 -1.1108  0.0071
  152SOL     OW  454   1.417   1.875   1.113 -0.1431  0.0035  0.0039
  152SOL    HW1  455   1.460   1.966   1.103 -2.4122 -0.7609 -0.3852
  152SOL    HW2  456   1.314   1.873   1.097 -0.0270 -1.8382 -0.4826
  153SOL     OW  457   0.070   1.514   0.250  0.4064  0.3181 -0.3074
  153SOL    HW1  458  -0.004   1.446   0.279  0.8784  0.2764  1.5094
  153SOL    HW2  459   0.114   1.549   0.336 -0.6828 -2.0128 -1.4432
  154SOL     OW  460   2.252   1.886   2.791  0.0707  0.3994  0.0260
  154SOL    HW1  461   2.247   1.781   2.797 -1.1261 -2.9112  1.4974
  154SOL    HW2  462   2.342   1.920   2.746 -0.1904  1.0162 -1.7859
  155SOL     OW  463   2.628   1.344   0.360 -0.0588 -0.3236 -0.0529
  155SOL    HW1  464   2.665   1.422   0.423  2.3029 -0.9039  1.0424
  155SOL    HW2  465   2.697   1.268   0.354 -1.8523 -0.4906  2.3395
  156SOL     OW  466   2.517   0.811   0.749 -0.2226 -0.4191  0.0016
  156SOL    HW1  467   2.416   0.816   0.752 -0.2618 -0.2969  2.5273
  156SOL    HW2  468   2.551   0.848   0.659 -0.2026  1.4614 -1.7798
  157SOL     OW  469   1.222   0.013   3.028 -0.3035  0.3269  0.2502
  157SOL    HW1  470   1.256  -0.031   2.943  1.3736  2.8948  0.1257
  157SOL    HW2  471   1.252   0.110   3.037 -1.7946 -1.7249 -1.4368
  158SOL     OW  472   1.056   1.825   1.864 -0.3635 -0.2835  0.4493
  158SOL    HW1  473   1.076   1.918   1.825 -2.1670 -0.2979 -1.7359
  158SOL    HW2  474   0.968   1.829   1.927  0.1940 -2.6988 -2.9916
  159SOL     OW  475   0.808   0.366   1.194  0.1427 -0.2856 -0.1712
  159SOL    HW1  476   0.779   0.466   1.193 -1.2696  1.1380 -1.6925
  159SOL    HW2  477   0.753   0.298   1.137  2.3860  0.2236 -1.3695
  160SOL     OW  478   1.375   2.456   1.450 -0.0459 -0.4837  0.3634
  160SOL    HW1  479   1.368   2.392   1.531  1.6712  0.4535 -0.2917
  160SOL    HW2  480   1.467   2.446   1.406 -0.9724 -0.2243  0.2946
  161SOL     OW  481   0.067   2.658   0.403  0.6780 -0.1553  0.1815
  161SOL    HW1  482   0.012   2.570   0.407 -0.1223 -1.6790 -0.1495
  161SOL    HW2  483   0.008   2.736   0.368 -0.2967  1.4566 -0.1962
  162SOL     OW  484   2.566   1.940   0.467 -0.0168 -0.0112  0.2345
  162SOL    HW1  485   2.626   1.940   0.380 -1.9921  1.4286 -0.2555
  162SOL    HW2  486   2.501   1.853   0.469  1.6017  0.8680 -2.0592
  163SOL     OW  487   1.897   2.693   0.808 -0.2410 -0.0252 -0.5020
  163SOL    HW1  488   1.883   2.706   0.706  0.0969 -0.5246 -0.1715
  163SOL    HW2  489   1.979   2.641   0.835 -2.1170  1.5799  1.3115
  164SOL     OW  490   3.032   0.145   1.252 -0.5471 -0.2750  0.2815
  164SOL    HW1  491   3.026   0.241   1.212  2.7265 -2.1922  1.8038
  164SOL    HW2  492   3.099   0.134   1.333  1.1419  1.8674 -0.5443
  165SOL     OW  493   1.094   1.384   0.646 -0.3378 -0.5644 -0.1445
  165SOL    HW1  494   1.084   1.459   0.719 -0.6249  1.1409  0.4415
  165SOL    HW2  495   1.044   1.397   0.552 -0.4861 -1.6020  0.3437
  166SOL     OW  496   1.553   0.925   1.806 -0.0808  0.1717 -0.6435
  166SOL    HW1  497   1.455   0.955   1.818 -0.9111  2.0387 -0.9747
  166SOL    HW2  498   1.610   1.007   1.789 -1.7980 -0.1400 -0.4296
  167SOL     OW  499   0.668   2.027   1.515 -0.5213  0.1750  0.0887
  167SOL    HW1  500   0.642   2.115   1.560  1.2785  0.4249 -1.6036
  167SOL    HW2  501   0.604   1.950   1.548 -0.8731  0.8974 -0.0897
  168SOL     OW  502   1.683   2.311   0.142  0.2244  0.1175  0.1092
  168SOL    HW1  503   1.756   2.280   0.082 -2.0052  0.3985  2.1418
  168SOL    HW2  504   1.699   2.291   0.241 -0.0751  0.9632  1.0903
  169SOL     OW  505   3.051   2.593   2.162  0.2522  0.2734  0.3203
  169SOL    HW1  506   3.082   2.551   2.075 -0.8346  0.3884  0.8294
  169SOL    HW2  507   3.093   2.552   2.249 -0.0887 -0.4597 -2.9107
  170SOL     OW  508   1.161   0.145   2.113 -0.0708  0.0068  0.4484
  170SOL    HW1  509   1.262   0.168   2.135 -0.7151  1.5977 -0.5192
  170SOL    HW2  510   1.140   0.108   2.014 -0.9715 -1.2084 -0.8676
  171SOL     OW  511   0.170   0.884   2.439 -0.3924  0.2946 -0.0959
  171SOL    HW1  512   0.081   0.878   2.497  0.3379  0.7562  3.7059
  171SOL    HW2  513   0.157   0.879   2.339  0.0922 -0.6636  1.4386
  172SOL     OW  514   0.999   1.004   2.792  0.4052  0.3149  0.6481
  172SOL    HW1  515   0.953   1.043   2.880  0.2624  2.0448  1.6114
  172SOL    HW2  516   0.954   1.022   2.698  0.1235 -1.6167  1.1986
  173SOL     OW  517   0.337   2.556   3.029 -0.5967 -0.1280 -0.8178
  173SOL    HW1  518   0.341   2.514   2.933  0.2297  0.3374 -1.4220
  173SOL    HW2  519   0.374   2.487   3.101 -1.9136  0.6270  1.8336
  174SOL     OW  520   1.463   2.870   0.981  0.2625  0.6607 -0.1337
  174SOL    HW1  521   1.553   2.900   0.941  1.2371  0.9089 -1.5101
  174SOL    HW2  522   1.449   2.769   0.972  0.1832  1.8958  2.1848
  175SOL     OW  523   0.432   3.094   1.701 -0.7339  0.5083  0.0215
  175SOL    HW1  524   0.489   3.092   1.786 -0.9959  0.7982 -2.2729
  175SOL    HW2  525   0.403   3.187   1.672 -0.4318  0.8152  3.3695
  176SOL     OW  526   2.528   0.473   0.051 -0.0663 -0.3298 -0.4914
  176SOL    HW1  527   2.586   0.549   0.087 -0.3743 -0.7666  1.8300
  176SOL    HW2  528   2.502   0.407   0.122  3.5008 -2.8879 -0.6630
  177SOL     OW  529   0.328   0.114   0.802 -0.6126  0.0141 -0.3304
  177SOL    HW1  530   0.289   0.018   0.831 -1.0878 -3.5223  0.5930
  177SOL    HW2  531   0.432   0.116   0.799  0.8886 -1.4540 -0.9629
  178SOL     OW  532   0.006   2.715   2.623 -0.3003  0.0114 -0.3564
  178SOL    HW1  533  -0.032   2.618   2.621  0.4574  1.5088 -1.5375
  178SOL    HW2  534   0.104   2.718   2.655  0.5994  1.2340 -1.0119
  179SOL     OW  535   2.974   1.587   1.242  0.2329  0.1346 -0.3748
  179SOL    HW1  536   3.053   1.602   1.177  2.0345 -2.1750  2.0939
  179SOL    HW2  537   2.993   1.505   1.299 -0.9915  1.0014  1.3331
  180SOL     OW  538   0.274   1.372   1.734 -0.6934 -0.5716 -0.2458
  180SOL    HW1  539   0.353   1.345   1.796 -1.4171  0.3099  0.7057
  180SOL    HW2  540   0.182   1.401   1.779 -0.7788 -1.3657 -1.0570
  181SOL     OW  541   3.015   1.750   2.465  0.7853 -0.4206 -0.5519
  181SOL    HW1  542   3.094   1.751   2.402  1.4490  1.7573  3.1344
  181SOL    HW2  543   2.928   1.796   2.435  1.3866  1.5364 -4.0864
  182SOL     OW  544   2.209   1.407   1.202  0.1662 -0.1653  0.4780
  182SOL    HW1  545   2.228   1.332   1.269 -0.3395  3.5908 -0.1505
  182SOL    HW2  546   2.236   1.388   1.103  1.5713 -0.2569 -1.0440
  183SOL     OW  547   1.389   2.216   2.459 -0.4376 -0.7172  0.6089
  183SOL    HW1  548   1.333   2.129   2.469  2.3254  0.5889 -0.0805
  183SOL    HW2  549   1.487   2.194   2.440 -1.6659 -0.0805 -0.6717
  184SOL     OW  550   2.239   0.787   0.818  0.0437 -0.0057 -0.2017
  184SOL    HW1  551   2.151   0.807   0.767  1.1704  2.0847 -1.4390
  184SOL    HW2  552   2.263   0.681   0.812  2.0296 -0.5642 -0.7979
  185SOL     OW  553   1.591   2.738   2.017  0.4336  0.0975 -0.5109
  185SOL    HW1  554   1.519   2.814   2.020  0.0482  0.2888  0.2759
  185SOL    HW2  555   1.643   2.733   2.110 -0.7573 -0.0586  1.1251
  186SOL     OW  556   0.005   2.135   1.805 -0.4291 -0.0561 -0.2310
  186SOL    HW1  557  -0.009   2.232   1.846 -1.2088  1.4772  0.6815
  186SOL    HW2  558   0.103   2.119   1.773  0.5395 -5.6287  1.0928
  187SOL     OW  559   1.307   0.656   1.672 -0.0458 -0.4361  0.2130
  187SOL    HW1  560   1.394   0.694   1.635 -0.8750 -2.3419  3.0009
  187SOL    HW2  561   1.326   0.605   1.760 -0.3808 -0.8092  2.7221
  188SOL     OW  562   2.709   2.666   1.577  0.3729  0.3669  0.3621
  188SOL    HW1  563   2.679   2.763   1.590  0.8446 -1.4309 -1.1731
  188SOL    HW2  564   2.671   2.620   1.494 -0.2131 -1.8175 -0.1684
  189SOL     OW  565   0.865   1.143   1.417 -0.0747 -0.3671  0.6949
  189SOL    HW1  566   0.939   1.200   1.464 -1.6208  0.8442 -0.0558
  189SOL    HW2  567   0.828   1.195   1.335 -1.2795 -2.9567 -0.1665
  190SOL     OW  568   1.408   1.845   1.524 -0.3928  0.4942  0.2732
  190SOL    HW1  569   1.360   1.757   1.497 -2.1916 -0.6722 -1.7046
  190SOL    HW2  570   1.416   1.873   1.624  1.4440  1.1957 -1.8919
  191SOL     OW  571   0.880   0.757   1.502  0.7537 -0.2371  0.1861
  191SOL    HW1  572   0.911   0.668   1.542 -0.5556 -2.9777  0.1973
  191SOL    HW2  573   0.944   0.797   1.433 -2.6847  2.6260 -0.1103
  192SOL     OW  574   1.840   2.427   1.133  0.3248 -0.2001  0.2860
  192SOL    HW1  575   1.750   2.391   1.100 -1.4936  0.3461 -2.5127
  192SOL    HW2  576   1.908   2.382   1.065 -2.1905 -0.9332 -1.2588
  193SOL     OW  577   0.493   0.492   0.383  0.0294 -0.0730 -0.3566
  193SOL    HW1  578   0.425   0.416   0.373 -2.1821  0.6300  0.4695
  193SOL    HW2  579   0.553   0.507   0.303 -0.6341  0.2912  1.9815
  194SOL     OW  580   0.415   0.735   1.210  0.7044 -0.4994 -0.3115
  194SOL    HW1  581   0.311   0.732   1.236 -1.0797  0.2670  1.4429
  194SOL    HW2  582   0.434   0.683   1.122  0.3797 -3.0135  0.6565
  195SOL     OW  583   1.024   2.934   0.513 -0.0945  0.7775 -0.4065
  195SOL    HW1  584   1.000   2.846   0.466  1.5190 -0.6633  2.4870
  195SOL    HW2  585   1.114   2.976   0.483 -0.7521  1.1721 -1.7755
  196SOL     OW  586   0.206   1.374   1.357 -0.2680  0.5197  0.0062
  196SOL    HW1  587   0.272   1.453   1.343  2.1941 -2.3934 -2.4848
  196SOL    HW2  588   0.244   1.296   1.419 -1.2289  0.7967  0.4505
  197SOL     OW  589   0.792   1.972   0.245  0.1011  0.0560  0.3954
  197SOL    HW1  590   0.824   1.970   0.341 -1.0476 -1.6236  0.5050
  197SOL    HW2  591   0.871   1.975   0.175  1.4399 -0.7260 -1.4195
  198SOL     OW  592   0.297   1.222   0.317 -0.1244  0.0673  0.3233
  198SOL    HW1  593   0.205   1.186   0.285 -1.6620  2.4763  0.6713
  198SOL    HW2  594   0.289   1.321   0.349  3.6396  0.8262  1.1884
  199SOL     OW  595   2.262   0.410   2.640  0.1156  0.1256 -0.2492
  199SOL    HW1  596   2.189   0.391   2.710  0.8835  0.1986 -2.7332
  199SOL    HW2  597   2.344   0.352   2.657 -2.5190 -0.4298 -0.3075
  200SOL     OW  598   3.078   2.890   0.752  0.3983  0.1598  0.2589
  200SOL    HW1  599   3.094   2.984   0.792 -0.4496 -0.5027 -1.3474
  200SOL    HW2  600   2.983   2.885   0.710  0.7959  0.2364 -3.0042
  201SOL     OW  601   0.929   0.664   0.497 -0.6830  0.2870 -0.6272
  201SOL    HW1  602   0.922   0.746   0.555 -1.6739 -0.2901  1.0441
  201SOL    HW2  603   0.854   0.594   0.522 -0.9985  0.4015  1.7940
  202SOL     OW  604   0.456   1.282   1.905  0.1025 -0.1702 -0.0233
  202SOL    HW1  605   0.538   1.223   1.883 -2.4652 -2.8442  0.0566
  202SOL    HW2  606   0.463   1.339   1.992  0.3328 -0.2939 -0.8365
  203SOL     OW  607   0.627   0.185   1.583 -0.2113  0.4982  0.1376
  203SOL    HW1  608   0.676   0.135   1.510 -0.1963  1.0605  2.6817
  203SOL    HW2  609   0.671   0.180   1.675 -1.3180  0.7009  0.4931
  204SOL     OW  610   2.066   1.844   2.982 -0.2997 -0.1135  0.0374
  204SOL    HW1  611   2.063   1.737   2.981 -1.6374 -0.5295  0.4044
  204SOL    HW2  612   2.151   1.877   2.928 -2.5904 -0.1819  0.0930
  205SOL     OW  613   1.781   1.892   3.010 -0.3104 -0.2033  0.2920
  205SOL    HW1  614   1.882   1.869   3.008  1.4955  0.2263 -0.4925
  205SOL    HW2  615   1.758   1.986   2.970 -1.4434  0.1327  1.6485
  206SOL     OW  616   2.394   2.724   0.305  0.3684  0.0371  0.2372
  206SOL    HW1  617   2.343   2.688   0.387 -0.4213 -0.5546 -2.0972
  206SOL    HW2  618   2.475   2.664   0.287 -1.4207  1.4822  0.9410
  207SOL     OW  619   0.717   1.754   2.909 -0.0809  0.7285 -0.0729
  207SOL    HW1  620   0.794   1.691   2.881 -1.1515  0.5310 -1.2383
  207SOL    HW2  621   0.634   1.707   2.946 -2.0400  4.2767  1.5678
  208SOL     OW  622   1.026   1.589   1.213 -0.3300  0.2332  0.0142
  208SOL    HW1  623   0.943   1.599   1.153 -1.6828  0.4944  2.4266
  208SOL    HW2  624   1.001   1.584   1.314  0.0568 -0.5773 -1.4782
  209SOL     OW  625   0.242   1.010   3.067 -0.0865 -0.0623  0.2095
  209SOL    HW1  626   0.296   0.945   3.000  2.4624 -1.3368  1.1642
  209SOL    HW2  627   0.214   0.955   3.150  1.9190 -3.7229 -2.1215
  210SOL     OW  628   1.752   0.639   1.248  0.8383  0.2679 -0.1393
  210SOL    HW1  629   1.736   0.729   1.197 -0.0180  0.1506  1.7364
  210SOL    HW2  630   1.851   0.617   1.260  1.2428  0.6095 -2.6035
  211SOL     OW  631   2.096   1.125   1.585 -1.1004  0.2538 -0.5119
  211SOL    HW1  632   2.140   1.044   1.631  1.5506  2.4756 -0.5442
  211SOL    HW2  633   2.163   1.201   1.551 -1.4199 -2.2410  2.0748
  212SOL     OW  634   0.070   0.965   1.426  0.1635 -0.1346 -0.2753
  212SOL    HW1  635   0.123   1.040   1.476 -0.3517 -0.7398 -0.0880
  212SOL    HW2  636   0.108   0.869   1.441 -1.8933 -2.1494  0.0315
  213SOL     OW  637   2.849   0.059   0.321  0.3704  0.2431  0.0047
  213SOL    HW1  638   2.938   0.020   0.280 -0.0034 -1.8579 -0.4725
  213SOL    HW2  639   2.776   0.007   0.273  1.2050 -1.0451  2.2227
  214SOL     OW  640   2.219   0.353   2.367  0.0140 -0.1698  0.6640
  214SOL    HW1  641   2.242   0.372   2.469  2.4567 -0.5441 -1.3759
  214SOL    HW2  642   2.168   0.264   2.360 -1.2724  2.2138 -1.0488
  215SOL     OW  643   1.697   2.283   2.071 -0.0270  0.2986 -0.2941
  215SOL    HW1  644   1.783   2.339   2.060  1.1357  2.2228  1.4621
  215SOL    HW2  645   1.619   2.335   2.118 -0.0475  0.7290  3.0135
  216SOL     OW  646   2.297   0.530   0.778 -0.0447 -0.0647  0.2766
  216SOL    HW1  647   2.246   0.449   0.732 -0.8071  1.4605  2.6891
  216SOL    HW2  648   2.399   0.509   0.797  3.3389 -0.6578  0.3011
  217SOL     OW  649   0.888   2.689   2.562 -0.1267 -0.1886 -0.1448
  217SOL    HW1  650   0.901   2.658   2.655 -0.7503  2.4184 -4.3645
  217SOL    HW2  651   0.795   2.663   2.523 -3.1864 -0.1925 -1.0131
  218SOL     OW  652   1.847   1.395   0.016 -0.1901 -0.0785 -0.1796
  218SOL    HW1  653   1.750   1.408  -0.008  2.2783 -1.2078  0.7642
  218SOL    HW2  654   1.870   1.310   0.071  2.1998  1.5583 -1.0783
  219SOL     OW  655   2.420   1.242   2.531 -0.1752  0.0692  0.3557
  219SOL    HW1  656   2.457   1.175   2.460  1.5159  0.7309  3.5757
  219SOL    HW2  657   2.406   1.197   2.623  0.3907 -0.9116 -0.6518
  220SOL     OW  658   1.429   1.069   1.415 -0.0275 -0.4182  0.5580
  220SOL    HW1  659   1.523   1.037   1.454  0.7960  1.2146  0.6974
  220SOL    HW2  660   1.434   1.092   1.311  0.9206  0.9854 -0.3293
  221SOL     OW  661   1.271   0.982   2.128 -0.7106  0.4170 -0.5027
  221SOL    HW1  662   1.290   1.002   2.031  0.6902  0.2871 -0.2209
  221SOL    HW2  663   1.352   1.009   2.190 -1.9302 -1.1480 -0.9800
  222SOL     OW  664   1.156   0.054   1.202 -0.2857 -0.0749  0.0922
  222SOL    HW1  665   1.182   0.101   1.291  0.1630 -2.0509 -0.0849
  222SOL    HW2  666   1.142   0.121   1.123 -0.2307 -1.9196 -0.5295
  223SOL     OW  667   2.725   0.956   2.146 -0.5212 -0.2720  0.2726
  223SOL    HW1  668   2.662   1.024   2.191 -0.9355 -1.6920  0.3875
  223SOL    HW2  669   2.825   0.967   2.176 -2.0943 -0.9898  1.0997
  224SOL     OW  670   1.511   0.977   2.824  0.5433 -0.1770 -0.1404
  224SOL    HW1  671   1.518   0.912   2.748  2.0238 -3.6896  1.2571
  224SOL    HW2  672   1.537   1.074   2.794 -1.5245 -1.0016  1.0045
  225SOL     OW  673   2.955   2.682   2.866 -0.0995  0.0033 -0.0383
  225SOL    HW1  674   2.873   2.661   2.807 -1.1775 -0.5927 -0.4173
  225SOL    HW2  675   3.039   2.704   2.812 -3.5496 -1.3684 -0.6523
  226SOL     OW  676   2.409   1.612   2.836 -0.0412 -0.9595  0.0493
  226SOL    HW1  677   2.449   1.594   2.744  0.8077  1.1172  3.5703
  226SOL    HW2  678   2.413   1.528   2.896 -0.6530  0.3006  0.6661
  227SOL     OW  679   0.908   0.272   2.990 -0.4390  0.0263  0.0223
  227SOL    HW1  680   0.895   0.376   2.992  0.8604 -1.5397  0.1961
  227SOL    HW2  681   0.862   0.240   2.898 -0.8252  4.6407 -0.5954
  228SOL     OW  682   2.397   0.676   2.909 -0.9655  0.3692  0.2484
  228SOL    HW1  683   2.404   0.698   2.806 -1.0795 -1.4106 -0.6325
  228SOL    HW2  684   2.469   0.605   2.944  2.8251 -0.0146  0.3416
  229SOL     OW  685   0.739   0.681   1.789  0.7170  0.2086 -0.7794
  229SOL    HW1  686   0.836   0.697   1.818 -2.7706 -0.8680 -0.4650
  229SOL    HW2  687   0.737   0.597   1.727  0.9193 -0.1356 -2.1420
  230SOL     OW  688   1.906   1.213   1.931  0.6282 -0.0874  0.3856
  230SOL    HW1  689   1.985   1.267   1.886  1.9470 -1.3130  0.8116
  230SOL    HW2  690   1.878   1.255   2.017 -0.8834 -1.3267 -0.9143
  231SOL     OW  691   0.653   1.011   0.023  0.0171 -1.1055  0.1244
  231SOL    HW1  692   0.748   1.048   0.016 -1.7678 -1.1980 -1.5785
  231SOL    HW2  693   0.578   1.086   0.053 -2.4552 -0.8630 -1.2311
  232SOL     OW  694   2.404   2.958   2.781 -0.3697 -0.4194  0.4934
  232SOL    HW1  695   2.463   2.875   2.796  1.3177  0.4272 -0.6621
  232SOL    HW2  696   2.445   3.015   2.704 -0.4721  1.1294 -0.0646
  233SOL     OW  697   1.809   1.112   1.183  0.1977 -0.1394 -0.1749
  233SOL    HW1  698   1.838   1.170   1.102  0.8481  0.9935 -0.1447
  233SOL    HW2  699   1.891   1.066   1.226  0.8592 -0.0008 -0.9671
  234SOL     OW  700   1.652   2.532   1.846 -0.0145  0.2565  0.2501
  234SOL    HW1  701   1.628   2.592   1.931  0.2448  1.8790  1.3668
  234SOL    HW2  702   1.589   2.446   1.840  2.2893  1.4566 -0.4885
  235SOL     OW  703   0.099   3.024   2.892  0.6837  0.2013 -0.1073
  235SOL    HW1  704   0.049   3.020   2.799  1.0702 -0.7844 -0.2589
  235SOL    HW2  705   0.049   3.073   2.969  0.8555  1.0240 -0.7657
  236SOL     OW  706   2.888   0.769   0.042 -0.0926  0.5206 -0.3435
  236SOL    HW1  707   2.949   0.769   0.127  1.9107 -1.0613  0.0375
  236SOL    HW2  708   2.891   0.674   0.002 -1.1238 -1.8342 -1.4857
  237SOL     OW  709   1.518   1.686   0.909 -0.4657 -0.0045 -0.3165
  237SOL    HW1  710   1.624   1.668   0.904 -0.3332 -2.0246  1.6638
  237SOL    HW2  711   1.499   1.743   0.989 -0.3448 -2.6233 -1.0109
  238SOL     OW  712   1.912   1.207   0.720 -0.4006  0.4558 -0.2174
  238SOL    HW1  713   1.937   1.219   0.819 -1.5960 -0.2952  1.3935
  238SOL    HW2  714   1.821   1.261   0.695 -0.1089  1.3374 -0.8567
  239SOL     OW  715   2.075   0.345   2.826  0.5043  0.3251 -0.2542
  239SOL    HW1  716   2.108   0.334   2.920  3.5871 -1.8468 -1.0422
  239SOL    HW2  717   1.971   0.348   2.818  1.7126  0.0695  0.5444
  240SOL     OW  718   0.902   0.680   0.219 -0.1260  0.2739 -0.0438
  240SOL    HW1  719   0.971   0.617   0.172 -0.0351 -2.5207  0.1192
  240SOL    HW2  720   0.909   0.658   0.321 -2.3559 -2.3672  0.5567
  241SOL     OW  721   0.544   0.161   0.295  0.0528 -0.3994 -0.1314
  241SOL    HW1  722   0.620   0.219   0.251  2.9806  0.4530  0.9617
  241SOL    HW2  723   0.553   0.059   0.271  1.0822  0.4945  0.6994
  242SOL     OW  724   0.612   2.619   1.279  0.1608  0.0328  0.3974
  242SOL    HW1  725   0.604   2.589   1.381 -0.7351  2.7173 -1.1905
  242SOL    HW2  726   0.591   2.716   1.261 -1.3254 -0.4031  0.9527
  243SOL     OW  727   1.036   0.590   2.399 -0.3620  0.0573  0.1406
  243SOL    HW1  728   0.943   0.609   2.356  0.1774 -0.6805  0.2814
  243SOL    HW2  729   1.038   0.534   2.481  0.3139  0.4801 -0.9756
  244SOL     OW  730   2.800   1.906   2.385  0.3605 -0.6251 -0.9138
  244SOL    HW1  731   2.806   1.894   2.282 -1.5610 -2.7898 -0.3550
  244SOL    HW2  732   2.717   1.861   2.421 -0.5855 -0.3454  0.5011
  245SOL     OW  733   2.115   1.030   2.211  0.2434  0.1587 -0.4168
  245SOL    HW1  734   2.216   1.034   2.225  0.8873 -0.7873 -2.2325
  245SOL    HW2  735   2.061   1.094   2.277 -0.1914  2.2784  0.5005
  246SOL     OW  736   0.258   2.928   1.825  0.2167 -0.3015  0.1461
  246SOL    HW1  737   0.189   2.900   1.752  0.1739  2.6772 -1.5964
  246SOL    HW2  738   0.348   2.958   1.774  1.5005  1.9376 -1.0306
  247SOL     OW  739   2.207   0.593   3.079  0.0383  0.4151  0.1399
  247SOL    HW1  740   2.278   0.621   3.007  1.2698  1.2143 -0.8001
  247SOL    HW2  741   2.130   0.668   3.079 -1.1076 -1.0715  0.4455
  248SOL     OW  742   2.164   1.886   1.629 -0.0815  0.2756 -0.1607
  248SOL    HW1  743   2.206   1.799   1.670  2.6550 -1.6512  1.6875
  248SOL    HW2  744   2.129   1.951   1.701  1.7359 -0.3572 -0.0889
  249SOL     OW  745   1.880   1.865   1.882 -0.0225 -0.2278  0.5827
  249SOL    HW1  746   1.856   1.799   1.806 -1.0122 -2.7539  1.1089
  249SOL    HW2  747   1.976   1.851   1.922 -0.2165  1.2654  1.9599
  250SOL     OW  748   1.060   0.681   1.861  1.0228 -0.7539 -0.2916
  250SOL    HW1  749   1.133   0.646   1.931  0.2713  0.7584  0.7759
  250SOL    HW2  750   1.068   0.624   1.771 -0.5147 -2.5325 -0.9236
  251SOL     OW  751   3.033   1.482   2.578 -0.6071  0.3837 -0.6698
  251SOL    HW1  752   3.003   1.576   2.555 -0.1327 -0.5556 -2.4498
  251SOL    HW2  753   2.959   1.410   2.574  0.6684 -0.5705  0.5211
  252SOL     OW  754   1.565   0.762   1.575  0.1051 -0.8142 -0.2265
  252SOL    HW1  755   1.590   0.814   1.488 -0.1615  2.5286  0.6945
  252SOL    HW2  756   1.575   0.820   1.660  2.1086 -0.8370 -1.3912
  253SOL     OW  757   0.978   1.464   0.420  0.4209  0.0870 -0.2725
  253SOL    HW1  758   0.976   1.491   0.318  2.7889 -1.6033 -0.1716
  253SOL    HW2  759   0.895   1.499   0.473  1.1197  0.4101 -4.6049
  254SOL     OW  760   2.026   2.196   1.658  0.4864 -0.5906 -0.4351
  254SOL    HW1  761   1.965   2.130   1.607  2.2687  0.8931  0.8769
  254SOL    HW2  762   1.975   2.249   1.732  1.4669 -0.2650 -0.8638
  255SOL     OW  763   0.066   1.196   2.966  0.5435 -0.9875  0.6105
  255SOL    HW1  764   0.117   1.281   2.932  0.1953  1.0114 -1.5373
  255SOL    HW2  765   0.124   1.133   3.016  0.7599  1.6966 -0.1285
  256SOL     OW  766   2.774   1.442   1.800  0.1231  0.1535 -0.3459
  256SOL    HW1  767   2.729   1.453   1.895 -2.9797  1.2618  1.2867
  256SOL    HW2  768   2.724   1.371   1.739  4.3665  1.1542  0.9897
  257SOL     OW  769   0.807   0.186   1.870  0.1435 -0.3437  0.2740
  257SOL    HW1  770   0.863   0.233   1.794  0.2248 -0.7755 -2.3400
  257SOL    HW2  771   0.863   0.117   1.916 -3.2201  5.7559  0.0139
  258SOL     OW  772   2.969   1.174   0.523  0.7559  0.0305  0.7585
  258SOL    HW1  773   2.871   1.182   0.562 -0.8892 -1.4219 -2.2046
  258SOL    HW2  774   3.044   1.194   0.589 -1.4129  0.3735 -1.9374
  259SOL     OW  775   0.443   2.963   3.027  0.3046  0.2890 -0.1617
  259SOL    HW1  776   0.377   2.902   3.078 -0.3729  0.7158  0.8650
  259SOL    HW2  777   0.473   2.917   2.933 -1.3760 -2.2425  0.1830
  260SOL     OW  778   2.694   0.686   2.786 -0.0461 -0.2983  0.1774
  260SOL    HW1  779   2.612   0.742   2.760 -2.7340 -3.1605  1.2354
  260SOL    HW2  780   2.667   0.601   2.838 -0.9584  0.9354  1.0122
  261SOL     OW  781   2.706   1.267   1.283  0.9568 -0.0014 -0.3045
  261SOL    HW1  782   2.636   1.211   1.233  0.5762  0.7980  1.3048
  261SOL    HW2  783   2.775   1.213   1.333  2.1565  2.2529 -0.9308
  262SOL     OW  784   1.419   2.964   1.998 -0.2640  0.5689 -0.0041
  262SOL    HW1  785   1.437   3.057   1.956 -1.2180 -0.5192 -2.0497
  262SOL    HW2  786   1.316   2.940   2.004  0.4523 -2.2645 -0.4066
  263SOL     OW  787   0.808   0.671   2.261  1.0415  0.5301 -0.5285
  263SOL    HW1  788   0.744   0.593   2.228  0.3919  1.2054 -0.5838
  263SOL    HW2  789   0.831   0.736   2.184  0.6866 -2.9853  3.6172
  264SOL     OW  790   2.276   0.822   0.457 -0.1606  0.0761  0.3599
  264SOL    HW1  791   2.276   0.771   0.367  2.3171 -0.7341 -0.5869
  264SOL    HW2  792   2.369   0.861   0.480  2.1265 -0.9309  0.5404
  265SOL     OW  793   0.869   2.308   2.638  0.3071 -0.0944  0.4726
  265SOL    HW1  794   0.860   2.274   2.736  1.7261 -1.1160 -2.1711
  265SOL    HW2  795   0.844   2.236   2.571 -0.3542  0.6762 -2.3701
  266SOL     OW  796   1.284   1.818   3.052  0.3302  0.3489 -0.1472
  266SOL    HW1  797   1.283   1.875   3.138 -0.6702 -1.1410 -1.2879
  266SOL    HW2  798   1.380   1.808   3.015 -3.7683  0.6399 -0.5769
  267SOL     OW  799   1.083   3.021   2.284  0.9428  0.1349 -0.5952
  267SOL    HW1  800   1.028   2.963   2.214 -1.2992 -1.8422  2.9598
  267SOL    HW2  801   1.127   3.107   2.243  1.3462 -2.1913  2.9506
  268SOL     OW  802   0.787   1.300   1.184 -0.6545  0.0823  0.9541
  268SOL    HW1  803   0.710   1.365   1.217 -1.8465 -0.2586  0.9555
  268SOL    HW2  804   0.878   1.351   1.165 -1.4664 -0.3701  2.6710
  269SOL     OW  805   2.315   2.518   1.613 -0.4814 -0.3044  0.2357
  269SOL    HW1  806   2.402   2.477   1.644 -3.6191  1.6130  0.3269
  269SOL    HW2  807   2.248   2.513   1.687  1.4638  1.6775 -0.5413
  270SOL     OW  808   0.111   3.056   2.004 -0.0719  0.6776 -0.0537
  270SOL    HW1  809   0.162   3.016   1.925 -4.1256  0.2115  1.2614
  270SOL    HW2  810   0.071   2.983   2.068 -0.9440 -1.2211  0.5494
  271SOL     OW  811   0.382   1.418   1.116 -0.1405  0.0425  0.0585
  271SOL    HW1  812   0.360   1.429   1.015 -2.6250  2.2417  0.1459
  271SOL    HW2  813   0.316   1.346   1.160 -2.6675 -0.4295 -0.5403
  272SOL     OW  814   1.868   0.020   1.894  0.1471 -0.2242  0.1956
  272SOL    HW1  815   1.811  -0.059   1.853 -1.7211  0.2413 -1.2222
  272SOL    HW2  816   1.864   0.103   1.831  0.0491 -0.9485 -0.7419
  273SOL     OW  817   1.437   1.463   2.853  0.3578 -0.3824  0.3053
  273SOL    HW1  818   1.338   1.475   2.825 -0.5672  2.4768 -0.3444
  273SOL    HW2  819   1.462   1.467   2.954 -0.0628 -2.6355 -0.2685
  274SOL     OW  820   1.174   0.557   2.094  0.0114 -0.4926  0.1116
  274SOL    HW1  821   1.105   0.484   2.100  0.2028  2.2634  1.7001
  274SOL    HW2  822   1.210   0.581   2.188 -2.4797 -0.6375  1.2736
  275SOL     OW  823   0.639   2.132   1.973  0.0241  0.5773 -0.1799
  275SOL    HW1  824   0.574   2.054   1.987  0.0525  0.2679 -0.7434
  275SOL    HW2  825   0.595   2.228   1.980  3.0369  1.3681 -1.7739
  276SOL     OW  826   2.249   0.934   2.874 -0.2413 -0.6082 -0.4108
  276SOL    HW1  827   2.149   0.942   2.846  0.2139  1.2884 -0.7324
  276SOL    HW2  828   2.278   0.837   2.888  0.1025 -0.1905 -0.0243
  277SOL     OW  829   3.078   0.781   0.250 -0.1724  0.4404  0.3200
  277SOL    HW1  830   3.172   0.819   0.229 -0.4768  0.7596 -0.7173
  277SOL    HW2  831   3.085   0.691   0.300 -1.4371 -0.7245 -3.4655
  278SOL     OW  832   0.340   0.240   0.013 -0.0385  0.0800  0.2144
  278SOL    HW1  833   0.405   0.192  -0.056 -0.4522 -0.8609  0.5295
  278SOL    HW2  834   0.339   0.341  -0.001  2.2859 -0.7194  0.4074
  279SOL     OW  835   0.250   2.988   0.925 -0.1893  0.0743  0.4049
  279SOL    HW1  836   0.287   2.976   1.018  1.2504 -0.4162 -1.3394
  279SOL    HW2  837   0.247   2.895   0.876 -1.1063 -0.1689  1.2864
  280SOL     OW  838   1.599   2.893   2.450  0.0882  0.0012  0.0405
  280SOL    HW1  839   1.637   2.967   2.516  1.5174 -1.0930  1.0308
  280SOL    HW2  840   1.523   2.935   2.398 -0.7911  0.6997 -0.3105
  281SOL     OW  841   0.605   0.941   2.347  0.6586  0.1146 -0.5899
  281SOL    HW1  842   0.577   0.856   2.295  0.2515 -2.3241  2.4856
  281SOL    HW2  843   0.594   0.925   2.450 -1.4478 -2.1966 -1.7945
  282SOL     OW  844   1.763   2.464   0.537 -1.1166  0.0909  0.0712
  282SOL    HW1  845   1.740   2.381   0.484  0.7820  1.1572  3.3728
  282SOL    HW2  846   1.711   2.551   0.510  0.8259  1.5067 -2.1726
  283SOL     OW  847   1.160   0.920   0.783 -0.6361 -0.3832  0.0678
  283SOL    HW1  848   1.185   0.852   0.857  0.4317  0.9870  1.3696
  283SOL    HW2  849   1.114   1.004   0.825  1.8750 -0.3642  0.5637
  284SOL     OW  850   2.246   2.836   2.458 -0.4962  0.1778  0.1884
  284SOL    HW1  851   2.344   2.866   2.457 -1.2463 -0.0262  2.0401
  284SOL    HW2  852   2.206   2.816   2.552 -1.0970 -1.3552 -0.0787
  285SOL     OW  853   1.331   3.062   2.556  0.1750  0.1596 -0.1421
  285SOL    HW1  854   1.377   3.044   2.466 -0.9983 -1.6591 -1.6229
  285SOL    HW2  855   1.265   3.134   2.553  1.6875 -1.2004  0.1706
  286SOL     OW  856   0.240   0.330   0.654 -0.5727  0.0230  0.1198
  286SOL    HW1  857   0.275   0.253   0.716  3.4396 -3.2036  1.7364
  286SOL    HW2  858   0.267   0.315   0.556 -1.1250 -2.7925  2.6771
  287SOL     OW  859   0.105   1.256   2.521 -0.0282  0.7301  0.3594
  287SOL    HW1  860   0.052   1.205   2.592 -0.7072 -2.7048 -0.0144
  287SOL    HW2  861   0.067   1.349   2.517  1.1673 -0.7564  1.0232
  288SOL     OW  862   1.509   2.690   1.648  0.1508  0.5990  0.3607
  288SOL    HW1  863   1.569   2.623   1.705  0.1942  1.1762 -0.8063
  288SOL    HW2  864   1.561   2.726   1.567 -0.8678 -0.2820 -1.9988
  289SOL     OW  865   0.602   2.748   0.793 -0.4517 -0.5565  0.1731
  289SOL    HW1  866   0.675   2.784   0.733 -3.2698 -1.1796 -1.4101
  289SOL    HW2  867   0.585   2.803   0.882 -3.0004  1.4012 -1.0701
  290SOL     OW  868   2.825   1.094   1.679 -0.2695 -0.3758 -0.3351
  290SOL    HW1  869   2.756   1.025   1.713 -0.1734 -1.4666  1.5201
  290SOL    HW2  870   2.910   1.094   1.735 -0.3806 -0.1971 -4.5903
  291SOL     OW  871   1.926   0.017   0.074 -0.3381 -0.1906 -0.6218
  291SOL    HW1  872   1.908   0.053   0.171  0.0150  0.5785 -1.7067
  291SOL    HW2  873   2.024   0.036   0.037  1.6714  1.3236  2.0547
  292SOL     OW  874   2.964   1.281   0.036 -0.8572 -0.6011 -0.2450
  292SOL    HW1  875   2.890   1.310  -0.031  2.5727  1.9227  0.1187
  292SOL    HW2  876   3.059   1.277  -0.007 -0.0035  1.2797 -0.6798
  293SOL     OW  877   0.519   2.058   0.240  0.4186 -0.2876 -0.3329
  293SOL    HW1  878   0.540   2.128   0.316  2.8310 -0.1954 -2.5234
  293SOL    HW2  879   0.607   2.004   0.215 -0.8789 -0.4195  0.4792
  294SOL     OW  880   1.881   2.372   1.820  0.3137  0.6935  0.0761
  294SOL    HW1  881   1.908   2.383   1.921 -1.2556  1.0996  0.8773
  294SOL    HW2  882   1.793   2.422   1.800 -0.4257 -0.1260 -2.0549
  295SOL     OW  883   0.941   1.044   0.451 -0.7338  0.5772 -0.4957
  295SOL    HW1  884   1.047   1.056   0.455 -0.4856  0.8692  0.3878
  295SOL    HW2  885   0.905   0.977   0.527  1.4106 -0.3620 -1.5163
  296SOL     OW  886   1.147   2.123   2.704 -0.2994 -0.0535 -0.3675
  296SOL    HW1  887   1.098   2.212   2.709 -0.0771  1.2189 -1.4883
  296SOL    HW2  888   1.169   2.096   2.608 -1.7412  1.7687  0.1455
  297SOL     OW  889   1.329   0.604   1.239  0.3852  0.3138 -0.0043
  297SOL    HW1  890   1.331   0.519   1.296 -0.4257  0.8193  1.8822
  297SOL    HW2  891   1.405   0.613   1.171 -0.4873  0.1453  2.0274
  298SOL     OW  892   0.477   1.334   2.956  0.4676 -0.0731  0.2515
  298SOL    HW1  893   0.478   1.300   3.055  0.1678  2.4263 -1.2362
  298SOL    HW2  894   0.524   1.274   2.888  1.2630 -0.4794 -1.0703
  299SOL     OW  895   0.426   0.192   1.230  0.3965  0.1389 -0.5487
  299SOL    HW1  896   0.380   0.282   1.212  0.3900  0.0929  0.9011
  299SOL    HW2  897   0.419   0.167   1.327  1.1449  0.2182 -4.9584
  300SOL     OW  898   1.257   1.777   2.595 -0.0626 -0.7627  0.6376
  300SOL    HW1  899   1.224   1.699   2.527 -2.1745 -1.2259 -1.8245
  300SOL    HW2  900   1.325   1.753   2.668 -1.0766  0.3224  1.1346
  301SOL     OW  901   0.313   0.290   0.385  0.1583  0.5481 -0.1148
  301SOL    HW1  902   0.225   0.270   0.337 -0.1774 -1.3210 -0.3771
  301SOL    HW2  903   0.383   0.220   0.359  2.2711  0.9369 -1.3029
  302SOL     OW  904   1.269   2.398   2.302  0.0768  0.2007 -0.0262
  302SOL    HW1  905   1.167   2.407   2.311  0.4651 -0.6705 -0.4163
  302SOL    HW2  906   1.305   2.323   2.366  1.4016  1.4153  3.5997
  303SOL     OW  907   0.881   2.450   0.726  0.0279 -0.1844 -0.6310
  303SOL    HW1  908   0.942   2.476   0.643  0.2654  1.0677  0.1707
  303SOL    HW2  909   0.925   2.493   0.809  1.3406 -3.5669  1.1680
  304SOL     OW  910   0.131   1.919   0.701 -0.7082  0.0382  0.3077
  304SOL    HW1  911   0.197   1.925   0.617 -1.5414 -2.2281 -3.8779
  304SOL    HW2  912   0.033   1.930   0.668  1.3729  0.5625  0.2564
  305SOL     OW  913   1.660   0.769   0.684 -0.0857 -0.1011  0.2465
  305SOL    HW1  914   1.574   0.776   0.629  1.6599  1.1808  0.1834
  305SOL    HW2  915   1.711   0.676   0.681 -1.9502 -0.3174  0.6868
  306SOL     OW  916   0.427   1.929   1.992  0.2214  0.3801 -0.2294
  306SOL    HW1  917   0.490   1.856   1.957 -2.5435  0.5265 -1.8025
  306SOL    HW2  918   0.440   1.948   2.090  0.2243 -1.8213 -0.2140
  307SOL     OW  919   3.026   0.903   2.597 -0.1223  0.1642 -0.2935
  307SOL    HW1  920   3.046   0.992   2.646  1.3010 -0.2814  1.9998
  307SOL    HW2  921   3.008   0.829   2.661 -0.5649  0.0163 -1.6008
  308SOL     OW  922   1.495   2.733   2.809  0.4253  0.9782  0.1865
  308SOL    HW1  923   1.444   2.732   2.718 -2.3677  0.4044  0.9177
  308SOL    HW2  924   1.464   2.656   2.876  3.3363 -1.1191  1.9117
  309SOL     OW  925   1.148   0.204   1.817  0.1931 -0.0433  0.2329
  309SOL    HW1  926   1.215   0.130   1.795  1.8496  1.3861 -2.0830
  309SOL    HW2  927   1.088   0.236   1.739  0.4463 -0.1914  0.1438
  310SOL     OW  928   1.403   2.580   0.655  0.1637  0.2955 -0.1167
  310SOL    HW1  929   1.412   2.571   0.759 -0.3382 -0.4961  0.6294
  310SOL    HW2  930   1.477   2.635   0.610 -0.3199 -0.2427  2.4357
  311SOL     OW  931   1.119   0.934   1.717 -0.3019 -0.2645 -0.5317
  311SOL    HW1  932   1.083   0.842   1.744  0.2268  0.7987 -0.0854
  311SOL    HW2  933   1.152   0.936   1.619  1.2485 -1.8445 -0.0731
  312SOL     OW  934   1.491   0.626   1.000  0.1198  0.1591 -0.4256
  312SOL    HW1  935   1.567   0.694   1.017 -1.2776 -0.5011 -0.0662
  312SOL    HW2  936   1.429   0.655   0.922  3.8765 -0.9692 -0.7731
  313SOL     OW  937   1.654   1.318   0.705 -0.0775  0.5643 -0.2551
  313SOL    HW1  938   1.571   1.347   0.759 -0.0016  2.2110  0.6178
  313SOL    HW2  939   1.621   1.254   0.631 -0.2961 -0.6668  0.1417
  314SOL     OW  940   2.988   0.016   3.078 -0.9497 -0.4618 -0.1163
  314SOL    HW1  941   3.026  -0.007   3.175  1.7311  1.1657  1.0356
  314SOL    HW2  942   2.922  -0.053   3.046  1.5179 -1.1852  1.0657
  315SOL     OW  943   1.135   0.221   2.768 -1.1492  0.1242 -0.9487
  315SOL    HW1  944   1.102   0.170   2.685  1.1880 -1.1979  1.9186
  315SOL    HW2  945   1.093   0.184   2.854 -1.7061 -0.9806 -1.7121
  316SOL     OW  946   1.762   2.068   0.855  0.5133  0.3020  0.4898
  316SOL    HW1  947   1.729   2.081   0.950 -0.0229 -1.5137 -0.4470
  316SOL    HW2  948   1.803   2.155   0.809 -0.8476  2.1552 -0.6830
  317SOL     OW  949   1.167   0.692   2.735  0.1184 -0.2138  0.2152
  317SOL    HW1  950   1.113   0.737   2.808 -1.1164 -1.7141 -0.7723
  317SOL    HW2  951   1.114   0.612   2.695  0.8762 -1.5658 -0.9505
  318SOL     OW  952   1.419   3.035   2.275  0.3512 -0.3465 -0.9023
  318SOL    HW1  953   1.433   3.138   2.265  0.5621  0.5464  1.2765
  318SOL    HW2  954   1.405   2.981   2.184  0.4293 -0.1431  0.0276
  319SOL     OW  955   0.636   2.376   3.052  0.3834 -0.5298  0.4128
  319SOL    HW1  956   0.575   2.293   3.053  0.8340 -0.6025  1.7924
  319SOL    HW2  957   0.726   2.345   3.009  1.0267 -2.5605 -1.7314
  320SOL     OW  958   1.708   2.226   0.399  0.2139 -0.5345 -0.5568
  320SOL    HW1  959   1.788   2.163   0.385 -0.4450 -0.5636 -1.1115
  320SOL    HW2  960   1.615   2.183   0.425 -0.5229  0.4171  1.8677
  321SOL     OW  961   1.605   2.704   0.511 -0.2095  0.0328  0.0052
  321SOL    HW1  962   1.563   2.736   0.426  2.5340 -0.8076  1.8566
  321SOL    HW2  963   1.697   2.751   0.533  0.7619 -1.7908 -1.4691
  322SOL     OW  964   2.546   1.056   2.355  0.3183 -0.5261  0.3050
  322SOL    HW1  965   2.631   1.028   2.404 -1.3629 -3.7852 -1.5091
  322SOL    HW2  966   2.480   0.975   2.337 -1.4598 -1.2344  1.3241
  323SOL     OW  967   1.180   2.703   0.786 -0.2529  0.3742  0.6100
  323SOL    HW1  968   1.193   2.676   0.686  0.4090  0.8533 -0.7208
  323SOL    HW2  969   1.200   2.809   0.800 -0.4926 -0.5117  4.7908
  324SOL     OW  970   0.069   2.522   2.387  0.0316 -0.0820 -0.2620
  324SOL    HW1  971   0.034   2.475   2.472  0.1634  0.9242 -0.6833
  324SOL    HW2  972   0.103   2.618   2.416 -2.5015  2.0194 -1.5450
  325SOL     OW  973   1.258   3.037   0.421 -0.8573  0.0530  0.4800
  325SOL    HW1  974   1.217   3.060   0.324  1.1085  1.6368 -2.6736
  325SOL    HW2  975   1.270   3.121   0.484  0.5481  0.8454  2.3242
  326SOL     OW  976   2.478   0.861   0.031  0.4179 -0.6386 -0.2751
  326SOL    HW1  977   2.444   0.797  -0.041  2.5401 -3.1541  0.6823
  326SOL    HW2  978   2.548   0.806   0.092  1.4542 -1.4116  2.0565
  327SOL     OW  979   2.850   0.187   0.573  0.3384 -0.0528  0.0961
  327SOL    HW1  980   2.863   0.137   0.481 -0.2091 -2.1707  1.8731
  327SOL    HW2  981   2.898   0.134   0.649  0.4870  2.1158  0.3952
  328SOL     OW  982   2.659   0.588   0.414  0.1336 -0.1063  0.1689
  328SOL    HW1  983   2.689   0.668   0.476  0.5564 -0.0133  0.2236
  328SOL    HW2  984   2.658   0.496   0.460 -0.4949  0.4047  2.2533
  329SOL     OW  985   2.926   3.067   2.225  0.2005 -0.0092 -0.6632
  329SOL    HW1  986   3.001   2.999   2.213 -0.7577 -0.9315 -1.4852
  329SOL    HW2  987   2.954   3.163   2.191  0.1195  1.5702 -0.6792
  330SOL     OW  988   0.603   0.332   2.013  0.8382 -0.5822 -0.4403
  330SOL    HW1  989   0.684   0.314   1.951  0.5084 -2.1372  0.5715
  330SOL    HW2  990   0.591   0.243   2.065  1.4966  0.0683 -0.2406
  331SOL     OW  991   0.010   1.935   1.123 -0.3030 -0.2876 -0.1980
  331SOL    HW1  992  -0.036   1.997   1.053  1.0517  3.1800 -0.9011
  331SOL    HW2  993  -0.042   1.928   1.213  0.6758 -2.2048  0.0479
  332SOL     OW  994   0.451   1.153   0.101 -0.0445  0.6866 -0.2390
  332SOL    HW1  995   0.386   1.078   0.066 -1.0795 -1.7378  0.5464
  332SOL    HW2  996   0.424   1.186   0.194  2.2836 -1.1841 -1.2177
  333SOL     OW  997   2.908   0.949   0.378  0.1484 -0.4694  0.0114
  333SOL    HW1  998   2.942   1.032   0.432 -3.4052 -4.4504 -2.8727
  333SOL    HW2  999   2.982   0.883   0.352  1.8554  3.6133 -0.5331
  334SOL     OW 1000   1.700   1.178   1.718 -0.3947  0.0420 -0.1317
  334SOL    HW1 1001   1.733   1.210   1.621  0.3968  2.3281  0.8824
  334SOL    HW2 1002   1.772   1.195   1.793  1.8526 -0.1549 -2.4293
  335SOL     OW 1003   1.947   2.757   2.605  0.0978  0.1033  0.1396
  335SOL    HW1 1004   1.854   2.761   2.645 -0.9901 -1.6011 -1.8524
  335SOL    HW2 1005   2.016   2.813   2.662 -0.7669  0.1358 -0.6143
  336SOL     OW 1006   0.273   0.095   2.761  0.2473 -0.1077  0.4907
  336SOL    HW1 1007   0.347   0.131   2.825 -3.3726 -1.8085  1.2177
  336SOL    HW2 1008   0.213   0.026   2.817 -0.4714 -1.7412  0.2693
  337SOL     OW 1009   0.782   2.788   3.043 -0.0290 -0.2147 -0.1682
  337SOL    HW1 1010   0.836   2.712   3.079 -2.5300  3.4863  2.0319
  337SOL    HW2 1011   0.718   2.839   3.111  1.6066 -2.5423 -0.8421
  338SOL     OW 1012   0.077   0.950   0.724 -0.4377 -0.1691 -0.1575
  338SOL    HW1 1013  -0.020   0.913   0.726 -0.2967 -1.1674  0.1114
  338SOL    HW2 1014   0.076   1.055   0.741  1.1022  2.6077  0.6918
  339SOL     OW 1015   1.761   1.371   2.147 -0.2645 -0.1090 -0.0561
  339SOL    HW1 1016   1.663   1.371   2.120  0.9408  0.1713 -1.7193
  339SOL    HW2 1017   1.804   1.463   2.148 -0.2539 -0.8155  0.0420
  340SOL     OW 1018   2.307   0.789   1.152  0.7066  0.1566  1.1695
  340SOL    HW1 1019   2.216   0.836   1.146 -1.6175 -1.0164 -1.5270
  340SOL    HW2 1020   2.306   0.686   1.146 -0.8366  2.6360  1.7158
  341SOL     OW 1021   1.912   2.074   0.294  0.5630 -0.1156  0.2977
  341SOL    HW1 1022   1.959   2.139   0.232 -0.0440  1.4726  1.7691
  341SOL    HW2 1023   1.974   2.024   0.357  1.0555  1.0941 -0.3875
  342SOL     OW 1024   2.130   2.128   2.767 -0.3013  0.0903  0.1334
  342SOL    HW1 1025   2.166   2.031   2.782 -0.5957 -0.5446 -0.5259
  342SOL    HW2 1026   2.042   2.132   2.708 -1.3538  0.7884 -2.0676
  343SOL     OW 1027   0.356   0.832   2.881  0.2805  0.1829  0.3169
  343SOL    HW1 1028   0.337   0.899   2.802 -2.2037  1.2166  0.5329
  343SOL    HW2 1029   0.452   0.802   2.881  0.0123 -3.9375 -1.0068
  344SOL     OW 1030   1.926   1.404   0.378 -0.2457 -0.1190  0.6484
  344SOL    HW1 1031   1.926   1.311   0.326 -0.8069 -1.1003 -1.0983
  344SOL    HW2 1032   1.831   1.438   0.386  0.6830 -1.8946 -1.8081
  345SOL     OW 1033   1.382   2.188   2.833 -0.7878  0.0513 -0.8204
  345SOL    HW1 1034   1.286   2.156   2.813 -0.0159  0.4237  2.5530
  345SOL    HW2 1035   1.449   2.174   2.758  1.3574  0.8619  0.3312
  346SOL     OW 1036   2.283   0.823   1.427 -0.0315 -0.0492  0.7637
  346SOL    HW1 1037   2.183   0.840   1.445 -2.3888  0.8425 -0.2995
  346SOL    HW2 1038   2.294   0.791   1.329  0.9266 -2.5911  0.2840
  347SOL     OW 1039   0.711   2.803   1.711 -0.0416  0.0902  0.3153
  347SOL    HW1 1040   0.803   2.837   1.702  0.0016  1.2364  1.6434
  347SOL    HW2 1041   0.653   2.833   1.632  3.6172 -0.3239 -0.3468
  348SOL     OW 1042   0.185   0.628   2.837 -0.1466 -0.1227  0.4608
  348SOL    HW1 1043   0.085   0.658   2.833  0.3734 -0.2995 -1.5330
  348SOL    HW2 1044   0.253   0.706   2.833  0.4805  0.5108  0.9729
  349SOL     OW 1045   1.802   0.425   2.821  0.4106  0.1460 -0.2918
  349SOL    HW1 1046   1.800   0.515   2.764 -0.1552  3.0408  0.2542
  349SOL    HW2 1047   1.798   0.446   2.923  0.1997  1.2933  0.1056
  350SOL     OW 1048   1.754   0.364   0.406  0.1389  0.0274  0.5641
  350SOL    HW1 1049   1.825   0.321   0.473  1.3259  0.4690 -2.9646
  350SOL    HW2 1050   1.782   0.446   0.347 -0.2518 -4.0826  1.7723
  351SOL     OW 1051   0.918   0.817   2.041  0.3569 -0.0040  0.0838
  351SOL    HW1 1052   0.915   0.915   2.018 -0.5450 -0.0184 -0.1593
  351SOL    HW2 1053   0.979   0.755   1.977  0.1783 -2.5127  0.1778
  352SOL     OW 1054   2.084   1.474   0.589 -0.1593  0.2733  0.1389
  352SOL    HW1 1055   2.031   1.452   0.506 -1.0049  1.7829  2.3458
  352SOL    HW2 1056   2.073   1.409   0.668  3.1259  0.7311  2.2802
  353SOL     OW 1057   2.173   2.718   1.154 -0.0085  0.1452  0.2211
  353SOL    HW1 1058   2.247   2.673   1.212  0.1703  1.9630 -0.8967
  353SOL    HW2 1059   2.085   2.730   1.207 -1.6287  2.3500 -2.3788
  354SOL     OW 1060   0.233   1.408   2.884  0.4118  0.0339 -0.0128
  354SOL    HW1 1061   0.224   1.479   2.807  0.2638  0.0824 -1.2028
  354SOL    HW2 1062   0.332   1.379   2.912 -0.6110 -2.0159 -0.7775
  355SOL     OW 1063   0.737   1.582   0.547  0.1242 -0.4295 -0.7808
  355SOL    HW1 1064   0.701   1.555   0.644 -1.8918  1.0654 -0.7336
  355SOL    HW2 1065   0.702   1.527   0.465  1.2472  2.5557 -0.9980
  356SOL     OW 1066   0.995   0.358   2.084 -0.2213 -0.3834 -0.1673
  356SOL    HW1 1067   1.064   0.281   2.092 -1.6932  0.2051 -1.6962
  356SOL    HW2 1068   0.957   0.359   1.989  0.2468  0.9587  0.3751
  357SOL     OW 1069   1.027   1.531   0.146 -0.0204  0.3635 -0.3205
  357SOL    HW1 1070   1.035   1.455   0.074 -2.8967  0.1898 -0.0991
  357SOL    HW2 1071   1.114   1.556   0.196 -2.2228 -0.4402  0.0343
  358SOL     OW 1072   1.669   1.482   0.477 -0.4165 -0.3912  0.7291
  358SOL    HW1 1073   1.658   1.432   0.569 -1.5888 -0.1741  2.5466
  358SOL    HW2 1074   1.625   1.434   0.396  1.1977 -0.6555  0.2778
  359SOL     OW 1075   1.629   2.587   0.191  0.3700  0.5787 -0.0160
  359SOL    HW1 1076   1.640   2.494   0.148  0.1429  0.0037  2.4897
  359SOL    HW2 1077   1.535   2.627   0.186  1.2072 -0.2472 -2.0896
  360SOL     OW 1078   0.697   0.516   0.561 -0.3339 -0.5668  0.2930
  360SOL    HW1 1079   0.621   0.502   0.499  4.2245  0.7234 -0.0608
  360SOL    HW2 1080   0.740   0.428   0.586  0.5083  4.3370  0.1161
  361SOL     OW 1081   1.355   1.316   0.570 -0.1709  0.2251 -0.2244
  361SOL    HW1 1082   1.405   1.378   0.639 -0.5351  3.4428 -0.1556
  361SOL    HW2 1083   1.251   1.345   0.557 -1.9504  0.0305 -0.3770
  362SOL     OW 1084   1.392   1.861   0.733 -0.0460  0.1362  0.1730
  362SOL    HW1 1085   1.427   1.794   0.801  0.3678  1.0948 -0.3596
  362SOL    HW2 1086   1.471   1.902   0.679 -3.5063  1.1485 -2.4519
  363SOL     OW 1087   1.263   1.314   1.934  0.5107 -0.0655  0.6568
  363SOL    HW1 1088   1.345   1.347   1.984 -0.7632  2.3265  1.3977
  363SOL    HW2 1089   1.191   1.388   1.929 -0.2955 -2.0632 -1.0518
  364SOL     OW 1090   0.552   2.403   2.007 -0.2257 -0.2666  0.6921
  364SOL    HW1 1091   0.447   2.413   1.997  0.0292  0.7832  1.1896
  364SOL    HW2 1092   0.597   2.497   2.010 -2.0397 -1.3354 -1.6232
  365SOL     OW 1093   0.920   1.963   1.406  0.1440  0.4285 -0.5436
  365SOL    HW1 1094   0.837   1.995   1.461 -0.4343  2.8950 -0.1665
  365SOL    HW2 1095   0.906   1.991   1.309 -0.0370  0.9885  0.0579
  366SOL     OW 1096   2.691   1.850   0.255 -0.3697 -0.5878 -0.4898
  366SOL    HW1 1097   2.603   1.804   0.227 -0.1094  1.6001  1.2555
  366SOL    HW2 1098   2.772   1.790   0.281  0.2141 -0.4909  1.0406
  367SOL     OW 1099   0.945   1.104   3.053  0.3743  0.3579  0.2833
  367SOL    HW1 1100   0.978   1.047   3.133 -1.8877  2.6106  1.1784
  367SOL    HW2 1101   0.987   1.197   3.046  2.1582  0.7029  1.7996
  368SOL     OW 1102   1.469   0.470   0.501  0.2727 -0.1818  0.7894
  368SOL    HW1 1103   1.420   0.420   0.423 -0.0529 -0.3817 -2.4418
  368SOL    HW2 1104   1.534   0.542   0.455 -2.7632  0.2503 -2.4699
  369SOL     OW 1105   0.309   1.626   0.135 -0.0635  0.2310 -0.2186
  369SOL    HW1 1106   0.375   1.660   0.212 -0.8375 -0.4950  0.2022
  369SOL    HW2 1107   0.233   1.573   0.175  0.5030  2.3237 -0.9674
  370SOL     OW 1108   0.461   2.125   1.018  0.6504  0.0033 -0.0050
  370SOL    HW1 1109   0.461   2.228   1.001  1.3417 -2.2705 -1.0216
  370SOL    HW2 1110   0.373   2.079   0.981  0.9087 -0.4542  0.5446
  371SOL     OW 1111   2.923   2.172   2.681  0.6959  0.5206 -0.0561
  371SOL    HW1 1112   2.991   2.102   2.660  1.6421 -0.1088  1.5417
  371SOL    HW2 1113   2.938   2.214   2.774 -2.0024 -0.2159  0.7185
  372SOL     OW 1114   0.968   2.136   1.123 -0.0958  0.5409 -0.4034
  372SOL    HW1 1115   0.912   2.177   1.049  2.1487 -1.3494  0.1385
  372SOL    HW2 1116   1.045   2.201   1.156 -0.9995  3.3058  1.4173
  373SOL     OW 1117   1.919   1.860   0.992  0.6602  0.4255 -0.8562
  373SOL    HW1 1118   2.008   1.902   1.008 -0.8472 -2.2713  1.0563
  373SOL    HW2 1119   1.853   1.925   0.942 -0.1690 -0.9040 -3.6191
  374SOL     OW 1120   1.959   0.275   0.572  0.2567  0.0886 -0.0740
  374SOL    HW1 1121   1.914   0.244   0.660  2.0583 -0.3618  1.6094
  374SOL    HW2 1122   2.059   0.307   0.589 -0.9454 -0.7457  1.5627
  375SOL     OW 1123   2.406   2.111   1.069 -0.5017 -0.6228 -0.7106
  375SOL    HW1 1124   2.446   2.064   0.983  1.3905  1.1202 -0.1164
  375SOL    HW2 1125   2.480   2.117   1.148 -2.0689 -0.8205  2.7707
  376SOL     OW 1126   3.091   0.594   1.466  0.6804 -0.4260  0.3397
  376SOL    HW1 1127   3.111   0.648   1.549  2.3325  1.3008 -2.5739
  376SOL    HW2 1128   3.024   0.518   1.482  0.1143 -1.2550 -0.8525
  377SOL     OW 1129   2.285   2.947   0.162  0.6587  0.4315  0.3172
  377SOL    HW1 1130   2.229   3.014   0.217 -0.5924 -1.8197  0.1023
  377SOL    HW2 1131   2.305   2.857   0.209 -0.3454  0.2482  0.0296
  378SOL     OW 1132   1.906   1.892   2.482  0.0046 -0.2477 -0.6024
  378SOL    HW1 1133   1.997   1.844   2.479  0.1946  0.0484  0.3727
  378SOL    HW2 1134   1.831   1.823   2.469  0.6396 -0.2288  2.5260
  379SOL     OW 1135   0.803   0.166   2.790  0.1101 -0.0742  0.4140
  379SOL    HW1 1136   0.833   0.069   2.765  0.8305 -3.6542  0.3888
  379SOL    HW2 1137   0.770   0.228   2.706 -0.9178  2.8299 -1.1958
  380SOL     OW 1138   1.529   1.099   0.572 -0.3490  0.1830 -0.0776
  380SOL    HW1 1139   1.450   1.165   0.574  0.7596 -0.8169  1.0895
  380SOL    HW2 1140   1.491   1.001   0.562 -3.7209 -1.3849  1.6875
  381SOL     OW 1141   1.275   1.277   1.434 -0.1696  0.6367 -0.2757
  381SOL    HW1 1142   1.358   1.210   1.446  0.7665 -0.7963  1.0838
  381SOL    HW2 1143   1.310   1.367   1.398  0.5998 -1.1734  0.5503
  382SOL     OW 1144   1.810   0.843   0.263 -0.0031  0.0708  0.0223
  382SOL    HW1 1145   1.819   0.777   0.179 -1.1643 -2.1727 -0.6842
  382SOL    HW2 1146   1.860   0.803   0.348  0.4609  1.6425 -0.0342
  383SOL     OW 1147   2.515   0.971   1.473  0.7989 -0.2024  0.1958
  383SOL    HW1 1148   2.416   0.943   1.451 -0.3165 -1.7200  1.4957
  383SOL    HW2 1149   2.582   0.965   1.392 -1.2047 -1.0518  2.1471
  384SOL     OW 1150   0.959   2.263   0.220  0.2775 -0.6051 -0.9163
  384SOL    HW1 1151   0.886   2.336   0.210 -0.5161  0.6125 -0.1713
  384SOL    HW2 1152   0.983   2.258   0.318 -4.4275 -0.8898 -1.9941
  385SOL     OW 1153   2.899   2.024   1.627 -0.0325 -0.0902  0.2794
  385SOL    HW1 1154   2.985   2.040   1.685 -1.0440 -3.0818 -1.4500
  385SOL    HW2 1155   2.853   1.930   1.651 -1.9587 -0.5086  1.5991
  386SOL     OW 1156   0.502   1.033   0.451  0.4729  0.3296 -1.0175
  386SOL    HW1 1157   0.483   0.930   0.461 -2.3577  0.2663  0.5523
  386SOL    HW2 1158   0.419   1.075   0.409  1.6989 -0.9477  4.9998
  387SOL     OW 1159   0.952   0.274   1.651 -0.1534  0.2095  0.5053
  387SOL    HW1 1160   0.953   0.376   1.633 -1.2804  0.8382  2.2470
  387SOL    HW2 1161   0.945   0.214   1.567 -2.1007  0.9737  1.8752
  388SOL     OW 1162   1.249   2.731   1.808  0.6948 -0.2200  0.0917
  388SOL    HW1 1163   1.288   2.759   1.719 -0.5871 -0.8351  0.1400
  388SOL    HW2 1164   1.299   2.652   1.855 -0.0039  0.2692  0.9254
  389SOL     OW 1165   0.117   2.920   1.357 -0.1451 -1.0368  0.5352
  389SOL    HW1 1166   0.026   2.931   1.311  1.8970 -1.7995  2.1176
  389SOL    HW2 1167   0.159   2.831   1.325 -0.4714  1.4339 -2.3108
  390SOL     OW 1168   1.034   0.948   1.347 -0.3214 -0.7182 -0.5244
  390SOL    HW1 1169   1.128   0.947   1.392  2.0084 -1.9130 -1.1765
  390SOL    HW2 1170   0.974   1.019   1.392  2.2404  1.2460 -0.3105
  391SOL     OW 1171   2.154   1.107   1.115  0.4797 -0.3302 -0.6033
  391SOL    HW1 1172   2.085   1.034   1.143 -1.3008  3.7116  0.7899
  391SOL    HW2 1173   2.193   1.081   1.023 -0.8940  0.6088 -0.2733
  392SOL     OW 1174   0.928   2.584   0.036  0.6001 -0.6409 -0.3856
  392SOL    HW1 1175   1.016   2.526   0.018  0.0426 -0.3434 -0.3149
  392SOL    HW2 1176   0.858   2.541   0.100  0.5516  0.1092  0.7960
  393SOL     OW 1177   0.338   0.677   1.957 -0.1037  0.0507  0.5307
  393SOL    HW1 1178   0.308   0.578   1.953  1.4459  0.1657  0.8297
  393SOL    HW2 1179   0.345   0.725   1.865 -0.4741 -0.8938  2.5373
  394SOL     OW 1180   3.095   1.932   2.692  0.3605  0.2979 -0.4688
  394SOL    HW1 1181   3.163   1.909   2.763  0.3552  1.6924 -2.8653
  394SOL    HW2 1182   3.113   1.872   2.609  1.1171 -3.2164 -0.0260
  395SOL     OW 1183   1.633   1.966   0.629 -0.0294 -0.0809 -0.0279
  395SOL    HW1 1184   1.695   1.901   0.571 -2.9970 -0.7579  0.3048
  395SOL    HW2 1185   1.680   2.003   0.712 -0.5201 -0.8852 -0.2223
  396SOL     OW 1186   2.908   1.915   1.329  0.3367  0.2773  0.7394
  396SOL    HW1 1187   2.875   1.819   1.303 -1.0927  0.1378  1.9117
  396SOL    HW2 1188   2.918   1.925   1.428 -1.6622  2.5598 -1.9954
  397SOL     OW 1189   1.055   2.233   0.488  0.2348  0.1699  0.1052
  397SOL    HW1 1190   0.960   2.209   0.521  1.4938  1.5700 -1.4691
  397SOL    HW2 1191   1.088   2.327   0.522 -0.0098 -0.0413  3.4060
  398SOL     OW 1192   2.177   3.066   1.177 -0.6798  0.4118  0.0329
  398SOL    HW1 1193   2.102   2.999   1.196  0.8287  2.5471 -0.2298
  398SOL    HW2 1194   2.158   3.147   1.113  0.1057  1.1876 -0.4723
  399SOL     OW 1195   3.067   2.410   2.629  0.4909 -0.5205 -0.4487
  399SOL    HW1 1196   3.005   2.334   2.594 -2.5401 -1.0228  0.3207
  399SOL    HW2 1197   3.148   2.380   2.689 -0.7618 -0.9278 -1.7747
  400SOL     OW 1198   0.672   1.743   1.364  0.8370 -0.1390  0.4743
  400SOL    HW1 1199   0.621   1.771   1.451  0.8169  0.5723 -1.7359
  400SOL    HW2 1200   0.734   1.819   1.336 -1.6434 -2.0043 -0.1332
  401SOL     OW 1201   1.857   0.314   1.139  0.1088  0.4136 -0.1787
  401SOL    HW1 1202   1.885   0.312   1.242  4.9356  0.5828  0.3450
  401SOL    HW2 1203   1.764   0.350   1.125 -0.4114  0.4555  0.3534
  402SOL     OW 1204   1.335   0.244   3.082 -0.0377  0.3424 -0.6138
  402SOL    HW1 1205   1.418   0.201   3.032  1.3775  0.7340  2.1146
  402SOL    HW2 1206   1.293   0.326   3.032 -0.0359 -0.2842  0.5495
  403SOL     OW 1207   2.206   1.886   0.817 -0.5324  0.0636  0.3445
  403SOL    HW1 1208   2.310   1.891   0.817  1.4860  2.4636  1.7643
  403SOL    HW2 1209   2.163   1.913   0.911  0.7797  0.6245  2.6052
  404SOL     OW 1210   0.301   2.502   2.767  0.2008  0.9777  0.3539
  404SOL    HW1 1211   0.369   2.481   2.691  0.4508  1.3696  1.1380
  404SOL    HW2 1212   0.280   2.600   2.777  1.9938 -1.0471  3.0510
  405SOL     OW 1213   0.153   2.415   0.673 -0.5620  0.1016 -0.4859
  405SOL    HW1 1214   0.131   2.323   0.616  0.7052 -1.2389 -0.9894
  405SOL    HW2 1215   0.234   2.469   0.626 -0.0028  0.1029 -1.5600
  406SOL     OW 1216   0.057   1.556   3.049  0.2778  0.1276 -0.0568
  406SOL    HW1 1217   0.119   1.497   2.983  1.3154 -1.3269  1.2487
  406SOL    HW2 1218   0.112   1.572   3.136  0.2709  1.8796  0.0392
  407SOL     OW 1219   1.613   0.863   0.957 -0.2282 -0.2608  0.0199
  407SOL    HW1 1220   1.608   0.827   0.859 -0.8757 -0.4608 -1.7079
  407SOL    HW2 1221   1.538   0.926   0.983  0.4513 -0.0992 -1.5775
  408SOL     OW 1222   1.585   2.404   0.983  0.4338  1.0608 -0.0353
  408SOL    HW1 1223   1.663   2.386   0.916 -1.1742 -0.1750 -0.3921
  408SOL    HW2 1224   1.531   2.487   0.962  3.1864  0.2736 -0.4371
  409SOL     OW 1225   0.601   0.819   0.682  0.0067 -0.7537 -0.0918
  409SOL    HW1 1226   0.542   0.804   0.598 -0.2072  3.2354 -0.7629
  409SOL    HW2 1227   0.625   0.732   0.729  0.0664  1.2447 -3.0792
  410SOL     OW 1228   1.187   2.033   1.431 -0.1815  0.3497 -0.0134
  410SOL    HW1 1229   1.248   1.954   1.441  1.1675  0.5148 -0.9237
  410SOL    HW2 1230   1.086   2.009   1.432  1.5745  1.3226 -3.2481
  411SOL     OW 1231   2.540   1.822   3.002  0.4637 -0.3522 -0.6446
  411SOL    HW1 1232   2.589   1.905   2.965 -1.9523  2.0566 -3.1487
  411SOL    HW2 1233   2.479   1.780   2.928 -0.6526  1.0137  0.1096
  412SOL     OW 1234   1.491   2.449   2.171 -0.0448 -0.0079  0.2119
  412SOL    HW1 1235   1.571   2.491   2.222 -1.4285 -0.6080 -1.2938
  412SOL    HW2 1236   1.416   2.417   2.236 -0.3187 -0.9924 -0.6378
  413SOL     OW 1237   0.041   0.263   3.025  0.0952  0.5237 -0.3747
  413SOL    HW1 1238   0.000   0.171   3.034 -0.4613  0.8459  2.5577
  413SOL    HW2 1239   0.140   0.271   3.056  2.8723  1.7982 -0.1079
  414SOL     OW 1240   1.733   1.526   1.126  0.1805 -0.3207 -0.8042
  414SOL    HW1 1241   1.674   1.599   1.169  0.0686 -0.8138 -0.9526
  414SOL    HW2 1242   1.757   1.541   1.028 -0.2794  0.4027  2.9538
  415SOL     OW 1243   0.379   2.176   0.652  0.3427  0.3430  0.0711
  415SOL    HW1 1244   0.364   2.171   0.758 -1.5351  0.3427 -1.0965
  415SOL    HW2 1245   0.281   2.166   0.609 -2.6840 -0.6130  1.2480
  416SOL     OW 1246   0.355   1.099   1.071  0.0813 -0.2006 -0.1230
  416SOL    HW1 1247   0.322   1.011   1.021 -0.1381  1.7785 -3.1738
  416SOL    HW2 1248   0.456   1.119   1.049 -0.5196 -0.3547 -0.2353
  417SOL     OW 1249   2.343   2.434   2.121 -0.5338  0.1066  0.0538
  417SOL    HW1 1250   2.382   2.338   2.109 -0.1928 -3.3340 -0.5149
  417SOL    HW2 1251   2.306   2.448   2.219 -0.3457  0.9078  2.3303
  418SOL     OW 1252   1.035   0.526   1.330  0.3427 -0.0556  0.2603
  418SOL    HW1 1253   0.982   0.479   1.253 -0.9617 -2.6711 -0.3923
  418SOL    HW2 1254   1.115   0.582   1.290 -1.0503  1.4160  0.1320
  419SOL     OW 1255   0.886   0.567   2.960  0.1194  0.3512  0.0236
  419SOL    HW1 1256   0.797   0.603   2.986  2.2624 -1.7284  0.2326
  419SOL    HW2 1257   0.954   0.647   2.967 -2.1010  2.0515  0.3043
  420SOL     OW 1258   0.103   2.191   0.524 -0.6619  0.1740 -0.1433
  420SOL    HW1 1259   0.159   2.179   0.433  1.4601 -1.6808 -0.7173
  420SOL    HW2 1260   0.039   2.104   0.541 -0.1897 -0.8962  2.1139
  421SOL     OW 1261   0.326   2.972   0.540  0.4035  0.0977  0.3134
  421SOL    HW1 1262   0.293   2.928   0.629  0.6400 -0.6832 -1.4074
  421SOL    HW2 1263   0.418   3.020   0.548  1.0230  0.3219  0.3765
  422SOL     OW 1264   1.013   2.569   0.944  0.0978  0.2301  0.0403
  422SOL    HW1 1265   1.085   2.609   0.877 -0.8933  1.1452 -1.2559
  422SOL    HW2 1266   1.056   2.519   1.027  0.5108 -2.2026  1.5361
  423SOL     OW 1267   0.145   0.692   1.251  0.0882 -1.0742  0.0258
  423SOL    HW1 1268   0.079   0.659   1.323 -1.0734  2.6791  0.1169
  423SOL    HW2 1269   0.094   0.763   1.187  0.4584  0.8910 -2.2127
  424SOL     OW 1270   1.129   2.201   2.039  0.1633 -0.5591 -0.0208
  424SOL    HW1 1271   1.094   2.299   2.037 -1.5744 -1.5607  1.8702
  424SOL    HW2 1272   1.101   2.145   2.122  0.1148  0.9663  1.2024
  425SOL     OW 1273   1.934   1.279   0.999  0.5993 -0.7782  0.3342
  425SOL    HW1 1274   2.021   1.236   1.040  0.4671  1.3283 -2.0666
  425SOL    HW2 1275   1.949   1.382   1.007  0.1007 -0.9081  2.4508
  426SOL     OW 1276   1.463   1.626   1.237 -0.0039  0.7561  0.5221
  426SOL    HW1 1277   1.473   1.715   1.180 -1.6185 -0.7135 -0.5502
  426SOL    HW2 1278   1.400   1.633   1.319 -1.1110  0.7204 -1.6231
  427SOL     OW 1279   1.940   2.418   2.086  0.1828  0.4733 -0.0884
  427SOL    HW1 1280   1.997   2.363   2.152 -0.9716  1.4335 -0.5315
  427SOL    HW2 1281   1.959   2.514   2.099  1.9859  0.4909  0.9810
  428SOL     OW 1282   0.872   0.046   0.047 -0.0645 -0.6216 -0.5195
  428SOL    HW1 1283   0.907   0.125  -0.013  2.2696 -1.4256 -1.2202
  428SOL    HW2 1284   0.944  -0.030   0.053 -1.0916 -0.0504 -1.8363
  429SOL     OW 1285   1.289   0.169   0.240 -0.0839  0.5183 -0.5745
  429SOL    HW1 1286   1.379   0.172   0.285 -2.3451  0.6400  1.2222
  429SOL    HW2 1287   1.298   0.183   0.137 -0.7948 -0.9395  2.3590
  430SOL     OW 1288   2.901   1.404   0.277  0.5899  0.7954  0.3921
  430SOL    HW1 1289   2.908   1.445   0.184 -0.1676  2.8077  0.3537
  430SOL    HW2 1290   2.835   1.454   0.326  3.5534 -0.4089 -2.6250
  431SOL     OW 1291   2.066   1.560   0.900  0.2967 -0.3069 -0.0832
  431SOL    HW1 1292   2.114   1.611   0.973  0.9161 -1.1135 -0.2858
  431SOL    HW2 1293   1.990   1.616   0.855 -1.3009 -0.6157  1.0950
  432SOL     OW 1294   2.934   2.162   1.216  0.4894  0.0618 -0.3144
  432SOL    HW1 1295   2.914   2.060   1.241 -3.0114  1.0497 -1.0208
  432SOL    HW2 1296   2.964   2.217   1.298 -1.5820  0.7095 -0.3925
  433SOL     OW 1297   1.864   0.257   0.814  0.2186  0.0531  0.1952
  433SOL    HW1 1298   1.791   0.298   0.877 -0.7390 -1.9114 -1.0156
  433SOL    HW2 1299   1.951   0.254   0.862 -0.7748 -3.0103 -2.8082
  434SOL     OW 1300   1.567   0.277   0.698  0.3396 -0.0275  1.0259
  434SOL    HW1 1301   1.544   0.350   0.622 -0.6572 -2.3662 -0.7674
  434SOL    HW2 1302   1.611   0.317   0.781 -1.3809 -3.0082  1.3122
  435SOL     OW 1303   1.480   1.429   2.109  0.2214  0.5975  0.0093
  435SOL    HW1 1304   1.474   1.441   2.212 -0.3185  1.0904 -3.5107
  435SOL    HW2 1305   1.497   1.521   2.062 -0.3285  1.2559  0.1790
  436SOL     OW 1306   1.715   2.721   2.256  0.2131  0.1537  0.2657
  436SOL    HW1 1307   1.671   2.783   2.323 -0.7337 -0.0303 -0.8250
  436SOL    HW2 1308   1.710   2.619   2.287 -0.6781 -0.2347 -0.2734
  437SOL     OW 1309   1.127   2.971   0.899  0.0763  0.2330 -0.2729
  437SOL    HW1 1310   1.043   3.027   0.876  0.1935 -3.0337 -0.8326
  437SOL    HW2 1311   1.133   2.934   0.994  1.8590 -0.0266 -0.5185
  438SOL     OW 1312   1.016   2.696   1.520 -0.6545 -0.1989  0.4423
  438SOL    HW1 1313   1.120   2.713   1.503  0.2159 -0.0623 -1.9077
  438SOL    HW2 1314   0.984   2.627   1.443 -1.4760 -2.5954 -1.1367
  439SOL     OW 1315   0.712   1.862   1.114  0.2066  0.4672  0.5159
  439SOL    HW1 1316   0.703   1.958   1.078 -0.8929 -2.8604 -2.9239
  439SOL    HW2 1317   0.619   1.826   1.148 -0.1639  0.0775 -0.4768
  440SOL     OW 1318   1.044   2.466   1.984 -0.2746 -0.5796 -0.1696
  440SOL    HW1 1319   1.002   2.496   1.891 -1.0513 -1.2554 -1.4774
  440SOL    HW2 1320   1.132   2.519   1.997 -1.9720  4.3219  1.4971
  441SOL     OW 1321   0.388   2.710   1.514  0.1999  0.2726  0.5840
  441SOL    HW1 1322   0.446   2.636   1.552  0.3472  0.8826  0.6460
  441SOL    HW2 1323   0.342   2.677   1.427  3.9066  2.2351 -0.9839
  442SOL     OW 1324   2.252   0.674   2.526  0.3879  0.5001 -0.1924
  442SOL    HW1 1325   2.278   0.578   2.561 -2.0347  0.6117  1.3496
  442SOL    HW2 1326   2.153   0.705   2.546 -1.5519  0.9342 -0.1253
  443SOL     OW 1327   1.211   2.660   2.214 -0.1609  0.2493 -0.5033
  443SOL    HW1 1328   1.171   2.708   2.296  2.3894  2.3658  1.4834
  443SOL    HW2 1329   1.263   2.575   2.236 -0.0440  1.0379 -0.5352
  444SOL     OW 1330   1.033   1.323   1.548  0.0339 -0.3877 -0.1613
  444SOL    HW1 1331   1.133   1.304   1.528 -0.8505 -0.4616  1.7147
  444SOL    HW2 1332   0.997   1.417   1.523 -0.8464  0.0778  0.7567
  445SOL     OW 1333   3.091   2.388   1.954  0.1451 -0.3484 -0.6760
  445SOL    HW1 1334   3.088   2.465   1.886 -0.0431  2.8287  1.1671
  445SOL    HW2 1335   3.001   2.382   2.002  0.7484 -1.1236 -0.3814
  446SOL     OW 1336   0.200   1.887   2.391 -0.4115  0.2305  0.5265
  446SOL    HW1 1337   0.187   1.988   2.405 -0.1268  0.3961  0.7094
  446SOL    HW2 1338   0.140   1.851   2.318 -0.4592 -2.3758  1.0062
  447SOL     OW 1339   1.237   1.635   1.933  0.0635 -0.3634  0.2198
  447SOL    HW1 1340   1.165   1.705   1.908 -1.5416 -0.8026  1.3082
  447SOL    HW2 1341   1.332   1.665   1.963 -0.4877 -2.0387  0.3722
  448SOL     OW 1342   0.116   1.562   1.919  0.2077 -0.0972  0.2749
  448SOL    HW1 1343   0.119   1.667   1.911  1.3138 -0.7665 -2.8167
  448SOL    HW2 1344   0.175   1.522   1.991 -3.2914  0.1399 -2.8494
  449SOL     OW 1345   2.022   2.951   0.899 -0.1528 -1.0247  0.3539
  449SOL    HW1 1346   2.068   2.977   0.990  0.2484  0.1377  2.7583
  449SOL    HW2 1347   1.976   2.857   0.903  0.3826 -0.5341  2.3205
  450SOL     OW 1348   2.265   1.334   0.922 -0.3686 -0.3048  0.2963
  450SOL    HW1 1349   2.267   1.230   0.909 -0.4017 -1.8241  0.0717
  450SOL    HW2 1350   2.229   1.372   0.829  0.8873  0.5834 -1.4234
  451SOL     OW 1351   1.428   0.036   1.438  0.5081 -0.6694  0.4565
  451SOL    HW1 1352   1.327   0.065   1.441 -0.8415 -1.6571 -1.2443
  451SOL    HW2 1353   1.453  -0.032   1.512 -0.2149 -0.1419  0.1239
  452SOL     OW 1354   2.647   2.348   2.244  0.8571  0.8221  0.0092
  452SOL    HW1 1355   2.603   2.434   2.297  0.1321  1.0682  1.2384
  452SOL    HW2 1356   2.695   2.284   2.308 -0.6129  0.5679 -0.8428
  453SOL     OW 1357   2.438   2.617   3.048  0.3109  0.4342  0.4902
  453SOL    HW1 1358   2.367   2.689   3.043  1.8861  0.0268  2.6040
  453SOL    HW2 1359   2.424   2.538   2.981 -0.6226 -0.5307 -1.1146
  454SOL     OW 1360   0.969   1.072   2.039  0.1495  0.7865  0.4870
  454SOL    HW1 1361   0.974   1.115   1.947  2.2904  0.4807 -1.0595
  454SOL    HW2 1362   1.061   1.039   2.070  0.0918  3.0072 -1.7164
  455SOL     OW 1363   0.638   2.619   2.901  0.0156 -0.0056 -0.0548
  455SOL    HW1 1364   0.687   2.698   2.946 -1.0876 -2.2929  0.6163
  455SOL    HW2 1365   0.611   2.543   2.971 -0.3110 -0.4216  0.8820
  456SOL     OW 1366   0.491   1.775   0.310 -0.7418  0.2550 -0.6383
  456SOL    HW1 1367   0.572   1.713   0.302  0.9621 -1.9296 -1.7294
  456SOL    HW2 1368   0.506   1.873   0.285 -3.7176 -2.8709 -2.2467
  457SOL     OW 1369   0.353   2.556   0.603  0.3301  0.4837 -0.7753
  457SOL    HW1 1370   0.376   2.621   0.524  0.2432  0.0157 -0.3148
  457SOL    HW2 1371   0.434   2.541   0.666 -0.6614  2.0028  1.3650
  458SOL     OW 1372   2.998   2.970   1.216 -0.1184  0.0050 -0.5543
  458SOL    HW1 1373   2.986   3.072   1.215 -2.2323 -2.1959 -1.7148
  458SOL    HW2 1374   3.011   2.934   1.119  2.4577  2.4633 -0.8099
  459SOL     OW 1375   2.176   2.587   0.842  0.6407  0.1268 -0.2282
  459SOL    HW1 1376   2.202   2.644   0.927  0.4060 -0.4014 -1.3922
  459SOL    HW2 1377   2.262   2.554   0.799 -2.8005 -0.7144 -0.8863
  460SOL     OW 1378   1.063   1.941   2.900  0.4903  0.6430 -0.0439
  460SOL    HW1 1379   1.096   2.014   2.833  0.7276 -0.8497 -1.7871
  460SOL    HW2 1380   1.142   1.897   2.949  2.5123  0.7872 -0.5048
  461SOL     OW 1381   0.555   2.138   2.679  0.0652  0.5672 -0.2092
  461SOL    HW1 1382   0.502   2.060   2.643  0.6294  0.8334  0.6683
  461SOL    HW2 1383   0.586   2.118   2.778 -1.0530  0.3914  0.3254
  462SOL     OW 1384   0.959   1.156   1.761 -0.8932 -0.1495 -0.1293
  462SOL    HW1 1385   1.013   1.072   1.740 -1.4376 -1.7955  0.6881
  462SOL    HW2 1386   0.983   1.235   1.692  4.6469  4.2638 -0.1706
  463SOL     OW 1387   0.460   0.755   0.453  0.3894 -0.2184 -0.4064
  463SOL    HW1 1388   0.475   0.651   0.440 -0.3107  0.1237 -0.3974
  463SOL    HW2 1389   0.360   0.779   0.463  0.7388  0.2180 -1.5333
  464SOL     OW 1390   0.512   2.236   2.240  0.3007  0.1710  0.4746
  464SOL    HW1 1391   0.435   2.296   2.279 -0.7839  1.0543 -2.5290
  464SOL    HW2 1392   0.559   2.289   2.162  0.6331  0.1449 -0.0908
  465SOL     OW 1393   0.306   0.885   0.873  0.6584 -0.2716  0.0999
  465SOL    HW1 1394   0.225   0.891   0.806  1.8423 -1.9599  1.4055
  465SOL    HW2 1395   0.323   0.786   0.894 -1.1010  0.4340  1.9356
  466SOL     OW 1396   1.388   1.112   1.132 -0.0276  0.2457  0.1461
  466SOL    HW1 1397   1.453   1.187   1.104  2.8032 -1.7697  0.8873
  466SOL    HW2 1398   1.288   1.126   1.106  0.3548  0.3820 -1.7448
  467SOL     OW 1399   0.465   0.398   2.423  0.2544 -0.2020 -0.5382
  467SOL    HW1 1400   0.450   0.488   2.469 -0.5578 -3.0735  0.1070
  467SOL    HW2 1401   0.507   0.335   2.492 -0.0538  0.2987  1.4769
  468SOL     OW 1402   0.492   2.256   1.723 -0.0557  0.3732  0.6036
  468SOL    HW1 1403   0.523   2.334   1.783  0.8927  0.3116 -0.7213
  468SOL    HW2 1404   0.473   2.282   1.623  0.3682 -0.7637  1.2285
  469SOL     OW 1405   1.578   1.300   1.107 -0.3533  0.4453  0.0938
  469SOL    HW1 1406   1.649   1.225   1.132  1.7319 -0.5064 -0.6050
  469SOL    HW2 1407   1.620   1.392   1.133 -1.4211 -0.6196  1.3843
  470SOL     OW 1408   3.001   1.604   0.755  0.2364 -0.1369  0.2880
  470SOL    HW1 1409   3.093   1.609   0.793 -1.3757  1.7762 -1.2866
  470SOL    HW2 1410   2.937   1.675   0.793 -1.6422 -0.3106  0.1340
  471SOL     OW 1411   2.593   1.297   2.188 -0.3016  0.0044  0.1146
  471SOL    HW1 1412   2.577   1.226   2.266  1.4141  2.6137  0.7352
  471SOL    HW2 1413   2.619   1.393   2.227 -0.2189  0.2384  0.6687
  472SOL     OW 1414   1.156   2.461   3.071  0.4269  0.4407 -0.4397
  472SOL    HW1 1415   1.218   2.455   3.156 -1.6024 -0.4533  1.8033
  472SOL    HW2 1416   1.141   2.365   3.040  0.5082  0.0409 -0.1633
  473SOL     OW 1417   1.045   1.529   0.894  0.2079 -0.4653  0.3184
  473SOL    HW1 1418   0.952   1.556   0.927 -0.7901 -0.0693 -0.6847
  473SOL    HW2 1419   1.112   1.512   0.972 -0.5920  0.4596 -0.9499
  474SOL     OW 1420   0.760   1.263   0.782 -0.8373  0.1679  0.2142
  474SOL    HW1 1421   0.742   1.242   0.682 -1.2438  1.9288 -1.6045
  474SOL    HW2 1422   0.853   1.227   0.815  1.9577 -0.6743 -0.5841
  475SOL     OW 1423   2.882   0.028   0.826 -0.4415 -0.0232  0.5246
  475SOL    HW1 1424   2.955   0.054   0.889 -2.2951 -2.4987 -1.5672
  475SOL    HW2 1425   2.786   0.064   0.847  1.2703 -0.2815 -0.4629
  476SOL     OW 1426   0.962   3.061   1.959  0.4203 -0.5682  0.2293
  476SOL    HW1 1427   1.021   2.998   2.019 -1.7400 -2.0160  1.3791
  476SOL    HW2 1428   0.950   3.027   1.860  0.7094  0.6530 -1.9623
  477SOL     OW 1429   1.492   0.406   2.437  0.1372 -0.7191 -0.0805
  477SOL    HW1 1430   1.457   0.408   2.535  0.5174  0.0917 -0.6818
  477SOL    HW2 1431   1.579   0.350   2.421 -1.0975  1.1511 -1.8749
  478SOL     OW 1432   2.203   1.843   0.241  0.7818  0.2382 -0.3428
  478SOL    HW1 1433   2.137   1.764   0.225 -2.4546 -0.7693  0.3741
  478SOL    HW2 1434   2.301   1.816   0.232 -0.2089  0.0090  0.9217
  479SOL     OW 1435   1.246   1.166   2.863  1.1438 -0.0802  0.8485
  479SOL    HW1 1436   1.331   1.139   2.812  0.9903 -0.0719 -0.4634
  479SOL    HW2 1437   1.156   1.120   2.822  1.5079 -0.5926 -0.8598
  480SOL     OW 1438   2.497   2.336   0.411  0.1998  0.1963  0.6641
  480SOL    HW1 1439   2.449   2.269   0.474  0.8617  1.4971 -1.0342
  480SOL    HW2 1440   2.440   2.362   0.326 -1.0650 -0.0364 -1.7791
  481SOL     OW 1441   1.056   1.177   0.836  0.1850 -0.1893  0.2889
  481SOL    HW1 1442   1.080   1.244   0.763  0.4430 -2.8568 -0.5619
  481SOL    HW2 1443   1.087   1.214   0.927 -0.0129 -1.0683 -0.9508
  482SOL     OW 1444   1.594   0.288   2.013 -0.3530  0.1765  0.4117
  482SOL    HW1 1445   1.607   0.383   1.971  0.0059  0.2724 -0.9206
  482SOL    HW2 1446   1.685   0.244   2.050  2.4951 -0.7324  1.5210
  483SOL     OW 1447   0.111   2.365   1.324  0.5089 -0.1830  0.2021
  483SOL    HW1 1448   0.011   2.356   1.354  0.2616  0.3334  0.0561
  483SOL    HW2 1449   0.134   2.367   1.226  0.1074  1.1033  3.2339
  484SOL     OW 1450   1.698   0.954   1.381 -0.1483  0.2035 -0.1682
  484SOL    HW1 1451   1.782   0.931   1.438  0.2180  1.4693  0.6181
  484SOL    HW2 1452   1.719   1.035   1.313  3.5387  0.1560 -0.2569
  485SOL     OW 1453   0.669   1.146   1.805  0.0432 -0.3602  0.1719
  485SOL    HW1 1454   0.659   1.092   1.715  1.1260 -0.8842  0.0386
  485SOL    HW2 1455   0.770   1.164   1.819 -0.5860  2.7142  0.4039
  486SOL     OW 1456   0.868   1.910   2.450  0.3326 -0.0758  0.4867
  486SOL    HW1 1457   0.918   1.878   2.537  0.4531 -0.7925  2.5009
  486SOL    HW2 1458   0.820   2.002   2.466 -1.6189  3.0004  1.1483
  487SOL     OW 1459   1.777   1.541   0.851 -0.0881  0.3914  0.3526
  487SOL    HW1 1460   1.753   1.450   0.807  1.7418 -1.7061 -2.6237
  487SOL    HW2 1461   1.814   1.611   0.783  1.5341  1.6861 -1.0485
  488SOL     OW 1462   2.984   0.957   2.214  0.2889  0.2230 -0.3962
  488SOL    HW1 1463   2.999   0.874   2.161 -0.1961  1.8061  1.9005
  488SOL    HW2 1464   2.977   0.948   2.321  2.0181  0.1615  0.1686
  489SOL     OW 1465   2.760   0.208   1.369  0.0025  0.1578  0.4056
  489SOL    HW1 1466   2.753   0.195   1.470 -1.1101 -2.9324 -1.6036
  489SOL    HW2 1467   2.855   0.189   1.333 -0.1800  2.6878  0.0880
  490SOL     OW 1468   1.397   2.996   2.815 -0.2374 -0.3749 -0.6712
  490SOL    HW1 1469   1.435   2.904   2.835 -1.2995 -0.1472 -2.5555
  490SOL    HW2 1470   1.378   3.025   2.719  0.8600  0.0409 -0.6031
  491SOL     OW 1471   1.888   1.548   2.687 -0.4145 -0.2415  0.0175
  491SOL    HW1 1472   1.893   1.581   2.781  1.2985  1.2374 -2.6874
  491SOL    HW2 1473   1.982   1.518   2.659  0.4073  1.7358  2.7794
  492SOL     OW 1474   0.504   1.938   0.726 -0.2259 -0.2382 -0.3067
  492SOL    HW1 1475   0.588   1.954   0.786 -1.3990  0.6434 -1.0526
  492SOL    HW2 1476   0.466   2.029   0.687 -0.5298  2.4615 -3.8851
  493SOL     OW 1477   0.493   1.401   2.145 -0.0635 -0.2877  0.2714
  493SOL    HW1 1478   0.408   1.458   2.161 -1.1605 -0.8324 -1.5355
  493SOL    HW2 1479   0.486   1.303   2.184  0.5393 -0.6139 -0.8911
  494SOL     OW 1480   2.578   2.583   0.189 -0.1709 -0.3886  0.2529
  494SOL    HW1 1481   2.593   2.481   0.208  0.6044 -2.6303  0.5829
  494SOL    HW2 1482   2.545   2.604   0.091  1.9690 -0.2760  1.3823
  495SOL     OW 1483   2.747   2.665   2.685  0.1853 -0.0432  0.1823
  495SOL    HW1 1484   2.753   2.583   2.625 -2.0644  1.4801  0.9475
  495SOL    HW2 1485   2.753   2.753   2.624  1.5119  1.9707 -1.6899
  496SOL     OW 1486   2.086   2.206   0.709  0.7497  0.1798  0.4183
  496SOL    HW1 1487   2.104   2.230   0.807  1.1814 -2.8791 -4.9820
  496SOL    HW2 1488   2.084   2.104   0.694  0.5642 -1.7656  0.5866
  497SOL     OW 1489   0.256   2.971   2.393 -0.1935 -0.2160  0.1143
  497SOL    HW1 1490   0.209   3.031   2.461  2.8839  0.8306 -0.0027
  497SOL    HW2 1491   0.311   3.019   2.320 -2.2601  1.6202  1.5966
  498SOL     OW 1492   1.247   1.492   1.091  0.3198  0.4475  0.5145
  498SOL    HW1 1493   1.330   1.525   1.138 -1.4505 -2.8256  2.5061
  498SOL    HW2 1494   1.155   1.525   1.136  1.8936  0.5685 -1.8439
  499SOL     OW 1495   0.865   1.818   0.484 -0.7222 -0.6632 -0.0803
  499SOL    HW1 1496   0.810   1.731   0.488 -0.6748 -2.3349 -1.0763
  499SOL    HW2 1497   0.874   1.864   0.573 -3.0080 -3.5805 -0.9606
  500SOL     OW 1498   1.441   2.963   1.652  0.0597  0.1754 -0.5372
  500SOL    HW1 1499   1.379   2.974   1.737 -0.2358 -1.5105  0.8266
  500SOL    HW2 1500   1.489   2.874   1.651 -1.8072  0.4218 -0.0469
  501SOL     OW 1501   0.794   1.106   2.278  0.4609  0.1578 -0.2549
  501SOL    HW1 1502   0.711   1.040   2.297  1.1037  2.1928 -1.1991
  501SOL    HW2 1503   0.855   1.074   2.205 -0.6652  0.2453  0.6047
  502SOL     OW 1504   2.578   0.959   1.747 -0.3709  0.1732 -0.2124
  502SOL    HW1 1505   2.542   0.956   1.652  0.7378  0.0445 -1.0267
  502SOL    HW2 1506   2.554   0.867   1.791  1.1485 -0.6042 -0.3791
  503SOL     OW 1507   1.312   0.156   0.605 -0.0352  0.0934 -0.5239
  503SOL    HW1 1508   1.234   0.225   0.605  1.3049  1.8915 -2.9894
  503SOL    HW2 1509   1.403   0.205   0.617 -0.0887  0.9449 -2.8459
  504SOL     OW 1510   2.969   2.305   1.432 -0.0294  0.4053  0.1324
  504SOL    HW1 1511   2.982   2.389   1.486 -0.7198 -1.0157  0.3117
  504SOL    HW2 1512   2.869   2.275   1.452 -1.6377 -0.0734 -0.2827
  505SOL     OW 1513   2.278   1.306   1.469 -0.1103 -0.1915 -0.6208
  505SOL    HW1 1514   2.278   1.409   1.470 -1.3200 -0.7551  4.3394
  505SOL    HW2 1515   2.358   1.271   1.522  0.8225 -1.6876  1.6782
  506SOL     OW 1516   1.878   0.307   1.739  0.0889  0.4509 -0.1270
  506SOL    HW1 1517   1.970   0.265   1.723 -1.7074  4.2029  0.4375
  506SOL    HW2 1518   1.873   0.378   1.815 -0.9166  1.5710 -1.6806
  507SOL     OW 1519   0.512   0.748   2.171  0.4721 -0.1852 -0.0888
  507SOL    HW1 1520   0.444   0.746   2.093  1.5364  0.4446 -1.5238
  507SOL    HW2 1521   0.563   0.656   2.183 -0.9853 -0.4921 -1.4581
  508SOL     OW 1522   0.185   1.596   0.864 -0.4290  0.4564  0.2172
  508SOL    HW1 1523   0.241   1.676   0.824 -0.5401 -1.4671 -1.1212
  508SOL    HW2 1524   0.163   1.607   0.968 -2.9837 -0.2434  1.5591
  509SOL     OW 1525   1.328   1.173   2.579  0.7073 -1.0764 -0.3834
  509SOL    HW1 1526   1.268   1.256   2.575  1.3910  0.6222  0.1910
  509SOL    HW2 1527   1.282   1.079   2.555  3.0725  0.2517 -0.0554
  510SOL     OW 1528   1.356   2.023   2.049 -0.4108 -0.0724  0.0525
  510SOL    HW1 1529   1.291   2.100   2.036  1.3206 -4.4472 -0.7794
  510SOL    HW2 1530   1.314   1.947   2.103 -1.2803  0.0741  0.7230
  511SOL     OW 1531   3.027   2.638   1.293 -0.0430  0.0935  0.0894
  511SOL    HW1 1532   2.998   2.609   1.198  1.6224 -1.5747  1.4816
  511SOL    HW2 1533   2.954   2.639   1.360  1.0051  0.8210 -1.1231
  512SOL     OW 1534   2.410   0.357   1.448  0.5731 -0.1333  0.4989
  512SOL    HW1 1535   2.305   0.357   1.441 -2.1180 -0.4920 -0.3945
  512SOL    HW2 1536   2.448   0.304   1.368 -1.3963  1.2733  0.6903
  513SOL     OW 1537   2.499   2.026   0.845 -0.3694  0.6924 -0.2412
  513SOL    HW1 1538   2.435   2.104   0.816 -0.4988  1.0203 -0.7119
  513SOL    HW2 1539   2.570   2.004   0.769  1.7689  1.1304  0.3471
  514SOL     OW 1540   0.694   2.820   0.353  0.2737  0.0555 -0.9968
  514SOL    HW1 1541   0.672   2.896   0.289 -2.4351  0.2498  1.2373
  514SOL    HW2 1542   0.727   2.853   0.444  1.2510  0.8694 -0.4744
  515SOL     OW 1543   1.937   1.235   2.331  0.4357  0.2906  0.2923
  515SOL    HW1 1544   1.867   1.247   2.256 -4.2498 -1.6681  1.7473
  515SOL    HW2 1545   1.902   1.239   2.426 -0.1754  2.5709 -2.3020
  516SOL     OW 1546   0.299   0.403   2.007  0.5191 -0.5646  0.2131
  516SOL    HW1 1547   0.391   0.378   1.960 -1.4113  1.0219 -0.7836
  516SOL    HW2 1548   0.217   0.372   1.945 -1.4730 -0.9447 -0.4599
  517SOL     OW 1549   0.353   2.970   1.200 -0.1842 -0.2999 -0.4550
  517SOL    HW1 1550   0.381   3.069   1.218  0.6482 -0.4092  0.4442
  517SOL    HW2 1551   0.287   2.935   1.270 -1.6576  2.3667  2.3832
  518SOL     OW 1552   2.101   0.178   1.696  0.0389 -0.2391  0.4245
  518SOL    HW1 1553   2.176   0.186   1.767  0.1778 -2.4081  1.9264
  518SOL    HW2 1554   2.130   0.114   1.617 -0.5096 -1.1272  1.7746
  519SOL     OW 1555   2.356   2.195   2.618 -0.0636  0.9424  0.9382
  519SOL    HW1 1556   2.280   2.200   2.689  1.6477  0.7515  1.2474
  519SOL    HW2 1557   2.394   2.287   2.602  0.5455 -0.8347 -2.2418
  520SOL     OW 1558   1.749   2.881   1.824 -0.3842 -0.2835 -0.1953
  520SOL    HW1 1559   1.674   2.838   1.880  0.3014  0.9264  0.1266
  520SOL    HW2 1560   1.833   2.820   1.838 -1.6396 -0.5428  1.7459
  521SOL     OW 1561   0.603   0.108   2.149  0.0662 -0.2537 -0.2540
  521SOL    HW1 1562   0.519   0.050   2.165  1.9566 -0.0476 -1.3634
  521SOL    HW2 1563   0.686   0.071   2.201 -1.0019  0.9115  0.1734
  522SOL     OW 1564   0.216   1.900   1.520 -0.0568  0.0964 -0.2704
  522SOL    HW1 1565   0.248   1.961   1.599 -0.9803  0.4930 -0.0658
  522SOL    HW2 1566   0.198   1.954   1.434  1.3246  0.7505  1.3352
  523SOL     OW 1567   2.265   3.027   1.614 -0.2222 -0.2428  0.3954
  523SOL    HW1 1568   2.294   2.954   1.543  0.4966 -2.5261  0.5406
  523SOL    HW2 1569   2.224   2.992   1.700  1.2667  1.9038  0.9267
  524SOL     OW 1570   0.234   2.777   2.805 -0.5044 -0.4845 -0.0328
  524SOL    HW1 1571   0.197   2.856   2.860  1.2433  0.3122 -0.4549
  524SOL    HW2 1572   0.329   2.807   2.788 -3.6665  2.0966  1.3900
  525SOL     OW 1573   2.086   1.932   0.485 -0.3560 -0.3153 -0.2741
  525SOL    HW1 1574   2.091   1.842   0.533  0.3419 -0.8534  0.9128
  525SOL    HW2 1575   2.130   1.925   0.390 -3.1788  1.6825  1.0367
  526SOL     OW 1576   0.379   1.518   1.536 -0.1619  0.2472 -0.4985
  526SOL    HW1 1577   0.320   1.483   1.612 -1.3645 -1.3113 -1.4190
  526SOL    HW2 1578   0.446   1.448   1.502 -3.1491 -1.4080 -2.6154
  527SOL     OW 1579   1.130   2.882   1.178  0.5140  0.5148 -0.5269
  527SOL    HW1 1580   1.205   2.821   1.225 -0.8642  0.4208  2.0288
  527SOL    HW2 1581   1.147   2.983   1.192  2.5280  0.0457  0.1703
  528SOL     OW 1582   1.317   2.402   0.479 -0.6562  0.1515 -0.4704
  528SOL    HW1 1583   1.344   2.305   0.494 -0.4338 -0.7578  0.4219
  528SOL    HW2 1584   1.367   2.461   0.551  0.3656  0.5829  0.0217
  529SOL     OW 1585   1.892   1.741   0.702  0.4395  0.4484  0.0605
  529SOL    HW1 1586   1.859   1.737   0.603 -1.0443 -1.2581 -0.1249
  529SOL    HW2 1587   1.952   1.818   0.725  2.7508 -2.2011 -1.4037
  530SOL     OW 1588   0.348   2.472   0.213  0.0913  0.3864  0.1674
  530SOL    HW1 1589   0.349   2.568   0.246 -4.0230  3.6137  1.6988
  530SOL    HW2 1590   0.372   2.401   0.285 -0.7064 -1.0181  1.6422
  531SOL     OW 1591   1.885   0.813   0.935  0.6771 -0.1913 -0.1865
  531SOL    HW1 1592   1.899   0.815   0.832 -0.0137 -2.0090  3.0250
  531SOL    HW2 1593   1.783   0.840   0.958  0.0816  0.5981  2.2342
  532SOL     OW 1594   0.456   1.116   0.739  0.0502 -0.6516 -0.3989
  532SOL    HW1 1595   0.516   1.092   0.655  2.1495  0.6245  0.4466
  532SOL    HW2 1596   0.420   1.031   0.789 -0.6935  1.9974  2.2003
  533SOL     OW 1597   1.702   0.012   2.572  0.1343  0.0890 -0.0914
  533SOL    HW1 1598   1.803  -0.006   2.591  0.5618 -4.1876 -1.7981
  533SOL    HW2 1599   1.662   0.089   2.634  2.2722  1.4857  1.0203
  534SOL     OW 1600   0.357   0.222   1.497  0.2347  0.5591 -0.2866
  534SOL    HW1 1601   0.462   0.215   1.517  0.9662 -0.8626 -0.6022
  534SOL    HW2 1602   0.328   0.323   1.498 -1.7358 -0.0982 -0.4373
  535SOL     OW 1603   1.969   0.332   0.152  0.3437 -0.1790 -0.1280
  535SOL    HW1 1604   1.986   0.422   0.202 -0.2729 -2.2398 -1.0055
  535SOL    HW2 1605   1.977   0.241   0.205 -0.5937 -1.4387  0.1634
  536SOL     OW 1606   1.366   2.601   0.954  0.4933 -0.1775  0.8995
  536SOL    HW1 1607   1.336   2.570   1.043 -0.5262  2.1392 -0.9370
  536SOL    HW2 1608   1.293   2.635   0.891 -1.0281 -0.3858  0.8718
  537SOL     OW 1609   0.888   0.244   2.338 -0.0182 -0.3911  0.3892
  537SOL    HW1 1610   0.937   0.300   2.261 -0.6251 -1.5410  0.3353
  537SOL    HW2 1611   0.842   0.150   2.304 -0.5126 -3.0186 -2.0302
  538SOL     OW 1612   1.631   2.385   1.407 -0.1041 -0.6618 -0.0494
  538SOL    HW1 1613   1.588   2.289   1.403  1.4141 -1.0831  0.4742
  538SOL    HW2 1614   1.724   2.388   1.456 -0.6982  0.8420  0.0804
  539SOL     OW 1615   0.198   1.588   2.683 -0.0578 -0.0582 -0.3590
  539SOL    HW1 1616   0.105   1.582   2.638  2.2507 -1.9946 -0.2954
  539SOL    HW2 1617   0.206   1.670   2.745 -2.5483  1.1614 -0.6822
  540SOL     OW 1618   2.655   1.750   1.949  0.1425 -0.1050  0.2411
  540SOL    HW1 1619   2.640   1.650   1.980  3.6031  0.6495  1.0300
  540SOL    HW2 1620   2.583   1.824   1.980 -0.3888  2.5495 -0.5531
  541SOL     OW 1621   0.487   2.142   3.079 -0.4507 -0.0755 -0.7741
  541SOL    HW1 1622   0.490   2.113   3.180 -0.0087 -0.8335  0.4957
  541SOL    HW2 1623   0.388   2.144   3.041 -0.5445 -0.0941 -2.4625
  542SOL     OW 1624   2.261   2.615   0.526  0.2515 -0.1852 -0.8570
  542SOL    HW1 1625   2.249   2.712   0.570 -3.0853 -0.0008  0.6314
  542SOL    HW2 1626   2.174   2.556   0.538 -1.1156  1.2695 -2.1983
  543SOL     OW 1627   1.034   1.777   1.592 -0.7953 -0.2648  0.0938
  543SOL    HW1 1628   1.062   1.798   1.689 -4.8164  0.7315 -3.7249
  543SOL    HW2 1629   1.014   1.860   1.531 -2.1902 -0.9592  0.5710
  544SOL     OW 1630   1.121   0.529   0.150 -0.1277 -0.1513  0.1143
  544SOL    HW1 1631   1.124   0.461   0.231  0.5799 -1.3646  0.6274
  544SOL    HW2 1632   1.150   0.481   0.064  0.6753  0.4590  3.0352
  545SOL     OW 1633   1.136   1.787   0.810  0.7477 -0.2039 -0.0511
  545SOL    HW1 1634   1.225   1.809   0.764 -1.0577 -1.9486 -0.0765
  545SOL    HW2 1635   1.111   1.685   0.799 -1.1213 -0.4762 -0.2190
  546SOL     OW 1636   2.694   1.588   3.001  1.4295 -0.0757  0.3153
  546SOL    HW1 1637   2.654   1.685   3.016  1.5665  0.4256 -0.3659
  546SOL    HW2 1638   2.618   1.517   2.999 -1.8586 -0.2006  1.4146
  547SOL     OW 1639   0.700   3.007   2.587  0.6763  0.0820  0.3167
  547SOL    HW1 1640   0.759   2.977   2.671  2.1085 -1.0315  1.1171
  547SOL    HW2 1641   0.625   2.941   2.567  5.2366  4.1050  0.9543
  548SOL     OW 1642   2.041   0.798   3.050 -0.1409  0.4951  0.5317
  548SOL    HW1 1643   1.949   0.767   3.087 -1.6468 -1.5029 -0.8242
  548SOL    HW2 1644   2.081   0.880   3.102  1.0105  1.0343  2.3766
  549SOL     OW 1645   0.672   0.532   0.186 -0.7305 -0.6802 -0.0826
  549SOL    HW1 1646   0.629   0.553   0.096 -0.8078 -0.4037  1.3169
  549SOL    HW2 1647   0.757   0.591   0.203 -2.3252 -2.5296  0.7929
  550SOL     OW 1648   2.597   2.791   2.894  0.3336  0.4585  0.1939
  550SOL    HW1 1649   2.554   2.727   2.962 -0.7863  0.6077 -2.8661
  550SOL    HW2 1650   2.651   2.741   2.819  2.6828  2.2034 -1.1636
  551SOL     OW 1651   0.260   0.863   0.221 -0.0428 -0.1752  0.4628
  551SOL    HW1 1652   0.362   0.872   0.195  0.3471  0.4903  0.2595
  551SOL    HW2 1653   0.237   0.865   0.323 -2.7332  0.6367  4.4397
  552SOL     OW 1654   0.621   3.029   1.917  0.0779 -0.0706 -0.2668
  552SOL    HW1 1655   0.607   3.107   1.988 -1.1864  1.1251  1.4239
  552SOL    HW2 1656   0.719   3.007   1.907 -1.4454 -0.4479 -0.6284
  553SOL     OW 1657   3.047   2.420   0.375  0.9371 -0.2581 -0.0904
  553SOL    HW1 1658   3.100   2.342   0.425 -0.4189 -2.0669  1.9750
  553SOL    HW2 1659   2.945   2.412   0.378 -0.9187  1.1794 -1.1892
  554SOL     OW 1660   2.226   0.339   0.582 -0.0102 -0.4906  0.5853
  554SOL    HW1 1661   2.278   0.373   0.498  0.3573  0.3768 -0.3223
  554SOL    HW2 1662   2.259   0.248   0.619  0.4451 -0.6581 -1.3341
  555SOL     OW 1663   0.476   2.820   2.477 -0.2523 -0.3839  0.3478
  555SOL    HW1 1664   0.391   2.878   2.471 -2.8525 -1.9229  0.4398
  555SOL    HW2 1665   0.466   2.742   2.407  1.3099  2.8473  1.0683
  556SOL     OW 1666   0.851   2.366   1.592 -0.1775 -0.3736 -0.0933
  556SOL    HW1 1667   0.888   2.431   1.667  2.1859 -1.0322  3.5208
  556SOL    HW2 1668   0.894   2.385   1.503 -0.3094  1.5226  1.9753
  557SOL     OW 1669   0.160   2.157   0.248 -0.7427  0.9312  0.6005
  557SOL    HW1 1670   0.087   2.088   0.210 -3.4172  0.7756 -1.0328
  557SOL    HW2 1671   0.188   2.221   0.171 -1.1409  0.8397 -3.8944
  558SOL     OW 1672   2.837   2.185   0.402 -0.6425  0.4455 -0.3124
  558SOL    HW1 1673   2.802   2.268   0.437  2.6644 -2.6776  0.9684
  558SOL    HW2 1674   2.827   2.181   0.303 -0.2095  0.2044  1.0303
  559SOL     OW 1675   0.435   2.267   1.458  0.1018  0.1840 -0.6991
  559SOL    HW1 1676   0.342   2.233   1.466  1.5964 -1.1399  0.0329
  559SOL    HW2 1677   0.492   2.238   1.373  1.0254  0.0116  0.1406
  560SOL     OW 1678   2.175   1.036   0.016  0.1076  0.5838  0.3607
  560SOL    HW1 1679   2.223   1.068   0.109 -0.3932 -0.6382  1.2596
  560SOL    HW2 1680   2.241   1.044  -0.066  1.3169 -1.0013 -0.8996
  561SOL     OW 1681   3.042   1.991   0.156 -0.7383  0.0575 -0.5556
  561SOL    HW1 1682   3.009   1.911   0.209  1.1117  1.0930 -1.9275
  561SOL    HW2 1683   2.963   2.033   0.109  0.1444 -0.5424 -0.5732
  562SOL     OW 1684   1.018   2.085   2.283  0.1548  0.1205  0.3208
  562SOL    HW1 1685   0.997   2.173   2.337 -0.1453 -0.9355  2.6284
  562SOL    HW2 1686   0.936   2.029   2.277  1.5122  0.9745  0.3216
  563SOL     OW 1687   0.665   2.532   2.649  0.2813 -0.8019 -0.2725
  563SOL    HW1 1688   0.734   2.458   2.652 -3.5399 -0.4458 -1.5917
  563SOL    HW2 1689   0.650   2.572   2.743 -0.6193 -0.7431 -1.0460
  564SOL     OW 1690   2.872   1.425   2.874  0.0793 -0.4320  0.6761
  564SOL    HW1 1691   2.821   1.494   2.927 -0.5050 -1.1087  0.2324
  564SOL    HW2 1692   2.939   1.475   2.811  0.1551 -0.1630  1.0589
  565SOL     OW 1693   2.485   1.949   2.648  0.6711 -0.1774 -0.2994
  565SOL    HW1 1694   2.423   2.027   2.617 -0.4839 -1.7724  1.9541
  565SOL    HW2 1695   2.576   1.977   2.686 -0.6722 -2.3566 -1.8474
  566SOL     OW 1696   2.000   2.922   1.483  0.9385  0.3668  1.0146
  566SOL    HW1 1697   1.974   2.824   1.519  0.7512 -1.4151 -1.4513
  566SOL    HW2 1698   2.061   2.912   1.397 -0.1464 -0.1483  0.3522
  567SOL     OW 1699   2.364   0.045   2.303  0.4082 -0.0052 -0.2992
  567SOL    HW1 1700   2.269   0.059   2.345 -0.6641 -1.0364  0.1854
  567SOL    HW2 1701   2.372   0.041   2.201 -0.3846  1.3158  1.0998
  568SOL     OW 1702   1.479   1.760   0.200  0.0977 -0.2222 -0.4704
  568SOL    HW1 1703   1.414   1.836   0.197  1.2096 -1.7430  0.6312
  568SOL    HW2 1704   1.565   1.787   0.244 -2.1918 -0.0779  0.2648
  569SOL     OW 1705   0.250   0.534   0.852 -1.2352  0.0806 -0.3623
  569SOL    HW1 1706   0.266   0.469   0.773 -2.4907 -2.4229 -1.9527
  569SOL    HW2 1707   0.153   0.520   0.886 -0.7279 -1.2295 -1.1060
  570SOL     OW 1708   0.658   0.837   2.914 -0.1383 -0.0824  0.5200
  570SOL    HW1 1709   0.664   0.870   2.815  0.9733  0.4582 -0.9493
  570SOL    HW2 1710   0.688   0.909   2.982 -1.1410 -1.7082 -0.8942
  571SOL     OW 1711   0.811   3.031   1.079  0.4585 -0.0016  0.3490
  571SOL    HW1 1712   0.868   3.091   1.015  3.4407 -1.3486  1.5412
  571SOL    HW2 1713   0.847   2.933   1.074 -1.6047 -0.5480 -3.9090
  572SOL     OW 1714   1.663   2.743   1.419  0.1611 -0.1377 -0.4994
  572SOL    HW1 1715   1.638   2.676   1.347 -0.2815 -1.2295 -1.1490
  572SOL    HW2 1716   1.694   2.835   1.380 -0.3700  0.3348  1.3924
  573SOL     OW 1717   3.033   0.476   1.956  0.1029  0.0865  0.2888
  573SOL    HW1 1718   2.958   0.405   1.972  2.7867  1.6039 -0.3231
  573SOL    HW2 1719   3.099   0.446   1.879 -0.1261  0.4168 -1.2643
  574SOL     OW 1720   0.115   1.689   1.113 -0.4008  0.1871 -0.2136
  574SOL    HW1 1721   0.178   1.661   1.191 -0.7907 -2.0841 -2.4460
  574SOL    HW2 1722   0.098   1.790   1.112  2.5859  0.8703 -1.7721
  575SOL     OW 1723   0.838   2.282   0.946 -0.0900  0.5543 -0.7247
  575SOL    HW1 1724   0.807   2.332   1.031  2.9368 -1.1762 -0.4256
  575SOL    HW2 1725   0.885   2.335   0.873 -0.0133  1.9436 -0.9747
  576SOL     OW 1726   2.940   3.039   1.668 -0.3769 -0.1719 -0.0545
  576SOL    HW1 1727   2.851   3.004   1.633  2.5529  1.8365  2.5321
  576SOL    HW2 1728   2.954   3.142   1.659  0.7143  0.9571  0.6821
  577SOL     OW 1729   2.657   1.195   3.063 -0.2740 -0.0642 -0.1786
  577SOL    HW1 1730   2.675   1.106   3.005  2.9881 -1.7259 -1.1599
  577SOL    HW2 1731   2.691   1.173   3.162 -2.4011 -0.2516  0.6113
  578SOL     OW 1732   1.367   2.715   2.561 -0.2270  0.2812  0.0452
  578SOL    HW1 1733   1.278   2.747   2.520 -0.0174  1.2181 -1.7861
  578SOL    HW2 1734   1.445   2.776   2.528 -0.2055 -0.5510 -0.9836
  579SOL     OW 1735   0.081   2.447   0.123 -0.4416  0.5154  0.2246
  579SOL    HW1 1736   0.025   2.438   0.208  2.6363  2.1012 -2.0845
  579SOL    HW2 1737   0.172   2.494   0.144  0.1015 -0.9227  0.9306
  580SOL     OW 1738   0.973   2.693   0.344 -0.0371 -0.0661  0.0734
  580SOL    HW1 1739   1.058   2.702   0.284  1.8540 -0.2985 -0.0078
  580SOL    HW2 1740   0.884   2.698   0.290  0.5059  2.0528 -0.9908
  581SOL     OW 1741   1.279   2.710   1.425  0.2373  0.1106 -0.5325
  581SOL    HW1 1742   1.323   2.621   1.446 -0.0812  1.0733 -3.1089
  581SOL    HW2 1743   1.348   2.779   1.391  0.9440  1.3822  0.8754
  582SOL     OW 1744   1.440   0.090   1.845 -0.7773  0.3273 -0.1231
  582SOL    HW1 1745   1.473   0.173   1.892 -0.5624  1.7012 -2.1297
  582SOL    HW2 1746   1.500   0.065   1.766 -0.1700 -0.9302  2.2121
  583SOL     OW 1747   2.481   2.987   0.484  0.6524  0.0706  0.2956
  583SOL    HW1 1748   2.554   2.942   0.421 -1.1059 -0.8235 -1.5173
  583SOL    HW2 1749   2.415   2.917   0.519  2.6423 -2.2036  1.0893
  584SOL     OW 1750   1.498   1.047   2.273 -0.5429 -0.0653  0.1133
  584SOL    HW1 1751   1.533   1.139   2.247 -2.4257 -0.1664 -0.0595
  584SOL    HW2 1752   1.566   0.985   2.326 -2.2001 -3.5934 -1.6565
  585SOL     OW 1753   2.043   2.672   2.884  0.6937 -0.1431 -0.6733
  585SOL    HW1 1754   2.091   2.579   2.866 -2.0873 -1.2274  0.8407
  585SOL    HW2 1755   1.943   2.658   2.885  2.3872 -3.2317 -0.3768
  586SOL     OW 1756   2.892   0.388   1.589 -0.7420  0.3224  0.4958
  586SOL    HW1 1757   2.873   0.482   1.629 -0.8884 -2.7853 -1.5918
  586SOL    HW2 1758   2.821   0.325   1.629 -2.7322 -1.9446  2.7785
  587SOL     OW 1759   2.168   1.473   2.760 -0.5473  0.0974 -0.1298
  587SOL    HW1 1760   2.181   1.425   2.672 -2.3945  1.5324  0.1198
  587SOL    HW2 1761   2.254   1.509   2.801 -1.5691 -3.0611 -2.9809
  588SOL     OW 1762   0.446   2.636   2.256  0.3462  0.4509 -0.6813
  588SOL    HW1 1763   0.456   2.700   2.173 -1.9166 -0.1742  0.5667
  588SOL    HW2 1764   0.396   2.549   2.233 -0.9444 -1.3253 -3.9757
  589SOL     OW 1765   2.165   1.376   2.492 -0.0480 -0.3009 -0.2381
  589SOL    HW1 1766   2.100   1.358   2.412 -0.6739  0.3482 -2.1019
  589SOL    HW2 1767   2.253   1.324   2.495 -0.4096  3.7237 -1.2155
  590SOL     OW 1768   2.336   1.673   2.053 -0.0314 -0.1456 -0.5001
  590SOL    HW1 1769   2.419   1.609   2.037  0.9032  1.1000  2.2512
  590SOL    HW2 1770   2.340   1.710   2.152 -2.9281 -1.1352  1.1425
  591SOL     OW 1771   1.283   2.403   0.208 -0.0658  0.1998  0.3935
  591SOL    HW1 1772   1.321   2.322   0.148 -0.8639 -3.6227  0.2839
  591SOL    HW2 1773   1.311   2.396   0.305  0.1001  0.5737 -1.6534
  592SOL     OW 1774   1.801   2.345   0.792  0.0761 -0.0318 -0.4093
  592SOL    HW1 1775   1.766   2.390   0.704 -0.9407 -2.3750 -0.1075
  592SOL    HW2 1776   1.876   2.397   0.840 -2.1612 -3.3174 -0.8583
  593SOL     OW 1777   0.766   0.291   0.192  0.3267 -0.7798  0.6069
  593SOL    HW1 1778   0.789   0.251   0.102  0.9833  0.3462  0.5479
  593SOL    HW2 1779   0.725   0.388   0.185  1.5786 -0.2346  1.9860
  594SOL     OW 1780   1.002   1.820   2.665 -1.0911 -0.2184  0.4468
  594SOL    HW1 1781   1.102   1.793   2.637 -1.4755 -2.2476  1.9062
  594SOL    HW2 1782   0.997   1.859   2.767 -2.9820 -0.5151  1.4275
  595SOL     OW 1783   1.576   0.123   1.002  0.1897 -0.4348  0.2352
  595SOL    HW1 1784   1.614   0.027   1.018  3.1057  0.3315  2.4699
  595SOL    HW2 1785   1.487   0.121   0.945  0.3549  0.7204  0.4925
  596SOL     OW 1786   0.216   1.478   2.164  0.4975  0.5047  0.3458
  596SOL    HW1 1787   0.227   1.377   2.184  0.1397  1.9738  0.8871
  596SOL    HW2 1788   0.206   1.537   2.244  0.2627  1.1699  0.3171
  597SOL     OW 1789   1.954   2.702   1.818 -0.2499  0.1794 -0.0955
  597SOL    HW1 1790   1.919   2.645   1.733 -0.2947 -0.9876 -2.1010
  597SOL    HW2 1791   2.034   2.651   1.861 -0.6197  0.1992 -0.7215
  598SOL     OW 1792   2.521   2.778   1.234  0.6788 -0.1865  0.2675
  598SOL    HW1 1793   2.625   2.785   1.229  0.0794 -0.2785 -0.4003
  598SOL    HW2 1794   2.484   2.682   1.215  0.2264 -0.4330 -0.2645
  599SOL     OW 1795   2.894   0.309   2.512 -0.0241  0.4119 -0.2522
  599SOL    HW1 1796   2.973   0.338   2.455  3.1329 -1.9745 -2.1266
  599SOL    HW2 1797   2.800   0.347   2.488 -1.9123 -0.4298 -0.4924
  600SOL     OW 1798   2.746   1.205   2.737 -0.2596  0.2426 -0.4359
  600SOL    HW1 1799   2.644   1.203   2.746  0.0983 -1.0139  3.1456
  600SOL    HW2 1800   2.780   1.286   2.794  0.1870 -1.0535  0.3440
  601SOL     OW 1801   3.034   1.371   1.892  0.5750  0.2757  0.0787
  601SOL    HW1 1802   2.939   1.400   1.862  1.7651  0.7113 -1.3232
  601SOL    HW2 1803   3.099   1.453   1.913 -0.3803  2.3971 -1.5501
  602SOL     OW 1804   1.492   1.589   2.363  0.3898  0.0234  0.0507
  602SOL    HW1 1805   1.412   1.572   2.426 -2.2193  1.0662 -0.1730
  602SOL    HW2 1806   1.551   1.669   2.385 -1.5653 -0.7383  1.1362
  603SOL     OW 1807   0.573   1.164   2.745 -0.0620  0.0862  0.3960
  603SOL    HW1 1808   0.515   1.212   2.674  0.0530 -1.4373 -2.4748
  603SOL    HW2 1809   0.587   1.065   2.716  0.6942  0.3479 -0.0903
  604SOL     OW 1810   2.521   0.994   0.268  0.0637  0.0308  0.0504
  604SOL    HW1 1811   2.601   1.045   0.232  0.2601 -2.0995  0.6789
  604SOL    HW2 1812   2.477   0.940   0.195 -1.9072 -0.2952  1.6605
  605SOL     OW 1813   2.581   1.191   1.919 -0.6540 -0.5129 -0.1754
  605SOL    HW1 1814   2.618   1.108   1.868 -0.2216 -0.3658  0.0214
  605SOL    HW2 1815   2.621   1.197   2.017  0.5478 -1.5622 -0.6250
  606SOL     OW 1816   1.490   2.457   2.563 -0.6764  0.0095 -0.6246
  606SOL    HW1 1817   1.462   2.559   2.553  0.2865  1.9944 -2.9679
  606SOL    HW2 1818   1.415   2.391   2.545  1.7590 -1.8782 -0.0080
  607SOL     OW 1819   1.269   1.562   0.265  0.1333  0.1108 -0.4871
  607SOL    HW1 1820   1.212   1.624   0.328  1.9599  1.2365 -1.1339
  607SOL    HW2 1821   1.351   1.622   0.231 -0.9497  3.4368  1.3381
  608SOL     OW 1822   1.443   2.843   0.336  0.5416  0.4814  0.5361
  608SOL    HW1 1823   1.510   2.895   0.276 -0.4715  0.0345  0.8905
  608SOL    HW2 1824   1.370   2.902   0.384 -0.9176 -0.9685  0.6108
  609SOL     OW 1825   1.270   1.309   0.186 -0.3137  0.2317  0.1368
  609SOL    HW1 1826   1.257   1.404   0.237 -2.3573 -1.5122  2.1572
  609SOL    HW2 1827   1.210   1.308   0.102  0.5404  1.5055  0.4520
  610SOL     OW 1828   3.093   1.237   2.123  0.0883 -0.2088 -0.4484
  610SOL    HW1 1829   3.038   1.158   2.087 -1.6298 -3.2605 -0.0765
  610SOL    HW2 1830   3.071   1.317   2.061 -0.5057  0.9719 -0.6724
  611SOL     OW 1831   2.561   0.182   1.168  0.6648 -0.5129  0.2945
  611SOL    HW1 1832   2.512   0.091   1.194  1.3160 -0.3781 -0.2160
  611SOL    HW2 1833   2.630   0.215   1.238 -2.2741  1.0337 -0.6597
  612SOL     OW 1834   0.756   2.375   1.221 -0.1248  0.1612 -0.8430
  612SOL    HW1 1835   0.685   2.307   1.252 -1.4312  1.5733  1.3038
  612SOL    HW2 1836   0.724   2.473   1.212 -2.1433  0.0837 -1.8058
  613SOL     OW 1837   0.781   1.372   2.398  0.5023 -0.2709 -0.5840
  613SOL    HW1 1838   0.810   1.445   2.327 -0.9232  0.8293 -1.7906
  613SOL    HW2 1839   0.785   1.275   2.358 -1.5738 -1.2505 -0.1010
  614SOL     OW 1840   1.506   1.676   1.958 -0.0249  0.0138  0.4304
  614SOL    HW1 1841   1.498   1.737   1.877  1.0621  2.0164 -2.0511
  614SOL    HW2 1842   1.589   1.692   2.014 -0.9371 -0.8775 -2.0925
  615SOL     OW 1843   0.713   1.442   1.698 -0.0595 -0.4093 -0.3008
  615SOL    HW1 1844   0.639   1.385   1.658  0.8867  2.8379 -0.8903
  615SOL    HW2 1845   0.769   1.484   1.625  1.6456 -0.1522 -2.4577
  616SOL     OW 1846   1.099   1.629   2.204 -0.5236  0.4867 -0.6393
  616SOL    HW1 1847   0.995   1.621   2.227 -0.0665 -1.2790 -0.7707
  616SOL    HW2 1848   1.123   1.614   2.100  3.1276 -1.0340 -2.2271
  617SOL     OW 1849   2.903   1.567   1.580  0.1813 -0.3532  0.2504
  617SOL    HW1 1850   2.844   1.510   1.641  1.1010  1.3279  1.1806
  617SOL    HW2 1851   2.961   1.512   1.511 -0.4282  1.3789 -0.8452
  618SOL     OW 1852   1.875   1.988   1.515  0.0172  0.6386  0.4308
  618SOL    HW1 1853   1.917   1.986   1.421 -0.8298  3.5116  2.4655
  618SOL    HW2 1854   1.869   1.895   1.564  0.2823 -1.9329  0.6483
  619SOL     OW 1855   1.781   0.529   2.400 -0.0498 -0.6812  0.0787
  619SOL    HW1 1856   1.738   0.582   2.323  1.0719 -1.9470  1.4955
  619SOL    HW2 1857   1.760   0.430   2.402 -0.4764  1.7999 -0.6909
  620SOL     OW 1858   2.232   2.836   0.656 -0.1026 -0.4537  0.3440
  620SOL    HW1 1859   2.147   2.892   0.662 -0.1991 -2.3972  3.0095
  620SOL    HW2 1860   2.284   2.842   0.743  1.9574  0.9908 -0.1945
  621SOL     OW 1861   2.126   1.922   1.355 -0.1332  0.6456 -0.3427
  621SOL    HW1 1862   2.129   1.905   1.462  0.3260  0.7949  1.9143
  621SOL    HW2 1863   2.154   1.837   1.293  0.2493 -1.6712 -1.0092
  622SOL     OW 1864   2.204   0.951   1.744 -0.7977 -0.5782 -0.3896
  622SOL    HW1 1865   2.288   0.896   1.735  2.4728  1.5415 -1.7528
  622SOL    HW2 1866   2.150   0.949   1.836 -2.0392 -1.9564  1.7402
  623SOL     OW 1867   1.281   0.910   2.541  0.1091 -0.2989 -0.2594
  623SOL    HW1 1868   1.254   0.846   2.618 -1.6062  1.6405 -0.7146
  623SOL    HW2 1869   1.211   0.907   2.466  3.9985  2.1376 -1.2886
  624SOL     OW 1870   0.563   0.641   3.065 -0.1595 -0.2428  0.5643
  624SOL    HW1 1871   0.599   0.699   2.994 -1.0911 -2.4199  2.7215
  624SOL    HW2 1872   0.545   0.695   3.146 -1.9369 -2.8539 -2.2558
  625SOL     OW 1873   2.805   1.801   0.837  0.6179  0.3535  0.1965
  625SOL    HW1 1874   2.785   1.865   0.920  1.5098 -0.5374  0.3523
  625SOL    HW2 1875   2.726   1.744   0.796 -1.4688  0.4023  1.3257
  626SOL     OW 1876   0.456   2.842   2.034  0.5237 -0.1472 -0.4471
  626SOL    HW1 1877   0.518   2.922   2.008 -0.8743  2.4543 -0.4660
  626SOL    HW2 1878   0.376   2.824   1.970 -0.0633 -1.2091 -2.3823
  627SOL     OW 1879   0.705   0.962   1.550 -0.0210  0.0712  0.1075
  627SOL    HW1 1880   0.762   0.880   1.572  2.4456 -2.2750 -0.3410
  627SOL    HW2 1881   0.759   1.032   1.501 -1.8068 -2.3215  1.2432
  628SOL     OW 1882   2.456   0.123   0.666 -0.4494 -0.2296  0.0661
  628SOL    HW1 1883   2.476   0.037   0.611 -1.7476  2.5485 -0.9214
  628SOL    HW2 1884   2.369   0.107   0.720  0.4321  1.2845  1.6111
  629SOL     OW 1885   2.018   0.955   1.973  0.2076  0.3163  0.1705
  629SOL    HW1 1886   2.066   0.991   2.063  0.8967  0.1828  0.3172
  629SOL    HW2 1887   1.953   1.022   1.934  1.1092 -2.0158  1.2886
  630SOL     OW 1888   2.825   2.231   0.782 -0.8112  0.3135  0.3064
  630SOL    HW1 1889   2.751   2.275   0.840  4.7179 -1.8436 -0.2735
  630SOL    HW2 1890   2.793   2.145   0.734  0.9157 -0.6127  1.1809
  631SOL     OW 1891   3.038   0.203   2.129  0.1878  0.0324  0.1934
  631SOL    HW1 1892   3.069   0.271   2.202  1.0683  0.6831 -1.6579
  631SOL    HW2 1893   3.117   0.183   2.059  1.0774 -1.5083 -0.4872
  632SOL     OW 1894   2.416   2.519   0.734 -0.2303  0.3875 -0.0388
  632SOL    HW1 1895   2.512   2.556   0.763  2.5462  3.6151 -0.2529
  632SOL    HW2 1896   2.377   2.562   0.647  1.0074  0.7584  2.1043
  633SOL     OW 1897   1.546   1.234   2.738  0.2063 -0.0758 -0.4156
  633SOL    HW1 1898   1.542   1.328   2.783  2.0979  0.7740  1.7927
  633SOL    HW2 1899   1.468   1.214   2.670 -1.9671 -0.2551 -0.6961
  634SOL     OW 1900   0.691   2.079   0.870  0.5793  0.1691  0.1209
  634SOL    HW1 1901   0.595   2.104   0.914 -3.6097  1.8662 -0.1427
  634SOL    HW2 1902   0.758   2.158   0.876 -1.4685  0.6782 -0.8073
  635SOL     OW 1903   3.082   2.259   3.038 -0.4330 -0.0754  0.2703
  635SOL    HW1 1904   3.013   2.315   2.977  0.8059  1.0175  0.7979
  635SOL    HW2 1905   3.111   2.316   3.121 -1.2504 -1.0606 -0.3438
  636SOL     OW 1906   2.338   2.822   1.967 -0.4897 -0.3537 -0.2867
  636SOL    HW1 1907   2.305   2.922   1.965  2.3369 -0.3920  0.0383
  636SOL    HW2 1908   2.316   2.783   2.062 -1.8943 -1.8414  0.4643
  637SOL     OW 1909   2.556   0.736   2.087 -0.0312 -0.0341 -0.5494
  637SOL    HW1 1910   2.537   0.734   1.986  0.5979 -1.4355 -0.0856
  637SOL    HW2 1911   2.611   0.824   2.106 -0.2910  0.2801 -0.7621
  638SOL     OW 1912   2.419   1.932   1.359  0.2248 -0.3190 -0.4170
  638SOL    HW1 1913   2.320   1.922   1.329 -0.5559 -0.0941 -2.0337
  638SOL    HW2 1914   2.462   1.844   1.374 -0.4341  2.6829 -0.6966
  639SOL     OW 1915   1.285   2.259   1.611 -0.1046  0.0511  0.8100
  639SOL    HW1 1916   1.281   2.206   1.519 -1.3733  0.3341  1.3070
  639SOL    HW2 1917   1.213   2.226   1.677  1.0644  1.9280  0.5896
  640SOL     OW 1918   0.260   1.164   1.537 -0.1556 -0.2996  0.4104
  640SOL    HW1 1919   0.260   1.219   1.627  0.4148 -1.6890  1.2438
  640SOL    HW2 1920   0.353   1.123   1.511 -1.2206 -2.4822 -0.4746
  641SOL     OW 1921   1.875   0.317   1.439 -0.0638 -0.1289  0.0875
  641SOL    HW1 1922   1.829   0.411   1.466 -2.7183  2.3588  0.9203
  641SOL    HW2 1923   1.846   0.239   1.496 -0.5565  0.7551 -1.2781
  642SOL     OW 1924   1.980   0.097   0.321  0.1724 -0.6249 -0.0699
  642SOL    HW1 1925   2.080   0.064   0.327  0.6249  1.1581 -1.0103
  642SOL    HW2 1926   1.946   0.130   0.409 -0.5603  1.2938 -1.5552
  643SOL     OW 1927   2.851   1.888   2.107  0.3072 -0.2042  0.3924
  643SOL    HW1 1928   2.801   1.811   2.062  1.3508  2.3077 -2.5231
  643SOL    HW2 1929   2.845   1.969   2.043 -0.8130 -0.6974  0.2535
  644SOL     OW 1930   2.214   2.278   1.155  0.0092 -0.9008 -0.3463
  644SOL    HW1 1931   2.293   2.214   1.134 -1.9615 -0.8494  2.4451
  644SOL    HW2 1932   2.207   2.279   1.258  0.4241 -0.7791 -0.5776
  645SOL     OW 1933   0.673   0.875   1.111 -0.4825  0.3240  0.4981
  645SOL    HW1 1934   0.588   0.855   1.170 -1.6157  1.7981 -1.5110
  645SOL    HW2 1935   0.664   0.951   1.041  0.3445 -0.7207  3.2454
  646SOL     OW 1936   1.456   1.923   1.773  0.0441  0.2977 -0.2318
  646SOL    HW1 1937   1.548   1.971   1.766  1.4457  2.5461  2.6338
  646SOL    HW2 1938   1.417   1.963   1.858  2.4963  1.1654 -0.9990
  647SOL     OW 1939   0.870   0.869   0.677 -0.4452 -0.6722 -0.0899
  647SOL    HW1 1940   0.914   0.886   0.767 -0.4183  0.7812  2.2319
  647SOL    HW2 1941   0.767   0.879   0.684  0.6220 -0.9793  2.9618
  648SOL     OW 1942   0.039   0.226   0.345  0.5202 -0.0334  0.4720
  648SOL    HW1 1943  -0.004   0.139   0.302 -1.2408 -2.9995 -0.1032
  648SOL    HW2 1944   0.023   0.308   0.287 -0.1666 -2.3676 -0.2185
  649SOL     OW 1945   0.046   0.052   1.000 -0.1309  0.0001  0.0655
  649SOL    HW1 1946   0.134   0.005   0.970 -0.9826  0.6886 -1.3193
  649SOL    HW2 1947   0.055   0.102   1.091 -2.0936 -0.4889 -1.9790
  650SOL     OW 1948   2.731   0.704   1.460 -0.6966 -0.1478  0.2325
  650SOL    HW1 1949   2.645   0.649   1.483  1.4722 -0.8589 -1.7289
  650SOL    HW2 1950   2.718   0.794   1.409 -0.3285 -1.1630  1.8407
  651SOL     OW 1951   0.914   1.578   1.471  0.5091 -0.4487  0.0322
  651SOL    HW1 1952   0.955   1.665   1.500 -0.1731  1.2637 -2.4459
  651SOL    HW2 1953   0.818   1.595   1.432  0.4421 -2.8392  1.5273
  652SOL     OW 1954   2.249   2.528   2.367 -1.1034  0.4674  0.5856
  652SOL    HW1 1955   2.174   2.498   2.434  2.9682  0.7303 -1.9431
  652SOL    HW2 1956   2.249   2.627   2.336 -1.0000  1.0753 -0.8995
  653SOL     OW 1957   2.779   1.125   0.202 -0.5761  0.1962 -0.0327
  653SOL    HW1 1958   2.848   1.192   0.173 -1.1854 -0.0851 -0.1690
  653SOL    HW2 1959   2.822   1.045   0.264 -3.1323 -2.2367 -0.8429
  654SOL     OW 1960   1.214   2.230   1.216 -0.0578  0.4328  0.5921
  654SOL    HW1 1961   1.206   2.171   1.300  0.6342 -1.2755 -1.5632
  654SOL    HW2 1962   1.282   2.191   1.149  0.2950 -1.8571  2.7008
  655SOL     OW 1963   0.224   1.039   1.918  0.3080 -0.4817 -0.0447
  655SOL    HW1 1964   0.258   0.966   1.855  2.4199  3.3159  0.5682
  655SOL    HW2 1965   0.301   1.102   1.960 -1.2091 -0.4123  1.0907
  656SOL     OW 1966   2.438   2.452   2.534 -0.0202  0.6630 -0.3423
  656SOL    HW1 1967   2.491   2.535   2.562 -0.3075  2.2787 -0.6724
  656SOL    HW2 1968   2.365   2.487   2.472 -0.4148  1.1322  2.0050
  657SOL     OW 1969   3.048   1.101   1.854 -0.4437 -0.2966 -0.5891
  657SOL    HW1 1970   3.038   1.204   1.873 -1.7532  0.5869  1.5027
  657SOL    HW2 1971   3.150   1.072   1.867  0.8537  1.1909  0.1294
  658SOL     OW 1972   1.732   0.246   2.402  0.1309  0.4674  0.1488
  658SOL    HW1 1973   1.732   0.167   2.459  2.7647  0.1501 -1.3195
  658SOL    HW2 1974   1.781   0.226   2.309 -1.3903 -1.7092  0.4827
  659SOL     OW 1975   1.434   0.609   2.803  0.4451 -0.2283  0.0758
  659SOL    HW1 1976   1.478   0.672   2.870 -2.2614  2.2262 -0.7821
  659SOL    HW2 1977   1.351   0.652   2.758 -0.2600  0.8106 -0.9478
  660SOL     OW 1978   1.358   0.398   1.429  0.1624 -0.2479 -0.5962
  660SOL    HW1 1979   1.400   0.428   1.522 -0.6837  0.3103  0.5394
  660SOL    HW2 1980   1.419   0.340   1.371 -2.3650  1.7008  1.6562
  661SOL     OW 1981   2.426   1.139   0.627 -0.1203 -0.1938 -0.3094
  661SOL    HW1 1982   2.484   1.090   0.557 -1.1881 -0.7334 -1.0383
  661SOL    HW2 1983   2.338   1.172   0.583 -1.0685  2.6278  0.2448
  662SOL     OW 1984   1.295   0.440   1.870  0.7360  0.6670 -0.0663
  662SOL    HW1 1985   1.253   0.344   1.845 -1.3227 -0.8829  1.0566
  662SOL    HW2 1986   1.246   0.484   1.954 -3.1826 -2.5269  2.7076
  663SOL     OW 1987   0.839   1.565   2.229 -0.2982 -0.2815  0.1228
  663SOL    HW1 1988   0.769   1.644   2.250  2.2186 -2.7181 -0.4783
  663SOL    HW2 1989   0.827   1.530   2.133  1.7490 -1.8795  2.4325
  664SOL     OW 1990   1.600   2.087   1.423 -0.1946  0.2803  0.1774
  664SOL    HW1 1991   1.516   2.025   1.432 -0.9585 -2.0584  0.5506
  664SOL    HW2 1992   1.689   2.039   1.434 -0.9426  1.8127 -1.4361
  665SOL     OW 1993   2.221   0.608   1.976 -1.1018  0.2725  0.2356
  665SOL    HW1 1994   2.233   0.520   2.029  0.9721  2.5289  5.2330
  665SOL    HW2 1995   2.176   0.676   2.041 -1.5757  2.2879  1.0059
  666SOL     OW 1996   0.554   2.236   0.451  0.5294 -0.2983 -0.1513
  666SOL    HW1 1997   0.567   2.339   0.454  4.7190  1.3813 -1.0945
  666SOL    HW2 1998   0.494   2.208   0.531  1.5870  1.0040 -1.5318
  667SOL     OW 1999   2.071   0.224   1.001  0.3879 -0.1441  0.5434
  667SOL    HW1 2000   2.135   0.302   1.029 -4.1224 -0.9146  2.3021
  667SOL    HW2 2001   1.977   0.235   1.047 -1.4837 -0.2343  0.4041
  668SOL     OW 2002   2.057   0.599   1.252 -0.8531 -0.2682  0.0274
  668SOL    HW1 2003   2.101   0.547   1.174 -5.3737  0.9620  0.5055
  668SOL    HW2 2004   2.070   0.552   1.344 -0.0808 -3.6877 -0.9104
  669SOL     OW 2005   3.027   2.253   0.977  0.0449  0.2706  0.0700
  669SOL    HW1 2006   2.975   2.255   0.889  0.7879  0.9510  0.5262
  669SOL    HW2 2007   2.986   2.206   1.058  1.3160  2.8302 -1.8128
  670SOL     OW 2008   2.815   2.378   2.022 -0.3004  0.1772  0.2387
  670SOL    HW1 2009   2.762   2.363   2.109  2.0178 -0.6170 -0.7931
  670SOL    HW2 2010   2.773   2.453   1.962 -1.2846  0.3247 -0.6053
  671SOL     OW 2011   1.681   1.767   1.460 -0.2236 -0.3450  0.2031
  671SOL    HW1 2012   1.682   1.753   1.353 -1.5663  0.9897  0.9427
  671SOL    HW2 2013   1.590   1.812   1.490 -3.1510  0.5815 -1.6357
  672SOL     OW 2014   0.417   0.661   2.429  0.0096  0.3678  0.1212
  672SOL    HW1 2015   0.426   0.704   2.337  1.4131  2.4625  3.7080
  672SOL    HW2 2016   0.340   0.710   2.480  2.7818  0.2205  0.6457
  673SOL     OW 2017   0.125   1.240   1.122 -0.0933 -0.2255  0.6247
  673SOL    HW1 2018   0.137   1.270   1.217 -0.1579 -2.0946 -0.9220
  673SOL    HW2 2019   0.216   1.208   1.081 -0.0964 -0.2841 -0.6597
  674SOL     OW 2020   1.597   2.947   0.138  0.1476 -0.2859 -0.5497
  674SOL    HW1 2021   1.610   3.047   0.125  0.3075  2.0286  0.8790
  674SOL    HW2 2022   1.671   2.888   0.095  0.0526 -0.6261  0.7242
  675SOL     OW 2023   1.703   0.873   2.356  0.5660 -0.2912 -0.3721
  675SOL    HW1 2024   1.808   0.865   2.345  1.6663 -1.5829 -2.9047
  675SOL    HW2 2025   1.654   0.793   2.311  1.1445 -1.0348 -1.4745
  676SOL     OW 2026   2.539   1.499   1.982 -0.5588  0.5354 -0.4092
  676SOL    HW1 2027   2.506   1.470   1.890  0.5603  0.6785  1.6095
  676SOL    HW2 2028   2.545   1.417   2.047  1.9454  1.1365  0.9364
  677SOL     OW 2029   1.941   0.531   0.949 -0.3454 -0.2706  0.1776
  677SOL    HW1 2030   1.936   0.636   0.966  0.5808  4.9798 -1.4188
  677SOL    HW2 2031   1.900   0.481   1.027  0.3878  0.0852  0.5355
  678SOL     OW 2032   0.070   0.715   1.699  0.2050 -0.3416  0.3021
  678SOL    HW1 2033   0.161   0.761   1.690 -1.4269 -1.6565 -0.5587
  678SOL    HW2 2034  -0.008   0.776   1.728  1.8370 -1.0935 -1.0699
  679SOL     OW 2035   2.498   1.137   1.146  0.3464 -0.6792 -0.3706
  679SOL    HW1 2036   2.406   1.170   1.175 -0.5134 -0.5226  0.7181
  679SOL    HW2 2037   2.498   1.047   1.092  0.4687 -2.3925  0.8928
  680SOL     OW 2038   2.853   0.636   1.692 -0.0584  0.2301  0.3490
  680SOL    HW1 2039   2.806   0.684   1.610 -0.8620  0.5365 -3.2988
  680SOL    HW2 2040   2.890   0.695   1.768 -0.8232  1.5790  0.9586
  681SOL     OW 2041   3.063   0.190   1.648  0.5035  0.2548  0.3523
  681SOL    HW1 2042   3.141   0.175   1.582  0.5752  1.9590  0.1198
  681SOL    HW2 2043   3.002   0.271   1.624  0.9996 -1.9160  3.7220
  682SOL     OW 2044   0.732   3.068   1.367  0.0494 -0.0847  0.1608
  682SOL    HW1 2045   0.653   3.012   1.400 -0.5757  1.1196  0.3493
  682SOL    HW2 2046   0.764   3.026   1.281  1.4088 -0.3615 -0.0381
  683SOL     OW 2047   1.421   0.234   2.202 -0.4110  0.2503 -0.3423
  683SOL    HW1 2048   1.433   0.270   2.296  0.7214 -3.6786  0.1139
  683SOL    HW2 2049   1.491   0.273   2.134  0.7263  3.2440 -1.6651
  684SOL     OW 2050   1.443   2.136   0.475 -0.0920 -0.5003 -0.1493
  684SOL    HW1 2051   1.502   2.066   0.526 -0.3160 -0.8282 -0.8973
  684SOL    HW2 2052   1.353   2.089   0.448 -1.5313  1.2074  2.0045
  685SOL     OW 2053   2.133   1.934   2.017 -0.0501  0.2250 -0.1127
  685SOL    HW1 2054   2.192   2.009   1.974 -0.3471 -0.1481 -1.0350
  685SOL    HW2 2055   2.186   1.863   2.071  0.9041  0.7233 -0.6133
  686SOL     OW 2056   1.486   1.705   2.714  0.1859  0.9591 -0.5715
  686SOL    HW1 2057   1.516   1.612   2.679 -2.3492  1.0565 -1.5846
  686SOL    HW2 2058   1.504   1.715   2.820 -0.9999  1.7719 -1.5406
  687SOL     OW 2059   1.333   2.497   1.931  0.5543 -0.3283  0.4100
  687SOL    HW1 2060   1.374   2.452   1.846 -1.5650 -0.3707 -2.8477
  687SOL    HW2 2061   1.369   2.464   2.020 -0.4403  3.5991  0.0945
  688SOL     OW 2062   2.064   1.492   1.559  0.2787  0.1276 -0.4489
  688SOL    HW1 2063   2.158   1.533   1.541 -0.8380 -1.2903 -3.3089
  688SOL    HW2 2064   2.002   1.492   1.479  1.4915  0.0890  0.3711
  689SOL     OW 2065   2.447   1.095   2.742  0.0797  0.1261  0.0564
  689SOL    HW1 2066   2.361   1.046   2.776 -0.9540  1.3148  1.8820
  689SOL    HW2 2067   2.523   1.081   2.818 -2.1669 -2.0636  1.3004
  690SOL     OW 2068   2.233   2.794   3.043 -0.7166 -0.1691  0.1149
  690SOL    HW1 2069   2.137   2.761   3.034 -0.1816  0.8687 -3.2567
  690SOL    HW2 2070   2.245   2.869   3.120  2.7497  0.6832  2.2209
  691SOL     OW 2071   2.603   0.467   2.151  0.3319  0.2878  0.6000
  691SOL    HW1 2072   2.676   0.426   2.094  0.4693  1.9907  0.6589
  691SOL    HW2 2073   2.597   0.569   2.139  0.7419  0.3843  1.8656
  692SOL     OW 2074   2.714   1.181   0.686  0.1786 -0.3851  0.3513
  692SOL    HW1 2075   2.613   1.180   0.711 -2.3799 -1.9944  2.5371
  692SOL    HW2 2076   2.762   1.263   0.735  0.0454 -2.6280  1.6300
  693SOL     OW 2077   2.840   2.924   0.639 -0.0550  0.0176 -0.1341
  693SOL    HW1 2078   2.841   3.010   0.697 -1.0099 -0.0537 -1.8009
  693SOL    HW2 2079   2.795   2.933   0.545 -0.9450  0.8301 -2.4860
  694SOL     OW 2080   2.419   2.201   0.071  0.3048  0.3290  0.4976
  694SOL    HW1 2081   2.392   2.284   0.125  0.8902  0.2267 -4.3661
  694SOL    HW2 2082   2.346   2.148   0.019 -2.3907 -1.4019 -0.5814
  695SOL     OW 2083   0.536   2.934   1.520 -0.1166 -0.0539  0.2963
  695SOL    HW1 2084   0.468   2.857   1.514  0.4622 -0.7044  3.1044
  695SOL    HW2 2085   0.496   3.016   1.576 -0.8175  2.1615  1.2994
  696SOL     OW 2086   2.712   2.022   0.673  0.0998  0.7734  1.0070
  696SOL    HW1 2087   2.765   1.938   0.701 -1.0982 -0.1589  0.0316
  696SOL    HW2 2088   2.673   2.003   0.577  0.2855 -0.1353 -0.7987
  697SOL     OW 2089   1.681   2.063   1.762 -0.2243  0.0686 -0.0780
  697SOL    HW1 2090   1.750   2.013   1.825 -0.2948  1.1296  0.0213
  697SOL    HW2 2091   1.724   2.127   1.694 -0.0788  2.6785  1.7764
  698SOL     OW 2092   2.916   0.360   2.812 -0.2569  0.1875  0.4577
  698SOL    HW1 2093   2.905   0.332   2.711 -2.2504  1.1519 -1.2680
  698SOL    HW2 2094   3.000   0.322   2.857 -3.9973  2.0849  2.6543
  699SOL     OW 2095   1.550   0.119   2.934 -0.2251  0.3411  0.2765
  699SOL    HW1 2096   1.498   0.029   2.912  0.4201 -1.7451 -0.1767
  699SOL    HW2 2097   1.599   0.165   2.854 -0.1050  1.8329  0.4157
  700SOL     OW 2098   0.980   2.460   1.366  0.0421  0.4825  0.5948
  700SOL    HW1 2099   1.073   2.435   1.326  1.2524 -0.4188 -1.3797
  700SOL    HW2 2100   0.893   2.432   1.311  0.1862 -0.3356  2.8978
  701SOL     OW 2101   1.832   2.843   3.081  0.1182  0.4276 -0.0368
  701SOL    HW1 2102   1.869   2.777   3.155  1.1077  0.4742  0.9050
  701SOL    HW2 2103   1.881   2.934   3.083 -0.2987 -0.3008 -2.8810
  702SOL     OW 2104   2.115   1.365   1.804  0.0498  0.2940  0.0525
  702SOL    HW1 2105   2.195   1.300   1.787  2.6976 -2.0086  1.9272
  702SOL    HW2 2106   2.077   1.404   1.715 -1.8768 -1.9631  2.4180
  703SOL     OW 2107   1.995   0.892   1.471  0.3295 -0.0901  0.1963
  703SOL    HW1 2108   1.989   0.805   1.534 -0.0890 -1.8526  2.7415
  703SOL    HW2 2109   2.013   0.982   1.519  2.1775  0.7799 -2.4449
  704SOL     OW 2110   0.305   2.036   1.745  0.8870 -0.1752 -0.4761
  704SOL    HW1 2111   0.353   1.978   1.818 -1.1197  0.3291  1.0274
  704SOL    HW2 2112   0.353   2.124   1.742  0.3891 -3.4081 -1.5884
  705SOL     OW 2113   2.528   1.444   0.869  0.1245  0.9824 -0.4753
  705SOL    HW1 2114   2.445   1.414   0.920 -0.7316  1.3540 -1.3119
  705SOL    HW2 2115   2.613   1.385   0.866 -1.5496  0.5840  0.5778
  706SOL     OW 2116   0.633   1.766   1.864  0.4868 -0.5919  0.2272
  706SOL    HW1 2117   0.645   1.664   1.865  1.5397  1.4478  0.3148
  706SOL    HW2 2118   0.712   1.809   1.918 -0.2641  2.2554  1.2153
  707SOL     OW 2119   2.358   1.201   1.745  0.2690 -0.2448 -0.0818
  707SOL    HW1 2120   2.429   1.183   1.821  1.3544 -1.6707 -3.2499
  707SOL    HW2 2121   2.307   1.113   1.715 -0.2858  2.2161 -1.2992
  708SOL     OW 2122   3.013   0.526   3.066 -0.2527  0.1083 -0.0943
  708SOL    HW1 2123   3.037   0.583   2.982 -0.0019  1.4769 -0.9153
  708SOL    HW2 2124   3.025   0.430   3.037 -0.8487 -2.4837 -2.1474
  709SOL     OW 2125   1.755   1.847   0.215 -0.3476  0.3606 -0.4412
  709SOL    HW1 2126   1.781   1.949   0.213  2.9808 -0.2757 -0.7326
  709SOL    HW2 2127   1.737   1.814   0.122  0.0442  3.2034 -0.0179
  710SOL     OW 2128   1.746   1.673   2.451 -0.2686 -0.0348  0.6301
  710SOL    HW1 2129   1.779   1.628   2.363  0.0882 -2.8194  0.3612
  710SOL    HW2 2130   1.770   1.615   2.538  0.7759 -4.9503 -1.9534
  711SOL     OW 2131   2.613   2.881   0.972  0.3238 -0.6916 -0.3430
  711SOL    HW1 2132   2.612   2.970   0.913 -0.6060  0.4589 -1.2570
  711SOL    HW2 2133   2.690   2.876   1.042  0.9875 -0.3467 -0.1130
  712SOL     OW 2134   1.499   2.292   1.771 -0.3008 -0.5348  0.5272
  712SOL    HW1 2135   1.558   2.213   1.803 -2.5022  0.0987  0.8835
  712SOL    HW2 2136   1.427   2.266   1.697 -1.4906 -2.5572  1.3401
  713SOL     OW 2137   2.845   1.304   2.511  0.5092 -0.5554 -0.2037
  713SOL    HW1 2138   2.910   1.238   2.456  3.1345 -1.1943 -1.3265
  713SOL    HW2 2139   2.805   1.262   2.598 -1.1253 -1.5427 -1.6208
  714SOL     OW 2140   2.646   0.433   2.437 -0.1216  0.0518 -0.2691
  714SOL    HW1 2141   2.582   0.397   2.510 -0.1172 -1.0442  0.3265
  714SOL    HW2 2142   2.610   0.428   2.341 -0.4431  1.5304 -0.4128
  715SOL     OW 2143   1.626   2.107   1.122 -0.3725  0.3908  0.2149
  715SOL    HW1 2144   1.531   2.119   1.079  1.0342  0.9647  1.3531
  715SOL    HW2 2145   1.616   2.120   1.226 -1.0854  1.2169  1.4135
  716SOL     OW 2146   1.166   0.156   1.456 -0.0955 -0.1928  0.0519
  716SOL    HW1 2147   1.065   0.161   1.431 -3.0687 -4.0873 -0.1477
  716SOL    HW2 2148   1.213   0.246   1.458 -2.8351  1.4650 -0.5686
  717SOL     OW 2149   1.071   0.518   1.606  0.8154  0.0734 -0.0490
  717SOL    HW1 2150   1.168   0.548   1.624 -1.2860  0.8847 -2.3650
  717SOL    HW2 2151   1.057   0.512   1.500 -0.9448  0.9040  0.4669
  718SOL     OW 2152   0.633   1.147   1.028 -0.5362  0.5153 -0.0679
  718SOL    HW1 2153   0.644   1.194   0.938 -0.7726  0.2514 -0.4797
  718SOL    HW2 2154   0.693   1.190   1.100 -3.3945  1.3734 -0.0307
  719SOL     OW 2155   0.701   1.827   2.265 -0.6852  0.3661 -0.9182
  719SOL    HW1 2156   0.764   1.864   2.344 -0.9658 -0.0390 -0.8821
  719SOL    HW2 2157   0.619   1.881   2.250  1.9515  1.9152  1.7512
  720SOL     OW 2158   2.286   1.145   0.235  0.9094 -0.4013  0.5401
  720SOL    HW1 2159   2.379   1.107   0.249  0.5212  0.1932 -0.1207
  720SOL    HW2 2160   2.260   1.187   0.325 -2.2407 -3.3262 -0.0230
  721SOL     OW 2161   2.294   3.096   2.024  0.7168 -0.2595  0.4000
  721SOL    HW1 2162   2.293   3.185   1.967 -0.4505  2.2537  0.7064
  721SOL    HW2 2163   2.202   3.069   2.061  1.0634  0.8130  3.9615
  722SOL     OW 2164   2.435   1.700   0.495  0.1420 -0.0765  0.0921
  722SOL    HW1 2165   2.432   1.618   0.427 -1.9686 -1.0276 -0.0561
  722SOL    HW2 2166   2.351   1.708   0.559  2.3977  3.3101  0.6354
  723SOL     OW 2167   2.606   2.878   1.892  0.0327 -0.1610 -0.2982
  723SOL    HW1 2168   2.656   2.924   1.969  0.1871  1.2596  0.9947
  723SOL    HW2 2169   2.526   2.813   1.920 -2.0978  0.5213 -0.7375
  724SOL     OW 2170   0.310   2.397   2.341  0.3348 -0.7153  0.2182
  724SOL    HW1 2171   0.209   2.418   2.350  1.3155 -0.3438  1.4074
  724SOL    HW2 2172   0.359   2.397   2.435 -0.2785 -1.4257  4.1220
  725SOL     OW 2173   2.335   2.802   1.473  0.4242  0.1854  0.0437
  725SOL    HW1 2174   2.350   2.809   1.367 -0.6371 -1.9875  1.0926
  725SOL    HW2 2175   2.319   2.699   1.506  1.4327 -0.3553  0.4136
  726SOL     OW 2176   2.374   2.246   0.754 -0.0767 -0.1615 -0.6509
  726SOL    HW1 2177   2.374   2.346   0.736 -0.9323  0.7252  0.9297
  726SOL    HW2 2178   2.349   2.190   0.671  0.0200  2.0073 -1.4490
  727SOL     OW 2179   0.224   0.011   0.137  0.2364  0.2400 -0.5453
  727SOL    HW1 2180   0.256  -0.085   0.114  2.5641  0.0589  1.1844
  727SOL    HW2 2181   0.265   0.079   0.072  1.9445 -1.3938 -1.2208
  728SOL     OW 2182   2.794   0.663   1.062 -0.2819 -0.2343 -0.0173
  728SOL    HW1 2183   2.709   0.679   1.007  0.8363 -0.5456 -0.8732
  728SOL    HW2 2184   2.774   0.604   1.146  1.5854 -0.6621  1.3788
  729SOL     OW 2185   3.002   2.469   0.706  0.3636 -0.5957  0.0494
  729SOL    HW1 2186   2.949   2.381   0.716  3.4015  1.4362  2.7421
  729SOL    HW2 2187   3.110   2.456   0.692  1.8246 -0.8525  0.0627
  730SOL     OW 2188   2.628   0.579   0.855  0.0768  0.1939  0.0299
  730SOL    HW1 2189   2.589   0.673   0.825 -0.5901  1.2091 -1.5671
  730SOL    HW2 2190   2.695   0.531   0.783  1.4938 -1.7482 -0.6153
  731SOL     OW 2191   0.178   2.161   2.495  0.6685  0.6057  0.1249
  731SOL    HW1 2192   0.172   2.191   2.592 -0.5354  1.8992 -0.5150
  731SOL    HW2 2193   0.253   2.217   2.441  1.8167  2.3961 -3.2783
  732SOL     OW 2194   1.128   2.841   2.040 -0.3371  0.2732  0.4836
  732SOL    HW1 2195   1.180   2.775   2.100  0.4614  2.5255  1.0479
  732SOL    HW2 2196   1.136   2.815   1.940 -1.8312 -0.8465  0.9966
  733SOL     OW 2197   3.022   0.674   2.115  0.0554  0.2388 -0.4297
  733SOL    HW1 2198   3.111   0.727   2.115  0.6414 -0.9958  0.2468
  733SOL    HW2 2199   3.031   0.596   2.044 -0.0857  1.8219 -0.6732
  734SOL     OW 2200   1.383   0.368   2.687 -0.0291 -0.0637  0.0658
  734SOL    HW1 2201   1.408   0.463   2.731  4.3570 -2.6077 -1.0934
  734SOL    HW2 2202   1.300   0.321   2.727 -1.1176 -1.3695  1.2128
  735SOL     OW 2203   2.796   2.656   2.286  0.1022  0.4480  0.3652
  735SOL    HW1 2204   2.706   2.642   2.230  1.2146 -0.3771 -3.0901
  735SOL    HW2 2205   2.883   2.638   2.230 -0.9033 -0.7499  2.9198
  736SOL     OW 2206   0.800   0.367   2.558 -0.0908 -0.3489 -0.4421
  736SOL    HW1 2207   0.742   0.454   2.554  1.1312 -2.2481 -1.5340
  736SOL    HW2 2208   0.835   0.328   2.470 -0.5229 -0.1189  1.0457
  737SOL     OW 2209   2.668   0.422   2.904 -0.1980 -0.7957  0.5991
  737SOL    HW1 2210   2.640   0.412   3.002  2.6421  2.1652 -0.5717
  737SOL    HW2 2211   2.766   0.392   2.889 -2.8331 -1.0990 -0.4256
  738SOL     OW 2212   1.657   1.135   0.024 -0.0743 -0.2939  0.9599
  738SOL    HW1 2213   1.750   1.138  -0.028 -0.0065  1.8076  0.9584
  738SOL    HW2 2214   1.619   1.036   0.038 -1.2137 -1.5492 -0.7180
  739SOL     OW 2215   1.816   0.552   0.695  0.1134  0.4024  0.1274
  739SOL    HW1 2216   1.865   0.550   0.789  0.7944  0.5719  1.0428
  739SOL    HW2 2217   1.833   0.463   0.648  1.1557 -0.4050 -2.4890
  740SOL     OW 2218   1.911   2.069   2.154  0.5834  0.1330  0.2878
  740SOL    HW1 2219   1.961   2.001   2.097 -0.7452 -1.0260 -0.7325
  740SOL    HW2 2220   1.807   2.062   2.147 -0.8488  0.4850  1.4108
  741SOL     OW 2221   2.549   0.020   2.590  0.5017 -0.1669 -0.6998
  741SOL    HW1 2222   2.652   0.006   2.585 -0.6575 -1.6542 -1.8467
  741SOL    HW2 2223   2.517   0.088   2.519  1.8338  4.8586 -0.3603
  742SOL     OW 2224   2.267   1.412   0.085  0.0097  0.2634 -0.2447
  742SOL    HW1 2225   2.191   1.477   0.103  0.6870 -1.6321 -1.1915
  742SOL    HW2 2226   2.237   1.322   0.123 -1.0614  0.6916  2.0917
  743SOL     OW 2227   1.754   0.655   2.659 -0.1779 -0.1494  0.3531
  743SOL    HW1 2228   1.751   0.603   2.566 -0.4207  1.3025  1.5196
  743SOL    HW2 2229   1.669   0.716   2.662 -1.6905 -1.4097 -1.5669
  744SOL     OW 2230   2.674   2.121   0.120 -0.0037  0.5480  0.7150
  744SOL    HW1 2231   2.566   2.132   0.106  0.1391  3.6684 -2.2470
  744SOL    HW2 2232   2.704   2.035   0.173 -0.5303  1.4395 -1.2787
  745SOL     OW 2233   2.207   2.761   2.195  0.0211  0.2129  0.1540
  745SOL    HW1 2234   2.107   2.742   2.160 -1.6139 -1.0346 -1.1150
  745SOL    HW2 2235   2.212   2.829   2.275 -1.1488 -0.7582 -3.4729
  746SOL     OW 2236   3.072   2.613   1.806  0.2251  0.4991 -0.2079
  746SOL    HW1 2237   3.162   2.623   1.759 -0.1020 -0.6541  2.2743
  746SOL    HW2 2238   3.039   2.702   1.843  0.7084 -2.9281  0.9427
  747SOL     OW 2239   0.005   1.776   1.690 -0.5239 -0.2695  0.1190
  747SOL    HW1 2240  -0.054   1.692   1.667 -1.6286 -0.2494  0.0554
  747SOL    HW2 2241   0.054   1.809   1.608 -1.0819  1.1751  0.2686
  748SOL     OW 2242   1.760   2.722   2.844 -0.1356  0.6595  0.0071
  748SOL    HW1 2243   1.792   2.750   2.936 -0.3843 -1.4281 -2.2113
  748SOL    HW2 2244   1.657   2.739   2.827  0.7085 -1.0040 -2.1027
  749SOL     OW 2245   1.343   0.070   0.877  0.1503 -0.1679 -0.6341
  749SOL    HW1 2246   1.296  -0.015   0.918  0.5942  1.1692 -0.3105
  749SOL    HW2 2247   1.320   0.088   0.775 -0.3885 -1.1743 -2.2290
  750SOL     OW 2248   2.282   0.223   1.905  0.4238 -0.0635  0.7837
  750SOL    HW1 2249   2.339   0.266   1.830  2.1220  0.8864  0.8552
  750SOL    HW2 2250   2.270   0.285   1.993 -1.6616  1.0340  0.5966
  751SOL     OW 2251   0.855   2.251   2.924  0.0067 -0.2645 -0.1029
  751SOL    HW1 2252   0.940   2.244   2.979 -4.0754  0.3900  4.4439
  751SOL    HW2 2253   0.805   2.160   2.927 -2.4338 -0.8494  2.2357
  752SOL     OW 2254   1.249   0.866   1.484 -0.0199 -0.6657 -0.0990
  752SOL    HW1 2255   1.343   0.909   1.475 -0.9640 -1.5394  0.2868
  752SOL    HW2 2256   1.250   0.770   1.524  2.4117 -1.0400 -2.8651
  753SOL     OW 2257   0.904   2.589   1.747  0.0921 -0.3919 -0.1182
  753SOL    HW1 2258   0.956   2.600   1.657 -0.4362  0.8153  0.2503
  753SOL    HW2 2259   0.820   2.648   1.744 -0.2529 -1.9574  0.0012
  754SOL     OW 2260   1.138   1.333   3.041 -0.1404  0.6786  0.0607
  754SOL    HW1 2261   1.169   1.263   2.966  1.7395  0.0060 -1.9095
  754SOL    HW2 2262   1.140   1.429   3.007 -1.7626 -0.0192  1.8641
  755SOL     OW 2263   2.034   0.537   2.274  0.3343  0.4793  0.7768
  755SOL    HW1 2264   2.109   0.469   2.307 -0.5473  0.9483  0.4283
  755SOL    HW2 2265   1.945   0.525   2.330 -0.9061 -0.1275  0.9936
  756SOL     OW 2266   2.638   0.963   2.928 -0.1789 -0.2064  0.1256
  756SOL    HW1 2267   2.730   0.919   2.934 -1.3133  1.0584  0.0755
  756SOL    HW2 2268   2.579   0.935   3.006  1.1517  0.6544 -0.9143
  757SOL     OW 2269   0.156   0.451   1.724 -0.3706 -0.1588  0.3308
  757SOL    HW1 2270   0.125   0.551   1.744  1.1040  2.9934  2.1571
  757SOL    HW2 2271   0.213   0.443   1.638 -1.4666  1.0267  2.3707
  758SOL     OW 2272   2.468   0.068   1.499 -0.1970  0.1226  0.1817
  758SOL    HW1 2273   2.399   0.013   1.557  1.1058 -1.1077 -0.0719
  758SOL    HW2 2274   2.469   0.037   1.399  1.4707 -2.4795 -0.8652
  759SOL     OW 2275   1.666   0.134   0.073  0.3207  0.5490 -0.5232
  759SOL    HW1 2276   1.610   0.135  -0.017 -1.1887 -0.9627  0.3547
  759SOL    HW2 2277   1.763   0.092   0.062  2.5210  1.4994  2.7511
  760SOL     OW 2278   2.743   1.965   2.759  0.1505  0.1514  0.0655
  760SOL    HW1 2279   2.752   1.869   2.726 -2.5624 -1.0609  2.7848
  760SOL    HW2 2280   2.812   2.029   2.716 -0.6479  0.0348 -0.5529
  761SOL     OW 2281   1.850   1.721   1.656 -0.4346 -0.6144  0.0796
  761SOL    HW1 2282   1.930   1.657   1.637 -2.0582 -1.5249 -0.6842
  761SOL    HW2 2283   1.776   1.726   1.583 -2.3644 -0.0571 -1.3886
  762SOL     OW 2284   0.507   2.390   1.008 -0.1435  0.2157  0.7098
  762SOL    HW1 2285   0.542   2.400   0.910  1.1712  1.0101 -1.5049
  762SOL    HW2 2286   0.473   2.477   1.051 -1.9952 -3.2564  0.9709
  763SOL     OW 2287   2.002   1.575   2.953 -0.1116 -0.6833  0.0205
  763SOL    HW1 2288   2.068   1.525   2.888  0.7733  0.6741 -2.4682
  763SOL    HW2 2289   1.935   1.506   2.993 -2.1150 -1.9337 -0.2364
  764SOL     OW 2290   0.702   0.593   0.820  0.0600  0.0838 -0.3550
  764SOL    HW1 2291   0.725   0.567   0.721  1.5371  0.0178  0.3916
  764SOL    HW2 2292   0.791   0.581   0.876  1.0696  3.7685 -1.1702
  765SOL     OW 2293   0.619   0.223   0.787 -0.3498 -0.4527 -0.6288
  765SOL    HW1 2294   0.712   0.252   0.753 -1.0706 -1.7139 -0.4542
  765SOL    HW2 2295   0.623   0.212   0.893  0.9865  1.2712  2.3660
  766SOL     OW 2296   2.984   1.973   2.953 -1.0763  0.5378 -0.3237
  766SOL    HW1 2297   2.890   1.963   2.906 -2.7976  0.7067 -0.2697
  766SOL    HW2 2298   3.010   2.071   2.964 -0.8854  0.8582  0.4016
  767SOL     OW 2299   2.722   1.556   0.489 -0.0967 -0.0720  0.3106
  767SOL    HW1 2300   2.669   1.582   0.572  0.7008  0.7968  0.6552
  767SOL    HW2 2301   2.821   1.587   0.497  1.3123 -0.3658 -0.5602
  768SOL     OW 2302   1.062   0.313   0.287 -0.3835  0.0673 -0.5630
  768SOL    HW1 2303   0.975   0.290   0.245  1.7472  0.5109  2.2289
  768SOL    HW2 2304   1.137   0.244   0.265 -2.2991 -1.0332  0.3239
  769SOL     OW 2305   1.361   1.781   2.222  0.0743 -0.0657 -1.0767
  769SOL    HW1 2306   1.401   1.697   2.275  0.8571  0.3625  0.1564
  769SOL    HW2 2307   1.268   1.764   2.190  1.9265 -0.8344 -0.0872
  770SOL     OW 2308   0.189   1.157   2.282 -0.3766  0.5427 -0.5488
  770SOL    HW1 2309   0.169   1.186   2.378 -0.2010 -1.5764 -1.7910
  770SOL    HW2 2310   0.116   1.196   2.211 -0.5053 -0.7880 -0.6055
  771SOL     OW 2311   2.965   2.844   1.881 -0.1152  0.3895 -0.5890
  771SOL    HW1 2312   2.925   2.903   1.805 -0.1747 -0.5749 -1.3666
  771SOL    HW2 2313   2.993   2.895   1.966  2.2076  2.2681  2.5396
  772SOL     OW 2314   2.162   0.063   3.020 -0.0297 -0.7759  0.1574
  772SOL    HW1 2315   2.206   0.017   2.941  1.0455  0.2603 -0.2772
  772SOL    HW2 2316   2.181   0.165   3.028  3.1058  2.8146 -0.5356
  773SOL     OW 2317   0.717   2.135   2.452 -0.7553  0.3622 -0.3866
  773SOL    HW1 2318   0.677   2.177   2.368 -2.8500 -2.2791  0.0922
  773SOL    HW2 2319   0.657   2.142   2.535 -2.4559  3.1595 -0.0338
  774SOL     OW 2320   1.978   0.010   2.663  0.4094 -0.0396 -0.3135
  774SOL    HW1 2321   1.976   0.087   2.735 -0.0279 -0.2456  0.7957
  774SOL    HW2 2322   2.049  -0.058   2.679 -0.9909  2.3566  1.7162
  775SOL     OW 2323   2.488   2.892   2.328 -0.3612 -0.0701 -0.1821
  775SOL    HW1 2324   2.454   2.992   2.322  0.2343 -1.8292  0.3953
  775SOL    HW2 2325   2.575   2.879   2.386 -0.6712 -2.2142 -3.0826
  776SOL     OW 2326   0.030   1.181   0.259  0.0885  0.7425  0.2677
  776SOL    HW1 2327  -0.022   1.209   0.174  1.9380  1.0895  0.1701
  776SOL    HW2 2328  -0.027   1.187   0.343  0.0833 -0.8708 -0.1741
  777SOL     OW 2329   0.325   2.728   0.380  0.2148  0.2797 -0.4153
  777SOL    HW1 2330   0.228   2.696   0.397  1.1190  1.0821  0.0729
  777SOL    HW2 2331   0.326   2.827   0.413  0.1766 -2.1476 -0.9081
  778SOL     OW 2332   1.295   2.000   0.151 -0.3369 -0.1253 -0.5198
  778SOL    HW1 2333   1.244   2.005   0.242 -0.4655 -0.3006  1.2005
  778SOL    HW2 2334   1.330   2.093   0.115 -0.9476 -0.0730 -2.9090
  779SOL     OW 2335   0.197   0.796   0.494 -0.0092 -0.0501  0.0680
  779SOL    HW1 2336   0.174   0.693   0.494  0.1389 -1.2350  0.8794
  779SOL    HW2 2337   0.148   0.853   0.570  1.5426  0.5423  0.6893
  780SOL     OW 2338   0.078   0.323   2.374  0.0227  0.2753  0.4285
  780SOL    HW1 2339   0.030   0.412   2.369 -2.2073 -0.1340 -2.0866
  780SOL    HW2 2340   0.172   0.317   2.330 -1.0743  1.5125  2.8684
  781SOL     OW 2341   0.544   1.792   1.590 -0.7070  0.0548  0.1694
  781SOL    HW1 2342   0.593   1.792   1.680  0.6762 -1.6155  0.4143
  781SOL    HW2 2343   0.474   1.717   1.594  0.8657  0.6743 -0.1958
  782SOL     OW 2344   2.598   0.098   0.903  0.2232 -0.1828  0.5392
  782SOL    HW1 2345   2.546   0.157   0.830 -0.1204  4.1203  0.0426
  782SOL    HW2 2346   2.601   0.140   0.999 -0.4106  0.7982  0.2435
  783SOL     OW 2347   2.844   0.632   2.566 -0.0531 -0.2321 -0.0556
  783SOL    HW1 2348   2.790   0.651   2.654  1.0846 -0.2066 -1.0760
  783SOL    HW2 2349   2.794   0.580   2.496 -0.7119  0.2162 -1.9010
  784SOL     OW 2350   1.421   2.223   0.053  0.1288  0.0589  0.6708
  784SOL    HW1 2351   1.503   2.267   0.090 -0.1857 -0.6526  0.3707
  784SOL    HW2 2352   1.425   2.204  -0.051  0.6292  1.5528  1.4726
  785SOL     OW 2353   2.185   0.328   3.092 -0.2835  0.1898 -0.3560
  785SOL    HW1 2354   2.095   0.319   3.149 -0.0577 -1.2449  0.4854
  785SOL    HW2 2355   2.216   0.430   3.077  1.0721  1.7342 -3.6612
  786SOL     OW 2356   2.109   2.211   2.242  0.4489  0.8784 -0.1460
  786SOL    HW1 2357   2.022   2.155   2.222 -2.5163  0.8451 -1.3187
  786SOL    HW2 2358   2.184   2.146   2.279  0.0021 -1.6840  0.9278
  787SOL     OW 2359   1.350   0.614   0.734  0.0138 -0.9074  0.6822
  787SOL    HW1 2360   1.304   0.690   0.679  3.1148 -1.4367 -0.7185
  787SOL    HW2 2361   1.402   0.552   0.674 -4.2116  2.5343  2.6234
  788SOL     OW 2362   1.232   0.478   2.972  0.0136 -0.6555 -0.4001
  788SOL    HW1 2363   1.150   0.460   2.918  0.5344  0.8813  2.5955
  788SOL    HW2 2364   1.264   0.575   2.960 -1.6516  0.1969  0.3879
  789SOL     OW 2365   2.620   0.103   1.921 -0.0628  0.3493  0.5419
  789SOL    HW1 2366   2.528   0.136   1.935  0.4617  1.2412 -1.4664
  789SOL    HW2 2367   2.635   0.004   1.959 -2.8028 -0.1588  1.7887
  790SOL     OW 2368   2.645   2.613   0.844 -0.1090 -0.6068 -0.2831
  790SOL    HW1 2369   2.700   2.626   0.757  0.8424 -1.3468  0.3230
  790SOL    HW2 2370   2.663   2.699   0.908  0.3182  1.3408  1.1181
  791SOL     OW 2371   1.925   1.187   0.222 -0.3012  0.4134 -0.1703
  791SOL    HW1 2372   1.833   1.141   0.246  0.8438  0.6439 -0.0268
  791SOL    HW2 2373   1.975   1.136   0.148  1.5801 -1.8036  0.5113
  792SOL     OW 2374   0.465   1.975   2.254  0.4553 -0.7066  0.2956
  792SOL    HW1 2375   0.482   2.078   2.268 -0.4266  1.1895 -0.6925
  792SOL    HW2 2376   0.390   1.938   2.318  0.7408  0.3383  0.6237
  793SOL     OW 2377   2.082   1.564   2.013 -0.1451  0.2504  0.0997
  793SOL    HW1 2378   2.178   1.601   2.021 -3.8855  0.8425  0.7619
  793SOL    HW2 2379   2.066   1.472   1.960 -3.0094 -0.4040  0.3228
  794SOL     OW 2380   0.571   1.548   2.493 -0.2658  0.4842  0.5004
  794SOL    HW1 2381   0.624   1.478   2.439 -1.6934  0.1846  0.3429
  794SOL    HW2 2382   0.481   1.578   2.450 -1.5974 -1.6402 -1.2748
  795SOL     OW 2383   2.391   2.355   1.856 -0.7941 -0.8333  0.0756
  795SOL    HW1 2384   2.332   2.419   1.920 -0.0995 -1.1277  0.1965
  795SOL    HW2 2385   2.354   2.261   1.853 -4.5058  1.3948  1.5273
  796SOL     OW 2386   3.039   1.151   2.719 -0.5791 -0.0515 -0.1884
  796SOL    HW1 2387   2.938   1.165   2.729 -0.6244 -1.1573 -0.0699
  796SOL    HW2 2388   3.092   1.173   2.808 -2.0593 -1.6016  0.7649
  797SOL     OW 2389   0.705   0.639   1.338  0.2165  0.5212 -0.5134
  797SOL    HW1 2390   0.785   0.675   1.395 -3.1371 -3.5191 -0.3295
  797SOL    HW2 2391   0.684   0.680   1.247  0.0431 -0.6701 -0.6937
  798SOL     OW 2392   1.202   0.530   0.978  0.0006  0.0741  0.3543
  798SOL    HW1 2393   1.201   0.618   1.034 -2.0033 -3.2092  0.6611
  798SOL    HW2 2394   1.247   0.544   0.885 -1.9827 -1.8811 -0.1600
  799SOL     OW 2395   1.786   2.704   1.070  0.4490 -0.1585  0.5651
  799SOL    HW1 2396   1.817   2.608   1.103 -4.0176  0.0234  1.3026
  799SOL    HW2 2397   1.808   2.728   0.970 -2.6456 -1.2788  0.9884
  800SOL     OW 2398   2.960   0.829   1.863 -0.2496 -0.1030  0.3274
  800SOL    HW1 2399   2.977   0.928   1.861 -2.4974 -1.9914  0.8811
  800SOL    HW2 2400   2.961   0.791   1.956 -2.1688 -2.0620 -1.7934
  801SOL     OW 2401   2.000   2.262   0.097 -0.1674  1.0487 -0.5320
  801SOL    HW1 2402   1.966   2.309   0.015 -0.7060  0.2452  0.3866
  801SOL    HW2 2403   2.077   2.192   0.069 -0.9473 -0.2818 -3.6030
  802SOL     OW 2404   0.688   0.610   2.520 -0.1339 -0.0109 -0.4006
  802SOL    HW1 2405   0.742   0.612   2.432 -0.5527 -0.6033 -0.6541
  802SOL    HW2 2406   0.588   0.617   2.496  0.0260 -0.1558 -2.4001
  803SOL     OW 2407   0.949   0.091   0.913 -0.0451  0.0409  0.3150
  803SOL    HW1 2408   1.023   0.161   0.946 -0.0725 -0.7222  0.7871
  803SOL    HW2 2409   0.904   0.129   0.825 -0.2554 -2.5686  0.0608
  804SOL     OW 2410   0.343   0.027   2.193 -0.0674  0.2326 -0.6262
  804SOL    HW1 2411   0.311   0.122   2.226  2.4775 -1.1011  0.1153
  804SOL    HW2 2412   0.284  -0.006   2.117  0.1088  0.8308  1.5256
  805SOL     OW 2413   2.392   0.324   0.315  0.1760 -0.3949  0.0455
  805SOL    HW1 2414   2.476   0.326   0.374 -0.0167 -1.4613 -1.2629
  805SOL    HW2 2415   2.416   0.275   0.230  1.0453 -1.1749  1.2167
  806SOL     OW 2416   0.655   2.651   1.993  0.6126 -0.1656  0.2482
  806SOL    HW1 2417   0.592   2.726   2.021  1.7805  1.5463  2.3951
  806SOL    HW2 2418   0.706   2.674   1.905 -2.4006 -0.9465  0.0701
  807SOL     OW 2419   2.575   0.914   0.514  0.7394  0.3060 -0.5285
  807SOL    HW1 2420   2.673   0.886   0.550  0.4300 -0.4451  0.6570
  807SOL    HW2 2421   2.572   0.946   0.416 -0.6115  0.9826  1.1737
  808SOL     OW 2422   0.686   2.024   2.890 -0.1650  0.1391  0.0056
  808SOL    HW1 2423   0.623   2.041   2.975 -2.4223  1.4449 -1.6371
  808SOL    HW2 2424   0.710   1.922   2.890  0.6512  0.4347  1.8174
  809SOL     OW 2425   2.560   2.033   1.920  0.3892  0.3731  0.0206
  809SOL    HW1 2426   2.658   2.062   1.904 -0.4698 -0.6336  1.2272
  809SOL    HW2 2427   2.503   2.000   1.842  1.0035  0.4808  2.7534
  810SOL     OW 2428   2.196   1.214   0.495 -0.1416  0.9388  0.5164
  810SOL    HW1 2429   2.107   1.169   0.506  0.2329 -1.2234  0.6566
  810SOL    HW2 2430   2.199   1.314   0.516 -0.4510  1.9530 -1.9323
  811SOL     OW 2431   1.242   2.502   1.170 -0.2386 -0.5214  0.0806
  811SOL    HW1 2432   1.240   2.401   1.166  0.7119 -1.7768  1.4633
  811SOL    HW2 2433   1.226   2.540   1.263  0.4656  1.4812  2.5474
  812SOL     OW 2434   1.455   0.749   1.999 -0.6862  0.3541 -0.2744
  812SOL    HW1 2435   1.446   0.787   2.093 -0.3747 -1.9855  2.3719
  812SOL    HW2 2436   1.486   0.811   1.924 -0.1262  0.7692  2.2242
  813SOL     OW 2437   1.621   2.068   2.408  0.3043  0.2580  0.6976
  813SOL    HW1 2438   1.721   2.041   2.416  2.4843  1.0946 -1.0629
  813SOL    HW2 2439   1.584   2.060   2.308 -1.0529 -0.9482 -1.0187
  814SOL     OW 2440   2.972   1.696   2.894  0.1043  0.0952 -0.2649
  814SOL    HW1 2441   3.054   1.640   2.918  0.3573  0.5339 -2.6631
  814SOL    HW2 2442   2.986   1.800   2.896 -0.8703 -0.0244  0.4218
  815SOL     OW 2443   2.141   2.892   2.754 -0.3832  0.3143  0.7749
  815SOL    HW1 2444   2.106   2.822   2.823 -0.0422  1.3129 -1.6918
  815SOL    HW2 2445   2.243   2.917   2.772 -0.2889  0.2344  1.8539
  816SOL     OW 2446   1.527   0.449   1.686  0.6318  0.4055 -0.0598
  816SOL    HW1 2447   1.578   0.369   1.649 -2.2912  0.7997  1.7698
  816SOL    HW2 2448   1.471   0.437   1.774  1.1519  3.2211  2.7266
  817SOL     OW 2449   0.394   1.243   2.564  0.5871 -0.4573  0.2304
  817SOL    HW1 2450   0.294   1.278   2.572  0.9681 -0.3745 -1.3583
  817SOL    HW2 2451   0.415   1.211   2.465 -1.7523  0.4099 -1.4123
  818SOL     OW 2452   1.993   0.770   0.467  0.3996 -0.2878  0.1621
  818SOL    HW1 2453   2.097   0.790   0.451 -0.3442  1.6677 -1.9537
  818SOL    HW2 2454   1.955   0.831   0.545 -1.2294  0.6408  0.3920
  819SOL     OW 2455   2.843   2.888   3.023  0.5216  0.2517  0.4506
  819SOL    HW1 2456   2.889   2.808   2.992  0.7677  0.6438 -0.0476
  819SOL    HW2 2457   2.744   2.887   2.990 -2.3257 -2.7327 -3.3915
  820SOL     OW 2458   1.209   1.050   0.537  0.6300 -0.8058 -0.6040
  820SOL    HW1 2459   1.224   1.153   0.565 -0.6552  1.1637  0.3537
  820SOL    HW2 2460   1.223   0.986   0.627 -0.7816  0.1510  2.4541
  821SOL     OW 2461   0.046   1.204   0.761  0.4248 -0.1840 -0.4115
  821SOL    HW1 2462  -0.005   1.226   0.847 -0.3513  2.0916  1.6354
  821SOL    HW2 2463   0.083   1.289   0.712  0.0937  0.1257  1.0877
  822SOL     OW 2464   2.560   1.771   2.447 -0.2276  0.2211 -0.0500
  822SOL    HW1 2465   2.550   1.833   2.529  1.2047 -0.4561 -1.8598
  822SOL    HW2 2466   2.477   1.777   2.380 -1.3445 -2.2982  0.9414
  823SOL     OW 2467   2.014   0.895   1.186  0.2136 -0.3368 -0.5664
  823SOL    HW1 2468   1.991   0.853   1.280  1.7004  0.8576 -2.6486
  823SOL    HW2 2469   1.973   0.842   1.103 -0.4957 -0.3454 -1.5084
  824SOL     OW 2470   0.200   1.798   2.851 -0.2252 -0.0194 -0.3223
  824SOL    HW1 2471   0.200   1.831   2.949  1.9892 -1.6554  0.5586
  824SOL    HW2 2472   0.270   1.851   2.796  0.0299 -0.0087 -0.3588
  825SOL     OW 2473   1.256   1.033   0.278  0.3311  0.2797 -0.5422
  825SOL    HW1 2474   1.283   1.128   0.255 -1.9277 -1.0292 -2.1621
  825SOL    HW2 2475   1.238   1.024   0.383 -2.1020 -0.9670  0.2760
  826SOL     OW 2476   1.986   0.672   1.623  0.1372 -0.3698 -0.0600
  826SOL    HW1 2477   2.071   0.623   1.668  1.1437  1.5983  3.0106
  826SOL    HW2 2478   1.908   0.610   1.588 -2.8272  0.8845 -0.1209
  827SOL     OW 2479   0.725   1.196   0.492 -0.3645 -0.4957 -0.5156
  827SOL    HW1 2480   0.815   1.155   0.452  1.4467 -2.3074  1.4001
  827SOL    HW2 2481   0.637   1.139   0.466 -1.1886  0.2130 -1.3998
  828SOL     OW 2482   2.733   0.161   1.645 -0.4706  0.1892 -0.0328
  828SOL    HW1 2483   2.658   0.108   1.598 -0.2147  1.5583  0.4435
  828SOL    HW2 2484   2.721   0.156   1.745  0.7233 -1.4299 -1.0037
  829SOL     OW 2485   2.896   2.373   2.886 -0.6951  0.1131 -0.4706
  829SOL    HW1 2486   2.793   2.360   2.893  0.2480 -0.6780  0.6767
  829SOL    HW2 2487   2.934   2.470   2.872 -2.2421  1.3022  3.1164
  830SOL     OW 2488   2.997   0.936   2.963  0.0140  0.0635  0.0572
  830SOL    HW1 2489   3.077   1.002   2.970  0.6449 -0.6728 -0.9645
  830SOL    HW2 2490   2.955   0.899   3.049  2.0806 -0.9364 -1.1468
  831SOL     OW 2491   3.082   0.559   0.441 -0.3749 -0.0410  0.6617
  831SOL    HW1 2492   3.073   0.497   0.524  2.2016 -2.6789 -1.1904
  831SOL    HW2 2493   3.119   0.508   0.359 -0.5896  1.0473  0.3391
  832SOL     OW 2494   1.775   0.703   0.034 -0.6675  0.3814 -0.4714
  832SOL    HW1 2495   1.695   0.755  -0.012 -1.7022  1.5669  0.3456
  832SOL    HW2 2496   1.784   0.602   0.015  2.7006 -1.8030 -1.4124
  833SOL     OW 2497   2.352   2.118   0.502 -0.5446 -0.4424 -0.5302
  833SOL    HW1 2498   2.266   2.090   0.457  0.8188 -0.7740 -0.4502
  833SOL    HW2 2499   2.438   2.062   0.482  0.0045 -0.1670 -1.8203
  834SOL     OW 2500   0.046   0.070   0.568 -0.4302 -0.4264  0.0281
  834SOL    HW1 2501   0.120   0.005   0.584 -1.3321  2.7735 -1.1984
  834SOL    HW2 2502   0.059   0.125   0.483 -0.5168 -0.1170 -0.8730
  835SOL     OW 2503   2.536   1.721   1.100  0.5417  0.5961 -0.0031
  835SOL    HW1 2504   2.611   1.671   1.152  0.6503  0.3097  1.3134
  835SOL    HW2 2505   2.563   1.785   1.028  0.8883 -1.1438  2.3409
  836SOL     OW 2506   1.557   0.862   2.579 -0.3940 -0.1610  0.0278
  836SOL    HW1 2507   1.463   0.895   2.547 -3.0154 -1.3550  1.6187
  836SOL    HW2 2508   1.642   0.891   2.521 -0.8897  1.5475 -1.3536
  837SOL     OW 2509   1.672   0.023   0.633 -0.4431 -0.8086  1.0251
  837SOL    HW1 2510   1.635   0.120   0.646  0.2546  1.3873 -1.4470
  837SOL    HW2 2511   1.629  -0.018   0.551  2.4259 -2.2317 -0.2466
  838SOL     OW 2512   1.195   1.402   2.676 -0.4493 -0.2146 -0.1755
  838SOL    HW1 2513   1.180   1.461   2.758 -1.7138 -2.0577  1.5907
  838SOL    HW2 2514   1.110   1.362   2.636 -0.8333  3.8047  0.8067
  839SOL     OW 2515   1.623   0.392   0.982 -0.2652 -0.2904  0.2741
  839SOL    HW1 2516   1.552   0.465   1.006 -0.4473 -3.3411  0.8356
  839SOL    HW2 2517   1.596   0.299   1.009 -3.9519 -0.3616 -1.2657
  840SOL     OW 2518   2.660   2.948   1.638 -0.0124 -0.5167 -0.5173
  840SOL    HW1 2519   2.566   2.951   1.595 -1.7435  2.6196  0.6952
  840SOL    HW2 2520   2.655   2.932   1.742 -0.3702 -1.4457  1.0078
  841SOL     OW 2521   1.535   0.852   3.053 -0.2380  0.4343 -0.6655
  841SOL    HW1 2522   1.441   0.864   3.090  1.7270 -2.4951  2.0725
  841SOL    HW2 2523   1.552   0.899   2.960  3.2395 -0.7569  1.3230
  842SOL     OW 2524   0.821   1.607   1.033  0.5186 -0.4485  0.1173
  842SOL    HW1 2525   0.788   1.701   1.069  3.3467  0.2668 -0.8042
  842SOL    HW2 2526   0.747   1.557   0.985 -0.4454  2.1587  2.1781
  843SOL     OW 2527   0.129   0.076   1.433  0.2686  0.1488 -0.0107
  843SOL    HW1 2528   0.219   0.127   1.451  0.2358  0.2383 -0.4439
  843SOL    HW2 2529   0.142  -0.024   1.414  0.9884 -0.5066 -1.3077
  844SOL     OW 2530   0.758   2.448   0.202  0.8994  0.1246  0.0404
  844SOL    HW1 2531   0.716   2.494   0.287 -0.1293  0.0576 -0.7371
  844SOL    HW2 2532   0.684   2.417   0.137  1.9206  1.8426 -0.0278
  845SOL     OW 2533   1.732   0.016   1.314  0.0295 -0.1588  0.1838
  845SOL    HW1 2534   1.709  -0.007   1.411  2.7153 -0.5694 -0.7754
  845SOL    HW2 2535   1.702   0.112   1.283 -2.7792  1.7956 -0.9815
  846SOL     OW 2536   1.706   2.996   0.883  0.5389 -0.2157 -0.0292
  846SOL    HW1 2537   1.671   3.074   0.819 -0.0682  0.7106  0.0448
  846SOL    HW2 2538   1.802   3.010   0.921 -2.1159  0.1703 -0.6177
  847SOL     OW 2539   2.069   1.569   0.194 -0.0936 -0.0557  0.2199
  847SOL    HW1 2540   2.031   1.500   0.263 -1.1657  2.5736 -0.4989
  847SOL    HW2 2541   1.999   1.594   0.122 -1.8226  1.0529 -2.4671
  848SOL     OW 2542   2.469   0.791   2.671 -0.6825  0.0005  0.1342
  848SOL    HW1 2543   2.486   0.889   2.672 -0.0061 -1.9736  1.4083
  848SOL    HW2 2544   2.416   0.768   2.589  1.2091  0.1868  1.4965
  849SOL     OW 2545   2.346   0.839   2.305 -0.2211  0.0431  0.6935
  849SOL    HW1 2546   2.398   0.809   2.222 -1.0283  1.3655 -1.7087
  849SOL    HW2 2547   2.297   0.763   2.356  4.3785  1.9641  0.2654
  850SOL     OW 2548   1.520   0.223   1.268  0.5555 -0.3694  0.2670
  850SOL    HW1 2549   1.519   0.189   1.168 -2.4319 -0.0184 -2.5467
  850SOL    HW2 2550   1.506   0.147   1.335  0.8729 -2.6498 -3.0393
  851SOL     OW 2551   0.424   1.675   0.652 -0.3168  0.4037  0.4373
  851SOL    HW1 2552   0.433   1.776   0.664  0.2969 -1.7897 -2.0990
  851SOL    HW2 2553   0.497   1.642   0.586 -1.4110 -1.3993  0.5013
  852SOL     OW 2554   0.850   2.161   1.775 -0.1878 -0.0953 -0.9772
  852SOL    HW1 2555   0.842   2.228   1.698 -0.9083 -3.4664  3.9447
  852SOL    HW2 2556   0.761   2.147   1.830  0.0320  0.5186  2.2528
  853SOL     OW 2557   2.521   1.504   2.600 -0.1675  0.0058  0.2179
  853SOL    HW1 2558   2.492   1.411   2.570 -0.6235  2.3346 -1.0999
  853SOL    HW2 2559   2.542   1.562   2.523 -3.8111  0.2564  1.4026
  854SOL     OW 2560   2.419   1.474   1.720  0.0904 -0.1147 -0.7025
  854SOL    HW1 2561   2.442   1.498   1.624 -1.2952 -2.3663 -1.1359
  854SOL    HW2 2562   2.405   1.371   1.722 -0.0168 -0.4981  1.7893
  855SOL     OW 2563   2.061   2.372   0.955  0.0551  0.9267 -0.3831
  855SOL    HW1 2564   2.108   2.453   0.903  0.8474 -1.6106 -0.3257
  855SOL    HW2 2565   2.112   2.336   1.039 -1.1688 -1.0823 -2.3997
  856SOL     OW 2566   1.434   1.433   0.821  0.4798 -0.4021  0.0639
  856SOL    HW1 2567   1.474   1.532   0.826  1.4475  0.4394 -0.4671
  856SOL    HW2 2568   1.354   1.416   0.884  0.6586 -2.3422 -1.6781
  857SOL     OW 2569   2.923   2.537   1.055 -0.1506  0.0102 -0.2771
  857SOL    HW1 2570   2.835   2.518   1.106 -0.6681 -0.3578 -0.2155
  857SOL    HW2 2571   2.978   2.452   1.027  2.5850 -1.5561  2.4650
  858SOL     OW 2572   2.294   2.111   1.774 -0.1921 -0.3631 -0.1664
  858SOL    HW1 2573   2.228   2.177   1.730 -0.0625  2.0215 -0.0386
  858SOL    HW2 2574   2.317   2.041   1.707 -0.4002  0.9593 -0.1101
  859SOL     OW 2575   2.482   0.449   1.033  0.5555  0.5712 -0.2508
  859SOL    HW1 2576   2.548   0.493   0.968 -2.0380 -1.9219 -0.0142
  859SOL    HW2 2577   2.521   0.356   1.061 -0.3913  0.2087  0.8498
  860SOL     OW 2578   1.894   2.794   0.519  0.4112  0.4638 -0.1869
  860SOL    HW1 2579   1.958   2.785   0.438  2.6821 -1.9750  0.4985
  860SOL    HW2 2580   1.915   2.885   0.564 -0.4506  1.0720 -3.4593
  861SOL     OW 2581   0.987   2.603   2.847 -0.3644  0.4747  0.6960
  861SOL    HW1 2582   0.982   2.706   2.858 -0.9745  0.8526 -0.1612
  861SOL    HW2 2583   0.959   2.544   2.925  0.8793 -1.4549 -0.3626
  862SOL     OW 2584   2.939   2.531   1.582 -0.3219 -0.5273  0.2240
  862SOL    HW1 2585   2.995   2.555   1.666 -2.9124  1.2450 -0.5532
  862SOL    HW2 2586   2.853   2.591   1.572 -3.4717 -4.4366 -0.7305
  863SOL     OW 2587   1.908   2.695   0.179  0.3381  0.1308 -0.2310
  863SOL    HW1 2588   1.978   2.639   0.229 -1.3196  1.8637  0.2993
  863SOL    HW2 2589   1.805   2.672   0.188 -2.3891 -1.0879 -0.9982
  864SOL     OW 2590   1.932   1.092   2.986  0.2270 -0.3038  0.2193
  864SOL    HW1 2591   1.931   1.080   2.882  0.2815  0.3773 -0.8974
  864SOL    HW2 2592   2.024   1.088   3.036 -1.1268 -0.7207  1.5390
  865SOL     OW 2593   2.200   1.708   0.620  0.2961  0.0617  0.5029
  865SOL    HW1 2594   2.193   1.759   0.711  2.4348  1.9317  1.2199
  865SOL    HW2 2595   2.160   1.613   0.636  2.3815  1.6434 -0.8754
  866SOL     OW 2596   2.955   2.794   0.998  0.5656  0.2587 -0.6598
  866SOL    HW1 2597   2.995   2.819   0.905  2.9722  0.0779 -0.5604
  866SOL    HW2 2598   2.956   2.689   1.019 -0.7007 -0.0264 -3.6527
  867SOL     OW 2599   0.367   1.385   0.845 -0.6586  0.3684  0.5633
  867SOL    HW1 2600   0.396   1.289   0.816  0.0509 -3.4171 -0.1012
  867SOL    HW2 2601   0.277   1.412   0.804  0.9747  1.0600  0.2910
  868SOL     OW 2602   0.827   1.910   2.021 -0.5914  0.3072 -0.1007
  868SOL    HW1 2603   0.816   1.881   2.121 -1.1488  0.8239 -0.4255
  868SOL    HW2 2604   0.807   2.012   2.011  0.9287 -2.9912  3.0976
  869SOL     OW 2605   2.515   1.960   1.636 -0.8729  0.6123  0.6132
  869SOL    HW1 2606   2.610   1.912   1.633  0.9984 -2.7061 -1.4511
  869SOL    HW2 2607   2.482   1.985   1.537  1.4608  0.6518 -0.9742
  870SOL     OW 2608   2.354   2.535   1.271  0.0429  0.6478  0.2550
  870SOL    HW1 2609   2.315   2.460   1.210 -1.1487  0.0096 -0.1607
  870SOL    HW2 2610   2.436   2.501   1.333 -2.5153 -1.8838 -0.4350
  871SOL     OW 2611   3.001   1.987   0.531  0.4078 -0.3710  0.0048
  871SOL    HW1 2612   2.941   2.072   0.520 -0.0883  0.9558  1.7120
  871SOL    HW2 2613   2.964   1.916   0.464  0.0584 -0.7898  0.8743
  872SOL     OW 2614   2.192   0.538   1.717 -0.2447  0.0157 -0.1858
  872SOL    HW1 2615   2.183   0.562   1.817  3.3338  0.2925 -4.4076
  872SOL    HW2 2616   2.284   0.493   1.704  0.4294  1.5390  0.8858
  873SOL     OW 2617   1.698   2.110   2.888  0.5586  0.5662  0.2193
  873SOL    HW1 2618   1.699   2.206   2.916  0.2182 -1.9285  2.9859
  873SOL    HW2 2619   1.619   2.086   2.831  2.4697 -0.9360 -0.1022
  874SOL     OW 2620   0.594   2.491   0.742  0.6925 -0.7484 -0.6689
  874SOL    HW1 2621   0.601   2.591   0.774 -2.2774  0.4057 -0.1290
  874SOL    HW2 2622   0.682   2.439   0.720 -0.9396 -0.4688 -1.0001
  875SOL     OW 2623   2.320   1.578   1.458 -0.8543  0.5767  0.7190
  875SOL    HW1 2624   2.422   1.602   1.482 -0.9418  3.2793  0.6211
  875SOL    HW2 2625   2.306   1.601   1.359  1.4272 -0.9495  0.6133
  876SOL     OW 2626   0.166   2.262   2.753  0.2367  0.2658  0.7022
  876SOL    HW1 2627   0.186   2.194   2.827 -0.6605 -2.3521  1.7520
  876SOL    HW2 2628   0.244   2.334   2.760  3.9738  0.8908 -0.5284
  877SOL     OW 2629   2.823   2.644   0.631 -0.2709  0.3289  0.5800
  877SOL    HW1 2630   2.818   2.746   0.631 -1.0877  0.3213  0.4137
  877SOL    HW2 2631   2.911   2.597   0.664  0.6776 -2.0998  4.4594
  878SOL     OW 2632   2.722   1.487   2.360 -0.9327 -0.1875  0.7753
  878SOL    HW1 2633   2.754   1.575   2.398 -0.2351  1.3774 -1.2712
  878SOL    HW2 2634   2.729   1.407   2.422 -1.6635 -0.9988  0.5009
  879SOL     OW 2635   2.456   3.050   1.239  0.2148  0.2424 -0.6900
  879SOL    HW1 2636   2.488   2.955   1.217 -1.1369  0.4786 -1.4469
  879SOL    HW2 2637   2.349   3.057   1.225 -0.4048 -1.7609 -1.4887
  880SOL     OW 2638   0.613   0.506   2.214  0.3948 -0.0326  0.0871
  880SOL    HW1 2639   0.583   0.464   2.305  1.1367  0.4788  1.7278
  880SOL    HW2 2640   0.602   0.439   2.139 -0.1403  1.5128  0.3795
  881SOL     OW 2641   0.891   0.074   0.455  0.8237 -0.1914 -0.0902
  881SOL    HW1 2642   0.949  -0.006   0.488 -0.1413  0.5206 -1.2583
  881SOL    HW2 2643   0.901   0.093   0.355 -0.3079 -0.3819 -0.5757
  882SOL     OW 2644   2.760   1.788   1.676  0.1522 -0.3827  0.2399
  882SOL    HW1 2645   2.834   1.716   1.655  1.2750 -1.6807 -1.1561
  882SOL    HW2 2646   2.707   1.777   1.765  1.6932  3.1250 -0.6030
  883SOL     OW 2647   0.932   0.565   0.959 -0.3695 -0.2288 -0.1737
  883SOL    HW1 2648   0.937   0.643   1.028 -0.5163 -0.4870  1.0845
  883SOL    HW2 2649   1.023   0.520   0.943  0.4804 -0.2908  1.2265
  884SOL     OW 2650   1.158   1.912   1.058 -0.5013 -0.0546 -0.0801
  884SOL    HW1 2651   1.124   1.851   0.982 -0.1572 -1.3042 -1.2336
  884SOL    HW2 2652   1.086   1.981   1.085 -0.2072 -1.8308  0.2530
  885SOL     OW 2653   2.319   1.791   2.296  0.1142  0.3973  0.0244
  885SOL    HW1 2654   2.230   1.754   2.342  0.9671  0.3723 -1.4838
  885SOL    HW2 2655   2.343   1.887   2.335  0.5137  1.5962 -1.4848
  886SOL     OW 2656   2.673   0.459   1.820 -0.0670  0.0471  0.3242
  886SOL    HW1 2657   2.733   0.389   1.870  1.2219 -3.6565  2.2771
  886SOL    HW2 2658   2.730   0.529   1.773 -0.6707  1.2567  2.6290
  887SOL     OW 2659   0.200   2.044   1.282  0.1901 -0.0959 -0.3587
  887SOL    HW1 2660   0.155   1.990   1.208  0.2264  1.5983 -1.1190
  887SOL    HW2 2661   0.242   2.134   1.253  0.3656 -1.0698  0.0804
  888SOL     OW 2662   0.576   1.334   1.480 -0.2268  0.5981 -0.5672
  888SOL    HW1 2663   0.588   1.363   1.381  0.6316  3.0121  1.2620
  888SOL    HW2 2664   0.579   1.234   1.492  1.0812 -0.6873  0.1828
  889SOL     OW 2665   0.834   2.407   2.153 -0.0359  0.0643  0.3970
  889SOL    HW1 2666   0.787   2.348   2.087  1.1425 -0.1454  1.2802
  889SOL    HW2 2667   0.921   2.437   2.108  0.3275  0.4641  1.4289
  890SOL     OW 2668   2.332   2.421   0.204  0.3527  0.0057  0.8607
  890SOL    HW1 2669   2.366   2.520   0.212  2.5351  1.0181 -0.3541
  890SOL    HW2 2670   2.227   2.414   0.216  0.8327  1.4336 -2.7104
  891SOL     OW 2671   2.601   1.660   0.717 -0.2630 -0.4420  0.1643
  891SOL    HW1 2672   2.577   1.582   0.785  1.8697 -0.1794  2.3144
  891SOL    HW2 2673   2.524   1.684   0.649  0.0597 -1.8768 -1.8487
  892SOL     OW 2674   0.298   0.282   2.248  0.0630  0.0057 -0.2593
  892SOL    HW1 2675   0.303   0.334   2.157 -2.5145  0.2490 -2.1512
  892SOL    HW2 2676   0.369   0.320   2.322  0.2618 -1.9703  4.2295
  893SOL     OW 2677   1.626   0.254   2.713  0.1282  0.3990  1.0719
  893SOL    HW1 2678   1.692   0.324   2.748 -2.2966 -2.0080  0.5482
  893SOL    HW2 2679   1.526   0.279   2.715  0.0442  1.8022  1.0308
  894SOL     OW 2680   2.164   2.039   0.048  0.4094 -0.6805 -0.3304
  894SOL    HW1 2681   2.120   1.965  -0.010  0.3537  0.5256  1.4254
  894SOL    HW2 2682   2.210   1.995   0.131 -0.4017  1.9079 -0.1505
  895SOL     OW 2683   2.821   1.380   0.843 -1.0419 -0.1906 -0.2621
  895SOL    HW1 2684   2.874   1.312   0.904 -0.7371 -0.9137  0.0278
  895SOL    HW2 2685   2.863   1.470   0.850 -0.4425 -1.7799  1.3898
  896SOL     OW 2686   1.705   1.794   1.170  0.2964  0.6591 -0.0368
  896SOL    HW1 2687   1.799   1.791   1.126  0.2935 -1.1977 -0.7504
  896SOL    HW2 2688   1.660   1.886   1.167  0.4730  0.2482  1.2371
  897SOL     OW 2689   0.321   0.492   3.060 -0.3835  0.2024 -0.1012
  897SOL    HW1 2690   0.255   0.530   2.989  1.1508 -3.0860  0.2792
  897SOL    HW2 2691   0.410   0.547   3.068 -1.3766  1.3965  1.5550
  898SOL     OW 2692   0.559   2.926   0.991 -0.2525 -0.1696 -0.1384
  898SOL    HW1 2693   0.467   2.964   1.019 -1.0030 -0.9619 -0.2417
  898SOL    HW2 2694   0.639   2.962   1.048 -3.1191  1.3835  1.0156
  899SOL     OW 2695   2.702   0.940   1.278 -0.2784  0.2382 -0.0679
  899SOL    HW1 2696   2.669   0.875   1.201 -3.6683 -2.1042 -3.2487
  899SOL    HW2 2697   2.782   0.996   1.245  0.8549  0.2113  0.6828
  900SOL     OW 2698   0.992   2.363   2.387 -0.2291  0.4225 -0.0466
  900SOL    HW1 2699   0.944   2.411   2.308  0.8799 -0.7665 -0.3872
  900SOL    HW2 2700   0.942   2.382   2.475  2.0455  1.8094  1.9826
  901SOL     OW 2701   1.993   2.492   1.346 -0.3725  0.1715  0.0099
  901SOL    HW1 2702   1.918   2.474   1.280 -0.2375  0.3876 -1.3608
  901SOL    HW2 2703   2.048   2.404   1.375  1.0121  0.6936 -1.0072
  902SOL     OW 2704   2.570   1.665   1.476  0.2822 -0.4170  0.0698
  902SOL    HW1 2705   2.639   1.723   1.535  0.5291  0.0584  1.6568
  902SOL    HW2 2706   2.620   1.640   1.383  1.5327  0.8525 -1.9658
  903SOL     OW 2707   0.274   2.463   1.974 -0.0609  0.2658 -0.5296
  903SOL    HW1 2708   0.189   2.412   2.001  1.3617  1.7271  0.1989
  903SOL    HW2 2709   0.253   2.542   1.910 -0.6819  3.4253 -3.5466
  904SOL     OW 2710   1.988   0.783   2.601 -0.3283  0.5298 -0.1117
  904SOL    HW1 2711   1.902   0.735   2.630 -1.0204  3.1524 -0.6944
  904SOL    HW2 2712   2.003   0.783   2.495  0.5958  0.1613  4.0886
  905SOL     OW 2713   2.817   0.036   2.562  1.2840  0.2847  0.7308
  905SOL    HW1 2714   2.891  -0.011   2.613  0.0669  0.1022  0.1414
  905SOL    HW2 2715   2.836   0.136   2.542 -2.1578 -1.8771  0.6652
  906SOL     OW 2716   0.122   1.852   1.921 -0.0413  0.0227 -0.6633
  906SOL    HW1 2717   0.081   1.837   1.829  0.6672 -0.1654  0.7023
  906SOL    HW2 2718   0.151   1.952   1.923 -1.4439  1.7228  0.1044
  907SOL     OW 2719   0.198   2.392   1.064 -0.1037  0.2224  0.1524
  907SOL    HW1 2720   0.277   2.448   1.027  0.9366  0.9596 -2.4451
  907SOL    HW2 2721   0.112   2.409   1.008  0.3539  1.3846  1.5883
  908SOL     OW 2722   2.689   2.811   0.360 -0.1291 -0.5306  0.3397
  908SOL    HW1 2723   2.669   2.873   0.274 -3.6876 -0.2950  0.4355
  908SOL    HW2 2724   2.674   2.709   0.339  2.1976 -2.4514 -3.1791
  909SOL     OW 2725   0.675   0.912   2.639 -0.5139 -0.1748 -0.1248
  909SOL    HW1 2726   0.678   0.805   2.624 -0.2539 -0.8705  1.2824
  909SOL    HW2 2727   0.758   0.964   2.604  0.6421 -0.0818  3.1113
  910SOL     OW 2728   1.718   1.792   2.104 -0.1662 -0.7959  0.4186
  910SOL    HW1 2729   1.781   1.814   2.026 -0.6871  0.9057  0.7871
  910SOL    HW2 2730   1.663   1.876   2.129  1.8427 -0.9232  0.6640
  911SOL     OW 2731   1.759   3.047   1.570  0.4352 -0.3387 -0.1488
  911SOL    HW1 2732   1.851   3.018   1.546 -1.7762  1.8703  0.8667
  911SOL    HW2 2733   1.730   2.999   1.657  1.3034  1.1960  0.4424
  912SOL     OW 2734   2.872   0.964   0.770  0.4255  0.1513 -0.4216
  912SOL    HW1 2735   2.886   0.942   0.870 -0.3935 -0.0706 -0.1684
  912SOL    HW2 2736   2.819   1.052   0.749 -2.1864 -1.0706  0.1969
  913SOL     OW 2737   2.578   1.283   1.549 -0.2639  0.2024  0.5120
  913SOL    HW1 2738   2.603   1.188   1.580  0.7591  0.6967 -1.3263
  913SOL    HW2 2739   2.615   1.301   1.454  1.7517 -2.4822 -1.5723
  914SOL     OW 2740   2.780   0.490   1.288 -0.4825  0.3030 -0.9002
  914SOL    HW1 2741   2.768   0.399   1.332  1.6017  0.0657  1.5026
  914SOL    HW2 2742   2.785   0.577   1.350  0.6256  1.6661 -0.7423
  915SOL     OW 2743   1.173   0.796   1.037  0.1482 -0.3497 -0.3871
  915SOL    HW1 2744   1.245   0.807   1.115  2.0750 -0.6441  2.8689
  915SOL    HW2 2745   1.074   0.794   1.072  0.0184 -0.1800 -0.9007
  916SOL     OW 2746   0.608   0.028   0.586 -0.0842 -0.1954  0.0639
  916SOL    HW1 2747   0.637   0.095   0.657 -0.3604  0.3351 -2.0325
  916SOL    HW2 2748   0.601   0.074   0.493 -0.2760  0.5625  0.3308
  917SOL     OW 2749   2.738   2.611   1.865  0.1356  0.4534 -0.1515
  917SOL    HW1 2750   2.698   2.699   1.906 -1.3829 -3.3470 -0.2351
  917SOL    HW2 2751   2.815   2.638   1.799  3.6177  0.5486 -1.6854
  918SOL     OW 2752   1.078   2.190   3.085 -0.1932 -0.3819  0.2558
  918SOL    HW1 2753   1.026   2.230   3.165 -1.2653  1.3648 -2.0796
  918SOL    HW2 2754   1.145   2.115   3.109  1.1803  2.7232  0.1870
  919SOL     OW 2755   0.907   1.579   2.776  0.3890 -0.0701 -0.0833
  919SOL    HW1 2756   0.933   1.649   2.703 -1.0931 -0.1718  0.7516
  919SOL    HW2 2757   0.857   1.494   2.739  0.8999  0.8643 -2.4256
  920SOL     OW 2758   1.216   2.008   2.461 -0.1469  0.2206 -0.4141
  920SOL    HW1 2759   1.141   2.009   2.388 -1.5627  1.1922 -0.0222
  920SOL    HW2 2760   1.235   1.917   2.518 -0.8947  0.0429  2.4744
  921SOL     OW 2761   1.043   0.106   2.538  0.4652  0.1903 -0.3284
  921SOL    HW1 2762   1.058   0.018   2.478 -3.1318 -1.1972 -1.0658
  921SOL    HW2 2763   1.013   0.182   2.478  0.6428  1.8300 -1.3815
  922SOL     OW 2764   2.141   2.428   2.803  0.1553 -0.2256  0.0671
  922SOL    HW1 2765   2.139   2.326   2.827 -0.7965 -0.0700 -1.1453
  922SOL    HW2 2766   2.102   2.452   2.712  0.4347  0.5165  3.9158
  923SOL     OW 2767   1.218   2.722   0.210  0.4235 -0.3928 -0.4493
  923SOL    HW1 2768   1.286   2.764   0.275 -0.9933 -0.8370  1.4387
  923SOL    HW2 2769   1.233   2.622   0.196  1.2247 -2.0279 -2.2396
  924SOL     OW 2770   2.918   1.610   0.078  0.0715  0.4659  0.2407
  924SOL    HW1 2771   2.839   1.611   0.009  0.4913  2.2690  0.4817
  924SOL    HW2 2772   3.006   1.586   0.028 -1.2928 -2.0635  0.1142
  925SOL     OW 2773   0.073   2.882   1.626 -0.6094 -0.1941  0.0335
  925SOL    HW1 2774  -0.002   2.949   1.658  4.1787 -1.1676  1.2534
  925SOL    HW2 2775   0.076   2.874   1.521 -0.9974 -0.7994 -0.2036
  926SOL     OW 2776   1.411   2.909   1.249 -0.1323 -0.4358 -0.1488
  926SOL    HW1 2777   1.445   2.897   1.150 -1.3067 -0.9245  1.7901
  926SOL    HW2 2778   1.442   2.991   1.300 -1.1075  0.3438 -2.1261
  927SOL     OW 2779   0.249   2.596   1.735  0.4075  0.4367 -0.5734
  927SOL    HW1 2780   0.242   2.500   1.694 -2.8682 -0.6595 -2.0373
  927SOL    HW2 2781   0.278   2.663   1.660  1.6603 -0.7454 -0.8425
  928SOL     OW 2782   1.608   2.040   2.127  0.3000 -0.0947 -0.1845
  928SOL    HW1 2783   1.639   2.133   2.102 -2.6968 -1.8805 -0.2212
  928SOL    HW2 2784   1.510   2.026   2.096 -1.0728  2.2879  0.0869
  929SOL     OW 2785   2.408   2.408   2.861  0.9533 -0.2531  0.1894
  929SOL    HW1 2786   2.309   2.424   2.832 -0.3730 -2.6612  0.3514
  929SOL    HW2 2787   2.475   2.390   2.785  0.0658 -1.4171  0.3766
  930SOL     OW 2788   2.159   1.988   1.071 -1.0545  0.0067 -0.6880
  930SOL    HW1 2789   2.105   1.995   1.158 -0.0596 -0.7368 -0.6787
  930SOL    HW2 2790   2.255   2.026   1.069 -0.8728 -0.3779 -2.5350
  931SOL     OW 2791   0.538   1.755   2.657 -0.1500  0.0151 -0.2070
  931SOL    HW1 2792   0.606   1.756   2.730 -1.5626 -2.2012 -1.3387
  931SOL    HW2 2793   0.578   1.687   2.587  0.1797 -1.0863 -0.2501
  932SOL     OW 2794   0.505   0.115   2.952  0.3250  0.0153 -0.0214
  932SOL    HW1 2795   0.606   0.115   2.928  1.1671 -0.1704  0.4351
  932SOL    HW2 2796   0.479   0.022   2.987  1.0227  1.3589  0.2906
  933SOL     OW 2797   1.062   0.767   2.993 -0.2325  0.3000  0.1543
  933SOL    HW1 2798   1.113   0.821   3.068  0.0960 -0.1101  0.6472
  933SOL    HW2 2799   1.016   0.836   2.927  0.1162  0.0862  0.1755
  934SOL     OW 2800   0.867   2.975   2.817  0.1819 -0.2559  0.3133
  934SOL    HW1 2801   0.965   2.962   2.785 -3.6487  1.2384 -1.1850
  934SOL    HW2 2802   0.846   2.952   2.919 -2.2444 -0.0954  2.0338
  935SOL     OW 2803   3.040   0.535   0.871  0.0446  0.0511 -0.8029
  935SOL    HW1 2804   3.030   0.449   0.815 -0.5861  2.3903  2.5589
  935SOL    HW2 2805   2.948   0.583   0.882 -0.7739 -2.0886 -2.7475
  936SOL     OW 2806   1.134   3.002   0.159 -0.2556  0.1221 -0.2526
  936SOL    HW1 2807   1.182   3.045   0.080  1.5549 -2.1360  1.6547
  936SOL    HW2 2808   1.162   2.900   0.167  1.4231 -1.4179  0.2852
  937SOL     OW 2809   1.943   2.709   2.097  0.2295  0.0660  0.1694
  937SOL    HW1 2810   1.862   2.729   2.161 -1.9242  0.0996  0.0495
  937SOL    HW2 2811   1.935   2.721   1.996  1.8245 -0.8160  0.2606
  938SOL     OW 2812   2.724   2.216   1.502 -0.1564 -0.3855 -0.4383
  938SOL    HW1 2813   2.660   2.268   1.568 -1.3753 -0.6461 -2.3953
  938SOL    HW2 2814   2.781   2.147   1.554  0.4257  0.8069  1.3714
  939SOL     OW 2815   2.760   0.975   2.524  0.5023  0.1633  0.1891
  939SOL    HW1 2816   2.844   0.912   2.534 -2.7912 -1.1295  1.0820
  939SOL    HW2 2817   2.748   1.036   2.609 -0.6296  3.0045  1.7204
  940SOL     OW 2818   1.055   0.453   2.662  0.0318  0.5221  0.1490
  940SOL    HW1 2819   1.092   0.366   2.712  1.3801 -2.0310 -0.4323
  940SOL    HW2 2820   0.955   0.441   2.626 -2.7745 -3.0716 -3.1463
  941SOL     OW 2821   0.052   2.871   2.196 -0.5522  0.3097 -0.1433
  941SOL    HW1 2822  -0.003   2.784   2.199 -2.7956  0.1904  0.2645
  941SOL    HW2 2823   0.131   2.871   2.264  1.8504  1.7455 -2.2260
  942SOL     OW 2824   0.129   0.083   2.511  0.7004 -0.0673  0.2072
  942SOL    HW1 2825   0.181   0.095   2.605 -1.9324 -2.8860  0.6822
  942SOL    HW2 2826   0.092   0.172   2.464  1.6820  2.4547 -0.2224
  943SOL     OW 2827   2.105   1.673   2.415 -0.4417 -0.4267 -0.8730
  943SOL    HW1 2828   2.144   1.594   2.470  0.2584  1.7366 -0.8232
  943SOL    HW2 2829   2.027   1.627   2.357  0.4372  0.7616  1.5994
  944SOL     OW 2830   2.187   2.290   1.432 -0.0912 -0.1935 -0.9705
  944SOL    HW1 2831   2.258   2.346   1.487  1.0473  3.9529  0.6005
  944SOL    HW2 2832   2.129   2.238   1.496  2.3675  0.4732 -0.8523
  945SOL     OW 2833   0.654   1.435   0.357 -0.5837  0.0331  0.0245
  945SOL    HW1 2834   0.705   1.460   0.268  0.6141 -1.0479 -0.2774
  945SOL    HW2 2835   0.674   1.339   0.391  2.2080  0.2735 -1.1736
  946SOL     OW 2836   0.325   0.980   2.666 -0.0969 -0.2147 -0.1064
  946SOL    HW1 2837   0.271   0.953   2.578 -2.4218 -1.2772 -0.5078
  946SOL    HW2 2838   0.377   1.066   2.649  1.5653 -0.5751 -1.3988
  947SOL     OW 2839   1.524   0.427   0.166 -0.0010  0.5853 -0.3788
  947SOL    HW1 2840   1.574   0.349   0.211  0.7150  1.6402 -1.5552
  947SOL    HW2 2841   1.426   0.404   0.134 -2.1524  0.1452 -2.0844
  948SOL     OW 2842   2.009   3.070   2.125  0.1698 -0.6235  0.0873
  948SOL    HW1 2843   1.957   3.071   2.034  1.2932 -0.9622 -1.2798
  948SOL    HW2 2844   1.988   2.990   2.182  0.9758  1.7332  1.2156
  949SOL     OW 2845   0.665   2.546   0.449  0.7286  0.1837 -0.2084
  949SOL    HW1 2846   0.667   2.646   0.421 -1.2906 -0.4403 -0.9370
  949SOL    HW2 2847   0.659   2.521   0.549  2.1236 -2.8271  0.0131
  950SOL     OW 2848   0.203   2.110   3.014 -0.2170 -0.3301 -0.1292
  950SOL    HW1 2849   0.109   2.152   3.043 -0.6016  0.8378  0.8754
  950SOL    HW2 2850   0.210   2.012   3.051  2.9838  1.1488  1.5395
  951SOL     OW 2851   1.149   2.826   2.806 -0.5628  0.6001  0.2169
  951SOL    HW1 2852   1.164   2.745   2.742 -0.1957 -1.6997 -2.1763
  951SOL    HW2 2853   1.230   2.891   2.813  1.7178 -1.3514  0.2899
  952SOL     OW 2854   0.084   1.696   0.478 -1.1893 -0.4309  0.1884
  952SOL    HW1 2855   0.158   1.775   0.487  2.1842  2.8510 -1.9077
  952SOL    HW2 2856   0.013   1.685   0.549 -0.4981 -2.8888 -0.7758
  953SOL     OW 2857   2.470   1.750   0.159 -0.3031  0.6685 -0.1165
  953SOL    HW1 2858   2.465   1.647   0.165 -5.3215  0.0969  1.7344
  953SOL    HW2 2859   2.500   1.796   0.069  1.3531  2.2823  2.4804
  954SOL     OW 2860   2.204   0.490   1.048  0.7636  0.1146 -0.5395
  954SOL    HW1 2861   2.154   0.521   0.968  2.2419  0.7184 -1.1007
  954SOL    HW2 2862   2.307   0.470   1.023  1.8520 -0.2804 -0.4910
  955SOL     OW 2863   0.214   2.681   1.257 -0.1625  0.7669 -0.7077
  955SOL    HW1 2864   0.130   2.624   1.261  0.4593 -2.1687  1.8083
  955SOL    HW2 2865   0.272   2.663   1.172 -0.4927  0.5815 -0.2973
  956SOL     OW 2866   2.747   2.478   2.503  0.4033  0.2275 -0.0526
  956SOL    HW1 2867   2.756   2.373   2.492  0.8750 -0.1845  0.2843
  956SOL    HW2 2868   2.776   2.533   2.420 -1.1685 -0.0228  1.4947
  957SOL     OW 2869   1.563   1.992   2.667 -0.2340 -0.5262  0.1582
  957SOL    HW1 2870   1.533   1.887   2.668 -1.2140 -0.6424  0.2714
  957SOL    HW2 2871   1.582   2.020   2.567 -1.1034  1.4345  0.8191
  958SOL     OW 2872   2.655   2.287   2.985  0.1377 -0.2749 -0.1077
  958SOL    HW1 2873   2.553   2.309   2.970 -0.6690  2.9214 -2.7274
  958SOL    HW2 2874   2.676   2.239   3.076  0.7009 -2.1805 -2.4481
  959SOL     OW 2875   0.260   2.784   0.028  0.2723  0.1177  0.1423
  959SOL    HW1 2876   0.159   2.777   0.044 -1.1182 -0.6387 -1.5119
  959SOL    HW2 2877   0.309   2.696  -0.000  0.8879 -0.8430  1.1923
  960SOL     OW 2878   1.942   0.448   2.041 -0.4446  0.1309  0.3897
  960SOL    HW1 2879   1.937   0.533   1.982 -2.1659 -2.9705  0.1347
  960SOL    HW2 2880   1.983   0.468   2.138  0.4616  0.3784  0.7359
  961SOL     OW 2881   2.717   1.960   1.026  0.8200  0.1750 -0.3793
  961SOL    HW1 2882   2.683   2.016   0.945  4.8368  2.8249 -1.2804
  961SOL    HW2 2883   2.700   2.014   1.116 -0.0356 -1.6006  0.9377
  962SOL     OW 2884   1.263   0.953   0.001 -0.3844 -0.0101 -0.2863
  962SOL    HW1 2885   1.268   1.017  -0.078 -1.4199 -1.2197 -2.9661
  962SOL    HW2 2886   1.242   0.995   0.094 -1.2959 -0.7234  0.0140
  963SOL     OW 2887   2.198   2.577   1.924 -0.5736  0.1159  0.1162
  963SOL    HW1 2888   2.240   2.548   2.018 -1.2941 -1.6048  2.7269
  963SOL    HW2 2889   2.237   2.670   1.890  0.1909  0.4146 -0.1345
  964SOL     OW 2890   2.432   0.379   1.731 -0.0885 -0.2945 -0.4762
  964SOL    HW1 2891   2.523   0.408   1.776  1.1867  0.4015 -1.1549
  964SOL    HW2 2892   2.431   0.364   1.628 -2.6350 -1.3019  0.3018
  965SOL     OW 2893   2.673   2.991   0.162 -0.0357  0.3573 -0.7990
  965SOL    HW1 2894   2.737   2.940   0.097 -1.2656  4.0983  1.0906
  965SOL    HW2 2895   2.596   3.032   0.104 -2.7794 -2.8274  0.1714
  966SOL     OW 2896   2.539   2.640   2.210 -0.1358 -0.1605  0.3757
  966SOL    HW1 2897   2.467   2.587   2.156 -0.1359 -0.0598  1.3064
  966SOL    HW2 2898   2.501   2.712   2.275 -1.4525 -1.6079  2.5873
  967SOL     OW 2899   2.716   2.853   2.472 -0.3344 -0.0993  0.1912
  967SOL    HW1 2900   2.757   2.802   2.390 -1.0859  1.8784 -0.2681
  967SOL    HW2 2901   2.737   2.953   2.473  1.3297 -0.4070 -0.5816
  968SOL     OW 2902   1.977   1.052   2.723 -0.6619 -0.1197 -0.1104
  968SOL    HW1 2903   1.919   1.106   2.658  1.9060 -3.7528 -0.0551
  968SOL    HW2 2904   1.986   0.952   2.703  2.3428  2.2962 -2.2086
  969SOL     OW 2905   2.741   2.367   1.181  0.4103  0.3611 -0.0423
  969SOL    HW1 2906   2.711   2.342   1.087  0.5903  0.3278 -0.0943
  969SOL    HW2 2907   2.825   2.315   1.211  0.3846  1.3852 -2.0996
  970SOL     OW 2908   1.125   2.117   1.786  0.0792 -0.2648 -0.0960
  970SOL    HW1 2909   1.026   2.134   1.761  1.9802 -0.4656  2.4176
  970SOL    HW2 2910   1.153   2.162   1.871 -0.5990 -1.1706 -2.4370
  971SOL     OW 2911   2.824   2.108   1.926 -0.0732  0.5298 -0.5831
  971SOL    HW1 2912   2.816   2.199   1.976  0.8228 -0.8374 -1.4201
  971SOL    HW2 2913   2.909   2.115   1.868  1.1467  3.9807  3.7569
  972SOL     OW 2914   2.077   2.452   0.287 -0.3062  0.2828  0.8181
  972SOL    HW1 2915   2.033   2.387   0.215 -1.0536 -0.9566 -0.5601
  972SOL    HW2 2916   2.051   2.439   0.388  1.6689  1.7614 -0.6004
  973SOL     OW 2917   1.302   1.042   1.873  0.1153 -0.3243 -0.1064
  973SOL    HW1 2918   1.237   0.999   1.807 -2.3718 -0.4398 -1.4644
  973SOL    HW2 2919   1.282   1.143   1.885  0.9670 -2.3196 -0.3875
  974SOL     OW 2920   1.638   0.561   1.975 -0.1399 -0.3922  1.1991
  974SOL    HW1 2921   1.718   0.585   1.909  0.3731 -2.0627  1.0235
  974SOL    HW2 2922   1.561   0.633   1.957  3.5359 -0.4734 -0.2758
  975SOL     OW 2923   2.456   3.054   3.068  0.2970  0.2761  0.5244
  975SOL    HW1 2924   2.398   3.010   3.146  1.2642  0.6259  1.5998
  975SOL    HW2 2925   2.433   3.018   2.977  1.5051  0.7602 -0.7964
  976SOL     OW 2926   1.959   2.912   2.353  0.3063  0.2210 -0.0678
  976SOL    HW1 2927   1.879   2.847   2.379 -2.6902 -0.6351  5.0906
  976SOL    HW2 2928   2.042   2.907   2.421  1.5447  1.4528  0.4761
  977SOL     OW 2929   0.488   0.583   0.994  0.1313 -0.2541  0.0530
  977SOL    HW1 2930   0.397   0.570   0.938  1.3278 -2.5940  1.6423
  977SOL    HW2 2931   0.578   0.575   0.939  2.4917 -1.9594 -2.0545
   3.10000   3.10000   3.10000
