1000 SPC/Fw water molecules t=   0.26000 step= 260
 2931
    1SOL     OW    1   2.552   0.312   2.530 -0.0043 -0.0805 -0.0820
    1SOL    HW1    2   2.600   0.219   2.534  0.4347 -2.3165  2.0219
    1SOL    HW2    3   2.548   0.357   2.626 -0.9321 -0.8048  1.1046
    2SOL     OW    4   2.714   3.009   1.399  0.2847  0.0177  0.0708
    2SOL    HW1    5   2.814   3.029   1.365 -0.8027 -3.3619 -1.3529
    2SOL    HW2    6   2.662   3.091   1.438  1.2110  1.7753 -2.3470
    3SOL     OW    7   2.724   2.587   0.427 -0.7955 -0.2011  0.3682
    3SOL    HW1    8   2.688   2.491   0.413 -0.4810 -0.3028 -1.4952
    3SOL    HW2    9   2.807   2.598   0.488  0.0128  3.4492  1.1990
    4SOL     OW   10   1.337   1.486   2.387 -0.1717  0.5908  0.2426
    4SOL    HW1   11   1.245   1.523   2.413 -0.3489 -1.8770  0.4550
    4SOL    HW2   12   1.368   1.413   2.455  0.1061 -1.7168  0.5862
    5SOL     OW   13   1.219   1.491   3.029  0.5860  0.0201 -0.5823
    5SOL    HW1   14   1.271   1.550   3.096 -0.6064 -1.2190  2.4080
    5SOL    HW2   15   1.120   1.511   3.038  0.8405 -0.4560 -0.7422
    6SOL     OW   16   0.046   1.832   2.939 -0.9379 -0.4109 -0.0044
    6SOL    HW1   17   0.018   1.886   3.019  0.4437 -0.5886 -2.8992
    6SOL    HW2   18   0.038   1.729   2.950  2.0785  0.6084 -1.8547
    7SOL     OW   19   2.601   0.810   1.157 -0.7133  0.7950 -0.1050
    7SOL    HW1   20   2.497   0.808   1.182  1.9476  1.4374  0.5730
    7SOL    HW2   21   2.620   0.820   1.058 -1.4520  2.0554  1.5684
    8SOL     OW   22   0.460   0.672   1.563 -0.1115  0.0903  0.6679
    8SOL    HW1   23   0.532   0.602   1.584  1.4674  0.5533 -0.4497
    8SOL    HW2   24   0.405   0.654   1.479  1.2450 -0.2163  2.2349
    9SOL     OW   25   1.189   0.971   2.277  0.5016  0.4916 -0.1361
    9SOL    HW1   26   1.227   1.057   2.231 -0.5653 -1.1369  2.0263
    9SOL    HW2   27   1.126   0.909   2.218 -2.8141 -1.4511 -1.4482
   10SOL     OW   28   0.685   1.338   1.252  0.0190 -0.1542 -0.4347
   10SOL    HW1   29   0.585   1.365   1.225  0.0729 -1.3470 -0.8411
   10SOL    HW2   30   0.749   1.412   1.247 -0.7031 -3.9582  0.7002
   11SOL     OW   31   2.349   2.586   0.940  0.2949  0.2633  0.1393
   11SOL    HW1   32   2.336   2.620   1.035 -1.7206  0.2228 -0.9283
   11SOL    HW2   33   2.436   2.525   0.923  1.1512 -0.5323 -1.6690
   12SOL     OW   34   1.461   0.892   0.451 -0.1417 -0.1511 -0.5640
   12SOL    HW1   35   1.397   0.957   0.401 -0.4641 -0.4153 -1.9890
   12SOL    HW2   36   1.481   0.803   0.401 -0.7635 -0.1429  0.5017
   13SOL     OW   37   2.516   0.651   1.829  0.7007 -0.0136  0.1658
   13SOL    HW1   38   2.415   0.667   1.851  0.1601 -0.0800  0.9585
   13SOL    HW2   39   2.541   0.557   1.791  0.4071 -0.2409  1.6659
   14SOL     OW   40   1.894   3.087   0.584  0.5613  0.2026  0.1055
   14SOL    HW1   41   1.807   3.137   0.570  2.6593 -1.0409  0.9891
   14SOL    HW2   42   1.883   3.022   0.663 -1.3138  1.8245  0.3215
   15SOL     OW   43   1.960   2.035   2.871  0.3269  0.0840  0.1386
   15SOL    HW1   44   1.915   2.131   2.875 -0.5266 -1.6906  0.1387
   15SOL    HW2   45   1.931   1.981   2.788 -0.1014  1.8729 -0.1802
   16SOL     OW   46   1.607   1.689   0.048  0.4856 -0.1291 -0.1309
   16SOL    HW1   47   1.615   1.585   0.032  0.0498 -0.3705  0.3229
   16SOL    HW2   48   1.697   1.740   0.057  1.8286 -0.0571 -3.8400
   17SOL     OW   49   0.132   0.426   0.158  0.0591 -0.3245  0.2992
   17SOL    HW1   50   0.210   0.476   0.109 -1.4175 -0.6686 -3.4850
   17SOL    HW2   51   0.042   0.438   0.109  1.0104  0.4729 -0.0689
   18SOL     OW   52   1.057   2.905   2.190 -0.7490  0.4948  0.7033
   18SOL    HW1   53   0.974   2.854   2.160 -1.6814  1.2566 -0.5807
   18SOL    HW2   54   1.137   2.899   2.122 -2.2165 -0.4569  2.1433
   19SOL     OW   55   0.486   0.958   1.941 -0.4475 -0.6815  0.0808
   19SOL    HW1   56   0.454   1.010   2.026 -0.9683  1.4007  0.4260
   19SOL    HW2   57   0.578   0.915   1.956  1.1462 -0.2820 -0.4859
   20SOL     OW   58   0.232   2.790   0.884 -0.2087  0.3767 -0.0812
   20SOL    HW1   59   0.142   2.830   0.849 -1.1114 -0.4616  0.6966
   20SOL    HW2   60   0.288   2.750   0.809  1.4344  2.1439 -1.1234
   21SOL     OW   61   2.793   0.172   2.140 -0.0827 -0.0252 -0.0272
   21SOL    HW1   62   2.758   0.094   2.080 -3.4612 -1.3761 -1.3787
   21SOL    HW2   63   2.813   0.144   2.237  0.5353 -0.6540  0.8904
   22SOL     OW   64   2.323   0.190   3.094 -0.3989  0.2124 -0.7514
   22SOL    HW1   65   2.325   0.082   3.080  0.3811 -2.9556 -0.4407
   22SOL    HW2   66   2.225   0.233   3.098  0.3029 -0.2118  1.3502
   23SOL     OW   67   2.769   0.644   0.681 -0.1261  0.3014 -0.4410
   23SOL    HW1   68   2.780   0.555   0.629 -0.3292 -1.9496  0.3574
   23SOL    HW2   69   2.741   0.720   0.618 -1.8842  0.3841  3.6724
   24SOL     OW   70   0.182   1.889   0.470  0.2381  0.8696 -0.3507
   24SOL    HW1   71   0.089   1.886   0.418  1.1399  1.3136  0.8350
   24SOL    HW2   72   0.253   1.899   0.392 -1.6108 -0.4322  0.4877
   25SOL     OW   73   2.259   0.503   0.189  0.0842 -0.5163 -0.0580
   25SOL    HW1   74   2.335   0.441   0.221 -0.1321  0.4403  1.7301
   25SOL    HW2   75   2.223   0.496   0.097 -0.2439  1.6076 -1.4812
   26SOL     OW   76   2.526   2.179   2.104 -0.1261 -0.1067 -0.0051
   26SOL    HW1   77   2.607   2.226   2.151  1.5170  0.5329 -0.7260
   26SOL    HW2   78   2.542   2.080   2.070 -0.7114 -0.3391 -0.4321
   27SOL     OW   79   0.667   2.970   0.097  0.2926 -0.1131 -0.6703
   27SOL    HW1   80   0.757   3.024   0.102  1.8961 -0.1719  2.6043
   27SOL    HW2   81   0.634   2.956  -0.001  0.0787 -0.1609  0.3863
   28SOL     OW   82   1.544   0.192   0.238  1.0869 -0.4503  0.5144
   28SOL    HW1   83   1.610   0.138   0.179  3.0343  0.3979  0.5494
   28SOL    HW2   84   1.590   0.264   0.300 -2.8783 -0.8303 -1.4236
   29SOL     OW   85   2.025   0.638   0.252  0.0563 -0.6664  0.2066
   29SOL    HW1   86   2.031   0.728   0.311  1.9809 -0.2497  2.5248
   29SOL    HW2   87   2.119   0.598   0.237 -2.3225 -1.1082  0.9384
   30SOL     OW   88   0.185   2.059   0.931 -0.6751  0.0210  0.3749
   30SOL    HW1   89   0.185   2.065   0.830 -0.0354  0.4669 -1.0510
   30SOL    HW2   90   0.099   2.089   0.980 -1.1296 -1.1886  3.2251
   31SOL     OW   91   2.079   0.041   2.313  0.7900 -0.4849 -0.3305
   31SOL    HW1   92   2.102   0.028   2.414  3.3049 -1.8040 -0.8975
   31SOL    HW2   93   2.006  -0.022   2.277  0.1023  1.6539 -1.4053
   32SOL     OW   94   2.918   0.126   0.146 -0.7014  0.1497 -0.6400
   32SOL    HW1   95   2.892   0.045   0.206  1.1220 -0.2520  0.1365
   32SOL    HW2   96   3.021   0.144   0.147  2.5202  2.3956  1.2893
   33SOL     OW   97   0.952   0.317   0.435  0.1532  0.8265  0.2087
   33SOL    HW1   98   0.907   0.217   0.423  1.8491  0.0344  2.1171
   33SOL    HW2   99   1.030   0.308   0.498 -0.4855  1.3962  1.5689
   34SOL     OW  100   0.415   2.897   1.054  0.2518 -0.3329  0.1292
   34SOL    HW1  101   0.357   2.858   0.978  0.7393 -2.1093  1.1069
   34SOL    HW2  102   0.515   2.882   1.038 -1.3121 -0.0208 -3.4228
   35SOL     OW  103   0.051   0.022   1.824 -0.6009  0.2192  0.2385
   35SOL    HW1  104   0.023  -0.077   1.846 -0.1610  0.0333 -0.0552
   35SOL    HW2  105  -0.001   0.063   1.737 -0.7911  0.1277 -1.6982
   36SOL     OW  106   1.925   1.168   1.833  0.2413 -0.3241 -0.0764
   36SOL    HW1  107   1.985   1.128   1.753  3.3326  2.1134  0.7977
   36SOL    HW2  108   1.957   1.264   1.868  0.7208  2.0949 -0.9168
   37SOL     OW  109   1.145   0.282   0.958  0.5797 -0.4202 -0.3362
   37SOL    HW1  110   1.148   0.354   1.029  0.1181 -1.3947  0.0323
   37SOL    HW2  111   1.195   0.193   0.980 -0.8709 -1.8458 -0.5982
   38SOL     OW  112   1.125   2.690   2.399 -0.3018 -0.4864 -0.2021
   38SOL    HW1  113   1.079   2.603   2.432  3.0907  0.8583 -1.6164
   38SOL    HW2  114   1.072   2.779   2.407 -3.1005  1.5038 -1.5489
   39SOL     OW  115   2.337   1.439   3.032 -0.1561  0.0248 -0.8335
   39SOL    HW1  116   2.412   1.370   3.029  0.3670 -2.2983  0.8046
   39SOL    HW2  117   2.278   1.431   3.119 -2.1067  0.7886  1.9976
   40SOL     OW  118   2.083   2.539   2.553  0.6213  0.3370 -0.0532
   40SOL    HW1  119   2.052   2.640   2.566  1.2314  3.7825 -2.1860
   40SOL    HW2  120   2.018   2.475   2.498 -4.2517  1.0803 -1.7621
   41SOL     OW  121   2.935   0.706   2.750 -0.2818  0.3830 -0.5421
   41SOL    HW1  122   2.835   0.725   2.761 -0.1084 -1.7267  1.6069
   41SOL    HW2  123   2.948   0.608   2.735  1.0354  1.8612 -1.9536
   42SOL     OW  124   1.798   1.748   0.594  0.0540 -0.0874  0.3729
   42SOL    HW1  125   1.722   1.680   0.570 -0.9561 -1.6572 -1.3926
   42SOL    HW2  126   1.839   1.792   0.513  0.7919 -1.0668  0.9124
   43SOL     OW  127   0.500   1.721   1.207 -0.3516 -0.6251  0.8767
   43SOL    HW1  128   0.494   1.656   1.291 -0.9652  0.7441  0.6874
   43SOL    HW2  129   0.411   1.724   1.158  1.3322 -0.9775 -0.7687
   44SOL     OW  130   1.732   2.510   0.026  0.1590  0.0607 -0.0932
   44SOL    HW1  131   1.786   2.561  -0.045  1.7909  0.2105  0.4657
   44SOL    HW2  132   1.784   2.480   0.108  0.2962  1.8913 -1.8744
   45SOL     OW  133   0.364   1.937   2.537 -0.1874  0.6226  0.8014
   45SOL    HW1  134   0.278   1.938   2.477  0.4345  1.3490  0.4637
   45SOL    HW2  135   0.392   1.841   2.572 -1.0631  0.5786  2.2631
   46SOL     OW  136   1.163   0.626   0.173  0.0374  0.2895  0.4466
   46SOL    HW1  137   1.218   0.703   0.129 -2.7359 -0.0652 -1.2967
   46SOL    HW2  138   1.061   0.634   0.159  1.2886  0.1589 -0.0843
   47SOL     OW  139   0.245   2.447   1.608  0.2511 -0.3823 -0.0045
   47SOL    HW1  140   0.321   2.380   1.604  0.9956 -2.0994 -0.6473
   47SOL    HW2  141   0.225   2.491   1.512  0.2654 -0.8683  1.7488
   48SOL     OW  142   2.564   0.569   0.165 -0.0365  0.4396  0.1124
   48SOL    HW1  143   2.540   0.585   0.273  0.8021 -1.2570  0.7760
   48SOL    HW2  144   2.618   0.642   0.115 -1.0253 -0.5828 -0.3969
   49SOL     OW  145   0.349   0.867   1.719  0.2326 -0.6770  0.2171
   49SOL    HW1  146   0.410   0.892   1.804  2.7294 -1.8983  0.9557
   49SOL    HW2  147   0.374   0.775   1.679 -0.7322  0.4700  0.7580
   50SOL     OW  148   1.729   1.092   0.353 -0.5875  0.3247 -0.1638
   50SOL    HW1  149   1.747   0.990   0.335  0.1763 -1.4282 -0.7792
   50SOL    HW2  150   1.691   1.108   0.444 -0.4118  0.9972  2.1532
   51SOL     OW  151   3.032   1.898   0.382  0.2265 -0.1569 -0.2921
   51SOL    HW1  152   3.040   1.920   0.279  1.2346  1.1498 -0.5003
   51SOL    HW2  153   2.987   1.806   0.399  1.3275  0.0411 -1.1527
   52SOL     OW  154   0.808   1.986   0.499 -0.7449  0.6007 -0.2462
   52SOL    HW1  155   0.718   2.033   0.533  0.3783  2.0556  0.7635
   52SOL    HW2  156   0.832   1.904   0.556 -0.4979  0.7380 -1.0442
   53SOL     OW  157   3.065   0.358   1.537  0.7092  0.4096  0.2270
   53SOL    HW1  158   3.001   0.354   1.615 -2.4039  0.1402  0.1322
   53SOL    HW2  159   3.070   0.455   1.501  1.1279 -0.2300 -0.3782
   54SOL     OW  160   1.727   0.455   3.019 -0.1446 -0.4106  0.3784
   54SOL    HW1  161   1.775   0.436   3.115  1.1814 -0.1562  2.9086
   54SOL    HW2  162   1.624   0.481   3.024 -0.1197  0.4654  0.6457
   55SOL     OW  163   0.713   2.938   0.622  0.2253  0.4661 -0.1347
   55SOL    HW1  164   0.663   3.030   0.621 -2.4183  0.4863 -0.0140
   55SOL    HW2  165   0.809   2.941   0.588 -0.7099 -2.5115  0.9749
   56SOL     OW  166   0.482   1.552   3.062 -0.4238 -0.0416 -0.0516
   56SOL    HW1  167   0.418   1.612   3.114  2.3217 -0.5917  0.0957
   56SOL    HW2  168   0.436   1.472   3.014 -1.7482 -2.6123 -1.5775
   57SOL     OW  169   1.791   2.382   2.669 -0.0143  0.1211  0.1499
   57SOL    HW1  170   1.832   2.356   2.577  2.2644  0.3412  0.1824
   57SOL    HW2  171   1.709   2.441   2.664  1.6620  0.9542  2.4175
   58SOL     OW  172   0.592   0.453   1.106  0.2432  0.3065  0.0432
   58SOL    HW1  173   0.540   0.545   1.093  3.1205  1.5779  2.4444
   58SOL    HW2  174   0.554   0.367   1.145  2.6194  2.1512  0.6214
   59SOL     OW  175   0.479   2.409   2.670  0.0054 -0.0283  0.1162
   59SOL    HW1  176   0.488   2.302   2.660 -1.1218 -1.5494 -1.9103
   59SOL    HW2  177   0.544   2.443   2.743  0.5764  0.3185  2.1162
   60SOL     OW  178   2.320   2.161   2.286 -0.4941 -0.6370  0.1038
   60SOL    HW1  179   2.396   2.210   2.233  1.5895 -0.3701  0.3667
   60SOL    HW2  180   2.326   2.168   2.390  1.3080 -0.3662 -0.5564
   61SOL     OW  181   1.408   0.590   0.468  0.2295  0.5470  0.5677
   61SOL    HW1  182   1.313   0.639   0.470  0.0995  1.2430  1.4631
   61SOL    HW2  183   1.430   0.553   0.372  1.6180 -0.3201 -0.9812
   62SOL     OW  184   2.655   1.876   3.090 -0.1158  0.2727 -0.1651
   62SOL    HW1  185   2.655   1.775   3.118 -0.8359  0.0576  2.2793
   62SOL    HW2  186   2.673   1.882   2.988 -2.2994  0.5524  1.6947
   63SOL     OW  187   0.529   0.821   0.160 -0.2112  0.3091  0.1194
   63SOL    HW1  188   0.534   0.922   0.136 -0.9631  0.1610 -0.5619
   63SOL    HW2  189   0.554   0.794   0.257  1.5446  0.5833  0.8552
   64SOL     OW  190   0.102   0.479   2.526  0.0220 -0.4261  0.1461
   64SOL    HW1  191   0.100   0.530   2.610  2.5393 -0.3025 -3.6265
   64SOL    HW2  192   0.069   0.522   2.438 -0.9002 -0.4528  0.1485
   65SOL     OW  193   0.195   1.458   0.655  0.0786 -0.5662  0.6562
   65SOL    HW1  194   0.198   1.547   0.712 -0.9711 -1.0452 -0.8745
   65SOL    HW2  195   0.286   1.440   0.610 -3.3142 -0.9186 -3.2692
   66SOL     OW  196   2.482   0.401   0.706  0.7021  0.3630 -0.4497
   66SOL    HW1  197   2.401   0.459   0.718  0.1692  0.8610  2.7524
   66SOL    HW2  198   2.460   0.301   0.718  0.5807  3.1874  0.0065
   67SOL     OW  199   0.502   2.519   1.347  0.2533 -0.8390  0.0769
   67SOL    HW1  200   0.599   2.559   1.341 -0.8668 -2.4990  1.1257
   67SOL    HW2  201   0.501   2.417   1.333  0.8018  0.2508  1.0199
   68SOL     OW  202   1.007   1.098   2.442 -0.5171  0.2824  0.2070
   68SOL    HW1  203   1.075   1.039   2.387 -4.0637 -0.6069  0.8378
   68SOL    HW2  204   0.934   1.138   2.379  0.5173 -1.6439  0.6326
   69SOL     OW  205   0.754   2.692   2.151 -0.0142 -0.2528 -0.2803
   69SOL    HW1  206   0.784   2.590   2.176  0.9883  0.5908 -0.6830
   69SOL    HW2  207   0.652   2.705   2.166 -0.8092  0.3955  1.5946
   70SOL     OW  208   0.609   0.248   2.720  0.3541  0.2378  0.0160
   70SOL    HW1  209   0.618   0.288   2.815 -1.1957  0.3405  1.1698
   70SOL    HW2  210   0.563   0.152   2.724  1.4874 -0.9955  1.5921
   71SOL     OW  211   1.083   1.780   0.337  0.3723 -0.0751 -0.0720
   71SOL    HW1  212   1.047   1.685   0.336  2.8292  2.0723 -1.3887
   71SOL    HW2  213   1.107   1.813   0.243 -0.7654 -1.1009 -1.4756
   72SOL     OW  214   1.804   0.114   2.094 -0.2416  0.7465  0.5548
   72SOL    HW1  215   1.844   0.128   1.999  0.0785  1.4515 -1.3386
   72SOL    HW2  216   1.830   0.028   2.138 -1.7501  0.2971 -0.4248
   73SOL     OW  217   2.804   2.213   2.508 -0.4657 -0.4142 -0.0023
   73SOL    HW1  218   2.814   2.114   2.478  1.0976 -1.9196  1.1371
   73SOL    HW2  219   2.840   2.226   2.609 -0.2908 -3.2889 -2.2901
   74SOL     OW  220   2.741   3.001   2.042 -0.4521 -0.3215  0.3362
   74SOL    HW1  221   2.672   3.002   2.122  1.3426 -0.3934  0.4964
   74SOL    HW2  222   2.840   3.002   2.071  0.1389  1.3420  0.1272
   75SOL     OW  223   0.917   0.771   1.003 -0.3869  0.1593  0.2898
   75SOL    HW1  224   0.831   0.829   0.986  1.2515 -0.4281  0.5137
   75SOL    HW2  225   0.955   0.777   1.097 -2.1287 -2.6163  0.9472
   76SOL     OW  226   1.742   1.240   2.566  0.0649 -0.1203  0.0769
   76SOL    HW1  227   1.636   1.234   2.575 -1.8232  0.1924  0.6243
   76SOL    HW2  228   1.775   1.327   2.603 -0.5499  1.3560 -0.2517
   77SOL     OW  229   2.976   0.983   0.995 -0.9997  0.3599 -0.5973
   77SOL    HW1  230   2.984   0.885   0.962  2.2944 -2.1600  2.4646
   77SOL    HW2  231   3.052   1.004   1.065 -0.8311  0.1223 -0.6908
   78SOL     OW  232   1.992   1.415   1.496  0.0643  0.1320  0.3237
   78SOL    HW1  233   2.082   1.430   1.439 -0.2732 -0.0750  2.1459
   78SOL    HW2  234   1.915   1.357   1.449  0.2329 -1.1184  1.7643
   79SOL     OW  235   0.600   1.321   0.839  0.4171  0.0737 -0.3109
   79SOL    HW1  236   0.553   1.402   0.881 -0.3415 -1.4237 -0.3971
   79SOL    HW2  237   0.537   1.267   0.778  0.9238 -0.4117 -2.9057
   80SOL     OW  238   0.673   0.505   1.600  0.1702  0.3526 -0.5059
   80SOL    HW1  239   0.758   0.552   1.571  0.9400  0.0950 -0.4380
   80SOL    HW2  240   0.660   0.415   1.551  0.8065  0.8740 -0.0941
   81SOL     OW  241   1.054   1.393   2.638 -0.3166  0.4143 -0.1172
   81SOL    HW1  242   1.038   1.330   2.719  0.7134 -2.7251  1.0621
   81SOL    HW2  243   0.975   1.386   2.569 -1.2605 -1.7755  0.4153
   82SOL     OW  244   0.925   2.996   1.523  0.6563  0.3711 -0.0220
   82SOL    HW1  245   1.024   2.960   1.521  3.4715 -0.9581  4.3983
   82SOL    HW2  246   0.852   2.926   1.492  0.0674 -2.0507 -1.4670
   83SOL     OW  247   2.758   2.473   0.789 -0.2592  0.4866 -0.0308
   83SOL    HW1  248   2.671   2.414   0.774  0.1796  2.1383 -0.3182
   83SOL    HW2  249   2.740   2.563   0.743  1.3799  1.8402 -1.3880
   84SOL     OW  250   0.718   3.103   2.416  0.2829  0.3040  0.2824
   84SOL    HW1  251   0.623   3.089   2.445  0.7658 -0.3572 -0.1064
   84SOL    HW2  252   0.784   3.043   2.472  0.3628  0.6452 -1.7173
   85SOL     OW  253   0.386   1.675   1.501 -0.2503  0.7193  0.6760
   85SOL    HW1  254   0.318   1.754   1.501  2.2865 -0.3105  0.0180
   85SOL    HW2  255   0.391   1.625   1.592  0.6307 -0.3922 -1.0898
   86SOL     OW  256   0.343   0.995   1.487  0.2046 -0.3128 -0.5833
   86SOL    HW1  257   0.314   0.931   1.410 -0.1108 -1.6104  0.7055
   86SOL    HW2  258   0.365   0.951   1.581 -2.0210  1.8210  0.4507
   87SOL     OW  259   1.574   0.608   0.211 -0.4703 -0.1497  0.5837
   87SOL    HW1  260   1.642   0.687   0.216 -3.4618  0.5637  0.1558
   87SOL    HW2  261   1.567   0.574   0.113  1.0866  2.3616 -0.7341
   88SOL     OW  262   1.582   1.253   0.188  0.2795 -0.0395  0.0444
   88SOL    HW1  263   1.618   1.196   0.263  0.4345 -0.6850 -2.3113
   88SOL    HW2  264   1.483   1.280   0.208  1.4055  2.9686  1.7798
   89SOL     OW  265   3.001   0.445   0.577  0.3027 -0.3083  0.1049
   89SOL    HW1  266   3.051   0.355   0.594 -0.0124  3.3019 -1.1429
   89SOL    HW2  267   2.899   0.437   0.557  0.9894  1.4658 -2.3569
   90SOL     OW  268   0.977   1.662   3.042 -0.2119  0.1972 -0.3794
   90SOL    HW1  269   0.894   1.638   3.097 -0.3358 -3.1029 -0.1631
   90SOL    HW2  270   0.956   1.672   2.939  1.7380  0.2668 -1.8231
   91SOL     OW  271   1.280   1.481   1.769  0.3024  0.7016 -0.3607
   91SOL    HW1  272   1.280   1.580   1.804 -1.1019  0.4463 -2.1259
   91SOL    HW2  273   1.376   1.445   1.755  3.0521  2.6269  0.2021
   92SOL     OW  274   0.071   1.044   1.167 -0.6751  0.0988  0.4721
   92SOL    HW1  275   0.174   1.058   1.139 -0.5279  0.0267  2.2885
   92SOL    HW2  276   0.060   1.000   1.261  0.0126  0.2043 -0.4084
   93SOL     OW  277   0.034   2.833   0.072 -0.2570 -0.2503  0.0217
   93SOL    HW1  278  -0.021   2.828  -0.016 -1.7470 -2.4039 -1.6108
   93SOL    HW2  279   0.088   2.749   0.097  0.2936 -1.0211  0.9842
   94SOL     OW  280   1.520   1.343   1.680 -0.2774  0.0630 -0.1585
   94SOL    HW1  281   1.518   1.243   1.703 -1.4993  0.0898  0.8366
   94SOL    HW2  282   1.606   1.388   1.724  2.4896 -0.4032 -1.1662
   95SOL     OW  283   1.343   2.470   2.915 -0.4487  0.2369 -0.2899
   95SOL    HW1  284   1.281   2.459   3.001 -0.2033 -1.1901  1.1480
   95SOL    HW2  285   1.384   2.379   2.880  1.5424 -2.2546 -0.0763
   96SOL     OW  286   0.497   2.011   1.204  0.0103  0.5112 -0.4097
   96SOL    HW1  287   0.485   2.042   1.102  0.6251  2.0130 -1.1086
   96SOL    HW2  288   0.514   1.907   1.207  0.3779 -0.6843  1.3143
   97SOL     OW  289   0.365   1.435   2.498  0.3256  0.0725  0.3839
   97SOL    HW1  290   0.262   1.418   2.507  0.8155 -1.1710  1.3058
   97SOL    HW2  291   0.396   1.527   2.542  4.9929 -0.8480 -0.6574
   98SOL     OW  292   2.016   1.682   1.308 -0.1167 -0.7994 -0.2943
   98SOL    HW1  293   2.067   1.590   1.303 -0.0070 -1.1210  2.5839
   98SOL    HW2  294   1.936   1.669   1.367  0.2209  1.4632  1.0128
   99SOL     OW  295   2.475   2.137   1.325  0.4971 -0.0244  0.2072
   99SOL    HW1  296   2.415   2.169   1.405 -1.5075 -0.0210 -1.2960
   99SOL    HW2  297   2.458   2.034   1.309 -1.9498  0.6063  0.5588
  100SOL     OW  298   2.280   0.363   2.048  0.5417 -0.3847 -0.0223
  100SOL    HW1  299   2.252   0.338   2.146 -1.6134  0.7055 -3.9200
  100SOL    HW2  300   2.381   0.394   2.038  0.7647  2.4966 -0.5481
  101SOL     OW  301   0.416   1.467   0.289 -0.0409  0.3355  0.5290
  101SOL    HW1  302   0.410   1.488   0.390  1.5086 -0.0496  0.3205
  101SOL    HW2  303   0.438   1.546   0.224 -3.5737  1.0746 -1.8822
  102SOL     OW  304   2.304   1.070   0.794 -0.1160  0.0367  0.2011
  102SOL    HW1  305   2.223   1.025   0.742  3.7076  1.5203 -3.5028
  102SOL    HW2  306   2.345   1.151   0.742  3.2383  0.3940  1.0433
  103SOL     OW  307   2.285   0.071   0.425 -0.1362 -0.5485  0.1099
  103SOL    HW1  308   2.358   0.118   0.360  0.8217 -1.2744 -1.8918
  103SOL    HW2  309   2.333  -0.004   0.480 -0.5730  0.8876 -0.9482
  104SOL     OW  310   0.090   1.877   2.120  0.0067  0.1886 -0.3829
  104SOL    HW1  311   0.112   1.817   2.037 -3.0294  0.3348  3.7376
  104SOL    HW2  312  -0.008   1.908   2.128 -0.4294 -2.8913  0.4711
  105SOL     OW  313   1.126   1.946   0.841  0.2022  0.0545  0.1257
  105SOL    HW1  314   1.091   2.031   0.794  1.3668  0.4787  1.0439
  105SOL    HW2  315   1.142   1.867   0.777 -1.0275 -0.0331  0.7709
  106SOL     OW  316   2.069   0.425   1.361  0.2092 -0.2074  0.3894
  106SOL    HW1  317   2.044   0.342   1.416  3.0033 -1.2699  0.2854
  106SOL    HW2  318   2.021   0.505   1.403  0.5402 -0.0797  1.2672
  107SOL     OW  319   1.818   3.007   1.074  0.1951  0.4978 -0.3570
  107SOL    HW1  320   1.865   3.074   1.136 -0.2700 -0.5468 -0.9262
  107SOL    HW2  321   1.761   2.941   1.135 -0.6715  1.7865  1.4562
  108SOL     OW  322   0.758   2.635   1.304  0.1544  0.2509  0.2165
  108SOL    HW1  323   0.753   2.697   1.391 -0.2362  0.7196 -1.0817
  108SOL    HW2  324   0.854   2.597   1.289 -0.1792 -2.0307  0.5304
  109SOL     OW  325   2.112   0.100   0.741  0.4992  0.2321  0.6672
  109SOL    HW1  326   2.033   0.062   0.683 -0.0827 -1.4813  2.6696
  109SOL    HW2  327   2.135   0.036   0.818  1.6001  0.6719 -0.9197
  110SOL     OW  328   0.483   2.804   2.710 -0.0730  0.2834  0.5004
  110SOL    HW1  329   0.469   2.848   2.616  1.4984  0.2819  0.0771
  110SOL    HW2  330   0.561   2.739   2.709 -3.4737  1.2051  0.0132
  111SOL     OW  331   1.291   0.520   2.283 -0.0307  0.1129 -0.4016
  111SOL    HW1  332   1.209   0.558   2.327  0.3254 -0.0891  0.2580
  111SOL    HW2  333   1.331   0.447   2.344  0.4834 -1.1788  2.4155
  112SOL     OW  334   1.724   0.489   1.415  0.3184  0.3056 -0.5211
  112SOL    HW1  335   1.725   0.498   1.308  2.2756 -0.1585 -0.6270
  112SOL    HW2  336   1.687   0.399   1.452  0.6086  0.9159 -1.3774
  113SOL     OW  337   2.315   1.650   1.717  0.1027 -0.4343 -0.5526
  113SOL    HW1  338   2.389   1.586   1.692  0.4927  1.1234  0.5955
  113SOL    HW2  339   2.314   1.676   1.819  2.9368  0.6005 -2.0863
  114SOL     OW  340   0.328   0.571   1.293 -0.7737 -0.4045  0.3551
  114SOL    HW1  341   0.316   0.673   1.279  1.6049  1.0199 -0.2797
  114SOL    HW2  342   0.297   0.510   1.213  0.3894 -0.0487 -0.4032
  115SOL     OW  343   2.608   1.566   1.217 -0.4631 -0.4042 -0.5875
  115SOL    HW1  344   2.662   1.485   1.262 -1.7502 -1.2344 -1.1149
  115SOL    HW2  345   2.672   1.623   1.156 -0.0370 -0.7777 -1.2516
  116SOL     OW  346   1.822   1.082   0.755 -0.1015  0.2541 -0.2921
  116SOL    HW1  347   1.739   1.030   0.717 -0.4344  2.8849 -1.2443
  116SOL    HW2  348   1.811   1.186   0.732  1.0001  0.7817 -3.7026
  117SOL     OW  349   1.141   0.365   0.657 -0.3145  0.0807  0.1366
  117SOL    HW1  350   1.122   0.366   0.760 -1.4461  0.5638 -0.7240
  117SOL    HW2  351   1.202   0.443   0.629  1.0037 -0.3627  2.6139
  118SOL     OW  352   1.082   1.096   1.129  0.6635  0.3035  0.3162
  118SOL    HW1  353   1.055   1.026   1.203 -2.4825 -2.0979 -0.0518
  118SOL    HW2  354   1.101   1.190   1.156 -0.1102  1.1292  0.5821
  119SOL     OW  355   1.828   1.625   2.036  0.2780 -0.2344  0.4025
  119SOL    HW1  356   1.775   1.712   2.069 -0.2200  5.3568 -0.1750
  119SOL    HW2  357   1.924   1.637   2.065 -1.2029  0.7513 -0.0576
  120SOL     OW  358   2.973   2.790   0.328  0.2882  0.0194  0.1764
  120SOL    HW1  359   2.942   2.771   0.233  3.3822  2.6388 -1.8753
  120SOL    HW2  360   3.005   2.698   0.369 -0.0123  0.4782 -1.1543
  121SOL     OW  361   2.007   0.731   2.185 -0.1311 -0.3558 -0.5373
  121SOL    HW1  362   2.086   0.757   2.128 -0.3055 -2.0563  1.3740
  121SOL    HW2  363   1.991   0.625   2.183  1.3071 -3.2042  3.3329
  122SOL     OW  364   2.751   2.546   1.366 -0.1021  0.2803  0.2336
  122SOL    HW1  365   2.759   2.539   1.258  0.6127 -0.0164 -0.8430
  122SOL    HW2  366   2.726   2.460   1.410  2.6196  2.8635 -0.8139
  123SOL     OW  367   1.715   0.031   1.688  0.2186  0.1082 -0.1732
  123SOL    HW1  368   1.718  -0.032   1.609 -1.5145 -0.1406  2.5294
  123SOL    HW2  369   1.812   0.055   1.720  1.4171 -0.2153 -1.2512
  124SOL     OW  370   0.157   0.489   1.068 -0.5343 -0.0027  0.5990
  124SOL    HW1  371   0.134   0.572   1.132  0.1881  4.1185  0.8609
  124SOL    HW2  372   0.119   0.490   0.971 -2.4114  2.3890  1.3155
  125SOL     OW  373   0.884   1.770   0.677  0.0600 -0.1264  0.2858
  125SOL    HW1  374   0.987   1.752   0.667  1.0708 -3.4059 -1.0087
  125SOL    HW2  375   0.841   1.727   0.757 -0.6363  1.8989 -1.6707
  126SOL     OW  376   1.910   2.373   2.390 -0.0771  0.0243  0.1891
  126SOL    HW1  377   1.984   2.314   2.347  0.0014  0.9689 -1.9784
  126SOL    HW2  378   1.825   2.382   2.334 -1.0631  1.2728  0.4958
  127SOL     OW  379   0.834   0.975   0.180 -0.6134 -0.0903 -0.0846
  127SOL    HW1  380   0.898   1.016   0.249 -1.4302 -0.8872  0.8750
  127SOL    HW2  381   0.836   0.869   0.175 -3.6896 -1.3113  0.6541
  128SOL     OW  382   0.986   0.162   1.490 -0.1903  0.1164 -0.1290
  128SOL    HW1  383   0.943   0.225   1.419 -3.4063 -0.5379  0.4337
  128SOL    HW2  384   0.921   0.081   1.514 -1.4883  0.3636  0.5371
  129SOL     OW  385   1.844   0.689   1.876  0.5414 -0.0807 -0.2725
  129SOL    HW1  386   1.827   0.711   1.781  0.6971 -4.0050  3.6617
  129SOL    HW2  387   1.881   0.770   1.927 -0.4578 -1.4378 -0.2396
  130SOL     OW  388   1.334   2.075   1.013  0.2566  0.3557  0.6259
  130SOL    HW1  389   1.285   1.986   0.977 -0.4522 -0.5801 -1.6828
  130SOL    HW2  390   1.373   2.135   0.940 -1.0765 -0.4400  0.8973
  131SOL     OW  391   0.006   1.522   1.389 -0.1456  0.0050  0.1329
  131SOL    HW1  392  -0.045   1.437   1.359  1.7541 -1.2800  2.8114
  131SOL    HW2  393   0.108   1.499   1.402 -1.0921 -0.0241  2.0281
  132SOL     OW  394   1.942   2.478   0.520 -0.0048 -0.6438 -0.2121
  132SOL    HW1  395   1.843   2.502   0.530 -0.8736 -1.1696  1.0836
  132SOL    HW2  396   1.995   2.459   0.607 -1.3163 -2.2763 -0.2083
  133SOL     OW  397   1.815   2.273   2.906 -0.1200 -0.2468  0.3147
  133SOL    HW1  398   1.866   2.341   2.968  3.2059 -2.1155  0.2666
  133SOL    HW2  399   1.800   2.312   2.811 -0.1194  3.5250  0.1950
  134SOL     OW  400   2.674   2.356   1.603  0.3998  0.0166 -0.2970
  134SOL    HW1  401   2.623   2.302   1.676  3.3084  0.0241  0.2912
  134SOL    HW2  402   2.762   2.405   1.630  1.5425  0.9194 -1.8939
  135SOL     OW  403   0.720   1.552   2.569 -0.1307  0.0327  0.5716
  135SOL    HW1  404   0.681   1.470   2.611  2.1751  3.0485  0.1431
  135SOL    HW2  405   0.787   1.511   2.496  1.7193 -1.1731 -2.8551
  136SOL     OW  406   1.196   2.044   0.486 -0.0515 -0.4319  0.1426
  136SOL    HW1  407   1.145   2.078   0.568 -1.1716 -0.5096  0.1395
  136SOL    HW2  408   1.160   1.955   0.447  0.9315 -0.9329 -2.2273
  137SOL     OW  409   0.388   1.077   2.204  0.1181 -0.0328 -0.2659
  137SOL    HW1  410   0.296   1.085   2.253  0.3175 -2.2524 -0.3006
  137SOL    HW2  411   0.442   1.001   2.241  0.6087 -0.9021  0.1374
  138SOL     OW  412   2.441   1.477   0.246  0.2568  0.5714 -0.3744
  138SOL    HW1  413   2.344   1.494   0.217 -1.3771 -0.9206 -1.0837
  138SOL    HW2  414   2.450   1.388   0.298 -0.4538 -1.4670 -1.2735
  139SOL     OW  415   1.785   2.601   1.221 -0.2584  0.0325 -0.2133
  139SOL    HW1  416   1.683   2.578   1.195  0.3457  1.0477 -1.6919
  139SOL    HW2  417   1.818   2.565   1.312 -1.2711  1.4914  1.5167
  140SOL     OW  418   2.988   2.982   2.515 -0.3316  0.4484 -0.6498
  140SOL    HW1  419   3.009   2.879   2.538 -2.2137 -1.3983 -2.8598
  140SOL    HW2  420   3.069   3.044   2.496 -1.0278 -0.7252 -0.4611
  141SOL     OW  421   1.199   1.627   1.562  0.7271 -0.0379  0.0155
  141SOL    HW1  422   1.144   1.706   1.591  0.9696 -0.3677 -1.9354
  141SOL    HW2  423   1.235   1.571   1.638 -2.1194 -0.1559  1.6556
  142SOL     OW  424   1.562   0.623   2.257  0.4570  0.3799  0.0321
  142SOL    HW1  425   1.575   0.589   2.160  0.6849 -1.0884 -0.1533
  142SOL    HW2  426   1.464   0.600   2.280  1.3746 -0.2687 -0.4441
  143SOL     OW  427   2.761   0.865   0.494 -0.5546  0.2777 -0.0819
  143SOL    HW1  428   2.782   0.909   0.403 -1.4088 -1.0990  0.8920
  143SOL    HW2  429   2.790   0.913   0.581  0.6649  1.2683 -1.4566
  144SOL     OW  430   2.960   1.262   1.360  0.1471  0.0839  0.3757
  144SOL    HW1  431   2.953   1.262   1.464  0.8059  2.6287  0.5388
  144SOL    HW2  432   3.017   1.188   1.314 -2.6292 -0.1626 -1.9953
  145SOL     OW  433   1.080   1.892   0.078  0.2186 -0.2560 -0.4617
  145SOL    HW1  434   1.060   1.975   0.017 -2.6373  0.0181  2.0822
  145SOL    HW2  435   1.045   1.804   0.031 -0.2762  1.8269 -0.5501
  146SOL     OW  436   2.531   0.638   1.469  0.2259 -0.1122  0.5772
  146SOL    HW1  437   2.471   0.559   1.446 -0.1251 -2.1000 -0.4743
  146SOL    HW2  438   2.498   0.734   1.444  0.7569  2.0226 -0.1733
  147SOL     OW  439   1.033   2.530   0.610 -0.2146 -0.2635 -0.3587
  147SOL    HW1  440   1.004   2.558   0.516  1.0156 -0.1971  1.8753
  147SOL    HW2  441   1.116   2.470   0.608  1.0870 -0.2905 -1.6209
  148SOL     OW  442   1.627   1.423   0.006  0.5051 -0.5957  0.4671
  148SOL    HW1  443   1.665   1.374  -0.079 -1.6631 -1.2766 -0.7081
  148SOL    HW2  444   1.614   1.358   0.088 -1.0329  2.4353 -0.7575
  149SOL     OW  445   0.662   1.404   1.977 -0.2004 -0.0428  0.3198
  149SOL    HW1  446   0.584   1.363   2.032 -1.5380 -1.7397 -0.4354
  149SOL    HW2  447   0.691   1.338   1.900 -0.1761 -1.0981 -0.5220
  150SOL     OW  448   2.982   1.271   0.936  0.4304 -0.1801  0.4987
  150SOL    HW1  449   3.075   1.295   0.978 -1.5892 -2.1593  1.3243
  150SOL    HW2  450   2.950   1.175   0.964 -3.6340 -0.5219 -0.1554
  151SOL     OW  451   0.177   0.763   2.117  0.3322 -0.2112  0.2846
  151SOL    HW1  452   0.180   0.846   2.055  1.7954 -0.3423  1.6575
  151SOL    HW2  453   0.220   0.678   2.075  1.0672  3.6331  1.8458
  152SOL     OW  454   1.414   1.756   1.271  0.1788 -0.0309 -0.1128
  152SOL    HW1  455   1.419   1.793   1.365 -0.1031 -2.1715 -0.4439
  152SOL    HW2  456   1.330   1.784   1.220  0.0136  0.4631 -2.2349
  153SOL     OW  457   0.064   1.528   0.166 -0.8505 -0.3206  0.2182
  153SOL    HW1  458   0.035   1.428   0.173 -1.3556  1.4135  0.1049
  153SOL    HW2  459   0.095   1.576   0.257  1.0971  3.3467  0.2893
  154SOL     OW  460   2.420   1.905   2.836  0.3541 -0.7598 -0.0083
  154SOL    HW1  461   2.423   1.805   2.864 -0.2505 -2.8630  2.2592
  154SOL    HW2  462   2.416   1.919   2.733  1.4544 -0.2150 -2.6210
  155SOL     OW  463   2.516   1.239   0.380 -0.3854  0.8090 -0.1801
  155SOL    HW1  464   2.589   1.261   0.309 -2.5813  0.0224  2.0197
  155SOL    HW2  465   2.463   1.151   0.360 -0.2425  2.2857 -2.1014
  156SOL     OW  466   2.536   0.943   0.872  0.1736 -0.2710 -0.0525
  156SOL    HW1  467   2.428   0.950   0.877 -1.5839  1.2668  1.3221
  156SOL    HW2  468   2.581   1.030   0.838 -0.7855 -1.6219 -2.5938
  157SOL     OW  469   1.290   3.026   3.027 -0.9870 -0.3928 -0.4879
  157SOL    HW1  470   1.332   2.991   2.940 -1.6365 -3.8205  0.1835
  157SOL    HW2  471   1.302   3.128   3.046 -2.0679  3.2586  0.0201
  158SOL     OW  472   1.055   1.893   2.032  0.2234 -0.1768  0.0975
  158SOL    HW1  473   1.095   1.892   2.130  0.2399 -2.0818 -0.8011
  158SOL    HW2  474   0.951   1.888   2.032  0.1074  0.8541  2.7354
  159SOL     OW  475   0.853   0.373   1.309 -0.1662  0.2455 -0.3164
  159SOL    HW1  476   0.848   0.470   1.352 -0.8646  1.5835  1.1271
  159SOL    HW2  477   0.786   0.360   1.228 -1.8918 -0.1756 -1.4278
  160SOL     OW  478   1.459   2.428   1.660 -0.4161  1.2670 -0.2237
  160SOL    HW1  479   1.454   2.507   1.596 -0.0689 -1.1594  2.2054
  160SOL    HW2  480   1.538   2.366   1.627  0.2134  1.2546 -2.5746
  161SOL     OW  481   0.136   2.932   0.333  0.4272 -0.1576 -0.2609
  161SOL    HW1  482   0.043   2.892   0.356 -0.4646  0.4475 -1.1026
  161SOL    HW2  483   0.123   3.005   0.271 -0.5715  1.3849 -0.4464
  162SOL     OW  484   2.578   1.899   0.515 -0.0478  0.2594 -0.0852
  162SOL    HW1  485   2.599   1.841   0.430  2.1810 -0.2657  1.0884
  162SOL    HW2  486   2.569   1.844   0.604  0.0271  1.6250 -1.4757
  163SOL     OW  487   1.966   2.710   0.763 -0.0856 -0.5234 -0.6435
  163SOL    HW1  488   1.922   2.752   0.679 -0.4750 -1.2865  1.1147
  163SOL    HW2  489   2.032   2.636   0.739 -3.2192  0.6692 -1.1873
  164SOL     OW  490   3.053   0.286   1.229 -0.5689  0.1853 -0.5408
  164SOL    HW1  491   3.119   0.291   1.151 -1.6439  1.7966  0.9348
  164SOL    HW2  492   3.100   0.303   1.318  0.1740 -4.0460 -0.5009
  165SOL     OW  493   0.990   1.464   0.665  0.2351  0.4396  0.1746
  165SOL    HW1  494   0.921   1.496   0.731 -2.1545 -1.2761 -2.2363
  165SOL    HW2  495   0.985   1.503   0.568 -0.1170  2.5051 -0.0615
  166SOL     OW  496   1.420   1.052   1.757 -0.3287  0.1630  0.0888
  166SOL    HW1  497   1.347   1.006   1.801  2.1714  1.1122 -1.3720
  166SOL    HW2  498   1.504   1.068   1.814 -1.7056  0.6099  1.2220
  167SOL     OW  499   0.892   1.920   1.544  0.0781  0.3861 -0.6076
  167SOL    HW1  500   0.855   1.981   1.620 -0.0421 -0.0774  1.8429
  167SOL    HW2  501   0.830   1.841   1.519  1.5325 -0.8054  1.1470
  168SOL     OW  502   1.524   2.383   0.143  0.6942  0.3557 -0.3580
  168SOL    HW1  503   1.605   2.435   0.099  1.0695  2.5717  0.6248
  168SOL    HW2  504   1.554   2.327   0.228 -1.1328 -0.1123  2.3697
  169SOL     OW  505   0.177   2.570   2.191  0.1149 -0.0696  0.5306
  169SOL    HW1  506   0.228   2.520   2.117 -0.5118  0.4038 -0.4144
  169SOL    HW2  507   0.150   2.509   2.270 -3.5442 -1.0954  1.1836
  170SOL     OW  508   1.264   0.287   1.896  0.1591 -0.3744  0.2067
  170SOL    HW1  509   1.311   0.244   1.980 -2.2013 -0.7541 -1.0877
  170SOL    HW2  510   1.219   0.215   1.839  1.2673 -2.2624  0.2760
  171SOL     OW  511   0.270   0.796   2.428  0.1041 -0.1358 -0.3240
  171SOL    HW1  512   0.181   0.804   2.471  0.7563 -0.3286 -0.9735
  171SOL    HW2  513   0.266   0.800   2.325 -0.5623 -1.6429  2.7275
  172SOL     OW  514   0.895   1.130   2.935 -0.4687  0.3127  0.3327
  172SOL    HW1  515   0.997   1.134   2.963  1.4403 -0.9166 -0.5738
  172SOL    HW2  516   0.887   1.110   2.836 -1.1241 -0.3479 -1.8178
  173SOL     OW  517   0.676   2.700   0.163  0.0245 -0.5434  0.5155
  173SOL    HW1  518   0.674   2.799   0.126 -0.6498  1.4034  0.5163
  173SOL    HW2  519   0.581   2.655   0.156 -1.2926 -0.5773  0.0970
  174SOL     OW  520   1.357   2.760   1.044  0.3641 -0.2383  0.2460
  174SOL    HW1  521   1.350   2.833   0.967  0.5733  2.3957  0.4721
  174SOL    HW2  522   1.284   2.683   1.035  1.5939 -0.3228 -0.4288
  175SOL     OW  523   0.380  -0.004   1.689  0.3638  0.3696 -0.4959
  175SOL    HW1  524   0.465   0.019   1.746  0.2002 -1.1880  0.4138
  175SOL    HW2  525   0.326   0.074   1.653  1.2734  0.4604  0.7421
  176SOL     OW  526   2.551   0.375   3.047 -0.9924  0.1441  0.1459
  176SOL    HW1  527   2.583   0.449   3.110 -0.4979 -1.4334  0.6662
  176SOL    HW2  528   2.487   0.308   3.083  2.5124  1.0084  2.8370
  177SOL     OW  529   0.384   0.408   0.904  0.1453  0.0707  0.1605
  177SOL    HW1  530   0.473   0.367   0.937  0.6889  0.4289  2.3704
  177SOL    HW2  531   0.309   0.418   0.976 -0.8513 -2.5177  1.8266
  178SOL     OW  532   0.005   2.736   2.592  0.8438  0.0240  0.0816
  178SOL    HW1  533  -0.077   2.678   2.623 -0.1326  0.0017 -1.6913
  178SOL    HW2  534   0.075   2.748   2.668  1.0984  2.0490 -0.2560
  179SOL     OW  535   0.020   1.696   1.151  0.1546 -0.1663  0.0214
  179SOL    HW1  536  -0.050   1.777   1.146 -1.4718  3.2088  0.5108
  179SOL    HW2  537  -0.008   1.636   1.230 -0.4626 -0.6709 -2.7692
  180SOL     OW  538   0.189   1.250   1.830  0.3224  0.0054 -0.2566
  180SOL    HW1  539   0.277   1.275   1.780 -1.9428  0.7060 -0.9736
  180SOL    HW2  540   0.153   1.328   1.894 -0.4665  6.4810  0.1908
  181SOL     OW  541   3.004   1.826   2.534 -0.2566 -0.0704  0.2484
  181SOL    HW1  542   3.091   1.881   2.497  2.2560  0.5572 -2.8127
  181SOL    HW2  543   2.919   1.857   2.491  6.5560  3.8005 -0.6852
  182SOL     OW  544   2.328   1.219   1.210  0.2910 -0.7549 -0.4418
  182SOL    HW1  545   2.253   1.195   1.137  0.0961 -2.0943 -0.5021
  182SOL    HW2  546   2.351   1.321   1.209  1.0565  0.1756 -0.1632
  183SOL     OW  547   1.482   2.266   2.534 -0.0449  0.6491  0.4768
  183SOL    HW1  548   1.415   2.184   2.533  1.3043 -0.2547  0.5927
  183SOL    HW2  549   1.574   2.222   2.532 -1.7375  0.5271  1.6387
  184SOL     OW  550   2.061   0.931   0.749 -0.2116  0.4565 -0.1573
  184SOL    HW1  551   1.965   0.968   0.772  1.6569 -2.4728  1.4839
  184SOL    HW2  552   2.078   0.836   0.781  0.0490  1.6130 -0.0064
  185SOL     OW  553   1.659   2.733   2.101 -0.3070 -0.1860  0.1335
  185SOL    HW1  554   1.602   2.818   2.075 -3.4256 -0.9989 -0.9461
  185SOL    HW2  555   1.657   2.711   2.200  1.6870  0.8079 -2.3242
  186SOL     OW  556   0.108   2.231   1.751  0.1710  0.0609  0.1666
  186SOL    HW1  557   0.128   2.326   1.720 -1.2550 -1.3128 -0.8696
  186SOL    HW2  558   0.190   2.166   1.748  2.4371 -0.5819 -1.5235
  187SOL     OW  559   1.432   0.662   1.697  0.1571  0.3724 -0.3930
  187SOL    HW1  560   1.473   0.726   1.629  0.9461 -0.3824  1.6989
  187SOL    HW2  561   1.415   0.711   1.790  0.4074 -1.2070 -1.1149
  188SOL     OW  562   2.737   2.774   1.535 -0.3152  0.2750  0.1522
  188SOL    HW1  563   2.721   2.867   1.492 -1.2600  1.0336 -0.0724
  188SOL    HW2  564   2.728   2.697   1.468  3.3897 -1.5253  1.0600
  189SOL     OW  565   0.770   1.015   1.464  0.3845  0.2732 -0.5934
  189SOL    HW1  566   0.855   1.074   1.475  0.7435  2.1426 -0.9806
  189SOL    HW2  567   0.769   0.966   1.376  2.2627  3.1126  0.1053
  190SOL     OW  568   1.477   1.698   1.616  0.4555 -0.7608 -0.7244
  190SOL    HW1  569   1.384   1.652   1.616 -0.4203 -0.3171  0.5903
  190SOL    HW2  570   1.473   1.800   1.644  0.3554  2.1052  1.1230
  191SOL     OW  571   0.995   0.795   1.549 -0.3539 -0.4086 -0.0355
  191SOL    HW1  572   1.038   0.710   1.598 -1.3579  1.2057  1.8022
  191SOL    HW2  573   1.070   0.869   1.542 -0.8899  0.3737  0.0013
  192SOL     OW  574   1.856   2.286   1.212 -0.4306  0.5476 -0.4025
  192SOL    HW1  575   1.757   2.253   1.186 -2.6752 -1.5010 -0.8291
  192SOL    HW2  576   1.909   2.331   1.135 -0.8212  3.3554 -0.9965
  193SOL     OW  577   0.530   0.566   0.337 -0.0238  0.1157  0.5153
  193SOL    HW1  578   0.531   0.495   0.417  0.3395 -1.5720  1.6594
  193SOL    HW2  579   0.511   0.523   0.247 -1.3165  1.3825  1.6600
  194SOL     OW  580   0.281   0.858   1.256  0.3972  0.1482 -0.1953
  194SOL    HW1  581   0.191   0.811   1.234 -1.5390  0.6180  0.9539
  194SOL    HW2  582   0.334   0.887   1.172 -0.0061  0.3690  0.5782
  195SOL     OW  583   0.944   2.948   0.475 -0.3766 -0.1922  0.0212
  195SOL    HW1  584   0.965   2.850   0.440 -0.9869 -3.0924 -1.5497
  195SOL    HW2  585   1.035   3.006   0.478  1.7833 -0.2188 -2.2033
  196SOL     OW  586   0.275   1.424   1.394 -0.3468 -0.2973  0.4326
  196SOL    HW1  587   0.314   1.497   1.459  0.7779  0.5493 -0.3134
  196SOL    HW2  588   0.253   1.333   1.438 -0.4872  1.3589 -0.7497
  197SOL     OW  589   0.868   2.001   0.228 -0.0536 -0.0787  1.0425
  197SOL    HW1  590   0.862   1.990   0.333 -0.3679  1.3540  1.5831
  197SOL    HW2  591   0.947   1.951   0.187  1.0109  1.5384  1.9438
  198SOL     OW  592   0.294   1.216   0.239 -0.0162  0.5899  0.5113
  198SOL    HW1  593   0.198   1.227   0.203  2.3563 -1.5378 -2.4138
  198SOL    HW2  594   0.353   1.306   0.231 -0.7246  0.8044 -0.1856
  199SOL     OW  595   2.247   0.388   2.525 -0.2677 -0.3043 -0.1128
  199SOL    HW1  596   2.196   0.364   2.611 -1.1721 -1.2217 -1.1330
  199SOL    HW2  597   2.346   0.362   2.530  1.8983 -2.5952 -1.6241
  200SOL     OW  598   3.098   2.883   0.774  0.1535  0.4745 -0.5715
  200SOL    HW1  599   3.022   2.887   0.705 -2.4458  0.8213 -0.9579
  200SOL    HW2  600   3.127   2.971   0.822  0.7166 -0.7537  1.5350
  201SOL     OW  601   1.159   0.702   0.534  0.2681  0.1368  0.0680
  201SOL    HW1  602   1.147   0.780   0.595 -0.0193 -0.4100 -1.7717
  201SOL    HW2  603   1.068   0.664   0.501  2.9579 -0.7381  0.7875
  202SOL     OW  604   0.460   1.264   1.716  0.5820  0.2926 -0.8634
  202SOL    HW1  605   0.504   1.265   1.623 -0.7202 -1.6192  2.0589
  202SOL    HW2  606   0.481   1.183   1.776 -0.8785 -0.3049  2.1745
  203SOL     OW  607   0.664   0.230   1.511  0.5536 -0.2298 -0.0893
  203SOL    HW1  608   0.648   0.165   1.431  0.5005 -0.8034  0.7238
  203SOL    HW2  609   0.685   0.166   1.593  0.7520 -2.3830 -0.9634
  204SOL     OW  610   2.097   1.858   3.034  0.1989 -0.8543 -0.1115
  204SOL    HW1  611   2.095   1.756   3.013  1.0849  0.3779  0.7188
  204SOL    HW2  612   2.055   1.930   2.967  2.7040 -0.2281  0.0064
  205SOL     OW  613   1.855   1.864   0.107  0.1977  0.3609 -0.0572
  205SOL    HW1  614   1.947   1.862   0.071 -2.9071  0.6496  1.3445
  205SOL    HW2  615   1.793   1.924   0.049  1.2866  2.8578  0.7647
  206SOL     OW  616   2.542   2.814   0.407  0.8784 -0.0994 -0.1795
  206SOL    HW1  617   2.592   2.725   0.423  0.7079  0.1257 -2.3160
  206SOL    HW2  618   2.564   2.852   0.316 -0.0949 -0.5550 -1.0340
  207SOL     OW  619   0.602   1.737   2.858  0.5328  0.3178 -0.0589
  207SOL    HW1  620   0.704   1.731   2.867  2.6449 -0.9534  1.1096
  207SOL    HW2  621   0.555   1.658   2.906 -0.0430 -0.6585 -1.9149
  208SOL     OW  622   0.990   1.477   1.423 -0.2579  0.7831  0.0670
  208SOL    HW1  623   0.919   1.523   1.363  1.0640 -0.9313  0.8306
  208SOL    HW2  624   1.067   1.542   1.451 -0.6895 -0.6281  1.2323
  209SOL     OW  625   0.190   0.931   3.051  0.7552  0.1256 -0.1456
  209SOL    HW1  626   0.214   0.896   2.957  2.3957 -0.5438 -1.1381
  209SOL    HW2  627   0.178   0.856   3.124 -1.1539  0.7375 -1.1838
  210SOL     OW  628   1.709   0.505   1.138  0.1270 -0.0309 -0.0060
  210SOL    HW1  629   1.659   0.587   1.096 -2.5012  1.5824 -1.8418
  210SOL    HW2  630   1.814   0.506   1.122 -1.2159  1.7059  1.1221
  211SOL     OW  631   2.114   1.031   1.674  0.4724  0.0893  0.1816
  211SOL    HW1  632   2.152   1.010   1.765  1.5546  1.5239 -1.2603
  211SOL    HW2  633   2.178   1.072   1.599 -0.1866  0.9848 -4.0383
  212SOL     OW  634   0.022   1.004   1.456  0.1018 -0.8598  0.1906
  212SOL    HW1  635   0.070   1.087   1.496 -0.0728  2.2132 -0.8591
  212SOL    HW2  636   0.050   0.922   1.509 -0.6834  0.1278 -0.0939
  213SOL     OW  637   2.712   0.333   0.258  0.8220  0.4037  0.1842
  213SOL    HW1  638   2.781   0.299   0.190 -0.8375 -0.0643 -0.1242
  213SOL    HW2  639   2.678   0.432   0.229 -2.3603  2.8692 -0.2812
  214SOL     OW  640   2.199   0.284   2.276  0.0520  0.4164  0.4644
  214SOL    HW1  641   2.191   0.325   2.370 -0.9063  0.4115  1.9026
  214SOL    HW2  642   2.155   0.190   2.274  2.6718  1.3464  0.0331
  215SOL     OW  643   1.656   2.298   2.056  0.1049 -0.5620 -0.1122
  215SOL    HW1  644   1.757   2.317   2.055 -0.3810 -3.7778 -1.5471
  215SOL    HW2  645   1.609   2.335   2.137 -2.1886  1.0080 -2.3437
  216SOL     OW  646   2.238   0.535   0.647 -0.2147 -0.3962  0.2446
  216SOL    HW1  647   2.220   0.454   0.580 -1.0332  0.0072  0.4721
  216SOL    HW2  648   2.240   0.626   0.604 -0.2601  0.3993  0.0342
  217SOL     OW  649   0.769   2.790   2.423  0.2680 -0.1030 -0.4674
  217SOL    HW1  650   0.746   2.702   2.470 -0.0434  0.6383  1.3770
  217SOL    HW2  651   0.772   2.772   2.324 -3.3771  0.4823  0.8192
  218SOL     OW  652   1.926   1.444   0.074 -0.2656  0.0987  0.3643
  218SOL    HW1  653   1.840   1.495   0.049  1.4239 -0.5452  0.1834
  218SOL    HW2  654   1.898   1.349   0.117  2.5378  0.3953  0.9554
  219SOL     OW  655   2.382   1.336   2.557  0.0096  0.1958 -0.4299
  219SOL    HW1  656   2.369   1.287   2.473 -2.7099 -0.2109  3.1560
  219SOL    HW2  657   2.415   1.275   2.639  2.7545  1.8547  2.0331
  220SOL     OW  658   1.439   1.043   1.259  0.5595 -0.2538  0.0888
  220SOL    HW1  659   1.482   1.040   1.354  1.5026  1.1948 -1.2813
  220SOL    HW2  660   1.476   1.120   1.195  0.9888 -0.4987  0.5267
  221SOL     OW  661   1.291   1.180   2.150 -0.0830  0.5827  0.3216
  221SOL    HW1  662   1.225   1.245   2.099 -0.3128 -0.1184 -0.7083
  221SOL    HW2  663   1.382   1.172   2.102 -0.5987  1.1349  0.3615
  222SOL     OW  664   1.278   0.075   1.131 -0.3569 -0.3435 -0.1421
  222SOL    HW1  665   1.372   0.050   1.166  1.6012  1.5874 -1.1757
  222SOL    HW2  666   1.229   0.147   1.187 -2.7160  0.5617  0.9314
  223SOL     OW  667   2.896   0.837   1.967  0.0641  0.6543  0.2229
  223SOL    HW1  668   2.908   0.850   2.069  0.4324  2.5668 -0.0797
  223SOL    HW2  669   2.947   0.909   1.912  1.1745 -0.0768  0.7408
  224SOL     OW  670   1.557   0.983   2.781  0.0301 -0.4387  0.0368
  224SOL    HW1  671   1.583   0.908   2.715 -1.5063  3.2934  2.0209
  224SOL    HW2  672   1.557   1.078   2.735 -2.2908 -0.1312 -2.9167
  225SOL     OW  673   2.976   2.803   2.921  0.0522  0.2428 -0.0785
  225SOL    HW1  674   2.921   2.741   2.856 -1.3667 -0.6565  1.3694
  225SOL    HW2  675   3.055   2.858   2.881 -1.0635  0.5926  3.6861
  226SOL     OW  676   2.451   1.631   2.875  0.0255 -0.2692 -0.0610
  226SOL    HW1  677   2.493   1.603   2.784  0.2618 -0.6370 -0.3090
  226SOL    HW2  678   2.408   1.548   2.920  0.4126 -1.0604  3.3543
  227SOL     OW  679   0.812   0.127   2.985  0.7382 -0.5437 -0.0626
  227SOL    HW1  680   0.864   0.063   3.052 -0.1297 -0.6158 -0.0524
  227SOL    HW2  681   0.822   0.099   2.887 -0.0650  1.3558  0.3284
  228SOL     OW  682   2.366   0.575   2.796  0.0199 -0.0234 -0.0934
  228SOL    HW1  683   2.332   0.631   2.713  0.7674  1.7775  1.3452
  228SOL    HW2  684   2.428   0.498   2.775 -0.2113  2.2342  0.5924
  229SOL     OW  685   0.581   0.501   1.865 -0.1249  0.0957  0.1806
  229SOL    HW1  686   0.605   0.487   1.764 -2.2806 -1.3482 -3.2535
  229SOL    HW2  687   0.664   0.537   1.908  0.7561  0.9514  1.2751
  230SOL     OW  688   1.914   1.249   2.136 -0.3653 -0.1019 -0.5919
  230SOL    HW1  689   1.993   1.276   2.067  2.9046  2.2648  1.4203
  230SOL    HW2  690   1.815   1.261   2.107 -0.5585 -0.0220 -0.7944
  231SOL     OW  691   0.650   1.031   2.964  0.6124  0.0304  0.7564
  231SOL    HW1  692   0.749   1.058   2.965 -1.4402 -2.6152 -0.8668
  231SOL    HW2  693   0.601   1.044   3.055 -0.9737  2.1391 -1.3048
  232SOL     OW  694   2.527   0.044   2.751 -0.2133 -0.1467 -0.1381
  232SOL    HW1  695   2.589  -0.007   2.817  1.1459 -1.0541 -0.4502
  232SOL    HW2  696   2.539   0.012   2.653  0.0117 -1.3383 -0.4124
  233SOL     OW  697   1.725   1.276   1.049 -0.3566 -0.1134  0.1313
  233SOL    HW1  698   1.737   1.315   0.953 -0.9598 -0.9075 -2.0968
  233SOL    HW2  699   1.751   1.177   1.045 -2.4490  1.0451  0.6645
  234SOL     OW  700   1.625   2.630   1.840  0.2428 -0.2569 -0.0471
  234SOL    HW1  701   1.647   2.672   1.932 -1.1898  0.3584  0.7905
  234SOL    HW2  702   1.577   2.541   1.846  0.7111 -1.7617 -1.4939
  235SOL     OW  703   0.068   3.015   2.850  0.7685  0.1549  0.6322
  235SOL    HW1  704   0.130   3.080   2.797 -0.7851  1.5270  1.5071
  235SOL    HW2  705  -0.010   3.063   2.902 -1.0550  1.6053  1.0089
  236SOL     OW  706   2.804   0.699   0.059 -0.1900 -0.3952  0.5294
  236SOL    HW1  707   2.881   0.719   0.130 -1.3485 -1.8971  0.4324
  236SOL    HW2  708   2.833   0.619   0.000  0.6294 -0.5522  1.5440
  237SOL     OW  709   1.491   1.620   1.028 -0.1139 -0.5892  0.1249
  237SOL    HW1  710   1.588   1.588   1.017 -0.2371 -2.1920  0.6138
  237SOL    HW2  711   1.473   1.666   1.123 -0.0687 -0.9793  1.5737
  238SOL     OW  712   1.760   1.352   0.759 -0.2324 -0.1961  0.1300
  238SOL    HW1  713   1.847   1.397   0.734 -0.7948 -0.9613  1.5078
  238SOL    HW2  714   1.688   1.398   0.697 -0.8017 -0.0865 -0.4693
  239SOL     OW  715   2.100   0.242   2.720 -0.1777 -0.1200  0.0876
  239SOL    HW1  716   2.189   0.249   2.769  0.5089 -0.4362 -0.1838
  239SOL    HW2  717   2.019   0.293   2.762 -1.2814 -0.5155  2.4710
  240SOL     OW  718   0.854   0.700   0.220  0.2199 -0.1879  0.8934
  240SOL    HW1  719   0.831   0.605   0.180 -1.0013 -0.6731 -2.3689
  240SOL    HW2  720   0.868   0.690   0.318  0.2180  2.5217 -1.0307
  241SOL     OW  721   0.563   0.028   0.319 -0.0252  0.3477  0.2677
  241SOL    HW1  722   0.594  -0.027   0.239 -2.3946  0.1517  3.7804
  241SOL    HW2  723   0.478  -0.019   0.365 -3.5813 -1.9993  2.5782
  242SOL     OW  724   0.693   2.402   1.126  0.0768  0.0362  0.6253
  242SOL    HW1  725   0.642   2.473   1.173  1.1873  0.4961 -0.3616
  242SOL    HW2  726   0.776   2.444   1.079 -1.4758  1.5249 -0.9057
  243SOL     OW  727   1.083   0.621   2.416  0.0491  0.0464 -0.5876
  243SOL    HW1  728   1.025   0.688   2.364 -0.2955 -1.0465  1.9953
  243SOL    HW2  729   1.025   0.548   2.462  1.6459  1.1656 -1.5551
  244SOL     OW  730   2.760   1.934   2.426 -0.2891  0.1726  0.9582
  244SOL    HW1  731   2.810   1.944   2.335  0.4385 -1.4305  1.1281
  244SOL    HW2  732   2.672   1.886   2.416  0.8476 -2.7791  1.8050
  245SOL     OW  733   2.458   0.749   2.128  0.0842 -0.0909 -0.7811
  245SOL    HW1  734   2.489   0.812   2.206 -1.3858  2.1474  0.6353
  245SOL    HW2  735   2.497   0.653   2.139 -0.7391  0.4934  1.2009
  246SOL     OW  736   0.222   2.877   1.723 -0.1215 -0.3727 -0.4445
  246SOL    HW1  737   0.151   2.871   1.649 -0.3249 -0.3733  1.6442
  246SOL    HW2  738   0.285   2.962   1.718  1.8229  0.8280  0.9955
  247SOL     OW  739   2.185   0.541   2.999 -0.4092  0.2564  0.1235
  247SOL    HW1  740   2.268   0.548   2.938  0.1088  0.1700 -0.1022
  247SOL    HW2  741   2.149   0.638   3.023  1.6383  0.2950  0.9638
  248SOL     OW  742   2.190   1.885   1.649 -0.0060 -0.4549  0.2220
  248SOL    HW1  743   2.236   1.791   1.666  3.0005  0.7054  1.2985
  248SOL    HW2  744   2.088   1.886   1.671 -0.6410 -3.0605  0.7379
  249SOL     OW  745   1.979   1.926   1.944 -0.5262  0.2269  0.1526
  249SOL    HW1  746   1.982   1.862   1.861  1.6435  1.3282 -1.0580
  249SOL    HW2  747   2.064   1.988   1.951 -1.4716 -0.0743  0.7040
  250SOL     OW  748   1.003   0.638   1.878  0.4160  0.3867 -0.1854
  250SOL    HW1  749   1.066   0.578   1.940 -0.7141 -0.9830  0.2551
  250SOL    HW2  750   1.034   0.628   1.780  0.6189  0.5622 -2.2178
  251SOL     OW  751   3.025   1.554   2.580  0.2737 -0.0288  0.1167
  251SOL    HW1  752   3.025   1.660   2.571  0.3099  1.5598  1.2999
  251SOL    HW2  753   2.933   1.518   2.546 -1.3098  1.0846  0.1056
  252SOL     OW  754   1.541   0.884   1.561 -0.1641 -0.0921 -0.9533
  252SOL    HW1  755   1.628   0.923   1.524  0.6411 -1.6335  0.9373
  252SOL    HW2  756   1.495   0.956   1.622 -0.9888 -1.4670 -2.2934
  253SOL     OW  757   0.996   1.504   0.383 -0.4359 -0.1896  0.0196
  253SOL    HW1  758   1.074   1.440   0.356  3.9616  0.4215 -1.0415
  253SOL    HW2  759   0.900   1.474   0.378  3.3182  1.2114  1.3530
  254SOL     OW  760   1.997   2.149   1.604  0.2105 -0.1097  0.0739
  254SOL    HW1  761   1.943   2.115   1.520 -0.1697  0.8830  0.2821
  254SOL    HW2  762   1.941   2.140   1.692 -3.1919  1.2312  1.1190
  255SOL     OW  763   0.078   1.154   2.894  0.1322 -0.3070  0.3263
  255SOL    HW1  764   0.150   1.224   2.868  2.4197  1.4781 -3.9970
  255SOL    HW2  765   0.111   1.070   2.949 -1.7292  0.3650  3.0123
  256SOL     OW  766   2.791   1.344   1.859  1.1175  0.2660 -0.2670
  256SOL    HW1  767   2.759   1.421   1.795  0.2864 -0.0634 -1.5940
  256SOL    HW2  768   2.716   1.278   1.879 -0.5685  1.1709  0.9990
  257SOL     OW  769   0.861   0.243   1.906  0.4667  0.0991  0.0826
  257SOL    HW1  770   0.901   0.301   1.831  1.1049 -0.7100  1.8459
  257SOL    HW2  771   0.886   0.144   1.892  2.7200  1.0085  1.9154
  258SOL     OW  772   2.949   1.261   0.420 -0.1140  0.6084  0.0110
  258SOL    HW1  773   2.875   1.332   0.416 -0.2478 -0.6088 -0.1857
  258SOL    HW2  774   2.996   1.266   0.510 -0.5505 -0.2388  1.9178
  259SOL     OW  775   0.471   2.910   3.000 -0.7798 -0.3803 -0.2240
  259SOL    HW1  776   0.452   2.836   3.069 -1.4855  2.8501  0.0017
  259SOL    HW2  777   0.467   2.875   2.905 -0.9275  1.2659  0.9577
  260SOL     OW  778   2.641   0.718   2.755  0.1380  0.3237  0.2978
  260SOL    HW1  779   2.570   0.783   2.714 -1.1129 -0.2669  0.3643
  260SOL    HW2  780   2.593   0.635   2.792  0.8664  1.4668  2.0220
  261SOL     OW  781   2.720   1.340   1.301  0.1542  0.7586  0.0142
  261SOL    HW1  782   2.664   1.266   1.253 -2.8100  1.5127 -0.2346
  261SOL    HW2  783   2.815   1.307   1.329  0.7943 -1.8196  1.6219
  262SOL     OW  784   1.485   2.929   2.044  0.2507  0.0459  0.3636
  262SOL    HW1  785   1.498   3.004   1.976  3.0392 -0.4863  3.0007
  262SOL    HW2  786   1.392   2.881   2.035 -0.9077  0.8119 -0.3910
  263SOL     OW  787   0.894   0.785   2.342  0.6238  0.2115 -0.5063
  263SOL    HW1  788   0.834   0.717   2.296  0.5984  2.2737 -1.2918
  263SOL    HW2  789   0.914   0.859   2.274 -0.2849 -0.9826  0.4083
  264SOL     OW  790   2.281   0.765   0.515  0.3121 -0.0836 -0.2992
  264SOL    HW1  791   2.183   0.788   0.493 -2.4839  2.9356  2.4772
  264SOL    HW2  792   2.346   0.848   0.522 -0.3453  1.1753 -0.9238
  265SOL     OW  793   0.861   2.335   2.701  0.2950  0.0389 -0.4221
  265SOL    HW1  794   0.881   2.406   2.774  0.7927  0.1712  0.8541
  265SOL    HW2  795   0.797   2.254   2.734 -1.4751  0.2445 -1.7332
  266SOL     OW  796   1.343   1.725   0.034  0.1766 -0.2161  0.1486
  266SOL    HW1  797   1.291   1.797   0.083  2.1168 -1.5026 -0.0342
  266SOL    HW2  798   1.445   1.739   0.045 -2.6816  2.1975  0.8704
  267SOL     OW  799   1.064   0.033   2.347 -0.2967  0.0958  0.3355
  267SOL    HW1  800   1.045  -0.036   2.269 -1.9464 -0.3408 -0.9080
  267SOL    HW2  801   1.019   0.124   2.324 -0.0183 -0.0376  0.1133
  268SOL     OW  802   0.617   1.129   1.031  0.4113  0.3553 -0.6714
  268SOL    HW1  803   0.654   1.167   1.118  2.2703  0.1980  1.1259
  268SOL    HW2  804   0.613   1.202   0.957 -1.3223  2.4685  2.4610
  269SOL     OW  805   2.460   2.567   1.576  0.0023  0.1108  0.1285
  269SOL    HW1  806   2.531   2.492   1.591  0.4683 -1.1865 -0.9545
  269SOL    HW2  807   2.396   2.581   1.658 -3.1124 -1.2477  1.0056
  270SOL     OW  808   0.240   2.843   2.026 -0.1485  1.3748 -0.0093
  270SOL    HW1  809   0.224   2.835   1.924 -0.2312  2.6666 -0.6653
  270SOL    HW2  810   0.155   2.820   2.083 -1.6589  1.8950 -2.5210
  271SOL     OW  811   0.437   1.389   1.175  1.0725  0.3241  0.3845
  271SOL    HW1  812   0.393   1.408   1.084  2.1538 -2.6626  1.5588
  271SOL    HW2  813   0.370   1.386   1.252  3.0993 -1.8164  2.7339
  272SOL     OW  814   1.950   2.862   1.909 -0.6306  0.3670  0.0265
  272SOL    HW1  815   1.877   2.866   1.839 -1.4596 -0.3984 -2.7379
  272SOL    HW2  816   2.036   2.915   1.882 -0.9396 -0.4663 -0.8101
  273SOL     OW  817   1.424   1.453   2.865  0.4912 -0.0008  0.1617
  273SOL    HW1  818   1.503   1.461   2.929  0.5196  0.1073 -0.3137
  273SOL    HW2  819   1.334   1.450   2.917 -0.1306  0.0656 -1.5715
  274SOL     OW  820   1.171   0.511   2.038  0.1715  0.4873 -0.2800
  274SOL    HW1  821   1.219   0.433   1.985 -0.8028  2.5514  0.9831
  274SOL    HW2  822   1.225   0.537   2.127  0.5008  0.8466  3.7085
  275SOL     OW  823   0.631   2.068   1.939 -0.3909 -0.0262  0.4613
  275SOL    HW1  824   0.594   2.161   1.950  2.0000 -2.4745  0.6277
  275SOL    HW2  825   0.558   2.002   1.908 -1.0310 -1.0194  2.1249
  276SOL     OW  826   2.159   0.994   2.805  0.0099  0.0030 -0.0627
  276SOL    HW1  827   2.080   0.968   2.748 -0.9980 -0.4672  1.2324
  276SOL    HW2  828   2.146   0.970   2.908  0.5879 -0.5371  2.9266
  277SOL     OW  829   3.018   0.822   0.199  0.9572 -0.1378 -0.2679
  277SOL    HW1  830   3.103   0.869   0.170 -2.3033  0.0872  0.8877
  277SOL    HW2  831   3.021   0.757   0.279  1.9866  4.3095  1.4301
  278SOL     OW  832   0.195   0.276   2.942 -0.1660  0.1931  0.7239
  278SOL    HW1  833   0.221   0.212   3.021  0.9798  2.7164  3.2327
  278SOL    HW2  834   0.224   0.370   2.971 -0.0706 -4.1958 -0.9542
  279SOL     OW  835   0.154   3.080   0.878  0.1247 -0.1430 -0.0411
  279SOL    HW1  836   0.183   3.099   0.976 -1.2387  0.1598 -0.8560
  279SOL    HW2  837   0.229   3.115   0.815  1.6870  1.1951  0.2845
  280SOL     OW  838   1.655   2.944   2.519  0.4650  0.3508  0.1421
  280SOL    HW1  839   1.743   2.992   2.514 -2.5761 -1.9881  0.3887
  280SOL    HW2  840   1.577   3.000   2.546  3.6288  0.5051 -0.3478
  281SOL     OW  841   0.636   0.935   2.361 -0.2272  0.4307  0.5174
  281SOL    HW1  842   0.584   0.854   2.320  0.3469 -0.5396 -2.1519
  281SOL    HW2  843   0.672   0.908   2.451 -1.7746 -0.1906  0.4896
  282SOL     OW  844   1.648   2.463   0.558  0.6139 -0.7950 -0.3323
  282SOL    HW1  845   1.624   2.409   0.472 -0.6931 -0.6360  1.7130
  282SOL    HW2  846   1.615   2.561   0.561 -1.5784 -0.6424  0.8390
  283SOL     OW  847   1.157   0.962   0.694  0.2939  0.4317  0.1530
  283SOL    HW1  848   1.190   0.897   0.764  2.3519  0.7057 -0.1237
  283SOL    HW2  849   1.086   1.032   0.732  0.0068  0.6753  0.8123
  284SOL     OW  850   2.283   2.801   2.405  0.6643 -0.3464 -0.1687
  284SOL    HW1  851   2.359   2.853   2.439 -0.2798 -1.0843 -1.1303
  284SOL    HW2  852   2.218   2.855   2.343 -2.2738  1.1387  2.8417
  285SOL     OW  853   1.400   3.045   2.552 -0.3395 -0.7416  0.6259
  285SOL    HW1  854   1.421   3.056   2.451  1.5721  0.3744 -0.2486
  285SOL    HW2  855   1.299   3.070   2.573  0.8042 -0.1831 -1.3470
  286SOL     OW  856   0.433   0.480   0.649  0.4994 -0.1860  0.3587
  286SOL    HW1  857   0.401   0.448   0.745  0.1476 -3.2697 -1.6114
  286SOL    HW2  858   0.436   0.399   0.582  1.8786  0.2124  0.8305
  287SOL     OW  859   0.071   1.340   2.508  0.1491 -0.1123 -0.3504
  287SOL    HW1  860   0.049   1.246   2.544  1.0176 -0.0024 -1.2246
  287SOL    HW2  861   0.002   1.414   2.543 -0.5058 -1.6006  0.8534
  288SOL     OW  862   1.582   2.633   1.480  0.2264 -0.1897 -0.1821
  288SOL    HW1  863   1.690   2.616   1.492 -0.1959  0.0179 -0.7766
  288SOL    HW2  864   1.554   2.640   1.382 -2.2221  1.5380  2.2640
  289SOL     OW  865   0.686   2.712   0.800  0.2588  0.1662 -0.8073
  289SOL    HW1  866   0.720   2.791   0.744 -0.5346 -1.8905 -0.5583
  289SOL    HW2  867   0.668   2.744   0.898 -0.0308  0.4021  0.3287
  290SOL     OW  868   2.953   1.236   1.642 -0.2194  0.4708 -0.9542
  290SOL    HW1  869   2.866   1.261   1.694 -3.4324 -0.7233  0.5423
  290SOL    HW2  870   3.020   1.186   1.706 -2.7568 -2.3189  0.3840
  291SOL     OW  871   1.974   0.040   0.064  0.0342 -0.1921 -0.2072
  291SOL    HW1  872   2.021   0.019   0.155 -1.7696  0.2652  0.4875
  291SOL    HW2  873   2.018   0.120   0.013 -1.0140 -1.3682 -1.4511
  292SOL     OW  874   2.962   1.192   3.045 -0.5167  0.2770 -0.2075
  292SOL    HW1  875   2.886   1.231   2.987 -0.6228 -0.0970 -1.5100
  292SOL    HW2  876   3.047   1.179   2.987  0.6695  1.7885  1.7939
  293SOL     OW  877   0.570   2.073   0.146  0.0403  0.6925 -0.3644
  293SOL    HW1  878   0.544   2.125   0.236 -0.9668 -0.0987 -0.8464
  293SOL    HW2  879   0.666   2.032   0.155 -0.9160  0.8511 -2.3640
  294SOL     OW  880   1.686   2.152   1.832 -0.0955  0.5014 -0.4577
  294SOL    HW1  881   1.669   2.207   1.918 -0.9501 -0.6862  0.1402
  294SOL    HW2  882   1.683   2.214   1.750  2.4317 -1.4665  0.8747
  295SOL     OW  883   0.938   1.122   0.418  0.1291 -1.1812 -0.1991
  295SOL    HW1  884   1.034   1.089   0.444  0.9388 -3.8639 -0.0014
  295SOL    HW2  885   0.872   1.107   0.493 -0.4950 -2.0172  1.7109
  296SOL     OW  886   1.284   2.067   2.527  0.2698 -0.0778 -0.5490
  296SOL    HW1  887   1.279   2.112   2.439 -0.3281 -4.7129 -0.6157
  296SOL    HW2  888   1.270   1.965   2.527 -1.9188 -1.2610  0.3973
  297SOL     OW  889   1.520   0.700   1.358 -0.1920 -0.0850  0.4305
  297SOL    HW1  890   1.584   0.619   1.368 -1.3577 -0.6779  2.4336
  297SOL    HW2  891   1.538   0.776   1.425 -1.2579  1.7205 -2.9119
  298SOL     OW  892   0.525   1.249   2.835 -0.5207 -0.3602  0.1599
  298SOL    HW1  893   0.553   1.159   2.879 -0.1736  1.2104  2.2334
  298SOL    HW2  894   0.582   1.264   2.749 -0.9849 -1.4730  0.7543
  299SOL     OW  895   0.385   0.334   1.434 -0.0027 -0.3971 -0.2343
  299SOL    HW1  896   0.384   0.429   1.392  0.0590  0.7431 -0.7356
  299SOL    HW2  897   0.481   0.304   1.449  1.2510  2.4084 -2.1356
  300SOL     OW  898   1.221   1.792   2.862  0.0234  0.0684  0.0583
  300SOL    HW1  899   1.219   1.705   2.806 -0.4500 -0.2157  1.8516
  300SOL    HW2  900   1.195   1.779   2.964  0.5493 -0.2305  2.2061
  301SOL     OW  901   0.452   0.282   0.459 -0.3955 -0.0466  0.0263
  301SOL    HW1  902   0.355   0.255   0.426 -2.4931 -0.7258  0.7960
  301SOL    HW2  903   0.525   0.237   0.404  1.0434  0.3299 -1.8235
  302SOL     OW  904   1.223   2.303   2.316  0.1474 -0.4424 -0.4205
  302SOL    HW1  905   1.163   2.321   2.397 -1.2472 -1.6259  1.7497
  302SOL    HW2  906   1.215   2.214   2.268  1.9249  3.8529 -0.4667
  303SOL     OW  907   0.929   2.373   0.795 -0.1025 -0.6866  0.0739
  303SOL    HW1  908   0.977   2.431   0.726 -0.7884 -2.1984 -0.6029
  303SOL    HW2  909   0.940   2.395   0.895 -0.7768  0.4871 -0.0951
  304SOL     OW  910   0.115   2.057   0.673  0.6338 -0.0610 -0.6888
  304SOL    HW1  911   0.154   1.978   0.621  1.2329  2.5689 -2.2041
  304SOL    HW2  912   0.059   2.126   0.610 -0.4072  0.2347 -3.5592
  305SOL     OW  913   1.628   0.880   0.689  0.1888  0.1278 -0.3993
  305SOL    HW1  914   1.558   0.908   0.611 -1.9292  0.4429  0.3080
  305SOL    HW2  915   1.698   0.806   0.671 -0.8837 -1.6012  0.2033
  306SOL     OW  916   0.446   1.861   1.911  0.1885  0.3536 -0.4668
  306SOL    HW1  917   0.514   1.800   1.862 -2.5176  1.7624  0.6810
  306SOL    HW2  918   0.445   1.836   2.013 -1.2532  0.4486  0.3586
  307SOL     OW  919   0.027   0.839   2.545 -0.0286 -0.4891  0.2753
  307SOL    HW1  920   0.032   0.938   2.570 -3.4385 -1.9602  1.1492
  307SOL    HW2  921  -0.057   0.791   2.577 -0.4856  1.4337  1.5531
  308SOL     OW  922   1.579   2.659   2.828 -0.0431 -0.7156  0.2722
  308SOL    HW1  923   1.591   2.598   2.748 -0.0885 -1.8007  0.9307
  308SOL    HW2  924   1.494   2.627   2.889  1.0278 -1.0054  3.9583
  309SOL     OW  925   1.233   0.020   1.767  0.0318  0.0156  0.1937
  309SOL    HW1  926   1.321   0.013   1.811 -0.2423 -0.7075 -1.0156
  309SOL    HW2  927   1.230   0.055   1.669 -2.3473  1.4432 -0.9528
  310SOL     OW  928   1.327   2.668   0.718  0.3813 -0.3027 -0.2846
  310SOL    HW1  929   1.229   2.703   0.721 -0.8402 -3.0308 -1.1415
  310SOL    HW2  930   1.396   2.747   0.715  1.4741 -1.9024  0.5679
  311SOL     OW  931   1.213   0.948   1.449  0.2956 -0.0705  0.5383
  311SOL    HW1  932   1.301   0.900   1.463 -1.1346  0.0114  0.9325
  311SOL    HW2  933   1.230   1.056   1.458 -0.2037  1.9811  0.4870
  312SOL     OW  934   1.589   0.690   0.987  0.7525  0.2002 -0.6408
  312SOL    HW1  935   1.573   0.791   0.992  0.5415  0.1522 -0.2486
  312SOL    HW2  936   1.503   0.639   0.962 -1.0310  0.1828 -0.4027
  313SOL     OW  937   1.572   1.447   0.588  0.1045  0.0452  0.5117
  313SOL    HW1  938   1.488   1.507   0.589  1.1835  1.7523  4.0616
  313SOL    HW2  939   1.551   1.352   0.553 -1.3761 -2.4882  1.7828
  314SOL     OW  940   2.962   0.042   2.980  0.3348 -0.8572 -0.1989
  314SOL    HW1  941   2.965   0.077   3.077  0.0713 -0.2809 -2.1405
  314SOL    HW2  942   2.903  -0.045   2.976 -0.7515  0.5843 -0.5259
  315SOL     OW  943   1.249   0.233   2.778  0.0687 -0.1656 -0.1289
  315SOL    HW1  944   1.210   0.149   2.735  0.2693 -1.2502  0.2860
  315SOL    HW2  945   1.275   0.226   2.881 -0.6948  2.0817  0.0740
  316SOL     OW  946   1.672   2.086   0.892  0.3199  0.1703 -0.5917
  316SOL    HW1  947   1.658   2.093   0.994 -0.7344  1.4072  2.4064
  316SOL    HW2  948   1.648   2.172   0.841  0.4543 -1.1847  2.2100
  317SOL     OW  949   1.166   0.708   2.844  0.1176 -0.2357  0.3482
  317SOL    HW1  950   1.100   0.751   2.912 -0.2152 -1.0034 -2.0465
  317SOL    HW2  951   1.133   0.619   2.801 -1.1330 -0.0254 -0.4734
  318SOL     OW  952   1.419   3.062   2.273  0.5301  0.2725 -0.7287
  318SOL    HW1  953   1.397   3.153   2.238  0.4131 -3.5391  3.2781
  318SOL    HW2  954   1.453   3.004   2.197 -1.5737  0.4209  0.1897
  319SOL     OW  955   0.631   2.380   2.942  0.3340  0.2563 -0.1658
  319SOL    HW1  956   0.541   2.346   2.975  0.6570  3.1044  0.7033
  319SOL    HW2  957   0.705   2.312   2.948  0.0848  1.0989  1.1511
  320SOL     OW  958   1.617   2.261   0.365  0.3093 -0.5933  0.1827
  320SOL    HW1  959   1.714   2.222   0.386  0.7057  0.0658  0.0685
  320SOL    HW2  960   1.539   2.208   0.411  3.6557 -0.6580  0.4353
  321SOL     OW  961   1.582   2.714   0.529 -0.0162 -0.6316  0.0466
  321SOL    HW1  962   1.502   2.762   0.477 -2.3214  1.2145  1.8263
  321SOL    HW2  963   1.668   2.770   0.527 -0.5799  0.5343 -1.6178
  322SOL     OW  964   2.637   1.110   2.253 -0.4926  0.2523  0.5815
  322SOL    HW1  965   2.728   1.109   2.310  1.6048  2.1882  2.2189
  322SOL    HW2  966   2.578   1.034   2.287 -2.3679 -0.0360  0.2660
  323SOL     OW  967   1.013   2.704   0.849 -0.3911  0.1814 -0.2992
  323SOL    HW1  968   0.990   2.654   0.762 -0.2230  0.5690  0.4390
  323SOL    HW2  969   0.997   2.805   0.839 -2.3261  1.9168 -2.2099
  324SOL     OW  970   0.114   2.482   2.444  0.0833 -0.2340 -0.1323
  324SOL    HW1  971   0.085   2.398   2.499 -1.2387 -3.3352 -1.0739
  324SOL    HW2  972   0.053   2.566   2.462  1.4665  1.9885 -0.5663
  325SOL     OW  973   1.185   3.076   0.468  0.3467  0.5921 -0.0416
  325SOL    HW1  974   1.223   3.129   0.386 -0.8777 -0.5495  2.8121
  325SOL    HW2  975   1.231   3.112   0.553  0.7426 -0.1994 -2.3819
  326SOL     OW  976   2.390   0.749   0.005  0.1173 -0.0571 -0.3709
  326SOL    HW1  977   2.289   0.741  -0.019  2.3822 -1.7576 -0.9521
  326SOL    HW2  978   2.423   0.661   0.053  1.1481  1.6258  1.5916
  327SOL     OW  979   2.736   0.424   0.539  0.0730 -0.0417  0.2015
  327SOL    HW1  980   2.720   0.382   0.445  2.2130 -1.0901 -0.1940
  327SOL    HW2  981   2.658   0.398   0.604  0.7446  1.5030 -0.4969
  328SOL     OW  982   2.476   0.594   0.422  0.1716 -0.5717  0.3487
  328SOL    HW1  983   2.404   0.663   0.459  0.9479 -1.3080  2.6675
  328SOL    HW2  984   2.504   0.526   0.497 -3.0114 -1.0856  0.9063
  329SOL     OW  985   2.993   2.986   2.161 -0.0069  0.8902 -0.0177
  329SOL    HW1  986   3.059   2.930   2.220  1.7207  1.8975  0.6684
  329SOL    HW2  987   3.022   3.087   2.143 -0.2485 -0.3526  0.0276
  330SOL     OW  988   0.539   0.173   1.871 -0.4177 -0.4622  0.3048
  330SOL    HW1  989   0.586   0.262   1.850 -3.0426  1.6528  0.7579
  330SOL    HW2  990   0.568   0.130   1.961 -2.1404 -0.9409  2.3499
  331SOL     OW  991   2.944   1.913   1.121  0.2776 -0.2170  0.0893
  331SOL    HW1  992   2.976   2.001   1.081 -2.6047  1.1085  1.2590
  331SOL    HW2  993   2.867   1.931   1.189  1.5415 -2.2354 -1.6544
  332SOL     OW  994   0.412   1.064   0.066 -0.2927  0.0905 -0.3062
  332SOL    HW1  995   0.334   1.025   0.007 -0.0433  0.0310  0.0378
  332SOL    HW2  996   0.372   1.123   0.138  0.5144 -2.9148 -0.9567
  333SOL     OW  997   2.837   1.035   0.270 -0.4193 -0.4919  0.4376
  333SOL    HW1  998   2.898   1.110   0.311  1.0175  0.6643 -0.0404
  333SOL    HW2  999   2.890   0.954   0.234 -1.2288 -2.3981  0.6094
  334SOL     OW 1000   1.656   1.156   1.899  0.7702  0.0141 -0.0650
  334SOL    HW1 1001   1.741   1.148   1.841 -1.1425  1.4434  0.1726
  334SOL    HW2 1002   1.658   1.248   1.956 -3.7652  0.8760  2.0723
  335SOL     OW 1003   1.974   2.791   2.614  0.0615 -0.4865 -0.3029
  335SOL    HW1 1004   1.900   2.803   2.688 -0.7173 -1.9915  3.3093
  335SOL    HW2 1005   2.050   2.860   2.635  1.6344  1.7315 -0.7637
  336SOL     OW 1006   0.238   0.096   2.744  0.4747 -0.1987 -0.0095
  336SOL    HW1 1007   0.328   0.049   2.754 -1.9454 -0.6513 -0.3837
  336SOL    HW2 1008   0.235   0.181   2.804 -2.7593  0.1542 -0.4614
  337SOL     OW 1009   0.927   2.818   2.834 -0.4516 -0.0999 -0.1856
  337SOL    HW1 1010   0.914   2.812   2.936  0.5704 -1.4579 -1.8018
  337SOL    HW2 1011   1.018   2.772   2.806 -0.4978  1.5997  1.1851
  338SOL     OW 1012   0.018   1.026   0.612 -0.6438  0.1942  0.0505
  338SOL    HW1 1013  -0.088   1.022   0.619 -2.7126 -1.8415  1.5063
  338SOL    HW2 1014   0.046   1.125   0.603 -0.0966  0.5210 -1.4503
  339SOL     OW 1015   1.670   1.374   2.076 -0.0942  0.3619 -0.2489
  339SOL    HW1 1016   1.575   1.410   2.091 -0.7823 -0.4057 -0.4031
  339SOL    HW2 1017   1.737   1.453   2.085  2.2314  1.2160  1.7765
  340SOL     OW 1018   2.322   0.763   1.185 -0.4238  0.5414 -0.4512
  340SOL    HW1 1019   2.221   0.790   1.184 -0.8730  2.0251 -0.8136
  340SOL    HW2 1020   2.344   0.675   1.131  1.2705  0.0966 -0.2231
  341SOL     OW 1021   1.882   2.155   0.423 -0.1164  0.0425 -0.5217
  341SOL    HW1 1022   1.919   2.197   0.336 -1.2813  0.9206 -0.0946
  341SOL    HW2 1023   1.949   2.155   0.496  0.0209  0.6641 -4.6418
  342SOL     OW 1024   2.203   2.132   2.752  0.0864 -1.0500 -0.2372
  342SOL    HW1 1025   2.259   2.070   2.813 -0.5729  2.1575 -0.9559
  342SOL    HW2 1026   2.100   2.118   2.754 -2.4093 -0.8161 -2.4664
  343SOL     OW 1027   0.342   0.877   2.846  0.1421 -0.9733  0.0524
  343SOL    HW1 1028   0.333   0.948   2.765 -0.3752  2.6772 -1.7005
  343SOL    HW2 1029   0.439   0.867   2.879  0.4032  2.5184 -1.4930
  344SOL     OW 1030   1.937   1.502   0.365 -0.0225 -0.7199  0.2049
  344SOL    HW1 1031   1.969   1.530   0.269  0.0023  3.8281  0.5648
  344SOL    HW2 1032   1.833   1.502   0.369  1.4830 -0.3055 -0.6560
  345SOL     OW 1033   1.397   2.194   2.832 -0.4182  0.1465 -0.0477
  345SOL    HW1 1034   1.312   2.150   2.795  0.2353  0.9958 -0.7107
  345SOL    HW2 1035   1.483   2.163   2.781 -0.2617  0.3148  0.3062
  346SOL     OW 1036   2.406   0.898   1.436 -0.4429 -0.4097  0.4437
  346SOL    HW1 1037   2.345   0.982   1.445  0.7719 -0.0707 -1.7552
  346SOL    HW2 1038   2.375   0.836   1.360 -0.7984 -1.3606  0.1975
  347SOL     OW 1039   0.693   2.826   1.507 -0.5896  0.3034 -0.8235
  347SOL    HW1 1040   0.672   2.777   1.597 -0.9166  1.7814  0.0354
  347SOL    HW2 1041   0.610   2.877   1.464  1.5167  0.7613 -2.3793
  348SOL     OW 1042   0.094   0.714   2.856  0.5170  0.2196  0.1021
  348SOL    HW1 1043  -0.001   0.726   2.821 -0.4436  0.5698  2.5136
  348SOL    HW2 1044   0.155   0.786   2.816 -0.3671  1.6684  2.5986
  349SOL     OW 1045   1.905   0.409   2.818 -0.1918  0.0042 -0.1880
  349SOL    HW1 1046   1.921   0.485   2.748 -1.1891 -1.1639 -2.3076
  349SOL    HW2 1047   1.850   0.431   2.903  2.0713 -1.0930  0.9404
  350SOL     OW 1048   1.658   0.393   0.377  0.6833  0.3117 -0.2481
  350SOL    HW1 1049   1.731   0.421   0.451  2.1700  0.6914 -0.2554
  350SOL    HW2 1050   1.618   0.482   0.335  0.1997  1.9982 -1.6818
  351SOL     OW 1051   0.882   0.910   2.096  0.0334 -0.1642 -0.9000
  351SOL    HW1 1052   0.908   0.997   2.049 -1.3865 -2.4113 -1.6857
  351SOL    HW2 1053   0.826   0.852   2.027 -2.0438  0.3095 -2.2490
  352SOL     OW 1054   1.991   1.378   0.604  0.4846 -0.0493 -0.0899
  352SOL    HW1 1055   1.966   1.427   0.517  0.7740 -2.2033  0.5386
  352SOL    HW2 1056   2.089   1.396   0.640 -2.7181 -0.4650  1.6619
  353SOL     OW 1057   2.134   2.840   1.135 -0.2024  0.4481 -0.5337
  353SOL    HW1 1058   2.229   2.808   1.162 -0.9172 -0.5398  0.0425
  353SOL    HW2 1059   2.078   2.765   1.086 -1.1240  0.4217 -3.2792
  354SOL     OW 1060   0.275   1.387   2.885  0.0121  0.0954 -0.4218
  354SOL    HW1 1061   0.253   1.459   2.817  0.6360 -0.6698 -1.5666
  354SOL    HW2 1062   0.361   1.332   2.856  1.4850 -1.2175 -1.3254
  355SOL     OW 1063   0.452   1.491   0.573 -0.3375  0.2946 -0.3171
  355SOL    HW1 1064   0.452   1.597   0.577  0.9591 -1.3066  2.0276
  355SOL    HW2 1065   0.546   1.445   0.554 -1.5085 -1.3735 -1.0389
  356SOL     OW 1066   0.887   0.442   2.093  0.0375 -0.6987  0.2888
  356SOL    HW1 1067   0.984   0.468   2.098 -3.0429  0.7994  3.7256
  356SOL    HW2 1068   0.871   0.349   2.049  0.0076 -0.5627 -1.4137
  357SOL     OW 1069   1.039   1.301   0.205 -0.1138  0.3390  0.2388
  357SOL    HW1 1070   0.964   1.328   0.144  1.5402 -0.1919  4.1004
  357SOL    HW2 1071   1.005   1.245   0.280 -0.8559  0.9320 -1.0787
  358SOL     OW 1072   1.650   1.628   0.369  0.0121 -0.2896  0.3621
  358SOL    HW1 1073   1.592   1.542   0.357  1.7164  0.5652 -0.3886
  358SOL    HW2 1074   1.589   1.711   0.353  0.2287 -1.9893 -0.1497
  359SOL     OW 1075   1.556   2.714   0.187 -0.2210 -0.3828  0.0740
  359SOL    HW1 1076   1.592   2.639   0.129  1.9242  2.5309  0.9665
  359SOL    HW2 1077   1.451   2.715   0.204 -3.7775 -0.5849  0.3326
  360SOL     OW 1078   0.881   0.588   0.491 -0.1453 -0.4150 -0.0977
  360SOL    HW1 1079   0.810   0.596   0.569  0.6964  0.1811 -1.2855
  360SOL    HW2 1080   0.913   0.494   0.472 -1.5848 -0.6227 -1.2931
  361SOL     OW 1081   1.247   1.404   0.668 -0.0661  0.1243  0.7062
  361SOL    HW1 1082   1.275   1.407   0.766 -0.8863  0.3827 -2.1413
  361SOL    HW2 1083   1.143   1.422   0.661 -0.6412 -3.4498 -0.0749
  362SOL     OW 1084   1.392   1.765   0.802 -0.1097  0.0467 -0.0275
  362SOL    HW1 1085   1.415   1.706   0.886  2.3700 -0.8417  0.8286
  362SOL    HW2 1086   1.468   1.825   0.768  0.8857  1.8271 -0.5744
  363SOL     OW 1087   1.136   1.374   1.993  0.0039 -0.1381  0.1583
  363SOL    HW1 1088   1.116   1.450   2.065  1.4238  0.3892  0.3375
  363SOL    HW2 1089   1.192   1.411   1.912 -1.0316  1.0606 -1.5321
  364SOL     OW 1090   0.588   2.357   1.947 -0.1237  0.2547 -0.2137
  364SOL    HW1 1091   0.500   2.405   1.974 -1.4031 -1.7793  1.2509
  364SOL    HW2 1092   0.636   2.388   1.859 -2.3867 -1.0025 -1.0297
  365SOL     OW 1093   1.101   1.890   1.385 -0.6059  0.1416 -0.7064
  365SOL    HW1 1094   1.011   1.913   1.434  0.1747  0.2988 -1.5808
  365SOL    HW2 1095   1.090   1.855   1.290  0.3506  1.9758 -1.4542
  366SOL     OW 1096   2.806   2.060   0.488  0.2236  0.0412  0.3156
  366SOL    HW1 1097   2.723   2.003   0.473 -0.2887  1.3614  2.1040
  366SOL    HW2 1098   2.894   2.023   0.438 -0.5025 -2.1044  0.2065
  367SOL     OW 1099   0.784   1.247   0.097  0.1737  1.0185  0.6619
  367SOL    HW1 1100   0.791   1.159   0.148 -2.7540 -1.5544 -1.3525
  367SOL    HW2 1101   0.793   1.237  -0.006  0.6511 -3.6297  0.6393
  368SOL     OW 1102   1.565   0.519   0.667  0.0609  0.0713  0.1161
  368SOL    HW1 1103   1.498   0.547   0.589 -0.8158 -2.4800 -0.4306
  368SOL    HW2 1104   1.659   0.501   0.628 -0.4268  2.2395  0.9592
  369SOL     OW 1105   0.293   1.686   0.093  0.1160  0.6248 -0.2838
  369SOL    HW1 1106   0.278   1.768   0.159 -2.7473  2.4364  5.1865
  369SOL    HW2 1107   0.206   1.628   0.100  1.3410 -1.4666  0.0194
  370SOL     OW 1108   0.444   2.132   0.973  0.0925  0.1047  0.1219
  370SOL    HW1 1109   0.440   2.236   0.956 -1.2207 -0.6299  2.2424
  370SOL    HW2 1110   0.351   2.086   0.967 -0.1303  0.1653 -1.1918
  371SOL     OW 1111   2.905   2.219   2.764 -0.4281 -0.1203 -0.5119
  371SOL    HW1 1112   2.913   2.188   2.860  0.6620 -0.4978  2.0169
  371SOL    HW2 1113   2.998   2.229   2.714 -1.7921  1.0350 -0.5711
  372SOL     OW 1114   0.906   1.869   0.971  0.4764  0.1531 -0.6896
  372SOL    HW1 1115   0.888   1.968   0.990  2.0675 -1.5464  1.9335
  372SOL    HW2 1116   0.992   1.856   0.912  0.8800 -1.6093  0.5482
  373SOL     OW 1117   1.965   2.013   0.932  0.2349  0.4551 -0.3310
  373SOL    HW1 1118   2.042   2.039   0.998  1.4193  3.3326 -0.9657
  373SOL    HW2 1119   1.874   2.048   0.962  0.1722  0.6140  1.9620
  374SOL     OW 1120   1.854   0.413   0.591  0.6870  0.3478 -0.2145
  374SOL    HW1 1121   1.850   0.353   0.674  0.2264 -2.8629 -1.3173
  374SOL    HW2 1122   1.938   0.398   0.526  1.7457 -1.8942  1.3594
  375SOL     OW 1123   2.452   2.266   1.085 -0.3916 -0.5492  0.2226
  375SOL    HW1 1124   2.506   2.249   0.997  1.2147  0.6034 -1.1217
  375SOL    HW2 1125   2.489   2.221   1.170 -0.7199  1.5515  2.5060
  376SOL     OW 1126   3.068   0.632   1.438 -0.5749 -0.4395  0.2208
  376SOL    HW1 1127   3.124   0.688   1.508 -0.6957  0.7289  2.7880
  376SOL    HW2 1128   2.966   0.629   1.464  1.6260 -3.5685  1.3605
  377SOL     OW 1129   2.246   2.873   0.353 -0.2597  0.3666  0.1153
  377SOL    HW1 1130   2.196   2.959   0.373  0.7823  0.1980  2.8600
  377SOL    HW2 1131   2.342   2.864   0.389  0.7079  1.5154 -1.6997
  378SOL     OW 1132   1.895   1.869   2.658 -0.3820  0.4349 -0.2189
  378SOL    HW1 1133   1.950   1.794   2.704  1.3886  0.6119 -0.9253
  378SOL    HW2 1134   1.855   1.850   2.566 -0.3182  0.1680 -1.4528
  379SOL     OW 1135   0.872   0.097   2.704  0.0332  0.1545 -0.2642
  379SOL    HW1 1136   0.851   0.010   2.655 -1.1963  2.3732  2.3577
  379SOL    HW2 1137   0.830   0.179   2.657  0.9033  0.6295  0.5349
  380SOL     OW 1138   1.538   1.173   0.560  0.1891 -0.3596  0.4629
  380SOL    HW1 1139   1.457   1.116   0.527  0.5105  0.3982 -2.0607
  380SOL    HW2 1140   1.553   1.180   0.659 -1.4016 -2.9640 -0.4170
  381SOL     OW 1141   1.268   1.206   1.497 -0.1073 -0.4629  0.1527
  381SOL    HW1 1142   1.320   1.222   1.410 -0.7113  2.4057 -0.4418
  381SOL    HW2 1143   1.328   1.225   1.584  2.6901  1.3819  0.7265
  382SOL     OW 1144   1.752   0.811   0.292 -0.6150  0.3166  0.2790
  382SOL    HW1 1145   1.779   0.797   0.193 -0.9504  0.6874 -0.3747
  382SOL    HW2 1146   1.811   0.757   0.352 -1.0653  0.4448 -1.6272
  383SOL     OW 1147   2.628   1.002   1.518 -0.1876 -0.0375 -0.4413
  383SOL    HW1 1148   2.544   0.975   1.457 -2.4314  1.2347 -2.0291
  383SOL    HW2 1149   2.718   0.980   1.479 -1.9297  2.6872 -0.7734
  384SOL     OW 1150   1.007   2.270   0.159 -0.6600 -0.2832  0.0425
  384SOL    HW1 1151   0.947   2.351   0.159  0.4118 -0.2243  0.0394
  384SOL    HW2 1152   0.989   2.202   0.240 -0.9389  0.0629 -2.0007
  385SOL     OW 1153   3.026   2.050   1.695  0.1054 -0.3826  0.3746
  385SOL    HW1 1154   3.109   2.113   1.725  1.7315 -3.3663  0.3136
  385SOL    HW2 1155   3.071   1.965   1.642  1.0379 -2.4344 -3.6814
  386SOL     OW 1156   0.449   1.091   0.429 -0.2976  0.4660  0.1261
  386SOL    HW1 1157   0.474   0.992   0.430 -0.2965  3.9373  0.8463
  386SOL    HW2 1158   0.378   1.119   0.357 -0.7151  1.3352 -0.2452
  387SOL     OW 1159   0.963   0.355   1.678 -0.2496 -0.6363  0.4202
  387SOL    HW1 1160   1.027   0.437   1.658  1.1803  1.8588 -2.8829
  387SOL    HW2 1161   0.960   0.288   1.606 -0.0804  0.7499  1.8123
  388SOL     OW 1162   1.231   2.577   1.762 -0.5414 -0.1006  0.1561
  388SOL    HW1 1163   1.242   2.572   1.655 -3.0331 -0.3568 -0.6042
  388SOL    HW2 1164   1.296   2.514   1.818 -0.8483  0.4821 -0.5036
  389SOL     OW 1165   0.244   0.009   1.130 -0.0165 -0.8571 -0.5587
  389SOL    HW1 1166   0.185  -0.002   1.215 -1.7869  0.0559 -0.4282
  389SOL    HW2 1167   0.308  -0.070   1.106 -1.4554  2.2652 -0.6599
  390SOL     OW 1168   1.019   0.828   1.256 -0.9174 -0.0619  0.6755
  390SOL    HW1 1169   1.124   0.819   1.245  0.6615 -0.4904  2.6355
  390SOL    HW2 1170   0.989   0.812   1.351  2.1825  1.2523 -1.2195
  391SOL     OW 1171   2.144   1.177   1.013 -0.0169 -0.1276 -0.0522
  391SOL    HW1 1172   2.064   1.121   1.037  0.4416 -1.5102  1.0525
  391SOL    HW2 1173   2.207   1.132   0.944  0.5203 -1.0704  0.2165
  392SOL     OW 1174   0.902   2.668  -0.005 -0.2558 -0.1224 -0.5003
  392SOL    HW1 1175   0.819   2.672   0.062 -1.3156 -0.8636  0.9537
  392SOL    HW2 1176   0.988   2.720   0.029  0.1244  0.4635  0.0311
  393SOL     OW 1177   0.336   0.577   1.989 -0.2284  0.6496 -0.2078
  393SOL    HW1 1178   0.254   0.550   1.933 -1.5293  0.4332 -0.3731
  393SOL    HW2 1179   0.429   0.551   1.947  0.3511 -0.1609 -1.2538
  394SOL     OW 1180   2.824   1.770   2.761 -0.2789  0.6742  0.3919
  394SOL    HW1 1181   2.910   1.780   2.712 -1.5527  0.1222 -0.6803
  394SOL    HW2 1182   2.767   1.855   2.763 -1.8352 -0.9041  0.3444
  395SOL     OW 1183   1.608   1.941   0.664 -0.0133  0.0343 -0.3006
  395SOL    HW1 1184   1.693   1.897   0.621  3.1820 -1.0082  1.0815
  395SOL    HW2 1185   1.620   1.989   0.754 -1.3593 -0.5641  1.4551
  396SOL     OW 1186   2.766   2.030   1.301 -0.5206  0.4222  0.1679
  396SOL    HW1 1187   2.790   2.041   1.402 -0.5559 -0.4717 -0.0603
  396SOL    HW2 1188   2.682   2.088   1.276  0.1189  0.0699  0.8199
  397SOL     OW 1189   0.996   2.127   0.653  0.3862  0.1048  0.0893
  397SOL    HW1 1190   0.923   2.096   0.587  0.5317  1.0910 -2.7552
  397SOL    HW2 1191   0.963   2.199   0.725 -2.1367 -1.1884 -1.0988
  398SOL     OW 1192   2.166   0.022   1.094  0.1594 -0.0115  0.4690
  398SOL    HW1 1193   2.141  -0.075   1.121  2.7018  2.2937 -0.4756
  398SOL    HW2 1194   2.084   0.079   1.068 -3.3666 -1.9978 -1.4038
  399SOL     OW 1195   2.880   2.606   2.772  0.3085  0.1044  0.4583
  399SOL    HW1 1196   2.840   2.580   2.684  1.7195 -0.6838  1.8205
  399SOL    HW2 1197   2.870   2.538   2.849  1.4779 -0.3481  1.3455
  400SOL     OW 1198   0.805   1.586   1.268  0.1891 -0.1019  0.1396
  400SOL    HW1 1199   0.769   1.642   1.346  1.0106  1.4516 -0.1393
  400SOL    HW2 1200   0.771   1.622   1.176  2.5257  3.1834  1.0677
  401SOL     OW 1201   1.853   0.091   1.306 -0.2744 -0.1359 -0.2403
  401SOL    HW1 1202   1.912   0.151   1.365 -1.8561  1.2940 -0.0975
  401SOL    HW2 1203   1.766   0.057   1.354 -0.7535 -0.2079  2.6235
  402SOL     OW 1204   1.335   0.195   3.041 -0.5155 -0.7215  0.0462
  402SOL    HW1 1205   1.442   0.177   3.039  2.2506  1.8849  5.0136
  402SOL    HW2 1206   1.306   0.289   3.082  0.1924  4.4996  0.5846
  403SOL     OW 1207   2.251   1.786   1.010 -0.3496 -0.1596 -0.3133
  403SOL    HW1 1208   2.345   1.822   1.035  1.8508  0.3342  1.6761
  403SOL    HW2 1209   2.178   1.856   1.031  0.9285 -0.7064  0.7369
  404SOL     OW 1210   0.198   2.448   2.757 -0.4988 -0.0455  0.3182
  404SOL    HW1 1211   0.303   2.446   2.747  2.0395  0.4475 -1.8781
  404SOL    HW2 1212   0.168   2.545   2.757 -1.8476  0.4935  1.0442
  405SOL     OW 1213   0.233   2.483   0.572  0.4465 -0.5050  0.0620
  405SOL    HW1 1214   0.228   2.459   0.471 -0.7078 -0.2807  1.5858
  405SOL    HW2 1215   0.299   2.563   0.593 -0.0366 -0.3399 -0.7190
  406SOL     OW 1216   0.016   1.549   2.982  0.2756 -0.5642 -0.1965
  406SOL    HW1 1217   0.069   1.511   2.904 -1.4359 -0.1349  0.5586
  406SOL    HW2 1218   0.045   1.515   3.075 -0.3480  0.3368  1.5432
  407SOL     OW 1219   1.553   0.956   0.962 -0.3747 -0.3585  0.1972
  407SOL    HW1 1220   1.573   0.916   0.868  1.1901  0.3938  0.9532
  407SOL    HW2 1221   1.484   1.035   0.961  1.5016 -0.7006 -0.9814
  408SOL     OW 1222   1.460   2.360   0.925  0.5642  0.0135 -0.3498
  408SOL    HW1 1223   1.557   2.362   0.890 -2.0062 -0.0068 -2.5035
  408SOL    HW2 1224   1.433   2.447   0.980  1.5833 -2.0523  2.5931
  409SOL     OW 1225   0.610   0.870   0.689 -0.0285  0.2678  0.2309
  409SOL    HW1 1226   0.540   0.876   0.608 -0.8769  3.2447 -1.5342
  409SOL    HW2 1227   0.649   0.772   0.700 -1.6960 -2.1088  0.0934
  410SOL     OW 1228   1.327   2.002   1.496 -0.4513 -0.0186 -0.0557
  410SOL    HW1 1229   1.307   2.080   1.560 -0.6077 -0.5431 -1.3699
  410SOL    HW2 1230   1.236   1.963   1.465 -5.0020  0.0562  1.3750
  411SOL     OW 1231   2.348   1.858   0.050 -0.2502  0.0751 -0.4668
  411SOL    HW1 1232   2.281   1.831  -0.029  0.3701 -0.2310 -1.7864
  411SOL    HW2 1233   2.441   1.870   0.012 -0.9067 -0.5706  0.1365
  412SOL     OW 1234   1.537   2.415   2.285 -0.7636  0.3042  0.2446
  412SOL    HW1 1235   1.526   2.514   2.267 -0.8348  1.5231 -1.2050
  412SOL    HW2 1236   1.469   2.386   2.356 -0.9036 -1.4669 -0.4426
  413SOL     OW 1237   3.022   0.280   2.882 -0.3195  0.0968 -0.1777
  413SOL    HW1 1238   2.998   0.178   2.892 -1.0614 -2.4320 -0.0052
  413SOL    HW2 1239   3.123   0.297   2.871 -0.4679  0.2246  1.0093
  414SOL     OW 1240   1.766   1.304   1.329 -0.1629  0.5189  0.4748
  414SOL    HW1 1241   1.708   1.373   1.367  1.3722 -0.4587 -2.9668
  414SOL    HW2 1242   1.761   1.301   1.224  2.8536 -0.3214 -0.8835
  415SOL     OW 1243   0.314   2.268   0.712  0.7425  0.0155 -0.6173
  415SOL    HW1 1244   0.272   2.347   0.670 -0.5786 -1.7936  1.7843
  415SOL    HW2 1245   0.240   2.196   0.717 -0.0639  0.8254 -1.1791
  416SOL     OW 1246   0.322   1.023   1.049  0.0603  0.3083  0.3544
  416SOL    HW1 1247   0.282   0.997   0.952  2.8169  0.6997 -0.9523
  416SOL    HW2 1248   0.406   1.082   1.045  2.7908 -2.0173 -0.0393
  417SOL     OW 1249   2.179   2.325   1.870 -0.2647 -0.1308 -0.2506
  417SOL    HW1 1250   2.227   2.242   1.909 -1.1051 -1.1687 -1.5746
  417SOL    HW2 1251   2.078   2.321   1.865  1.1232 -0.6012 -1.0216
  418SOL     OW 1252   1.120   0.454   1.379 -0.0223 -0.6719  0.1591
  418SOL    HW1 1253   1.032   0.412   1.345 -1.8136 -0.9330  2.3161
  418SOL    HW2 1254   1.201   0.439   1.306  3.0324 -0.4770 -4.0560
  419SOL     OW 1255   0.974   0.358   2.989  0.4232  0.0130  0.4448
  419SOL    HW1 1256   1.012   0.398   2.901 -0.5901 -1.0171 -0.2383
  419SOL    HW2 1257   0.928   0.268   2.973  2.8228 -1.4182  1.1998
  420SOL     OW 1258   0.191   2.287   0.363  0.4097  0.2588 -0.2952
  420SOL    HW1 1259   0.180   2.241   0.272 -1.0706  0.4976  4.7053
  420SOL    HW2 1260   0.111   2.273   0.426  1.4293 -0.2055  0.3852
  421SOL     OW 1261   0.333   0.065   0.685  0.0662 -0.2523  0.0184
  421SOL    HW1 1262   0.335  -0.018   0.621 -0.6779 -0.5631 -0.6045
  421SOL    HW2 1263   0.427   0.108   0.703  1.8918 -1.3824 -0.2107
  422SOL     OW 1264   0.940   2.517   1.037 -0.0088 -0.2602  0.0362
  422SOL    HW1 1265   0.956   2.603   0.981 -2.5538  0.7694 -2.4565
  422SOL    HW2 1266   0.968   2.535   1.135  1.7455  0.0720 -1.4400
  423SOL     OW 1267   0.057   0.721   1.199 -0.0090 -0.5383  0.4761
  423SOL    HW1 1268   0.022   0.688   1.290  0.5781  0.3860  2.3035
  423SOL    HW2 1269  -0.023   0.741   1.129 -2.0816 -1.8943 -1.0673
  424SOL     OW 1270   0.984   2.141   2.216  0.3171  0.2438  0.0350
  424SOL    HW1 1271   0.930   2.138   2.127 -0.6920  0.9111 -0.9420
  424SOL    HW2 1272   0.927   2.158   2.298  0.8516 -0.5462  0.4822
  425SOL     OW 1273   2.015   1.440   1.078  0.5402  0.1590 -0.2988
  425SOL    HW1 1274   2.087   1.362   1.071  2.9557 -1.7270  1.3452
  425SOL    HW2 1275   2.024   1.510   1.003 -4.2401  2.1229  0.3429
  426SOL     OW 1276   1.571   1.533   1.406 -0.1703 -0.4850  0.1052
  426SOL    HW1 1277   1.534   1.616   1.358  1.2848 -0.1336  1.1828
  426SOL    HW2 1278   1.545   1.531   1.504  2.7442 -0.9197 -0.2474
  427SOL     OW 1279   1.928   2.343   2.039  0.2674 -0.0002 -0.0494
  427SOL    HW1 1280   1.970   2.289   2.115 -1.0151  0.7411  2.6021
  427SOL    HW2 1281   1.960   2.445   2.029  2.1222  1.9516  0.9879
  428SOL     OW 1282   0.939   3.065   0.091  0.2279 -0.3798  0.3395
  428SOL    HW1 1283   0.994   3.151   0.115  0.8379  0.4757 -1.4495
  428SOL    HW2 1284   0.999   2.985   0.079 -1.0178  0.5766 -0.0535
  429SOL     OW 1285   1.313   0.041   0.223 -0.2010 -0.5541 -0.2689
  429SOL    HW1 1286   1.403   0.094   0.225 -1.7678 -1.6551 -0.7892
  429SOL    HW2 1287   1.296  -0.020   0.136  0.7432 -3.4648  0.0166
  430SOL     OW 1288   2.794   1.488   0.351  0.3984 -0.4088  0.2277
  430SOL    HW1 1289   2.839   1.554   0.292  1.5040 -0.0063  2.2760
  430SOL    HW2 1290   2.780   1.528   0.449  0.0075  2.2889  0.7685
  431SOL     OW 1291   2.101   1.598   0.875 -0.3417  0.0649  0.1044
  431SOL    HW1 1292   2.179   1.646   0.929  0.3405 -0.6083  1.9938
  431SOL    HW2 1293   2.024   1.662   0.845  0.8048  0.6963 -0.8354
  432SOL     OW 1294   2.881   2.330   1.230  0.1866  0.5221  0.5228
  432SOL    HW1 1295   2.806   2.263   1.250  1.2217  1.2352 -0.0189
  432SOL    HW2 1296   2.951   2.329   1.313  0.5256  2.3864 -0.0798
  433SOL     OW 1297   1.855   0.275   0.811 -0.1554  0.4923 -0.2356
  433SOL    HW1 1298   1.766   0.290   0.866  0.2582 -1.5192 -0.9799
  433SOL    HW2 1299   1.926   0.212   0.861  0.5736 -0.8835  0.9665
  434SOL     OW 1300   1.531   0.247   0.714  0.2546  0.1943  0.0659
  434SOL    HW1 1301   1.549   0.347   0.700 -0.4630 -4.2577 -1.0107
  434SOL    HW2 1302   1.562   0.224   0.810  3.0447  0.7391  2.4871
  435SOL     OW 1303   1.429   1.478   2.103 -0.1619  0.5117  0.4222
  435SOL    HW1 1304   1.368   1.462   2.188  0.3878 -0.0181 -0.4655
  435SOL    HW2 1305   1.410   1.570   2.057 -0.0420 -1.7309  0.6854
  436SOL     OW 1306   1.648   2.689   2.378 -0.0508  0.3758 -0.2464
  436SOL    HW1 1307   1.649   2.778   2.428 -0.4840 -1.6239  0.8545
  436SOL    HW2 1308   1.592   2.624   2.437 -0.0581 -0.0241  1.0597
  437SOL     OW 1309   1.001   2.984   0.841  0.4959  0.0297 -0.5237
  437SOL    HW1 1310   0.927   3.053   0.874  0.0683  0.6752 -1.3428
  437SOL    HW2 1311   1.068   2.961   0.915 -0.6446 -0.3680 -1.9631
  438SOL     OW 1312   1.005   2.516   1.334  0.1103 -0.0100  0.0768
  438SOL    HW1 1313   1.063   2.574   1.393 -1.2778 -1.2832 -0.2152
  438SOL    HW2 1314   1.006   2.417   1.357  1.4273  0.6336  2.8377
  439SOL     OW 1315   0.702   1.711   1.051 -0.2442  0.0483 -0.1460
  439SOL    HW1 1316   0.767   1.795   1.039  0.5516  1.7679 -0.6732
  439SOL    HW2 1317   0.610   1.736   1.099 -0.5908 -1.8155 -0.8101
  440SOL     OW 1318   0.977   2.362   1.983  0.9543 -0.1707 -0.2064
  440SOL    HW1 1319   0.925   2.419   1.914  0.6141 -0.6447  0.5978
  440SOL    HW2 1320   1.070   2.402   2.001 -0.3352 -2.1147 -3.4724
  441SOL     OW 1321   0.380   2.760   1.297 -0.2964  0.1044 -0.1338
  441SOL    HW1 1322   0.428   2.666   1.293 -1.7564 -0.8505 -1.1734
  441SOL    HW2 1323   0.373   2.812   1.203  1.4224  1.2650 -0.1762
  442SOL     OW 1324   2.240   0.661   2.562  0.2832 -0.1144  0.2238
  442SOL    HW1 1325   2.252   0.567   2.516 -3.1045 -1.1460  0.1591
  442SOL    HW2 1326   2.151   0.701   2.532  2.1281  0.4363  0.1867
  443SOL     OW 1327   1.246   2.526   2.202 -0.1412 -0.3582  0.2556
  443SOL    HW1 1328   1.256   2.431   2.249 -0.2054  0.8842  0.4318
  443SOL    HW2 1329   1.195   2.594   2.266 -1.5770  0.7246  0.8392
  444SOL     OW 1330   0.992   1.198   1.481  0.4114 -0.4077  0.0495
  444SOL    HW1 1331   1.094   1.188   1.488  1.9755 -0.7235 -0.7202
  444SOL    HW2 1332   0.967   1.296   1.462 -1.7537  0.8320 -1.0739
  445SOL     OW 1333   0.175   2.241   2.119  0.2895 -0.1127 -0.0520
  445SOL    HW1 1334   0.084   2.225   2.080  0.3138  3.9656  0.5809
  445SOL    HW2 1335   0.172   2.242   2.222  2.1971  0.1367  2.7437
  446SOL     OW 1336   0.102   1.949   2.377 -0.1527  0.0371 -0.7773
  446SOL    HW1 1337   0.056   2.040   2.357 -0.5718 -1.3138  1.3249
  446SOL    HW2 1338   0.111   1.890   2.295  1.6063 -1.7722 -0.1063
  447SOL     OW 1339   1.302   1.713   1.903 -0.2098  0.3279 -0.0572
  447SOL    HW1 1340   1.237   1.786   1.868 -2.5107 -0.9766  0.5201
  447SOL    HW2 1341   1.383   1.755   1.953  1.0117 -0.7119 -0.0281
  448SOL     OW 1342   0.175   1.471   2.025 -0.2159 -0.2389  0.6042
  448SOL    HW1 1343   0.170   1.568   1.988  0.7782  2.7099 -0.6275
  448SOL    HW2 1344   0.096   1.458   2.096  0.0524 -0.4365 -0.0748
  449SOL     OW 1345   1.822   2.939   0.827 -0.6957  0.0800 -0.2253
  449SOL    HW1 1346   1.824   2.977   0.923  0.6312 -0.6972 -0.9806
  449SOL    HW2 1347   1.878   2.851   0.810  2.1500 -2.6336  0.2186
  450SOL     OW 1348   2.236   1.458   0.674  0.2335 -0.3958 -0.4797
  450SOL    HW1 1349   2.172   1.502   0.743 -2.4014 -0.9511 -1.0121
  450SOL    HW2 1350   2.278   1.531   0.610 -0.9129  1.5614 -1.7073
  451SOL     OW 1351   1.411   2.981   1.479 -0.1850  0.6731  0.2542
  451SOL    HW1 1352   1.340   3.052   1.507 -2.5783 -1.1494 -0.9592
  451SOL    HW2 1353   1.461   2.932   1.555  0.7053 -2.6153  1.7438
  452SOL     OW 1354   2.709   2.302   2.273  0.1201  0.2275 -0.1474
  452SOL    HW1 1355   2.654   2.388   2.266 -1.2411 -0.6708  1.5575
  452SOL    HW2 1356   2.732   2.272   2.369  0.5830  0.9256 -1.8893
  453SOL     OW 1357   2.449   2.660   3.086  0.1270  0.4984 -0.2009
  453SOL    HW1 1358   2.353   2.714   3.101 -1.1974 -0.6003 -2.0125
  453SOL    HW2 1359   2.443   2.591   3.006  0.6046  0.0310 -1.1705
  454SOL     OW 1360   0.938   1.192   2.020  0.1316 -0.3474  0.5626
  454SOL    HW1 1361   0.897   1.174   1.927 -1.7620 -1.1125  0.9645
  454SOL    HW2 1362   1.023   1.253   2.021  0.5289  0.3622 -0.3103
  455SOL     OW 1363   0.693   2.607   2.803 -0.4518 -0.1254 -0.3879
  455SOL    HW1 1364   0.783   2.661   2.791 -1.5356 -0.9680 -1.4657
  455SOL    HW2 1365   0.679   2.540   2.881 -1.2613 -0.1664 -0.9376
  456SOL     OW 1366   0.307   1.930   0.229  0.3049 -0.0324  0.1837
  456SOL    HW1 1367   0.410   1.923   0.220  0.1759 -2.1689 -0.0085
  456SOL    HW2 1368   0.271   2.024   0.203  2.3175  1.4319  2.4198
  457SOL     OW 1369   0.394   2.718   0.683 -0.1755  0.7100  0.1641
  457SOL    HW1 1370   0.360   2.792   0.621 -0.9667 -0.1959  4.3270
  457SOL    HW2 1371   0.496   2.725   0.704  0.4917 -0.1825  0.3893
  458SOL     OW 1372   2.942   0.037   1.261  0.2946  0.3399 -0.2259
  458SOL    HW1 1373   2.979   0.126   1.228 -1.9983  0.0907 -0.4727
  458SOL    HW2 1374   2.924  -0.024   1.179 -0.7426  1.1670  2.0754
  459SOL     OW 1375   2.146   2.497   0.733  0.2341 -0.6609  0.5481
  459SOL    HW1 1376   2.170   2.508   0.832 -0.2956 -0.2174 -0.3530
  459SOL    HW2 1377   2.225   2.489   0.667  2.8211  0.0166  1.3050
  460SOL     OW 1378   1.150   2.038   2.766 -0.1357  0.2648  0.1879
  460SOL    HW1 1379   1.182   2.067   2.672  0.2749  1.6676  0.0992
  460SOL    HW2 1380   1.189   1.943   2.790  1.7898  0.2778 -1.3240
  461SOL     OW 1381   0.467   2.136   2.713  0.0188  0.1020  0.0664
  461SOL    HW1 1382   0.474   2.075   2.624 -0.3640 -2.3255 -3.7943
  461SOL    HW2 1383   0.475   2.087   2.804 -0.5705 -2.0687  1.9537
  462SOL     OW 1384   0.947   1.018   1.750  0.2265 -0.0088  0.1154
  462SOL    HW1 1385   0.919   0.945   1.680  0.9659 -1.4035 -0.2521
  462SOL    HW2 1386   0.890   1.106   1.738 -1.1116  1.4530  0.3159
  463SOL     OW 1387   0.439   0.807   0.464  0.3572 -0.0491  0.0382
  463SOL    HW1 1388   0.479   0.713   0.431  0.5465 -0.6575 -2.9501
  463SOL    HW2 1389   0.334   0.810   0.477  1.2470 -1.1333 -1.2119
  464SOL     OW 1390   0.603   2.354   2.264 -0.2016 -0.4262 -0.5300
  464SOL    HW1 1391   0.545   2.406   2.329 -0.4032 -2.5176  0.6717
  464SOL    HW2 1392   0.586   2.379   2.166 -0.5708  3.5462  0.3281
  465SOL     OW 1393   0.230   0.951   0.786  0.0396 -1.2124  0.0218
  465SOL    HW1 1394   0.144   0.980   0.733 -1.6897  0.3220  1.0152
  465SOL    HW2 1395   0.244   0.847   0.770  0.6153 -1.2056 -2.0257
  466SOL     OW 1396   1.331   1.156   1.013  0.2212  0.0904  0.3970
  466SOL    HW1 1397   1.316   1.255   0.977 -0.1074  0.7094  3.1786
  466SOL    HW2 1398   1.247   1.102   1.038  0.5240  0.4323  0.5820
  467SOL     OW 1399   0.625   0.453   2.528 -0.0895 -0.8166 -0.1577
  467SOL    HW1 1400   0.546   0.525   2.520 -0.4905 -0.6974 -0.9087
  467SOL    HW2 1401   0.596   0.382   2.599 -0.3529 -1.6089 -0.2021
  468SOL     OW 1402   0.462   2.264   1.591 -0.5060 -0.0686  0.0989
  468SOL    HW1 1403   0.541   2.306   1.645 -0.0158  0.9419 -0.7623
  468SOL    HW2 1404   0.488   2.229   1.497  0.9508 -2.7137  0.9784
  469SOL     OW 1405   1.427   1.351   1.212 -0.1989  0.1487 -0.3829
  469SOL    HW1 1406   1.475   1.319   1.127 -2.2527 -0.4517  2.0266
  469SOL    HW2 1407   1.488   1.404   1.272 -1.0922  2.0161  0.2506
  470SOL     OW 1408   3.007   1.814   0.792  0.3906 -0.2204 -0.5406
  470SOL    HW1 1409   3.083   1.877   0.757 -3.0542  1.9704 -0.8504
  470SOL    HW2 1410   3.042   1.734   0.844  0.1920  1.0265  2.9590
  471SOL     OW 1411   2.631   1.381   2.191 -0.5029  0.1433  0.1105
  471SOL    HW1 1412   2.624   1.279   2.213 -2.4744  0.8202 -1.5922
  471SOL    HW2 1413   2.708   1.430   2.245  0.8310 -0.0552 -0.2155
  472SOL     OW 1414   1.155   2.480   0.053 -0.7075  0.5907  0.7113
  472SOL    HW1 1415   1.217   2.522   0.124  0.8203  0.1692 -0.6612
  472SOL    HW2 1416   1.124   2.385   0.075  0.1829 -0.0395 -0.7961
  473SOL     OW 1417   1.086   1.530   1.004 -0.1375  0.2948  0.3041
  473SOL    HW1 1418   0.995   1.542   0.959  0.5238 -0.3117 -0.3164
  473SOL    HW2 1419   1.090   1.442   1.060 -0.7214 -0.8127 -0.5369
  474SOL     OW 1420   0.639   1.282   0.516  0.2181 -0.0509  0.2963
  474SOL    HW1 1421   0.577   1.213   0.468  2.2622 -1.1830  2.1622
  474SOL    HW2 1422   0.701   1.245   0.591  0.4846  0.0816 -0.0138
  475SOL     OW 1423   2.822   0.057   0.808 -0.2457 -0.0146 -0.1379
  475SOL    HW1 1424   2.890   0.133   0.832  2.2424 -3.2610  0.4411
  475SOL    HW2 1425   2.729   0.074   0.849 -0.6611  1.2309 -4.7375
  476SOL     OW 1426   0.961   3.072   1.813  0.2035  0.2777 -0.2749
  476SOL    HW1 1427   1.064   3.087   1.821  1.3258  0.7900 -0.6418
  476SOL    HW2 1428   0.931   3.080   1.716 -0.7170 -2.2488 -0.5462
  477SOL     OW 1429   1.433   0.327   2.423 -0.2090  0.2397 -0.0663
  477SOL    HW1 1430   1.446   0.335   2.525  0.0242 -1.4135 -0.6361
  477SOL    HW2 1431   1.507   0.263   2.385 -0.5246 -2.0656  0.9088
  478SOL     OW 1432   2.216   1.895   0.278  0.3164  0.1935 -0.2314
  478SOL    HW1 1433   2.158   1.809   0.306 -1.2984 -2.8608  1.6212
  478SOL    HW2 1434   2.276   1.884   0.197  0.8390 -0.2656  2.5985
  479SOL     OW 1435   1.307   0.932   2.902 -0.7136  0.2697 -0.0924
  479SOL    HW1 1436   1.407   0.930   2.873 -0.8305  0.2871  0.0213
  479SOL    HW2 1437   1.248   0.862   2.855 -0.5290  0.6432  3.0292
  480SOL     OW 1438   2.677   2.303   0.394 -0.4578  0.3074 -0.5293
  480SOL    HW1 1439   2.730   2.223   0.428 -3.2058  0.6277  1.1252
  480SOL    HW2 1440   2.578   2.271   0.390 -1.3666 -1.6135  1.8291
  481SOL     OW 1441   0.995   1.154   0.867  0.7340 -0.2563  0.5519
  481SOL    HW1 1442   1.047   1.242   0.856 -0.3010  1.8491  2.0827
  481SOL    HW2 1443   1.002   1.114   0.963 -2.5830  1.8116 -0.3815
  482SOL     OW 1444   1.622   0.290   2.013 -0.5166 -0.3458 -0.2811
  482SOL    HW1 1445   1.654   0.390   2.012 -0.1654 -0.8150  0.1511
  482SOL    HW2 1446   1.690   0.222   2.059 -1.3875 -0.1931 -1.5625
  483SOL     OW 1447   0.184   2.349   1.188  1.0907  0.2565  0.0338
  483SOL    HW1 1448   0.151   2.408   1.269  0.7508  0.1926  2.5839
  483SOL    HW2 1449   0.191   2.405   1.100  2.4644 -3.7188  0.2933
  484SOL     OW 1450   1.715   1.057   1.422 -0.1853 -0.3661 -0.8266
  484SOL    HW1 1451   1.801   1.002   1.440  0.7201  0.9110 -2.3334
  484SOL    HW2 1452   1.735   1.155   1.386 -2.2380  2.2800 -1.8879
  485SOL     OW 1453   0.766   0.774   1.909  0.0763  0.1688  0.1075
  485SOL    HW1 1454   0.722   0.802   1.813  0.6502  0.2255 -1.6538
  485SOL    HW2 1455   0.853   0.715   1.899  3.8986  1.7602  0.1189
  486SOL     OW 1456   0.881   1.878   2.443 -0.1546 -0.5941 -0.4068
  486SOL    HW1 1457   0.888   1.900   2.544  0.8596 -0.6985 -3.7637
  486SOL    HW2 1458   0.843   1.960   2.393  1.5199  2.3662  0.1315
  487SOL     OW 1459   1.762   1.594   1.075 -0.2550  0.3362 -0.2377
  487SOL    HW1 1460   1.832   1.521   1.098  0.0244 -0.7202 -1.9195
  487SOL    HW2 1461   1.805   1.661   1.009  3.3187  0.9569  1.9636
  488SOL     OW 1462   2.920   0.796   2.261 -0.1448  0.0511  0.4334
  488SOL    HW1 1463   3.001   0.735   2.284  1.2711 -0.5918  0.4386
  488SOL    HW2 1464   2.850   0.792   2.336  1.0607  1.1028  0.1264
  489SOL     OW 1465   2.776   0.348   1.295  0.1855 -0.0976 -0.3636
  489SOL    HW1 1466   2.770   0.294   1.383 -0.8340  1.3265  0.9354
  489SOL    HW2 1467   2.871   0.348   1.250  0.9983 -0.6366 -1.9647
  490SOL     OW 1468   1.465   2.948   2.815 -0.4663 -0.1530 -0.7176
  490SOL    HW1 1469   1.507   2.855   2.803  1.3582  0.8523  1.3986
  490SOL    HW2 1470   1.445   2.996   2.726 -1.4863 -0.5551  0.0495
  491SOL     OW 1471   1.781   1.461   2.727 -0.2656  0.4937  0.3378
  491SOL    HW1 1472   1.757   1.428   2.822 -0.3051  1.7698  0.2788
  491SOL    HW2 1473   1.862   1.525   2.735 -1.1848 -0.8008  1.7017
  492SOL     OW 1474   0.569   2.101   0.602 -0.1021 -0.0128  0.7648
  492SOL    HW1 1475   0.612   2.086   0.691 -2.4366 -0.9174 -3.7017
  492SOL    HW2 1476   0.479   2.147   0.608 -1.5858  1.0973  1.9204
  493SOL     OW 1477   0.413   1.325   2.087  0.7239  0.3810 -0.2054
  493SOL    HW1 1478   0.324   1.366   2.046 -0.7383  0.4723  1.2526
  493SOL    HW2 1479   0.390   1.253   2.160 -1.0560 -0.5402  1.0068
  494SOL     OW 1480   2.721   2.649   0.107  0.3240  0.1614 -0.3764
  494SOL    HW1 1481   2.710   2.633   0.209 -0.5780 -0.6061 -2.0662
  494SOL    HW2 1482   2.632   2.681   0.066  0.5603 -1.4950  2.1981
  495SOL     OW 1483   2.542   2.821   2.644  0.3636  0.3409  0.2369
  495SOL    HW1 1484   2.552   2.715   2.641  0.5484 -0.9972  1.7218
  495SOL    HW2 1485   2.598   2.864   2.563 -2.1407 -1.7737 -0.3311
  496SOL     OW 1486   1.941   2.300   0.839 -0.4421 -1.0505  0.0136
  496SOL    HW1 1487   1.989   2.331   0.924  1.8708  0.4237 -0.3268
  496SOL    HW2 1488   1.973   2.203   0.809  0.0238 -1.1097  0.5091
  497SOL     OW 1489   0.226   3.004   2.344 -0.3573  0.6190  0.0901
  497SOL    HW1 1490   0.183   3.060   2.426 -2.4795 -0.7657 -1.8660
  497SOL    HW2 1491   0.281   3.066   2.276 -2.8284 -0.8492 -0.7543
  498SOL     OW 1492   1.143   1.353   1.206 -0.3959  0.4664 -0.2509
  498SOL    HW1 1493   1.246   1.343   1.221  1.3947 -1.6758  1.0043
  498SOL    HW2 1494   1.093   1.357   1.294  2.1808  1.1365  0.3213
  499SOL     OW 1495   0.594   1.841   0.343  0.1643  0.0550 -0.3650
  499SOL    HW1 1496   0.620   1.772   0.275 -1.5362  0.0682  0.7303
  499SOL    HW2 1497   0.672   1.902   0.375 -0.7059  0.5337  2.0344
  500SOL     OW 1498   1.540   2.832   1.646  0.1231  0.6564  0.1280
  500SOL    HW1 1499   1.562   2.784   1.740 -0.4041  1.1401  3.5057
  500SOL    HW2 1500   1.545   2.759   1.569 -0.9223  1.0682  1.3759
  501SOL     OW 1501   0.812   1.173   2.263  0.6830  0.0503  0.0537
  501SOL    HW1 1502   0.768   1.078   2.282  0.2545 -0.8232  4.8866
  501SOL    HW2 1503   0.838   1.182   2.165 -0.6922  0.4547 -1.8697
  502SOL     OW 1504   2.594   0.908   1.803  0.3208 -0.3045 -0.0331
  502SOL    HW1 1505   2.632   0.936   1.717 -0.6175  0.3102 -0.6488
  502SOL    HW2 1506   2.582   0.806   1.807 -0.2206  1.6619 -2.4545
  503SOL     OW 1507   1.288   0.107   0.692  0.6928 -0.0215  0.1146
  503SOL    HW1 1508   1.222   0.185   0.679 -1.0761 -1.8646 -1.4420
  503SOL    HW2 1509   1.390   0.135   0.688  0.8765 -0.3055  0.0417
  504SOL     OW 1510   3.005   2.341   1.476  0.2281 -0.7892 -0.4013
  504SOL    HW1 1511   2.955   2.415   1.537 -0.3682  2.1032  0.1402
  504SOL    HW2 1512   3.096   2.313   1.508  0.1963 -0.5544 -4.1638
  505SOL     OW 1513   2.302   1.144   1.501 -0.4413  0.5073 -0.0859
  505SOL    HW1 1514   2.261   1.161   1.407  0.3228 -0.8309  1.6428
  505SOL    HW2 1515   2.380   1.206   1.536  0.6067 -0.4884 -0.1140
  506SOL     OW 1516   1.950   0.164   1.862 -0.4010 -0.0605 -0.6998
  506SOL    HW1 1517   2.053   0.157   1.848 -1.1220  0.3303 -2.8484
  506SOL    HW2 1518   1.913   0.257   1.837 -0.0758  2.9821 -0.5153
  507SOL     OW 1519   0.501   0.728   2.219 -0.2424 -1.0400 -0.1719
  507SOL    HW1 1520   0.417   0.729   2.158  1.1028  1.6389  2.5070
  507SOL    HW2 1521   0.561   0.645   2.203 -0.9442 -1.7969 -1.7820
  508SOL     OW 1522   0.269   1.666   0.810  0.2871  0.8172  0.4277
  508SOL    HW1 1523   0.310   1.711   0.724 -2.0099  0.9081 -1.3028
  508SOL    HW2 1524   0.271   1.724   0.896  0.2409 -1.1359 -2.9801
  509SOL     OW 1525   1.311   1.214   2.462  0.0391 -0.2004 -0.0565
  509SOL    HW1 1526   1.320   1.227   2.358  0.4303 -3.3066  0.1298
  509SOL    HW2 1527   1.224   1.158   2.481  1.3223 -0.1167  0.0507
  510SOL     OW 1528   1.296   2.030   2.227  0.2827  0.2304 -0.1339
  510SOL    HW1 1529   1.328   2.057   2.133 -0.9820  2.1042  0.8144
  510SOL    HW2 1530   1.232   1.946   2.224 -0.5480 -1.5509 -0.8657
  511SOL     OW 1531   2.992   2.711   1.307 -0.0421  0.8230 -0.6644
  511SOL    HW1 1532   3.022   2.728   1.209  0.1167  1.1225 -0.0935
  511SOL    HW2 1533   2.901   2.663   1.305 -0.8045  2.9427 -1.8916
  512SOL     OW 1534   2.346   0.451   1.413  0.1482  0.0334 -0.2338
  512SOL    HW1 1535   2.248   0.461   1.376  0.5989 -1.6623 -1.3443
  512SOL    HW2 1536   2.402   0.399   1.341 -0.6426  1.2741 -1.6232
  513SOL     OW 1537   2.547   2.080   0.839  0.4394  0.1886 -0.1756
  513SOL    HW1 1538   2.530   2.167   0.784  2.6328  1.0940 -0.7752
  513SOL    HW2 1539   2.637   2.033   0.807 -1.3406  0.5307 -0.9411
  514SOL     OW 1540   0.623   2.718   0.454  0.2725 -0.3448 -0.5698
  514SOL    HW1 1541   0.660   2.735   0.356 -1.4779  3.1096  0.6246
  514SOL    HW2 1542   0.658   2.785   0.525 -1.0855 -2.4253 -0.3234
  515SOL     OW 1543   1.940   1.344   2.397 -0.1774  0.2187  0.2113
  515SOL    HW1 1544   1.939   1.307   2.300  2.7867 -1.8538  2.1336
  515SOL    HW2 1545   1.858   1.313   2.456  0.5014  0.6153  1.2356
  516SOL     OW 1546   0.267   0.161   1.948  0.0860  0.8857 -0.0782
  516SOL    HW1 1547   0.367   0.158   1.922 -0.9371  0.3585  1.6439
  516SOL    HW2 1548   0.207   0.108   1.884 -1.3427 -0.5683 -0.3769
  517SOL     OW 1549   0.478   0.203   1.164  0.0486 -0.6308  0.4482
  517SOL    HW1 1550   0.561   0.145   1.203  0.5640 -0.5114  0.7300
  517SOL    HW2 1551   0.387   0.148   1.173 -0.1281 -0.0414  1.4608
  518SOL     OW 1552   2.178   3.002   1.845  0.4616  0.3375  0.9580
  518SOL    HW1 1553   2.198   3.104   1.835 -1.8398 -1.2757  1.0578
  518SOL    HW2 1554   2.174   2.950   1.752 -1.3888 -0.8677  1.3714
  519SOL     OW 1555   2.356   2.219   2.544  0.3883 -0.1246  0.4596
  519SOL    HW1 1556   2.287   2.209   2.620  0.6859 -1.1052  0.9117
  519SOL    HW2 1557   2.388   2.316   2.535  0.2081 -0.9611 -1.7809
  520SOL     OW 1558   1.832   2.718   1.646  0.0810  0.1760  0.3154
  520SOL    HW1 1559   1.777   2.672   1.723  2.1729  1.8302 -0.6960
  520SOL    HW2 1560   1.926   2.683   1.640  0.4784 -0.5527  2.1285
  521SOL     OW 1561   0.640   0.071   2.158 -0.4392 -0.0181  0.0520
  521SOL    HW1 1562   0.538   0.040   2.139 -2.8587  1.3592 -0.7984
  521SOL    HW2 1563   0.685   0.032   2.242  1.6293 -0.7028 -1.8674
  522SOL     OW 1564   0.226   1.915   1.467  0.1501 -0.8448 -0.5718
  522SOL    HW1 1565   0.270   1.967   1.546 -1.4198  0.5325  1.1034
  522SOL    HW2 1566   0.190   1.982   1.396 -1.8491  0.8943  2.9571
  523SOL     OW 1567   2.191   2.927   1.575 -0.3023  0.1117 -0.6409
  523SOL    HW1 1568   2.282   2.880   1.562 -6.0333 -0.6716  0.2978
  523SOL    HW2 1569   2.110   2.887   1.524 -2.5774 -1.8640  0.5604
  524SOL     OW 1570   0.197   2.762   2.799 -0.3271 -0.3399 -0.0870
  524SOL    HW1 1571   0.169   2.842   2.862  1.4588  3.0035  1.4164
  524SOL    HW2 1572   0.295   2.758   2.782 -1.5816  0.9395 -0.7250
  525SOL     OW 1573   2.192   2.063   0.495 -0.3864 -0.6573 -0.1276
  525SOL    HW1 1574   2.193   2.022   0.589  0.5769 -0.3239  0.5375
  525SOL    HW2 1575   2.215   1.993   0.419 -0.7560  1.5462  0.6511
  526SOL     OW 1576   0.428   1.530   1.738  0.4486  0.8195 -0.1102
  526SOL    HW1 1577   0.499   1.593   1.778  2.0601 -5.2003 -0.5508
  526SOL    HW2 1578   0.455   1.426   1.737  0.3418 -1.0922 -0.4077
  527SOL     OW 1579   1.087   2.942   1.159 -0.3201 -0.6984  0.8838
  527SOL    HW1 1580   1.136   2.864   1.210  0.5902  0.1806 -1.5862
  527SOL    HW2 1581   1.159   3.022   1.147 -0.3532  1.0644  1.5956
  528SOL     OW 1582   1.287   2.415   0.598  0.1141  0.0763 -0.7150
  528SOL    HW1 1583   1.320   2.320   0.628 -1.3911  2.1474 -0.8595
  528SOL    HW2 1584   1.321   2.492   0.658  2.0896  2.1470  0.7998
  529SOL     OW 1585   1.888   1.754   0.863  0.3745  0.1774  0.0361
  529SOL    HW1 1586   1.851   1.750   0.764  2.6684  2.2050  1.6029
  529SOL    HW2 1587   1.917   1.852   0.889  1.8747 -0.9240  0.7878
  530SOL     OW 1588   0.412   2.464   0.189 -0.0892  0.3799 -0.4242
  530SOL    HW1 1589   0.427   2.412   0.279 -0.3829  0.6407  2.1564
  530SOL    HW2 1590   0.422   2.401   0.108  2.4470 -1.1804  2.5687
  531SOL     OW 1591   1.832   0.997   1.035 -0.2276 -0.4870  0.1504
  531SOL    HW1 1592   1.851   1.045   0.943  0.2584 -0.1337  0.1793
  531SOL    HW2 1593   1.736   0.954   1.042 -0.1026  0.7631  2.4171
  532SOL     OW 1594   0.396   1.178   0.712  0.2274 -0.1646 -0.3378
  532SOL    HW1 1595   0.410   1.171   0.609  2.2294  1.0065  2.4158
  532SOL    HW2 1596   0.335   1.100   0.745 -0.9661  0.7308  1.2262
  533SOL     OW 1597   1.830   0.087   2.576  0.4210  0.1052  0.5440
  533SOL    HW1 1598   1.928   0.064   2.590  0.6314  1.1938  1.1477
  533SOL    HW2 1599   1.784   0.145   2.650  0.7877 -1.7518  0.3854
  534SOL     OW 1600   0.202   0.192   1.572 -0.2478  0.0749 -0.0626
  534SOL    HW1 1601   0.269   0.248   1.509  2.2413  1.7633 -0.4695
  534SOL    HW2 1602   0.110   0.240   1.581 -2.4052  2.8836 -0.3986
  535SOL     OW 1603   1.871   0.406   0.149 -0.1244  0.0071  0.6824
  535SOL    HW1 1604   1.928   0.474   0.208  4.7026  2.0896  1.0845
  535SOL    HW2 1605   1.800   0.344   0.190  0.6347  1.0412 -2.4318
  536SOL     OW 1606   1.218   2.513   1.006  0.1527  0.4851  0.5011
  536SOL    HW1 1607   1.240   2.520   0.902 -0.3049  0.6039 -1.1859
  536SOL    HW2 1608   1.119   2.496   1.022  1.8060 -0.0660  1.3738
  537SOL     OW 1609   0.879   0.237   2.306 -0.0628 -0.5219  0.5983
  537SOL    HW1 1610   0.852   0.262   2.212  2.8593 -4.0689 -1.1279
  537SOL    HW2 1611   0.813   0.178   2.356  1.5314  1.6382  2.4032
  538SOL     OW 1612   1.700   2.304   1.581  0.2028  0.3000 -0.5869
  538SOL    HW1 1613   1.666   2.223   1.519  0.7916 -1.3520 -2.4309
  538SOL    HW2 1614   1.769   2.373   1.543 -1.3814 -0.7707 -1.4466
  539SOL     OW 1615   0.167   1.576   2.710 -0.0654  0.8182 -0.2186
  539SOL    HW1 1616   0.078   1.547   2.667 -0.5528 -1.5000 -0.6962
  539SOL    HW2 1617   0.150   1.670   2.742  0.2520 -0.2419 -0.8950
  540SOL     OW 1618   2.679   1.750   2.126  0.4813 -0.9329 -0.4084
  540SOL    HW1 1619   2.658   1.657   2.076  1.0693 -2.7857 -0.4480
  540SOL    HW2 1620   2.614   1.831   2.101 -2.8830  0.3941 -1.8094
  541SOL     OW 1621   0.430   2.267   0.001  0.3738 -0.5381  0.3056
  541SOL    HW1 1622   0.484   2.197   0.051 -0.3954 -1.3314 -2.0980
  541SOL    HW2 1623   0.361   2.227  -0.062  1.6117 -2.5230 -2.3644
  542SOL     OW 1624   2.187   2.613   0.445  0.4738  0.3817 -0.1773
  542SOL    HW1 1625   2.195   2.713   0.412  0.3009  1.2025  1.0685
  542SOL    HW2 1626   2.096   2.572   0.443  0.3664 -0.1857 -1.2903
  543SOL     OW 1627   1.051   1.805   1.743 -0.0887 -0.1614  0.1687
  543SOL    HW1 1628   1.041   1.850   1.841 -3.0354  0.1817 -0.2449
  543SOL    HW2 1629   0.991   1.850   1.675 -0.4268  0.3501  0.4346
  544SOL     OW 1630   0.854   0.415   0.137 -0.2515 -0.0026  0.3530
  544SOL    HW1 1631   0.904   0.367   0.211 -0.0214 -0.5439  0.5421
  544SOL    HW2 1632   0.897   0.391   0.045 -0.2579  0.9807  0.5583
  545SOL     OW 1633   1.151   1.768   0.632  0.2923 -0.5427 -0.2386
  545SOL    HW1 1634   1.253   1.745   0.647  0.1116  0.2633 -1.6813
  545SOL    HW2 1635   1.123   1.769   0.532 -0.5779  2.0879 -0.5565
  546SOL     OW 1636   2.673   1.592   0.048 -0.2049 -0.3873  0.1526
  546SOL    HW1 1637   2.713   1.571  -0.045  1.5520 -1.2520 -2.2602
  546SOL    HW2 1638   2.620   1.519   0.089  1.5829  0.7710 -2.4496
  547SOL     OW 1639   0.499   0.012   2.742  0.4085  0.0663 -0.1674
  547SOL    HW1 1640   0.531  -0.080   2.700 -1.2461  0.3400  3.3093
  547SOL    HW2 1641   0.508   0.001   2.842  1.5570  2.9537 -0.9872
  548SOL     OW 1642   2.069   0.799   3.089 -0.1763  0.6253 -0.4346
  548SOL    HW1 1643   1.970   0.770   3.116  2.2439  0.4139  0.9112
  548SOL    HW2 1644   2.090   0.899   3.098  1.3301  0.7187 -1.2263
  549SOL     OW 1645   0.562   0.429   0.073  0.1363 -0.3796  0.3789
  549SOL    HW1 1646   0.535   0.523   0.036  2.5148  0.6278 -1.7706
  549SOL    HW2 1647   0.658   0.412   0.112  2.3611  1.1788  0.8865
  550SOL     OW 1648   2.545   2.849   2.910 -0.0020 -0.2389 -0.0437
  550SOL    HW1 1649   2.533   2.754   2.955 -0.1761 -0.1022  1.5057
  550SOL    HW2 1650   2.553   2.854   2.804 -1.6170 -1.2322 -3.4277
  551SOL     OW 1651   0.228   0.774   0.190  0.1933 -0.0704 -0.5613
  551SOL    HW1 1652   0.328   0.783   0.171 -0.8098 -0.5102  0.5078
  551SOL    HW2 1653   0.198   0.775   0.290 -0.9916 -0.1071 -1.3344
  552SOL     OW 1654   0.830   2.796   1.903 -0.3658 -0.0175 -0.0629
  552SOL    HW1 1655   0.786   2.790   2.001  1.3939  1.8370 -2.4984
  552SOL    HW2 1656   0.871   2.891   1.884 -0.3649 -0.9326 -0.5668
  553SOL     OW 1657   3.082   2.549   0.406  0.3344  0.4359  0.7252
  553SOL    HW1 1658   3.019   2.478   0.367  3.5835 -1.3104  1.0949
  553SOL    HW2 1659   3.073   2.565   0.508 -2.8621  0.8858  1.2234
  554SOL     OW 1660   2.150   0.299   0.515  0.0343 -0.2871  0.6195
  554SOL    HW1 1661   2.236   0.263   0.478 -2.3379  2.1388  1.3414
  554SOL    HW2 1662   2.109   0.233   0.583 -1.4481 -2.6566  0.1369
  555SOL     OW 1663   0.469   2.922   2.469  0.1341  0.5398 -0.1463
  555SOL    HW1 1664   0.375   2.921   2.425 -1.1345  0.6547  0.3503
  555SOL    HW2 1665   0.543   2.890   2.407 -2.3370  1.1327 -1.7086
  556SOL     OW 1666   0.885   2.297   1.614 -0.3946 -0.2757 -0.1537
  556SOL    HW1 1667   0.938   2.374   1.657 -2.7216 -0.1089 -1.9600
  556SOL    HW2 1668   0.924   2.265   1.522 -2.1097 -1.1731 -1.0679
  557SOL     OW 1669   0.144   2.134   0.128  0.0297 -0.1906  0.1317
  557SOL    HW1 1670   0.066   2.067   0.119 -0.9442  1.2120  1.2145
  557SOL    HW2 1671   0.161   2.182   0.041 -3.4651 -2.0293  1.3191
  558SOL     OW 1672   2.922   2.340   0.289  0.4998 -0.1936 -0.2752
  558SOL    HW1 1673   2.815   2.345   0.302  0.0116 -0.9855 -1.5907
  558SOL    HW2 1674   2.948   2.348   0.190 -1.3874 -0.8029  0.6731
  559SOL     OW 1675   0.424   2.260   1.290 -0.0618 -0.0735  0.5098
  559SOL    HW1 1676   0.332   2.299   1.253 -0.2888 -1.3867  0.6860
  559SOL    HW2 1677   0.444   2.164   1.253  1.4465  0.9787 -0.5314
  560SOL     OW 1678   2.011   1.089   3.073  0.2221  0.1190  1.0538
  560SOL    HW1 1679   2.027   1.155   2.993 -0.1623 -1.9560 -1.6292
  560SOL    HW2 1680   1.984   1.136   3.163 -3.4785 -0.6972  0.3357
  561SOL     OW 1681   3.053   1.949   0.104  0.0086 -1.0113  0.1006
  561SOL    HW1 1682   2.999   1.859   0.105  0.3780 -0.1828 -0.9421
  561SOL    HW2 1683   3.002   2.036   0.066 -0.5007 -0.4574 -1.6485
  562SOL     OW 1684   0.830   2.186   2.467  0.3706 -0.0142 -0.0226
  562SOL    HW1 1685   0.731   2.143   2.459 -0.3316  0.9875  2.8166
  562SOL    HW2 1686   0.838   2.233   2.561 -2.1874  0.4350  3.4634
  563SOL     OW 1687   0.740   2.567   2.524  0.0360  0.2432  0.2077
  563SOL    HW1 1688   0.821   2.505   2.504 -0.5272 -0.9555  0.5415
  563SOL    HW2 1689   0.699   2.558   2.620 -4.8227  0.6298  1.3622
  564SOL     OW 1690   2.774   1.277   2.867  0.5370  0.0520 -0.0840
  564SOL    HW1 1691   2.690   1.276   2.928 -0.3031 -2.2438 -2.1610
  564SOL    HW2 1692   2.809   1.374   2.852 -0.7417 -0.1003 -1.0156
  565SOL     OW 1693   2.512   2.018   2.572 -0.4460  0.1805  0.0362
  565SOL    HW1 1694   2.458   2.101   2.547  0.9857  1.0236  0.7625
  565SOL    HW2 1695   2.608   2.040   2.608  0.1034 -1.6099  0.7331
  566SOL     OW 1696   1.997   2.822   1.385 -0.3253  0.4649 -0.3065
  566SOL    HW1 1697   2.003   2.724   1.416 -0.1386  1.7471 -0.3591
  566SOL    HW2 1698   2.044   2.840   1.294 -1.3911 -0.3099 -2.8591
  567SOL     OW 1699   2.463   0.145   2.244  0.0899  0.0521  0.3435
  567SOL    HW1 1700   2.491   0.144   2.142  1.1826 -0.7086 -0.6071
  567SOL    HW2 1701   2.411   0.227   2.277 -0.6529 -0.5548  0.1170
  568SOL     OW 1702   1.412   1.808   0.419  0.5945 -0.1244  0.3427
  568SOL    HW1 1703   1.384   1.874   0.347 -0.3639  0.3846 -2.3448
  568SOL    HW2 1704   1.477   1.853   0.484 -1.8551 -0.7085 -2.3120
  569SOL     OW 1705   0.278   0.665   0.798 -0.1403 -0.3373  0.1392
  569SOL    HW1 1706   0.327   0.620   0.710 -2.1836 -0.5441  0.2439
  569SOL    HW2 1707   0.181   0.624   0.812  2.4501  3.3773 -0.2780
  570SOL     OW 1708   0.624   0.782   2.843 -0.3356 -0.2644  0.3943
  570SOL    HW1 1709   0.663   0.762   2.745 -1.1643 -1.4147 -1.8932
  570SOL    HW2 1710   0.629   0.885   2.865 -0.9703 -0.8501 -2.5110
  571SOL     OW 1711   0.841   3.059   1.125 -0.3139  0.0967 -0.2912
  571SOL    HW1 1712   0.866   3.133   1.057  1.7201 -1.6522 -3.8200
  571SOL    HW2 1713   0.928   3.012   1.162  1.8029  2.4802 -0.5512
  572SOL     OW 1714   1.519   2.548   1.179  0.2476  0.3839 -0.1184
  572SOL    HW1 1715   1.445   2.480   1.215  2.1792 -1.3089 -1.4454
  572SOL    HW2 1716   1.485   2.637   1.140  1.8678 -1.3809 -0.1540
  573SOL     OW 1717   2.946   0.419   2.111 -0.2601 -0.5036  0.0183
  573SOL    HW1 1718   2.908   0.321   2.117  2.8637 -0.0980 -2.9387
  573SOL    HW2 1719   2.871   0.492   2.114 -0.1900  2.6212 -0.6530
  574SOL     OW 1720   0.245   1.817   1.040  0.0326 -0.3144 -0.1298
  574SOL    HW1 1721   0.215   1.904   0.993  0.6690 -1.9196  2.0726
  574SOL    HW2 1722   0.166   1.763   1.079  0.0228  0.2813 -2.4838
  575SOL     OW 1723   0.906   2.147   1.006 -0.6156 -0.0785  0.3733
  575SOL    HW1 1724   0.865   2.136   1.100  0.6974  0.8462 -0.4375
  575SOL    HW2 1725   1.009   2.156   1.010 -0.0028 -1.3070 -1.4213
  576SOL     OW 1726   2.936   2.895   1.703  0.2501  0.5063 -0.2991
  576SOL    HW1 1727   2.850   2.852   1.656  1.2219 -3.3323 -1.6532
  576SOL    HW2 1728   2.963   2.988   1.664 -0.4765 -0.3722  0.3254
  577SOL     OW 1729   2.554   1.252   3.048  0.1642  0.1874  0.6249
  577SOL    HW1 1730   2.528   1.155   3.025 -0.1142  1.6888 -1.2925
  577SOL    HW2 1731   2.628   1.267   3.119 -1.1109 -1.1375 -2.3922
  578SOL     OW 1732   1.345   2.736   2.570  0.3131 -0.8298  0.2965
  578SOL    HW1 1733   1.281   2.716   2.493 -1.2661 -2.2545 -1.0436
  578SOL    HW2 1734   1.364   2.841   2.575  0.4153  0.8947 -1.2060
  579SOL     OW 1735   0.129   2.553   0.164  0.3834 -0.3548  0.2799
  579SOL    HW1 1736   0.080   2.548   0.257 -0.0318 -1.1590  2.1894
  579SOL    HW2 1737   0.230   2.531   0.173 -0.1077  2.1240  1.5138
  580SOL     OW 1738   1.004   2.676   0.347  0.4177 -0.4650 -0.1635
  580SOL    HW1 1739   1.106   2.688   0.333  0.9520 -0.8692 -0.3353
  580SOL    HW2 1740   0.965   2.604   0.288  0.6140 -0.3924  2.0387
  581SOL     OW 1741   1.239   2.589   1.490 -0.9598  0.3625 -0.1030
  581SOL    HW1 1742   1.295   2.531   1.424  1.7096  2.4107 -0.7615
  581SOL    HW2 1743   1.244   2.690   1.477  0.2524 -0.9114  0.4726
  582SOL     OW 1744   1.500   0.049   1.881 -0.7801 -0.2290  0.0984
  582SOL    HW1 1745   1.537   0.121   1.940 -0.4703  2.4760  1.1640
  582SOL    HW2 1746   1.563   0.025   1.801  0.3856 -1.2150 -0.9313
  583SOL     OW 1747   2.433   2.999   0.598  0.2583  0.1760 -0.0425
  583SOL    HW1 1748   2.491   2.924   0.556  2.2068  0.2772  1.9820
  583SOL    HW2 1749   2.376   2.956   0.674 -0.3303 -2.1360  0.9211
  584SOL     OW 1750   1.532   0.957   2.105 -0.1276 -0.0422  0.1889
  584SOL    HW1 1751   1.597   1.008   2.043 -3.2272 -1.4170 -0.3719
  584SOL    HW2 1752   1.567   0.938   2.198  0.9621 -0.5487 -1.2303
  585SOL     OW 1753   2.146   2.643   2.927 -0.1995 -0.3478 -0.2583
  585SOL    HW1 1754   2.171   2.567   2.862 -0.4963 -2.2580 -1.7746
  585SOL    HW2 1755   2.049   2.668   2.920  1.6739  0.8647 -0.4706
  586SOL     OW 1756   2.798   0.232   1.576 -0.3197  0.0960  0.5589
  586SOL    HW1 1757   2.824   0.317   1.628  2.6805  0.4148  2.2237
  586SOL    HW2 1758   2.705   0.183   1.600 -3.0541 -0.9746  0.6516
  587SOL     OW 1759   2.004   1.617   2.736 -0.2220 -0.0652 -0.0438
  587SOL    HW1 1760   2.044   1.592   2.639  2.5264 -1.1446 -0.5918
  587SOL    HW2 1761   2.052   1.581   2.818 -0.2936 -1.4379 -0.9965
  588SOL     OW 1762   0.503   2.707   2.219  0.0076  0.2706 -0.1005
  588SOL    HW1 1763   0.433   2.765   2.165  0.5667  1.2197  0.1792
  588SOL    HW2 1764   0.455   2.652   2.291 -1.8309  1.0183 -2.3168
  589SOL     OW 1765   2.146   1.462   2.538  0.4317  0.2413 -0.1654
  589SOL    HW1 1766   2.073   1.404   2.490 -0.8734 -1.3269 -0.0039
  589SOL    HW2 1767   2.239   1.420   2.545 -0.6130 -1.3367 -0.7088
  590SOL     OW 1768   2.355   1.717   1.987 -0.4024 -0.3018  0.0634
  590SOL    HW1 1769   2.436   1.657   1.994 -0.4721  0.0047 -0.9165
  590SOL    HW2 1770   2.360   1.800   2.048  0.7136  0.6334 -2.3150
  591SOL     OW 1771   1.340   2.488   0.317 -0.0860  0.1131  0.3593
  591SOL    HW1 1772   1.399   2.421   0.263 -0.4234 -0.1770  0.2572
  591SOL    HW2 1773   1.324   2.448   0.410 -1.3634 -0.3476 -0.3052
  592SOL     OW 1774   1.683   2.321   0.777 -0.0793  0.2382 -0.1052
  592SOL    HW1 1775   1.652   2.348   0.681  3.2674  0.6922  3.1753
  592SOL    HW2 1776   1.785   2.317   0.796  0.7335  1.1170  2.4109
  593SOL     OW 1777   0.549   0.199   3.025  0.1446 -0.5041  0.4401
  593SOL    HW1 1778   0.638   0.147   3.027 -0.0686  0.6517  0.2624
  593SOL    HW2 1779   0.556   0.287   3.073 -2.6475  1.2364  0.6839
  594SOL     OW 1780   0.885   1.938   2.700 -0.0115  0.0832 -0.6249
  594SOL    HW1 1781   0.988   1.932   2.716 -0.6423  1.9082 -0.3203
  594SOL    HW2 1782   0.848   2.004   2.769  0.7455  2.1128 -0.2837
  595SOL     OW 1783   1.550   0.037   1.059  0.2126  0.2341  0.7368
  595SOL    HW1 1784   1.641  -0.011   1.051  0.1955  0.6829  0.1964
  595SOL    HW2 1785   1.467  -0.018   1.033  0.3138  3.7951 -0.6416
  596SOL     OW 1786   3.081   1.469   2.212  0.6271 -0.4535 -0.2419
  596SOL    HW1 1787   2.986   1.519   2.230  0.8815 -0.1197  2.3907
  596SOL    HW2 1788   3.143   1.471   2.291 -4.1790  1.5515 -0.6771
  597SOL     OW 1789   2.103   2.627   1.625  0.4142 -0.2473 -0.2163
  597SOL    HW1 1790   2.119   2.532   1.584  0.1475 -4.3708 -1.4441
  597SOL    HW2 1791   2.167   2.634   1.708 -0.2309  2.8371  1.1611
  598SOL     OW 1792   2.561   2.907   1.196 -0.2146 -0.3365  0.0768
  598SOL    HW1 1793   2.629   2.914   1.276 -1.7491  2.8502 -0.2037
  598SOL    HW2 1794   2.603   2.888   1.105 -3.4205 -0.7662  0.6364
  599SOL     OW 1795   2.939   0.349   2.397 -0.2846 -0.1712  0.4055
  599SOL    HW1 1796   3.014   0.343   2.330  0.4897  0.2755  0.2635
  599SOL    HW2 1797   2.851   0.392   2.360 -0.1279  0.0717 -1.9604
  600SOL     OW 1798   2.832   1.038   2.739  0.2231 -0.2098 -0.6314
  600SOL    HW1 1799   2.802   0.953   2.797 -0.2904  0.5174 -1.0112
  600SOL    HW2 1800   2.820   1.127   2.795 -0.4676  2.2426 -1.0056
  601SOL     OW 1801   2.944   1.236   2.061  0.4226  0.1654 -0.3679
  601SOL    HW1 1802   2.883   1.285   1.991  0.3954  1.3201 -0.1245
  601SOL    HW2 1803   3.000   1.301   2.112 -1.5010 -1.3791 -0.7577
  602SOL     OW 1804   1.535   1.681   2.362  0.3321  0.2863  0.0012
  602SOL    HW1 1805   1.470   1.599   2.359  1.4926  2.1448  1.2864
  602SOL    HW2 1806   1.634   1.652   2.399 -1.1904  0.8576  0.4593
  603SOL     OW 1807   0.670   1.268   2.617 -0.4880  0.0866  0.4425
  603SOL    HW1 1808   0.601   1.226   2.549  0.5215 -1.8588 -0.5074
  603SOL    HW2 1809   0.755   1.202   2.631  3.8843 -2.0913  0.4650
  604SOL     OW 1810   2.397   0.962   0.180  0.1158 -0.3654  0.3739
  604SOL    HW1 1811   2.460   1.027   0.127  2.5202  1.7314  0.9314
  604SOL    HW2 1812   2.379   0.871   0.132 -0.7841  0.6069  0.8983
  605SOL     OW 1813   2.638   1.119   1.968  0.6367 -0.2310 -0.3285
  605SOL    HW1 1814   2.630   1.029   1.918  1.4935  0.7200 -1.3154
  605SOL    HW2 1815   2.652   1.108   2.069  0.5675  0.5603 -2.5626
  606SOL     OW 1816   1.531   2.533   2.575 -0.1870  0.3100 -0.4817
  606SOL    HW1 1817   1.460   2.607   2.582  0.9664  0.5352  2.0662
  606SOL    HW2 1818   1.499   2.430   2.575 -0.2442 -1.0198  1.7584
  607SOL     OW 1819   1.345   1.537   0.457  0.2311 -0.2113 -0.0831
  607SOL    HW1 1820   1.294   1.495   0.536 -1.5935 -1.1743  1.3576
  607SOL    HW2 1821   1.361   1.640   0.456  0.7570  0.3892  0.0162
  608SOL     OW 1822   1.414   2.912   0.425  0.3228  0.3666 -0.0258
  608SOL    HW1 1823   1.501   2.955   0.391  1.0606  1.4283 -1.3276
  608SOL    HW2 1824   1.338   2.978   0.448 -0.7087  1.3006  2.0200
  609SOL     OW 1825   1.336   1.340   0.261 -0.1846  0.3149  0.3335
  609SOL    HW1 1826   1.352   1.415   0.329 -0.3402  1.6788 -0.9248
  609SOL    HW2 1827   1.236   1.330   0.227 -0.9731 -0.7697 -0.5286
  610SOL     OW 1828   2.996   1.073   2.260 -0.1653 -0.2276  0.5070
  610SOL    HW1 1829   2.975   0.972   2.267  0.4491 -0.4566  1.8207
  610SOL    HW2 1830   2.954   1.124   2.180 -1.4850 -3.2587  1.2499
  611SOL     OW 1831   2.504   0.327   1.239 -0.0871 -0.5449 -0.2432
  611SOL    HW1 1832   2.473   0.229   1.246 -2.3249 -0.4411  2.0064
  611SOL    HW2 1833   2.607   0.337   1.253 -1.0493 -0.0773 -0.3694
  612SOL     OW 1834   0.754   2.146   1.248 -0.0172  0.4786 -0.4374
  612SOL    HW1 1835   0.669   2.091   1.273  1.0459 -0.2575 -1.9490
  612SOL    HW2 1836   0.726   2.242   1.213 -2.0402  2.3918 -3.2065
  613SOL     OW 1837   0.891   1.425   2.400 -0.5301  0.1412  0.1902
  613SOL    HW1 1838   0.928   1.484   2.319  1.9121  2.8088 -0.4147
  613SOL    HW2 1839   0.866   1.328   2.375  0.0298 -0.2231  0.7964
  614SOL     OW 1840   1.671   1.545   1.812  0.1558  0.6865  0.8331
  614SOL    HW1 1841   1.614   1.617   1.762 -0.1340  0.6940 -0.7791
  614SOL    HW2 1842   1.737   1.587   1.880  0.3056  0.8775 -1.3676
  615SOL     OW 1843   0.772   1.254   1.756 -0.4252 -0.4652  0.1448
  615SOL    HW1 1844   0.711   1.235   1.668 -1.2233 -2.0139 -5.1144
  615SOL    HW2 1845   0.825   1.346   1.748  0.3591 -0.0899  0.0913
  616SOL     OW 1846   1.050   1.547   2.211  0.6080 -0.2011  0.2165
  616SOL    HW1 1847   1.008   1.566   2.116  0.3159  0.1129  0.3666
  616SOL    HW2 1848   1.072   1.640   2.260  1.0338  1.8657  0.3781
  617SOL     OW 1849   2.952   1.518   1.622  0.1975  0.2478  0.1511
  617SOL    HW1 1850   2.966   1.416   1.653 -2.6883 -1.1128 -1.3868
  617SOL    HW2 1851   3.011   1.548   1.540  2.3580  1.4796  2.1473
  618SOL     OW 1852   1.856   2.065   1.382  0.0928  0.2693  0.0921
  618SOL    HW1 1853   1.872   2.139   1.313 -2.1760  2.2381 -0.6164
  618SOL    HW2 1854   1.840   1.974   1.331 -0.3060  1.0735  0.7515
  619SOL     OW 1855   1.758   0.465   2.386 -0.1887  0.6708  0.1557
  619SOL    HW1 1856   1.679   0.516   2.356  1.3789 -1.5200  1.4403
  619SOL    HW2 1857   1.732   0.365   2.374  1.9280  0.2474 -1.8188
  620SOL     OW 1858   2.260   2.828   0.772  0.2428  0.1947  0.2543
  620SOL    HW1 1859   2.161   2.812   0.742 -0.5745  0.2985  0.7605
  620SOL    HW2 1860   2.297   2.754   0.832 -1.0345  2.7310  1.6336
  621SOL     OW 1861   2.177   1.907   1.360 -0.6441 -0.3853  0.4350
  621SOL    HW1 1862   2.184   1.906   1.465  0.5533  0.1107  0.3090
  621SOL    HW2 1863   2.133   1.818   1.326 -0.3880 -2.1963  0.8655
  622SOL     OW 1864   2.322   0.966   1.877  0.0305 -0.2528  0.6181
  622SOL    HW1 1865   2.423   0.958   1.844  2.3794 -0.7504  0.4413
  622SOL    HW2 1866   2.293   0.872   1.908 -0.5777  1.4951 -3.0866
  623SOL     OW 1867   1.260   0.829   2.522  0.7574 -0.0287 -0.0666
  623SOL    HW1 1868   1.188   0.752   2.505 -0.4715 -0.4794 -2.5998
  623SOL    HW2 1869   1.264   0.911   2.459  1.0790 -0.7923 -1.8948
  624SOL     OW 1870   0.483   0.656   3.053 -0.3340 -0.1539  0.1640
  624SOL    HW1 1871   0.508   0.699   2.964 -0.2786 -1.1738  0.6574
  624SOL    HW2 1872   0.525   0.709   3.130 -1.2810 -0.2498 -0.4715
  625SOL     OW 1873   2.761   1.716   1.015  0.4786 -0.1241  0.6060
  625SOL    HW1 1874   2.670   1.765   1.001  0.4975 -1.7429  1.2331
  625SOL    HW2 1875   2.844   1.778   1.023 -0.1307 -0.8924 -0.3398
  626SOL     OW 1876   0.647   2.676   1.732  0.0179 -0.1920  0.4983
  626SOL    HW1 1877   0.718   2.711   1.797 -0.9528  0.3162  0.8757
  626SOL    HW2 1878   0.565   2.645   1.784  1.2352  1.7867  0.4751
  627SOL     OW 1879   0.675   0.834   1.649 -0.7605 -0.0414 -0.9388
  627SOL    HW1 1880   0.600   0.772   1.612  2.1982 -0.4693  0.2534
  627SOL    HW2 1881   0.722   0.896   1.574  1.6834  1.1773 -0.6605
  628SOL     OW 1882   2.396   0.136   0.717  0.1109  0.2154 -0.6643
  628SOL    HW1 1883   2.421   0.051   0.657  0.4006 -0.7973 -0.1380
  628SOL    HW2 1884   2.297   0.166   0.707  1.5554 -0.1232  2.3309
  629SOL     OW 1885   1.910   0.934   1.977 -0.0326  0.2274  0.0719
  629SOL    HW1 1886   1.905   1.012   1.908  1.3508 -1.4648  0.5223
  629SOL    HW2 1887   1.953   0.955   2.068 -0.5144  1.0154 -2.7199
  630SOL     OW 1888   2.900   2.224   0.813 -0.0166  0.6864 -0.5639
  630SOL    HW1 1889   2.872   2.323   0.793 -0.8676  0.0764  1.7092
  630SOL    HW2 1890   2.822   2.164   0.788 -1.5929 -0.0304  0.7592
  631SOL     OW 1891   0.005   0.139   2.084  0.9713  0.4234  0.4918
  631SOL    HW1 1892   0.078   0.182   2.143  0.5888 -0.3430 -1.0934
  631SOL    HW2 1893   0.041   0.120   1.986  1.5956 -0.8232 -0.7521
  632SOL     OW 1894   2.438   2.570   0.620  0.4788 -0.3226 -0.7465
  632SOL    HW1 1895   2.498   2.653   0.639 -2.9823 -1.0068  1.2665
  632SOL    HW2 1896   2.365   2.590   0.547  1.9172  2.8145 -4.9313
  633SOL     OW 1897   1.473   1.246   2.688 -0.5629 -0.7714  0.1898
  633SOL    HW1 1898   1.445   1.321   2.755  1.7410 -1.0448  0.4539
  633SOL    HW2 1899   1.400   1.244   2.609 -1.4303  1.1480 -1.5944
  634SOL     OW 1900   0.677   2.069   0.852 -0.2889 -0.0787  0.0442
  634SOL    HW1 1901   0.584   2.096   0.895 -1.6559 -0.9613 -0.3428
  634SOL    HW2 1902   0.764   2.110   0.895  0.2122  0.0573  0.9328
  635SOL     OW 1903   3.071   2.372   0.004 -0.2076 -0.0221 -0.4650
  635SOL    HW1 1904   2.987   2.419  -0.039 -0.7548  0.9083 -2.0389
  635SOL    HW2 1905   3.147   2.439   0.034  0.5613 -0.4699  3.0353
  636SOL     OW 1906   2.381   2.700   2.047  0.3828  0.9260 -0.3980
  636SOL    HW1 1907   2.353   2.802   2.059 -0.1057 -0.9426 -2.0240
  636SOL    HW2 1908   2.310   2.641   2.100  1.2012  0.3601  0.8242
  637SOL     OW 1909   2.720   0.625   1.998 -0.0713 -0.0360  0.1876
  637SOL    HW1 1910   2.644   0.634   1.926  0.8049  0.6239  2.0804
  637SOL    HW2 1911   2.787   0.710   2.001 -1.5426  0.5044  0.5623
  638SOL     OW 1912   2.459   1.871   1.312  0.0463  0.1068 -0.2513
  638SOL    HW1 1913   2.355   1.864   1.317  0.3607  0.5107  1.6892
  638SOL    HW2 1914   2.507   1.797   1.370 -0.2052  2.1891  0.9358
  639SOL     OW 1915   1.283   2.217   1.650  0.8126  0.1910  0.2254
  639SOL    HW1 1916   1.350   2.297   1.654 -1.8974 -0.2206 -1.4584
  639SOL    HW2 1917   1.216   2.216   1.726  0.3806 -0.7445 -1.0022
  640SOL     OW 1918   0.197   1.203   1.557  0.1400  0.0316  0.2401
  640SOL    HW1 1919   0.189   1.219   1.660  2.4104  1.2535  2.3333
  640SOL    HW2 1920   0.257   1.123   1.524 -0.3262  0.2990 -0.3471
  641SOL     OW 1921   1.965   0.222   1.518 -0.0581 -0.2491 -0.2965
  641SOL    HW1 1922   1.897   0.277   1.572  1.4586 -0.9830 -2.0788
  641SOL    HW2 1923   2.041   0.181   1.579 -0.1113 -0.2696  1.9696
  642SOL     OW 1924   2.038   0.029   0.320  0.0503  0.5487  0.1552
  642SOL    HW1 1925   2.123   0.071   0.360 -1.6663  0.5961  0.1165
  642SOL    HW2 1926   1.966   0.019   0.390  3.3658  0.1974  2.2753
  643SOL     OW 1927   2.899   1.949   2.147  0.0583 -0.2168  0.1751
  643SOL    HW1 1928   2.829   1.873   2.127  0.9054 -1.6257 -0.0678
  643SOL    HW2 1929   2.888   2.030   2.082 -0.5935  0.2693  0.3410
  644SOL     OW 1930   2.284   2.430   1.231  0.1301 -0.6077 -0.0971
  644SOL    HW1 1931   2.355   2.369   1.186 -1.9278  1.3308  1.6694
  644SOL    HW2 1932   2.228   2.390   1.309 -2.6114  3.2851 -1.3647
  645SOL     OW 1933   0.675   0.843   1.255 -0.4124 -0.1439  0.1997
  645SOL    HW1 1934   0.581   0.872   1.281  1.5944 -2.5084  0.0525
  645SOL    HW2 1935   0.695   0.836   1.153  0.1801  0.7662  1.4549
  646SOL     OW 1936   1.509   1.818   2.044 -0.1039  0.1551  0.1654
  646SOL    HW1 1937   1.576   1.832   1.963 -0.5704  1.0086 -1.5017
  646SOL    HW2 1938   1.552   1.814   2.137 -1.0273  3.1318  1.2211
  647SOL     OW 1939   0.807   1.118   0.657  0.3953  0.4916  0.4841
  647SOL    HW1 1940   0.860   1.136   0.743  1.6328  0.2227  0.3290
  647SOL    HW2 1941   0.732   1.048   0.666 -0.3658  0.5496  1.0724
  648SOL     OW 1942   0.185   0.214   0.354 -0.0357  0.2532 -0.2190
  648SOL    HW1 1943   0.171   0.120   0.305  0.4289  0.0051 -1.8905
  648SOL    HW2 1944   0.173   0.299   0.292  3.5120  1.7680 -1.2123
  649SOL     OW 1945   2.992   0.268   0.850  0.1001 -0.0012 -1.1328
  649SOL    HW1 1946   3.071   0.244   0.786  1.6703  1.0978 -1.2453
  649SOL    HW2 1947   2.979   0.371   0.854 -1.2405  1.1403 -0.8166
  650SOL     OW 1948   2.812   0.692   1.512 -0.7109 -0.3823 -0.1153
  650SOL    HW1 1949   2.709   0.672   1.495  2.5492 -0.7028 -2.1391
  650SOL    HW2 1950   2.836   0.769   1.448 -1.3270 -0.7831  0.5424
  651SOL     OW 1951   0.870   1.529   1.681 -0.0527  0.5437 -0.2231
  651SOL    HW1 1952   0.897   1.557   1.776  0.5056 -0.0089 -1.4288
  651SOL    HW2 1953   0.941   1.473   1.630  0.3976  0.9165 -0.8791
  652SOL     OW 1954   2.365   2.487   2.469  0.2386 -0.5531 -0.2463
  652SOL    HW1 1955   2.274   2.531   2.496 -1.3260 -0.2389 -0.0379
  652SOL    HW2 1956   2.414   2.518   2.383  1.3137 -0.2221  1.2206
  653SOL     OW 1957   2.699   1.268   0.183  0.3301 -0.1114 -0.2328
  653SOL    HW1 1958   2.741   1.350   0.231  0.9155 -0.2918 -0.4974
  653SOL    HW2 1959   2.747   1.179   0.200  0.8574  1.5724 -3.0750
  654SOL     OW 1960   1.253   2.167   1.273  0.3089 -0.0849 -0.1664
  654SOL    HW1 1961   1.302   2.121   1.349  2.3020  1.8443  0.1402
  654SOL    HW2 1962   1.268   2.129   1.180 -0.1762  3.1048  0.9921
  655SOL     OW 1963   0.168   0.994   1.932  0.0647 -0.2406 -0.3410
  655SOL    HW1 1964   0.224   0.951   1.859  0.2106 -2.3671  0.7190
  655SOL    HW2 1965   0.183   1.096   1.941 -1.5395  0.7356  2.1154
  656SOL     OW 1966   2.600   2.552   2.638  0.1801  0.2555  0.0633
  656SOL    HW1 1967   2.686   2.514   2.593 -0.1124 -0.7140  0.5917
  656SOL    HW2 1968   2.513   2.546   2.582 -1.5008  1.4256 -1.6690
  657SOL     OW 1969   3.009   1.048   1.861 -0.4647 -0.1895 -0.4324
  657SOL    HW1 1970   2.980   1.137   1.903  0.6727  0.0052  1.5780
  657SOL    HW2 1971   3.102   1.020   1.899 -2.9524  0.6829 -1.2445
  658SOL     OW 1972   1.654   0.187   2.369 -0.1346  0.1711 -0.5381
  658SOL    HW1 1973   1.719   0.147   2.438 -0.0220  0.2313  0.2792
  658SOL    HW2 1974   1.638   0.122   2.287  0.0628  1.9360 -2.9670
  659SOL     OW 1975   1.417   0.641   2.805 -0.3572 -0.6162 -0.1287
  659SOL    HW1 1976   1.458   0.715   2.743 -0.3282  0.0564  1.0896
  659SOL    HW2 1977   1.311   0.645   2.813 -3.7928  1.3173 -0.9378
  660SOL     OW 1978   1.468   0.309   1.411  0.0844  0.3816 -0.0762
  660SOL    HW1 1979   1.465   0.319   1.514  0.7726 -1.8011  0.0608
  660SOL    HW2 1980   1.516   0.219   1.381  1.6957 -3.0333  3.8897
  661SOL     OW 1981   2.426   1.265   0.632  0.6562 -0.1371 -0.6279
  661SOL    HW1 1982   2.471   1.262   0.536  0.3986 -1.5733  3.1334
  661SOL    HW2 1983   2.349   1.329   0.643  1.5242  0.2476  1.6724
  662SOL     OW 1984   1.462   0.398   1.691 -0.2380  0.4643 -0.8167
  662SOL    HW1 1985   1.415   0.362   1.778  1.7540 -1.7221  3.9343
  662SOL    HW2 1986   1.445   0.501   1.683 -0.2564 -0.4249 -0.4041
  663SOL     OW 1987   0.871   1.591   1.947  0.4239 -0.0580  0.7875
  663SOL    HW1 1988   0.853   1.692   1.973  3.6383  0.8950  2.0459
  663SOL    HW2 1989   0.796   1.523   1.966  1.1188  3.5319 -0.6747
  664SOL     OW 1990   1.575   2.097   1.437 -0.1183  0.3349  0.3762
  664SOL    HW1 1991   1.485   2.048   1.464  0.0597 -0.9324  0.8828
  664SOL    HW2 1992   1.642   2.038   1.391 -0.4308 -0.1571  0.3250
  665SOL     OW 1993   2.254   0.691   1.974 -0.1846  0.2770 -0.2071
  665SOL    HW1 1994   2.234   0.587   1.966 -0.5181  1.2160  1.3195
  665SOL    HW2 1995   2.328   0.708   2.045  0.4551  0.1814 -0.9911
  666SOL     OW 1996   0.465   2.236   0.335  0.3479 -0.0611 -0.1816
  666SOL    HW1 1997   0.529   2.275   0.410  2.5737 -2.3831 -2.6543
  666SOL    HW2 1998   0.368   2.227   0.371  0.4834  1.4706  0.0623
  667SOL     OW 1999   1.962   0.209   1.057 -0.7318 -0.0931 -0.0299
  667SOL    HW1 2000   2.022   0.293   1.042  1.4571  0.1884  0.8373
  667SOL    HW2 2001   1.907   0.209   1.147  0.2461 -0.3598  0.7473
  668SOL     OW 2002   1.971   0.511   1.087  0.1702 -0.1642  0.2272
  668SOL    HW1 2003   2.021   0.543   1.006 -0.5413 -0.1859 -1.3697
  668SOL    HW2 2004   2.024   0.474   1.169 -2.3417 -0.9651 -1.0823
  669SOL     OW 2005   3.033   2.157   1.038 -0.2980  0.0665  0.4085
  669SOL    HW1 2006   2.990   2.182   0.945  0.5660 -0.8995  1.9745
  669SOL    HW2 2007   2.994   2.219   1.116  2.3552  2.7786  1.0355
  670SOL     OW 2008   2.922   2.319   2.094 -0.3453 -0.5010 -0.2216
  670SOL    HW1 2009   2.836   2.309   2.151 -0.9468 -2.3989 -1.0811
  670SOL    HW2 2010   2.924   2.414   2.053  3.2461  0.5065 -1.5388
  671SOL     OW 2011   1.802   1.731   1.497  0.3833  0.8256  0.3238
  671SOL    HW1 2012   1.789   1.777   1.405 -3.0200  0.0319  2.6144
  671SOL    HW2 2013   1.719   1.679   1.532  1.8144  0.0364 -0.7378
  672SOL     OW 2014   0.446   0.646   2.580  0.5684 -0.0488 -0.2287
  672SOL    HW1 2015   0.386   0.677   2.509  1.1734 -0.7598  0.9000
  672SOL    HW2 2016   0.414   0.672   2.678  0.1970 -0.9678  1.7043
  673SOL     OW 2017   0.111   1.375   1.062  0.1408 -0.2236 -0.1378
  673SOL    HW1 2018   0.121   1.394   1.164 -1.0048 -0.2585 -2.2921
  673SOL    HW2 2019   0.198   1.370   1.007 -0.7295  0.4066 -1.2861
  674SOL     OW 2020   1.617   2.975   0.266  0.3675 -0.1278  0.4466
  674SOL    HW1 2021   1.659   3.042   0.198  1.0453 -0.3728  1.1303
  674SOL    HW2 2022   1.589   2.891   0.214 -0.4032 -1.5443  0.6126
  675SOL     OW 2023   1.691   0.860   2.342  0.3965 -0.2839  0.2947
  675SOL    HW1 2024   1.793   0.860   2.317 -1.0926 -1.2846  0.8911
  675SOL    HW2 2025   1.643   0.777   2.297 -1.2190 -1.5546 -0.4180
  676SOL     OW 2026   2.553   1.541   1.995  0.4339 -0.3590  0.1017
  676SOL    HW1 2027   2.491   1.496   1.922 -2.0137 -0.8013 -1.3848
  676SOL    HW2 2028   2.585   1.467   2.062 -1.9791 -1.1142 -4.0612
  677SOL     OW 2029   1.872   0.697   0.886  0.0669 -0.1560 -0.1295
  677SOL    HW1 2030   1.779   0.651   0.911  0.3075 -2.6327 -0.9186
  677SOL    HW2 2031   1.943   0.698   0.959 -0.8635 -0.6330  1.0398
  678SOL     OW 2032   0.076   0.766   1.635 -0.0803 -0.6429 -0.2718
  678SOL    HW1 2033   0.160   0.812   1.673  0.1730  0.4447 -0.2613
  678SOL    HW2 2034   0.033   0.698   1.700  3.5809 -2.4997 -0.2563
  679SOL     OW 2035   2.585   1.128   1.185  0.1168  0.3496 -0.5514
  679SOL    HW1 2036   2.480   1.147   1.191 -0.1136 -1.4656  0.5223
  679SOL    HW2 2037   2.604   1.037   1.146  1.1513 -0.0780  0.6715
  680SOL     OW 2038   2.861   0.469   1.690  0.5674 -0.3535  0.2382
  680SOL    HW1 2039   2.820   0.537   1.624 -0.1215 -2.9878 -0.6510
  680SOL    HW2 2040   2.943   0.512   1.743  1.4260  0.3445  1.7858
  681SOL     OW 2041   2.996   0.041   1.586  0.2829  0.5317  0.6715
  681SOL    HW1 2042   3.048   0.047   1.494  3.0524  1.0922  0.2354
  681SOL    HW2 2043   2.928   0.120   1.589 -4.1392 -0.6569  0.1863
  682SOL     OW 2044   0.645   0.044   1.309 -0.2357  0.4079  0.8935
  682SOL    HW1 2045   0.585  -0.036   1.345  2.7841  1.7670  2.6958
  682SOL    HW2 2046   0.715   0.010   1.241 -1.3169 -0.2002 -0.0419
  683SOL     OW 2047   1.385   0.221   2.129  0.3804 -0.2938 -0.1896
  683SOL    HW1 2048   1.336   0.281   2.193 -0.7464 -1.3761 -0.4413
  683SOL    HW2 2049   1.483   0.248   2.107 -0.8772 -0.0482  2.1749
  684SOL     OW 2050   1.427   2.161   0.573  0.3264 -0.2023 -0.2164
  684SOL    HW1 2051   1.498   2.091   0.601  1.6799 -2.1578 -0.4060
  684SOL    HW2 2052   1.339   2.118   0.534  1.0519 -1.5222  0.3715
  685SOL     OW 2053   2.254   2.086   1.967 -0.0330 -0.0702 -0.1854
  685SOL    HW1 2054   2.318   2.025   1.916 -2.4663  0.6264 -2.6759
  685SOL    HW2 2055   2.268   2.099   2.069 -0.1447 -1.5485  1.6743
  686SOL     OW 2056   1.523   1.878   2.927 -0.4901 -0.3093 -0.3832
  686SOL    HW1 2057   1.573   1.804   2.978 -2.0186  0.3293 -1.5488
  686SOL    HW2 2058   1.421   1.857   2.921 -0.4632 -0.6487 -1.5690
  687SOL     OW 2059   1.335   2.402   1.960 -0.8506  0.4335  0.4513
  687SOL    HW1 2060   1.394   2.318   1.975  2.3915 -0.5788 -0.6500
  687SOL    HW2 2061   1.294   2.441   2.046  0.7558  0.0016 -0.2317
  688SOL     OW 2062   2.085   1.501   1.729 -0.4571  0.2328  0.0704
  688SOL    HW1 2063   2.178   1.550   1.717 -1.0840  1.9396  0.7372
  688SOL    HW2 2064   2.056   1.456   1.637 -0.3835  1.3601 -1.1934
  689SOL     OW 2065   2.399   1.139   2.755  0.2922  0.1908 -0.3831
  689SOL    HW1 2066   2.302   1.114   2.791 -1.3886  0.7200  1.3683
  689SOL    HW2 2067   2.467   1.128   2.832  1.4289  0.3103 -0.9183
  690SOL     OW 2068   2.205   2.770   0.051  0.2901  0.8806  0.0064
  690SOL    HW1 2069   2.164   2.715  -0.033  2.9985 -0.2795  0.4724
  690SOL    HW2 2070   2.131   2.793   0.115  3.4945  1.9011 -1.3690
  691SOL     OW 2071   2.574   0.438   2.112  0.4020  0.4039 -0.4516
  691SOL    HW1 2072   2.622   0.347   2.116 -1.6463  1.4493 -0.5787
  691SOL    HW2 2073   2.636   0.512   2.071 -0.9751 -0.3749 -0.8054
  692SOL     OW 2074   2.653   1.212   0.766 -0.8381 -0.1339 -0.1989
  692SOL    HW1 2075   2.568   1.221   0.711 -0.1621 -1.1657  1.6709
  692SOL    HW2 2076   2.658   1.286   0.839 -0.8010 -0.3454 -1.0358
  693SOL     OW 2077   2.835   2.946   0.635 -0.7250  0.1746  0.4828
  693SOL    HW1 2078   2.822   3.019   0.705  3.1080 -0.1343  1.7519
  693SOL    HW2 2079   2.828   2.980   0.538  2.5941  2.5884  0.9823
  694SOL     OW 2080   2.402   2.209   0.163  0.5506 -0.7500 -0.1197
  694SOL    HW1 2081   2.392   2.302   0.200  0.4386  0.4876  0.0778
  694SOL    HW2 2082   2.313   2.168   0.143  1.1488  1.0404 -0.8555
  695SOL     OW 2083   0.488   2.988   1.450  0.1045 -0.7862 -0.3555
  695SOL    HW1 2084   0.429   2.913   1.408  2.0845  1.1245 -1.0415
  695SOL    HW2 2085   0.443   3.040   1.527  1.0589 -3.5228  0.2209
  696SOL     OW 2086   2.780   1.970   0.739  0.3690  0.2538 -0.2243
  696SOL    HW1 2087   2.860   1.918   0.778  1.0770  0.0669  2.7206
  696SOL    HW2 2088   2.784   1.994   0.638  0.7947 -2.8981 -0.5153
  697SOL     OW 2089   1.672   1.861   1.820 -0.0450 -0.3005  0.3070
  697SOL    HW1 2090   1.761   1.813   1.795 -0.5951  0.2792  0.1550
  697SOL    HW2 2091   1.677   1.967   1.811 -1.2317  2.0678 -0.0696
  698SOL     OW 2092   2.889   0.437   2.680 -0.3598 -0.0661  1.1042
  698SOL    HW1 2093   2.883   0.399   2.585 -1.3252  0.8612  0.8363
  698SOL    HW2 2094   2.933   0.370   2.741  0.4610  0.1595 -2.0871
  699SOL     OW 2095   1.563   0.080   2.916  0.2480 -0.2075  0.3792
  699SOL    HW1 2096   1.551  -0.019   2.891 -1.1470  0.0909 -0.6402
  699SOL    HW2 2097   1.614   0.136   2.846 -1.5527  0.6005  2.0976
  700SOL     OW 2098   0.991   2.248   1.369 -0.1176  0.5723  0.4508
  700SOL    HW1 2099   1.073   2.194   1.330  0.2164 -3.3410  0.2547
  700SOL    HW2 2100   0.907   2.204   1.327  1.7421  1.0099 -1.5446
  701SOL     OW 2101   1.904   2.848   0.053 -0.1779  0.3624 -0.0451
  701SOL    HW1 2102   1.869   2.836   0.148  0.0292 -1.8704  1.9733
  701SOL    HW2 2103   1.930   2.946   0.025  0.9773  1.5792 -5.1905
  702SOL     OW 2104   2.098   1.355   1.963 -0.1446 -0.1566 -0.2782
  702SOL    HW1 2105   2.183   1.295   1.960 -1.5891  0.5195 -0.0160
  702SOL    HW2 2106   2.091   1.416   1.882 -1.4963 -1.1680  0.7884
  703SOL     OW 2107   1.920   0.913   1.531 -0.3064 -0.1433  0.1940
  703SOL    HW1 2108   1.924   0.809   1.529  2.3370  0.5126 -1.4010
  703SOL    HW2 2109   1.996   0.955   1.584 -1.7171  1.5331  1.2745
  704SOL     OW 2110   0.327   2.048   1.695  0.3453 -0.0389 -0.0082
  704SOL    HW1 2111   0.367   1.992   1.770 -0.4588 -1.1053 -2.2873
  704SOL    HW2 2112   0.385   2.133   1.665  1.6842  0.0164  0.5059
  705SOL     OW 2113   2.435   1.459   0.920  0.2195  0.2247 -0.4081
  705SOL    HW1 2114   2.404   1.452   0.820 -0.4856  0.7766 -1.6992
  705SOL    HW2 2115   2.538   1.455   0.932 -0.0220  1.4473  0.6870
  706SOL     OW 2116   0.637   1.695   1.791  0.2672 -0.0472 -0.3453
  706SOL    HW1 2117   0.715   1.738   1.729  1.1557 -2.4650  0.1518
  706SOL    HW2 2118   0.675   1.655   1.875 -1.5972 -0.7867 -3.0551
  707SOL     OW 2119   2.326   1.210   1.982 -0.2128 -0.0789 -0.1761
  707SOL    HW1 2120   2.379   1.216   2.069  3.5690 -0.2000 -1.4270
  707SOL    HW2 2121   2.317   1.115   1.943 -1.6665  1.9481 -0.4347
  708SOL     OW 2122   3.030   0.468   3.078 -0.1189  0.1634 -0.1269
  708SOL    HW1 2123   3.077   0.548   3.037  0.7546 -2.1062 -0.8627
  708SOL    HW2 2124   3.009   0.399   3.009  2.4494  2.0574  1.8948
  709SOL     OW 2125   1.894   1.876   0.380  0.2556 -0.6201 -0.1568
  709SOL    HW1 2126   1.886   1.982   0.396  2.6296  2.1652 -2.7638
  709SOL    HW2 2127   1.870   1.855   0.280  1.0332 -2.2137 -0.3208
  710SOL     OW 2128   1.818   1.584   2.462  0.0698  0.7051  0.2272
  710SOL    HW1 2129   1.876   1.511   2.410  2.2490 -1.6732 -1.6777
  710SOL    HW2 2130   1.798   1.563   2.560  0.1302 -2.0086 -0.2790
  711SOL     OW 2131   2.683   2.915   0.917 -0.8062  0.7416 -0.1204
  711SOL    HW1 2132   2.628   3.002   0.919  0.5230 -0.2637 -0.8595
  711SOL    HW2 2133   2.780   2.921   0.956 -1.8610 -1.7446 -1.9246
  712SOL     OW 2134   1.403   2.125   1.993  0.1721  0.0555  0.1201
  712SOL    HW1 2135   1.486   2.068   1.993 -1.7014 -0.6097  1.1733
  712SOL    HW2 2136   1.350   2.120   1.905 -2.5135 -0.4042 -2.5853
  713SOL     OW 2137   2.769   1.427   2.497 -0.2170  0.6055 -0.2243
  713SOL    HW1 2138   2.764   1.325   2.493  1.0588 -0.2748 -1.1504
  713SOL    HW2 2139   2.687   1.469   2.546 -0.5691  2.5748  1.4128
  714SOL     OW 2140   2.691   0.488   2.366  0.1101  0.0139 -0.1265
  714SOL    HW1 2141   2.658   0.440   2.450  1.8176 -0.3820  1.7189
  714SOL    HW2 2142   2.617   0.488   2.288 -1.2365 -1.0333 -3.6208
  715SOL     OW 2143   1.600   2.176   1.150  0.2041  0.5163 -0.0797
  715SOL    HW1 2144   1.530   2.201   1.083  2.5374  0.7679  1.4208
  715SOL    HW2 2145   1.574   2.204   1.247  2.9031 -0.2739  1.8179
  716SOL     OW 2146   1.255   0.105   1.512 -0.1547 -0.1026 -0.3601
  716SOL    HW1 2147   1.163   0.142   1.479  1.4341  3.2359 -1.3162
  716SOL    HW2 2148   1.320   0.177   1.484 -1.8775 -1.6842 -2.2564
  717SOL     OW 2149   1.139   0.574   1.621 -0.3778 -0.2832 -0.0641
  717SOL    HW1 2150   1.236   0.584   1.657  0.4906  1.3863  0.8440
  717SOL    HW2 2151   1.130   0.525   1.527 -1.4926 -0.6942 -0.9181
  718SOL     OW 2152   0.685   0.888   0.949  0.0965  0.2621 -0.5603
  718SOL    HW1 2153   0.657   0.857   0.855 -0.0046 -0.6511  1.0298
  718SOL    HW2 2154   0.675   0.987   0.970  1.4949  1.7702  0.1831
  719SOL     OW 2155   0.675   1.732   2.307 -0.1068  0.2992  0.2494
  719SOL    HW1 2156   0.749   1.749   2.385  0.2266 -1.4637  1.9210
  719SOL    HW2 2157   0.650   1.634   2.301 -0.0168  1.4572 -2.4696
  720SOL     OW 2158   2.192   1.153   0.292  0.4334 -0.2266 -0.3050
  720SOL    HW1 2159   2.251   1.080   0.249 -2.0391  0.5322  0.2473
  720SOL    HW2 2160   2.176   1.134   0.395  1.9430  0.9932  0.4964
  721SOL     OW 2161   2.241   3.023   2.113  0.1512 -0.2461 -0.0242
  721SOL    HW1 2162   2.222   3.007   2.010 -1.6521  1.0741 -0.3290
  721SOL    HW2 2163   2.172   3.089   2.149  2.9998 -0.0114 -4.7325
  722SOL     OW 2164   2.349   1.677   0.527 -0.0208 -0.6423 -0.4367
  722SOL    HW1 2165   2.410   1.697   0.445  1.0700  2.4264 -1.0985
  722SOL    HW2 2166   2.249   1.688   0.496 -2.4700  0.2232 -0.5381
  723SOL     OW 2167   2.632   2.772   1.934 -0.1737 -0.5026 -0.6570
  723SOL    HW1 2168   2.677   2.859   1.977  0.7291  1.9209  1.6626
  723SOL    HW2 2169   2.547   2.734   1.983 -2.2691  0.3057 -0.8177
  724SOL     OW 2170   0.397   2.512   2.410  0.7941 -0.0793  0.1271
  724SOL    HW1 2171   0.297   2.503   2.435  2.5180  0.8000  1.0992
  724SOL    HW2 2172   0.460   2.497   2.491  1.4348 -2.9905  2.4746
  725SOL     OW 2173   2.439   2.831   1.514 -0.1432 -0.7913  0.5638
  725SOL    HW1 2174   2.407   2.849   1.414 -0.9536 -0.4457 -0.1184
  725SOL    HW2 2175   2.457   2.728   1.527 -3.5614  1.7702  3.7513
  726SOL     OW 2176   2.524   2.327   0.702 -0.2709 -0.2649  0.4178
  726SOL    HW1 2177   2.479   2.414   0.688  1.1066 -1.8253 -2.0829
  726SOL    HW2 2178   2.506   2.268   0.616 -1.5038 -1.6637 -0.3270
  727SOL     OW 2179   0.110   0.012   0.121  0.2632  0.2159  0.8789
  727SOL    HW1 2180   0.207   0.007   0.088 -0.9442 -1.0574  0.9879
  727SOL    HW2 2181   0.054  -0.069   0.088 -0.1407 -2.2254 -1.2533
  728SOL     OW 2182   2.928   0.694   0.941 -0.7330  0.4532  0.3776
  728SOL    HW1 2183   2.884   0.690   0.849  0.6147 -0.0843  2.7111
  728SOL    HW2 2184   2.871   0.650   1.019  0.9922 -1.6148  0.2821
  729SOL     OW 2185   0.035   2.526   0.786 -0.2940 -0.3061 -0.1477
  729SOL    HW1 2186   0.058   2.493   0.880  1.7088 -1.9133  1.0880
  729SOL    HW2 2187   0.104   2.505   0.707 -0.2871 -3.3108 -2.5935
  730SOL     OW 2188   2.604   0.675   0.889  0.8336 -0.1126 -0.3611
  730SOL    HW1 2189   2.565   0.768   0.862 -1.3848  1.1860 -1.3374
  730SOL    HW2 2190   2.667   0.632   0.820  1.0189 -2.6226  0.7681
  731SOL     OW 2191   3.074   2.186   2.348 -0.3210  0.1288  0.2882
  731SOL    HW1 2192   3.060   2.208   2.449 -0.2362  1.7485  0.4390
  731SOL    HW2 2193   2.996   2.213   2.287  1.2509 -0.9422  1.3196
  732SOL     OW 2194   1.275   2.748   2.006 -0.3427 -0.1037 -0.0273
  732SOL    HW1 2195   1.277   2.665   2.066  0.6475 -1.3961 -0.0829
  732SOL    HW2 2196   1.262   2.726   1.907 -0.5703  0.3846  0.5327
  733SOL     OW 2197   0.026   0.595   2.268 -0.2267  0.2153  0.4159
  733SOL    HW1 2198   0.085   0.667   2.217 -0.7232  0.3927  1.5244
  733SOL    HW2 2199  -0.024   0.528   2.205 -1.3082  0.7663 -0.8097
  734SOL     OW 2200   1.459   0.377   2.693  0.1622 -0.3426 -0.3391
  734SOL    HW1 2201   1.441   0.477   2.720 -1.5612 -0.5042 -3.5998
  734SOL    HW2 2202   1.388   0.312   2.733 -1.6671  2.2330 -2.2519
  735SOL     OW 2203   2.922   2.655   2.284 -1.2964 -0.1361 -0.1868
  735SOL    HW1 2204   2.931   2.610   2.193 -2.7879  1.1714 -0.4519
  735SOL    HW2 2205   2.997   2.728   2.291  3.5180 -0.3471  3.4756
  736SOL     OW 2206   0.903   0.405   2.533 -0.1961 -0.0683 -0.5769
  736SOL    HW1 2207   0.799   0.407   2.550 -2.5324  0.7524 -1.4977
  736SOL    HW2 2208   0.919   0.345   2.451 -2.5143 -1.8693  0.2434
  737SOL     OW 2209   2.610   0.428   2.791 -0.0712 -0.4949 -0.3336
  737SOL    HW1 2210   2.601   0.404   2.894  1.5804  1.0740  2.5213
  737SOL    HW2 2211   2.703   0.454   2.764 -0.8482 -2.3908  1.0967
  738SOL     OW 2212   1.752   1.238   2.941  0.0118  0.6501  0.0524
  738SOL    HW1 2213   1.852   1.228   2.928 -1.3804  0.2975 -0.1315
  738SOL    HW2 2214   1.700   1.150   2.948  2.4692 -0.3746 -2.9308
  739SOL     OW 2215   1.853   0.681   0.624  0.5897  0.3119  0.7169
  739SOL    HW1 2216   1.868   0.694   0.725 -1.4996 -1.0572 -2.5058
  739SOL    HW2 2217   1.854   0.580   0.600  0.8801 -2.1497 -1.4132
  740SOL     OW 2218   1.965   1.932   2.343  0.2064 -0.6973  0.3749
  740SOL    HW1 2219   2.027   1.852   2.349 -1.4186  4.4719 -0.1976
  740SOL    HW2 2220   1.883   1.908   2.281  0.0687 -0.2462  0.5858
  741SOL     OW 2221   2.533   3.089   2.479  0.6132 -0.1671  0.4175
  741SOL    HW1 2222   2.637   3.092   2.490  1.3211 -0.9604 -1.5070
  741SOL    HW2 2223   2.500   3.154   2.404 -1.4641 -2.9507 -0.2455
  742SOL     OW 2224   2.187   1.436   0.160 -0.0528  0.2509 -0.4445
  742SOL    HW1 2225   2.097   1.462   0.121  0.8698 -0.0712  1.1728
  742SOL    HW2 2226   2.198   1.342   0.200 -0.0387 -0.2937  1.0631
  743SOL     OW 2227   1.833   0.612   2.604 -0.0046 -0.0279 -0.5780
  743SOL    HW1 2228   1.826   0.538   2.529 -0.5662 -0.6293  1.9800
  743SOL    HW2 2229   1.745   0.626   2.651  1.1698 -1.8436 -1.5187
  744SOL     OW 2230   2.669   2.148   0.077  0.1838 -0.5346 -0.2085
  744SOL    HW1 2231   2.574   2.177   0.118  0.9350 -4.9279  3.2973
  744SOL    HW2 2232   2.655   2.050   0.046  0.7506 -2.3274  1.8029
  745SOL     OW 2233   2.190   2.569   2.219 -0.4170  0.3067  0.2052
  745SOL    HW1 2234   2.119   2.567   2.140  0.5658  1.0912 -1.2993
  745SOL    HW2 2235   2.151   2.596   2.313  0.4111  2.0854 -1.9516
  746SOL     OW 2236   0.025   2.608   1.748 -0.1627  0.4007 -0.1777
  746SOL    HW1 2237   0.113   2.590   1.701  0.0600  3.0176 -1.1556
  746SOL    HW2 2238   0.027   2.687   1.814  0.7923 -0.6809  0.4470
  747SOL     OW 2239   0.068   1.801   1.646  0.6903  0.1018  0.1127
  747SOL    HW1 2240  -0.003   1.731   1.616 -3.1756 -1.6293  1.1319
  747SOL    HW2 2241   0.116   1.842   1.566  1.2370  1.1318  0.2637
  748SOL     OW 2242   1.844   2.741   2.912  0.3135  0.2109  0.1886
  748SOL    HW1 2243   1.863   2.789   3.008  1.9549  2.0284 -0.5913
  748SOL    HW2 2244   1.744   2.702   2.902 -1.4441 -1.2319 -1.4147
  749SOL     OW 2245   1.346   2.986   0.868  1.2181  0.6791  0.1180
  749SOL    HW1 2246   1.268   3.052   0.832 -3.4427  0.9120 -0.6759
  749SOL    HW2 2247   1.422   2.975   0.803  0.8730  0.8340  2.8128
  750SOL     OW 2248   2.230   0.179   1.847  0.5091 -0.0825 -0.0863
  750SOL    HW1 2249   2.264   0.219   1.759 -0.4031 -1.0990  0.6941
  750SOL    HW2 2250   2.235   0.254   1.915 -1.3240  1.5108 -1.3834
  751SOL     OW 2251   0.771   2.129   2.867 -0.2769 -0.4419  0.1075
  751SOL    HW1 2252   0.850   2.138   2.933 -2.1965  0.5916  1.6995
  751SOL    HW2 2253   0.704   2.052   2.891 -1.5443 -1.8548  0.7611
  752SOL     OW 2254   1.293   0.804   1.167 -0.1524  0.3479  0.4204
  752SOL    HW1 2255   1.308   0.905   1.178 -1.5359 -0.1055  0.3579
  752SOL    HW2 2256   1.371   0.745   1.206  1.4935 -0.4190 -0.2013
  753SOL     OW 2257   0.969   2.568   1.801  0.3370 -0.0351  0.3503
  753SOL    HW1 2258   1.068   2.582   1.788 -2.4220  0.5290  0.4672
  753SOL    HW2 2259   0.929   2.647   1.849  0.2877 -1.8864 -2.4831
  754SOL     OW 2260   1.168   1.165   2.999 -0.3500  0.3252  0.2338
  754SOL    HW1 2261   1.232   1.083   2.972 -0.4387  0.7791  0.6619
  754SOL    HW2 2262   1.217   1.257   3.005 -0.2362  1.0029  0.1729
  755SOL     OW 2263   1.981   0.460   2.213  0.6261 -0.3393  0.1931
  755SOL    HW1 2264   2.043   0.380   2.226 -1.3581  2.2727 -0.4852
  755SOL    HW2 2265   1.902   0.460   2.285 -1.7713 -2.6230  2.7268
  756SOL     OW 2266   2.507   1.003   2.999  0.1564  0.2735 -0.1492
  756SOL    HW1 2267   2.609   0.991   3.014 -0.6109  1.8419 -1.1107
  756SOL    HW2 2268   2.455   0.914   3.022 -3.1476  0.9321 -0.1854
  757SOL     OW 2269   0.090   0.403   1.960 -0.0823 -0.2584  0.0939
  757SOL    HW1 2270   0.150   0.316   1.972  1.8450 -1.9412  1.5528
  757SOL    HW2 2271   0.004   0.395   2.011  2.9527 -1.7275 -2.1927
  758SOL     OW 2272   2.221   0.099   1.506 -0.9769  0.4263 -0.0285
  758SOL    HW1 2273   2.236   0.004   1.545  1.4614  0.8693  1.9666
  758SOL    HW2 2274   2.231   0.107   1.407 -1.3966 -0.2976  0.3350
  759SOL     OW 2275   1.673   0.040   0.062 -0.1399 -0.1607 -0.2908
  759SOL    HW1 2276   1.634   0.050  -0.037 -2.3880 -0.4442 -0.9810
  759SOL    HW2 2277   1.777   0.046   0.064  2.0143 -3.2015 -1.2376
  760SOL     OW 2278   2.679   2.003   2.822 -0.5695 -0.5490 -0.3958
  760SOL    HW1 2279   2.580   1.980   2.840 -1.7091  5.2587 -3.2622
  760SOL    HW2 2280   2.699   2.106   2.828  1.4429  0.5492  0.8545
  761SOL     OW 2281   1.936   1.735   1.738  0.3694 -0.3543  0.3756
  761SOL    HW1 2282   1.992   1.649   1.757 -0.1338 -0.7058 -0.4174
  761SOL    HW2 2283   1.892   1.739   1.643  2.1322 -0.6601  1.3378
  762SOL     OW 2284   0.475   2.392   0.937 -0.1593 -0.3428  0.3323
  762SOL    HW1 2285   0.522   2.405   0.846  0.5812 -0.7592  2.3018
  762SOL    HW2 2286   0.547   2.398   1.013 -0.1496 -1.0838 -1.3389
  763SOL     OW 2287   2.096   1.570   2.990 -0.3386 -0.1510  0.3501
  763SOL    HW1 2288   2.190   1.524   2.987  0.1360 -0.3018 -0.1333
  763SOL    HW2 2289   2.025   1.523   3.051 -2.3321 -4.1465  0.8305
  764SOL     OW 2290   0.694   0.604   0.688  0.5746  0.0469  0.3269
  764SOL    HW1 2291   0.593   0.575   0.663 -2.1372 -0.2926 -0.2250
  764SOL    HW2 2292   0.726   0.561   0.777 -1.1426 -0.7961  1.7682
  765SOL     OW 2293   0.807   0.322   0.719 -0.1778 -0.5327  0.8921
  765SOL    HW1 2294   0.896   0.349   0.661  1.7166  0.3134 -1.8608
  765SOL    HW2 2295   0.795   0.377   0.801  1.5470 -2.7048 -2.4406
  766SOL     OW 2296   2.930   2.149   3.070 -0.2474 -0.3305  0.0037
  766SOL    HW1 2297   2.840   2.157   3.114  1.5784  1.2376 -0.6371
  766SOL    HW2 2298   2.988   2.237   3.078 -0.5086  1.0860  0.5711
  767SOL     OW 2299   2.816   1.613   0.612 -0.4085  0.2522  0.2031
  767SOL    HW1 2300   2.723   1.633   0.654 -1.6538 -1.8315  1.1300
  767SOL    HW2 2301   2.895   1.664   0.656 -1.5239  2.1488  0.5566
  768SOL     OW 2302   1.072   0.201   0.197  0.3740  0.0241  0.6189
  768SOL    HW1 2303   1.057   0.265   0.277 -1.5290 -0.5403  1.1052
  768SOL    HW2 2304   1.171   0.184   0.179  0.0542  0.4012 -2.8430
  769SOL     OW 2305   1.110   1.824   2.301 -0.7287 -0.1374  0.7610
  769SOL    HW1 2306   1.022   1.843   2.351 -0.0571 -1.2078  2.9297
  769SOL    HW2 2307   1.193   1.819   2.365 -2.7096  1.2451 -1.8158
  770SOL     OW 2308   0.134   1.133   2.329 -0.0469 -0.1467 -0.3246
  770SOL    HW1 2309   0.131   1.208   2.400 -0.3368 -1.9865 -0.0312
  770SOL    HW2 2310   0.036   1.113   2.293 -2.5099 -1.6189  1.6658
  771SOL     OW 2311   3.042   2.821   1.941  0.6854 -0.2705  0.1193
  771SOL    HW1 2312   2.988   2.842   1.856 -0.5424  1.0425 -2.5180
  771SOL    HW2 2313   3.042   2.894   2.015 -0.5620 -1.8561  3.8361
  772SOL     OW 2314   2.363   0.253   2.807 -0.1988  0.5761 -0.3190
  772SOL    HW1 2315   2.432   0.182   2.780  0.0994 -0.9941  0.9421
  772SOL    HW2 2316   2.357   0.255   2.914 -2.1278  0.2249  2.0882
  773SOL     OW 2317   0.584   2.070   2.408 -0.0389  0.5822 -0.1887
  773SOL    HW1 2318   0.541   2.151   2.369  1.3396  0.9819 -2.2762
  773SOL    HW2 2319   0.527   1.984   2.401  0.5673 -1.6638 -1.5835
  774SOL     OW 2320   2.114   0.018   2.571 -0.6723 -0.1620  0.0701
  774SOL    HW1 2321   2.108   0.105   2.630  1.4820 -3.7366  0.3169
  774SOL    HW2 2322   2.177  -0.057   2.608  1.2160  0.8036 -1.4880
  775SOL     OW 2323   2.544   2.957   2.222 -0.2496  0.3524 -0.7772
  775SOL    HW1 2324   2.450   2.989   2.184 -1.7089  0.8158 -2.9959
  775SOL    HW2 2325   2.558   2.982   2.316  0.5522  1.8683 -0.9308
  776SOL     OW 2326   3.096   1.266   0.172 -0.1498  0.5358 -0.3828
  776SOL    HW1 2327   3.046   1.227   0.088  0.0700  3.0972 -3.6603
  776SOL    HW2 2328   3.054   1.253   0.270 -1.0310 -1.5171  0.9165
  777SOL     OW 2329   0.376   2.942   0.434 -0.2883 -0.4237 -0.7846
  777SOL    HW1 2330   0.284   2.915   0.385 -2.2584 -0.3830 -2.0377
  777SOL    HW2 2331   0.461   2.891   0.401  2.0868  0.3880 -2.0810
  778SOL     OW 2332   1.365   2.021   0.254 -0.5312  0.5622 -0.7131
  778SOL    HW1 2333   1.287   2.062   0.310 -1.1687  1.0005 -2.1560
  778SOL    HW2 2334   1.372   2.071   0.163  0.0721  1.1632 -0.7236
  779SOL     OW 2335   0.153   0.797   0.479 -0.1241 -0.0706  0.0357
  779SOL    HW1 2336   0.103   0.725   0.430  2.6231  2.3105  0.7343
  779SOL    HW2 2337   0.093   0.871   0.521  0.4284  2.1062  1.3290
  780SOL     OW 2338   0.121   0.281   2.323  0.4215 -0.4108 -0.5853
  780SOL    HW1 2339   0.088   0.351   2.395 -1.3754 -0.8034  1.3220
  780SOL    HW2 2340   0.208   0.315   2.272  1.2788  1.8922  1.2486
  781SOL     OW 2341   0.718   1.704   1.518  0.2274  0.4401 -0.0270
  781SOL    HW1 2342   0.767   1.638   1.581 -1.6810 -0.7747 -0.3768
  781SOL    HW2 2343   0.615   1.711   1.533  0.3118  0.4186  0.1987
  782SOL     OW 2344   2.563   0.058   0.943 -0.1486 -0.0102  0.5713
  782SOL    HW1 2345   2.494   0.083   0.869  0.8198 -0.0080 -0.9388
  782SOL    HW2 2346   2.551   0.115   1.027  1.1656  0.3761  0.7146
  783SOL     OW 2347   2.773   0.748   2.480  0.8028 -0.5339  0.7189
  783SOL    HW1 2348   2.790   0.739   2.579  0.8013  3.0782  0.4100
  783SOL    HW2 2349   2.755   0.664   2.422 -1.2352  1.2540 -0.2483
  784SOL     OW 2350   1.420   2.156   0.011 -0.2507  0.5651 -0.1878
  784SOL    HW1 2351   1.447   2.253   0.036 -0.7505 -2.8862  0.2445
  784SOL    HW2 2352   1.408   2.138  -0.090 -1.0136  0.3241 -1.1627
  785SOL     OW 2353   2.082   0.297   0.008 -0.4341  0.1505  0.2665
  785SOL    HW1 2354   2.002   0.324   0.064 -1.7335 -0.2891  2.4122
  785SOL    HW2 2355   2.116   0.378  -0.048 -0.2342 -1.3454 -0.3543
  786SOL     OW 2356   2.050   2.182   2.237 -0.0080 -0.0881 -0.8982
  786SOL    HW1 2357   2.010   2.100   2.290 -1.5967 -1.1219  1.6818
  786SOL    HW2 2358   2.149   2.176   2.242 -3.7711  2.1019 -0.3217
  787SOL     OW 2359   1.352   0.568   0.887 -0.0325  0.2340  0.3575
  787SOL    HW1 2360   1.272   0.631   0.867 -2.3637  2.5242 -0.1543
  787SOL    HW2 2361   1.417   0.552   0.813 -2.4803 -0.0861  0.0633
  788SOL     OW 2362   1.217   0.418   0.018 -0.4320 -0.0774  0.0706
  788SOL    HW1 2363   1.124   0.383  -0.016 -2.2899  1.2575 -0.5376
  788SOL    HW2 2364   1.202   0.495   0.088  3.3976  1.9122  0.7281
  789SOL     OW 2365   2.520   0.117   1.951 -0.3637  0.1264  0.2516
  789SOL    HW1 2366   2.428   0.080   1.943  0.1547  0.4144 -0.2414
  789SOL    HW2 2367   2.593   0.051   1.917  1.9944 -3.1299 -2.4626
  790SOL     OW 2368   2.606   2.761   0.694  0.3985  0.0281  0.6261
  790SOL    HW1 2369   2.675   2.794   0.618  0.8754  1.9029 -1.1628
  790SOL    HW2 2370   2.619   2.807   0.785  1.2068  0.4345 -1.7338
  791SOL     OW 2371   1.940   1.203   0.201  0.0862  0.1293  0.2396
  791SOL    HW1 2372   1.862   1.156   0.257 -0.7857  1.6870  3.6165
  791SOL    HW2 2373   2.037   1.194   0.246  0.0909 -1.7325  5.1654
  792SOL     OW 2374   0.403   1.736   2.163  0.0143 -0.6757 -0.3520
  792SOL    HW1 2375   0.499   1.736   2.211 -0.3475 -0.2964  1.5803
  792SOL    HW2 2376   0.338   1.663   2.194 -2.8767  1.8913  0.5688
  793SOL     OW 2377   2.110   1.597   2.106 -0.3815 -0.0890  0.5831
  793SOL    HW1 2378   2.199   1.635   2.062  0.9324  1.1480 -0.4005
  793SOL    HW2 2379   2.102   1.493   2.097 -1.7737  0.7681  0.1049
  794SOL     OW 2380   0.526   1.498   2.275  0.5737  0.0787  0.0309
  794SOL    HW1 2381   0.513   1.438   2.193 -0.9271  0.5613 -0.3843
  794SOL    HW2 2382   0.470   1.470   2.355  1.0119  0.7923 -0.8579
  795SOL     OW 2383   2.507   2.287   1.817  0.1722  0.6804  0.4482
  795SOL    HW1 2384   2.510   2.263   1.918 -0.2716  3.1593 -1.4054
  795SOL    HW2 2385   2.441   2.223   1.763  1.3395 -0.5718  1.0701
  796SOL     OW 2386   3.086   1.112   2.633  0.0565  0.4101 -0.1266
  796SOL    HW1 2387   2.983   1.092   2.638  2.6644 -2.2775 -1.6924
  796SOL    HW2 2388   3.129   1.124   2.729  0.4079  2.8874 -0.7044
  797SOL     OW 2389   0.827   0.630   1.400 -0.1133  0.0874 -0.2031
  797SOL    HW1 2390   0.868   0.692   1.470 -1.8077 -0.0586  0.6436
  797SOL    HW2 2391   0.762   0.680   1.340 -0.0197  0.3773  0.1740
  798SOL     OW 2392   1.314   0.433   1.193  0.0512 -0.2420  0.0260
  798SOL    HW1 2393   1.388   0.412   1.263  0.6605  0.1331  0.7406
  798SOL    HW2 2394   1.347   0.464   1.097  1.9734 -1.1911 -1.6463
  799SOL     OW 2395   1.982   2.654   1.024  0.4723  0.1768  0.2432
  799SOL    HW1 2396   1.895   2.641   1.080  0.2975 -1.6702 -3.4788
  799SOL    HW2 2397   1.957   2.677   0.924 -0.1971  0.8608  0.4406
  800SOL     OW 2398   3.059   0.613   1.829  0.3536 -0.4036 -0.5602
  800SOL    HW1 2399   2.990   0.673   1.881 -0.5018 -1.9057 -0.4890
  800SOL    HW2 2400   3.102   0.535   1.880  1.3668  0.0836 -3.5280
  801SOL     OW 2401   1.911   2.224   0.131  0.6312 -0.4839 -0.3350
  801SOL    HW1 2402   1.822   2.176   0.102 -1.1571 -1.0982  0.2909
  801SOL    HW2 2403   1.998   2.199   0.077  0.6431  2.4478 -1.1894
  802SOL     OW 2404   0.715   0.759   2.581 -0.2689 -0.0881 -0.0606
  802SOL    HW1 2405   0.793   0.761   2.509 -1.7306  0.8897  2.2784
  802SOL    HW2 2406   0.637   0.702   2.548 -1.3194 -0.4959  0.4500
  803SOL     OW 2407   0.906   0.131   0.921  0.0607 -0.2799 -0.2999
  803SOL    HW1 2408   0.987   0.186   0.939 -1.4219  0.6268 -0.6711
  803SOL    HW2 2409   0.853   0.167   0.840  0.3250 -1.7512 -0.0473
  804SOL     OW 2410   0.362   3.082   2.112 -0.6415  0.6946 -0.1830
  804SOL    HW1 2411   0.299   3.135   2.049 -2.8427 -0.7156  0.6199
  804SOL    HW2 2412   0.350   2.982   2.096 -1.8095 -0.1189  2.1240
  805SOL     OW 2413   2.438   0.250   0.263 -0.4808 -0.2450  0.0707
  805SOL    HW1 2414   2.542   0.265   0.260  0.4065  0.2188  1.2516
  805SOL    HW2 2415   2.394   0.221   0.167  0.6948 -2.0783 -1.9264
  806SOL     OW 2416   0.662   2.397   1.697  0.0150 -0.2498  0.2231
  806SOL    HW1 2417   0.680   2.500   1.693 -0.4623  0.6665  0.1159
  806SOL    HW2 2418   0.747   2.347   1.655  1.0447 -1.7945  2.1286
  807SOL     OW 2419   2.448   0.951   0.455  0.0793  0.0743  0.3553
  807SOL    HW1 2420   2.537   0.918   0.502  0.5772  0.0266  0.0163
  807SOL    HW2 2421   2.441   0.925   0.354  3.7292 -2.2916  1.3148
  808SOL     OW 2422   0.544   1.989   2.962 -0.4242 -0.3348 -0.5232
  808SOL    HW1 2423   0.556   2.017   3.062 -0.0413  0.8757  1.1623
  808SOL    HW2 2424   0.549   1.886   2.947  2.0289  1.1595 -2.4458
  809SOL     OW 2425   2.591   1.963   1.950 -1.0675  0.0332  0.0702
  809SOL    HW1 2426   2.677   2.015   1.951  0.7969 -1.8664  0.9809
  809SOL    HW2 2427   2.569   1.945   1.849  0.6111  0.2182 -0.9978
  810SOL     OW 2428   2.038   1.102   0.532 -0.8377 -0.2043  0.9221
  810SOL    HW1 2429   2.053   1.057   0.626  2.4544 -1.5525 -0.2554
  810SOL    HW2 2430   1.986   1.190   0.534  0.7011 -4.1368  1.1385
  811SOL     OW 2431   1.300   2.423   1.268  0.4712  0.6988  0.3252
  811SOL    HW1 2432   1.274   2.320   1.275  1.5815  0.6422  1.3065
  811SOL    HW2 2433   1.251   2.462   1.186  0.1946 -1.7073 -0.8374
  812SOL     OW 2434   1.401   0.790   1.943  0.5028 -0.1239 -0.0494
  812SOL    HW1 2435   1.460   0.849   2.007  1.2751  1.9673 -1.5110
  812SOL    HW2 2436   1.303   0.822   1.943  0.5800 -0.2583  1.2287
  813SOL     OW 2437   1.752   2.110   2.446 -0.4657  0.6013 -0.5340
  813SOL    HW1 2438   1.826   2.040   2.443 -1.3332  0.2232 -0.8751
  813SOL    HW2 2439   1.677   2.091   2.374  1.6279  0.3343  1.8417
  814SOL     OW 2440   2.844   1.531   2.922 -0.1641  0.2221  0.3179
  814SOL    HW1 2441   2.946   1.534   2.948 -1.4932 -0.6242 -0.2422
  814SOL    HW2 2442   2.818   1.599   2.846  1.9052 -0.4693  2.3511
  815SOL     OW 2443   2.251   2.911   2.716 -0.2677  0.1450 -0.2994
  815SOL    HW1 2444   2.280   2.891   2.814  0.9906 -0.8581 -1.3744
  815SOL    HW2 2445   2.318   2.866   2.652  1.8375  0.5532  0.4862
  816SOL     OW 2446   1.761   0.349   1.682  0.4299 -0.6248 -0.3363
  816SOL    HW1 2447   1.736   0.256   1.718  1.3533  0.3421  1.2610
  816SOL    HW2 2448   1.677   0.416   1.685 -2.8280 -1.0012 -1.3037
  817SOL     OW 2449   0.474   1.198   2.443 -0.1540  0.0767  0.2850
  817SOL    HW1 2450   0.437   1.297   2.449  0.0536 -0.8652  0.1776
  817SOL    HW2 2451   0.513   1.181   2.345  0.6979  1.4264 -1.8194
  818SOL     OW 2452   2.021   0.832   0.443 -0.6638 -0.4165  0.5447
  818SOL    HW1 2453   2.023   0.933   0.450 -1.1959 -1.8752  2.5790
  818SOL    HW2 2454   1.965   0.786   0.520 -1.0554  1.3638  1.1951
  819SOL     OW 2455   2.773   2.914   3.039  0.6855 -0.6185 -0.5466
  819SOL    HW1 2456   2.852   2.853   3.006  4.3778  1.7909 -1.8672
  819SOL    HW2 2457   2.681   2.898   2.988  0.6328 -1.0483  0.0984
  820SOL     OW 2458   1.238   1.117   0.490  0.2916  0.4342  0.4374
  820SOL    HW1 2459   1.257   1.205   0.537 -0.4599 -2.7724 -3.3856
  820SOL    HW2 2460   1.212   1.037   0.552  0.4664 -0.4896 -0.1735
  821SOL     OW 2461   3.076   1.295   0.666  0.5925  0.4849 -0.0241
  821SOL    HW1 2462   3.028   1.303   0.755  1.2661  1.6755 -4.1948
  821SOL    HW2 2463   3.168   1.343   0.661  0.4232  0.8988 -0.1848
  822SOL     OW 2464   2.525   1.799   2.439 -0.2027  0.0666  0.1968
  822SOL    HW1 2465   2.517   1.877   2.504  0.2305 -0.5879  0.1390
  822SOL    HW2 2466   2.484   1.823   2.348  2.0962 -0.5791  1.4029
  823SOL     OW 2467   2.046   0.888   1.235  0.2615 -0.0725  0.4514
  823SOL    HW1 2468   2.020   0.933   1.324 -1.3978 -0.6080 -1.3287
  823SOL    HW2 2469   1.966   0.887   1.167  0.6284 -0.8899  0.1643
  824SOL     OW 2470   0.138   2.010   2.731 -0.1832 -0.3187 -0.0217
  824SOL    HW1 2471   0.087   1.940   2.786 -1.6760  1.9781  1.8048
  824SOL    HW2 2472   0.227   1.973   2.694 -0.7444  0.8901  0.6183
  825SOL     OW 2473   1.239   1.039   0.237  0.1934  0.4421 -0.2764
  825SOL    HW1 2474   1.240   1.060   0.336  0.1411 -1.2250 -0.4458
  825SOL    HW2 2475   1.232   1.124   0.183 -1.3468 -3.2655 -2.2575
  826SOL     OW 2476   1.947   0.640   1.516  0.0309  0.3231  0.0617
  826SOL    HW1 2477   2.003   0.585   1.589  1.6562  0.5605  0.4633
  826SOL    HW2 2478   1.855   0.595   1.488  0.8965 -3.2883 -0.4671
  827SOL     OW 2479   0.740   1.421   0.287 -0.8460 -0.3600 -0.1597
  827SOL    HW1 2480   0.733   1.348   0.210  0.1847 -0.8876 -1.0212
  827SOL    HW2 2481   0.691   1.389   0.373  1.0533  0.0141 -0.7808
  828SOL     OW 2482   2.554   0.079   1.563  0.2117 -0.0390 -0.0166
  828SOL    HW1 2483   2.464   0.130   1.551 -0.9429 -1.9590  0.2805
  828SOL    HW2 2484   2.553  -0.008   1.625 -2.4011 -1.5687  0.7100
  829SOL     OW 2485   2.832   2.489   3.034 -0.2162 -0.0152 -0.4151
  829SOL    HW1 2486   2.763   2.413   3.008 -3.0010  3.3052 -1.2410
  829SOL    HW2 2487   2.797   2.560   3.103 -1.9393 -1.2683 -1.2089
  830SOL     OW 2488   2.756   0.951   3.046 -0.0820 -0.0628 -0.3149
  830SOL    HW1 2489   2.841   1.013   3.031  0.8506  2.2344  0.8258
  830SOL    HW2 2490   2.777   0.851   3.074 -1.2161 -1.3439  1.1567
  831SOL     OW 2491   0.009   0.609   0.345 -0.2935  0.0810  0.1538
  831SOL    HW1 2492  -0.044   0.540   0.406 -3.6967  0.4225  0.2709
  831SOL    HW2 2493   0.075   0.570   0.275 -0.2689  1.4062  2.7550
  832SOL     OW 2494   1.794   0.734   3.096  0.5195 -0.2152  0.2937
  832SOL    HW1 2495   1.713   0.795   3.076  2.0176  0.9254  2.1770
  832SOL    HW2 2496   1.794   0.642   3.046  3.1549  0.2789 -0.6980
  833SOL     OW 2497   2.456   2.154   0.490 -0.3408 -0.2435  0.4699
  833SOL    HW1 2498   2.356   2.148   0.462 -2.4771  1.1024 -1.3744
  833SOL    HW2 2499   2.491   2.056   0.508 -0.1334 -1.8571 -5.0897
  834SOL     OW 2500   0.094   0.242   0.639  0.4642 -0.2908 -0.1798
  834SOL    HW1 2501   0.183   0.224   0.689  4.5217 -2.2609  2.4732
  834SOL    HW2 2502   0.109   0.210   0.541 -2.0702 -1.2972 -1.7853
  835SOL     OW 2503   2.352   1.512   1.182 -0.0217  0.9038 -0.0076
  835SOL    HW1 2504   2.446   1.551   1.216  2.9961  0.4822  0.9155
  835SOL    HW2 2505   2.350   1.488   1.079 -0.0863  1.3251  0.7949
  836SOL     OW 2506   1.532   0.803   2.579  0.2755  0.1275 -0.3805
  836SOL    HW1 2507   1.431   0.821   2.557 -1.0143  0.5681 -0.4330
  836SOL    HW2 2508   1.592   0.809   2.495  0.4139 -1.9849 -1.6383
  837SOL     OW 2509   1.654   0.075   0.543  0.6858  0.5672  0.1860
  837SOL    HW1 2510   1.616   0.136   0.618  1.1539  2.1790 -1.5694
  837SOL    HW2 2511   1.600   0.074   0.457  0.6148  2.0119 -1.0660
  838SOL     OW 2512   1.245   1.577   2.676 -0.9516 -0.4197 -0.0021
  838SOL    HW1 2513   1.316   1.528   2.730 -4.5928 -0.1414 -0.1156
  838SOL    HW2 2514   1.167   1.513   2.648  1.1042 -1.6060  2.2528
  839SOL     OW 2515   1.637   0.282   0.968 -0.3319  0.0423 -0.1257
  839SOL    HW1 2516   1.653   0.359   1.035 -1.9156  0.6598  0.5173
  839SOL    HW2 2517   1.598   0.194   1.003  0.7946  1.9097  0.1115
  840SOL     OW 2518   2.549   2.943   1.730  0.3741 -0.2704  0.3909
  840SOL    HW1 2519   2.518   2.890   1.645  0.8294 -0.2759  1.2847
  840SOL    HW2 2520   2.593   2.875   1.792 -1.0003  2.2542 -1.9881
  841SOL     OW 2521   1.565   0.890   3.050  0.4786 -0.3385 -0.0929
  841SOL    HW1 2522   1.474   0.873   3.091 -0.5612 -1.6160  2.7380
  841SOL    HW2 2523   1.550   0.942   2.958  0.4748  2.2074  1.9480
  842SOL     OW 2524   0.805   1.531   0.881 -0.1769 -0.7675  0.1434
  842SOL    HW1 2525   0.753   1.597   0.943  0.0887 -1.5815 -1.7627
  842SOL    HW2 2526   0.748   1.448   0.858 -0.2700  2.4523  1.3901
  843SOL     OW 2527   0.159   3.070   1.404 -0.6090  0.4317  0.2758
  843SOL    HW1 2528   0.182   3.146   1.473 -1.8397  0.0497  1.5965
  843SOL    HW2 2529   0.113   2.984   1.439 -2.8905  1.5664  1.7867
  844SOL     OW 2530   0.797   2.449   0.258 -0.1154 -0.0269  0.0184
  844SOL    HW1 2531   0.751   2.410   0.345 -1.3843 -1.4795 -0.7614
  844SOL    HW2 2532   0.727   2.497   0.197 -1.6431 -1.1957  0.4937
  845SOL     OW 2533   1.681   2.848   1.224  0.0104  0.1543  0.2080
  845SOL    HW1 2534   1.729   2.753   1.221  1.4208  0.8110  1.1521
  845SOL    HW2 2535   1.711   2.897   1.308  0.0315 -0.5526 -3.9064
  846SOL     OW 2536   1.565   2.965   0.709 -0.1302 -0.2659 -0.3873
  846SOL    HW1 2537   1.603   3.050   0.657  1.2336  1.3373  1.3724
  846SOL    HW2 2538   1.640   2.902   0.750 -0.6130  0.3907  1.1732
  847SOL     OW 2539   2.103   1.697   0.424 -0.0988 -0.0651  0.2307
  847SOL    HW1 2540   2.070   1.596   0.399  3.5855 -2.7542 -4.1574
  847SOL    HW2 2541   2.027   1.763   0.417  3.6071  0.8751 -1.0899
  848SOL     OW 2542   2.406   0.884   2.594  0.1301 -0.4432 -0.0373
  848SOL    HW1 2543   2.387   0.956   2.668  0.9924  0.5700 -1.0195
  848SOL    HW2 2544   2.329   0.813   2.583 -3.1274  1.7932 -2.7305
  849SOL     OW 2545   2.562   0.882   2.376  0.0174  0.3504 -0.3474
  849SOL    HW1 2546   2.656   0.856   2.407  1.9434 -0.8970  0.1323
  849SOL    HW2 2547   2.499   0.881   2.456  2.6985  0.3207 -0.7946
  850SOL     OW 2548   1.573   0.082   1.322  0.5485  0.6832  0.0765
  850SOL    HW1 2549   1.588   0.057   1.224 -2.8472  0.4293  2.0047
  850SOL    HW2 2550   1.535   0.007   1.382  2.4117  2.4349 -2.8050
  851SOL     OW 2551   0.490   1.779   0.612 -0.2759  0.4361 -0.5600
  851SOL    HW1 2552   0.527   1.829   0.689 -3.2740  0.2119  0.1591
  851SOL    HW2 2553   0.518   1.810   0.519 -2.0052 -1.0425 -0.8071
  852SOL     OW 2554   0.848   2.054   1.780 -0.2880 -0.5759  0.7924
  852SOL    HW1 2555   0.879   2.146   1.735 -1.7011 -0.1324 -0.6314
  852SOL    HW2 2556   0.769   2.070   1.848  2.2245 -4.1075  2.1926
  853SOL     OW 2557   2.551   1.560   2.599 -0.1394  0.0647 -0.0266
  853SOL    HW1 2558   2.470   1.496   2.586  1.7295  1.3795  0.3614
  853SOL    HW2 2559   2.547   1.638   2.529 -1.2963 -1.0680 -1.6895
  854SOL     OW 2560   2.447   1.395   1.779 -0.0485 -0.1353  0.0734
  854SOL    HW1 2561   2.515   1.371   1.705  0.1888 -0.4247  3.9734
  854SOL    HW2 2562   2.403   1.309   1.820 -0.5487  0.8168 -0.1691
  855SOL     OW 2563   2.070   2.405   1.065 -0.1223  0.1993  0.5832
  855SOL    HW1 2564   2.045   2.503   1.039  0.6420  0.8479  0.1772
  855SOL    HW2 2565   2.154   2.404   1.123 -2.3923  0.8037  2.3066
  856SOL     OW 2566   1.331   1.419   0.924  0.0242 -0.1838 -0.0585
  856SOL    HW1 2567   1.421   1.475   0.937  2.2212  1.1776  0.2003
  856SOL    HW2 2568   1.247   1.477   0.955 -0.8966 -1.7215  1.3987
  857SOL     OW 2569   0.003   2.755   1.055  0.3926  0.0509 -0.0767
  857SOL    HW1 2570  -0.058   2.732   0.971 -2.3124  1.9109 -0.6858
  857SOL    HW2 2571   0.099   2.747   1.029 -3.2350 -2.1352 -0.7233
  858SOL     OW 2572   2.382   2.067   1.669 -0.4346 -0.0390  0.8258
  858SOL    HW1 2573   2.296   2.012   1.658  1.1490  0.6751  0.3442
  858SOL    HW2 2574   2.459   2.017   1.631 -0.5184 -0.5051 -3.1392
  859SOL     OW 2575   2.399   0.522   1.026 -1.2974  0.2483 -0.3032
  859SOL    HW1 2576   2.475   0.564   0.966  0.9052 -0.4413 -0.7330
  859SOL    HW2 2577   2.438   0.472   1.108  0.9650 -2.9002 -0.0818
  860SOL     OW 2578   1.868   2.820   0.534 -0.7587  0.5486  0.0665
  860SOL    HW1 2579   1.866   2.757   0.449  0.8921 -0.5734 -1.5312
  860SOL    HW2 2580   1.885   2.919   0.504  0.8616 -1.6422  1.0266
  861SOL     OW 2581   0.952   2.501   2.892 -0.2761 -0.0184  0.2304
  861SOL    HW1 2582   1.044   2.522   2.855 -0.7944 -0.7461  0.9512
  861SOL    HW2 2583   0.922   2.565   2.969 -1.0543 -1.5378  0.8115
  862SOL     OW 2584   2.876   2.540   1.652  0.5947  0.3559 -0.1366
  862SOL    HW1 2585   2.970   2.547   1.692 -2.1498  1.1101  0.6435
  862SOL    HW2 2586   2.828   2.632   1.645  3.3878  3.0933  0.3369
  863SOL     OW 2587   1.819   2.726   0.286 -0.3082  0.4154  0.4324
  863SOL    HW1 2588   1.844   2.630   0.253 -0.4209  1.6816  0.6645
  863SOL    HW2 2589   1.720   2.732   0.306  1.7766 -1.8701 -0.3707
  864SOL     OW 2590   2.010   1.263   2.837 -0.4270  0.1410  0.4940
  864SOL    HW1 2591   1.976   1.191   2.771 -0.6392  1.9314 -1.9958
  864SOL    HW2 2592   2.059   1.338   2.781 -0.4903  1.3060 -3.1043
  865SOL     OW 2593   2.159   1.942   0.742  0.2757  0.1734 -0.0679
  865SOL    HW1 2594   2.235   1.878   0.774  1.0942 -1.5277 -1.3713
  865SOL    HW2 2595   2.089   1.968   0.817 -1.6087  1.4310  0.4440
  866SOL     OW 2596   2.932   2.997   1.024 -0.3603  0.4234 -0.0298
  866SOL    HW1 2597   2.913   3.067   0.949  0.4889 -0.3793  2.2151
  866SOL    HW2 2598   3.022   2.941   1.010  0.7795 -3.6596  0.1636
  867SOL     OW 2599   0.334   1.407   0.919 -0.6684  0.4372  0.2032
  867SOL    HW1 2600   0.334   1.352   0.825  1.3123  0.9172 -1.4740
  867SOL    HW2 2601   0.305   1.507   0.907 -2.0480 -0.5951  3.1901
  868SOL     OW 2602   0.776   1.833   2.054 -0.6447  0.0480  0.2721
  868SOL    HW1 2603   0.739   1.813   2.147  0.0239 -1.3902 -2.2610
  868SOL    HW2 2604   0.719   1.910   2.007 -1.3349 -2.6844  1.4355
  869SOL     OW 2605   2.615   1.914   1.685 -0.1910  0.2379  0.3570
  869SOL    HW1 2606   2.658   1.984   1.621  0.2594 -3.3567 -0.5517
  869SOL    HW2 2607   2.631   1.811   1.657 -0.5430 -2.2786 -0.5695
  870SOL     OW 2608   2.344   2.694   1.235 -0.2500  0.4588  0.6038
  870SOL    HW1 2609   2.332   2.593   1.256  2.6204 -0.9086 -0.6551
  870SOL    HW2 2610   2.449   2.712   1.210  2.1460  1.1815  0.0113
  871SOL     OW 2611   3.055   2.241   0.500  0.1162 -0.2270  0.4239
  871SOL    HW1 2612   2.998   2.228   0.587 -0.8914 -0.3381 -1.1343
  871SOL    HW2 2613   2.999   2.267   0.415 -1.7096  3.1916  2.5840
  872SOL     OW 2614   2.104   0.491   1.709 -0.2758 -0.0720  0.1089
  872SOL    HW1 2615   2.065   0.477   1.806  2.9006 -1.0074 -1.1780
  872SOL    HW2 2616   2.187   0.435   1.688 -0.5350 -1.2260 -0.2556
  873SOL     OW 2617   1.699   2.111   3.101 -0.1298  0.5207 -0.1073
  873SOL    HW1 2618   1.596   2.098   3.097  0.3591 -0.7188  0.9161
  873SOL    HW2 2619   1.739   2.160   3.019  0.1328 -0.9152  1.6275
  874SOL     OW 2620   0.666   2.456   0.736 -0.0636  0.2881  0.2706
  874SOL    HW1 2621   0.684   2.560   0.744  1.3279 -2.4521  0.6271
  874SOL    HW2 2622   0.743   2.395   0.775  1.4405 -2.1734 -1.2022
  875SOL     OW 2623   2.218   1.487   1.410 -0.4068 -0.1655  0.0307
  875SOL    HW1 2624   2.257   1.552   1.479  0.2940  0.1967 -2.8760
  875SOL    HW2 2625   2.270   1.486   1.316  2.5454  0.0034 -0.8823
  876SOL     OW 2626   0.049   2.263   2.626  0.5448  0.4314 -0.2058
  876SOL    HW1 2627   0.093   2.167   2.653 -0.2982 -2.1392 -0.4200
  876SOL    HW2 2628   0.095   2.335   2.683 -2.6046 -2.0209  0.7097
  877SOL     OW 2629   2.931   2.668   0.612  0.3610  0.5989 -0.2408
  877SOL    HW1 2630   2.921   2.773   0.611  1.4117  2.3841  0.8033
  877SOL    HW2 2631   3.004   2.642   0.680  1.5877  0.3109  1.8763
  878SOL     OW 2632   2.833   1.572   2.281 -0.6041 -0.6800 -0.3135
  878SOL    HW1 2633   2.772   1.655   2.256 -0.2713 -0.6590 -0.5387
  878SOL    HW2 2634   2.805   1.530   2.374  0.5373 -0.0541 -0.3448
  879SOL     OW 2635   2.435   0.064   1.200 -0.6484  0.4650  0.1171
  879SOL    HW1 2636   2.487  -0.026   1.213 -2.4908  0.9078 -0.5870
  879SOL    HW2 2637   2.340   0.042   1.167 -0.0542  0.2019  1.3276
  880SOL     OW 2638   0.713   0.551   2.274  0.2323  0.2293 -0.3063
  880SOL    HW1 2639   0.695   0.505   2.364  0.7142  1.2242 -0.6428
  880SOL    HW2 2640   0.754   0.489   2.202 -0.9451  0.5287 -1.3833
  881SOL     OW 2641   0.828   0.085   0.401 -0.4418 -0.1549  0.0313
  881SOL    HW1 2642   0.874  -0.009   0.410 -0.8405 -0.9544 -1.4621
  881SOL    HW2 2643   0.733   0.067   0.363  2.1440 -0.6908  1.2907
  882SOL     OW 2644   2.727   1.635   1.688  0.1951  0.6787 -0.2722
  882SOL    HW1 2645   2.816   1.592   1.653  1.9746 -1.9050  1.6178
  882SOL    HW2 2646   2.739   1.665   1.786 -2.1471 -1.1284 -2.9134
  883SOL     OW 2647   0.792   0.518   0.920  0.1983 -0.0074 -0.4707
  883SOL    HW1 2648   0.863   0.579   0.964 -0.7285 -1.1019 -0.2157
  883SOL    HW2 2649   0.707   0.501   0.978 -1.3393 -1.5413 -0.4903
  884SOL     OW 2650   1.148   1.785   1.138 -0.6372  0.1479  0.2659
  884SOL    HW1 2651   1.134   1.688   1.116 -1.6334  0.0290  3.0920
  884SOL    HW2 2652   1.102   1.856   1.072 -2.0489  1.6692 -1.7014
  885SOL     OW 2653   2.353   1.900   2.234 -0.7421 -0.4409  0.4945
  885SOL    HW1 2654   2.285   1.843   2.291  2.2546 -0.6462  2.0108
  885SOL    HW2 2655   2.351   2.002   2.250  2.4280 -1.3287  0.7078
  886SOL     OW 2656   2.592   0.384   1.757 -0.3078  0.4423  0.1703
  886SOL    HW1 2657   2.590   0.300   1.821  0.7107 -3.5474 -1.3647
  886SOL    HW2 2658   2.689   0.410   1.734 -1.0712 -2.5689 -2.3895
  887SOL     OW 2659   0.151   2.085   1.262 -0.1300 -0.7663  0.3990
  887SOL    HW1 2660   0.148   2.014   1.187  0.5916 -0.9966 -0.6944
  887SOL    HW2 2661   0.136   2.184   1.230 -0.5134  1.7070 -2.5680
  888SOL     OW 2662   0.604   1.223   1.501  0.3010 -0.2346  0.0548
  888SOL    HW1 2663   0.636   1.296   1.431 -0.3717 -1.3385  2.3869
  888SOL    HW2 2664   0.635   1.123   1.472  2.8474 -2.5381 -3.5952
  889SOL     OW 2665   0.860   2.447   2.238 -0.1759  0.3550 -0.1542
  889SOL    HW1 2666   0.768   2.408   2.260  0.7333  1.1365 -0.2619
  889SOL    HW2 2667   0.912   2.394   2.164  1.2872  1.2810 -1.1089
  890SOL     OW 2668   2.336   2.507   0.219 -0.5916  0.3011  0.3820
  890SOL    HW1 2669   2.365   2.591   0.172 -2.3887 -0.0459  0.3567
  890SOL    HW2 2670   2.252   2.514   0.270  2.1236  0.9788 -0.6666
  891SOL     OW 2671   2.565   1.677   0.707 -0.0611 -0.1865  0.0795
  891SOL    HW1 2672   2.541   1.661   0.805 -3.2484  0.7335 -2.1561
  891SOL    HW2 2673   2.477   1.669   0.651 -1.1270 -0.0332  1.0206
  892SOL     OW 2674   0.349   0.399   2.204 -0.0524 -0.1769  0.4845
  892SOL    HW1 2675   0.343   0.463   2.122 -0.8760 -1.4486 -2.1039
  892SOL    HW2 2676   0.425   0.328   2.195 -1.6386  0.1887  1.8432
  893SOL     OW 2677   1.695   0.246   2.752  0.5734  0.1680 -0.7499
  893SOL    HW1 2678   1.772   0.305   2.779 -1.6283 -1.4732  1.4334
  893SOL    HW2 2679   1.625   0.311   2.714  1.6084  0.0873 -1.1591
  894SOL     OW 2680   2.149   2.092   0.100 -0.3853  0.8287  0.2125
  894SOL    HW1 2681   2.147   2.034   0.014 -0.3991  0.6857 -0.4774
  894SOL    HW2 2682   2.163   2.034   0.186  1.6228 -1.4435  0.6699
  895SOL     OW 2683   2.725   1.438   0.952  0.0783  0.4517  0.6012
  895SOL    HW1 2684   2.814   1.385   0.960  1.5317 -1.6100  0.8371
  895SOL    HW2 2685   2.736   1.542   0.949  2.1968 -1.8494 -1.0130
  896SOL     OW 2686   1.790   1.837   1.234 -0.1727  0.9334 -0.3171
  896SOL    HW1 2687   1.889   1.813   1.216  0.2525  0.1479  0.3928
  896SOL    HW2 2688   1.726   1.775   1.175  1.9522 -2.1273 -1.9125
  897SOL     OW 2689   0.241   0.530   3.002  0.5185 -0.0406  0.1432
  897SOL    HW1 2690   0.173   0.575   2.938  0.5592 -0.5040 -1.8607
  897SOL    HW2 2691   0.332   0.576   3.012  1.6278  1.8191  2.9539
  898SOL     OW 2692   0.701   2.822   1.079 -0.3814  0.0305  0.1648
  898SOL    HW1 2693   0.760   2.908   1.070  2.2009 -1.1322  1.2826
  898SOL    HW2 2694   0.713   2.770   1.169 -0.1799 -0.2085 -1.9312
  899SOL     OW 2695   2.870   0.954   1.388 -0.3501 -0.2765  0.9204
  899SOL    HW1 2696   2.845   1.011   1.304 -0.8649  1.3770 -2.1753
  899SOL    HW2 2697   2.967   0.971   1.421  2.3068  0.9646  0.2708
  900SOL     OW 2698   1.020   2.432   2.467  0.2959 -0.2586  0.2728
  900SOL    HW1 2699   0.970   2.423   2.375  1.9621  0.4982  1.2489
  900SOL    HW2 2700   0.992   2.365   2.545  0.7303 -0.1182 -0.7651
  901SOL     OW 2701   1.904   2.458   1.431  0.6551 -0.0094 -0.3261
  901SOL    HW1 2702   1.882   2.401   1.349 -0.9056  0.8092 -0.1404
  901SOL    HW2 2703   1.998   2.446   1.461  1.6247  3.5113 -1.8112
  902SOL     OW 2704   2.532   1.663   1.468  0.0457 -0.1974  0.2008
  902SOL    HW1 2705   2.592   1.638   1.549  1.6397  0.5414  0.8202
  902SOL    HW2 2706   2.558   1.615   1.380  0.0246 -0.0645  1.7820
  903SOL     OW 2707   0.338   2.437   2.009  0.2668  0.4953 -0.0078
  903SOL    HW1 2708   0.266   2.363   2.027  1.1604  0.7089  1.0008
  903SOL    HW2 2709   0.314   2.500   1.930  1.3979  0.8668 -1.7386
  904SOL     OW 2710   2.015   0.774   2.449 -0.2426 -0.6974  0.2817
  904SOL    HW1 2711   1.942   0.730   2.509  0.3804  0.5127  0.3295
  904SOL    HW2 2712   2.000   0.751   2.350 -1.3610 -1.1241  2.0165
  905SOL     OW 2713   2.823   0.076   2.410  0.4090 -0.1175  0.1721
  905SOL    HW1 2714   2.883  -0.006   2.430 -1.3997  1.8183  0.4513
  905SOL    HW2 2715   2.861   0.164   2.448 -0.9924 -1.5997  1.3832
  906SOL     OW 2716   0.157   1.727   1.895 -0.2463  0.0213 -0.5991
  906SOL    HW1 2717   0.124   1.722   1.799  0.1356 -0.1711  1.2649
  906SOL    HW2 2718   0.243   1.781   1.905 -1.3944 -3.9551  0.7116
  907SOL     OW 2719   0.236   2.517   0.995  0.0960  0.2123 -0.2079
  907SOL    HW1 2720   0.328   2.472   0.975  2.4024  1.6374  1.6993
  907SOL    HW2 2721   0.215   2.601   0.935  0.3934  0.7260 -0.4101
  908SOL     OW 2722   2.820   3.028   0.332  0.1068  0.1922 -0.5455
  908SOL    HW1 2723   2.730   3.006   0.286  1.8226 -0.5838  1.2190
  908SOL    HW2 2724   2.873   2.940   0.340  0.1992  0.1248 -2.1191
  909SOL     OW 2725   0.836   1.029   2.662 -0.4762  0.2061 -0.3452
  909SOL    HW1 2726   0.789   0.936   2.644  1.7763 -1.9410  1.0883
  909SOL    HW2 2727   0.909   1.051   2.591  1.2175  1.3381 -1.7765
  910SOL     OW 2728   1.782   1.883   2.145  0.0834 -0.0547 -0.3111
  910SOL    HW1 2729   1.848   1.917   2.073  0.1687 -4.3852  0.5337
  910SOL    HW2 2730   1.713   1.956   2.169 -0.7220 -2.8622  0.5426
  911SOL     OW 2731   1.765   2.943   1.492  0.2979  1.0011  0.1183
  911SOL    HW1 2732   1.857   2.915   1.451  1.0145  1.1305 -2.3967
  911SOL    HW2 2733   1.733   2.866   1.551 -1.1827  0.5168 -1.3056
  912SOL     OW 2734   2.858   1.044   0.718 -0.0605 -0.1419 -0.7755
  912SOL    HW1 2735   2.905   1.017   0.808 -0.3605  0.3236 -1.5054
  912SOL    HW2 2736   2.780   1.108   0.734  1.6697 -0.9991  1.8914
  913SOL     OW 2737   2.618   1.286   1.571 -0.5507  0.2645  0.0483
  913SOL    HW1 2738   2.615   1.183   1.592  0.6177 -2.0808 -0.4104
  913SOL    HW2 2739   2.647   1.312   1.473 -0.2510  2.0509 -0.1975
  914SOL     OW 2740   2.785   0.601   1.163  0.4003 -0.5384 -0.5663
  914SOL    HW1 2741   2.745   0.514   1.209 -1.8560 -0.9329  0.6953
  914SOL    HW2 2742   2.710   0.675   1.148 -2.7600  1.5739  0.8642
  915SOL     OW 2743   1.175   0.770   0.929  0.1736 -0.1773  0.2921
  915SOL    HW1 2744   1.220   0.778   1.026 -0.8832  1.4988  1.6004
  915SOL    HW2 2745   1.075   0.787   0.934  2.7676  1.2974 -1.3167
  916SOL     OW 2746   0.618   0.131   0.617 -0.4289  0.6107 -0.0727
  916SOL    HW1 2747   0.697   0.189   0.643 -1.7043 -0.7904  1.5621
  916SOL    HW2 2748   0.549   0.183   0.570  4.0024  0.4593  0.2927
  917SOL     OW 2749   2.909   2.583   2.009 -0.2302 -0.4435  0.1409
  917SOL    HW1 2750   2.815   2.606   1.967 -2.0364 -1.5878 -0.1778
  917SOL    HW2 2751   2.979   2.660   1.986  2.2424  3.2652 -0.7943
  918SOL     OW 2752   1.010   2.133   3.022 -0.0360  0.3235 -0.2549
  918SOL    HW1 2753   1.023   2.199   3.106 -0.2036  1.8258 -0.2914
  918SOL    HW2 2754   1.085   2.138   2.949  0.8331 -1.3351 -0.0582
  919SOL     OW 2755   0.873   1.673   2.782  0.3177  0.6865 -0.3740
  919SOL    HW1 2756   0.880   1.772   2.743 -0.7358  0.5213 -1.9849
  919SOL    HW2 2757   0.840   1.604   2.709  0.3903  1.4743 -1.7895
  920SOL     OW 2758   1.299   1.785   2.502 -0.4254 -0.4488 -0.2193
  920SOL    HW1 2759   1.394   1.769   2.459  1.2578  1.0054  0.6739
  920SOL    HW2 2760   1.277   1.732   2.586 -0.7747  0.5595 -0.5371
  921SOL     OW 2761   1.150   0.039   2.610 -0.2385  0.2022  0.2047
  921SOL    HW1 2762   1.143   0.054   2.509 -0.8349 -3.1195  2.4479
  921SOL    HW2 2763   1.063   0.077   2.656 -2.0218  1.2442  0.5634
  922SOL     OW 2764   2.180   2.428   2.774 -0.1664  0.0324 -0.4100
  922SOL    HW1 2765   2.137   2.337   2.789 -0.1111 -0.0329 -1.2619
  922SOL    HW2 2766   2.131   2.480   2.699 -0.5786 -0.3789  5.8556
  923SOL     OW 2767   1.273   2.740   0.270  0.8107 -0.3391 -0.0288
  923SOL    HW1 2768   1.336   2.812   0.313  0.2548 -1.2895 -0.0120
  923SOL    HW2 2769   1.304   2.640   0.282 -1.2473  0.1533 -0.0228
  924SOL     OW 2770   2.941   1.699   0.139 -0.0909 -0.1114 -0.4486
  924SOL    HW1 2771   2.859   1.660   0.101  0.9261 -0.1625  1.1762
  924SOL    HW2 2772   3.022   1.632   0.148 -1.1196  1.6157 -0.2098
  925SOL     OW 2773   0.012   2.869   1.505 -0.2171  0.1377  0.1475
  925SOL    HW1 2774  -0.061   2.849   1.573  0.9236 -0.6053 -1.2594
  925SOL    HW2 2775  -0.015   2.812   1.419 -3.7541  1.8985 -1.5611
  926SOL     OW 2776   1.279   2.814   1.304 -0.4189 -0.1365 -0.0726
  926SOL    HW1 2777   1.330   2.804   1.211  2.9403  0.5111 -1.4490
  926SOL    HW2 2778   1.322   2.893   1.357  0.0028 -0.0202  0.6784
  927SOL     OW 2779   0.381   2.665   1.769  0.0682  0.1939 -0.4958
  927SOL    HW1 2780   0.366   2.589   1.700  1.0645  2.0133 -0.8039
  927SOL    HW2 2781   0.327   2.752   1.754 -0.4642 -0.3475  1.4327
  928SOL     OW 2782   1.579   2.071   2.231 -0.1993 -0.0908  0.2719
  928SOL    HW1 2783   1.596   2.160   2.178 -0.0111  1.4831 -1.3492
  928SOL    HW2 2784   1.476   2.055   2.237 -0.1714 -0.9947 -1.0681
  929SOL     OW 2785   2.452   2.482   2.874  0.3730 -0.2025 -0.4640
  929SOL    HW1 2786   2.361   2.458   2.828 -3.4904  1.1029  2.2414
  929SOL    HW2 2787   2.527   2.496   2.802 -2.6404 -1.4267 -0.0531
  930SOL     OW 2788   2.189   2.045   1.101 -0.0256 -0.2552 -0.1485
  930SOL    HW1 2789   2.179   2.043   1.205 -1.6825 -2.0253 -2.4081
  930SOL    HW2 2790   2.256   2.114   1.068  0.2712  0.8776 -0.7140
  931SOL     OW 2791   0.493   1.706   2.608  0.2609  0.1901  0.5500
  931SOL    HW1 2792   0.527   1.738   2.700 -1.1788  1.3075  2.2932
  931SOL    HW2 2793   0.574   1.683   2.548  2.0075  2.3194 -1.7415
  932SOL     OW 2794   0.377   0.015   0.035 -0.6463  0.1699 -0.4466
  932SOL    HW1 2795   0.441   0.095   0.011 -0.0716 -0.9464  2.4207
  932SOL    HW2 2796   0.399  -0.073  -0.022  0.4658 -0.9511 -0.9462
  933SOL     OW 2797   1.007   0.838   3.046 -0.3281  0.3014 -0.0359
  933SOL    HW1 2798   1.077   0.863   3.119  0.6325  0.6937  0.6449
  933SOL    HW2 2799   0.915   0.875   3.063 -0.2500 -1.0347 -1.6927
  934SOL     OW 2800   0.784   2.946   2.630 -0.7824 -0.9330  0.3985
  934SOL    HW1 2801   0.784   2.882   2.552 -0.9140 -0.5314 -0.5794
  934SOL    HW2 2802   0.824   2.912   2.721 -2.8822  0.6477 -0.0508
  935SOL     OW 2803   0.029   0.559   0.827  0.4536 -0.6243 -0.1635
  935SOL    HW1 2804   0.006   0.516   0.732  1.0875 -2.2256 -2.9799
  935SOL    HW2 2805  -0.039   0.630   0.858  2.2885 -0.9890 -0.8800
  936SOL     OW 2806   1.116   2.858   0.063 -0.1300  0.1118 -0.2522
  936SOL    HW1 2807   1.173   2.892  -0.015 -0.1779  1.6036 -0.9806
  936SOL    HW2 2808   1.177   2.817   0.138  0.1571  0.8256  1.8207
  937SOL     OW 2809   2.002   2.617   2.047  0.5137 -0.1128  0.1122
  937SOL    HW1 2810   1.956   2.655   2.132 -0.7188  2.0616  0.0135
  937SOL    HW2 2811   1.987   2.680   1.968  0.4500 -3.2903  0.0987
  938SOL     OW 2812   2.787   2.086   1.570 -0.0421 -0.3030 -0.3947
  938SOL    HW1 2813   2.757   2.186   1.582 -2.0855 -1.0861 -0.1257
  938SOL    HW2 2814   2.876   2.062   1.623  0.5012 -1.2612 -2.3665
  939SOL     OW 2815   2.835   1.151   2.487 -0.3672  0.1968  0.0360
  939SOL    HW1 2816   2.928   1.134   2.443 -0.3195 -0.3443 -1.2145
  939SOL    HW2 2817   2.817   1.107   2.581  0.3836  1.0104  0.0199
  940SOL     OW 2818   1.095   0.450   2.741  0.1163 -0.0587 -0.4826
  940SOL    HW1 2819   1.164   0.372   2.751 -1.7771  0.8861  2.9298
  940SOL    HW2 2820   1.019   0.439   2.669 -2.0720  1.6655 -2.7471
  941SOL     OW 2821   0.071   2.800   2.272 -0.4732  0.0392  0.4678
  941SOL    HW1 2822   0.127   2.711   2.272  1.6763 -1.6682  0.5866
  941SOL    HW2 2823   0.136   2.881   2.303 -1.6931  0.4129  2.6701
  942SOL     OW 2824   0.090   0.074   2.516 -0.3307 -0.2974  0.3693
  942SOL    HW1 2825   0.156   0.099   2.592  1.1909  0.8724 -1.4321
  942SOL    HW2 2826   0.073   0.148   2.445 -0.1834 -3.3603 -1.9353
  943SOL     OW 2827   2.132   1.706   2.349  0.2734  0.1289 -0.6039
  943SOL    HW1 2828   2.132   1.658   2.252  0.8490 -1.9814  1.5053
  943SOL    HW2 2829   2.147   1.644   2.434  1.7109 -1.2146  2.3772
  944SOL     OW 2830   2.157   2.365   1.523 -0.3574  0.4478 -0.4260
  944SOL    HW1 2831   2.241   2.368   1.578  0.1945  0.6286 -1.4266
  944SOL    HW2 2832   2.087   2.294   1.550  1.3161  0.8257 -1.4045
  945SOL     OW 2833   0.718   1.595   0.078  0.1606 -0.0016 -0.2367
  945SOL    HW1 2834   0.634   1.576   0.015 -0.2597  0.0178 -0.4177
  945SOL    HW2 2835   0.720   1.530   0.157 -1.1886  1.0889  0.7564
  946SOL     OW 2836   0.304   1.028   2.612  0.1863  0.0030 -0.7102
  946SOL    HW1 2837   0.280   0.934   2.577 -1.4433  0.2332  0.0453
  946SOL    HW2 2838   0.371   1.081   2.551 -1.2321  1.0434  0.2200
  947SOL     OW 2839   1.478   0.541   3.046  0.0749  0.7359  0.4856
  947SOL    HW1 2840   1.467   0.587   2.950  1.6651 -1.6724 -3.8291
  947SOL    HW2 2841   1.384   0.504   3.076 -3.4108 -0.4889 -2.3200
  948SOL     OW 2842   1.921   2.958   2.183 -0.1113 -0.3327  0.4687
  948SOL    HW1 2843   1.927   2.937   2.081 -1.7370 -1.5244  0.0326
  948SOL    HW2 2844   1.917   2.868   2.241 -0.8740  2.6646 -0.6930
  949SOL     OW 2845   0.610   2.430   0.467  0.2274 -0.3124  0.0923
  949SOL    HW1 2846   0.610   2.538   0.457 -0.1897  3.1262  1.4617
  949SOL    HW2 2847   0.623   2.411   0.569 -1.0608  1.9323 -0.4562
  950SOL     OW 2848   0.213   2.188   2.951  0.6125  0.1319  0.1961
  950SOL    HW1 2849   0.209   2.281   2.912  0.6202 -2.5902  1.9094
  950SOL    HW2 2850   0.198   2.109   2.887 -0.9023  1.2137 -0.5556
  951SOL     OW 2851   1.176   2.672   2.800  0.3279  0.0043 -0.2962
  951SOL    HW1 2852   1.234   2.618   2.872  0.2428 -1.9680  1.0471
  951SOL    HW2 2853   1.227   2.691   2.714 -1.8278 -2.3596  0.3827
  952SOL     OW 2854   0.114   1.632   0.421  0.2187 -0.3289 -0.5726
  952SOL    HW1 2855   0.144   1.726   0.456  0.0842  0.2591  1.3907
  952SOL    HW2 2856   0.117   1.566   0.498  0.1701 -1.2825 -5.4692
  953SOL     OW 2857   2.543   1.725   0.292 -0.3648 -0.2284  0.3942
  953SOL    HW1 2858   2.530   1.622   0.266  0.5549 -2.2054  0.6561
  953SOL    HW2 2859   2.539   1.793   0.219 -2.0796 -2.5286  2.4419
  954SOL     OW 2860   2.169   0.564   0.906 -0.4880  0.2825 -0.0752
  954SOL    HW1 2861   2.191   0.560   0.806  1.1376  1.1003  2.4981
  954SOL    HW2 2862   2.255   0.544   0.955  0.6155 -2.2134 -2.2668
  955SOL     OW 2863   0.123   2.532   1.367  0.0867 -0.4571 -0.3795
  955SOL    HW1 2864   0.026   2.565   1.345  0.3808  1.0367 -1.0249
  955SOL    HW2 2865   0.183   2.610   1.345  0.0426 -1.1972 -1.5560
  956SOL     OW 2866   2.837   2.497   2.509 -0.1657 -0.0585 -0.2116
  956SOL    HW1 2867   2.841   2.392   2.506  0.7345  0.1714  3.0177
  956SOL    HW2 2868   2.879   2.543   2.428  0.4817  0.2996  1.9508
  957SOL     OW 2869   1.634   2.062   2.759 -0.2232 -0.5191 -0.1145
  957SOL    HW1 2870   1.598   2.007   2.838 -0.2668 -0.3015  0.0489
  957SOL    HW2 2871   1.711   2.019   2.701 -0.0713 -0.9858  2.1630
  958SOL     OW 2872   2.647   2.294   2.911 -0.2778  0.5267 -1.0330
  958SOL    HW1 2873   2.566   2.353   2.892  1.2388  0.3545  0.0972
  958SOL    HW2 2874   2.662   2.271   3.014 -1.0898 -2.4421  1.5775
  959SOL     OW 2875   0.342   2.757   0.132 -0.1213  0.1607 -0.4254
  959SOL    HW1 2876   0.268   2.819   0.167  2.1094 -2.3594 -1.7365
  959SOL    HW2 2877   0.336   2.658   0.166  2.6218 -1.7757 -1.5452
  960SOL     OW 2878   1.960   0.452   1.947 -0.1590 -0.5023 -0.2842
  960SOL    HW1 2879   1.922   0.541   1.915  0.3814 -0.6777  2.1964
  960SOL    HW2 2880   1.969   0.450   2.052  2.1640  0.8467  2.6621
  961SOL     OW 2881   2.538   1.867   1.028  0.1238 -0.3787 -0.7474
  961SOL    HW1 2882   2.558   1.960   0.981  0.0154  0.8373 -1.0993
  961SOL    HW2 2883   2.548   1.864   1.131 -1.3711  1.8603  0.0363
  962SOL     OW 2884   1.278   0.844   0.051  0.0051 -0.7170  0.3369
  962SOL    HW1 2885   1.269   0.870  -0.055 -1.0073 -0.0628 -2.3570
  962SOL    HW2 2886   1.282   0.926   0.116  2.0186  0.9069  0.6026
  963SOL     OW 2887   2.288   2.574   1.827  0.3687  0.1352  0.6304
  963SOL    HW1 2888   2.262   2.474   1.847  1.5146 -2.8761  1.6385
  963SOL    HW2 2889   2.331   2.620   1.906  1.0824 -1.0424 -0.1008
  964SOL     OW 2890   2.364   0.319   1.658  0.2955 -0.2023 -0.0695
  964SOL    HW1 2891   2.452   0.333   1.702 -1.5660  3.0416  0.6207
  964SOL    HW2 2892   2.357   0.374   1.572  0.9063 -0.7633 -1.8017
  965SOL     OW 2893   2.600   2.958   0.143 -0.0449 -0.2502  0.1682
  965SOL    HW1 2894   2.666   2.937   0.066 -2.0350 -0.1470  0.0540
  965SOL    HW2 2895   2.516   3.008   0.114  0.6871 -0.5077  1.3864
  966SOL     OW 2896   2.485   2.502   2.223 -0.1140  0.1547 -0.5764
  966SOL    HW1 2897   2.504   2.597   2.185  1.2185  0.8833 -0.3738
  966SOL    HW2 2898   2.404   2.455   2.183  0.6652  0.1967  1.7174
  967SOL     OW 2899   2.747   2.844   2.460 -0.0884 -0.3197 -0.0092
  967SOL    HW1 2900   2.770   2.762   2.405 -0.9096  0.2964 -0.7715
  967SOL    HW2 2901   2.833   2.899   2.481  0.5521 -0.7491 -3.7992
  968SOL     OW 2902   1.938   1.041   2.618 -0.0474 -0.0179 -0.0708
  968SOL    HW1 2903   1.853   1.099   2.588 -1.9303  1.4556  0.0898
  968SOL    HW2 2904   1.962   0.963   2.556  1.8843 -2.2572  2.4490
  969SOL     OW 2905   2.822   2.556   1.103 -0.1453 -0.9146 -0.4544
  969SOL    HW1 2906   2.814   2.561   1.001 -0.2252 -1.3274  0.1440
  969SOL    HW2 2907   2.841   2.461   1.136 -1.6550  0.0208 -0.5682
  970SOL     OW 2908   1.139   2.132   1.878 -0.1047  1.2047  0.6513
  970SOL    HW1 2909   1.102   2.047   1.927 -0.2891  1.2386 -3.1164
  970SOL    HW2 2910   1.085   2.220   1.905  1.3163  2.8955  2.8990
  971SOL     OW 2911   2.846   2.084   1.928  0.0462 -0.2214  0.2514
  971SOL    HW1 2912   2.881   2.176   1.957  0.7185  0.0251 -3.2785
  971SOL    HW2 2913   2.905   2.047   1.854 -1.3570 -2.3068  1.1725
  972SOL     OW 2914   1.925   2.485   0.230 -0.0002  0.6972  0.8210
  972SOL    HW1 2915   1.952   2.402   0.170 -0.9564 -1.3724 -3.4190
  972SOL    HW2 2916   1.945   2.480   0.334 -1.8369 -0.7904 -0.0631
  973SOL     OW 2917   1.157   0.880   1.878  0.2353 -0.4957  0.1018
  973SOL    HW1 2918   1.106   0.794   1.895  1.6904  2.1144  1.3723
  973SOL    HW2 2919   1.099   0.955   1.832 -1.7129 -2.4786 -2.3097
  974SOL     OW 2920   1.598   0.596   2.000  0.2220  0.3237  0.1371
  974SOL    HW1 2921   1.683   0.646   1.962  1.3391 -1.3606  0.9535
  974SOL    HW2 2922   1.509   0.650   1.983  1.0109  0.2309  1.0876
  975SOL     OW 2923   2.366   3.018   3.076 -0.8824 -0.5701 -0.1698
  975SOL    HW1 2924   2.314   2.960   3.142  0.5787 -1.7283  1.3574
  975SOL    HW2 2925   2.418   2.967   3.002 -1.0639  0.2728 -1.0963
  976SOL     OW 2926   1.902   2.729   2.335 -0.3390  1.0635  0.0257
  976SOL    HW1 2927   1.804   2.690   2.340  0.9344 -1.3226 -0.3090
  976SOL    HW2 2928   1.930   2.772   2.424 -2.5335 -0.5576  1.3793
  977SOL     OW 2929   0.465   0.699   1.030 -0.1477 -0.4916  0.0917
  977SOL    HW1 2930   0.395   0.671   0.954  2.1759 -0.2344  0.6173
  977SOL    HW2 2931   0.550   0.753   0.995  1.8699  0.0870  1.4065
   3.10000   3.10000   3.10000
