1000 SPC/Fw water molecules t=   0.32000 step= 320
 2931
    1SOL     OW    1   2.542   0.307   2.542 -0.2363  0.2753  0.0000
    1SOL    HW1    2   2.563   0.211   2.517 -0.0754 -0.3863  0.1303
    1SOL    HW2    3   2.538   0.325   2.644 -2.3904 -1.4117 -0.3190
    2SOL     OW    4   2.726   3.022   1.383 -0.4023  0.0397  0.0941
    2SOL    HW1    5   2.817   3.069   1.347  3.5331 -0.5344 -1.2611
    2SOL    HW2    6   2.666   3.082   1.440 -1.3962  0.9784  0.2664
    3SOL     OW    7   2.697   2.584   0.427  0.1911 -0.4089 -0.1993
    3SOL    HW1    8   2.648   2.493   0.414 -1.0532  0.4430 -1.8671
    3SOL    HW2    9   2.768   2.580   0.501  0.5601  2.4125  0.1103
    4SOL     OW   10   1.338   1.494   2.387  0.1073  0.0134 -0.3348
    4SOL    HW1   11   1.249   1.540   2.372  0.6384 -2.3432  1.0130
    4SOL    HW2   12   1.328   1.401   2.430  0.9640 -0.1505  2.5003
    5SOL     OW   13   1.221   1.492   3.018 -0.3160 -0.1316 -0.1563
    5SOL    HW1   14   1.259   1.556   3.092 -0.6024  0.7184 -0.7208
    5SOL    HW2   15   1.121   1.508   3.006  1.9094  1.0042  1.6391
    6SOL     OW   16   0.015   1.812   2.911 -0.4440 -0.2990 -0.5349
    6SOL    HW1   17   0.006   1.857   3.006  1.1316  2.1526 -1.5708
    6SOL    HW2   18  -0.009   1.709   2.919  1.9638 -2.5252 -0.4296
    7SOL     OW   19   2.572   0.875   1.151 -0.4706  1.0540 -0.3304
    7SOL    HW1   20   2.466   0.848   1.157 -2.6617 -0.2285 -0.3999
    7SOL    HW2   21   2.597   0.893   1.052  1.5762 -0.5848 -0.3487
    8SOL     OW   22   0.448   0.647   1.568 -0.6355 -0.6070 -0.2262
    8SOL    HW1   23   0.525   0.581   1.595 -0.5971 -0.2154 -0.2791
    8SOL    HW2   24   0.374   0.603   1.506  1.4702  0.1409 -0.9852
    9SOL     OW   25   1.185   0.971   2.278 -0.3195  0.1458  0.0018
    9SOL    HW1   26   1.235   1.050   2.230  0.8945 -0.3417  3.0845
    9SOL    HW2   27   1.158   0.893   2.219 -1.4331 -2.7640 -2.1682
   10SOL     OW   28   0.725   1.310   1.234  0.9993  0.0468 -0.0840
   10SOL    HW1   29   0.641   1.375   1.215 -2.2774  0.6265 -1.6425
   10SOL    HW2   30   0.808   1.365   1.255 -0.6569 -2.7303 -1.2141
   11SOL     OW   31   2.349   2.609   0.942 -0.1554  0.4220  0.2105
   11SOL    HW1   32   2.324   2.610   1.040 -1.5611  0.5257 -1.0175
   11SOL    HW2   33   2.450   2.581   0.935  2.5717  0.7279 -0.6935
   12SOL     OW   34   1.448   0.889   0.428 -0.2773  0.0759 -0.1479
   12SOL    HW1   35   1.434   0.926   0.332  1.8383  1.5464 -0.9765
   12SOL    HW2   36   1.446   0.786   0.439  2.2955  0.2032 -0.0510
   13SOL     OW   37   2.521   0.643   1.833 -0.1294  0.3315  0.1763
   13SOL    HW1   38   2.426   0.682   1.846 -1.1869  1.1754  0.5580
   13SOL    HW2   39   2.528   0.552   1.785  0.0400  0.5797 -0.0450
   14SOL     OW   40   1.933   3.100   0.621  0.3927  0.5301  0.5370
   14SOL    HW1   41   1.845   3.153   0.591  0.3054 -0.4142  1.3200
   14SOL    HW2   42   1.912   3.024   0.691 -1.9605  0.0786  0.6930
   15SOL     OW   43   1.965   2.018   2.862  0.2623 -0.4354 -0.1279
   15SOL    HW1   44   1.906   2.104   2.881 -1.3951 -0.3802  0.5010
   15SOL    HW2   45   1.924   1.955   2.791 -1.0177  0.0603  0.5450
   16SOL     OW   46   1.637   1.711   0.023 -0.0972  0.7320 -0.3537
   16SOL    HW1   47   1.644   1.608   0.010 -1.1546  0.3593  1.0007
   16SOL    HW2   48   1.717   1.754   0.072  1.6530  0.5107 -2.6069
   17SOL     OW   49   0.132   0.428   0.162 -0.2778  0.4535  0.0260
   17SOL    HW1   50   0.216   0.484   0.149 -0.8386  0.5964  0.1624
   17SOL    HW2   51   0.068   0.424   0.080  1.7718  1.2135 -1.0447
   18SOL     OW   52   1.000   2.911   2.211 -0.7796 -0.3513 -0.0111
   18SOL    HW1   53   0.913   2.881   2.172 -0.3605  0.3449 -0.3794
   18SOL    HW2   54   1.081   2.911   2.142 -1.2982  2.0319 -0.9406
   19SOL     OW   55   0.478   0.927   1.959  0.2793 -0.6318  0.2884
   19SOL    HW1   56   0.463   0.991   2.039  1.6036  2.1482 -3.1050
   19SOL    HW2   57   0.569   0.884   1.964 -0.9012  1.2554  1.3684
   20SOL     OW   58   0.219   2.783   0.875 -0.1284  0.4917 -0.8923
   20SOL    HW1   59   0.142   2.844   0.834 -0.2511 -0.2294 -0.6685
   20SOL    HW2   60   0.290   2.762   0.803 -1.7720 -2.3400  0.6494
   21SOL     OW   61   2.770   0.182   2.140 -0.5037  0.4563  0.0494
   21SOL    HW1   62   2.793   0.110   2.072  0.3595  0.6864  0.9255
   21SOL    HW2   63   2.753   0.145   2.232 -0.4565  2.4670 -1.3895
   22SOL     OW   64   2.322   0.187   3.077 -0.3332 -0.0059  0.2322
   22SOL    HW1   65   2.340   0.087   3.062  0.9195 -1.8857 -1.2383
   22SOL    HW2   66   2.222   0.213   3.088  0.0757  0.4559  0.8831
   23SOL     OW   67   2.788   0.668   0.658  0.3079  0.1591 -0.4393
   23SOL    HW1   68   2.774   0.578   0.613  2.4914 -0.4300 -0.7679
   23SOL    HW2   69   2.734   0.742   0.605  0.1125  1.0016  2.3608
   24SOL     OW   70   0.191   1.902   0.452 -0.3788 -0.2417 -0.1563
   24SOL    HW1   71   0.096   1.932   0.412 -1.8680  1.7032 -0.2494
   24SOL    HW2   72   0.262   1.928   0.377  0.2402 -1.1617 -2.2482
   25SOL     OW   73   2.256   0.482   0.185 -0.1010 -0.4914 -0.3462
   25SOL    HW1   74   2.301   0.388   0.196  0.2089  1.0831  2.7014
   25SOL    HW2   75   2.220   0.501   0.092 -1.7662  1.2713  2.8026
   26SOL     OW   76   2.505   2.191   2.108 -0.4277  0.3010  0.0165
   26SOL    HW1   77   2.586   2.241   2.145 -1.1674  1.1414  0.1635
   26SOL    HW2   78   2.524   2.093   2.072 -0.2773 -0.2345 -0.3703
   27SOL     OW   79   0.685   2.950   0.094 -0.2998 -0.4446  0.1005
   27SOL    HW1   80   0.779   2.992   0.090  1.0424 -2.5175  1.6112
   27SOL    HW2   81   0.638   2.969   0.004  1.2757 -0.8786 -0.2190
   28SOL     OW   82   1.574   0.162   0.279  0.1909 -0.4470  0.4360
   28SOL    HW1   83   1.622   0.112   0.202  0.6620 -0.0331  0.1247
   28SOL    HW2   84   1.617   0.260   0.294  0.1199  0.2143  1.9202
   29SOL     OW   85   2.029   0.600   0.285  0.4462 -0.3684  0.9257
   29SOL    HW1   86   2.030   0.691   0.334  1.6112  3.7748  1.1826
   29SOL    HW2   87   2.125   0.564   0.263 -0.9141  1.0162  0.3022
   30SOL     OW   88   0.136   2.043   0.949 -0.7216 -0.3433 -0.3410
   30SOL    HW1   89   0.146   2.067   0.849  1.4625 -3.0831  1.3189
   30SOL    HW2   90   0.053   2.086   0.997  0.9487 -1.2478  3.0112
   31SOL     OW   91   2.115   0.017   2.289  0.1695 -0.3875  0.0862
   31SOL    HW1   92   2.132  -0.004   2.388  2.0478 -0.8039  0.1121
   31SOL    HW2   93   2.020  -0.013   2.257  0.3368 -1.1428 -1.6500
   32SOL     OW   94   2.901   0.143   0.130 -0.3164  0.2561  0.1615
   32SOL    HW1   95   2.866   0.072   0.198  0.9029  2.5252  0.4570
   32SOL    HW2   96   2.992   0.177   0.152  0.5054 -0.0238 -0.2425
   33SOL     OW   97   0.966   0.324   0.460  0.0350 -0.3484  0.5204
   33SOL    HW1   98   0.912   0.232   0.438 -0.1715 -4.9740  0.4290
   33SOL    HW2   99   1.031   0.308   0.534 -0.8663 -1.0739 -0.8776
   34SOL     OW  100   0.423   2.879   1.061 -0.0011 -0.2887  0.3652
   34SOL    HW1  101   0.390   2.866   0.964  1.1982 -0.7552 -0.5031
   34SOL    HW2  102   0.523   2.853   1.075  0.9006 -0.4897 -2.3061
   35SOL     OW  103   0.045   0.041   1.849  0.4958  0.3068  0.4643
   35SOL    HW1  104   0.034  -0.057   1.871 -0.5201 -0.3482  0.0411
   35SOL    HW2  105   0.005   0.071   1.759  0.1011  1.8068 -1.3169
   36SOL     OW  106   1.942   1.158   1.810 -0.1666 -0.3253 -0.4203
   36SOL    HW1  107   2.002   1.109   1.744  2.6962  0.3231  1.1194
   36SOL    HW2  108   1.974   1.246   1.850 -0.7320  1.5720  1.1964
   37SOL     OW  109   1.170   0.254   0.935  0.4670 -0.2376  0.0014
   37SOL    HW1  110   1.209   0.346   0.960  0.6551 -1.1319 -2.7070
   37SOL    HW2  111   1.177   0.184   1.015  1.7064 -0.4448  0.1205
   38SOL     OW  112   1.109   2.671   2.400 -0.5993 -0.0220  0.4001
   38SOL    HW1  113   1.067   2.577   2.431  1.1289 -0.2708 -0.1739
   38SOL    HW2  114   1.048   2.751   2.409  0.1206  2.4055  1.3234
   39SOL     OW  115   2.323   1.418   3.010 -0.3788 -0.4471 -0.0874
   39SOL    HW1  116   2.416   1.378   3.021 -3.9108  0.3558  0.7012
   39SOL    HW2  117   2.271   1.416   3.098 -0.9147  0.5814 -1.4000
   40SOL     OW  118   2.113   2.548   2.514  0.4824 -0.1706 -0.7391
   40SOL    HW1  119   2.082   2.638   2.549  3.3157 -2.1326  0.5088
   40SOL    HW2  120   2.053   2.491   2.457 -0.0141  0.4094  2.0731
   41SOL     OW  121   2.923   0.718   2.735 -0.0787 -0.3052  0.2084
   41SOL    HW1  122   2.833   0.762   2.773  0.2968 -1.6156 -0.3674
   41SOL    HW2  123   2.933   0.618   2.762  0.7258  2.6631  0.2772
   42SOL     OW  124   1.789   1.741   0.611  0.0587 -0.0417 -0.2146
   42SOL    HW1  125   1.727   1.661   0.587 -2.6622  1.0918  1.7114
   42SOL    HW2  126   1.852   1.767   0.536 -2.6390 -0.4415  1.9278
   43SOL     OW  127   0.452   1.726   1.256 -0.5093  0.7034  0.1048
   43SOL    HW1  128   0.438   1.703   1.360  0.3651 -0.6940  2.3326
   43SOL    HW2  129   0.368   1.705   1.203 -1.7062  3.0619  1.3064
   44SOL     OW  130   1.757   2.550   0.015  0.5979  0.5061 -0.1456
   44SOL    HW1  131   1.787   2.596  -0.072 -0.0031  2.8114  1.3221
   44SOL    HW2  132   1.823   2.559   0.096 -3.0762  1.9399 -0.7884
   45SOL     OW  133   0.315   1.947   2.571 -1.0112 -0.3806  0.2685
   45SOL    HW1  134   0.249   1.948   2.490 -1.9774  1.7616  0.0020
   45SOL    HW2  135   0.365   1.857   2.586 -0.1142 -1.0448 -1.0125
   46SOL     OW  136   1.149   0.635   0.209 -0.0921 -0.1025  0.7042
   46SOL    HW1  137   1.219   0.699   0.165 -1.3983  2.9389  2.4687
   46SOL    HW2  138   1.070   0.682   0.259 -1.0057 -0.4646 -0.9430
   47SOL     OW  139   0.252   2.447   1.610  0.0081  0.3614  0.1594
   47SOL    HW1  140   0.319   2.374   1.590 -1.3994  1.4642 -1.2834
   47SOL    HW2  141   0.219   2.501   1.520 -1.4236  2.1089 -0.6597
   48SOL     OW  142   2.567   0.582   0.168  0.1447  0.1999 -0.2279
   48SOL    HW1  143   2.534   0.567   0.270 -3.3054 -1.2058  3.9814
   48SOL    HW2  144   2.640   0.649   0.149  0.7689  0.0084  0.0515
   49SOL     OW  145   0.340   0.830   1.745 -0.2952 -0.4950 -0.0006
   49SOL    HW1  146   0.408   0.874   1.810  0.6787 -2.9150  3.3747
   49SOL    HW2  147   0.386   0.752   1.690  0.2460  0.1731  0.2827
   50SOL     OW  148   1.712   1.082   0.376 -0.1555 -0.3944  0.8626
   50SOL    HW1  149   1.693   0.992   0.324  1.1581  1.2118  0.3114
   50SOL    HW2  150   1.658   1.088   0.460 -0.8677 -0.6991 -3.6940
   51SOL     OW  151   3.023   1.895   0.365 -0.1707 -0.1742 -0.0632
   51SOL    HW1  152   3.030   1.894   0.263  1.3667 -0.7594 -0.9556
   51SOL    HW2  153   2.987   1.805   0.402 -2.8101  1.4195  1.1985
   52SOL     OW  154   0.760   2.001   0.528  0.0397 -0.5440  0.7574
   52SOL    HW1  155   0.672   2.048   0.567 -3.5407 -0.5244 -0.6292
   52SOL    HW2  156   0.780   1.917   0.583 -1.4685  0.5184  0.3588
   53SOL     OW  157   0.015   0.369   1.542  0.1887 -0.0980  0.2043
   53SOL    HW1  158  -0.054   0.336   1.606  1.4253  0.4118 -0.8886
   53SOL    HW2  159  -0.022   0.452   1.488  0.0182 -0.7338  2.9731
   54SOL     OW  160   1.746   0.448   3.046  0.2146  0.2087  0.1221
   54SOL    HW1  161   1.787   0.437   3.139  1.9443  1.7024  1.8809
   54SOL    HW2  162   1.646   0.464   3.041  0.9124 -1.3630  1.0344
   55SOL     OW  163   0.707   2.955   0.609  0.2025  0.3805 -0.6893
   55SOL    HW1  164   0.680   3.055   0.622 -3.8855  1.6258 -0.1936
   55SOL    HW2  165   0.794   2.946   0.554 -1.2657 -1.8955 -0.2899
   56SOL     OW  166   0.461   1.550   3.029 -0.2517  0.2365 -0.3370
   56SOL    HW1  167   0.385   1.592   3.087  3.3138 -0.1637 -1.3790
   56SOL    HW2  168   0.427   1.488   2.955 -0.1526  0.3391 -2.8436
   57SOL     OW  169   1.792   2.402   2.668 -0.1936  0.4922 -0.0611
   57SOL    HW1  170   1.866   2.399   2.594  1.5209  0.7207  0.4558
   57SOL    HW2  171   1.710   2.458   2.642 -0.7545 -0.9387  2.5769
   58SOL     OW  172   0.620   0.447   1.122  0.0301 -0.6164  0.3881
   58SOL    HW1  173   0.581   0.550   1.112  0.6594  2.9174 -0.3169
   58SOL    HW2  174   0.555   0.371   1.161  1.0602 -1.9448 -0.1176
   59SOL     OW  175   0.460   2.403   2.686 -0.4851 -0.0267  0.4679
   59SOL    HW1  176   0.457   2.304   2.718 -2.4658  1.5520  1.6451
   59SOL    HW2  177   0.532   2.452   2.736 -0.8263 -0.4615  0.0388
   60SOL     OW  178   2.308   2.140   2.283 -0.4316 -0.3088  0.0443
   60SOL    HW1  179   2.378   2.177   2.216  0.8360 -0.4049  1.2229
   60SOL    HW2  180   2.318   2.170   2.382  0.5848 -1.6840 -0.9618
   61SOL     OW  181   1.412   0.630   0.476  0.3640  0.5853  0.1722
   61SOL    HW1  182   1.309   0.643   0.476 -0.6499 -1.3549  0.7442
   61SOL    HW2  183   1.447   0.632   0.380 -1.5284  0.4780 -1.1822
   62SOL     OW  184   2.635   1.855   3.079 -0.2133 -0.9681 -0.7072
   62SOL    HW1  185   2.661   1.759   3.111  0.6530 -1.2739  0.8824
   62SOL    HW2  186   2.694   1.876   2.994  0.6925 -0.7910  1.4890
   63SOL     OW  187   0.506   0.840   0.162 -0.0205  0.5398  0.0200
   63SOL    HW1  188   0.470   0.930   0.121  0.2213 -0.0219 -1.0976
   63SOL    HW2  189   0.602   0.847   0.201  0.6268 -1.3471  0.3510
   64SOL     OW  190   0.102   0.466   2.508  0.3404  0.1687 -0.0547
   64SOL    HW1  191   0.190   0.489   2.559 -2.7428 -2.0335 -1.4847
   64SOL    HW2  192   0.032   0.543   2.487 -0.6672 -0.9281 -1.0688
   65SOL     OW  193   0.212   1.464   0.658  0.1584  0.6418 -0.4934
   65SOL    HW1  194   0.213   1.558   0.709  2.1480  1.0883  2.4984
   65SOL    HW2  195   0.309   1.445   0.628 -0.9675 -4.1194 -0.6164
   66SOL     OW  196   2.518   0.418   0.665 -0.0057 -0.1370 -0.1627
   66SOL    HW1  197   2.461   0.474   0.727  0.1852 -1.2756 -0.6887
   66SOL    HW2  198   2.491   0.314   0.671 -1.9180  0.9636 -1.8235
   67SOL     OW  199   0.509   2.505   1.353 -0.2262  0.3193  0.1731
   67SOL    HW1  200   0.549   2.530   1.448 -0.7772  1.3749  1.7500
   67SOL    HW2  201   0.495   2.402   1.341  0.8681 -1.1176  2.8918
   68SOL     OW  202   1.013   1.102   2.472  0.8650  0.0815  0.4498
   68SOL    HW1  203   1.088   1.047   2.419  1.9701 -0.2314 -0.9822
   68SOL    HW2  204   0.940   1.147   2.412  1.4026  0.4282 -1.3056
   69SOL     OW  205   0.767   2.703   2.127 -0.0983  0.6339 -0.4041
   69SOL    HW1  206   0.803   2.604   2.143  2.7400 -1.5031 -2.0594
   69SOL    HW2  207   0.668   2.707   2.140 -0.1420 -1.1860 -0.4413
   70SOL     OW  208   0.636   0.267   2.734  0.4432 -0.0038  0.3731
   70SOL    HW1  209   0.641   0.312   2.825  2.1849  0.7086 -0.2414
   70SOL    HW2  210   0.595   0.172   2.732 -1.9438  0.0107  3.1566
   71SOL     OW  211   1.117   1.790   0.341  0.5873  0.2652  0.2593
   71SOL    HW1  212   1.070   1.694   0.348  1.5752  0.5532 -1.9988
   71SOL    HW2  213   1.132   1.823   0.245 -1.4270  0.2064 -0.7770
   72SOL     OW  214   1.810   0.131   2.118  0.4346  0.0386  0.0866
   72SOL    HW1  215   1.848   0.154   2.025 -1.3870  0.8507  0.2267
   72SOL    HW2  216   1.838   0.038   2.150  0.3619  3.5592 -0.2138
   73SOL     OW  217   2.775   2.198   2.505 -0.6512  0.8166 -0.0812
   73SOL    HW1  218   2.771   2.101   2.477 -2.1664 -0.6080  0.7695
   73SOL    HW2  219   2.799   2.211   2.609 -1.0777 -1.6528  2.3087
   74SOL     OW  220   2.744   2.981   2.044  0.2200 -0.6314 -0.2192
   74SOL    HW1  221   2.667   2.962   2.116  1.3267 -0.6451 -0.2810
   74SOL    HW2  222   2.839   2.989   2.084 -0.2285  0.8738 -0.5140
   75SOL     OW  223   0.907   0.749   1.023  0.0851 -0.5562  0.3357
   75SOL    HW1  224   0.817   0.803   0.990 -0.9224 -0.1443 -1.1493
   75SOL    HW2  225   0.925   0.754   1.124 -0.9476  0.6449 -0.3398
   76SOL     OW  226   1.737   1.246   2.583  0.1437  0.3468  0.4678
   76SOL    HW1  227   1.638   1.215   2.586 -0.2327  0.1935  0.6777
   76SOL    HW2  228   1.755   1.328   2.637  0.0666 -3.2807 -0.7257
   77SOL     OW  229   2.931   0.991   0.958 -0.7609  0.1419 -0.4247
   77SOL    HW1  230   2.922   0.891   0.943  5.1174 -0.8080  2.4709
   77SOL    HW2  231   2.984   1.012   1.044 -0.6204  0.5384 -1.1314
   78SOL     OW  232   1.957   1.407   1.518 -0.2706  0.1363  0.2874
   78SOL    HW1  233   2.051   1.403   1.473  2.9843 -0.6817  2.0813
   78SOL    HW2  234   1.885   1.356   1.461 -1.9515 -1.7382 -1.8371
   79SOL     OW  235   0.600   1.345   0.817 -0.6284  0.1370 -0.3814
   79SOL    HW1  236   0.509   1.357   0.868  0.6254  0.6344 -1.1546
   79SOL    HW2  237   0.587   1.303   0.726 -0.6002  1.5259  0.0346
   80SOL     OW  238   0.668   0.494   1.583 -0.1367 -0.2429 -0.2160
   80SOL    HW1  239   0.739   0.542   1.525  1.3607 -1.5891  2.4929
   80SOL    HW2  240   0.666   0.390   1.566 -0.1599  0.9530  0.6619
   81SOL     OW  241   1.010   1.374   2.631 -0.7636 -0.3146 -0.2268
   81SOL    HW1  242   0.986   1.279   2.642 -1.6532 -1.3465 -1.1415
   81SOL    HW2  243   0.963   1.415   2.548  0.8936 -1.7311 -1.5399
   82SOL     OW  244   0.956   2.984   1.539 -0.0093 -0.5174  0.1345
   82SOL    HW1  245   1.033   2.925   1.511  1.4369  1.0284 -1.1266
   82SOL    HW2  246   0.867   2.942   1.520  1.2142 -1.3979  1.1699
   83SOL     OW  247   2.744   2.492   0.793 -0.0006 -0.1029  0.0440
   83SOL    HW1  248   2.648   2.461   0.758 -0.6291 -0.9731  0.7963
   83SOL    HW2  249   2.752   2.593   0.776 -4.1999  1.2554 -0.2368
   84SOL     OW  250   0.710   0.018   2.416 -0.8897 -0.6469  0.0690
   84SOL    HW1  251   0.634  -0.048   2.438 -0.4810 -0.1501 -0.7639
   84SOL    HW2  252   0.799  -0.035   2.389 -0.5327 -0.4233 -2.1976
   85SOL     OW  253   0.405   1.691   1.503  0.8368 -0.3029 -0.0175
   85SOL    HW1  254   0.341   1.776   1.500 -0.0474  0.8089 -2.7896
   85SOL    HW2  255   0.413   1.651   1.599  1.2532  0.3008  1.6623
   86SOL     OW  256   0.358   0.989   1.480  0.1050 -0.0208  0.3747
   86SOL    HW1  257   0.336   0.925   1.399  0.6660  0.2509 -0.4502
   86SOL    HW2  258   0.378   0.940   1.570  1.7714  0.3678  1.3846
   87SOL     OW  259   1.534   0.610   0.243 -0.6371  0.0343  0.5705
   87SOL    HW1  260   1.602   0.692   0.255 -1.8237  1.7194 -0.8300
   87SOL    HW2  261   1.518   0.589   0.143 -0.2436  2.8280 -0.3011
   88SOL     OW  262   1.565   1.266   0.203 -0.5044  0.6595 -0.0771
   88SOL    HW1  263   1.600   1.202   0.280 -0.3083  1.1623 -1.9499
   88SOL    HW2  264   1.470   1.303   0.232  0.0099  1.9921  1.7920
   89SOL     OW  265   3.043   0.444   0.574  0.6458 -0.2710 -0.2117
   89SOL    HW1  266   3.101   0.354   0.576  2.3909  0.5108  0.8188
   89SOL    HW2  267   2.945   0.427   0.543 -1.5522 -0.7100  0.3228
   90SOL     OW  268   0.958   1.659   3.020 -0.5153 -0.4065 -0.2157
   90SOL    HW1  269   0.879   1.624   3.074  0.9908 -0.7002 -1.7227
   90SOL    HW2  270   0.941   1.667   2.918  2.0154  2.9995 -0.6490
   91SOL     OW  271   1.295   1.480   1.778 -0.6056 -0.2803  0.5030
   91SOL    HW1  272   1.302   1.571   1.832  0.8953 -0.7546 -0.3367
   91SOL    HW2  273   1.387   1.438   1.759  0.0037  1.6625 -1.5718
   92SOL     OW  274   0.016   1.056   1.199 -1.2876  0.1883  0.5630
   92SOL    HW1  275   0.092   1.124   1.172  0.7495  1.0631  0.0393
   92SOL    HW2  276   0.034   0.995   1.280 -0.1569 -1.5274 -0.6500
   93SOL     OW  277   0.006   2.787   0.068 -0.2130 -1.3365  0.0206
   93SOL    HW1  278  -0.032   2.790  -0.028  0.2842 -1.7377  0.8796
   93SOL    HW2  279   0.055   2.703   0.101  0.1004  2.3406  1.9569
   94SOL     OW  280   1.509   1.355   1.678  0.3639  0.3116  0.0262
   94SOL    HW1  281   1.539   1.261   1.702  0.1399  1.8314  0.9274
   94SOL    HW2  282   1.571   1.426   1.723  2.4197  0.1906 -0.3273
   95SOL     OW  283   1.317   2.468   2.925 -0.4662 -0.1411  0.4877
   95SOL    HW1  284   1.272   2.478   3.015  1.1138  0.5072  0.9479
   95SOL    HW2  285   1.353   2.378   2.901  0.3062 -0.3436  0.8553
   96SOL     OW  286   0.528   2.010   1.207  0.6729 -0.5749  0.2138
   96SOL    HW1  287   0.479   2.021   1.118 -0.1711 -0.1826  0.9468
   96SOL    HW2  288   0.517   1.912   1.235  0.9555 -0.5963 -0.0716
   97SOL     OW  289   0.387   1.467   2.524  0.0257  0.7801  0.1279
   97SOL    HW1  290   0.291   1.442   2.495 -1.0732 -0.3162  1.3116
   97SOL    HW2  291   0.377   1.559   2.572  0.4396  1.3104  1.6030
   98SOL     OW  292   2.000   1.666   1.310 -0.6802 -0.1923 -0.3843
   98SOL    HW1  293   2.016   1.609   1.221  0.5893 -1.1740  0.2480
   98SOL    HW2  294   2.002   1.602   1.388  3.3281  0.8667 -2.1631
   99SOL     OW  295   2.492   2.145   1.349  0.1361  0.4086  0.5492
   99SOL    HW1  296   2.552   2.148   1.434  2.0859 -1.6427  0.8022
   99SOL    HW2  297   2.443   2.054   1.338  1.6817 -2.1769  0.9406
  100SOL     OW  298   2.323   0.369   2.024  0.3043  0.1510 -0.0980
  100SOL    HW1  299   2.275   0.369   2.118 -0.9362 -0.5729 -0.0882
  100SOL    HW2  300   2.423   0.399   2.037  4.6767  0.8673 -0.8003
  101SOL     OW  301   0.384   1.494   0.287 -0.6907  0.8286 -0.4362
  101SOL    HW1  302   0.375   1.498   0.388 -0.7441  0.3154 -0.9013
  101SOL    HW2  303   0.381   1.586   0.241  0.5166  0.9852 -1.9029
  102SOL     OW  304   2.310   1.087   0.807  0.0228 -0.1455  0.2550
  102SOL    HW1  305   2.220   1.028   0.796 -1.3626  0.6259 -1.1410
  102SOL    HW2  306   2.341   1.133   0.722  0.4430  1.7038  0.3965
  103SOL     OW  307   2.305   0.042   0.412  0.0487 -0.5972 -0.1804
  103SOL    HW1  308   2.350   0.119   0.357  0.5147  3.2277 -0.6372
  103SOL    HW2  309   2.373   0.011   0.487  1.9961  0.1989 -0.6522
  104SOL     OW  310   0.066   1.870   2.100 -0.1553 -0.1278 -0.1184
  104SOL    HW1  311   0.117   1.810   2.024 -1.1538 -1.1170 -1.9639
  104SOL    HW2  312  -0.038   1.869   2.105 -0.7113 -1.3111  1.3016
  105SOL     OW  313   1.174   1.968   0.827  1.2033  0.4104 -0.3291
  105SOL    HW1  314   1.125   2.005   0.743  0.4577  1.3743  0.6452
  105SOL    HW2  315   1.247   1.898   0.807  0.4813  1.0519  0.6624
  106SOL     OW  316   2.080   0.438   1.365 -0.0981  0.6632 -0.0481
  106SOL    HW1  317   2.037   0.354   1.408  4.2399  0.9452  0.9022
  106SOL    HW2  318   2.058   0.518   1.427 -2.5629 -1.4461 -0.4450
  107SOL     OW  319   1.811   3.034   1.072 -0.2952 -0.4825 -0.2852
  107SOL    HW1  320   1.844   3.111   1.135 -2.0607  0.0062 -1.1243
  107SOL    HW2  321   1.755   2.965   1.129 -1.8584  0.4053  3.1672
  108SOL     OW  322   0.767   2.647   1.292  0.4176  0.1726 -1.0572
  108SOL    HW1  323   0.754   2.705   1.379  0.4374  2.5990  0.5928
  108SOL    HW2  324   0.840   2.576   1.305 -1.5185 -2.6547 -0.1843
  109SOL     OW  325   2.148   0.109   0.773  0.7786  0.2831  0.4723
  109SOL    HW1  326   2.092   0.055   0.702 -0.9643 -1.9475  1.1658
  109SOL    HW2  327   2.126   0.083   0.871  0.3375  0.8334  0.5335
  110SOL     OW  328   0.465   2.818   2.741 -0.5640  0.1107  0.0063
  110SOL    HW1  329   0.438   2.843   2.642 -0.6637 -0.5393 -2.2893
  110SOL    HW2  330   0.529   2.731   2.748 -0.9151 -0.9724 -0.1046
  111SOL     OW  331   1.320   0.528   2.274  0.2526  0.7361 -0.0416
  111SOL    HW1  332   1.238   0.557   2.333  2.5720 -2.8753 -0.6719
  111SOL    HW2  333   1.359   0.440   2.310 -1.2493  1.9758 -1.4405
  112SOL     OW  334   1.745   0.514   1.395  0.3600  0.3563  0.2234
  112SOL    HW1  335   1.732   0.482   1.295 -1.0114 -0.8491 -1.8072
  112SOL    HW2  336   1.744   0.442   1.469  0.5055  0.9743  0.9048
  113SOL     OW  337   2.330   1.624   1.706 -0.0487 -0.3858  0.0627
  113SOL    HW1  338   2.408   1.558   1.708 -1.8389 -1.1258  0.3203
  113SOL    HW2  339   2.320   1.689   1.790  1.5886 -0.8675  1.7915
  114SOL     OW  340   0.307   0.555   1.310 -0.1177 -0.1400  0.1489
  114SOL    HW1  341   0.322   0.656   1.297 -1.2423  0.3753  1.1007
  114SOL    HW2  342   0.241   0.509   1.242  0.7658 -2.7383  0.7319
  115SOL     OW  343   2.613   1.585   1.209  0.0359  0.4523  0.3615
  115SOL    HW1  344   2.638   1.484   1.208 -0.1813 -0.1269  0.7585
  115SOL    HW2  345   2.684   1.640   1.160  0.1750  1.1472  0.4199
  116SOL     OW  346   1.810   1.063   0.771  0.1385 -0.8399  1.0468
  116SOL    HW1  347   1.734   1.023   0.716 -2.5436 -0.0053  2.0247
  116SOL    HW2  348   1.813   1.167   0.762 -0.2549  1.7776 -1.5673
  117SOL     OW  349   1.122   0.356   0.679 -0.2302 -0.2920  0.4308
  117SOL    HW1  350   1.120   0.330   0.782  1.7021 -0.6754  1.1972
  117SOL    HW2  351   1.153   0.451   0.659 -1.3983 -0.1679  1.9178
  118SOL     OW  352   1.105   1.092   1.148  0.2083  0.3054  0.3169
  118SOL    HW1  353   1.063   1.017   1.209 -0.0682 -1.9472 -1.0036
  118SOL    HW2  354   1.091   1.185   1.182  3.7466 -2.4358 -1.4037
  119SOL     OW  355   1.832   1.614   2.065  0.1607 -0.4423  0.3319
  119SOL    HW1  356   1.798   1.707   2.096 -0.8278  1.0312  2.5333
  119SOL    HW2  357   1.931   1.609   2.094 -4.2677  1.2544  1.1953
  120SOL     OW  358   2.992   2.815   0.299 -0.3241  0.1560 -0.5288
  120SOL    HW1  359   3.042   2.807   0.208  0.1904  0.6811  0.6073
  120SOL    HW2  360   3.012   2.731   0.361  0.2362  0.4333  0.9230
  121SOL     OW  361   2.009   0.709   2.181 -0.1494  0.2726  0.2437
  121SOL    HW1  362   1.982   0.736   2.087  0.7778 -1.0862  2.0695
  121SOL    HW2  363   2.026   0.606   2.193 -0.3950 -1.7323  1.1128
  122SOL     OW  364   2.732   2.586   1.360 -0.3793  0.3803 -0.3964
  122SOL    HW1  365   2.727   2.562   1.255 -0.7790 -1.8871 -4.4893
  122SOL    HW2  366   2.770   2.509   1.415 -1.1117  2.7640 -1.6056
  123SOL     OW  367   1.721   0.053   1.715 -0.1387  0.1445  0.5622
  123SOL    HW1  368   1.751   0.011   1.625 -1.1726  0.1168  2.2231
  123SOL    HW2  369   1.799   0.053   1.787  1.9248  0.9374  0.8695
  124SOL     OW  370   0.123   0.486   1.087 -0.6607 -0.2875 -0.3334
  124SOL    HW1  371   0.092   0.564   1.147  0.5643 -1.5238 -0.0035
  124SOL    HW2  372   0.113   0.493   0.985  0.7631 -0.0420  3.2675
  125SOL     OW  373   0.871   1.783   0.663 -0.1340  0.5649 -0.3606
  125SOL    HW1  374   0.969   1.765   0.631  0.4632 -1.1186 -1.0522
  125SOL    HW2  375   0.862   1.778   0.766 -0.6361  3.1508 -2.6645
  126SOL     OW  376   1.907   2.389   2.400  0.0675  0.0441 -0.1046
  126SOL    HW1  377   1.971   2.337   2.338  0.6684 -0.2898  1.6722
  126SOL    HW2  378   1.808   2.367   2.386  1.0574 -0.5082  0.2721
  127SOL     OW  379   0.790   0.967   0.195 -0.4573 -0.2279  0.5762
  127SOL    HW1  380   0.843   1.011   0.274  0.7389 -1.0339 -1.1575
  127SOL    HW2  381   0.799   0.862   0.193 -3.2617 -1.7415 -0.4299
  128SOL     OW  382   0.958   0.172   1.460 -0.2541  0.1275 -0.5168
  128SOL    HW1  383   0.906   0.231   1.396 -0.1548 -1.4202 -3.0981
  128SOL    HW2  384   0.904   0.094   1.503 -2.6601  0.2510 -0.0796
  129SOL     OW  385   1.863   0.677   1.868  0.6620  0.1753 -0.5894
  129SOL    HW1  386   1.898   0.671   1.769 -1.1475 -1.7100  1.8615
  129SOL    HW2  387   1.867   0.780   1.898  0.7322  1.4500  1.1613
  130SOL     OW  388   1.333   2.106   1.019 -0.1271  0.7812 -0.4483
  130SOL    HW1  389   1.268   2.048   0.959 -1.0014 -1.0138 -1.5053
  130SOL    HW2  390   1.390   2.178   0.974  0.5031 -1.4988 -0.0712
  131SOL     OW  391   0.005   1.510   1.382  0.0645  0.3352 -0.4877
  131SOL    HW1  392  -0.040   1.419   1.355  1.0062 -0.7208  0.1939
  131SOL    HW2  393   0.107   1.499   1.405  1.9538 -0.7907 -1.5935
  132SOL     OW  394   1.954   2.444   0.520  0.7365 -0.5195  0.5963
  132SOL    HW1  395   1.854   2.469   0.510  2.9089 -0.0963 -0.5265
  132SOL    HW2  396   1.977   2.365   0.585 -0.8490  0.1640 -0.5251
  133SOL     OW  397   1.839   2.268   2.927  0.5031 -0.0501 -0.0181
  133SOL    HW1  398   1.875   2.354   2.975 -1.1001  1.2926  0.1813
  133SOL    HW2  399   1.784   2.292   2.846  2.5898  0.8915  0.1394
  134SOL     OW  400   2.705   2.360   1.603  0.4735  0.0080  0.4769
  134SOL    HW1  401   2.646   2.336   1.688  0.7929  1.3304  0.7632
  134SOL    HW2  402   2.768   2.442   1.610 -2.4368  1.6181 -2.2676
  135SOL     OW  403   0.733   1.542   2.597 -0.0277 -0.4737  0.7745
  135SOL    HW1  404   0.699   1.447   2.627  1.3038  2.9592 -3.2745
  135SOL    HW2  405   0.756   1.528   2.495 -0.4962 -2.3703 -1.0924
  136SOL     OW  406   1.200   2.021   0.477 -0.0713 -0.0744 -0.2153
  136SOL    HW1  407   1.134   2.066   0.541  1.7657 -0.1594 -0.8922
  136SOL    HW2  408   1.165   1.934   0.430  2.8207 -1.6225  0.0277
  137SOL     OW  409   0.398   1.057   2.186  0.2922 -0.2537 -0.2902
  137SOL    HW1  410   0.303   1.070   2.232  2.1159 -0.4533  0.8579
  137SOL    HW2  411   0.455   0.987   2.233 -0.5186  2.4197  1.0496
  138SOL     OW  412   2.456   1.491   0.209  0.2242  0.4490 -0.9801
  138SOL    HW1  413   2.357   1.499   0.182  1.7535 -1.5275 -0.4064
  138SOL    HW2  414   2.472   1.408   0.269 -0.0616  3.0353 -0.3210
  139SOL     OW  415   1.800   2.617   1.195  0.5164  0.5910 -0.4035
  139SOL    HW1  416   1.704   2.586   1.164 -2.1692  1.4700 -2.0190
  139SOL    HW2  417   1.834   2.570   1.279 -0.7254  3.1849  0.7239
  140SOL     OW  418   2.988   2.963   2.481  0.4228 -0.3319 -0.7032
  140SOL    HW1  419   3.029   2.865   2.474  1.3004 -4.0760  2.0477
  140SOL    HW2  420   3.058   3.037   2.506 -0.6988 -0.2339  2.5931
  141SOL     OW  421   1.217   1.646   1.543  0.1344  0.4514  0.2317
  141SOL    HW1  422   1.144   1.706   1.588  2.7353 -0.5132 -0.2954
  141SOL    HW2  423   1.237   1.561   1.600  1.3913  3.2952 -0.1038
  142SOL     OW  424   1.567   0.621   2.265 -0.1661 -0.3430 -0.2576
  142SOL    HW1  425   1.586   0.604   2.164 -0.4209  0.5174 -0.7624
  142SOL    HW2  426   1.461   0.604   2.282 -0.8300 -0.3690 -3.9667
  143SOL     OW  427   2.721   0.892   0.510 -0.3324 -0.1093  0.1199
  143SOL    HW1  428   2.763   0.934   0.421 -2.6793  0.5555 -0.8370
  143SOL    HW2  429   2.747   0.936   0.603  0.7230 -0.8903  1.7005
  144SOL     OW  430   2.999   1.280   1.351  0.5706 -0.1277 -0.6236
  144SOL    HW1  431   2.984   1.256   1.451 -0.4777  1.1243 -0.2368
  144SOL    HW2  432   3.034   1.198   1.295 -1.0228 -0.1829 -3.6296
  145SOL     OW  433   1.071   1.870   0.056 -0.1226 -0.4580 -0.1620
  145SOL    HW1  434   1.056   1.960   0.007 -1.9860  0.4167  0.6507
  145SOL    HW2  435   1.019   1.789   0.008 -2.1453 -1.2517 -0.6548
  146SOL     OW  436   2.514   0.634   1.498 -1.2732 -0.2787  0.1919
  146SOL    HW1  437   2.463   0.554   1.466 -1.5594  1.5531  1.9563
  146SOL    HW2  438   2.465   0.727   1.491  2.3933  1.8926  1.8783
  147SOL     OW  439   1.036   2.525   0.596 -0.0555 -0.1873  0.0655
  147SOL    HW1  440   1.016   2.586   0.509  0.3799  0.1009  0.8877
  147SOL    HW2  441   1.123   2.470   0.586  0.8473  2.2953 -0.3646
  148SOL     OW  442   1.660   1.432   3.095  0.2243  0.5347 -0.0214
  148SOL    HW1  443   1.700   1.363   3.025  0.8771 -0.2590 -2.2853
  148SOL    HW2  444   1.634   1.393   3.192 -1.6675  0.5438  0.2850
  149SOL     OW  445   0.676   1.410   1.962  0.6231  0.3840 -0.5195
  149SOL    HW1  446   0.584   1.386   2.000  2.0666 -0.9408 -1.5664
  149SOL    HW2  447   0.711   1.340   1.896  0.2287  0.8662 -0.9025
  150SOL     OW  448   2.965   1.269   0.948 -0.5939  0.3016 -0.2080
  150SOL    HW1  449   3.050   1.279   1.010  0.7256 -1.2214 -1.0997
  150SOL    HW2  450   2.918   1.178   0.957 -2.7657  0.1730 -1.1116
  151SOL     OW  451   0.199   0.770   2.151  0.0038  0.2482  0.6921
  151SOL    HW1  452   0.188   0.858   2.094  1.0900  1.1441 -2.1842
  151SOL    HW2  453   0.272   0.703   2.107  0.8489 -1.8532  1.2839
  152SOL     OW  454   1.406   1.745   1.263 -0.2820  0.0502  0.0959
  152SOL    HW1  455   1.405   1.785   1.358  0.0239 -1.2660 -1.7044
  152SOL    HW2  456   1.328   1.779   1.206 -1.0322 -4.2846 -0.1999
  153SOL     OW  457   0.035   1.541   0.148 -0.3131 -0.0775 -0.5679
  153SOL    HW1  458   0.010   1.440   0.153  0.8011  0.8714 -1.5701
  153SOL    HW2  459   0.084   1.576   0.233  1.1661  2.8206  0.9308
  154SOL     OW  460   2.400   1.881   2.818 -0.5579 -0.1010 -0.5491
  154SOL    HW1  461   2.426   1.787   2.848 -0.6492  3.3898  0.1665
  154SOL    HW2  462   2.437   1.907   2.727 -1.1857  0.5200  0.6889
  155SOL     OW  463   2.493   1.263   0.347 -0.0184  0.1892 -0.7084
  155SOL    HW1  464   2.572   1.238   0.279  1.2854 -1.6850 -0.5534
  155SOL    HW2  465   2.431   1.182   0.374 -0.2802 -3.3156  1.1232
  156SOL     OW  466   2.548   0.931   0.873  0.4176  0.3158  0.2908
  156SOL    HW1  467   2.451   0.949   0.837 -2.4587 -1.2695 -1.3536
  156SOL    HW2  468   2.614   1.009   0.866 -0.4698 -0.1553 -0.5467
  157SOL     OW  469   1.244   3.009   2.993 -0.4321  0.2122 -0.8520
  157SOL    HW1  470   1.296   2.979   2.907 -1.0439 -4.0802  2.2101
  157SOL    HW2  471   1.240   3.108   3.013 -1.9815 -0.9425 -0.5500
  158SOL     OW  472   1.047   1.871   2.028 -0.0518 -0.3700 -0.2575
  158SOL    HW1  473   1.071   1.834   2.124  0.3595 -0.6857  1.7760
  158SOL    HW2  474   0.959   1.924   2.021 -2.1293 -0.6352 -0.2145
  159SOL     OW  475   0.853   0.391   1.290  0.1662  0.4523 -0.2817
  159SOL    HW1  476   0.853   0.484   1.332 -0.4355 -1.1216  2.1741
  159SOL    HW2  477   0.786   0.381   1.212 -0.3026  0.5201 -1.5768
  160SOL     OW  478   1.468   2.470   1.643  0.1670  0.4014 -0.3325
  160SOL    HW1  479   1.495   2.546   1.573  3.9663 -1.3921  0.2107
  160SOL    HW2  480   1.554   2.416   1.668  2.7153 -0.7155  1.4789
  161SOL     OW  481   0.141   2.913   0.338  0.8606  0.0306  0.5903
  161SOL    HW1  482   0.051   2.854   0.328  1.6820 -0.4028 -2.4381
  161SOL    HW2  483   0.135   2.989   0.271 -1.4573 -4.3205  3.0695
  162SOL     OW  484   2.599   1.911   0.500  0.3679  0.2063  0.3516
  162SOL    HW1  485   2.563   1.852   0.421 -0.5271 -1.7765 -0.4356
  162SOL    HW2  486   2.595   1.870   0.598  0.4953  0.8460  1.4407
  163SOL     OW  487   1.965   2.677   0.732  0.0959 -0.6539 -0.0931
  163SOL    HW1  488   1.910   2.707   0.647 -0.6678 -0.9394 -0.4202
  163SOL    HW2  489   2.030   2.595   0.715  0.1428  0.9565 -0.9759
  164SOL     OW  490   3.038   0.305   1.206  0.2098  0.4120 -0.2968
  164SOL    HW1  491   3.065   0.385   1.143  0.7073 -2.1253 -0.8793
  164SOL    HW2  492   3.123   0.263   1.249  0.1039  0.8578 -0.7932
  165SOL     OW  493   0.985   1.477   0.673  0.1548 -0.2279  0.1034
  165SOL    HW1  494   0.924   1.502   0.751  1.8669 -2.9117 -1.1370
  165SOL    HW2  495   0.975   1.530   0.583  1.7012  3.6258  2.2864
  166SOL     OW  496   1.425   1.067   1.752  0.2477  0.1402 -0.0766
  166SOL    HW1  497   1.334   1.033   1.787  3.8792  0.4220 -2.2966
  166SOL    HW2  498   1.499   1.088   1.827 -1.0399  1.9248  0.8879
  167SOL     OW  499   0.869   1.941   1.538 -0.4367 -0.0605 -0.1407
  167SOL    HW1  500   0.834   1.981   1.626  0.5275  1.2300 -0.2922
  167SOL    HW2  501   0.811   1.862   1.501 -1.0283  1.9608  0.7785
  168SOL     OW  502   1.549   2.377   0.146  0.5225 -0.2842  0.4934
  168SOL    HW1  503   1.630   2.438   0.131  0.2749 -0.2192  0.0806
  168SOL    HW2  504   1.572   2.302   0.209  0.2541 -1.2991 -0.3139
  169SOL     OW  505   0.178   2.581   2.208 -0.1122  0.2845  0.3143
  169SOL    HW1  506   0.232   2.535   2.131  0.7110  2.7130  1.3588
  169SOL    HW2  507   0.160   2.517   2.285  2.2831  2.1802 -0.4468
  170SOL     OW  508   1.267   0.275   1.904 -0.1358  0.3295  0.1650
  170SOL    HW1  509   1.310   0.245   1.997  0.6461 -1.9830  0.3647
  170SOL    HW2  510   1.240   0.197   1.844  0.8734  0.2095  0.4096
  171SOL     OW  511   0.262   0.782   2.425 -0.3397 -0.2594  0.1256
  171SOL    HW1  512   0.174   0.780   2.484  0.9250 -0.9193 -0.1207
  171SOL    HW2  513   0.242   0.787   2.316 -1.7686 -1.7531 -0.1711
  172SOL     OW  514   0.890   1.156   2.937 -0.3266  0.3573 -0.2678
  172SOL    HW1  515   0.992   1.166   2.957 -1.3830  1.6553 -1.6967
  172SOL    HW2  516   0.873   1.106   2.851  1.1975  0.9701  1.5923
  173SOL     OW  517   0.664   2.690   0.167 -0.3273 -0.0878 -0.2727
  173SOL    HW1  518   0.664   2.791   0.155  1.4109 -1.1559 -1.8579
  173SOL    HW2  519   0.580   2.653   0.120 -0.3864  1.9422 -2.1382
  174SOL     OW  520   1.392   2.771   1.057  0.2886  0.6159  0.0117
  174SOL    HW1  521   1.401   2.838   0.982  1.4142  1.6248 -0.4678
  174SOL    HW2  522   1.330   2.690   1.029  0.7063 -0.8968 -0.1492
  175SOL     OW  523   0.387   0.018   1.664 -0.3261  0.5872 -0.4569
  175SOL    HW1  524   0.461   0.034   1.737  0.3116 -2.4265  0.5611
  175SOL    HW2  525   0.322   0.098   1.647 -0.3188 -1.5117  0.8019
  176SOL     OW  526   2.508   0.389   3.070 -0.4506  0.2677  0.1851
  176SOL    HW1  527   2.536   0.457   3.147 -1.6770 -0.9032  0.5884
  176SOL    HW2  528   2.444   0.309   3.090  1.6740  4.0871 -0.1006
  177SOL     OW  529   0.390   0.386   0.927  0.0152 -0.5346  0.4469
  177SOL    HW1  530   0.480   0.385   0.975  0.2462 -1.8547 -2.1605
  177SOL    HW2  531   0.307   0.358   0.974  2.0503 -0.6848  0.1257
  178SOL     OW  532   0.025   2.715   2.590 -0.0848 -0.8567  0.0844
  178SOL    HW1  533  -0.069   2.702   2.634 -1.1745 -0.2967  0.7716
  178SOL    HW2  534   0.096   2.745   2.658  1.2803  1.4456 -3.1862
  179SOL     OW  535   0.028   1.700   1.152  0.2000 -0.2319  0.5313
  179SOL    HW1  536  -0.043   1.774   1.156 -2.3592 -0.6393  2.0214
  179SOL    HW2  537   0.018   1.647   1.241 -0.5204  0.0582 -1.5992
  180SOL     OW  538   0.216   1.280   1.833  0.6827  0.0463 -0.1288
  180SOL    HW1  539   0.311   1.265   1.791 -0.8831 -0.6391  2.9843
  180SOL    HW2  540   0.202   1.352   1.902 -2.5051  1.3324 -1.1586
  181SOL     OW  541   3.017   1.832   2.544  0.0422 -0.4893  0.3034
  181SOL    HW1  542   3.096   1.891   2.510  0.7131  6.1831 -0.9459
  181SOL    HW2  543   2.925   1.859   2.511  4.6774  0.6468  1.8964
  182SOL     OW  544   2.337   1.206   1.203  0.0701  0.4231  0.0225
  182SOL    HW1  545   2.255   1.167   1.153 -1.3878 -1.1781  0.0735
  182SOL    HW2  546   2.320   1.302   1.227 -0.0757  0.9667  1.9311
  183SOL     OW  547   1.487   2.276   2.553  0.2646  0.1437  0.0997
  183SOL    HW1  548   1.386   2.239   2.541 -1.3849 -4.0106 -0.1161
  183SOL    HW2  549   1.552   2.197   2.575 -0.4703 -1.8599 -1.1131
  184SOL     OW  550   2.054   0.928   0.775 -0.1025 -0.0943  1.1956
  184SOL    HW1  551   1.963   0.984   0.760 -1.8819 -0.6869 -0.3996
  184SOL    HW2  552   2.040   0.830   0.804  0.4124 -0.6271 -1.3313
  185SOL     OW  553   1.649   2.696   2.098  0.0618 -0.9228 -0.1518
  185SOL    HW1  554   1.601   2.789   2.086 -2.7484 -0.2284 -0.8171
  185SOL    HW2  555   1.635   2.659   2.197  3.7281 -0.2141 -0.5067
  186SOL     OW  556   0.135   2.221   1.752  0.4156 -0.4004 -0.1828
  186SOL    HW1  557   0.173   2.306   1.706 -3.1608 -1.6417 -0.7107
  186SOL    HW2  558   0.198   2.140   1.750  2.2768  0.4095 -0.3538
  187SOL     OW  559   1.424   0.681   1.677 -0.3064 -0.0106 -0.5107
  187SOL    HW1  560   1.451   0.760   1.615 -0.7104  1.4425  0.2154
  187SOL    HW2  561   1.417   0.714   1.779 -2.3857  0.7195  1.6688
  188SOL     OW  562   2.756   2.773   1.552  0.4528  0.2257 -0.2101
  188SOL    HW1  563   2.752   2.853   1.487 -1.5898  0.4519  1.7207
  188SOL    HW2  564   2.724   2.691   1.499 -0.7829  1.8836  2.3876
  189SOL     OW  565   0.810   1.006   1.431  0.2796 -0.6887 -0.4440
  189SOL    HW1  566   0.881   1.081   1.448  0.7167 -2.6986 -0.3270
  189SOL    HW2  567   0.800   0.978   1.333  1.9634  3.0303  1.7128
  190SOL     OW  568   1.498   1.688   1.593  0.1419  0.3010 -0.4902
  190SOL    HW1  569   1.397   1.686   1.575  1.1691 -2.0562  1.0826
  190SOL    HW2  570   1.528   1.756   1.660  0.2132  1.2140  0.0647
  191SOL     OW  571   0.997   0.798   1.550  0.0152 -0.1385  0.2051
  191SOL    HW1  572   1.028   0.701   1.580  2.1309 -1.1770  0.0966
  191SOL    HW2  573   1.082   0.848   1.513  0.7161  0.9944 -0.9033
  192SOL     OW  574   1.843   2.309   1.204 -0.2961 -0.5436 -0.5136
  192SOL    HW1  575   1.757   2.271   1.160 -0.4510  0.3024 -2.7848
  192SOL    HW2  576   1.908   2.353   1.138 -0.1423  3.2483  3.9286
  193SOL     OW  577   0.524   0.564   0.371  0.1161 -0.3023  0.3067
  193SOL    HW1  578   0.466   0.483   0.403 -3.2278 -1.1506 -0.7597
  193SOL    HW2  579   0.585   0.538   0.294  0.1539  0.5036  2.1111
  194SOL     OW  580   0.300   0.831   1.247  0.1870 -0.5440 -0.5594
  194SOL    HW1  581   0.199   0.818   1.233  0.5708  0.8064  1.0606
  194SOL    HW2  582   0.345   0.880   1.167  0.3237 -0.8510  1.8654
  195SOL     OW  583   0.950   2.915   0.456  0.1293 -0.2901 -0.1495
  195SOL    HW1  584   0.969   2.823   0.424 -1.2365 -0.7126  0.4877
  195SOL    HW2  585   1.035   2.971   0.465  2.2698 -0.7048 -3.0025
  196SOL     OW  586   0.263   1.432   1.412 -0.0517  0.2329  0.1290
  196SOL    HW1  587   0.305   1.478   1.495  1.9257  1.9594  0.7187
  196SOL    HW2  588   0.243   1.330   1.429 -0.7187  0.1187 -0.1095
  197SOL     OW  589   0.864   2.020   0.255  0.0325  0.4561 -0.2162
  197SOL    HW1  590   0.853   2.025   0.359 -1.7572 -2.1629  1.2507
  197SOL    HW2  591   0.935   1.954   0.224  0.0573  1.5965 -1.2012
  198SOL     OW  592   0.281   1.255   0.258 -0.5611 -0.0488 -0.0381
  198SOL    HW1  593   0.178   1.256   0.252  0.1040  0.6852 -1.0525
  198SOL    HW2  594   0.327   1.349   0.277  0.7115  2.1861  3.4718
  199SOL     OW  595   2.259   0.368   2.551  0.4463 -0.2939  0.6946
  199SOL    HW1  596   2.191   0.340   2.625  1.8383  1.7876 -1.6239
  199SOL    HW2  597   2.354   0.347   2.574 -0.6077 -2.5131 -1.8750
  200SOL     OW  598   3.089   2.917   0.748 -0.3813  0.6032 -0.2553
  200SOL    HW1  599   3.006   2.926   0.687  1.6511 -0.0342 -1.8032
  200SOL    HW2  600   3.144   3.003   0.775  1.7534 -2.5794 -1.4777
  201SOL     OW  601   1.158   0.705   0.543 -0.6422  0.2522  0.2295
  201SOL    HW1  602   1.179   0.794   0.591 -0.6331 -1.9856  1.8922
  201SOL    HW2  603   1.052   0.696   0.523 -1.5092  1.1546  0.6378
  202SOL     OW  604   0.461   1.265   1.720  0.0502 -0.1261  0.0153
  202SOL    HW1  605   0.467   1.241   1.617 -0.1173  0.7730  1.3519
  202SOL    HW2  606   0.517   1.204   1.782 -0.0325  0.0692  3.3022
  203SOL     OW  607   0.684   0.239   1.543 -0.1387  0.3566  0.7498
  203SOL    HW1  608   0.680   0.165   1.469  2.9966 -2.4737  0.6993
  203SOL    HW2  609   0.734   0.201   1.628  2.2152 -1.1156  2.2877
  204SOL     OW  610   2.091   1.826   3.024 -0.2645 -0.2165 -0.0966
  204SOL    HW1  611   2.085   1.724   2.990 -1.5275 -2.4400  0.2415
  204SOL    HW2  612   2.068   1.906   2.955 -1.3621  4.0537 -0.3303
  205SOL     OW  613   1.851   1.888   0.086  0.1658  0.0522 -0.4600
  205SOL    HW1  614   1.936   1.865   0.030 -1.9172  2.1743  1.0760
  205SOL    HW2  615   1.789   1.964   0.042 -0.1970  2.0342  0.0005
  206SOL     OW  616   2.576   2.824   0.387 -0.1657  0.3453  0.4700
  206SOL    HW1  617   2.630   2.733   0.398  0.1531  1.2242 -0.2365
  206SOL    HW2  618   2.588   2.865   0.292 -0.3944 -1.7183  1.1381
  207SOL     OW  619   0.633   1.736   2.880  0.4164 -0.0533  0.6049
  207SOL    HW1  620   0.731   1.725   2.853 -0.6199  0.3476  2.6500
  207SOL    HW2  621   0.598   1.662   2.945 -0.6735 -0.3530 -4.0163
  208SOL     OW  622   1.021   1.493   1.441  0.4902 -0.0471  0.0954
  208SOL    HW1  623   0.969   1.541   1.363 -0.7977 -0.9789 -0.8435
  208SOL    HW2  624   1.113   1.545   1.463  3.0966  0.0611  0.5949
  209SOL     OW  625   0.216   0.940   3.048  0.5500 -0.0943 -0.2392
  209SOL    HW1  626   0.237   0.888   2.964 -0.9376 -0.1541 -0.4318
  209SOL    HW2  627   0.201   0.877   3.131 -1.1416 -0.5508  0.0471
  210SOL     OW  628   1.710   0.499   1.124  0.3973  0.0790 -0.2146
  210SOL    HW1  629   1.662   0.563   1.063  0.3405  0.0673  0.6511
  210SOL    HW2  630   1.816   0.511   1.126  0.2409  0.1516  0.7658
  211SOL     OW  631   2.154   1.045   1.683  0.8681 -0.1534  0.1679
  211SOL    HW1  632   2.195   1.019   1.773 -2.7567  1.3041 -1.0290
  211SOL    HW2  633   2.216   1.089   1.610  0.9518  0.8677 -3.6523
  212SOL     OW  634   0.041   0.969   1.469  0.4744 -0.4312  0.2479
  212SOL    HW1  635   0.052   1.056   1.523 -3.3844 -0.6284  0.1433
  212SOL    HW2  636   0.067   0.888   1.532 -1.0109  1.8128 -0.8471
  213SOL     OW  637   2.730   0.360   0.268  0.1998 -0.1355  0.0737
  213SOL    HW1  638   2.788   0.293   0.217 -2.1863  3.2139 -0.1148
  213SOL    HW2  639   2.689   0.422   0.198 -0.0457  1.5534 -1.5986
  214SOL     OW  640   2.205   0.283   2.279  0.5206 -0.6712 -0.5504
  214SOL    HW1  641   2.217   0.303   2.380  0.1318  1.5194 -1.2270
  214SOL    HW2  642   2.179   0.179   2.266 -0.6155 -0.6035  1.3526
  215SOL     OW  643   1.665   2.276   2.068  0.4078  0.1579  0.3975
  215SOL    HW1  644   1.762   2.315   2.049 -0.8175 -2.5110 -0.8563
  215SOL    HW2  645   1.614   2.339   2.131 -0.0654 -1.3357 -2.2964
  216SOL     OW  646   2.225   0.522   0.657 -0.2025  0.3926  0.0638
  216SOL    HW1  647   2.200   0.431   0.602 -0.5182 -2.1361  0.3408
  216SOL    HW2  648   2.237   0.606   0.601  2.7560 -2.3981  0.6774
  217SOL     OW  649   0.780   2.808   2.386  0.1441 -0.1443  0.1184
  217SOL    HW1  650   0.776   2.713   2.429  0.4342  3.0338 -0.0571
  217SOL    HW2  651   0.801   2.800   2.283  0.6478 -0.4203  2.3654
  218SOL     OW  652   1.903   1.434   0.090 -0.3022 -0.1920 -0.1497
  218SOL    HW1  653   1.810   1.463   0.052 -1.3969 -0.7267  1.2038
  218SOL    HW2  654   1.893   1.330   0.107  1.4507 -1.4702  0.9914
  219SOL     OW  655   2.387   1.330   2.542  0.2940 -0.1327 -0.6268
  219SOL    HW1  656   2.458   1.331   2.471 -1.3480  1.4222  3.0315
  219SOL    HW2  657   2.387   1.240   2.599 -1.9594 -2.6343  0.0813
  220SOL     OW  658   1.465   1.024   1.268  0.0047 -0.1095  0.0551
  220SOL    HW1  659   1.561   1.027   1.310  1.7043 -1.2696 -1.0821
  220SOL    HW2  660   1.440   1.102   1.201  2.3139  1.2273 -2.7735
  221SOL     OW  661   1.298   1.212   2.172  0.4091 -0.1045  0.6603
  221SOL    HW1  662   1.250   1.287   2.118 -0.6074  0.6013 -0.6632
  221SOL    HW2  663   1.395   1.194   2.141  0.5380  0.4565 -0.3240
  222SOL     OW  664   1.231   0.068   1.139 -0.6902 -0.2603  0.2454
  222SOL    HW1  665   1.307   0.008   1.110 -3.1091 -0.5427 -1.1534
  222SOL    HW2  666   1.243   0.113   1.228 -0.3664  0.3365 -0.0393
  223SOL     OW  667   2.909   0.837   2.006  0.7630  0.1335  0.6430
  223SOL    HW1  668   2.921   0.835   2.109  2.2096  1.0731 -0.0646
  223SOL    HW2  669   2.933   0.927   1.963  0.7459  0.4364  1.8949
  224SOL     OW  670   1.546   0.981   2.793 -0.0340 -0.9163  0.7950
  224SOL    HW1  671   1.558   0.901   2.724  0.4107  1.1959 -0.6237
  224SOL    HW2  672   1.496   1.063   2.751 -1.7626  0.8982 -1.7796
  225SOL     OW  673   3.038   2.806   2.915  0.6130 -0.3804 -0.5411
  225SOL    HW1  674   3.007   2.729   2.850 -0.0267 -3.4772 -0.9144
  225SOL    HW2  675   3.101   2.880   2.871  1.7701  1.2183  1.7513
  226SOL     OW  676   2.466   1.616   2.862  0.2588 -0.4418 -0.2885
  226SOL    HW1  677   2.501   1.588   2.767 -0.1858 -1.0300  0.7648
  226SOL    HW2  678   2.414   1.537   2.902  2.6574  0.8779 -0.9893
  227SOL     OW  679   0.853   0.103   2.983  0.3292  0.0794 -0.0259
  227SOL    HW1  680   0.910   0.043   3.051 -0.1840 -2.4869  1.3924
  227SOL    HW2  681   0.874   0.076   2.885  0.3140  0.5927 -0.4452
  228SOL     OW  682   2.364   0.585   2.811 -0.0322 -0.0587  0.4912
  228SOL    HW1  683   2.291   0.600   2.734 -1.7180  0.7123 -1.3327
  228SOL    HW2  684   2.414   0.494   2.808 -1.1389  0.3537  2.8742
  229SOL     OW  685   0.571   0.506   1.864  0.0962  0.0588 -0.0682
  229SOL    HW1  686   0.613   0.498   1.771 -1.1396  1.1993  1.7099
  229SOL    HW2  687   0.641   0.549   1.920 -1.1914 -0.8755 -5.5113
  230SOL     OW  688   1.899   1.243   2.139 -0.5934 -0.0366  0.4768
  230SOL    HW1  689   1.984   1.278   2.088  4.6611  0.1065  1.1433
  230SOL    HW2  690   1.807   1.277   2.106 -0.9240 -0.1860  0.9510
  231SOL     OW  691   0.635   1.009   3.002 -0.2210 -0.8087  0.1799
  231SOL    HW1  692   0.727   1.060   3.005 -0.3561 -2.5177 -1.0406
  231SOL    HW2  693   0.571   1.049   3.078 -2.1710  2.0427 -0.2425
  232SOL     OW  694   2.515   0.033   2.747 -0.3315  0.0253 -0.1984
  232SOL    HW1  695   2.517  -0.041   2.817 -1.8208 -0.3036 -1.2923
  232SOL    HW2  696   2.542  -0.002   2.653  0.0805 -1.8507  0.7372
  233SOL     OW  697   1.698   1.270   1.047 -0.3457 -0.1313  0.4639
  233SOL    HW1  698   1.713   1.320   0.957  1.2567 -1.2869 -1.4799
  233SOL    HW2  699   1.744   1.177   1.040 -1.8699  0.2543 -0.4407
  234SOL     OW  700   1.654   2.616   1.835  0.3798 -0.2752  0.1913
  234SOL    HW1  701   1.660   2.650   1.934  0.4366 -1.9289 -0.3476
  234SOL    HW2  702   1.566   2.571   1.812  1.9082  0.6784 -1.8011
  235SOL     OW  703   0.109   3.007   2.888  0.8130  0.2056  0.3694
  235SOL    HW1  704   0.168   3.067   2.828 -1.4669  0.4023  1.2884
  235SOL    HW2  705   0.021   3.044   2.922  1.3597  0.0329  1.0985
  236SOL     OW  706   2.819   0.678   0.093  0.4571 -0.1254  0.4153
  236SOL    HW1  707   2.870   0.738   0.165  2.2531  0.6423  2.7114
  236SOL    HW2  708   2.879   0.601   0.059  3.4253 -0.5590  0.9115
  237SOL     OW  709   1.499   1.605   1.039  0.3890 -0.1300  0.0737
  237SOL    HW1  710   1.601   1.605   1.033 -1.9105  2.8311  0.4210
  237SOL    HW2  711   1.464   1.645   1.130 -1.5745  3.2744 -0.8699
  238SOL     OW  712   1.775   1.342   0.798  0.8335 -0.1340  0.6019
  238SOL    HW1  713   1.864   1.354   0.744 -0.8916  1.6030  2.0980
  238SOL    HW2  714   1.706   1.408   0.752  1.7578 -0.2798  0.6128
  239SOL     OW  715   2.094   0.238   2.722 -0.2538  0.2022  0.1965
  239SOL    HW1  716   2.191   0.246   2.761 -2.5584 -0.6174 -0.8635
  239SOL    HW2  717   2.019   0.295   2.770 -1.2003 -0.4578 -1.2240
  240SOL     OW  718   0.862   0.693   0.243  0.1404  0.1999  0.0189
  240SOL    HW1  719   0.872   0.606   0.188 -0.2495  0.3384 -2.6257
  240SOL    HW2  720   0.874   0.668   0.343 -0.5556  2.8829 -3.6578
  241SOL     OW  721   0.548   0.040   0.335  0.2100  0.4756 -0.1154
  241SOL    HW1  722   0.569   0.029   0.234 -2.5404 -0.8829  2.3824
  241SOL    HW2  723   0.482  -0.032   0.366 -3.3921 -0.6883  0.0039
  242SOL     OW  724   0.692   2.434   1.142  0.0782  1.1470  0.3112
  242SOL    HW1  725   0.667   2.504   1.211  1.8529 -0.4342 -0.6676
  242SOL    HW2  726   0.769   2.468   1.077  0.2869  3.5747  1.1073
  243SOL     OW  727   1.092   0.608   2.416  0.1048 -0.0764  0.1643
  243SOL    HW1  728   1.040   0.690   2.371 -2.4800 -0.3445 -0.2242
  243SOL    HW2  729   1.025   0.541   2.468 -0.0481 -2.4799  0.6290
  244SOL     OW  730   2.784   1.925   2.450  0.3486 -0.7787 -0.4636
  244SOL    HW1  731   2.846   1.940   2.363  1.7742 -0.9670  0.4611
  244SOL    HW2  732   2.696   1.880   2.428  1.9484  1.3717 -0.2011
  245SOL     OW  733   2.467   0.750   2.128  0.0219 -0.0770  0.2676
  245SOL    HW1  734   2.493   0.782   2.220  1.9754 -1.1236  1.2322
  245SOL    HW2  735   2.542   0.689   2.085  0.5480  1.3595 -1.8471
  246SOL     OW  736   0.215   2.883   1.704 -0.0144  0.4591 -0.4221
  246SOL    HW1  737   0.131   2.879   1.641  1.0431 -0.8009  0.0142
  246SOL    HW2  738   0.271   2.970   1.693  1.5162  1.1400 -0.3071
  247SOL     OW  739   2.170   0.553   3.017 -0.0610 -0.0361  0.4472
  247SOL    HW1  740   2.234   0.546   2.937 -0.0805  1.4624 -0.2015
  247SOL    HW2  741   2.150   0.656   3.039 -0.4246  2.0648 -0.7340
  248SOL     OW  742   2.176   1.853   1.649  0.0728 -0.0542 -0.3564
  248SOL    HW1  743   2.231   1.765   1.657  0.5093 -1.5824 -1.2510
  248SOL    HW2  744   2.086   1.849   1.699 -1.5462 -0.5087 -1.2712
  249SOL     OW  745   1.961   1.947   1.952  0.0293  0.6263  0.0296
  249SOL    HW1  746   1.965   1.874   1.880  1.5317  0.7098 -1.9742
  249SOL    HW2  747   2.051   1.999   1.967  1.5818 -0.6282  1.9962
  250SOL     OW  748   1.014   0.652   1.852  0.0577 -0.1469 -0.5128
  250SOL    HW1  749   1.064   0.606   1.932 -1.1644  0.8006  0.1059
  250SOL    HW2  750   1.054   0.615   1.766  0.2743  0.0183  0.9424
  251SOL     OW  751   3.018   1.558   2.579  0.1436  0.0085 -0.0208
  251SOL    HW1  752   3.027   1.659   2.561 -1.0351  0.9190  0.8091
  251SOL    HW2  753   2.928   1.525   2.541  0.1100  2.2697  0.0379
  252SOL     OW  754   1.518   0.905   1.535 -0.7446  0.3507 -0.1535
  252SOL    HW1  755   1.532   0.961   1.450 -0.5399  0.0610  0.2786
  252SOL    HW2  756   1.499   0.973   1.617 -1.1278  1.3950  1.2016
  253SOL     OW  757   0.976   1.538   0.391 -1.1049  0.8282 -0.0173
  253SOL    HW1  758   1.016   1.451   0.345  4.8336 -1.5026 -1.7250
  253SOL    HW2  759   0.872   1.549   0.377  0.7170  2.6218 -0.8401
  254SOL     OW  760   1.999   2.165   1.604  0.1990  0.5961 -0.3039
  254SOL    HW1  761   1.942   2.137   1.521 -0.0310  0.5882  0.3278
  254SOL    HW2  762   1.953   2.146   1.693 -0.6196 -1.7774  0.7360
  255SOL     OW  763   0.112   1.151   2.911  0.5083  0.1931  0.5159
  255SOL    HW1  764   0.153   1.242   2.909  0.6840 -0.4339 -4.1992
  255SOL    HW2  765   0.146   1.085   2.985 -1.9072  1.1483  0.5671
  256SOL     OW  766   2.802   1.351   1.845 -0.4989 -0.2007 -0.2129
  256SOL    HW1  767   2.735   1.429   1.835 -1.1657 -0.2866  2.2987
  256SOL    HW2  768   2.755   1.264   1.870 -0.6462  2.6189 -0.3915
  257SOL     OW  769   0.891   0.215   1.919  0.3257 -0.8374  0.4144
  257SOL    HW1  770   0.924   0.288   1.849 -1.4805 -1.3633 -1.1299
  257SOL    HW2  771   0.902   0.118   1.878 -0.4939 -1.4564  0.5923
  258SOL     OW  772   2.956   1.258   0.410 -0.0220 -0.4606 -0.2844
  258SOL    HW1  773   2.898   1.347   0.399  3.4396 -0.7406 -0.5606
  258SOL    HW2  774   3.000   1.257   0.503  0.8452 -1.5556 -2.5706
  259SOL     OW  775   0.428   2.896   2.991 -0.4156  0.5075  0.1811
  259SOL    HW1  776   0.412   2.822   3.067 -3.3133  1.3927  0.9406
  259SOL    HW2  777   0.445   2.853   2.897  1.3483  1.4558  0.0750
  260SOL     OW  778   2.651   0.756   2.775  0.1803  0.6827  0.1984
  260SOL    HW1  779   2.586   0.829   2.739  0.6343  2.4819  1.4834
  260SOL    HW2  780   2.601   0.666   2.788 -1.9432  2.4902  0.6521
  261SOL     OW  781   2.708   1.340   1.318  0.1028 -0.6231  0.3831
  261SOL    HW1  782   2.659   1.287   1.244  0.0033  0.8378  1.0929
  261SOL    HW2  783   2.804   1.313   1.327 -1.3134  0.9067 -0.0641
  262SOL     OW  784   1.475   2.921   2.038 -0.4389 -0.3073 -0.4308
  262SOL    HW1  785   1.476   2.998   1.967  2.0271  0.1578  3.0901
  262SOL    HW2  786   1.384   2.868   2.034 -1.0425 -0.3026 -2.1707
  263SOL     OW  787   0.883   0.780   2.303 -0.2229 -0.4223 -0.2648
  263SOL    HW1  788   0.825   0.696   2.277 -2.0215  0.9195 -1.0261
  263SOL    HW2  789   0.891   0.852   2.225 -1.0102 -0.7384 -1.2946
  264SOL     OW  790   2.262   0.754   0.503 -0.4030 -0.1996 -0.1311
  264SOL    HW1  791   2.170   0.780   0.471  2.3367 -0.1421  0.0311
  264SOL    HW2  792   2.323   0.829   0.540 -0.8669 -1.1760 -2.1369
  265SOL     OW  793   0.869   2.324   2.690 -0.0238 -0.4130  0.2164
  265SOL    HW1  794   0.903   2.394   2.757  3.0038 -1.2567 -2.7474
  265SOL    HW2  795   0.835   2.234   2.735 -0.7829 -1.4589  1.6665
  266SOL     OW  796   1.336   1.714   0.044 -0.1499 -0.4082  0.0721
  266SOL    HW1  797   1.298   1.802   0.086  1.3777  0.6367  0.1618
  266SOL    HW2  798   1.440   1.700   0.054  1.1842  2.8402 -0.0465
  267SOL     OW  799   1.074   0.025   2.375  0.5480 -0.1801  0.3765
  267SOL    HW1  800   1.048  -0.060   2.321 -0.6668 -1.9591  0.0139
  267SOL    HW2  801   1.024   0.106   2.333 -0.1263 -1.2949 -1.6454
  268SOL     OW  802   0.645   1.158   1.034  0.4525  0.3926 -0.0993
  268SOL    HW1  803   0.669   1.190   1.129  1.1525 -0.2681 -0.6182
  268SOL    HW2  804   0.629   1.238   0.969 -1.3663 -0.4621  3.0921
  269SOL     OW  805   2.444   2.527   1.605 -0.1023 -0.8563  0.2038
  269SOL    HW1  806   2.542   2.499   1.608 -1.6287 -2.2800  2.4054
  269SOL    HW2  807   2.404   2.545   1.697 -2.5757 -2.3838 -0.4408
  270SOL     OW  808   0.222   2.913   1.993 -0.2705  0.8163 -0.9263
  270SOL    HW1  809   0.248   2.889   1.896 -1.1159  0.7207 -1.0158
  270SOL    HW2  810   0.143   2.859   2.032  0.4060  0.2420 -1.0006
  271SOL     OW  811   0.448   1.397   1.192 -0.4608  0.2003  0.1554
  271SOL    HW1  812   0.412   1.438   1.102  0.9933 -0.0080  0.4798
  271SOL    HW2  813   0.379   1.403   1.266  2.2389 -0.7832  0.8416
  272SOL     OW  814   1.912   2.888   1.899 -0.3697  0.4780 -0.2709
  272SOL    HW1  815   1.872   2.834   1.824  0.5094  2.2726 -0.2579
  272SOL    HW2  816   2.001   2.936   1.876 -1.3749 -0.4361  0.3412
  273SOL     OW  817   1.458   1.441   2.857  0.1411 -0.3331 -0.0606
  273SOL    HW1  818   1.540   1.472   2.911  1.3496 -0.4880 -2.1040
  273SOL    HW2  819   1.367   1.475   2.900 -0.3427  0.8735 -1.3427
  274SOL     OW  820   1.174   0.517   2.033 -0.2296 -0.3061 -0.4429
  274SOL    HW1  821   1.218   0.433   1.986  0.0241 -0.4242 -0.8588
  274SOL    HW2  822   1.222   0.538   2.120 -0.3058 -0.8530  2.3216
  275SOL     OW  823   0.624   2.067   1.988  0.1573  0.1149  0.7786
  275SOL    HW1  824   0.591   2.168   1.991  0.6861 -1.4685 -0.2977
  275SOL    HW2  825   0.546   2.001   1.971 -0.7135 -0.6677  1.1843
  276SOL     OW  826   2.162   0.998   2.808 -0.1180  0.0819 -0.5166
  276SOL    HW1  827   2.087   0.992   2.742  1.4786  1.3247  4.0224
  276SOL    HW2  828   2.166   0.922   2.879  0.2950 -0.4172  1.1938
  277SOL     OW  829   3.036   0.839   0.187  0.1294  0.1591 -0.1121
  277SOL    HW1  830   3.125   0.842   0.130 -1.4496 -0.6488  0.9896
  277SOL    HW2  831   3.038   0.785   0.279 -1.2412  0.9017  0.0096
  278SOL     OW  832   0.185   0.258   2.982 -0.4573 -0.2289  0.2631
  278SOL    HW1  833   0.221   0.176   3.036  2.9062 -2.9400  0.8400
  278SOL    HW2  834   0.234   0.353   3.001  3.1952 -1.7085  1.1804
  279SOL     OW  835   0.152   0.001   0.860 -0.0216  0.8397 -0.0588
  279SOL    HW1  836   0.186   0.025   0.957  1.7347 -0.1689 -0.4438
  279SOL    HW2  837   0.233   0.008   0.796  0.7086  0.7657 -0.5032
  280SOL     OW  838   1.684   2.946   2.523 -0.0394 -0.2120 -0.0578
  280SOL    HW1  839   1.765   3.020   2.521 -0.2602 -0.5572  0.0879
  280SOL    HW2  840   1.587   2.985   2.503  1.1697  1.1401 -0.4171
  281SOL     OW  841   0.599   0.962   2.348 -0.8293  0.4275 -0.5476
  281SOL    HW1  842   0.567   0.864   2.331 -1.1883  0.4727  2.0855
  281SOL    HW2  843   0.621   0.975   2.447 -0.7263  0.5514 -3.3461
  282SOL     OW  844   1.684   2.440   0.520  0.2695  0.0669 -0.7374
  282SOL    HW1  845   1.654   2.357   0.458 -0.1471 -2.3849  0.9026
  282SOL    HW2  846   1.619   2.520   0.529  1.6900  1.9991  0.2257
  283SOL     OW  847   1.169   0.973   0.730  0.1076 -0.2369  0.6397
  283SOL    HW1  848   1.176   0.903   0.803  2.6993  1.9032 -0.1408
  283SOL    HW2  849   1.129   1.064   0.768  1.3832  2.0286 -0.1525
  284SOL     OW  850   2.305   2.790   2.388  0.7717  0.0060 -0.2008
  284SOL    HW1  851   2.400   2.777   2.357 -2.6684 -0.2215 -0.4850
  284SOL    HW2  852   2.296   2.814   2.491  0.3824 -3.9908  1.1748
  285SOL     OW  853   1.375   2.998   2.536 -0.4582 -0.9909 -0.7496
  285SOL    HW1  854   1.401   3.040   2.445  0.1743  0.3088 -1.0403
  285SOL    HW2  855   1.277   3.025   2.564 -1.2618  0.5689 -1.5128
  286SOL     OW  856   0.472   0.457   0.674  0.4051 -0.5363  0.3105
  286SOL    HW1  857   0.430   0.435   0.766 -0.6042  0.6485  0.7172
  286SOL    HW2  858   0.451   0.385   0.603  0.0546 -3.2114  2.3223
  287SOL     OW  859   0.090   1.340   2.481  0.4668 -0.0840 -0.4930
  287SOL    HW1  860   0.078   1.256   2.539  0.0642  0.9502  0.3945
  287SOL    HW2  861   0.050   1.427   2.528 -1.8654  1.3016 -0.8366
  288SOL     OW  862   1.590   2.643   1.467 -0.0224  0.6128 -0.2717
  288SOL    HW1  863   1.691   2.618   1.501  4.5483 -0.6069  0.9219
  288SOL    HW2  864   1.587   2.623   1.367  0.5792  0.9816 -0.7603
  289SOL     OW  865   0.682   2.739   0.771 -0.4189  0.1362 -0.5721
  289SOL    HW1  866   0.690   2.822   0.707  0.2904 -0.0308  1.0119
  289SOL    HW2  867   0.723   2.763   0.863 -1.9842  0.1589  2.0051
  290SOL     OW  868   2.916   1.223   1.617 -0.5868 -0.6682 -0.2490
  290SOL    HW1  869   2.855   1.285   1.665  1.3109  0.2185  1.6545
  290SOL    HW2  870   2.944   1.143   1.677 -3.7057 -1.8612 -1.2858
  291SOL     OW  871   1.966   0.033   0.058  0.6426  0.6652  0.2124
  291SOL    HW1  872   2.013   0.038   0.150 -1.3403  0.9861  1.5149
  291SOL    HW2  873   1.999   0.113  -0.002  0.3370  1.0764  0.7618
  292SOL     OW  874   2.950   1.187   3.046  0.3907 -0.4247  0.0179
  292SOL    HW1  875   2.883   1.237   2.986 -0.1680 -1.6157 -0.3296
  292SOL    HW2  876   3.041   1.182   2.996 -1.3471 -1.6960  0.3156
  293SOL     OW  877   0.609   2.075   0.126  1.1755 -0.3053 -0.1757
  293SOL    HW1  878   0.580   2.125   0.215 -0.9792  0.3626  1.9294
  293SOL    HW2  879   0.703   2.034   0.143  1.0886 -0.4229  0.3821
  294SOL     OW  880   1.680   2.144   1.783 -0.0716 -0.2016 -0.9675
  294SOL    HW1  881   1.686   2.188   1.877 -0.2474 -1.1683 -0.7245
  294SOL    HW2  882   1.697   2.219   1.709  0.4295 -0.7282 -0.6012
  295SOL     OW  883   0.961   1.048   0.399  0.3702 -0.8413 -0.0923
  295SOL    HW1  884   1.065   1.036   0.405  0.4064  0.4193 -0.7993
  295SOL    HW2  885   0.916   1.047   0.486  3.2039 -1.6980 -2.8424
  296SOL     OW  886   1.293   2.043   2.505  0.1574 -0.3827 -0.0395
  296SOL    HW1  887   1.319   2.076   2.411  1.0212 -3.4564  4.8180
  296SOL    HW2  888   1.281   1.940   2.512 -0.5654  1.5251  0.8310
  297SOL     OW  889   1.489   0.673   1.350 -0.5155 -0.6772 -0.2377
  297SOL    HW1  890   1.563   0.603   1.327 -0.3531 -1.2620 -1.2141
  297SOL    HW2  891   1.526   0.739   1.420 -1.0295 -0.0318 -1.1209
  298SOL     OW  892   0.487   1.228   2.857 -0.1430 -0.5014  0.0936
  298SOL    HW1  893   0.495   1.130   2.893  0.0086 -0.5576  0.1799
  298SOL    HW2  894   0.569   1.250   2.798 -0.6843 -1.1689  1.6389
  299SOL     OW  895   0.395   0.328   1.438  0.1785 -0.2442  0.7411
  299SOL    HW1  896   0.381   0.404   1.370  1.7090 -1.1261 -0.6566
  299SOL    HW2  897   0.493   0.303   1.451  0.7269  3.6615 -1.9785
  300SOL     OW  898   1.235   1.798   2.875  0.1225 -0.0800  0.0248
  300SOL    HW1  899   1.216   1.723   2.808 -0.8473 -0.0026  2.2706
  300SOL    HW2  900   1.223   1.773   2.976 -3.4192  2.4891  2.3276
  301SOL     OW  901   0.433   0.281   0.434 -0.0123 -0.0517 -0.5699
  301SOL    HW1  902   0.349   0.277   0.375  0.5052  0.4801 -1.2682
  301SOL    HW2  903   0.490   0.202   0.416 -1.4846  0.8666  1.7337
  302SOL     OW  904   1.230   2.293   2.323 -0.2324  0.7521  0.1896
  302SOL    HW1  905   1.161   2.330   2.390 -1.5333  1.6308  1.2588
  302SOL    HW2  906   1.206   2.197   2.284  2.5997  3.6994 -0.6285
  303SOL     OW  907   0.923   2.348   0.794  0.0718  0.5331  0.1549
  303SOL    HW1  908   0.929   2.408   0.709  0.4304 -2.5883 -0.8180
  303SOL    HW2  909   0.926   2.400   0.885  2.0671  1.8692 -0.4231
  304SOL     OW  910   0.143   2.091   0.663  0.5830  0.1400  0.7336
  304SOL    HW1  911   0.172   2.018   0.599 -0.2257  1.6284  2.0735
  304SOL    HW2  912   0.061   2.147   0.633 -2.1418 -0.3737 -0.4262
  305SOL     OW  913   1.624   0.895   0.658  0.1448  0.1381 -0.9009
  305SOL    HW1  914   1.554   0.888   0.576 -6.2267 -0.4309  0.2530
  305SOL    HW2  915   1.698   0.823   0.666  0.0971 -0.4261  0.7255
  306SOL     OW  916   0.433   1.867   1.891  0.0452 -0.1377 -0.4845
  306SOL    HW1  917   0.502   1.800   1.845  0.8123 -0.2364  1.2946
  306SOL    HW2  918   0.403   1.821   1.980  0.2263  0.5079  1.5460
  307SOL     OW  919   0.020   0.824   2.570  0.0875  0.0276  0.2124
  307SOL    HW1  920   0.023   0.927   2.587 -1.3532 -1.5812  3.0878
  307SOL    HW2  921  -0.061   0.774   2.610  1.3364  1.1499  0.8866
  308SOL     OW  922   1.577   2.627   2.858  0.2215 -0.3204  0.1970
  308SOL    HW1  923   1.610   2.591   2.772 -0.5652 -1.8408  2.2435
  308SOL    HW2  924   1.488   2.577   2.890 -3.9615  1.7632  0.0339
  309SOL     OW  925   1.231   0.033   1.766  0.3938  0.2409 -0.2289
  309SOL    HW1  926   1.328   0.037   1.804 -4.0352  0.5383 -1.3801
  309SOL    HW2  927   1.217   0.066   1.667 -3.8190  2.0553  0.9896
  310SOL     OW  928   1.346   2.642   0.715  0.5695 -0.2976 -0.1652
  310SOL    HW1  929   1.326   2.742   0.714  2.5876 -0.1803  2.3313
  310SOL    HW2  930   1.431   2.632   0.657 -0.6684 -0.2172 -1.4373
  311SOL     OW  931   1.222   0.923   1.500  0.3230 -0.5113  0.4815
  311SOL    HW1  932   1.266   0.893   1.414 -0.6702  1.3378  1.7007
  311SOL    HW2  933   1.257   1.018   1.521  2.3629  1.5705  3.0712
  312SOL     OW  934   1.605   0.685   0.950 -0.3636 -0.0082 -0.4862
  312SOL    HW1  935   1.583   0.787   0.960  2.8685 -1.5182  1.8613
  312SOL    HW2  936   1.518   0.628   0.949 -0.5146  3.5315  0.5054
  313SOL     OW  937   1.569   1.441   0.617 -0.5269 -0.2607  0.0368
  313SOL    HW1  938   1.470   1.460   0.598  0.9620 -1.1357  0.4044
  313SOL    HW2  939   1.591   1.343   0.601  0.7879  0.2560  0.7409
  314SOL     OW  940   2.953   0.005   2.990 -0.0546  0.2679  0.3496
  314SOL    HW1  941   2.914   0.091   3.034  0.0211 -0.8160 -1.2993
  314SOL    HW2  942   2.883  -0.074   3.006  0.6199 -1.1777  1.3188
  315SOL     OW  943   1.253   0.230   2.780 -0.0736  0.0208 -0.0485
  315SOL    HW1  944   1.221   0.142   2.735  3.2917 -0.1956 -1.0256
  315SOL    HW2  945   1.259   0.231   2.885 -1.1373  1.8748  0.4370
  316SOL     OW  946   1.689   2.074   0.894  0.3270 -0.0687  0.1418
  316SOL    HW1  947   1.645   2.076   0.986 -0.6056  1.9730  0.4010
  316SOL    HW2  948   1.707   2.171   0.856  0.5684 -2.6982  0.3763
  317SOL     OW  949   1.132   0.690   2.859 -0.5709 -0.1386 -0.0270
  317SOL    HW1  950   1.066   0.749   2.919 -0.9146 -2.0493 -0.2006
  317SOL    HW2  951   1.091   0.611   2.807  0.0364 -0.4558  0.9725
  318SOL     OW  952   1.443   3.075   2.292  0.2199  0.0350  0.5563
  318SOL    HW1  953   1.398   3.159   2.239  0.6986  0.3342  3.4010
  318SOL    HW2  954   1.457   2.998   2.219  0.6603 -0.9481  0.4256
  319SOL     OW  955   0.641   2.396   2.942  0.0782 -0.1442 -0.1206
  319SOL    HW1  956   0.554   2.361   2.993  0.5591  3.1527  0.4600
  319SOL    HW2  957   0.696   2.316   2.906 -0.4377  1.0668  1.9878
  320SOL     OW  958   1.626   2.220   0.372 -0.2782 -0.5554 -0.5470
  320SOL    HW1  959   1.725   2.182   0.366  3.4123 -0.7398 -0.2710
  320SOL    HW2  960   1.567   2.183   0.453  1.4168  0.0320  1.5864
  321SOL     OW  961   1.582   2.701   0.530  0.0078 -0.4137  0.2733
  321SOL    HW1  962   1.511   2.752   0.474 -1.9191 -0.7735 -0.1646
  321SOL    HW2  963   1.654   2.764   0.567 -1.0455  0.9575 -2.1368
  322SOL     OW  964   2.623   1.137   2.283 -0.7996 -0.2022 -0.0934
  322SOL    HW1  965   2.704   1.132   2.348  0.1964 -0.0320 -0.3052
  322SOL    HW2  966   2.575   1.049   2.294  0.8527  2.5162 -0.5144
  323SOL     OW  967   0.979   2.696   0.818 -0.6315 -0.5692 -0.5049
  323SOL    HW1  968   0.987   2.634   0.732  1.2622  0.0958  1.1692
  323SOL    HW2  969   1.010   2.791   0.799  1.5022 -2.7465 -0.7885
  324SOL     OW  970   0.122   2.476   2.455  0.1481  0.0460  0.2996
  324SOL    HW1  971   0.115   2.389   2.506  1.1580  0.6288  0.5170
  324SOL    HW2  972   0.067   2.551   2.500  2.3819  1.0388  0.1250
  325SOL     OW  973   1.194  -0.004   0.462 -0.3648 -0.0799 -0.0402
  325SOL    HW1  974   1.246   0.027   0.372  3.3183  1.2936 -0.4229
  325SOL    HW2  975   1.232   0.044   0.549  0.8231  0.2630  0.9574
  326SOL     OW  976   2.407   0.753   3.097  0.6367  0.1081 -0.1476
  326SOL    HW1  977   2.358   0.699   3.020  0.7072  0.7733 -1.5985
  326SOL    HW2  978   2.445   0.684   3.165 -1.7632 -2.2907  1.5468
  327SOL     OW  979   2.753   0.399   0.540  1.2227 -0.2449 -0.1659
  327SOL    HW1  980   2.743   0.365   0.443  1.9742 -1.6200  0.3974
  327SOL    HW2  981   2.664   0.381   0.595  1.0873  2.4121  0.0914
  328SOL     OW  982   2.479   0.557   0.442  0.2347 -0.1439 -0.3378
  328SOL    HW1  983   2.390   0.605   0.455 -2.8811 -3.5668  0.7317
  328SOL    HW2  984   2.505   0.499   0.523 -1.3271 -1.7660  0.0824
  329SOL     OW  985   2.987   3.019   2.151 -0.5346 -0.4064 -0.1727
  329SOL    HW1  986   3.029   2.968   2.228  0.3953  0.2233 -0.4186
  329SOL    HW2  987   3.027   3.117   2.135  0.0705  0.3778 -0.6273
  330SOL     OW  988   0.517   0.159   1.899  0.0739  0.1913  0.3134
  330SOL    HW1  989   0.558   0.251   1.881 -0.4800 -0.9643 -1.8976
  330SOL    HW2  990   0.535   0.125   1.996 -1.9301 -0.9665  0.8756
  331SOL     OW  991   2.944   1.907   1.136 -0.2617  0.2946  0.3008
  331SOL    HW1  992   2.984   1.984   1.080 -2.4207  1.7192  1.4495
  331SOL    HW2  993   2.872   1.944   1.205  0.4826 -0.2788  1.2207
  332SOL     OW  994   0.434   1.071   0.054  0.5142  0.9237  0.3883
  332SOL    HW1  995   0.348   1.031   0.005 -0.7992 -0.3536 -0.7900
  332SOL    HW2  996   0.412   1.159   0.106 -0.8820 -1.3629  0.9003
  333SOL     OW  997   2.841   1.013   0.293  0.6594  0.1522  0.4899
  333SOL    HW1  998   2.886   1.095   0.339  3.8766 -0.9778 -0.0345
  333SOL    HW2  999   2.911   0.952   0.246 -2.4176 -0.7790 -2.1139
  334SOL     OW 1000   1.654   1.155   1.913 -0.1173 -0.2543 -0.0179
  334SOL    HW1 1001   1.739   1.146   1.856  0.6808  0.8033  3.0557
  334SOL    HW2 1002   1.662   1.244   1.968 -2.8603  1.7979  2.6849
  335SOL     OW 1003   1.986   2.779   2.621  0.3946 -0.1602  0.5251
  335SOL    HW1 1004   1.914   2.800   2.689  2.0576  3.1971  0.1245
  335SOL    HW2 1005   2.058   2.849   2.635 -1.1680 -0.5257  0.8990
  336SOL     OW 1006   0.250   0.101   2.739  0.3725  0.1125  0.0749
  336SOL    HW1 1007   0.347   0.067   2.760 -0.8104  0.4391  0.1538
  336SOL    HW2 1008   0.233   0.184   2.798 -2.5729  0.0407 -0.4513
  337SOL     OW 1009   0.911   2.785   2.839 -0.3203 -0.5897  0.1974
  337SOL    HW1 1010   0.897   2.761   2.940  0.8419 -1.8278  0.6019
  337SOL    HW2 1011   1.006   2.759   2.801  0.8338 -4.1985 -1.1397
  338SOL     OW 1012   0.011   1.014   0.607  0.6040 -0.2735 -0.1510
  338SOL    HW1 1013  -0.083   0.995   0.641  0.2332 -0.7585 -0.5034
  338SOL    HW2 1014   0.028   1.113   0.624 -1.9698 -1.4348 -0.4729
  339SOL     OW 1015   1.676   1.395   2.070 -0.1504  0.3904  0.2458
  339SOL    HW1 1016   1.580   1.424   2.091  2.2745  0.1406 -2.2725
  339SOL    HW2 1017   1.736   1.476   2.085 -0.6538 -2.2062  0.0450
  340SOL     OW 1018   2.295   0.799   1.176 -0.3429  0.3910  0.0866
  340SOL    HW1 1019   2.196   0.826   1.182 -0.1506  0.7004 -0.3211
  340SOL    HW2 1020   2.311   0.709   1.129  1.6777  1.4086 -1.1972
  341SOL     OW 1021   1.900   2.148   0.371  0.7331 -0.8398 -0.0038
  341SOL    HW1 1022   1.920   2.185   0.273  3.5210  0.3809 -0.0296
  341SOL    HW2 1023   1.986   2.127   0.425 -2.0536 -0.9404 -1.7579
  342SOL     OW 1024   2.209   2.091   2.746  0.0823 -0.7808  0.3124
  342SOL    HW1 1025   2.257   2.001   2.719  0.3825  1.7057 -1.5518
  342SOL    HW2 1026   2.128   2.072   2.808 -2.8710 -0.6325  0.1267
  343SOL     OW 1027   0.347   0.851   2.797 -0.2689 -0.6628 -0.6973
  343SOL    HW1 1028   0.326   0.927   2.733 -0.6415 -0.5062 -2.4100
  343SOL    HW2 1029   0.445   0.844   2.822 -2.3605  1.8889 -2.4514
  344SOL     OW 1030   1.905   1.478   0.372 -0.6525  0.1132  0.6597
  344SOL    HW1 1031   1.920   1.396   0.310  0.7598 -2.9803  1.8709
  344SOL    HW2 1032   1.833   1.542   0.331 -0.7426 -1.6712 -1.8899
  345SOL     OW 1033   1.380   2.210   2.841 -0.2448  0.0679  0.0472
  345SOL    HW1 1034   1.291   2.159   2.818  0.0464  1.1769  0.7172
  345SOL    HW2 1035   1.460   2.170   2.788 -0.5599  0.7236 -0.5406
  346SOL     OW 1036   2.361   0.860   1.437 -0.6848 -0.5454 -0.0786
  346SOL    HW1 1037   2.292   0.934   1.458 -0.2498 -1.1541  0.5762
  346SOL    HW2 1038   2.345   0.822   1.343 -2.6420  0.2001  1.1992
  347SOL     OW 1039   0.719   2.827   1.489  0.6049  0.3504  0.7357
  347SOL    HW1 1040   0.710   2.786   1.583 -0.7539  0.4025  1.6300
  347SOL    HW2 1041   0.634   2.879   1.458  0.3041  1.1254 -2.4502
  348SOL     OW 1042   0.111   0.709   2.868  0.2802 -0.3932 -0.1442
  348SOL    HW1 1043   0.028   0.706   2.807  0.4486  1.7884  2.1851
  348SOL    HW2 1044   0.191   0.753   2.813 -1.7915  1.0882 -0.4819
  349SOL     OW 1045   1.898   0.427   2.808 -0.0862  0.3822  0.1692
  349SOL    HW1 1046   1.905   0.516   2.751 -1.1430  0.5874 -3.9368
  349SOL    HW2 1047   1.869   0.439   2.907 -0.2299 -1.1902  0.4533
  350SOL     OW 1048   1.698   0.406   0.365 -0.5029 -0.3768  0.1425
  350SOL    HW1 1049   1.768   0.433   0.438  1.9847 -0.9417  0.6964
  350SOL    HW2 1050   1.630   0.482   0.356  0.6031  2.8739  3.4099
  351SOL     OW 1051   0.906   0.922   2.081  0.4308 -0.1558  0.2118
  351SOL    HW1 1052   0.912   1.025   2.058  1.0932 -0.7408 -2.3723
  351SOL    HW2 1053   0.882   0.869   1.997  0.4277  0.6538 -2.5007
  352SOL     OW 1054   1.989   1.346   0.602 -0.3937 -0.5339 -0.0608
  352SOL    HW1 1055   1.956   1.402   0.519 -2.3534  2.3890  0.4462
  352SOL    HW2 1056   2.081   1.386   0.644  4.0976 -1.9747  1.1961
  353SOL     OW 1057   2.134   2.866   1.129  0.0483  0.0996  0.1216
  353SOL    HW1 1058   2.224   2.833   1.167 -3.0075 -1.9820  1.3214
  353SOL    HW2 1059   2.085   2.794   1.073 -2.4618  0.4589  0.6421
  354SOL     OW 1060   0.264   1.390   2.856 -0.9920  0.5494 -0.2336
  354SOL    HW1 1061   0.253   1.448   2.773  0.0019 -3.0586  1.4160
  354SOL    HW2 1062   0.344   1.322   2.848 -0.5328  0.0723 -0.2195
  355SOL     OW 1063   0.462   1.500   0.561  0.3013  0.3779  0.1587
  355SOL    HW1 1064   0.466   1.604   0.584  0.8875  1.9088  1.8980
  355SOL    HW2 1065   0.555   1.454   0.551  2.7203 -1.2770 -1.7553
  356SOL     OW 1066   0.890   0.412   2.119  0.4390 -0.3267  0.2481
  356SOL    HW1 1067   0.967   0.473   2.085 -2.3253  0.7671  2.7746
  356SOL    HW2 1068   0.877   0.330   2.054  0.5100 -0.9795 -0.0513
  357SOL     OW 1069   1.056   1.288   0.236 -0.2224 -0.3845  0.6310
  357SOL    HW1 1070   0.995   1.289   0.150  0.7807 -1.7746  3.5184
  357SOL    HW2 1071   1.040   1.209   0.302 -0.2947 -1.0586 -2.2142
  358SOL     OW 1072   1.663   1.594   0.395  0.3654 -0.7290  0.7430
  358SOL    HW1 1073   1.607   1.526   0.455 -1.0148 -1.5774  0.9549
  358SOL    HW2 1074   1.599   1.671   0.358 -1.0861  1.1618  0.9689
  359SOL     OW 1075   1.565   2.703   0.179  0.2365 -0.4134 -0.4065
  359SOL    HW1 1076   1.556   2.628   0.110  2.2705  1.2075  1.1089
  359SOL    HW2 1077   1.475   2.752   0.196 -1.8438  2.8381 -0.3928
  360SOL     OW 1078   0.890   0.598   0.491  0.5135  0.3459  0.7848
  360SOL    HW1 1079   0.804   0.608   0.558  0.0648  2.3251  1.9582
  360SOL    HW2 1080   0.916   0.499   0.473 -1.9746  0.6156 -0.7766
  361SOL     OW 1081   1.250   1.391   0.666  0.0072 -0.4065 -0.3285
  361SOL    HW1 1082   1.287   1.411   0.765 -0.4298  2.2490 -1.3440
  361SOL    HW2 1083   1.144   1.402   0.667 -1.8123  0.0319 -0.3726
  362SOL     OW 1084   1.403   1.767   0.785  0.0828 -0.0081 -0.2839
  362SOL    HW1 1085   1.417   1.699   0.860 -0.0640  0.5906 -0.5699
  362SOL    HW2 1086   1.481   1.827   0.765 -1.3058 -2.3353 -1.9134
  363SOL     OW 1087   1.150   1.366   1.998  0.2812 -0.1806 -0.0502
  363SOL    HW1 1088   1.123   1.444   2.061 -1.1794  0.3433 -0.3396
  363SOL    HW2 1089   1.211   1.394   1.922  0.8458  1.2101  0.6666
  364SOL     OW 1090   0.581   2.334   1.974 -0.1818 -0.5433  0.1987
  364SOL    HW1 1091   0.486   2.375   1.980 -1.0690 -1.5100  1.2166
  364SOL    HW2 1092   0.634   2.360   1.886  0.1926 -1.1588 -0.6395
  365SOL     OW 1093   1.094   1.918   1.368 -0.3532  0.3503 -0.0152
  365SOL    HW1 1094   0.999   1.930   1.415 -0.8967  1.5659 -1.7417
  365SOL    HW2 1095   1.095   1.845   1.293 -0.4297  1.0990  0.9160
  366SOL     OW 1096   2.816   2.060   0.478  0.1270  0.0921 -0.2791
  366SOL    HW1 1097   2.734   1.998   0.469  0.1618  2.0962 -1.3066
  366SOL    HW2 1098   2.910   2.015   0.455  1.7730 -2.3102 -0.9791
  367SOL     OW 1099   0.800   1.232   0.081  0.3235 -0.5615 -0.2916
  367SOL    HW1 1100   0.804   1.138   0.116 -0.5149  3.0563 -0.6561
  367SOL    HW2 1101   0.801   1.249  -0.020  0.8069 -2.8535  2.0863
  368SOL     OW 1102   1.569   0.524   0.681  0.0495  0.2722  0.4752
  368SOL    HW1 1103   1.503   0.568   0.612 -1.9208  0.6491 -0.0381
  368SOL    HW2 1104   1.636   0.594   0.723 -0.9673  2.2689 -0.7853
  369SOL     OW 1105   0.288   1.695   0.104  0.0229 -0.2744  0.2996
  369SOL    HW1 1106   0.317   1.781   0.149 -3.5596  2.4158  0.6996
  369SOL    HW2 1107   0.188   1.708   0.081  2.1415  0.8148 -1.8384
  370SOL     OW 1108   0.413   2.123   0.966 -0.6504 -0.3443  0.1851
  370SOL    HW1 1109   0.423   2.228   0.963 -0.9838  0.1032 -1.4067
  370SOL    HW2 1110   0.317   2.088   0.980 -0.4184  1.2647 -0.0518
  371SOL     OW 1111   2.903   2.205   2.753  0.1508 -0.0599  0.0286
  371SOL    HW1 1112   2.887   2.183   2.848 -0.4356 -3.1815 -0.9170
  371SOL    HW2 1113   3.006   2.205   2.726  0.0684 -1.4635 -1.4454
  372SOL     OW 1114   0.909   1.870   0.954  0.0433 -0.2025 -0.2913
  372SOL    HW1 1115   0.887   1.972   0.954 -1.1743 -0.8225 -3.2562
  372SOL    HW2 1116   1.006   1.858   0.914  1.7472 -2.9945  0.2385
  373SOL     OW 1117   1.977   2.015   0.922  0.3115 -0.7014  0.3599
  373SOL    HW1 1118   2.047   2.024   0.997 -2.1081  2.3003  1.2977
  373SOL    HW2 1119   1.882   2.003   0.955  1.5740 -1.5204 -0.4722
  374SOL     OW 1120   1.903   0.424   0.548  0.2103  0.4626 -0.3095
  374SOL    HW1 1121   1.881   0.376   0.631  0.7399  0.9888 -4.2934
  374SOL    HW2 1122   2.003   0.416   0.514  0.3235 -0.0316  1.7662
  375SOL     OW 1123   2.423   2.225   1.092 -0.6305 -0.9999  0.0794
  375SOL    HW1 1124   2.467   2.178   1.010  0.8210  0.7752 -1.1367
  375SOL    HW2 1125   2.462   2.193   1.179 -1.7994  0.4513 -1.6460
  376SOL     OW 1126   3.043   0.608   1.445 -0.3197  0.1170  0.0775
  376SOL    HW1 1127   3.101   0.668   1.505 -0.3185  0.1720  0.9008
  376SOL    HW2 1128   2.940   0.602   1.472 -0.0269  0.4644  0.1127
  377SOL     OW 1129   2.244   2.889   0.364  0.4466  0.2422 -0.1882
  377SOL    HW1 1130   2.253   2.988   0.389 -0.5763 -2.1414 -1.1546
  377SOL    HW2 1131   2.333   2.834   0.352 -0.5015 -0.1673  1.2238
  378SOL     OW 1132   1.876   1.888   2.644 -0.1863  0.1891 -0.5769
  378SOL    HW1 1133   1.885   1.786   2.665 -1.0244  1.4564  3.2002
  378SOL    HW2 1134   1.920   1.922   2.556 -1.3019  1.0329 -0.9465
  379SOL     OW 1135   0.872   0.094   2.710 -0.5029 -0.6736  0.0700
  379SOL    HW1 1136   0.821   0.017   2.658 -1.0446  1.0985  0.5254
  379SOL    HW2 1137   0.808   0.178   2.720 -0.2530  1.4486  1.1292
  380SOL     OW 1138   1.537   1.148   0.577 -0.3174 -0.3309  0.3641
  380SOL    HW1 1139   1.435   1.161   0.545 -0.8739  1.8597  1.2409
  380SOL    HW2 1140   1.552   1.072   0.644  2.3218  0.5300 -3.1999
  381SOL     OW 1141   1.290   1.214   1.501  0.5022 -0.1514 -0.0645
  381SOL    HW1 1142   1.346   1.222   1.419 -0.3430  0.9431  1.9178
  381SOL    HW2 1143   1.341   1.227   1.590  0.3940  1.8126  0.8776
  382SOL     OW 1144   1.733   0.825   0.281  0.2017 -0.1409 -0.3967
  382SOL    HW1 1145   1.768   0.814   0.182  1.7008  0.9280  0.0175
  382SOL    HW2 1146   1.812   0.832   0.347 -1.3469 -0.4783 -2.0069
  383SOL     OW 1147   2.614   1.024   1.526  0.0272  0.2027  0.2948
  383SOL    HW1 1148   2.542   1.010   1.450 -3.4399  0.5929 -0.0461
  383SOL    HW2 1149   2.710   0.994   1.498 -3.9270 -1.1288  1.3291
  384SOL     OW 1150   0.963   2.265   0.158 -0.7062 -0.1425 -0.4499
  384SOL    HW1 1151   0.903   2.345   0.177  1.7260  0.9169 -2.9722
  384SOL    HW2 1152   0.939   2.179   0.221 -0.7877  0.5190  4.2401
  385SOL     OW 1153   3.021   2.019   1.715 -0.5154  0.1595  0.5509
  385SOL    HW1 1154   3.112   2.070   1.719  2.0008 -1.6224  2.3975
  385SOL    HW2 1155   3.046   1.923   1.686  2.1590 -2.9904 -1.7844
  386SOL     OW 1156   0.438   1.118   0.448 -0.0133 -0.0270 -0.0971
  386SOL    HW1 1157   0.475   1.020   0.434 -0.1655  0.5796 -0.4114
  386SOL    HW2 1158   0.361   1.144   0.383 -2.6004  1.6034 -0.8016
  387SOL     OW 1159   0.967   0.346   1.684  0.1258 -0.2015 -0.3815
  387SOL    HW1 1160   1.035   0.424   1.671  1.7438  0.2908 -2.0548
  387SOL    HW2 1161   0.962   0.285   1.602  1.8800  1.6923  4.0924
  388SOL     OW 1162   1.211   2.597   1.779 -0.3415  0.6593  0.5084
  388SOL    HW1 1163   1.235   2.615   1.678 -1.7433  0.2083 -3.7692
  388SOL    HW2 1164   1.259   2.514   1.823 -1.2838 -2.2449  0.9205
  389SOL     OW 1165   0.244   3.076   1.141 -0.0009 -0.2445  0.4561
  389SOL    HW1 1166   0.196   3.097   1.230 -0.5907  1.0728  2.1317
  389SOL    HW2 1167   0.316   2.995   1.143  1.2806 -0.5206 -1.2005
  390SOL     OW 1168   1.002   0.846   1.268  0.1366  0.6007 -0.1516
  390SOL    HW1 1169   1.103   0.827   1.245  2.2174  1.6677  0.8708
  390SOL    HW2 1170   0.973   0.847   1.367  2.0889  1.1860 -2.4043
  391SOL     OW 1171   2.132   1.152   1.011 -0.4413 -0.6555  0.0515
  391SOL    HW1 1172   2.073   1.073   0.995  1.2904  1.8322 -1.0028
  391SOL    HW2 1173   2.220   1.149   0.956 -2.0960  0.6751 -0.3968
  392SOL     OW 1174   0.878   2.699   3.088 -0.3255  0.8669  0.0213
  392SOL    HW1 1175   0.797   2.690   3.149 -1.2046 -1.3454  0.2042
  392SOL    HW2 1176   0.965   2.731   3.134  0.4351  0.2760  0.5937
  393SOL     OW 1177   0.328   0.585   1.968 -0.0986 -0.3500 -0.0921
  393SOL    HW1 1178   0.241   0.533   1.956 -0.6300  1.8143 -0.8197
  393SOL    HW2 1179   0.410   0.553   1.912 -0.3004 -0.0044  1.0107
  394SOL     OW 1180   2.815   1.778   2.781  0.3704  0.0770  0.1411
  394SOL    HW1 1181   2.911   1.782   2.746 -1.6764 -0.8676  0.8602
  394SOL    HW2 1182   2.769   1.874   2.785 -0.6900 -1.4508  1.0941
  395SOL     OW 1183   1.595   1.933   0.667 -0.0693 -0.3670  0.4837
  395SOL    HW1 1184   1.674   1.874   0.631 -0.4815  1.3820  0.1161
  395SOL    HW2 1185   1.609   1.981   0.758 -2.9586 -0.7509 -1.9426
  396SOL     OW 1186   2.745   2.052   1.280  0.2907  0.2128 -0.8240
  396SOL    HW1 1187   2.775   2.039   1.378  1.3428 -0.5090 -1.2318
  396SOL    HW2 1188   2.650   2.097   1.277 -1.2266  0.8919  0.2090
  397SOL     OW 1189   1.004   2.117   0.656  0.1156 -0.6634 -0.1536
  397SOL    HW1 1190   0.924   2.072   0.614  1.0729 -1.5832 -1.5032
  397SOL    HW2 1191   0.980   2.201   0.719 -2.0256  0.3146  0.5972
  398SOL     OW 1192   2.157   0.037   1.103 -0.9250  0.6270 -0.4665
  398SOL    HW1 1193   2.130  -0.068   1.113 -0.0819  0.7233 -0.7289
  398SOL    HW2 1194   2.077   0.097   1.082 -2.9750 -0.5576  1.0821
  399SOL     OW 1195   2.924   2.601   2.768  0.9351 -0.1806 -1.0175
  399SOL    HW1 1196   2.889   2.559   2.680  0.3451  2.2883  2.1096
  399SOL    HW2 1197   2.896   2.549   2.855  1.6289  0.7652  0.1760
  400SOL     OW 1198   0.817   1.601   1.272  0.3314  0.0744 -0.1811
  400SOL    HW1 1199   0.780   1.652   1.356  0.9394 -1.2585  0.2592
  400SOL    HW2 1200   0.765   1.623   1.183 -0.9525  1.2952  1.4324
  401SOL     OW 1201   1.853   0.100   1.286  0.0593  0.3734  0.1955
  401SOL    HW1 1202   1.920   0.140   1.352 -2.1181 -0.0726 -0.9054
  401SOL    HW2 1203   1.762   0.071   1.327  0.4660 -1.5236  0.9187
  402SOL     OW 1204   1.307   0.174   3.054 -0.3799 -0.4538  0.0604
  402SOL    HW1 1205   1.389   0.154   2.995 -1.7133  0.3846 -1.4365
  402SOL    HW2 1206   1.303   0.258   3.101  1.9785 -3.2062  0.2245
  403SOL     OW 1207   2.260   1.781   0.982  0.1631  0.3608 -0.5951
  403SOL    HW1 1208   2.338   1.740   1.031  0.5557  0.5310 -0.4148
  403SOL    HW2 1209   2.229   1.871   1.024 -0.9050 -3.0440  0.4996
  404SOL     OW 1210   0.194   2.451   2.786  0.0603 -0.0229  0.7782
  404SOL    HW1 1211   0.295   2.438   2.764  0.0896  0.8785 -0.6707
  404SOL    HW2 1212   0.181   2.552   2.791  0.9482 -1.9471 -4.4938
  405SOL     OW 1213   0.254   2.483   0.589  0.2130  0.0027  0.2819
  405SOL    HW1 1214   0.251   2.450   0.489  1.4176  0.3641 -1.2660
  405SOL    HW2 1215   0.269   2.587   0.599  1.6028  2.6562  1.5659
  406SOL     OW 1216   0.027   1.515   2.983  0.2497 -0.4306 -0.0993
  406SOL    HW1 1217   0.114   1.482   2.936 -1.2845 -0.2659 -0.9251
  406SOL    HW2 1218   0.039   1.527   3.086 -0.6886 -1.4756  0.1100
  407SOL     OW 1219   1.540   0.954   0.954 -0.0833 -0.2310 -0.4048
  407SOL    HW1 1220   1.546   0.939   0.851 -0.6191 -1.2126 -1.5016
  407SOL    HW2 1221   1.483   1.041   0.981 -0.5446  0.7309 -0.5667
  408SOL     OW 1222   1.453   2.342   0.948 -0.4841 -0.3115  0.7321
  408SOL    HW1 1223   1.521   2.325   0.871  0.5686  1.4356  0.8634
  408SOL    HW2 1224   1.469   2.442   0.982 -2.3219  3.0423  1.3621
  409SOL     OW 1225   0.617   0.881   0.676  0.4088  0.0517 -0.4862
  409SOL    HW1 1226   0.548   0.873   0.600 -0.4243  0.3302 -1.5850
  409SOL    HW2 1227   0.662   0.791   0.693  0.1916  0.3690  0.4289
  410SOL     OW 1228   1.313   1.994   1.496  0.7112  0.0318  0.2252
  410SOL    HW1 1229   1.293   2.070   1.569 -1.2851 -1.3681 -0.9345
  410SOL    HW2 1230   1.223   1.965   1.456  0.3410  2.6817  0.6378
  411SOL     OW 1231   2.359   1.851   0.035  0.3537 -0.3361  0.2264
  411SOL    HW1 1232   2.285   1.831  -0.039 -0.2722  1.5126 -4.2318
  411SOL    HW2 1233   2.455   1.849  -0.005 -0.9177  0.5218 -0.3102
  412SOL     OW 1234   1.505   2.419   2.265 -0.2521 -0.4030 -0.4407
  412SOL    HW1 1235   1.439   2.496   2.276  1.0217 -1.4426 -1.4854
  412SOL    HW2 1236   1.508   2.364   2.353 -1.2754  3.5408 -0.5999
  413SOL     OW 1237   3.020   0.271   2.880  0.2519 -0.3445  0.6265
  413SOL    HW1 1238   2.996   0.171   2.890  0.6605 -2.0658 -0.4013
  413SOL    HW2 1239   3.120   0.288   2.900 -0.3447 -0.4084 -0.4229
  414SOL     OW 1240   1.772   1.339   1.337  0.1317  0.1187 -0.1869
  414SOL    HW1 1241   1.696   1.403   1.370  3.2967 -1.2027 -2.5940
  414SOL    HW2 1242   1.759   1.312   1.234  0.7110 -1.7797 -1.1494
  415SOL     OW 1243   0.356   2.238   0.673  0.2083  0.3594 -0.4119
  415SOL    HW1 1244   0.330   2.338   0.654 -1.2665 -1.0051 -0.0219
  415SOL    HW2 1245   0.266   2.178   0.677 -4.2159  2.3916 -1.4636
  416SOL     OW 1246   0.349   1.041   1.042  0.4143  0.0422 -0.0776
  416SOL    HW1 1247   0.304   1.007   0.953  0.0620  0.3839 -1.3800
  416SOL    HW2 1248   0.403   1.124   1.038 -1.6876  0.1325 -0.6769
  417SOL     OW 1249   2.154   2.330   1.858 -0.6460  0.1992  0.2897
  417SOL    HW1 1250   2.194   2.235   1.882  0.5865  1.6788 -0.7704
  417SOL    HW2 1251   2.057   2.350   1.894  0.3430 -0.9542 -1.3970
  418SOL     OW 1252   1.115   0.415   1.385 -0.3460 -0.4007 -0.0837
  418SOL    HW1 1253   1.026   0.397   1.345  4.5808 -0.6235  0.7341
  418SOL    HW2 1254   1.185   0.414   1.312  0.8522 -0.3838 -0.2967
  419SOL     OW 1255   0.979   0.358   3.005 -0.3292  0.0694  0.0866
  419SOL    HW1 1256   1.012   0.402   2.916  0.1198 -1.1353 -0.0468
  419SOL    HW2 1257   0.930   0.268   2.989  1.6295 -0.0147 -1.7144
  420SOL     OW 1258   0.201   2.293   0.361  0.0732 -0.0778  0.1168
  420SOL    HW1 1259   0.177   2.245   0.266 -0.3844 -1.2564  0.9649
  420SOL    HW2 1260   0.125   2.293   0.433 -1.8451  0.4819  0.0213
  421SOL     OW 1261   0.347   0.040   0.670  0.0752 -0.7486 -0.4987
  421SOL    HW1 1262   0.359  -0.037   0.603  1.2447 -1.9892  1.2936
  421SOL    HW2 1263   0.435   0.091   0.693 -0.2813  0.5986  0.3866
  422SOL     OW 1264   0.935   2.513   1.035 -0.1558 -0.0218 -0.3328
  422SOL    HW1 1265   0.928   2.598   0.977 -0.1243  0.0740  1.3808
  422SOL    HW2 1266   0.999   2.536   1.116  0.6859 -0.4554 -2.3001
  423SOL     OW 1267   0.027   0.702   1.216 -0.6637  0.2548 -0.0133
  423SOL    HW1 1268  -0.014   0.655   1.294  1.1079  0.3045 -3.2131
  423SOL    HW2 1269  -0.020   0.792   1.191 -0.4853  2.8782  0.9283
  424SOL     OW 1270   0.986   2.151   2.229  0.0800  0.0044  0.1541
  424SOL    HW1 1271   1.024   2.242   2.196  0.4943  0.7562  1.2906
  424SOL    HW2 1272   0.917   2.161   2.305  2.1023 -1.9304 -1.1851
  425SOL     OW 1273   2.033   1.419   1.084  0.3018 -0.3746 -0.0431
  425SOL    HW1 1274   2.063   1.323   1.067  0.8600 -1.6132  1.9876
  425SOL    HW2 1275   2.063   1.477   1.010 -3.4145 -0.6523  1.6402
  426SOL     OW 1276   1.569   1.489   1.388 -0.3190  0.0384  0.4160
  426SOL    HW1 1277   1.561   1.584   1.339  0.1871 -0.7058 -0.7478
  426SOL    HW2 1278   1.538   1.498   1.488 -1.0972  0.8009 -1.0859
  427SOL     OW 1279   1.933   2.350   2.032 -0.2442  0.1628 -0.2270
  427SOL    HW1 1280   1.970   2.292   2.107  0.5886  0.6525 -4.0619
  427SOL    HW2 1281   1.965   2.450   2.028  2.2325  0.2239 -1.1498
  428SOL     OW 1282   0.935   3.068   0.097  0.0958 -0.0521  0.2517
  428SOL    HW1 1283   0.977   3.152   0.147  1.8782  1.4737 -1.7237
  428SOL    HW2 1284   0.989   2.980   0.112 -2.2236  2.8395  0.5187
  429SOL     OW 1285   1.318   0.014   0.217  0.3113 -0.0131  0.2993
  429SOL    HW1 1286   1.407   0.066   0.228  0.5681  0.6252 -0.1995
  429SOL    HW2 1287   1.300  -0.028   0.122 -1.3306 -0.6738 -2.9690
  430SOL     OW 1288   2.817   1.499   0.368  0.0088  0.6248 -0.0662
  430SOL    HW1 1289   2.771   1.555   0.300 -0.1644 -0.9229  2.7482
  430SOL    HW2 1290   2.817   1.543   0.464 -0.3224  3.1803  0.2382
  431SOL     OW 1291   2.118   1.590   0.859  0.2403 -0.3007 -0.3693
  431SOL    HW1 1292   2.183   1.645   0.920  1.8216 -0.5677 -1.6275
  431SOL    HW2 1293   2.027   1.636   0.846  1.2635  0.5754  0.3392
  432SOL     OW 1294   2.893   2.310   1.231 -0.3410 -0.8412 -0.3619
  432SOL    HW1 1295   2.823   2.238   1.252 -0.9284  1.1174  3.0796
  432SOL    HW2 1296   2.942   2.326   1.323  3.2355  1.3014  0.3701
  433SOL     OW 1297   1.844   0.288   0.798 -0.1721  0.4508 -0.3542
  433SOL    HW1 1298   1.750   0.301   0.842 -0.6286  2.1737 -0.2220
  433SOL    HW2 1299   1.914   0.234   0.853  0.5746 -2.8133  1.0086
  434SOL     OW 1300   1.535   0.258   0.725  0.0289  0.2037 -0.2209
  434SOL    HW1 1301   1.553   0.362   0.704 -1.4345 -1.5665 -0.3619
  434SOL    HW2 1302   1.532   0.244   0.828  0.1793  1.4591  2.1810
  435SOL     OW 1303   1.414   1.509   2.127  0.1107  0.5312  0.0222
  435SOL    HW1 1304   1.368   1.499   2.224 -0.9673 -1.4366  2.7953
  435SOL    HW2 1305   1.368   1.584   2.069 -1.6869  1.3970  0.1112
  436SOL     OW 1306   1.623   2.722   2.382 -0.1989  0.8703  0.1649
  436SOL    HW1 1307   1.644   2.806   2.444 -1.2221 -0.1030  1.6891
  436SOL    HW2 1308   1.587   2.644   2.440 -0.5463  0.2651  1.8785
  437SOL     OW 1309   1.041   2.971   0.818  0.6944 -0.5253 -0.0989
  437SOL    HW1 1310   0.959   3.037   0.813 -0.4988  1.0407  0.5195
  437SOL    HW2 1311   1.064   2.959   0.919  2.1136  1.0798 -0.7426
  438SOL     OW 1312   0.995   2.521   1.323 -0.2074 -0.0404 -0.3865
  438SOL    HW1 1313   1.067   2.573   1.383 -1.2198 -2.6626 -1.1833
  438SOL    HW2 1314   0.980   2.420   1.344  0.8508  1.7015 -1.0946
  439SOL     OW 1315   0.698   1.694   1.029  0.0338 -0.4281 -0.1135
  439SOL    HW1 1316   0.777   1.756   1.008  0.8029  0.5875 -2.0338
  439SOL    HW2 1317   0.615   1.751   1.042 -0.5967 -0.6497 -1.9566
  440SOL     OW 1318   1.024   2.389   2.008  0.4688  1.2236  1.1767
  440SOL    HW1 1319   0.987   2.460   1.941 -0.5685  0.3925 -0.7590
  440SOL    HW2 1320   1.129   2.401   2.023  0.9213  1.2131 -2.9342
  441SOL     OW 1321   0.355   2.743   1.300 -0.8350 -1.0885  0.2195
  441SOL    HW1 1322   0.416   2.660   1.293 -1.4447 -3.4840  0.1593
  441SOL    HW2 1323   0.362   2.806   1.217  1.8472  0.8412 -0.3364
  442SOL     OW 1324   2.241   0.649   2.568  0.1382  0.1586  0.3191
  442SOL    HW1 1325   2.233   0.569   2.501 -1.4165 -1.3340  0.2092
  442SOL    HW2 1326   2.161   0.714   2.558 -0.2205 -1.5385 -1.0068
  443SOL     OW 1327   1.249   2.554   2.205  0.2649 -0.0405  0.1169
  443SOL    HW1 1328   1.255   2.457   2.246  0.8486  1.0180  1.9623
  443SOL    HW2 1329   1.191   2.614   2.267  0.0230  2.6756  1.4521
  444SOL     OW 1330   1.006   1.202   1.470  0.6227  0.7245 -0.2844
  444SOL    HW1 1331   1.107   1.193   1.482 -2.3437  1.4282 -1.9824
  444SOL    HW2 1332   0.983   1.301   1.467  0.1618 -0.9315  0.4838
  445SOL     OW 1333   0.191   2.261   2.120 -0.0918  0.3837 -0.4592
  445SOL    HW1 1334   0.097   2.266   2.079  2.9957 -0.7358  2.1010
  445SOL    HW2 1335   0.221   2.165   2.132  1.1150  0.4065 -1.3452
  446SOL     OW 1336   0.121   1.948   2.373  0.5220  0.1397 -0.1556
  446SOL    HW1 1337   0.088   2.046   2.355 -0.8959 -0.7052  3.6505
  446SOL    HW2 1338   0.116   1.890   2.290  0.2574 -0.8187  1.3427
  447SOL     OW 1339   1.287   1.730   1.910 -0.2606 -0.0133  0.2708
  447SOL    HW1 1340   1.207   1.794   1.913  1.4265  1.1952  0.6539
  447SOL    HW2 1341   1.363   1.775   1.963  1.0044 -2.0244 -2.4760
  448SOL     OW 1342   0.183   1.467   2.027  0.1514  0.0073  0.1866
  448SOL    HW1 1343   0.164   1.561   2.001 -0.5971 -1.0588  0.5743
  448SOL    HW2 1344   0.108   1.437   2.093 -0.5408 -1.0318 -2.3746
  449SOL     OW 1345   1.824   2.937   0.804  0.5892  0.3383  0.4712
  449SOL    HW1 1346   1.815   2.974   0.900 -0.3001 -0.3295 -2.9689
  449SOL    HW2 1347   1.849   2.838   0.791  1.1589 -1.3217  0.4210
  450SOL     OW 1348   2.254   1.465   0.668 -0.2689  0.3461  0.2980
  450SOL    HW1 1349   2.211   1.517   0.745  2.8289  0.0334  0.4689
  450SOL    HW2 1350   2.300   1.532   0.602 -1.9649  0.5843  0.5849
  451SOL     OW 1351   1.409   3.006   1.461 -0.1133  0.0805  0.1192
  451SOL    HW1 1352   1.338   3.087   1.469  1.7153  1.3147 -3.2611
  451SOL    HW2 1353   1.447   2.968   1.546  1.2618  0.7061 -2.1926
  452SOL     OW 1354   2.706   2.320   2.256 -0.1780  0.2261 -0.3000
  452SOL    HW1 1355   2.644   2.405   2.252 -1.1811 -0.5118  2.0051
  452SOL    HW2 1356   2.698   2.264   2.346  1.2466  0.1714 -1.3786
  453SOL     OW 1357   2.461   2.660   3.081  0.4347 -0.3999 -0.1116
  453SOL    HW1 1358   2.371   2.710   3.104 -4.1385 -0.6906  2.2012
  453SOL    HW2 1359   2.449   2.585   3.017 -0.7926 -2.2686  0.9340
  454SOL     OW 1360   0.938   1.180   2.021  0.1080  0.4818 -0.4125
  454SOL    HW1 1361   0.901   1.158   1.927  0.4690 -0.9518  0.1734
  454SOL    HW2 1362   1.024   1.240   2.023 -0.6445  1.5161  1.3333
  455SOL     OW 1363   0.644   2.631   2.796 -0.4868  0.7983  0.3994
  455SOL    HW1 1364   0.729   2.697   2.806  0.4752  2.9612  1.2378
  455SOL    HW2 1365   0.638   2.547   2.862 -2.5524 -2.2378 -0.7038
  456SOL     OW 1366   0.357   1.935   0.235  1.1357  0.2348 -0.2268
  456SOL    HW1 1367   0.460   1.939   0.246  1.2358  0.5143 -3.6251
  456SOL    HW2 1368   0.313   2.025   0.205  1.3935  0.7029  1.5112
  457SOL     OW 1369   0.405   2.756   0.669  0.5059  0.5638 -0.5005
  457SOL    HW1 1370   0.428   2.822   0.590 -2.0631  0.5166  0.5032
  457SOL    HW2 1371   0.494   2.736   0.721  2.7107  2.0094  0.0346
  458SOL     OW 1372   2.930   0.039   1.266 -0.4894 -0.0203 -0.0214
  458SOL    HW1 1373   2.978   0.123   1.225  1.2690  0.6508  1.4909
  458SOL    HW2 1374   2.924  -0.035   1.188  2.5489  0.2389 -1.2584
  459SOL     OW 1375   2.175   2.481   0.757  0.6805  0.1459  0.2166
  459SOL    HW1 1376   2.227   2.523   0.838 -2.1341  1.4435 -0.7714
  459SOL    HW2 1377   2.231   2.452   0.675  0.0346 -3.1696  1.3021
  460SOL     OW 1378   1.157   2.057   2.764  0.4581  0.4150 -0.2186
  460SOL    HW1 1379   1.204   2.076   2.674  0.6153 -0.3583  0.7790
  460SOL    HW2 1380   1.192   1.967   2.806  0.0427 -1.3459 -1.5195
  461SOL     OW 1381   0.470   2.136   2.721 -0.0632 -0.1193  0.3538
  461SOL    HW1 1382   0.414   2.092   2.650  0.3962  1.5032 -0.3846
  461SOL    HW2 1383   0.484   2.085   2.805  0.7716  1.5919 -2.4067
  462SOL     OW 1384   0.955   1.012   1.752 -0.1613  0.0520  0.0227
  462SOL    HW1 1385   0.940   0.932   1.690  2.2253  0.3456 -0.5700
  462SOL    HW2 1386   0.898   1.090   1.723 -0.3182 -0.6466 -1.1457
  463SOL     OW 1387   0.442   0.821   0.464 -0.2280  0.9565  0.2805
  463SOL    HW1 1388   0.476   0.733   0.422 -0.5892 -2.5894  0.9761
  463SOL    HW2 1389   0.338   0.834   0.469 -0.4035  0.1939  1.9628
  464SOL     OW 1390   0.592   2.337   2.234 -0.0539 -0.1431  0.0157
  464SOL    HW1 1391   0.529   2.409   2.275  0.5194 -1.4681 -1.9253
  464SOL    HW2 1392   0.586   2.330   2.129  3.8214  2.3601  0.7382
  465SOL     OW 1393   0.238   0.930   0.796  0.2938  0.6017  0.3247
  465SOL    HW1 1394   0.170   0.953   0.725  0.1662 -0.3574  0.9903
  465SOL    HW2 1395   0.253   0.828   0.790 -0.3401  0.0523 -0.0943
  466SOL     OW 1396   1.360   1.135   1.021  0.3337 -0.3628  0.2024
  466SOL    HW1 1397   1.354   1.232   0.980 -2.0273  1.4354  1.5680
  466SOL    HW2 1398   1.271   1.101   1.064  2.1856 -3.4224 -0.0205
  467SOL     OW 1399   0.620   0.415   2.494 -0.0621 -0.0073 -0.8692
  467SOL    HW1 1400   0.559   0.500   2.502 -2.4859 -0.0467  0.4307
  467SOL    HW2 1401   0.600   0.351   2.571 -0.0116 -0.3225 -2.4639
  468SOL     OW 1402   0.443   2.252   1.590 -0.0238 -0.2372  0.5725
  468SOL    HW1 1403   0.516   2.316   1.630 -1.4220  1.2349 -1.8319
  468SOL    HW2 1404   0.462   2.225   1.492  0.3369 -0.9905  1.9661
  469SOL     OW 1405   1.409   1.367   1.232 -0.3938 -0.2183  0.3109
  469SOL    HW1 1406   1.448   1.343   1.135 -2.2823  0.6726  1.1131
  469SOL    HW2 1407   1.475   1.426   1.284  0.1903 -1.6074 -0.0366
  470SOL     OW 1408   3.022   1.805   0.765  0.4851 -0.1985 -0.3693
  470SOL    HW1 1409   3.108   1.817   0.708 -0.6771 -2.0809 -1.1729
  470SOL    HW2 1410   3.050   1.778   0.858 -1.5228 -1.8357 -0.9120
  471SOL     OW 1411   2.600   1.384   2.192 -0.5144  0.1342 -0.2157
  471SOL    HW1 1412   2.599   1.288   2.232 -2.1594  1.1796  0.9950
  471SOL    HW2 1413   2.687   1.432   2.225  1.1507  1.0881  1.0312
  472SOL     OW 1414   1.150   2.499   0.094  0.1182 -0.1962  0.7405
  472SOL    HW1 1415   1.220   2.471   0.168  0.1439  1.0148  1.5133
  472SOL    HW2 1416   1.076   2.428   0.082  0.4161  0.2246  0.1505
  473SOL     OW 1417   1.065   1.538   1.007 -0.4430 -0.0746 -0.1841
  473SOL    HW1 1418   0.968   1.520   0.977  0.6578 -1.9120  0.9164
  473SOL    HW2 1419   1.091   1.482   1.093 -1.2397  1.1623  1.3123
  474SOL     OW 1420   0.644   1.282   0.532  0.1876  0.0470  0.5664
  474SOL    HW1 1421   0.560   1.229   0.495  0.4902  0.0653  0.3491
  474SOL    HW2 1422   0.720   1.232   0.582  0.5053 -0.6341 -0.7428
  475SOL     OW 1423   2.823   0.069   0.808 -0.1339  0.0959  0.5325
  475SOL    HW1 1424   2.882   0.153   0.779 -0.4869 -0.3867 -2.6794
  475SOL    HW2 1425   2.769   0.097   0.891 -1.0201 -1.0737 -0.3972
  476SOL     OW 1426   0.960   3.077   1.805 -0.1207 -0.0630 -0.1731
  476SOL    HW1 1427   1.059   3.082   1.838 -1.1583  0.1767  1.1103
  476SOL    HW2 1428   0.956   3.050   1.706  0.3959 -2.4437  2.8182
  477SOL     OW 1429   1.429   0.318   2.406  0.4115 -0.8015 -0.3404
  477SOL    HW1 1430   1.421   0.344   2.507  1.5933 -1.3605 -1.2722
  477SOL    HW2 1431   1.519   0.267   2.389  1.5637 -0.0004  0.6645
  478SOL     OW 1432   2.240   1.900   0.272  0.7941  0.1108 -0.0872
  478SOL    HW1 1433   2.200   1.810   0.304 -0.1967 -2.4394  1.2611
  478SOL    HW2 1434   2.312   1.896   0.198 -4.1791  2.4156  0.3308
  479SOL     OW 1435   1.261   0.961   2.897 -0.7205  0.3140 -0.0574
  479SOL    HW1 1436   1.365   0.964   2.884  0.8728  0.7009  3.3600
  479SOL    HW2 1437   1.216   0.881   2.848  0.2585  0.1468 -0.4345
  480SOL     OW 1438   2.657   2.308   0.388  0.1829  0.1962 -0.0678
  480SOL    HW1 1439   2.721   2.230   0.410 -1.1664  0.0459  0.2266
  480SOL    HW2 1440   2.563   2.276   0.362 -0.1283 -3.7098  0.6681
  481SOL     OW 1441   1.033   1.154   0.876  0.6311  0.1521  0.1991
  481SOL    HW1 1442   1.007   1.253   0.864  0.6974  1.5392  0.0411
  481SOL    HW2 1443   1.028   1.119   0.976 -1.6338  0.1198 -0.2812
  482SOL     OW 1444   1.581   0.294   1.986 -0.7623  0.2076 -0.3972
  482SOL    HW1 1445   1.591   0.397   1.968 -0.2098  2.0653 -1.1945
  482SOL    HW2 1446   1.670   0.247   2.018 -0.0632 -0.3732  0.3696
  483SOL     OW 1447   0.219   2.326   1.189  0.0872 -0.0010 -0.1003
  483SOL    HW1 1448   0.194   2.403   1.251  1.0610 -0.5321  1.3495
  483SOL    HW2 1449   0.235   2.366   1.094  0.8327 -3.3725 -0.0360
  484SOL     OW 1450   1.713   1.050   1.366  0.6859  0.1174 -0.8963
  484SOL    HW1 1451   1.772   0.982   1.416 -1.8352  1.2652 -0.0918
  484SOL    HW2 1452   1.755   1.144   1.362  0.4283  0.7816 -0.8456
  485SOL     OW 1453   0.746   0.757   1.856 -0.2716 -0.2868 -0.8266
  485SOL    HW1 1454   0.716   0.789   1.761 -1.1703 -2.1897 -2.1543
  485SOL    HW2 1455   0.839   0.724   1.858 -2.0136  0.6540 -0.9501
  486SOL     OW 1456   0.852   1.876   2.423 -0.3466  0.3341  0.1368
  486SOL    HW1 1457   0.882   1.902   2.522 -1.7986  2.2645 -1.0085
  486SOL    HW2 1458   0.804   1.951   2.373 -2.5151 -0.1928 -1.4028
  487SOL     OW 1459   1.768   1.617   1.045  0.2417  0.2310 -0.4147
  487SOL    HW1 1460   1.846   1.553   1.072  1.9493  2.0874 -2.7760
  487SOL    HW2 1461   1.800   1.688   0.978  0.6533 -1.9285 -2.1007
  488SOL     OW 1462   2.931   0.791   2.273 -0.1096 -0.3780  0.3335
  488SOL    HW1 1463   2.997   0.713   2.284 -0.4190 -0.6986 -0.5582
  488SOL    HW2 1464   2.847   0.772   2.334 -0.4834 -0.2852 -1.4425
  489SOL     OW 1465   2.778   0.338   1.289 -0.1746 -0.2507  0.3429
  489SOL    HW1 1466   2.761   0.297   1.381 -1.4494 -2.2312 -1.1899
  489SOL    HW2 1467   2.879   0.341   1.263 -0.0442  0.4350 -1.2259
  490SOL     OW 1468   1.442   2.931   2.811 -0.1930 -0.3657  0.2905
  490SOL    HW1 1469   1.460   2.828   2.816 -1.1942 -0.0262  2.3015
  490SOL    HW2 1470   1.441   2.962   2.712 -0.5870 -0.5481  1.1305
  491SOL     OW 1471   1.757   1.487   2.730 -0.2866  0.5029 -0.4200
  491SOL    HW1 1472   1.730   1.408   2.797  0.6657 -2.6842 -1.4926
  491SOL    HW2 1473   1.858   1.520   2.740 -0.3879  1.3880  2.6165
  492SOL     OW 1474   0.556   2.096   0.632  0.2981 -0.8222  0.3904
  492SOL    HW1 1475   0.608   2.073   0.726 -1.3315  0.7515  0.1077
  492SOL    HW2 1476   0.476   2.162   0.646  0.0400  0.0292 -0.1526
  493SOL     OW 1477   0.425   1.345   2.082  0.3092  0.1827 -0.0024
  493SOL    HW1 1478   0.340   1.396   2.049 -1.1286  0.2214  1.4906
  493SOL    HW2 1479   0.403   1.253   2.120 -1.5946  0.7535  0.4799
  494SOL     OW 1480   2.716   2.647   0.111 -0.1222 -0.3332 -0.1061
  494SOL    HW1 1481   2.718   2.652   0.217 -2.1792 -0.2718  0.6523
  494SOL    HW2 1482   2.619   2.647   0.072 -1.0068 -1.2398  0.8009
  495SOL     OW 1483   2.538   2.826   2.642 -0.7469  0.3802 -0.3499
  495SOL    HW1 1484   2.558   2.724   2.652  4.4296 -0.2709  5.0105
  495SOL    HW2 1485   2.600   2.862   2.563  2.5565 -0.5760 -0.5495
  496SOL     OW 1486   1.948   2.274   0.839  0.5413  0.7958 -0.2712
  496SOL    HW1 1487   2.021   2.337   0.867  1.8641 -1.2850 -0.1284
  496SOL    HW2 1488   1.972   2.173   0.860  0.3622 -0.9321 -3.4884
  497SOL     OW 1489   0.219   3.013   2.357 -0.0217 -0.3314  0.1821
  497SOL    HW1 1490   0.175   3.075   2.428 -1.2365  1.4184  3.6431
  497SOL    HW2 1491   0.272   3.070   2.285  0.9544  0.8051 -2.2577
  498SOL     OW 1492   1.138   1.373   1.224 -0.3252  0.1811  0.4037
  498SOL    HW1 1493   1.242   1.387   1.231 -0.2410 -0.0306  1.6364
  498SOL    HW2 1494   1.091   1.395   1.313  2.5338  1.4342 -0.7256
  499SOL     OW 1495   0.591   1.836   0.337  0.2122 -0.1665 -0.1035
  499SOL    HW1 1496   0.634   1.801   0.252 -2.2394  0.0231  0.7456
  499SOL    HW2 1497   0.655   1.907   0.380  0.2880  0.4829  0.6673
  500SOL     OW 1498   1.541   2.861   1.685 -0.2840  0.5344  0.2297
  500SOL    HW1 1499   1.592   2.822   1.766  2.0519 -1.3454  1.6466
  500SOL    HW2 1500   1.560   2.801   1.603 -0.1857  1.1615 -0.6104
  501SOL     OW 1501   0.810   1.180   2.285 -0.5014  0.1302  0.0327
  501SOL    HW1 1502   0.743   1.101   2.294  0.6459 -0.3180  0.6955
  501SOL    HW2 1503   0.825   1.196   2.189 -2.7626  0.4857  3.8100
  502SOL     OW 1504   2.602   0.917   1.776 -0.1564  0.4373 -0.5457
  502SOL    HW1 1505   2.612   0.961   1.684 -0.8482 -1.5183  1.5007
  502SOL    HW2 1506   2.576   0.813   1.770  1.3486  1.0261 -0.3991
  503SOL     OW 1507   1.310   0.123   0.686  0.0032  0.5033 -0.2190
  503SOL    HW1 1508   1.235   0.186   0.713 -1.4866 -1.6286  0.4056
  503SOL    HW2 1509   1.403   0.172   0.683  1.3369  0.6750  0.8713
  504SOL     OW 1510   3.024   2.319   1.484  0.6674 -0.6502  0.6611
  504SOL    HW1 1511   3.007   2.394   1.556 -1.0797  4.0604  0.2267
  504SOL    HW2 1512   3.104   2.263   1.504 -1.9830  0.5057  2.2074
  505SOL     OW 1513   2.294   1.171   1.473  0.3334  0.1398 -0.6497
  505SOL    HW1 1514   2.288   1.167   1.367 -2.5396 -1.0491 -1.2950
  505SOL    HW2 1515   2.367   1.236   1.511  0.9455  3.6355  0.6989
  506SOL     OW 1516   1.936   0.178   1.827  0.3402 -0.2412  0.0276
  506SOL    HW1 1517   2.035   0.153   1.810 -0.8554  2.1054  0.8600
  506SOL    HW2 1518   1.922   0.274   1.854  0.2629 -1.8248  0.6096
  507SOL     OW 1519   0.498   0.702   2.213  0.3320 -0.1352 -0.2772
  507SOL    HW1 1520   0.453   0.689   2.117 -0.3376  2.4550  0.4942
  507SOL    HW2 1521   0.587   0.648   2.220 -0.5814 -5.0244 -1.5619
  508SOL     OW 1522   0.290   1.692   0.794  0.6272  0.0950 -0.3555
  508SOL    HW1 1523   0.353   1.745   0.728 -0.0143  2.8976 -4.3053
  508SOL    HW2 1524   0.285   1.734   0.893 -0.0105  2.6408  0.9561
  509SOL     OW 1525   1.305   1.205   2.454 -0.3103  0.2023  0.0289
  509SOL    HW1 1526   1.318   1.190   2.351 -0.8828  2.0884 -1.8352
  509SOL    HW2 1527   1.202   1.213   2.475 -2.5380 -1.6703 -0.3634
  510SOL     OW 1528   1.299   2.023   2.227 -0.0744 -0.4448 -0.4832
  510SOL    HW1 1529   1.345   2.041   2.136 -2.3257  0.6458  0.5994
  510SOL    HW2 1530   1.200   1.987   2.217 -2.3117 -2.8663  1.1710
  511SOL     OW 1531   3.000   2.755   1.286  0.2644  0.5409  0.2978
  511SOL    HW1 1532   3.021   2.764   1.182 -1.5781  0.1879 -1.0029
  511SOL    HW2 1533   2.906   2.716   1.302  0.6284 -0.8958 -0.4308
  512SOL     OW 1534   2.351   0.445   1.390  0.3802 -0.1387 -0.3275
  512SOL    HW1 1535   2.248   0.435   1.367 -0.1384 -2.1347 -2.8351
  512SOL    HW2 1536   2.410   0.401   1.315 -0.0126 -0.1301 -2.5598
  513SOL     OW 1537   2.575   2.097   0.862  0.3447  0.2336  1.1704
  513SOL    HW1 1538   2.533   2.163   0.795 -0.6880  0.7735  1.2192
  513SOL    HW2 1539   2.655   2.041   0.819  0.0388 -0.1871 -2.1737
  514SOL     OW 1540   0.627   2.709   0.436 -0.2666  0.4612 -0.0150
  514SOL    HW1 1541   0.656   2.696   0.333  2.6958 -0.1182 -1.2503
  514SOL    HW2 1542   0.673   2.788   0.482  1.3744 -2.0075  1.7095
  515SOL     OW 1543   1.941   1.339   2.404 -0.0385 -0.1768  0.0337
  515SOL    HW1 1544   1.956   1.298   2.310  2.1763  1.9657 -0.1389
  515SOL    HW2 1545   1.872   1.283   2.463 -1.4481 -0.4956  1.4786
  516SOL     OW 1546   0.252   0.211   1.898  0.1142  0.1234 -1.1288
  516SOL    HW1 1547   0.355   0.206   1.874 -2.2977  0.8417 -1.5969
  516SOL    HW2 1548   0.194   0.145   1.846 -0.9302  1.2119  0.3484
  517SOL     OW 1549   0.472   0.202   1.168  0.0338  0.4980 -0.4700
  517SOL    HW1 1550   0.541   0.154   1.227  1.8393 -1.2622  2.7179
  517SOL    HW2 1551   0.398   0.137   1.138 -2.9192 -0.3244  0.8089
  518SOL     OW 1552   2.174   3.010   1.847 -0.4983 -0.1600 -0.4198
  518SOL    HW1 1553   2.201   3.112   1.844  0.6362  1.3755  1.5499
  518SOL    HW2 1554   2.149   2.972   1.753 -0.4590  0.3494 -4.0649
  519SOL     OW 1555   2.358   2.227   2.556 -0.0434 -0.1534 -0.3581
  519SOL    HW1 1556   2.290   2.204   2.633  3.8419 -2.3429  2.3901
  519SOL    HW2 1557   2.347   2.326   2.524 -0.7559 -1.3123 -0.3806
  520SOL     OW 1558   1.842   2.724   1.679  0.4327  0.3655  0.4387
  520SOL    HW1 1559   1.770   2.662   1.735 -0.4256 -1.4644  0.0215
  520SOL    HW2 1560   1.934   2.683   1.665 -0.7026 -0.6149  2.9102
  521SOL     OW 1561   0.595   0.064   2.144 -0.4421 -0.3403  0.1223
  521SOL    HW1 1562   0.493   0.039   2.144 -3.8569  2.0522  0.9540
  521SOL    HW2 1563   0.634   0.068   2.237  2.4944  0.2482 -2.0634
  522SOL     OW 1564   0.247   1.904   1.470 -0.0016  0.1812  0.4408
  522SOL    HW1 1565   0.294   1.957   1.546 -0.4191  2.7104  0.1586
  522SOL    HW2 1566   0.230   1.959   1.383  2.9654 -0.7280  0.7140
  523SOL     OW 1567   2.157   2.941   1.564 -0.1541  0.0854  0.3129
  523SOL    HW1 1568   2.245   2.878   1.563 -1.3818  0.5648 -1.0607
  523SOL    HW2 1569   2.073   2.905   1.516 -1.0067  0.3200 -1.7464
  524SOL     OW 1570   0.208   2.763   2.795  0.8254 -0.2414  0.0141
  524SOL    HW1 1571   0.175   2.845   2.851  3.0731  2.0458  0.1887
  524SOL    HW2 1572   0.306   2.771   2.772 -3.9131 -0.2048 -0.8213
  525SOL     OW 1573   2.146   2.059   0.489 -0.8986  0.1890 -0.0297
  525SOL    HW1 1574   2.147   2.011   0.580 -0.8067  1.5317 -0.5364
  525SOL    HW2 1575   2.179   1.993   0.409 -1.5835 -1.3139 -2.0055
  526SOL     OW 1576   0.426   1.547   1.727 -0.4237  0.3950  0.1613
  526SOL    HW1 1577   0.483   1.609   1.785  1.5549 -3.3412 -1.3159
  526SOL    HW2 1578   0.440   1.445   1.738 -0.2896 -1.9557 -0.0882
  527SOL     OW 1579   1.069   2.949   1.181 -0.5395  0.2603  0.1419
  527SOL    HW1 1580   1.119   2.883   1.244  2.5281 -0.0788 -2.1444
  527SOL    HW2 1581   1.131   3.031   1.161  0.7988  4.2500  1.2528
  528SOL     OW 1582   1.302   2.412   0.571  0.3622 -0.5321  0.1535
  528SOL    HW1 1583   1.361   2.328   0.598 -1.7141  0.5483 -0.0626
  528SOL    HW2 1584   1.312   2.491   0.634  0.5056 -0.6569  0.3411
  529SOL     OW 1585   1.883   1.772   0.863 -0.3617 -0.1941 -0.0818
  529SOL    HW1 1586   1.838   1.760   0.766 -2.0607  0.3101 -1.5292
  529SOL    HW2 1587   1.943   1.858   0.872  0.7730  1.7827 -1.4255
  530SOL     OW 1588   0.418   2.501   0.160  0.5336  0.2316 -0.6667
  530SOL    HW1 1589   0.451   2.473   0.253 -0.8268 -1.8025  0.8261
  530SOL    HW2 1590   0.415   2.425   0.089 -0.6710  2.4640  0.5333
  531SOL     OW 1591   1.829   0.989   1.044  0.0685  0.2689  0.1524
  531SOL    HW1 1592   1.825   0.998   0.941  1.6142  0.5801 -1.0521
  531SOL    HW2 1593   1.741   0.951   1.082 -0.7353  0.0255  1.8628
  532SOL     OW 1594   0.398   1.163   0.707 -0.3705 -0.4919  0.3881
  532SOL    HW1 1595   0.406   1.163   0.601  0.3135  1.5668  0.4872
  532SOL    HW2 1596   0.364   1.070   0.734  0.5576 -1.2070  0.4984
  533SOL     OW 1597   1.831   0.058   2.559 -0.2320 -0.8670 -0.8171
  533SOL    HW1 1598   1.932   0.040   2.567 -0.1785  1.0412 -1.1946
  533SOL    HW2 1599   1.788   0.124   2.633 -1.2296  0.3513 -0.6306
  534SOL     OW 1600   0.214   0.194   1.574  0.9811 -0.1284  0.2153
  534SOL    HW1 1601   0.294   0.237   1.525 -0.4343 -1.5263  0.5897
  534SOL    HW2 1602   0.135   0.259   1.577  2.6913 -1.9379 -0.4545
  535SOL     OW 1603   1.879   0.414   0.182  0.0459 -0.3385  0.0006
  535SOL    HW1 1604   1.953   0.478   0.220  4.6458  1.7465 -3.0550
  535SOL    HW2 1605   1.790   0.402   0.239  1.1469 -1.9176 -1.8375
  536SOL     OW 1606   1.237   2.536   1.023  0.3257  0.3126  0.1427
  536SOL    HW1 1607   1.293   2.450   1.004  1.4070 -2.3255  0.5821
  536SOL    HW2 1608   1.148   2.537   0.971  2.6685  0.8169 -0.5435
  537SOL     OW 1609   0.873   0.214   2.330 -0.0637  0.3873  0.0312
  537SOL    HW1 1610   0.829   0.297   2.288  2.0658 -0.2120 -2.5023
  537SOL    HW2 1611   0.803   0.152   2.383  1.7526 -0.2093  1.2786
  538SOL     OW 1612   1.696   2.324   1.558 -0.0676  0.6111 -0.0486
  538SOL    HW1 1613   1.666   2.258   1.486 -0.9227  0.2641 -2.1414
  538SOL    HW2 1614   1.780   2.385   1.543 -1.5726  1.0958  0.8005
  539SOL     OW 1615   0.176   1.608   2.702  0.5202  0.4441 -0.0646
  539SOL    HW1 1616   0.073   1.604   2.678  1.6868  0.9437 -0.2866
  539SOL    HW2 1617   0.190   1.693   2.761 -3.4568 -1.8882 -0.4680
  540SOL     OW 1618   2.694   1.729   2.088  0.0431  0.0386 -0.7426
  540SOL    HW1 1619   2.654   1.645   2.049  1.5025 -1.1241  0.9245
  540SOL    HW2 1620   2.646   1.819   2.078  0.1532  1.3590 -0.4539
  541SOL     OW 1621   0.448   2.280   3.089  0.3223  0.9533 -0.4086
  541SOL    HW1 1622   0.480   2.210   3.161 -2.9954  1.5263 -0.3120
  541SOL    HW2 1623   0.366   2.249   3.036 -0.4522  0.3059  3.2276
  542SOL     OW 1624   2.201   2.636   0.442 -0.5060  0.0675  0.4561
  542SOL    HW1 1625   2.203   2.744   0.437 -0.1632  1.0402  0.6525
  542SOL    HW2 1626   2.111   2.594   0.455  2.0749  0.0509 -1.3722
  543SOL     OW 1627   1.044   1.801   1.745 -0.2097 -0.1484 -0.4172
  543SOL    HW1 1628   1.051   1.819   1.850  0.8881  0.3137  2.0759
  543SOL    HW2 1629   0.971   1.851   1.698 -0.3962  0.1973  2.3500
  544SOL     OW 1630   0.840   0.426   0.147  0.4602  0.2374  0.1144
  544SOL    HW1 1631   0.882   0.385   0.231  1.5116  1.0962 -1.3487
  544SOL    HW2 1632   0.900   0.404   0.063 -0.9023 -1.9982  0.6318
  545SOL     OW 1633   1.176   1.730   0.619  0.3629 -0.7425  0.1488
  545SOL    HW1 1634   1.269   1.720   0.667  0.9911  1.5828 -0.7338
  545SOL    HW2 1635   1.182   1.765   0.523 -0.7474  0.6294  0.0258
  546SOL     OW 1636   2.683   1.586   0.046 -0.7576 -0.1912 -0.1041
  546SOL    HW1 1637   2.733   1.574  -0.044  0.8079  0.4698 -0.2575
  546SOL    HW2 1638   2.595   1.530   0.056  4.7021  0.1196  0.9002
  547SOL     OW 1639   0.520   0.008   2.764  0.1149  0.3290  0.4813
  547SOL    HW1 1640   0.561  -0.077   2.705  4.9591 -0.3183 -0.5929
  547SOL    HW2 1641   0.543  -0.006   2.864 -0.2726 -2.9313  1.0085
  548SOL     OW 1642   2.077   0.828   3.049  0.1774 -0.0808 -1.0220
  548SOL    HW1 1643   1.978   0.789   3.070 -0.7413 -3.4339 -0.8405
  548SOL    HW2 1644   2.089   0.926   3.077 -0.1851 -0.4199  1.2881
  549SOL     OW 1645   0.582   0.417   0.106 -0.0662  0.1381  0.4303
  549SOL    HW1 1646   0.540   0.492   0.049  1.4780 -3.2610 -0.3864
  549SOL    HW2 1647   0.686   0.414   0.123 -1.8395 -0.1624 -0.1484
  550SOL     OW 1648   2.533   2.877   2.910 -0.2071  0.7539 -0.3232
  550SOL    HW1 1649   2.532   2.802   2.982 -2.1094  4.1102  0.8815
  550SOL    HW2 1650   2.535   2.852   2.812 -2.3887  0.5237  0.0529
  551SOL     OW 1651   0.244   0.780   0.166  0.1490  0.1546 -0.0266
  551SOL    HW1 1652   0.348   0.789   0.171  0.4745 -0.0831 -3.6872
  551SOL    HW2 1653   0.194   0.801   0.257  0.4365  1.0239  2.5413
  552SOL     OW 1654   0.833   2.814   1.895  0.2769  0.4045 -0.5694
  552SOL    HW1 1655   0.817   2.800   2.002 -0.9897  2.5503  4.0000
  552SOL    HW2 1656   0.881   2.903   1.871  1.8280  2.3497 -1.0983
  553SOL     OW 1657   3.090   2.559   0.428 -0.2188 -0.0341 -0.0516
  553SOL    HW1 1658   3.036   2.483   0.383  0.8171  0.8789  0.2668
  553SOL    HW2 1659   3.048   2.601   0.513 -1.0641 -0.5118 -1.3921
  554SOL     OW 1660   2.128   0.285   0.562 -0.1835 -0.8038  0.2287
  554SOL    HW1 1661   2.082   0.213   0.503 -0.7729  1.4925  3.1121
  554SOL    HW2 1662   2.146   0.247   0.656 -0.7372 -0.7714  1.8207
  555SOL     OW 1663   0.472   2.948   2.448  0.1289  0.1795 -0.2724
  555SOL    HW1 1664   0.374   2.976   2.429 -0.6940 -3.1405 -0.5860
  555SOL    HW2 1665   0.505   2.875   2.384  1.8784  3.7669 -0.5127
  556SOL     OW 1666   0.892   2.277   1.634  0.3732 -0.0879  0.8852
  556SOL    HW1 1667   0.951   2.338   1.693 -1.0536 -0.5173  0.4135
  556SOL    HW2 1668   0.932   2.260   1.539  0.8992 -1.8988  0.0088
  557SOL     OW 1669   0.152   2.133   0.138  0.4706  0.1244 -0.1167
  557SOL    HW1 1670   0.076   2.061   0.128  0.2292 -1.2213 -0.7632
  557SOL    HW2 1671   0.172   2.187   0.050 -1.6785 -1.7980 -0.4171
  558SOL     OW 1672   2.953   2.330   0.272  0.7567 -0.1820 -0.0231
  558SOL    HW1 1673   2.852   2.361   0.264 -2.0259  0.7228 -1.8632
  558SOL    HW2 1674   3.008   2.354   0.188 -0.0447  1.2409 -0.0724
  559SOL     OW 1675   0.443   2.234   1.334  0.4547 -0.7052  0.3792
  559SOL    HW1 1676   0.346   2.254   1.297 -1.4958 -0.3936 -0.0800
  559SOL    HW2 1677   0.474   2.139   1.308 -0.1730  0.2331 -2.0988
  560SOL     OW 1678   2.037   1.089   3.094  0.3387  0.8959  0.2756
  560SOL    HW1 1679   2.020   1.127   3.000  0.5842 -1.9003 -1.6163
  560SOL    HW2 1680   1.978   1.130   3.168  0.5864 -0.4346  0.8729
  561SOL     OW 1681   3.043   1.922   0.081  0.0168 -0.1625 -0.8380
  561SOL    HW1 1682   2.991   1.832   0.095 -2.6095  2.1218  2.5453
  561SOL    HW2 1683   3.001   1.994   0.017 -2.4179  0.8675 -2.0210
  562SOL     OW 1684   0.850   2.171   2.450  0.6925 -0.1921 -0.7420
  562SOL    HW1 1685   0.750   2.141   2.431 -0.5871 -0.0825  0.9956
  562SOL    HW2 1686   0.854   2.232   2.528 -2.0311 -0.9641  0.0108
  563SOL     OW 1687   0.736   2.537   2.540 -0.0198 -0.4671 -0.1060
  563SOL    HW1 1688   0.746   2.436   2.552  2.2124  0.4453 -3.0453
  563SOL    HW2 1689   0.709   2.583   2.625  0.0707 -0.0803  1.0474
  564SOL     OW 1690   2.759   1.283   2.846 -0.7077  0.4408 -0.4543
  564SOL    HW1 1691   2.671   1.298   2.898  0.0418  0.1330  1.5079
  564SOL    HW2 1692   2.797   1.372   2.809  0.2263 -0.1177 -1.7069
  565SOL     OW 1693   2.503   1.994   2.599 -0.4607 -0.5501  0.1518
  565SOL    HW1 1694   2.446   2.081   2.600  1.1122 -1.4004 -0.0097
  565SOL    HW2 1695   2.600   2.011   2.639  0.2956 -0.6719 -0.1788
  566SOL     OW 1696   1.989   2.851   1.361  0.0423  0.1577 -0.4188
  566SOL    HW1 1697   1.954   2.754   1.370 -1.0978  2.5370 -2.9098
  566SOL    HW2 1698   2.045   2.868   1.276 -0.2944  0.9556  0.6130
  567SOL     OW 1699   2.459   0.147   2.267 -0.3606  0.0085  0.2165
  567SOL    HW1 1700   2.494   0.131   2.169  0.2505  0.7793 -0.5314
  567SOL    HW2 1701   2.376   0.207   2.273  2.3620  1.8183  2.9775
  568SOL     OW 1702   1.450   1.813   0.425  0.5018  0.1514  0.1511
  568SOL    HW1 1703   1.406   1.878   0.361  1.7484  1.4934  0.3271
  568SOL    HW2 1704   1.477   1.860   0.518  0.4195  0.0351 -2.5182
  569SOL     OW 1705   0.295   0.658   0.800  0.3187  0.0649  0.1842
  569SOL    HW1 1706   0.370   0.623   0.731  4.4686 -4.2013 -3.4133
  569SOL    HW2 1707   0.206   0.603   0.790 -2.0644 -3.1578  2.5573
  570SOL     OW 1708   0.604   0.778   2.853 -0.2900  0.5473  0.2599
  570SOL    HW1 1709   0.664   0.742   2.777  1.1227 -2.4139 -1.3370
  570SOL    HW2 1710   0.640   0.869   2.892  3.2842  0.3618 -0.4980
  571SOL     OW 1711   0.823   3.052   1.119 -0.4745 -0.2196 -0.0218
  571SOL    HW1 1712   0.840   3.114   1.039  0.6943 -0.8627  1.0104
  571SOL    HW2 1713   0.909   3.028   1.168 -0.3289  2.4560 -1.0347
  572SOL     OW 1714   1.534   2.571   1.158  0.2606  0.1195 -0.3779
  572SOL    HW1 1715   1.461   2.511   1.205 -1.0849 -1.4898  2.0335
  572SOL    HW2 1716   1.497   2.663   1.124  1.5271  1.3378  0.0827
  573SOL     OW 1717   2.942   0.410   2.099 -0.1171 -0.1338 -0.1192
  573SOL    HW1 1718   2.882   0.326   2.098  2.5804 -0.8874 -1.7151
  573SOL    HW2 1719   2.895   0.486   2.050 -0.0784  3.5797  0.2786
  574SOL     OW 1720   0.254   1.802   1.055  0.4325 -0.0960  0.1456
  574SOL    HW1 1721   0.227   1.902   1.029 -0.2965  1.2005  0.6413
  574SOL    HW2 1722   0.174   1.750   1.101 -2.5823  0.6294  0.5219
  575SOL     OW 1723   0.887   2.127   1.013 -0.2119  0.0087  0.2857
  575SOL    HW1 1724   0.845   2.131   1.110  1.6002  1.4173 -0.0253
  575SOL    HW2 1725   0.931   2.218   0.991  0.4196  0.0491 -1.3840
  576SOL     OW 1726   2.925   2.916   1.716 -0.2138  0.4062  0.5623
  576SOL    HW1 1727   2.843   2.855   1.690 -1.7377 -1.9583  0.8111
  576SOL    HW2 1728   2.919   3.013   1.676  0.6559  1.2308  2.5897
  577SOL     OW 1729   2.555   1.283   3.054  0.2625  0.2491 -0.3157
  577SOL    HW1 1730   2.506   1.191   3.036 -1.4490  0.0649 -0.3848
  577SOL    HW2 1731   2.628   1.281   3.137  0.1322 -0.3517  1.8626
  578SOL     OW 1732   1.325   2.720   2.555 -0.5784  0.1444 -0.4646
  578SOL    HW1 1733   1.256   2.686   2.490  2.9705  0.4217 -0.3635
  578SOL    HW2 1734   1.343   2.822   2.537 -2.1369  0.7026 -1.8623
  579SOL     OW 1735   0.126   2.540   0.186 -0.4378  0.0852 -0.0555
  579SOL    HW1 1736   0.066   2.537   0.269  0.2332 -1.3218  1.0697
  579SOL    HW2 1737   0.227   2.531   0.209 -1.4051  0.5108 -0.1168
  580SOL     OW 1738   1.016   2.651   0.357  0.0165 -0.4547  0.1526
  580SOL    HW1 1739   1.104   2.687   0.313  0.1190 -0.2024 -0.5405
  580SOL    HW2 1740   0.973   2.576   0.299  0.1262  2.2954 -0.6399
  581SOL     OW 1741   1.201   2.617   1.477 -0.3970  0.5154  0.1845
  581SOL    HW1 1742   1.253   2.529   1.466 -1.6322  0.5024 -0.8074
  581SOL    HW2 1743   1.229   2.699   1.416  0.0291 -1.5516  1.6120
  582SOL     OW 1744   1.487   0.039   1.864  0.1432  0.0645 -0.6312
  582SOL    HW1 1745   1.507   0.131   1.896  1.1562 -3.4146 -1.0800
  582SOL    HW2 1746   1.546   0.011   1.783 -1.1285 -1.0050  0.9360
  583SOL     OW 1747   2.436   2.987   0.601 -0.0201 -0.1722 -0.0436
  583SOL    HW1 1748   2.474   2.903   0.553  1.5825  0.3641  2.6796
  583SOL    HW2 1749   2.396   2.959   0.690 -0.0472 -1.6132 -0.0846
  584SOL     OW 1750   1.552   0.979   2.114  0.6985  0.4818  0.1596
  584SOL    HW1 1751   1.606   1.053   2.059 -1.6621  1.2704 -1.0850
  584SOL    HW2 1752   1.593   0.960   2.208  0.3878  0.9484  0.9267
  585SOL     OW 1753   2.113   2.650   2.928 -0.8401  0.1904  0.1728
  585SOL    HW1 1754   2.155   2.577   2.869  0.5719  0.5879  0.8604
  585SOL    HW2 1755   2.014   2.671   2.904  4.1404  1.4962 -1.9594
  586SOL     OW 1756   2.771   0.217   1.578 -0.3705  0.0204 -0.4562
  586SOL    HW1 1757   2.755   0.309   1.608  2.0221 -1.8696 -1.0591
  586SOL    HW2 1758   2.688   0.154   1.588  0.1345 -1.3588  0.1425
  587SOL     OW 1759   2.006   1.619   2.727 -0.1859  0.0323 -0.0038
  587SOL    HW1 1760   2.068   1.598   2.642  1.5147 -0.3865 -0.8080
  587SOL    HW2 1761   2.034   1.583   2.818 -2.9189  1.7629 -2.1887
  588SOL     OW 1762   0.474   2.727   2.223 -0.2515  0.1350  0.4707
  588SOL    HW1 1763   0.375   2.722   2.187 -2.3243 -0.8075  0.9511
  588SOL    HW2 1764   0.490   2.661   2.301 -1.0321 -1.6233 -1.4706
  589SOL     OW 1765   2.144   1.497   2.530  0.1843  0.2919 -0.1021
  589SOL    HW1 1766   2.070   1.446   2.480  0.3200  2.5408 -1.2519
  589SOL    HW2 1767   2.230   1.442   2.547 -3.6525  0.2069 -0.8970
  590SOL     OW 1768   2.324   1.707   1.990 -0.0339 -0.1887  0.0649
  590SOL    HW1 1769   2.409   1.650   1.987 -2.5423  0.3289  2.5493
  590SOL    HW2 1770   2.318   1.764   2.080 -4.0055 -2.7854  0.7196
  591SOL     OW 1771   1.325   2.475   0.307 -0.2794 -0.2320 -0.8338
  591SOL    HW1 1772   1.401   2.417   0.263 -0.8856  0.1060 -1.7415
  591SOL    HW2 1773   1.314   2.444   0.407  1.4282 -2.4875 -2.3951
  592SOL     OW 1774   1.696   2.344   0.785 -0.0788  0.0252  0.0208
  592SOL    HW1 1775   1.693   2.386   0.683  1.0104  1.4328 -0.0556
  592SOL    HW2 1776   1.791   2.316   0.818  0.9983  0.4606  1.1645
  593SOL     OW 1777   0.576   0.178   3.046  1.0343 -0.3522  0.1924
  593SOL    HW1 1778   0.677   0.149   3.033  0.3735  2.0662  1.7248
  593SOL    HW2 1779   0.569   0.273   3.085 -2.4345 -3.4918 -0.0574
  594SOL     OW 1780   0.906   1.967   2.681  0.2475  0.5871 -0.5392
  594SOL    HW1 1781   1.002   2.008   2.701  1.8631 -2.3600  0.0062
  594SOL    HW2 1782   0.837   2.009   2.744  3.6318  3.5589  2.1360
  595SOL     OW 1783   1.558   0.040   1.065  0.0251 -0.3276  0.0719
  595SOL    HW1 1784   1.659   0.026   1.041  1.6611  4.0699 -2.0272
  595SOL    HW2 1785   1.493  -0.016   1.000 -2.1518  1.5779 -0.1805
  596SOL     OW 1786   3.077   1.431   2.231  0.3522 -1.3127  0.5107
  596SOL    HW1 1787   2.983   1.477   2.224 -2.1583 -1.2955  1.5527
  596SOL    HW2 1788   3.112   1.395   2.319 -1.4736  4.0880 -0.5081
  597SOL     OW 1789   2.107   2.618   1.624  0.0141  0.1928  0.1945
  597SOL    HW1 1790   2.116   2.548   1.554 -0.3168  0.1387  1.2368
  597SOL    HW2 1791   2.178   2.602   1.694 -4.8508 -0.8568 -0.3750
  598SOL     OW 1792   2.539   2.895   1.203  0.3368  0.1299  0.0488
  598SOL    HW1 1793   2.617   2.929   1.264  0.8528  2.3512  1.9367
  598SOL    HW2 1794   2.564   2.911   1.104 -1.8053 -0.0010 -0.7424
  599SOL     OW 1795   2.912   0.334   2.433 -0.4182  0.1850  0.7610
  599SOL    HW1 1796   2.989   0.347   2.369 -1.1971 -0.0476  2.7619
  599SOL    HW2 1797   2.820   0.362   2.394  0.7416 -2.3397 -0.2205
  600SOL     OW 1798   2.837   1.045   2.710 -0.2614  0.5907 -0.2427
  600SOL    HW1 1799   2.809   0.956   2.756  0.3180 -0.4072 -0.5021
  600SOL    HW2 1800   2.801   1.123   2.765 -0.7291  0.5224  1.4702
  601SOL     OW 1801   2.984   1.254   2.044  0.9579  0.1829  0.1760
  601SOL    HW1 1802   2.898   1.304   2.008  0.8236  2.4964 -0.5016
  601SOL    HW2 1803   3.036   1.314   2.114  1.2249 -1.2441 -2.4238
  602SOL     OW 1804   1.547   1.706   2.378 -0.3167  0.3626  0.4806
  602SOL    HW1 1805   1.515   1.607   2.375  0.4817 -2.0720 -3.2928
  602SOL    HW2 1806   1.653   1.712   2.399  4.7866  0.5221  0.3160
  603SOL     OW 1807   0.669   1.260   2.642 -0.1569  0.2659  0.6038
  603SOL    HW1 1808   0.599   1.230   2.576  0.0478 -0.2780  2.6345
  603SOL    HW2 1809   0.740   1.189   2.654  0.4629 -1.5923 -0.6959
  604SOL     OW 1810   2.411   0.960   0.200  0.0887  0.0548  0.1594
  604SOL    HW1 1811   2.466   1.001   0.125  1.4764  1.0622 -1.4443
  604SOL    HW2 1812   2.384   0.863   0.178 -1.1398  0.2802  1.7997
  605SOL     OW 1813   2.676   1.141   1.944  0.4880  0.4542 -0.2158
  605SOL    HW1 1814   2.661   1.049   1.890  1.1195  0.1165 -1.5227
  605SOL    HW2 1815   2.674   1.123   2.048  0.1936  0.6575 -1.1782
  606SOL     OW 1816   1.550   2.540   2.588  0.2912  0.2712  0.7148
  606SOL    HW1 1817   1.473   2.610   2.590  4.0021 -0.0123 -0.4258
  606SOL    HW2 1818   1.525   2.438   2.566  0.7757 -1.8310 -3.3482
  607SOL     OW 1819   1.346   1.550   0.449  0.1183  0.7712  0.1120
  607SOL    HW1 1820   1.270   1.527   0.513  0.8953  0.3178 -1.2589
  607SOL    HW2 1821   1.374   1.652   0.444  2.2630 -1.5991 -0.5456
  608SOL     OW 1822   1.411   2.918   0.443  0.0241 -0.0525  0.1365
  608SOL    HW1 1823   1.466   2.965   0.371 -1.5934 -2.4033  1.6350
  608SOL    HW2 1824   1.319   2.960   0.459  1.6008  0.4439  1.8169
  609SOL     OW 1825   1.314   1.346   0.264  0.0022  0.0727 -0.1819
  609SOL    HW1 1826   1.333   1.425   0.327 -1.3420 -2.2929 -0.6162
  609SOL    HW2 1827   1.209   1.322   0.257 -1.0126 -4.5744  0.7685
  610SOL     OW 1828   2.959   1.063   2.298 -0.2759  0.6601  0.2679
  610SOL    HW1 1829   2.966   0.959   2.296  0.5961  1.1079  0.0533
  610SOL    HW2 1830   2.940   1.110   2.206  0.5784 -0.2444  1.3006
  611SOL     OW 1831   2.508   0.318   1.208  0.1793  0.0428 -0.6073
  611SOL    HW1 1832   2.465   0.225   1.199 -0.8037  0.8030 -2.1067
  611SOL    HW2 1833   2.612   0.314   1.220 -0.0542  0.6077 -1.1585
  612SOL     OW 1834   0.747   2.180   1.238 -0.2516 -0.0083  0.4609
  612SOL    HW1 1835   0.660   2.128   1.259  0.7429  1.1987  0.1072
  612SOL    HW2 1836   0.727   2.272   1.197 -1.2305  0.4431 -0.0208
  613SOL     OW 1837   0.886   1.433   2.386  0.0844  0.0602 -0.5870
  613SOL    HW1 1838   0.936   1.479   2.309  0.0414  2.9851 -0.2678
  613SOL    HW2 1839   0.865   1.335   2.369  2.5494  1.6821  0.4650
  614SOL     OW 1840   1.672   1.578   1.827 -0.0110  0.2004 -0.1626
  614SOL    HW1 1841   1.652   1.674   1.795  0.3005  1.9649  0.7394
  614SOL    HW2 1842   1.762   1.573   1.879 -1.2951 -0.3484  0.7736
  615SOL     OW 1843   0.762   1.239   1.743  0.2265  0.0262 -0.1544
  615SOL    HW1 1844   0.719   1.220   1.655 -0.0131  1.0422 -2.6763
  615SOL    HW2 1845   0.813   1.326   1.739 -0.7917 -0.1555  1.1170
  616SOL     OW 1846   1.079   1.557   2.210  0.3258 -0.3773 -0.4490
  616SOL    HW1 1847   1.030   1.588   2.125 -1.2721  0.4454  0.0678
  616SOL    HW2 1848   1.100   1.637   2.269  0.4231  1.2301  0.4982
  617SOL     OW 1849   2.976   1.538   1.630  0.4056  0.8482  0.1910
  617SOL    HW1 1850   3.010   1.478   1.707 -0.0443  0.6432  1.8818
  617SOL    HW2 1851   3.010   1.512   1.536 -0.2031  0.2458 -0.4447
  618SOL     OW 1852   1.860   2.090   1.368  0.1917  0.4827 -0.2626
  618SOL    HW1 1853   1.871   2.161   1.296  0.0751 -1.0835  0.0659
  618SOL    HW2 1854   1.840   1.998   1.317 -0.0795  0.6807 -0.4904
  619SOL     OW 1855   1.751   0.457   2.373 -0.0827 -0.4184 -0.0269
  619SOL    HW1 1856   1.673   0.519   2.334  1.0972 -2.0019  1.5754
  619SOL    HW2 1857   1.726   0.355   2.349 -1.3017  0.1276 -3.5460
  620SOL     OW 1858   2.273   2.845   0.783  0.4758  0.0923  0.2624
  620SOL    HW1 1859   2.169   2.830   0.773 -1.9760  1.2712 -0.5035
  620SOL    HW2 1860   2.320   2.770   0.834 -1.5417  0.0594 -1.4662
  621SOL     OW 1861   2.163   1.879   1.366  0.1830 -0.3420 -0.1624
  621SOL    HW1 1862   2.169   1.881   1.469  0.0365 -0.6673 -0.5371
  621SOL    HW2 1863   2.103   1.800   1.335 -2.3618  0.8828  0.3278
  622SOL     OW 1864   2.323   0.943   1.882 -0.1386  0.1133 -0.1645
  622SOL    HW1 1865   2.409   0.931   1.823  2.0872 -1.2740 -2.3422
  622SOL    HW2 1866   2.290   0.847   1.915  0.9948  0.3272 -0.0007
  623SOL     OW 1867   1.295   0.818   2.483  0.2134 -0.0563 -0.8096
  623SOL    HW1 1868   1.213   0.755   2.504  0.0928 -1.5209 -2.5163
  623SOL    HW2 1869   1.290   0.888   2.408  4.5048 -1.6258  1.0867
  624SOL     OW 1870   0.500   0.654   3.068  0.6890 -0.3704  0.4740
  624SOL    HW1 1871   0.555   0.679   2.981  2.2314 -0.4196  2.4248
  624SOL    HW2 1872   0.511   0.730   3.143 -1.4347  0.6177 -1.3209
  625SOL     OW 1873   2.778   1.705   1.042  0.1224  0.1429  0.0611
  625SOL    HW1 1874   2.696   1.747   0.991 -0.9262 -0.9410 -0.6072
  625SOL    HW2 1875   2.846   1.778   1.079  1.4748  1.0558  0.0593
  626SOL     OW 1876   0.653   2.673   1.733 -0.1611  0.4282 -0.6010
  626SOL    HW1 1877   0.704   2.737   1.799 -1.0624 -2.1390  2.5336
  626SOL    HW2 1878   0.551   2.668   1.762  0.8991  1.5532 -1.4705
  627SOL     OW 1879   0.665   0.854   1.618 -0.1426  0.4721 -0.3439
  627SOL    HW1 1880   0.595   0.788   1.579  1.0582 -0.3399  0.6955
  627SOL    HW2 1881   0.718   0.904   1.544  1.8736  2.8661 -3.0340
  628SOL     OW 1882   2.417   0.159   0.714  0.4790  0.4589  0.3854
  628SOL    HW1 1883   2.457   0.074   0.668  2.1625  0.0197 -3.4621
  628SOL    HW2 1884   2.320   0.140   0.750 -0.0545 -0.4695  1.4114
  629SOL     OW 1885   1.908   0.933   1.977 -0.1864 -0.3418  0.2235
  629SOL    HW1 1886   1.931   0.997   1.896 -0.0333 -0.9272 -2.1029
  629SOL    HW2 1887   1.886   0.979   2.070 -0.4726  1.1755 -0.2860
  630SOL     OW 1888   2.899   2.256   0.786  0.3089  0.4462 -0.2139
  630SOL    HW1 1889   2.837   2.343   0.787 -1.3432 -0.8825  1.2085
  630SOL    HW2 1890   2.838   2.174   0.777 -0.5294  1.3264 -0.9795
  631SOL     OW 1891   0.033   0.136   2.127  0.2592 -0.0085  1.2266
  631SOL    HW1 1892   0.065   0.191   2.209 -0.3947  2.0646 -0.8435
  631SOL    HW2 1893   0.090   0.158   2.042  1.4180  1.7476 -1.5418
  632SOL     OW 1894   2.449   2.553   0.589  0.2350 -0.1771  0.0056
  632SOL    HW1 1895   2.519   2.630   0.578 -1.5728 -0.2661 -2.2450
  632SOL    HW2 1896   2.366   2.562   0.527 -2.9006  2.4579  0.3721
  633SOL     OW 1897   1.451   1.204   2.688 -0.3182 -0.1318 -0.1829
  633SOL    HW1 1898   1.446   1.293   2.740  1.3305 -1.2436 -1.9166
  633SOL    HW2 1899   1.384   1.216   2.609 -1.6553  3.0455 -0.1104
  634SOL     OW 1900   0.676   2.062   0.865 -0.0983 -0.2555  0.3252
  634SOL    HW1 1901   0.586   2.083   0.911 -1.7432  1.4083 -0.0799
  634SOL    HW2 1902   0.763   2.077   0.921  1.6164 -0.5210  0.9892
  635SOL     OW 1903   3.055   2.389   0.001 -0.4081  0.3915  0.2740
  635SOL    HW1 1904   2.992   2.442  -0.059 -0.4873  0.1884  0.2450
  635SOL    HW2 1905   3.132   2.442   0.042  0.0258 -1.6505  0.8785
  636SOL     OW 1906   2.381   2.757   2.046 -0.0457  0.2897 -0.2435
  636SOL    HW1 1907   2.383   2.861   2.071 -0.3803  1.1127  3.0080
  636SOL    HW2 1908   2.312   2.713   2.111 -3.1421 -1.5047  0.3164
  637SOL     OW 1909   2.745   0.624   2.007 -0.2936 -0.9677 -0.0551
  637SOL    HW1 1910   2.672   0.636   1.935  0.7534 -0.7021 -1.1480
  637SOL    HW2 1911   2.817   0.702   2.014  2.8737  1.1316 -0.6055
  638SOL     OW 1912   2.429   1.871   1.301 -0.8569 -0.2499 -0.1365
  638SOL    HW1 1913   2.326   1.868   1.316 -0.9462 -0.4191 -0.6698
  638SOL    HW2 1914   2.481   1.798   1.357 -0.1843 -0.4850  0.7268
  639SOL     OW 1915   1.310   2.217   1.666  0.4329  0.0308  0.2236
  639SOL    HW1 1916   1.361   2.308   1.645 -0.6910  1.6615  0.2597
  639SOL    HW2 1917   1.258   2.217   1.757 -1.2078 -2.0066  0.6478
  640SOL     OW 1918   0.187   1.202   1.551 -0.0160 -0.4054 -0.1045
  640SOL    HW1 1919   0.181   1.226   1.652 -2.7761 -0.8761  0.2806
  640SOL    HW2 1920   0.241   1.117   1.520 -1.8285  0.7875 -3.2156
  641SOL     OW 1921   1.951   0.223   1.501 -0.5050  0.5501 -0.5840
  641SOL    HW1 1922   1.882   0.268   1.566  0.2338 -1.6485 -0.3081
  641SOL    HW2 1923   2.034   0.181   1.551 -0.7465 -3.1908  1.5630
  642SOL     OW 1924   2.024   0.057   0.350 -0.2059  0.5115  0.2722
  642SOL    HW1 1925   2.126   0.060   0.373 -0.8260 -1.6808  2.6881
  642SOL    HW2 1926   1.962   0.027   0.427  1.0200  0.0103 -0.0066
  643SOL     OW 1927   2.892   1.902   2.179 -0.4237 -1.0116  0.3693
  643SOL    HW1 1928   2.836   1.817   2.164 -0.9922 -0.5587 -0.5217
  643SOL    HW2 1929   2.883   1.968   2.101 -0.0875  0.6742  0.8642
  644SOL     OW 1930   2.288   2.415   1.245  0.2327 -0.1716  0.3203
  644SOL    HW1 1931   2.341   2.339   1.190  0.5851 -0.4898 -2.1556
  644SOL    HW2 1932   2.240   2.375   1.330 -2.2939  0.7488  2.4686
  645SOL     OW 1933   0.659   0.826   1.257 -0.4669 -0.3088 -0.3390
  645SOL    HW1 1934   0.560   0.792   1.271 -0.4082  0.2857  0.6556
  645SOL    HW2 1935   0.672   0.878   1.163  0.6322  0.8839 -1.6319
  646SOL     OW 1936   1.489   1.839   2.048 -0.2064  0.4020  0.4177
  646SOL    HW1 1937   1.560   1.852   1.973 -1.8718  0.0717 -1.8059
  646SOL    HW2 1938   1.526   1.794   2.133 -1.4329 -0.4782 -0.3302
  647SOL     OW 1939   0.826   1.126   0.690  0.0101 -0.4385  0.1582
  647SOL    HW1 1940   0.893   1.117   0.769  0.5275  0.3324 -1.8579
  647SOL    HW2 1941   0.765   1.044   0.676 -1.0039  2.1398  1.3091
  648SOL     OW 1942   0.180   0.226   0.337 -0.1245  0.0249 -0.0299
  648SOL    HW1 1943   0.167   0.127   0.303 -2.1699 -1.7245 -0.5982
  648SOL    HW2 1944   0.161   0.299   0.269 -3.0127  1.0159  1.8412
  649SOL     OW 1945   3.003   0.262   0.784  0.4916 -0.2716 -0.7409
  649SOL    HW1 1946   3.071   0.221   0.720 -2.1042  0.7362 -1.4587
  649SOL    HW2 1947   3.045   0.345   0.828  2.9540 -0.9223 -2.2514
  650SOL     OW 1948   2.794   0.660   1.507  0.1780 -0.5208  0.3426
  650SOL    HW1 1949   2.685   0.651   1.502 -3.4337  1.8080  1.5139
  650SOL    HW2 1950   2.817   0.761   1.492  1.8349  0.7203 -1.7406
  651SOL     OW 1951   0.866   1.540   1.672 -0.0083 -0.0586  0.0882
  651SOL    HW1 1952   0.922   1.570   1.755  0.1127  0.9335 -1.4294
  651SOL    HW2 1953   0.917   1.479   1.605  1.0801  0.5331 -1.3842
  652SOL     OW 1954   2.379   2.492   2.473  0.0287  0.6888 -0.4482
  652SOL    HW1 1955   2.280   2.519   2.497 -0.7560 -3.7583  2.4948
  652SOL    HW2 1956   2.402   2.483   2.370 -0.5024 -1.2688 -0.0643
  653SOL     OW 1957   2.729   1.269   0.184  0.2796 -0.0547  0.2432
  653SOL    HW1 1958   2.770   1.353   0.231  1.6545 -0.4341  1.3431
  653SOL    HW2 1959   2.780   1.178   0.199 -0.6098 -0.0607 -1.3508
  654SOL     OW 1960   1.270   2.168   1.275  0.1385  0.2986  0.2523
  654SOL    HW1 1961   1.287   2.105   1.355 -0.2166  2.2243  1.1099
  654SOL    HW2 1962   1.294   2.128   1.176 -1.1664  2.0988 -0.7767
  655SOL     OW 1963   0.162   0.976   1.916 -0.1069 -0.2220 -0.5204
  655SOL    HW1 1964   0.215   0.907   1.862 -2.7143  0.1241 -1.1170
  655SOL    HW2 1965   0.195   1.072   1.902 -1.7265  1.0844  2.9724
  656SOL     OW 1966   2.574   2.549   2.628 -0.1723 -0.3855 -0.0796
  656SOL    HW1 1967   2.668   2.515   2.599 -1.2576  0.5445  0.1323
  656SOL    HW2 1968   2.496   2.522   2.567  0.0645  3.2009  0.7243
  657SOL     OW 1969   3.004   1.072   1.827  0.1531  0.3953 -0.4219
  657SOL    HW1 1970   3.004   1.145   1.901  1.2546  0.8510  1.2024
  657SOL    HW2 1971   3.090   1.008   1.839  1.2982  1.4447  0.5219
  658SOL     OW 1972   1.676   0.203   2.343  0.6160  0.3700 -0.0524
  658SOL    HW1 1973   1.700   0.130   2.406  0.1539  2.0520  0.0851
  658SOL    HW2 1974   1.727   0.188   2.250 -1.8170 -2.1251 -2.6367
  659SOL     OW 1975   1.421   0.623   2.765  0.2049  0.1144 -0.7959
  659SOL    HW1 1976   1.474   0.676   2.694  0.2153  0.3500  2.0732
  659SOL    HW2 1977   1.322   0.640   2.772 -0.0759  2.4986  0.8905
  660SOL     OW 1978   1.455   0.332   1.409 -0.5832  0.3751 -0.9862
  660SOL    HW1 1979   1.473   0.377   1.498  1.1019 -2.9594 -1.6798
  660SOL    HW2 1980   1.507   0.246   1.397  1.1814 -0.2809  2.5637
  661SOL     OW 1981   2.420   1.269   0.621 -0.2712  0.1971  0.1004
  661SOL    HW1 1982   2.471   1.265   0.524  0.4909 -3.1483 -3.0319
  661SOL    HW2 1983   2.360   1.352   0.631 -0.5948 -1.0860  1.2058
  662SOL     OW 1984   1.469   0.402   1.670  0.2953  0.4470  0.4377
  662SOL    HW1 1985   1.389   0.374   1.724 -0.1030 -0.2597  0.9477
  662SOL    HW2 1986   1.476   0.506   1.676 -0.5319 -0.9477 -0.1519
  663SOL     OW 1987   0.894   1.588   2.015 -0.1088 -0.2802  1.0597
  663SOL    HW1 1988   0.877   1.675   2.071  2.5000  2.0755  3.5198
  663SOL    HW2 1989   0.808   1.529   1.998 -0.2254  0.4679  2.5723
  664SOL     OW 1990   1.563   2.111   1.438 -0.2065 -0.0291 -0.1077
  664SOL    HW1 1991   1.469   2.063   1.440 -0.9513  0.6207 -0.0945
  664SOL    HW2 1992   1.622   2.084   1.514 -2.7691  0.3596 -0.7692
  665SOL     OW 1993   2.243   0.702   1.958  0.0044 -0.0349 -0.3427
  665SOL    HW1 1994   2.202   0.606   1.931 -0.5629 -2.5809  0.8004
  665SOL    HW2 1995   2.295   0.697   2.047 -0.9040 -0.7122  0.7772
  666SOL     OW 1996   0.482   2.223   0.335  0.2050 -0.0795  0.0652
  666SOL    HW1 1997   0.532   2.281   0.407  1.6607 -0.7487 -0.1136
  666SOL    HW2 1998   0.381   2.234   0.353 -0.3336  2.0121 -0.1587
  667SOL     OW 1999   1.952   0.209   1.077  0.4430  0.7050  0.0511
  667SOL    HW1 2000   1.950   0.312   1.065  1.8647  1.0306 -0.2142
  667SOL    HW2 2001   1.901   0.173   1.160 -0.9469  0.9236 -1.9948
  668SOL     OW 2002   1.984   0.485   1.117  0.1203 -0.7688  0.4778
  668SOL    HW1 2003   2.037   0.527   1.037 -0.9856  2.5897  0.5208
  668SOL    HW2 2004   2.042   0.453   1.205 -1.8672 -2.9182  2.1021
  669SOL     OW 2005   3.026   2.179   1.044  0.0460  0.4260 -0.6705
  669SOL    HW1 2006   2.998   2.222   0.952 -0.4482  0.0009 -1.3223
  669SOL    HW2 2007   2.990   2.241   1.121 -4.3253  1.2971  1.1610
  670SOL     OW 2008   2.916   2.291   2.081 -0.2325 -0.1486 -0.0617
  670SOL    HW1 2009   2.837   2.298   2.149  2.4599 -0.4857 -0.4830
  670SOL    HW2 2010   2.918   2.378   2.030  0.0511 -2.9368  0.7473
  671SOL     OW 2011   1.811   1.758   1.521 -0.0588  0.3245  0.5979
  671SOL    HW1 2012   1.837   1.822   1.442  3.0197 -1.9135  0.3165
  671SOL    HW2 2013   1.727   1.694   1.512 -3.0606  2.2313 -0.0642
  672SOL     OW 2014   0.463   0.652   2.570 -0.3172 -0.0844 -0.5835
  672SOL    HW1 2015   0.392   0.700   2.512  3.9027  0.4463  1.3699
  672SOL    HW2 2016   0.439   0.657   2.673  0.9503  1.6564  1.1589
  673SOL     OW 2017   0.095   1.349   1.076 -0.1013 -0.4231  0.7107
  673SOL    HW1 2018   0.058   1.380   1.171 -3.5893  0.1086  0.2526
  673SOL    HW2 2019   0.177   1.401   1.045  0.6394  0.8395 -0.2483
  674SOL     OW 2020   1.635   2.969   0.281  0.0983  0.0701  0.1433
  674SOL    HW1 2021   1.686   3.038   0.220 -0.7295 -0.6536  0.5372
  674SOL    HW2 2022   1.667   2.875   0.259  0.4626  1.6854  1.0136
  675SOL     OW 2023   1.708   0.844   2.349  0.5099  0.0887  0.1361
  675SOL    HW1 2024   1.809   0.821   2.335  0.1690  0.3287  0.1461
  675SOL    HW2 2025   1.650   0.777   2.298  1.3978 -0.6061 -1.8540
  676SOL     OW 2026   2.563   1.525   1.964  0.1911  0.3315 -0.5140
  676SOL    HW1 2027   2.499   1.470   1.905 -0.1148 -3.4547 -1.4206
  676SOL    HW2 2028   2.579   1.473   2.055 -1.8910  1.0418 -0.2987
  677SOL     OW 2029   1.870   0.697   0.909  0.2375  0.1499  0.3440
  677SOL    HW1 2030   1.771   0.707   0.947 -2.2682 -0.5904 -0.8866
  677SOL    HW2 2031   1.914   0.605   0.908  2.3781  0.7811  1.1956
  678SOL     OW 2032   0.108   0.761   1.631  0.3571 -0.1807 -0.0974
  678SOL    HW1 2033   0.186   0.817   1.671 -0.6958  0.1414  0.6330
  678SOL    HW2 2034   0.077   0.683   1.694  3.2864 -0.2305 -1.2736
  679SOL     OW 2035   2.613   1.133   1.168  0.5122  0.1571 -0.1646
  679SOL    HW1 2036   2.509   1.150   1.166 -0.5728 -1.6845  1.0259
  679SOL    HW2 2037   2.632   1.033   1.173  1.4517  1.5844  1.7712
  680SOL     OW 2038   2.858   0.468   1.697 -0.6048  0.4367 -0.1482
  680SOL    HW1 2039   2.811   0.525   1.624 -0.6105 -0.7748  1.0735
  680SOL    HW2 2040   2.929   0.528   1.745  0.6357  0.5203  1.2018
  681SOL     OW 2041   3.000   0.076   1.609 -0.3465  0.4216 -0.0362
  681SOL    HW1 2042   3.019   0.040   1.514 -0.3407  1.5028  0.2798
  681SOL    HW2 2043   2.908   0.115   1.610  1.4558 -1.8646  1.5093
  682SOL     OW 2044   0.666   0.043   1.327  0.4792 -0.2350  0.0646
  682SOL    HW1 2045   0.616  -0.048   1.353 -1.2449 -0.4242  1.0676
  682SOL    HW2 2046   0.731   0.027   1.248 -0.8848 -2.9131 -1.3867
  683SOL     OW 2047   1.379   0.205   2.158 -0.1995  0.0293  0.8243
  683SOL    HW1 2048   1.356   0.250   2.248 -2.3949  0.2130 -0.5634
  683SOL    HW2 2049   1.453   0.254   2.097  0.8211  0.5914  0.1597
  684SOL     OW 2050   1.446   2.134   0.551 -0.1213 -0.4874 -0.4547
  684SOL    HW1 2051   1.510   2.068   0.594 -0.8412  0.2342  0.7268
  684SOL    HW2 2052   1.353   2.093   0.524 -0.1202 -1.2440  1.1334
  685SOL     OW 2053   2.240   2.058   1.947 -0.3020 -0.6944 -0.8934
  685SOL    HW1 2054   2.287   2.054   1.853  0.1578  0.6184 -0.0430
  685SOL    HW2 2055   2.302   2.024   2.021 -1.7108  1.0044  3.3857
  686SOL     OW 2056   1.488   1.847   2.901  0.0592 -0.3212 -0.3509
  686SOL    HW1 2057   1.537   1.794   2.977  0.8588 -2.4452 -2.3219
  686SOL    HW2 2058   1.385   1.825   2.894 -1.7640 -1.3234  0.8054
  687SOL     OW 2059   1.296   2.412   1.976 -0.2666  0.0136  0.2736
  687SOL    HW1 2060   1.364   2.337   1.995  0.1906 -0.3703 -2.0134
  687SOL    HW2 2061   1.307   2.493   2.040 -0.0099 -0.9671 -1.6803
  688SOL     OW 2062   2.077   1.506   1.744 -0.0019  0.3353 -0.2740
  688SOL    HW1 2063   2.178   1.521   1.723  1.6391 -3.0746  1.1880
  688SOL    HW2 2064   2.031   1.463   1.664 -0.7131  1.4644 -0.7034
  689SOL     OW 2065   2.395   1.134   2.748 -0.4068 -0.1934 -0.0178
  689SOL    HW1 2066   2.303   1.100   2.779  0.1497 -2.5717 -0.2216
  689SOL    HW2 2067   2.461   1.102   2.819 -1.2348 -1.1620 -0.2170
  690SOL     OW 2068   2.219   2.786   0.048 -0.1455 -0.3173  0.5884
  690SOL    HW1 2069   2.156   2.736  -0.024  0.0995 -1.0420 -2.5881
  690SOL    HW2 2070   2.166   2.788   0.134  0.1365 -1.8336 -2.5744
  691SOL     OW 2071   2.572   0.429   2.097  0.3627 -0.5733 -0.2741
  691SOL    HW1 2072   2.610   0.341   2.141 -0.2364  1.4249  2.9890
  691SOL    HW2 2073   2.648   0.486   2.054  0.8804  0.2747 -1.0060
  692SOL     OW 2074   2.654   1.191   0.790  0.4199 -0.3479  0.6255
  692SOL    HW1 2075   2.564   1.201   0.734  0.4805 -0.1282 -0.8252
  692SOL    HW2 2076   2.668   1.269   0.860 -0.1968  0.2381  1.4304
  693SOL     OW 2077   2.840   2.952   0.624  0.4826  0.3478 -0.6803
  693SOL    HW1 2078   2.836   3.038   0.682 -2.4598 -2.1623 -1.4636
  693SOL    HW2 2079   2.817   2.963   0.522 -0.4548 -1.8043  0.3181
  694SOL     OW 2080   2.432   2.207   0.160  0.3351  0.3743  0.1849
  694SOL    HW1 2081   2.393   2.292   0.203 -0.9749 -0.3430 -3.2874
  694SOL    HW2 2082   2.355   2.141   0.136  2.5950  3.5356 -2.3214
  695SOL     OW 2083   0.460   2.959   1.432 -0.0792  0.0109 -0.0551
  695SOL    HW1 2084   0.398   2.882   1.394 -0.3689 -0.9327 -1.5779
  695SOL    HW2 2085   0.415   3.023   1.504 -1.5088 -0.0440  1.5986
  696SOL     OW 2086   2.805   1.985   0.760  0.4045  0.4167  0.0578
  696SOL    HW1 2087   2.891   1.932   0.776  1.4877  4.0573  1.7528
  696SOL    HW2 2088   2.788   2.010   0.659  0.0764  0.3183  1.3828
  697SOL     OW 2089   1.672   1.874   1.833  0.1790  0.2596 -0.0338
  697SOL    HW1 2090   1.767   1.832   1.835 -0.0338  1.0309  0.0280
  697SOL    HW2 2091   1.673   1.973   1.806 -1.6196  1.8810  0.9543
  698SOL     OW 2092   2.876   0.432   2.714  0.0182  0.0808  0.1977
  698SOL    HW1 2093   2.873   0.391   2.615 -0.5505  0.8367 -0.3715
  698SOL    HW2 2094   2.933   0.368   2.778  1.4409 -0.1382 -3.4065
  699SOL     OW 2095   1.569   0.069   2.912  0.1447 -0.1767 -0.5952
  699SOL    HW1 2096   1.545  -0.028   2.883 -0.8100  0.0444 -0.2936
  699SOL    HW2 2097   1.603   0.127   2.831 -3.2478  0.8512  0.4056
  700SOL     OW 2098   0.991   2.239   1.362  0.0036  0.0190 -0.1273
  700SOL    HW1 2099   1.075   2.202   1.310  0.3310 -4.8545 -1.9716
  700SOL    HW2 2100   0.904   2.195   1.323  1.0379 -0.2146 -2.0177
  701SOL     OW 2101   1.902   2.866   0.045 -0.2518 -0.1370 -0.1147
  701SOL    HW1 2102   1.869   2.854   0.137  2.3665 -2.7097 -2.5622
  701SOL    HW2 2103   1.910   2.963   0.019  1.5174 -1.4576 -1.5841
  702SOL     OW 2104   2.089   1.351   1.964  0.0804 -0.6139  0.2541
  702SOL    HW1 2105   2.185   1.305   1.956  0.0089 -1.0632  1.9150
  702SOL    HW2 2106   2.076   1.418   1.884  0.8250 -1.2393  0.4657
  703SOL     OW 2107   1.912   0.910   1.519  0.2278 -0.1100 -0.4474
  703SOL    HW1 2108   1.920   0.806   1.535  0.7476  0.1901 -0.8530
  703SOL    HW2 2109   1.996   0.964   1.541 -2.2881  0.5509  0.1477
  704SOL     OW 2110   0.326   2.023   1.693 -0.3141 -0.7483  0.0466
  704SOL    HW1 2111   0.362   1.959   1.767 -1.3841  0.1276 -1.1302
  704SOL    HW2 2112   0.392   2.101   1.667  0.4363  1.5575  1.0952
  705SOL     OW 2113   2.452   1.483   0.901  0.6016  0.3652  0.0324
  705SOL    HW1 2114   2.425   1.414   0.829 -1.2099 -0.2236 -0.7955
  705SOL    HW2 2115   2.551   1.475   0.924  0.0491  0.1751 -1.6727
  706SOL     OW 2116   0.653   1.705   1.807 -0.3742  0.4328  0.9187
  706SOL    HW1 2117   0.738   1.717   1.739  3.8406  0.3765 -1.4631
  706SOL    HW2 2118   0.682   1.672   1.900  0.1590  2.0526  1.0115
  707SOL     OW 2119   2.338   1.220   1.960  0.3439 -0.1572 -0.5543
  707SOL    HW1 2120   2.412   1.235   2.031 -1.7288  1.1270  3.1982
  707SOL    HW2 2121   2.320   1.119   1.940  0.2601  0.5588 -1.1702
  708SOL     OW 2122   3.018   0.498   3.075 -0.2594  0.5488  0.0670
  708SOL    HW1 2123   3.075   0.571   3.023 -2.2791  0.0884 -2.7525
  708SOL    HW2 2124   3.010   0.405   3.026  1.5923  2.9073  0.3640
  709SOL     OW 2125   1.909   1.868   0.372  0.1414  0.2923 -0.1139
  709SOL    HW1 2126   1.899   1.969   0.395 -0.9576  2.0678 -0.0627
  709SOL    HW2 2127   1.896   1.856   0.269 -3.2311  0.3216 -0.1089
  710SOL     OW 2128   1.801   1.619   2.472 -0.5487  0.4979  0.5058
  710SOL    HW1 2129   1.851   1.541   2.434 -1.4232  0.4041 -2.0470
  710SOL    HW2 2130   1.755   1.603   2.560 -0.8873  0.6694 -3.1267
  711SOL     OW 2131   2.639   2.927   0.951 -0.5770  0.1028  1.2282
  711SOL    HW1 2132   2.601   3.019   0.916 -1.1570  0.6225  0.5416
  711SOL    HW2 2133   2.743   2.933   0.981  1.5037 -1.4698  1.4256
  712SOL     OW 2134   1.385   2.124   1.977 -0.0444 -0.3593 -0.4181
  712SOL    HW1 2135   1.443   2.071   1.912 -0.2748  4.4959  2.3093
  712SOL    HW2 2136   1.292   2.142   1.939  1.3823 -1.0572  0.3823
  713SOL     OW 2137   2.776   1.457   2.520 -0.0076  0.2585  0.4397
  713SOL    HW1 2138   2.765   1.361   2.489  1.6825  3.0552  0.9664
  713SOL    HW2 2139   2.694   1.491   2.570  2.0961 -0.1562  1.5308
  714SOL     OW 2140   2.689   0.484   2.368 -0.3493 -0.4118  0.5456
  714SOL    HW1 2141   2.632   0.432   2.431  3.0628  0.9853  0.2737
  714SOL    HW2 2142   2.638   0.503   2.280 -1.6732  0.2992 -0.7043
  715SOL     OW 2143   1.599   2.197   1.153 -0.4071  0.0205  0.4585
  715SOL    HW1 2144   1.514   2.252   1.136  2.2839 -2.0716 -2.8839
  715SOL    HW2 2145   1.597   2.157   1.251 -1.2494  0.8011  1.5176
  716SOL     OW 2146   1.235   0.138   1.486 -0.0783  0.4031 -0.1263
  716SOL    HW1 2147   1.133   0.146   1.461 -1.9899  4.9855 -3.9912
  716SOL    HW2 2148   1.277   0.234   1.494 -2.7231  2.1595 -0.9822
  717SOL     OW 2149   1.131   0.558   1.622  0.2366 -0.0303 -0.2658
  717SOL    HW1 2150   1.224   0.597   1.639 -0.0802 -0.5240  1.9158
  717SOL    HW2 2151   1.119   0.519   1.527  0.0479 -2.1207  1.4891
  718SOL     OW 2152   0.666   0.899   0.953 -0.6893  0.2544  0.4422
  718SOL    HW1 2153   0.639   0.899   0.850  2.0931 -1.0803  0.8535
  718SOL    HW2 2154   0.656   0.991   1.001 -0.5767 -1.3480  1.4374
  719SOL     OW 2155   0.653   1.748   2.295 -0.8700  0.1131 -0.3533
  719SOL    HW1 2156   0.718   1.777   2.376  1.1888 -0.3708  3.4785
  719SOL    HW2 2157   0.627   1.650   2.302 -0.3629  2.1437  0.3271
  720SOL     OW 2158   2.215   1.151   0.294  0.2602  0.0237  0.1613
  720SOL    HW1 2159   2.286   1.092   0.244 -2.0601 -0.6292 -0.8666
  720SOL    HW2 2160   2.176   1.101   0.376 -0.5544 -1.0946  1.6408
  721SOL     OW 2161   2.280   2.992   2.114 -0.4359 -0.2235 -0.1512
  721SOL    HW1 2162   2.255   3.005   2.013 -3.8414  1.5336 -3.4420
  721SOL    HW2 2163   2.222   3.054   2.176 -2.4847 -0.0858 -2.9109
  722SOL     OW 2164   2.364   1.640   0.511  0.0232 -0.5075 -0.0659
  722SOL    HW1 2165   2.429   1.676   0.439 -1.8275 -0.3776  0.7062
  722SOL    HW2 2166   2.272   1.678   0.492  2.0271 -2.4211  0.1464
  723SOL     OW 2167   2.643   2.749   1.917  0.4357 -0.2441  0.1623
  723SOL    HW1 2168   2.698   2.823   1.957 -0.4527  0.5263 -0.5893
  723SOL    HW2 2169   2.545   2.746   1.941  0.6864 -0.2191 -3.4043
  724SOL     OW 2170   0.448   2.498   2.420  0.5086 -0.2514 -0.4715
  724SOL    HW1 2171   0.346   2.480   2.436  2.5246  1.5557  1.7458
  724SOL    HW2 2172   0.507   2.466   2.496 -0.1821  1.5219  0.3205
  725SOL     OW 2173   2.401   2.809   1.535 -0.9158 -0.1607  0.5983
  725SOL    HW1 2174   2.429   2.819   1.434 -0.7939  1.3078 -3.1758
  725SOL    HW2 2175   2.418   2.709   1.561  2.1194  0.4955  1.7893
  726SOL     OW 2176   2.507   2.318   0.696 -0.1423  0.4228 -0.1088
  726SOL    HW1 2177   2.476   2.415   0.676  1.9052 -3.7757 -1.0992
  726SOL    HW2 2178   2.488   2.259   0.610 -3.2956 -0.2247 -1.1330
  727SOL     OW 2179   0.113   0.020   0.157 -0.1293  0.4268  0.3892
  727SOL    HW1 2180   0.200   0.045   0.103 -3.7979 -0.2351 -0.2297
  727SOL    HW2 2181   0.034  -0.010   0.098 -0.7800  0.5337  0.8638
  728SOL     OW 2182   2.907   0.716   0.945 -0.1047  0.2822 -0.7607
  728SOL    HW1 2183   2.866   0.682   0.854 -0.1160 -0.7901  0.2439
  728SOL    HW2 2184   2.868   0.670   1.032  1.5610  0.7891  1.7254
  729SOL     OW 2185   0.029   2.510   0.765  0.4124 -0.0515 -0.1111
  729SOL    HW1 2186   0.060   2.514   0.859 -3.0821  0.7469 -2.4235
  729SOL    HW2 2187   0.084   2.455   0.696 -0.5750  0.2634 -1.4671
  730SOL     OW 2188   2.593   0.665   0.890 -0.5047 -0.2626 -0.2433
  730SOL    HW1 2189   2.577   0.766   0.885 -0.9023 -0.6352  3.1159
  730SOL    HW2 2190   2.676   0.631   0.840 -1.8521 -2.1491  3.3935
  731SOL     OW 2191   3.065   2.183   2.359  0.0457 -0.2905 -0.1787
  731SOL    HW1 2192   3.093   2.217   2.454  0.8819 -1.4130  2.0138
  731SOL    HW2 2193   3.032   2.257   2.292  0.4050  0.6737  1.1578
  732SOL     OW 2194   1.256   2.742   2.007 -0.3539  0.0823  0.1058
  732SOL    HW1 2195   1.242   2.673   2.080  0.7630  1.4615 -0.5106
  732SOL    HW2 2196   1.227   2.710   1.913 -0.1199  0.3876  1.7303
  733SOL     OW 2197   0.006   0.594   2.278 -0.1233 -0.2934 -0.3914
  733SOL    HW1 2198   0.083   0.653   2.240  0.6655  0.1742  0.5517
  733SOL    HW2 2199  -0.045   0.539   2.209 -0.5587  0.1558 -1.0457
  734SOL     OW 2200   1.461   0.374   2.678  0.0194 -0.3165 -0.1536
  734SOL    HW1 2201   1.449   0.476   2.705 -0.1734  1.2034  0.0931
  734SOL    HW2 2202   1.379   0.313   2.708 -0.9979  0.2652  1.4568
  735SOL     OW 2203   2.865   2.646   2.290 -0.4384 -0.3041 -0.2101
  735SOL    HW1 2204   2.870   2.594   2.202 -1.3737  1.1663  3.2406
  735SOL    HW2 2205   2.937   2.720   2.288  0.5797 -1.2705 -2.4525
  736SOL     OW 2206   0.908   0.419   2.505  0.6251  0.6930 -0.1662
  736SOL    HW1 2207   0.805   0.417   2.514 -0.6419 -2.3160 -0.3704
  736SOL    HW2 2208   0.938   0.334   2.455 -1.4169  1.3235  0.1342
  737SOL     OW 2209   2.617   0.418   2.785  0.2159  0.3437  0.0670
  737SOL    HW1 2210   2.592   0.390   2.882 -0.4707  1.1076  1.4796
  737SOL    HW2 2211   2.720   0.429   2.767 -1.1565 -2.8244  3.4144
  738SOL     OW 2212   1.742   1.258   2.908 -0.7673 -0.0353 -0.8045
  738SOL    HW1 2213   1.832   1.244   2.859 -3.2544  0.3684  0.0818
  738SOL    HW2 2214   1.685   1.173   2.930  1.6149 -0.4393 -1.3525
  739SOL     OW 2215   1.850   0.673   0.641 -0.9215 -0.4978  0.5310
  739SOL    HW1 2216   1.853   0.682   0.749  1.0169  1.7430 -0.4495
  739SOL    HW2 2217   1.875   0.579   0.608  1.0050 -0.4406  1.4942
  740SOL     OW 2218   1.951   1.918   2.365 -0.0875 -0.1374  0.4251
  740SOL    HW1 2219   2.033   1.852   2.352 -1.6678  1.1098 -0.8233
  740SOL    HW2 2220   1.876   1.896   2.291 -4.5878 -0.0551 -0.6399
  741SOL     OW 2221   2.575   0.002   2.460  0.1648  0.5102 -0.5889
  741SOL    HW1 2222   2.678   0.018   2.446  1.4344  1.7179 -0.8409
  741SOL    HW2 2223   2.523   0.053   2.383 -1.4694  1.6918  1.9639
  742SOL     OW 2224   2.194   1.417   0.159  0.0624 -0.6295  0.3331
  742SOL    HW1 2225   2.105   1.468   0.187  1.1870 -1.6496 -0.3822
  742SOL    HW2 2226   2.212   1.322   0.201  3.4660 -0.7104 -1.3686
  743SOL     OW 2227   1.823   0.599   2.607 -0.2250  0.1999  0.4801
  743SOL    HW1 2228   1.801   0.521   2.535 -0.0640 -2.3422 -1.5854
  743SOL    HW2 2229   1.754   0.675   2.612 -3.9081 -3.0835  0.7534
  744SOL     OW 2230   2.675   2.118   0.069  0.0408  0.0113 -0.0693
  744SOL    HW1 2231   2.586   2.142   0.125 -1.1873 -1.8552  1.6197
  744SOL    HW2 2232   2.673   2.018   0.050 -1.4803 -0.5725 -0.5585
  745SOL     OW 2233   2.233   2.589   2.236  1.1465  0.5411  0.0657
  745SOL    HW1 2234   2.142   2.585   2.186 -0.0399 -0.7983 -2.6275
  745SOL    HW2 2235   2.237   2.666   2.311  1.3764  2.1356  0.8572
  746SOL     OW 2236   0.039   2.632   1.749  0.3824  0.1758 -0.0100
  746SOL    HW1 2237   0.127   2.601   1.707  0.1502  0.2250  1.1917
  746SOL    HW2 2238   0.045   2.715   1.813  2.2538 -0.5698 -0.2362
  747SOL     OW 2239   0.056   1.779   1.648 -0.5141 -0.5527 -0.3743
  747SOL    HW1 2240   0.016   1.697   1.604 -0.0946  0.1503 -0.2006
  747SOL    HW2 2241   0.109   1.832   1.579 -1.7709 -4.2478  3.5254
  748SOL     OW 2242   1.869   2.731   2.897  0.0297 -0.2378 -0.2520
  748SOL    HW1 2243   1.881   2.798   2.974  1.2910  0.3398  0.0962
  748SOL    HW2 2244   1.774   2.697   2.898 -1.9109 -0.9303 -0.5173
  749SOL     OW 2245   1.400   3.019   0.895  1.2089  0.3235  0.2257
  749SOL    HW1 2246   1.329   3.091   0.864 -4.8768  1.7995  1.5994
  749SOL    HW2 2247   1.468   3.000   0.821 -1.8684  0.5419  2.8570
  750SOL     OW 2248   2.248   0.172   1.843  0.2416  0.1138 -0.1345
  750SOL    HW1 2249   2.288   0.205   1.748  2.1495  0.8574  1.6271
  750SOL    HW2 2250   2.270   0.245   1.915  0.9281  0.1665 -1.3442
  751SOL     OW 2251   0.755   2.128   2.878  0.1050  0.5043  0.0970
  751SOL    HW1 2252   0.813   2.143   2.961 -2.5219  0.4775 -0.7090
  751SOL    HW2 2253   0.678   2.062   2.893 -1.0970  1.2916 -0.8578
  752SOL     OW 2254   1.296   0.826   1.220 -0.0941  0.0988  0.9269
  752SOL    HW1 2255   1.365   0.903   1.213 -3.0755  1.1835  1.8765
  752SOL    HW2 2256   1.342   0.737   1.247  1.5775  0.2496  2.6406
  753SOL     OW 2257   0.931   2.555   1.805 -0.6408 -0.4124 -0.0310
  753SOL    HW1 2258   1.028   2.588   1.777 -1.4231  0.9878  0.7442
  753SOL    HW2 2259   0.871   2.637   1.840 -1.1472 -1.1258  0.8627
  754SOL     OW 2260   1.143   1.188   3.017 -0.3328  0.4131  0.5771
  754SOL    HW1 2261   1.200   1.106   2.983  0.7053 -1.0774 -1.5420
  754SOL    HW2 2262   1.192   1.278   3.013 -0.4514  1.8763 -0.3371
  755SOL     OW 2263   1.985   0.440   2.233 -0.0090 -0.4787 -0.3124
  755SOL    HW1 2264   2.063   0.371   2.251 -3.0262  1.6239  1.4973
  755SOL    HW2 2265   1.909   0.441   2.304 -2.1618  0.6984  1.1426
  756SOL     OW 2266   2.495   1.003   2.980  0.4946 -0.1295 -0.0351
  756SOL    HW1 2267   2.592   0.972   2.977 -1.3046  1.3880 -1.6147
  756SOL    HW2 2268   2.437   0.925   3.018 -1.4768 -0.1119 -0.0712
  757SOL     OW 2269   0.098   0.421   1.966 -0.1727  0.9509  0.8413
  757SOL    HW1 2270   0.164   0.344   1.934  0.7095 -0.6226 -2.4438
  757SOL    HW2 2271   0.013   0.381   2.011  2.7494  1.1922 -1.7675
  758SOL     OW 2272   2.190   0.094   1.506  0.1104 -0.2463 -0.3198
  758SOL    HW1 2273   2.180  -0.008   1.531 -2.0126  0.0115  1.1498
  758SOL    HW2 2274   2.241   0.111   1.421  0.4147 -0.2564  2.2827
  759SOL     OW 2275   1.705   0.020   0.061  0.1456 -0.1149  0.6224
  759SOL    HW1 2276   1.652   0.041  -0.025 -0.4391  0.4497  1.6618
  759SOL    HW2 2277   1.805   0.035   0.049 -0.5116 -1.7918 -0.2466
  760SOL     OW 2278   2.685   2.018   2.819  0.3810  0.4459  0.2351
  760SOL    HW1 2279   2.589   1.994   2.844  2.5758  0.7268  2.2985
  760SOL    HW2 2280   2.707   2.120   2.816 -0.5240  2.2047  3.9070
  761SOL     OW 2281   1.945   1.766   1.755 -0.2300  0.8336  0.4633
  761SOL    HW1 2282   1.984   1.672   1.776 -1.6320  0.5739  1.6271
  761SOL    HW2 2283   1.893   1.776   1.663 -1.0861  0.5360 -0.1314
  762SOL     OW 2284   0.495   2.402   0.967 -0.0117  0.1101  0.2217
  762SOL    HW1 2285   0.551   2.412   0.879  1.0019  2.4636  0.3249
  762SOL    HW2 2286   0.557   2.397   1.054  3.1553 -1.2889  0.2225
  763SOL     OW 2287   2.076   1.558   2.989 -0.0630 -0.6513 -0.0528
  763SOL    HW1 2288   2.169   1.514   3.008 -0.5924  3.3612 -0.9696
  763SOL    HW2 2289   1.999   1.526   3.045  0.3331 -1.0431 -0.6884
  764SOL     OW 2290   0.687   0.616   0.678  0.1957  0.3315 -0.2086
  764SOL    HW1 2291   0.598   0.571   0.650 -0.3804 -2.4193  0.5465
  764SOL    HW2 2292   0.721   0.580   0.764  0.9232  1.8563 -1.5015
  765SOL     OW 2293   0.799   0.295   0.738 -0.5831  0.2243  0.1698
  765SOL    HW1 2294   0.850   0.327   0.649  4.5725  2.4643 -4.1825
  765SOL    HW2 2295   0.806   0.363   0.815 -1.3909 -1.7263 -1.3554
  766SOL     OW 2296   2.924   2.133   3.059  0.0984 -0.2874 -0.2083
  766SOL    HW1 2297   2.825   2.132   3.094  1.8393  2.0602 -2.1733
  766SOL    HW2 2298   2.973   2.221   3.087 -0.5496  0.3501  0.0756
  767SOL     OW 2299   2.794   1.633   0.612 -0.2577  0.1961 -0.1211
  767SOL    HW1 2300   2.700   1.639   0.651  0.1034 -0.5963 -1.8936
  767SOL    HW2 2301   2.870   1.621   0.681 -0.7042  0.4215  0.2227
  768SOL     OW 2302   1.069   0.189   0.219  0.0510 -0.6247  0.5376
  768SOL    HW1 2303   1.084   0.273   0.278 -0.6105  1.1557 -2.6425
  768SOL    HW2 2304   1.153   0.136   0.220 -1.9105  1.8198 -0.6949
  769SOL     OW 2305   1.104   1.796   2.305  0.0715 -0.2984 -0.4124
  769SOL    HW1 2306   1.020   1.817   2.360  0.3835  2.0865 -0.0663
  769SOL    HW2 2307   1.195   1.790   2.363  0.8940  0.6162  0.9661
  770SOL     OW 2308   0.171   1.122   2.306  0.6219 -0.2474 -0.1293
  770SOL    HW1 2309   0.165   1.204   2.368 -0.3679  0.4504 -1.9488
  770SOL    HW2 2310   0.079   1.077   2.297 -1.7756  1.1627 -1.9725
  771SOL     OW 2311   3.061   2.813   1.941 -0.4918  0.5895 -0.0321
  771SOL    HW1 2312   2.997   2.823   1.864  2.8087 -0.1019  0.7881
  771SOL    HW2 2313   3.049   2.881   2.017  1.4335 -2.7351  0.5100
  772SOL     OW 2314   2.346   0.254   2.809  0.1024 -0.5932  0.0395
  772SOL    HW1 2315   2.414   0.196   2.762 -1.1304  1.4408  2.0056
  772SOL    HW2 2316   2.351   0.231   2.911  1.3732  0.0344  1.7026
  773SOL     OW 2317   0.601   2.112   2.378 -0.0786  0.9570 -0.6211
  773SOL    HW1 2318   0.598   2.208   2.348  2.2175 -2.0694  0.8824
  773SOL    HW2 2319   0.520   2.081   2.432  1.9992  0.5095  1.0135
  774SOL     OW 2320   2.101   0.004   2.590 -0.3110  0.1956 -0.3153
  774SOL    HW1 2321   2.086   0.097   2.642 -1.7724 -1.0873  1.1270
  774SOL    HW2 2322   2.183  -0.054   2.625  0.0365 -0.4906  4.6829
  775SOL     OW 2323   2.519   2.965   2.199  1.1555 -0.1731  0.9521
  775SOL    HW1 2324   2.422   2.977   2.160  1.2728  0.5800 -0.4421
  775SOL    HW2 2325   2.521   2.973   2.297  2.4474 -1.0534 -2.9227
  776SOL     OW 2326   3.089   1.273   0.172 -0.1845 -0.2379  0.3188
  776SOL    HW1 2327   3.039   1.250   0.086  0.5849  1.5186  0.1932
  776SOL    HW2 2328   3.037   1.268   0.265  1.0457 -0.1664  3.1680
  777SOL     OW 2329   0.399   2.916   0.417  0.4968 -0.6668 -0.2103
  777SOL    HW1 2330   0.301   2.896   0.393  1.3014 -1.4868  1.2940
  777SOL    HW2 2331   0.463   2.841   0.396  2.1124 -0.1934  2.4438
  778SOL     OW 2332   1.333   2.026   0.211 -0.4559 -0.7526 -0.3649
  778SOL    HW1 2333   1.281   2.064   0.291 -0.9589  0.0980 -1.2016
  778SOL    HW2 2334   1.364   2.100   0.143 -0.7100  1.2433  0.5639
  779SOL     OW 2335   0.167   0.824   0.479 -0.1179  0.3730 -0.6151
  779SOL    HW1 2336   0.110   0.740   0.455  3.0180  0.2866  2.9677
  779SOL    HW2 2337   0.106   0.892   0.529  1.0988  0.8883  4.1886
  780SOL     OW 2338   0.139   0.272   2.334  0.0674 -0.2204  0.6273
  780SOL    HW1 2339   0.100   0.348   2.393 -1.0587 -0.7317  2.5021
  780SOL    HW2 2340   0.231   0.295   2.291 -0.2055  1.3750 -0.3902
  781SOL     OW 2341   0.712   1.712   1.499 -0.4147 -0.0235 -0.2954
  781SOL    HW1 2342   0.767   1.642   1.552 -1.1220 -0.0309 -1.0639
  781SOL    HW2 2343   0.609   1.695   1.493 -1.0438 -0.4997 -0.1794
  782SOL     OW 2344   2.537   0.090   0.951 -0.6917  0.7612  0.1055
  782SOL    HW1 2345   2.499   0.141   0.870  0.4379 -1.0161 -0.9329
  782SOL    HW2 2346   2.478   0.103   1.034 -0.2873  2.1086 -0.5283
  783SOL     OW 2347   2.785   0.720   2.490 -0.1626 -0.6592 -0.4703
  783SOL    HW1 2348   2.843   0.704   2.575  0.7853  0.4572  0.0508
  783SOL    HW2 2349   2.752   0.629   2.445 -4.4861  1.3339 -4.6545
  784SOL     OW 2350   1.408   2.191   0.005  0.0443  0.8998  0.1383
  784SOL    HW1 2351   1.461   2.277   0.045  1.6973 -0.1346 -0.3581
  784SOL    HW2 2352   1.394   2.192  -0.098 -1.2577 -0.1758 -0.8517
  785SOL     OW 2353   2.057   0.304   0.007 -0.2697  0.1516 -0.3136
  785SOL    HW1 2354   1.983   0.325   0.072  2.6363 -0.8906 -0.9843
  785SOL    HW2 2355   2.076   0.388  -0.053  1.0845 -1.9348 -0.3738
  786SOL     OW 2356   2.032   2.171   2.222  0.2211 -0.1389  0.2305
  786SOL    HW1 2357   1.987   2.077   2.237 -2.2131 -1.7589  1.8342
  786SOL    HW2 2358   2.137   2.160   2.234 -4.3829  0.1091 -0.5776
  787SOL     OW 2359   1.368   0.565   0.908  0.5192 -0.4170 -0.0224
  787SOL    HW1 2360   1.316   0.653   0.894  2.3287 -1.0421  0.4024
  787SOL    HW2 2361   1.417   0.526   0.827 -1.9475  0.4833  4.9428
  788SOL     OW 2362   1.223   0.437   0.025  0.1769  0.5178  0.3452
  788SOL    HW1 2363   1.127   0.412  -0.001  2.1923  0.9148  1.5237
  788SOL    HW2 2364   1.217   0.504   0.103  1.5951 -1.6393 -0.9939
  789SOL     OW 2365   2.513   0.114   1.956 -0.5249  0.3101 -0.0548
  789SOL    HW1 2366   2.419   0.132   1.929  3.4646 -4.3636  2.3616
  789SOL    HW2 2367   2.539   0.017   1.964  2.3066  0.1761  0.3581
  790SOL     OW 2368   2.634   2.751   0.721  0.1822 -0.5091  0.4375
  790SOL    HW1 2369   2.688   2.816   0.656  3.1073  1.5150 -1.4025
  790SOL    HW2 2370   2.610   2.787   0.815 -0.9895 -0.5539 -0.8331
  791SOL     OW 2371   1.930   1.212   0.248 -0.1116 -0.2673  0.6030
  791SOL    HW1 2372   1.849   1.164   0.282  0.1747  2.5557  0.1757
  791SOL    HW2 2373   2.013   1.209   0.306 -0.0979 -0.7575  1.8085
  792SOL     OW 2374   0.390   1.731   2.120 -0.6034  0.1264 -1.0244
  792SOL    HW1 2375   0.462   1.667   2.162  2.5589 -0.2973 -2.0296
  792SOL    HW2 2376   0.330   1.775   2.190  0.7399  1.8820  0.1491
  793SOL     OW 2377   2.098   1.588   2.096 -0.0110  0.0441 -0.1593
  793SOL    HW1 2378   2.180   1.618   2.039  2.5374 -0.3288 -0.7514
  793SOL    HW2 2379   2.087   1.485   2.089 -1.0081  0.2072  0.4456
  794SOL     OW 2380   0.558   1.490   2.299  0.1677 -0.4549  0.6725
  794SOL    HW1 2381   0.530   1.422   2.227 -0.0373 -0.4747  2.0349
  794SOL    HW2 2382   0.498   1.485   2.385  2.3557  0.8942  0.5219
  795SOL     OW 2383   2.524   2.314   1.819  0.4451  0.4892 -0.3036
  795SOL    HW1 2384   2.506   2.315   1.922  1.7674 -1.7451  0.9570
  795SOL    HW2 2385   2.446   2.263   1.767 -1.8162 -2.3696 -1.4588
  796SOL     OW 2386   3.099   1.112   2.644  0.4704 -0.1526  0.2801
  796SOL    HW1 2387   2.997   1.091   2.662 -0.4703 -2.7589 -1.4877
  796SOL    HW2 2388   3.149   1.112   2.736  1.2017  1.9679  1.5436
  797SOL     OW 2389   0.800   0.647   1.393 -0.5329  0.2855  0.0897
  797SOL    HW1 2390   0.849   0.705   1.465 -1.8153  0.7821 -2.0668
  797SOL    HW2 2391   0.749   0.706   1.322 -1.1193 -1.6671  0.9879
  798SOL     OW 2392   1.330   0.404   1.177  0.3191 -0.6202 -0.0234
  798SOL    HW1 2393   1.393   0.389   1.257 -1.9952  1.6356 -1.2496
  798SOL    HW2 2394   1.353   0.476   1.107 -1.1712 -1.1537 -1.5878
  799SOL     OW 2395   1.972   2.672   1.008  0.0516  0.6118 -0.3185
  799SOL    HW1 2396   1.891   2.647   1.072 -1.5372 -0.2155 -2.6104
  799SOL    HW2 2397   1.950   2.676   0.905 -1.5725  0.4973 -2.4824
  800SOL     OW 2398   3.080   0.592   1.821  0.2750  0.4127 -0.0108
  800SOL    HW1 2399   3.048   0.669   1.886 -2.2598  0.1858  0.7554
  800SOL    HW2 2400   3.142   0.521   1.871 -0.0850 -0.1942 -0.9797
  801SOL     OW 2401   1.918   2.251   0.131 -0.1571  0.8757 -0.8770
  801SOL    HW1 2402   1.840   2.183   0.125  0.1301 -1.1721  4.1368
  801SOL    HW2 2403   2.006   2.218   0.089  0.8245  1.4868  2.6072
  802SOL     OW 2404   0.711   0.772   2.586  0.4363  0.6544  0.0209
  802SOL    HW1 2405   0.768   0.765   2.495  0.6387 -0.2001  0.0006
  802SOL    HW2 2406   0.624   0.718   2.576 -0.5752  2.4930  0.8821
  803SOL     OW 2407   0.922   0.118   0.910  0.8244 -0.4592  0.2184
  803SOL    HW1 2408   1.014   0.165   0.913 -2.0155 -0.7215 -2.1493
  803SOL    HW2 2409   0.858   0.162   0.837 -1.4619 -0.7713  2.5213
  804SOL     OW 2410   0.336   0.025   2.141 -0.6527  0.8806  0.3143
  804SOL    HW1 2411   0.302   0.103   2.083 -2.6950 -0.2752  3.1682
  804SOL    HW2 2412   0.304  -0.066   2.102  0.6068  2.9641 -0.5380
  805SOL     OW 2413   2.416   0.231   0.253 -0.1907 -0.1143 -0.2978
  805SOL    HW1 2414   2.499   0.283   0.266 -0.9775  0.6723 -0.4605
  805SOL    HW2 2415   2.396   0.203   0.156 -0.2078 -1.4850 -2.7150
  806SOL     OW 2416   0.642   2.409   1.692 -0.1809 -0.1191 -0.5036
  806SOL    HW1 2417   0.656   2.512   1.695 -0.3494 -0.2010  0.9651
  806SOL    HW2 2418   0.737   2.370   1.683  0.4331 -0.2810  3.0412
  807SOL     OW 2419   2.481   0.971   0.465 -0.4428  0.3580  0.0333
  807SOL    HW1 2420   2.580   0.954   0.493  1.0754  3.3418 -0.7336
  807SOL    HW2 2421   2.453   0.944   0.371  2.7564  1.3243  0.3345
  808SOL     OW 2422   0.524   1.980   2.933 -0.4976 -0.4765 -0.2548
  808SOL    HW1 2423   0.512   2.009   3.031  1.5328  2.3223  0.5929
  808SOL    HW2 2424   0.550   1.878   2.926  1.0054  1.8735  0.5544
  809SOL     OW 2425   2.577   1.960   1.957  0.5986 -0.0514  0.3295
  809SOL    HW1 2426   2.645   2.017   1.910 -2.7405 -1.3367  0.8648
  809SOL    HW2 2427   2.527   1.900   1.889 -0.9629  1.9129  0.3600
  810SOL     OW 2428   2.032   1.092   0.528  0.4388  0.0284 -0.7694
  810SOL    HW1 2429   2.078   1.050   0.612  2.5802 -2.3383  1.0279
  810SOL    HW2 2430   1.989   1.188   0.549 -0.6894  0.6209 -2.5138
  811SOL     OW 2431   1.323   2.450   1.275  0.2603 -0.1407 -0.1851
  811SOL    HW1 2432   1.299   2.350   1.304  0.5082 -1.2167  2.6509
  811SOL    HW2 2433   1.237   2.501   1.256 -0.5668 -0.6410  3.2551
  812SOL     OW 2434   1.426   0.777   1.936  0.2999 -0.1512  0.0638
  812SOL    HW1 2435   1.484   0.854   1.974 -0.7003  1.5564 -1.5958
  812SOL    HW2 2436   1.326   0.805   1.937  1.5750  0.3116  0.2845
  813SOL     OW 2437   1.738   2.142   2.435  0.1000  0.7857  0.1876
  813SOL    HW1 2438   1.829   2.098   2.423  0.0285 -2.0029  0.8694
  813SOL    HW2 2439   1.661   2.108   2.367 -0.2872 -0.9839 -1.9168
  814SOL     OW 2440   2.849   1.557   2.920  0.1371 -0.0240 -0.2469
  814SOL    HW1 2441   2.947   1.544   2.957  1.6312 -1.0527 -0.1785
  814SOL    HW2 2442   2.830   1.649   2.865  2.2944  2.1889 -2.0577
  815SOL     OW 2443   2.251   2.901   2.688  0.2847 -0.7486 -0.4772
  815SOL    HW1 2444   2.217   2.871   2.782  1.5497 -1.1711 -0.2080
  815SOL    HW2 2445   2.353   2.895   2.677  1.7977  0.5247  2.6471
  816SOL     OW 2446   1.746   0.320   1.661 -0.7835  0.0777 -0.5192
  816SOL    HW1 2447   1.751   0.221   1.688 -2.3110  0.6381 -2.2592
  816SOL    HW2 2448   1.657   0.365   1.691 -2.9110  0.6852  0.5831
  817SOL     OW 2449   0.466   1.209   2.460 -0.1968  0.2671  0.4744
  817SOL    HW1 2450   0.440   1.306   2.486 -0.2881  0.4506 -0.2946
  817SOL    HW2 2451   0.440   1.189   2.362 -0.6519  2.6552 -2.5710
  818SOL     OW 2452   1.994   0.831   0.457 -0.0191  0.3218 -0.7901
  818SOL    HW1 2453   2.008   0.931   0.481 -1.4025 -1.5618 -0.3452
  818SOL    HW2 2454   1.938   0.775   0.527 -0.8641  2.1123  0.2815
  819SOL     OW 2455   2.764   2.920   3.031 -0.5680  0.0661  0.1777
  819SOL    HW1 2456   2.816   2.834   3.021  0.6223 -0.2317  1.7261
  819SOL    HW2 2457   2.678   2.925   2.971  0.2009  0.3812 -0.6646
  820SOL     OW 2458   1.250   1.146   0.504  0.2043  0.7982  0.4508
  820SOL    HW1 2459   1.256   1.242   0.554 -0.9075  0.2726 -1.0082
  820SOL    HW2 2460   1.241   1.067   0.573 -0.1108 -2.3085  0.2626
  821SOL     OW 2461   3.073   1.292   0.656 -0.3525 -0.5075  0.2492
  821SOL    HW1 2462   3.010   1.298   0.743 -0.3376  0.1272 -1.5504
  821SOL    HW2 2463   3.161   1.351   0.662  0.2735  1.0162 -0.2758
  822SOL     OW 2464   2.518   1.768   2.439 -0.1299 -0.2220 -0.1663
  822SOL    HW1 2465   2.508   1.842   2.512  0.9189 -1.0287 -0.0577
  822SOL    HW2 2466   2.456   1.790   2.354  0.5067  0.5611 -0.4746
  823SOL     OW 2467   2.052   0.883   1.244  0.0476  0.0419  0.1803
  823SOL    HW1 2468   2.031   0.858   1.342 -1.6652 -0.4973 -0.5656
  823SOL    HW2 2469   1.974   0.936   1.198 -2.5314 -1.2398 -1.3866
  824SOL     OW 2470   0.123   2.022   2.750 -0.2091  0.3038  0.4847
  824SOL    HW1 2471   0.076   1.950   2.807 -0.3247  1.9711  0.9414
  824SOL    HW2 2472   0.197   1.977   2.690  0.0338  1.7568  0.6777
  825SOL     OW 2473   1.249   1.053   0.212  0.1939  0.8515 -0.1062
  825SOL    HW1 2474   1.266   1.093   0.306 -0.9124 -2.8914  0.6877
  825SOL    HW2 2475   1.215   1.130   0.151  1.3963 -1.8568 -0.9860
  826SOL     OW 2476   1.954   0.627   1.532 -0.0355 -0.1029  0.3111
  826SOL    HW1 2477   1.996   0.577   1.611 -0.0478  0.5664  2.0447
  826SOL    HW2 2478   1.875   0.582   1.483 -0.8190  0.0539 -0.5269
  827SOL     OW 2479   0.714   1.436   0.307  0.1435  0.4821  0.2991
  827SOL    HW1 2480   0.727   1.361   0.238  1.2405  1.6132 -1.6231
  827SOL    HW2 2481   0.685   1.394   0.401 -1.2037 -1.0747  0.3947
  828SOL     OW 2482   2.549   0.070   1.583 -0.4689 -0.1614  0.2509
  828SOL    HW1 2483   2.457   0.108   1.564  1.8678 -0.3795  1.8199
  828SOL    HW2 2484   2.563  -0.011   1.647  0.1250 -0.7177 -1.4192
  829SOL     OW 2485   2.814   2.477   2.991 -0.0445 -0.1731 -0.3189
  829SOL    HW1 2486   2.742   2.413   2.951 -2.6779  2.7520 -2.1605
  829SOL    HW2 2487   2.786   2.546   3.061 -1.1899 -1.7197  0.2773
  830SOL     OW 2488   2.776   0.945   3.030  0.0920 -0.1684 -0.1967
  830SOL    HW1 2489   2.851   1.012   3.051  1.4900  1.1049 -3.1610
  830SOL    HW2 2490   2.793   0.854   3.069  0.3954 -0.5191 -0.4623
  831SOL     OW 2491   3.090   0.603   0.370  0.2518  0.2135 -0.2603
  831SOL    HW1 2492   3.058   0.545   0.452 -0.9128 -0.2306  4.7835
  831SOL    HW2 2493   3.134   0.547   0.293 -0.8885  0.5555 -1.7709
  832SOL     OW 2494   1.820   0.730   0.030  0.2982 -0.1100  0.7429
  832SOL    HW1 2495   1.739   0.778  -0.015 -0.1497  0.2438  1.8302
  832SOL    HW2 2496   1.817   0.627   0.021  4.8574 -1.8422 -0.1088
  833SOL     OW 2497   2.424   2.143   0.509 -0.5530 -0.4142  0.2601
  833SOL    HW1 2498   2.327   2.132   0.489 -0.0780  0.8445 -0.7059
  833SOL    HW2 2499   2.469   2.054   0.534 -3.1374 -1.1040 -0.5218
  834SOL     OW 2500   0.129   0.222   0.614  0.3603 -0.2317 -0.8316
  834SOL    HW1 2501   0.189   0.158   0.662  2.8071  0.9342 -3.1796
  834SOL    HW2 2502   0.154   0.212   0.517 -0.0737 -0.1874  2.9029
  835SOL     OW 2503   2.337   1.536   1.152 -0.1962  0.0831 -1.0273
  835SOL    HW1 2504   2.419   1.578   1.195 -2.2527  1.0497  2.2367
  835SOL    HW2 2505   2.347   1.500   1.054  1.1839 -0.5844  0.3148
  836SOL     OW 2506   1.550   0.802   2.572  0.4113  0.0049  0.1591
  836SOL    HW1 2507   1.454   0.823   2.537  1.1173 -0.2147  0.5537
  836SOL    HW2 2508   1.618   0.808   2.496 -0.4411  0.3892  0.7574
  837SOL     OW 2509   1.684   0.109   0.518  0.6267  0.3648 -0.2507
  837SOL    HW1 2510   1.649   0.155   0.607  1.4956  2.3208 -1.6594
  837SOL    HW2 2511   1.627   0.123   0.434  2.2400 -2.0019 -0.4951
  838SOL     OW 2512   1.217   1.582   2.701 -0.0395  0.6055  0.5172
  838SOL    HW1 2513   1.305   1.540   2.740 -1.3523 -1.2828  1.2073
  838SOL    HW2 2514   1.138   1.516   2.680 -0.1189 -2.0684  0.6807
  839SOL     OW 2515   1.615   0.299   0.984 -0.5959 -0.2209  0.3955
  839SOL    HW1 2516   1.640   0.374   1.053  2.0390 -0.7433 -0.5862
  839SOL    HW2 2517   1.579   0.207   1.024  1.0971  1.2966  0.8068
  840SOL     OW 2518   2.556   2.958   1.735 -0.2147  0.1331  0.0897
  840SOL    HW1 2519   2.515   2.902   1.655  0.7089 -1.4392 -1.5741
  840SOL    HW2 2520   2.611   2.891   1.797 -0.1254  1.1256 -0.4729
  841SOL     OW 2521   1.600   0.859   3.062  0.3339 -0.6168 -0.1686
  841SOL    HW1 2522   1.515   0.837   3.107  1.7868  0.9820 -0.2994
  841SOL    HW2 2523   1.575   0.897   2.964 -1.5329  1.6655  1.6465
  842SOL     OW 2524   0.814   1.492   0.887  0.7505 -0.2128  0.4500
  842SOL    HW1 2525   0.765   1.572   0.938 -2.1177  1.2399  0.5379
  842SOL    HW2 2526   0.742   1.420   0.851 -1.4435  0.1040 -0.2178
  843SOL     OW 2527   0.126   0.007   1.397 -0.4757  0.3975 -0.6200
  843SOL    HW1 2528   0.159   0.084   1.459  0.0302 -1.4691 -1.6574
  843SOL    HW2 2529   0.089  -0.078   1.441  1.2992  2.5493  0.3114
  844SOL     OW 2530   0.797   2.450   0.263 -0.0124  0.4005  0.2908
  844SOL    HW1 2531   0.735   2.424   0.342  0.2667  1.8595  1.3946
  844SOL    HW2 2532   0.760   2.524   0.200 -1.1903  0.0586  0.5161
  845SOL     OW 2533   1.678   2.869   1.245 -0.2198  0.6106  0.1750
  845SOL    HW1 2534   1.734   2.779   1.245  3.2181 -1.6576  1.0698
  845SOL    HW2 2535   1.690   2.923   1.334  0.2405  0.3452 -1.2298
  846SOL     OW 2536   1.570   2.962   0.693 -0.0498 -0.0278 -0.2978
  846SOL    HW1 2537   1.554   2.960   0.589 -0.4465 -1.1730 -2.2001
  846SOL    HW2 2538   1.668   2.947   0.727  0.1519 -0.9473  1.5401
  847SOL     OW 2539   2.106   1.692   0.430 -0.5362  0.0393 -0.0258
  847SOL    HW1 2540   2.066   1.596   0.411  0.8252 -3.8090 -2.3829
  847SOL    HW2 2541   2.034   1.760   0.447  3.1352 -2.5357  3.0755
  848SOL     OW 2542   2.430   0.872   2.600  0.5666 -0.3049  0.1701
  848SOL    HW1 2543   2.396   0.955   2.655  2.1077 -0.3682  2.1339
  848SOL    HW2 2544   2.357   0.803   2.577 -1.0997  0.6421 -1.6440
  849SOL     OW 2545   2.565   0.870   2.355 -0.0192 -0.5964 -0.1515
  849SOL    HW1 2546   2.651   0.826   2.389 -0.7401  0.6311  1.0741
  849SOL    HW2 2547   2.495   0.880   2.434  2.4736 -0.9218 -1.5296
  850SOL     OW 2548   1.581   0.084   1.353  0.0603  0.0863  0.4225
  850SOL    HW1 2549   1.543   0.060   1.257 -0.2238  0.3185 -0.0016
  850SOL    HW2 2550   1.564   0.012   1.430 -0.9760  0.0393 -0.4769
  851SOL     OW 2551   0.459   1.799   0.586 -0.2751  0.6022 -0.6727
  851SOL    HW1 2552   0.465   1.897   0.617 -3.0255 -2.2854  3.9724
  851SOL    HW2 2553   0.504   1.791   0.491  0.4258  1.2082  0.6864
  852SOL     OW 2554   0.844   2.030   1.796 -0.1777 -0.0220  0.2818
  852SOL    HW1 2555   0.879   2.118   1.754 -0.1095  1.2532 -2.9499
  852SOL    HW2 2556   0.785   2.052   1.880  1.0544  0.3666  0.7534
  853SOL     OW 2557   2.530   1.559   2.607 -0.2096 -0.3904  0.5205
  853SOL    HW1 2558   2.460   1.478   2.607 -0.9059 -0.1964 -0.1323
  853SOL    HW2 2559   2.521   1.620   2.523 -2.8860  0.2496 -1.1293
  854SOL     OW 2560   2.449   1.377   1.774 -0.0071 -0.1613 -0.4923
  854SOL    HW1 2561   2.524   1.350   1.702 -1.1469  0.1838 -1.7912
  854SOL    HW2 2562   2.406   1.292   1.821  1.0879 -2.3886  1.4445
  855SOL     OW 2563   2.058   2.412   1.080  0.1116  0.0996  0.0045
  855SOL    HW1 2564   2.049   2.505   1.034  1.4929  0.2011 -1.0734
  855SOL    HW2 2565   2.136   2.412   1.150  1.0228  0.1836 -2.4041
  856SOL     OW 2566   1.315   1.421   0.939 -0.4240 -0.0935  0.3005
  856SOL    HW1 2567   1.401   1.473   0.956  0.4347  2.4080 -2.3690
  856SOL    HW2 2568   1.234   1.479   0.963 -2.3408 -0.7867 -0.6537
  857SOL     OW 2569   3.092   2.764   1.031 -0.1583  0.3662 -0.7045
  857SOL    HW1 2570   3.071   2.662   1.015  0.2520 -2.8437  1.1141
  857SOL    HW2 2571   3.190   2.785   1.004 -2.8886 -0.9590 -0.4000
  858SOL     OW 2572   2.371   2.081   1.720 -0.2105  0.1292  0.7940
  858SOL    HW1 2573   2.288   2.052   1.662  3.5200 -0.4546  0.8049
  858SOL    HW2 2574   2.452   2.023   1.703 -2.3713  0.7951 -0.3653
  859SOL     OW 2575   2.389   0.535   1.035  0.1427  0.3805  0.3569
  859SOL    HW1 2576   2.459   0.569   0.968 -2.2133  0.0322  0.4952
  859SOL    HW2 2577   2.427   0.469   1.102  2.7199  2.0720 -0.3629
  860SOL     OW 2578   1.827   2.833   0.540 -0.4824  0.1261 -0.0925
  860SOL    HW1 2579   1.826   2.788   0.447 -2.3429 -1.6527 -2.1647
  860SOL    HW2 2580   1.859   2.934   0.536 -0.8820  0.2909 -2.1785
  861SOL     OW 2581   0.961   2.491   2.880  0.5651  0.1024 -0.2904
  861SOL    HW1 2582   1.039   2.547   2.841 -0.8877 -1.8705 -1.9285
  861SOL    HW2 2583   0.927   2.535   2.969 -0.4158  0.4977 -1.2770
  862SOL     OW 2584   2.899   2.555   1.638  0.3976 -0.1895 -0.1850
  862SOL    HW1 2585   2.989   2.577   1.688 -1.8665 -0.6070  0.1459
  862SOL    HW2 2586   2.835   2.637   1.630  2.3508  2.5594  2.3160
  863SOL     OW 2587   1.805   2.736   0.274 -0.1421 -0.1073 -0.6641
  863SOL    HW1 2588   1.865   2.650   0.255 -0.3825 -0.9081 -1.7430
  863SOL    HW2 2589   1.708   2.723   0.232  1.2415 -1.2261 -0.5809
  864SOL     OW 2590   2.000   1.267   2.836  0.4510 -0.1545 -0.1033
  864SOL    HW1 2591   2.029   1.204   2.763  1.6504  0.3312  1.1661
  864SOL    HW2 2592   2.069   1.337   2.863  3.1959 -0.1174 -0.4749
  865SOL     OW 2593   2.176   1.938   0.739  0.2953 -0.2604  0.0043
  865SOL    HW1 2594   2.230   1.871   0.795  1.4790  0.3801 -0.9609
  865SOL    HW2 2595   2.108   1.989   0.796 -0.3272 -0.9339 -0.7002
  866SOL     OW 2596   2.914   2.992   1.025 -0.6135 -0.1072 -0.2062
  866SOL    HW1 2597   2.908   3.050   0.940  1.0921 -0.4910  0.6633
  866SOL    HW2 2598   2.970   2.907   1.003 -0.2530 -4.1705 -1.2184
  867SOL     OW 2599   0.339   1.429   0.913  0.6909  0.3710  0.0642
  867SOL    HW1 2600   0.275   1.375   0.849 -1.2459 -3.0345 -2.1411
  867SOL    HW2 2601   0.339   1.527   0.883 -0.9063  1.9605  1.0769
  868SOL     OW 2602   0.747   1.835   2.071 -0.2559 -0.0108 -0.1044
  868SOL    HW1 2603   0.712   1.792   2.161  0.9225  0.0412  1.5106
  868SOL    HW2 2604   0.714   1.938   2.063 -2.1754  3.1409 -0.4693
  869SOL     OW 2605   2.593   1.908   1.680 -0.7266  0.4616 -0.5241
  869SOL    HW1 2606   2.639   1.975   1.620 -0.1941 -0.7970  2.1340
  869SOL    HW2 2607   2.645   1.818   1.695  2.2694 -1.0716  1.2111
  870SOL     OW 2608   2.341   2.732   1.246 -0.5442  0.3513 -0.0871
  870SOL    HW1 2609   2.347   2.648   1.297 -0.0646  0.8936 -0.6338
  870SOL    HW2 2610   2.429   2.790   1.245  2.2423  1.8847  2.5826
  871SOL     OW 2611   3.059   2.237   0.542  0.0134  0.4153  0.5449
  871SOL    HW1 2612   3.035   2.286   0.631  0.7643 -0.8468  0.8501
  871SOL    HW2 2613   2.988   2.231   0.470 -0.7920  1.7052  2.3592
  872SOL     OW 2614   2.097   0.474   1.698 -0.1538 -0.4351 -0.1425
  872SOL    HW1 2615   2.059   0.450   1.795  0.9973 -0.8983  1.0469
  872SOL    HW2 2616   2.197   0.457   1.683  0.3279 -1.7730 -0.1497
  873SOL     OW 2617   1.694   2.103   0.011 -0.1095 -0.3818  0.0544
  873SOL    HW1 2618   1.593   2.131   0.014 -1.6375  0.6958  1.6452
  873SOL    HW2 2619   1.741   2.141  -0.075  0.7369 -1.3775 -0.0558
  874SOL     OW 2620   0.661   2.442   0.757 -0.1999 -0.1471  0.4189
  874SOL    HW1 2621   0.690   2.543   0.737 -0.0863  0.7421  1.3148
  874SOL    HW2 2622   0.734   2.370   0.766  1.5461 -1.6351 -1.5154
  875SOL     OW 2623   2.235   1.492   1.412  0.2971  0.0607  0.5278
  875SOL    HW1 2624   2.298   1.535   1.482  0.3000 -0.7431 -1.3001
  875SOL    HW2 2625   2.251   1.515   1.315  0.4146  0.4394  0.9204
  876SOL     OW 2626   0.052   2.260   2.628 -0.0696  0.3110  0.5242
  876SOL    HW1 2627   0.103   2.170   2.655  2.2506 -3.4314  0.6458
  876SOL    HW2 2628   0.099   2.339   2.676 -0.0898 -2.2182 -0.8415
  877SOL     OW 2629   2.938   2.685   0.624 -0.1443 -0.2556  0.3271
  877SOL    HW1 2630   2.900   2.782   0.625  0.0847 -0.5749  0.9794
  877SOL    HW2 2631   2.986   2.665   0.709 -2.9845  2.1827  0.1457
  878SOL     OW 2632   2.829   1.531   2.241 -0.0392 -0.6870 -0.6218
  878SOL    HW1 2633   2.778   1.604   2.191  1.4353  0.3024 -1.0155
  878SOL    HW2 2634   2.809   1.534   2.344  0.1998  1.1941 -0.2637
  879SOL     OW 2635   2.402   0.059   1.210  0.5377 -0.0955  0.3919
  879SOL    HW1 2636   2.452  -0.025   1.249 -0.4246 -2.6343 -1.9118
  879SOL    HW2 2637   2.312   0.031   1.160 -1.2623 -0.6302  2.0917
  880SOL     OW 2638   0.728   0.570   2.275  0.2414 -0.0056  0.3292
  880SOL    HW1 2639   0.720   0.517   2.365  0.4819  2.1586  0.6427
  880SOL    HW2 2640   0.793   0.521   2.209 -0.3781  0.4559 -0.0512
  881SOL     OW 2641   0.821   0.089   0.408  0.1988  0.5178  0.3094
  881SOL    HW1 2642   0.868  -0.001   0.395 -0.1693 -1.4229 -2.1355
  881SOL    HW2 2643   0.715   0.076   0.397 -0.8054 -1.7239  0.7175
  882SOL     OW 2644   2.723   1.663   1.682  0.0974  0.0471  0.3987
  882SOL    HW1 2645   2.812   1.620   1.655  0.3807 -1.3357  0.3026
  882SOL    HW2 2646   2.700   1.647   1.784  1.3859  1.1643 -1.2661
  883SOL     OW 2647   0.810   0.508   0.924  0.4319 -0.1812  0.1268
  883SOL    HW1 2648   0.871   0.584   0.966 -0.2649  1.0251 -2.0504
  883SOL    HW2 2649   0.733   0.480   0.987 -0.2951 -0.8102  0.8137
  884SOL     OW 2650   1.116   1.779   1.116 -0.4003 -0.6220 -0.5857
  884SOL    HW1 2651   1.111   1.687   1.076  2.4534  2.5159  1.3051
  884SOL    HW2 2652   1.029   1.839   1.099 -2.1175  1.5176 -0.8381
  885SOL     OW 2653   2.328   1.852   2.240  0.2570 -0.1409 -0.5861
  885SOL    HW1 2654   2.248   1.805   2.293 -1.3332 -3.0803 -1.5766
  885SOL    HW2 2655   2.329   1.956   2.245  1.1176  0.6489 -1.5868
  886SOL     OW 2656   2.611   0.390   1.790  0.5607 -0.4106  0.4461
  886SOL    HW1 2657   2.597   0.323   1.868  0.8073 -0.0514  2.5932
  886SOL    HW2 2658   2.708   0.425   1.778  0.5162 -2.5007 -0.1572
  887SOL     OW 2659   0.145   2.053   1.263  0.0937 -0.1458 -0.4162
  887SOL    HW1 2660   0.117   2.009   1.176 -1.9659 -0.0088  1.9313
  887SOL    HW2 2661   0.160   2.152   1.257 -0.2049 -0.7976 -0.4013
  888SOL     OW 2662   0.639   1.213   1.494  0.5349  0.0494  0.0229
  888SOL    HW1 2663   0.614   1.276   1.415  1.1904  0.8353  1.5613
  888SOL    HW2 2664   0.678   1.122   1.469 -1.5763 -3.3322 -2.1639
  889SOL     OW 2665   0.867   2.451   2.226 -0.1733 -0.3488 -0.0829
  889SOL    HW1 2666   0.777   2.402   2.230  0.4925  0.8738 -0.4003
  889SOL    HW2 2667   0.920   2.429   2.138  1.9921  0.4976 -1.4511
  890SOL     OW 2668   2.325   2.498   0.230  0.0829 -0.7112 -0.0729
  890SOL    HW1 2669   2.328   2.543   0.136  0.2561 -1.7947  0.5456
  890SOL    HW2 2670   2.240   2.518   0.290  2.8427  0.8295 -1.7741
  891SOL     OW 2671   2.535   1.682   0.713 -0.0748  0.6217  0.4406
  891SOL    HW1 2672   2.501   1.615   0.786 -1.7118 -2.6763 -3.2721
  891SOL    HW2 2673   2.473   1.678   0.629  0.0185 -1.0263 -1.6508
  892SOL     OW 2674   0.360   0.389   2.210  0.7336 -0.0116  0.0228
  892SOL    HW1 2675   0.333   0.479   2.175 -0.1842 -0.2144 -0.7137
  892SOL    HW2 2676   0.434   0.392   2.285  1.0046  1.0849  0.1440
  893SOL     OW 2677   1.697   0.249   2.723  0.1064 -0.0386 -0.2415
  893SOL    HW1 2678   1.763   0.319   2.769 -2.1217 -0.2912  0.4592
  893SOL    HW2 2679   1.603   0.299   2.708 -0.9193  0.0449  0.2115
  894SOL     OW 2680   2.166   2.097   0.099  0.2842 -0.4264 -0.1981
  894SOL    HW1 2681   2.162   2.052   0.006  2.5975  0.0621 -0.3196
  894SOL    HW2 2682   2.168   2.033   0.177  0.8790  0.4111 -0.9445
  895SOL     OW 2683   2.743   1.431   0.956  0.2780 -0.3512 -0.3667
  895SOL    HW1 2684   2.824   1.370   0.953 -0.4922 -1.6039 -0.3121
  895SOL    HW2 2685   2.764   1.534   0.978  0.7562 -1.2130  1.4598
  896SOL     OW 2686   1.806   1.865   1.221  0.6246  0.3688  0.0799
  896SOL    HW1 2687   1.868   1.787   1.241 -0.8534 -0.0996  0.0318
  896SOL    HW2 2688   1.737   1.851   1.145 -0.7254 -0.9925 -0.9239
  897SOL     OW 2689   0.248   0.531   3.009 -0.1556 -0.1149  0.1465
  897SOL    HW1 2690   0.195   0.603   2.953  1.0823 -0.2282 -0.0166
  897SOL    HW2 2691   0.331   0.564   3.059 -2.7654 -2.8028  2.9255
  898SOL     OW 2692   0.687   2.806   1.073 -0.0538 -0.3080 -0.0960
  898SOL    HW1 2693   0.730   2.899   1.060  1.4128 -0.1784  0.6889
  898SOL    HW2 2694   0.712   2.753   1.161 -1.4898 -1.6016  0.1471
  899SOL     OW 2695   2.851   0.936   1.416  0.0536 -0.4874  0.4501
  899SOL    HW1 2696   2.841   0.873   1.337  0.5681 -0.7083  0.0387
  899SOL    HW2 2697   2.945   0.962   1.438 -2.5932 -2.4008  0.3416
  900SOL     OW 2698   1.032   2.425   2.470  0.1063 -0.2000 -0.2637
  900SOL    HW1 2699   0.964   2.429   2.390 -0.4387  0.2186 -2.2363
  900SOL    HW2 2700   0.991   2.404   2.567 -1.3908 -0.4594  3.2736
  901SOL     OW 2701   1.913   2.456   1.400  0.4638 -0.2741  0.1376
  901SOL    HW1 2702   1.875   2.385   1.329 -1.1575  1.3051  1.6722
  901SOL    HW2 2703   2.009   2.432   1.429 -0.9733  3.0645 -0.4093
  902SOL     OW 2704   2.550   1.643   1.467  0.0951 -0.2919 -0.6322
  902SOL    HW1 2705   2.611   1.652   1.549  0.8628 -0.0036 -0.6539
  902SOL    HW2 2706   2.596   1.606   1.380 -0.5388  0.1907 -1.1722
  903SOL     OW 2707   0.337   2.465   2.007 -0.2178  0.2409  0.0357
  903SOL    HW1 2708   0.289   2.373   2.019  0.2817  0.8978 -1.0814
  903SOL    HW2 2709   0.285   2.525   1.939 -1.0707  1.1553 -0.5624
  904SOL     OW 2710   2.001   0.764   2.471  0.0078  0.3086 -0.0303
  904SOL    HW1 2711   1.945   0.690   2.526 -1.0095 -2.3290 -0.1271
  904SOL    HW2 2712   2.012   0.735   2.370 -0.8783  1.0768 -0.0679
  905SOL     OW 2713   2.807   0.093   2.410 -0.3237  0.0313 -0.3167
  905SOL    HW1 2714   2.873   0.009   2.413  0.9745 -0.2770  1.4508
  905SOL    HW2 2715   2.852   0.182   2.449 -0.7134  1.7613 -0.7062
  906SOL     OW 2716   0.166   1.704   1.894  0.5592 -0.6888 -0.0822
  906SOL    HW1 2717   0.122   1.744   1.803 -1.5564  2.0351  2.0725
  906SOL    HW2 2718   0.272   1.705   1.890  0.3725  1.7436  1.8962
  907SOL     OW 2719   0.252   2.526   0.962  0.0962 -0.5018 -0.2918
  907SOL    HW1 2720   0.351   2.499   0.967 -0.0913  0.6729  0.3809
  907SOL    HW2 2721   0.234   2.624   0.926 -1.2739 -1.7042 -3.2361
  908SOL     OW 2722   2.831   3.031   0.297  0.2139  0.3181 -0.5457
  908SOL    HW1 2723   2.731   3.001   0.270 -0.5636 -1.6495 -0.7996
  908SOL    HW2 2724   2.895   2.948   0.283 -0.0209 -0.9253 -1.4233
  909SOL     OW 2725   0.825   1.043   2.662 -0.0869 -0.1063  0.6586
  909SOL    HW1 2726   0.777   0.954   2.637 -0.8466  0.9444  0.7440
  909SOL    HW2 2727   0.918   1.047   2.625 -2.1391 -1.2492 -0.0348
  910SOL     OW 2728   1.780   1.883   2.147 -0.2335  0.3908  0.3972
  910SOL    HW1 2729   1.847   1.926   2.080 -0.5288 -1.8810  0.6603
  910SOL    HW2 2730   1.705   1.953   2.166 -0.4395 -2.0146  1.5359
  911SOL     OW 2731   1.772   2.979   1.482  0.0119  0.0819  0.2614
  911SOL    HW1 2732   1.863   2.955   1.435  2.0503  2.7633  2.5164
  911SOL    HW2 2733   1.769   2.930   1.573 -0.5751  0.6170 -1.0693
  912SOL     OW 2734   2.837   1.018   0.704 -0.4765 -0.0278  0.2641
  912SOL    HW1 2735   2.913   1.007   0.777  0.3365 -1.2799  1.3607
  912SOL    HW2 2736   2.761   1.083   0.735  0.2884 -1.6985  3.6720
  913SOL     OW 2737   2.583   1.286   1.571 -0.3605 -0.0611 -0.4109
  913SOL    HW1 2738   2.601   1.192   1.607 -2.0723  0.2835  2.5841
  913SOL    HW2 2739   2.618   1.306   1.475 -1.1809 -0.4464  0.0539
  914SOL     OW 2740   2.786   0.580   1.157 -0.0521 -0.4121  0.2180
  914SOL    HW1 2741   2.771   0.498   1.214 -1.9004  2.4563  2.1051
  914SOL    HW2 2742   2.701   0.630   1.141 -1.5764 -0.3766 -0.9229
  915SOL     OW 2743   1.184   0.786   0.937 -0.3290  0.4347  0.0960
  915SOL    HW1 2744   1.241   0.819   1.021  1.4678 -0.6072  2.4538
  915SOL    HW2 2745   1.082   0.783   0.957  1.7487  0.3328  0.6524
  916SOL     OW 2746   0.591   0.139   0.652 -0.4755 -0.1480  0.6577
  916SOL    HW1 2747   0.668   0.192   0.705 -0.0602  0.7908  0.7420
  916SOL    HW2 2748   0.546   0.199   0.577  0.6614  0.3294  4.6282
  917SOL     OW 2749   2.886   2.574   2.011 -0.4873 -0.2149 -0.1352
  917SOL    HW1 2750   2.813   2.612   1.949  0.3654  2.0685  1.2783
  917SOL    HW2 2751   2.959   2.640   2.021 -0.8631 -0.2147  1.7838
  918SOL     OW 2752   1.007   2.122   2.999 -0.0512 -0.4951 -0.4998
  918SOL    HW1 2753   0.999   2.196   3.072  0.6409  0.6114  2.1008
  918SOL    HW2 2754   1.065   2.146   2.920  1.6035 -0.5212  0.7683
  919SOL     OW 2755   0.881   1.705   2.760 -0.0221  0.0015 -0.0895
  919SOL    HW1 2756   0.899   1.800   2.724 -1.2595  0.5814 -0.3525
  919SOL    HW2 2757   0.831   1.638   2.699 -0.3473  0.6849 -1.3885
  920SOL     OW 2758   1.300   1.764   2.499  0.4484 -0.2998  0.2359
  920SOL    HW1 2759   1.393   1.745   2.455  2.1529  0.9503 -0.1721
  920SOL    HW2 2760   1.277   1.716   2.588 -2.4807 -0.1181 -2.0665
  921SOL     OW 2761   1.123   0.041   2.635  0.1375 -0.2871  0.4903
  921SOL    HW1 2762   1.116   0.009   2.535 -2.9022  1.1581  3.1665
  921SOL    HW2 2763   1.026   0.061   2.672 -1.0416  2.9073  2.6091
  922SOL     OW 2764   2.186   2.396   2.762  0.1803 -0.5466 -0.4966
  922SOL    HW1 2765   2.159   2.298   2.784 -2.2822 -0.2906  1.7524
  922SOL    HW2 2766   2.118   2.446   2.694  0.8885 -1.3549  0.9470
  923SOL     OW 2767   1.285   2.742   0.261 -0.2123  0.2856 -0.0224
  923SOL    HW1 2768   1.314   2.804   0.341  0.5628  0.4138  0.6839
  923SOL    HW2 2769   1.316   2.642   0.276  2.3527 -0.7534 -3.4134
  924SOL     OW 2770   2.904   1.681   0.127 -0.7457  0.0039 -0.1118
  924SOL    HW1 2771   2.822   1.621   0.103 -0.6785  0.5903  3.5198
  924SOL    HW2 2772   2.993   1.625   0.155  0.8635 -1.1308  0.9266
  925SOL     OW 2773   0.025   2.859   1.503  0.5663  0.2135  0.2828
  925SOL    HW1 2774  -0.048   2.847   1.576  2.6174 -3.9539  0.2194
  925SOL    HW2 2775  -0.014   2.822   1.410 -2.6629 -1.2606 -0.9323
  926SOL     OW 2776   1.292   2.802   1.320  0.3987  0.1248  0.3110
  926SOL    HW1 2777   1.352   2.796   1.237  1.5909  1.5757  0.5572
  926SOL    HW2 2778   1.340   2.864   1.387  0.9490 -0.9801 -1.4962
  927SOL     OW 2779   0.370   2.646   1.744 -0.3316 -0.5669 -0.3543
  927SOL    HW1 2780   0.337   2.565   1.684  0.5334 -1.3825 -1.7062
  927SOL    HW2 2781   0.337   2.741   1.713 -0.2820  0.6658  0.3198
  928SOL     OW 2782   1.585   2.066   2.222  0.2835 -0.2991 -0.3284
  928SOL    HW1 2783   1.595   2.136   2.147 -0.9642  1.9641  0.5974
  928SOL    HW2 2784   1.486   2.059   2.249  1.3532 -0.0601 -0.4679
  929SOL     OW 2785   2.431   2.489   2.849 -0.2523  0.6074 -0.3993
  929SOL    HW1 2786   2.347   2.443   2.810 -2.6712 -2.4377  2.3352
  929SOL    HW2 2787   2.493   2.519   2.767 -3.0371  0.6900 -1.5618
  930SOL     OW 2788   2.188   2.036   1.113 -0.0788 -0.2513  0.6326
  930SOL    HW1 2789   2.176   2.014   1.217  1.4320 -1.1795 -0.0397
  930SOL    HW2 2790   2.227   2.130   1.100  0.2810 -0.4680 -0.7964
  931SOL     OW 2791   0.499   1.721   2.625  0.1607  0.1376  0.4344
  931SOL    HW1 2792   0.525   1.738   2.721  0.4687 -1.6840 -2.9908
  931SOL    HW2 2793   0.575   1.672   2.579 -1.2941  1.8104  0.1014
  932SOL     OW 2794   0.339   0.040   0.006 -0.2262  0.6876 -0.8857
  932SOL    HW1 2795   0.419   0.108  -0.002  0.2954  1.7216  1.4971
  932SOL    HW2 2796   0.363  -0.053  -0.037  0.9436 -1.7712 -2.9403
  933SOL     OW 2797   0.986   0.843   3.034 -0.4063  0.2062 -0.1557
  933SOL    HW1 2798   1.070   0.840   3.096 -0.7423 -1.1586  1.2106
  933SOL    HW2 2799   0.934   0.928   3.047  2.0286 -0.9460 -1.4641
  934SOL     OW 2800   0.740   2.920   2.666 -0.3923 -0.1644  0.1601
  934SOL    HW1 2801   0.771   2.889   2.573 -1.9772  1.5101  0.3573
  934SOL    HW2 2802   0.799   2.880   2.749 -0.4092 -1.0630  3.1049
  935SOL     OW 2803   0.029   0.526   0.817 -0.4068  0.0176  0.3665
  935SOL    HW1 2804  -0.011   0.493   0.728 -1.1780 -2.0177 -1.6853
  935SOL    HW2 2805  -0.014   0.613   0.848  1.9396 -0.2664 -0.5154
  936SOL     OW 2806   1.107   2.837   0.068  0.0058 -0.5676  0.0465
  936SOL    HW1 2807   1.163   2.898   0.008 -2.2679 -2.2116  1.8505
  936SOL    HW2 2808   1.168   2.794   0.143 -1.6294  0.2040  2.4028
  937SOL     OW 2809   1.979   2.623   2.043 -0.7280  0.2788 -0.0083
  937SOL    HW1 2810   1.891   2.656   2.087 -1.3181  0.3424  0.0557
  937SOL    HW2 2811   2.016   2.694   1.977 -0.7281  0.1378  3.4863
  938SOL     OW 2812   2.789   2.088   1.563 -0.0325  0.0977  0.0889
  938SOL    HW1 2813   2.810   2.186   1.587 -0.0300  1.3796 -0.7608
  938SOL    HW2 2814   2.850   2.025   1.618  0.4871 -1.0406  0.8572
  939SOL     OW 2815   2.792   1.184   2.469 -0.3943  0.8216  0.4118
  939SOL    HW1 2816   2.876   1.154   2.414  0.5427  1.2604  0.1472
  939SOL    HW2 2817   2.782   1.131   2.558 -1.0797  0.9419 -0.3413
  940SOL     OW 2818   1.067   0.454   2.724 -0.5089 -0.1266 -0.0519
  940SOL    HW1 2819   1.145   0.383   2.723 -1.7453 -0.8266  2.7769
  940SOL    HW2 2820   1.010   0.454   2.640 -2.1173  1.6584 -0.2929
  941SOL     OW 2821   0.025   2.800   2.292 -0.8906  0.1375  0.0456
  941SOL    HW1 2822   0.077   2.716   2.277 -1.7390  1.9827 -0.9580
  941SOL    HW2 2823   0.096   2.875   2.310  0.3273 -0.6053  1.7839
  942SOL     OW 2824   0.066   0.081   2.523 -0.3903  0.5898  0.3697
  942SOL    HW1 2825   0.131   0.094   2.604 -0.0912  0.6818  0.6699
  942SOL    HW2 2826   0.056   0.165   2.462 -1.8093 -1.1348 -1.3870
  943SOL     OW 2827   2.155   1.702   2.368 -0.4245 -0.5992  0.6971
  943SOL    HW1 2828   2.133   1.655   2.278 -0.1478  0.7789 -0.5892
  943SOL    HW2 2829   2.161   1.647   2.454 -0.7755 -2.5922  2.3554
  944SOL     OW 2830   2.166   2.364   1.506  0.4496 -0.5699  0.1562
  944SOL    HW1 2831   2.238   2.399   1.571  0.0180  0.3658 -1.9341
  944SOL    HW2 2832   2.115   2.275   1.541 -0.4458  0.1745 -2.1971
  945SOL     OW 2833   0.731   1.598   0.070  0.0604 -0.2064  0.0240
  945SOL    HW1 2834   0.642   1.565   0.024 -1.6941  0.0830  1.0521
  945SOL    HW2 2835   0.741   1.553   0.161 -0.9037  2.2299 -0.6978
  946SOL     OW 2836   0.321   1.009   2.585  0.5042 -0.3384 -0.3283
  946SOL    HW1 2837   0.290   0.932   2.523  0.8895 -3.7343  1.7022
  946SOL    HW2 2838   0.369   1.084   2.531 -1.0037  0.0998 -1.1730
  947SOL     OW 2839   1.456   0.561   3.072 -0.3189  0.0294  0.4430
  947SOL    HW1 2840   1.463   0.589   2.976  1.0536 -1.3026  1.5459
  947SOL    HW2 2841   1.367   0.513   3.086 -0.8033  1.8759 -1.9051
  948SOL     OW 2842   1.902   2.979   2.162 -0.3733  0.8360 -0.7717
  948SOL    HW1 2843   1.903   2.945   2.065  0.6217 -1.1573 -1.5998
  948SOL    HW2 2844   1.897   2.899   2.236 -0.9216 -0.9525  1.7336
  949SOL     OW 2845   0.618   2.441   0.476 -0.0639 -0.4161 -0.0975
  949SOL    HW1 2846   0.617   2.543   0.481  1.5673  2.0163  0.2918
  949SOL    HW2 2847   0.620   2.402   0.571 -1.7874  2.9397  0.1594
  950SOL     OW 2848   0.224   2.196   2.950 -0.1555  0.3227 -0.1610
  950SOL    HW1 2849   0.181   2.281   2.900  0.9755 -0.7663  0.9047
  950SOL    HW2 2850   0.206   2.103   2.902 -1.2628 -0.4305  0.7432
  951SOL     OW 2851   1.178   2.659   2.791 -0.2194 -0.0806 -0.2969
  951SOL    HW1 2852   1.227   2.585   2.847  0.7720 -0.1665  3.3919
  951SOL    HW2 2853   1.228   2.685   2.705 -3.2264 -2.4005 -0.4671
  952SOL     OW 2854   0.131   1.613   0.402  0.4107 -0.2729  0.2240
  952SOL    HW1 2855   0.189   1.699   0.404  0.5435  1.8459  2.6742
  952SOL    HW2 2856   0.146   1.558   0.489  0.1064  1.3862 -1.7124
  953SOL     OW 2857   2.518   1.735   0.316 -0.0208  0.7406 -0.8399
  953SOL    HW1 2858   2.483   1.643   0.275 -1.8424 -0.8875  0.9907
  953SOL    HW2 2859   2.549   1.807   0.249  0.0476 -2.1900  0.1210
  954SOL     OW 2860   2.133   0.581   0.906 -0.4172  0.0262  0.2753
  954SOL    HW1 2861   2.151   0.577   0.799  2.7510  1.0281  0.4736
  954SOL    HW2 2862   2.226   0.562   0.952  0.5629  1.0435 -2.2649
  955SOL     OW 2863   0.135   2.555   1.363  0.7343  0.4282  0.0844
  955SOL    HW1 2864   0.034   2.576   1.340  0.1470  1.8317 -1.2903
  955SOL    HW2 2865   0.194   2.636   1.341 -3.1764  2.2343  0.6953
  956SOL     OW 2866   2.830   2.491   2.525 -0.0767 -0.1788  0.2928
  956SOL    HW1 2867   2.810   2.389   2.505  0.3543 -2.1716  2.3150
  956SOL    HW2 2868   2.858   2.541   2.437 -1.9387  0.8287  1.1120
  957SOL     OW 2869   1.610   2.043   2.749 -0.6532 -0.0042 -0.2769
  957SOL    HW1 2870   1.556   1.979   2.809 -1.4690  0.8152 -0.9201
  957SOL    HW2 2871   1.677   1.998   2.679  0.3867 -0.7277 -0.1046
  958SOL     OW 2872   2.635   2.293   2.905 -0.5015 -0.2451  0.1589
  958SOL    HW1 2873   2.556   2.353   2.878 -0.5007 -2.8252  1.5485
  958SOL    HW2 2874   2.624   2.244   2.996  2.7924 -1.0107  3.5124
  959SOL     OW 2875   0.365   2.753   0.100  0.1578 -0.1041 -0.1215
  959SOL    HW1 2876   0.294   2.822   0.137  1.1914 -0.0163 -2.2153
  959SOL    HW2 2877   0.356   2.659   0.144  0.2433 -2.3754  0.9032
  960SOL     OW 2878   1.959   0.419   1.945 -0.0142 -0.3130 -0.0324
  960SOL    HW1 2879   1.899   0.503   1.930  0.1430 -2.4390  1.1618
  960SOL    HW2 2880   1.973   0.397   2.044 -0.2493  1.1048  0.8397
  961SOL     OW 2881   2.534   1.854   0.997  0.3289 -0.2698 -0.1157
  961SOL    HW1 2882   2.531   1.948   0.952 -2.7894 -0.1844 -1.3281
  961SOL    HW2 2883   2.523   1.851   1.097 -0.7545 -0.0653 -1.5475
  962SOL     OW 2884   1.299   0.835   0.062  0.6185  0.2144 -0.1209
  962SOL    HW1 2885   1.291   0.847  -0.039 -0.1949 -0.4580 -1.7994
  962SOL    HW2 2886   1.289   0.921   0.116 -2.6271 -1.7841 -0.8765
  963SOL     OW 2887   2.310   2.562   1.832  0.0798 -0.0832  0.0593
  963SOL    HW1 2888   2.265   2.470   1.850  0.7545  0.5103  2.8062
  963SOL    HW2 2889   2.317   2.622   1.914  1.3891 -1.9358 -2.6241
  964SOL     OW 2890   2.343   0.331   1.636 -0.0815  0.6047  0.0587
  964SOL    HW1 2891   2.434   0.317   1.683 -3.9006  0.5119 -2.2743
  964SOL    HW2 2892   2.350   0.389   1.548  1.9908 -1.5619 -0.3176
  965SOL     OW 2893   2.604   2.945   0.157  0.1657 -0.0319 -0.6176
  965SOL    HW1 2894   2.668   2.949   0.071  0.3409  1.3446 -0.9870
  965SOL    HW2 2895   2.510   2.989   0.144  1.3919  2.1651  1.2989
  966SOL     OW 2896   2.489   2.501   2.206 -0.0386  0.0043 -0.1565
  966SOL    HW1 2897   2.546   2.551   2.136  1.2135  0.0108 -0.8604
  966SOL    HW2 2898   2.388   2.532   2.204  0.6552 -0.5171  2.1633
  967SOL     OW 2899   2.742   2.835   2.433 -0.4520  0.1533 -0.3836
  967SOL    HW1 2900   2.773   2.761   2.368 -1.6971 -0.4047  1.6312
  967SOL    HW2 2901   2.824   2.885   2.477  2.8094 -1.1434 -2.7435
  968SOL     OW 2902   1.951   1.039   2.636  0.3554 -0.0519  0.1645
  968SOL    HW1 2903   1.868   1.100   2.630 -1.1518 -0.3452  2.4694
  968SOL    HW2 2904   1.948   0.969   2.563  2.1458  0.5811  0.9112
  969SOL     OW 2905   2.794   2.521   1.057 -0.6079 -0.4581 -0.3826
  969SOL    HW1 2906   2.789   2.509   0.953  0.1925  0.4875 -0.4699
  969SOL    HW2 2907   2.829   2.436   1.105  0.5075 -0.1334 -2.2348
  970SOL     OW 2908   1.152   2.153   1.885 -0.2875 -0.5271 -0.7458
  970SOL    HW1 2909   1.093   2.068   1.883  0.4659 -0.7033  1.5712
  970SOL    HW2 2910   1.103   2.228   1.941  0.2700  1.1558  3.2233
  971SOL     OW 2911   2.843   2.069   1.931 -0.0385 -0.2369  0.4118
  971SOL    HW1 2912   2.878   2.160   1.971  0.1249 -0.6357 -3.3264
  971SOL    HW2 2913   2.903   2.036   1.851 -0.2234 -2.3019  2.9904
  972SOL     OW 2914   1.922   2.482   0.256 -0.0647 -0.1179  0.1133
  972SOL    HW1 2915   1.907   2.402   0.194  1.1753 -1.8182 -2.0053
  972SOL    HW2 2916   1.933   2.462   0.361  1.4405  1.6949  0.9111
  973SOL     OW 2917   1.176   0.884   1.876  0.7279  0.3792 -0.0481
  973SOL    HW1 2918   1.126   0.792   1.861  1.9666  1.4347  2.2965
  973SOL    HW2 2919   1.112   0.967   1.873 -1.5870 -0.2016 -0.7691
  974SOL     OW 2920   1.636   0.594   1.989  0.2811 -0.4949 -0.0541
  974SOL    HW1 2921   1.722   0.630   1.942  3.2995 -0.6569 -0.3282
  974SOL    HW2 2922   1.552   0.649   1.960  0.2817  1.0579 -0.0047
  975SOL     OW 2923   2.356   3.019   3.059  0.5593  0.5925 -0.4863
  975SOL    HW1 2924   2.287   2.958   3.105 -0.1904  3.3090 -1.2516
  975SOL    HW2 2925   2.412   2.969   2.987 -0.0815  1.3378 -0.0257
  976SOL     OW 2926   1.912   2.769   2.361  0.2301  0.5979  0.2122
  976SOL    HW1 2927   1.818   2.724   2.351 -0.4067 -1.0857 -1.3631
  976SOL    HW2 2928   1.943   2.781   2.458 -1.7962 -0.0773  0.4018
  977SOL     OW 2929   0.475   0.680   1.030  0.3289 -0.2371  0.1833
  977SOL    HW1 2930   0.388   0.666   0.972 -0.2270 -3.1213 -2.8097
  977SOL    HW2 2931   0.538   0.751   0.992  2.8939  1.3734 -1.4578
   3.10000   3.10000   3.10000
