1000 SPC/Fw water molecules t=   1.00000 step= 1000
 2931
    1SOL     OW    1   2.569   0.317   2.650  0.6150  0.7044 -0.1789
    1SOL    HW1    2   2.556   0.217   2.664 -1.0229  2.9680 -0.2997
    1SOL    HW2    3   2.587   0.364   2.741  2.4639  0.3568 -1.9638
    2SOL     OW    4   2.698   3.045   1.424  0.3235  0.1438 -0.1341
    2SOL    HW1    5   2.789   3.056   1.373 -3.5889  0.0396 -1.0479
    2SOL    HW2    6   2.674   3.131   1.477  0.3238 -0.2878  0.4892
    3SOL     OW    7   2.677   2.631   0.448 -0.5730  0.1742 -0.3679
    3SOL    HW1    8   2.678   2.529   0.440 -0.4279  0.9170  2.0057
    3SOL    HW2    9   2.756   2.663   0.503 -0.1908  2.1779 -1.3921
    4SOL     OW   10   1.231   1.540   2.313 -0.4481  0.0404 -0.0045
    4SOL    HW1   11   1.159   1.582   2.253  1.1061 -2.6031 -0.0912
    4SOL    HW2   12   1.201   1.455   2.366  1.7186  1.7402 -1.6230
    5SOL     OW   13   1.165   1.487   3.073 -0.2243  0.2821 -0.1300
    5SOL    HW1   14   1.232   1.570   3.083  1.5937  0.4981  2.6953
    5SOL    HW2   15   1.068   1.518   3.090  0.7143  1.2991  0.0769
    6SOL     OW   16   0.149   1.765   2.976  0.4188 -0.3244 -0.0694
    6SOL    HW1   17   0.081   1.810   3.035  4.3198 -2.7125  0.7063
    6SOL    HW2   18   0.234   1.741   3.031  0.9901 -0.4976  2.6684
    7SOL     OW   19   2.591   0.904   1.084 -0.0454 -0.1472  0.0479
    7SOL    HW1   20   2.498   0.860   1.091 -0.3519  2.0739  0.4455
    7SOL    HW2   21   2.620   0.909   0.988 -1.1010 -0.5404 -0.2151
    8SOL     OW   22   0.390   0.662   1.537  0.1841  0.2947 -0.5264
    8SOL    HW1   23   0.477   0.611   1.566  0.3225 -0.3293  2.5581
    8SOL    HW2   24   0.369   0.656   1.439  0.8609 -1.4602  0.1181
    9SOL     OW   25   1.188   0.894   2.414  0.0897 -0.6949  0.1758
    9SOL    HW1   26   1.212   0.929   2.322 -2.7623  0.7231  1.4625
    9SOL    HW2   27   1.154   0.799   2.411 -1.3337  1.8896  2.4788
   10SOL     OW   28   0.669   1.365   1.286  0.2956  0.1136  0.5330
   10SOL    HW1   29   0.562   1.380   1.278 -1.4736 -0.0718  0.2356
   10SOL    HW2   30   0.715   1.458   1.282  1.0079  1.5511  0.6878
   11SOL     OW   31   2.312   2.798   0.836 -0.5592  0.4155  0.0121
   11SOL    HW1   32   2.284   2.822   0.935  2.7425  0.3591  0.7417
   11SOL    HW2   33   2.417   2.775   0.832  1.0907  1.5433 -0.7391
   12SOL     OW   34   1.497   0.902   0.334 -0.0710  0.5406  0.3198
   12SOL    HW1   35   1.408   0.938   0.297  2.0998 -0.4640 -4.1379
   12SOL    HW2   36   1.519   0.810   0.295  1.3242  1.4116  2.7942
   13SOL     OW   37   2.502   0.725   1.761 -0.0103  0.1524  0.1427
   13SOL    HW1   38   2.424   0.706   1.830 -1.3298  0.0019  1.1394
   13SOL    HW2   39   2.501   0.666   1.677  0.1676  1.1291 -3.1933
   14SOL     OW   40   1.887   0.109   0.679 -0.2476 -0.0512 -0.0679
   14SOL    HW1   41   1.809   0.112   0.611  0.7372 -0.5645 -0.6253
   14SOL    HW2   42   1.869   0.031   0.750 -3.2230  0.0750 -0.9483
   15SOL     OW   43   1.968   2.099   2.720 -0.5018  0.3309  0.0303
   15SOL    HW1   44   1.902   2.181   2.713  0.0003 -0.8702 -1.1944
   15SOL    HW2   45   1.960   2.032   2.643 -0.7840 -0.2859  0.7211
   16SOL     OW   46   1.615   1.708   2.974 -0.0301 -0.1720 -0.1174
   16SOL    HW1   47   1.611   1.627   3.041 -1.6002  2.3802 -0.3177
   16SOL    HW2   48   1.694   1.777   2.997  2.7085 -2.0952 -1.3466
   17SOL     OW   49   0.114   0.485   0.172  0.0309 -0.4214 -0.5834
   17SOL    HW1   50   0.206   0.527   0.146  2.7881 -0.1161 -1.1151
   17SOL    HW2   51   0.034   0.516   0.108 -1.3040 -1.2526  0.7999
   18SOL     OW   52   0.957   2.893   2.150 -0.1636  0.4535  0.0046
   18SOL    HW1   53   0.872   2.831   2.164 -1.0846 -1.6239 -2.0637
   18SOL    HW2   54   0.998   2.884   2.058 -1.5591 -0.0344  3.3696
   19SOL     OW   55   0.555   0.835   1.894  0.2169  0.3534  0.1797
   19SOL    HW1   56   0.585   0.808   1.989 -0.6037 -1.8241 -2.5522
   19SOL    HW2   57   0.625   0.899   1.845 -0.8002 -0.2280 -4.3620
   20SOL     OW   58   0.178   2.718   0.827 -0.1300  1.0386  0.5104
   20SOL    HW1   59   0.102   2.777   0.788 -0.6278  0.2024 -1.8045
   20SOL    HW2   60   0.245   2.687   0.753  0.6457  0.2289 -0.4570
   21SOL     OW   61   2.713   0.260   2.048  0.9550  0.4057  0.0021
   21SOL    HW1   62   2.657   0.210   1.972 -0.1480  0.0643 -0.1409
   21SOL    HW2   63   2.782   0.196   2.093 -0.7962  1.9244 -1.9268
   22SOL     OW   64   2.358   0.274   0.160 -0.1255  0.3661 -0.3886
   22SOL    HW1   65   2.368   0.174   0.128  0.2234 -2.2846 -2.1313
   22SOL    HW2   66   2.273   0.321   0.121 -0.3428  0.0345  1.9417
   23SOL     OW   67   2.786   0.594   0.621 -0.0614 -0.4083 -0.2497
   23SOL    HW1   68   2.846   0.506   0.629 -1.2110 -2.1291 -0.0692
   23SOL    HW2   69   2.738   0.603   0.526  0.6615 -1.3221 -3.6859
   24SOL     OW   70   0.200   1.912   0.390 -0.4415 -0.0516  0.3060
   24SOL    HW1   71   0.153   1.978   0.320 -3.9574  2.5342 -2.8682
   24SOL    HW2   72   0.300   1.890   0.366  0.0644 -0.5142 -0.2920
   25SOL     OW   73   2.230   0.609   0.229  0.3046 -0.2824 -0.1680
   25SOL    HW1   74   2.264   0.628   0.133 -0.2169 -0.4271 -2.5620
   25SOL    HW2   75   2.291   0.546   0.292  1.4671  0.7042  1.1154
   26SOL     OW   76   2.498   2.134   2.074 -0.1479  0.3299 -0.2230
   26SOL    HW1   77   2.586   2.181   2.113 -0.4850  0.1315  1.2170
   26SOL    HW2   78   2.513   2.071   1.986  0.1303  1.4521 -0.8186
   27SOL     OW   79   0.586   2.913   0.201 -0.1913 -0.2723  0.1459
   27SOL    HW1   80   0.685   2.943   0.205  1.5882 -1.2980  0.6549
   27SOL    HW2   81   0.540   2.922   0.107 -0.8846 -3.9416  0.2949
   28SOL     OW   82   1.568   0.206   0.287 -0.3946 -0.1489 -0.0201
   28SOL    HW1   83   1.644   0.177   0.225 -0.9275  0.0562 -0.3704
   28SOL    HW2   84   1.577   0.306   0.321 -1.0680  2.1553 -1.3091
   29SOL     OW   85   1.976   0.633   0.372 -0.1220 -0.3779 -0.3614
   29SOL    HW1   86   1.961   0.695   0.454 -1.0292 -0.5176  0.6990
   29SOL    HW2   87   2.063   0.655   0.322  0.6985 -1.7747 -2.8258
   30SOL     OW   88   0.160   1.971   0.897  0.4162 -0.3078  0.6043
   30SOL    HW1   89   0.131   1.943   0.801 -1.9069  0.4027  2.6611
   30SOL    HW2   90   0.094   2.045   0.939 -2.0127 -1.2671  1.4679
   31SOL     OW   91   2.124   3.084   2.364  0.4579 -0.2595  0.0074
   31SOL    HW1   92   2.074   3.090   2.457 -0.0375  1.9248 -2.8346
   31SOL    HW2   93   2.065   3.048   2.289  1.3179  2.5109 -0.2324
   32SOL     OW   94   2.974   0.030   0.240  0.5163 -0.5670  0.2075
   32SOL    HW1   95   2.975  -0.061   0.194 -0.9190  0.0890  2.9211
   32SOL    HW2   96   3.065   0.084   0.223 -0.6343  2.6891 -0.2605
   33SOL     OW   97   0.922   0.314   0.578 -0.5036  0.5086  0.0165
   33SOL    HW1   98   0.897   0.230   0.524  1.0467  0.4864  2.1683
   33SOL    HW2   99   1.022   0.310   0.605 -2.7682  1.2663  2.0909
   34SOL     OW  100   0.333   2.760   1.093  0.3973  0.1195 -0.4046
   34SOL    HW1  101   0.278   2.728   1.012 -1.0908  1.8935  0.6997
   34SOL    HW2  102   0.407   2.829   1.069 -0.4530 -2.9072  3.9531
   35SOL     OW  103   0.034   0.080   1.901  0.2020  0.1854 -0.3122
   35SOL    HW1  104   0.037  -0.021   1.903 -0.4286  1.1507 -1.8945
   35SOL    HW2  105  -0.003   0.119   1.816  0.1115  0.9460  1.6602
   36SOL     OW  106   1.927   1.292   1.701  0.1724  1.6031 -0.3167
   36SOL    HW1  107   1.989   1.210   1.683  2.4924  0.2054  0.2909
   36SOL    HW2  108   1.963   1.368   1.640  2.1517 -2.2244 -1.2649
   37SOL     OW  109   1.175   0.224   0.987  0.2794  0.1460  0.0922
   37SOL    HW1  110   1.226   0.297   1.038  0.2831  1.2657 -0.0212
   37SOL    HW2  111   1.240   0.149   0.956  1.2610 -1.1700 -0.1326
   38SOL     OW  112   1.096   2.856   2.481  0.5403  0.5797 -0.4074
   38SOL    HW1  113   1.067   2.764   2.450  2.0956  0.9653 -1.4482
   38SOL    HW2  114   1.037   2.932   2.435 -1.2541  2.0276 -1.4400
   39SOL     OW  115   2.301   1.457   3.068  0.1397  0.5128 -0.0919
   39SOL    HW1  116   2.378   1.383   3.076 -0.9642 -0.9617  0.8119
   39SOL    HW2  117   2.259   1.477   3.163 -0.9943  0.2170 -1.0832
   40SOL     OW  118   2.014   2.434   2.545  0.0666 -0.0261  0.3757
   40SOL    HW1  119   1.998   2.534   2.526 -1.2305  0.5971  0.8117
   40SOL    HW2  120   1.944   2.375   2.495 -2.4321  0.8442 -0.5786
   41SOL     OW  121   3.040   0.696   2.820 -0.1524 -0.0371 -0.6521
   41SOL    HW1  122   3.003   0.775   2.771 -2.1112 -0.0542 -1.2303
   41SOL    HW2  123   2.994   0.604   2.800 -3.1359 -0.0739  0.2678
   42SOL     OW  124   1.787   1.769   0.514 -0.1892  0.5923  0.2122
   42SOL    HW1  125   1.741   1.681   0.510  0.1183  2.5591  0.2670
   42SOL    HW2  126   1.812   1.810   0.424  0.3959  2.6616  2.3166
   43SOL     OW  127   0.435   1.674   1.135 -0.3344  0.0141  0.1127
   43SOL    HW1  128   0.438   1.575   1.145 -1.6532  1.4644 -2.4765
   43SOL    HW2  129   0.342   1.708   1.092 -3.3889  1.2451  1.0396
   44SOL     OW  130   1.746   2.455   3.016  0.0983 -0.7167 -0.2406
   44SOL    HW1  131   1.693   2.547   3.022 -0.8407 -0.4300  0.2975
   44SOL    HW2  132   1.722   2.389   2.938  1.4305 -2.1285  0.0443
   45SOL     OW  133   0.377   1.901   2.623 -0.4854 -0.5611 -0.2913
   45SOL    HW1  134   0.352   1.899   2.522  3.3036  0.3185  0.5384
   45SOL    HW2  135   0.440   1.825   2.653  0.5117 -1.9276 -0.4548
   46SOL     OW  136   1.225   0.643   0.155 -0.2499 -0.7145 -0.7702
   46SOL    HW1  137   1.279   0.728   0.124 -1.6192 -1.1287  1.4778
   46SOL    HW2  138   1.164   0.664   0.237 -0.0512 -0.9664  1.9430
   47SOL     OW  139   0.197   2.517   1.551  0.1512  0.7226  0.2467
   47SOL    HW1  140   0.167   2.414   1.539 -3.3271  0.2856 -1.3145
   47SOL    HW2  141   0.216   2.557   1.458 -1.6749  0.2058 -0.6576
   48SOL     OW  142   2.632   0.625   0.139 -0.2851  0.0532  0.6024
   48SOL    HW1  143   2.639   0.609   0.242  2.5850 -3.1235 -2.0884
   48SOL    HW2  144   2.719   0.670   0.102  0.0034  2.7843 -0.8487
   49SOL     OW  145   0.304   0.776   1.773  0.7090 -0.7074 -0.1858
   49SOL    HW1  146   0.392   0.797   1.825  1.3983 -0.2490 -1.4804
   49SOL    HW2  147   0.328   0.735   1.679  0.2932 -1.6988  0.1514
   50SOL     OW  148   1.675   1.128   0.339 -0.0331 -0.1691 -0.4506
   50SOL    HW1  149   1.635   1.032   0.312 -1.3821 -2.5832  3.1181
   50SOL    HW2  150   1.656   1.143   0.443 -1.7361 -1.5679  1.3905
   51SOL     OW  151   2.886   1.778   0.243  0.3075  0.4489 -0.0703
   51SOL    HW1  152   2.860   1.674   0.237  3.3893 -0.1849  0.6431
   51SOL    HW2  153   2.959   1.796   0.314  1.1504 -1.9445  0.6858
   52SOL     OW  154   0.796   2.043   0.526  0.7054  0.3874  0.0075
   52SOL    HW1  155   0.699   2.066   0.572 -0.9249  0.3494 -0.1255
   52SOL    HW2  156   0.832   1.957   0.573 -1.9667  0.6768  0.1672
   53SOL     OW  157   0.189   0.419   1.598 -0.1380  0.0736  0.0741
   53SOL    HW1  158   0.259   0.496   1.594  2.4324 -2.7628  1.1154
   53SOL    HW2  159   0.099   0.434   1.548 -0.6445  0.9336  0.6970
   54SOL     OW  160   1.802   0.521   3.092  0.3093  0.0995  0.2897
   54SOL    HW1  161   1.851   0.485   3.180  5.8119 -1.7934  0.1139
   54SOL    HW2  162   1.704   0.488   3.092  0.1641  3.4920 -0.0121
   55SOL     OW  163   0.747   2.893   0.681 -0.0856  0.7270  0.4111
   55SOL    HW1  164   0.690   2.983   0.685 -0.6208  4.4317 -0.4974
   55SOL    HW2  165   0.851   2.906   0.686  2.7447 -1.2948 -5.0799
   56SOL     OW  166   0.578   1.563   0.023  0.1007  0.2841  0.2481
   56SOL    HW1  167   0.487   1.594   0.060 -0.8209 -0.4536  0.2133
   56SOL    HW2  168   0.569   1.467  -0.025  1.2113 -1.3697  0.5062
   57SOL     OW  169   1.751   2.532   2.409 -0.0544  0.2524 -0.4934
   57SOL    HW1  170   1.776   2.442   2.374 -0.0113  0.7304  1.4801
   57SOL    HW2  171   1.664   2.523   2.474 -0.4415 -2.2525 -0.9686
   58SOL     OW  172   0.688   0.284   1.065  0.0436 -0.4881  0.2537
   58SOL    HW1  173   0.613   0.301   1.134  3.4551  1.3285 -3.2585
   58SOL    HW2  174   0.680   0.197   1.015  0.8899  1.1665  1.8091
   59SOL     OW  175   0.429   2.365   2.729 -0.5665 -0.8969 -0.1089
   59SOL    HW1  176   0.458   2.279   2.688  0.0166 -1.1780  2.1558
   59SOL    HW2  177   0.499   2.391   2.804 -3.8387  2.0384 -0.9754
   60SOL     OW  178   2.305   2.066   2.245  0.0558  0.2401  0.3188
   60SOL    HW1  179   2.381   2.095   2.177  0.2909  1.4888  3.4912
   60SOL    HW2  180   2.318   2.109   2.342  0.9418 -0.4911 -2.6412
   61SOL     OW  181   1.327   0.663   0.461  0.0403 -0.0513 -0.7739
   61SOL    HW1  182   1.225   0.677   0.480 -1.3432  2.2560  1.4867
   61SOL    HW2  183   1.345   0.665   0.361 -1.3513 -2.2887 -1.1662
   62SOL     OW  184   2.708   1.823   2.938 -0.2480  0.0127  0.0685
   62SOL    HW1  185   2.670   1.732   2.897 -2.7540  2.8547 -2.5140
   62SOL    HW2  186   2.811   1.828   2.945  0.1042 -0.1583  1.8051
   63SOL     OW  187   0.534   0.811   0.195 -0.5239  0.0379 -0.0467
   63SOL    HW1  188   0.562   0.900   0.151  0.6211  1.1599  1.8670
   63SOL    HW2  189   0.525   0.809   0.297 -0.5854 -1.1416  1.6366
   64SOL     OW  190   0.074   0.443   2.468  0.0822 -0.5522 -0.0050
   64SOL    HW1  191   0.166   0.473   2.516 -1.4108  1.0893  2.5353
   64SOL    HW2  192   0.026   0.526   2.427  0.5798 -0.4753  2.6351
   65SOL     OW  193   0.130   1.520   0.579  0.1683 -0.1875  0.6093
   65SOL    HW1  194   0.165   1.565   0.668 -1.5467  1.0859 -0.8772
   65SOL    HW2  195   0.202   1.483   0.517  0.0870  2.9079  3.1726
   66SOL     OW  196   2.552   0.362   0.591 -0.0412  0.1203 -0.4271
   66SOL    HW1  197   2.644   0.360   0.636 -0.3108  1.4366  1.3543
   66SOL    HW2  198   2.487   0.334   0.665  0.6398 -0.2081 -0.7106
   67SOL     OW  199   0.563   2.523   1.424 -0.1789  0.0039  0.2745
   67SOL    HW1  200   0.647   2.512   1.482 -0.1679  1.5769  0.6636
   67SOL    HW2  201   0.521   2.433   1.394 -0.5812  2.4761 -0.7012
   68SOL     OW  202   1.017   1.096   2.483  0.0810  0.2746  0.7337
   68SOL    HW1  203   1.103   1.036   2.463  0.6526 -0.0069 -1.5786
   68SOL    HW2  204   0.947   1.095   2.400 -0.5930  3.3532 -1.7479
   69SOL     OW  205   0.728   2.740   2.133  0.3411  0.3874  0.0971
   69SOL    HW1  206   0.748   2.641   2.104 -0.9934  4.4060 -0.5688
   69SOL    HW2  207   0.630   2.767   2.129  1.3681  0.9804  1.2304
   70SOL     OW  208   0.496   0.242   2.669 -0.6029 -0.4906 -0.1396
   70SOL    HW1  209   0.406   0.246   2.714  0.5622 -3.3305 -1.2835
   70SOL    HW2  210   0.526   0.141   2.669  0.7595  0.0623 -0.4942
   71SOL     OW  211   1.108   1.771   0.444  0.0442 -0.4390  0.2686
   71SOL    HW1  212   1.067   1.716   0.517  2.0139 -0.1775 -0.7008
   71SOL    HW2  213   1.036   1.785   0.364  0.7404 -0.8337  0.0892
   72SOL     OW  214   1.817   0.206   2.140 -0.2500  0.3729 -0.2579
   72SOL    HW1  215   1.895   0.281   2.144 -0.5863  0.4447 -1.8380
   72SOL    HW2  216   1.850   0.107   2.143  0.0085 -3.7081  0.6218
   73SOL     OW  217   2.812   2.170   2.404  0.1164  0.6493  0.2306
   73SOL    HW1  218   2.803   2.073   2.369 -2.5267  0.3636 -1.9177
   73SOL    HW2  219   2.836   2.179   2.505 -0.6870 -0.8417 -3.2975
   74SOL     OW  220   2.697   2.872   2.138 -0.4583 -0.5530  0.1312
   74SOL    HW1  221   2.676   2.797   2.208  0.1463  0.6613 -1.8883
   74SOL    HW2  222   2.792   2.916   2.153  3.3196 -1.8150  1.9416
   75SOL     OW  223   0.951   0.846   1.098  0.8493  0.1755 -0.1966
   75SOL    HW1  224   0.872   0.897   1.056 -1.0382  0.1843  1.3256
   75SOL    HW2  225   0.961   0.854   1.202  0.3778  2.9837 -0.5727
   76SOL     OW  226   1.730   1.193   2.507  0.0104  0.0201 -0.0121
   76SOL    HW1  227   1.630   1.183   2.492  0.9410 -0.0273  0.7928
   76SOL    HW2  228   1.759   1.280   2.554 -1.7403  3.2662 -0.8297
   77SOL     OW  229   2.945   0.941   0.971 -0.3054 -0.1493  0.5594
   77SOL    HW1  230   2.962   0.839   0.972  0.1724  0.0505 -0.5471
   77SOL    HW2  231   2.964   0.990   1.058 -0.1047 -0.5023 -1.6127
   78SOL     OW  232   2.010   1.471   1.458 -0.3209 -0.2148 -0.4162
   78SOL    HW1  233   2.107   1.497   1.450 -2.5167  0.5022  0.4466
   78SOL    HW2  234   1.958   1.481   1.370  1.0763 -0.2494 -0.4663
   79SOL     OW  235   0.621   1.374   0.824 -0.2201 -0.0526 -0.6966
   79SOL    HW1  236   0.524   1.414   0.823 -4.4802 -1.0265 -0.1556
   79SOL    HW2  237   0.646   1.334   0.728  0.0923  3.5591 -2.1810
   80SOL     OW  238   0.619   0.491   1.566  0.1661  0.0774 -0.1044
   80SOL    HW1  239   0.666   0.561   1.503  0.1944  0.4222 -1.1358
   80SOL    HW2  240   0.655   0.398   1.546  1.3513  1.8125  1.2337
   81SOL     OW  241   1.028   1.349   2.633  0.0059 -0.2658 -0.0388
   81SOL    HW1  242   1.040   1.247   2.644 -0.0113 -0.3786 -2.3749
   81SOL    HW2  243   0.953   1.358   2.561 -0.6300 -0.9818 -0.5100
   82SOL     OW  244   0.975   2.996   1.516 -0.1634  0.3309  0.7413
   82SOL    HW1  245   0.894   3.027   1.457 -0.3090 -1.4330  1.7183
   82SOL    HW2  246   1.053   2.964   1.459 -1.1925  0.6670 -0.7531
   83SOL     OW  247   2.670   2.407   0.829 -1.0006 -0.4108 -0.2412
   83SOL    HW1  248   2.602   2.349   0.774  0.5924 -0.0341  0.9036
   83SOL    HW2  249   2.664   2.507   0.821  0.5435  1.1197 -0.6341
   84SOL     OW  250   0.642   3.048   2.337 -0.3132  0.3359 -0.3913
   84SOL    HW1  251   0.537   3.057   2.354 -0.4839  0.8173 -2.1751
   84SOL    HW2  252   0.695   2.967   2.377  0.8950  0.1520 -0.2216
   85SOL     OW  253   0.280   1.603   1.469 -0.0445 -0.0816 -0.7309
   85SOL    HW1  254   0.297   1.709   1.464  1.1253  0.3160  2.8147
   85SOL    HW2  255   0.334   1.557   1.546  0.1803  0.9102 -0.7771
   86SOL     OW  256   0.417   0.996   1.546  0.2112  0.1419 -0.1421
   86SOL    HW1  257   0.382   0.966   1.455  1.4556 -2.3995  0.0881
   86SOL    HW2  258   0.493   0.939   1.582  0.9840  2.2522 -1.1312
   87SOL     OW  259   1.566   0.655   0.202  0.2155  0.4104 -0.1081
   87SOL    HW1  260   1.638   0.727   0.192  0.3036  0.0236  0.7268
   87SOL    HW2  261   1.558   0.591   0.121  1.9994 -1.9140 -1.8437
   88SOL     OW  262   1.581   1.377   0.268 -0.2511 -0.1438  0.3089
   88SOL    HW1  263   1.612   1.282   0.297  2.1127 -0.5769  1.0414
   88SOL    HW2  264   1.479   1.384   0.263 -0.0021 -1.1765  1.8531
   89SOL     OW  265   3.081   0.462   0.589 -0.2470 -0.0914  0.5001
   89SOL    HW1  266   3.146   0.386   0.562 -0.8394  2.7139 -2.7890
   89SOL    HW2  267   2.986   0.431   0.601  3.1336  2.2306  0.5058
   90SOL     OW  268   0.908   1.570   0.092 -0.0171  0.2116  0.0148
   90SOL    HW1  269   0.869   1.518   0.174  0.8100  0.1038  1.2190
   90SOL    HW2  270   0.835   1.585   0.021  0.6707 -0.0103  1.0798
   91SOL     OW  271   1.242   1.452   1.838 -0.3900  0.3770 -0.4631
   91SOL    HW1  272   1.225   1.541   1.894 -2.1548 -1.8478  0.2842
   91SOL    HW2  273   1.335   1.452   1.789 -0.8925  0.4093 -2.4549
   92SOL     OW  274   3.072   0.948   1.232 -0.2259 -0.4005  0.2929
   92SOL    HW1  275   3.144   1.009   1.187 -1.5454  0.0305 -0.1145
   92SOL    HW2  276   3.078   0.956   1.335 -0.6328 -0.4310 -0.1087
   93SOL     OW  277   0.020   2.740   3.079 -0.1786  0.4440  0.5047
   93SOL    HW1  278  -0.056   2.730   3.008  0.4013 -1.3408  0.7347
   93SOL    HW2  279   0.049   2.645   3.116 -1.2645  0.1934  2.0518
   94SOL     OW  280   1.498   1.456   1.753  0.5127 -0.4065  0.5953
   94SOL    HW1  281   1.565   1.377   1.741  2.6848  0.8685  1.7232
   94SOL    HW2  282   1.544   1.519   1.825  0.2080 -1.3224  0.6866
   95SOL     OW  283   1.427   2.510   2.996  0.2340  0.1613  0.6459
   95SOL    HW1  284   1.333   2.533   3.036 -3.8644 -0.2983  0.1866
   95SOL    HW2  285   1.439   2.405   2.988  0.6647  0.3472 -1.8066
   96SOL     OW  286   0.551   2.109   1.247  0.1538 -0.4827  0.3539
   96SOL    HW1  287   0.511   2.079   1.156  0.2460 -0.4865  1.6956
   96SOL    HW2  288   0.598   2.029   1.298  0.8232  0.2283  0.4158
   97SOL     OW  289   0.437   1.653   2.436 -0.8659 -0.0504 -0.2843
   97SOL    HW1  290   0.333   1.654   2.446  0.2653 -0.7336 -1.3991
   97SOL    HW2  291   0.493   1.664   2.519 -2.1021 -0.1758 -1.6563
   98SOL     OW  292   2.035   1.645   1.191 -0.3460  0.4009 -0.4466
   98SOL    HW1  293   1.956   1.583   1.200 -0.4871  1.5769 -0.7758
   98SOL    HW2  294   2.118   1.598   1.153  0.9011  0.2423 -0.4961
   99SOL     OW  295   2.507   2.026   1.306  0.2053 -0.2117 -0.0504
   99SOL    HW1  296   2.497   2.038   1.408  1.7507  2.5929  0.3265
   99SOL    HW2  297   2.476   1.932   1.275 -0.3947 -1.0581  0.9447
  100SOL     OW  298   2.369   0.332   2.104 -0.2966  0.4971 -1.0498
  100SOL    HW1  299   2.297   0.291   2.166 -1.0079  0.4063  0.5300
  100SOL    HW2  300   2.439   0.403   2.143  0.0402  1.4726  2.2006
  101SOL     OW  301   0.415   1.457   0.450  0.3708  0.2927  0.2507
  101SOL    HW1  302   0.389   1.556   0.462  0.3539  0.3450 -0.0202
  101SOL    HW2  303   0.516   1.445   0.441  2.0100  0.3710  1.7183
  102SOL     OW  304   2.232   1.032   0.835 -0.6993 -0.4820 -0.4659
  102SOL    HW1  305   2.172   0.954   0.813  1.5728  2.6023 -0.1357
  102SOL    HW2  306   2.228   1.109   0.761  3.8912  1.9605 -0.3903
  103SOL     OW  307   2.239   0.082   0.401 -0.4007 -0.2323  0.0413
  103SOL    HW1  308   2.269   0.179   0.376 -0.8510  0.6120 -5.3833
  103SOL    HW2  309   2.309   0.030   0.456 -1.8232  0.6530 -1.4830
  104SOL     OW  310   0.099   1.777   2.186  0.2621  0.0125 -0.1592
  104SOL    HW1  311   0.100   1.759   2.084 -0.3736  2.5215  0.2505
  104SOL    HW2  312   0.006   1.807   2.213 -1.6688  1.4427 -1.6827
  105SOL     OW  313   1.273   2.078   0.775 -0.0575 -0.0852 -0.0721
  105SOL    HW1  314   1.194   2.083   0.708  2.6286  1.1440 -3.0691
  105SOL    HW2  315   1.321   1.987   0.768 -1.1680  0.3901 -0.1012
  106SOL     OW  316   2.107   0.422   1.399  0.4186  0.0053 -0.0762
  106SOL    HW1  317   2.060   0.333   1.429  1.9041 -0.7912 -0.1069
  106SOL    HW2  318   2.094   0.503   1.461  0.8520 -0.2035 -0.2077
  107SOL     OW  319   1.838   2.950   1.222  0.7180  0.0019  0.2134
  107SOL    HW1  320   1.826   3.036   1.278 -1.8673  0.7965  2.3658
  107SOL    HW2  321   1.757   2.883   1.227  0.3857 -1.5883 -0.4278
  108SOL     OW  322   0.766   2.774   1.267  0.0077  0.3442  0.1142
  108SOL    HW1  323   0.739   2.721   1.354 -0.9536 -0.3784 -1.6875
  108SOL    HW2  324   0.870   2.780   1.259 -0.8400 -0.0170 -1.1032
  109SOL     OW  325   2.132   0.093   0.821  0.1769 -0.0205  0.3529
  109SOL    HW1  326   2.039   0.123   0.783 -0.7364 -1.1266 -1.2947
  109SOL    HW2  327   2.120   0.046   0.916 -2.8676 -0.8197  0.6176
  110SOL     OW  328   0.474   2.848   2.779 -0.3767 -0.1590 -0.3513
  110SOL    HW1  329   0.456   2.813   2.677  1.9186 -0.8889 -2.6074
  110SOL    HW2  330   0.539   2.782   2.831 -1.5980  2.9224  0.8264
  111SOL     OW  331   1.280   0.505   2.334 -0.3579 -0.0196  0.1101
  111SOL    HW1  332   1.206   0.561   2.376  0.8701 -0.6995 -1.5677
  111SOL    HW2  333   1.329   0.441   2.401 -0.2034 -0.7329  2.3263
  112SOL     OW  334   1.692   0.505   1.449  0.3463 -0.0860  0.0183
  112SOL    HW1  335   1.716   0.496   1.345 -1.6435 -0.6102 -2.4999
  112SOL    HW2  336   1.651   0.417   1.487  0.9294 -3.5390 -4.1450
  113SOL     OW  337   2.307   1.684   1.768  0.3044 -0.4274  0.2823
  113SOL    HW1  338   2.391   1.647   1.719 -0.9548 -0.0334 -1.3156
  113SOL    HW2  339   2.316   1.701   1.869  1.7403  2.2309 -1.9717
  114SOL     OW  340   0.374   0.545   1.284 -0.8856 -0.2761  0.0984
  114SOL    HW1  341   0.447   0.601   1.232 -2.7427 -0.0557 -1.9746
  114SOL    HW2  342   0.278   0.569   1.249  2.7999  1.9755 -0.4140
  115SOL     OW  343   2.709   1.629   1.211 -0.4034  0.4678  0.2356
  115SOL    HW1  344   2.743   1.527   1.207 -2.9332 -2.2340  0.3891
  115SOL    HW2  345   2.724   1.673   1.125  1.1771 -0.0017  0.8744
  116SOL     OW  346   1.796   1.053   0.627 -0.2239 -0.4540 -0.4891
  116SOL    HW1  347   1.710   0.997   0.631  2.0839  0.1163 -1.5786
  116SOL    HW2  348   1.805   1.140   0.679 -0.0031 -0.7455 -2.1921
  117SOL     OW  349   1.207   0.322   0.576 -0.1717  0.0834 -0.2273
  117SOL    HW1  350   1.228   0.390   0.651 -0.7734  1.1908  2.5187
  117SOL    HW2  351   1.220   0.365   0.476 -0.2737 -1.2959 -1.1284
  118SOL     OW  352   1.156   1.073   1.135 -0.3731  0.5249  0.2960
  118SOL    HW1  353   1.101   1.006   1.196 -0.0326  0.4559  0.6370
  118SOL    HW2  354   1.168   1.164   1.171 -1.2695 -0.3844 -1.1060
  119SOL     OW  355   1.825   1.610   2.171 -0.0846 -0.8583 -0.1645
  119SOL    HW1  356   1.776   1.702   2.157 -1.0112 -0.7883  0.7025
  119SOL    HW2  357   1.927   1.614   2.154  1.0601  0.8400  2.1896
  120SOL     OW  358   2.947   2.856   0.145 -0.3746  0.0504  0.9762
  120SOL    HW1  359   3.016   2.822   0.071 -0.5047 -1.1174  1.3083
  120SOL    HW2  360   2.869   2.792   0.163  1.2468  0.7693 -2.3543
  121SOL     OW  361   1.984   0.751   2.216 -0.7007  0.0590 -0.2262
  121SOL    HW1  362   1.985   0.792   2.122 -2.1729  0.7707  0.5500
  121SOL    HW2  363   1.991   0.644   2.215  0.5267  0.2879 -0.8027
  122SOL     OW  364   2.580   2.603   1.307  0.8324 -0.4618  0.4316
  122SOL    HW1  365   2.635   2.556   1.236  0.6497  0.6751  2.9240
  122SOL    HW2  366   2.488   2.638   1.270  0.2128  3.2384  1.5827
  123SOL     OW  367   1.735   0.066   1.691 -0.2915 -0.5800 -0.0500
  123SOL    HW1  368   1.747  -0.026   1.653 -2.2352  0.8333  0.7204
  123SOL    HW2  369   1.814   0.096   1.755 -0.4354 -0.6519  4.3913
  124SOL     OW  370   0.069   0.445   1.109 -0.1486 -0.8620 -0.2792
  124SOL    HW1  371   0.046   0.513   1.190 -1.4636  0.8981  1.4905
  124SOL    HW2  372   0.056   0.487   1.016  0.7455  2.7845  1.5777
  125SOL     OW  373   0.862   1.839   0.690 -0.1949 -0.0042 -0.0389
  125SOL    HW1  374   0.954   1.815   0.740  1.0624  0.6759  1.1534
  125SOL    HW2  375   0.785   1.858   0.758  0.4853 -2.1776 -0.4648
  126SOL     OW  376   1.832   2.265   2.368 -0.6395 -0.2317  0.2764
  126SOL    HW1  377   1.918   2.248   2.307 -0.4241  1.0167  2.9836
  126SOL    HW2  378   1.772   2.186   2.387  1.8284  0.0454  0.4691
  127SOL     OW  379   1.006   0.898   0.235 -0.7467  0.2171 -0.1853
  127SOL    HW1  380   1.020   0.949   0.326 -0.6028  0.0379 -1.1233
  127SOL    HW2  381   0.959   0.808   0.246  0.7926 -0.1746 -2.2630
  128SOL     OW  382   0.955   0.194   1.387 -0.5324 -0.2677 -0.0570
  128SOL    HW1  383   0.931   0.268   1.320 -2.7893  0.0786 -0.8367
  128SOL    HW2  384   0.919   0.102   1.358 -1.2698  5.2885 -1.2088
  129SOL     OW  385   1.839   0.646   1.841  0.0848  0.1511 -1.1071
  129SOL    HW1  386   1.846   0.654   1.739 -0.1943 -0.9335  1.4796
  129SOL    HW2  387   1.873   0.734   1.893 -1.7734  1.8725 -0.9067
  130SOL     OW  388   1.380   2.164   1.013 -0.2650 -0.4154  0.4134
  130SOL    HW1  389   1.330   2.166   0.918  2.1310  0.0675  0.1969
  130SOL    HW2  390   1.454   2.237   1.011 -2.2292  1.5110  1.6683
  131SOL     OW  391   3.020   1.425   1.374  0.5644  0.3766 -0.7311
  131SOL    HW1  392   2.962   1.349   1.420 -0.6416  0.6865  0.1905
  131SOL    HW2  393   3.120   1.390   1.370 -0.4249 -2.5862  1.7851
  132SOL     OW  394   2.052   2.432   0.497  0.0483  0.0157 -0.3396
  132SOL    HW1  395   1.971   2.475   0.540 -2.6556 -1.6613 -2.6281
  132SOL    HW2  396   2.074   2.336   0.547 -1.4714 -1.4487 -0.7328
  133SOL     OW  397   1.820   2.330   2.757 -0.6308  0.0861 -0.4233
  133SOL    HW1  398   1.791   2.382   2.671  1.6333  2.6246 -0.5744
  133SOL    HW2  399   1.906   2.376   2.799 -0.6004  0.4469 -1.6558
  134SOL     OW  400   2.659   2.318   1.581  0.0935 -0.4913 -0.1706
  134SOL    HW1  401   2.561   2.333   1.611  1.0977  0.3354  1.2377
  134SOL    HW2  402   2.719   2.398   1.606  0.0789 -0.7094  1.9517
  135SOL     OW  403   0.696   1.482   2.644  0.2500  0.5727  0.8602
  135SOL    HW1  404   0.625   1.414   2.669  0.4004  1.1328  1.1140
  135SOL    HW2  405   0.744   1.456   2.552  3.2881 -4.0273 -0.7370
  136SOL     OW  406   1.199   2.044   0.428  0.5867  0.3908 -0.1625
  136SOL    HW1  407   1.120   2.105   0.457  1.2351 -1.0252 -0.9981
  136SOL    HW2  408   1.175   1.941   0.440 -0.4230  2.2613 -0.7750
  137SOL     OW  409   0.412   1.203   2.184  0.5511  0.2986  0.6098
  137SOL    HW1  410   0.318   1.182   2.226  1.5743 -0.8476  0.0414
  137SOL    HW2  411   0.479   1.130   2.189 -1.1058  2.2975  0.0613
  138SOL     OW  412   2.516   1.468   0.255 -0.2561 -0.4533  0.8167
  138SOL    HW1  413   2.425   1.437   0.223  1.5562 -2.0285  0.7003
  138SOL    HW2  414   2.575   1.397   0.302  0.5015 -2.0626 -1.9645
  139SOL     OW  415   1.875   2.614   1.333 -0.0610  0.0778  0.4245
  139SOL    HW1  416   1.773   2.631   1.351  1.5498  1.7269  0.6985
  139SOL    HW2  417   1.909   2.520   1.363  2.2358 -0.6920 -3.6634
  140SOL     OW  418   3.018   2.974   2.526 -0.2151 -0.8305 -0.4800
  140SOL    HW1  419   3.068   2.885   2.546  0.6138  0.4139  0.9331
  140SOL    HW2  420   3.081   3.056   2.524 -1.4949 -2.2576  0.5938
  141SOL     OW  421   1.338   1.677   1.595 -0.1164  0.4029 -0.4385
  141SOL    HW1  422   1.238   1.681   1.627  0.9705  1.8519  2.9032
  141SOL    HW2  423   1.391   1.609   1.652 -0.7955 -1.1512 -2.3555
  142SOL     OW  424   1.569   0.617   2.253 -0.0661 -0.2907 -0.1717
  142SOL    HW1  425   1.566   0.617   2.150 -1.4770  0.0101  1.3188
  142SOL    HW2  426   1.467   0.615   2.285  2.2862  1.2000  0.0796
  143SOL     OW  427   2.706   0.895   0.485  1.2410  0.6163 -0.4178
  143SOL    HW1  428   2.764   0.937   0.416  0.7618  1.4507  0.5680
  143SOL    HW2  429   2.754   0.882   0.575  1.6511 -0.0858  1.0844
  144SOL     OW  430   2.928   1.186   1.482 -0.1020 -0.7968  0.7063
  144SOL    HW1  431   2.882   1.165   1.576 -0.7038  0.5922  1.4448
  144SOL    HW2  432   3.001   1.111   1.455  0.5482  0.0441 -0.9066
  145SOL     OW  433   0.995   1.818   0.196  0.5297 -0.3784 -1.0885
  145SOL    HW1  434   1.061   1.827   0.116 -0.3622 -2.9226 -2.4595
  145SOL    HW2  435   0.932   1.738   0.178 -0.2808 -0.3288 -2.4082
  146SOL     OW  436   2.488   0.646   1.489 -0.9464  0.1840 -0.0906
  146SOL    HW1  437   2.466   0.546   1.473  0.3291  2.9305  1.0167
  146SOL    HW2  438   2.414   0.705   1.445  2.3862 -1.4183 -0.4791
  147SOL     OW  439   1.107   2.479   0.598 -0.6981  0.3353  0.0199
  147SOL    HW1  440   1.101   2.562   0.537  1.8149 -1.9475 -0.7154
  147SOL    HW2  441   1.203   2.446   0.583 -1.2769 -0.9413 -0.4602
  148SOL     OW  442   1.637   1.464   0.006 -0.0832  0.1673  0.3728
  148SOL    HW1  443   1.616   1.396  -0.072 -0.1490 -0.9661  1.0900
  148SOL    HW2  444   1.603   1.424   0.096  0.7235 -2.4293 -1.7804
  149SOL     OW  445   0.676   1.419   1.986 -0.0912  0.3129 -0.8914
  149SOL    HW1  446   0.569   1.428   1.994 -1.2698 -0.8634  1.7122
  149SOL    HW2  447   0.715   1.392   1.892 -0.8316  1.4588 -1.9120
  150SOL     OW  448   3.025   1.246   0.939  0.8524  0.1441 -0.0397
  150SOL    HW1  449   3.087   1.232   1.019 -1.1769  2.0161  3.6040
  150SOL    HW2  450   2.989   1.160   0.901 -1.5549  0.4863  0.0529
  151SOL     OW  451   0.125   0.710   2.078 -0.7202  0.4941  0.0013
  151SOL    HW1  452   0.133   0.803   2.027  2.1091  3.3700  3.6997
  151SOL    HW2  453   0.180   0.635   2.031  1.5865  1.4672 -1.1901
  152SOL     OW  454   1.464   1.773   1.230 -0.2261 -0.2362 -0.6854
  152SOL    HW1  455   1.510   1.863   1.220  0.9592 -0.1194  0.5091
  152SOL    HW2  456   1.357   1.778   1.233  1.8460  0.6239 -1.9069
  153SOL     OW  457   0.112   1.585   0.163  0.2024  0.5090  0.6956
  153SOL    HW1  458   0.104   1.482   0.183 -0.5477 -1.7935 -0.9225
  153SOL    HW2  459   0.067   1.648   0.234  0.6385  1.5167 -0.8770
  154SOL     OW  460   2.376   1.849   2.826  0.0167  0.6638 -0.1778
  154SOL    HW1  461   2.401   1.757   2.867 -0.1366  3.0249 -1.3843
  154SOL    HW2  462   2.446   1.881   2.751 -1.3131  0.8603  0.3148
  155SOL     OW  463   2.467   1.199   0.363  0.3013  0.1841 -0.4452
  155SOL    HW1  464   2.555   1.185   0.309 -0.9899  0.7104 -0.9383
  155SOL    HW2  465   2.392   1.164   0.305  2.2632  0.8822 -2.1004
  156SOL     OW  466   2.524   0.938   0.826 -0.7523 -0.6895 -0.4213
  156SOL    HW1  467   2.424   0.948   0.822  0.7539  1.2332  1.3068
  156SOL    HW2  468   2.563   1.032   0.803 -1.0558 -0.9050 -1.0274
  157SOL     OW  469   1.228   2.961   2.985 -0.2541  0.4275 -0.2452
  157SOL    HW1  470   1.279   2.914   2.905 -3.5378  2.3291 -2.0080
  157SOL    HW2  471   1.274   3.052   3.013  2.3257  2.0656  1.6848
  158SOL     OW  472   0.980   1.848   1.886  0.0788  0.0144 -0.3969
  158SOL    HW1  473   1.012   1.937   1.848  3.3292 -0.4048  1.4627
  158SOL    HW2  474   0.899   1.859   1.951 -1.4972 -0.0088  0.2099
  159SOL     OW  475   0.899   0.408   1.203  0.5123 -0.4479 -0.0169
  159SOL    HW1  476   0.854   0.485   1.258  1.4406 -2.2555 -0.5386
  159SOL    HW2  477   0.824   0.355   1.145 -0.7860  2.6078 -0.3350
  160SOL     OW  478   1.383   2.417   1.592 -0.6541  0.5509 -0.0305
  160SOL    HW1  479   1.347   2.322   1.625 -0.6802 -2.2332  2.2573
  160SOL    HW2  480   1.473   2.411   1.542 -0.2597 -1.0206  0.4362
  161SOL     OW  481   0.041   2.969   0.404 -0.9136  0.3229  0.1892
  161SOL    HW1  482  -0.010   2.883   0.407  1.0893  1.5936  0.0138
  161SOL    HW2  483  -0.009   3.058   0.377 -4.1093 -0.8977  1.3425
  162SOL     OW  484   2.583   1.866   0.527 -0.0478 -0.3037  0.5768
  162SOL    HW1  485   2.545   1.823   0.442  0.8014  0.5298  1.6757
  162SOL    HW2  486   2.568   1.810   0.610  3.6747  2.1941  0.1610
  163SOL     OW  487   1.934   2.770   0.712 -0.0550 -0.5873  0.2137
  163SOL    HW1  488   1.931   2.775   0.607  2.4767 -0.8467 -0.7005
  163SOL    HW2  489   1.995   2.695   0.749 -0.4749  0.3600 -1.5212
  164SOL     OW  490   3.051   0.225   1.255 -0.3999  0.4162 -0.5360
  164SOL    HW1  491   3.107   0.293   1.195  2.6536  3.0818 -1.6033
  164SOL    HW2  492   3.108   0.183   1.335  0.9951 -1.2899  2.0551
  165SOL     OW  493   0.957   1.357   0.715  0.4604 -0.0897  0.0271
  165SOL    HW1  494   0.896   1.400   0.793  0.1646  3.0576 -0.6058
  165SOL    HW2  495   0.963   1.431   0.646 -3.8627 -2.0064  0.2076
  166SOL     OW  496   1.526   1.058   1.743  0.6819 -0.6167  0.6720
  166SOL    HW1  497   1.451   1.040   1.818  1.9223  0.7181 -0.3599
  166SOL    HW2  498   1.601   1.125   1.775 -0.8500 -1.1929  2.2806
  167SOL     OW  499   0.742   1.996   1.454  0.2409  0.2697  0.2199
  167SOL    HW1  500   0.774   2.074   1.520  0.1069  3.6457 -0.4879
  167SOL    HW2  501   0.717   1.906   1.505  1.0936  0.8744  3.8219
  168SOL     OW  502   1.626   2.371   0.140 -0.4461 -0.2281  0.1226
  168SOL    HW1  503   1.688   2.393   0.055 -1.8279 -0.9573  2.5113
  168SOL    HW2  504   1.675   2.336   0.227  0.5657 -0.4140 -2.9100
  169SOL     OW  505   0.214   2.569   2.227 -0.2708  0.4850  0.1276
  169SOL    HW1  506   0.213   2.540   2.125  1.9233  1.1404  1.6693
  169SOL    HW2  507   0.238   2.495   2.299 -3.9179 -1.1368 -0.2690
  170SOL     OW  508   1.085   0.221   2.028 -0.3562  0.5273 -0.4757
  170SOL    HW1  509   1.172   0.179   2.078 -0.9053  0.1217  0.0260
  170SOL    HW2  510   1.061   0.165   1.944 -0.2358 -0.6549  1.7771
  171SOL     OW  511   0.186   0.790   2.349 -0.2400  0.4088 -0.1390
  171SOL    HW1  512   0.089   0.800   2.389 -0.6197 -1.7987 -0.2028
  171SOL    HW2  513   0.173   0.757   2.253  0.7446  3.6195 -0.5131
  172SOL     OW  514   0.952   1.005   2.867 -0.0252 -0.1618 -0.1827
  172SOL    HW1  515   0.937   1.088   2.923 -3.1686 -1.1439  1.1540
  172SOL    HW2  516   0.881   0.994   2.790  1.3160  0.9079 -1.2556
  173SOL     OW  517   0.635   2.644   0.129 -1.3790 -0.7150  0.3614
  173SOL    HW1  518   0.606   2.736   0.098  0.6588 -2.3440 -1.7929
  173SOL    HW2  519   0.564   2.575   0.135  3.2720  0.2489  0.8039
  174SOL     OW  520   1.528   2.796   1.050  0.1949 -0.7172 -0.1968
  174SOL    HW1  521   1.540   2.876   0.978  0.0036  0.5509 -1.3562
  174SOL    HW2  522   1.511   2.705   1.013  2.4467  3.3267  0.3413
  175SOL     OW  523   0.466   3.031   1.685  0.2389  0.0210  0.2987
  175SOL    HW1  524   0.549   3.045   1.750  3.2927 -2.1135  0.5621
  175SOL    HW2  525   0.417   3.122   1.667  1.6268  0.8850  1.9397
  176SOL     OW  526   2.572   0.386   0.021 -0.6597  0.1198  0.3544
  176SOL    HW1  527   2.568   0.476   0.077  1.4551 -2.8806  0.6351
  176SOL    HW2  528   2.511   0.319   0.063  0.5373  0.4840 -0.5860
  177SOL     OW  529   0.307   0.339   0.937 -0.5802  0.7109 -0.0023
  177SOL    HW1  530   0.269   0.244   0.916  3.6524  1.0967  0.7871
  177SOL    HW2  531   0.306   0.360   1.038  1.1371 -2.4642 -0.0192
  178SOL     OW  532   0.036   2.739   2.571  0.5618  0.7282 -0.1505
  178SOL    HW1  533  -0.022   2.651   2.573  1.4855  1.2141 -3.1537
  178SOL    HW2  534   0.091   2.748   2.658 -0.0973 -0.4281  1.9003
  179SOL     OW  535   3.066   1.570   1.138 -0.0472  0.4101 -0.0039
  179SOL    HW1  536   2.975   1.568   1.087  2.2918 -2.1078  0.8882
  179SOL    HW2  537   3.058   1.515   1.230 -1.3411 -0.2392  1.9113
  180SOL     OW  538   0.196   1.248   1.846  0.4224  0.3841  0.2511
  180SOL    HW1  539   0.274   1.188   1.873 -1.2931  3.6019 -3.1940
  180SOL    HW2  540   0.185   1.333   1.904 -1.0531  0.5139 -0.4809
  181SOL     OW  541   3.055   1.875   2.487  1.0133  0.5152 -0.6740
  181SOL    HW1  542   3.120   1.946   2.456 -1.5989  3.7857 -0.4291
  181SOL    HW2  543   2.966   1.884   2.429 -0.0269 -0.1956 -1.2317
  182SOL     OW  544   2.319   1.252   1.145  0.3010 -0.3100  0.2328
  182SOL    HW1  545   2.227   1.215   1.117 -3.8258  0.0846  0.0376
  182SOL    HW2  546   2.326   1.358   1.144  1.3253  1.7634  3.4421
  183SOL     OW  547   1.445   2.262   2.584  0.3262  0.3368 -0.4282
  183SOL    HW1  548   1.349   2.229   2.610  0.0865 -1.1436 -1.7776
  183SOL    HW2  549   1.499   2.188   2.544 -1.3017 -1.9946 -0.5032
  184SOL     OW  550   2.016   0.902   0.714  0.6392  0.4795 -0.3610
  184SOL    HW1  551   1.937   0.960   0.675  3.4454 -0.7912  2.4260
  184SOL    HW2  552   1.984   0.814   0.759  0.5920  1.8993 -2.2583
  185SOL     OW  553   1.629   2.795   1.960  0.0237 -0.0940 -0.3901
  185SOL    HW1  554   1.548   2.856   1.985 -0.2337 -1.4749 -1.1975
  185SOL    HW2  555   1.687   2.777   2.042 -0.9895 -2.7494  0.4000
  186SOL     OW  556   0.122   2.264   1.637  0.4783 -0.2821  0.1867
  186SOL    HW1  557   0.113   2.287   1.736  0.5667 -1.0907 -0.0380
  186SOL    HW2  558   0.189   2.182   1.629  0.4043  2.0786 -1.2268
  187SOL     OW  559   1.338   0.697   1.658  0.4642 -0.3663 -0.2367
  187SOL    HW1  560   1.409   0.757   1.612  0.4365  0.7969 -0.0591
  187SOL    HW2  561   1.371   0.621   1.719 -0.3637 -0.4650  0.1445
  188SOL     OW  562   2.772   2.767   1.437 -0.0318 -0.3926  0.0160
  188SOL    HW1  563   2.758   2.868   1.438  1.7686  1.5646 -0.4474
  188SOL    HW2  564   2.689   2.715   1.400 -0.0631 -0.8164  2.1314
  189SOL     OW  565   0.947   1.192   1.448  0.0450 -0.4108 -0.0073
  189SOL    HW1  566   1.018   1.248   1.508 -1.7050  0.5389  0.6884
  189SOL    HW2  567   0.903   1.248   1.366 -1.7538  0.9884  0.2799
  190SOL     OW  568   1.430   1.949   1.628 -0.1021  0.3265  0.2088
  190SOL    HW1  569   1.399   1.851   1.615  3.9503 -1.0918  2.6931
  190SOL    HW2  570   1.499   1.957   1.704 -2.6448 -0.0372 -1.4254
  191SOL     OW  571   0.940   0.706   1.556 -0.4069 -0.0282 -0.3711
  191SOL    HW1  572   1.009   0.629   1.570  1.1896 -0.2849  0.8783
  191SOL    HW2  573   0.993   0.796   1.554 -0.1206  0.2218 -3.8574
  192SOL     OW  574   1.850   2.304   1.071  0.2171  0.4715 -0.3092
  192SOL    HW1  575   1.756   2.322   1.025 -1.5191 -0.5560 -1.2734
  192SOL    HW2  576   1.933   2.336   1.013  0.5429  2.2826  0.7219
  193SOL     OW  577   0.548   0.577   0.450 -0.7362  0.1414  0.1441
  193SOL    HW1  578   0.493   0.505   0.488  1.3402 -0.7163 -1.7816
  193SOL    HW2  579   0.597   0.558   0.357 -0.4281  0.2379 -0.4814
  194SOL     OW  580   0.337   0.895   1.301  0.6009 -0.3587 -0.0310
  194SOL    HW1  581   0.292   0.809   1.268 -1.1324  1.6911  1.9114
  194SOL    HW2  582   0.325   0.974   1.238 -0.3075  0.0712  1.8685
  195SOL     OW  583   1.012   2.939   0.520  0.9551 -0.6333 -0.3358
  195SOL    HW1  584   0.989   2.842   0.494  0.1700 -0.0213 -1.3325
  195SOL    HW2  585   1.111   2.964   0.513 -2.3717  4.6321  0.2340
  196SOL     OW  586   0.175   1.343   1.381 -0.6731  1.0402  0.2621
  196SOL    HW1  587   0.205   1.440   1.413 -0.7794  1.0821  0.8355
  196SOL    HW2  588   0.198   1.268   1.453  0.7998  0.1550  1.2740
  197SOL     OW  589   0.849   2.059   0.269 -0.2421  0.1000 -0.2412
  197SOL    HW1  590   0.831   2.069   0.375  1.0003  0.8714  1.5665
  197SOL    HW2  591   0.888   1.968   0.235 -0.1925  0.0219  0.2947
  198SOL     OW  592   0.267   1.268   0.291  0.0178 -0.5414  0.3776
  198SOL    HW1  593   0.172   1.276   0.262  0.6919  1.4509  0.3327
  198SOL    HW2  594   0.297   1.327   0.369 -0.4811 -2.2871 -1.3327
  199SOL     OW  595   2.305   0.367   2.498  0.4685  0.3460  0.1225
  199SOL    HW1  596   2.231   0.326   2.558  1.9846  1.1987  2.2298
  199SOL    HW2  597   2.406   0.344   2.534  3.5153  0.2975  1.6339
  200SOL     OW  598   0.006   2.950   0.721 -0.3302  0.1879  0.1012
  200SOL    HW1  599  -0.066   2.949   0.645 -2.3335 -0.3885  0.1868
  200SOL    HW2  600   0.094   2.998   0.689  3.0381 -4.4820  1.1355
  201SOL     OW  601   1.057   0.731   0.564 -0.1975 -0.3377 -0.3275
  201SOL    HW1  602   1.108   0.781   0.642 -1.7617 -0.7713 -3.5326
  201SOL    HW2  603   0.968   0.678   0.584  0.1736  0.3038 -1.1361
  202SOL     OW  604   0.401   1.078   1.913 -0.7306  0.0366  0.3239
  202SOL    HW1  605   0.484   1.046   1.858  3.4182  1.6857 -2.1057
  202SOL    HW2  606   0.421   1.124   2.003 -0.1949  0.2364  2.4063
  203SOL     OW  607   0.656   0.234   1.487  0.0117 -0.1567 -0.4524
  203SOL    HW1  608   0.708   0.185   1.412  0.1890 -2.2228 -0.5811
  203SOL    HW2  609   0.671   0.192   1.580 -1.3738 -0.9929  0.0943
  204SOL     OW  610   2.108   1.812   2.887  0.4110  0.0972  0.3564
  204SOL    HW1  611   2.081   1.710   2.864  0.6404 -0.2239 -1.3360
  204SOL    HW2  612   2.197   1.832   2.838 -0.7377  0.5900  1.1502
  205SOL     OW  613   1.850   1.862   3.019  0.1670 -0.5195  0.1258
  205SOL    HW1  614   1.938   1.846   2.967  0.8569  0.1394  0.6682
  205SOL    HW2  615   1.827   1.961   3.015  0.9110 -3.0944 -0.6913
  206SOL     OW  616   2.484   2.812   0.333 -0.2916 -0.1822  0.3949
  206SOL    HW1  617   2.546   2.736   0.373 -1.1582 -0.8176 -0.0939
  206SOL    HW2  618   2.539   2.895   0.299  1.6266  0.1127 -1.9780
  207SOL     OW  619   0.695   1.828   2.999  0.2510 -0.2740 -0.2812
  207SOL    HW1  620   0.761   1.778   2.933  3.6541 -0.0351 -0.8054
  207SOL    HW2  621   0.657   1.764   3.071 -0.5723  0.4584  0.9835
  208SOL     OW  622   1.119   1.571   1.395  0.7336 -0.3556  0.0625
  208SOL    HW1  623   1.076   1.626   1.317 -1.0542  0.2276 -1.2024
  208SOL    HW2  624   1.193   1.622   1.443  0.8703  0.3497  0.1263
  209SOL     OW  625   0.245   0.940   3.049  0.3856  0.1612 -0.0805
  209SOL    HW1  626   0.255   0.850   3.004 -0.7038  0.5697  1.6554
  209SOL    HW2  627   0.247   0.932   3.151 -1.6157  0.4166 -0.5199
  210SOL     OW  628   1.762   0.478   1.182 -0.3735  0.0730 -0.3186
  210SOL    HW1  629   1.731   0.574   1.155 -2.8790  0.1080  0.2813
  210SOL    HW2  630   1.868   0.460   1.163 -1.1097  0.1518 -0.9053
  211SOL     OW  631   2.101   1.067   1.587 -0.0533 -0.4929  0.2404
  211SOL    HW1  632   2.134   0.991   1.648  2.0379 -1.3223 -1.4913
  211SOL    HW2  633   2.176   1.121   1.545 -1.4192 -2.2415  0.7050
  212SOL     OW  634   3.090   0.984   1.501 -0.4999  0.6655 -0.0600
  212SOL    HW1  635   3.153   1.047   1.555 -0.4973  2.7904 -0.2670
  212SOL    HW2  636   3.084   0.889   1.544  0.0630  0.1846 -0.7416
  213SOL     OW  637   2.816   0.198   0.384 -0.3538 -0.3561  0.5174
  213SOL    HW1  638   2.868   0.122   0.332  1.0174 -2.2538  1.9052
  213SOL    HW2  639   2.771   0.248   0.312  2.4695  0.3923  1.0004
  214SOL     OW  640   2.164   0.238   2.286 -0.5483  0.1916  0.3783
  214SOL    HW1  641   2.209   0.291   2.365 -1.0149 -1.0013  0.3819
  214SOL    HW2  642   2.150   0.134   2.301 -1.6089  2.3274 -0.3326
  215SOL     OW  643   1.577   2.301   2.114 -0.3594  0.1642 -0.5925
  215SOL    HW1  644   1.676   2.317   2.098 -2.1234 -2.2017  2.4452
  215SOL    HW2  645   1.529   2.384   2.156  1.5374  0.2486  3.4021
  216SOL     OW  646   2.164   0.624   0.696 -0.0988 -0.1481 -0.2852
  216SOL    HW1  647   2.135   0.537   0.646 -0.7088 -0.9443  0.6614
  216SOL    HW2  648   2.194   0.704   0.633  0.0294  3.6085 -0.1495
  217SOL     OW  649   0.757   2.773   2.421 -0.0653 -0.0990 -0.1421
  217SOL    HW1  650   0.723   2.703   2.487  0.9806  1.2878  0.7297
  217SOL    HW2  651   0.731   2.744   2.323 -1.5985  0.1774  1.3241
  218SOL     OW  652   1.896   1.415   0.012  0.1292 -0.5212  0.3717
  218SOL    HW1  653   1.798   1.460   0.010 -2.7275  2.0215  0.2672
  218SOL    HW2  654   1.905   1.354   0.097  0.0982 -2.0048  1.2036
  219SOL     OW  655   2.438   1.295   2.499  0.1549  0.4203 -0.3142
  219SOL    HW1  656   2.499   1.280   2.417 -0.8320 -0.2251 -1.6290
  219SOL    HW2  657   2.440   1.217   2.569 -0.6119  1.4062 -1.5917
  220SOL     OW  658   1.485   1.049   1.260 -0.3245  0.0650  0.5332
  220SOL    HW1  659   1.584   1.063   1.287 -0.9546 -0.5943  1.8901
  220SOL    HW2  660   1.471   1.061   1.158 -2.4268 -3.1084 -0.1241
  221SOL     OW  661   1.286   0.990   2.178 -0.1158 -0.2642 -0.7543
  221SOL    HW1  662   1.256   1.064   2.111 -0.0005  1.4204  3.1699
  221SOL    HW2  663   1.385   0.961   2.177  0.3360 -0.1128  0.3009
  222SOL     OW  664   1.103   0.037   1.187 -0.1898 -0.0234  0.6723
  222SOL    HW1  665   1.165   0.081   1.263  1.9463  1.6718  1.4022
  222SOL    HW2  666   1.097   0.102   1.106  0.4985  2.3122 -1.2851
  223SOL     OW  667   2.744   0.950   2.126 -0.3321  0.2530  0.6978
  223SOL    HW1  668   2.741   1.046   2.093 -1.0286  0.2371  4.2287
  223SOL    HW2  669   2.842   0.915   2.145 -0.0717 -1.1623  0.9779
  224SOL     OW  670   1.505   1.075   2.761 -0.3149  0.5365 -0.5342
  224SOL    HW1  671   1.564   1.000   2.708  0.1601  0.4866 -1.9644
  224SOL    HW2  672   1.456   1.134   2.692 -0.8619  0.1226  2.2090
  225SOL     OW  673   2.930   2.778   2.879  0.1907  0.6914  0.2696
  225SOL    HW1  674   2.867   2.752   2.801  0.6630 -1.5290  0.3613
  225SOL    HW2  675   3.004   2.837   2.845 -1.3092 -2.1218  0.8074
  226SOL     OW  676   2.493   1.593   2.896 -0.3041  0.3420 -0.1258
  226SOL    HW1  677   2.484   1.567   2.797 -0.9994 -0.4540  3.0523
  226SOL    HW2  678   2.421   1.548   2.959 -4.2102 -0.8719  1.0249
  227SOL     OW  679   0.868   0.130   0.032  0.0874 -0.4127  0.6518
  227SOL    HW1  680   0.970   0.134   0.046  1.6369  2.7649 -0.4767
  227SOL    HW2  681   0.831   0.134  -0.066  1.2825  0.4710 -1.2471
  228SOL     OW  682   2.431   0.602   2.842 -0.1486  0.1281 -0.1733
  228SOL    HW1  683   2.427   0.630   2.743  1.2140  2.2946  0.4260
  228SOL    HW2  684   2.522   0.569   2.866  1.1417  1.5609  0.7246
  229SOL     OW  685   0.568   0.471   1.877 -0.5437 -0.2390 -0.5118
  229SOL    HW1  686   0.553   0.372   1.908 -0.4096 -1.2678  4.4986
  229SOL    HW2  687   0.578   0.495   1.775  1.4044  3.2629  0.3700
  230SOL     OW  688   1.868   1.148   2.083  0.1742 -0.0728  0.3930
  230SOL    HW1  689   1.933   1.222   2.050 -0.6791  1.1487  0.1926
  230SOL    HW2  690   1.779   1.181   2.122 -1.2654  0.5916  1.2529
  231SOL     OW  691   0.626   1.016   0.038 -0.0393 -0.0167  0.2884
  231SOL    HW1  692   0.710   1.075   0.062  1.1019 -0.9763  1.0073
  231SOL    HW2  693   0.538   1.066   0.033  1.0920  0.4794  2.5229
  232SOL     OW  694   2.391   3.091   2.847  0.4218  0.1216 -1.0383
  232SOL    HW1  695   2.429   3.000   2.883  2.6261  0.8748  0.6622
  232SOL    HW2  696   2.439   3.126   2.761  1.9424  0.2778 -0.6192
  233SOL     OW  697   1.701   1.247   1.113 -0.4656 -0.5555  0.3905
  233SOL    HW1  698   1.666   1.233   1.013 -0.1822  2.2047  1.2728
  233SOL    HW2  699   1.738   1.158   1.157  0.3573 -2.9804 -2.1495
  234SOL     OW  700   1.560   2.536   1.866  0.1162 -0.1182 -0.1294
  234SOL    HW1  701   1.556   2.625   1.915 -1.5925 -1.3657  1.3872
  234SOL    HW2  702   1.476   2.477   1.889  0.3468 -1.9329  3.0103
  235SOL     OW  703   0.016   3.025   2.818  0.1018  0.3659  0.1806
  235SOL    HW1  704  -0.029   3.037   2.724  1.8181 -1.4162 -0.4276
  235SOL    HW2  705  -0.044   3.068   2.891  2.6972 -0.1778  0.3834
  236SOL     OW  706   2.902   0.739   0.091 -0.6218  0.0591  0.0446
  236SOL    HW1  707   2.969   0.810   0.130 -1.7561 -0.4839 -0.1672
  236SOL    HW2  708   2.946   0.650   0.069  0.7865  1.3319 -0.3107
  237SOL     OW  709   1.546   1.665   0.995  0.3673 -0.1616 -0.3301
  237SOL    HW1  710   1.651   1.667   0.998  1.8765  1.6243  0.3127
  237SOL    HW2  711   1.509   1.697   1.086  0.8716 -1.8108 -3.5115
  238SOL     OW  712   1.781   1.279   0.846  0.5327 -0.3609 -0.6403
  238SOL    HW1  713   1.828   1.344   0.913 -0.5749  0.6332 -0.9173
  238SOL    HW2  714   1.708   1.332   0.785 -1.3287  0.5511 -0.5778
  239SOL     OW  715   2.093   0.287   2.668  0.0612  0.2117  0.4335
  239SOL    HW1  716   2.131   0.256   2.763  2.0003 -0.4239 -0.6591
  239SOL    HW2  717   2.024   0.363   2.682  1.1803  1.0850  1.5267
  240SOL     OW  718   0.928   0.652   0.299  0.3271 -0.2045 -0.7635
  240SOL    HW1  719   0.989   0.574   0.261 -0.1362 -1.4514 -0.3111
  240SOL    HW2  720   0.918   0.637   0.404  1.8182 -0.1690 -0.8847
  241SOL     OW  721   0.578   0.035   0.393  0.4650 -0.1156 -0.0353
  241SOL    HW1  722   0.617   0.112   0.342 -0.0299 -0.9437  1.2689
  241SOL    HW2  723   0.549  -0.037   0.321 -0.1818 -3.4860 -0.6567
  242SOL     OW  724   0.618   2.516   1.161 -0.5711 -0.0590  0.3925
  242SOL    HW1  725   0.614   2.551   1.261  1.6515 -1.0618  2.0049
  242SOL    HW2  726   0.660   2.592   1.102 -0.5671  0.3733 -0.9370
  243SOL     OW  727   1.094   0.634   2.461  0.9869  0.4491 -0.1550
  243SOL    HW1  728   0.995   0.664   2.438 -2.1304  0.8799  1.4453
  243SOL    HW2  729   1.103   0.615   2.560 -2.1850 -0.2801 -1.3076
  244SOL     OW  730   2.836   1.887   2.319  0.4771  0.1083 -0.1093
  244SOL    HW1  731   2.852   1.880   2.220 -1.7147  1.3121  3.9009
  244SOL    HW2  732   2.758   1.827   2.345  1.0183 -0.3599 -1.8056
  245SOL     OW  733   2.312   0.760   2.182 -0.0197  0.5668 -0.4281
  245SOL    HW1  734   2.407   0.750   2.231 -0.8906  4.3413 -0.7001
  245SOL    HW2  735   2.242   0.805   2.245 -1.1227  0.5027  1.6807
  246SOL     OW  736   0.232   2.908   1.735  0.1149 -0.0975 -0.1030
  246SOL    HW1  737   0.151   2.934   1.673 -1.7070  0.5487  2.4350
  246SOL    HW2  738   0.322   2.958   1.725 -2.1394 -0.8024  2.1484
  247SOL     OW  739   2.262   0.618   3.057  0.1633  0.2788  0.0122
  247SOL    HW1  740   2.307   0.599   2.963 -0.5148 -4.5408 -1.5834
  247SOL    HW2  741   2.191   0.689   3.032 -2.6865 -0.0298 -2.9610
  248SOL     OW  742   2.156   1.821   1.581  0.2176  0.3809 -0.3952
  248SOL    HW1  743   2.217   1.779   1.650  0.0141  0.1723 -0.2332
  248SOL    HW2  744   2.053   1.814   1.601 -2.7895  0.8342  0.1954
  249SOL     OW  745   1.850   1.952   1.936  0.3339 -0.1586 -0.2930
  249SOL    HW1  746   1.872   1.857   1.904  1.7278  0.3041  0.2133
  249SOL    HW2  747   1.937   2.009   1.930 -0.9257  0.8379  1.4726
  250SOL     OW  748   1.118   0.690   1.899 -0.4209 -0.0466 -0.4517
  250SOL    HW1  749   1.152   0.610   1.956 -0.9266  1.0288  0.4685
  250SOL    HW2  750   1.096   0.663   1.800 -1.0068 -2.5423  1.3324
  251SOL     OW  751   0.062   1.582   2.473 -0.1066  0.2660  0.1570
  251SOL    HW1  752   0.056   1.684   2.475  1.2230 -0.7226  2.4840
  251SOL    HW2  753  -0.021   1.531   2.504 -0.1274 -0.5490 -1.5430
  252SOL     OW  754   1.544   0.842   1.577  0.5818  0.4325  0.0963
  252SOL    HW1  755   1.625   0.825   1.519  1.9562 -1.6820  1.5096
  252SOL    HW2  756   1.550   0.915   1.641  0.5068  0.2874 -1.7902
  253SOL     OW  757   0.959   1.565   0.530  0.3430 -0.4019  0.0955
  253SOL    HW1  758   0.975   1.495   0.458 -1.6545 -0.2705  0.9718
  253SOL    HW2  759   0.850   1.582   0.544 -3.0968 -0.3473  2.9072
  254SOL     OW  760   2.052   2.181   1.649 -0.1704  0.1385  0.2152
  254SOL    HW1  761   2.020   2.111   1.580  1.8850 -0.0030  0.1918
  254SOL    HW2  762   1.971   2.217   1.702  1.6043 -0.2186  0.4194
  255SOL     OW  763   0.138   1.132   2.883 -0.6680  0.0278 -0.0953
  255SOL    HW1  764   0.183   1.225   2.880  2.6836  0.3367 -0.3446
  255SOL    HW2  765   0.189   1.051   2.927  3.6584  0.0057 -0.3087
  256SOL     OW  766   2.771   1.364   1.781 -0.1517  0.7139  0.1505
  256SOL    HW1  767   2.679   1.410   1.784  0.3275  1.0028 -1.0119
  256SOL    HW2  768   2.763   1.266   1.758 -0.0106  1.9320 -0.6594
  257SOL     OW  769   0.771   0.178   1.763 -0.2635 -0.7540  0.1021
  257SOL    HW1  770   0.822   0.251   1.705  1.8038 -0.0173 -0.5725
  257SOL    HW2  771   0.847   0.114   1.803  2.5314 -1.2625  1.4660
  258SOL     OW  772   2.980   1.240   0.436  0.6902 -0.5658 -0.1983
  258SOL    HW1  773   2.898   1.301   0.432  1.9737 -1.6850  2.7274
  258SOL    HW2  774   3.017   1.247   0.534 -1.4145 -0.6010  2.7324
  259SOL     OW  775   0.462   2.947   3.039 -0.4294 -0.6179  0.5906
  259SOL    HW1  776   0.373   2.920   3.092 -0.4532  0.3395 -1.1500
  259SOL    HW2  777   0.457   2.922   2.936 -0.1429 -1.0140 -3.4769
  260SOL     OW  778   2.710   0.830   2.808  0.1407 -0.1285 -0.1558
  260SOL    HW1  779   2.642   0.762   2.779  1.9178 -0.5337 -1.5283
  260SOL    HW2  780   2.731   0.845   2.907  1.3420  2.1670 -3.1260
  261SOL     OW  781   2.759   1.359   1.249 -0.2771  0.2844  0.3830
  261SOL    HW1  782   2.709   1.284   1.193  1.2563 -0.5505 -0.0563
  261SOL    HW2  783   2.862   1.335   1.257  2.6520 -0.2730  1.3789
  262SOL     OW  784   1.414   2.974   2.022 -0.3928  0.0795 -0.6706
  262SOL    HW1  785   1.455   3.047   1.960 -1.3089  2.6241  0.7613
  262SOL    HW2  786   1.317   2.961   1.991  1.0046  2.3989 -2.2993
  263SOL     OW  787   0.850   0.691   2.370 -0.2684 -0.1612 -0.1785
  263SOL    HW1  788   0.805   0.609   2.328  0.5735  2.3295  0.8871
  263SOL    HW2  789   0.902   0.738   2.295  0.3408  0.2319  3.3038
  264SOL     OW  790   2.204   0.829   0.437  0.4209  0.0888  0.7683
  264SOL    HW1  791   2.209   0.751   0.372 -3.1117  0.0117  2.8119
  264SOL    HW2  792   2.287   0.847   0.496 -4.0978  3.7383  1.3566
  265SOL     OW  793   0.943   2.397   2.618  0.5853  0.5062 -0.4805
  265SOL    HW1  794   0.987   2.459   2.686  2.2163  1.2490  1.3645
  265SOL    HW2  795   0.910   2.310   2.662 -1.1796  0.6956 -2.0314
  266SOL     OW  796   1.307   1.739   0.026 -0.3600  0.3728 -0.4033
  266SOL    HW1  797   1.302   1.825   0.082 -0.1020 -2.7376 -1.7127
  266SOL    HW2  798   1.396   1.723  -0.018 -0.8891  0.8815  3.2748
  267SOL     OW  799   1.018   3.081   2.359  0.6304  0.0834 -0.0978
  267SOL    HW1  800   1.024   3.018   2.273 -0.1277 -0.9610  0.3146
  267SOL    HW2  801   0.946   3.157   2.346 -1.1656 -0.7336  0.7743
  268SOL     OW  802   0.596   1.199   1.024 -0.0751 -0.4682 -0.2040
  268SOL    HW1  803   0.638   1.248   1.111  3.8025  2.8298 -0.8979
  268SOL    HW2  804   0.599   1.270   0.951  0.8497 -2.6962  0.7219
  269SOL     OW  805   2.354   2.551   1.600 -0.1812  0.4204 -0.0212
  269SOL    HW1  806   2.396   2.466   1.637 -2.4282  0.2702 -2.1877
  269SOL    HW2  807   2.294   2.592   1.674  1.2876 -0.3677 -1.5967
  270SOL     OW  808   0.186   2.921   2.011 -0.3128 -0.0042 -0.0675
  270SOL    HW1  809   0.216   2.893   1.917 -1.4145  1.1818  1.0983
  270SOL    HW2  810   0.112   2.863   2.050  1.2258 -0.4690  0.5646
  271SOL     OW  811   0.415   1.386   1.193 -0.0367  0.6029  0.0222
  271SOL    HW1  812   0.417   1.365   1.093  0.2673  2.9249  2.0731
  271SOL    HW2  813   0.325   1.369   1.238  0.5100 -0.0999 -1.6798
  272SOL     OW  814   2.007   2.883   1.946  0.1613  0.2870  0.1521
  272SOL    HW1  815   1.941   2.845   1.866 -0.0067 -1.2490 -1.4411
  272SOL    HW2  816   2.079   2.947   1.913 -4.5861 -2.5521  1.2170
  273SOL     OW  817   1.489   1.426   2.714  0.4124 -0.5738 -0.1881
  273SOL    HW1  818   1.393   1.470   2.731 -1.0904 -2.1025  0.5439
  273SOL    HW2  819   1.530   1.382   2.801 -0.0377 -0.9630  1.1447
  274SOL     OW  820   1.193   0.497   2.062 -0.3038 -0.2137 -0.0152
  274SOL    HW1  821   1.155   0.406   2.026 -1.9754  1.0663  0.7076
  274SOL    HW2  822   1.240   0.494   2.155 -1.5639  1.5782  3.4318
  275SOL     OW  823   0.608   2.088   1.896  0.2145 -0.2485 -0.3437
  275SOL    HW1  824   0.615   2.178   1.942  4.0596  0.4176 -0.0982
  275SOL    HW2  825   0.519   2.035   1.912 -0.7336 -2.3493 -0.1945
  276SOL     OW  826   2.190   0.956   2.754  0.0426  0.6679 -0.2911
  276SOL    HW1  827   2.124   0.983   2.676  0.4607  0.4343 -0.5701
  276SOL    HW2  828   2.147   0.897   2.822  1.6627  2.1763  0.8067
  277SOL     OW  829   3.089   0.884   0.228  0.0248 -0.0704  0.2364
  277SOL    HW1  830   3.183   0.905   0.191 -2.1753 -0.7917 -1.0062
  277SOL    HW2  831   3.092   0.799   0.289  1.5411  0.4862 -2.6726
  278SOL     OW  832   0.247   0.267   3.070  0.4060 -0.1117 -0.2869
  278SOL    HW1  833   0.321   0.216   3.020  1.7845  1.7953 -1.8637
  278SOL    HW2  834   0.284   0.363   3.090  0.4426 -1.2479 -0.5240
  279SOL     OW  835   0.203   0.065   0.874 -0.5776 -0.2292 -0.1341
  279SOL    HW1  836   0.171   0.013   0.958  2.9257 -1.4384  1.8327
  279SOL    HW2  837   0.265   0.005   0.813  0.8885  3.6860 -1.2115
  280SOL     OW  838   1.603   2.946   2.420 -0.0733 -0.1603 -0.0740
  280SOL    HW1  839   1.658   2.993   2.495  0.4053  1.5516 -2.2470
  280SOL    HW2  840   1.518   3.004   2.402  0.7257 -0.9174  0.5209
  281SOL     OW  841   0.571   0.988   2.213 -0.2813 -0.0667 -0.0139
  281SOL    HW1  842   0.572   0.894   2.168 -1.8845 -2.5502  2.0870
  281SOL    HW2  843   0.536   0.980   2.310 -0.4802  0.1847 -1.6093
  282SOL     OW  844   1.772   2.494   0.517 -0.0979 -0.1333 -0.2307
  282SOL    HW1  845   1.706   2.415   0.510 -1.5302  0.6320  1.2385
  282SOL    HW2  846   1.726   2.586   0.511  0.2993 -0.2998 -0.5586
  283SOL     OW  847   1.164   0.920   0.833  0.3478  0.7417  0.7186
  283SOL    HW1  848   1.175   0.864   0.915 -1.5349  0.6223 -2.2011
  283SOL    HW2  849   1.157   1.017   0.860  2.9566 -1.2059 -1.6282
  284SOL     OW  850   2.289   2.779   2.551 -0.1092  0.3299  0.1245
  284SOL    HW1  851   2.340   2.827   2.473  0.9158  0.8115 -3.4786
  284SOL    HW2  852   2.276   2.844   2.626  2.5118  0.0205 -3.1890
  285SOL     OW  853   1.321   3.041   2.579 -0.1011 -0.1370 -0.3954
  285SOL    HW1  854   1.354   3.056   2.483  2.5468 -0.7822 -0.7048
  285SOL    HW2  855   1.221   3.049   2.594  4.8171 -0.7155 -0.6219
  286SOL     OW  856   0.458   0.457   0.720  0.1165 -0.3738 -0.3350
  286SOL    HW1  857   0.403   0.414   0.801  0.1883  0.8058  0.4673
  286SOL    HW2  858   0.499   0.380   0.662  1.4495 -2.7556 -0.9385
  287SOL     OW  859   0.103   1.291   2.489 -0.0893  0.2765  0.1633
  287SOL    HW1  860   0.026   1.249   2.554 -0.5839 -1.5025  1.6946
  287SOL    HW2  861   0.104   1.392   2.505  1.0972 -4.5844 -1.2769
  288SOL     OW  862   1.598   2.626   1.606  0.7561  0.4809 -0.0193
  288SOL    HW1  863   1.589   2.593   1.703  0.0803  1.7669  3.1018
  288SOL    HW2  864   1.650   2.569   1.536 -2.8155 -1.7097  4.2476
  289SOL     OW  865   0.650   2.713   0.903 -0.5338  0.2563  0.2772
  289SOL    HW1  866   0.685   2.776   0.827 -1.0343  0.6137  1.4024
  289SOL    HW2  867   0.620   2.768   0.986  1.0878  1.4129  0.9934
  290SOL     OW  868   2.816   1.108   1.723 -0.2181 -0.0023 -0.0324
  290SOL    HW1  869   2.728   1.060   1.706  2.5539  0.0409 -1.6735
  290SOL    HW2  870   2.881   1.068   1.794  0.7578 -0.6673 -0.9681
  291SOL     OW  871   1.999   0.044   0.035  0.2738 -0.1524  0.2226
  291SOL    HW1  872   2.011   0.051   0.137 -0.1595 -1.1801  0.2423
  291SOL    HW2  873   2.028   0.123  -0.016 -1.4632 -0.2837 -3.0895
  292SOL     OW  874   2.995   1.150   3.054 -0.4329  0.2255  0.8856
  292SOL    HW1  875   2.914   1.205   3.023  1.8310 -1.1667  1.4993
  292SOL    HW2  876   3.063   1.135   2.979 -2.2927  1.1857  2.3933
  293SOL     OW  877   0.550   2.143   0.218 -0.1258 -0.0783 -0.0613
  293SOL    HW1  878   0.498   2.216   0.275 -0.0661  2.1162 -1.6531
  293SOL    HW2  879   0.648   2.150   0.208 -1.6106  0.9875 -1.3093
  294SOL     OW  880   1.835   2.264   1.781  0.1570  0.4013 -0.5405
  294SOL    HW1  881   1.815   2.290   1.877  2.1590 -1.8068  1.3013
  294SOL    HW2  882   1.797   2.328   1.707  1.4384 -1.9844 -1.0318
  295SOL     OW  883   0.987   1.068   0.457  0.6441  0.0993 -0.9775
  295SOL    HW1  884   1.072   1.047   0.500 -1.9472 -1.3327 -0.6160
  295SOL    HW2  885   0.904   1.075   0.521 -1.9923 -0.4303 -0.7456
  296SOL     OW  886   1.177   2.120   2.562 -0.5483 -0.5042  0.3218
  296SOL    HW1  887   1.078   2.155   2.552 -3.2292  1.9732 -0.1780
  296SOL    HW2  888   1.197   2.028   2.524  0.2488  0.9213 -2.0059
  297SOL     OW  889   1.419   0.612   1.346 -0.1471 -0.1612  0.0757
  297SOL    HW1  890   1.376   0.524   1.372 -2.5125  0.1133  1.2703
  297SOL    HW2  891   1.518   0.619   1.378 -2.2781  2.4081  0.3397
  298SOL     OW  892   0.523   1.316   3.006 -0.4901 -0.5480  0.2563
  298SOL    HW1  893   0.472   1.243   3.061 -0.0469  2.6360 -2.0665
  298SOL    HW2  894   0.575   1.282   2.927  3.4594  0.3257 -0.2287
  299SOL     OW  895   0.473   0.274   1.262 -0.1733  0.4749 -1.0561
  299SOL    HW1  896   0.412   0.355   1.268 -1.3441 -2.6749 -0.3070
  299SOL    HW2  897   0.528   0.268   1.346  0.2614  1.6839  1.4968
  300SOL     OW  898   1.226   1.784   2.725 -0.2974 -0.1598 -0.4622
  300SOL    HW1  899   1.192   1.695   2.755 -1.7668 -0.3138  0.1535
  300SOL    HW2  900   1.330   1.785   2.728 -1.2269  1.1077 -0.2427
  301SOL     OW  901   0.433   0.286   0.491 -0.2153 -0.1726 -0.1811
  301SOL    HW1  902   0.333   0.312   0.483 -0.2002 -0.9959 -1.5727
  301SOL    HW2  903   0.471   0.212   0.429 -0.9429  0.4299 -0.4547
  302SOL     OW  904   1.280   2.449   2.340 -0.0759 -0.4595  0.2369
  302SOL    HW1  905   1.182   2.490   2.350  0.5094 -2.7095  0.3167
  302SOL    HW2  906   1.284   2.351   2.365  2.2151 -1.7162 -0.2383
  303SOL     OW  907   0.943   2.405   0.812  0.1217 -0.0757 -0.3903
  303SOL    HW1  908   0.990   2.450   0.731 -2.2589  1.1901 -1.4054
  303SOL    HW2  909   0.955   2.463   0.897 -0.0040 -1.7353 -2.0937
  304SOL     OW  910   0.049   1.940   0.643  0.0628  0.2712  0.0417
  304SOL    HW1  911   0.117   1.916   0.571 -1.0500 -2.0705  2.1561
  304SOL    HW2  912  -0.005   2.025   0.614 -0.1054 -0.6532  0.8481
  305SOL     OW  913   1.573   0.882   0.593 -0.3360 -0.5460  0.4061
  305SOL    HW1  914   1.547   0.883   0.489 -1.7998  0.1117 -0.1183
  305SOL    HW2  915   1.627   0.799   0.620 -0.4893 -1.5894  1.0696
  306SOL     OW  916   0.405   1.847   1.914 -0.3511  0.1112 -0.3577
  306SOL    HW1  917   0.427   1.750   1.907 -0.3943  1.2838  0.0356
  306SOL    HW2  918   0.417   1.890   2.006  0.0580 -0.9599  0.6738
  307SOL     OW  919   3.039   0.899   2.481 -0.1569  0.1061  0.2327
  307SOL    HW1  920   3.045   0.985   2.538 -2.9706 -1.2658 -0.0682
  307SOL    HW2  921   2.966   0.831   2.515  0.1928  0.4687 -0.5701
  308SOL     OW  922   1.552   2.687   2.823 -0.1213 -0.0483  0.2508
  308SOL    HW1  923   1.538   2.628   2.739  0.2416 -0.4435  1.1428
  308SOL    HW2  924   1.519   2.635   2.904 -0.8283  0.2247 -2.3202
  309SOL     OW  925   1.283   0.202   1.735  0.1479  0.1989  0.2739
  309SOL    HW1  926   1.351   0.134   1.778  0.3842 -0.3051 -0.8252
  309SOL    HW2  927   1.225   0.162   1.662  3.1642  0.3247  1.6155
  310SOL     OW  928   1.502   2.564   0.700 -0.1241 -0.1916 -0.4174
  310SOL    HW1  929   1.491   2.551   0.799 -0.3511 -2.2767 -1.4423
  310SOL    HW2  930   1.542   2.656   0.668  0.6336 -0.8265  2.9015
  311SOL     OW  931   1.175   0.955   1.659 -0.3428 -0.5059 -0.0009
  311SOL    HW1  932   1.215   0.862   1.688  1.7333 -0.3021  4.1383
  311SOL    HW2  933   1.230   0.998   1.584  1.8633 -1.1683 -0.1413
  312SOL     OW  934   1.658   0.724   1.128 -0.3666 -0.3842  0.4112
  312SOL    HW1  935   1.671   0.811   1.076 -0.0639 -0.7965  1.6873
  312SOL    HW2  936   1.570   0.682   1.108  2.8877  0.1064 -1.5613
  313SOL     OW  937   1.575   1.365   0.708  0.3241  0.4924 -0.2891
  313SOL    HW1  938   1.501   1.430   0.748 -4.7249  0.7384  0.4374
  313SOL    HW2  939   1.529   1.289   0.655  2.8632  1.0616 -0.6680
  314SOL     OW  940   2.940   0.029   2.995 -0.1821 -0.0592  0.0806
  314SOL    HW1  941   2.961   0.000   3.093 -2.3084 -1.6619  0.5033
  314SOL    HW2  942   2.845  -0.009   2.974 -0.4529 -0.9752  1.9461
  315SOL     OW  943   1.180   0.196   2.769 -0.6508  0.1985  0.3715
  315SOL    HW1  944   1.119   0.138   2.709 -2.0453 -0.8981 -0.0968
  315SOL    HW2  945   1.206   0.149   2.854 -1.7487  4.5843  2.0568
  316SOL     OW  946   1.742   2.032   0.882  0.1698  0.1222  0.5598
  316SOL    HW1  947   1.693   2.008   0.969 -0.3214  0.6525  3.3784
  316SOL    HW2  948   1.760   2.136   0.868  2.0107 -1.0743  0.5498
  317SOL     OW  949   1.166   0.633   2.866  0.2449  0.9020 -0.0745
  317SOL    HW1  950   1.119   0.683   2.950 -0.3808  1.9250 -0.4392
  317SOL    HW2  951   1.115   0.555   2.828  0.7584 -0.3177 -1.7426
  318SOL     OW  952   1.363   3.032   2.300  0.4792 -0.2861  0.2485
  318SOL    HW1  953   1.359   3.127   2.261  0.4726 -1.6267 -1.2857
  318SOL    HW2  954   1.359   2.957   2.230  0.4726 -0.0019  1.7195
  319SOL     OW  955   0.620   2.422   2.931 -0.5524 -0.3860  0.4279
  319SOL    HW1  956   0.555   2.385   3.001  0.4655  1.1626 -1.6892
  319SOL    HW2  957   0.717   2.416   2.970 -0.6650 -0.4987  1.1612
  320SOL     OW  958   1.678   2.249   0.440 -0.1837  0.3244 -0.0865
  320SOL    HW1  959   1.758   2.194   0.394 -0.9667  0.0044  0.8207
  320SOL    HW2  960   1.602   2.196   0.479 -0.4990  1.8061  0.7723
  321SOL     OW  961   1.633   2.795   0.525  0.6384  0.0232  0.8991
  321SOL    HW1  962   1.557   2.807   0.451 -0.9612  3.2011 -0.1064
  321SOL    HW2  963   1.722   2.842   0.494 -0.9389  0.5677 -1.6032
  322SOL     OW  964   2.594   1.126   2.328 -0.1648  0.4376 -0.7306
  322SOL    HW1  965   2.637   1.146   2.419  0.3607  0.7738  0.2161
  322SOL    HW2  966   2.572   1.027   2.321 -4.0369  2.0298 -0.3981
  323SOL     OW  967   1.188   2.688   0.833  0.0412  0.4205  0.2780
  323SOL    HW1  968   1.166   2.637   0.743  0.1401  2.0172 -0.3991
  323SOL    HW2  969   1.145   2.784   0.836  0.8388 -1.2188  0.0193
  324SOL     OW  970   0.267   2.439   2.500  0.0879 -0.4003 -0.3226
  324SOL    HW1  971   0.295   2.409   2.597 -0.5022 -1.4706 -3.3947
  324SOL    HW2  972   0.199   2.519   2.494  1.8022  0.1680 -1.8489
  325SOL     OW  973   1.279   3.059   0.473 -0.3584 -0.2566 -0.6244
  325SOL    HW1  974   1.306   3.113   0.386  1.8770 -1.3295  1.6953
  325SOL    HW2  975   1.282   3.117   0.560 -2.0159 -1.7086 -1.3233
  326SOL     OW  976   2.468   0.809   3.097  0.1368 -0.3851  0.0177
  326SOL    HW1  977   2.411   0.747   3.031 -1.2177 -1.6490  4.3719
  326SOL    HW2  978   2.527   0.754   3.163 -1.0088  0.1209 -0.8271
  327SOL     OW  979   2.850   0.332   0.662 -0.2489 -0.4664 -0.7381
  327SOL    HW1  980   2.831   0.289   0.566 -2.0305  2.2886 -2.5096
  327SOL    HW2  981   2.879   0.272   0.739  0.6247  0.4930  2.2033
  328SOL     OW  982   2.610   0.556   0.407  0.1459 -0.3944 -0.0269
  328SOL    HW1  983   2.564   0.653   0.401  0.5900  1.6816 -0.7215
  328SOL    HW2  984   2.571   0.496   0.484 -0.2530 -2.2479 -0.3443
  329SOL     OW  985   2.950   2.980   2.139  0.6385 -0.3789 -0.2228
  329SOL    HW1  986   3.012   2.930   2.209 -0.2362 -1.2103  2.5735
  329SOL    HW2  987   2.957   3.085   2.147 -1.5342 -0.4737 -0.9945
  330SOL     OW  988   0.520   0.176   1.888 -0.3924  0.6831  0.5510
  330SOL    HW1  989   0.601   0.192   1.827  0.5216  1.2468 -0.6661
  330SOL    HW2  990   0.552   0.103   1.954 -0.8513 -1.4877  0.5846
  331SOL     OW  991   2.974   1.935   1.147 -0.0272  0.3489 -0.8160
  331SOL    HW1  992   2.982   2.035   1.138 -1.4885 -0.5063  0.9306
  331SOL    HW2  993   2.915   1.918   1.234  1.3415  0.6355  1.0574
  332SOL     OW  994   0.380   1.152   0.064  0.3789  0.1753  0.5244
  332SOL    HW1  995   0.301   1.102   0.020 -1.1017 -2.8184  2.0750
  332SOL    HW2  996   0.343   1.220   0.134 -2.7348 -2.3551 -0.7429
  333SOL     OW  997   2.886   1.038   0.306  0.5316 -0.5004  0.3056
  333SOL    HW1  998   2.917   1.093   0.386  0.8476 -0.4856 -3.1927
  333SOL    HW2  999   2.958   0.979   0.259 -1.4309 -1.3163 -1.0961
  334SOL     OW 1000   1.695   1.259   1.844 -0.3911 -0.3589 -0.5505
  334SOL    HW1 1001   1.788   1.274   1.796  1.4088  0.3873 -1.0399
  334SOL    HW2 1002   1.699   1.298   1.942  2.3628  0.3087  1.6580
  335SOL     OW 1003   1.978   2.724   2.580  0.0673 -0.3233 -0.1905
  335SOL    HW1 1004   1.914   2.710   2.659 -0.0498 -5.2283 -1.7631
  335SOL    HW2 1005   2.078   2.734   2.597 -0.6077  0.6330 -0.5069
  336SOL     OW 1006   0.237   0.135   2.751 -0.2037 -0.3049 -0.5132
  336SOL    HW1 1007   0.322   0.103   2.803  2.8052 -0.6965 -2.9706
  336SOL    HW2 1008   0.155   0.071   2.755  1.2685 -1.8442 -0.4850
  337SOL     OW 1009   0.943   2.876   2.859  0.7136  0.0763 -0.0400
  337SOL    HW1 1010   0.918   2.798   2.925  3.0582  1.5075  1.0464
  337SOL    HW2 1011   1.045   2.895   2.865 -0.6149  1.7373  3.0191
  338SOL     OW 1012   0.041   1.009   0.635  0.7120 -0.1393 -0.0282
  338SOL    HW1 1013  -0.060   0.978   0.655  0.8261 -2.3338  2.7223
  338SOL    HW2 1014   0.049   1.113   0.658  1.1005  1.1032 -0.6334
  339SOL     OW 1015   1.679   1.345   2.101 -0.0843 -0.0888  0.1524
  339SOL    HW1 1016   1.586   1.376   2.128 -0.8456  0.8610 -1.3813
  339SOL    HW2 1017   1.756   1.401   2.138  3.9543  1.2589 -2.3665
  340SOL     OW 1018   2.336   0.807   1.103 -0.3116  0.0742 -0.0080
  340SOL    HW1 1019   2.239   0.822   1.074 -1.2283 -0.7051 -0.7813
  340SOL    HW2 1020   2.365   0.712   1.073 -0.9338  2.4056  1.4455
  341SOL     OW 1021   1.880   2.105   0.302  0.0052 -0.4123 -0.5805
  341SOL    HW1 1022   1.905   2.151   0.211 -1.1923  1.9294 -1.5981
  341SOL    HW2 1023   1.959   2.096   0.363  0.3274  1.7898 -0.4014
  342SOL     OW 1024   2.256   2.132   2.769 -0.0286 -0.3535  0.8280
  342SOL    HW1 1025   2.341   2.081   2.797  0.1289  1.1259 -0.5407
  342SOL    HW2 1026   2.162   2.092   2.801  1.1281 -0.8780  0.1764
  343SOL     OW 1027   0.362   0.834   2.738 -0.2665 -0.4789  0.1976
  343SOL    HW1 1028   0.324   0.927   2.713  0.0183 -1.9590 -0.5028
  343SOL    HW2 1029   0.451   0.843   2.782 -0.6203  2.6372  1.9489
  344SOL     OW 1030   1.920   1.427   0.433  0.0539  0.3535 -0.0760
  344SOL    HW1 1031   1.935   1.354   0.359  2.4698  1.2863 -0.7594
  344SOL    HW2 1032   1.821   1.448   0.455  0.7594  0.5853  0.7552
  345SOL     OW 1033   1.397   2.242   2.929 -0.2593 -0.5144 -0.1457
  345SOL    HW1 1034   1.333   2.160   2.919  0.8231  0.8909  0.9727
  345SOL    HW2 1035   1.493   2.217   2.901 -0.4312  1.0137 -0.4956
  346SOL     OW 1036   2.355   0.885   1.371 -0.4578  0.4403  0.8252
  346SOL    HW1 1037   2.308   0.976   1.391 -1.5737  0.7832 -0.9552
  346SOL    HW2 1038   2.338   0.844   1.275  3.0045 -1.8446 -1.6237
  347SOL     OW 1039   0.742   2.755   1.570 -0.0468 -0.2713  0.4248
  347SOL    HW1 1040   0.689   2.737   1.660 -1.6084 -0.0537 -0.2702
  347SOL    HW2 1041   0.713   2.841   1.526 -0.8736 -1.9396  0.9217
  348SOL     OW 1042   0.209   0.687   2.923  0.0422  0.3258 -0.4776
  348SOL    HW1 1043   0.102   0.674   2.919 -1.1232  2.4533 -0.3494
  348SOL    HW2 1044   0.253   0.720   2.835  1.7182 -1.6347  3.5227
  349SOL     OW 1045   1.866   0.472   2.814 -0.4410 -0.2420 -0.3679
  349SOL    HW1 1046   1.864   0.568   2.769 -2.7603  0.2912  1.7355
  349SOL    HW2 1047   1.839   0.482   2.917 -0.3170  0.8710  2.1107
  350SOL     OW 1048   1.666   0.432   0.387  0.0550 -0.3536  0.0323
  350SOL    HW1 1049   1.744   0.423   0.458  1.8442 -1.9435 -0.2490
  350SOL    HW2 1050   1.651   0.528   0.355 -0.8995  0.2541 -0.1982
  351SOL     OW 1051   1.004   0.815   2.154 -0.1416 -0.6839 -0.0649
  351SOL    HW1 1052   0.968   0.900   2.108 -1.1011  0.9028 -0.3225
  351SOL    HW2 1053   1.074   0.772   2.090 -0.6642 -0.5454  1.1459
  352SOL     OW 1054   1.978   1.304   0.661 -0.0362 -0.3430  0.4479
  352SOL    HW1 1055   1.959   1.353   0.572 -2.0649 -0.2778 -1.2117
  352SOL    HW2 1056   1.897   1.292   0.727 -0.6811  1.6225 -3.3575
  353SOL     OW 1057   2.141   2.781   1.089  0.3195 -0.2360  0.0206
  353SOL    HW1 1058   2.184   2.739   1.175 -3.7718 -1.5066  2.7701
  353SOL    HW2 1059   2.049   2.733   1.066 -0.0000 -2.9650  1.2881
  354SOL     OW 1060   0.254   1.372   2.899 -0.3422 -0.2776 -0.2435
  354SOL    HW1 1061   0.241   1.437   2.822 -2.3065 -0.9468 -0.8827
  354SOL    HW2 1062   0.350   1.369   2.934 -2.2426 -0.1233  0.7059
  355SOL     OW 1063   0.704   1.571   0.581  0.9501  0.4687 -0.1205
  355SOL    HW1 1064   0.733   1.615   0.671  1.9371 -0.2101  2.6530
  355SOL    HW2 1065   0.676   1.471   0.592  1.3550  0.5669 -2.7340
  356SOL     OW 1066   0.845   0.336   2.066 -0.2459 -0.1948 -0.2152
  356SOL    HW1 1067   0.945   0.324   2.055  2.5920  1.0107 -0.8353
  356SOL    HW2 1068   0.797   0.351   1.977 -1.3330  2.1280  0.1451
  357SOL     OW 1069   1.009   1.326   0.325 -0.2286  0.3997  0.3439
  357SOL    HW1 1070   1.057   1.326   0.236  1.9759  2.0976  1.9799
  357SOL    HW2 1071   0.986   1.233   0.362 -1.7903  0.0846 -1.1982
  358SOL     OW 1072   1.671   1.502   0.494  0.4184 -0.1466 -0.0122
  358SOL    HW1 1073   1.637   1.454   0.579  0.0434  0.1094 -2.6424
  358SOL    HW2 1074   1.634   1.450   0.409 -2.1452  1.5704  1.6841
  359SOL     OW 1075   1.564   2.630   0.205 -0.4178  0.5148  0.0763
  359SOL    HW1 1076   1.582   2.525   0.183  1.7448 -0.1965 -0.8334
  359SOL    HW2 1077   1.475   2.665   0.178 -0.3459 -2.2291  3.3269
  360SOL     OW 1078   0.829   0.572   0.543 -0.7814 -0.1281 -0.1150
  360SOL    HW1 1079   0.731   0.560   0.583  0.3364 -0.4170 -0.7132
  360SOL    HW2 1080   0.888   0.486   0.556 -1.1698  0.9732  0.0608
  361SOL     OW 1081   1.218   1.302   0.707 -0.6229  0.1190 -0.3178
  361SOL    HW1 1082   1.280   1.377   0.742 -0.6207 -0.8796 -1.2777
  361SOL    HW2 1083   1.115   1.317   0.715  0.5878  0.1374 -0.1602
  362SOL     OW 1084   1.397   1.842   0.821  0.2241 -0.2577  0.2340
  362SOL    HW1 1085   1.425   1.784   0.903  0.9962 -0.0722 -0.4981
  362SOL    HW2 1086   1.482   1.881   0.771  1.9662 -1.5390  0.8570
  363SOL     OW 1087   1.228   1.259   2.036 -0.4893  0.6465  0.0024
  363SOL    HW1 1088   1.271   1.298   2.124  1.4325 -0.0626 -0.4428
  363SOL    HW2 1089   1.226   1.329   1.953 -1.6719  2.4351  0.2124
  364SOL     OW 1090   0.493   2.338   2.004 -0.1672  0.2381 -0.1062
  364SOL    HW1 1091   0.393   2.360   1.982 -0.7812  1.5404 -1.3854
  364SOL    HW2 1092   0.556   2.415   1.968  1.4465 -2.7116  0.0977
  365SOL     OW 1093   1.002   1.930   1.383  0.3547  0.3715 -0.3789
  365SOL    HW1 1094   0.904   1.944   1.419  0.7740  0.1426 -1.5141
  365SOL    HW2 1095   1.002   1.961   1.285 -2.6352  1.2522 -1.3649
  366SOL     OW 1096   2.829   2.014   0.394  0.4906 -0.7772 -0.4432
  366SOL    HW1 1097   2.747   2.002   0.458 -1.3401 -1.1418  1.4500
  366SOL    HW2 1098   2.834   1.943   0.313  0.5973  2.2358 -2.2513
  367SOL     OW 1099   0.896   1.108   0.074 -0.4043 -0.1664 -0.8545
  367SOL    HW1 1100   0.936   1.026   0.123  0.4992  0.1957 -2.6322
  367SOL    HW2 1101   0.963   1.153   0.009 -3.3011  1.6409  0.4060
  368SOL     OW 1102   1.467   0.563   0.697  0.3852  0.8531 -0.4132
  368SOL    HW1 1103   1.410   0.606   0.623 -0.7107 -3.2987  1.3988
  368SOL    HW2 1104   1.564   0.597   0.687 -2.7084 -1.7937  3.8350
  369SOL     OW 1105   0.339   1.688   0.063  0.6550  0.1445 -0.3164
  369SOL    HW1 1106   0.395   1.746   0.127  0.0651 -2.4749  1.6219
  369SOL    HW2 1107   0.246   1.662   0.100  0.0769 -2.1573  1.1522
  370SOL     OW 1108   0.456   2.067   0.984  0.0930 -0.4417  0.2506
  370SOL    HW1 1109   0.437   2.173   0.983  0.7837  1.3855  0.3220
  370SOL    HW2 1110   0.377   2.013   0.942 -0.5268 -1.7269 -3.6265
  371SOL     OW 1111   2.916   2.196   2.648  0.7287  0.6819 -0.1857
  371SOL    HW1 1112   2.847   2.159   2.720 -0.4453 -1.6858  0.4877
  371SOL    HW2 1113   3.013   2.218   2.682 -1.0454 -0.0257 -2.9621
  372SOL     OW 1114   1.114   2.023   1.076 -0.4859 -0.2535 -0.4912
  372SOL    HW1 1115   1.031   2.066   1.033 -0.5540 -0.9237 -1.4105
  372SOL    HW2 1116   1.199   2.071   1.046  0.8689 -1.3294  0.4270
  373SOL     OW 1117   2.021   1.989   0.859 -0.1242 -0.3172 -0.1720
  373SOL    HW1 1118   2.084   1.993   0.941 -1.2998  0.0955  0.3467
  373SOL    HW2 1119   1.919   2.009   0.867 -0.1279 -0.5168 -2.1664
  374SOL     OW 1120   1.859   0.387   0.567  0.8079  0.0060  0.0325
  374SOL    HW1 1121   1.845   0.300   0.630 -1.7894 -3.2651  1.4060
  374SOL    HW2 1122   1.956   0.406   0.563 -1.1577  2.1012 -2.4753
  375SOL     OW 1123   2.386   2.184   1.085 -0.9686 -0.1172  0.2101
  375SOL    HW1 1124   2.443   2.203   0.998 -1.1224  2.3113  0.2314
  375SOL    HW2 1125   2.439   2.134   1.160  1.6301 -0.6500 -1.0534
  376SOL     OW 1126   3.068   0.575   1.472  0.3726  0.2405  0.2017
  376SOL    HW1 1127   3.067   0.656   1.532  1.7795  0.3142 -0.6931
  376SOL    HW2 1128   2.976   0.526   1.462  1.5956 -0.5148  3.3312
  377SOL     OW 1129   2.208   2.898   0.313 -0.4014  0.4387 -0.4791
  377SOL    HW1 1130   2.206   2.994   0.356  1.2939  0.4254  1.0139
  377SOL    HW2 1131   2.302   2.862   0.326 -2.9788  0.5168  0.8129
  378SOL     OW 1132   1.856   1.856   2.610 -0.1202 -0.3552  0.2508
  378SOL    HW1 1133   1.880   1.836   2.708 -1.5226  3.5221  1.2905
  378SOL    HW2 1134   1.823   1.779   2.551 -0.1430  2.7346  1.2497
  379SOL     OW 1135   0.729   0.134   2.905 -0.7758 -0.1397 -0.1495
  379SOL    HW1 1136   0.690   0.045   2.861 -1.9353 -2.2069 -1.3461
  379SOL    HW2 1137   0.740   0.203   2.826  0.5943 -3.3101 -0.8965
  380SOL     OW 1138   1.502   1.135   0.590  0.2460  0.0631  0.3285
  380SOL    HW1 1139   1.402   1.146   0.593  2.0552 -1.1172  2.2309
  380SOL    HW2 1140   1.522   1.031   0.580 -2.1660  0.6696 -1.8732
  381SOL     OW 1141   1.379   1.172   1.554 -0.3201  0.0532 -0.4134
  381SOL    HW1 1142   1.407   1.133   1.460 -0.2130 -1.5209  0.5899
  381SOL    HW2 1143   1.422   1.118   1.634  0.6244 -0.8279 -1.0150
  382SOL     OW 1144   1.763   0.828   0.180 -0.1840 -0.0593  0.1705
  382SOL    HW1 1145   1.786   0.816   0.077 -1.3748  0.9208 -3.4895
  382SOL    HW2 1146   1.837   0.882   0.231 -0.6729  2.4609  0.5071
  383SOL     OW 1147   2.607   0.984   1.467 -0.3339  0.1587 -0.1064
  383SOL    HW1 1148   2.527   0.946   1.419  3.5741 -1.7703  3.1155
  383SOL    HW2 1149   2.693   0.959   1.413  1.8977  1.8513  1.6940
  384SOL     OW 1150   0.909   2.292   0.142  0.4462 -0.4236  0.2113
  384SOL    HW1 1151   0.856   2.352   0.207  3.4166  1.4507  2.2878
  384SOL    HW2 1152   0.912   2.193   0.174  1.3978 -1.3917 -0.6521
  385SOL     OW 1153   3.047   2.051   1.654 -0.0857  0.0970  0.1235
  385SOL    HW1 1154   3.113   2.133   1.634  0.7112 -0.8245 -2.8414
  385SOL    HW2 1155   3.087   1.957   1.652 -2.3699  2.1416 -2.3552
  386SOL     OW 1156   0.491   1.111   0.390  0.3627  0.4277  0.0223
  386SOL    HW1 1157   0.492   1.013   0.423  2.0825  1.3609 -3.2091
  386SOL    HW2 1158   0.404   1.139   0.337  0.1793  2.9916 -2.2377
  387SOL     OW 1159   0.930   0.342   1.624  0.4478 -0.8607 -0.1507
  387SOL    HW1 1160   0.996   0.423   1.642 -0.3241  1.8419 -0.4621
  387SOL    HW2 1161   0.956   0.291   1.537 -1.8645  0.9876  1.1494
  388SOL     OW 1162   1.189   2.615   1.751  0.3337  0.3974 -0.2487
  388SOL    HW1 1163   1.205   2.599   1.649 -5.6159  2.2145  0.7385
  388SOL    HW2 1164   1.260   2.568   1.810 -0.2881  1.7588 -1.4586
  389SOL     OW 1165   0.144   2.986   1.073  0.0877 -0.9082  0.3790
  389SOL    HW1 1166   0.040   2.981   1.086 -0.8881  0.4977 -1.6182
  389SOL    HW2 1167   0.183   2.899   1.108 -2.1612  0.2229 -3.2483
  390SOL     OW 1168   1.035   0.950   1.347 -0.2893  0.3345  0.3033
  390SOL    HW1 1169   1.132   0.914   1.361  0.2750  0.4138 -2.4071
  390SOL    HW2 1170   1.014   1.036   1.394  2.8934 -0.5475  1.8294
  391SOL     OW 1171   2.098   1.127   1.069 -0.1244 -1.0821  0.2779
  391SOL    HW1 1172   2.050   1.054   1.132  2.4595 -3.4150  1.6205
  391SOL    HW2 1173   2.151   1.078   0.997 -2.6297  0.0061  0.9677
  392SOL     OW 1174   0.890   2.702   3.068  0.0186  0.6452  0.1693
  392SOL    HW1 1175   0.845   2.650   3.143  1.0095  4.6743 -1.7951
  392SOL    HW2 1176   0.979   2.745   3.106  1.0980 -2.4149  0.5627
  393SOL     OW 1177   0.305   0.502   1.974  0.5081 -0.0567 -0.5649
  393SOL    HW1 1178   0.245   0.419   1.943 -1.8179 -0.4778  2.0809
  393SOL    HW2 1179   0.389   0.516   1.918  2.1599 -0.4919  2.1236
  394SOL     OW 1180   3.032   1.857   2.775  0.2890 -0.4455  0.8784
  394SOL    HW1 1181   3.120   1.898   2.808  2.1393 -0.4618  1.8974
  394SOL    HW2 1182   3.017   1.872   2.672  2.7649 -0.7438  2.3838
  395SOL     OW 1183   1.618   1.929   0.678 -0.0307 -0.5112  0.7225
  395SOL    HW1 1184   1.689   1.886   0.616  0.6497 -0.9518 -0.4126
  395SOL    HW2 1185   1.662   1.980   0.757  3.5609  1.3955 -1.7978
  396SOL     OW 1186   2.797   1.926   1.343  0.7310 -0.5649 -0.0856
  396SOL    HW1 1187   2.693   1.914   1.313 -1.8151 -2.0037  0.9655
  396SOL    HW2 1188   2.810   2.000   1.416 -1.4659  1.4677 -1.8432
  397SOL     OW 1189   1.014   2.207   0.500  0.5414  0.8725  0.1838
  397SOL    HW1 1190   0.909   2.183   0.507 -3.0633  1.1516 -0.6675
  397SOL    HW2 1191   1.041   2.293   0.545  2.1403 -2.3763  1.4333
  398SOL     OW 1192   2.115   3.060   1.064  0.1581 -0.1290 -0.7278
  398SOL    HW1 1193   2.106   2.951   1.067 -1.1694  0.8616  1.3038
  398SOL    HW2 1194   2.050   3.109   1.129  1.1729  0.4632  2.5001
  399SOL     OW 1195   2.983   2.528   2.615  0.2872 -0.2366 -0.9759
  399SOL    HW1 1196   2.916   2.496   2.545 -3.4333  0.8758 -3.1512
  399SOL    HW2 1197   2.946   2.520   2.711 -0.5762  1.5392 -2.8973
  400SOL     OW 1198   0.787   1.615   1.311 -0.1480  0.1792 -0.2890
  400SOL    HW1 1199   0.755   1.671   1.395 -2.5279  2.8774  0.8770
  400SOL    HW2 1200   0.785   1.674   1.227 -0.6642 -0.4439  2.0530
  401SOL     OW 1201   1.805   0.104   1.364 -0.1944 -0.3264  0.0946
  401SOL    HW1 1202   1.852   0.115   1.456 -1.4882 -0.9292  1.9475
  401SOL    HW2 1203   1.701   0.127   1.369  0.6322 -0.5057  1.9525
  402SOL     OW 1204   1.326   0.153   3.029 -0.3655  0.0656 -0.0713
  402SOL    HW1 1205   1.423   0.139   3.013  0.2214  1.4535  0.0532
  402SOL    HW2 1206   1.304   0.256   3.038  1.4544  0.8407  0.1020
  403SOL     OW 1207   2.305   1.807   0.878 -0.2640 -0.1484 -0.0635
  403SOL    HW1 1208   2.405   1.807   0.918  2.6997 -2.6870 -0.7050
  403SOL    HW2 1209   2.236   1.869   0.923 -1.1372  0.6787  0.4276
  404SOL     OW 1210   0.180   2.498   2.819  0.1926 -0.3187  0.0159
  404SOL    HW1 1211   0.282   2.474   2.809 -0.3699 -3.0421  2.1640
  404SOL    HW2 1212   0.172   2.599   2.838 -0.4436  1.5267 -0.6973
  405SOL     OW 1213   0.176   2.424   0.632  0.1719 -0.4949  0.4275
  405SOL    HW1 1214   0.196   2.385   0.538 -0.8205  0.7487 -0.3875
  405SOL    HW2 1215   0.242   2.499   0.654  3.5928 -0.4175 -0.7491
  406SOL     OW 1216   0.025   1.478   3.003 -0.0425 -0.4270 -0.0000
  406SOL    HW1 1217   0.107   1.426   2.966 -0.8147 -0.0705  1.9348
  406SOL    HW2 1218   0.041   1.573   3.030 -0.7400  2.1792 -0.2745
  407SOL     OW 1219   1.588   0.934   0.916  0.5253  0.4435  0.1138
  407SOL    HW1 1220   1.567   0.887   0.825  0.4985  1.2022  1.6069
  407SOL    HW2 1221   1.512   1.005   0.942 -3.1147 -1.3321  1.1541
  408SOL     OW 1222   1.601   2.315   0.953 -0.4702  0.0094 -0.0440
  408SOL    HW1 1223   1.647   2.328   0.859  1.9234  2.5670 -1.6690
  408SOL    HW2 1224   1.542   2.397   0.978  3.2673 -2.4033 -0.0806
  409SOL     OW 1225   0.668   0.854   0.710  0.5176 -0.3804 -0.1349
  409SOL    HW1 1226   0.621   0.858   0.618  1.1386 -2.3971 -3.4021
  409SOL    HW2 1227   0.666   0.762   0.756  0.2657  2.6314  2.6757
  410SOL     OW 1228   1.252   2.036   1.440 -0.4175  0.4434  0.0351
  410SOL    HW1 1229   1.312   1.977   1.484 -0.3489  1.8120 -0.5966
  410SOL    HW2 1230   1.161   1.993   1.411 -0.4681 -0.5736 -0.2867
  411SOL     OW 1231   2.507   1.846   0.016  0.0346 -0.3218  0.0307
  411SOL    HW1 1232   2.421   1.875  -0.033  0.4160  2.1793  0.7890
  411SOL    HW2 1233   2.590   1.853  -0.050  0.0522  2.1219  1.5582
  412SOL     OW 1234   1.477   2.530   2.184 -0.7283  0.2085  0.3752
  412SOL    HW1 1235   1.522   2.619   2.217 -0.0423  1.1898  0.9154
  412SOL    HW2 1236   1.416   2.487   2.260 -0.8551  1.5621  0.9012
  413SOL     OW 1237   3.092   0.285   2.934 -0.3120  0.3944  0.4862
  413SOL    HW1 1238   3.041   0.200   2.965  0.9375 -0.7513 -1.3546
  413SOL    HW2 1239   3.188   0.296   2.969 -1.5942  5.6566  1.6907
  414SOL     OW 1240   1.824   1.451   1.250  0.2393 -0.2427 -0.5710
  414SOL    HW1 1241   1.764   1.512   1.308  2.3361  0.6735  0.1646
  414SOL    HW2 1242   1.771   1.379   1.198 -2.1439 -3.0167 -2.0654
  415SOL     OW 1243   0.288   2.174   0.739 -0.0273  0.1164  0.0407
  415SOL    HW1 1244   0.288   2.273   0.763  1.0183 -0.1802  0.5913
  415SOL    HW2 1245   0.191   2.132   0.749  1.1013  1.0067 -0.7533
  416SOL     OW 1246   0.361   1.057   1.053 -0.5863 -0.7417  0.1692
  416SOL    HW1 1247   0.340   1.006   0.966 -1.6855  2.1876 -0.3399
  416SOL    HW2 1248   0.454   1.111   1.040  0.3558  0.5950 -1.9268
  417SOL     OW 1249   2.141   2.306   1.912 -0.0549 -0.3538  0.1153
  417SOL    HW1 1250   2.196   2.219   1.902  0.7282 -1.5603  0.9510
  417SOL    HW2 1251   2.043   2.295   1.886  0.7531 -1.0409  1.6029
  418SOL     OW 1252   1.131   0.499   1.316  0.3500  0.3634  0.4852
  418SOL    HW1 1253   1.052   0.447   1.266 -4.1441 -2.6167  0.4221
  418SOL    HW2 1254   1.186   0.560   1.257 -0.0641 -0.7435 -0.7994
  419SOL     OW 1255   0.975   0.373   3.037 -0.5655  0.3715  0.0662
  419SOL    HW1 1256   0.953   0.418   2.947  0.5392 -2.2783 -0.1086
  419SOL    HW2 1257   0.900   0.304   3.051 -2.7472  0.8482  1.3271
  420SOL     OW 1258   0.113   2.264   0.391 -0.5327 -0.1728  0.3509
  420SOL    HW1 1259   0.070   2.269   0.299 -0.9295 -0.1893  1.6685
  420SOL    HW2 1260   0.058   2.206   0.458  1.6667 -0.1675 -0.1005
  421SOL     OW 1261   0.318   2.957   0.704  0.3061 -0.9234 -0.0389
  421SOL    HW1 1262   0.289   2.888   0.780 -0.1778  1.5575  1.9229
  421SOL    HW2 1263   0.418   2.976   0.689 -0.0859 -0.1036  0.2407
  422SOL     OW 1264   0.997   2.565   1.032  0.1594 -0.4086  0.0727
  422SOL    HW1 1265   1.059   2.614   0.970  0.9785 -1.6470  1.3382
  422SOL    HW2 1266   1.025   2.573   1.130  1.0395 -0.2884 -2.4746
  423SOL     OW 1267   0.117   0.679   1.264  0.4672 -0.4336 -0.4228
  423SOL    HW1 1268   0.077   0.633   1.350  0.3646 -2.7558  3.7256
  423SOL    HW2 1269   0.059   0.754   1.231 -1.2367 -1.9035 -0.6900
  424SOL     OW 1270   1.029   2.240   2.045  0.2253 -0.2904 -0.0868
  424SOL    HW1 1271   1.019   2.338   2.009  0.6656 -0.1090  1.2050
  424SOL    HW2 1272   1.037   2.239   2.151 -0.8427 -3.8924  0.7980
  425SOL     OW 1273   1.989   1.436   0.972  0.0228 -0.1299  0.4489
  425SOL    HW1 1274   2.015   1.337   0.995  2.2385 -2.6541 -0.8331
  425SOL    HW2 1275   2.073   1.482   0.926  2.1874  2.7646  0.4989
  426SOL     OW 1276   1.546   1.565   1.382  0.4680  0.7564 -0.2412
  426SOL    HW1 1277   1.529   1.655   1.331 -0.5373  1.8271  0.1444
  426SOL    HW2 1278   1.470   1.552   1.457 -1.2876 -0.2763 -0.1046
  427SOL     OW 1279   1.851   2.345   2.058 -0.0032 -0.2732 -0.1943
  427SOL    HW1 1280   1.917   2.303   2.122  1.4819 -0.2703 -1.3885
  427SOL    HW2 1281   1.872   2.448   2.047  0.0919  0.9452  0.6969
  428SOL     OW 1282   0.865   2.990   0.194 -0.3555  0.5191  0.0612
  428SOL    HW1 1283   0.864   3.081   0.137 -0.0386  0.2085 -1.3598
  428SOL    HW2 1284   0.944   2.931   0.162  1.1680  3.3661 -1.1612
  429SOL     OW 1285   1.336   0.098   0.220 -0.0318  0.3179 -0.0092
  429SOL    HW1 1286   1.430   0.135   0.252 -0.4896  1.9172  1.7746
  429SOL    HW2 1287   1.325   0.100   0.117 -0.3391  0.3708  1.1278
  430SOL     OW 1288   2.789   1.424   0.392  0.2050 -0.4815 -0.1027
  430SOL    HW1 1289   2.849   1.456   0.315 -0.4149 -0.6208 -0.3174
  430SOL    HW2 1290   2.793   1.484   0.483  1.4701 -0.0507 -1.3052
  431SOL     OW 1291   2.163   1.580   0.809 -0.0624 -0.1828  0.2322
  431SOL    HW1 1292   2.228   1.644   0.853  1.3397 -0.2585 -2.0531
  431SOL    HW2 1293   2.072   1.625   0.790  1.1879  1.0927 -0.1165
  432SOL     OW 1294   2.875   2.233   1.246  0.5491  0.5694 -0.0665
  432SOL    HW1 1295   2.819   2.149   1.270 -0.5477  0.3956 -4.2429
  432SOL    HW2 1296   2.921   2.275   1.334  0.7864  0.5976 -0.8419
  433SOL     OW 1297   1.934   0.392   0.867  0.0990 -0.3353  0.1893
  433SOL    HW1 1298   1.864   0.329   0.909  1.0497  1.2138 -0.5836
  433SOL    HW2 1299   2.023   0.403   0.918 -0.0188  1.6130  1.4081
  434SOL     OW 1300   1.530   0.304   0.783  0.0794  0.2206 -0.1316
  434SOL    HW1 1301   1.514   0.398   0.755  1.8772 -2.5680  2.8021
  434SOL    HW2 1302   1.604   0.296   0.857 -0.0105  0.2594 -1.5036
  435SOL     OW 1303   1.432   1.434   2.141  0.2072  0.2619  0.8551
  435SOL    HW1 1304   1.369   1.498   2.204  0.2250 -0.7655  1.2475
  435SOL    HW2 1305   1.452   1.482   2.054  0.8232 -2.2671  0.8609
  436SOL     OW 1306   1.686   2.723   2.243  0.0062  0.0673 -1.0527
  436SOL    HW1 1307   1.650   2.796   2.303 -0.1143 -0.6065 -0.5270
  436SOL    HW2 1308   1.722   2.640   2.300  0.6853 -0.9109  1.1583
  437SOL     OW 1309   1.049   2.911   0.912 -0.2777  0.0548 -0.2997
  437SOL    HW1 1310   1.019   3.003   0.869 -1.2965  3.0234  1.2539
  437SOL    HW2 1311   1.006   2.910   1.009 -1.0789 -0.5006  2.1250
  438SOL     OW 1312   1.031   2.570   1.313 -0.0429  0.2208  0.0175
  438SOL    HW1 1313   1.102   2.609   1.379 -1.5028 -1.8490  0.7292
  438SOL    HW2 1314   1.007   2.471   1.327 -0.2490 -1.0550 -0.0100
  439SOL     OW 1315   0.708   1.722   1.060  0.2595 -0.4408 -0.2140
  439SOL    HW1 1316   0.717   1.818   1.025  0.9424 -0.5037  3.8015
  439SOL    HW2 1317   0.614   1.697   1.095  0.3387  0.0084 -2.1411
  440SOL     OW 1318   0.982   2.489   1.948  0.3349  0.1014  0.1464
  440SOL    HW1 1319   0.932   2.508   1.862  0.9135 -0.7042  2.9985
  440SOL    HW2 1320   1.082   2.520   1.941  0.8880  1.3344  2.4722
  441SOL     OW 1321   0.410   2.758   1.396  0.8818 -0.8136  0.0121
  441SOL    HW1 1322   0.460   2.668   1.413 -1.5823  0.7051 -0.7949
  441SOL    HW2 1323   0.391   2.776   1.297 -2.3838  1.0557 -1.3708
  442SOL     OW 1324   2.309   0.666   2.490  0.2338  0.0371 -0.8238
  442SOL    HW1 1325   2.303   0.564   2.493  1.7381 -1.1945  1.0436
  442SOL    HW2 1326   2.221   0.720   2.514 -0.7815  0.4962 -0.5377
  443SOL     OW 1327   1.208   2.730   2.190 -0.1499 -0.1890 -0.2088
  443SOL    HW1 1328   1.266   2.750   2.275  3.6923  1.4284  0.7127
  443SOL    HW2 1329   1.166   2.639   2.200  0.6485  1.1431 -4.7714
  444SOL     OW 1330   1.150   1.312   1.598 -0.1637  0.4616  0.3881
  444SOL    HW1 1331   1.238   1.260   1.585 -0.8646 -0.3538  0.6015
  444SOL    HW2 1332   1.153   1.384   1.675 -3.0522  0.9363  1.0645
  445SOL     OW 1333   0.020   2.417   1.891 -0.4916  0.1117 -0.1917
  445SOL    HW1 1334  -0.001   2.485   1.818 -0.2240 -0.2598  0.8676
  445SOL    HW2 1335  -0.064   2.370   1.931  1.3259  3.5599 -0.6037
  446SOL     OW 1336   0.270   1.918   2.351 -0.1727  0.2991  0.9204
  446SOL    HW1 1337   0.205   1.981   2.396  2.7943 -3.4958 -0.6292
  446SOL    HW2 1338   0.229   1.848   2.282  0.6034 -0.1915  0.6680
  447SOL     OW 1339   1.230   1.713   1.918  0.3088  0.0212  0.3418
  447SOL    HW1 1340   1.135   1.753   1.931  2.1541  0.0629 -0.6686
  447SOL    HW2 1341   1.310   1.778   1.935 -0.5174  0.0492  2.3851
  448SOL     OW 1342   0.127   1.468   2.001  0.2907  0.3699 -0.2467
  448SOL    HW1 1343   0.091   1.557   1.964  0.3742 -1.6249 -1.4416
  448SOL    HW2 1344   0.107   1.457   2.104  0.8601  1.3438 -2.3267
  449SOL     OW 1345   1.844   3.009   0.859  0.4598  0.4560 -0.1127
  449SOL    HW1 1346   1.860   3.011   0.961  4.5959  0.0718  0.1470
  449SOL    HW2 1347   1.865   2.916   0.812 -0.3564 -2.0907 -1.5440
  450SOL     OW 1348   2.394   1.466   0.711 -0.2275  0.2864 -0.5122
  450SOL    HW1 1349   2.297   1.471   0.754 -1.4544 -0.4658 -1.6890
  450SOL    HW2 1350   2.396   1.486   0.608  2.6733  0.9381  2.1911
  451SOL     OW 1351   1.378   3.002   1.433  0.1121 -0.2135  0.0463
  451SOL    HW1 1352   1.304   3.076   1.443  2.0177  0.4209 -1.4483
  451SOL    HW2 1353   1.385   2.945   1.519 -2.3119  2.2479  0.9766
  452SOL     OW 1354   2.708   2.278   2.181  0.2984  0.0011  0.0710
  452SOL    HW1 1355   2.651   2.363   2.214 -0.7106 -0.4812  0.2588
  452SOL    HW2 1356   2.753   2.231   2.260  0.9802  2.3001 -0.9854
  453SOL     OW 1357   2.468   2.643   0.007 -0.2552  0.7839  0.6295
  453SOL    HW1 1358   2.375   2.696   0.013  3.0387 -0.4079  0.6563
  453SOL    HW2 1359   2.468   2.567  -0.068  0.8856  0.4920  0.3035
  454SOL     OW 1360   0.958   1.148   2.092  0.3096  0.1275  0.1081
  454SOL    HW1 1361   0.946   1.155   1.988  1.2543  1.2323 -0.0965
  454SOL    HW2 1362   1.040   1.203   2.127 -0.6518 -0.2750  1.0692
  455SOL     OW 1363   0.636   2.692   2.896 -0.3756  0.1182  0.9281
  455SOL    HW1 1364   0.729   2.721   2.924  2.8498  0.9663  1.7314
  455SOL    HW2 1365   0.610   2.592   2.909 -1.2849  0.2151  1.1876
  456SOL     OW 1366   0.452   1.873   0.252 -0.2228 -0.4682 -0.4981
  456SOL    HW1 1367   0.528   1.822   0.307 -1.2050 -1.3689 -0.8339
  456SOL    HW2 1368   0.477   1.973   0.252 -1.1348 -0.1333  1.5435
  457SOL     OW 1369   0.328   2.634   0.602 -0.6058  0.3678  0.5573
  457SOL    HW1 1370   0.312   2.725   0.560  2.5883 -2.4876  2.4503
  457SOL    HW2 1371   0.405   2.588   0.545 -2.1553 -0.7524 -0.3061
  458SOL     OW 1372   2.912   3.079   1.266  0.4571 -0.4128 -0.3782
  458SOL    HW1 1373   2.976   3.158   1.290 -1.6592 -1.5413  0.7681
  458SOL    HW2 1374   2.941   3.035   1.178 -0.5009  0.7716  0.7059
  459SOL     OW 1375   2.130   2.582   0.788  0.7008 -0.6490  0.7450
  459SOL    HW1 1376   2.190   2.666   0.813 -2.2329 -0.8261  2.3910
  459SOL    HW2 1377   2.125   2.563   0.687 -0.4785 -1.5595  0.7219
  460SOL     OW 1378   1.244   2.042   2.833  0.0028 -0.4119  0.4730
  460SOL    HW1 1379   1.211   2.093   2.746  2.4932  2.6433  0.3785
  460SOL    HW2 1380   1.256   1.937   2.821  0.0532 -2.5428 -3.5377
  461SOL     OW 1381   0.549   2.129   2.636  0.0580 -0.6144  0.3534
  461SOL    HW1 1382   0.485   2.049   2.635  0.8198 -2.9521 -0.7094
  461SOL    HW2 1383   0.599   2.129   2.726 -0.5175  1.9253 -1.0986
  462SOL     OW 1384   0.967   1.156   1.820 -0.4898 -0.1128  0.4286
  462SOL    HW1 1385   1.042   1.122   1.755  0.1852  0.3038 -4.2237
  462SOL    HW2 1386   0.925   1.247   1.791 -0.1057  0.0578 -2.9874
  463SOL     OW 1387   0.476   0.846   0.486 -0.3994 -0.3320 -0.7323
  463SOL    HW1 1388   0.507   0.747   0.504  2.7338 -0.2667  3.7449
  463SOL    HW2 1389   0.374   0.851   0.480  3.0219  1.0025 -0.3910
  464SOL     OW 1390   0.627   2.293   2.242  0.5129  0.1163  0.1526
  464SOL    HW1 1391   0.585   2.365   2.309  1.1585 -0.6905  0.7324
  464SOL    HW2 1392   0.589   2.306   2.147  1.8961 -2.0998  0.2451
  465SOL     OW 1393   0.253   0.953   0.788  0.5002  0.2218 -1.0668
  465SOL    HW1 1394   0.170   0.974   0.730  1.9756 -1.1160  4.3997
  465SOL    HW2 1395   0.270   0.853   0.793 -0.2179 -0.3262 -2.2132
  466SOL     OW 1396   1.408   1.152   1.000  0.0647 -0.3434  0.3324
  466SOL    HW1 1397   1.419   1.253   0.971  2.7503 -1.1283 -0.5386
  466SOL    HW2 1398   1.312   1.127   1.032  2.0905  0.9469 -1.7598
  467SOL     OW 1399   0.507   0.364   2.400 -0.4788 -0.4894  0.1002
  467SOL    HW1 1400   0.459   0.459   2.412 -1.3271 -2.6384  0.8963
  467SOL    HW2 1401   0.502   0.301   2.481  0.2630  1.7791 -1.7696
  468SOL     OW 1402   0.469   2.286   1.657 -0.0425  0.0045  0.0636
  468SOL    HW1 1403   0.534   2.346   1.704 -1.4320 -0.4545  0.3891
  468SOL    HW2 1404   0.473   2.286   1.551 -3.1743  0.9749  1.3662
  469SOL     OW 1405   1.462   1.402   1.162  0.5301  0.3801  0.2268
  469SOL    HW1 1406   1.550   1.356   1.146 -0.9311  2.1918  1.3843
  469SOL    HW2 1407   1.464   1.484   1.228  0.8720  3.4456  0.1605
  470SOL     OW 1408   3.017   1.720   0.702  0.2751 -0.9051 -0.1320
  470SOL    HW1 1409   3.067   1.811   0.680  3.1608  0.6940 -1.1660
  470SOL    HW2 1410   3.002   1.699   0.805 -2.8483  0.3806 -0.2771
  471SOL     OW 1411   2.700   1.263   2.139  0.0949  0.1557 -0.1020
  471SOL    HW1 1412   2.661   1.217   2.228 -0.4234  0.5664  3.1031
  471SOL    HW2 1413   2.762   1.342   2.160  0.0712  0.1238 -2.3351
  472SOL     OW 1414   1.159   2.455   0.030  0.5188  0.0562 -0.3233
  472SOL    HW1 1415   1.218   2.445   0.115  2.8332  0.5334 -2.3864
  472SOL    HW2 1416   1.059   2.454   0.058  0.0336  1.4659 -0.8483
  473SOL     OW 1417   1.080   1.546   1.010 -0.1494  0.0767 -0.0578
  473SOL    HW1 1418   0.982   1.540   0.976  3.2459 -0.3157  0.7901
  473SOL    HW2 1419   1.109   1.458   1.057 -2.5132 -2.7167 -0.4678
  474SOL     OW 1420   0.668   1.290   0.567  0.1207  0.1246  0.5999
  474SOL    HW1 1421   0.628   1.254   0.477  2.0013  0.0153 -1.6210
  474SOL    HW2 1422   0.729   1.215   0.614  0.7254 -0.7304  1.3638
  475SOL     OW 1423   2.840   0.060   0.785  0.1462  0.1256 -0.3429
  475SOL    HW1 1424   2.924   0.099   0.837 -0.2144  0.7380  2.8093
  475SOL    HW2 1425   2.748   0.103   0.823  0.0321  2.2408  1.2598
  476SOL     OW 1426   0.992   3.056   1.819  0.1374 -0.3388 -0.0786
  476SOL    HW1 1427   1.038   2.988   1.883 -2.0017 -0.8974  1.0202
  476SOL    HW2 1428   1.010   3.035   1.721  2.3386 -1.0170 -0.3454
  477SOL     OW 1429   1.435   0.328   2.478  0.6630  0.0034  0.4588
  477SOL    HW1 1430   1.425   0.341   2.581  0.1550 -0.9239 -1.9320
  477SOL    HW2 1431   1.523   0.280   2.437  2.0930 -0.7743  0.7028
  478SOL     OW 1432   2.223   1.847   0.201 -0.7595  0.0682  0.4336
  478SOL    HW1 1433   2.165   1.780   0.255 -0.4398 -0.4046  0.2627
  478SOL    HW2 1434   2.326   1.827   0.216  3.0572 -1.7804  1.1468
  479SOL     OW 1435   1.269   1.025   2.920  0.2704  0.7068  0.4922
  479SOL    HW1 1436   1.354   1.039   2.853  3.3146 -2.1945 -3.8475
  479SOL    HW2 1437   1.184   1.007   2.866 -0.0709 -1.1054  0.9997
  480SOL     OW 1438   2.606   2.356   0.390 -0.9408  0.2365  0.3232
  480SOL    HW1 1439   2.561   2.284   0.452 -1.1810  0.6968 -0.4542
  480SOL    HW2 1440   2.548   2.393   0.311 -1.1940  0.5890  0.2942
  481SOL     OW 1441   0.982   1.138   0.884  0.0349 -0.4713 -0.5461
  481SOL    HW1 1442   0.987   1.231   0.837  0.5198  1.6752 -0.6188
  481SOL    HW2 1443   1.040   1.129   0.970  2.4635 -1.0820 -0.8546
  482SOL     OW 1444   1.581   0.284   2.039  0.2487 -0.9319  0.1515
  482SOL    HW1 1445   1.589   0.391   2.022 -2.1153  1.0937  2.5724
  482SOL    HW2 1446   1.658   0.248   2.097 -3.3637 -0.0792 -0.1064
  483SOL     OW 1447   0.127   2.328   1.269 -0.2292 -0.0202  0.0476
  483SOL    HW1 1448   0.049   2.333   1.337  0.3639  0.9701 -0.4198
  483SOL    HW2 1449   0.172   2.418   1.250 -0.7485 -0.8032 -0.8362
  484SOL     OW 1450   1.751   1.093   1.341 -0.5066  0.1399 -0.1213
  484SOL    HW1 1451   1.806   1.006   1.358  1.4869 -1.0208  0.7896
  484SOL    HW2 1452   1.761   1.169   1.412 -0.1041  0.8446  0.4683
  485SOL     OW 1453   0.713   1.024   1.813 -0.2230  0.2654  0.3446
  485SOL    HW1 1454   0.695   1.026   1.710  2.4987 -1.6730  2.2725
  485SOL    HW2 1455   0.813   1.060   1.823  1.9889  1.0925 -0.0507
  486SOL     OW 1456   0.824   1.920   2.446 -0.0365  0.2392  0.6999
  486SOL    HW1 1457   0.865   1.897   2.538  3.5374 -1.4811  0.5701
  486SOL    HW2 1458   0.793   2.021   2.430  0.6539  3.1434 -1.7953
  487SOL     OW 1459   1.814   1.669   0.953  0.2558 -0.0339 -0.0027
  487SOL    HW1 1460   1.876   1.590   0.978 -0.7449  1.2131 -1.9142
  487SOL    HW2 1461   1.803   1.696   0.851  1.3403  2.5057 -0.8351
  488SOL     OW 1462   2.976   0.876   2.213  0.0248 -0.4901  0.5353
  488SOL    HW1 1463   3.001   0.779   2.186  1.8020  0.5596  0.0188
  488SOL    HW2 1464   2.995   0.896   2.314 -0.8435 -0.4807  0.3250
  489SOL     OW 1465   2.772   0.287   1.270 -0.0349 -0.9932 -0.0841
  489SOL    HW1 1466   2.743   0.330   1.364 -2.1732 -0.0691  1.9533
  489SOL    HW2 1467   2.864   0.238   1.271  1.9020 -3.3789  1.4539
  490SOL     OW 1468   1.521   2.963   2.769 -0.4187 -0.0008  0.0738
  490SOL    HW1 1469   1.543   2.863   2.775  3.1315  1.6432 -0.9006
  490SOL    HW2 1470   1.465   2.990   2.683 -1.2875  0.2352 -2.1924
  491SOL     OW 1471   1.749   1.451   2.630  0.5218  0.6147  0.1472
  491SOL    HW1 1472   1.668   1.456   2.693  0.1152  3.0744 -3.0350
  491SOL    HW2 1473   1.842   1.486   2.669  0.6081  1.6459  0.6893
  492SOL     OW 1474   0.543   2.072   0.671 -0.4711 -0.7670  0.3524
  492SOL    HW1 1475   0.573   2.061   0.768 -2.5830 -2.0652 -2.0180
  492SOL    HW2 1476   0.447   2.111   0.665 -2.8932 -0.0898  2.3019
  493SOL     OW 1477   0.419   1.427   2.021 -0.8412 -0.3796  0.2060
  493SOL    HW1 1478   0.325   1.468   1.996  1.6386 -2.7170 -0.2215
  493SOL    HW2 1479   0.413   1.353   2.091 -1.3314  1.0915  1.5761
  494SOL     OW 1480   2.734   2.687   0.156  0.1138 -0.2315  0.1813
  494SOL    HW1 1481   2.716   2.633   0.242  0.5567 -2.2073 -1.9454
  494SOL    HW2 1482   2.642   2.687   0.099 -1.3111 -1.7224  2.0301
  495SOL     OW 1483   2.697   2.693   2.750 -0.0468 -0.4615  0.0130
  495SOL    HW1 1484   2.638   2.619   2.714 -1.8181 -2.3810  0.3956
  495SOL    HW2 1485   2.738   2.744   2.671  1.8995 -1.5918 -0.2189
  496SOL     OW 1486   2.086   2.232   0.698  0.1807  0.6179 -0.1416
  496SOL    HW1 1487   2.091   2.258   0.801  0.3420 -0.1638 -1.9376
  496SOL    HW2 1488   2.129   2.141   0.676  0.6621 -0.2481  1.2836
  497SOL     OW 1489   0.249   2.977   2.412  0.5087 -0.0574 -0.0060
  497SOL    HW1 1490   0.204   3.061   2.460  0.6356 -0.3365  0.5608
  497SOL    HW2 1491   0.291   2.997   2.317  0.6971  1.7405  1.7133
  498SOL     OW 1492   1.176   1.355   1.212  0.1702  0.3899  0.6923
  498SOL    HW1 1493   1.269   1.381   1.172  0.2414  1.0565 -0.9406
  498SOL    HW2 1494   1.150   1.413   1.293  0.6827 -1.8932  1.9461
  499SOL     OW 1495   0.675   1.807   0.420  0.3007  1.0944  0.9078
  499SOL    HW1 1496   0.699   1.705   0.434 -0.5429  0.0161  0.9441
  499SOL    HW2 1497   0.755   1.864   0.444  0.6372 -1.1136 -0.2244
  500SOL     OW 1498   1.406   2.839   1.644 -0.3799 -0.3326  0.7536
  500SOL    HW1 1499   1.319   2.807   1.679 -1.8232  0.1268 -1.2838
  500SOL    HW2 1500   1.484   2.772   1.663  4.1991  3.6253 -0.7635
  501SOL     OW 1501   0.788   1.141   2.304 -0.4566  0.1943  0.1830
  501SOL    HW1 1502   0.689   1.102   2.293  0.4283  0.7755  1.0784
  501SOL    HW2 1503   0.838   1.149   2.214  1.9463  0.6513 -1.0355
  502SOL     OW 1504   2.576   0.978   1.732  0.3320  0.2463  0.3610
  502SOL    HW1 1505   2.578   0.991   1.630 -0.6756 -0.9695  1.9992
  502SOL    HW2 1506   2.548   0.879   1.756 -2.4302 -1.5865  1.8810
  503SOL     OW 1507   1.328   0.121   0.704 -0.1892 -0.3873  0.2511
  503SOL    HW1 1508   1.278   0.187   0.637  0.2908  0.0221 -3.2689
  503SOL    HW2 1509   1.394   0.172   0.764  1.2632 -0.8632 -0.8514
  504SOL     OW 1510   2.996   2.338   1.481  0.1305 -0.3346 -0.2621
  504SOL    HW1 1511   2.928   2.413   1.513  0.9544 -0.7167  2.4894
  504SOL    HW2 1512   3.060   2.304   1.559 -4.8812 -2.3304 -0.4382
  505SOL     OW 1513   2.322   1.190   1.432 -0.0872 -0.2683  0.0367
  505SOL    HW1 1514   2.291   1.208   1.338 -1.1338 -1.4182 -1.7822
  505SOL    HW2 1515   2.415   1.241   1.450  3.2815  2.1533  0.8388
  506SOL     OW 1516   1.963   0.178   1.810  0.4956 -0.6344 -0.1301
  506SOL    HW1 1517   2.029   0.112   1.846  1.2319 -0.7684  2.1254
  506SOL    HW2 1518   1.960   0.265   1.865 -0.6023  0.6733  1.5591
  507SOL     OW 1519   0.521   0.679   2.135 -0.0280  0.0623  0.2169
  507SOL    HW1 1520   0.449   0.653   2.064 -0.0072 -1.1551 -0.1301
  507SOL    HW2 1521   0.620   0.627   2.125  3.0836  0.1292 -1.9214
  508SOL     OW 1522   0.296   1.626   0.804 -0.2891  0.4185  0.5028
  508SOL    HW1 1523   0.363   1.680   0.744  1.1351 -1.6587  1.9914
  508SOL    HW2 1524   0.276   1.669   0.897  1.5622  1.6391 -2.2194
  509SOL     OW 1525   1.186   1.273   2.350  0.0870  0.3838  0.2063
  509SOL    HW1 1526   1.220   1.198   2.293  3.2755 -1.7548 -1.9807
  509SOL    HW2 1527   1.117   1.247   2.417  2.8931  3.0331 -2.0700
  510SOL     OW 1528   1.264   2.058   2.198 -0.0622 -0.6794 -0.3605
  510SOL    HW1 1529   1.268   2.117   2.110  1.6423  0.0986 -3.4043
  510SOL    HW2 1530   1.167   2.056   2.241  0.5310 -0.2226 -0.6183
  511SOL     OW 1531   3.032   2.730   1.305  0.6285  0.5001 -0.0323
  511SOL    HW1 1532   3.017   2.719   1.207 -1.3283  1.1774  2.7662
  511SOL    HW2 1533   2.947   2.759   1.353  2.1780  0.0811  1.3136
  512SOL     OW 1534   2.380   0.395   1.380  0.0737 -0.4502 -0.3051
  512SOL    HW1 1535   2.281   0.411   1.396  0.5065 -0.1351 -0.4611
  512SOL    HW2 1536   2.413   0.375   1.286 -0.0273 -2.5353  3.9024
  513SOL     OW 1537   2.585   2.079   0.885 -0.3029 -0.3524 -0.5595
  513SOL    HW1 1538   2.553   2.132   0.802 -0.5079 -1.6097 -1.2981
  513SOL    HW2 1539   2.680   2.031   0.862  1.3251  1.4980 -0.4706
  514SOL     OW 1540   0.616   2.741   0.439 -0.0260  0.1020 -0.9472
  514SOL    HW1 1541   0.622   2.795   0.351  0.4949  0.6424  1.1954
  514SOL    HW2 1542   0.670   2.786   0.516  0.1319  1.3823 -0.3954
  515SOL     OW 1543   1.967   1.228   2.374  0.2634 -0.4383  0.0242
  515SOL    HW1 1544   1.978   1.216   2.276 -0.3710 -0.2135  0.7281
  515SOL    HW2 1545   1.872   1.208   2.393  3.0014 -0.3471 -4.1279
  516SOL     OW 1546   0.237   0.259   1.888 -0.6559  0.4412 -0.8088
  516SOL    HW1 1547   0.332   0.230   1.893 -2.0432  0.5056  0.7864
  516SOL    HW2 1548   0.168   0.181   1.888  1.5901 -0.0736  1.9781
  517SOL     OW 1549   0.396   0.012   1.116  0.3495 -0.4300  0.0496
  517SOL    HW1 1550   0.413   0.100   1.165  0.4293  0.0461  1.2256
  517SOL    HW2 1551   0.298  -0.015   1.128 -2.1346  2.7511 -0.9179
  518SOL     OW 1552   2.180   3.047   1.827 -0.0357  0.2890  0.0468
  518SOL    HW1 1553   2.234   3.131   1.860  0.0373  2.6017  4.4305
  518SOL    HW2 1554   2.177   3.029   1.724  2.0382  1.1719 -0.9556
  519SOL     OW 1555   2.353   2.149   2.507 -0.9812  0.2131  0.3927
  519SOL    HW1 1556   2.302   2.135   2.600  0.4998 -1.2378  0.7368
  519SOL    HW2 1557   2.366   2.251   2.487  0.5100  1.1160  0.3633
  520SOL     OW 1558   1.827   2.744   1.781 -0.4714  0.4373 -0.3007
  520SOL    HW1 1559   1.738   2.745   1.839 -1.3056  1.3900 -3.0846
  520SOL    HW2 1560   1.845   2.655   1.731 -1.3482 -0.8215 -0.1195
  521SOL     OW 1561   0.575   3.060   2.060 -0.1114  0.5169  1.0956
  521SOL    HW1 1562   0.475   3.057   2.080  0.8783 -2.2684 -0.0996
  521SOL    HW2 1563   0.637   3.049   2.144  2.6842 -0.7590  0.3902
  522SOL     OW 1564   0.243   1.874   1.468  0.1514 -0.1683  0.0543
  522SOL    HW1 1565   0.274   1.939   1.546 -0.0457  0.0586 -0.1975
  522SOL    HW2 1566   0.189   1.924   1.393 -0.0395  0.6602  2.1695
  523SOL     OW 1567   2.221   2.950   1.557  0.2322  0.6482  0.6673
  523SOL    HW1 1568   2.306   2.887   1.573  1.7911  0.4198 -2.6122
  523SOL    HW2 1569   2.157   2.906   1.480 -0.3184 -1.8674 -0.8036
  524SOL     OW 1570   0.174   2.793   2.809 -0.1093 -0.0159 -0.1579
  524SOL    HW1 1571   0.130   2.892   2.823  0.5068  2.8078 -2.8184
  524SOL    HW2 1572   0.279   2.797   2.805  2.1752  0.1164 -0.1585
  525SOL     OW 1573   2.168   2.033   0.389 -0.0497  0.1094  0.3551
  525SOL    HW1 1574   2.192   1.963   0.460  1.3901  1.7692 -0.3449
  525SOL    HW2 1575   2.197   2.007   0.290  1.5275 -1.1003  1.3737
  526SOL     OW 1576   0.455   1.511   1.651 -0.5818  0.8005 -0.2533
  526SOL    HW1 1577   0.532   1.519   1.722  0.5087  0.5461  1.3564
  526SOL    HW2 1578   0.469   1.421   1.602 -0.8299  0.5220  3.9712
  527SOL     OW 1579   1.025   2.884   1.239  0.6051  0.6381 -0.1563
  527SOL    HW1 1580   1.111   2.835   1.213 -0.2815  0.8286  1.4871
  527SOL    HW2 1581   1.040   2.986   1.224 -0.3989 -1.0863  0.6634
  528SOL     OW 1582   1.378   2.384   0.541  0.5493  0.9161 -0.1553
  528SOL    HW1 1583   1.412   2.285   0.540 -1.7791  2.9423  0.3735
  528SOL    HW2 1584   1.435   2.443   0.607  1.2240 -0.7077  0.6935
  529SOL     OW 1585   1.972   1.742   0.721 -0.1639 -0.4744 -0.3284
  529SOL    HW1 1586   1.893   1.768   0.661  3.3628  2.1007 -0.0065
  529SOL    HW2 1587   1.997   1.828   0.778 -0.7980  0.1229  1.1816
  530SOL     OW 1588   0.328   2.616   0.262  0.1966 -0.3624 -0.1403
  530SOL    HW1 1589   0.315   2.688   0.341  0.1436 -2.2788  0.6894
  530SOL    HW2 1590   0.311   2.518   0.291 -0.9562 -0.7467  2.2971
  531SOL     OW 1591   1.835   1.011   1.012  0.3183 -0.5499 -0.9496
  531SOL    HW1 1592   1.864   1.103   0.980 -0.2729 -0.3084  0.5258
  531SOL    HW2 1593   1.759   0.979   0.949  1.8305 -0.4792  1.1648
  532SOL     OW 1594   0.374   1.185   0.691 -0.2421 -0.3841  0.4495
  532SOL    HW1 1595   0.404   1.179   0.590 -0.0792  1.7441  0.5439
  532SOL    HW2 1596   0.349   1.088   0.730 -0.8524 -1.5472  3.2443
  533SOL     OW 1597   1.753   0.016   2.575 -0.7428 -0.2574  0.3397
  533SOL    HW1 1598   1.846  -0.009   2.607 -3.3862  0.7795  0.9222
  533SOL    HW2 1599   1.714   0.081   2.641  1.3298 -0.1831 -2.8242
  534SOL     OW 1600   0.335   0.184   1.603  0.5443  0.1661  0.7966
  534SOL    HW1 1601   0.394   0.187   1.515 -0.8407  0.1555 -1.8616
  534SOL    HW2 1602   0.270   0.271   1.613 -1.3738  2.1669  1.3027
  535SOL     OW 1603   1.909   0.416   0.224 -0.1886 -0.1431 -0.5295
  535SOL    HW1 1604   1.936   0.493   0.288 -1.5700 -1.5354 -1.5302
  535SOL    HW2 1605   1.853   0.340   0.271  2.3567  0.4763 -1.7712
  536SOL     OW 1606   1.431   2.558   0.973  0.3324 -0.3675 -0.0811
  536SOL    HW1 1607   1.394   2.527   1.067  2.1930  1.4052 -0.8614
  536SOL    HW2 1608   1.360   2.606   0.912 -0.0426 -0.0271 -0.6294
  537SOL     OW 1609   0.810   0.190   2.325 -0.4912 -0.1274  0.0622
  537SOL    HW1 1610   0.827   0.254   2.245  4.1107  3.9632  2.9590
  537SOL    HW2 1611   0.754   0.105   2.305 -0.0852  0.1288 -3.4499
  538SOL     OW 1612   1.693   2.360   1.521 -0.0559 -0.1631 -0.1467
  538SOL    HW1 1613   1.645   2.269   1.508 -1.5689  1.4353  0.4143
  538SOL    HW2 1614   1.782   2.354   1.467 -0.9998  1.5801  1.8551
  539SOL     OW 1615   0.205   1.555   2.718  0.4226  0.2273  0.2356
  539SOL    HW1 1616   0.143   1.562   2.633 -0.6118 -0.5681 -0.2071
  539SOL    HW2 1617   0.182   1.624   2.794 -1.1997  0.6399  2.2254
  540SOL     OW 1618   2.727   1.682   1.981 -0.3957 -0.3785 -0.2149
  540SOL    HW1 1619   2.771   1.608   2.042  2.2448 -2.0551 -2.0349
  540SOL    HW2 1620   2.632   1.703   2.019  0.5532 -0.6314 -0.7162
  541SOL     OW 1621   0.460   2.286  -0.001  0.1266 -0.5470  0.6710
  541SOL    HW1 1622   0.462   2.219   0.073 -0.1693 -0.9335 -1.2547
  541SOL    HW2 1623   0.362   2.277  -0.040 -1.6766  0.3770  0.8042
  542SOL     OW 1624   2.272   2.556   0.406  0.3771 -0.2589  0.3424
  542SOL    HW1 1625   2.266   2.656   0.382  1.5513 -1.1979 -2.4043
  542SOL    HW2 1626   2.185   2.508   0.436  0.3691  0.0102  0.6594
  543SOL     OW 1627   1.075   1.784   1.643 -0.4776  0.9911 -0.7753
  543SOL    HW1 1628   1.036   1.817   1.732  0.0221 -0.7043 -1.0126
  543SOL    HW2 1629   1.058   1.849   1.561  0.9302  1.7012  1.3565
  544SOL     OW 1630   1.024   0.411   0.209 -0.4029  1.0102 -0.1960
  544SOL    HW1 1631   1.030   0.316   0.243  1.9241  3.3848 -0.6303
  544SOL    HW2 1632   1.008   0.405   0.110 -0.7973 -4.6709  2.2575
  545SOL     OW 1633   1.112   1.816   0.807  0.4681  0.0258 -0.4354
  545SOL    HW1 1634   1.207   1.856   0.794  0.8490  1.8574 -1.8596
  545SOL    HW2 1635   1.113   1.726   0.862  0.2180 -1.6038  0.2961
  546SOL     OW 1636   2.636   1.505   0.022  0.3719 -0.3126 -0.2734
  546SOL    HW1 1637   2.579   1.557  -0.051  0.9878  0.9661  1.3868
  546SOL    HW2 1638   2.578   1.484   0.108  2.2030 -2.2608  3.9153
  547SOL     OW 1639   0.557   3.086   2.687  0.2400  0.0096 -0.2157
  547SOL    HW1 1640   0.651   3.052   2.649  2.3531 -1.1020 -0.1004
  547SOL    HW2 1641   0.496   2.999   2.716 -1.1503  0.1471  0.5387
  548SOL     OW 1642   2.103   0.841   2.979 -0.3845  0.2005  0.0409
  548SOL    HW1 1643   2.002   0.816   2.976  1.9119  0.1856  1.7413
  548SOL    HW2 1644   2.114   0.939   2.995 -0.1165 -0.1009 -2.7317
  549SOL     OW 1645   0.696   0.520   0.216  0.1587 -0.0546  0.1172
  549SOL    HW1 1646   0.678   0.550   0.115  2.9481  0.3204 -0.1223
  549SOL    HW2 1647   0.787   0.554   0.246  1.4211  1.1528 -2.2093
  550SOL     OW 1648   2.493   2.837   2.904  0.2475 -0.4083  0.0162
  550SOL    HW1 1649   2.479   2.771   2.978  1.6769  0.2062 -2.3981
  550SOL    HW2 1650   2.561   2.800   2.835 -1.4523 -1.0110  1.1306
  551SOL     OW 1651   0.260   0.932   0.213  0.3835  0.2236  0.3810
  551SOL    HW1 1652   0.342   0.870   0.217 -0.0133 -2.5657  0.4834
  551SOL    HW2 1653   0.206   0.916   0.302 -1.5021 -0.8697 -0.7944
  552SOL     OW 1654   0.717   2.977   1.850 -0.5828 -0.1081  0.0126
  552SOL    HW1 1655   0.692   3.007   1.947 -0.2730 -1.6116  1.0355
  552SOL    HW2 1656   0.811   3.016   1.820  4.5959  0.7082  0.5565
  553SOL     OW 1657   2.999   2.544   0.325 -0.2809 -0.2240 -0.1326
  553SOL    HW1 1658   2.959   2.449   0.311 -1.1229 -0.3376 -0.8227
  553SOL    HW2 1659   2.975   2.582   0.418  1.6248 -2.0069  4.7280
  554SOL     OW 1660   2.142   0.348   0.597  0.0306  0.0793  0.3695
  554SOL    HW1 1661   2.222   0.359   0.532 -1.1820 -0.2591  1.4117
  554SOL    HW2 1662   2.142   0.262   0.654 -0.7895 -1.7609 -2.1609
  555SOL     OW 1663   0.388   2.779   2.525 -0.6146 -0.1793  0.1283
  555SOL    HW1 1664   0.310   2.840   2.507  1.1906  0.8912  0.3108
  555SOL    HW2 1665   0.428   2.737   2.435 -1.1366 -0.0011 -1.4025
  556SOL     OW 1666   0.811   2.393   1.511  0.3138 -0.3727  0.3367
  556SOL    HW1 1667   0.880   2.441   1.570 -1.5269 -1.0765  1.0993
  556SOL    HW2 1668   0.867   2.352   1.429  1.1447  1.4460 -0.3679
  557SOL     OW 1669   0.095   2.064   0.167 -0.3071 -0.1724  0.8595
  557SOL    HW1 1670   0.050   1.977   0.132 -0.6052 -0.4736  0.6767
  557SOL    HW2 1671   0.122   2.118   0.083 -2.4600 -0.9288 -0.2499
  558SOL     OW 1672   2.917   2.279   0.283 -0.2729 -0.1163  0.3150
  558SOL    HW1 1673   2.820   2.256   0.311 -1.4316 -0.0393 -1.2159
  558SOL    HW2 1674   2.979   2.197   0.261 -1.3993 -1.1960 -1.0949
  559SOL     OW 1675   0.398   2.299   1.394 -0.3688  0.1519  0.5075
  559SOL    HW1 1676   0.299   2.308   1.363  0.8248  0.6448  1.3080
  559SOL    HW2 1677   0.438   2.213   1.346  3.0225 -2.3677  0.6856
  560SOL     OW 1678   2.092   1.151   3.074 -0.2424 -0.0132 -0.1238
  560SOL    HW1 1679   2.048   1.144   3.167  3.2038 -0.0618  1.1727
  560SOL    HW2 1680   2.151   1.238   3.064  0.0048 -0.7418  0.0928
  561SOL     OW 1681   3.033   1.854   0.018  0.3558 -0.1209  0.4649
  561SOL    HW1 1682   2.974   1.815   0.091 -0.5291  0.4553  1.3694
  561SOL    HW2 1683   3.003   1.946  -0.014 -0.5451 -0.5174 -1.8643
  562SOL     OW 1684   1.009   2.272   2.330 -1.0539 -0.5587  0.3151
  562SOL    HW1 1685   0.947   2.204   2.369  1.1497  4.5464 -4.2127
  562SOL    HW2 1686   1.011   2.362   2.383  2.4621  0.2744 -0.8968
  563SOL     OW 1687   0.706   2.567   2.630 -0.0759  0.2800 -0.4275
  563SOL    HW1 1688   0.777   2.491   2.637 -1.4791  0.3499  1.1627
  563SOL    HW2 1689   0.687   2.617   2.723 -0.8439  0.5718 -1.6121
  564SOL     OW 1690   2.784   1.305   2.937  1.2418 -0.0169 -0.7258
  564SOL    HW1 1691   2.712   1.353   2.997 -0.5465  0.1379 -0.4393
  564SOL    HW2 1692   2.823   1.378   2.875  1.8416 -1.3829  0.8911
  565SOL     OW 1693   2.552   1.963   2.634 -0.0946 -0.2766  0.3377
  565SOL    HW1 1694   2.491   2.018   2.571 -1.9544 -2.2333  0.3920
  565SOL    HW2 1695   2.617   2.026   2.687 -1.3641 -0.4014  2.7396
  566SOL     OW 1696   2.055   2.809   1.383  0.5534 -0.0621 -0.2649
  566SOL    HW1 1697   1.986   2.728   1.376  2.1373  1.4484 -0.0359
  566SOL    HW2 1698   2.047   2.873   1.301  0.8512  2.3134 -1.4424
  567SOL     OW 1699   2.467   0.064   2.319  0.1796 -0.8168  1.1907
  567SOL    HW1 1700   2.441   0.165   2.329 -4.7671  1.0996  0.2316
  567SOL    HW2 1701   2.457   0.024   2.224 -0.9855 -1.0395  2.7416
  568SOL     OW 1702   1.510   1.791   0.291 -0.0013 -0.3206 -0.5343
  568SOL    HW1 1703   1.440   1.859   0.254 -0.2801  1.3956  0.7536
  568SOL    HW2 1704   1.605   1.831   0.288  0.5266  1.5271  0.7067
  569SOL     OW 1705   0.262   0.683   0.779  0.1118 -0.0450  0.1239
  569SOL    HW1 1706   0.301   0.600   0.728 -2.1281  0.6203  2.0807
  569SOL    HW2 1707   0.170   0.654   0.813  1.1304  1.4344  2.1760
  570SOL     OW 1708   0.587   0.881   2.884  0.2400  0.2655  0.2470
  570SOL    HW1 1709   0.652   0.891   2.807  0.8247  2.0201  3.6904
  570SOL    HW2 1710   0.607   0.930   2.971  0.2765 -0.7659  1.8930
  571SOL     OW 1711   0.761   3.072   1.002  0.1005  0.2238 -0.1371
  571SOL    HW1 1712   0.815   3.106   0.920 -2.3562  2.4102  0.4016
  571SOL    HW2 1713   0.722   2.972   0.992  0.9768 -1.6852  0.5889
  572SOL     OW 1714   1.596   2.624   1.309  0.6328 -0.1349  0.3434
  572SOL    HW1 1715   1.502   2.594   1.285  0.2948 -0.7675  2.2331
  572SOL    HW2 1716   1.594   2.724   1.337 -0.0178 -3.9594  1.0662
  573SOL     OW 1717   2.877   0.473   2.045 -0.7233  0.5839 -0.8133
  573SOL    HW1 1718   2.811   0.392   2.048 -0.9305 -0.8352  2.7795
  573SOL    HW2 1719   2.835   0.557   2.011  1.4870 -3.0374 -2.3341
  574SOL     OW 1720   0.188   1.702   1.021 -0.4195  0.3647 -0.0050
  574SOL    HW1 1721   0.153   1.801   1.020 -0.8520  0.2669  0.4025
  574SOL    HW2 1722   0.124   1.633   1.073 -1.6675  0.0120  0.8112
  575SOL     OW 1723   0.875   2.156   0.954 -0.4432  0.0418 -0.2181
  575SOL    HW1 1724   0.825   2.209   1.028  1.8232  1.1166 -0.2495
  575SOL    HW2 1725   0.898   2.221   0.875 -1.7881  1.9610  1.4633
  576SOL     OW 1726   2.932   3.037   1.712  0.5776  0.5232  0.1338
  576SOL    HW1 1727   2.831   3.010   1.711 -0.2352  1.0624  2.8027
  576SOL    HW2 1728   2.949   3.139   1.714 -0.0984 -0.0351  2.0313
  577SOL     OW 1729   2.488   1.232   0.020 -0.0166 -0.1745 -0.1905
  577SOL    HW1 1730   2.500   1.166  -0.059 -2.2417  3.9503 -1.6649
  577SOL    HW2 1731   2.575   1.271   0.069 -0.1289  2.3240 -0.4831
  578SOL     OW 1732   1.372   2.757   2.442  0.1937  0.0323 -0.2126
  578SOL    HW1 1733   1.292   2.819   2.461  2.1785 -1.7835  0.1202
  578SOL    HW2 1734   1.462   2.807   2.454  0.5456 -2.4919 -0.8241
  579SOL     OW 1735   0.093   2.518   0.133  0.0464  0.0350  0.1963
  579SOL    HW1 1736   0.003   2.533   0.187  1.5828  0.2135  1.6438
  579SOL    HW2 1737   0.172   2.552   0.189 -0.5155 -2.3618  0.2713
  580SOL     OW 1738   0.987   2.678   0.414 -0.5465  0.5955 -0.1922
  580SOL    HW1 1739   1.057   2.692   0.344 -3.8211 -0.2141  1.4070
  580SOL    HW2 1740   0.906   2.617   0.382 -3.9382 -0.6817  2.2938
  581SOL     OW 1741   1.281   2.636   1.484  0.0442  0.2093 -0.5226
  581SOL    HW1 1742   1.324   2.548   1.521  0.6763  2.8305  3.3874
  581SOL    HW2 1743   1.344   2.719   1.475 -2.5701 -1.7556 -1.0089
  582SOL     OW 1744   1.506   0.089   1.866  0.0364 -0.2354  0.0136
  582SOL    HW1 1745   1.554   0.160   1.926  0.1015 -0.7968  0.6716
  582SOL    HW2 1746   1.572   0.046   1.798  1.1484 -0.6079 -0.3883
  583SOL     OW 1747   2.479   3.078   0.550  0.0171 -0.4491  0.4469
  583SOL    HW1 1748   2.570   3.048   0.520 -0.6015  1.0660  0.9729
  583SOL    HW2 1749   2.423   2.993   0.577 -1.9765 -0.8120 -0.3104
  584SOL     OW 1750   1.581   0.912   2.107  0.0541  0.7884  0.7287
  584SOL    HW1 1751   1.626   0.984   2.051  1.5157 -1.6369 -0.9656
  584SOL    HW2 1752   1.625   0.910   2.203 -0.8356  2.1234 -1.8794
  585SOL     OW 1753   2.110   2.664   2.898 -0.0074  0.5299  0.4273
  585SOL    HW1 1754   2.110   2.560   2.879  1.4001  1.0435 -1.0333
  585SOL    HW2 1755   2.020   2.697   2.931 -1.1835 -0.7999  1.4243
  586SOL     OW 1756   2.840   0.388   1.538 -0.1720 -0.2720  0.0515
  586SOL    HW1 1757   2.812   0.475   1.587  1.5769 -1.1772  1.8655
  586SOL    HW2 1758   2.770   0.308   1.563 -2.4095  0.6639  2.3306
  587SOL     OW 1759   1.994   1.547   2.669  0.4109 -0.3511 -0.5931
  587SOL    HW1 1760   2.055   1.493   2.606 -0.8063  0.3204 -3.6584
  587SOL    HW2 1761   2.010   1.513   2.767  0.6033  1.5698  2.0743
  588SOL     OW 1762   0.455   2.695   2.269 -0.1909 -0.1986  0.1396
  588SOL    HW1 1763   0.358   2.668   2.251  1.1877 -0.9856 -0.7699
  588SOL    HW2 1764   0.509   2.614   2.310 -1.8634 -0.2903  0.5155
  589SOL     OW 1765   2.149   1.388   2.515  0.2756 -0.7116 -0.0850
  589SOL    HW1 1766   2.085   1.329   2.454 -2.1595  0.7273 -0.9116
  589SOL    HW2 1767   2.235   1.337   2.535  0.1437 -0.6212 -1.2394
  590SOL     OW 1768   2.349   1.673   2.046 -0.0181 -0.1110  0.4639
  590SOL    HW1 1769   2.410   1.590   2.033  0.5278 -1.4606  2.5447
  590SOL    HW2 1770   2.377   1.719   2.136  3.3805  1.5496  1.0307
  591SOL     OW 1771   1.293   2.399   0.260 -0.4467  0.4419 -0.1623
  591SOL    HW1 1772   1.322   2.316   0.207  1.3114  1.2606 -0.0249
  591SOL    HW2 1773   1.285   2.381   0.365 -0.7872  0.0012  1.8636
  592SOL     OW 1774   1.799   2.274   0.724 -0.2649 -0.1512  0.5177
  592SOL    HW1 1775   1.800   2.359   0.666 -0.6882 -1.5583 -0.8586
  592SOL    HW2 1776   1.896   2.233   0.733 -1.1712 -0.2126 -1.9408
  593SOL     OW 1777   0.692   0.221   0.260  0.1801  0.0133 -0.1715
  593SOL    HW1 1778   0.736   0.190   0.174 -1.0774 -0.8501  1.2256
  593SOL    HW2 1779   0.722   0.319   0.286 -2.3754 -0.0609 -0.6304
  594SOL     OW 1780   0.980   1.890   2.710  0.4194  0.3087 -0.1789
  594SOL    HW1 1781   1.078   1.855   2.698 -2.6160  0.9014  0.9280
  594SOL    HW2 1782   0.977   1.989   2.737  2.6737 -0.4340 -0.1697
  595SOL     OW 1783   1.549   0.062   1.087 -0.3073 -0.6146  0.2397
  595SOL    HW1 1784   1.604  -0.015   1.131  0.7382 -2.5056 -1.7307
  595SOL    HW2 1785   1.463   0.024   1.046  0.8887  0.4965  1.0013
  596SOL     OW 1786   3.070   1.438   2.253 -0.8111  0.0001 -0.3419
  596SOL    HW1 1787   3.047   1.342   2.282  1.3388  1.7234  2.1609
  596SOL    HW2 1788   3.108   1.489   2.335 -0.8414 -1.2428  0.3404
  597SOL     OW 1789   1.996   2.553   1.669 -0.0511 -0.0585  0.7686
  597SOL    HW1 1790   2.051   2.526   1.586 -0.7663  1.3138 -1.4860
  597SOL    HW2 1791   2.039   2.562   1.764  2.7378  0.7772  3.1094
  598SOL     OW 1792   2.516   2.957   1.227 -0.0083 -0.3383 -0.6957
  598SOL    HW1 1793   2.582   2.998   1.295 -1.1581  0.1216  0.0591
  598SOL    HW2 1794   2.554   2.933   1.132  3.2166  1.1142 -0.1797
  599SOL     OW 1795   2.925   0.331   2.495 -0.0559  0.1274 -0.2404
  599SOL    HW1 1796   3.026   0.345   2.476 -0.5830  0.1257  3.4165
  599SOL    HW2 1797   2.863   0.404   2.464 -1.2708 -1.4768  0.1266
  600SOL     OW 1798   2.815   1.092   2.751  0.0597 -1.0567 -0.0980
  600SOL    HW1 1799   2.758   1.010   2.778 -1.0453 -0.8590 -0.5632
  600SOL    HW2 1800   2.812   1.163   2.824 -2.1569 -3.0944  1.1720
  601SOL     OW 1801   2.977   1.307   1.972  0.1774  0.2628 -0.0245
  601SOL    HW1 1802   2.898   1.349   1.918 -1.5674  0.1190 -0.1654
  601SOL    HW2 1803   3.069   1.352   1.972 -1.8768 -0.4412 -0.6857
  602SOL     OW 1804   1.484   1.729   2.353  0.3860 -0.5006 -0.4606
  602SOL    HW1 1805   1.403   1.670   2.330  0.5733 -0.0066  0.4039
  602SOL    HW2 1806   1.572   1.673   2.382  2.2848  0.3480 -0.2346
  603SOL     OW 1807   0.589   1.210   2.723 -0.0161  0.3268  0.2484
  603SOL    HW1 1808   0.500   1.166   2.698 -0.6784 -2.7158  2.1907
  603SOL    HW2 1809   0.669   1.149   2.703 -0.5824  0.4014 -0.6105
  604SOL     OW 1810   2.395   1.017   0.155 -0.1360 -0.2344  0.1755
  604SOL    HW1 1811   2.419   1.098   0.096 -1.8884 -1.3725  3.4673
  604SOL    HW2 1812   2.405   0.928   0.109 -0.8468  0.0458 -0.2535
  605SOL     OW 1813   2.533   1.137   1.944  0.1918 -0.0738 -0.0026
  605SOL    HW1 1814   2.563   1.063   1.877 -2.0996  3.1059 -0.7317
  605SOL    HW2 1815   2.613   1.177   2.006  1.8592 -0.8258  2.9872
  606SOL     OW 1816   1.514   2.525   2.535  0.5184 -0.2529 -0.4633
  606SOL    HW1 1817   1.434   2.578   2.504  1.8548  3.4019 -0.2483
  606SOL    HW2 1818   1.494   2.427   2.563  1.3945  0.4530 -0.0643
  607SOL     OW 1819   1.324   1.576   0.320 -0.3261 -0.1770  0.1235
  607SOL    HW1 1820   1.274   1.600   0.409 -2.8163 -1.0999  1.4120
  607SOL    HW2 1821   1.392   1.646   0.291 -0.7105 -0.2053  0.2542
  608SOL     OW 1822   1.430   2.851   0.344 -0.0852 -0.1969  0.3005
  608SOL    HW1 1823   1.509   2.891   0.289 -1.1094  0.6270 -2.2190
  608SOL    HW2 1824   1.376   2.929   0.385 -1.1543 -0.7226 -1.8864
  609SOL     OW 1825   1.271   1.346   0.184 -0.1865  0.0533 -0.4134
  609SOL    HW1 1826   1.268   1.421   0.256  1.8322  3.2852  3.6144
  609SOL    HW2 1827   1.228   1.378   0.091 -0.2977  0.4371 -1.9677
  610SOL     OW 1828   3.002   1.165   2.221 -0.5099  0.4579  0.5316
  610SOL    HW1 1829   2.996   1.063   2.207 -0.8006 -0.9113  0.1949
  610SOL    HW2 1830   2.964   1.220   2.142 -0.7597  0.4879 -0.1302
  611SOL     OW 1831   2.541   0.301   1.132 -0.1556  0.1167  0.3858
  611SOL    HW1 1832   2.482   0.217   1.143  1.0571 -0.8667 -2.4839
  611SOL    HW2 1833   2.628   0.302   1.192  0.5366  0.0530  0.8280
  612SOL     OW 1834   0.759   2.278   1.156  0.2340 -0.2537 -0.1688
  612SOL    HW1 1835   0.684   2.203   1.167  0.1529  1.4535  0.6051
  612SOL    HW2 1836   0.716   2.369   1.174 -1.3571 -0.9242 -3.4150
  613SOL     OW 1837   0.833   1.380   2.426  0.4482  0.4757  0.2757
  613SOL    HW1 1838   0.800   1.460   2.365 -1.8975  0.8956 -3.1879
  613SOL    HW2 1839   0.833   1.291   2.371  3.0502  0.2488  0.5563
  614SOL     OW 1840   1.554   1.648   1.986  0.5144  0.6079 -0.3078
  614SOL    HW1 1841   1.506   1.739   1.993 -1.0652 -0.4371 -0.5340
  614SOL    HW2 1842   1.639   1.658   2.041 -1.7977  1.5497 -0.0330
  615SOL     OW 1843   0.785   1.363   1.744  0.5330 -0.0403  0.0412
  615SOL    HW1 1844   0.736   1.300   1.680 -2.6057 -0.1643 -0.0233
  615SOL    HW2 1845   0.835   1.441   1.687  0.6129  3.2612  2.6900
  616SOL     OW 1846   1.011   1.619   2.157 -0.0492 -0.4090 -0.1418
  616SOL    HW1 1847   0.928   1.566   2.181  2.2349  0.1652 -0.5334
  616SOL    HW2 1848   0.984   1.698   2.099  0.2735 -1.8348  0.9346
  617SOL     OW 1849   2.962   1.547   1.640 -0.1509 -0.3610  0.0311
  617SOL    HW1 1850   2.894   1.493   1.693  1.4546  2.6598 -0.3667
  617SOL    HW2 1851   3.000   1.501   1.554  1.1672 -2.1164 -1.8126
  618SOL     OW 1852   1.905   1.968   1.462  0.3895 -0.2326  0.4839
  618SOL    HW1 1853   1.937   1.923   1.376  1.4887 -0.6960  1.7023
  618SOL    HW2 1854   1.922   1.916   1.545  1.8052  0.0703 -1.2357
  619SOL     OW 1855   1.755   0.493   2.425 -0.6084 -0.2278 -0.5142
  619SOL    HW1 1856   1.687   0.536   2.357 -0.3122  2.4289 -0.9828
  619SOL    HW2 1857   1.730   0.401   2.466 -0.9165  0.3288  1.9634
  620SOL     OW 1858   2.238   2.970   0.650 -0.1003 -0.0192  0.5076
  620SOL    HW1 1859   2.183   3.046   0.680  3.2821 -1.4890 -0.3491
  620SOL    HW2 1860   2.248   2.892   0.725 -0.7936  0.2346  1.5928
  621SOL     OW 1861   2.164   1.845   1.303 -0.0199  0.9204  0.3718
  621SOL    HW1 1862   2.153   1.826   1.402  1.4760  0.2276  1.0339
  621SOL    HW2 1863   2.102   1.776   1.249 -1.7799  2.6919 -1.7893
  622SOL     OW 1864   2.236   0.925   1.814 -0.1526  0.0786 -0.2788
  622SOL    HW1 1865   2.330   0.967   1.810 -1.1466  0.4690 -0.1943
  622SOL    HW2 1866   2.239   0.825   1.793 -2.5581 -0.7760  1.8937
  623SOL     OW 1867   1.330   0.835   2.647  0.1242 -0.2523  0.0097
  623SOL    HW1 1868   1.266   0.789   2.713 -2.2784  0.6611 -1.3067
  623SOL    HW2 1869   1.279   0.880   2.565 -0.5680 -0.5509  0.6186
  624SOL     OW 1870   0.589   0.651   3.070 -0.0666 -0.5600  0.2621
  624SOL    HW1 1871   0.588   0.696   2.976 -0.5120 -0.6367 -1.5230
  624SOL    HW2 1872   0.588   0.718   3.147 -1.4611 -3.0992 -1.6064
  625SOL     OW 1873   2.849   1.705   0.953  0.7114  0.4097  0.3484
  625SOL    HW1 1874   2.756   1.731   0.914 -0.3079 -0.0742 -1.0772
  625SOL    HW2 1875   2.891   1.786   1.006 -1.9767 -0.1740  1.8850
  626SOL     OW 1876   0.594   2.729   1.817  0.2160 -0.6800  0.6392
  626SOL    HW1 1877   0.633   2.824   1.830  0.0215 -1.5607 -2.2996
  626SOL    HW2 1878   0.490   2.724   1.808  2.1794 -2.2576 -2.8402
  627SOL     OW 1879   0.733   1.018   1.538 -0.2581  0.1962  0.1556
  627SOL    HW1 1880   0.754   0.942   1.473 -1.9053 -0.7350 -1.7487
  627SOL    HW2 1881   0.778   1.110   1.523 -1.4020 -0.3517  0.8277
  628SOL     OW 1882   2.389   0.162   0.726 -0.1804 -0.0707  0.2859
  628SOL    HW1 1883   2.423   0.098   0.649  1.5020  0.5459 -1.6629
  628SOL    HW2 1884   2.307   0.123   0.772  0.5358  5.8002  1.6081
  629SOL     OW 1885   1.977   0.890   1.964  0.4079  0.1624 -0.2338
  629SOL    HW1 1886   2.076   0.919   1.948  0.5174 -1.3496  1.5380
  629SOL    HW2 1887   1.915   0.968   1.985 -0.3217 -3.5110  0.5225
  630SOL     OW 1888   2.886   2.220   0.849 -0.8065 -0.6871  0.0967
  630SOL    HW1 1889   2.801   2.272   0.872 -1.7652 -3.4281 -1.2536
  630SOL    HW2 1890   2.867   2.128   0.810 -1.2270  0.5140  2.0749
  631SOL     OW 1891   2.948   0.158   2.127 -0.2629  0.5332 -0.1150
  631SOL    HW1 1892   3.000   0.221   2.195  0.6034  2.2283  2.7570
  631SOL    HW2 1893   2.992   0.164   2.031  0.1745 -0.5501  1.4386
  632SOL     OW 1894   2.418   2.503   0.645  0.7736 -0.3648 -0.0682
  632SOL    HW1 1895   2.398   2.590   0.697  3.6631  0.8898  1.7615
  632SOL    HW2 1896   2.392   2.512   0.542 -1.4992 -0.2587 -3.4832
  633SOL     OW 1897   1.413   1.218   2.540 -0.0676  0.4778 -0.3118
  633SOL    HW1 1898   1.447   1.302   2.596  1.7565 -0.6040  1.7313
  633SOL    HW2 1899   1.351   1.244   2.460 -0.7211 -0.3044 -2.8694
  634SOL     OW 1900   0.701   1.950   0.905 -0.7305 -0.4275  0.9009
  634SOL    HW1 1901   0.612   1.985   0.947 -0.6420  0.9209 -1.2609
  634SOL    HW2 1902   0.783   2.016   0.916 -1.5156  0.4105  0.3564
  635SOL     OW 1903   3.043   2.317   3.097  0.4681 -0.3393 -0.2645
  635SOL    HW1 1904   2.978   2.375   3.036  2.0888 -0.6707 -2.4860
  635SOL    HW2 1905   3.106   2.376   3.157  2.7707  0.4383  0.3300
  636SOL     OW 1906   2.254   2.722   2.078 -0.0102  0.1459 -0.1775
  636SOL    HW1 1907   2.234   2.822   2.085 -1.1560 -1.0174  0.2387
  636SOL    HW2 1908   2.271   2.684   2.177  1.2058  0.0701  2.7432
  637SOL     OW 1909   2.641   0.712   2.059  0.1523  0.3622 -0.0642
  637SOL    HW1 1910   2.614   0.710   1.960  1.0626  0.7334 -1.1864
  637SOL    HW2 1911   2.681   0.809   2.086  0.7264  1.2005 -1.7672
  638SOL     OW 1912   2.431   1.777   1.255 -0.1054 -0.3588 -0.2356
  638SOL    HW1 1913   2.336   1.787   1.295 -0.8410 -0.0052 -1.0255
  638SOL    HW2 1914   2.500   1.732   1.322 -0.5469 -1.7412 -1.2067
  639SOL     OW 1915   1.289   2.172   1.718  0.0888  0.0276 -0.3357
  639SOL    HW1 1916   1.342   2.088   1.697 -1.2330 -1.0490  2.3979
  639SOL    HW2 1917   1.187   2.149   1.724 -0.0545 -0.8920  2.2867
  640SOL     OW 1918   0.205   1.149   1.590 -0.0536 -0.3298 -0.0539
  640SOL    HW1 1919   0.201   1.191   1.682  2.7470  0.2942 -0.9846
  640SOL    HW2 1920   0.295   1.100   1.569  0.8234 -0.8574  0.6568
  641SOL     OW 1921   2.041   0.173   1.549 -0.1181 -0.4568 -0.0716
  641SOL    HW1 1922   2.029   0.226   1.637  0.2534  3.2133 -1.6247
  641SOL    HW2 1923   2.077   0.077   1.557 -1.9759  1.3527 -0.0540
  642SOL     OW 1924   1.982   0.094   0.297 -0.3096  0.4367 -0.2400
  642SOL    HW1 1925   2.067   0.088   0.356 -2.3868 -2.1074 -3.2945
  642SOL    HW2 1926   1.892   0.082   0.344  1.0744  0.1098 -0.1493
  643SOL     OW 1927   2.925   1.854   2.074 -0.2586  0.2750  0.0660
  643SOL    HW1 1928   2.893   1.760   2.052 -1.7256  2.3011  0.2119
  643SOL    HW2 1929   2.903   1.920   1.996  2.4326 -0.2026 -0.8009
  644SOL     OW 1930   2.271   2.392   1.210  0.6467 -0.0704 -0.1220
  644SOL    HW1 1931   2.339   2.320   1.168  0.0803  2.4640 -1.1328
  644SOL    HW2 1932   2.213   2.353   1.289  0.7112  3.1181  1.6682
  645SOL     OW 1933   0.639   0.828   1.245  0.3290  0.6189 -0.5697
  645SOL    HW1 1934   0.536   0.856   1.255 -1.4015  0.3143 -1.8783
  645SOL    HW2 1935   0.659   0.836   1.143 -0.3739 -1.1941 -0.7288
  646SOL     OW 1936   1.437   1.898   1.992 -0.5892  0.3543 -0.9146
  646SOL    HW1 1937   1.484   1.930   1.906 -0.0233  0.9909 -2.0194
  646SOL    HW2 1938   1.382   1.973   2.039 -2.1714 -0.5416 -0.5438
  647SOL     OW 1939   0.805   1.087   0.676 -0.3150 -0.1050  0.1582
  647SOL    HW1 1940   0.876   1.105   0.756  1.6276 -0.1710  2.0992
  647SOL    HW2 1941   0.771   0.989   0.668 -2.7607 -1.1479 -1.7135
  648SOL     OW 1942   0.100   0.202   0.214  0.2294 -0.4732  0.3908
  648SOL    HW1 1943   0.130   0.132   0.143 -2.3680 -0.5985  2.8316
  648SOL    HW2 1944   0.120   0.302   0.177 -2.9965  2.2255 -2.0185
  649SOL     OW 1945   3.019   0.252   0.894 -0.1053 -0.1718  0.0003
  649SOL    HW1 1946   3.114   0.226   0.861  0.4725 -2.1592 -0.4453
  649SOL    HW2 1947   3.014   0.327   0.966 -0.8950  0.6725  0.2698
  650SOL     OW 1948   2.763   0.684   1.447 -0.2966 -0.2941 -0.2777
  650SOL    HW1 1949   2.667   0.653   1.473 -0.6951 -1.7418 -0.3252
  650SOL    HW2 1950   2.769   0.776   1.401  1.0995 -1.5924 -3.0442
  651SOL     OW 1951   0.915   1.565   1.608 -0.1060 -0.1456 -0.1528
  651SOL    HW1 1952   0.961   1.647   1.652  1.3822  0.4171 -0.3196
  651SOL    HW2 1953   0.964   1.527   1.519 -0.3590 -1.2072 -1.4813
  652SOL     OW 1954   2.332   2.417   2.500 -0.3019  0.6445 -0.2356
  652SOL    HW1 1955   2.246   2.367   2.509  2.7235  0.3434  0.8323
  652SOL    HW2 1956   2.317   2.514   2.468 -1.1200 -1.4037  0.2062
  653SOL     OW 1957   2.718   1.250   0.191 -0.3607  0.1507 -0.1637
  653SOL    HW1 1958   2.762   1.338   0.230  1.5733  2.7539 -1.8502
  653SOL    HW2 1959   2.774   1.164   0.207 -1.3927 -1.0888  2.7730
  654SOL     OW 1960   1.255   2.244   1.265  0.8075  0.2238  0.1794
  654SOL    HW1 1961   1.267   2.167   1.333  0.6882  1.7705 -1.4349
  654SOL    HW2 1962   1.280   2.217   1.166  1.4326  0.8804  1.8056
  655SOL     OW 1963   0.161   0.934   1.944  0.0547 -0.3917 -0.2740
  655SOL    HW1 1964   0.218   0.884   1.871  0.2175  0.7781 -0.4554
  655SOL    HW2 1965   0.206   1.028   1.952 -1.6517  0.0231 -1.1918
  656SOL     OW 1966   2.570   2.477   2.641 -0.3256  0.8330  0.2041
  656SOL    HW1 1967   2.645   2.461   2.575 -0.4819  3.0512  1.7008
  656SOL    HW2 1968   2.482   2.490   2.583  1.7853  2.0276  1.9339
  657SOL     OW 1969   2.997   1.046   1.931  0.0387  0.5160  0.4019
  657SOL    HW1 1970   2.973   1.143   1.953  1.7932  0.7561  1.1409
  657SOL    HW2 1971   3.100   1.023   1.930 -1.7127  0.2678  0.5131
  658SOL     OW 1972   1.675   0.217   2.384  0.6325  0.4412  0.4701
  658SOL    HW1 1973   1.705   0.131   2.438  0.8908 -0.0133 -3.0564
  658SOL    HW2 1974   1.731   0.226   2.295 -0.5837  0.3149  0.0812
  659SOL     OW 1975   1.428   0.626   2.890  0.3363  0.5584  0.8488
  659SOL    HW1 1976   1.473   0.720   2.889 -0.8663  0.7411 -1.2293
  659SOL    HW2 1977   1.323   0.637   2.871  1.2517  0.1754  2.1079
  660SOL     OW 1978   1.416   0.344   1.430  0.3309  0.1822  0.3904
  660SOL    HW1 1979   1.435   0.383   1.526 -0.1974 -0.7530 -2.3796
  660SOL    HW2 1980   1.463   0.255   1.408 -1.8155 -0.5671 -0.8189
  661SOL     OW 1981   2.469   1.190   0.671  0.0424 -0.0902  0.4065
  661SOL    HW1 1982   2.476   1.180   0.564  0.3033 -0.4292 -0.9135
  661SOL    HW2 1983   2.425   1.279   0.695  2.2784  2.6923 -0.8290
  662SOL     OW 1984   1.400   0.443   1.780 -0.6163  0.4056  0.6209
  662SOL    HW1 1985   1.338   0.364   1.754 -0.5029  2.1472  1.0734
  662SOL    HW2 1986   1.417   0.445   1.882  0.2576 -2.2025  0.1043
  663SOL     OW 1987   0.735   1.528   2.220  0.4951 -0.2592  0.6933
  663SOL    HW1 1988   0.694   1.626   2.232  0.3525  2.3984 -0.9596
  663SOL    HW2 1989   0.710   1.484   2.130 -1.8855  1.8548 -4.2350
  664SOL     OW 1990   1.629   2.087   1.449 -0.3112  0.1379  0.0935
  664SOL    HW1 1991   1.551   2.037   1.495 -0.7573 -1.9768 -2.8343
  664SOL    HW2 1992   1.724   2.035   1.457  1.0576 -0.1913  0.4717
  665SOL     OW 1993   2.268   0.660   1.925 -0.0767 -0.3121  0.0874
  665SOL    HW1 1994   2.209   0.578   1.922  3.1755  1.0338  2.4322
  665SOL    HW2 1995   2.295   0.689   2.022 -2.5713  1.7867 -0.4130
  666SOL     OW 1996   0.380   2.331   0.348 -0.4991  0.7849  0.2654
  666SOL    HW1 1997   0.426   2.348   0.439 -2.7394  0.1448 -1.9499
  666SOL    HW2 1998   0.288   2.282   0.359 -0.2015 -0.4172  0.1043
  667SOL     OW 1999   1.979   0.196   1.190  0.1294 -0.5910 -0.4780
  667SOL    HW1 2000   1.940   0.274   1.138 -1.1625 -1.7360  2.5565
  667SOL    HW2 2001   1.917   0.168   1.271 -2.1663  0.6702 -1.8996
  668SOL     OW 2002   2.015   0.484   1.141 -0.6839  0.4312  0.8539
  668SOL    HW1 2003   2.089   0.511   1.080 -0.9021 -1.0374 -1.2477
  668SOL    HW2 2004   2.045   0.461   1.236 -0.4431  0.1655 -1.1156
  669SOL     OW 2005   0.012   2.178   1.005  0.0918  0.1191 -0.1880
  669SOL    HW1 2006  -0.083   2.189   0.960 -3.9507  0.8739 -1.1331
  669SOL    HW2 2007   0.025   2.248   1.084 -0.4483  1.7419  2.8891
  670SOL     OW 2008   2.843   2.349   1.951 -0.2422 -0.3495 -0.1754
  670SOL    HW1 2009   2.798   2.312   2.041 -0.4842  0.1111  1.4417
  670SOL    HW2 2010   2.834   2.450   1.944 -1.6265  0.8486 -0.9547
  671SOL     OW 2011   1.749   1.723   1.475  0.1533  0.3391  0.1932
  671SOL    HW1 2012   1.768   1.749   1.372 -1.8519  0.0063 -0.1597
  671SOL    HW2 2013   1.667   1.659   1.488 -0.5024 -1.3135  0.8998
  672SOL     OW 2014   0.401   0.615   2.400 -0.4047  0.1878  0.0933
  672SOL    HW1 2015   0.475   0.646   2.330  2.3678  1.4744  0.0022
  672SOL    HW2 2016   0.328   0.686   2.411  0.1107 -0.5322 -1.2971
  673SOL     OW 2017   0.125   1.151   1.143 -0.2123 -0.0017 -0.1908
  673SOL    HW1 2018   0.126   1.228   1.211  0.5664 -1.2503 -1.5505
  673SOL    HW2 2019   0.218   1.120   1.103  1.2049  0.9195 -3.3501
  674SOL     OW 2020   1.642   2.966   0.223 -0.8377 -0.6346  0.3750
  674SOL    HW1 2021   1.670   3.060   0.185  2.4020  1.6942  1.9914
  674SOL    HW2 2022   1.718   2.901   0.198 -0.9912  1.4726 -0.7419
  675SOL     OW 2023   1.722   0.824   2.349 -0.3220 -0.0205 -0.3203
  675SOL    HW1 2024   1.825   0.811   2.343 -2.4557  0.8003  1.0686
  675SOL    HW2 2025   1.675   0.731   2.322 -0.8606 -1.3906 -1.0297
  676SOL     OW 2026   2.504   1.453   1.992 -0.5957  0.0318  0.4732
  676SOL    HW1 2027   2.504   1.429   1.888 -0.7063 -1.8886 -1.8547
  676SOL    HW2 2028   2.503   1.374   2.056  0.5151  1.6242 -0.8045
  677SOL     OW 2029   1.929   0.675   0.854  0.2956  0.8120 -0.4010
  677SOL    HW1 2030   1.990   0.714   0.924  2.7579  1.2417 -0.0661
  677SOL    HW2 2031   1.932   0.571   0.854 -0.1916 -0.2610  0.2607
  678SOL     OW 2032   0.008   0.764   1.681 -0.4669 -0.1201 -0.0666
  678SOL    HW1 2033   0.109   0.768   1.712  1.0313 -1.0837 -0.9422
  678SOL    HW2 2034  -0.050   0.735   1.759  1.9339 -0.1138  0.1462
  679SOL     OW 2035   2.587   1.183   1.082  0.3661 -0.1180 -0.0703
  679SOL    HW1 2036   2.486   1.208   1.096  1.0129 -3.3640  0.7242
  679SOL    HW2 2037   2.605   1.081   1.067 -0.4841 -0.5375 -1.9390
  680SOL     OW 2038   2.795   0.617   1.710 -0.1636  0.5300  0.1404
  680SOL    HW1 2039   2.789   0.666   1.620  0.1788 -0.5560 -1.0685
  680SOL    HW2 2040   2.854   0.662   1.784 -1.9511 -0.3077  0.5081
  681SOL     OW 2041   3.003   0.190   1.658  0.3464 -0.1930 -0.2581
  681SOL    HW1 2042   3.072   0.150   1.602 -0.3455  0.6240  4.6890
  681SOL    HW2 2043   2.953   0.274   1.620 -2.2070  0.1727  1.7373
  682SOL     OW 2044   0.784   3.082   1.318 -1.2183  0.4808 -0.0651
  682SOL    HW1 2045   0.699   3.027   1.348  2.1306  1.2402 -1.1780
  682SOL    HW2 2046   0.790   3.083   1.212 -1.4518 -2.5210  0.9630
  683SOL     OW 2047   1.343   0.209   2.209 -0.2626 -0.4127 -0.1243
  683SOL    HW1 2048   1.352   0.255   2.303  4.3782 -1.6186 -0.9497
  683SOL    HW2 2049   1.427   0.216   2.153 -0.5650 -0.6963  0.0218
  684SOL     OW 2050   1.449   2.123   0.524 -0.5435 -0.0510  0.2075
  684SOL    HW1 2051   1.502   2.040   0.558  0.1922 -0.7408 -0.7026
  684SOL    HW2 2052   1.355   2.095   0.486  1.8804 -0.5179 -0.8459
  685SOL     OW 2053   2.126   1.998   1.967  0.1744 -0.4163  0.2102
  685SOL    HW1 2054   2.215   1.985   1.915  1.9574 -0.6560  1.2122
  685SOL    HW2 2055   2.119   1.942   2.060  1.1793 -1.3652  1.8455
  686SOL     OW 2056   1.517   1.794   2.728  0.2623 -0.0313  0.8019
  686SOL    HW1 2057   1.531   1.738   2.814  0.7837 -2.0869 -1.2193
  686SOL    HW2 2058   1.557   1.752   2.642 -1.8781 -0.9562  1.0055
  687SOL     OW 2059   1.276   2.486   1.995 -0.4288  0.0802 -0.0451
  687SOL    HW1 2060   1.260   2.387   1.981 -2.5598  4.2101 -3.4618
  687SOL    HW2 2061   1.327   2.513   2.080  0.4653  0.0153  1.0265
  688SOL     OW 2062   2.058   1.534   1.738 -0.2704  0.8203  0.3082
  688SOL    HW1 2063   2.144   1.585   1.764 -0.7516 -0.0663 -1.7975
  688SOL    HW2 2064   2.057   1.529   1.635 -0.2899 -0.1871 -1.2958
  689SOL     OW 2065   2.440   1.066   2.692  0.0608  0.1198 -0.7304
  689SOL    HW1 2066   2.340   1.032   2.707  2.5429 -1.9228  0.0103
  689SOL    HW2 2067   2.500   1.066   2.780  0.8060 -1.6434  0.8782
  690SOL     OW 2068   2.257   2.804   0.014  0.4302 -0.1694 -0.0335
  690SOL    HW1 2069   2.196   2.766  -0.060 -0.8288 -0.4779  0.2387
  690SOL    HW2 2070   2.197   2.807   0.100  1.8488 -3.1457  0.4774
  691SOL     OW 2071   2.588   0.480   2.214  0.0234  0.0590  0.3292
  691SOL    HW1 2072   2.656   0.404   2.192  1.6082 -0.2188  0.2137
  691SOL    HW2 2073   2.602   0.569   2.151 -1.6549  0.0580  0.8957
  692SOL     OW 2074   2.758   1.226   0.722  0.3562  0.0242 -0.5884
  692SOL    HW1 2075   2.660   1.209   0.698  2.0780 -0.6771  0.6833
  692SOL    HW2 2076   2.769   1.298   0.799  2.0077 -1.4576  1.8465
  693SOL     OW 2077   2.812   2.934   0.625 -0.6189  0.4492  0.6299
  693SOL    HW1 2078   2.806   3.011   0.694  1.8799 -2.4722  1.3140
  693SOL    HW2 2079   2.793   2.969   0.531 -0.3382 -2.2591  0.0081
  694SOL     OW 2080   2.349   2.184   0.073  0.2437 -0.0289  0.0353
  694SOL    HW1 2081   2.349   2.279   0.121 -1.3846  0.8089 -2.0165
  694SOL    HW2 2082   2.253   2.159   0.041  2.2217  0.8000 -0.0967
  695SOL     OW 2083   0.589   2.969   1.454  0.1127 -0.4332  0.3044
  695SOL    HW1 2084   0.537   2.882   1.421  0.0981  0.6651  0.0764
  695SOL    HW2 2085   0.536   3.014   1.533  2.8335 -1.7152  0.8499
  696SOL     OW 2086   2.806   1.946   0.776  0.3585  0.2078  0.1905
  696SOL    HW1 2087   2.871   1.866   0.781 -0.0964 -2.0054  4.5673
  696SOL    HW2 2088   2.725   1.930   0.712  1.7586 -1.5051 -0.4129
  697SOL     OW 2089   1.614   2.043   1.823  0.0709  0.4008 -0.1563
  697SOL    HW1 2090   1.697   2.015   1.872 -1.5038 -1.2769  1.0997
  697SOL    HW2 2091   1.621   2.143   1.788 -0.4917  3.0814 -0.5392
  698SOL     OW 2092   2.938   0.435   2.752 -0.3293  0.1520 -0.1706
  698SOL    HW1 2093   2.900   0.412   2.658  2.0567 -1.1659  0.7421
  698SOL    HW2 2094   3.011   0.366   2.789  3.1215 -1.0453 -1.6320
  699SOL     OW 2095   1.578   0.083   2.931 -0.0689  0.2200 -0.1461
  699SOL    HW1 2096   1.553   0.003   2.864 -1.5000  0.8816  2.2675
  699SOL    HW2 2097   1.616   0.162   2.877 -0.4276 -0.8619  1.2330
  700SOL     OW 2098   0.983   2.307   1.325  0.5983 -0.3551  0.0167
  700SOL    HW1 2099   1.078   2.267   1.301  1.7748 -1.1729 -0.2609
  700SOL    HW2 2100   0.909   2.297   1.254  0.7526  3.3529  0.4350
  701SOL     OW 2101   1.939   2.837   3.059  0.3399 -0.2220  0.2254
  701SOL    HW1 2102   1.897   2.794   3.144 -0.5352 -2.7618 -0.7858
  701SOL    HW2 2103   1.953   2.940   3.063  1.9008  1.7393 -0.6212
  702SOL     OW 2104   2.077   1.351   1.976 -0.0559 -0.1649 -0.9984
  702SOL    HW1 2105   2.163   1.290   1.967 -1.0283  0.1576 -1.9871
  702SOL    HW2 2106   2.045   1.395   1.890 -0.9618  0.8614 -1.9999
  703SOL     OW 2107   1.945   0.894   1.424  0.4663 -0.0452 -0.0712
  703SOL    HW1 2108   1.922   0.810   1.480  0.8285 -0.4223  3.9318
  703SOL    HW2 2109   1.988   0.969   1.480  1.1484  0.1942 -1.2612
  704SOL     OW 2110   0.319   2.051   1.661  0.0151 -0.2079 -0.0629
  704SOL    HW1 2111   0.345   1.996   1.743  1.0589  1.1576 -2.0184
  704SOL    HW2 2112   0.384   2.128   1.629  1.7377  1.1329 -0.6031
  705SOL     OW 2113   2.486   1.459   0.963 -0.4354 -0.8388  0.0171
  705SOL    HW1 2114   2.461   1.462   0.859  0.1919 -0.9157 -1.5707
  705SOL    HW2 2115   2.570   1.405   0.984  0.3641  0.9376 -0.2117
  706SOL     OW 2116   0.659   1.669   1.830  0.6261  0.5910  0.2981
  706SOL    HW1 2117   0.682   1.578   1.880  0.2910  0.8236 -0.1681
  706SOL    HW2 2118   0.664   1.744   1.902 -0.1818 -1.9557  0.1686
  707SOL     OW 2119   2.289   1.207   1.890  0.1245 -0.0318  0.1112
  707SOL    HW1 2120   2.390   1.195   1.911 -0.2074  2.1842  0.5649
  707SOL    HW2 2121   2.243   1.117   1.862  0.4335 -3.7541 -1.0426
  708SOL     OW 2122   3.044   0.536   3.074 -0.8228 -0.4580 -0.5165
  708SOL    HW1 2123   3.033   0.623   3.016  2.3353 -0.5595  3.5913
  708SOL    HW2 2124   3.038   0.440   3.027  1.2616 -1.4893 -0.1566
  709SOL     OW 2125   1.819   1.852   0.206 -0.1281  0.0055 -0.0989
  709SOL    HW1 2126   1.851   1.946   0.237  1.6460 -0.0529 -3.2178
  709SOL    HW2 2127   1.825   1.835   0.104  0.2836 -0.9236 -1.6480
  710SOL     OW 2128   1.729   1.637   2.440 -0.8167 -0.2919 -0.2625
  710SOL    HW1 2129   1.760   1.607   2.346  0.5064 -0.8427 -0.2900
  710SOL    HW2 2130   1.732   1.566   2.520 -2.8746 -3.1686  1.9297
  711SOL     OW 2131   2.676   2.988   0.959  0.5944  0.4646 -0.3013
  711SOL    HW1 2132   2.630   3.077   0.943 -0.8548 -2.7807  0.0175
  711SOL    HW2 2133   2.777   2.994   0.976 -0.3737  0.5359  1.5167
  712SOL     OW 2134   1.339   2.205   1.995 -0.0905 -0.3873 -0.0754
  712SOL    HW1 2135   1.431   2.237   2.030  0.2205  2.9944  1.7019
  712SOL    HW2 2136   1.333   2.199   1.892  1.3667  0.7728 -0.8486
  713SOL     OW 2137   2.942   1.455   2.551  0.3015 -0.2111  0.7312
  713SOL    HW1 2138   2.904   1.367   2.515  0.9382  0.5783  0.9346
  713SOL    HW2 2139   2.921   1.481   2.649  0.9842  0.2127 -1.1112
  714SOL     OW 2140   2.705   0.495   2.487 -0.6805  0.1240  0.3081
  714SOL    HW1 2141   2.657   0.442   2.562 -0.3392 -2.5339 -0.1269
  714SOL    HW2 2142   2.652   0.492   2.397 -3.1248  1.1891 -0.7808
  715SOL     OW 2143   1.606   2.017   1.156  0.1812  0.4309  1.1467
  715SOL    HW1 2144   1.556   2.088   1.102 -0.6878 -0.0067 -0.5793
  715SOL    HW2 2145   1.633   2.055   1.251 -0.0183  0.9132  0.4356
  716SOL     OW 2146   1.217   0.110   1.464  0.6183 -0.8554 -0.0919
  716SOL    HW1 2147   1.125   0.156   1.456  0.2704  0.2765 -0.7457
  716SOL    HW2 2148   1.286   0.183   1.457 -0.5164  0.0137  2.7999
  717SOL     OW 2149   1.136   0.522   1.598 -0.4528  0.3581  0.0821
  717SOL    HW1 2150   1.214   0.589   1.623  1.5859  1.6237 -1.7216
  717SOL    HW2 2151   1.157   0.492   1.501  0.8063  0.4550 -1.5648
  718SOL     OW 2152   0.677   0.949   0.989  0.2644 -0.3153  0.3044
  718SOL    HW1 2153   0.681   0.903   0.898  0.7224 -1.4207  2.9904
  718SOL    HW2 2154   0.640   1.043   0.986 -1.1305 -1.6639  2.5669
  719SOL     OW 2155   0.628   1.767   2.313  0.7868 -0.0336  0.2513
  719SOL    HW1 2156   0.693   1.818   2.377 -3.3443  0.6476  2.5819
  719SOL    HW2 2157   0.552   1.730   2.371 -1.8895  4.0233  1.6263
  720SOL     OW 2158   2.183   1.163   0.292 -0.0415  0.2801  0.4103
  720SOL    HW1 2159   2.240   1.098   0.236  1.9399 -0.1880 -1.6335
  720SOL    HW2 2160   2.172   1.131   0.389  0.8403 -0.8372  0.9261
  721SOL     OW 2161   2.254   2.990   2.121 -0.0042  0.0430  0.0437
  721SOL    HW1 2162   2.176   3.046   2.082  0.9880 -2.0416 -0.1941
  721SOL    HW2 2163   2.258   2.982   2.227  1.3359 -2.2940  0.0869
  722SOL     OW 2164   2.401   1.582   0.481 -0.0826  0.2455  0.6423
  722SOL    HW1 2165   2.463   1.562   0.400 -0.0950  0.4293  2.6745
  722SOL    HW2 2166   2.335   1.663   0.460 -1.9121  0.3104 -1.9571
  723SOL     OW 2167   2.520   2.712   1.971 -0.2056  0.2592  0.5301
  723SOL    HW1 2168   2.553   2.790   2.031 -0.3700 -0.2234  0.3244
  723SOL    HW2 2169   2.415   2.695   1.972 -1.7647  0.1919 -1.4059
  724SOL     OW 2170   0.524   2.480   2.419 -0.0509  0.0250  0.1992
  724SOL    HW1 2171   0.432   2.472   2.470 -1.0923  0.6118  1.5705
  724SOL    HW2 2172   0.602   2.513   2.487  1.6283 -0.1942  0.7563
  725SOL     OW 2173   2.473   2.796   1.504 -0.2883 -0.4657 -0.5184
  725SOL    HW1 2174   2.453   2.838   1.414 -1.8212  0.1560  0.3759
  725SOL    HW2 2175   2.496   2.694   1.502 -3.1457  0.3919  0.3190
  726SOL     OW 2176   2.487   2.257   0.688 -0.3450  0.2945  0.2854
  726SOL    HW1 2177   2.453   2.352   0.670 -1.3821 -3.8660 -1.4227
  726SOL    HW2 2178   2.472   2.196   0.603  2.0089 -1.8001 -2.5723
  727SOL     OW 2179   0.155   3.073   0.030 -0.2886  0.3158 -0.3016
  727SOL    HW1 2180   0.192   2.986   0.068  1.2519  0.0472 -1.5478
  727SOL    HW2 2181   0.170   3.089  -0.070 -0.0371 -2.0318  1.6708
  728SOL     OW 2182   2.879   0.659   0.969  0.4794  0.2501  0.3696
  728SOL    HW1 2183   2.793   0.646   0.912  1.6620  0.0369 -3.2718
  728SOL    HW2 2184   2.877   0.613   1.066  2.4110  0.9891 -0.4774
  729SOL     OW 2185   3.013   2.485   0.748  0.5822 -0.2021  0.2338
  729SOL    HW1 2186   2.967   2.397   0.782 -2.1396 -0.9875  0.0704
  729SOL    HW2 2187   3.117   2.485   0.724 -2.5110  1.7955 -1.2020
  730SOL     OW 2188   2.634   0.666   0.832  0.1804 -0.3533 -0.2290
  730SOL    HW1 2189   2.590   0.763   0.827 -0.5659  3.1633 -2.8860
  730SOL    HW2 2190   2.704   0.641   0.757 -2.1765 -3.8705 -2.7747
  731SOL     OW 2191   0.120   2.107   2.477  0.3423  0.2732 -0.8798
  731SOL    HW1 2192   0.051   2.144   2.544 -1.5717  0.0424 -0.9743
  731SOL    HW2 2193   0.201   2.173   2.472  1.5065 -0.3702 -2.1283
  732SOL     OW 2194   1.133   2.822   1.936 -0.0720  0.2469  0.2992
  732SOL    HW1 2195   1.169   2.783   2.028  0.3618  0.9183 -1.0224
  732SOL    HW2 2196   1.142   2.751   1.857  0.8388  0.8108  0.1820
  733SOL     OW 2197   3.046   0.582   2.229  0.0058  0.2743  0.1183
  733SOL    HW1 2198   3.140   0.609   2.196 -1.9025 -0.4203  1.2663
  733SOL    HW2 2199   2.979   0.553   2.147 -1.4000 -2.6388 -1.2515
  734SOL     OW 2200   1.397   0.371   2.765 -0.1516 -0.2765  0.1191
  734SOL    HW1 2201   1.396   0.471   2.805  0.8822 -0.0193  4.1379
  734SOL    HW2 2202   1.307   0.321   2.775  1.1296 -1.2548  2.0236
  735SOL     OW 2203   2.892   2.629   2.278  0.0733  0.0710 -0.0268
  735SOL    HW1 2204   2.850   2.631   2.182  0.8730 -0.7945 -2.1741
  735SOL    HW2 2205   2.991   2.661   2.273 -0.5308 -2.6315 -2.9545
  736SOL     OW 2206   0.787   0.306   2.648 -0.4850  0.1296  0.5718
  736SOL    HW1 2207   0.691   0.323   2.631 -0.7385 -1.6231  0.1400
  736SOL    HW2 2208   0.829   0.243   2.578 -0.0682 -3.3432 -0.1316
  737SOL     OW 2209   2.669   0.494   2.870  0.3587 -0.6932  0.0114
  737SOL    HW1 2210   2.640   0.458   2.964 -0.8546 -1.2935 -0.9406
  737SOL    HW2 2211   2.771   0.514   2.870  0.9953 -1.4221 -0.8267
  738SOL     OW 2212   1.632   1.280   2.910 -0.2346  0.3195  0.1244
  738SOL    HW1 2213   1.734   1.270   2.932  0.8215 -0.4434 -0.9656
  738SOL    HW2 2214   1.599   1.195   2.867 -0.8641  2.5330 -0.2323
  739SOL     OW 2215   1.717   0.626   0.680  0.1341 -0.5528  0.5725
  739SOL    HW1 2216   1.799   0.647   0.748  0.4722  0.9167 -0.7747
  739SOL    HW2 2217   1.721   0.528   0.645  3.0263  1.2480  0.7114
  740SOL     OW 2218   1.970   1.900   2.224  0.0972  0.2005 -0.5682
  740SOL    HW1 2219   2.000   1.837   2.298 -0.4430  1.9866  1.9677
  740SOL    HW2 2220   1.869   1.894   2.201  3.3828 -2.0330  1.0473
  741SOL     OW 2221   2.528   0.046   2.602 -0.3748 -0.5704  0.4082
  741SOL    HW1 2222   2.630   0.063   2.591 -1.5156  2.3174 -1.3886
  741SOL    HW2 2223   2.483   0.034   2.511  1.1580  1.5041 -1.2851
  742SOL     OW 2224   2.241   1.431   0.226  0.1372 -0.4144  0.4735
  742SOL    HW1 2225   2.163   1.500   0.251  0.0361  3.5079  2.4366
  742SOL    HW2 2226   2.214   1.336   0.262 -2.3092 -1.8529 -2.0135
  743SOL     OW 2227   1.855   0.666   2.598  0.1211  0.0505  0.1499
  743SOL    HW1 2228   1.819   0.588   2.541 -1.1447  4.9065  0.5723
  743SOL    HW2 2229   1.792   0.748   2.615  0.2607  2.0961  1.6879
  744SOL     OW 2230   2.612   2.112   0.140  0.2069 -0.3344 -0.0559
  744SOL    HW1 2231   2.514   2.139   0.125 -4.6387 -0.6812 -0.9178
  744SOL    HW2 2232   2.620   2.007   0.153 -2.6105 -1.8819 -1.2523
  745SOL     OW 2233   2.169   2.611   2.336  0.0716  0.0085  0.5994
  745SOL    HW1 2234   2.108   2.600   2.253  0.6568  0.6232  0.8479
  745SOL    HW2 2235   2.168   2.698   2.388  1.5580 -1.9273 -0.0505
  746SOL     OW 2236   0.007   2.617   1.712  0.0168 -0.0608 -0.2548
  746SOL    HW1 2237   0.081   2.586   1.647  1.7087  0.5383  2.1081
  746SOL    HW2 2238   0.022   2.707   1.756  1.1814 -1.5227  1.0996
  747SOL     OW 2239   0.044   1.770   1.659 -0.8872  0.3584 -0.3696
  747SOL    HW1 2240  -0.017   1.690   1.642  2.6690  1.3001 -0.5553
  747SOL    HW2 2241   0.120   1.772   1.591  2.0375 -0.0069 -0.7033
  748SOL     OW 2242   1.811   2.743   2.832  0.0203 -0.0209  0.2319
  748SOL    HW1 2243   1.853   2.787   2.917  4.0014  1.2414  1.0669
  748SOL    HW2 2244   1.708   2.757   2.818 -2.2107  0.0380 -4.8896
  749SOL     OW 2245   1.319   3.050   0.959 -1.0109  0.1627 -0.0772
  749SOL    HW1 2246   1.238   2.985   0.970 -0.6297  0.6480 -0.0503
  749SOL    HW2 2247   1.390   3.009   0.899 -0.3218 -1.3875 -1.4488
  750SOL     OW 2248   2.305   0.183   1.884  0.1943  0.0633 -0.1785
  750SOL    HW1 2249   2.318   0.259   1.813  2.0753 -1.1098  0.9798
  750SOL    HW2 2250   2.324   0.220   1.977  0.9497  1.0659 -2.5083
  751SOL     OW 2251   0.899   2.143   2.765 -0.2473 -0.6396 -1.0403
  751SOL    HW1 2252   0.963   2.176   2.843  0.6609 -0.0463 -0.0688
  751SOL    HW2 2253   0.804   2.127   2.801  0.7188 -0.6239 -0.0871
  752SOL     OW 2254   1.288   0.869   1.369  0.3078  0.2020  0.1611
  752SOL    HW1 2255   1.361   0.935   1.325 -2.1297  0.8136  0.2237
  752SOL    HW2 2256   1.317   0.768   1.385 -0.2834  1.0333  1.1407
  753SOL     OW 2257   0.919   2.569   1.676 -0.0573 -0.1726  0.1596
  753SOL    HW1 2258   1.014   2.611   1.691  2.0415  1.6841  0.1143
  753SOL    HW2 2259   0.849   2.641   1.649 -0.0741 -0.7684 -0.4524
  754SOL     OW 2260   1.092   1.217   3.023  0.2155  0.1286  0.7124
  754SOL    HW1 2261   1.181   1.165   3.005  2.9082  1.5722  1.8930
  754SOL    HW2 2262   1.103   1.320   3.024  2.0747  2.6334  1.2341
  755SOL     OW 2263   1.983   0.461   2.230  0.0511 -0.3205 -0.3505
  755SOL    HW1 2264   2.052   0.407   2.289  0.0986 -1.4726  2.2012
  755SOL    HW2 2265   1.889   0.459   2.277 -0.4768  0.4318  0.8236
  756SOL     OW 2266   2.547   1.033   2.951 -0.1731  0.2017  0.2392
  756SOL    HW1 2267   2.647   1.020   2.977 -2.2281  0.6246 -0.5969
  756SOL    HW2 2268   2.501   0.936   2.961  1.0916 -2.3939  0.5735
  757SOL     OW 2269   0.016   0.485   1.823 -0.8456 -0.6926 -0.9614
  757SOL    HW1 2270   0.069   0.451   1.738 -0.3911  0.7926 -0.5780
  757SOL    HW2 2271   0.019   0.428   1.908  4.3581 -1.8615 -0.2925
  758SOL     OW 2272   2.385   0.093   1.466  0.1558 -0.0312 -0.5149
  758SOL    HW1 2273   2.319   0.024   1.508 -0.9204 -0.4342  1.1487
  758SOL    HW2 2274   2.342   0.125   1.373 -1.5168  2.3824 -3.5350
  759SOL     OW 2275   1.706   0.065   0.064  0.3205  0.1602 -0.0126
  759SOL    HW1 2276   1.644   0.063  -0.018  1.2195  1.1021 -0.3701
  759SOL    HW2 2277   1.804   0.076   0.034  0.1842 -0.5643 -0.5332
  760SOL     OW 2278   2.723   2.094   2.804  0.0650 -0.7636  0.0577
  760SOL    HW1 2279   2.731   1.997   2.847 -0.4753 -1.3083  2.4355
  760SOL    HW2 2280   2.697   2.165   2.873  1.1835  0.2158 -2.0160
  761SOL     OW 2281   1.895   1.758   1.717 -0.0540 -0.1110  0.0410
  761SOL    HW1 2282   1.952   1.679   1.756  0.7313  2.7923  2.2181
  761SOL    HW2 2283   1.835   1.730   1.632  0.9315 -1.7603  2.8601
  762SOL     OW 2284   0.479   2.358   0.992 -0.2903 -0.4559  0.0071
  762SOL    HW1 2285   0.500   2.371   0.894  2.3108 -0.6958 -0.9060
  762SOL    HW2 2286   0.529   2.428   1.046  0.2668 -1.9230 -2.5893
  763SOL     OW 2287   2.065   1.503   2.924 -0.0369 -0.3874 -0.4709
  763SOL    HW1 2288   2.157   1.486   2.959 -4.0950  1.0605 -0.1473
  763SOL    HW2 2289   1.996   1.473   2.995 -0.7731  3.9355 -3.0391
  764SOL     OW 2290   0.652   0.609   0.851 -0.5483  0.4609  0.2763
  764SOL    HW1 2291   0.599   0.528   0.813 -0.2330 -0.6242  1.5394
  764SOL    HW2 2292   0.741   0.582   0.900  1.1389 -3.9719 -0.6760
  765SOL     OW 2293   0.716   0.261   0.757  0.2025 -0.1400 -0.0093
  765SOL    HW1 2294   0.794   0.286   0.695 -1.0368  0.0189 -1.3889
  765SOL    HW2 2295   0.731   0.276   0.859 -0.3468  1.2495  4.4449
  766SOL     OW 2296   2.875   2.098   0.016  0.5489 -0.3561 -0.2021
  766SOL    HW1 2297   2.780   2.112   0.054  1.6020 -0.7322  1.9424
  766SOL    HW2 2298   2.928   2.189  -0.013  1.9616  1.2170 -0.7698
  767SOL     OW 2299   2.806   1.572   0.615 -0.2890  0.0759  0.0240
  767SOL    HW1 2300   2.708   1.602   0.633 -0.0361  0.2059  2.0964
  767SOL    HW2 2301   2.885   1.634   0.637 -4.3530 -1.4967  0.3833
  768SOL     OW 2302   1.067   0.161   0.281  0.7796 -0.0445  0.5376
  768SOL    HW1 2303   1.017   0.098   0.340  1.4869  0.0756 -0.3062
  768SOL    HW2 2304   1.170   0.142   0.264  0.6380 -2.6338  1.3498
  769SOL     OW 2305   0.991   1.907   2.215 -0.1863 -0.0905 -0.2285
  769SOL    HW1 2306   0.912   1.903   2.289 -0.9353  0.9057  0.4738
  769SOL    HW2 2307   1.083   1.874   2.243 -0.2248 -1.6411  0.6884
  770SOL     OW 2308   0.190   1.126   2.308  0.0633 -0.2776 -0.4043
  770SOL    HW1 2309   0.162   1.203   2.374  0.6911  2.3823 -1.2994
  770SOL    HW2 2310   0.116   1.064   2.287 -0.6262  3.1919 -1.2432
  771SOL     OW 2311   3.012   2.846   1.906  0.1411  0.6087  0.4948
  771SOL    HW1 2312   2.994   2.905   1.823 -0.1838  0.0770  0.9738
  771SOL    HW2 2313   2.975   2.899   1.990  0.9942  2.5075 -1.8083
  772SOL     OW 2314   2.203   0.224   2.900 -0.0517 -0.3776  0.0486
  772SOL    HW1 2315   2.289   0.171   2.903  3.1091  1.0116  2.9155
  772SOL    HW2 2316   2.170   0.273   2.989 -0.9695  2.4756  1.9493
  773SOL     OW 2317   0.759   2.193   2.448  0.7605  0.2517  0.0157
  773SOL    HW1 2318   0.719   2.233   2.357 -1.5043  0.4319 -3.4825
  773SOL    HW2 2319   0.688   2.161   2.513 -1.2401  1.3693  0.0509
  774SOL     OW 2320   2.037   3.093   2.643  0.1574  0.3144  0.0254
  774SOL    HW1 2321   2.071   3.174   2.688 -1.3019  0.8222  1.5037
  774SOL    HW2 2322   2.078   2.999   2.679 -0.9845 -1.2533  2.3925
  775SOL     OW 2323   2.533   2.840   2.414  0.1181 -0.1830  0.4965
  775SOL    HW1 2324   2.532   2.943   2.416  1.8395  0.1488 -1.7977
  775SOL    HW2 2325   2.624   2.794   2.429  1.6510  1.4526  1.1612
  776SOL     OW 2326   0.024   1.329   0.193 -0.1626  0.1528 -0.1296
  776SOL    HW1 2327  -0.002   1.276   0.103 -0.1395 -2.5433 -1.3216
  776SOL    HW2 2328  -0.025   1.292   0.278 -0.8148 -0.7373 -1.1743
  777SOL     OW 2329   0.302   2.846   0.412 -0.1771  0.4674  0.1163
  777SOL    HW1 2330   0.216   2.899   0.394  1.0797  0.0412 -2.1582
  777SOL    HW2 2331   0.383   2.903   0.408 -0.5422 -0.3520 -0.1600
  778SOL     OW 2332   1.311   1.960   0.188 -0.4107  0.5531  0.4542
  778SOL    HW1 2333   1.271   1.992   0.278  0.3070  2.0755  1.8326
  778SOL    HW2 2334   1.373   2.038   0.145 -1.0645  2.1312 -2.0627
  779SOL     OW 2335   0.190   0.844   0.462 -0.0143  0.1603  0.0295
  779SOL    HW1 2336   0.118   0.773   0.450  0.2380  1.2556 -1.0992
  779SOL    HW2 2337   0.153   0.927   0.516 -0.9663 -0.2961  3.0308
  780SOL     OW 2338   0.100   0.213   2.237 -0.4831  0.3808 -1.0661
  780SOL    HW1 2339   0.158   0.299   2.252 -2.5698 -1.8233  1.2283
  780SOL    HW2 2340   0.156   0.132   2.209 -1.6366  1.3540 -0.2737
  781SOL     OW 2341   0.657   1.772   1.568 -0.5815 -0.2920  0.1340
  781SOL    HW1 2342   0.689   1.731   1.663  1.5742  0.4766  2.4490
  781SOL    HW2 2343   0.554   1.768   1.550 -0.6672 -0.7762 -0.7538
  782SOL     OW 2344   2.597   0.186   0.889  0.2599  0.5019  0.4357
  782SOL    HW1 2345   2.517   0.177   0.823  0.3609  1.4093 -1.5826
  782SOL    HW2 2346   2.569   0.228   0.984 -3.7787 -1.1083 -0.7195
  783SOL     OW 2347   2.847   0.736   2.588  0.2670 -0.6318 -0.5209
  783SOL    HW1 2348   2.790   0.765   2.672 -1.6041 -0.5335 -0.4184
  783SOL    HW2 2349   2.815   0.639   2.548 -0.2473 -1.0475 -2.5020
  784SOL     OW 2350   1.454   2.172   0.079 -0.7197 -0.1710  0.2274
  784SOL    HW1 2351   1.514   2.242   0.123 -0.5152 -1.2247  0.7458
  784SOL    HW2 2352   1.417   2.202  -0.012 -0.3852  0.7772 -1.6930
  785SOL     OW 2353   2.134   0.357   0.043 -0.0471  0.5135 -0.4119
  785SOL    HW1 2354   2.056   0.366   0.113 -1.5285 -1.4426 -0.5681
  785SOL    HW2 2355   2.170   0.448   0.013  1.4677 -2.3084 -0.3431
  786SOL     OW 2356   2.041   2.180   2.200  0.5473 -0.0248  0.6469
  786SOL    HW1 2357   2.022   2.080   2.220  0.1823 -0.7263 -0.7300
  786SOL    HW2 2358   2.120   2.178   2.132  3.5101  2.3291 -2.3048
  787SOL     OW 2359   1.406   0.623   0.984  0.3063  0.2333 -0.5771
  787SOL    HW1 2360   1.331   0.688   1.013 -0.4411  1.8620 -1.3967
  787SOL    HW2 2361   1.405   0.608   0.883  1.3760  0.6296 -2.1991
  788SOL     OW 2362   1.247   0.408   0.001  0.7029 -0.2266 -0.3979
  788SOL    HW1 2363   1.148   0.382  -0.025 -1.8342  0.4930  0.1819
  788SOL    HW2 2364   1.254   0.490   0.068 -2.5582 -1.9855  0.8370
  789SOL     OW 2365   2.573   0.085   1.831  0.7228 -1.2679 -1.0183
  789SOL    HW1 2366   2.471   0.120   1.835 -4.1828  0.3833 -0.9251
  789SOL    HW2 2367   2.576  -0.011   1.797 -0.0421  0.4318  1.5882
  790SOL     OW 2368   2.608   2.735   0.819 -0.5890 -0.6436  0.4370
  790SOL    HW1 2369   2.663   2.715   0.740 -4.9161 -0.4316 -1.4198
  790SOL    HW2 2370   2.659   2.793   0.888 -1.1753 -0.1859 -1.2711
  791SOL     OW 2371   1.919   1.245   0.230  0.1679  0.4571  0.1848
  791SOL    HW1 2372   1.820   1.207   0.234 -0.0428 -3.1479  1.9820
  791SOL    HW2 2373   1.984   1.164   0.243 -2.1339  0.2836  2.3262
  792SOL     OW 2374   0.445   1.994   2.146  0.1665  0.1282 -0.0254
  792SOL    HW1 2375   0.447   2.092   2.162  0.8947 -0.7008 -1.1811
  792SOL    HW2 2376   0.409   1.941   2.227 -1.5986 -0.9394 -3.8524
  793SOL     OW 2377   2.099   1.562   2.143 -0.1385  0.2911 -0.5842
  793SOL    HW1 2378   2.193   1.604   2.109  3.1789  1.7962 -1.4059
  793SOL    HW2 2379   2.083   1.464   2.104 -1.1935  1.6094 -1.5416
  794SOL     OW 2380   0.430   1.329   2.433 -0.3940 -0.0586  0.3647
  794SOL    HW1 2381   0.437   1.285   2.340  0.6666  1.4893  0.4425
  794SOL    HW2 2382   0.443   1.431   2.430  1.8354 -0.8744  0.0242
  795SOL     OW 2383   2.383   2.279   1.704 -0.2295  0.0466 -0.3890
  795SOL    HW1 2384   2.346   2.313   1.794  0.0561 -1.0879 -2.2630
  795SOL    HW2 2385   2.402   2.178   1.714 -1.0073  0.7111 -1.4367
  796SOL     OW 2386   3.077   1.114   2.660  0.1348 -0.2613 -0.1386
  796SOL    HW1 2387   2.972   1.102   2.664  1.9367 -1.8976 -0.6484
  796SOL    HW2 2388   3.129   1.088   2.751  1.1339 -0.2722  0.6992
  797SOL     OW 2389   0.784   0.611   1.348 -0.3705  0.5106  0.0789
  797SOL    HW1 2390   0.842   0.661   1.421 -1.3316  0.2968 -0.3574
  797SOL    HW2 2391   0.722   0.681   1.299  0.3628  0.7920  0.7934
  798SOL     OW 2392   1.351   0.389   1.117 -0.4998  0.2712  0.1090
  798SOL    HW1 2393   1.397   0.369   1.206  2.1107 -0.2285  0.2183
  798SOL    HW2 2394   1.389   0.476   1.064  0.6469  0.4285 -0.3851
  799SOL     OW 2395   1.919   2.641   1.043  0.4228 -0.6898 -0.0145
  799SOL    HW1 2396   1.885   2.595   1.131 -1.6943 -0.1354  1.6697
  799SOL    HW2 2397   1.859   2.641   0.957  0.1550 -1.0896  2.2096
  800SOL     OW 2398   2.964   0.749   1.925  0.1858  0.4181  0.7195
  800SOL    HW1 2399   2.966   0.851   1.937  1.8863 -0.0567  1.1707
  800SOL    HW2 2400   3.039   0.696   1.970  0.0789 -2.7632  0.7409
  801SOL     OW 2401   1.963   2.211   0.061  0.2996 -0.3734 -0.5393
  801SOL    HW1 2402   1.887   2.219  -0.004  0.3941  1.6159  2.6814
  801SOL    HW2 2403   2.027   2.131   0.031  0.5096 -0.3763  0.3908
  802SOL     OW 2404   0.624   0.807   2.581 -0.2831 -0.1023  0.3405
  802SOL    HW1 2405   0.668   0.751   2.505 -1.9948 -1.5712  2.4052
  802SOL    HW2 2406   0.524   0.834   2.564 -1.7840  4.0249  0.7922
  803SOL     OW 2407   0.966   0.052   0.788 -0.3610  0.1604  0.0024
  803SOL    HW1 2408   1.028   0.134   0.812  1.4292 -0.4357  2.0332
  803SOL    HW2 2409   0.964   0.040   0.685  0.5578  1.1002 -0.5131
  804SOL     OW 2410   0.307   0.003   2.163 -0.3037 -0.8698  0.3826
  804SOL    HW1 2411   0.327   0.100   2.122  2.9800 -0.1350  1.0094
  804SOL    HW2 2412   0.249  -0.060   2.100 -0.6642 -2.2233 -0.6309
  805SOL     OW 2413   2.337   0.369   0.405  0.2228  0.9359 -0.5634
  805SOL    HW1 2414   2.423   0.360   0.462 -1.2737 -2.4128 -1.8404
  805SOL    HW2 2415   2.347   0.322   0.309  0.3426  1.6610  0.1134
  806SOL     OW 2416   0.652   2.463   1.771  0.0641  0.4406 -0.4416
  806SOL    HW1 2417   0.637   2.560   1.810 -3.2566  1.6827  0.1540
  806SOL    HW2 2418   0.730   2.455   1.703  1.6008 -0.6560  2.1351
  807SOL     OW 2419   2.488   0.815   0.361  0.3425  0.0266  0.0416
  807SOL    HW1 2420   2.567   0.861   0.413 -1.9839 -0.4355  1.2422
  807SOL    HW2 2421   2.442   0.891   0.308 -1.2474  0.6592 -0.2670
  808SOL     OW 2422   0.661   2.091   2.893 -0.0610  0.7050  0.4522
  808SOL    HW1 2423   0.598   2.155   2.941  0.1480  0.8408 -1.1325
  808SOL    HW2 2424   0.657   1.997   2.937 -1.9010  1.8401 -1.5922
  809SOL     OW 2425   2.606   1.958   1.886 -0.4603  0.1135  0.1898
  809SOL    HW1 2426   2.698   2.000   1.888  0.8431 -0.8249  0.3435
  809SOL    HW2 2427   2.570   1.932   1.792 -1.9511 -3.6429 -0.4635
  810SOL     OW 2428   2.143   1.106   0.568  0.3970  0.4093 -0.5095
  810SOL    HW1 2429   2.120   1.015   0.605 -1.6825  3.5931 -4.2766
  810SOL    HW2 2430   2.084   1.179   0.611  3.3805  0.7161  0.1798
  811SOL     OW 2431   1.331   2.499   1.221 -0.1493 -0.2728  0.3518
  811SOL    HW1 2432   1.333   2.398   1.245 -0.7334  0.0384 -0.5376
  811SOL    HW2 2433   1.244   2.545   1.262 -0.2799 -1.0818 -0.7027
  812SOL     OW 2434   1.418   0.760   1.941  0.0100  0.2376  0.2548
  812SOL    HW1 2435   1.473   0.825   2.004  0.7888  0.0396  2.5327
  812SOL    HW2 2436   1.333   0.806   1.899  0.1922 -2.7267 -2.1260
  813SOL     OW 2437   1.650   2.041   2.523 -0.1693  0.0546  0.4093
  813SOL    HW1 2438   1.713   1.964   2.551 -2.5625  0.8361  0.5719
  813SOL    HW2 2439   1.604   2.029   2.433  0.4467  2.0476 -0.0068
  814SOL     OW 2440   2.933   1.543   2.809  0.3106  0.8766 -0.5858
  814SOL    HW1 2441   3.008   1.497   2.868 -2.0860  2.5716  0.3671
  814SOL    HW2 2442   2.946   1.645   2.813 -2.2362 -0.0705  0.5030
  815SOL     OW 2443   2.181   2.900   2.769  0.3424  0.4211  0.5475
  815SOL    HW1 2444   2.173   2.808   2.813  0.9186  0.5067 -0.1407
  815SOL    HW2 2445   2.231   2.964   2.837 -1.0566 -1.1237  0.9984
  816SOL     OW 2446   1.618   0.317   1.630  0.0629 -0.0250  0.0597
  816SOL    HW1 2447   1.676   0.240   1.670 -1.6509  0.9060  0.5361
  816SOL    HW2 2448   1.558   0.372   1.697 -0.1940  0.7002  1.3728
  817SOL     OW 2449   0.330   1.153   2.616  0.3498  0.3611 -0.1880
  817SOL    HW1 2450   0.225   1.158   2.608 -0.3765 -0.8166  2.0605
  817SOL    HW2 2451   0.365   1.232   2.556 -2.9168 -1.0350 -1.2450
  818SOL     OW 2452   1.954   0.980   0.330 -0.2446  0.5994 -0.1681
  818SOL    HW1 2453   2.039   0.946   0.371 -1.2973 -0.8074  1.5498
  818SOL    HW2 2454   1.884   1.018   0.402 -0.5521 -0.0816  0.8988
  819SOL     OW 2455   2.711   2.961   2.965  0.4844 -0.0952  0.4892
  819SOL    HW1 2456   2.782   2.884   2.975  2.5731 -1.0903  0.2723
  819SOL    HW2 2457   2.617   2.929   2.937 -1.5030 -1.4880 -0.3186
  820SOL     OW 2458   1.214   1.052   0.590  0.1095 -0.2546 -0.3098
  820SOL    HW1 2459   1.200   1.151   0.621 -1.7527 -1.4583 -2.1560
  820SOL    HW2 2460   1.202   0.980   0.671 -2.3200 -1.0843  0.9518
  821SOL     OW 2461   0.029   1.287   0.670 -0.3887 -0.2053  0.1111
  821SOL    HW1 2462  -0.007   1.283   0.763 -2.6797  3.4477 -0.7665
  821SOL    HW2 2463   0.054   1.383   0.639  1.0594  1.9234  0.6263
  822SOL     OW 2464   2.613   1.788   2.422 -0.6755  0.5654  0.3816
  822SOL    HW1 2465   2.620   1.866   2.490 -0.0579 -1.0302  1.8677
  822SOL    HW2 2466   2.524   1.787   2.367  0.9017 -0.6184  1.6428
  823SOL     OW 2467   2.030   0.851   1.136 -0.5572 -0.3338 -0.9933
  823SOL    HW1 2468   1.998   0.822   1.233 -0.7852 -3.4783  2.7029
  823SOL    HW2 2469   1.952   0.886   1.077 -0.2645  0.4249  0.2704
  824SOL     OW 2470   0.272   1.976   2.864 -0.7587 -0.2352  0.0208
  824SOL    HW1 2471   0.233   1.900   2.923  1.2222  0.5286  0.5875
  824SOL    HW2 2472   0.313   1.947   2.774 -1.4698 -1.8150  1.4419
  825SOL     OW 2473   1.285   1.092   0.303  0.2534 -0.7152  0.3519
  825SOL    HW1 2474   1.291   1.191   0.273  0.0069 -3.2697  0.8361
  825SOL    HW2 2475   1.251   1.080   0.403 -1.8529 -0.8490  1.5387
  826SOL     OW 2476   1.889   0.637   1.556  0.6583  0.3667  0.0024
  826SOL    HW1 2477   1.947   0.565   1.603 -0.7008 -1.4704 -0.4317
  826SOL    HW2 2478   1.802   0.602   1.505  0.4307  0.7857 -0.0352
  827SOL     OW 2479   0.716   1.239   0.245 -0.2204 -0.3905  0.8319
  827SOL    HW1 2480   0.795   1.192   0.205 -0.7789 -0.8734  1.5423
  827SOL    HW2 2481   0.637   1.185   0.275  0.9326 -0.1962  1.7934
  828SOL     OW 2482   2.630   0.198   1.568  0.3019 -0.1430  0.3545
  828SOL    HW1 2483   2.547   0.187   1.511  1.2075  2.0427  1.5027
  828SOL    HW2 2484   2.623   0.168   1.669 -2.0381  1.0135  1.0257
  829SOL     OW 2485   2.838   2.448   2.969  0.5207 -0.3096 -0.1656
  829SOL    HW1 2486   2.754   2.387   2.988  0.4361  0.4191 -0.3434
  829SOL    HW2 2487   2.811   2.544   2.945 -1.3484  0.2501 -2.1185
  830SOL     OW 2488   2.787   0.954   3.051  0.8681  0.1235  0.0011
  830SOL    HW1 2489   2.848   1.036   3.063 -0.7140  1.7661 -0.5496
  830SOL    HW2 2490   2.805   0.872   3.113 -0.0481  0.1655  2.6152
  831SOL     OW 2491   3.088   0.641   0.379  0.5615 -0.4343  0.4666
  831SOL    HW1 2492   3.072   0.601   0.474  1.0046 -0.8691 -1.1643
  831SOL    HW2 2493   3.131   0.576   0.309  1.8965  0.3773 -1.0390
  832SOL     OW 2494   1.821   0.789   3.018  0.0501  0.0521  0.4245
  832SOL    HW1 2495   1.737   0.835   2.979  0.8592  3.5813 -1.5992
  832SOL    HW2 2496   1.805   0.687   3.038 -0.2696 -0.3433 -0.3581
  833SOL     OW 2497   2.429   2.106   0.490  0.8638 -0.1115 -0.1257
  833SOL    HW1 2498   2.331   2.110   0.456 -0.0629  0.4076 -0.0371
  833SOL    HW2 2499   2.464   2.010   0.509 -2.2121  1.1541 -3.6884
  834SOL     OW 2500   0.110   0.244   0.487 -0.3598  0.1196  0.1593
  834SOL    HW1 2501   0.132   0.147   0.528 -3.9320 -1.1683  1.1631
  834SOL    HW2 2502   0.110   0.236   0.383  1.1643 -1.1882 -0.3540
  835SOL     OW 2503   2.293   1.546   1.141  0.4584 -0.1335  0.8915
  835SOL    HW1 2504   2.336   1.631   1.193  1.3005  0.1276  0.6343
  835SOL    HW2 2505   2.367   1.512   1.074  3.2289  1.0007  1.1932
  836SOL     OW 2506   1.621   0.843   2.601  0.5377 -0.3573 -0.3579
  836SOL    HW1 2507   1.524   0.812   2.604  3.3411  0.8783  1.4837
  836SOL    HW2 2508   1.665   0.848   2.508 -1.0941  1.8382  2.2131
  837SOL     OW 2509   1.632   0.095   0.560 -0.6882  0.0444  0.6479
  837SOL    HW1 2510   1.566   0.114   0.635 -0.1437 -1.0732  0.6799
  837SOL    HW2 2511   1.594   0.116   0.466 -1.8102  0.8279 -1.5779
  838SOL     OW 2512   1.240   1.515   2.774 -0.1802 -0.6386 -0.7556
  838SOL    HW1 2513   1.223   1.494   2.874  0.8020 -2.6328 -1.7879
  838SOL    HW2 2514   1.169   1.458   2.720  0.4112 -1.8640 -0.6818
  839SOL     OW 2515   1.744   0.256   1.021  0.1020  0.5060 -0.2766
  839SOL    HW1 2516   1.731   0.346   1.071 -2.0884  0.3092 -1.2339
  839SOL    HW2 2517   1.683   0.177   1.048 -0.1765  1.9128  0.0247
  840SOL     OW 2518   2.594   2.915   1.728 -0.8794 -0.4109  0.3099
  840SOL    HW1 2519   2.552   2.880   1.640  0.2843 -0.9987  2.1642
  840SOL    HW2 2520   2.573   2.858   1.806 -1.0983  1.1811 -0.7025
  841SOL     OW 2521   1.560   0.864   2.951  0.7120  0.5559 -0.1796
  841SOL    HW1 2522   1.524   0.896   3.041 -0.8050 -0.3753 -1.4715
  841SOL    HW2 2523   1.556   0.932   2.878  0.8923 -2.6417  0.3525
  842SOL     OW 2524   0.826   1.515   0.925  0.2766  0.0482 -0.0031
  842SOL    HW1 2525   0.781   1.589   0.990 -0.3805 -1.2945  1.0041
  842SOL    HW2 2526   0.744   1.459   0.883  0.3982 -0.5900 -0.4968
  843SOL     OW 2527   0.091   0.103   1.443  0.1727  0.7395  0.4476
  843SOL    HW1 2528   0.168   0.132   1.508 -0.0522  1.7800 -0.9487
  843SOL    HW2 2529   0.085  -0.000   1.447  1.7478 -0.9208  2.4056
  844SOL     OW 2530   0.800   2.508   0.296 -0.1651  0.4345  0.1681
  844SOL    HW1 2531   0.754   2.468   0.379  1.5454  1.6984 -0.2003
  844SOL    HW2 2532   0.730   2.562   0.244  2.7341 -1.1784 -1.9359
  845SOL     OW 2533   1.601   2.884   1.361  0.2057 -0.1549 -0.0430
  845SOL    HW1 2534   1.676   2.911   1.430  1.1126 -3.1100  3.0525
  845SOL    HW2 2535   1.509   2.926   1.389  0.6708  2.0911  1.0380
  846SOL     OW 2536   1.538   2.953   0.817  0.6111  0.4538  0.4633
  846SOL    HW1 2537   1.507   2.984   0.724 -1.3127 -0.6862  2.0821
  846SOL    HW2 2538   1.636   2.983   0.838 -1.6335 -1.9522  0.9778
  847SOL     OW 2539   2.019   1.626   0.275 -0.0264  0.2933 -0.0309
  847SOL    HW1 2540   1.987   1.551   0.340 -1.2123  0.3202 -1.6727
  847SOL    HW2 2541   1.933   1.667   0.227 -3.5275 -2.1659 -3.6411
  848SOL     OW 2542   2.510   0.791   2.623  0.7102 -0.7525  0.7173
  848SOL    HW1 2543   2.506   0.892   2.630 -2.5167  1.5270 -1.4194
  848SOL    HW2 2544   2.431   0.755   2.572  1.3481  0.8197  1.8896
  849SOL     OW 2545   2.561   0.843   2.347 -0.1968 -0.2421 -0.0922
  849SOL    HW1 2546   2.633   0.845   2.272  1.2098  0.0817 -0.0703
  849SOL    HW2 2547   2.594   0.806   2.437 -2.8285 -1.6970 -1.4775
  850SOL     OW 2548   1.543   0.120   1.345 -0.3683  0.7128  0.2243
  850SOL    HW1 2549   1.525   0.142   1.245 -1.1240 -0.6880 -1.3159
  850SOL    HW2 2550   1.488   0.032   1.371 -2.4320  0.3077 -2.0963
  851SOL     OW 2551   0.461   1.757   0.615  0.4410 -0.1532 -0.2923
  851SOL    HW1 2552   0.478   1.858   0.633  1.9613 -1.2171  0.4242
  851SOL    HW2 2553   0.536   1.719   0.558 -0.6342 -0.4606  1.7053
  852SOL     OW 2554   0.776   2.172   1.675  0.0072  0.3496 -0.1832
  852SOL    HW1 2555   0.773   2.262   1.612 -0.2548  0.5802 -2.7568
  852SOL    HW2 2556   0.695   2.153   1.739  2.0273  2.2160 -0.0861
  853SOL     OW 2557   2.512   1.560   2.599 -0.3283  0.3745 -0.0798
  853SOL    HW1 2558   2.472   1.474   2.566  1.2413 -1.3700  0.6323
  853SOL    HW2 2559   2.567   1.607   2.523 -1.6222 -1.3495 -3.0436
  854SOL     OW 2560   2.478   1.389   1.704  1.0632 -0.6155  0.3127
  854SOL    HW1 2561   2.527   1.350   1.624 -1.2191 -1.7977 -0.2814
  854SOL    HW2 2562   2.384   1.346   1.723  2.5566 -2.1478  1.7878
  855SOL     OW 2563   2.111   2.360   0.972  0.1127  0.1078 -0.2367
  855SOL    HW1 2564   2.100   2.452   0.931  0.7067 -0.9717  0.8929
  855SOL    HW2 2565   2.169   2.366   1.057 -2.0531 -2.5006 -1.3213
  856SOL     OW 2566   1.374   1.512   0.855  0.4599  0.1729  0.4768
  856SOL    HW1 2567   1.437   1.549   0.929 -2.8892  0.8920 -3.1330
  856SOL    HW2 2568   1.272   1.533   0.869 -1.6598 -0.1857 -2.8962
  857SOL     OW 2569   3.034   2.654   1.051 -1.1542 -0.1958 -0.0653
  857SOL    HW1 2570   2.957   2.588   1.042 -0.3944  3.4773  1.3792
  857SOL    HW2 2571   3.123   2.609   1.014 -2.3174 -2.9370 -3.2724
  858SOL     OW 2572   2.309   2.020   1.751 -0.1442  0.1000 -0.9427
  858SOL    HW1 2573   2.221   2.052   1.707 -0.9875  1.2524 -0.6011
  858SOL    HW2 2574   2.349   1.937   1.696 -1.6333 -1.8520 -0.3606
  859SOL     OW 2575   2.492   0.552   1.037 -0.4438 -0.5176 -0.0434
  859SOL    HW1 2576   2.562   0.583   0.964  0.6229 -1.3607  0.6246
  859SOL    HW2 2577   2.522   0.456   1.068  0.4900  2.2622 -0.5835
  860SOL     OW 2578   1.922   2.807   0.426 -0.1655  0.0780 -0.3009
  860SOL    HW1 2579   1.851   2.784   0.348 -1.0074 -0.3707 -3.1277
  860SOL    HW2 2580   2.011   2.840   0.399  0.5173 -1.1241  0.2178
  861SOL     OW 2581   1.068   2.514   2.814 -0.2336  0.4633  0.0578
  861SOL    HW1 2582   1.125   2.603   2.801 -1.5602 -0.4377  0.8218
  861SOL    HW2 2583   1.083   2.471   2.908 -2.4375  0.1477 -1.0887
  862SOL     OW 2584   2.862   2.529   1.614 -0.3249 -0.1917 -0.2622
  862SOL    HW1 2585   2.956   2.546   1.660  2.2506  1.7315 -1.4359
  862SOL    HW2 2586   2.821   2.609   1.561 -0.2726 -0.1757  1.8289
  863SOL     OW 2587   1.838   2.704   0.190 -0.0323  0.3218  0.3265
  863SOL    HW1 2588   1.910   2.625   0.186  2.1717 -0.5655 -0.6261
  863SOL    HW2 2589   1.742   2.665   0.204  2.6258 -1.6061  3.3337
  864SOL     OW 2590   1.904   1.173   2.845 -0.0823 -0.1206  0.1241
  864SOL    HW1 2591   1.938   1.131   2.755 -1.6002  0.4546 -0.4359
  864SOL    HW2 2592   1.973   1.171   2.925  0.5220  1.1797 -0.1708
  865SOL     OW 2593   2.247   1.856   0.590 -0.4857 -0.1916  0.0451
  865SOL    HW1 2594   2.290   1.878   0.683  0.8441 -3.3025 -0.0502
  865SOL    HW2 2595   2.168   1.787   0.608  0.2073 -0.4175  0.5955
  866SOL     OW 2596   2.990   2.942   1.030  0.0378 -0.1643 -0.4122
  866SOL    HW1 2597   3.029   2.959   0.938  3.0216  0.4400  2.7694
  866SOL    HW2 2598   2.978   2.839   1.053  2.5133 -2.4475 -0.2716
  867SOL     OW 2599   0.343   1.383   0.913  0.5930 -0.2186 -0.2029
  867SOL    HW1 2600   0.354   1.301   0.846  1.0394  1.5475 -0.5207
  867SOL    HW2 2601   0.336   1.474   0.867  0.3789  0.7749  0.9318
  868SOL     OW 2602   0.714   1.834   2.027 -0.2654  0.1780 -0.4869
  868SOL    HW1 2603   0.702   1.821   2.128  1.2394  0.0474 -1.1970
  868SOL    HW2 2604   0.677   1.926   1.989  1.7771  0.3498 -0.5641
  869SOL     OW 2605   2.539   1.949   1.600 -0.4569  0.0945  0.3337
  869SOL    HW1 2606   2.623   2.003   1.577 -1.0979 -1.6756  0.8617
  869SOL    HW2 2607   2.560   1.846   1.595 -0.4585  1.4038 -2.7649
  870SOL     OW 2608   2.312   2.648   1.277  0.1127 -0.3144  0.0619
  870SOL    HW1 2609   2.320   2.555   1.224  1.9411  0.4996 -2.1128
  870SOL    HW2 2610   2.285   2.640   1.373 -1.5920  1.7489  0.5424
  871SOL     OW 2611   3.019   2.163   0.577 -0.5915 -0.5463 -0.2087
  871SOL    HW1 2612   3.008   2.266   0.596  1.3094 -1.0349  0.7431
  871SOL    HW2 2613   2.949   2.129   0.509 -0.5872 -0.4149 -0.5049
  872SOL     OW 2614   2.112   0.477   1.694  0.1352 -0.0489  0.2639
  872SOL    HW1 2615   2.060   0.460   1.781 -0.7559  2.0568 -1.1744
  872SOL    HW2 2616   2.199   0.425   1.695 -0.6125 -1.0841 -0.1294
  873SOL     OW 2617   1.708   2.111   3.049 -0.1193 -0.1114 -0.3340
  873SOL    HW1 2618   1.625   2.121   3.114  0.3593 -0.0010  1.0267
  873SOL    HW2 2619   1.678   2.089   2.950  0.7727 -1.1186 -0.9954
  874SOL     OW 2620   0.663   2.434   0.777  0.2689 -0.1461  0.4923
  874SOL    HW1 2621   0.664   2.528   0.822  2.3630 -1.9819 -0.6213
  874SOL    HW2 2622   0.760   2.390   0.781  3.3497 -0.1532 -0.8783
  875SOL     OW 2623   2.277   1.576   1.422 -0.5281 -0.3572  0.0933
  875SOL    HW1 2624   2.371   1.599   1.449  0.8061  0.6094  1.0035
  875SOL    HW2 2625   2.275   1.497   1.352  1.2409 -0.2628 -0.9961
  876SOL     OW 2626   0.085   2.231   2.750 -0.2739  0.7375  0.0912
  876SOL    HW1 2627   0.163   2.174   2.791 -1.5806  0.1808  1.3089
  876SOL    HW2 2628   0.077   2.326   2.791 -1.8508 -4.0781 -1.0291
  877SOL     OW 2629   2.897   2.663   0.588 -0.6024  0.8294 -0.5636
  877SOL    HW1 2630   2.888   2.764   0.619  0.1614  0.9425 -0.0280
  877SOL    HW2 2631   2.930   2.601   0.661  0.0509  2.3884 -1.8786
  878SOL     OW 2632   2.829   1.522   2.200  0.6022  0.0563  0.0264
  878SOL    HW1 2633   2.931   1.498   2.183  0.6477  1.2199 -0.2701
  878SOL    HW2 2634   2.812   1.573   2.287  1.3069  0.6966 -1.9925
  879SOL     OW 2635   2.359   0.066   1.159 -0.1292 -0.1609 -0.3007
  879SOL    HW1 2636   2.393  -0.022   1.199  1.7220  0.2191  0.7011
  879SOL    HW2 2637   2.263   0.057   1.117 -1.4213 -0.1726 -0.1019
  880SOL     OW 2638   0.724   0.477   2.265 -0.3221  0.2945 -0.4438
  880SOL    HW1 2639   0.650   0.418   2.310  1.1029 -0.5843  0.5721
  880SOL    HW2 2640   0.767   0.432   2.180 -0.0696  1.6586 -3.2672
  881SOL     OW 2641   0.865   0.065   0.472  0.3390  0.2918 -0.1222
  881SOL    HW1 2642   0.910  -0.031   0.474 -0.6568  0.1095  1.1098
  881SOL    HW2 2643   0.770   0.046   0.429 -1.4207 -2.3766 -2.6057
  882SOL     OW 2644   2.715   1.724   1.675  0.2411  0.3365 -0.5602
  882SOL    HW1 2645   2.808   1.683   1.639  0.7059  0.9728  0.5661
  882SOL    HW2 2646   2.702   1.719   1.780 -2.8732 -3.4098  0.0666
  883SOL     OW 2647   0.871   0.576   0.986 -0.4506  0.6741 -0.6049
  883SOL    HW1 2648   0.880   0.673   1.016 -0.9160  1.5955  2.0853
  883SOL    HW2 2649   0.916   0.512   1.056 -1.2684 -1.1216  0.3876
  884SOL     OW 2650   1.211   1.777   1.176 -0.1933  0.4825  0.1853
  884SOL    HW1 2651   1.156   1.720   1.119 -0.3441 -0.4493  0.0707
  884SOL    HW2 2652   1.188   1.877   1.149 -3.4304  0.4109  0.4271
  885SOL     OW 2653   2.360   1.802   2.299 -0.1398  0.1293 -0.3281
  885SOL    HW1 2654   2.275   1.750   2.339  1.4541 -3.7704  0.5866
  885SOL    HW2 2655   2.327   1.899   2.274  1.9603 -0.2622 -0.1590
  886SOL     OW 2656   2.623   0.420   1.787 -0.6501 -0.2751 -0.0223
  886SOL    HW1 2657   2.628   0.400   1.887  1.7731 -1.8778 -0.3213
  886SOL    HW2 2658   2.685   0.497   1.754 -1.5292 -0.8616 -0.3821
  887SOL     OW 2659   0.103   2.046   1.315  0.0281 -0.0815 -0.6930
  887SOL    HW1 2660   0.042   1.994   1.245 -2.5664 -0.8144 -0.9218
  887SOL    HW2 2661   0.112   2.147   1.292  2.1695  0.6216  1.3401
  888SOL     OW 2662   0.565   1.264   1.538  0.4102  0.1913 -0.3852
  888SOL    HW1 2663   0.595   1.306   1.449 -1.9058 -0.8989  0.3783
  888SOL    HW2 2664   0.563   1.159   1.542 -0.4700  0.4690  1.4273
  889SOL     OW 2665   0.806   2.482   2.148 -0.4877 -0.0430  0.0934
  889SOL    HW1 2666   0.765   2.388   2.161 -1.0743  0.4542 -2.9806
  889SOL    HW2 2667   0.873   2.474   2.067 -0.6104  1.3767  3.4088
  890SOL     OW 2668   2.423   2.450   0.196 -0.1538  0.3935  0.6919
  890SOL    HW1 2669   2.428   2.517   0.116 -0.0799 -1.4600 -1.9130
  890SOL    HW2 2670   2.362   2.486   0.270 -0.1947  3.6918 -0.5291
  891SOL     OW 2671   2.564   1.684   0.717  0.7882  0.1622 -0.0847
  891SOL    HW1 2672   2.536   1.701   0.818  0.0763 -1.4667 -1.3500
  891SOL    HW2 2673   2.504   1.617   0.663  1.0354 -0.9446  3.4131
  892SOL     OW 2674   0.378   0.297   2.165 -0.0079 -0.5264 -0.2887
  892SOL    HW1 2675   0.371   0.388   2.114  1.0004 -0.9038 -0.5984
  892SOL    HW2 2676   0.437   0.309   2.249  1.1032 -1.6253 -3.8368
  893SOL     OW 2677   1.673   0.273   2.750  0.4083  0.2036  0.1328
  893SOL    HW1 2678   1.756   0.329   2.772  0.7062  1.1442 -2.6085
  893SOL    HW2 2679   1.584   0.327   2.736  0.2636 -0.8417 -1.5852
  894SOL     OW 2680   2.144   2.016   3.075  0.3433 -0.5757 -0.0835
  894SOL    HW1 2681   2.134   1.941   2.999  2.4004 -0.8935 -1.2340
  894SOL    HW2 2682   2.167   1.977   3.165  3.3264  0.7432 -3.8083
  895SOL     OW 2683   2.814   1.424   0.935  0.2141  0.1097  0.1460
  895SOL    HW1 2684   2.902   1.372   0.949  2.8686 -1.0945 -3.0369
  895SOL    HW2 2685   2.832   1.526   0.936  2.1156 -1.9285 -1.9222
  896SOL     OW 2686   1.780   1.815   1.219  0.8765  0.0458 -0.2594
  896SOL    HW1 2687   1.841   1.783   1.139 -0.1103 -1.6558 -2.5530
  896SOL    HW2 2688   1.720   1.894   1.191  0.1277  0.9554  0.9978
  897SOL     OW 2689   0.330   0.582   0.033  0.0859  0.5946  0.2462
  897SOL    HW1 2690   0.277   0.629  -0.049 -1.1485 -0.8501  2.6892
  897SOL    HW2 2691   0.432   0.607   0.021  0.2197  0.2812  1.4907
  898SOL     OW 2692   0.577   2.891   1.101  0.4858  0.3502  0.3903
  898SOL    HW1 2693   0.536   2.985   1.115  1.0637  0.6597  0.8135
  898SOL    HW2 2694   0.650   2.862   1.170 -0.7108  0.8510 -1.9324
  899SOL     OW 2695   2.795   0.910   1.281 -0.0366  0.0758 -0.5898
  899SOL    HW1 2696   2.722   0.919   1.208 -1.4242 -0.9165  1.2632
  899SOL    HW2 2697   2.891   0.891   1.249  0.2126 -2.1244  1.7370
  900SOL     OW 2698   1.029   2.566   2.388  0.6943  0.4219 -0.0875
  900SOL    HW1 2699   0.966   2.535   2.311  0.8853 -3.1623 -2.2690
  900SOL    HW2 2700   1.007   2.519   2.478 -0.0009  1.6969 -0.7170
  901SOL     OW 2701   1.934   2.342   1.332 -0.1091  0.2473  0.1559
  901SOL    HW1 2702   1.903   2.311   1.232 -1.4322  1.1212 -0.5703
  901SOL    HW2 2703   2.022   2.296   1.364  1.0374 -1.3440 -2.6215
  902SOL     OW 2704   2.579   1.647   1.442 -0.1800 -0.0235 -0.6255
  902SOL    HW1 2705   2.633   1.660   1.526 -1.6074 -0.3030 -1.3065
  902SOL    HW2 2706   2.636   1.627   1.357 -0.5689 -1.2815 -0.8361
  903SOL     OW 2707   0.262   2.498   1.960  0.2593 -0.2089  0.1522
  903SOL    HW1 2708   0.170   2.459   1.936  0.4424 -1.8567 -2.0101
  903SOL    HW2 2709   0.295   2.567   1.893  2.9088 -0.6344  3.3401
  904SOL     OW 2710   2.074   0.793   2.493  0.3183 -0.1057  0.7799
  904SOL    HW1 2711   2.002   0.746   2.554  2.0081  1.5426  0.1490
  904SOL    HW2 2712   2.056   0.791   2.393 -1.1931 -0.1146  0.6664
  905SOL     OW 2713   2.817   0.078   2.561 -0.7166 -0.1345  0.1211
  905SOL    HW1 2714   2.862  -0.007   2.531 -0.1276  0.9988 -1.3722
  905SOL    HW2 2715   2.860   0.166   2.527  0.7965 -1.4149  1.5126
  906SOL     OW 2716   0.147   1.722   1.912  0.3659  0.4486 -0.3417
  906SOL    HW1 2717   0.085   1.746   1.832 -0.3046 -2.7390 -1.8323
  906SOL    HW2 2718   0.234   1.774   1.896 -0.4327  0.3494  1.0122
  907SOL     OW 2719   0.195   2.445   0.998 -0.8462 -0.5235  0.2505
  907SOL    HW1 2720   0.297   2.451   0.998 -2.3592  0.6051  0.1096
  907SOL    HW2 2721   0.151   2.382   1.069 -1.3674  1.6897 -1.1948
  908SOL     OW 2722   2.726   2.992   0.380 -0.3077 -0.2098 -0.0190
  908SOL    HW1 2723   2.714   3.056   0.296 -2.6286  0.0206  0.0983
  908SOL    HW2 2724   2.768   2.901   0.357 -0.0672 -2.0242 -1.2693
  909SOL     OW 2725   0.778   1.023   2.640 -0.5345  0.0680  0.1191
  909SOL    HW1 2726   0.720   0.943   2.605  0.0248  2.2399  0.8521
  909SOL    HW2 2727   0.846   1.055   2.566 -2.1621 -0.9320 -0.7948
  910SOL     OW 2728   1.708   1.859   2.148 -0.4071  0.2236 -0.2587
  910SOL    HW1 2729   1.755   1.905   2.068 -0.5644 -2.1816  1.8933
  910SOL    HW2 2730   1.627   1.905   2.191  0.3357 -0.3467  2.4308
  911SOL     OW 2731   1.811   2.917   1.562  0.4483 -0.1481  0.0085
  911SOL    HW1 2732   1.889   2.885   1.503 -1.8280 -3.7367 -0.6148
  911SOL    HW2 2733   1.798   2.851   1.645 -1.7787 -0.8197  2.9446
  912SOL     OW 2734   2.868   0.981   0.715  0.4793 -0.1309  0.2154
  912SOL    HW1 2735   2.889   0.958   0.814 -1.7394 -1.1519 -0.3438
  912SOL    HW2 2736   2.808   1.067   0.696 -2.4185 -0.2457  1.7100
  913SOL     OW 2737   2.593   1.280   1.467 -0.2490  0.7519 -0.0672
  913SOL    HW1 2738   2.615   1.179   1.455  0.1729 -0.0451 -1.9122
  913SOL    HW2 2739   2.641   1.340   1.400 -1.1745  1.0196 -0.7769
  914SOL     OW 2740   2.894   0.552   1.224  0.7636  0.5938 -0.3162
  914SOL    HW1 2741   2.844   0.460   1.236  0.2908 -1.9086  0.2486
  914SOL    HW2 2742   2.851   0.614   1.297 -0.8670 -0.2434 -1.2619
  915SOL     OW 2743   1.201   0.777   1.090  0.0371 -0.0320  0.1637
  915SOL    HW1 2744   1.240   0.842   1.158 -1.8069  1.1267 -2.4857
  915SOL    HW2 2745   1.105   0.805   1.074 -1.5436 -1.8054 -1.6004
  916SOL     OW 2746   0.591   0.027   0.664  0.2875  0.0202  0.1570
  916SOL    HW1 2747   0.612   0.120   0.705  0.1653 -0.2769  1.2430
  916SOL    HW2 2748   0.593   0.027   0.559  2.7923 -1.9852 -1.8036
  917SOL     OW 2749   2.825   2.617   1.949  0.3838 -0.3526  0.0157
  917SOL    HW1 2750   2.736   2.654   1.914 -0.6202 -1.2067 -3.1375
  917SOL    HW2 2751   2.902   2.685   1.925  1.1211  0.6378 -1.4435
  918SOL     OW 2752   1.044   2.183   3.002  0.4123  0.2252 -0.6583
  918SOL    HW1 2753   1.021   2.218   3.100 -0.4277 -0.0426 -0.0911
  918SOL    HW2 2754   1.135   2.131   3.007 -0.5444 -1.4549  2.2080
  919SOL     OW 2755   0.845   1.678   2.821 -0.1548 -0.0895 -0.8232
  919SOL    HW1 2756   0.912   1.754   2.800  0.4308  0.2260 -0.6809
  919SOL    HW2 2757   0.824   1.609   2.749  2.6541 -0.4593 -0.5806
  920SOL     OW 2758   1.216   1.897   2.431  0.1719  0.1148  0.1962
  920SOL    HW1 2759   1.278   1.883   2.347  0.8218 -0.7530  0.6174
  920SOL    HW2 2760   1.241   1.825   2.500  0.7509  0.3972 -1.9965
  921SOL     OW 2761   1.020   0.024   2.635  0.3249 -0.2359 -0.4815
  921SOL    HW1 2762   1.018  -0.001   2.539  0.5086  0.6725  1.9113
  921SOL    HW2 2763   0.948  -0.027   2.690 -1.8616  0.9418 -1.6524
  922SOL     OW 2764   2.161   2.386   2.784 -0.2988 -0.2805 -0.3645
  922SOL    HW1 2765   2.214   2.295   2.786  0.5212 -2.6874 -0.1875
  922SOL    HW2 2766   2.100   2.391   2.703 -0.7435  0.9118 -2.7967
  923SOL     OW 2767   1.238   2.668   0.256  0.0887 -0.6804 -0.2505
  923SOL    HW1 2768   1.314   2.707   0.318  2.5694 -0.3276  0.6903
  923SOL    HW2 2769   1.247   2.563   0.245 -0.7679 -2.7985 -0.4945
  924SOL     OW 2770   2.893   1.507   0.144  0.7202 -0.2101 -0.3446
  924SOL    HW1 2771   2.810   1.526   0.084  0.8136 -0.2641 -1.3220
  924SOL    HW2 2772   2.959   1.435   0.107  3.2658 -0.3264 -1.9547
  925SOL     OW 2773   0.039   2.945   1.555  0.2231 -0.2211 -0.1743
  925SOL    HW1 2774  -0.046   3.001   1.576  0.5385 -1.2676  3.3576
  925SOL    HW2 2775   0.028   2.848   1.537  2.5758 -0.1905 -0.9505
  926SOL     OW 2776   1.305   2.829   1.227 -0.0197  0.2329 -0.4073
  926SOL    HW1 2777   1.382   2.814   1.160 -0.5317 -1.2806 -1.1357
  926SOL    HW2 2778   1.321   2.912   1.288 -1.1927  1.8131  0.6607
  927SOL     OW 2779   0.335   2.660   1.768  0.4615  0.2891 -0.2322
  927SOL    HW1 2780   0.324   2.585   1.695 -2.5018  1.1785  0.4566
  927SOL    HW2 2781   0.306   2.751   1.736  1.7179  1.0950 -0.3164
  928SOL     OW 2782   1.531   2.071   2.277  0.5450  0.2491 -0.4323
  928SOL    HW1 2783   1.567   2.146   2.214 -3.0781 -1.5065  1.1285
  928SOL    HW2 2784   1.429   2.059   2.248 -1.3458  1.5973 -1.3699
  929SOL     OW 2785   2.400   2.491   2.875  0.6334 -0.4676 -0.0641
  929SOL    HW1 2786   2.302   2.465   2.859  2.1661  1.6425 -0.0178
  929SOL    HW2 2787   2.452   2.465   2.789  0.6487  2.2886 -1.3866
  930SOL     OW 2788   2.179   1.979   1.069 -0.1201 -0.6670  0.3925
  930SOL    HW1 2789   2.173   1.926   1.157  0.6403  0.5711 -1.7223
  930SOL    HW2 2790   2.258   2.050   1.072  0.0572  0.4562  0.5360
  931SOL     OW 2791   0.561   1.710   2.711  0.1881 -0.2616  0.0346
  931SOL    HW1 2792   0.573   1.752   2.800 -1.3753  0.2030  0.0332
  931SOL    HW2 2793   0.610   1.623   2.697  2.7831  2.5249 -3.9879
  932SOL     OW 2794   0.438   0.106   2.939  0.0083 -0.1940  0.3171
  932SOL    HW1 2795   0.527   0.157   2.948 -0.5161  1.2230 -1.1161
  932SOL    HW2 2796   0.443  -0.000   2.962 -1.2219  2.2165  1.5443
  933SOL     OW 2797   1.010   0.806   3.048  0.6903 -0.8894  0.1336
  933SOL    HW1 2798   0.972   0.840   3.138 -0.5945 -2.9491 -0.4374
  933SOL    HW2 2799   0.994   0.873   2.968 -0.2011 -0.0218 -1.3675
  934SOL     OW 2800   0.788   2.951   2.633  0.1688 -0.4285  0.2973
  934SOL    HW1 2801   0.786   2.881   2.560 -0.1688 -2.1041 -0.0411
  934SOL    HW2 2802   0.825   2.911   2.719  0.7410 -1.9470 -0.8954
  935SOL     OW 2803   3.102   0.567   0.840 -0.8421 -0.1013 -0.1115
  935SOL    HW1 2804   3.095   0.530   0.744 -3.4779 -3.3256 -0.6117
  935SOL    HW2 2805   3.019   0.617   0.867  1.9967 -0.9452  0.4350
  936SOL     OW 2806   1.095   2.828   0.088  0.1709  0.4232 -0.4707
  936SOL    HW1 2807   1.151   2.876   0.019  0.4056 -1.4066  2.5923
  936SOL    HW2 2808   1.149   2.782   0.162  0.9191  2.0754  1.9193
  937SOL     OW 2809   1.955   2.615   2.075  0.2623  0.6191 -0.1189
  937SOL    HW1 2810   1.878   2.653   2.130  2.9269  0.8315  2.5631
  937SOL    HW2 2811   2.018   2.689   2.026  0.5222 -1.0741 -1.0393
  938SOL     OW 2812   2.793   2.089   1.556  0.1730 -0.3364 -0.2778
  938SOL    HW1 2813   2.741   2.173   1.594 -1.7323  0.5576 -1.6247
  938SOL    HW2 2814   2.876   2.057   1.613 -1.8355 -0.7952 -1.3224
  939SOL     OW 2815   2.809   1.201   2.517 -0.2950  0.2812  0.3666
  939SOL    HW1 2816   2.864   1.144   2.451 -1.1586 -2.9882  0.7502
  939SOL    HW2 2817   2.769   1.154   2.598  0.8718  0.2290  0.3415
  940SOL     OW 2818   1.032   0.425   2.720  0.0971  0.2688  0.0075
  940SOL    HW1 2819   1.084   0.335   2.730 -4.7059  1.4510  0.2581
  940SOL    HW2 2820   0.942   0.412   2.668  2.5669  0.0653  0.8430
  941SOL     OW 2821   0.050   2.790   2.253 -0.3389  0.3714  0.1325
  941SOL    HW1 2822   0.116   2.714   2.234  1.7863 -1.7714  0.7104
  941SOL    HW2 2823   0.094   2.870   2.311  2.5273  3.4129  1.6271
  942SOL     OW 2824   0.102   0.104   2.490 -0.1243 -0.5829 -0.8684
  942SOL    HW1 2825   0.159   0.155   2.555 -2.9264 -2.9385 -1.5693
  942SOL    HW2 2826   0.083   0.152   2.402 -0.3927 -0.1542  2.4030
  943SOL     OW 2827   2.112   1.710   2.382  0.4010  0.5239  0.6013
  943SOL    HW1 2828   2.115   1.621   2.329  0.0285  1.7225  0.2560
  943SOL    HW2 2829   2.080   1.701   2.479  2.0900  1.4516 -2.9187
  944SOL     OW 2830   2.176   2.345   1.467 -0.0798  0.0461  0.1238
  944SOL    HW1 2831   2.257   2.395   1.504 -2.5700 -1.5962  1.1902
  944SOL    HW2 2832   2.126   2.299   1.543  2.5494  1.2040  1.0089
  945SOL     OW 2833   0.705   1.509   0.264  0.1516 -0.1330 -0.2550
  945SOL    HW1 2834   0.661   1.540   0.176  2.1195 -2.6655  0.8913
  945SOL    HW2 2835   0.698   1.408   0.270  1.6568  1.0943 -2.4327
  946SOL     OW 2836   0.399   0.953   2.441 -0.1348 -0.1710  0.1369
  946SOL    HW1 2837   0.321   0.908   2.398  1.0937  0.7763 -0.1693
  946SOL    HW2 2838   0.368   1.034   2.495 -1.8074  0.6616  0.0318
  947SOL     OW 2839   1.527   0.450   3.088  0.1091 -0.4780  0.3917
  947SOL    HW1 2840   1.479   0.506   3.017 -1.7245 -1.1687  0.3078
  947SOL    HW2 2841   1.465   0.378   3.136  0.2120  1.5243 -1.7393
  948SOL     OW 2842   1.914   3.047   2.172  0.4516  0.3599 -0.3924
  948SOL    HW1 2843   1.947   3.003   2.082  1.0800 -2.9188 -1.9622
  948SOL    HW2 2844   1.894   2.970   2.241  1.7493 -0.5231 -1.9473
  949SOL     OW 2845   0.541   2.487   0.531 -0.1480 -0.2390 -0.1258
  949SOL    HW1 2846   0.560   2.588   0.510  1.6577 -0.0231  2.9497
  949SOL    HW2 2847   0.574   2.465   0.630  0.9446  2.6217  1.1866
  950SOL     OW 2848   0.189   2.199   3.027  0.2668  0.0347 -0.2438
  950SOL    HW1 2849   0.089   2.232   3.023  0.5042  2.8841 -2.2479
  950SOL    HW2 2850   0.216   2.124   2.964 -1.0628  1.0761  1.5759
  951SOL     OW 2851   1.262   2.712   2.736 -0.0463  0.0534  0.3133
  951SOL    HW1 2852   1.335   2.644   2.730  0.2075  1.3253 -3.4399
  951SOL    HW2 2853   1.244   2.763   2.646 -1.2349  1.4813  0.5171
  952SOL     OW 2854   0.013   1.725   0.396  0.4798  0.5071  0.8802
  952SOL    HW1 2855   0.092   1.802   0.389 -1.2878  0.5328 -1.9666
  952SOL    HW2 2856   0.017   1.678   0.487 -0.0541  2.8406 -3.7332
  953SOL     OW 2857   2.491   1.744   0.269 -0.5076  0.1390  0.2993
  953SOL    HW1 2858   2.523   1.644   0.267 -0.0040  0.1207  0.8770
  953SOL    HW2 2859   2.509   1.789   0.178  1.1085 -1.5847 -2.1075
  954SOL     OW 2860   2.222   0.560   0.962 -0.0157 -0.0531  0.1628
  954SOL    HW1 2861   2.212   0.590   0.862  0.4204  0.8527  1.7785
  954SOL    HW2 2862   2.319   0.555   0.994 -1.9926 -0.9252 -0.4604
  955SOL     OW 2863   0.182   2.602   1.281  0.1349  0.6682 -0.0965
  955SOL    HW1 2864   0.094   2.649   1.285  1.3821  0.2622 -1.2640
  955SOL    HW2 2865   0.252   2.655   1.218 -0.4677  1.2733 -1.3734
  956SOL     OW 2866   2.772   2.448   2.453 -0.3426 -0.5755 -0.2632
  956SOL    HW1 2867   2.818   2.356   2.442  2.6298 -2.1405 -1.4597
  956SOL    HW2 2868   2.810   2.517   2.381  0.6502 -2.1326 -0.5039
  957SOL     OW 2869   1.588   2.078   2.816 -0.2595  0.0070 -0.0228
  957SOL    HW1 2870   1.577   1.977   2.804  0.4447  0.8993 -3.3357
  957SOL    HW2 2871   1.597   2.123   2.726  2.0845  1.4113  1.4483
  958SOL     OW 2872   2.633   2.268   3.020  0.3241  0.7763 -0.0329
  958SOL    HW1 2873   2.541   2.315   3.000  0.2618  1.4698 -1.7831
  958SOL    HW2 2874   2.631   2.200   3.102  0.9530 -2.7394 -0.8371
  959SOL     OW 2875   0.262   2.822   0.093  0.5302 -0.1856 -0.0962
  959SOL    HW1 2876   0.170   2.789   0.056  2.1119 -0.7106 -0.8859
  959SOL    HW2 2877   0.295   2.759   0.167 -1.3061 -0.9119  0.9475
  960SOL     OW 2878   2.029   0.476   1.952 -0.2288 -0.5231  0.2128
  960SOL    HW1 2879   1.953   0.543   1.916  1.4652  0.1848 -2.1789
  960SOL    HW2 2880   2.032   0.462   2.056 -2.1967 -1.2391  3.2460
  961SOL     OW 2881   2.581   1.806   0.988  0.3386 -0.0802 -0.2131
  961SOL    HW1 2882   2.595   1.905   0.982 -1.5143 -0.7669 -3.1313
  961SOL    HW2 2883   2.541   1.786   1.082 -1.9175  0.3474  0.5555
  962SOL     OW 2884   1.343   0.887   0.090  0.0802 -0.1183 -0.1746
  962SOL    HW1 2885   1.285   0.864   0.004 -2.2918 -2.3295  3.0258
  962SOL    HW2 2886   1.298   0.968   0.134  2.0997 -1.8277  1.4049
  963SOL     OW 2887   2.205   2.569   1.868 -0.0637  0.1420  0.2751
  963SOL    HW1 2888   2.181   2.469   1.908 -1.7000 -1.3881 -0.3015
  963SOL    HW2 2889   2.218   2.641   1.943 -2.3440  2.7396 -0.1202
  964SOL     OW 2890   2.363   0.342   1.678  0.1237  0.0959 -0.3247
  964SOL    HW1 2891   2.461   0.375   1.699  0.4748  1.3241  0.6792
  964SOL    HW2 2892   2.358   0.297   1.582  0.5413  0.5748 -2.1499
  965SOL     OW 2893   2.639   3.062   0.117  0.0156  0.0188 -0.1908
  965SOL    HW1 2894   2.673   3.040   0.025 -0.7088 -1.5914 -1.0948
  965SOL    HW2 2895   2.534   3.073   0.102 -1.7288 -1.0313 -1.2122
  966SOL     OW 2896   2.546   2.521   2.213 -0.9121 -0.6321 -0.0187
  966SOL    HW1 2897   2.511   2.553   2.303  2.2580 -0.6201 -0.2532
  966SOL    HW2 2898   2.538   2.583   2.131 -0.1748  0.2736  0.9382
  967SOL     OW 2899   2.800   2.805   2.493 -0.3454  0.2645  0.0362
  967SOL    HW1 2900   2.846   2.735   2.435 -1.1968 -1.0576 -0.0020
  967SOL    HW2 2901   2.864   2.883   2.507  0.3636 -1.3970 -0.8127
  968SOL     OW 2902   1.902   0.998   2.634  0.4929 -0.5844 -0.3051
  968SOL    HW1 2903   1.812   1.034   2.606  2.9583 -1.0665 -1.4569
  968SOL    HW2 2904   1.954   0.965   2.547 -2.7595 -2.2448 -1.6396
  969SOL     OW 2905   2.821   2.452   1.096 -0.1832  0.2075 -0.4118
  969SOL    HW1 2906   2.769   2.430   1.012  1.1398 -1.1978 -1.6346
  969SOL    HW2 2907   2.845   2.363   1.151 -0.4941  0.0665  0.4462
  970SOL     OW 2908   1.024   2.123   1.817  0.2705  0.2863 -0.3596
  970SOL    HW1 2909   0.935   2.149   1.768  0.7236 -1.8177 -2.0373
  970SOL    HW2 2910   1.028   2.178   1.907 -0.6587  1.9942 -0.6136
  971SOL     OW 2911   2.875   2.070   1.868 -0.0319 -0.2320 -0.4718
  971SOL    HW1 2912   2.875   2.168   1.889  1.6485  1.6627  1.0918
  971SOL    HW2 2913   2.942   2.051   1.794 -0.8507  3.3802 -0.2845
  972SOL     OW 2914   2.003   2.484   0.215 -0.1066 -0.0062  0.0362
  972SOL    HW1 2915   2.020   2.410   0.141 -1.6132 -3.7441  1.0776
  972SOL    HW2 2916   2.024   2.460   0.317  0.0723  0.7312 -1.4438
  973SOL     OW 2917   1.312   1.055   1.884  0.2042 -0.0285 -0.1641
  973SOL    HW1 2918   1.252   1.036   1.804 -0.5789  0.7329 -0.6312
  973SOL    HW2 2919   1.280   1.145   1.931  1.8106  2.6457 -0.8234
  974SOL     OW 2920   1.596   0.561   1.967  0.1864 -0.0320  0.4625
  974SOL    HW1 2921   1.694   0.573   1.939  2.0825 -2.7625 -0.0986
  974SOL    HW2 2922   1.533   0.640   1.946 -1.0163  1.8204  1.2473
  975SOL     OW 2923   2.370   3.095   0.070  0.1414  0.6065  0.3445
  975SOL    HW1 2924   2.313   3.011   0.089  0.4709 -0.5877  0.5926
  975SOL    HW2 2925   2.366   3.119  -0.033 -1.8754 -1.1697 -0.9478
  976SOL     OW 2926   1.910   2.853   2.355 -0.1366 -0.5109 -0.3480
  976SOL    HW1 2927   1.827   2.809   2.315  0.3272  2.0432  0.0779
  976SOL    HW2 2928   1.920   2.833   2.457 -0.4268  2.8710  2.1890
  977SOL     OW 2929   0.449   0.678   1.026  0.7845  0.3120  0.1965
  977SOL    HW1 2930   0.368   0.674   0.964  0.5826  1.4806  2.4347
  977SOL    HW2 2931   0.532   0.687   0.972 -1.2919  0.4552  1.9938
   3.10000   3.10000   3.10000
