1000 SPC/Fw water molecules t=   1.97000 step= 1970
 2931
    1SOL     OW    1   2.525   0.272   2.709 -0.6407  0.0498 -0.6216
    1SOL    HW1    2   2.525   0.170   2.695 -1.7812 -2.9571 -1.0386
    1SOL    HW2    3   2.581   0.300   2.791 -2.0106  1.2308  0.1290
    2SOL     OW    4   2.803   2.772   1.264 -0.0700 -0.4994 -0.0861
    2SOL    HW1    5   2.873   2.853   1.250  1.1661 -1.6541  1.0582
    2SOL    HW2    6   2.772   2.756   1.364  1.2190 -0.2376 -0.4044
    3SOL     OW    7   2.780   2.437   0.467  0.6605  0.3226  0.2998
    3SOL    HW1    8   2.678   2.412   0.488 -0.2099  3.2440 -2.9890
    3SOL    HW2    9   2.799   2.525   0.522  1.7153  0.0010 -0.5692
    4SOL     OW   10   1.192   1.542   2.400 -0.2574 -0.0593 -0.9743
    4SOL    HW1   11   1.168   1.590   2.315  1.7607  0.2517 -0.3221
    4SOL    HW2   12   1.127   1.465   2.416  1.7073  0.9991  0.2753
    5SOL     OW   13   1.153   1.583   2.905  0.2745  0.6002  0.2508
    5SOL    HW1   14   1.196   1.667   2.940 -0.3691  0.8015 -0.8226
    5SOL    HW2   15   1.053   1.590   2.895  1.0472 -0.4293 -0.7025
    6SOL     OW   16   0.177   1.870   0.018 -0.4435  0.2044 -0.1635
    6SOL    HW1   17   0.088   1.900   0.073 -1.1045  0.4134 -0.5464
    6SOL    HW2   18   0.209   1.768   0.031 -1.6479  1.0411 -0.3695
    7SOL     OW   19   2.564   0.861   1.059  0.5286 -0.2327  0.0843
    7SOL    HW1   20   2.461   0.842   1.087 -3.1637 -0.3453 -0.7653
    7SOL    HW2   21   2.606   0.772   1.028 -2.3115 -0.5576  0.2859
    8SOL     OW   22   0.470   0.732   1.475 -0.0881  0.2939  0.2868
    8SOL    HW1   23   0.567   0.720   1.514  0.3130 -0.6006 -0.4850
    8SOL    HW2   24   0.473   0.719   1.373  0.1500  0.2457  0.6477
    9SOL     OW   25   1.126   0.839   2.312 -0.1209  0.2221  0.0633
    9SOL    HW1   26   1.162   0.890   2.225 -1.6551 -1.8439  1.6178
    9SOL    HW2   27   1.095   0.747   2.278  1.9493  1.2219 -0.3963
   10SOL     OW   28   0.594   1.516   1.241 -0.2759  0.0613 -0.4801
   10SOL    HW1   29   0.515   1.535   1.176  0.5527  0.5374  0.1369
   10SOL    HW2   30   0.622   1.602   1.294  1.0508  1.5926  1.3279
   11SOL     OW   31   2.337   2.818   0.938  0.2983 -0.0282  0.3314
   11SOL    HW1   32   2.286   2.809   1.027 -1.4197  1.5578  1.0560
   11SOL    HW2   33   2.439   2.821   0.943 -3.3151 -0.0607  0.3298
   12SOL     OW   34   1.426   0.826   0.544  0.2668 -0.2619  0.7144
   12SOL    HW1   35   1.327   0.851   0.524  0.9842  0.0216 -3.0868
   12SOL    HW2   36   1.471   0.765   0.473 -1.1197  2.8151 -1.0120
   13SOL     OW   37   2.443   0.687   1.820  0.0497  0.0635 -0.7127
   13SOL    HW1   38   2.352   0.664   1.868 -0.2489  0.5404  1.6801
   13SOL    HW2   39   2.442   0.658   1.715 -2.1170  0.9065  0.5054
   14SOL     OW   40   1.965   3.035   0.684  0.8896  0.1614  0.2262
   14SOL    HW1   41   1.875   3.083   0.649  0.2960 -0.5354  1.1714
   14SOL    HW2   42   1.954   2.998   0.782  0.6906 -0.8919  2.9436
   15SOL     OW   43   1.852   2.079   2.640  0.2054 -0.3070  0.1569
   15SOL    HW1   44   1.799   2.066   2.730 -0.7328  1.4557 -0.4646
   15SOL    HW2   45   1.865   1.986   2.582 -0.7353 -2.7235 -1.8884
   16SOL     OW   46   1.534   1.726   2.983  0.2933 -0.4388 -0.6261
   16SOL    HW1   47   1.544   1.623   3.006 -1.9963 -1.3496  0.2346
   16SOL    HW2   48   1.614   1.787   3.006 -1.7371  2.0009 -0.1243
   17SOL     OW   49   0.058   0.467   0.177  0.1764  0.1903 -0.4920
   17SOL    HW1   50   0.152   0.440   0.139 -0.3989 -0.9141  2.3576
   17SOL    HW2   51  -0.009   0.499   0.104 -2.1255 -1.8972  2.7252
   18SOL     OW   52   0.881   2.835   2.233  0.4193  0.2925  0.1458
   18SOL    HW1   53   0.833   2.755   2.277 -0.4608 -0.6376 -1.4728
   18SOL    HW2   54   0.918   2.809   2.140  1.5534 -1.1882 -0.4213
   19SOL     OW   55   0.537   0.926   1.917  0.0684 -0.6130  0.1799
   19SOL    HW1   56   0.590   0.876   1.990 -1.8064 -2.1023 -0.2556
   19SOL    HW2   57   0.593   1.001   1.868 -1.5559 -2.5466 -0.6441
   20SOL     OW   58   0.241   2.742   0.768  0.5921 -0.5541 -0.4272
   20SOL    HW1   59   0.148   2.781   0.743 -2.9757  0.4144 -2.0313
   20SOL    HW2   60   0.276   2.665   0.713  0.3711  1.6721  1.5718
   21SOL     OW   61   2.831   0.293   1.978  0.1268  0.0330  0.3463
   21SOL    HW1   62   2.751   0.225   1.975  1.2462  2.4906  3.0725
   21SOL    HW2   63   2.906   0.263   2.045  0.7421 -0.5313 -1.1053
   22SOL     OW   64   2.419   0.228   0.059 -0.3740  0.0575  0.1129
   22SOL    HW1   65   2.450   0.132   0.032  0.6767  3.3835 -0.7491
   22SOL    HW2   66   2.332   0.261   0.023  1.7472  2.7152  1.3137
   23SOL     OW   67   2.821   0.517   0.668  0.9099 -0.2959 -0.2041
   23SOL    HW1   68   2.878   0.436   0.648 -2.4518  1.7786  0.9688
   23SOL    HW2   69   2.855   0.604   0.623  0.8976 -3.3681  1.0466
   24SOL     OW   70   0.253   1.882   0.423 -0.9303 -0.5219 -0.2638
   24SOL    HW1   71   0.235   1.979   0.401 -1.2338 -2.5944  1.8937
   24SOL    HW2   72   0.323   1.838   0.360  0.5235 -0.7968 -0.1490
   25SOL     OW   73   2.283   0.574   0.272 -0.5589 -0.1482  0.3534
   25SOL    HW1   74   2.272   0.586   0.168  1.1627 -3.0442 -0.1408
   25SOL    HW2   75   2.326   0.482   0.292  0.3446  2.8789  2.3713
   26SOL     OW   76   2.444   2.163   2.149  0.1130  0.8052  0.0309
   26SOL    HW1   77   2.510   2.239   2.174 -1.8313 -0.8969 -0.1033
   26SOL    HW2   78   2.463   2.117   2.055 -0.9714 -0.8407  0.9702
   27SOL     OW   79   0.635   3.038   0.136 -0.0377 -0.0940 -1.3720
   27SOL    HW1   80   0.718   3.074   0.088  2.5410 -0.7626  2.8076
   27SOL    HW2   81   0.558   3.020   0.064 -3.1070  0.6143 -2.0754
   28SOL     OW   82   1.579   0.175   0.339  0.0071 -0.0462 -0.4719
   28SOL    HW1   83   1.612   0.154   0.246  1.2681  0.9669  2.0293
   28SOL    HW2   84   1.639   0.244   0.391  0.5251  1.9755  0.8816
   29SOL     OW   85   2.002   0.546   0.317  0.0661  0.1765  0.5140
   29SOL    HW1   86   1.977   0.621   0.382 -2.7052 -0.7520 -0.9491
   29SOL    HW2   87   2.103   0.531   0.309  1.5770 -2.1112 -0.3876
   30SOL     OW   88   0.180   2.082   0.911 -0.3797 -0.5593  0.5882
   30SOL    HW1   89   0.146   2.019   0.834  1.4118  1.8459 -1.8434
   30SOL    HW2   90   0.130   2.174   0.911  3.4746  0.1464  1.4583
   31SOL     OW   91   2.094   0.098   2.376  0.3291 -0.2507  0.1462
   31SOL    HW1   92   2.029   0.058   2.449 -3.1171  1.1479  1.5183
   31SOL    HW2   93   2.092   0.043   2.286  0.7371  0.0964 -0.6495
   32SOL     OW   94   3.094   3.076   0.227  0.4167  0.1123  0.1394
   32SOL    HW1   95   3.071   2.975   0.258  1.0066 -1.0500 -1.6186
   32SOL    HW2   96   3.193   3.082   0.188 -1.1021 -0.9539 -1.3660
   33SOL     OW   97   0.872   0.231   0.665 -0.1684 -0.4951  0.1878
   33SOL    HW1   98   0.890   0.159   0.587 -0.2358  0.0941 -0.0558
   33SOL    HW2   99   0.944   0.306   0.664  0.2324 -1.0812  1.2374
   34SOL     OW  100   0.362   2.660   0.987  0.5808  0.0016  0.5602
   34SOL    HW1  101   0.301   2.688   0.904 -0.8386 -0.3704 -0.9641
   34SOL    HW2  102   0.452   2.711   0.976  1.4581  0.0299 -1.4589
   35SOL     OW  103   0.122   0.218   1.926  0.5417  0.0756  0.0381
   35SOL    HW1  104   0.109   0.128   1.978  1.7006  1.3105 -0.1349
   35SOL    HW2  105   0.079   0.226   1.831 -4.0085  2.2703  0.6483
   36SOL     OW  106   1.809   1.263   1.488 -1.0521  1.1514 -0.2585
   36SOL    HW1  107   1.909   1.239   1.511 -1.0959 -0.5268  0.2324
   36SOL    HW2  108   1.797   1.297   1.395 -1.7075 -0.2015  1.1443
   37SOL     OW  109   1.169   0.229   0.986  0.4360 -0.7215  0.0698
   37SOL    HW1  110   1.176   0.332   0.975  1.1520 -0.4594 -0.6974
   37SOL    HW2  111   1.243   0.182   0.927 -2.0447 -0.7631 -0.9524
   38SOL     OW  112   1.132   2.799   2.471 -0.0436 -0.1008 -0.0711
   38SOL    HW1  113   1.044   2.761   2.516 -0.2073 -0.0844 -0.8867
   38SOL    HW2  114   1.114   2.886   2.416 -1.9690 -0.1482  0.5630
   39SOL     OW  115   2.499   1.427   3.053  0.1935  1.1009  0.9245
   39SOL    HW1  116   2.554   1.336   3.058 -2.3088 -1.7161 -2.4449
   39SOL    HW2  117   2.407   1.412   3.104  1.0133 -0.3132  0.4566
   40SOL     OW  118   2.035   2.511   2.583 -0.2650  0.3764  0.8084
   40SOL    HW1  119   2.001   2.608   2.579 -0.6985  1.6702 -1.5856
   40SOL    HW2  120   1.964   2.431   2.564 -0.4452 -0.8413 -0.9327
   41SOL     OW  121   3.022   0.709   2.809 -0.1289  0.1846  0.1447
   41SOL    HW1  122   3.026   0.803   2.856 -0.6891 -0.7321  0.7834
   41SOL    HW2  123   2.928   0.667   2.802 -1.2507 -0.5542 -1.8228
   42SOL     OW  124   1.782   1.725   0.451  0.5310  0.1724 -0.3116
   42SOL    HW1  125   1.726   1.638   0.472 -0.6785  0.0265 -0.4593
   42SOL    HW2  126   1.771   1.755   0.352  2.6660  1.1228 -0.8093
   43SOL     OW  127   0.433   1.825   1.140  0.6355  0.9361  0.3106
   43SOL    HW1  128   0.382   1.883   1.071 -4.2987  3.0377  1.5759
   43SOL    HW2  129   0.374   1.783   1.212  0.0873  0.2513 -1.5873
   44SOL     OW  130   1.725   2.398   2.973  0.3102  0.1748  0.1251
   44SOL    HW1  131   1.622   2.416   2.980  0.3524 -1.2450  0.0867
   44SOL    HW2  132   1.761   2.418   2.875  2.8816  1.1096 -0.9291
   45SOL     OW  133   0.355   1.944   2.642  0.0210  0.1473  0.9022
   45SOL    HW1  134   0.291   1.928   2.560 -0.1367  0.4980  1.6571
   45SOL    HW2  135   0.427   1.868   2.648  0.1531 -0.9520 -3.6251
   46SOL     OW  136   1.285   0.750   0.225 -0.6124  0.2691  0.1634
   46SOL    HW1  137   1.276   0.846   0.190  1.5482 -1.5203 -0.8028
   46SOL    HW2  138   1.234   0.678   0.167  1.4241  2.7105  1.3122
   47SOL     OW  139   0.175   2.354   1.615  0.2078  0.1291  0.3022
   47SOL    HW1  140   0.129   2.267   1.643  0.8139  0.5703  0.8558
   47SOL    HW2  141   0.185   2.354   1.512  0.7710  0.6889 -0.9397
   48SOL     OW  142   2.664   0.672   0.196  0.0356 -0.2365 -0.0043
   48SOL    HW1  143   2.657   0.632   0.293 -0.2893 -0.2579  0.2316
   48SOL    HW2  144   2.760   0.702   0.165  0.8031  0.0984  0.4153
   49SOL     OW  145   0.342   0.838   1.718  0.2565  0.1589  0.1906
   49SOL    HW1  146   0.420   0.866   1.780  2.1471 -0.8915 -1.1516
   49SOL    HW2  147   0.379   0.817   1.622  2.1223 -3.9025  1.3209
   50SOL     OW  148   1.691   1.076   0.363  0.3280  0.1427  0.5744
   50SOL    HW1  149   1.733   0.994   0.320 -1.2055  0.5403 -0.0548
   50SOL    HW2  150   1.653   1.067   0.459 -0.4202 -0.5112 -0.3546
   51SOL     OW  151   2.903   1.722   0.356 -0.8193  0.6398  0.5165
   51SOL    HW1  152   2.944   1.708   0.259 -0.8548  0.7365 -0.8810
   51SOL    HW2  153   2.978   1.702   0.426 -1.1850  0.3922 -2.9980
   52SOL     OW  154   0.804   2.159   0.566 -0.2369 -1.0154  0.4956
   52SOL    HW1  155   0.731   2.170   0.493 -0.4382  0.6382 -0.5678
   52SOL    HW2  156   0.818   2.065   0.602  0.1613 -0.6013  0.3616
   53SOL     OW  157   0.310   0.517   1.519  0.1450  0.2494  0.7573
   53SOL    HW1  158   0.370   0.599   1.497 -1.3251 -1.3484 -2.5006
   53SOL    HW2  159   0.208   0.528   1.508  0.8595 -0.7140  3.7783
   54SOL     OW  160   1.779   0.438   3.082 -0.3636  0.0120  0.2310
   54SOL    HW1  161   1.853   0.388   3.136 -1.1343  0.1351  0.1667
   54SOL    HW2  162   1.689   0.424   3.127 -0.1682  1.4808 -1.3033
   55SOL     OW  163   0.722   2.887   0.603 -1.2938 -0.2844 -0.5970
   55SOL    HW1  164   0.666   2.976   0.582 -1.4575  1.8409 -1.0214
   55SOL    HW2  165   0.824   2.897   0.574  0.5855 -4.2343 -0.7475
   56SOL     OW  166   0.529   1.621   3.066  0.5284 -0.2544  0.1398
   56SOL    HW1  167   0.434   1.629   3.108  1.3447  2.0147 -2.1316
   56SOL    HW2  168   0.543   1.519   3.053 -0.1869 -1.4289  1.2204
   57SOL     OW  169   1.692   2.466   2.377 -0.3699  0.2041 -0.5233
   57SOL    HW1  170   1.779   2.424   2.416  0.3422  0.3442 -0.5325
   57SOL    HW2  171   1.611   2.463   2.443  1.0890 -2.5967  1.1328
   58SOL     OW  172   0.671   0.161   1.058 -0.0258  0.5142 -0.6069
   58SOL    HW1  173   0.592   0.175   1.126  0.0725 -1.1335  1.4712
   58SOL    HW2  174   0.725   0.083   1.092 -0.3861  0.4810 -2.2162
   59SOL     OW  175   0.453   2.393   2.578  0.2977  0.2839  0.3121
   59SOL    HW1  176   0.469   2.293   2.611 -1.6642  0.6555  0.3750
   59SOL    HW2  177   0.541   2.449   2.577  1.3273 -0.2737  1.8886
   60SOL     OW  178   2.331   2.067   2.385 -0.0419  0.6385  0.4887
   60SOL    HW1  179   2.364   2.096   2.291  1.0466 -3.2703  0.7834
   60SOL    HW2  180   2.389   2.110   2.458 -1.2568 -0.9242 -1.8963
   61SOL     OW  181   1.179   0.656   0.503 -0.7927  0.4592  0.0134
   61SOL    HW1  182   1.079   0.676   0.523  0.5777  0.2104  1.6016
   61SOL    HW2  183   1.214   0.696   0.416  0.8537  2.3123 -0.4715
   62SOL     OW  184   2.752   1.716   2.689 -0.1098 -0.0483  0.3196
   62SOL    HW1  185   2.689   1.651   2.636 -2.7307 -0.5798  0.0017
   62SOL    HW2  186   2.811   1.667   2.759 -1.1314  1.4252 -1.1056
   63SOL     OW  187   0.502   0.803   0.167 -0.8327  0.3057  0.0112
   63SOL    HW1  188   0.573   0.867   0.126  1.3320  0.4675  0.4399
   63SOL    HW2  189   0.518   0.776   0.271 -0.1395 -0.3230  1.7322
   64SOL     OW  190   3.071   0.595   2.386 -0.1480  0.7766  0.0880
   64SOL    HW1  191   2.990   0.622   2.444  0.6813 -2.1195 -1.1781
   64SOL    HW2  192   3.075   0.639   2.292 -0.8662  0.5259  1.7795
   65SOL     OW  193   0.127   1.433   0.649 -0.0280 -0.0473 -0.2464
   65SOL    HW1  194   0.085   1.519   0.693 -0.8472  0.3299  1.4134
   65SOL    HW2  195   0.176   1.450   0.557  3.7718  1.5547 -1.0392
   66SOL     OW  196   2.603   0.310   0.514  0.2024 -0.3681  0.3611
   66SOL    HW1  197   2.708   0.280   0.518  1.4278  0.1767 -0.9073
   66SOL    HW2  198   2.541   0.243   0.570  0.3961  0.9470 -0.1050
   67SOL     OW  199   0.586   2.487   1.528  0.5739  0.1820  0.0203
   67SOL    HW1  200   0.661   2.444   1.588 -1.9114 -0.8932 -1.9539
   67SOL    HW2  201   0.531   2.417   1.474 -1.2847 -0.9553 -1.7904
   68SOL     OW  202   0.908   0.971   2.525 -0.0343 -0.6283 -0.0572
   68SOL    HW1  203   0.997   0.935   2.492  0.3702  1.4102 -1.8782
   68SOL    HW2  204   0.857   1.020   2.450  0.1949 -2.7409  0.2128
   69SOL     OW  205   0.691   2.603   2.314 -0.0462  0.3065  0.3340
   69SOL    HW1  206   0.750   2.524   2.284 -1.9492  1.3357  1.2029
   69SOL    HW2  207   0.596   2.592   2.290  0.6388 -1.4314  0.5407
   70SOL     OW  208   0.529   0.135   2.584 -0.5625 -0.4838  0.1804
   70SOL    HW1  209   0.460   0.130   2.660  0.6649  1.1006 -0.5331
   70SOL    HW2  210   0.608   0.066   2.586  0.8897 -1.4183 -0.2592
   71SOL     OW  211   1.080   1.807   0.312 -0.4663 -0.2154 -0.4444
   71SOL    HW1  212   1.010   1.798   0.389 -1.5784  1.7626  0.0531
   71SOL    HW2  213   1.044   1.858   0.226 -1.5349 -0.9939 -1.1836
   72SOL     OW  214   1.816   0.205   2.125 -0.1424 -0.2990 -0.5073
   72SOL    HW1  215   1.871   0.289   2.100  2.9170  0.8343 -1.2697
   72SOL    HW2  216   1.844   0.129   2.064 -2.0402 -0.8488  0.6861
   73SOL     OW  217   2.806   2.182   2.433  0.7598 -0.0355 -0.1830
   73SOL    HW1  218   2.774   2.096   2.384 -0.3694 -2.3331  2.0406
   73SOL    HW2  219   2.850   2.160   2.525 -3.1407 -0.5450 -0.2946
   74SOL     OW  220   2.681   3.014   2.102  0.0008  0.2504 -0.3566
   74SOL    HW1  221   2.605   3.023   2.172 -1.9653  1.4145 -3.3866
   74SOL    HW2  222   2.781   3.021   2.146 -1.5775  0.9131  2.2794
   75SOL     OW  223   0.906   0.807   1.088 -0.1975  0.5182 -0.5175
   75SOL    HW1  224   0.808   0.840   1.073 -2.5791 -1.6636 -1.1748
   75SOL    HW2  225   0.945   0.840   1.175  0.5192 -3.0456 -3.3189
   76SOL     OW  226   1.800   1.267   2.585 -0.1821 -0.3424 -0.1180
   76SOL    HW1  227   1.703   1.271   2.622 -2.7543  0.4343 -0.1330
   76SOL    HW2  228   1.842   1.360   2.569 -0.3544  3.4847  0.2582
   77SOL     OW  229   2.907   0.925   1.034 -0.3119 -0.0154  0.2815
   77SOL    HW1  230   2.857   0.834   1.033  1.1529  0.9053  0.9799
   77SOL    HW2  231   3.008   0.910   1.050  0.0293  0.4227  2.2131
   78SOL     OW  232   1.949   1.457   1.297  0.0044 -0.3622  0.0358
   78SOL    HW1  233   2.051   1.453   1.267  0.4073 -0.4983  2.1767
   78SOL    HW2  234   1.888   1.477   1.218 -0.2670  0.7315  0.1885
   79SOL     OW  235   0.631   1.513   0.826 -0.0927 -0.0141 -0.1497
   79SOL    HW1  236   0.533   1.505   0.861 -1.1755 -0.9387 -0.0692
   79SOL    HW2  237   0.671   1.421   0.813  0.4930 -0.9129  1.3271
   80SOL     OW  238   0.719   0.479   1.560 -0.0708  0.4757 -0.4346
   80SOL    HW1  239   0.703   0.524   1.464  0.1479  3.2004 -0.4874
   80SOL    HW2  240   0.660   0.396   1.570  2.3797  0.9012  0.8485
   81SOL     OW  241   1.064   1.302   2.414  0.7474  0.0988 -0.4163
   81SOL    HW1  242   0.963   1.321   2.389 -0.7818  1.3344  1.3429
   81SOL    HW2  243   1.112   1.231   2.352 -0.8573 -0.8742 -1.6424
   82SOL     OW  244   0.955   2.950   1.679  0.2250  0.2620 -0.0331
   82SOL    HW1  245   1.017   2.874   1.654 -0.9454 -0.0864 -1.7909
   82SOL    HW2  246   0.943   3.024   1.607  0.9456 -1.2978  2.5287
   83SOL     OW  247   2.606   2.356   0.951 -0.7077  0.1658  0.3702
   83SOL    HW1  248   2.532   2.294   0.912 -2.4436 -2.4655  0.4559
   83SOL    HW2  249   2.609   2.450   0.906  0.1498 -0.7437  1.4034
   84SOL     OW  250   0.791   3.083   2.332 -0.0694 -0.8588  0.1297
   84SOL    HW1  251   0.793   3.083   2.431  1.0845 -1.9954 -1.6632
   84SOL    HW2  252   0.828   2.993   2.295 -1.0278  0.5546 -1.0031
   85SOL     OW  253   0.245   1.699   1.356 -0.3045  0.4445 -0.5644
   85SOL    HW1  254   0.191   1.768   1.413 -2.0097 -0.0769  2.2136
   85SOL    HW2  255   0.322   1.651   1.414  1.0270  0.4615  1.6357
   86SOL     OW  256   0.485   1.077   1.394  0.2776  0.4343  0.2757
   86SOL    HW1  257   0.470   1.005   1.321  0.6426  1.1940  2.2305
   86SOL    HW2  258   0.581   1.063   1.437  1.5090 -1.5133 -1.7590
   87SOL     OW  259   1.573   0.676   0.344 -0.6985 -0.3617 -0.3013
   87SOL    HW1  260   1.631   0.753   0.300 -0.0089  0.1281 -0.0854
   87SOL    HW2  261   1.498   0.648   0.277 -1.8883  1.8788  1.8791
   88SOL     OW  262   1.522   1.338   0.296  0.1096 -0.6226  0.1404
   88SOL    HW1  263   1.578   1.249   0.284 -1.7343  3.0964  0.9572
   88SOL    HW2  264   1.419   1.327   0.265 -2.3377 -1.2954 -1.6959
   89SOL     OW  265   3.057   0.367   0.632 -0.3564  0.0824  0.2741
   89SOL    HW1  266   3.159   0.341   0.639 -0.1000 -2.2289  3.1650
   89SOL    HW2  267   3.001   0.283   0.596 -0.6395 -0.3083 -4.1249
   90SOL     OW  268   0.737   1.590   0.180 -0.3644  0.3768  0.5006
   90SOL    HW1  269   0.834   1.591   0.147 -0.8589  0.2267  1.4396
   90SOL    HW2  270   0.667   1.618   0.108 -1.1242  0.4990  0.7088
   91SOL     OW  271   1.286   1.514   1.675  0.3130 -0.0756 -0.0964
   91SOL    HW1  272   1.267   1.529   1.774 -0.3692 -0.6862 -1.0993
   91SOL    HW2  273   1.383   1.525   1.648 -0.7596 -1.2606 -1.3875
   92SOL     OW  274   0.069   0.921   1.155 -0.5367 -1.3462  0.0660
   92SOL    HW1  275   0.102   1.002   1.103  0.0517 -0.2458 -0.0524
   92SOL    HW2  276   0.081   0.936   1.253  0.4372 -0.3148  0.8959
   93SOL     OW  277   3.031   2.681   0.041  0.0592 -0.0241 -0.6025
   93SOL    HW1  278   2.992   2.667  -0.051  2.3320 -0.3542  1.0093
   93SOL    HW2  279   3.085   2.600   0.069 -2.4710 -0.4864  0.7437
   94SOL     OW  280   1.539   1.464   1.603 -0.2494  0.4905 -0.5935
   94SOL    HW1  281   1.597   1.381   1.606 -0.4590  1.3931 -0.6120
   94SOL    HW2  282   1.571   1.527   1.532 -0.1601  0.1385  2.2987
   95SOL     OW  283   1.448   2.472   2.912  0.1259  0.1564  0.0744
   95SOL    HW1  284   1.351   2.464   2.954 -0.3672 -1.7963 -2.2514
   95SOL    HW2  285   1.463   2.408   2.834  1.4155 -0.1165 -2.0089
   96SOL     OW  286   0.596   2.134   1.262  0.3885  0.0440  0.2446
   96SOL    HW1  287   0.525   2.101   1.192 -1.1027  2.2673 -0.5874
   96SOL    HW2  288   0.594   2.084   1.351 -1.0777  0.1506 -0.5135
   97SOL     OW  289   0.307   1.617   2.416  0.2920  0.1992  0.2842
   97SOL    HW1  290   0.272   1.713   2.428 -2.5104 -0.0872  1.2688
   97SOL    HW2  291   0.273   1.557   2.489  0.4066 -0.5721 -1.3531
   98SOL     OW  292   2.281   1.689   1.180  0.1625 -0.1724 -0.2671
   98SOL    HW1  293   2.257   1.588   1.195 -2.8949  0.5695  0.8090
   98SOL    HW2  294   2.376   1.704   1.132  3.2823  1.1613 -0.7451
   99SOL     OW  295   2.585   2.114   1.270 -0.4030  0.0591 -0.2803
   99SOL    HW1  296   2.628   2.164   1.349 -0.9753 -0.5212 -1.6734
   99SOL    HW2  297   2.532   2.035   1.297  0.2770  0.9128  0.3074
  100SOL     OW  298   2.332   0.402   2.151  0.2053  0.6351  0.5041
  100SOL    HW1  299   2.306   0.373   2.251  0.6187 -1.3221 -1.0424
  100SOL    HW2  300   2.421   0.454   2.148 -0.1481  0.6714  0.4223
  101SOL     OW  301   0.382   1.467   0.471  0.4320  0.0880  1.0511
  101SOL    HW1  302   0.415   1.538   0.544  0.2572 -2.0780  4.6104
  101SOL    HW2  303   0.462   1.445   0.403  0.4957 -2.2591  0.1807
  102SOL     OW  304   2.318   1.066   0.847  0.2172  0.3453 -0.4010
  102SOL    HW1  305   2.299   0.967   0.848 -2.7993 -2.0266 -0.6837
  102SOL    HW2  306   2.375   1.094   0.760 -1.9894  0.9760  0.2721
  103SOL     OW  307   2.269   0.065   0.338  0.3342 -0.0774  0.7026
  103SOL    HW1  308   2.304   0.155   0.299  0.4580  1.5990 -0.4848
  103SOL    HW2  309   2.300   0.051   0.429 -0.3617  0.8858 -2.2149
  104SOL     OW  310   0.049   1.842   2.168  0.2442  0.5225 -0.6043
  104SOL    HW1  311   0.103   1.852   2.074  1.2883  0.2692 -0.3576
  104SOL    HW2  312  -0.052   1.844   2.155 -2.2347  1.0631  2.2621
  105SOL     OW  313   1.221   2.112   0.802 -0.8545  0.3229  0.2783
  105SOL    HW1  314   1.123   2.124   0.819 -0.7795 -0.0010 -2.0897
  105SOL    HW2  315   1.239   2.046   0.725  2.8005  3.6949 -0.4690
  106SOL     OW  316   2.132   0.410   1.477 -0.1429  0.1801 -0.1569
  106SOL    HW1  317   2.052   0.347   1.485  0.5470  0.2389  0.1562
  106SOL    HW2  318   2.178   0.435   1.566  0.3950  1.4830  1.8552
  107SOL     OW  319   1.924   2.945   1.214  0.2723 -0.0416  0.4080
  107SOL    HW1  320   1.867   3.032   1.241  0.2238  0.2229 -2.0049
  107SOL    HW2  321   1.866   2.860   1.185 -0.9082 -3.1185 -1.9952
  108SOL     OW  322   0.896   2.774   1.091 -0.2635 -0.1482  0.2058
  108SOL    HW1  323   0.911   2.692   1.033  0.9651  0.7700 -0.0692
  108SOL    HW2  324   0.989   2.821   1.112  0.7444  1.0665  5.1106
  109SOL     OW  325   2.170   0.083   0.767 -0.2375 -0.5461  0.1824
  109SOL    HW1  326   2.100   0.026   0.714 -1.7732  1.9801  1.1577
  109SOL    HW2  327   2.158   0.066   0.869 -1.2625  0.3890  1.3573
  110SOL     OW  328   0.483   2.803   2.810 -0.4546 -0.5814 -0.4327
  110SOL    HW1  329   0.492   2.834   2.710 -0.0645  0.1800 -1.3764
  110SOL    HW2  330   0.540   2.717   2.836 -0.9765 -0.9603  0.5716
  111SOL     OW  331   1.338   0.584   2.339 -0.0552 -0.6759 -0.4949
  111SOL    HW1  332   1.256   0.614   2.398  0.2102 -1.2108 -0.8429
  111SOL    HW2  333   1.401   0.514   2.384 -0.0627 -4.2368 -2.3527
  112SOL     OW  334   1.760   0.555   1.494 -0.0410 -0.2766 -0.6503
  112SOL    HW1  335   1.746   0.586   1.398  3.7659  1.7886  5.2616
  112SOL    HW2  336   1.696   0.599   1.561 -2.1201 -0.3103 -0.8100
  113SOL     OW  337   2.301   1.710   1.774  0.4324  0.1837 -0.2649
  113SOL    HW1  338   2.341   1.620   1.733 -0.1225  1.1699  0.6922
  113SOL    HW2  339   2.295   1.715   1.877  0.6059  1.2037  1.2654
  114SOL     OW  340   0.338   0.444   1.175 -0.2469 -0.0634 -0.2452
  114SOL    HW1  341   0.255   0.501   1.188  2.1438 -1.4634  0.4436
  114SOL    HW2  342   0.404   0.469   1.099  3.6576 -1.5034 -0.8421
  115SOL     OW  343   2.723   1.568   1.241 -0.0818 -0.4324 -0.3629
  115SOL    HW1  344   2.731   1.464   1.256 -0.4365  0.9485 -1.9915
  115SOL    HW2  345   2.815   1.610   1.214 -1.5969 -2.4629 -1.9126
  116SOL     OW  346   1.889   0.926   0.689  0.4028  0.0213  0.3512
  116SOL    HW1  347   1.794   0.882   0.686  3.1792  1.0945  1.5695
  116SOL    HW2  348   1.878   1.028   0.705 -1.2974 -1.4291  1.5721
  117SOL     OW  349   1.125   0.382   0.560  0.3536 -0.2920  0.1295
  117SOL    HW1  350   1.164   0.478   0.537 -1.0471 -0.0673  1.3002
  117SOL    HW2  351   1.089   0.347   0.467  0.8301 -0.8942  0.1206
  118SOL     OW  352   1.110   1.227   1.130 -0.4702 -0.0924  0.1220
  118SOL    HW1  353   1.079   1.169   1.213 -0.8296  1.4689 -0.4983
  118SOL    HW2  354   1.179   1.300   1.155  1.0206 -1.1019 -1.7310
  119SOL     OW  355   1.899   1.619   2.217 -0.3855 -0.4316  0.2037
  119SOL    HW1  356   1.811   1.675   2.204 -0.1859  2.2360  1.9096
  119SOL    HW2  357   1.954   1.618   2.131 -2.2795 -2.4665  0.0288
  120SOL     OW  358   2.957   2.824   0.283  0.3979 -0.0763 -0.0019
  120SOL    HW1  359   2.958   2.772   0.187  0.3762  1.3972 -1.7608
  120SOL    HW2  360   2.866   2.806   0.332  1.7362  1.0485 -0.7323
  121SOL     OW  361   1.988   0.832   2.323  0.6713  0.4224 -0.4763
  121SOL    HW1  362   2.028   0.901   2.264  1.1863 -0.0420  0.2167
  121SOL    HW2  363   2.035   0.742   2.307  0.1732  1.4883 -0.5297
  122SOL     OW  364   2.568   2.479   1.399 -0.0761  0.3491  0.2558
  122SOL    HW1  365   2.623   2.445   1.315 -2.8414  2.7846 -0.6391
  122SOL    HW2  366   2.595   2.425   1.484  0.7559 -4.5013 -1.1610
  123SOL     OW  367   1.659   0.174   1.667  0.2448 -0.2563  0.3205
  123SOL    HW1  368   1.675   0.075   1.642 -2.1074 -1.1390 -1.4524
  123SOL    HW2  369   1.744   0.216   1.718  2.0395 -1.3540  1.7030
  124SOL     OW  370   3.015   0.432   1.162  0.0313 -0.2353 -0.3761
  124SOL    HW1  371   2.927   0.485   1.186 -2.7048  1.2044  2.6868
  124SOL    HW2  372   3.054   0.468   1.074  2.5185 -0.0451  1.0542
  125SOL     OW  373   0.910   1.944   0.733 -0.2160 -0.2124 -0.4609
  125SOL    HW1  374   0.976   1.880   0.778  0.8068  1.7256 -0.4707
  125SOL    HW2  375   0.827   1.973   0.789 -3.2995 -0.4319 -1.6913
  126SOL     OW  376   1.886   2.307   2.460 -0.0726  0.3950  0.2827
  126SOL    HW1  377   1.949   2.300   2.380 -0.4426  0.2567  1.6992
  126SOL    HW2  378   1.875   2.217   2.519 -2.9358 -2.4368  0.8948
  127SOL     OW  379   0.978   0.964   0.180 -0.1905 -0.2597 -0.0208
  127SOL    HW1  380   0.974   0.997   0.277 -1.6249  0.2464 -0.0691
  127SOL    HW2  381   0.944   0.866   0.168  2.3654  0.3007  0.9918
  128SOL     OW  382   0.882   0.198   1.406 -0.0598 -0.0276  0.5472
  128SOL    HW1  383   0.865   0.261   1.325 -0.9300 -0.0646  2.1278
  128SOL    HW2  384   0.838   0.106   1.396  0.7466  2.9655 -1.1264
  129SOL     OW  385   1.901   0.681   1.922 -0.2863  0.3931  0.6187
  129SOL    HW1  386   1.917   0.663   1.820  0.2693 -0.9259 -1.3153
  129SOL    HW2  387   1.908   0.779   1.942  3.0580 -1.4913 -0.4452
  130SOL     OW  388   1.389   2.237   0.998 -0.0007  0.6197  0.1905
  130SOL    HW1  389   1.324   2.196   0.926 -1.6832  3.0731  1.0516
  130SOL    HW2  390   1.457   2.310   0.961  2.1953  0.6510 -1.2006
  131SOL     OW  391   3.005   1.372   1.396 -0.0460  0.3257  0.1385
  131SOL    HW1  392   2.951   1.283   1.391 -1.7942 -1.2757 -2.2627
  131SOL    HW2  393   3.106   1.367   1.392 -3.2008  3.8776 -0.5241
  132SOL     OW  394   2.020   2.424   0.572 -0.2495  0.0271  0.1884
  132SOL    HW1  395   1.917   2.424   0.574 -2.6446 -0.2639  1.6098
  132SOL    HW2  396   2.072   2.333   0.591  0.2433 -0.2573  0.3038
  133SOL     OW  397   1.724   2.455   2.702 -0.4903  0.0818 -0.0144
  133SOL    HW1  398   1.637   2.422   2.658 -2.1677 -0.8364  0.0655
  133SOL    HW2  399   1.725   2.555   2.709 -1.5580 -0.1567 -2.5195
  134SOL     OW  400   2.590   2.416   1.695  0.0855 -0.3094  0.2669
  134SOL    HW1  401   2.508   2.408   1.763 -0.7444  1.2523  1.1371
  134SOL    HW2  402   2.665   2.482   1.729 -0.8462  1.8127  1.8152
  135SOL     OW  403   0.786   1.362   2.678 -0.3517 -0.0922 -0.2205
  135SOL    HW1  404   0.722   1.292   2.728  0.6967 -0.6286 -1.0371
  135SOL    HW2  405   0.776   1.358   2.576  1.5388  4.6783  1.9201
  136SOL     OW  406   1.220   2.033   0.394  0.7863  0.1642 -0.2975
  136SOL    HW1  407   1.148   2.101   0.429 -1.8188  1.7546 -1.3418
  136SOL    HW2  408   1.182   1.935   0.387  2.2504 -1.7141 -0.4789
  137SOL     OW  409   0.465   1.172   2.275  0.3464 -0.0648  0.7071
  137SOL    HW1  410   0.364   1.149   2.262  1.5120  2.1206  1.0062
  137SOL    HW2  411   0.521   1.089   2.292  0.1589 -0.3449 -4.1695
  138SOL     OW  412   2.418   1.524   0.293  0.3162  0.1706 -0.2847
  138SOL    HW1  413   2.336   1.504   0.228 -1.8938 -1.7467 -2.4345
  138SOL    HW2  414   2.486   1.443   0.309  1.6390  1.8909 -1.1867
  139SOL     OW  415   1.888   2.686   1.533  0.0652  0.7689 -0.5437
  139SOL    HW1  416   1.791   2.692   1.495 -2.0826 -1.5116  1.5770
  139SOL    HW2  417   1.944   2.619   1.482 -2.2032  0.9323 -0.2291
  140SOL     OW  418   3.085   2.986   2.651  0.4383 -0.4513 -0.1010
  140SOL    HW1  419   3.075   2.885   2.615  0.6313 -3.6952 -1.3741
  140SOL    HW2  420   3.147   3.047   2.593  1.3995  2.1009 -1.6952
  141SOL     OW  421   1.234   1.614   1.402 -0.0981  0.1433  0.3705
  141SOL    HW1  422   1.146   1.599   1.341 -0.1863  0.9800  0.3749
  141SOL    HW2  423   1.219   1.585   1.500 -2.3933  1.0198  1.7949
  142SOL     OW  424   1.587   0.646   2.272 -0.1721 -0.5351  0.8727
  142SOL    HW1  425   1.603   0.611   2.176  1.6304  0.9000  0.3537
  142SOL    HW2  426   1.489   0.635   2.302  1.9419 -1.8314  1.0448
  143SOL     OW  427   2.818   0.765   0.579  0.1844  0.2837  0.0630
  143SOL    HW1  428   2.842   0.798   0.483 -0.7214 -1.1890 -2.1452
  143SOL    HW2  429   2.867   0.823   0.652  1.3036 -0.9770 -1.4940
  144SOL     OW  430   2.926   1.116   1.400  0.0172 -0.1406  0.0393
  144SOL    HW1  431   2.887   1.099   1.497 -0.4747 -0.2050 -0.1552
  144SOL    HW2  432   2.994   1.044   1.377 -1.7057 -1.5920 -1.5422
  145SOL     OW  433   0.954   1.901   0.063  0.3415  0.5965  0.0334
  145SOL    HW1  434   1.016   1.946  -0.009 -0.0167  1.4555 -2.3893
  145SOL    HW2  435   0.891   1.834   0.019 -0.9579  0.8022  1.2948
  146SOL     OW  436   2.442   0.626   1.547  0.3712 -0.3018  0.3523
  146SOL    HW1  437   2.454   0.556   1.476 -0.7151  2.5625  1.8907
  146SOL    HW2  438   2.372   0.708   1.532 -2.1615 -0.0063  0.9437
  147SOL     OW  439   1.045   2.500   0.491  0.0727 -0.2512 -0.3788
  147SOL    HW1  440   1.029   2.588   0.435  1.6972  0.1919 -2.3499
  147SOL    HW2  441   1.145   2.479   0.501 -0.9470 -0.9827 -1.5890
  148SOL     OW  442   1.540   1.370   0.019 -0.0909 -0.5122  0.4876
  148SOL    HW1  443   1.569   1.270   0.006  2.3949 -1.4345 -0.2898
  148SOL    HW2  444   1.534   1.389   0.121  0.5193 -0.2085 -1.5930
  149SOL     OW  445   0.733   1.507   1.960 -0.3027  0.3455 -0.5664
  149SOL    HW1  446   0.656   1.465   2.019  1.2446 -1.0258 -1.6358
  149SOL    HW2  447   0.739   1.459   1.867 -0.9169 -2.8691 -0.5057
  150SOL     OW  448   3.000   1.204   1.006  0.5466 -0.3332 -0.5330
  150SOL    HW1  449   3.075   1.219   1.073  1.3825 -1.3050  1.9786
  150SOL    HW2  450   2.943   1.120   1.036 -0.6110  0.5607 -1.8151
  151SOL     OW  451   0.165   0.847   2.119  0.3111  0.7701  0.4238
  151SOL    HW1  452   0.185   0.931   2.060 -0.6145  2.2137  2.2553
  151SOL    HW2  453   0.227   0.770   2.084 -1.1433  0.1824  0.6808
  152SOL     OW  454   1.407   1.879   1.094 -0.1825  0.2961 -0.7867
  152SOL    HW1  455   1.451   1.974   1.079  0.0395 -0.6640  0.0347
  152SOL    HW2  456   1.305   1.875   1.069 -0.1460 -0.5117  0.7194
  153SOL     OW  457   0.092   1.525   0.245  0.2630  0.4222  0.1376
  153SOL    HW1  458   0.027   1.443   0.256 -0.5360 -1.8857  1.5154
  153SOL    HW2  459   0.081   1.589   0.329 -0.7031 -2.1842  2.3938
  154SOL     OW  460   2.266   1.873   2.785  0.1998 -0.3490 -0.0503
  154SOL    HW1  461   2.297   1.785   2.822  0.4033 -0.9207  1.3156
  154SOL    HW2  462   2.338   1.910   2.723  0.0921 -0.2092  0.0776
  155SOL     OW  463   2.605   1.326   0.373 -0.6181 -0.2727  0.2283
  155SOL    HW1  464   2.663   1.398   0.419  1.3511  1.4958 -1.3001
  155SOL    HW2  465   2.655   1.278   0.296 -0.3588  0.9062  0.6631
  156SOL     OW  466   2.502   0.801   0.759 -0.2209  0.4272 -0.2766
  156SOL    HW1  467   2.400   0.806   0.769  3.6020  0.2495  0.7972
  156SOL    HW2  468   2.539   0.876   0.700 -0.1989 -1.0996  0.3935
  157SOL     OW  469   1.206   0.013   3.014 -0.1819  0.0298 -0.2934
  157SOL    HW1  470   1.257  -0.037   2.937  2.6720  1.2535 -0.0570
  157SOL    HW2  471   1.247   0.105   3.044 -0.2041 -0.5522 -0.3609
  158SOL     OW  472   1.038   1.827   1.880  0.1287  0.0590  0.1614
  158SOL    HW1  473   1.082   1.908   1.836 -0.9160  3.0402 -0.1885
  158SOL    HW2  474   0.937   1.854   1.913 -2.9831 -1.0451  1.6115
  159SOL     OW  475   0.826   0.365   1.202 -0.1076  0.2615  0.1132
  159SOL    HW1  476   0.796   0.464   1.209  1.0391  1.1043  0.6189
  159SOL    HW2  477   0.786   0.306   1.125  3.3972 -0.1885  0.8162
  160SOL     OW  478   1.370   2.463   1.457 -0.1129  0.4153  0.1016
  160SOL    HW1  479   1.357   2.403   1.544  1.7517  0.0664  0.8874
  160SOL    HW2  480   1.469   2.455   1.422  0.3888  0.8262 -0.2305
  161SOL     OW  481   0.085   2.669   0.406 -0.0259  0.2748 -0.0912
  161SOL    HW1  482   0.045   2.577   0.418 -0.2323  3.2428 -0.8047
  161SOL    HW2  483   0.014   2.742   0.401  2.0135  0.2389  0.7177
  162SOL     OW  484   2.562   1.952   0.475  0.1264  0.4622 -0.1956
  162SOL    HW1  485   2.628   1.966   0.397  2.0069  0.8854 -0.6253
  162SOL    HW2  486   2.534   1.851   0.496  3.7346 -3.1934  1.6479
  163SOL     OW  487   1.897   2.690   0.786  0.0151 -0.3481 -0.5730
  163SOL    HW1  488   1.841   2.716   0.700 -1.1113 -0.7160 -1.1186
  163SOL    HW2  489   1.954   2.604   0.770 -0.1705  0.6097  2.8415
  164SOL     OW  490   3.017   0.168   1.272 -0.0548  0.6924 -0.0075
  164SOL    HW1  491   3.021   0.263   1.227  3.2558  0.8335  0.7171
  164SOL    HW2  492   3.097   0.137   1.330  0.9734  0.1332  0.9573
  165SOL     OW  493   1.068   1.353   0.653 -0.5177 -0.4701 -0.1398
  165SOL    HW1  494   1.080   1.424   0.728  0.2322 -3.2645  2.4983
  165SOL    HW2  495   1.026   1.380   0.561 -0.9987  1.3193 -0.0526
  166SOL     OW  496   1.547   0.959   1.758  0.2551  0.4184 -1.0354
  166SOL    HW1  497   1.456   0.998   1.793  0.5678  2.7058 -1.8240
  166SOL    HW2  498   1.616   1.036   1.740 -1.8705 -0.0206  0.2169
  167SOL     OW  499   0.647   2.024   1.520 -0.0515 -0.3858  0.0675
  167SOL    HW1  500   0.697   2.069   1.598  0.8585 -2.6566 -0.3712
  167SOL    HW2  501   0.564   1.968   1.557 -1.6200  0.6313  0.6734
  168SOL     OW  502   1.661   2.334   0.154 -0.1256  0.7311 -0.2821
  168SOL    HW1  503   1.748   2.350   0.096 -1.4232  0.1293  2.9058
  168SOL    HW2  504   1.681   2.287   0.247 -2.1192  1.3939  0.0423
  169SOL     OW  505   3.045   2.627   2.154 -0.2206  0.3739 -0.2753
  169SOL    HW1  506   3.035   2.563   2.073  0.5615  1.5690 -0.9422
  169SOL    HW2  507   3.096   2.588   2.241 -0.2098 -1.1614 -0.3189
  170SOL     OW  508   1.157   0.138   2.119 -0.3408  0.0212 -0.0302
  170SOL    HW1  509   1.248   0.183   2.142  1.2776  0.0516 -3.4452
  170SOL    HW2  510   1.123   0.148   2.020 -4.1336 -2.3644 -1.9920
  171SOL     OW  511   0.162   0.884   2.443  0.1669 -0.4591 -0.8523
  171SOL    HW1  512   0.073   0.861   2.494 -0.5742 -0.7796  0.8811
  171SOL    HW2  513   0.148   0.888   2.342  0.5903  0.5277  0.6924
  172SOL     OW  514   1.031   1.022   2.833  0.3920  0.7641  0.2960
  172SOL    HW1  515   1.017   1.066   2.925  1.8649  1.0383  1.6934
  172SOL    HW2  516   0.973   1.056   2.755 -0.1243  0.3131 -0.0504
  173SOL     OW  517   0.317   2.553   3.058 -0.2848  0.2969  0.5480
  173SOL    HW1  518   0.338   2.553   2.957 -0.5392 -1.5064  0.4393
  173SOL    HW2  519   0.382   2.487   3.102 -0.2995  0.6412  1.8911
  174SOL     OW  520   1.482   2.906   0.982  0.2808  0.1821  0.3412
  174SOL    HW1  521   1.572   2.946   0.953  0.5292 -0.4497 -2.0893
  174SOL    HW2  522   1.482   2.803   0.965 -0.0048  1.8765  1.3183
  175SOL     OW  523   0.404   0.033   1.731 -0.4261  0.2644  0.7788
  175SOL    HW1  524   0.471   0.019   1.811  0.7106  1.2036 -1.9525
  175SOL    HW2  525   0.388   0.130   1.700  1.6968 -0.2366 -0.4711
  176SOL     OW  526   2.531   0.469   0.031 -0.2427  0.5907  0.0796
  176SOL    HW1  527   2.594   0.523   0.093 -1.1870 -0.0718 -1.3569
  176SOL    HW2  528   2.483   0.390   0.075  4.5228  0.9014  0.3910
  177SOL     OW  529   0.327   0.097   0.782  0.4868 -0.3724 -0.1511
  177SOL    HW1  530   0.291   0.019   0.834 -1.0786  0.3904  0.2343
  177SOL    HW2  531   0.420   0.126   0.805 -0.2620 -3.2388 -1.0002
  178SOL     OW  532   0.011   2.713   2.615  0.3679 -0.4213 -0.0728
  178SOL    HW1  533  -0.013   2.613   2.630 -0.5298 -0.2595  0.3049
  178SOL    HW2  534   0.083   2.744   2.682  0.6817 -0.0459  0.9560
  179SOL     OW  535   2.990   1.612   1.225 -0.3139  0.2045  0.3076
  179SOL    HW1  536   3.087   1.639   1.188  0.0118 -0.9451 -0.3854
  179SOL    HW2  537   2.993   1.523   1.277  1.0553  2.4073 -0.6557
  180SOL     OW  538   0.229   1.347   1.730 -0.2605 -0.1718  0.1948
  180SOL    HW1  539   0.308   1.308   1.784 -0.6040  0.1199 -0.1743
  180SOL    HW2  540   0.171   1.426   1.775 -3.1042  1.2406  0.1966
  181SOL     OW  541   3.057   1.740   2.435  0.3610  0.4897 -0.5688
  181SOL    HW1  542   3.139   1.805   2.454 -1.8917 -1.4317  1.8521
  181SOL    HW2  543   2.969   1.783   2.400  0.6523  0.1643  0.3256
  182SOL     OW  544   2.213   1.414   1.208  0.1576 -0.1431  0.1144
  182SOL    HW1  545   2.240   1.348   1.289 -1.4014 -0.0854 -0.7836
  182SOL    HW2  546   2.266   1.397   1.120  1.9433  1.9772 -1.9386
  183SOL     OW  547   1.398   2.204   2.490  0.2497 -0.0595  0.2325
  183SOL    HW1  548   1.330   2.120   2.493  0.2739 -0.8247 -1.2487
  183SOL    HW2  549   1.496   2.177   2.464 -0.4302  0.2247 -1.4073
  184SOL     OW  550   2.231   0.809   0.791 -0.6538  0.2196 -0.5679
  184SOL    HW1  551   2.155   0.823   0.725 -0.3830  1.4713  0.0744
  184SOL    HW2  552   2.269   0.714   0.776  0.8569 -0.6739 -2.3302
  185SOL     OW  553   1.594   2.768   2.013 -0.1106  0.5485  0.2503
  185SOL    HW1  554   1.512   2.828   2.009 -0.5419 -0.1093  0.1974
  185SOL    HW2  555   1.629   2.758   2.110 -0.8040  1.9582  1.9008
  186SOL     OW  556   3.090   2.123   1.794 -0.0719 -0.1781 -0.4208
  186SOL    HW1  557   3.093   2.217   1.834 -0.9965  0.5968 -1.7330
  186SOL    HW2  558   3.179   2.100   1.754 -0.1863 -3.1617  2.2255
  187SOL     OW  559   1.339   0.628   1.671  0.9881 -0.1873 -0.7164
  187SOL    HW1  560   1.437   0.662   1.644 -0.6870  0.1615  1.8114
  187SOL    HW2  561   1.339   0.577   1.760  0.7430  1.1035  0.7032
  188SOL     OW  562   2.706   2.685   1.550  0.1141  0.2488 -0.9431
  188SOL    HW1  563   2.671   2.784   1.571  0.6717 -1.5167 -0.8345
  188SOL    HW2  564   2.641   2.627   1.494  0.5958 -0.0822 -2.3195
  189SOL     OW  565   0.855   1.127   1.440  0.0226 -0.7803  0.2597
  189SOL    HW1  566   0.932   1.191   1.478 -0.8207  1.5720  2.7209
  189SOL    HW2  567   0.799   1.181   1.370  1.0465 -0.8867 -2.7879
  190SOL     OW  568   1.382   1.880   1.511 -0.4635  0.2021  0.0024
  190SOL    HW1  569   1.335   1.796   1.473 -0.6212 -0.8111 -2.8739
  190SOL    HW2  570   1.389   1.888   1.618 -0.1609  3.7887 -0.6116
  191SOL     OW  571   0.912   0.731   1.506  0.6782 -0.4159 -0.3187
  191SOL    HW1  572   0.948   0.651   1.557 -3.8828 -0.7263  1.9880
  191SOL    HW2  573   0.988   0.792   1.478 -1.0243 -3.7381 -1.9369
  192SOL     OW  574   1.836   2.412   1.119  0.0947 -0.1478  0.2374
  192SOL    HW1  575   1.743   2.422   1.075 -0.2414  1.2818 -2.8507
  192SOL    HW2  576   1.901   2.383   1.037 -1.7650 -0.7300 -3.8480
  193SOL     OW  577   0.492   0.499   0.399  0.2107 -0.3148  0.1523
  193SOL    HW1  578   0.416   0.427   0.387 -0.3699  0.0301  3.0162
  193SOL    HW2  579   0.557   0.501   0.314  0.6048  0.2188  0.5848
  194SOL     OW  580   0.440   0.723   1.197  0.1233 -0.0546 -0.5033
  194SOL    HW1  581   0.341   0.745   1.214 -1.1403 -1.3908 -0.7368
  194SOL    HW2  582   0.451   0.643   1.135  0.3846  2.0956  0.4012
  195SOL     OW  583   1.009   2.924   0.497 -0.3886 -0.4830 -0.0103
  195SOL    HW1  584   0.991   2.842   0.433  0.3531  0.3689 -0.1088
  195SOL    HW2  585   1.108   2.935   0.524 -1.5600  0.0796  1.6607
  196SOL     OW  586   0.175   1.366   1.361 -0.5924 -0.2466  0.6226
  196SOL    HW1  587   0.213   1.455   1.399 -2.7621 -0.3952  2.3406
  196SOL    HW2  588   0.222   1.278   1.395  1.1980 -1.2938  0.3867
  197SOL     OW  589   0.786   1.964   0.277  0.0523 -0.1617  0.4153
  197SOL    HW1  590   0.820   1.918   0.362 -3.3361  0.5442 -1.2936
  197SOL    HW2  591   0.850   1.953   0.196  0.6360 -0.5404 -0.2076
  198SOL     OW  592   0.301   1.230   0.343  0.0620 -0.1653  0.1047
  198SOL    HW1  593   0.200   1.244   0.322  0.6367 -0.3018  1.3078
  198SOL    HW2  594   0.334   1.291   0.421  2.7679 -0.2926  0.3500
  199SOL     OW  595   2.304   0.422   2.629  1.3492  0.3166  0.0446
  199SOL    HW1  596   2.220   0.415   2.696 -0.6954  1.5323 -0.5409
  199SOL    HW2  597   2.384   0.363   2.662 -0.3446 -1.5826  2.4706
  200SOL     OW  598   3.098   2.919   0.735  0.5601  0.4968 -0.8438
  200SOL    HW1  599   3.131   3.018   0.745 -0.5103 -0.6167 -1.1476
  200SOL    HW2  600   3.016   2.919   0.676 -0.0881 -0.3333  1.4205
  201SOL     OW  601   0.881   0.677   0.479 -0.3678 -0.0778 -0.3120
  201SOL    HW1  602   0.890   0.763   0.532 -1.7021 -3.4777 -1.0354
  201SOL    HW2  603   0.821   0.604   0.528 -1.9131  0.1664  1.8460
  202SOL     OW  604   0.435   1.253   1.891 -0.5754 -0.6113 -0.3711
  202SOL    HW1  605   0.520   1.200   1.865 -0.9477 -1.8232 -0.9249
  202SOL    HW2  606   0.453   1.329   1.961 -1.1519  1.1212 -1.5519
  203SOL     OW  607   0.627   0.215   1.604  0.3440  0.0485  0.2984
  203SOL    HW1  608   0.670   0.162   1.526  0.4027  2.2443  1.5347
  203SOL    HW2  609   0.671   0.196   1.698  0.4921  0.8438  0.5050
  204SOL     OW  610   2.029   1.818   2.976 -0.2016 -0.4676 -0.5283
  204SOL    HW1  611   2.015   1.714   2.978 -1.7870 -2.3684 -1.0044
  204SOL    HW2  612   2.091   1.835   2.894  0.3118 -0.5058 -0.2158
  205SOL     OW  613   1.772   1.883   3.036 -0.3869 -0.0548  0.0069
  205SOL    HW1  614   1.865   1.849   3.008 -0.6301  1.6714 -0.6584
  205SOL    HW2  615   1.745   1.971   2.983 -2.1994 -0.7180  1.3990
  206SOL     OW  616   2.394   2.748   0.316  0.3079 -0.1656  0.1352
  206SOL    HW1  617   2.316   2.692   0.360  1.0555 -0.7975  0.9058
  206SOL    HW2  618   2.462   2.684   0.264  0.1246  0.0704 -0.8546
  207SOL     OW  619   0.696   1.768   2.910 -0.2190 -0.2633 -0.0001
  207SOL    HW1  620   0.787   1.717   2.901 -0.5399 -0.1990  0.4200
  207SOL    HW2  621   0.623   1.705   2.949 -0.7374  3.2584  1.2824
  208SOL     OW  622   1.022   1.589   1.233  0.3818 -0.3251 -0.0025
  208SOL    HW1  623   0.958   1.627   1.163 -0.2295  1.2681  0.9605
  208SOL    HW2  624   0.973   1.565   1.325 -2.2568 -0.3616  0.9397
  209SOL     OW  625   0.258   0.980   0.003  0.1389 -0.0835  0.9630
  209SOL    HW1  626   0.303   0.919  -0.071  0.4692 -2.6258 -0.8083
  209SOL    HW2  627   0.223   0.928   0.082  0.7532 -2.4133 -1.6331
  210SOL     OW  628   1.773   0.672   1.246 -0.4263  0.7255 -0.0542
  210SOL    HW1  629   1.794   0.775   1.262 -0.5676  1.4223 -0.0232
  210SOL    HW2  630   1.858   0.615   1.226 -0.2372  1.9394 -1.6615
  211SOL     OW  631   2.053   1.144   1.549 -0.1688  0.2550 -0.4342
  211SOL    HW1  632   2.080   1.114   1.642  0.7083 -0.5165 -2.3133
  211SOL    HW2  633   2.123   1.195   1.484  1.1870  0.5391  0.6267
  212SOL     OW  634   0.084   0.949   1.425  0.1138 -0.1589  0.3959
  212SOL    HW1  635   0.150   1.021   1.463 -1.2156  0.6486 -0.4065
  212SOL    HW2  636   0.057   0.882   1.496 -0.6518 -0.0814  0.6177
  213SOL     OW  637   2.835   0.061   0.342 -0.8654  0.1177  0.5044
  213SOL    HW1  638   2.935   0.040   0.311  1.1437  0.6051 -2.6876
  213SOL    HW2  639   2.771   0.019   0.273  1.4540 -2.0234  0.9481
  214SOL     OW  640   2.210   0.337   2.383 -0.5627 -0.5459  0.0001
  214SOL    HW1  641   2.240   0.358   2.484  1.6935  2.4074  1.8162
  214SOL    HW2  642   2.142   0.261   2.386 -0.3576 -0.1623 -0.0176
  215SOL     OW  643   1.702   2.298   2.068  0.5171 -0.0585 -0.1296
  215SOL    HW1  644   1.790   2.351   2.073 -1.4050 -0.4479  1.2842
  215SOL    HW2  645   1.616   2.350   2.092  0.3248 -0.5545 -1.6561
  216SOL     OW  646   2.309   0.523   0.774  0.0547  0.0806 -0.1470
  216SOL    HW1  647   2.292   0.460   0.691 -1.5172  0.1779  0.2589
  216SOL    HW2  648   2.402   0.509   0.811  3.2320 -0.5080 -1.0604
  217SOL     OW  649   0.884   2.685   2.544  0.1904  0.0369  0.1682
  217SOL    HW1  650   0.881   2.698   2.649  0.5398 -0.0563 -3.9837
  217SOL    HW2  651   0.798   2.640   2.507 -1.3413  0.4485 -1.9579
  218SOL     OW  652   1.847   1.398   0.019 -0.6648 -0.0675  0.4306
  218SOL    HW1  653   1.743   1.410   0.005  0.3785 -0.5618 -0.5479
  218SOL    HW2  654   1.870   1.310   0.076  2.7734  0.6105  2.6063
  219SOL     OW  655   2.419   1.261   2.531 -0.0972  0.2146 -0.0994
  219SOL    HW1  656   2.440   1.196   2.449  1.4264 -2.1240  2.0904
  219SOL    HW2  657   2.408   1.218   2.624  0.3084  1.1103  1.0351
  220SOL     OW  658   1.434   1.036   1.415 -0.1541 -0.4365 -0.3591
  220SOL    HW1  659   1.522   1.003   1.458  0.1561 -0.9172  0.1485
  220SOL    HW2  660   1.440   1.071   1.320 -0.2970 -0.3608 -1.6499
  221SOL     OW  661   1.232   1.005   2.110 -0.2576  0.2477 -0.5412
  221SOL    HW1  662   1.256   1.027   2.012 -1.4060  0.2632  0.3057
  221SOL    HW2  663   1.322   0.997   2.171  1.9599  1.7212  0.6227
  222SOL     OW  664   1.148   0.063   1.192 -0.0927  0.4120 -0.0254
  222SOL    HW1  665   1.145   0.102   1.289 -0.8564 -0.9296  0.4658
  222SOL    HW2  666   1.141   0.141   1.120 -1.0393  0.0682 -3.1571
  223SOL     OW  667   2.691   0.948   2.154 -0.1163  0.2155 -0.1339
  223SOL    HW1  668   2.639   1.000   2.229 -1.5976  0.0142 -0.1106
  223SOL    HW2  669   2.794   0.970   2.154  1.4183  1.3150  1.8580
  224SOL     OW  670   1.555   0.977   2.810  0.9705 -0.0008 -0.3218
  224SOL    HW1  671   1.557   0.916   2.731 -0.4671 -0.0949  3.2688
  224SOL    HW2  672   1.588   1.074   2.780  0.4257 -0.6274  0.8245
  225SOL     OW  673   2.951   2.668   2.878  0.1673 -0.1958  0.4807
  225SOL    HW1  674   2.891   2.690   2.795  1.4723 -2.7658 -1.1853
  225SOL    HW2  675   3.054   2.690   2.867 -1.9589 -0.2390  1.7099
  226SOL     OW  676   2.394   1.581   2.848 -0.4809 -0.1289  0.1600
  226SOL    HW1  677   2.448   1.557   2.758 -1.1754 -0.0550 -0.6077
  226SOL    HW2  678   2.437   1.529   2.930 -0.0483  1.5843  3.5040
  227SOL     OW  679   0.896   0.297   3.025 -0.3381 -0.5206  0.7083
  227SOL    HW1  680   0.917   0.397   3.047  0.3536  1.8252 -1.2132
  227SOL    HW2  681   0.843   0.288   2.936 -1.8148  2.0713 -1.9355
  228SOL     OW  682   2.390   0.678   2.918 -0.0227 -0.4797  0.1810
  228SOL    HW1  683   2.402   0.718   2.822 -1.6843 -1.2521  0.0784
  228SOL    HW2  684   2.441   0.590   2.932  2.2625 -1.0143 -0.9173
  229SOL     OW  685   0.758   0.680   1.734 -0.0277  0.1938 -0.4538
  229SOL    HW1  686   0.836   0.650   1.800 -0.7963 -0.7622 -1.3945
  229SOL    HW2  687   0.731   0.595   1.677  1.5207 -2.4621 -2.9372
  230SOL     OW  688   1.921   1.208   1.938 -0.2858  0.0961  0.2583
  230SOL    HW1  689   1.996   1.274   1.902  1.8005 -0.5618 -0.2743
  230SOL    HW2  690   1.876   1.249   2.021  0.4880 -0.4463 -2.2385
  231SOL     OW  691   0.668   0.981   0.040  0.6496  0.0502  0.3670
  231SOL    HW1  692   0.766   0.996   0.060 -1.0889 -0.5662  3.6480
  231SOL    HW2  693   0.618   1.074   0.028 -0.8824  3.9520 -1.1100
  232SOL     OW  694   2.406   2.963   2.793  0.1517  0.3322 -0.0277
  232SOL    HW1  695   2.475   2.892   2.826  1.0646  2.6222 -0.4544
  232SOL    HW2  696   2.457   3.032   2.734  0.9652  0.7860  1.6072
  233SOL     OW  697   1.815   1.100   1.162 -0.3752 -0.3734 -0.3831
  233SOL    HW1  698   1.844   1.171   1.095  0.8692 -0.5455 -0.0835
  233SOL    HW2  699   1.868   1.014   1.150  0.7954  1.4376 -1.1116
  234SOL     OW  700   1.648   2.542   1.830  0.0479 -0.1038 -0.4494
  234SOL    HW1  701   1.615   2.598   1.908 -2.0941  1.6088  0.5259
  234SOL    HW2  702   1.588   2.456   1.817 -0.0889 -1.1413 -0.8361
  235SOL     OW  703   0.098   3.016   2.893 -0.2469 -0.0912  0.5484
  235SOL    HW1  704   0.031   3.004   2.814  0.9415 -2.1502 -2.0075
  235SOL    HW2  705   0.060   3.023   2.988 -0.2377 -0.3208  0.3403
  236SOL     OW  706   2.897   0.764   0.050  0.0001 -0.2170  0.1950
  236SOL    HW1  707   2.977   0.772   0.118 -0.4446 -4.3826  0.0899
  236SOL    HW2  708   2.904   0.674   0.005  1.5786  1.2199  0.8586
  237SOL     OW  709   1.500   1.683   0.904 -0.3860  0.1320  0.2701
  237SOL    HW1  710   1.606   1.676   0.884  2.6404  0.6074  0.0739
  237SOL    HW2  711   1.483   1.758   0.973  0.4730  0.0566 -1.4733
  238SOL     OW  712   1.905   1.229   0.726  0.6193 -0.2203  0.3862
  238SOL    HW1  713   1.942   1.239   0.819 -0.7623  1.7456  0.5640
  238SOL    HW2  714   1.805   1.264   0.716 -1.1770 -0.1886 -1.7344
  239SOL     OW  715   2.096   0.354   2.799 -0.0165  0.1080 -0.5517
  239SOL    HW1  716   2.134   0.350   2.893  1.6342 -1.1705 -2.4555
  239SOL    HW2  717   1.992   0.370   2.799  1.0159  0.8790 -0.8572
  240SOL     OW  718   0.889   0.676   0.211 -0.3283 -0.1921 -0.6539
  240SOL    HW1  719   0.978   0.643   0.173  1.4665  1.5856  0.6291
  240SOL    HW2  720   0.898   0.682   0.315  0.2861  0.5812 -0.9657
  241SOL     OW  721   0.555   0.138   0.324 -0.0213 -0.5154  0.9620
  241SOL    HW1  722   0.628   0.205   0.305  0.2947  0.0914  1.8794
  241SOL    HW2  723   0.565   0.053   0.261  0.3201 -0.5406 -0.0633
  242SOL     OW  724   0.612   2.615   1.287  0.1188 -0.2594 -0.3252
  242SOL    HW1  725   0.594   2.568   1.383 -0.9479 -1.0786  0.5394
  242SOL    HW2  726   0.662   2.703   1.285  1.9716 -1.1016  1.4200
  243SOL     OW  727   1.064   0.590   2.409  1.1815 -0.4673  0.4466
  243SOL    HW1  728   0.969   0.628   2.379  0.4390  1.0356 -0.1368
  243SOL    HW2  729   1.061   0.539   2.500  1.2826  1.7284 -1.5812
  244SOL     OW  730   2.808   1.872   2.361  0.1598 -0.5609  0.1030
  244SOL    HW1  731   2.810   1.887   2.256 -1.9809  1.2402  1.0974
  244SOL    HW2  732   2.715   1.851   2.396  1.2173 -0.0226 -0.6970
  245SOL     OW  733   2.131   1.034   2.220  0.2660 -0.0873  0.5402
  245SOL    HW1  734   2.220   1.008   2.261 -0.6591 -1.4930 -2.8539
  245SOL    HW2  735   2.083   1.108   2.272  1.6870 -0.3236  3.0471
  246SOL     OW  736   0.260   2.901   1.826 -0.3661 -0.5155  0.1410
  246SOL    HW1  737   0.180   2.894   1.763  2.1707 -0.2473 -1.6497
  246SOL    HW2  738   0.328   2.972   1.791  1.7072  0.7522  0.5683
  247SOL     OW  739   2.194   0.605   0.009 -0.4860  0.3639  0.6096
  247SOL    HW1  740   2.265   0.641  -0.052  0.1967  0.6167  3.6037
  247SOL    HW2  741   2.116   0.677   0.015  0.4123  0.1836 -0.1731
  248SOL     OW  742   2.155   1.896   1.593 -0.0825 -0.2455 -0.5746
  248SOL    HW1  743   2.214   1.825   1.633 -1.2954  0.3840 -1.9917
  248SOL    HW2  744   2.123   1.969   1.659 -0.1595 -2.3899 -1.9109
  249SOL     OW  745   1.874   1.847   1.912 -0.0455 -0.5094 -0.1379
  249SOL    HW1  746   1.869   1.781   1.835 -0.8197  0.5578  0.7540
  249SOL    HW2  747   1.971   1.877   1.936 -0.5044  1.3143 -0.4829
  250SOL     OW  748   1.081   0.654   1.858 -0.5038  0.1401  0.2491
  250SOL    HW1  749   1.113   0.589   1.933  0.5130 -0.5009  1.1232
  250SOL    HW2  750   1.099   0.601   1.771  1.4925 -1.7621 -0.9624
  251SOL     OW  751   3.034   1.506   2.555  0.1185 -0.1578 -0.2693
  251SOL    HW1  752   3.029   1.598   2.501  0.3141 -0.7267 -0.6010
  251SOL    HW2  753   2.985   1.424   2.510  0.2013 -1.4335  0.9195
  252SOL     OW  754   1.544   0.760   1.568 -0.5480  0.4958  0.0911
  252SOL    HW1  755   1.601   0.768   1.483 -0.3247  1.2548 -0.3454
  252SOL    HW2  756   1.546   0.840   1.635  0.5779  0.5883 -1.9734
  253SOL     OW  757   0.997   1.470   0.401  0.1404  0.0797  0.0966
  253SOL    HW1  758   0.981   1.482   0.298 -1.6226  0.6865 -2.8139
  253SOL    HW2  759   0.914   1.502   0.456 -0.6991 -0.0830  1.0221
  254SOL     OW  760   2.066   2.186   1.633  0.4209  0.6187 -0.3113
  254SOL    HW1  761   1.998   2.114   1.590  0.0918 -0.8632 -1.7414
  254SOL    HW2  762   2.015   2.249   1.701 -1.7400  1.8470 -0.5646
  255SOL     OW  763   0.090   1.162   2.976  0.4115 -0.7527  0.0284
  255SOL    HW1  764   0.127   1.255   2.943 -2.1785  0.8680 -1.4035
  255SOL    HW2  765   0.161   1.099   3.020 -3.0295  3.1815 -0.0535
  256SOL     OW  766   2.773   1.437   1.786 -0.2775 -0.5443  0.0343
  256SOL    HW1  767   2.716   1.490   1.854 -2.2286  2.1068  2.5522
  256SOL    HW2  768   2.743   1.335   1.776 -1.4348  0.2989 -1.9137
  257SOL     OW  769   0.822   0.175   1.864  0.5908 -0.6071 -0.2098
  257SOL    HW1  770   0.885   0.221   1.793  3.1973  1.1054 -2.4743
  257SOL    HW2  771   0.870   0.085   1.898  0.4049  4.0716  2.5083
  258SOL     OW  772   2.992   1.162   0.541  0.3475 -0.2699  0.0704
  258SOL    HW1  773   2.895   1.171   0.581 -3.5858 -0.1971 -0.7189
  258SOL    HW2  774   3.060   1.171   0.621  0.5871  0.1344 -0.1033
  259SOL     OW  775   0.465   2.963   3.046  0.3409  0.0347  0.8830
  259SOL    HW1  776   0.384   2.915   3.082  2.2730 -1.1289 -0.9540
  259SOL    HW2  777   0.489   2.922   2.951  1.7971 -1.2089 -2.7080
  260SOL     OW  778   2.697   0.655   2.794  0.3832 -0.0131 -0.2918
  260SOL    HW1  779   2.613   0.693   2.748 -2.4735 -3.8588  1.0510
  260SOL    HW2  780   2.679   0.565   2.845 -0.8438 -0.7949  0.1420
  261SOL     OW  781   2.728   1.288   1.271 -0.2571  0.2412 -0.1556
  261SOL    HW1  782   2.651   1.229   1.230 -0.2330  3.3057 -1.6070
  261SOL    HW2  783   2.798   1.233   1.326 -1.5646  0.1286 -0.3580
  262SOL     OW  784   1.391   2.964   1.989 -0.2261 -0.2331 -0.4212
  262SOL    HW1  785   1.410   3.037   1.919 -0.2302 -0.1104 -0.9986
  262SOL    HW2  786   1.295   2.920   1.980 -2.9754 -0.0247  2.1004
  263SOL     OW  787   0.844   0.679   2.266 -0.0896 -0.3563  0.5818
  263SOL    HW1  788   0.798   0.597   2.219 -2.1674 -2.2718 -3.4162
  263SOL    HW2  789   0.885   0.751   2.194  0.6799  1.4249  0.0780
  264SOL     OW  790   2.284   0.803   0.461  0.2722 -0.6229 -0.0887
  264SOL    HW1  791   2.281   0.736   0.383  0.4609 -1.0900  1.3582
  264SOL    HW2  792   2.376   0.839   0.479  0.5328 -0.9467 -1.9496
  265SOL     OW  793   0.878   2.302   2.653  0.0607 -0.4521  0.2080
  265SOL    HW1  794   0.888   2.273   2.758  0.9673 -0.7271 -0.2894
  265SOL    HW2  795   0.814   2.240   2.602 -0.4428 -0.1294  0.4681
  266SOL     OW  796   1.278   1.816   3.007  0.2764 -0.3065 -0.6915
  266SOL    HW1  797   1.284   1.870   3.097 -1.2074 -1.1447  0.8055
  266SOL    HW2  798   1.379   1.784   2.982  0.5208 -3.1199 -0.1488
  267SOL     OW  799   1.121   3.014   2.295  0.1400 -0.3766  0.1585
  267SOL    HW1  800   1.087   2.954   2.218  1.4759 -2.5071 -1.3298
  267SOL    HW2  801   1.137   3.103   2.245  3.0130  0.2570  2.0800
  268SOL     OW  802   0.769   1.291   1.242 -0.1893 -0.1315  0.3852
  268SOL    HW1  803   0.705   1.370   1.231 -0.1998  1.5518 -0.7173
  268SOL    HW2  804   0.857   1.303   1.183  1.7685 -0.8065 -0.4725
  269SOL     OW  805   2.276   2.516   1.612 -0.5136 -0.0925 -0.1278
  269SOL    HW1  806   2.374   2.482   1.639 -1.2343  2.1304  2.3905
  269SOL    HW2  807   2.211   2.526   1.693  0.0495 -0.5502 -0.6527
  270SOL     OW  808   0.121   3.043   2.007  0.4781 -0.5026 -0.3021
  270SOL    HW1  809   0.163   3.006   1.918 -0.3955 -0.0509  1.5362
  270SOL    HW2  810   0.106   2.969   2.078  1.8789 -3.3013 -0.1204
  271SOL     OW  811   0.357   1.437   1.124 -0.1511  0.5458 -0.0619
  271SOL    HW1  812   0.352   1.411   1.026 -2.2030  1.2069  0.9125
  271SOL    HW2  813   0.261   1.454   1.164 -3.1578  0.9072  0.6710
  272SOL     OW  814   1.872   0.006   1.911  0.1835  0.0442  0.6913
  272SOL    HW1  815   1.816  -0.074   1.878 -1.0180 -0.4105 -1.4215
  272SOL    HW2  816   1.938   0.040   1.840  1.8792 -3.0182  0.5638
  273SOL     OW  817   1.463   1.445   2.872  0.2829 -0.3750  0.3387
  273SOL    HW1  818   1.364   1.456   2.848  0.5703  0.6444 -3.2027
  273SOL    HW2  819   1.488   1.405   2.967 -1.2086  2.2043  1.4394
  274SOL     OW  820   1.184   0.544   2.115  0.0482 -0.2849  0.0136
  274SOL    HW1  821   1.093   0.500   2.134  2.5465  2.3803  2.4466
  274SOL    HW2  822   1.244   0.561   2.200 -0.1620 -0.5715  1.5175
  275SOL     OW  823   0.661   2.157   1.957  0.2407 -0.0639 -0.1392
  275SOL    HW1  824   0.584   2.096   1.932  0.7935  0.0594 -1.5705
  275SOL    HW2  825   0.624   2.253   1.978  2.2546  2.6850 -0.0817
  276SOL     OW  826   2.222   0.921   2.845 -0.6040  0.0598 -0.5192
  276SOL    HW1  827   2.143   0.942   2.780 -0.7869  0.7664  0.2773
  276SOL    HW2  828   2.233   0.820   2.855 -1.6610  1.7117  0.4788
  277SOL     OW  829   3.081   0.788   0.238 -0.0157 -0.0314 -0.0868
  277SOL    HW1  830   3.174   0.833   0.228 -1.4323  0.8761  3.0379
  277SOL    HW2  831   3.092   0.701   0.296 -2.0512  0.3675 -0.8885
  278SOL     OW  832   0.330   0.240   0.017 -0.1273  0.4006 -0.4131
  278SOL    HW1  833   0.418   0.217  -0.035  0.6700  1.3631 -0.7754
  278SOL    HW2  834   0.308   0.342   0.016 -0.0606 -0.8738  0.6626
  279SOL     OW  835   0.234   2.991   0.943 -0.4085  0.2649 -0.3611
  279SOL    HW1  836   0.301   3.011   1.018 -2.1612 -0.7565 -1.9250
  279SOL    HW2  837   0.249   2.893   0.907 -1.6658 -1.3501  3.2343
  280SOL     OW  838   1.578   2.898   2.439 -0.2779  0.2966 -0.1825
  280SOL    HW1  839   1.660   2.946   2.484 -0.2359 -0.7760 -0.7445
  280SOL    HW2  840   1.544   2.955   2.361  0.6832 -1.0894  2.8718
  281SOL     OW  841   0.621   0.937   2.317  0.1014  0.5229 -0.5267
  281SOL    HW1  842   0.601   0.857   2.260  0.8748 -1.4774  1.9499
  281SOL    HW2  843   0.593   0.923   2.416  0.0819 -2.4476 -0.0790
  282SOL     OW  844   1.724   2.446   0.550 -0.4471 -0.5927 -0.0763
  282SOL    HW1  845   1.680   2.368   0.495  1.1152 -1.2941  3.4556
  282SOL    HW2  846   1.694   2.540   0.515  0.7857  1.0455 -1.5480
  283SOL     OW  847   1.130   0.909   0.789 -0.2565 -0.2766  0.0061
  283SOL    HW1  848   1.176   0.868   0.871 -1.3960  0.6188 -0.2042
  283SOL    HW2  849   1.094   1.006   0.811 -0.7596 -0.0048  1.7692
  284SOL     OW  850   2.208   2.858   2.470  0.0882  0.5234  0.0740
  284SOL    HW1  851   2.305   2.865   2.433 -0.0493 -0.6332 -0.4295
  284SOL    HW2  852   2.201   2.852   2.573 -0.5795  2.1306  0.7201
  285SOL     OW  853   1.327   3.076   2.527 -0.4558  0.5662 -0.6507
  285SOL    HW1  854   1.403   3.057   2.458  0.7933 -0.6300  0.9709
  285SOL    HW2  855   1.252   3.136   2.490  3.4099 -2.5475 -0.5713
  286SOL     OW  856   0.225   0.319   0.661  0.0271  0.1751 -0.3239
  286SOL    HW1  857   0.247   0.230   0.701  0.7175  1.2945 -2.0694
  286SOL    HW2  858   0.288   0.342   0.582 -3.5405 -3.4512  1.2047
  287SOL     OW  859   0.107   1.285   2.550  0.1612  0.4292  0.3295
  287SOL    HW1  860   0.046   1.226   2.610 -1.2325  0.1890 -1.9542
  287SOL    HW2  861   0.066   1.381   2.551  2.2640 -2.1229  1.7472
  288SOL     OW  862   1.531   2.708   1.655  0.5704 -0.3109 -0.0306
  288SOL    HW1  863   1.576   2.640   1.724  1.5471 -1.8443  0.6813
  288SOL    HW2  864   1.573   2.698   1.564 -0.1115 -0.1536 -0.1708
  289SOL     OW  865   0.584   2.728   0.777  0.1035 -0.0802 -0.5937
  289SOL    HW1  866   0.646   2.772   0.704  0.9701 -4.0485 -1.0637
  289SOL    HW2  867   0.545   2.799   0.846 -1.2483  1.5529  0.1566
  290SOL     OW  868   2.812   1.072   1.644 -0.1361 -0.3302 -0.3964
  290SOL    HW1  869   2.730   1.010   1.668 -0.1296 -2.8751  0.4196
  290SOL    HW2  870   2.883   1.070   1.720 -0.3322  0.2083 -2.9727
  291SOL     OW  871   1.919   0.010   0.028  0.1259  0.2860 -0.2890
  291SOL    HW1  872   1.910   0.045   0.125 -1.0392  0.3841 -1.5675
  291SOL    HW2  873   2.016   0.001  -0.010  0.3530  0.4576  1.3411
  292SOL     OW  874   2.938   1.237   0.014 -0.1375 -1.2915  0.0187
  292SOL    HW1  875   2.891   1.281  -0.070 -0.9132 -1.2588  1.1570
  292SOL    HW2  876   3.042   1.245   0.019  0.9205  1.9672 -0.1175
  293SOL     OW  877   0.544   2.045   0.210 -0.2241  0.1861 -0.7220
  293SOL    HW1  878   0.551   2.131   0.270  1.0513  2.6152 -0.6702
  293SOL    HW2  879   0.634   1.990   0.214  2.4674 -0.7200  0.7732
  294SOL     OW  880   1.907   2.392   1.802  0.4972 -0.0838 -0.3629
  294SOL    HW1  881   1.939   2.403   1.900  0.3319  3.1606 -0.6985
  294SOL    HW2  882   1.823   2.447   1.784  1.1578 -1.0867 -1.8498
  295SOL     OW  883   0.942   1.037   0.444  0.3309 -0.1962  0.3313
  295SOL    HW1  884   1.043   1.052   0.455  2.1878 -2.1619 -0.6296
  295SOL    HW2  885   0.897   0.979   0.519  0.5246 -2.6852  0.1455
  296SOL     OW  886   1.107   2.144   2.685 -0.5922  0.2139 -0.2690
  296SOL    HW1  887   1.016   2.194   2.681  0.2998  1.7423 -1.1163
  296SOL    HW2  888   1.129   2.088   2.600 -3.0954  4.2832 -0.8545
  297SOL     OW  889   1.330   0.626   1.240  0.0784  0.0417 -0.2026
  297SOL    HW1  890   1.344   0.551   1.309 -0.1433  0.4286  0.6210
  297SOL    HW2  891   1.415   0.643   1.181 -1.4188  0.5848 -0.3824
  298SOL     OW  892   0.516   1.333   2.970  0.5503  0.1467  0.1261
  298SOL    HW1  893   0.465   1.301   3.060 -0.8990  1.2918 -0.4307
  298SOL    HW2  894   0.532   1.258   2.903  0.4553  1.5958 -0.9521
  299SOL     OW  895   0.428   0.178   1.208 -0.2637 -0.4937 -0.0188
  299SOL    HW1  896   0.390   0.270   1.175 -0.0622  0.7562  2.1717
  299SOL    HW2  897   0.441   0.179   1.315  0.7642 -2.8981 -1.7282
  300SOL     OW  898   1.205   1.730   2.608 -0.9010 -0.5767  0.0863
  300SOL    HW1  899   1.199   1.676   2.518 -1.9070  0.0205 -3.1095
  300SOL    HW2  900   1.295   1.744   2.654 -3.9282 -1.5198  1.8217
  301SOL     OW  901   0.321   0.288   0.377  0.2694 -0.1887  0.0573
  301SOL    HW1  902   0.222   0.262   0.352  2.2658 -2.0473  0.4739
  301SOL    HW2  903   0.385   0.211   0.353 -0.9964  1.1226 -0.0514
  302SOL     OW  904   1.252   2.402   2.322  0.1743 -0.0288  0.2684
  302SOL    HW1  905   1.147   2.396   2.338  1.4429  0.2200 -2.1530
  302SOL    HW2  906   1.297   2.319   2.361 -1.0747 -0.6872  0.0094
  303SOL     OW  907   0.889   2.470   0.705  0.4847  0.8408 -0.1270
  303SOL    HW1  908   0.958   2.499   0.628  0.8411  1.6412 -1.4511
  303SOL    HW2  909   0.915   2.519   0.791  1.0917  1.9130 -1.6744
  304SOL     OW  910   0.108   1.917   0.695 -0.0864 -0.0803  0.1747
  304SOL    HW1  911   0.186   1.892   0.633  0.4080 -0.3962 -3.6334
  304SOL    HW2  912   0.021   1.947   0.647  0.4557 -0.9676 -0.4524
  305SOL     OW  913   1.641   0.786   0.706 -0.1592  0.1506  0.0044
  305SOL    HW1  914   1.564   0.819   0.639  0.5356  2.5523 -0.1317
  305SOL    HW2  915   1.685   0.692   0.682 -1.5283 -1.2758 -1.5011
  306SOL     OW  916   0.457   1.943   1.962  1.1157 -0.1002  0.0584
  306SOL    HW1  917   0.533   1.868   1.959  0.3880  0.4914  0.1406
  306SOL    HW2  918   0.420   1.955   2.056  0.5533 -0.4682 -2.8531
  307SOL     OW  919   3.029   0.894   2.580 -0.2659 -0.2594  0.1012
  307SOL    HW1  920   3.033   0.986   2.630 -2.0278 -1.2852  0.6862
  307SOL    HW2  921   3.016   0.818   2.647 -2.1096  2.5864 -2.2654
  308SOL     OW  922   1.494   2.738   2.808 -0.0658 -0.3850 -0.4844
  308SOL    HW1  923   1.456   2.755   2.714 -1.4096 -0.8062  0.5560
  308SOL    HW2  924   1.457   2.650   2.849  1.3054 -1.9071  1.8822
  309SOL     OW  925   1.175   0.207   1.839  0.3861  0.1533  0.6182
  309SOL    HW1  926   1.267   0.159   1.850 -0.2099  1.6416 -0.9401
  309SOL    HW2  927   1.134   0.210   1.744  0.7271  2.8577  2.1200
  310SOL     OW  928   1.416   2.592   0.659  0.0959  0.3184  0.0377
  310SOL    HW1  929   1.439   2.568   0.759 -0.1044 -1.4659  1.2028
  310SOL    HW2  930   1.486   2.653   0.611  0.3542 -0.6223  1.1656
  311SOL     OW  931   1.090   0.895   1.691 -0.2976 -0.8034 -0.1450
  311SOL    HW1  932   1.087   0.807   1.749 -1.0550 -0.5430 -1.9443
  311SOL    HW2  933   1.154   0.887   1.607  0.4471  0.1807  0.0367
  312SOL     OW  934   1.486   0.610   0.998  0.2681 -0.4567  0.7927
  312SOL    HW1  935   1.561   0.686   0.997  0.6929  1.5064 -0.4826
  312SOL    HW2  936   1.436   0.597   0.903 -0.8335 -0.6555 -1.6335
  313SOL     OW  937   1.648   1.308   0.711 -0.6099 -0.7161  0.3210
  313SOL    HW1  938   1.570   1.326   0.776  0.9737 -4.0308 -1.3607
  313SOL    HW2  939   1.612   1.240   0.642  0.5945  2.1942  0.1038
  314SOL     OW  940   2.987   0.025   3.071  0.4587  0.2926 -0.3941
  314SOL    HW1  941   3.029   0.027   3.170  1.1520  4.1546  3.0021
  314SOL    HW2  942   2.921  -0.055   3.064  0.8358  4.0088  1.6344
  315SOL     OW  943   1.106   0.223   2.746  0.1205  0.4055 -0.2681
  315SOL    HW1  944   1.092   0.167   2.657 -0.8529  0.1105  1.5697
  315SOL    HW2  945   1.073   0.176   2.833  0.6079 -1.5679 -0.3501
  316SOL     OW  946   1.768   2.085   0.873 -0.5674  0.1531  0.3764
  316SOL    HW1  947   1.756   2.091   0.974  0.4460 -0.2285 -1.3790
  316SOL    HW2  948   1.771   2.180   0.828  1.6602  1.0083 -2.5941
  317SOL     OW  949   1.183   0.688   2.740  0.0156  0.4532  0.1707
  317SOL    HW1  950   1.144   0.723   2.831 -0.0086 -1.8067 -1.4437
  317SOL    HW2  951   1.134   0.603   2.710  0.9414  1.3934  1.3697
  318SOL     OW  952   1.454   3.032   2.252  0.4611  0.5388 -0.1889
  318SOL    HW1  953   1.445   3.134   2.243  2.3650  1.8842 -0.9188
  318SOL    HW2  954   1.432   2.980   2.161 -0.6582 -2.9999 -1.2237
  319SOL     OW  955   0.651   2.352   3.076 -0.0431 -0.1538  0.5317
  319SOL    HW1  956   0.573   2.297   3.038  1.7389 -0.8865  0.9331
  319SOL    HW2  957   0.738   2.322   3.026 -1.6069 -1.0574 -2.6339
  320SOL     OW  958   1.703   2.209   0.397  0.2415 -0.1682  0.1245
  320SOL    HW1  959   1.787   2.146   0.399 -0.4795  0.2423 -0.5344
  320SOL    HW2  960   1.611   2.168   0.429 -1.7674  1.5892  1.6818
  321SOL     OW  961   1.627   2.715   0.517  0.2909  0.2769  0.0036
  321SOL    HW1  962   1.572   2.760   0.440  2.2805  0.1794  0.5180
  321SOL    HW2  963   1.731   2.741   0.519  2.6262  2.0792  0.6693
  322SOL     OW  964   2.555   1.031   2.374  0.4736  0.3667  0.4635
  322SOL    HW1  965   2.624   1.010   2.448 -3.0722 -0.6950 -0.9079
  322SOL    HW2  966   2.467   0.973   2.374 -2.7448  1.1163  1.1571
  323SOL     OW  967   1.186   2.727   0.819  0.6537 -0.4553  0.3485
  323SOL    HW1  968   1.225   2.703   0.729 -0.3728 -1.0302 -1.1923
  323SOL    HW2  969   1.169   2.831   0.817 -1.6071  0.6610  0.1738
  324SOL     OW  970   0.088   2.530   2.380  0.3750  0.6095 -0.7321
  324SOL    HW1  971   0.057   2.477   2.465  0.1590  2.7222 -0.2978
  324SOL    HW2  972   0.107   2.629   2.413  4.6102  1.9235 -0.2403
  325SOL     OW  973   1.258   3.064   0.428  0.5274  0.0403 -0.3906
  325SOL    HW1  974   1.207   3.081   0.341 -1.1603  1.5263 -0.8136
  325SOL    HW2  975   1.293   3.149   0.468 -1.4854 -0.2230  1.2439
  326SOL     OW  976   2.511   0.805   0.028  0.5314 -0.6035  0.3141
  326SOL    HW1  977   2.470   0.752  -0.048  3.9012 -0.6563  0.4393
  326SOL    HW2  978   2.553   0.740   0.098  1.0774 -3.3706 -0.2868
  327SOL     OW  979   2.860   0.186   0.580 -0.3957  0.1807  0.2444
  327SOL    HW1  980   2.856   0.135   0.487 -0.6649 -3.5275 -0.7570
  327SOL    HW2  981   2.879   0.118   0.658  2.8122  0.0420  2.3766
  328SOL     OW  982   2.660   0.572   0.451 -0.2650 -0.7512  0.6207
  328SOL    HW1  983   2.716   0.615   0.527 -2.1381  1.1032  1.7850
  328SOL    HW2  984   2.623   0.478   0.471 -1.7214  0.0037  2.3678
  329SOL     OW  985   2.941   3.068   2.188 -0.3845  0.2133 -0.7987
  329SOL    HW1  986   3.017   2.998   2.200 -1.9168  1.0259 -2.1047
  329SOL    HW2  987   2.974   3.165   2.183 -1.1539  1.1386 -0.0010
  330SOL     OW  988   0.618   0.314   1.995 -0.7193 -0.0621  0.2606
  330SOL    HW1  989   0.702   0.281   1.936  0.4079 -2.9483 -0.1631
  330SOL    HW2  990   0.592   0.234   2.058  0.5786 -1.5154  0.5076
  331SOL     OW  991   3.091   1.931   1.114 -0.1847 -0.1371 -0.0413
  331SOL    HW1  992   3.082   1.985   1.027  0.1282 -1.1245 -1.8270
  331SOL    HW2  993   3.001   1.923   1.163  1.5370 -0.8963  0.0565
  332SOL     OW  994   0.433   1.183   0.076 -0.4792  0.3479 -0.0453
  332SOL    HW1  995   0.381   1.100   0.045 -0.1934 -2.2329  2.4823
  332SOL    HW2  996   0.389   1.227   0.159  0.8126  0.7892 -2.8401
  333SOL     OW  997   2.898   0.955   0.368 -0.3111  0.3382 -0.1338
  333SOL    HW1  998   2.932   1.040   0.431 -0.0628  1.0505  2.1649
  333SOL    HW2  999   2.975   0.906   0.318  1.9532 -0.0837  0.9994
  334SOL     OW 1000   1.698   1.182   1.712 -0.3372 -0.0227  0.3696
  334SOL    HW1 1001   1.743   1.200   1.620  2.3781 -2.4624 -0.9395
  334SOL    HW2 1002   1.750   1.207   1.796  1.8622  0.1570 -0.2547
  335SOL     OW 1003   1.921   2.768   2.605 -0.6048  0.3426  0.0159
  335SOL    HW1 1004   1.856   2.765   2.684 -0.7290 -1.2010 -1.6913
  335SOL    HW2 1005   1.986   2.850   2.613  0.0897  0.3971 -0.3459
  336SOL     OW 1006   0.309   0.093   2.775  1.2627  0.1567  0.1078
  336SOL    HW1 1007   0.381   0.117   2.848  0.8585  0.5047  0.5453
  336SOL    HW2 1008   0.246   0.021   2.815 -0.2661 -1.5304  3.7757
  337SOL     OW 1009   0.789   2.797   3.051  0.1497 -0.1498 -0.0172
  337SOL    HW1 1010   0.877   2.747   3.064 -1.1511  1.6782  2.4690
  337SOL    HW2 1011   0.755   2.863   3.129  2.0546  1.7779  1.1529
  338SOL     OW 1012   0.071   0.924   0.713  0.0239 -0.0463  0.2474
  338SOL    HW1 1013  -0.029   0.910   0.698  2.1456 -1.0740 -0.8113
  338SOL    HW2 1014   0.085   1.021   0.734  0.2245 -0.6870 -1.4927
  339SOL     OW 1015   1.764   1.355   2.135  0.3437 -0.1957 -0.0587
  339SOL    HW1 1016   1.662   1.343   2.112  1.9644 -0.6672 -1.2318
  339SOL    HW2 1017   1.790   1.456   2.146  0.3352 -1.4945 -2.8267
  340SOL     OW 1018   2.316   0.777   1.198 -0.2768 -0.6941  0.3155
  340SOL    HW1 1019   2.239   0.840   1.177  0.1570  0.3013 -0.0160
  340SOL    HW2 1020   2.299   0.675   1.182  0.5921  1.5271  0.1151
  341SOL     OW 1021   1.933   2.070   0.312 -0.0890 -0.0072  0.1953
  341SOL    HW1 1022   1.982   2.103   0.227 -0.0112 -2.0348  1.0741
  341SOL    HW2 1023   1.986   1.994   0.363  0.3119  1.8881  0.2442
  342SOL     OW 1024   2.096   2.142   2.765 -0.3965 -0.5964 -0.1121
  342SOL    HW1 1025   2.133   2.050   2.787 -1.6342  0.3433 -1.1598
  342SOL    HW2 1026   2.008   2.141   2.711 -1.2060  1.2012 -1.1399
  343SOL     OW 1027   0.370   0.841   2.889  0.2882  0.4839 -0.3637
  343SOL    HW1 1028   0.331   0.885   2.803 -0.4101 -1.2277  1.6794
  343SOL    HW2 1029   0.466   0.864   2.899 -2.0667 -2.0584 -0.5755
  344SOL     OW 1030   1.911   1.412   0.404  0.0701  0.5514  0.4215
  344SOL    HW1 1031   1.910   1.323   0.351 -2.1556 -1.3568 -0.2712
  344SOL    HW2 1032   1.816   1.451   0.422  0.8951 -0.2893 -0.6845
  345SOL     OW 1033   1.371   2.207   2.806 -0.0354  0.1483 -0.5629
  345SOL    HW1 1034   1.283   2.216   2.749 -1.0583  2.1928  2.5220
  345SOL    HW2 1035   1.427   2.130   2.771  2.6388  2.1647 -0.4149
  346SOL     OW 1036   2.276   0.827   1.471  0.0757  0.3753  0.4556
  346SOL    HW1 1037   2.180   0.859   1.466  1.1254 -1.8887 -1.0786
  346SOL    HW2 1038   2.301   0.791   1.377 -1.4536  0.4776  2.3229
  347SOL     OW 1039   0.724   2.800   1.743  0.2787 -0.0982  0.8240
  347SOL    HW1 1040   0.814   2.832   1.706 -3.5274  1.5701  0.3396
  347SOL    HW2 1041   0.642   2.841   1.688  1.7119  0.3942  1.1802
  348SOL     OW 1042   0.178   0.618   2.862 -0.3592  0.2045 -0.0095
  348SOL    HW1 1043   0.083   0.654   2.837  0.4658  1.4915  0.0838
  348SOL    HW2 1044   0.255   0.657   2.806 -0.2263 -2.6413 -1.3634
  349SOL     OW 1045   1.839   0.456   2.818  0.7411  0.2113 -0.1383
  349SOL    HW1 1046   1.818   0.542   2.766  0.7631  2.0366  0.6046
  349SOL    HW2 1047   1.825   0.467   2.919  0.3073  1.3376 -0.6791
  350SOL     OW 1048   1.760   0.360   0.424 -0.2626  0.3206 -0.1262
  350SOL    HW1 1049   1.830   0.310   0.484  0.9317  1.9121  2.4467
  350SOL    HW2 1050   1.774   0.455   0.378 -0.2259 -1.3151 -0.4235
  351SOL     OW 1051   0.939   0.811   2.037  0.7278  0.6381 -0.3180
  351SOL    HW1 1052   0.963   0.907   2.025 -1.1112 -1.2181 -1.7597
  351SOL    HW2 1053   1.002   0.746   1.985  0.5286 -2.8311 -1.4457
  352SOL     OW 1054   2.077   1.490   0.621 -0.4942  0.4576  0.4224
  352SOL    HW1 1055   2.014   1.452   0.546  0.8162  2.5239  0.4190
  352SOL    HW2 1056   2.030   1.497   0.715  2.3645 -0.5595  3.3712
  353SOL     OW 1057   2.173   2.755   1.136  0.1779  0.8058 -0.1623
  353SOL    HW1 1058   2.230   2.682   1.182 -2.6885 -0.9556 -1.7163
  353SOL    HW2 1059   2.095   2.776   1.199 -0.4885  1.9799 -1.0536
  354SOL     OW 1060   0.241   1.399   2.882  0.1776 -0.4041 -0.1299
  354SOL    HW1 1061   0.222   1.431   2.786 -1.6272  0.2802 -0.5318
  354SOL    HW2 1062   0.341   1.374   2.907  1.2216  0.8699  1.4470
  355SOL     OW 1063   0.740   1.556   0.554  0.1293 -1.0012  0.1490
  355SOL    HW1 1064   0.729   1.527   0.656 -2.2825  1.6011  4.4182
  355SOL    HW2 1065   0.667   1.516   0.490 -2.2553  2.5653 -0.9184
  356SOL     OW 1066   0.961   0.329   2.085 -0.5987 -0.5000  0.0661
  356SOL    HW1 1067   1.036   0.257   2.105  0.0760 -1.2899 -0.2564
  356SOL    HW2 1068   0.884   0.288   2.026 -0.8124 -1.6962 -0.4852
  357SOL     OW 1069   1.016   1.529   0.111 -0.0818  0.0338 -0.5531
  357SOL    HW1 1070   1.068   1.457   0.054 -1.0586 -2.2979 -3.9521
  357SOL    HW2 1071   1.080   1.596   0.158 -0.4691  0.6832  0.3969
  358SOL     OW 1072   1.661   1.489   0.490 -0.3802  0.0445 -0.4929
  358SOL    HW1 1073   1.652   1.429   0.574  2.3151  1.1124  1.9503
  358SOL    HW2 1074   1.606   1.452   0.409  0.1711 -0.8226 -0.4845
  359SOL     OW 1075   1.667   2.612   0.186  0.2156  0.2969 -0.0712
  359SOL    HW1 1076   1.650   2.514   0.151 -1.3734  0.1793  0.0908
  359SOL    HW2 1077   1.586   2.676   0.178  1.5920  0.8965  1.0736
  360SOL     OW 1078   0.717   0.464   0.560  0.4411 -1.1683 -0.2105
  360SOL    HW1 1079   0.626   0.462   0.504  1.1100  0.2936  0.0345
  360SOL    HW2 1080   0.753   0.362   0.579  0.5527 -1.3912  1.8089
  361SOL     OW 1081   1.333   1.326   0.569 -0.2892 -0.2623  0.2936
  361SOL    HW1 1082   1.370   1.380   0.644 -0.8696 -0.1013  0.7143
  361SOL    HW2 1083   1.231   1.336   0.557 -1.8157  0.1990 -1.3646
  362SOL     OW 1084   1.389   1.856   0.732 -0.0131 -0.2989 -0.1090
  362SOL    HW1 1085   1.420   1.777   0.793 -1.0931  0.3447  0.9259
  362SOL    HW2 1086   1.474   1.903   0.693 -1.1632 -0.2543 -2.0138
  363SOL     OW 1087   1.297   1.292   1.970  0.7058 -0.5229  0.4647
  363SOL    HW1 1088   1.371   1.302   2.042  1.1055 -1.4255 -0.1770
  363SOL    HW2 1089   1.265   1.386   1.934 -0.0610  0.0856  2.6859
  364SOL     OW 1090   0.528   2.399   2.028 -0.1164 -0.0249 -0.0622
  364SOL    HW1 1091   0.431   2.435   2.007 -1.9116  2.6033 -0.0391
  364SOL    HW2 1092   0.601   2.464   1.990 -1.0877  2.0090  0.8868
  365SOL     OW 1093   0.915   2.006   1.376  0.1074  0.6256 -0.2999
  365SOL    HW1 1094   0.819   2.018   1.413 -0.6082  2.8686 -0.8209
  365SOL    HW2 1095   0.917   2.035   1.277 -1.6992  1.5511  0.9038
  366SOL     OW 1096   2.711   1.869   0.227  0.4647  0.9151 -0.5738
  366SOL    HW1 1097   2.630   1.822   0.177 -1.1523  2.5528  0.4615
  366SOL    HW2 1098   2.782   1.805   0.268  0.6912  1.1837  1.7270
  367SOL     OW 1099   0.953   1.137   3.077 -0.2661  0.3858  0.0302
  367SOL    HW1 1100   0.976   1.087   3.167 -2.2558  1.0981 -0.8710
  367SOL    HW2 1101   0.948   1.238   3.079 -0.0796 -0.2431  1.0061
  368SOL     OW 1102   1.478   0.465   0.537  0.0982  0.2975  0.8704
  368SOL    HW1 1103   1.420   0.404   0.484 -1.4406 -0.9519 -2.2193
  368SOL    HW2 1104   1.555   0.508   0.482  2.7177 -1.7120 -1.6174
  369SOL     OW 1105   0.294   1.652   0.125 -0.3071  0.2288 -1.0066
  369SOL    HW1 1106   0.370   1.701   0.185  2.1156  1.9103  1.7992
  369SOL    HW2 1107   0.215   1.619   0.183  1.1701  0.0177  0.2955
  370SOL     OW 1108   0.471   2.118   1.007 -0.5529  0.0784 -0.4727
  370SOL    HW1 1109   0.473   2.212   1.052 -0.4780 -0.9408  1.4158
  370SOL    HW2 1110   0.373   2.096   0.975 -2.6559  0.4319 -1.6248
  371SOL     OW 1111   2.930   2.173   2.684  0.0185 -0.5395 -0.1219
  371SOL    HW1 1112   3.014   2.116   2.675 -1.4879  1.7233  2.5306
  371SOL    HW2 1113   2.929   2.234   2.771 -0.1314  1.7105 -2.7745
  372SOL     OW 1114   0.984   2.127   1.117  0.0710 -0.3757  0.0400
  372SOL    HW1 1115   0.911   2.189   1.075  1.6836 -2.6343 -1.0821
  372SOL    HW2 1116   1.066   2.182   1.153  1.9327  3.0388 -0.8971
  373SOL     OW 1117   1.910   1.844   0.960 -0.2475 -0.5739 -0.0037
  373SOL    HW1 1118   1.979   1.918   0.984 -2.3540 -2.3034  1.3644
  373SOL    HW2 1119   1.860   1.873   0.873 -1.5523 -1.4263 -1.3646
  374SOL     OW 1120   1.972   0.268   0.564  0.0910 -0.5525  0.2847
  374SOL    HW1 1121   1.940   0.253   0.659  2.0013  1.1770  1.2507
  374SOL    HW2 1122   2.062   0.323   0.558  1.4321  0.0312  0.7488
  375SOL     OW 1123   2.394   2.070   1.078  0.0325 -0.3080 -0.0015
  375SOL    HW1 1124   2.439   2.046   0.988  0.5626 -0.9480 -0.1599
  375SOL    HW2 1125   2.464   2.107   1.146  1.5376 -1.2244  2.8849
  376SOL     OW 1126   0.025   0.566   1.471  0.3525 -0.1689  0.3393
  376SOL    HW1 1127   0.033   0.632   1.551  1.9809 -1.6190 -0.5317
  376SOL    HW2 1128  -0.062   0.511   1.477  1.4399 -1.8824 -3.1328
  377SOL     OW 1129   2.309   2.950   0.171 -0.0886  0.4858 -0.0279
  377SOL    HW1 1130   2.280   3.021   0.241 -2.1062 -1.2142 -1.9738
  377SOL    HW2 1131   2.348   2.860   0.212  2.2189  1.1340  1.4712
  378SOL     OW 1132   1.907   1.871   2.465 -0.1395 -0.2002 -0.0393
  378SOL    HW1 1133   1.993   1.815   2.446 -0.3370 -1.9932  1.7861
  378SOL    HW2 1134   1.823   1.811   2.468  1.3526  0.5452  0.8787
  379SOL     OW 1135   0.778   0.152   2.780 -0.3297 -0.0326  0.4074
  379SOL    HW1 1136   0.824   0.070   2.759 -1.3629  0.2946 -0.5502
  379SOL    HW2 1137   0.768   0.214   2.700 -2.5846  1.6507  0.4386
  380SOL     OW 1138   1.507   1.104   0.575  0.1992  0.2426  0.2041
  380SOL    HW1 1139   1.436   1.177   0.548  1.1548 -0.2761  0.3944
  380SOL    HW2 1140   1.477   1.010   0.544 -3.7318  0.3305 -1.3290
  381SOL     OW 1141   1.276   1.307   1.420  0.0415  0.2521 -0.0576
  381SOL    HW1 1142   1.362   1.252   1.403  3.9675  0.9334 -0.6239
  381SOL    HW2 1143   1.303   1.395   1.468  0.2098  0.0275 -0.6727
  382SOL     OW 1144   1.805   0.848   0.268 -0.2482  0.0073  0.1350
  382SOL    HW1 1145   1.813   0.793   0.182  2.1745 -0.8685  0.1546
  382SOL    HW2 1146   1.858   0.800   0.344 -1.2990 -0.3449  0.6717
  383SOL     OW 1147   2.530   0.960   1.491 -0.1710  0.1115  0.0867
  383SOL    HW1 1148   2.431   0.948   1.463 -1.7201  0.8237 -1.3047
  383SOL    HW2 1149   2.605   0.949   1.414  0.5820 -1.4930  0.3267
  384SOL     OW 1150   0.954   2.236   0.211  0.2741 -0.8021  0.2548
  384SOL    HW1 1151   0.897   2.324   0.208  0.4578  1.5412  2.6376
  384SOL    HW2 1152   0.976   2.212   0.310 -2.5027  1.0851 -0.0135
  385SOL     OW 1153   2.880   2.014   1.613  0.0242 -0.2451 -0.0754
  385SOL    HW1 1154   2.957   2.058   1.669  0.9012 -2.4885 -0.5502
  385SOL    HW2 1155   2.840   1.927   1.655 -1.8119 -1.8248  2.3391
  386SOL     OW 1156   0.495   1.040   0.398 -0.4311  0.1376 -0.9072
  386SOL    HW1 1157   0.472   0.940   0.419 -2.6505 -3.0195 -1.3483
  386SOL    HW2 1158   0.415   1.088   0.346 -0.1825 -1.6707 -0.2370
  387SOL     OW 1159   0.945   0.297   1.660  0.2790  0.5258 -0.6305
  387SOL    HW1 1160   0.977   0.396   1.644 -0.1062  2.3753  1.2608
  387SOL    HW2 1161   0.905   0.251   1.575  2.1910 -0.5076  0.6938
  388SOL     OW 1162   1.282   2.724   1.827  0.6784  0.0032  0.2155
  388SOL    HW1 1163   1.347   2.750   1.752  0.1013 -0.3761  0.3088
  388SOL    HW2 1164   1.302   2.629   1.867 -0.8284  0.5594  2.3372
  389SOL     OW 1165   0.109   2.894   1.367 -0.2546  0.2845 -0.1385
  389SOL    HW1 1166   0.012   2.923   1.336  0.0402 -0.8543 -0.2024
  389SOL    HW2 1167   0.124   2.788   1.359 -1.9697 -0.3785  1.3178
  390SOL     OW 1168   1.033   0.914   1.318 -0.1036 -0.0263 -0.6639
  390SOL    HW1 1169   1.131   0.906   1.352 -0.5192  0.0282 -0.5448
  390SOL    HW2 1170   0.984   0.992   1.367  2.4326 -1.0337 -1.7566
  391SOL     OW 1171   2.186   1.109   1.096  0.5369 -0.6378 -0.0150
  391SOL    HW1 1172   2.139   1.023   1.135  1.7705 -0.5476  2.0107
  391SOL    HW2 1173   2.233   1.081   1.007  0.3473  0.6868  0.0678
  392SOL     OW 1174   0.951   2.579   0.020  0.2745  0.4555 -0.2523
  392SOL    HW1 1175   1.045   2.534  -0.001  1.5143  0.2667 -2.8356
  392SOL    HW2 1176   0.900   2.536   0.099  0.4336 -0.9645 -0.1164
  393SOL     OW 1177   0.316   0.661   2.001 -0.2467 -0.8748  0.1181
  393SOL    HW1 1178   0.310   0.555   2.001  1.7414 -2.0882  1.7187
  393SOL    HW2 1179   0.356   0.698   1.910  0.4531 -1.3178  0.3912
  394SOL     OW 1180   0.011   1.952   2.651 -0.0669  0.6741 -0.2697
  394SOL    HW1 1181   0.086   1.887   2.686 -1.2179  1.5751 -0.7519
  394SOL    HW2 1182  -0.077   1.900   2.631  0.9415 -4.0105 -1.6294
  395SOL     OW 1183   1.624   1.958   0.616  0.2548 -0.0357 -0.0437
  395SOL    HW1 1184   1.687   1.899   0.552  0.9906 -1.8228 -0.8753
  395SOL    HW2 1185   1.681   2.005   0.688 -0.5267 -1.1154  1.6610
  396SOL     OW 1186   2.919   1.929   1.363  0.3988  0.3509  0.1207
  396SOL    HW1 1187   2.953   1.830   1.343  2.0167 -1.1456 -0.2754
  396SOL    HW2 1188   2.906   1.942   1.466 -2.7745 -0.9421 -1.7198
  397SOL     OW 1189   1.048   2.211   0.488 -0.2095 -0.0185 -0.3995
  397SOL    HW1 1190   0.954   2.188   0.530  1.5098  0.0418  0.1847
  397SOL    HW2 1191   1.071   2.313   0.500  0.0902  1.1718  2.5853
  398SOL     OW 1192   2.154  -0.001   1.166 -0.2035  0.0915 -0.1147
  398SOL    HW1 1193   2.073  -0.062   1.199 -0.8004 -0.3000 -0.0917
  398SOL    HW2 1194   2.133   0.081   1.104  2.2163  3.0747 -0.5161
  399SOL     OW 1195   0.004   2.407   2.605  0.5472 -0.0507  0.3448
  399SOL    HW1 1196  -0.095   2.381   2.613 -1.1727 -1.4113 -0.0922
  399SOL    HW2 1197   0.073   2.350   2.662  1.7289  2.6489  1.1286
  400SOL     OW 1198   0.723   1.707   1.382  0.4632 -0.2191  0.1047
  400SOL    HW1 1199   0.684   1.738   1.476  1.0805  1.1164  1.3664
  400SOL    HW2 1200   0.743   1.792   1.320  2.9118  0.8005  1.3294
  401SOL     OW 1201   1.859   0.343   1.146 -0.2068  0.4869 -0.2545
  401SOL    HW1 1202   1.845   0.318   1.246  2.8359 -1.1195 -0.4165
  401SOL    HW2 1203   1.771   0.348   1.097  1.8354  0.4193  2.4444
  402SOL     OW 1204   1.356   0.272   3.079  0.2239  0.5115  0.6029
  402SOL    HW1 1205   1.430   0.223   3.023  0.9733 -2.4860 -0.7171
  402SOL    HW2 1206   1.299   0.342   3.026 -1.7160  0.8956 -0.4291
  403SOL     OW 1207   2.222   1.905   0.835  0.7974  0.4126  0.2353
  403SOL    HW1 1208   2.320   1.926   0.824 -0.6054  0.2150 -1.0647
  403SOL    HW2 1209   2.182   1.933   0.924  2.4392  1.4718 -0.2203
  404SOL     OW 1210   0.305   2.522   2.753 -0.3315  0.1299 -0.1754
  404SOL    HW1 1211   0.355   2.469   2.674  0.8543 -1.1346 -0.3657
  404SOL    HW2 1212   0.266   2.614   2.723  1.4811 -0.2889 -0.6649
  405SOL     OW 1213   0.171   2.410   0.650  0.4530  0.2906  0.0784
  405SOL    HW1 1214   0.140   2.334   0.588 -0.6841 -0.6789 -2.2375
  405SOL    HW2 1215   0.243   2.461   0.606 -0.1629  0.1926 -1.0356
  406SOL     OW 1216   0.068   1.558   3.043 -0.1693  0.1117 -0.1614
  406SOL    HW1 1217   0.129   1.518   2.967  3.0770 -1.6647 -0.4766
  406SOL    HW2 1218   0.113   1.535   3.132  0.1391  0.6069  0.8754
  407SOL     OW 1219   1.621   0.873   0.952  0.2010  0.4289  0.3615
  407SOL    HW1 1220   1.625   0.853   0.850 -0.3126  0.5427  1.0638
  407SOL    HW2 1221   1.572   0.957   0.979  1.2832 -2.5197 -0.0433
  408SOL     OW 1222   1.610   2.445   0.972  0.0024  0.3352 -0.0104
  408SOL    HW1 1223   1.683   2.425   0.897 -0.7868 -0.6669 -3.1365
  408SOL    HW2 1224   1.555   2.535   0.964  1.8188 -0.0818 -1.5898
  409SOL     OW 1225   0.593   0.812   0.686 -0.0238  0.4405  0.3140
  409SOL    HW1 1226   0.537   0.800   0.598 -0.5611  1.7163 -0.3904
  409SOL    HW2 1227   0.619   0.717   0.728 -0.2305  0.5584  0.2470
  410SOL     OW 1228   1.206   2.059   1.432 -0.0090  0.1116  0.5744
  410SOL    HW1 1229   1.264   1.975   1.443  1.8486  1.0754 -0.8348
  410SOL    HW2 1230   1.101   2.039   1.417  0.8623 -0.0319 -0.6655
  411SOL     OW 1231   2.551   1.801   2.951  0.0049 -0.6245 -0.6227
  411SOL    HW1 1232   2.591   1.888   2.922  1.5086 -1.2933 -2.2863
  411SOL    HW2 1233   2.515   1.742   2.872 -0.3641  0.7198 -1.7138
  412SOL     OW 1234   1.502   2.456   2.175  0.3428  0.2850  0.6194
  412SOL    HW1 1235   1.587   2.464   2.239 -0.0091  2.6838  1.1604
  412SOL    HW2 1236   1.418   2.437   2.233 -0.7739  0.2289  1.1193
  413SOL     OW 1237   0.023   0.288   3.009 -0.7736 -0.3735 -0.5720
  413SOL    HW1 1238  -0.012   0.194   3.032  0.5045  2.9039  0.5093
  413SOL    HW2 1239   0.125   0.293   3.003 -0.9494  2.1166  1.5158
  414SOL     OW 1240   1.742   1.528   1.106  0.3742  0.3456  0.1259
  414SOL    HW1 1241   1.699   1.610   1.158 -1.8706  1.0068  1.0842
  414SOL    HW2 1242   1.760   1.548   1.000  0.0390  1.1728  1.1692
  415SOL     OW 1243   0.364   2.190   0.645  0.1622  0.0349 -0.3080
  415SOL    HW1 1244   0.400   2.269   0.703 -0.8735  3.3795 -1.0903
  415SOL    HW2 1245   0.263   2.184   0.636 -3.9280 -0.2179  1.5329
  416SOL     OW 1246   0.349   1.087   1.058 -0.5861 -0.1598  0.0522
  416SOL    HW1 1247   0.332   1.008   0.991  0.7100 -0.9583 -2.7147
  416SOL    HW2 1248   0.444   1.128   1.047  1.4661 -0.9531  2.0351
  417SOL     OW 1249   2.310   2.431   2.152 -0.3371  0.0941  0.5346
  417SOL    HW1 1250   2.286   2.334   2.146 -3.0110  1.1445 -1.1257
  417SOL    HW2 1251   2.263   2.473   2.231  0.2477 -1.5869  0.2210
  418SOL     OW 1252   1.050   0.508   1.333  0.4043 -0.5737 -0.1252
  418SOL    HW1 1253   0.986   0.504   1.254  1.2297 -0.7179 -2.5422
  418SOL    HW2 1254   1.144   0.525   1.294 -0.2055  0.9286 -0.9324
  419SOL     OW 1255   0.896   0.562   2.977  0.2753  0.0915  0.2127
  419SOL    HW1 1256   0.808   0.601   2.939  2.2866  0.8802  0.7937
  419SOL    HW2 1257   0.963   0.640   3.005 -0.5849  4.0041  2.2481
  420SOL     OW 1258   0.089   2.183   0.512  0.0117 -0.2804 -0.0811
  420SOL    HW1 1259   0.103   2.183   0.413 -1.3184 -0.3672 -0.2223
  420SOL    HW2 1260   0.012   2.122   0.540 -1.1470 -0.0469  1.7116
  421SOL     OW 1261   0.360   2.966   0.556  0.4520 -0.5236  0.1799
  421SOL    HW1 1262   0.333   2.929   0.650  0.4394  0.1993  1.2188
  421SOL    HW2 1263   0.438   3.033   0.560  1.2545  0.7338 -1.4472
  422SOL     OW 1264   1.017   2.549   0.956  0.1672 -0.4118  0.1396
  422SOL    HW1 1265   1.082   2.617   0.918 -1.3785 -0.7154 -0.2959
  422SOL    HW2 1266   1.049   2.517   1.047  0.9515 -0.2544  0.5637
  423SOL     OW 1267   0.164   0.650   1.234  0.5592 -0.6770 -0.1025
  423SOL    HW1 1268   0.101   0.623   1.311 -0.9606  0.6474 -3.0680
  423SOL    HW2 1269   0.127   0.734   1.185 -1.2007  0.1474 -2.5022
  424SOL     OW 1270   1.130   2.176   2.060 -0.0929 -0.2178  0.1259
  424SOL    HW1 1271   1.094   2.273   2.057 -1.4249 -1.1565  1.2165
  424SOL    HW2 1272   1.106   2.119   2.144  0.9239  0.5666  0.8694
  425SOL     OW 1273   1.981   1.255   0.992  0.6347 -0.1013 -0.6280
  425SOL    HW1 1274   2.060   1.208   1.050  4.6925  2.2541 -0.2818
  425SOL    HW2 1275   1.999   1.359   0.986  0.5705  2.1085  0.8022
  426SOL     OW 1276   1.473   1.651   1.244 -0.0662 -0.0948 -0.1766
  426SOL    HW1 1277   1.461   1.736   1.180  0.6811  4.3247  1.6173
  426SOL    HW2 1278   1.394   1.634   1.310  0.2494  1.2831  2.1428
  427SOL     OW 1279   1.960   2.434   2.095  0.2152 -0.1834  0.0908
  427SOL    HW1 1280   2.030   2.376   2.154  0.8463  1.3157 -0.7536
  427SOL    HW2 1281   1.981   2.535   2.101  2.3191 -2.4548  0.9436
  428SOL     OW 1282   0.876   0.005   0.033  0.1001 -0.3897  0.2763
  428SOL    HW1 1283   0.911   0.064  -0.042  2.0412 -1.1062 -1.1711
  428SOL    HW2 1284   0.943  -0.071   0.065 -0.3260 -2.3939 -1.0842
  429SOL     OW 1285   1.299   0.191   0.231  0.5037  0.2330  0.0300
  429SOL    HW1 1286   1.380   0.154   0.281 -0.5274  1.0635  0.9330
  429SOL    HW2 1287   1.327   0.210   0.129 -0.2831  0.4569 -1.2640
  430SOL     OW 1288   2.941   1.438   0.298  0.2238 -0.4914  0.6877
  430SOL    HW1 1289   2.922   1.507   0.219  1.5335  3.0434  1.2214
  430SOL    HW2 1290   2.909   1.473   0.391  2.8402  4.2071 -4.9542
  431SOL     OW 1291   2.079   1.544   0.900  0.1393 -0.1784  0.3500
  431SOL    HW1 1292   2.174   1.576   0.914 -0.4531 -1.2640 -1.2915
  431SOL    HW2 1293   2.012   1.613   0.939  0.9407 -0.0433  1.1335
  432SOL     OW 1294   2.937   2.174   1.199 -0.2322  0.3246 -0.0019
  432SOL    HW1 1295   2.937   2.084   1.256 -0.9130 -2.3604  0.8471
  432SOL    HW2 1296   2.973   2.255   1.253  1.9845  0.7838 -1.0742
  433SOL     OW 1297   1.872   0.237   0.835  0.3596 -0.3951  0.3518
  433SOL    HW1 1298   1.800   0.316   0.840  0.0581  0.4827 -0.3549
  433SOL    HW2 1299   1.930   0.246   0.919 -1.2517 -1.8158 -2.6254
  434SOL     OW 1300   1.566   0.268   0.724 -0.1365 -0.0810  0.3821
  434SOL    HW1 1301   1.558   0.338   0.647 -0.5638  0.6000 -1.9801
  434SOL    HW2 1302   1.576   0.320   0.811  1.0594 -2.1731  0.0138
  435SOL     OW 1303   1.495   1.472   2.108  0.3157  0.2072  0.2278
  435SOL    HW1 1304   1.470   1.503   2.208  0.5662 -0.2692  1.1797
  435SOL    HW2 1305   1.485   1.548   2.034 -0.5530  3.6697 -0.8249
  436SOL     OW 1306   1.720   2.721   2.271 -0.0575  0.0246  0.0879
  436SOL    HW1 1307   1.669   2.778   2.340 -0.8675 -1.7387 -2.4296
  436SOL    HW2 1308   1.727   2.619   2.302  2.6993 -0.7506  1.8174
  437SOL     OW 1309   1.144   2.983   0.899  0.0665  1.1234  0.3212
  437SOL    HW1 1310   1.068   3.057   0.895 -1.5659 -0.2340 -2.7296
  437SOL    HW2 1311   1.148   2.937   0.992  1.2913  1.5542  0.6124
  438SOL     OW 1312   1.022   2.699   1.529  0.5845  0.4515  0.3268
  438SOL    HW1 1313   1.112   2.723   1.487  0.9106 -3.2661 -1.0289
  438SOL    HW2 1314   0.974   2.636   1.466 -0.4891 -0.6115 -0.3614
  439SOL     OW 1315   0.703   1.873   1.117 -0.0027 -0.1358  0.1754
  439SOL    HW1 1316   0.730   1.971   1.095 -2.9403  0.2783  1.6596
  439SOL    HW2 1317   0.599   1.859   1.118 -1.4869 -3.0100 -1.7111
  440SOL     OW 1318   1.024   2.448   1.978  0.1211 -0.3693  0.1849
  440SOL    HW1 1319   0.959   2.476   1.900 -1.3481 -2.4837 -0.9720
  440SOL    HW2 1320   1.117   2.463   1.944 -1.1854 -1.4618 -2.5446
  441SOL     OW 1321   0.412   2.703   1.513  0.4662 -0.5148 -0.4935
  441SOL    HW1 1322   0.491   2.635   1.524 -0.8787  1.2017  0.5978
  441SOL    HW2 1323   0.342   2.667   1.442  2.4951 -0.1276 -2.1394
  442SOL     OW 1324   2.245   0.697   2.529 -0.5021 -0.0188 -0.0250
  442SOL    HW1 1325   2.276   0.598   2.550 -0.1386 -0.2055  1.1580
  442SOL    HW2 1326   2.159   0.736   2.570 -1.2631  2.7900  0.8325
  443SOL     OW 1327   1.207   2.670   2.234 -0.0431 -0.1180  0.7965
  443SOL    HW1 1328   1.191   2.722   2.322 -1.5123 -0.4874  0.4248
  443SOL    HW2 1329   1.242   2.573   2.246 -0.4854  2.1170 -0.2105
  444SOL     OW 1330   1.022   1.313   1.550 -0.0463 -0.2829  0.2694
  444SOL    HW1 1331   1.125   1.327   1.557 -0.5164 -2.4667  1.2689
  444SOL    HW2 1332   0.965   1.394   1.512 -0.0184  0.7388 -0.6636
  445SOL     OW 1333   3.086   2.375   1.917 -0.2928 -0.0234 -0.3933
  445SOL    HW1 1334   3.104   2.467   1.871 -0.2988 -0.4045  0.4300
  445SOL    HW2 1335   2.992   2.375   1.963  0.3372  0.5687 -3.4349
  446SOL     OW 1336   0.176   1.913   2.410 -0.1020  0.4720 -0.4439
  446SOL    HW1 1337   0.159   2.017   2.423 -0.4261 -1.7701  3.0542
  446SOL    HW2 1338   0.147   1.880   2.316 -0.5508  1.4469  1.7980
  447SOL     OW 1339   1.223   1.606   1.935 -0.1137 -0.1215 -0.6669
  447SOL    HW1 1340   1.157   1.672   1.890 -2.0053 -1.3481 -1.1085
  447SOL    HW2 1341   1.311   1.650   1.976  0.7067 -2.1408 -1.4168
  448SOL     OW 1342   0.149   1.569   1.926  1.0148 -0.0725 -0.0007
  448SOL    HW1 1343   0.123   1.673   1.930 -2.6396  2.5171  2.1710
  448SOL    HW2 1344   0.243   1.550   1.971  0.3016 -1.6250 -0.9647
  449SOL     OW 1345   1.998   2.897   0.913 -0.4167 -0.8095 -0.0643
  449SOL    HW1 1346   2.056   2.886   0.997 -0.4909 -2.6631  2.9411
  449SOL    HW2 1347   1.988   2.810   0.858 -0.2980 -0.5017  0.4048
  450SOL     OW 1348   2.274   1.332   0.940  0.6420  0.5949  0.2506
  450SOL    HW1 1349   2.294   1.247   0.886 -0.5961  0.2455  0.8023
  450SOL    HW2 1350   2.178   1.362   0.905  0.0930 -0.6757 -3.3478
  451SOL     OW 1351   1.419   0.011   1.429 -0.6056 -0.3036 -0.2214
  451SOL    HW1 1352   1.317   0.032   1.417 -1.9354 -3.1241 -2.1632
  451SOL    HW2 1353   1.445  -0.028   1.524 -0.7899  1.8398  0.3952
  452SOL     OW 1354   2.672   2.371   2.241  0.0565 -0.4835 -0.2525
  452SOL    HW1 1355   2.623   2.467   2.252 -2.7845  4.4219 -0.6569
  452SOL    HW2 1356   2.708   2.329   2.327  1.2891  1.1250 -0.2879
  453SOL     OW 1357   2.473   2.633   3.061  0.5812  0.2899  0.0587
  453SOL    HW1 1358   2.383   2.687   3.065  2.9556 -0.6099  0.6813
  453SOL    HW2 1359   2.469   2.553   2.993  1.5762 -0.5256 -0.7923
  454SOL     OW 1360   0.991   1.132   2.044  0.3485  0.8586 -0.3082
  454SOL    HW1 1361   0.973   1.167   1.950  3.0227  2.2599  1.3317
  454SOL    HW2 1362   1.093   1.121   2.072 -0.7221 -1.1175 -2.8711
  455SOL     OW 1363   0.638   2.574   2.907  0.0413 -0.6454 -0.1305
  455SOL    HW1 1364   0.685   2.663   2.935  0.4973 -0.9783  1.4789
  455SOL    HW2 1365   0.659   2.495   2.972  2.0122 -2.5306  1.4951
  456SOL     OW 1366   0.474   1.783   0.269  0.7058  0.5246 -0.2845
  456SOL    HW1 1367   0.520   1.712   0.323 -0.5884 -1.0825  1.8317
  456SOL    HW2 1368   0.538   1.849   0.222 -1.6182 -0.8464 -0.3129
  457SOL     OW 1369   0.379   2.588   0.574  0.2429  0.0740 -0.3896
  457SOL    HW1 1370   0.385   2.662   0.499  1.8483 -0.1244 -1.8377
  457SOL    HW2 1371   0.470   2.548   0.597 -0.0033  1.1151  3.0694
  458SOL     OW 1372   2.989   2.965   1.191 -0.0354 -0.0966  0.4773
  458SOL    HW1 1373   2.994   3.070   1.190 -0.3622  0.1006 -3.3158
  458SOL    HW2 1374   3.008   2.921   1.096 -1.1643  0.4521 -2.6898
  459SOL     OW 1375   2.177   2.609   0.851 -0.2389 -0.2174  0.1078
  459SOL    HW1 1376   2.201   2.701   0.900  0.0358  0.4065  3.0937
  459SOL    HW2 1377   2.262   2.577   0.802 -0.9419  0.7980  0.4763
  460SOL     OW 1378   1.087   1.961   2.900 -0.2530  0.2042 -0.3591
  460SOL    HW1 1379   1.106   2.044   2.840  0.5801 -0.5644  0.6306
  460SOL    HW2 1380   1.171   1.920   2.940 -1.2348  1.8188  1.1015
  461SOL     OW 1381   0.533   2.129   2.671 -0.7952 -0.2382 -0.1543
  461SOL    HW1 1382   0.485   2.041   2.645  0.9340  0.7363  1.3300
  461SOL    HW2 1383   0.569   2.126   2.772 -0.7632 -0.4246  1.5324
  462SOL     OW 1384   0.941   1.156   1.768  0.3577 -0.3825  0.3565
  462SOL    HW1 1385   0.997   1.074   1.764 -1.7743  3.1960 -0.9336
  462SOL    HW2 1386   0.981   1.231   1.712 -0.9600  0.7199 -0.5535
  463SOL     OW 1387   0.456   0.758   0.452 -0.5708  0.6329  0.2372
  463SOL    HW1 1388   0.471   0.654   0.446  0.7935 -0.4806 -0.2004
  463SOL    HW2 1389   0.362   0.786   0.484 -1.4545 -0.8215 -1.3470
  464SOL     OW 1390   0.531   2.239   2.247 -0.0862  0.0465 -0.3185
  464SOL    HW1 1391   0.445   2.277   2.293 -0.6358  2.2881 -2.5907
  464SOL    HW2 1392   0.556   2.298   2.164  3.0472  0.9850 -0.0852
  465SOL     OW 1393   0.327   0.884   0.884 -0.0801 -0.0094  0.0373
  465SOL    HW1 1394   0.232   0.877   0.834 -1.0210 -2.4815 -0.3107
  465SOL    HW2 1395   0.387   0.801   0.871  1.2810  0.2115 -2.1412
  466SOL     OW 1396   1.388   1.102   1.151 -0.2236 -0.0970  0.3652
  466SOL    HW1 1397   1.450   1.182   1.128  0.7586 -1.3434  1.6505
  466SOL    HW2 1398   1.290   1.108   1.114 -0.1970 -2.6915  0.3706
  467SOL     OW 1399   0.500   0.361   2.423  0.8766 -0.5409  0.1710
  467SOL    HW1 1400   0.497   0.426   2.505  1.6547 -3.5727  1.0069
  467SOL    HW2 1401   0.511   0.263   2.457 -0.6574 -0.7889  3.2446
  468SOL     OW 1402   0.480   2.265   1.736 -0.4194 -0.0218 -0.1106
  468SOL    HW1 1403   0.482   2.342   1.806 -1.3356  0.7127  0.2415
  468SOL    HW2 1404   0.476   2.302   1.636 -0.6963  0.7042 -1.8592
  469SOL     OW 1405   1.584   1.294   1.120  0.2878 -0.2665  0.1027
  469SOL    HW1 1406   1.650   1.223   1.160  3.0666 -0.5495  0.2514
  469SOL    HW2 1407   1.630   1.388   1.126  1.3913 -0.3166  0.1931
  470SOL     OW 1408   3.006   1.610   0.761  0.3463 -0.2251 -0.4134
  470SOL    HW1 1409   3.100   1.637   0.802 -2.8696 -0.1022 -1.6907
  470SOL    HW2 1410   2.927   1.671   0.797 -0.5368 -1.1873 -0.3022
  471SOL     OW 1411   2.580   1.299   2.193 -0.3423 -0.2560 -0.2689
  471SOL    HW1 1412   2.585   1.206   2.242 -0.0675 -1.3085  2.3518
  471SOL    HW2 1413   2.595   1.380   2.255  0.2426  1.5473  0.5298
  472SOL     OW 1414   1.207   2.451   3.050  0.7729 -0.3874 -0.8623
  472SOL    HW1 1415   1.228   2.451   3.153  1.6427 -0.6155 -0.2821
  472SOL    HW2 1416   1.178   2.355   3.027  3.6552 -0.7840  1.4492
  473SOL     OW 1417   1.075   1.503   0.886  0.6132 -0.1411 -0.0140
  473SOL    HW1 1418   0.990   1.549   0.919  1.6838 -0.2202 -0.2873
  473SOL    HW2 1419   1.139   1.476   0.966  1.5202 -0.2928 -1.1429
  474SOL     OW 1420   0.739   1.252   0.768 -0.2490 -0.3628 -0.6912
  474SOL    HW1 1421   0.722   1.230   0.672  1.6852  1.0646  1.3852
  474SOL    HW2 1422   0.832   1.226   0.801 -1.0135  0.8690  0.6335
  475SOL     OW 1423   2.861   0.021   0.827  0.3419 -0.2703 -0.8227
  475SOL    HW1 1424   2.943   0.048   0.890  0.1171 -3.5003  0.0837
  475SOL    HW2 1425   2.764   0.047   0.869 -2.6761 -1.5809  0.3096
  476SOL     OW 1426   0.952   3.051   1.931 -0.9650  0.3283 -1.1263
  476SOL    HW1 1427   1.000   2.999   2.008  1.7842  4.2491  0.6152
  476SOL    HW2 1428   0.946   2.996   1.843 -1.5497 -4.0785 -0.5374
  477SOL     OW 1429   1.478   0.364   2.425 -0.3148 -0.6370  0.2556
  477SOL    HW1 1430   1.471   0.352   2.529 -0.7105 -2.2346  1.5461
  477SOL    HW2 1431   1.564   0.315   2.384 -0.8771 -1.4746 -3.1489
  478SOL     OW 1432   2.198   1.843   0.247 -0.6341 -0.3712 -0.1329
  478SOL    HW1 1433   2.133   1.765   0.234 -3.9778  1.2017 -0.0980
  478SOL    HW2 1434   2.296   1.817   0.227 -2.7241 -0.4637 -1.1046
  479SOL     OW 1435   1.293   1.136   2.921  0.5386 -0.0444  0.7663
  479SOL    HW1 1436   1.344   1.202   2.867  0.8431 -1.3625  0.3738
  479SOL    HW2 1437   1.222   1.076   2.871 -1.6177 -0.7186  0.2841
  480SOL     OW 1438   2.500   2.349   0.446  0.1442 -0.1919  0.9785
  480SOL    HW1 1439   2.447   2.260   0.464 -0.1759  1.8177  2.0775
  480SOL    HW2 1440   2.472   2.398   0.362  0.7530 -0.6395 -1.3358
  481SOL     OW 1441   1.058   1.158   0.858 -0.0510 -0.0284  0.3658
  481SOL    HW1 1442   1.075   1.225   0.779 -1.5833  0.2491  1.8198
  481SOL    HW2 1443   1.095   1.204   0.947 -0.8651 -1.0248  0.8395
  482SOL     OW 1444   1.585   0.280   2.009 -0.7811 -0.4173 -0.3205
  482SOL    HW1 1445   1.580   0.381   2.009 -1.6924 -2.0487  0.1004
  482SOL    HW2 1446   1.660   0.244   2.067 -0.3023 -0.0334  0.9177
  483SOL     OW 1447   0.164   2.356   1.348  1.0867  0.0549 -0.3431
  483SOL    HW1 1448   0.064   2.368   1.381 -0.3448 -1.4085  0.5459
  483SOL    HW2 1449   0.179   2.375   1.244  0.8647 -2.0558  1.3410
  484SOL     OW 1450   1.710   0.956   1.389  0.4472 -0.3003  0.3600
  484SOL    HW1 1451   1.800   0.951   1.435 -0.5139 -0.2334  0.9155
  484SOL    HW2 1452   1.699   1.023   1.312  1.8421 -0.0037 -1.3581
  485SOL     OW 1453   0.672   1.114   1.791  0.3270  0.0954 -0.7443
  485SOL    HW1 1454   0.652   1.064   1.698  0.8121  1.6125 -3.5689
  485SOL    HW2 1455   0.775   1.122   1.797  0.0895 -0.9650 -0.3360
  486SOL     OW 1456   0.858   1.936   2.452 -0.5973  0.9355 -0.3216
  486SOL    HW1 1457   0.872   1.886   2.538 -1.8681  1.9084 -2.7895
  486SOL    HW2 1458   0.795   2.014   2.465  0.2004 -0.3906  0.0586
  487SOL     OW 1459   1.765   1.580   0.835 -0.3714  0.8244 -0.8121
  487SOL    HW1 1460   1.723   1.505   0.781  0.8644  0.6560 -0.4941
  487SOL    HW2 1461   1.828   1.641   0.782 -1.6399 -0.4745  0.4079
  488SOL     OW 1462   2.986   0.977   2.209 -0.4693  0.2329 -0.0312
  488SOL    HW1 1463   2.956   0.879   2.215 -0.4645  2.2162  0.2415
  488SOL    HW2 1464   3.091   0.999   2.225  2.4654  0.4607 -2.1973
  489SOL     OW 1465   2.776   0.220   1.368  0.2001  0.0945  0.1452
  489SOL    HW1 1466   2.748   0.210   1.468  0.9280  0.5841 -0.1963
  489SOL    HW2 1467   2.876   0.189   1.350  1.7951  1.1163 -0.3036
  490SOL     OW 1468   1.374   3.004   2.799 -0.5665  0.4352  0.1397
  490SOL    HW1 1469   1.403   2.905   2.821 -0.2870  3.1638 -0.7502
  490SOL    HW2 1470   1.377   3.035   2.696 -1.2301  0.4708  1.9412
  491SOL     OW 1471   1.866   1.528   2.682 -0.4487 -0.6750  0.5246
  491SOL    HW1 1472   1.807   1.507   2.761  4.8774 -2.6131  0.8685
  491SOL    HW2 1473   1.970   1.516   2.700 -0.0697 -2.5157  0.0395
  492SOL     OW 1474   0.492   1.939   0.691  0.1207  0.3177 -0.4842
  492SOL    HW1 1475   0.585   1.930   0.735 -1.9494 -0.6279 -0.1151
  492SOL    HW2 1476   0.457   2.034   0.693  1.2230  3.0119 -1.3336
  493SOL     OW 1477   0.508   1.422   2.123  0.5055  0.4674 -0.7230
  493SOL    HW1 1478   0.422   1.471   2.154  0.3910  0.1742 -0.6062
  493SOL    HW2 1479   0.524   1.339   2.184 -0.0853 -0.7249 -1.1368
  494SOL     OW 1480   2.600   2.554   0.197 -0.0635  0.0054 -0.1241
  494SOL    HW1 1481   2.679   2.491   0.212  2.6870 -0.5144  2.6361
  494SOL    HW2 1482   2.583   2.578   0.096  1.6533 -0.0077 -0.9793
  495SOL     OW 1483   2.737   2.695   2.693 -0.2223  0.1223 -0.3091
  495SOL    HW1 1484   2.728   2.607   2.642 -2.3954  3.1924  2.4894
  495SOL    HW2 1485   2.731   2.776   2.625  1.1509  1.0764 -2.2791
  496SOL     OW 1486   2.093   2.199   0.698 -0.3880  0.0547 -0.1095
  496SOL    HW1 1487   2.145   2.257   0.773 -0.2341 -1.9431 -0.9983
  496SOL    HW2 1488   2.081   2.099   0.720 -0.3168 -3.3374  0.9941
  497SOL     OW 1489   0.246   2.959   2.385 -0.1541 -0.1067 -0.2663
  497SOL    HW1 1490   0.216   3.035   2.449  1.4865 -0.1252 -2.8205
  497SOL    HW2 1491   0.275   2.983   2.288 -2.5021 -0.2611  1.0283
  498SOL     OW 1492   1.261   1.499   1.110  0.0669 -0.0802 -0.1251
  498SOL    HW1 1493   1.341   1.554   1.143  0.4421 -1.5704  0.9251
  498SOL    HW2 1494   1.164   1.529   1.154 -2.2200  1.7474  1.2442
  499SOL     OW 1495   0.842   1.819   0.480  0.3256  0.3161  0.6911
  499SOL    HW1 1496   0.798   1.724   0.477  0.5548  0.6951 -0.2537
  499SOL    HW2 1497   0.862   1.854   0.576 -0.0985 -2.8823 -2.0325
  500SOL     OW 1498   1.441   2.962   1.660  0.0907  0.2179  0.2222
  500SOL    HW1 1499   1.358   2.969   1.724 -0.9754 -0.7495  1.9473
  500SOL    HW2 1500   1.489   2.871   1.659 -1.8614  1.4875  0.0986
  501SOL     OW 1501   0.846   1.123   2.263  0.8326 -0.2574 -0.0042
  501SOL    HW1 1502   0.757   1.068   2.232 -1.1437 -2.7888 -1.0742
  501SOL    HW2 1503   0.919   1.123   2.191 -0.1724  1.4513  0.8096
  502SOL     OW 1504   2.571   0.942   1.757  0.1314 -0.7531  0.4917
  502SOL    HW1 1505   2.553   0.930   1.655 -0.8220 -0.9832  3.6180
  502SOL    HW2 1506   2.533   0.854   1.804 -0.2367 -0.8195  0.6178
  503SOL     OW 1507   1.316   0.187   0.574  0.2568  0.9791 -0.2089
  503SOL    HW1 1508   1.233   0.250   0.587  1.5501  2.5453  1.1266
  503SOL    HW2 1509   1.407   0.232   0.584 -0.2205 -0.0876  1.4475
  504SOL     OW 1510   2.957   2.313   1.420 -0.0655  0.2014 -0.1356
  504SOL    HW1 1511   2.958   2.385   1.496 -1.6525 -1.7510 -1.6859
  504SOL    HW2 1512   2.884   2.242   1.448 -0.3204 -1.3047  0.8357
  505SOL     OW 1513   2.286   1.281   1.445  0.1980 -0.1114 -0.4807
  505SOL    HW1 1514   2.266   1.368   1.496 -0.2349 -1.7014 -0.9312
  505SOL    HW2 1515   2.382   1.252   1.455  0.2274  0.3023 -0.3997
  506SOL     OW 1516   1.878   0.334   1.751  0.2199  0.0431  0.1080
  506SOL    HW1 1517   1.957   0.268   1.729 -0.1379  0.9970 -0.4247
  506SOL    HW2 1518   1.895   0.401   1.832 -0.5521 -0.7400  3.3686
  507SOL     OW 1519   0.521   0.739   2.163  0.2049 -0.2196  0.0163
  507SOL    HW1 1520   0.438   0.723   2.104 -0.5769 -1.2685  1.0529
  507SOL    HW2 1521   0.582   0.655   2.185 -0.1726 -0.7129  0.1426
  508SOL     OW 1522   0.150   1.634   0.843  0.3276  0.7637 -0.6072
  508SOL    HW1 1523   0.230   1.679   0.794  0.5362  1.9570 -1.3064
  508SOL    HW2 1524   0.144   1.661   0.942 -3.1171  1.5403  1.9117
  509SOL     OW 1525   1.375   1.143   2.549  0.1900 -0.4602 -0.8101
  509SOL    HW1 1526   1.323   1.223   2.579  1.4057  1.4650 -1.6381
  509SOL    HW2 1527   1.314   1.054   2.559 -0.7641 -2.3481  1.1696
  510SOL     OW 1528   1.345   1.997   2.031  0.3350  0.0892 -1.0499
  510SOL    HW1 1529   1.260   2.064   2.032 -0.3434 -2.4439  0.2148
  510SOL    HW2 1530   1.342   1.921   2.104  0.7057  0.2262  1.2440
  511SOL     OW 1531   3.060   2.619   1.291  0.5468 -0.6981 -0.3517
  511SOL    HW1 1532   3.026   2.580   1.197  1.7910 -0.2611 -0.9790
  511SOL    HW2 1533   2.983   2.651   1.350  2.3431 -0.9791 -1.0183
  512SOL     OW 1534   2.415   0.363   1.448 -0.0168  0.0180 -0.4903
  512SOL    HW1 1535   2.314   0.377   1.450 -1.5346 -1.5268 -0.2835
  512SOL    HW2 1536   2.440   0.261   1.444 -0.9210  0.8917  0.2069
  513SOL     OW 1537   2.466   2.041   0.812 -0.8656 -0.0599 -0.2534
  513SOL    HW1 1538   2.426   2.130   0.773 -1.3972 -0.5637 -0.1020
  513SOL    HW2 1539   2.551   2.008   0.765 -0.8052 -1.4811  0.5257
  514SOL     OW 1540   0.725   2.802   0.334  0.4336 -0.0579 -0.1297
  514SOL    HW1 1541   0.704   2.889   0.281  0.1441 -2.5979  0.9743
  514SOL    HW2 1542   0.701   2.812   0.434  1.9674  1.7391 -0.4244
  515SOL     OW 1543   1.964   1.250   2.344  0.3227 -0.0011  0.0903
  515SOL    HW1 1544   1.925   1.278   2.255 -1.6331  1.5650  2.2776
  515SOL    HW2 1545   1.900   1.246   2.423  3.7923  1.0056 -2.9915
  516SOL     OW 1546   0.337   0.384   1.987  1.1303  0.1848 -0.3601
  516SOL    HW1 1547   0.429   0.347   1.952  0.9962 -0.8266 -2.4160
  516SOL    HW2 1548   0.259   0.321   1.958 -0.4700 -3.0091  1.3004
  517SOL     OW 1549   0.348   2.990   1.198  0.2000  0.7352  0.3993
  517SOL    HW1 1550   0.336   3.091   1.220 -0.3254 -0.4702  1.6172
  517SOL    HW2 1551   0.288   2.924   1.244  1.8400  0.9808  0.9002
  518SOL     OW 1552   2.113   0.153   1.731  0.0216 -0.2697  0.8700
  518SOL    HW1 1553   2.183   0.181   1.800  0.5016 -0.8754  1.0624
  518SOL    HW2 1554   2.150   0.074   1.672 -0.7371 -1.3377  0.6300
  519SOL     OW 1555   2.377   2.231   2.637  0.4898  0.5098 -0.2605
  519SOL    HW1 1556   2.273   2.229   2.661  1.2279  1.0254  2.0790
  519SOL    HW2 1557   2.397   2.323   2.590 -0.1645 -1.3290 -0.3171
  520SOL     OW 1558   1.737   2.884   1.805  0.2925  0.3712 -0.3239
  520SOL    HW1 1559   1.663   2.834   1.860  0.5242 -1.4751 -0.5086
  520SOL    HW2 1560   1.817   2.816   1.788 -0.1066 -3.1973  0.9216
  521SOL     OW 1561   0.607   0.066   2.149 -0.0194 -0.4394 -0.0468
  521SOL    HW1 1562   0.510   0.055   2.188 -0.5158  0.3265  0.7229
  521SOL    HW2 1563   0.682   0.032   2.217  0.5559 -0.7997  1.3798
  522SOL     OW 1564   0.185   1.930   1.526 -0.8723  0.4633  0.1424
  522SOL    HW1 1565   0.248   1.950   1.609  2.2755 -0.1396  1.1552
  522SOL    HW2 1566   0.199   1.998   1.448  2.1377 -0.1044  0.6103
  523SOL     OW 1567   2.271   3.018   1.658  0.3053 -0.5491  0.7488
  523SOL    HW1 1568   2.319   2.966   1.581  1.6633 -1.6062  0.2213
  523SOL    HW2 1569   2.187   2.973   1.694 -0.4287  5.2482  0.1916
  524SOL     OW 1570   0.196   2.785   2.791 -0.6880  0.2120 -0.6681
  524SOL    HW1 1571   0.152   2.875   2.831  0.6066  3.7742  3.6506
  524SOL    HW2 1572   0.292   2.775   2.838 -0.0265  1.8270  1.6825
  525SOL     OW 1573   2.096   1.915   0.467  0.5782 -0.1169 -0.1311
  525SOL    HW1 1574   2.099   1.832   0.526 -0.5646 -0.7291  0.0816
  525SOL    HW2 1575   2.155   1.896   0.377  1.5331  0.2286  0.1759
  526SOL     OW 1576   0.382   1.528   1.542  0.0705 -0.0300  0.6831
  526SOL    HW1 1577   0.320   1.480   1.608  0.1059  0.5135 -0.4432
  526SOL    HW2 1578   0.453   1.467   1.496 -1.4354  0.9649  1.2815
  527SOL     OW 1579   1.149   2.891   1.149 -0.0817 -0.0733 -0.7091
  527SOL    HW1 1580   1.244   2.849   1.167  2.1468 -0.4698 -0.6366
  527SOL    HW2 1581   1.137   2.986   1.185  0.3822 -1.2774  0.1369
  528SOL     OW 1582   1.300   2.408   0.483  0.0197  0.1093  0.3498
  528SOL    HW1 1583   1.321   2.309   0.495  0.5034  1.6459  2.2394
  528SOL    HW2 1584   1.352   2.463   0.558  1.7510 -0.6085 -0.0652
  529SOL     OW 1585   1.911   1.747   0.686  0.4479 -0.1701 -0.8092
  529SOL    HW1 1586   1.876   1.743   0.586 -0.2909  0.2991 -0.6271
  529SOL    HW2 1587   2.013   1.751   0.694 -1.7878  1.9070 -0.5162
  530SOL     OW 1588   0.339   2.502   0.234  0.2361  0.5004  0.6847
  530SOL    HW1 1589   0.335   2.592   0.271 -2.3528 -2.6323 -0.0368
  530SOL    HW2 1590   0.417   2.444   0.267 -1.3571 -0.7288 -1.6608
  531SOL     OW 1591   1.898   0.807   0.944 -0.2015  0.2227 -0.3675
  531SOL    HW1 1592   1.902   0.852   0.849 -1.2671 -1.7066 -0.0601
  531SOL    HW2 1593   1.797   0.796   0.968 -2.4787  1.0661  2.7963
  532SOL     OW 1594   0.452   1.089   0.737 -0.0881 -0.3359  0.1659
  532SOL    HW1 1595   0.506   1.040   0.664 -1.8882 -1.8151 -2.3403
  532SOL    HW2 1596   0.416   1.015   0.799  1.4111  0.9839  2.8883
  533SOL     OW 1597   1.733   0.032   2.579  0.5154  0.4225  0.0527
  533SOL    HW1 1598   1.831   0.015   2.602 -0.2719 -2.2866 -0.7503
  533SOL    HW2 1599   1.686   0.093   2.651  0.9577  3.3406  0.6647
  534SOL     OW 1600   0.380   0.240   1.481  0.2097  0.6468 -0.3480
  534SOL    HW1 1601   0.469   0.229   1.533  1.4706  0.4203  1.9284
  534SOL    HW2 1602   0.351   0.338   1.491 -0.3505  0.3024 -2.9228
  535SOL     OW 1603   1.993   0.302   0.170  0.2964 -0.0911  0.0924
  535SOL    HW1 1604   1.979   0.399   0.215  1.4306 -0.7158 -1.0691
  535SOL    HW2 1605   1.986   0.216   0.231  0.5324 -1.4574  0.9339
  536SOL     OW 1606   1.390   2.609   0.976  0.1498  0.4850  0.3576
  536SOL    HW1 1607   1.354   2.562   1.064  0.4464  2.4488 -3.7992
  536SOL    HW2 1608   1.320   2.670   0.929 -0.8329 -3.2890 -0.5203
  537SOL     OW 1609   0.904   0.247   2.325  0.4885  0.8807 -0.1048
  537SOL    HW1 1610   0.920   0.305   2.240  0.8902  1.2911 -0.0000
  537SOL    HW2 1611   0.865   0.154   2.314  1.1261 -1.0934 -0.6374
  538SOL     OW 1612   1.630   2.352   1.408 -0.1880  0.0509 -0.0257
  538SOL    HW1 1613   1.601   2.252   1.422 -1.5923 -1.0153  2.6255
  538SOL    HW2 1614   1.724   2.367   1.364  1.0307 -1.3009 -2.3428
  539SOL     OW 1615   0.172   1.576   2.657 -0.4143 -0.0683 -0.1150
  539SOL    HW1 1616   0.074   1.572   2.613  0.6582 -1.4443 -0.2725
  539SOL    HW2 1617   0.181   1.655   2.722 -2.7500 -1.1934  0.4144
  540SOL     OW 1618   2.680   1.765   1.955  0.1429  0.0313 -0.0348
  540SOL    HW1 1619   2.616   1.686   1.973  0.2056 -2.1985  0.1842
  540SOL    HW2 1620   2.633   1.858   1.958  0.0071  5.0823  3.6814
  541SOL     OW 1621   0.465   2.131   3.051 -0.1820 -0.0694  0.2576
  541SOL    HW1 1622   0.470   2.092   3.144 -0.7102  0.7909  0.4393
  541SOL    HW2 1623   0.369   2.136   3.014  0.1404  0.4209 -0.8534
  542SOL     OW 1624   2.248   2.596   0.490 -0.4610 -0.3411 -0.0515
  542SOL    HW1 1625   2.268   2.665   0.565 -2.2181 -0.2599  1.3665
  542SOL    HW2 1626   2.171   2.532   0.505 -1.8243  1.7014 -0.6775
  543SOL     OW 1627   0.984   1.785   1.585 -0.6576  0.0207 -0.0700
  543SOL    HW1 1628   0.987   1.821   1.686 -2.1058  0.5719  0.2117
  543SOL    HW2 1629   0.971   1.856   1.508 -0.7060  1.8412 -0.8393
  544SOL     OW 1630   1.133   0.542   0.135  0.1245  0.4190 -0.6835
  544SOL    HW1 1631   1.116   0.463   0.202 -0.9674 -3.0480  0.4154
  544SOL    HW2 1632   1.156   0.508   0.036 -0.1909 -1.2980 -0.2949
  545SOL     OW 1633   1.138   1.774   0.816 -0.6435 -0.0272  0.0866
  545SOL    HW1 1634   1.227   1.814   0.778 -0.9676  0.1561  1.7013
  545SOL    HW2 1635   1.143   1.668   0.816  1.2652 -2.8750 -0.9837
  546SOL     OW 1636   2.716   1.579   3.021 -0.2376 -0.2106  0.0387
  546SOL    HW1 1637   2.685   1.679   3.029 -1.2139 -0.6638  3.0329
  546SOL    HW2 1638   2.641   1.511   3.031  0.2823 -0.2449 -1.4740
  547SOL     OW 1639   0.743   3.021   2.599  0.1144  0.0162 -0.4123
  547SOL    HW1 1640   0.809   2.989   2.674  1.1320 -2.5030  4.4456
  547SOL    HW2 1641   0.663   2.951   2.590  1.2600  3.2278 -1.3423
  548SOL     OW 1642   2.017   0.813   3.097 -0.5647  0.0580  1.0254
  548SOL    HW1 1643   1.920   0.785   3.113  0.7054  0.6078 -0.7949
  548SOL    HW2 1644   2.020   0.913   3.079  0.6039 -1.5134 -2.2739
  549SOL     OW 1645   0.680   0.486   0.181  0.8619 -0.8276 -0.1056
  549SOL    HW1 1646   0.611   0.511   0.105 -0.7011 -2.0490 -0.7477
  549SOL    HW2 1647   0.759   0.560   0.184  1.4176  1.8216  0.6878
  550SOL     OW 1648   2.609   2.812   2.904 -0.4941 -0.0425  0.6948
  550SOL    HW1 1649   2.566   2.737   2.965 -1.4594  0.7545 -2.4418
  550SOL    HW2 1650   2.669   2.770   2.830 -0.2040  0.5867 -0.7193
  551SOL     OW 1651   0.239   0.857   0.243  0.2224 -0.3292  0.1352
  551SOL    HW1 1652   0.333   0.819   0.222 -0.0991  1.8214  1.0653
  551SOL    HW2 1653   0.202   0.842   0.334 -2.5786  1.8466 -1.0321
  552SOL     OW 1654   0.611   3.055   1.903 -0.0642  0.2121 -0.5612
  552SOL    HW1 1655   0.620   3.120   1.984 -0.7420  0.2555  1.4310
  552SOL    HW2 1656   0.703   3.024   1.873 -2.8569  1.9774 -0.1584
  553SOL     OW 1657   3.063   2.400   0.387 -0.5658  0.1773  0.7231
  553SOL    HW1 1658   3.111   2.311   0.412  0.2435 -0.7612 -0.6531
  553SOL    HW2 1659   2.973   2.413   0.428  1.2387 -0.0444  1.6781
  554SOL     OW 1660   2.241   0.326   0.594  0.3210 -0.1447  0.0514
  554SOL    HW1 1661   2.301   0.291   0.517  1.8305 -0.1937 -0.5634
  554SOL    HW2 1662   2.229   0.262   0.673 -0.9009 -0.0674 -0.0836
  555SOL     OW 1663   0.471   2.809   2.528  0.0266 -0.1378  1.3877
  555SOL    HW1 1664   0.394   2.868   2.490  0.4922  1.4708 -1.4274
  555SOL    HW2 1665   0.479   2.718   2.471 -0.4339  0.5606  0.0442
  556SOL     OW 1666   0.822   2.359   1.595 -0.6154 -0.0131 -0.0796
  556SOL    HW1 1667   0.875   2.408   1.671  0.7580 -1.2529  3.1238
  556SOL    HW2 1668   0.868   2.370   1.503 -1.1744  2.4599  2.1970
  557SOL     OW 1669   0.103   2.180   0.246 -0.6048 -0.3039 -0.5497
  557SOL    HW1 1670   0.047   2.121   0.185 -0.2503  0.6483 -2.3085
  557SOL    HW2 1671   0.157   2.247   0.198 -2.8259  0.4959 -1.1145
  558SOL     OW 1672   2.826   2.150   0.383  0.2281 -0.9206 -0.4112
  558SOL    HW1 1673   2.846   2.246   0.420 -1.6886 -5.8261  2.1034
  558SOL    HW2 1674   2.758   2.160   0.300 -0.0063 -1.9058  0.3712
  559SOL     OW 1675   0.429   2.283   1.435 -0.3439  0.7545 -0.4575
  559SOL    HW1 1676   0.351   2.325   1.385 -0.3710  0.1698  2.8694
  559SOL    HW2 1677   0.497   2.223   1.378  0.1106 -2.1389 -0.4764
  560SOL     OW 1678   2.169   1.064   0.040 -0.2458  0.5034  0.4593
  560SOL    HW1 1679   2.225   1.061   0.128  2.5525  1.2099  0.8007
  560SOL    HW2 1680   2.230   1.036  -0.037  0.0960  0.8397 -1.7705
  561SOL     OW 1681   3.022   1.982   0.130 -0.0324 -0.2367 -0.3189
  561SOL    HW1 1682   2.939   1.992   0.194  0.6756  2.2764 -2.5520
  561SOL    HW2 1683   2.988   1.978   0.031 -1.1878 -2.7465  0.6206
  562SOL     OW 1684   1.012   2.113   2.296 -0.4281  0.2696  0.3511
  562SOL    HW1 1685   1.009   2.208   2.346 -1.0763  1.0261  2.6648
  562SOL    HW2 1686   0.945   2.046   2.337 -0.5041  3.1819 -2.2806
  563SOL     OW 1687   0.693   2.487   2.642  0.8659 -0.3055  0.3111
  563SOL    HW1 1688   0.774   2.418   2.646  0.2243  0.5114 -1.4017
  563SOL    HW2 1689   0.673   2.520   2.740  0.9216  0.5650  1.0527
  564SOL     OW 1690   2.872   1.382   2.892 -0.0753 -0.4508  0.2348
  564SOL    HW1 1691   2.823   1.460   2.939  1.1282 -2.4584 -1.7938
  564SOL    HW2 1692   2.970   1.413   2.864  0.0352  0.9081 -1.0213
  565SOL     OW 1693   2.500   1.963   2.645 -0.0069  0.6343  0.2858
  565SOL    HW1 1694   2.452   2.059   2.644 -4.8445  0.7101 -0.2106
  565SOL    HW2 1695   2.594   1.968   2.695  1.3298  2.0311 -2.1029
  566SOL     OW 1696   2.027   2.922   1.542  0.4358  0.1708  1.1205
  566SOL    HW1 1697   1.979   2.829   1.532 -3.5573 -1.9184  0.8809
  566SOL    HW2 1698   2.095   2.947   1.467  1.9610 -2.7844 -2.2881
  567SOL     OW 1699   2.381   0.039   2.306  0.1451 -0.2269  0.2956
  567SOL    HW1 1700   2.315   0.092   2.365  1.7295  2.0495  1.4550
  567SOL    HW2 1701   2.357   0.027   2.203  0.6092  0.4194  1.7658
  568SOL     OW 1702   1.483   1.754   0.177  0.5076  0.4564 -0.3398
  568SOL    HW1 1703   1.417   1.834   0.191  2.0784 -0.4477 -0.2863
  568SOL    HW2 1704   1.583   1.779   0.193 -1.6266  0.9433  2.3526
  569SOL     OW 1705   0.205   0.536   0.838  0.3646  0.0216  0.0708
  569SOL    HW1 1706   0.222   0.474   0.760 -1.1569  2.7717 -1.2385
  569SOL    HW2 1707   0.102   0.554   0.845  0.8262  1.7032 -2.0764
  570SOL     OW 1708   0.649   0.801   2.907 -0.0584 -0.7658 -0.3797
  570SOL    HW1 1709   0.645   0.829   2.807  0.0706  1.0998 -2.0910
  570SOL    HW2 1710   0.691   0.872   2.972 -0.2853 -1.4035 -0.7833
  571SOL     OW 1711   0.798   3.035   1.111 -0.3984 -0.4562  0.5478
  571SOL    HW1 1712   0.866   3.088   1.052  1.9722 -0.0871  2.6724
  571SOL    HW2 1713   0.826   2.934   1.108  1.9352  0.5498 -2.3215
  572SOL     OW 1714   1.668   2.730   1.390 -0.4320  0.1552 -0.7404
  572SOL    HW1 1715   1.701   2.731   1.295  3.0481 -0.3701  1.3324
  572SOL    HW2 1716   1.584   2.793   1.396 -0.4913 -0.7100 -4.0626
  573SOL     OW 1717   3.052   0.475   1.941 -0.0191  0.5238  0.3014
  573SOL    HW1 1718   2.968   0.412   1.925 -0.0695 -1.3603  2.3678
  573SOL    HW2 1719   3.128   0.461   1.869  0.9004  1.0789 -4.4312
  574SOL     OW 1720   0.126   1.688   1.120  1.1017  0.4367  0.3293
  574SOL    HW1 1721   0.165   1.663   1.217  0.2257 -0.7890  0.6841
  574SOL    HW2 1722   0.079   1.779   1.121 -2.0166 -2.0992 -0.6397
  575SOL     OW 1723   0.838   2.308   0.931 -0.1056 -0.2286  0.2442
  575SOL    HW1 1724   0.788   2.361   1.010  1.4445 -1.8791  0.3337
  575SOL    HW2 1725   0.893   2.361   0.863 -1.8942  0.5828  0.9174
  576SOL     OW 1726   2.931   3.047   1.671 -0.3572  0.4826 -0.1282
  576SOL    HW1 1727   2.844   3.038   1.610  1.8073 -1.2851  0.4126
  576SOL    HW2 1728   2.971   3.144   1.676  0.8694  3.0920 -0.8812
  577SOL     OW 1729   2.636   1.197   3.054 -0.2633 -0.4414 -0.0199
  577SOL    HW1 1730   2.644   1.109   2.999  2.6726 -2.6906  0.1563
  577SOL    HW2 1731   2.676   1.174   3.146  0.5938 -1.2753 -0.7261
  578SOL     OW 1732   1.381   2.741   2.564  1.0160  0.2278  0.2311
  578SOL    HW1 1733   1.285   2.770   2.544  2.2137  0.8391  0.3361
  578SOL    HW2 1734   1.450   2.800   2.511 -0.2476  1.8372  0.6726
  579SOL     OW 1735   0.065   2.463   0.137 -0.3058 -0.0119 -0.0273
  579SOL    HW1 1736   0.011   2.428   0.223  0.8626  2.8889  1.8179
  579SOL    HW2 1737   0.169   2.482   0.158  2.7959 -3.8867  0.1501
  580SOL     OW 1738   0.981   2.721   0.338  0.0137  0.7905 -0.4627
  580SOL    HW1 1739   1.048   2.708   0.261  0.0493  0.1595 -0.4456
  580SOL    HW2 1740   0.882   2.726   0.307  0.7646 -0.3798 -0.3031
  581SOL     OW 1741   1.269   2.713   1.392 -0.5441 -0.4601 -0.1058
  581SOL    HW1 1742   1.319   2.627   1.425 -1.1104  1.5657 -1.9946
  581SOL    HW2 1743   1.335   2.786   1.354  0.3329 -0.0652  1.1516
  582SOL     OW 1744   1.422   0.119   1.839  0.4789  0.5529  0.0902
  582SOL    HW1 1745   1.470   0.184   1.902  0.9720 -0.8023 -1.8151
  582SOL    HW2 1746   1.461   0.123   1.743  1.2083  0.0240  1.9733
  583SOL     OW 1747   2.500   2.987   0.513 -0.0158  0.0165  0.8290
  583SOL    HW1 1748   2.554   2.931   0.443  1.0236  0.1355 -0.8374
  583SOL    HW2 1749   2.419   2.942   0.552  0.2133 -1.6903 -0.7657
  584SOL     OW 1750   1.463   1.030   2.267 -0.4908 -0.2609  0.2886
  584SOL    HW1 1751   1.434   1.051   2.362 -2.2161 -2.2357  0.5216
  584SOL    HW2 1752   1.560   0.994   2.269  0.8780 -0.3593 -2.3132
  585SOL     OW 1753   2.055   2.654   2.866 -0.2099  0.0889  0.3097
  585SOL    HW1 1754   2.111   2.570   2.837  0.4550 -2.0711 -0.1779
  585SOL    HW2 1755   1.957   2.658   2.837  0.2768 -5.1543 -2.3105
  586SOL     OW 1756   2.874   0.386   1.617  0.4727  0.0051  0.3015
  586SOL    HW1 1757   2.865   0.493   1.634 -1.0640 -2.1277  1.1349
  586SOL    HW2 1758   2.794   0.343   1.662  0.1886  0.2591  3.1049
  587SOL     OW 1759   2.133   1.478   2.727 -0.4803  0.5737 -0.4930
  587SOL    HW1 1760   2.152   1.438   2.632  0.0315 -2.7814  1.2554
  587SOL    HW2 1761   2.220   1.526   2.770  1.8697 -2.9581 -0.8904
  588SOL     OW 1762   0.425   2.662   2.196 -0.2458  0.2931 -0.6727
  588SOL    HW1 1763   0.435   2.731   2.115 -0.5920 -0.0815 -0.2840
  588SOL    HW2 1764   0.353   2.596   2.184 -0.5891  0.8777 -3.1704
  589SOL     OW 1765   2.162   1.380   2.472  0.0984  0.1569 -0.0815
  589SOL    HW1 1766   2.086   1.331   2.417 -0.4608  0.0687 -2.7172
  589SOL    HW2 1767   2.256   1.331   2.479  0.4261  3.1462 -0.2132
  590SOL     OW 1768   2.315   1.689   2.048 -0.6227  0.5154  0.2088
  590SOL    HW1 1769   2.401   1.631   2.028  0.6939  1.1489 -0.9553
  590SOL    HW2 1770   2.326   1.728   2.143  0.9092 -2.0170  2.3703
  591SOL     OW 1771   1.281   2.429   0.202  0.2744  0.6208  0.5297
  591SOL    HW1 1772   1.335   2.349   0.161 -0.4087 -2.2984 -1.6639
  591SOL    HW2 1773   1.286   2.431   0.306  1.4609 -2.3660 -2.6174
  592SOL     OW 1774   1.789   2.337   0.781  0.0273 -0.0877  0.0467
  592SOL    HW1 1775   1.752   2.361   0.684 -1.4308  0.3251 -2.9124
  592SOL    HW2 1776   1.893   2.351   0.787 -0.5141  2.7959  1.9607
  593SOL     OW 1777   0.793   0.230   0.223 -0.1651 -1.0525 -0.0270
  593SOL    HW1 1778   0.822   0.185   0.135 -1.0628 -1.3243  0.6993
  593SOL    HW2 1779   0.749   0.325   0.204 -1.6862 -1.0683 -0.0184
  594SOL     OW 1780   0.955   1.814   2.702 -0.3314  0.4565  0.1614
  594SOL    HW1 1781   1.039   1.780   2.654  0.7552 -2.2648  1.2882
  594SOL    HW2 1782   0.982   1.870   2.787  0.1121  1.9562  3.5532
  595SOL     OW 1783   1.562   0.088   1.032 -0.6967 -0.7426  0.3509
  595SOL    HW1 1784   1.624   0.025   0.981  0.3568 -1.9623  2.9377
  595SOL    HW2 1785   1.472   0.089   0.980 -0.0607 -0.9941  0.0131
  596SOL     OW 1786   0.243   1.497   2.191  0.1966  0.3268  0.3855
  596SOL    HW1 1787   0.140   1.487   2.162  1.3976  0.6714 -1.8684
  596SOL    HW2 1788   0.260   1.561   2.270  0.0764  0.4125 -2.4054
  597SOL     OW 1789   1.954   2.701   1.809 -0.2054  0.3842  0.0900
  597SOL    HW1 1790   1.917   2.663   1.720 -0.9010  0.7063 -2.7742
  597SOL    HW2 1791   2.041   2.654   1.837 -1.8195 -0.4271 -2.0722
  598SOL     OW 1792   2.515   2.772   1.258 -0.4536  0.2628  0.3361
  598SOL    HW1 1793   2.620   2.766   1.251  0.2923  0.4881  1.6129
  598SOL    HW2 1794   2.466   2.688   1.223 -0.6472 -1.8438  2.0384
  599SOL     OW 1795   2.898   0.302   2.514 -0.0674 -0.1322  0.2250
  599SOL    HW1 1796   2.980   0.339   2.467  1.6022 -2.6426  2.6127
  599SOL    HW2 1797   2.809   0.346   2.488 -0.1568 -1.2264  2.6948
  600SOL     OW 1798   2.732   1.210   2.735 -0.3102 -0.0829 -0.0513
  600SOL    HW1 1799   2.631   1.192   2.736 -0.4063  3.7285 -0.8240
  600SOL    HW2 1800   2.762   1.264   2.822 -1.6053 -0.1721  0.3757
  601SOL     OW 1801   3.028   1.377   1.876 -0.3497 -0.2033 -0.3094
  601SOL    HW1 1802   2.938   1.402   1.833  2.4208  0.0655 -3.6702
  601SOL    HW2 1803   3.103   1.449   1.871  0.2452  0.1968 -0.1708
  602SOL     OW 1804   1.474   1.577   2.356 -0.4156 -0.2034 -0.2452
  602SOL    HW1 1805   1.386   1.556   2.405  0.0169 -0.0530 -0.1122
  602SOL    HW2 1806   1.548   1.629   2.407 -3.6155  1.3995 -2.3811
  603SOL     OW 1807   0.585   1.156   2.761  0.1967 -0.0720  0.1780
  603SOL    HW1 1808   0.523   1.195   2.691  2.0150 -1.0796 -0.2735
  603SOL    HW2 1809   0.620   1.061   2.733  0.0845  0.4564 -2.1626
  604SOL     OW 1810   2.537   0.988   0.243  0.2619 -0.7042 -0.7599
  604SOL    HW1 1811   2.608   1.060   0.210 -1.6185 -1.2148  0.2122
  604SOL    HW2 1812   2.525   0.915   0.170 -1.6386  1.2942 -0.0678
  605SOL     OW 1813   2.557   1.170   1.912 -0.1819  0.2252 -0.0417
  605SOL    HW1 1814   2.581   1.086   1.856 -0.6033 -1.0659 -0.3027
  605SOL    HW2 1815   2.592   1.165   2.010  0.6026 -1.9414  1.4942
  606SOL     OW 1816   1.468   2.459   2.550  0.0153  0.0833  0.0551
  606SOL    HW1 1817   1.422   2.554   2.550  1.0701  2.7959  0.1427
  606SOL    HW2 1818   1.401   2.383   2.540  2.4174  0.4897  2.0451
  607SOL     OW 1819   1.270   1.608   0.257 -0.6631  0.0981  0.0297
  607SOL    HW1 1820   1.215   1.681   0.305  0.9453  4.3933  0.3078
  607SOL    HW2 1821   1.360   1.642   0.221  1.0045  2.5341 -2.7425
  608SOL     OW 1822   1.449   2.870   0.357  0.0284  0.4833  0.0894
  608SOL    HW1 1823   1.509   2.918   0.286 -1.9644 -1.0031 -2.4376
  608SOL    HW2 1824   1.376   2.932   0.402 -0.9220  0.9411  2.9380
  609SOL     OW 1825   1.242   1.314   0.207 -0.4296  0.2914  0.4477
  609SOL    HW1 1826   1.245   1.412   0.250  0.0020  4.0425  1.4625
  609SOL    HW2 1827   1.201   1.318   0.112  0.4611  2.2173 -0.1978
  610SOL     OW 1828   3.064   1.216   2.100 -0.4659 -0.2479 -0.1267
  610SOL    HW1 1829   3.012   1.131   2.093 -0.2070  1.9407 -2.8918
  610SOL    HW2 1830   3.045   1.272   2.015 -1.5030 -1.8412  2.2624
  611SOL     OW 1831   2.591   0.194   1.177  0.0612  0.4532 -0.1028
  611SOL    HW1 1832   2.538   0.104   1.175 -0.5914 -1.7686 -0.1581
  611SOL    HW2 1833   2.643   0.214   1.267  0.7015  1.5296  0.4717
  612SOL     OW 1834   0.759   2.399   1.181  0.0513  0.4320 -0.3063
  612SOL    HW1 1835   0.695   2.319   1.188  0.4602  2.8479  0.0430
  612SOL    HW2 1836   0.717   2.494   1.187  2.0004  0.4274 -1.8558
  613SOL     OW 1837   0.783   1.347   2.396 -0.6755  0.0026  0.1874
  613SOL    HW1 1838   0.785   1.430   2.336  1.2928  1.5046  0.9653
  613SOL    HW2 1839   0.791   1.260   2.341  1.1672  0.8549 -0.1146
  614SOL     OW 1840   1.512   1.690   1.938  0.2951  0.4305 -0.8275
  614SOL    HW1 1841   1.482   1.761   1.873 -1.7120  1.0689  0.6431
  614SOL    HW2 1842   1.588   1.722   2.005 -1.7665 -0.6509 -2.9696
  615SOL     OW 1843   0.726   1.432   1.690  0.2425 -0.2945  0.1291
  615SOL    HW1 1844   0.668   1.394   1.610  1.0392  0.2490  3.4597
  615SOL    HW2 1845   0.825   1.433   1.668  0.4117 -0.7875 -3.6726
  616SOL     OW 1846   1.097   1.651   2.170 -0.1303  0.1965  0.2021
  616SOL    HW1 1847   0.997   1.629   2.184 -1.3365  1.9577  1.1663
  616SOL    HW2 1848   1.139   1.600   2.093  1.2259 -1.1338 -0.8818
  617SOL     OW 1849   2.930   1.565   1.598  0.6128 -0.3464 -0.0745
  617SOL    HW1 1850   2.861   1.506   1.645 -0.7518  2.0023 -0.3430
  617SOL    HW2 1851   2.965   1.519   1.511  1.3511  0.4642 -0.8901
  618SOL     OW 1852   1.873   2.025   1.530 -0.2100  0.0688 -0.3881
  618SOL    HW1 1853   1.931   1.982   1.455 -1.0106  0.6845 -0.3479
  618SOL    HW2 1854   1.830   1.955   1.592  0.1705 -0.2953  4.0409
  619SOL     OW 1855   1.794   0.514   2.420 -0.0122  0.2753  0.6277
  619SOL    HW1 1856   1.740   0.577   2.351  0.7880 -0.0384 -1.0227
  619SOL    HW2 1857   1.763   0.412   2.420  0.7288  0.7909 -1.1127
  620SOL     OW 1858   2.237   2.842   0.692  0.2808  0.5032 -0.1784
  620SOL    HW1 1859   2.136   2.871   0.690  1.4866  1.0612  1.6287
  620SOL    HW2 1860   2.275   2.836   0.788 -1.6764  0.9852 -2.1298
  621SOL     OW 1861   2.125   1.927   1.339 -0.2719 -0.3384  0.0414
  621SOL    HW1 1862   2.132   1.921   1.439 -1.2158  0.7691 -0.0560
  621SOL    HW2 1863   2.133   1.840   1.283  3.1864 -2.5355 -2.0808
  622SOL     OW 1864   2.183   0.926   1.744 -0.1593 -0.3838  0.1257
  622SOL    HW1 1865   2.180   0.838   1.700 -1.8315  3.4653 -3.2336
  622SOL    HW2 1866   2.142   0.934   1.840 -0.3597  0.7703  1.1043
  623SOL     OW 1867   1.274   0.873   2.543 -0.7337 -0.7985 -0.0131
  623SOL    HW1 1868   1.266   0.793   2.612  0.9935 -1.6834  0.3338
  623SOL    HW2 1869   1.204   0.856   2.465  0.5653 -0.6689  0.0709
  624SOL     OW 1870   0.529   0.625   3.073 -0.5225 -0.7027 -0.6078
  624SOL    HW1 1871   0.557   0.680   2.983  0.9812 -3.0165 -0.2099
  624SOL    HW2 1872   0.510   0.697   3.155 -0.0310 -0.7054 -0.2330
  625SOL     OW 1873   2.825   1.797   0.816 -0.1017  0.2485 -0.0092
  625SOL    HW1 1874   2.803   1.845   0.907  0.9402 -0.6769  0.4221
  625SOL    HW2 1875   2.749   1.748   0.764 -0.2865  1.1825 -0.7926
  626SOL     OW 1876   0.452   2.834   2.002 -0.4346  0.4270 -0.7567
  626SOL    HW1 1877   0.526   2.906   1.994 -0.9575 -0.5863 -0.8978
  626SOL    HW2 1878   0.369   2.847   1.944  0.8076 -2.7643 -2.3133
  627SOL     OW 1879   0.700   0.943   1.584 -0.2086 -0.5071  0.6178
  627SOL    HW1 1880   0.735   0.858   1.628 -1.4579  0.0789  0.9984
  627SOL    HW2 1881   0.777   0.997   1.532 -0.5610 -1.5796  3.6270
  628SOL     OW 1882   2.435   0.116   0.649 -0.1176 -0.4262 -0.4571
  628SOL    HW1 1883   2.473   0.026   0.606 -0.5205 -1.5745  1.5529
  628SOL    HW2 1884   2.351   0.090   0.705  0.5868  2.6802  2.2038
  629SOL     OW 1885   2.024   0.942   1.959 -0.3505 -0.1719 -0.2349
  629SOL    HW1 1886   2.092   0.957   2.039  2.9004  1.1690  1.0951
  629SOL    HW2 1887   1.957   1.023   1.950  0.6572 -0.8159 -1.1505
  630SOL     OW 1888   2.844   2.254   0.810 -0.4437 -0.2857  0.4625
  630SOL    HW1 1889   2.762   2.293   0.873 -1.0908  1.1193  1.4452
  630SOL    HW2 1890   2.815   2.166   0.760 -0.2131 -2.5922 -0.9896
  631SOL     OW 1891   3.052   0.217   2.158 -0.1743  0.4256  0.8412
  631SOL    HW1 1892   3.075   0.248   2.254  1.9262  0.9843  0.8635
  631SOL    HW2 1893   3.109   0.266   2.086  0.8747  1.7257 -2.1128
  632SOL     OW 1894   2.420   2.529   0.710  0.1216  0.3515 -0.9444
  632SOL    HW1 1895   2.490   2.587   0.755 -0.7476  1.8024  1.1351
  632SOL    HW2 1896   2.404   2.543   0.607  0.6309  0.8148  0.9528
  633SOL     OW 1897   1.575   1.244   2.717  0.6208  0.5829 -0.0538
  633SOL    HW1 1898   1.553   1.319   2.782  1.2346 -1.2430  1.0416
  633SOL    HW2 1899   1.501   1.218   2.652  2.1994  0.9875 -1.2362
  634SOL     OW 1900   0.710   2.062   0.881  0.6598 -0.2387  0.1274
  634SOL    HW1 1901   0.621   2.062   0.929 -0.6144 -0.5607  0.8115
  634SOL    HW2 1902   0.759   2.153   0.886 -0.6598 -2.5667  1.3682
  635SOL     OW 1903   3.053   2.255   3.056 -0.4786 -0.0995  0.2349
  635SOL    HW1 1904   2.990   2.321   3.003 -0.2706  2.8404 -2.0089
  635SOL    HW2 1905   3.099   2.301   3.137  1.0306  1.5235  0.3742
  636SOL     OW 1906   2.322   2.820   1.964 -0.0885 -0.1023  0.1345
  636SOL    HW1 1907   2.319   2.925   1.962  2.2978 -0.5318 -0.0291
  636SOL    HW2 1908   2.294   2.795   2.059 -0.2146  0.9282  0.8577
  637SOL     OW 1909   2.550   0.726   2.086 -0.5292 -0.3913  0.0572
  637SOL    HW1 1910   2.524   0.702   1.988  0.2011 -0.0701  1.0567
  637SOL    HW2 1911   2.608   0.815   2.085  0.1211  0.0161 -0.6863
  638SOL     OW 1912   2.417   1.902   1.365  0.0870 -0.6277  0.1494
  638SOL    HW1 1913   2.313   1.904   1.351 -0.1203 -0.1941  0.2230
  638SOL    HW2 1914   2.460   1.841   1.295 -1.8962  4.7220  1.4328
  639SOL     OW 1915   1.261   2.237   1.629 -0.2335 -0.3480  0.0380
  639SOL    HW1 1916   1.250   2.183   1.538 -0.5042 -2.1291 -1.8036
  639SOL    HW2 1917   1.208   2.193   1.708 -1.9696  0.7020  0.1302
  640SOL     OW 1918   0.234   1.135   1.541 -0.4693 -0.4285 -0.3753
  640SOL    HW1 1919   0.225   1.192   1.629  0.2824  1.1756  0.8056
  640SOL    HW2 1920   0.328   1.098   1.527 -0.9995 -2.4958 -0.1684
  641SOL     OW 1921   1.873   0.312   1.421 -0.3300 -0.3288 -0.2086
  641SOL    HW1 1922   1.831   0.395   1.470 -0.7916  1.2066 -0.5693
  641SOL    HW2 1923   1.822   0.226   1.426  3.0112  1.4701 -1.3006
  642SOL     OW 1924   1.988   0.085   0.330  0.2004 -0.2480  0.2945
  642SOL    HW1 1925   2.093   0.067   0.327 -0.0465 -1.7174 -1.0003
  642SOL    HW2 1926   1.959   0.121   0.421  1.5423  0.5343 -2.0925
  643SOL     OW 1927   2.878   1.888   2.091  0.7680  0.0643 -0.4816
  643SOL    HW1 1928   2.817   1.817   2.047  0.8206  2.1131 -2.7429
  643SOL    HW2 1929   2.910   1.960   2.024  0.0535 -0.4642 -2.2248
  644SOL     OW 1930   2.201   2.277   1.140 -0.2088  0.7980 -0.4516
  644SOL    HW1 1931   2.279   2.204   1.132  1.3611  0.0454  1.3479
  644SOL    HW2 1932   2.182   2.292   1.243  0.9119 -1.4178  1.5327
  645SOL     OW 1933   0.634   0.904   1.144 -0.3127  0.8951  0.4761
  645SOL    HW1 1934   0.553   0.843   1.175 -0.8804 -0.0180  1.1771
  645SOL    HW2 1935   0.616   0.983   1.076 -1.9634 -1.9967 -2.0382
  646SOL     OW 1936   1.448   1.926   1.794 -0.3610 -0.5691  0.1604
  646SOL    HW1 1937   1.530   1.986   1.775 -0.8433  3.7507  2.4853
  646SOL    HW2 1938   1.402   1.960   1.885  2.9199  1.5910  1.7556
  647SOL     OW 1939   0.874   0.866   0.664 -0.0078  0.7838 -0.4237
  647SOL    HW1 1940   0.935   0.851   0.743  0.1667  1.3967  0.0161
  647SOL    HW2 1941   0.772   0.874   0.688  1.6461 -1.7276  2.8125
  648SOL     OW 1942   0.064   0.217   0.341  0.3050  0.4461 -0.4561
  648SOL    HW1 1943   0.055   0.125   0.293 -0.7582 -1.8327 -1.6739
  648SOL    HW2 1944   0.025   0.295   0.286 -0.9594 -2.5947  0.8990
  649SOL     OW 1945   3.089   0.050   0.975 -1.2328  0.1205 -0.5515
  649SOL    HW1 1946   3.168  -0.020   0.975 -0.1253 -2.0401 -0.4199
  649SOL    HW2 1947   3.117   0.129   1.039 -0.0013  1.5173 -1.2206
  650SOL     OW 1948   2.686   0.702   1.462 -0.5823  0.1500 -0.0049
  650SOL    HW1 1949   2.587   0.669   1.488 -1.9894 -1.5859  0.1736
  650SOL    HW2 1950   2.693   0.784   1.396 -0.3557  0.2950 -0.1326
  651SOL     OW 1951   0.909   1.539   1.471 -0.3577 -0.4011  0.5780
  651SOL    HW1 1952   0.932   1.616   1.535 -4.1231  1.2875 -2.1641
  651SOL    HW2 1953   0.804   1.544   1.452 -0.1616 -0.3568 -0.2967
  652SOL     OW 1954   2.202   2.556   2.369 -0.3087 -0.3911 -0.0057
  652SOL    HW1 1955   2.131   2.522   2.445 -1.0291 -0.5345  1.4814
  652SOL    HW2 1956   2.174   2.640   2.315  1.4239  3.9542 -0.7321
  653SOL     OW 1957   2.762   1.134   0.212  0.6834  0.8462 -0.1798
  653SOL    HW1 1958   2.835   1.152   0.145 -1.7912  1.3616 -0.2524
  653SOL    HW2 1959   2.796   1.056   0.279  1.3886 -2.6633  2.7654
  654SOL     OW 1960   1.219   2.236   1.234 -0.0845  0.1620 -0.7003
  654SOL    HW1 1961   1.216   2.179   1.323  3.9514  0.5742 -0.5832
  654SOL    HW2 1962   1.300   2.216   1.172  1.2372 -0.7143  0.7250
  655SOL     OW 1963   0.211   1.037   1.915 -0.5246 -0.2563 -0.2311
  655SOL    HW1 1964   0.251   0.957   1.864  0.4593  0.6663 -1.1675
  655SOL    HW2 1965   0.275   1.125   1.923  1.1827  3.5428 -0.3016
  656SOL     OW 1966   2.439   2.479   2.536 -0.0911 -0.0758  0.1925
  656SOL    HW1 1967   2.536   2.485   2.495  0.4157  3.3882 -1.8360
  656SOL    HW2 1968   2.373   2.539   2.479  1.6802  0.5469 -0.4152
  657SOL     OW 1969   3.040   1.086   1.822  0.0038 -0.2767 -0.7780
  657SOL    HW1 1970   3.031   1.186   1.806 -0.6531 -0.0641  0.7824
  657SOL    HW2 1971   3.126   1.068   1.878  0.7624  0.5056  1.2891
  658SOL     OW 1972   1.735   0.241   2.390 -0.2229 -0.6215  0.0336
  658SOL    HW1 1973   1.740   0.174   2.462  2.1225  0.9148 -3.2726
  658SOL    HW2 1974   1.767   0.204   2.293  0.1412 -3.6745 -1.3804
  659SOL     OW 1975   1.436   0.617   2.810  0.0377 -0.4042  0.1737
  659SOL    HW1 1976   1.531   0.651   2.789 -1.8240  0.6534 -1.3392
  659SOL    HW2 1977   1.362   0.686   2.799  1.0479  0.0303  1.5092
  660SOL     OW 1978   1.375   0.388   1.411  0.5671 -0.3518 -0.4802
  660SOL    HW1 1979   1.425   0.411   1.502  1.6422  1.5358  2.9710
  660SOL    HW2 1980   1.435   0.329   1.346  0.0932 -0.3732  0.0258
  661SOL     OW 1981   2.428   1.120   0.621  0.5154 -0.3421 -0.6996
  661SOL    HW1 1982   2.485   1.049   0.568 -0.0955  0.1056 -1.0024
  661SOL    HW2 1983   2.360   1.166   0.559  0.7073 -0.4123  1.0797
  662SOL     OW 1984   1.323   0.458   1.887  0.6193 -0.0548  0.4231
  662SOL    HW1 1985   1.276   0.372   1.863  1.0645  0.7855 -0.6327
  662SOL    HW2 1986   1.291   0.510   1.965 -0.0435 -1.7369  0.2873
  663SOL     OW 1987   0.818   1.573   2.200 -0.0381  0.2917 -0.2542
  663SOL    HW1 1988   0.744   1.652   2.222 -1.2813  3.1534  0.5062
  663SOL    HW2 1989   0.805   1.543   2.101  0.7425 -1.4605 -1.2563
  664SOL     OW 1990   1.600   2.083   1.428  0.1464 -0.5657  0.1791
  664SOL    HW1 1991   1.516   2.026   1.447 -0.1014 -1.8207  1.6319
  664SOL    HW2 1992   1.680   2.065   1.491 -0.8055  2.2777 -2.3657
  665SOL     OW 1993   2.179   0.637   2.001 -0.2423  0.2522 -0.2992
  665SOL    HW1 1994   2.213   0.560   2.060 -1.2257  2.4146  2.3003
  665SOL    HW2 1995   2.078   0.653   2.014 -1.2786 -1.4208  1.1819
  666SOL     OW 1996   0.566   2.254   0.423 -0.2431  0.4991 -0.5509
  666SOL    HW1 1997   0.599   2.349   0.444 -2.1020  0.5268  2.4441
  666SOL    HW2 1998   0.511   2.221   0.505 -0.7746  0.2895 -3.5446
  667SOL     OW 1999   2.096   0.221   1.035  0.4241  0.2904  0.3592
  667SOL    HW1 2000   2.175   0.287   1.007 -0.2943  1.2719  2.8294
  667SOL    HW2 2001   2.024   0.261   1.095 -0.8940  0.7261  0.1826
  668SOL     OW 2002   2.036   0.565   1.254  0.6512 -0.7574 -0.1222
  668SOL    HW1 2003   2.086   0.511   1.178  2.3024 -0.0434  2.4811
  668SOL    HW2 2004   2.054   0.529   1.350  0.4252 -0.9551  1.1416
  669SOL     OW 2005   3.065   2.278   0.969  1.4411 -0.0979 -0.1797
  669SOL    HW1 2006   2.998   2.287   0.887  0.3334 -0.7155 -1.2534
  669SOL    HW2 2007   3.020   2.235   1.060  4.1481 -1.4368  1.3994
  670SOL     OW 2008   2.816   2.397   2.004  0.3536  0.3242 -0.3300
  670SOL    HW1 2009   2.763   2.388   2.095  0.8252  1.9466 -0.0592
  670SOL    HW2 2010   2.774   2.468   1.941  2.5718  1.1256 -1.5976
  671SOL     OW 2011   1.642   1.752   1.454 -0.1497 -0.2833  0.1637
  671SOL    HW1 2012   1.670   1.738   1.354 -2.0267 -1.0118 -1.4914
  671SOL    HW2 2013   1.554   1.800   1.463 -0.9753  2.7546 -0.6770
  672SOL     OW 2014   0.422   0.706   2.450  0.0870  0.6949  0.2555
  672SOL    HW1 2015   0.417   0.696   2.346 -0.9027  1.2700 -0.2872
  672SOL    HW2 2016   0.333   0.754   2.489 -1.4864  2.1053 -0.3306
  673SOL     OW 2017   0.135   1.217   1.138  0.3881 -0.6059  0.1025
  673SOL    HW1 2018   0.159   1.259   1.229  0.4340  1.0427 -3.9082
  673SOL    HW2 2019   0.221   1.178   1.092  0.1090  0.4651 -0.8346
  674SOL     OW 2020   1.608   2.947   0.113  0.1662  0.2270 -0.3194
  674SOL    HW1 2021   1.600   3.046   0.112 -1.1394 -0.4808  0.4286
  674SOL    HW2 2022   1.681   2.910   0.047 -0.3722 -0.3464  0.6185
  675SOL     OW 2023   1.716   0.879   2.324 -1.0301  0.5877 -0.2966
  675SOL    HW1 2024   1.818   0.863   2.323 -1.3174  0.7040  0.2823
  675SOL    HW2 2025   1.662   0.795   2.305  1.8905  1.2608  0.8135
  676SOL     OW 2026   2.528   1.512   1.961  0.1256  0.0004 -0.3484
  676SOL    HW1 2027   2.486   1.461   1.880 -1.7574  3.2532  1.0296
  676SOL    HW2 2028   2.547   1.444   2.038 -1.7828 -1.7998  0.0098
  677SOL     OW 2029   1.922   0.530   0.953 -0.1297 -0.2854  0.2233
  677SOL    HW1 2030   1.960   0.623   0.959  1.3646 -0.5417  0.9817
  677SOL    HW2 2031   1.925   0.485   1.043 -0.7213  0.9409 -4.0748
  678SOL     OW 2032   0.085   0.727   1.721 -0.0502  0.5419  0.2629
  678SOL    HW1 2033   0.184   0.765   1.721  0.8876 -1.9319 -0.9396
  678SOL    HW2 2034   0.015   0.783   1.780  0.7028  2.4165  0.5627
  679SOL     OW 2035   2.513   1.121   1.136  0.0860  0.2513  0.0775
  679SOL    HW1 2036   2.419   1.157   1.137  2.0991  2.5561 -0.6598
  679SOL    HW2 2037   2.525   1.030   1.086 -0.0398 -0.2327 -1.4363
  680SOL     OW 2038   2.817   0.648   1.705 -0.8629  0.1541  0.3080
  680SOL    HW1 2039   2.783   0.700   1.622 -1.7148 -1.0043 -1.6267
  680SOL    HW2 2040   2.867   0.701   1.779  0.7562 -1.8513 -1.7042
  681SOL     OW 2041   3.091   0.188   1.671  0.2976 -0.3467  0.1329
  681SOL    HW1 2042   3.147   0.170   1.586  0.1706  0.2297 -1.1180
  681SOL    HW2 2043   3.027   0.273   1.661 -0.3838  0.1246  1.6938
  682SOL     OW 2044   0.740   3.067   1.386 -0.0027  0.0371  0.5436
  682SOL    HW1 2045   0.661   3.010   1.431  1.3274  0.6274 -2.0536
  682SOL    HW2 2046   0.749   3.037   1.286  0.8964 -0.6048  2.7979
  683SOL     OW 2047   1.385   0.229   2.211 -0.0671 -0.1284  0.5679
  683SOL    HW1 2048   1.395   0.271   2.305  0.7075 -3.6458 -1.0376
  683SOL    HW2 2049   1.452   0.265   2.144 -3.3740  3.2119  0.5491
  684SOL     OW 2050   1.464   2.123   0.478  0.3184  0.0148 -0.0969
  684SOL    HW1 2051   1.516   2.049   0.531 -0.8762 -0.8240  0.0645
  684SOL    HW2 2052   1.375   2.082   0.443 -0.6969  0.9097  0.7651
  685SOL     OW 2053   2.129   1.948   1.988 -0.0826  0.2864 -0.5640
  685SOL    HW1 2054   2.178   2.003   1.913 -0.7665  0.3361 -2.1530
  685SOL    HW2 2055   2.183   1.869   2.026 -0.7406 -1.3723 -1.6584
  686SOL     OW 2056   1.502   1.736   2.719 -0.0839 -0.3017  0.3916
  686SOL    HW1 2057   1.537   1.651   2.675  3.7241  0.9060 -1.9812
  686SOL    HW2 2058   1.522   1.734   2.824 -1.4826 -0.0191  3.6996
  687SOL     OW 2059   1.359   2.492   1.944  0.2674 -0.1363  0.4344
  687SOL    HW1 2060   1.409   2.420   1.891  0.2919 -0.0684 -3.0999
  687SOL    HW2 2061   1.393   2.488   2.042 -3.1413 -0.0869  0.1757
  688SOL     OW 2062   2.041   1.503   1.542 -0.8031  0.0837  0.5409
  688SOL    HW1 2063   2.129   1.559   1.524 -1.1607  1.4027 -0.5655
  688SOL    HW2 2064   1.972   1.497   1.464  0.6361 -0.1115  0.2198
  689SOL     OW 2065   2.456   1.073   2.786 -0.1453 -0.1012  0.0638
  689SOL    HW1 2066   2.367   1.035   2.815 -1.4767  0.0425  0.8286
  689SOL    HW2 2067   2.537   1.035   2.845  1.0213 -3.0215  3.9461
  690SOL     OW 2068   2.233   2.777   3.053  0.3053 -0.8006  0.0427
  690SOL    HW1 2069   2.144   2.732   3.043  2.5907  1.3021  0.6353
  690SOL    HW2 2070   2.223   2.846   3.130  0.8279  0.4788  0.9462
  691SOL     OW 2071   2.609   0.488   2.179 -0.0501  0.1140  0.1377
  691SOL    HW1 2072   2.671   0.440   2.112 -1.4243  1.0961  0.0771
  691SOL    HW2 2073   2.599   0.593   2.160  0.0725 -0.0900 -0.0892
  692SOL     OW 2074   2.711   1.149   0.695  0.0883 -0.6730 -0.1611
  692SOL    HW1 2075   2.617   1.148   0.660 -1.8032  0.1037  0.6914
  692SOL    HW2 2076   2.710   1.181   0.795  0.0614  1.1994 -0.9114
  693SOL     OW 2077   2.828   2.929   0.612  0.1082  0.3579 -0.0190
  693SOL    HW1 2078   2.822   2.989   0.698 -1.2695  0.0799 -1.2102
  693SOL    HW2 2079   2.769   2.956   0.533  0.0997 -0.4820 -2.0654
  694SOL     OW 2080   2.410   2.204   0.081 -0.3024  0.1488  0.5121
  694SOL    HW1 2081   2.387   2.292   0.133  1.4816 -2.4093 -1.9341
  694SOL    HW2 2082   2.333   2.152   0.037 -1.2174 -0.2187 -0.4710
  695SOL     OW 2083   0.549   2.948   1.542  0.3523  0.2423  0.6043
  695SOL    HW1 2084   0.489   2.865   1.530  0.1114  2.5285 -2.1978
  695SOL    HW2 2085   0.509   3.019   1.607  0.1490  1.6882  2.6841
  696SOL     OW 2086   2.732   2.011   0.698  0.6725  0.1057  0.0054
  696SOL    HW1 2087   2.781   1.921   0.713 -3.2919 -0.1258 -0.7618
  696SOL    HW2 2088   2.682   2.005   0.608  0.0605 -1.7388 -0.3451
  697SOL     OW 2089   1.702   2.086   1.781  0.5274  0.3762  0.8643
  697SOL    HW1 2090   1.743   1.998   1.823 -0.0217 -0.7387  0.8768
  697SOL    HW2 2091   1.743   2.174   1.813  0.8043  0.4423  0.1460
  698SOL     OW 2092   2.906   0.363   2.821  0.3559 -0.1995 -0.1907
  698SOL    HW1 2093   2.899   0.346   2.720 -1.2326 -1.2649 -1.8432
  698SOL    HW2 2094   3.002   0.343   2.851 -1.2316  2.0861  1.0163
  699SOL     OW 2095   1.514   0.103   2.940 -0.2962 -0.7351 -0.1733
  699SOL    HW1 2096   1.463   0.019   2.904 -2.7038 -1.2240 -0.3943
  699SOL    HW2 2097   1.587   0.142   2.880 -1.6114  1.3332  0.0951
  700SOL     OW 2098   0.964   2.462   1.371 -0.5392  0.0300 -0.5682
  700SOL    HW1 2099   1.060   2.483   1.340  1.6910 -0.7501 -0.8486
  700SOL    HW2 2100   0.898   2.418   1.300 -1.1607 -2.7712  1.9295
  701SOL     OW 2101   1.832   2.871   3.065 -0.0211 -0.4260 -0.3932
  701SOL    HW1 2102   1.872   2.810   3.139 -0.0989  0.8918  2.5310
  701SOL    HW2 2103   1.882   2.963   3.060 -1.5598 -0.0090 -1.0279
  702SOL     OW 2104   2.115   1.370   1.815 -0.2379  0.1564 -0.2211
  702SOL    HW1 2105   2.189   1.303   1.801  1.0859  0.2091 -1.3093
  702SOL    HW2 2106   2.086   1.407   1.723  0.4467  1.0510  2.1881
  703SOL     OW 2107   2.006   0.882   1.461 -0.2992 -0.0568 -0.1796
  703SOL    HW1 2108   1.975   0.821   1.537  1.7539 -1.2229  0.3886
  703SOL    HW2 2109   2.013   0.983   1.485 -0.2720 -0.9374 -2.6003
  704SOL     OW 2110   0.343   2.033   1.733  0.1357  0.4193 -0.5090
  704SOL    HW1 2111   0.391   1.971   1.808  1.9872  0.0270  1.3933
  704SOL    HW2 2112   0.392   2.127   1.733 -0.5848 -1.0701 -0.1317
  705SOL     OW 2113   2.510   1.461   0.876 -0.1985 -0.0829  0.3643
  705SOL    HW1 2114   2.432   1.410   0.922 -2.0577  2.3547 -0.2973
  705SOL    HW2 2115   2.608   1.417   0.873 -0.9954 -0.2149  0.0563
  706SOL     OW 2116   0.649   1.737   1.869 -0.3588 -0.4603 -0.2961
  706SOL    HW1 2117   0.664   1.637   1.895  0.5685  0.5952 -1.2159
  706SOL    HW2 2118   0.726   1.796   1.909 -0.1248  1.1456  2.1452
  707SOL     OW 2119   2.336   1.190   1.755 -1.1113 -0.3991  0.3692
  707SOL    HW1 2120   2.420   1.182   1.818 -0.3039 -0.1076  2.4298
  707SOL    HW2 2121   2.313   1.098   1.706 -1.1250 -1.7627 -1.5042
  708SOL     OW 2122   3.013   0.536   3.046  0.1897  0.5063 -0.1784
  708SOL    HW1 2123   3.027   0.585   2.954  0.4060 -3.6386 -0.3050
  708SOL    HW2 2124   3.051   0.443   3.035  0.4350  4.4240 -1.4039
  709SOL     OW 2125   1.748   1.877   0.197 -0.2822  0.2157  0.2138
  709SOL    HW1 2126   1.780   1.978   0.213 -0.0519  2.6151 -2.0614
  709SOL    HW2 2127   1.759   1.853   0.097  1.5332  0.6381  1.9456
  710SOL     OW 2128   1.742   1.639   2.484 -0.3201 -0.3307 -0.4485
  710SOL    HW1 2129   1.788   1.628   2.397  0.1207 -1.8485  0.7604
  710SOL    HW2 2130   1.774   1.581   2.564 -0.8525 -1.4808 -1.3095
  711SOL     OW 2131   2.651   2.872   0.943  0.8926  0.5294 -0.0370
  711SOL    HW1 2132   2.658   2.975   0.942 -0.7442  2.2117 -2.1073
  711SOL    HW2 2133   2.741   2.825   0.957  1.3462  0.8256 -0.7377
  712SOL     OW 2134   1.485   2.283   1.828 -0.1769  0.2417  0.7337
  712SOL    HW1 2135   1.556   2.208   1.817  0.7329  0.9624  1.7355
  712SOL    HW2 2136   1.398   2.270   1.772 -2.9632 -3.3802  2.0758
  713SOL     OW 2137   2.877   1.274   2.470  0.3349  0.1418 -0.7279
  713SOL    HW1 2138   2.866   1.180   2.427 -0.6401 -1.9151 -3.3518
  713SOL    HW2 2139   2.818   1.285   2.552  0.6665 -0.7945 -0.3192
  714SOL     OW 2140   2.662   0.442   2.439  0.3304  0.0941  0.3312
  714SOL    HW1 2141   2.586   0.387   2.481  1.6913 -0.2576  0.7882
  714SOL    HW2 2142   2.642   0.471   2.340  1.0195 -1.2857  0.7954
  715SOL     OW 2143   1.611   2.096   1.150 -0.2208 -0.8121  0.2504
  715SOL    HW1 2144   1.540   2.154   1.098 -0.5245  0.4570  1.1533
  715SOL    HW2 2145   1.609   2.127   1.251  0.0435  1.4796  2.2341
  716SOL     OW 2146   1.168   0.159   1.457  0.4452  0.7525 -0.2094
  716SOL    HW1 2147   1.072   0.184   1.434  1.1214 -1.9389  1.2808
  716SOL    HW2 2148   1.238   0.231   1.436 -1.5040 -0.3819  2.4126
  717SOL     OW 2149   1.094   0.535   1.598 -0.0155  0.1443  0.0968
  717SOL    HW1 2150   1.198   0.544   1.613 -0.4077  0.9259  0.1284
  717SOL    HW2 2151   1.075   0.515   1.496  0.7018 -1.2986 -2.1222
  718SOL     OW 2152   0.607   1.173   1.020  0.0648  0.5596 -0.0124
  718SOL    HW1 2153   0.631   1.218   0.929  1.1620  0.6312  0.6734
  718SOL    HW2 2154   0.648   1.223   1.102 -1.0319 -1.4654  0.5130
  719SOL     OW 2155   0.706   1.814   2.240  0.0704 -0.5277  0.1598
  719SOL    HW1 2156   0.770   1.850   2.318  1.3734 -1.4301  2.7269
  719SOL    HW2 2157   0.607   1.827   2.258  2.7319 -0.0314  2.7341
  720SOL     OW 2158   2.301   1.155   0.266 -0.2679  0.5124  0.5717
  720SOL    HW1 2159   2.381   1.087   0.275  0.3143  3.5885 -0.0935
  720SOL    HW2 2160   2.294   1.208   0.355 -1.3021  0.5650 -2.0092
  721SOL     OW 2161   2.308   3.076   2.053 -0.4852  0.2128  0.1199
  721SOL    HW1 2162   2.321   3.169   2.012 -0.7730 -0.3291 -0.9714
  721SOL    HW2 2163   2.213   3.053   2.087  1.5330  0.5852  0.5559
  722SOL     OW 2164   2.444   1.714   0.508 -0.2654  0.3172 -0.1302
  722SOL    HW1 2165   2.434   1.641   0.435  0.7619 -1.7669 -1.8113
  722SOL    HW2 2166   2.352   1.745   0.548 -0.9189  0.1238  0.5079
  723SOL     OW 2167   2.599   2.856   1.881 -0.3441 -0.4674 -0.1093
  723SOL    HW1 2168   2.626   2.918   1.957 -0.2192 -0.0216 -1.4063
  723SOL    HW2 2169   2.517   2.793   1.903 -2.1178 -0.8990 -1.3309
  724SOL     OW 2170   0.309   2.380   2.351 -0.4981  0.4782 -0.8840
  724SOL    HW1 2171   0.217   2.424   2.342  2.0921 -0.7378  1.1089
  724SOL    HW2 2172   0.363   2.417   2.428 -0.5238  0.7997 -0.9673
  725SOL     OW 2173   2.358   2.791   1.486  0.4765  0.1638  0.4219
  725SOL    HW1 2174   2.423   2.792   1.406  1.0697 -1.1363 -2.7923
  725SOL    HW2 2175   2.282   2.718   1.490 -3.7742 -2.6315  1.1687
  726SOL     OW 2176   2.381   2.275   0.707  0.0644  0.2999 -0.7578
  726SOL    HW1 2177   2.398   2.377   0.707  1.8871 -2.5427  0.5710
  726SOL    HW2 2178   2.340   2.237   0.616  1.1143  1.5211 -0.8988
  727SOL     OW 2179   0.236  -0.002   0.115 -0.1863 -0.3439  0.0239
  727SOL    HW1 2180   0.319  -0.062   0.122  0.0278  0.0323 -1.5827
  727SOL    HW2 2181   0.261   0.097   0.091  1.7598 -0.9806  1.6030
  728SOL     OW 2182   2.802   0.666   1.047 -0.1908  0.1287 -0.7446
  728SOL    HW1 2183   2.737   0.630   0.976  0.2470  2.3722  1.1501
  728SOL    HW2 2184   2.782   0.618   1.137  1.6884  1.6493  0.6565
  729SOL     OW 2185   2.987   2.460   0.731  0.1107  0.6094  0.4275
  729SOL    HW1 2186   2.918   2.382   0.718  1.1927  0.7432  1.4027
  729SOL    HW2 2187   3.086   2.436   0.718  2.9337  0.2426 -2.0373
  730SOL     OW 2188   2.625   0.587   0.853 -0.3096 -0.1923  0.6074
  730SOL    HW1 2189   2.573   0.671   0.824  0.3336 -1.1243  0.5380
  730SOL    HW2 2190   2.701   0.553   0.788  2.9900  0.4292  1.4068
  731SOL     OW 2191   0.202   2.167   2.488  0.0451 -0.7815  0.4554
  731SOL    HW1 2192   0.229   2.176   2.583 -2.3875 -0.8995 -3.3145
  731SOL    HW2 2193   0.254   2.236   2.430 -0.7933  2.2781 -0.1407
  732SOL     OW 2194   1.120   2.835   2.024  0.2922 -1.0992 -0.5213
  732SOL    HW1 2195   1.171   2.766   2.086 -0.0587 -0.1266 -1.1559
  732SOL    HW2 2196   1.111   2.792   1.930 -0.6226 -1.3836  0.5018
  733SOL     OW 2197   3.026   0.713   2.118  0.2715  0.2914  0.3814
  733SOL    HW1 2198   3.124   0.751   2.118  0.4076  0.8145 -1.4585
  733SOL    HW2 2199   3.020   0.635   2.046 -0.2264 -0.5334 -0.5945
  734SOL     OW 2200   1.381   0.353   2.694 -0.0134 -0.0856  0.1771
  734SOL    HW1 2201   1.395   0.456   2.717  2.0532  0.4972 -0.4301
  734SOL    HW2 2202   1.289   0.321   2.718 -1.7648 -1.6724 -1.5283
  735SOL     OW 2203   2.812   2.675   2.306  0.3236  0.2477  0.1360
  735SOL    HW1 2204   2.727   2.639   2.261 -1.0030  0.0905 -2.1736
  735SOL    HW2 2205   2.902   2.671   2.251  1.2243 -1.1247 -0.2682
  736SOL     OW 2206   0.796   0.353   2.569 -0.3652 -0.0749  0.0889
  736SOL    HW1 2207   0.714   0.417   2.540 -1.2544 -1.3075  0.0884
  736SOL    HW2 2208   0.838   0.298   2.492 -2.6885 -1.1739  0.5695
  737SOL     OW 2209   2.648   0.411   2.902 -0.1712  0.2307 -0.5690
  737SOL    HW1 2210   2.606   0.398   3.001  0.4426 -1.5555  0.6658
  737SOL    HW2 2211   2.752   0.384   2.897  1.2128 -0.6429 -0.9088
  738SOL     OW 2212   1.665   1.106   0.037  0.1533 -0.2776 -0.2226
  738SOL    HW1 2213   1.747   1.094  -0.024  0.1743  1.1628 -3.3640
  738SOL    HW2 2214   1.620   1.015   0.051  0.3992 -3.2438  1.0584
  739SOL     OW 2215   1.822   0.561   0.692 -0.0617  0.3736 -0.2773
  739SOL    HW1 2216   1.861   0.557   0.789 -2.0496 -1.3545 -0.6659
  739SOL    HW2 2217   1.876   0.497   0.638  0.0781 -0.2211  2.7770
  740SOL     OW 2218   1.926   2.063   2.164  0.7232 -0.1268 -0.0541
  740SOL    HW1 2219   2.003   2.030   2.107 -1.8686  0.7052 -0.1153
  740SOL    HW2 2220   1.834   2.053   2.116  0.3644  0.1784  1.3244
  741SOL     OW 2221   2.561   0.019   2.558  0.0354 -0.0658 -0.2159
  741SOL    HW1 2222   2.664   0.035   2.567 -0.9087 -0.6417  0.1063
  741SOL    HW2 2223   2.534  -0.003   2.464  1.8643  0.7104 -1.3095
  742SOL     OW 2224   2.258   1.404   0.110 -0.0035 -0.1116  0.7959
  742SOL    HW1 2225   2.169   1.459   0.097 -0.6275 -3.4340 -0.8211
  742SOL    HW2 2226   2.237   1.303   0.134 -2.7013 -0.5784  0.5587
  743SOL     OW 2227   1.728   0.648   2.654 -0.3402 -0.1274 -0.0193
  743SOL    HW1 2228   1.739   0.587   2.566 -0.1584 -0.0001 -2.9216
  743SOL    HW2 2229   1.666   0.727   2.635 -0.6130  0.6930 -2.9487
  744SOL     OW 2230   2.680   2.143   0.163  0.0784  0.1040  0.5699
  744SOL    HW1 2231   2.578   2.141   0.139 -4.7287  1.3175  0.5730
  744SOL    HW2 2232   2.715   2.044   0.164  0.3681 -1.4530  2.3158
  745SOL     OW 2233   2.193   2.754   2.198 -0.0306  0.1294  0.2499
  745SOL    HW1 2234   2.110   2.733   2.143 -1.7272  0.6394 -2.8130
  745SOL    HW2 2235   2.173   2.820   2.279 -0.5846  2.1443 -2.0074
  746SOL     OW 2236   0.002   2.633   1.807  0.5420  0.1855  0.0869
  746SOL    HW1 2237   0.085   2.630   1.738  0.8731  0.6817 -0.5292
  746SOL    HW2 2238  -0.037   2.734   1.816 -0.9058 -1.2303  1.1627
  747SOL     OW 2239   3.078   1.773   1.671  0.2266  0.3792 -0.5064
  747SOL    HW1 2240   3.035   1.679   1.647 -1.8681  0.5721 -0.7772
  747SOL    HW2 2241   3.139   1.804   1.596 -2.8784  0.3577 -0.6790
  748SOL     OW 2242   1.783   2.749   2.826  0.3555  0.5328  0.0578
  748SOL    HW1 2243   1.800   2.810   2.911  0.8416  0.7147 -0.6774
  748SOL    HW2 2244   1.679   2.726   2.817 -1.5354 -2.5705 -1.8250
  749SOL     OW 2245   1.340   0.066   0.831  0.0459  0.1857 -0.6332
  749SOL    HW1 2246   1.304  -0.030   0.860 -0.9165  0.4767  2.1428
  749SOL    HW2 2247   1.334   0.088   0.730 -0.3951 -0.5406 -2.7919
  750SOL     OW 2248   2.316   0.233   1.919  0.7422 -0.2816  0.4169
  750SOL    HW1 2249   2.372   0.278   1.847 -1.9932  0.3665  0.8066
  750SOL    HW2 2250   2.291   0.296   2.002 -2.0239  0.4286  1.3422
  751SOL     OW 2251   0.861   2.229   2.918  0.8243 -0.0860 -0.2591
  751SOL    HW1 2252   0.953   2.200   2.956 -2.3382  0.9697  0.2216
  751SOL    HW2 2253   0.794   2.152   2.899  1.3093 -0.1525 -0.9570
  752SOL     OW 2254   1.260   0.841   1.473 -0.1186  0.0430  0.0462
  752SOL    HW1 2255   1.346   0.895   1.441  1.1692 -1.5671 -1.1396
  752SOL    HW2 2256   1.273   0.740   1.493 -0.5029 -0.1682 -0.4991
  753SOL     OW 2257   0.908   2.567   1.763  0.1462 -0.1452  0.2472
  753SOL    HW1 2258   0.957   2.615   1.683 -0.9989  2.4030  0.3054
  753SOL    HW2 2259   0.852   2.633   1.819  0.5143 -1.4397  0.2445
  754SOL     OW 2260   1.136   1.340   3.050  0.3492  0.2616  0.1452
  754SOL    HW1 2261   1.177   1.261   2.997  0.5401 -3.2923  2.1987
  754SOL    HW2 2262   1.143   1.430   2.998 -1.1649 -3.7942 -1.0086
  755SOL     OW 2263   2.040   0.545   2.317 -0.1588  0.1102  0.3487
  755SOL    HW1 2264   2.113   0.476   2.344  1.9879  1.8158  0.6949
  755SOL    HW2 2265   1.955   0.536   2.374  0.4132 -0.7560  1.9672
  756SOL     OW 2266   2.635   0.943   2.922  0.3078 -0.7067  0.0397
  756SOL    HW1 2267   2.674   0.874   2.853  0.9319 -1.2413  1.3829
  756SOL    HW2 2268   2.599   0.892   3.008 -0.3224  0.0421 -1.2219
  757SOL     OW 2269   0.137   0.459   1.756  0.4530 -0.0704  0.2177
  757SOL    HW1 2270   0.112   0.557   1.755 -2.7653  1.2104  0.3977
  757SOL    HW2 2271   0.204   0.430   1.683 -1.5945  1.9334 -0.0087
  758SOL     OW 2272   2.482   0.048   1.498  0.2196 -0.6245 -0.2036
  758SOL    HW1 2273   2.423   0.005   1.574 -1.7260  2.4612  0.2893
  758SOL    HW2 2274   2.458   0.013   1.405 -2.1397  0.0943 -0.5442
  759SOL     OW 2275   1.685   0.143   0.087 -0.0824 -0.3532  0.3026
  759SOL    HW1 2276   1.619   0.153   0.008 -2.0408  0.0356  1.2019
  759SOL    HW2 2277   1.775   0.106   0.056  2.0423  1.8343  0.9664
  760SOL     OW 2278   2.742   1.978   2.761 -0.0812  0.2223 -0.3309
  760SOL    HW1 2279   2.776   1.886   2.726 -2.1440  0.8454  0.5583
  760SOL    HW2 2280   2.795   2.059   2.718  0.2158  0.9513  1.0135
  761SOL     OW 2281   1.835   1.686   1.663 -0.0516 -0.4629  0.0329
  761SOL    HW1 2282   1.925   1.641   1.633 -0.8185  1.9111  1.1250
  761SOL    HW2 2283   1.766   1.701   1.591  1.0678  0.4778  1.8416
  762SOL     OW 2284   0.496   2.401   1.021 -0.1013  0.1620  0.0940
  762SOL    HW1 2285   0.516   2.416   0.923 -0.4107 -2.4346 -2.3274
  762SOL    HW2 2286   0.488   2.490   1.075 -0.3613 -1.3208 -0.6608
  763SOL     OW 2287   1.997   1.555   2.967  0.2208 -0.2331  0.3038
  763SOL    HW1 2288   2.054   1.501   2.901 -1.2650  1.0727 -0.2751
  763SOL    HW2 2289   1.955   1.492   3.034  1.9450  1.0246  0.1768
  764SOL     OW 2290   0.694   0.598   0.820 -0.2053 -0.2158  0.0369
  764SOL    HW1 2291   0.734   0.543   0.739  1.5190 -4.0039  0.8661
  764SOL    HW2 2292   0.775   0.610   0.886  1.4141  0.3034  0.0358
  765SOL     OW 2293   0.618   0.189   0.784  0.2576 -0.6638  0.1686
  765SOL    HW1 2294   0.693   0.245   0.739 -2.2048  0.1252  1.9017
  765SOL    HW2 2295   0.638   0.176   0.885  2.0695  0.2548  2.0229
  766SOL     OW 2296   2.913   2.011   2.968 -0.5740  0.5502  0.9702
  766SOL    HW1 2297   2.832   1.985   2.907 -1.2419  0.5267  0.9180
  766SOL    HW2 2298   2.943   2.105   2.951 -2.4801 -0.6847  0.6892
  767SOL     OW 2299   2.761   1.541   0.507  0.5852 -0.5545  0.2523
  767SOL    HW1 2300   2.705   1.577   0.585  3.0696 -0.5519 -1.3865
  767SOL    HW2 2301   2.790   1.616   0.440  1.8111 -0.7607  0.2526
  768SOL     OW 2302   1.047   0.310   0.284  0.7180  0.7749  0.5116
  768SOL    HW1 2303   0.944   0.284   0.274  2.7266  0.1457  0.5564
  768SOL    HW2 2304   1.113   0.227   0.270  0.3338 -1.0444 -1.1707
  769SOL     OW 2305   1.342   1.779   2.176 -0.9624 -0.4789  0.0305
  769SOL    HW1 2306   1.393   1.729   2.255 -1.1728 -2.3287  1.4972
  769SOL    HW2 2307   1.245   1.748   2.167  1.3223  0.5951 -1.4547
  770SOL     OW 2308   0.191   1.181   2.272  0.0691  0.2549  0.4483
  770SOL    HW1 2309   0.159   1.216   2.364  0.4849  0.5341  0.0199
  770SOL    HW2 2310   0.116   1.192   2.197 -1.2068  2.8975 -3.1455
  771SOL     OW 2311   2.961   2.868   1.875 -0.1746  0.2435  0.2754
  771SOL    HW1 2312   2.946   2.933   1.796  0.2342 -2.1659  0.7818
  771SOL    HW2 2313   2.924   2.902   1.962 -1.5000 -0.6494  1.2579
  772SOL     OW 2314   2.160   0.029   3.018  0.3030 -0.5130 -0.2967
  772SOL    HW1 2315   2.241  -0.027   3.033 -2.8472  3.0557  2.3080
  772SOL    HW2 2316   2.173   0.123   2.989  0.2438 -2.3834 -1.8943
  773SOL     OW 2317   0.687   2.160   2.452  0.4789  0.1892  0.6675
  773SOL    HW1 2318   0.636   2.201   2.368 -1.1986 -4.3789  1.9975
  773SOL    HW2 2319   0.627   2.144   2.534  1.3241  0.8154 -2.0035
  774SOL     OW 2320   2.002   0.021   2.645  0.5040  0.2515 -0.3107
  774SOL    HW1 2321   2.061   0.108   2.667  2.5858  1.2142 -0.6749
  774SOL    HW2 2322   2.029  -0.064   2.698 -0.4519  3.4106 -0.3971
  775SOL     OW 2323   2.474   2.892   2.329 -0.2113 -0.1950  0.2988
  775SOL    HW1 2324   2.448   2.995   2.335 -0.6873  2.3028  1.0603
  775SOL    HW2 2325   2.556   2.869   2.392  2.7267 -1.4859 -0.0888
  776SOL     OW 2326   0.018   1.222   0.286 -0.4627  0.6421  0.7319
  776SOL    HW1 2327  -0.056   1.255   0.218 -1.0631  1.0194  0.5495
  776SOL    HW2 2328  -0.022   1.207   0.380  1.3669 -1.7190 -0.2399
  777SOL     OW 2329   0.348   2.751   0.353  0.3312  0.7764 -0.3731
  777SOL    HW1 2330   0.246   2.721   0.365 -0.7009  1.3767  0.0741
  777SOL    HW2 2331   0.359   2.848   0.402 -1.0006  2.2506  0.3092
  778SOL     OW 2332   1.283   1.996   0.130 -0.0597 -0.0522 -0.4502
  778SOL    HW1 2333   1.265   1.989   0.229  1.5167  0.0547 -0.4454
  778SOL    HW2 2334   1.352   2.072   0.106  1.4090 -1.3669 -2.7327
  779SOL     OW 2335   0.185   0.790   0.515 -0.1367 -0.3914  0.4075
  779SOL    HW1 2336   0.159   0.692   0.502 -0.0265 -1.6644  0.7762
  779SOL    HW2 2337   0.129   0.839   0.591 -2.0945  1.4090 -1.5504
  780SOL     OW 2338   0.055   0.314   2.395 -0.0639 -0.0707  0.1108
  780SOL    HW1 2339   0.044   0.418   2.387  1.3989 -1.7006  0.3720
  780SOL    HW2 2340   0.152   0.275   2.373 -2.7079 -1.7871 -0.2088
  781SOL     OW 2341   0.518   1.786   1.621 -0.0367 -0.3284  0.2800
  781SOL    HW1 2342   0.572   1.777   1.709 -0.7316  0.6472  0.1151
  781SOL    HW2 2343   0.450   1.706   1.611  1.5642 -0.1395  4.3560
  782SOL     OW 2344   2.626   0.082   0.925  0.1445 -0.3832  0.3665
  782SOL    HW1 2345   2.541   0.094   0.874 -2.1275  0.8161  0.1866
  782SOL    HW2 2346   2.631   0.120   1.019  0.0375 -2.5387  0.7232
  783SOL     OW 2347   2.831   0.617   2.538 -0.2229 -0.0817 -0.5442
  783SOL    HW1 2348   2.806   0.652   2.636  0.0818 -1.4471  0.1692
  783SOL    HW2 2349   2.758   0.555   2.501  1.5114 -0.7680 -1.9783
  784SOL     OW 2350   1.438   2.219   0.074  0.0589 -0.0310  0.1751
  784SOL    HW1 2351   1.529   2.253   0.111 -2.5823  0.8243  0.5884
  784SOL    HW2 2352   1.427   2.226  -0.032  2.2746 -0.9396 -1.2181
  785SOL     OW 2353   2.179   0.327   3.064 -0.4015 -0.0997  0.0558
  785SOL    HW1 2354   2.111   0.313   3.141  0.6171 -2.3319  0.2504
  785SOL    HW2 2355   2.210   0.424   3.061  0.6824  0.2540 -1.1583
  786SOL     OW 2356   2.122   2.257   2.249 -0.4098  0.5002  0.4141
  786SOL    HW1 2357   2.058   2.192   2.205  1.1257  1.2097 -0.0122
  786SOL    HW2 2358   2.198   2.200   2.293 -2.1107 -2.4242  0.4931
  787SOL     OW 2359   1.350   0.554   0.768  0.3577 -1.0328 -0.0406
  787SOL    HW1 2360   1.282   0.632   0.739 -2.2551 -0.4897 -4.7619
  787SOL    HW2 2361   1.408   0.514   0.690 -3.0289 -0.7071 -0.7196
  788SOL     OW 2362   1.196   0.471   2.960 -0.8882  0.2549 -0.4055
  788SOL    HW1 2363   1.098   0.488   2.932  0.9492 -0.3133  0.9814
  788SOL    HW2 2364   1.269   0.528   2.908 -1.6498  3.8460  1.3142
  789SOL     OW 2365   2.617   0.137   1.946 -0.3894  0.4064  0.0175
  789SOL    HW1 2366   2.518   0.145   1.936  1.7407  0.6393  2.8490
  789SOL    HW2 2367   2.652   0.038   1.977  0.2358 -1.6079  0.2948
  790SOL     OW 2368   2.627   2.624   0.849 -0.5649 -0.5241  0.0433
  790SOL    HW1 2369   2.700   2.621   0.778 -2.4986  1.1638  1.2683
  790SOL    HW2 2370   2.609   2.724   0.870 -2.9635  1.3833  1.4709
  791SOL     OW 2371   1.904   1.199   0.204 -0.5345  0.1414 -0.2090
  791SOL    HW1 2372   1.820   1.140   0.220  0.6269 -0.0686  0.7707
  791SOL    HW2 2373   1.984   1.148   0.171  0.3002  1.0978 -0.8128
  792SOL     OW 2374   0.450   1.960   2.278 -0.5219 -0.1353  0.1657
  792SOL    HW1 2375   0.496   2.049   2.300 -1.9208  1.0539  1.2568
  792SOL    HW2 2376   0.365   1.942   2.338 -1.5270  0.6214 -0.6043
  793SOL     OW 2377   2.069   1.570   2.010  0.3212  0.0521 -0.2688
  793SOL    HW1 2378   2.164   1.613   2.024  1.0922  2.0115 -1.3010
  793SOL    HW2 2379   2.071   1.483   1.949 -1.9774 -3.9874 -2.1890
  794SOL     OW 2380   0.561   1.536   2.487  0.2235 -0.4293 -0.1967
  794SOL    HW1 2381   0.604   1.470   2.423 -1.2323  0.9639 -0.4083
  794SOL    HW2 2382   0.473   1.583   2.461  1.1005  0.9976  1.4653
  795SOL     OW 2383   2.376   2.330   1.853  0.2888 -0.1095 -0.3048
  795SOL    HW1 2384   2.378   2.360   1.955  0.0183 -0.3100  2.5378
  795SOL    HW2 2385   2.337   2.238   1.832  2.7107 -1.0563  2.8858
  796SOL     OW 2386   3.014   1.139   2.729  0.2215 -0.0331  0.1536
  796SOL    HW1 2387   2.918   1.162   2.757 -0.5564 -2.5706 -0.7603
  796SOL    HW2 2388   3.079   1.118   2.809 -1.0405 -1.3716  1.1687
  797SOL     OW 2389   0.725   0.645   1.300  1.0428 -0.0227 -0.4299
  797SOL    HW1 2390   0.814   0.689   1.346  2.7796  0.0621  1.7950
  797SOL    HW2 2391   0.661   0.717   1.258 -3.0612 -1.1350 -4.0390
  798SOL     OW 2392   1.189   0.491   0.969 -0.3890 -0.2818  0.0443
  798SOL    HW1 2393   1.218   0.573   1.028 -1.1519 -1.4395  1.3262
  798SOL    HW2 2394   1.254   0.490   0.888 -0.1603 -2.7317 -1.7273
  799SOL     OW 2395   1.813   2.704   1.109  0.6644  0.1870  0.6799
  799SOL    HW1 2396   1.853   2.609   1.133  0.4425 -3.5947  1.9175
  799SOL    HW2 2397   1.822   2.726   1.006 -0.2827  2.6965 -1.6796
  800SOL     OW 2398   2.950   0.823   1.878  0.0922  0.5167  0.1546
  800SOL    HW1 2399   2.959   0.926   1.854  0.1387 -1.5270  0.2828
  800SOL    HW2 2400   2.957   0.809   1.983  0.9587 -1.8848 -0.8276
  801SOL     OW 2401   1.990   2.302   0.062  0.0076  0.7098 -0.5128
  801SOL    HW1 2402   1.965   2.345  -0.026 -0.4507 -2.3279 -0.2028
  801SOL    HW2 2403   2.068   2.232   0.052  1.2021 -1.0247 -2.0291
  802SOL     OW 2404   0.682   0.633   2.484  0.1060  0.5010 -0.1424
  802SOL    HW1 2405   0.742   0.660   2.403 -0.2680  0.9989 -1.5660
  802SOL    HW2 2406   0.585   0.668   2.472  0.7142  0.7445 -3.3503
  803SOL     OW 2407   0.949   0.095   0.912 -0.2388 -0.2046 -0.2090
  803SOL    HW1 2408   1.026   0.153   0.952  1.9539  0.3591 -0.3231
  803SOL    HW2 2409   0.920   0.152   0.829 -0.3162 -0.5483 -2.3350
  804SOL     OW 2410   0.330   0.021   2.152 -0.3674 -0.2301 -0.5093
  804SOL    HW1 2411   0.324   0.126   2.171  1.8751  0.8322 -0.3423
  804SOL    HW2 2412   0.247  -0.007   2.094 -0.8289 -0.0223 -0.0108
  805SOL     OW 2413   2.405   0.287   0.328 -0.0137 -0.4347 -0.1059
  805SOL    HW1 2414   2.475   0.334   0.397  1.4478  1.4968 -1.7089
  805SOL    HW2 2415   2.450   0.269   0.236  1.0788  0.7251  2.7373
  806SOL     OW 2416   0.691   2.641   1.985  0.6341 -0.2372 -0.3704
  806SOL    HW1 2417   0.637   2.682   2.060  0.1530 -0.1141 -1.3514
  806SOL    HW2 2418   0.704   2.706   1.902  0.3989 -1.4097 -0.6876
  807SOL     OW 2419   2.585   0.934   0.516 -0.4958  0.2942  0.1582
  807SOL    HW1 2420   2.662   0.863   0.536  1.4678 -2.6369  1.4661
  807SOL    HW2 2421   2.581   0.958   0.414 -1.0881  1.5184  0.5433
  808SOL     OW 2422   0.660   2.046   2.903 -0.4590 -0.0940 -0.1595
  808SOL    HW1 2423   0.569   2.062   2.953 -0.9967 -1.5666  1.7367
  808SOL    HW2 2424   0.678   1.944   2.908  0.1483 -0.4339  0.2300
  809SOL     OW 2425   2.587   2.027   1.917  0.5143 -0.1894 -0.4094
  809SOL    HW1 2426   2.678   2.077   1.894  2.5049 -0.3746 -0.2778
  809SOL    HW2 2427   2.514   2.029   1.840 -2.5691 -0.6395  2.9230
  810SOL     OW 2428   2.187   1.252   0.517  0.3481  0.2809  0.8482
  810SOL    HW1 2429   2.118   1.199   0.571 -1.6718 -0.7565 -5.4022
  810SOL    HW2 2430   2.186   1.352   0.545 -0.3404 -0.9164 -1.3114
  811SOL     OW 2431   1.219   2.501   1.190 -0.2744  0.1185  0.3635
  811SOL    HW1 2432   1.227   2.399   1.179 -0.4106  4.8091 -0.7296
  811SOL    HW2 2433   1.246   2.531   1.283 -2.5176  0.7779 -0.8191
  812SOL     OW 2434   1.424   0.762   1.986 -0.2618  0.1851 -0.7076
  812SOL    HW1 2435   1.329   0.799   1.987 -0.7270 -1.2143 -0.2919
  812SOL    HW2 2436   1.478   0.784   1.899 -0.0336 -2.1110  1.8871
  813SOL     OW 2437   1.643   2.082   2.427  0.2813  0.7042  0.2776
  813SOL    HW1 2438   1.713   2.143   2.468  1.0427 -1.1349  0.8154
  813SOL    HW2 2439   1.656   2.055   2.328 -0.0372 -1.7485 -0.0233
  814SOL     OW 2440   2.995   1.723   2.861  0.4215  0.6978 -0.4529
  814SOL    HW1 2441   3.085   1.679   2.885 -0.2298 -0.2842 -2.2293
  814SOL    HW2 2442   2.983   1.824   2.891  0.6653  1.8128 -0.0229
  815SOL     OW 2443   2.124   2.915   2.776 -0.3340  0.4375 -0.1070
  815SOL    HW1 2444   2.085   2.825   2.817  1.0602 -1.6445 -0.7049
  815SOL    HW2 2445   2.218   2.937   2.817  2.8399  0.0455 -0.0352
  816SOL     OW 2446   1.557   0.452   1.683  0.5986 -0.6662 -0.0992
  816SOL    HW1 2447   1.613   0.374   1.642 -0.8290  2.3089 -2.2092
  816SOL    HW2 2448   1.491   0.427   1.758 -0.1688 -1.0224  0.6281
  817SOL     OW 2449   0.401   1.214   2.542  0.0117 -0.4835 -0.1075
  817SOL    HW1 2450   0.303   1.250   2.534 -0.9609  0.5052  0.8749
  817SOL    HW2 2451   0.453   1.200   2.455 -2.5544 -0.1533 -3.1264
  818SOL     OW 2452   2.011   0.780   0.477  0.1166  0.1910  0.0533
  818SOL    HW1 2453   2.110   0.805   0.450  1.6745 -0.6952 -0.5960
  818SOL    HW2 2454   1.976   0.847   0.545 -0.3076  1.2823  0.2749
  819SOL     OW 2455   2.826   2.893   3.028 -0.2071  0.0897  0.0620
  819SOL    HW1 2456   2.890   2.819   3.012 -4.5745  2.7680  1.1888
  819SOL    HW2 2457   2.752   2.900   2.958  2.9603 -0.3623 -2.1516
  820SOL     OW 2458   1.212   1.020   0.541 -0.5268 -0.4305 -0.0352
  820SOL    HW1 2459   1.240   1.114   0.562 -1.2009  2.2207  1.1123
  820SOL    HW2 2460   1.176   0.972   0.624  0.1209 -1.2150  3.6509
  821SOL     OW 2461   0.047   1.194   0.766 -0.2374 -1.0720  0.5752
  821SOL    HW1 2462  -0.011   1.202   0.848 -0.5757  0.0755 -0.8909
  821SOL    HW2 2463   0.074   1.286   0.726 -1.3902 -1.8876  1.1589
  822SOL     OW 2464   2.551   1.764   2.431  0.1898 -0.2626 -0.3541
  822SOL    HW1 2465   2.550   1.814   2.523  0.8506  1.1084 -0.7694
  822SOL    HW2 2466   2.453   1.758   2.391 -2.5711 -1.2009 -1.5458
  823SOL     OW 2467   2.039   0.881   1.154  1.0408  0.0723 -0.0235
  823SOL    HW1 2468   2.024   0.836   1.249  0.6361  0.7350  0.9026
  823SOL    HW2 2469   1.979   0.839   1.080 -1.4378 -1.9863 -1.8514
  824SOL     OW 2470   0.198   1.813   2.813 -0.1225  0.1445 -0.6970
  824SOL    HW1 2471   0.181   1.834   2.914  1.7249  0.1510 -0.2828
  824SOL    HW2 2472   0.264   1.882   2.771 -1.6456  1.6933 -0.3070
  825SOL     OW 2473   1.279   1.042   0.226  0.5067  0.2552 -0.3737
  825SOL    HW1 2474   1.295   1.144   0.222  0.4492 -1.8957 -1.9027
  825SOL    HW2 2475   1.244   1.016   0.320 -0.3726 -1.1587  0.4937
  826SOL     OW 2476   1.955   0.663   1.639 -0.5263 -0.1207  0.6327
  826SOL    HW1 2477   2.041   0.608   1.637  1.9132  0.8554  2.1660
  826SOL    HW2 2478   1.883   0.627   1.577 -0.2458  3.0720 -0.7381
  827SOL     OW 2479   0.706   1.204   0.485 -0.0242  0.3367  0.4111
  827SOL    HW1 2480   0.792   1.156   0.466  0.9559  0.4160  1.3804
  827SOL    HW2 2481   0.623   1.145   0.463 -1.1297  0.6919 -3.5615
  828SOL     OW 2482   2.675   0.162   1.649 -1.0260  0.2738  0.2087
  828SOL    HW1 2483   2.603   0.103   1.596  2.7360 -2.9088 -0.5630
  828SOL    HW2 2484   2.650   0.174   1.749 -3.5264  0.4955 -1.8231
  829SOL     OW 2485   2.879   2.385   2.860  0.3226  0.1219 -0.3798
  829SOL    HW1 2486   2.795   2.346   2.907  1.3649 -0.9409 -1.0018
  829SOL    HW2 2487   2.894   2.490   2.864 -0.3069  2.1818  0.3831
  830SOL     OW 2488   3.005   0.936   2.939  0.0005  0.0136 -0.0363
  830SOL    HW1 2489   3.072   1.017   2.954  1.6496  0.6449 -2.1427
  830SOL    HW2 2490   2.950   0.906   3.026  0.6765 -1.3604 -0.6102
  831SOL     OW 2491   3.089   0.583   0.445  0.6774  0.9714 -1.0635
  831SOL    HW1 2492   3.074   0.514   0.521 -0.6677  2.3017  0.0565
  831SOL    HW2 2493   3.103   0.537   0.352 -0.8214 -2.1972  1.1729
  832SOL     OW 2494   1.758   0.741   0.009  0.0220  0.0989 -0.1296
  832SOL    HW1 2495   1.667   0.794   0.003  1.5785  2.2283  0.6958
  832SOL    HW2 2496   1.750   0.644  -0.006  1.7001  2.7166 -0.2429
  833SOL     OW 2497   2.323   2.098   0.481 -0.5809 -0.0472 -0.3398
  833SOL    HW1 2498   2.240   2.037   0.465  0.4955  0.4054  1.9749
  833SOL    HW2 2499   2.417   2.051   0.481 -0.0024  0.5829  1.9897
  834SOL     OW 2500   0.035   0.034   0.583  0.3139 -0.7357  0.2552
  834SOL    HW1 2501   0.129  -0.013   0.587 -1.6822  1.0291 -0.3400
  834SOL    HW2 2502   0.026   0.101   0.505  2.0891  0.9418  1.6229
  835SOL     OW 2503   2.554   1.759   1.124  0.1859  0.8457  0.4739
  835SOL    HW1 2504   2.617   1.678   1.154  0.3670 -0.9424  0.8930
  835SOL    HW2 2505   2.575   1.805   1.034 -2.2200 -0.5312  2.1730
  836SOL     OW 2506   1.546   0.824   2.566  0.4248 -0.9635 -0.8521
  836SOL    HW1 2507   1.449   0.836   2.534  0.1963  0.0131  2.1618
  836SOL    HW2 2508   1.621   0.865   2.504  0.9414  1.8076  0.1969
  837SOL     OW 2509   1.646  -0.004   0.667 -0.3436  0.0025  0.3073
  837SOL    HW1 2510   1.625   0.086   0.713 -1.3639  1.1626 -2.5096
  837SOL    HW2 2511   1.601  -0.005   0.577  0.2222 -1.6786  2.2880
  838SOL     OW 2512   1.157   1.368   2.684 -0.4574 -1.0201  0.0890
  838SOL    HW1 2513   1.140   1.456   2.731 -0.5914 -2.4073 -2.1344
  838SOL    HW2 2514   1.086   1.338   2.612  0.4291 -0.5768  2.0199
  839SOL     OW 2515   1.631   0.363   0.977  0.6114 -0.2082 -0.1801
  839SOL    HW1 2516   1.573   0.453   0.978 -2.4540 -1.9148 -0.5587
  839SOL    HW2 2517   1.588   0.277   1.009  0.6089  0.6099 -2.2718
  840SOL     OW 2518   2.649   2.936   1.611 -0.1825  0.5276 -0.3248
  840SOL    HW1 2519   2.589   3.002   1.562 -1.3961 -0.3082  0.7476
  840SOL    HW2 2520   2.626   2.918   1.709 -0.1146  0.1791 -0.9100
  841SOL     OW 2521   1.523   0.856   3.059 -0.9915  0.4646  0.0106
  841SOL    HW1 2522   1.424   0.846   3.072 -0.3710 -1.0359  1.3197
  841SOL    HW2 2523   1.538   0.906   2.968  3.2608  0.7260 -1.2908
  842SOL     OW 2524   0.824   1.612   1.018 -0.2430  0.0756 -0.7219
  842SOL    HW1 2525   0.767   1.679   1.079 -0.3021  1.6161 -0.7214
  842SOL    HW2 2526   0.767   1.564   0.947  0.9135  1.9799  0.1930
  843SOL     OW 2527   0.138   0.096   1.439  0.0446  0.4408  0.2781
  843SOL    HW1 2528   0.231   0.143   1.442 -0.4171 -1.2516  1.4590
  843SOL    HW2 2529   0.147  -0.006   1.432 -0.3061  1.2420 -1.2269
  844SOL     OW 2530   0.789   2.452   0.201  0.3493 -0.2222 -0.4376
  844SOL    HW1 2531   0.756   2.480   0.297 -1.5680  0.2908  0.6562
  844SOL    HW2 2532   0.715   2.394   0.153 -0.2680  0.3685  0.1456
  845SOL     OW 2533   1.747   0.007   1.307  0.2546 -0.0632  0.7245
  845SOL    HW1 2534   1.760  -0.023   1.406 -0.5947 -0.1572 -1.1530
  845SOL    HW2 2535   1.693   0.095   1.294 -0.0861  2.0660 -1.2531
  846SOL     OW 2536   1.733   2.976   0.905  0.3092 -0.4050  0.7132
  846SOL    HW1 2537   1.713   3.004   0.807  2.3577 -0.6502 -2.6483
  846SOL    HW2 2538   1.830   2.940   0.925  0.7902  1.2286  2.9837
  847SOL     OW 2539   2.045   1.585   0.190 -0.3567  0.1629  0.1667
  847SOL    HW1 2540   2.009   1.543   0.279  0.5662  0.1776 -1.4235
  847SOL    HW2 2541   1.985   1.567   0.112 -1.3853  0.2844 -1.0731
  848SOL     OW 2542   2.452   0.792   2.685  0.2687  0.2403  0.0462
  848SOL    HW1 2543   2.448   0.897   2.689  2.7404 -2.0141  1.4931
  848SOL    HW2 2544   2.390   0.755   2.606  0.2913  3.0297  1.6875
  849SOL     OW 2545   2.358   0.857   2.329  0.1471  0.0556  0.4004
  849SOL    HW1 2546   2.394   0.806   2.246 -1.0349 -0.1777 -2.0916
  849SOL    HW2 2547   2.302   0.794   2.396  1.2293 -0.1613  0.3061
  850SOL     OW 2548   1.541   0.195   1.279  0.2668 -0.4213  0.4102
  850SOL    HW1 2549   1.521   0.169   1.183 -1.6259  0.3353 -0.4468
  850SOL    HW2 2550   1.499   0.127   1.345 -0.3528  0.4260 -3.1225
  851SOL     OW 2551   0.395   1.681   0.661 -0.5827 -0.2656  0.0791
  851SOL    HW1 2552   0.430   1.781   0.664 -2.1885 -0.6460  2.7595
  851SOL    HW2 2553   0.457   1.620   0.720 -0.9057  0.0039  3.3781
  852SOL     OW 2554   0.835   2.126   1.745 -0.3394 -0.6419 -0.7320
  852SOL    HW1 2555   0.837   2.219   1.685 -1.8589 -0.7437 -2.1605
  852SOL    HW2 2556   0.773   2.135   1.828 -1.1640 -0.0183  3.1747
  853SOL     OW 2557   2.501   1.525   2.613 -0.2231  0.4509 -0.0658
  853SOL    HW1 2558   2.458   1.428   2.604 -1.5084  1.4855  1.0913
  853SOL    HW2 2559   2.536   1.558   2.521 -2.8241 -3.2069 -0.2246
  854SOL     OW 2560   2.432   1.448   1.708  0.5078 -0.1573 -0.0285
  854SOL    HW1 2561   2.517   1.436   1.650 -2.1700 -1.8620 -0.8000
  854SOL    HW2 2562   2.382   1.355   1.713  1.4975 -1.5351  2.5396
  855SOL     OW 2563   2.043   2.388   0.947 -0.2628 -0.2719 -0.0439
  855SOL    HW1 2564   2.093   2.475   0.906  0.4161  4.6796  0.4786
  855SOL    HW2 2565   2.099   2.326   1.010  1.0362 -0.8985  0.5307
  856SOL     OW 2566   1.439   1.422   0.831 -0.0752 -0.2849  0.6276
  856SOL    HW1 2567   1.457   1.525   0.826 -0.2814  2.3552 -1.1803
  856SOL    HW2 2568   1.458   1.386   0.925 -2.1013  0.0139  0.7771
  857SOL     OW 2569   2.944   2.535   1.039  0.6019  0.2734 -0.2055
  857SOL    HW1 2570   2.870   2.491   1.095 -0.1516  4.1032 -1.2791
  857SOL    HW2 2571   2.943   2.513   0.938 -0.3567  1.5579 -1.4002
  858SOL     OW 2572   2.260   2.089   1.787 -0.3680 -0.5207  0.7174
  858SOL    HW1 2573   2.184   2.139   1.733 -0.4237 -1.7956  0.2141
  858SOL    HW2 2574   2.312   2.026   1.725 -1.3327  2.7597  3.3002
  859SOL     OW 2575   2.508   0.447   1.050  0.8015 -0.1689  0.4571
  859SOL    HW1 2576   2.573   0.485   0.978  1.1590 -1.2084  1.6535
  859SOL    HW2 2577   2.548   0.357   1.091  0.2185 -3.4810  0.9444
  860SOL     OW 2578   1.903   2.788   0.507 -0.2003 -0.3358 -0.0087
  860SOL    HW1 2579   1.916   2.803   0.405 -2.2057  2.4893 -1.2100
  860SOL    HW2 2580   1.934   2.875   0.557  0.5683  0.6838 -1.5733
  861SOL     OW 2581   0.950   2.633   2.838 -0.7572  0.8049 -0.5811
  861SOL    HW1 2582   1.022   2.711   2.839  1.9867 -0.0701 -4.7837
  861SOL    HW2 2583   0.918   2.606   2.932  0.4203 -1.2918 -0.5530
  862SOL     OW 2584   2.929   2.518   1.616 -0.0371  0.2246  0.8389
  862SOL    HW1 2585   2.981   2.559   1.700 -0.9718  2.0708  1.2726
  862SOL    HW2 2586   2.841   2.571   1.593 -1.7253 -1.1701 -1.0323
  863SOL     OW 2587   1.919   2.684   0.184  0.4623  0.3835  0.1522
  863SOL    HW1 2588   1.977   2.614   0.238 -0.3415  1.1240 -2.4848
  863SOL    HW2 2589   1.818   2.660   0.168  0.5629 -1.4316 -4.7220
  864SOL     OW 2590   1.916   1.087   3.014 -0.5679  0.0193  0.3009
  864SOL    HW1 2591   1.915   1.064   2.912 -2.5827  1.3207 -0.8176
  864SOL    HW2 2592   2.005   1.122   3.057 -0.4027 -1.7175  2.9388
  865SOL     OW 2593   2.204   1.731   0.628 -0.2862  0.1855  0.1935
  865SOL    HW1 2594   2.211   1.795   0.709 -0.1840 -0.8893 -0.5721
  865SOL    HW2 2595   2.180   1.634   0.670  0.2081  2.0208 -1.0203
  866SOL     OW 2596   2.976   2.816   0.967 -0.1276  0.3708 -0.0774
  866SOL    HW1 2597   3.031   2.862   0.893  1.2437 -1.7193 -1.3984
  866SOL    HW2 2598   2.999   2.719   0.992  0.3448 -0.2455  0.6809
  867SOL     OW 2599   0.371   1.371   0.844  0.1627 -0.3630 -0.4832
  867SOL    HW1 2600   0.420   1.289   0.815  0.4526 -1.1648  1.2408
  867SOL    HW2 2601   0.281   1.379   0.796  3.0905 -1.9598  0.4372
  868SOL     OW 2602   0.804   1.926   2.002  0.4337  0.6589 -1.1262
  868SOL    HW1 2603   0.767   1.869   2.081 -1.7890 -1.2079  1.4123
  868SOL    HW2 2604   0.759   2.023   1.997 -2.2486  1.9654  1.8435
  869SOL     OW 2605   2.477   1.986   1.651 -0.8089  0.1937  0.1977
  869SOL    HW1 2606   2.547   1.920   1.680  2.4982 -2.1297 -2.1106
  869SOL    HW2 2607   2.453   1.979   1.550  0.0818  1.7934 -2.1692
  870SOL     OW 2608   2.334   2.553   1.258 -0.2060  0.1453 -0.5246
  870SOL    HW1 2609   2.273   2.487   1.213 -2.0075 -0.4107 -0.6954
  870SOL    HW2 2610   2.409   2.512   1.322  1.0459 -2.1227  0.4242
  871SOL     OW 2611   2.996   1.977   0.524 -0.4393 -0.0373 -0.5152
  871SOL    HW1 2612   2.917   2.034   0.489 -0.8463  0.7362  0.9942
  871SOL    HW2 2613   2.969   1.880   0.504 -1.9153  1.0040 -1.0593
  872SOL     OW 2614   2.209   0.514   1.725 -0.3439 -0.4897  0.6235
  872SOL    HW1 2615   2.189   0.556   1.821  3.4735 -0.2611  0.3209
  872SOL    HW2 2616   2.303   0.472   1.717  2.0391 -0.5179  1.4074
  873SOL     OW 2617   1.724   2.117   2.894  0.1511 -0.0150  0.2468
  873SOL    HW1 2618   1.729   2.206   2.951  1.0440 -1.8939 -1.4201
  873SOL    HW2 2619   1.633   2.113   2.845  3.4893 -0.3253 -1.1209
  874SOL     OW 2620   0.621   2.460   0.715 -0.1190 -0.0871 -0.2774
  874SOL    HW1 2621   0.592   2.554   0.747 -1.3035  0.4188  0.9843
  874SOL    HW2 2622   0.723   2.433   0.730  0.0871 -3.1455 -0.8657
  875SOL     OW 2623   2.283   1.632   1.477 -0.3651  0.8879 -0.3702
  875SOL    HW1 2624   2.387   1.633   1.495  1.9891  1.8690  0.0093
  875SOL    HW2 2625   2.260   1.682   1.391  1.4538  3.1954  0.9675
  876SOL     OW 2626   0.190   2.279   2.775  0.3227  0.3558 -0.3374
  876SOL    HW1 2627   0.177   2.224   2.860 -1.4185  3.3950 -1.2405
  876SOL    HW2 2628   0.228   2.371   2.807  1.9328 -1.4005  1.3788
  877SOL     OW 2629   2.824   2.652   0.643  0.2634  0.2817 -0.5850
  877SOL    HW1 2630   2.835   2.755   0.623 -2.5331 -1.9763  1.0626
  877SOL    HW2 2631   2.902   2.607   0.695 -1.1625 -1.9209 -0.0477
  878SOL     OW 2632   2.665   1.482   2.384 -0.5932  0.2182 -0.0987
  878SOL    HW1 2633   2.654   1.580   2.358 -1.8826 -0.0051  2.6743
  878SOL    HW2 2634   2.758   1.445   2.372 -3.6659 -1.9994  0.7764
  879SOL     OW 2635   2.434   3.037   1.211 -0.2739 -0.0263 -0.0318
  879SOL    HW1 2636   2.463   2.941   1.205 -2.8857  0.8087 -0.3125
  879SOL    HW2 2637   2.333   3.054   1.186 -3.3490 -0.6048 -1.0353
  880SOL     OW 2638   0.643   0.488   2.205  0.6670 -0.4521 -0.5768
  880SOL    HW1 2639   0.589   0.457   2.291  0.3947  0.3971  0.7896
  880SOL    HW2 2640   0.612   0.441   2.119  1.3234  2.0951  1.4317
  881SOL     OW 2641   0.918   0.091   0.445  0.1181  0.2056  0.0396
  881SOL    HW1 2642   0.955  -0.009   0.457  0.9846 -0.9033 -2.5453
  881SOL    HW2 2643   0.844   0.099   0.374 -0.2289  1.4318 -1.2841
  882SOL     OW 2644   2.756   1.766   1.694  0.0454 -0.3157  0.4838
  882SOL    HW1 2645   2.826   1.693   1.677 -0.4245 -2.3203  0.7999
  882SOL    HW2 2646   2.720   1.766   1.792 -1.5344  2.7797 -1.4085
  883SOL     OW 2647   0.919   0.574   0.970 -0.0095  0.1655  0.0730
  883SOL    HW1 2648   0.926   0.658   1.030 -1.2249 -1.2165  0.9485
  883SOL    HW2 2649   1.005   0.517   0.967 -0.9964 -0.4767  1.5307
  884SOL     OW 2650   1.122   1.905   1.061 -0.3847 -0.0653  0.2527
  884SOL    HW1 2651   1.101   1.842   0.983 -0.5984  0.7187 -0.8792
  884SOL    HW2 2652   1.052   1.983   1.070  1.2605 -0.4731  0.0868
  885SOL     OW 2653   2.315   1.806   2.289 -0.1741  0.0124 -0.3689
  885SOL    HW1 2654   2.237   1.750   2.330 -2.1674 -0.0573  1.0210
  885SOL    HW2 2655   2.299   1.905   2.311  1.4356  1.4742  0.8633
  886SOL     OW 2656   2.665   0.465   1.836 -0.2917  0.3028 -0.0363
  886SOL    HW1 2657   2.723   0.406   1.895 -1.9190  0.5978 -0.6192
  886SOL    HW2 2658   2.721   0.539   1.790 -3.2094 -3.2173  0.2867
  887SOL     OW 2659   0.222   2.046   1.270  0.0268 -0.0367 -0.3094
  887SOL    HW1 2660   0.163   1.989   1.207  0.0756  1.9864 -0.4496
  887SOL    HW2 2661   0.215   2.150   1.260  0.5361 -0.0367  3.1024
  888SOL     OW 2662   0.570   1.343   1.456 -0.1504 -0.2298 -0.3561
  888SOL    HW1 2663   0.579   1.395   1.362  0.0828  1.7547  0.7941
  888SOL    HW2 2664   0.548   1.246   1.439  1.7822  0.1819 -0.9531
  889SOL     OW 2665   0.830   2.400   2.174 -0.5135 -0.3072  0.1750
  889SOL    HW1 2666   0.785   2.310   2.151  3.1996  0.8948 -1.5287
  889SOL    HW2 2667   0.887   2.435   2.092 -1.9314 -0.2147  0.7457
  890SOL     OW 2668   2.338   2.439   0.229 -0.2650  0.3237  0.1868
  890SOL    HW1 2669   2.422   2.492   0.207  1.3431 -0.7004 -0.5055
  890SOL    HW2 2670   2.252   2.495   0.251 -1.0514 -0.3859 -0.9848
  891SOL     OW 2671   2.617   1.680   0.713  0.5202  0.4623  0.0250
  891SOL    HW1 2672   2.564   1.615   0.776  1.4750 -0.0939  2.3528
  891SOL    HW2 2673   2.570   1.693   0.623  1.2812 -0.4517 -0.7263
  892SOL     OW 2674   0.294   0.286   2.247 -0.3187  0.0846  0.0795
  892SOL    HW1 2675   0.304   0.326   2.157 -3.9137 -0.6219  0.9722
  892SOL    HW2 2676   0.369   0.314   2.309  0.2493  0.8047  0.6357
  893SOL     OW 2677   1.651   0.255   2.749  0.7695 -0.1527  0.4354
  893SOL    HW1 2678   1.732   0.324   2.764 -1.7959 -0.2774 -1.0320
  893SOL    HW2 2679   1.555   0.296   2.744  0.6163  0.0912 -1.1003
  894SOL     OW 2680   2.184   2.037   0.038  0.0185  0.2847 -0.0482
  894SOL    HW1 2681   2.139   1.980  -0.038 -0.6962 -1.0421  0.1439
  894SOL    HW2 2682   2.201   1.973   0.120  4.3347  0.8478  0.2147
  895SOL     OW 2683   2.778   1.376   0.855 -0.4843  0.2213  0.3061
  895SOL    HW1 2684   2.843   1.330   0.924  1.2648  0.0021  1.0143
  895SOL    HW2 2685   2.829   1.438   0.795 -0.8109  0.5624  4.9070
  896SOL     OW 2686   1.742   1.845   1.170  0.7187  0.8850 -0.0140
  896SOL    HW1 2687   1.815   1.828   1.098 -0.4840 -2.4252 -0.0846
  896SOL    HW2 2688   1.695   1.936   1.155  1.8954  1.5631  0.9362
  897SOL     OW 2689   0.295   0.503   3.075 -0.6468 -0.4956  0.9410
  897SOL    HW1 2690   0.241   0.523   2.983 -1.1314 -1.7979 -0.4844
  897SOL    HW2 2691   0.386   0.558   3.076  2.2679  0.6618  1.0990
  898SOL     OW 2692   0.536   2.909   0.997 -0.2646 -0.6247  0.2601
  898SOL    HW1 2693   0.478   2.917   1.082 -0.8033 -1.7850  0.8141
  898SOL    HW2 2694   0.634   2.944   1.005 -0.0951  0.3578  1.0886
  899SOL     OW 2695   2.716   0.920   1.293  0.7812 -0.4049  0.5602
  899SOL    HW1 2696   2.644   0.927   1.223  0.4440  0.7483  0.6246
  899SOL    HW2 2697   2.778   0.997   1.277 -1.7136 -1.8467  1.8515
  900SOL     OW 2698   1.004   2.372   2.387 -0.0367  0.0816  0.3977
  900SOL    HW1 2699   0.960   2.444   2.325  0.2052 -0.3984  0.9424
  900SOL    HW2 2700   0.942   2.356   2.467 -0.0179 -2.5755 -0.1831
  901SOL     OW 2701   1.984   2.488   1.336 -0.2898 -0.0632 -0.1182
  901SOL    HW1 2702   1.942   2.456   1.249  2.8466 -0.6284  0.4321
  901SOL    HW2 2703   2.060   2.425   1.377  0.4735  0.5095  2.6117
  902SOL     OW 2704   2.583   1.663   1.501 -0.1101 -0.2187  0.4815
  902SOL    HW1 2705   2.626   1.745   1.547  0.6588  2.8629 -0.8625
  902SOL    HW2 2706   2.605   1.669   1.403 -0.6014 -1.5501 -1.0900
  903SOL     OW 2707   0.285   2.484   1.950  0.0594  0.2029  0.0603
  903SOL    HW1 2708   0.206   2.423   1.978  3.3058  0.4609 -2.5626
  903SOL    HW2 2709   0.258   2.551   1.883 -0.8761 -1.5475 -1.0130
  904SOL     OW 2710   1.987   0.806   2.608  0.2705 -0.3159  0.2669
  904SOL    HW1 2711   1.920   0.733   2.634 -3.5728 -0.6867 -2.6997
  904SOL    HW2 2712   1.967   0.842   2.505  1.4891  3.9689 -0.7827
  905SOL     OW 2713   2.842   0.050   2.590  0.0758  0.1374  0.3299
  905SOL    HW1 2714   2.925   0.002   2.629  0.5486 -2.0163  0.2284
  905SOL    HW2 2715   2.867   0.149   2.550 -1.8086  0.5631 -2.3166
  906SOL     OW 2716   0.116   1.842   1.900 -0.2837 -0.3998 -0.2831
  906SOL    HW1 2717   0.072   1.823   1.805 -0.0354  0.1246  0.9566
  906SOL    HW2 2718   0.147   1.942   1.898  2.0351  0.6709 -3.7777
  907SOL     OW 2719   0.178   2.413   1.074 -0.2992  0.1112  0.4918
  907SOL    HW1 2720   0.231   2.485   1.024 -1.4484  2.2527 -0.8436
  907SOL    HW2 2721   0.095   2.380   1.018 -2.4896  3.5663  1.4153
  908SOL     OW 2722   2.688   2.793   0.343  0.0886  0.3272 -0.4297
  908SOL    HW1 2723   2.645   2.861   0.278 -2.7530  0.4982 -0.6163
  908SOL    HW2 2724   2.639   2.707   0.355  0.2610 -1.3944 -1.3229
  909SOL     OW 2725   0.660   0.892   2.643  0.3027 -0.2859  0.0760
  909SOL    HW1 2726   0.635   0.803   2.589 -1.5990 -1.6713 -3.0639
  909SOL    HW2 2727   0.755   0.926   2.626 -0.4733 -0.0688  2.3528
  910SOL     OW 2728   1.708   1.771   2.112 -0.8333  0.3461 -0.3378
  910SOL    HW1 2729   1.766   1.806   2.031 -1.4054  3.2024  0.5581
  910SOL    HW2 2730   1.659   1.848   2.165 -1.1233  0.0449 -0.1737
  911SOL     OW 2731   1.786   3.024   1.581  0.1190 -0.0650  0.0292
  911SOL    HW1 2732   1.883   3.001   1.546 -1.7671  0.9447  0.3284
  911SOL    HW2 2733   1.764   2.966   1.671  1.2589 -1.4356  1.5463
  912SOL     OW 2734   2.898   0.949   0.752  0.3360 -0.6373  0.2167
  912SOL    HW1 2735   2.896   0.942   0.856  1.1129  2.6284 -0.8155
  912SOL    HW2 2736   2.823   1.012   0.712 -0.2420 -0.6916  0.3613
  913SOL     OW 2737   2.593   1.284   1.531  0.3336  0.0202 -0.5149
  913SOL    HW1 2738   2.573   1.192   1.570  1.6816 -0.2088 -4.0221
  913SOL    HW2 2739   2.656   1.291   1.453 -0.9749 -0.4460 -1.4418
  914SOL     OW 2740   2.756   0.500   1.273 -0.4953 -0.3097  0.1550
  914SOL    HW1 2741   2.775   0.402   1.276 -0.4326  2.0985  0.5320
  914SOL    HW2 2742   2.761   0.558   1.361  1.1955  3.6675 -2.3204
  915SOL     OW 2743   1.203   0.788   1.038  0.0923 -0.0875 -0.0104
  915SOL    HW1 2744   1.260   0.786   1.123  1.2795 -0.9535  2.1089
  915SOL    HW2 2745   1.105   0.805   1.055  2.8436  0.8648 -0.4710
  916SOL     OW 2746   0.583   0.015   0.567 -0.6810 -0.1790 -0.4592
  916SOL    HW1 2747   0.576   0.088   0.642 -1.7046 -0.5045 -1.3961
  916SOL    HW2 2748   0.562   0.050   0.471 -0.4747  1.9639 -0.7471
  917SOL     OW 2749   2.752   2.616   1.874 -0.0270  0.3040  0.2052
  917SOL    HW1 2750   2.693   2.700   1.851  2.6413 -0.2152 -0.0650
  917SOL    HW2 2751   2.845   2.645   1.850  2.7262 -0.4015  0.4403
  918SOL     OW 2752   1.089   2.191   3.062  0.3104  0.2022 -0.4973
  918SOL    HW1 2753   1.032   2.211   3.150  0.3824  0.7306  0.6793
  918SOL    HW2 2754   1.160   2.113   3.077  3.2505  1.4826 -3.2608
  919SOL     OW 2755   0.907   1.554   2.793 -0.0128 -0.2022  1.0924
  919SOL    HW1 2756   0.891   1.639   2.736 -0.1522 -0.2958  1.2028
  919SOL    HW2 2757   0.873   1.463   2.750 -0.3609 -0.0570 -0.0240
  920SOL     OW 2758   1.202   1.995   2.467 -0.1685 -0.3430  0.2308
  920SOL    HW1 2759   1.140   2.036   2.395 -1.2368  0.7168  1.1563
  920SOL    HW2 2760   1.210   1.890   2.472  0.0048 -2.9901  3.0286
  921SOL     OW 2761   1.073   0.098   2.502  0.5333 -0.2533 -0.5133
  921SOL    HW1 2762   1.072  -0.004   2.472  1.9221 -0.2751 -3.6319
  921SOL    HW2 2763   1.022   0.154   2.438 -0.9625 -0.5819  3.4897
  922SOL     OW 2764   2.159   2.393   2.811  0.3902 -0.1085 -0.0106
  922SOL    HW1 2765   2.140   2.287   2.817 -0.5378 -1.6315  0.1129
  922SOL    HW2 2766   2.108   2.439   2.730  0.9136  0.4811  1.6397
  923SOL     OW 2767   1.243   2.705   0.198  0.3191  0.1481  0.2966
  923SOL    HW1 2768   1.307   2.758   0.258  0.1800 -0.4817 -3.0463
  923SOL    HW2 2769   1.243   2.606   0.218  2.0580  1.7504 -1.2518
  924SOL     OW 2770   2.936   1.621   0.085  0.5585  0.4524  0.5057
  924SOL    HW1 2771   2.861   1.615   0.011  0.1804 -1.0157  0.4146
  924SOL    HW2 2772   3.028   1.615   0.038 -0.5461 -2.6291 -0.4717
  925SOL     OW 2773   0.054   2.865   1.638 -0.2447 -0.3112  0.2739
  925SOL    HW1 2774  -0.020   2.929   1.680  2.1270  2.2609  1.6873
  925SOL    HW2 2775   0.054   2.872   1.534 -0.4765 -0.7265 -3.5378
  926SOL     OW 2776   1.430   2.886   1.262  0.8202 -0.0337  0.2976
  926SOL    HW1 2777   1.468   2.894   1.161  0.3712 -1.3373 -1.1387
  926SOL    HW2 2778   1.428   2.976   1.314  0.5414  0.7298 -0.8433
  927SOL     OW 2779   0.240   2.589   1.699 -0.3182 -0.2268 -0.2051
  927SOL    HW1 2780   0.225   2.492   1.665 -0.5070  0.0790 -2.0930
  927SOL    HW2 2781   0.304   2.641   1.634 -0.8492 -0.4548 -0.4114
  928SOL     OW 2782   1.620   2.043   2.129  0.4302  0.2466  0.3187
  928SOL    HW1 2783   1.648   2.134   2.081 -1.8146 -2.5616 -1.8275
  928SOL    HW2 2784   1.523   2.015   2.101 -0.7146  0.8496 -1.0935
  929SOL     OW 2785   2.448   2.405   2.879 -0.1133  0.2980  0.1754
  929SOL    HW1 2786   2.347   2.403   2.901  0.2489 -0.2236  0.5507
  929SOL    HW2 2787   2.469   2.371   2.783  2.1115  1.1500  1.4084
  930SOL     OW 2788   2.111   2.003   1.087 -0.8203  0.5479  0.8049
  930SOL    HW1 2789   2.089   1.983   1.189 -0.9447 -1.2596  0.1829
  930SOL    HW2 2790   2.193   2.065   1.073 -0.3963 -1.8922 -3.5313
  931SOL     OW 2791   0.552   1.759   2.678  0.2696  0.3303  0.4741
  931SOL    HW1 2792   0.626   1.763   2.752 -0.7708 -0.1472 -2.1256
  931SOL    HW2 2793   0.570   1.672   2.617  1.7049 -2.7082  2.5333
  932SOL     OW 2794   0.536   0.126   2.933  0.2707  0.2381 -0.3412
  932SOL    HW1 2795   0.628   0.136   2.885  1.6561  1.1462  0.2406
  932SOL    HW2 2796   0.531   0.041   2.993  1.4813  0.0921 -2.3578
  933SOL     OW 2797   1.048   0.803   2.976 -0.4017 -0.1680 -0.6440
  933SOL    HW1 2798   1.109   0.853   3.044  0.1478 -0.4451  1.3395
  933SOL    HW2 2799   1.028   0.873   2.899  1.1372  1.8315 -1.7516
  934SOL     OW 2800   0.870   2.956   2.835  0.4325 -0.2431  0.2949
  934SOL    HW1 2801   0.967   2.920   2.820 -0.9805 -1.3852 -2.3022
  934SOL    HW2 2802   0.829   2.916   2.922 -3.1645 -0.1003  3.7650
  935SOL     OW 2803   3.039   0.536   0.849  0.0237 -0.0008  0.4091
  935SOL    HW1 2804   3.036   0.452   0.784 -2.6299  0.9061 -2.7017
  935SOL    HW2 2805   2.946   0.578   0.878 -3.0205  0.1163 -0.3779
  936SOL     OW 2806   1.116   2.980   0.146 -0.3841 -0.2785 -0.1988
  936SOL    HW1 2807   1.153   3.036   0.067 -2.0515 -2.3629 -0.2483
  936SOL    HW2 2808   1.159   2.885   0.153  0.5285 -2.1358 -2.6748
  937SOL     OW 2809   1.941   2.710   2.109 -0.6986  0.2926 -0.1081
  937SOL    HW1 2810   1.854   2.729   2.169 -0.9301 -1.9398  1.6698
  937SOL    HW2 2811   1.936   2.728   2.008  1.7577 -1.7341  1.8651
  938SOL     OW 2812   2.715   2.188   1.511 -0.3016  0.0385  0.1268
  938SOL    HW1 2813   2.692   2.263   1.581 -0.9125 -0.4427  1.2405
  938SOL    HW2 2814   2.777   2.117   1.553  0.5599  1.4915 -0.5213
  939SOL     OW 2815   2.756   1.001   2.548  0.1576  0.3804  0.4436
  939SOL    HW1 2816   2.843   0.940   2.535 -1.8552 -1.6921  2.0134
  939SOL    HW2 2817   2.766   1.060   2.629  0.1696  2.9372  0.7454
  940SOL     OW 2818   1.019   0.472   2.646 -0.4500  0.2364  0.0507
  940SOL    HW1 2819   1.074   0.395   2.683 -0.3337  2.2619  1.0935
  940SOL    HW2 2820   0.925   0.446   2.618 -0.6678  0.3417 -1.0168
  941SOL     OW 2821   0.022   2.872   2.205  0.1135 -0.5453  0.7834
  941SOL    HW1 2822  -0.002   2.773   2.197 -1.8158  1.0935  1.1345
  941SOL    HW2 2823   0.097   2.890   2.275  1.0433 -0.0629 -2.0651
  942SOL     OW 2824   0.156   0.079   2.552  0.2357 -0.3120  0.6582
  942SOL    HW1 2825   0.221   0.091   2.633  1.8905 -0.6142  1.8741
  942SOL    HW2 2826   0.107   0.163   2.516 -1.1596  1.4434 -1.6872
  943SOL     OW 2827   2.121   1.655   2.395  0.2732 -0.3149 -0.2476
  943SOL    HW1 2828   2.143   1.570   2.452  3.8960 -0.8900 -1.3340
  943SOL    HW2 2829   2.023   1.629   2.358 -0.2433 -3.5138 -0.2413
  944SOL     OW 2830   2.189   2.318   1.419 -0.2343  0.4078  0.0408
  944SOL    HW1 2831   2.249   2.377   1.480 -0.8066  3.1792  1.9991
  944SOL    HW2 2832   2.139   2.251   1.477  2.0029  3.0516 -0.0987
  945SOL     OW 2833   0.598   1.411   0.334 -1.1777 -0.3117 -0.2839
  945SOL    HW1 2834   0.671   1.444   0.268 -1.5789 -0.4952 -2.1634
  945SOL    HW2 2835   0.619   1.330   0.392  1.6398  1.0767 -0.3930
  946SOL     OW 2836   0.314   0.968   2.642  0.0650 -0.0288  0.0586
  946SOL    HW1 2837   0.251   0.938   2.563  1.3891  0.3295 -0.8385
  946SOL    HW2 2838   0.357   1.055   2.614 -0.7015 -1.8767 -0.1220
  947SOL     OW 2839   1.535   0.452   0.133  0.4427  0.1329 -0.4506
  947SOL    HW1 2840   1.525   0.389   0.211  1.6921  1.6719 -0.8430
  947SOL    HW2 2841   1.471   0.428   0.056 -0.9935  0.5706 -2.2581
  948SOL     OW 2842   2.046   3.040   2.126  0.7275 -0.4382  0.1082
  948SOL    HW1 2843   1.982   3.059   2.045  1.5972 -2.3208 -1.7552
  948SOL    HW2 2844   1.998   2.980   2.196  2.8535  0.7797 -1.6322
  949SOL     OW 2845   0.690   2.543   0.426  0.0756  0.0243 -0.0396
  949SOL    HW1 2846   0.686   2.643   0.394  0.1325 -0.2977 -2.2670
  949SOL    HW2 2847   0.717   2.525   0.524  0.5504 -2.9973  0.9587
  950SOL     OW 2848   0.203   2.125   3.000 -0.4757  0.2215  0.0344
  950SOL    HW1 2849   0.112   2.172   2.999 -1.5420 -0.0177 -2.4658
  950SOL    HW2 2850   0.188   2.032   3.046  0.0589  1.1386  1.6493
  951SOL     OW 2851   1.119   2.870   2.803 -0.5259  0.8882 -0.2940
  951SOL    HW1 2852   1.116   2.838   2.709  0.8737  2.3574 -1.2872
  951SOL    HW2 2853   1.184   2.948   2.820  0.5061 -1.8500 -0.3919
  952SOL     OW 2854   0.040   1.679   0.483 -0.2302  0.0348  0.6978
  952SOL    HW1 2855   0.124   1.743   0.485  4.0035  1.9308  1.0438
  952SOL    HW2 2856  -0.010   1.671   0.570 -1.6391 -2.9196 -2.9485
  953SOL     OW 2857   2.451   1.774   0.141  0.5459 -0.2271 -0.6086
  953SOL    HW1 2858   2.448   1.679   0.180 -0.3666 -1.7653  0.5015
  953SOL    HW2 2859   2.449   1.775   0.036  0.5278  3.5026 -1.9790
  954SOL     OW 2860   2.236   0.490   1.052 -0.2744  0.0885  0.4241
  954SOL    HW1 2861   2.212   0.525   0.963  1.1854 -0.1651  2.6659
  954SOL    HW2 2862   2.343   0.478   1.056  3.2002  0.1666 -1.3234
  955SOL     OW 2863   0.220   2.677   1.228  0.3991 -0.4122 -0.4149
  955SOL    HW1 2864   0.127   2.645   1.203  1.1690 -1.0488  0.9804
  955SOL    HW2 2865   0.294   2.658   1.155  0.2720 -0.4072 -0.6057
  956SOL     OW 2866   2.773   2.483   2.501  0.4531  0.1245  0.3915
  956SOL    HW1 2867   2.799   2.381   2.504  1.5946 -2.5537  1.1158
  956SOL    HW2 2868   2.812   2.532   2.417  0.3011 -0.0909  0.1923
  957SOL     OW 2869   1.550   2.009   2.689 -0.1183  1.2659  0.4830
  957SOL    HW1 2870   1.530   1.908   2.678 -0.8595 -1.6842  0.9206
  957SOL    HW2 2871   1.601   2.039   2.606 -0.4211  0.4954  0.3720
  958SOL     OW 2872   2.653   2.266   2.973 -0.0382 -0.5117  0.3008
  958SOL    HW1 2873   2.565   2.312   2.949 -0.6389 -0.2302 -1.0711
  958SOL    HW2 2874   2.665   2.260   3.075  2.3916  0.2483 -0.4812
  959SOL     OW 2875   0.259   2.813   0.040 -0.2536  0.4319  0.2193
  959SOL    HW1 2876   0.193   2.821   0.117  2.0820 -0.2302  0.3707
  959SOL    HW2 2877   0.273   2.718  -0.000  0.4740  2.4781  0.1131
  960SOL     OW 2878   1.925   0.450   2.066 -0.0857  0.0760  0.6723
  960SOL    HW1 2879   1.893   0.537   2.018 -1.5760 -1.4536 -0.2254
  960SOL    HW2 2880   1.963   0.473   2.160  1.9968  0.8491  2.8825
  961SOL     OW 2881   2.761   2.000   1.047  0.6256  0.6075  0.5455
  961SOL    HW1 2882   2.839   2.063   1.035  1.9347  0.1548  1.5663
  961SOL    HW2 2883   2.716   2.025   1.138  0.9023  1.6052  0.9635
  962SOL     OW 2884   1.256   0.942   3.087  0.4980 -0.0723  0.0852
  962SOL    HW1 2885   1.282   1.008   3.015 -1.5903 -2.5269 -0.4007
  962SOL    HW2 2886   1.246   0.988   3.181 -0.3201 -1.4080  0.1691
  963SOL     OW 2887   2.166   2.583   1.908 -0.1918 -0.1611 -0.7123
  963SOL    HW1 2888   2.197   2.531   1.989  2.2827  0.3495  0.0693
  963SOL    HW2 2889   2.229   2.663   1.893 -1.5019  1.6068 -0.5785
  964SOL     OW 2890   2.436   0.361   1.726  0.9635  0.1700  0.1658
  964SOL    HW1 2891   2.524   0.404   1.767  0.6659  0.9751  1.0060
  964SOL    HW2 2892   2.432   0.354   1.620 -1.1419 -4.4462  0.8265
  965SOL     OW 2893   2.682   3.008   0.139  0.8643  0.0255  0.2605
  965SOL    HW1 2894   2.739   2.940   0.076  0.2071 -0.9364  0.5994
  965SOL    HW2 2895   2.600   3.040   0.081  0.1960  0.9607 -2.6869
  966SOL     OW 2896   2.519   2.609   2.226 -0.2306 -0.5776  0.0697
  966SOL    HW1 2897   2.440   2.549   2.196  1.5555 -0.9158  1.4477
  966SOL    HW2 2898   2.493   2.697   2.271 -0.3779 -2.2807  4.0387
  967SOL     OW 2899   2.724   2.864   2.481  0.0070  0.7371  0.4272
  967SOL    HW1 2900   2.786   2.801   2.425  0.7291  0.4947  1.4748
  967SOL    HW2 2901   2.759   2.956   2.501  1.5605 -0.3300 -1.4120
  968SOL     OW 2902   1.959   1.058   2.727 -0.2176  0.6373  0.5182
  968SOL    HW1 2903   1.917   1.124   2.656 -1.4931 -1.1327  1.4944
  968SOL    HW2 2904   1.987   0.960   2.696  0.4215  0.5856 -0.6633
  969SOL     OW 2905   2.735   2.387   1.185 -0.1371  0.1407  0.3301
  969SOL    HW1 2906   2.683   2.378   1.095 -1.4928 -1.2717  2.2366
  969SOL    HW2 2907   2.762   2.293   1.226 -1.7171 -0.2428  0.4849
  970SOL     OW 2908   1.099   2.084   1.801 -0.4105 -0.8234  0.6960
  970SOL    HW1 2909   0.990   2.083   1.793 -1.9589  0.9549  1.3340
  970SOL    HW2 2910   1.135   2.123   1.893 -1.3890 -0.5746 -0.7760
  971SOL     OW 2911   2.839   2.144   1.918  0.1061 -0.1298  0.1218
  971SOL    HW1 2912   2.817   2.238   1.960  0.3780  3.3111 -0.8403
  971SOL    HW2 2913   2.934   2.138   1.876  2.2349  3.8029  1.2606
  972SOL     OW 2914   2.054   2.481   0.270 -0.0679  0.2335 -0.4258
  972SOL    HW1 2915   2.027   2.410   0.200 -4.3416 -1.8850 -1.1666
  972SOL    HW2 2916   2.063   2.444   0.368  1.4297  1.3573  0.3303
  973SOL     OW 2917   1.305   1.048   1.844 -0.3962  0.5217 -0.2841
  973SOL    HW1 2918   1.235   1.012   1.779 -0.3418  0.8324 -0.3478
  973SOL    HW2 2919   1.294   1.154   1.864 -0.0811 -0.3351 -3.0062
  974SOL     OW 2920   1.632   0.567   2.018 -0.3939  0.5522  0.6653
  974SOL    HW1 2921   1.720   0.599   1.969  0.3939  0.8867 -4.0038
  974SOL    HW2 2922   1.558   0.645   2.004 -1.6950  2.8320 -2.4393
  975SOL     OW 2923   2.462   3.048   3.076 -0.2346 -0.1675 -0.5554
  975SOL    HW1 2924   2.396   3.005   3.148 -0.5948  1.5561  0.7127
  975SOL    HW2 2925   2.447   3.012   2.984 -1.0382  2.4915  0.4659
  976SOL     OW 2926   1.976   2.922   2.367  0.1217  0.2207  0.2588
  976SOL    HW1 2927   1.890   2.881   2.396 -2.8982 -0.7414 -3.0762
  976SOL    HW2 2928   2.060   2.908   2.427  0.1313 -2.1082  1.4473
  977SOL     OW 2929   0.477   0.543   0.971 -0.9563 -0.8163 -0.7729
  977SOL    HW1 2930   0.385   0.547   0.917 -0.7872  0.7645  0.5233
  977SOL    HW2 2931   0.564   0.546   0.920  0.5699  2.2709 -0.0916
   3.10000   3.10000   3.10000
