1000 SPC/Fw water molecules t=   1.33000 step= 1330
 2931
    1SOL     OW    1   2.532   0.343   2.628 -0.2441 -0.2627  0.9175
    1SOL    HW1    2   2.540   0.242   2.605 -0.1832 -3.8340  0.6840
    1SOL    HW2    3   2.596   0.375   2.704  0.1997 -2.1290 -0.3648
    2SOL     OW    4   2.760   2.992   1.370  0.2943 -0.0460  0.2075
    2SOL    HW1    5   2.841   3.004   1.307 -4.5594  1.9100  0.1689
    2SOL    HW2    6   2.745   3.074   1.429 -0.2561 -1.3014  0.1506
    3SOL     OW    7   2.632   2.577   0.429  0.4414  0.2464  0.1454
    3SOL    HW1    8   2.602   2.477   0.441  0.5908  0.6690  1.8314
    3SOL    HW2    9   2.687   2.615   0.511  2.7074 -0.7832  0.5647
    4SOL     OW   10   1.228   1.504   2.414 -0.1411 -0.7331  0.0956
    4SOL    HW1   11   1.165   1.528   2.334  0.2793 -0.3606  0.2355
    4SOL    HW2   12   1.264   1.410   2.413 -0.2115  2.0316  0.4387
    5SOL     OW   13   1.176   1.567   2.907 -0.2154 -0.0910 -0.3299
    5SOL    HW1   14   1.228   1.647   2.945 -0.7948 -0.8742 -0.7728
    5SOL    HW2   15   1.072   1.573   2.916 -2.3397 -1.8477  0.7485
    6SOL     OW   16   0.257   1.850   3.016 -0.3457  0.1601 -0.4265
    6SOL    HW1   17   0.159   1.853   3.041 -1.0273  2.2224 -2.1803
    6SOL    HW2   18   0.328   1.842   3.093 -0.4497 -1.3582  0.4980
    7SOL     OW   19   2.517   0.871   1.052 -0.5775  1.1466 -0.1685
    7SOL    HW1   20   2.437   0.819   1.093  0.5445 -0.0411  0.0478
    7SOL    HW2   21   2.557   0.817   0.971  2.3284  0.2935  2.0699
    8SOL     OW   22   0.404   0.612   1.495  0.3984  0.3665 -0.0164
    8SOL    HW1   23   0.500   0.569   1.516  1.5263  1.4306 -1.0715
    8SOL    HW2   24   0.395   0.653   1.399 -0.7655  2.5494 -1.5287
    9SOL     OW   25   1.186   0.851   2.416 -0.3748  0.0995 -0.2324
    9SOL    HW1   26   1.238   0.873   2.328 -1.6203 -2.4464 -0.2728
    9SOL    HW2   27   1.136   0.762   2.415 -1.7346 -0.2796  1.3103
   10SOL     OW   28   0.676   1.387   1.300  0.1329 -0.4026 -0.1188
   10SOL    HW1   29   0.605   1.398   1.220  0.3429 -1.1126  1.6687
   10SOL    HW2   30   0.730   1.477   1.314  0.2022  3.4403 -2.4569
   11SOL     OW   31   2.316   2.823   0.818 -0.0164 -0.2901  0.0180
   11SOL    HW1   32   2.261   2.845   0.902 -0.1383  0.1039  0.4327
   11SOL    HW2   33   2.399   2.757   0.837  1.0403  4.8150 -0.8404
   12SOL     OW   34   1.473   0.843   0.430  0.0547  0.6163  0.2337
   12SOL    HW1   35   1.423   0.884   0.347  0.8341  2.2676 -0.8696
   12SOL    HW2   36   1.529   0.763   0.401 -0.5145  0.2499 -0.7253
   13SOL     OW   37   2.413   0.740   1.756 -0.0777  0.3215  0.2709
   13SOL    HW1   38   2.351   0.673   1.803  0.1209 -2.8838 -0.7586
   13SOL    HW2   39   2.446   0.706   1.659  0.9041 -2.7328 -1.4708
   14SOL     OW   40   1.928   0.034   0.638  0.5455 -0.3371 -0.3929
   14SOL    HW1   41   1.827   0.032   0.621  0.8212 -0.9774 -2.3290
   14SOL    HW2   42   1.950  -0.048   0.701 -0.5168 -1.8565 -0.0313
   15SOL     OW   43   1.905   2.104   2.650  0.1411  0.1159 -0.3858
   15SOL    HW1   44   1.855   2.169   2.713  1.4209  0.9822 -1.5618
   15SOL    HW2   45   1.844   2.028   2.612  0.4918 -0.2588 -1.0280
   16SOL     OW   46   1.599   1.699   2.991  0.1393  0.2682  0.0506
   16SOL    HW1   47   1.588   1.603   3.028 -1.8345 -0.3617 -3.3694
   16SOL    HW2   48   1.687   1.745   3.019 -2.3963 -0.4539 -1.6333
   17SOL     OW   49   0.127   0.429   0.180 -0.2000 -0.6015 -0.3180
   17SOL    HW1   50   0.211   0.470   0.126  0.7466  0.6706  1.3448
   17SOL    HW2   51   0.041   0.429   0.121 -0.6699  0.6739  1.6324
   18SOL     OW   52   0.936   2.978   2.166  0.0026  0.5109  0.1605
   18SOL    HW1   53   0.897   2.881   2.186  1.1227  2.2682  3.5062
   18SOL    HW2   54   0.985   2.981   2.074  0.4959  1.7281 -1.6296
   19SOL     OW   55   0.518   0.837   1.890  0.6873  0.3109  0.0203
   19SOL    HW1   56   0.586   0.781   1.946  1.5822 -0.5097  0.2173
   19SOL    HW2   57   0.562   0.930   1.865  0.3753  0.6751  2.0999
   20SOL     OW   58   0.218   2.822   0.858 -0.1271  0.2948  0.2481
   20SOL    HW1   59   0.117   2.853   0.845 -0.5677  1.0050  0.3321
   20SOL    HW2   60   0.253   2.753   0.788  0.2423  3.6670  0.4322
   21SOL     OW   61   2.754   0.253   1.949  0.3348 -0.0128  0.0957
   21SOL    HW1   62   2.684   0.198   1.893  1.3729  0.6448  1.4252
   21SOL    HW2   63   2.833   0.194   1.982  1.4390 -0.9933 -0.0969
   22SOL     OW   64   2.350   0.198   0.120  0.2402  0.1348 -0.2118
   22SOL    HW1   65   2.341   0.102   0.069 -0.5599  0.3043  2.4760
   22SOL    HW2   66   2.319   0.277   0.058  1.9089  1.0629  0.9532
   23SOL     OW   67   2.802   0.549   0.660  0.1511  0.1567 -0.0814
   23SOL    HW1   68   2.820   0.468   0.593  0.4461 -0.1392  0.3082
   23SOL    HW2   69   2.841   0.637   0.622 -3.2719  1.2013  0.2994
   24SOL     OW   70   0.246   1.881   0.477 -0.2689 -0.4882 -0.2090
   24SOL    HW1   71   0.217   1.950   0.399  0.4542 -3.1381 -0.9508
   24SOL    HW2   72   0.347   1.859   0.469  0.3783  0.5301 -2.7230
   25SOL     OW   73   2.217   0.632   0.197 -0.1601  0.0668  1.1747
   25SOL    HW1   74   2.217   0.626   0.092 -2.6148 -0.4507 -0.6149
   25SOL    HW2   75   2.279   0.558   0.235 -0.4982 -0.9285 -1.8326
   26SOL     OW   76   2.451   2.155   2.100  0.0787 -0.1335  0.0445
   26SOL    HW1   77   2.527   2.226   2.130  0.8523 -0.7521 -0.0330
   26SOL    HW2   78   2.493   2.089   2.030 -0.5970 -1.2442  1.4133
   27SOL     OW   79   0.637   2.946   0.262 -0.2879  0.7284 -0.3709
   27SOL    HW1   80   0.718   2.981   0.205 -0.1800 -0.5859  0.7385
   27SOL    HW2   81   0.565   2.904   0.200 -2.0909  1.2500 -1.9410
   28SOL     OW   82   1.570   0.118   0.332  0.1153 -0.1809  0.1456
   28SOL    HW1   83   1.596   0.085   0.239  1.2140 -0.9880 -0.2834
   28SOL    HW2   84   1.604   0.216   0.346 -0.1972  0.4285 -0.3377
   29SOL     OW   85   1.949   0.561   0.275  0.3570  0.1255 -0.2772
   29SOL    HW1   86   1.875   0.600   0.339 -1.8600 -0.4021 -0.2229
   29SOL    HW2   87   2.018   0.636   0.255  2.6031  0.3639  0.4113
   30SOL     OW   88   0.185   2.087   0.873 -0.3480  0.0794 -0.3724
   30SOL    HW1   89   0.128   2.015   0.828  0.8694 -1.1170 -1.4751
   30SOL    HW2   90   0.131   2.162   0.919  0.4388 -0.0352  2.5367
   31SOL     OW   91   2.167   0.120   2.423  0.5135 -0.6155 -0.0376
   31SOL    HW1   92   2.152   0.091   2.519  2.2591  0.3181  0.9314
   31SOL    HW2   93   2.105   0.067   2.358  0.1594 -1.1310  0.8138
   32SOL     OW   94   2.962   0.025   0.258 -0.2181 -0.7332  0.0162
   32SOL    HW1   95   2.945  -0.057   0.322 -0.2939 -0.6149  2.5884
   32SOL    HW2   96   3.047   0.084   0.280 -2.0860 -2.3576 -0.7303
   33SOL     OW   97   0.897   0.282   0.606 -0.1610 -0.3173  0.1349
   33SOL    HW1   98   0.896   0.195   0.544 -0.4065 -1.6465 -0.0086
   33SOL    HW2   99   0.988   0.332   0.605  1.3573 -2.2849 -1.2046
   34SOL     OW  100   0.312   2.737   1.088 -0.4039  0.0576  0.0236
   34SOL    HW1  101   0.266   2.770   0.998 -1.9504 -0.2497  0.0951
   34SOL    HW2  102   0.407   2.779   1.099 -0.4046 -0.0588  0.2186
   35SOL     OW  103   0.055   0.113   1.876 -0.3008 -0.0080  0.3056
   35SOL    HW1  104   0.091   0.022   1.917 -0.5145  0.4517 -2.5412
   35SOL    HW2  105   0.003   0.103   1.790  3.8573 -0.7212  0.6843
   36SOL     OW  106   1.821   1.228   1.560  0.0666 -0.4508 -0.6643
   36SOL    HW1  107   1.856   1.131   1.580 -1.9709 -2.1051 -0.4477
   36SOL    HW2  108   1.876   1.287   1.496 -2.1466 -2.3746 -2.5884
   37SOL     OW  109   1.190   0.212   0.961 -0.7241 -0.5235  0.3805
   37SOL    HW1  110   1.238   0.298   1.003  1.3149  2.4295  0.8058
   37SOL    HW2  111   1.259   0.142   0.928  1.6511  0.0124  2.5422
   38SOL     OW  112   1.143   2.886   2.353 -0.2334  0.5011  0.3958
   38SOL    HW1  113   1.079   2.814   2.400 -0.5148 -2.1598  3.9397
   38SOL    HW2  114   1.088   2.969   2.334  1.7504  0.5598  1.6328
   39SOL     OW  115   2.369   1.358   3.026  0.6502  0.0066  0.1642
   39SOL    HW1  116   2.438   1.277   3.027 -0.4980  1.0573 -1.0650
   39SOL    HW2  117   2.321   1.367   3.118  0.9016  0.4646 -1.0411
   40SOL     OW  118   2.009   2.467   2.611  0.4283  0.2165  0.1633
   40SOL    HW1  119   1.996   2.567   2.594  0.8599  1.4326  1.2535
   40SOL    HW2  120   1.982   2.411   2.525  1.2603  1.7637 -0.0973
   41SOL     OW  121   3.041   0.652   2.797  0.1413  0.2533 -0.0708
   41SOL    HW1  122   2.952   0.709   2.778 -0.8993 -1.8008 -0.2585
   41SOL    HW2  123   3.049   0.566   2.738 -0.9112 -0.8119  1.4470
   42SOL     OW  124   1.765   1.784   0.544  0.2649 -0.2063 -0.1825
   42SOL    HW1  125   1.690   1.713   0.521 -2.7108  0.2452  2.6356
   42SOL    HW2  126   1.811   1.819   0.461 -1.2123 -2.0216 -0.2783
   43SOL     OW  127   0.474   1.669   1.254  0.2390  0.3024  0.8593
   43SOL    HW1  128   0.445   1.588   1.199 -0.8637  0.8905 -0.7241
   43SOL    HW2  129   0.421   1.673   1.342  0.8047  2.2590 -2.6011
   44SOL     OW  130   1.674   2.409   3.021 -0.2687  0.6048 -0.0679
   44SOL    HW1  131   1.586   2.460   2.990 -1.6522 -1.0539  1.7296
   44SOL    HW2  132   1.750   2.407   2.947  1.4849 -0.0680  0.4070
   45SOL     OW  133   0.383   1.903   2.571  0.2438 -0.0313  0.1008
   45SOL    HW1  134   0.320   1.882   2.490  0.2880  0.5153 -1.4834
   45SOL    HW2  135   0.438   1.822   2.607  0.4235  2.7021  1.9725
   46SOL     OW  136   1.305   0.648   0.156 -0.0338 -0.0509  0.8230
   46SOL    HW1  137   1.288   0.742   0.115  0.5185  0.3844  0.3073
   46SOL    HW2  138   1.220   0.589   0.164  2.2230  0.7840 -1.2885
   47SOL     OW  139   0.191   2.492   1.595 -0.0341 -0.2099  0.2609
   47SOL    HW1  140   0.140   2.403   1.592 -1.5626 -0.5586  0.5014
   47SOL    HW2  141   0.224   2.531   1.501  2.3161  2.7148 -0.2764
   48SOL     OW  142   2.624   0.611   0.141  0.2696 -0.2359  0.0454
   48SOL    HW1  143   2.603   0.617   0.245 -0.0821 -0.5674 -0.1486
   48SOL    HW2  144   2.724   0.647   0.118  0.2854  1.3505  1.6944
   49SOL     OW  145   0.321   0.760   1.720 -0.6829 -0.0649  0.6730
   49SOL    HW1  146   0.403   0.761   1.788  1.5068 -0.2244 -0.4838
   49SOL    HW2  147   0.338   0.715   1.628 -0.9605 -1.0353  2.5327
   50SOL     OW  148   1.714   1.136   0.308  0.3449  0.2512 -0.5068
   50SOL    HW1  149   1.750   1.041   0.288  0.6425  3.0891 -0.7551
   50SOL    HW2  150   1.688   1.151   0.408  1.6741 -0.0154 -1.7839
   51SOL     OW  151   3.017   1.743   0.260  0.3584  0.5595  0.3235
   51SOL    HW1  152   2.965   1.662   0.223  0.6664  1.3653 -0.6046
   51SOL    HW2  153   3.083   1.714   0.338  0.2031  1.4484  1.0673
   52SOL     OW  154   0.821   2.152   0.639 -0.2127  0.0359  0.1317
   52SOL    HW1  155   0.722   2.167   0.650  1.8798 -1.2791 -1.2439
   52SOL    HW2  156   0.856   2.063   0.689  0.5684 -1.9856  1.0383
   53SOL     OW  157   0.178   0.458   1.569 -0.2568 -0.9772  0.2809
   53SOL    HW1  158   0.252   0.531   1.572 -1.0381 -0.4357  3.8832
   53SOL    HW2  159   0.100   0.481   1.509  2.5225 -0.1440  2.1192
   54SOL     OW  160   1.800   0.500   3.055 -0.4918  0.0022  0.0019
   54SOL    HW1  161   1.867   0.443   3.115 -0.7720 -0.2234  0.6229
   54SOL    HW2  162   1.704   0.515   3.095 -0.3914  0.2764  2.9195
   55SOL     OW  163   0.733   2.891   0.709 -0.3372 -0.1965 -0.2416
   55SOL    HW1  164   0.679   2.983   0.707 -0.1297  2.3146  0.4935
   55SOL    HW2  165   0.836   2.911   0.699  2.2643  1.0973 -0.9443
   56SOL     OW  166   0.574   1.623   0.023  0.0853 -0.2252 -0.3370
   56SOL    HW1  167   0.497   1.660   0.086 -0.5438 -0.9777  1.7491
   56SOL    HW2  168   0.548   1.540  -0.039  1.6403 -0.7825 -0.4142
   57SOL     OW  169   1.754   2.503   2.412  0.3299 -0.2645  0.1856
   57SOL    HW1  170   1.791   2.406   2.405 -0.6019 -0.4331  0.1040
   57SOL    HW2  171   1.667   2.506   2.465  3.9615  0.9625 -1.8370
   58SOL     OW  172   0.648   0.261   1.129 -0.0690  0.5931  0.2471
   58SOL    HW1  173   0.563   0.277   1.182 -1.3496  0.3963 -0.0377
   58SOL    HW2  174   0.687   0.171   1.160 -0.0240  0.4165  0.3999
   59SOL     OW  175   0.415   2.406   2.736  0.1121  0.0818 -0.2814
   59SOL    HW1  176   0.386   2.324   2.676  1.2923  2.3944  0.0102
   59SOL    HW2  177   0.495   2.391   2.796  0.0449  1.6265 -0.6443
   60SOL     OW  178   2.312   2.130   2.339 -1.0148  0.1788  0.0382
   60SOL    HW1  179   2.384   2.165   2.267 -1.0826 -0.3313 -0.1669
   60SOL    HW2  180   2.314   2.184   2.429  0.6403 -1.2935 -0.1776
   61SOL     OW  181   1.217   0.631   0.444 -0.0264  0.4385  0.8111
   61SOL    HW1  182   1.130   0.680   0.481  0.6616 -0.9145  1.6818
   61SOL    HW2  183   1.252   0.678   0.354  1.5871  0.9272 -2.4309
   62SOL     OW  184   2.716   1.719   2.806  0.2759  0.3833 -0.9705
   62SOL    HW1  185   2.676   1.766   2.724 -2.0796 -1.4216 -1.4263
   62SOL    HW2  186   2.813   1.683   2.797 -1.1241  2.0639 -0.4363
   63SOL     OW  187   0.558   0.895   0.195 -0.1691  0.0098 -0.4282
   63SOL    HW1  188   0.629   0.934   0.129 -0.7199  1.1498 -0.0151
   63SOL    HW2  189   0.600   0.858   0.283 -2.0414  0.3539 -0.2769
   64SOL     OW  190   3.047   0.535   2.365  0.1800 -0.0764 -0.2125
   64SOL    HW1  191   2.978   0.578   2.433  0.5775 -0.9096 -0.3741
   64SOL    HW2  192   3.066   0.609   2.287 -0.8807  0.3725 -1.9213
   65SOL     OW  193   0.216   1.454   0.695 -0.1310  0.0791  0.4579
   65SOL    HW1  194   0.233   1.503   0.787 -1.5266 -1.3232 -0.9391
   65SOL    HW2  195   0.298   1.472   0.636  0.4647 -0.4224 -0.8142
   66SOL     OW  196   2.528   0.385   0.530  0.3843  0.2132  0.0200
   66SOL    HW1  197   2.631   0.358   0.533  3.7825 -0.1502 -2.2490
   66SOL    HW2  198   2.469   0.326   0.589  1.0435 -0.9053 -0.9552
   67SOL     OW  199   0.636   2.491   1.434  0.5436  0.1405  0.7682
   67SOL    HW1  200   0.710   2.453   1.498  0.3704 -1.3811 -2.1267
   67SOL    HW2  201   0.544   2.444   1.439 -1.6084  0.2038 -1.2152
   68SOL     OW  202   1.001   1.052   2.514 -0.2381  0.8229 -0.5706
   68SOL    HW1  203   1.070   0.977   2.500 -2.0533  1.3971  4.6192
   68SOL    HW2  204   0.931   1.064   2.436  0.7527  2.8079  1.8335
   69SOL     OW  205   0.753   2.736   2.215  0.3722 -0.2979 -0.0404
   69SOL    HW1  206   0.781   2.644   2.180 -1.7154 -0.3882 -1.1674
   69SOL    HW2  207   0.648   2.742   2.212 -1.5119 -1.0171  0.8772
   70SOL     OW  208   0.452   0.113   2.533 -0.0889 -0.1541 -0.3415
   70SOL    HW1  209   0.373   0.120   2.602 -2.7890  0.5236  2.1960
   70SOL    HW2  210   0.511   0.030   2.561 -0.2433 -0.3904  1.0330
   71SOL     OW  211   1.140   1.791   0.335 -0.8335  0.1914 -0.8184
   71SOL    HW1  212   1.091   1.729   0.409 -2.6108 -2.6641 -0.3334
   71SOL    HW2  213   1.082   1.806   0.252  0.4772  2.6182  1.8525
   72SOL     OW  214   1.820   0.185   2.179 -0.1014  0.0161  0.1752
   72SOL    HW1  215   1.874   0.271   2.181  1.6868 -0.3822 -2.1745
   72SOL    HW2  216   1.870   0.104   2.127  2.4279 -0.9873 -0.2157
   73SOL     OW  217   2.804   2.166   2.372 -0.1403  0.0852 -0.0010
   73SOL    HW1  218   2.756   2.073   2.354 -0.8174 -0.3525  0.6507
   73SOL    HW2  219   2.836   2.173   2.473  0.0756  1.1728  0.3450
   74SOL     OW  220   2.660   2.867   2.175  0.1291  0.0664 -0.0743
   74SOL    HW1  221   2.645   2.840   2.272  0.0592 -1.9582  0.7058
   74SOL    HW2  222   2.762   2.902   2.165 -0.8823  0.9340  0.6069
   75SOL     OW  223   0.955   0.846   1.059  0.1239 -0.1626 -0.3468
   75SOL    HW1  224   0.864   0.878   1.020  0.1819 -2.7288 -0.5758
   75SOL    HW2  225   0.992   0.884   1.146  0.3035 -2.5674 -0.1544
   76SOL     OW  226   1.835   1.227   2.440  0.8306  0.5659 -0.2956
   76SOL    HW1  227   1.741   1.234   2.488 -0.7307 -0.9631 -0.9794
   76SOL    HW2  228   1.868   1.324   2.422  3.6575 -1.4453 -2.5249
   77SOL     OW  229   2.932   0.927   1.035 -0.3718  0.4316 -0.2282
   77SOL    HW1  230   2.908   0.827   1.015 -0.2566  0.0839  2.2508
   77SOL    HW2  231   3.008   0.941   1.105 -2.4867  1.1673 -1.6381
   78SOL     OW  232   2.010   1.406   1.419 -0.0149 -0.3233 -0.9388
   78SOL    HW1  233   2.110   1.432   1.420  0.4251 -1.6072  0.9084
   78SOL    HW2  234   1.974   1.424   1.324  0.5748 -1.3250 -0.1642
   79SOL     OW  235   0.656   1.421   0.796  0.2907 -0.1427 -0.5084
   79SOL    HW1  236   0.557   1.413   0.835 -0.9837 -0.4299  3.3380
   79SOL    HW2  237   0.690   1.342   0.741  2.5898 -1.1213 -3.2578
   80SOL     OW  238   0.632   0.498   1.504 -0.7804  0.3470 -0.0183
   80SOL    HW1  239   0.696   0.569   1.461  1.0506  1.9165  1.9663
   80SOL    HW2  240   0.642   0.402   1.468 -1.2228 -1.4035 -2.9353
   81SOL     OW  241   0.996   1.311   2.605 -0.1496 -0.2405 -0.2635
   81SOL    HW1  242   1.004   1.209   2.579 -0.2165 -2.0468 -1.4417
   81SOL    HW2  243   0.939   1.365   2.539  0.6812  2.0763 -1.6664
   82SOL     OW  244   0.992   2.862   1.529  0.5442 -0.7006  0.6525
   82SOL    HW1  245   0.961   2.773   1.487  0.9398 -2.2639  1.1974
   82SOL    HW2  246   1.025   2.935   1.464 -1.4200  0.9970 -2.0155
   83SOL     OW  247   2.555   2.374   0.875 -0.1417  0.2371  0.1926
   83SOL    HW1  248   2.474   2.311   0.864 -3.4822 -2.0921 -1.0108
   83SOL    HW2  249   2.537   2.466   0.828 -0.8502  1.0872  2.9545
   84SOL     OW  250   0.720   0.017   2.372  0.1195 -0.0847 -0.0196
   84SOL    HW1  251   0.690  -0.035   2.456  3.6752 -2.4336  0.2456
   84SOL    HW2  252   0.795  -0.035   2.316  0.8596  0.9632 -1.5724
   85SOL     OW  253   0.282   1.638   1.433  0.3364  0.5511  0.0906
   85SOL    HW1  254   0.233   1.731   1.440  1.0707 -0.2774 -3.2332
   85SOL    HW2  255   0.312   1.602   1.529  1.3055 -2.4483  0.5344
   86SOL     OW  256   0.438   1.052   1.509 -0.2912  0.2041  0.7833
   86SOL    HW1  257   0.381   0.992   1.449  0.3951  0.9528  1.9697
   86SOL    HW2  258   0.533   1.017   1.528 -0.0751  1.0513 -0.4866
   87SOL     OW  259   1.660   0.673   0.272 -0.5159 -0.3769 -0.1979
   87SOL    HW1  260   1.707   0.757   0.259  0.4779 -0.6714 -0.8840
   87SOL    HW2  261   1.608   0.647   0.189  1.0610  1.6109 -0.2307
   88SOL     OW  262   1.549   1.357   0.254  1.1738  0.2956 -0.2002
   88SOL    HW1  263   1.603   1.268   0.260  1.0107 -0.3986  0.6304
   88SOL    HW2  264   1.445   1.345   0.241 -0.8220 -1.6378  0.9564
   89SOL     OW  265   3.073   0.293   0.618  0.2987 -0.3920  0.2619
   89SOL    HW1  266   3.144   0.222   0.600 -1.4949  2.1502  3.2014
   89SOL    HW2  267   2.981   0.266   0.588 -0.8533 -0.7343  0.3843
   90SOL     OW  268   0.819   1.584   0.120 -0.5876  0.0387  0.4429
   90SOL    HW1  269   0.854   1.488   0.105  1.4639  1.9497  0.1101
   90SOL    HW2  270   0.722   1.604   0.079 -2.5400  0.6249 -1.6230
   91SOL     OW  271   1.209   1.459   1.762  0.1128  0.3065  0.4224
   91SOL    HW1  272   1.170   1.524   1.834 -1.6596  0.1900 -0.5742
   91SOL    HW2  273   1.303   1.412   1.790  2.4220 -1.1655 -0.2290
   92SOL     OW  274   0.012   0.954   1.232  0.0669  0.1181  0.0218
   92SOL    HW1  275   0.068   1.016   1.171  0.9115 -3.4513  0.2232
   92SOL    HW2  276   0.026   0.967   1.333  1.7240 -0.9241 -1.6746
   93SOL     OW  277   3.085   2.717   0.032  0.1041  0.1708  0.0294
   93SOL    HW1  278   3.052   2.713  -0.067 -1.8642  1.4175  1.2725
   93SOL    HW2  279   3.088   2.630   0.086  0.8068  2.4236 -0.3477
   94SOL     OW  280   1.493   1.431   1.765 -0.0802 -0.6181 -0.3623
   94SOL    HW1  281   1.568   1.361   1.791  2.1085  0.0214 -0.6189
   94SOL    HW2  282   1.517   1.530   1.783  0.0565 -2.0423 -1.4968
   95SOL     OW  283   1.409   2.508   2.962 -0.3735 -0.0501 -0.2345
   95SOL    HW1  284   1.314   2.543   3.001 -0.2798  2.1938 -1.8147
   95SOL    HW2  285   1.402   2.413   2.921 -1.3864 -1.2934  3.3379
   96SOL     OW  286   0.565   2.104   1.309 -0.2007  0.4066 -0.2381
   96SOL    HW1  287   0.507   2.040   1.250 -1.2661 -1.9090 -0.5064
   96SOL    HW2  288   0.636   2.054   1.368  0.0744  0.3766  0.9713
   97SOL     OW  289   0.303   1.611   2.446  0.2717  0.0234 -0.3314
   97SOL    HW1  290   0.266   1.666   2.368 -1.3142  0.5713  0.6438
   97SOL    HW2  291   0.246   1.606   2.534  1.1514 -1.7126 -0.7874
   98SOL     OW  292   2.165   1.609   1.200  0.1228  0.4528  0.0652
   98SOL    HW1  293   2.064   1.586   1.186  0.2674  2.1617 -1.9179
   98SOL    HW2  294   2.238   1.555   1.146  0.4632 -1.8631 -0.6152
   99SOL     OW  295   2.570   2.104   1.300  0.0774  0.5973  0.3666
   99SOL    HW1  296   2.627   2.129   1.386 -1.7661  0.0584  0.4768
   99SOL    HW2  297   2.544   2.002   1.293 -0.7304 -1.5710  0.8004
  100SOL     OW  298   2.303   0.411   2.105 -0.0501  0.0858  0.2142
  100SOL    HW1  299   2.261   0.366   2.190  1.7603 -2.7158  1.4519
  100SOL    HW2  300   2.404   0.424   2.114  0.8565  1.6271  0.4088
  101SOL     OW  301   0.393   1.537   0.503  0.2284  0.2319  0.1728
  101SOL    HW1  302   0.416   1.593   0.582  0.7344 -4.2524  0.3358
  101SOL    HW2  303   0.474   1.505   0.447 -1.7737  1.1476 -0.8252
  102SOL     OW  304   2.301   1.070   0.824  0.1005  0.3377 -0.2680
  102SOL    HW1  305   2.238   0.994   0.789  2.7546 -1.1761 -0.6602
  102SOL    HW2  306   2.397   1.061   0.784 -2.5935  0.6740  1.0783
  103SOL     OW  307   2.234   0.103   0.356  0.1373 -0.6876 -0.7050
  103SOL    HW1  308   2.273   0.150   0.272  0.8169 -0.5630  2.3245
  103SOL    HW2  309   2.302   0.064   0.424  0.0008 -2.0857 -1.0134
  104SOL     OW  310   0.044   1.896   2.092 -0.1696 -0.6376 -0.1679
  104SOL    HW1  311   0.084   1.865   2.002  1.6279  0.8162  1.7496
  104SOL    HW2  312  -0.058   1.928   2.087 -0.0989  3.7438 -0.1525
  105SOL     OW  313   1.271   2.105   0.800  0.5468 -0.1859 -0.5286
  105SOL    HW1  314   1.216   2.139   0.719  1.4706  0.2647 -1.7320
  105SOL    HW2  315   1.296   2.005   0.784  1.7679 -2.4926 -1.1626
  106SOL     OW  316   2.070   0.381   1.417 -0.1926  0.5818 -0.4096
  106SOL    HW1  317   2.014   0.300   1.443  1.9369  1.0832 -1.1532
  106SOL    HW2  318   2.078   0.450   1.490  1.7056 -0.0177 -1.7381
  107SOL     OW  319   1.979   2.939   1.180  0.4566  0.2841  0.6965
  107SOL    HW1  320   1.923   3.016   1.226 -2.2209 -1.1640 -1.1984
  107SOL    HW2  321   1.917   2.860   1.144  0.0812 -0.1060 -3.1966
  108SOL     OW  322   0.866   2.839   1.168  0.6050 -0.0846 -0.3865
  108SOL    HW1  323   0.872   2.742   1.206 -1.6664  1.2548  1.1522
  108SOL    HW2  324   0.951   2.895   1.194 -1.1303  0.6004  3.3731
  109SOL     OW  325   2.160   0.150   0.780 -0.0300  0.0089  0.0108
  109SOL    HW1  326   2.063   0.130   0.748 -0.6391  2.0620  0.5081
  109SOL    HW2  327   2.179   0.105   0.873 -1.1075 -1.0651 -0.2902
  110SOL     OW  328   0.474   2.795   2.767 -0.3547  0.1291  0.5345
  110SOL    HW1  329   0.460   2.769   2.664 -0.0973  1.5636 -2.3859
  110SOL    HW2  330   0.531   2.726   2.812  2.2018  0.1249  0.0464
  111SOL     OW  331   1.297   0.502   2.337  0.0069 -0.0448 -0.3865
  111SOL    HW1  332   1.199   0.522   2.357 -0.9821 -0.2571 -0.2574
  111SOL    HW2  333   1.346   0.457   2.421  1.5652 -0.0575  2.3325
  112SOL     OW  334   1.771   0.427   1.482  0.1586 -0.3730  0.2020
  112SOL    HW1  335   1.729   0.439   1.384  2.8772 -0.4987  0.1857
  112SOL    HW2  336   1.700   0.410   1.557 -1.7376 -1.5907  1.0923
  113SOL     OW  337   2.386   1.702   1.721  0.5111 -0.1334 -0.2340
  113SOL    HW1  338   2.422   1.608   1.729  0.5231 -0.6372 -0.9149
  113SOL    HW2  339   2.419   1.764   1.794  0.1081 -1.6764  1.9105
  114SOL     OW  340   0.305   0.514   1.193 -0.6430 -0.1435  0.0337
  114SOL    HW1  341   0.363   0.558   1.114 -1.2108 -2.6393  0.8894
  114SOL    HW2  342   0.238   0.581   1.230  0.7986 -0.2887 -1.4181
  115SOL     OW  343   2.790   1.533   1.283  0.0894 -0.8076 -0.3454
  115SOL    HW1  344   2.734   1.443   1.294  0.0553 -1.6195  0.0538
  115SOL    HW2  345   2.870   1.519   1.216  0.8334 -2.0909 -5.8432
  116SOL     OW  346   1.892   0.971   0.669  0.7450 -0.5509  0.0186
  116SOL    HW1  347   1.796   0.957   0.703  1.0219 -0.2322  0.9820
  116SOL    HW2  348   1.906   1.073   0.682 -3.8538 -0.4138  1.1681
  117SOL     OW  349   1.144   0.371   0.569 -0.7143 -0.1045  0.2597
  117SOL    HW1  350   1.172   0.475   0.583  0.7542  1.6998 -1.8918
  117SOL    HW2  351   1.119   0.354   0.472 -0.3817 -0.5078 -0.3046
  118SOL     OW  352   1.090   1.212   1.120  0.2964 -0.3291  0.1222
  118SOL    HW1  353   1.072   1.140   1.193  0.4799  0.3257  2.3533
  118SOL    HW2  354   1.105   1.303   1.167 -0.6431  1.3026 -0.3302
  119SOL     OW  355   1.855   1.605   2.188  0.1814 -0.2035  0.6724
  119SOL    HW1  356   1.816   1.691   2.138 -2.0776  1.4921 -0.9783
  119SOL    HW2  357   1.951   1.582   2.156 -0.3181  0.1767  0.5875
  120SOL     OW  358   2.904   2.802   0.242  0.0247 -0.0789 -0.0565
  120SOL    HW1  359   2.993   2.798   0.185  2.1985  2.0598  0.1869
  120SOL    HW2  360   2.818   2.758   0.197 -0.2226 -1.9668 -1.6963
  121SOL     OW  361   1.856   0.720   2.146 -0.2137  0.3197 -0.1375
  121SOL    HW1  362   1.906   0.769   2.070 -0.8444  1.7250  0.6646
  121SOL    HW2  363   1.881   0.619   2.151  0.2068  0.8318  1.8623
  122SOL     OW  364   2.601   2.502   1.343 -0.2532 -0.4305 -0.0544
  122SOL    HW1  365   2.573   2.497   1.241 -0.6008 -2.0796  0.0153
  122SOL    HW2  366   2.635   2.416   1.387 -0.8007  3.1400 -0.3756
  123SOL     OW  367   1.731   0.113   1.706 -0.5603  0.6740  0.3908
  123SOL    HW1  368   1.748   0.016   1.669 -1.4815 -3.8584  0.3297
  123SOL    HW2  369   1.821   0.159   1.725  0.5564  0.0637 -1.3626
  124SOL     OW  370   3.052   0.475   1.098 -0.2402 -0.2543  0.6084
  124SOL    HW1  371   2.953   0.472   1.135 -0.7288  0.6819  0.9236
  124SOL    HW2  372   3.067   0.534   1.011  0.6538  1.2699 -1.3560
  125SOL     OW  373   0.897   1.918   0.762  0.5071 -0.2605 -0.2334
  125SOL    HW1  374   0.969   1.843   0.772 -2.1871  0.1215  0.2108
  125SOL    HW2  375   0.836   1.931   0.846 -2.6628  0.5747  1.6658
  126SOL     OW  376   1.955   2.275   2.411  0.5454 -0.4704  0.7648
  126SOL    HW1  377   1.986   2.239   2.318  0.2584  0.0634  2.1335
  126SOL    HW2  378   1.954   2.191   2.476 -2.5877 -0.1133 -1.2134
  127SOL     OW  379   0.897   0.977   0.195 -0.0311  0.1329  0.2594
  127SOL    HW1  380   0.912   0.977   0.295 -1.8104  0.0921 -1.4465
  127SOL    HW2  381   0.872   0.884   0.155  1.8373  0.4135  0.9849
  128SOL     OW  382   0.952   0.278   1.420 -0.7627 -0.1114 -0.2014
  128SOL    HW1  383   0.914   0.345   1.342  3.1823  2.1555 -1.6411
  128SOL    HW2  384   0.892   0.189   1.431  0.2758 -2.7797  2.8203
  129SOL     OW  385   1.869   0.659   1.856  0.3896  0.0365 -0.3525
  129SOL    HW1  386   1.898   0.665   1.759  1.4056  1.7772  0.4465
  129SOL    HW2  387   1.869   0.749   1.902 -1.1904 -4.3306  0.0507
  130SOL     OW  388   1.418   2.246   1.008 -0.0124  0.1751 -0.3774
  130SOL    HW1  389   1.379   2.228   0.914  1.4048  3.2775 -0.5912
  130SOL    HW2  390   1.492   2.324   1.006 -0.8289  1.6015  1.2571
  131SOL     OW  391   3.046   1.365   1.352  0.1181  0.8880  0.2093
  131SOL    HW1  392   2.986   1.290   1.396 -3.4749  0.0287 -1.2847
  131SOL    HW2  393   3.148   1.337   1.345  4.0429  0.9976  0.4983
  132SOL     OW  394   2.045   2.383   0.506  0.4687 -0.1781  0.1724
  132SOL    HW1  395   1.942   2.399   0.493 -0.4566  0.8736  0.8668
  132SOL    HW2  396   2.065   2.315   0.580 -0.2357  3.7093 -0.0454
  133SOL     OW  397   1.777   2.339   2.741  0.3504  0.1193 -0.1115
  133SOL    HW1  398   1.700   2.316   2.676  2.9416  0.5573 -3.5918
  133SOL    HW2  399   1.864   2.372   2.694 -1.8086  0.4920 -1.4991
  134SOL     OW  400   2.677   2.370   1.589  0.1808  0.4640  0.2859
  134SOL    HW1  401   2.622   2.349   1.674  0.0831 -2.3494 -0.4849
  134SOL    HW2  402   2.760   2.432   1.597 -0.3055  2.2412  1.6624
  135SOL     OW  403   0.690   1.459   2.658 -0.1291 -0.4116  0.6023
  135SOL    HW1  404   0.702   1.360   2.686 -0.0154  0.3457 -0.4807
  135SOL    HW2  405   0.668   1.478   2.561  1.6610 -1.7985  3.0326
  136SOL     OW  406   1.206   2.015   0.459  0.3950 -0.2017 -0.7433
  136SOL    HW1  407   1.130   2.087   0.468  0.1695  1.0710 -0.0184
  136SOL    HW2  408   1.176   1.930   0.406  1.2482 -0.6438  1.7934
  137SOL     OW  409   0.406   1.210   2.251 -0.3428 -0.1867 -0.3683
  137SOL    HW1  410   0.304   1.210   2.259  3.3743  0.5442 -0.9700
  137SOL    HW2  411   0.445   1.115   2.260 -0.8949 -0.8509 -0.0581
  138SOL     OW  412   2.447   1.541   0.300 -0.3657  0.7106  0.6384
  138SOL    HW1  413   2.388   1.473   0.249 -0.6342 -0.8161 -1.1598
  138SOL    HW2  414   2.524   1.490   0.349  1.2464 -0.6925  1.2858
  139SOL     OW  415   1.857   2.624   1.503 -0.5969  0.3144  0.0720
  139SOL    HW1  416   1.778   2.653   1.439 -1.5753  0.0529  2.7604
  139SOL    HW2  417   1.894   2.530   1.477  0.3680  2.3024  0.1565
  140SOL     OW  418   3.008   2.995   2.593 -0.1045 -0.2554  0.2918
  140SOL    HW1  419   3.049   2.899   2.590 -1.0178 -0.2249 -0.2759
  140SOL    HW2  420   3.069   3.068   2.558 -1.4833 -2.7752  2.7226
  141SOL     OW  421   1.333   1.635   1.578  0.3781  0.0998 -0.5477
  141SOL    HW1  422   1.256   1.706   1.568  0.2471  0.4390  1.7404
  141SOL    HW2  423   1.296   1.543   1.610  0.9716  0.5316  1.4216
  142SOL     OW  424   1.511   0.608   2.246 -0.2988  0.0890 -0.7251
  142SOL    HW1  425   1.533   0.606   2.143  1.3069  0.4173 -1.9295
  142SOL    HW2  426   1.420   0.568   2.276 -1.4310  1.3619 -1.8618
  143SOL     OW  427   2.766   0.809   0.552  0.1708 -0.7288  0.3931
  143SOL    HW1  428   2.806   0.869   0.483  0.4026  0.4763  0.1136
  143SOL    HW2  429   2.771   0.850   0.647 -2.2977  0.8189 -1.8775
  144SOL     OW  430   2.901   1.168   1.489  0.1880  0.4255 -0.0925
  144SOL    HW1  431   2.856   1.168   1.586 -0.8234  1.1899  0.2720
  144SOL    HW2  432   2.974   1.093   1.477 -1.8971 -1.2477 -3.1933
  145SOL     OW  433   0.948   1.821   0.127 -0.0623 -0.1661 -0.0998
  145SOL    HW1  434   0.899   1.871   0.054 -1.4475 -1.8888 -0.1314
  145SOL    HW2  435   0.910   1.724   0.141  1.9610  0.5504  2.2998
  146SOL     OW  436   2.441   0.668   1.483  0.0492 -0.1035  0.1503
  146SOL    HW1  437   2.429   0.584   1.429  0.0475 -0.2065  1.6649
  146SOL    HW2  438   2.393   0.753   1.450  2.1874  1.2558  1.0986
  147SOL     OW  439   1.089   2.506   0.581  0.0392  0.4024 -0.2079
  147SOL    HW1  440   1.027   2.540   0.509  0.6087  0.7751 -0.1925
  147SOL    HW2  441   1.189   2.492   0.551  0.6181  0.9310  2.3186
  148SOL     OW  442   1.603   1.453   0.016 -0.6580  0.2259  0.2948
  148SOL    HW1  443   1.585   1.362  -0.030 -2.0893 -0.9357  0.5481
  148SOL    HW2  444   1.582   1.448   0.118 -0.6806 -0.5821  1.0635
  149SOL     OW  445   0.671   1.500   1.949  0.5741 -0.5915 -0.1606
  149SOL    HW1  446   0.584   1.465   2.000  1.0714 -0.2508  2.4870
  149SOL    HW2  447   0.700   1.435   1.871  0.4883  0.2276 -2.3596
  150SOL     OW  448   3.030   1.220   0.969  0.1585 -0.1763  0.3791
  150SOL    HW1  449   3.116   1.214   1.020  0.3519 -0.2432 -1.2460
  150SOL    HW2  450   2.979   1.132   0.969  2.4908 -1.4763 -0.6235
  151SOL     OW  451   0.233   0.808   2.070  1.2528  0.4218 -0.5290
  151SOL    HW1  452   0.238   0.894   2.013  2.8662 -1.5808 -2.1816
  151SOL    HW2  453   0.273   0.725   2.023 -1.9379  1.1081  0.8543
  152SOL     OW  454   1.436   1.788   1.190  0.0813  0.9527 -0.5828
  152SOL    HW1  455   1.491   1.877   1.184 -0.3975  0.2901 -1.2711
  152SOL    HW2  456   1.340   1.803   1.162  0.3936  0.4292 -0.2858
  153SOL     OW  457   0.198   1.520   0.204  0.1469  0.3577  0.0789
  153SOL    HW1  458   0.170   1.418   0.190 -1.7054 -0.9868 -2.1171
  153SOL    HW2  459   0.178   1.556   0.303  0.7007 -1.7153  1.4203
  154SOL     OW  460   2.301   1.890   2.785 -0.3401 -0.7111 -0.2814
  154SOL    HW1  461   2.313   1.788   2.790  0.1509 -2.0087 -0.9046
  154SOL    HW2  462   2.382   1.934   2.739 -2.6251  1.0600  1.9674
  155SOL     OW  463   2.477   1.250   0.362 -0.9073 -0.1000 -0.2195
  155SOL    HW1  464   2.551   1.245   0.292 -1.3620 -1.1893 -1.6856
  155SOL    HW2  465   2.405   1.178   0.345 -0.5271  1.0839 -1.5796
  156SOL     OW  466   2.461   0.832   0.744  0.2434 -0.1784 -0.0095
  156SOL    HW1  467   2.363   0.801   0.731 -0.3457  2.3258  1.3052
  156SOL    HW2  468   2.491   0.879   0.660 -0.8609 -1.2941 -2.2734
  157SOL     OW  469   1.240   2.982   3.003 -0.0468 -0.6452  0.4735
  157SOL    HW1  470   1.300   2.937   2.936 -2.5156 -0.9425  0.8263
  157SOL    HW2  471   1.263   3.084   3.026 -0.5598 -2.1031  2.9248
  158SOL     OW  472   1.002   1.870   1.838  0.2968 -0.0169 -0.3146
  158SOL    HW1  473   1.032   1.969   1.830 -1.9957  2.1420  0.8467
  158SOL    HW2  474   0.916   1.870   1.898 -0.3883 -0.3035 -0.8871
  159SOL     OW  475   0.864   0.423   1.221  0.0521 -0.1152 -0.0400
  159SOL    HW1  476   0.846   0.520   1.254 -0.7077  1.5874  0.4618
  159SOL    HW2  477   0.789   0.383   1.154  2.6092 -1.7011 -1.6055
  160SOL     OW  478   1.365   2.444   1.525 -0.0560 -0.7502 -0.0275
  160SOL    HW1  479   1.314   2.374   1.581 -0.7065  1.5998  1.6356
  160SOL    HW2  480   1.463   2.417   1.495  2.2243  1.9387 -3.2658
  161SOL     OW  481   3.062   2.724   0.465  0.0036 -0.9892  0.3861
  161SOL    HW1  482   3.016   2.636   0.501 -1.3343 -2.4366  2.5562
  161SOL    HW2  483   3.001   2.761   0.386 -1.0128  0.0495 -3.2537
  162SOL     OW  484   2.571   1.807   0.474  0.4220 -0.1715  0.0682
  162SOL    HW1  485   2.560   1.778   0.379 -3.1731  2.1281  1.6041
  162SOL    HW2  486   2.498   1.763   0.533 -2.4110  3.5110 -2.4758
  163SOL     OW  487   1.947   2.664   0.762 -0.4315 -0.1658 -0.0240
  163SOL    HW1  488   1.924   2.643   0.662  2.1372 -0.3084  0.1588
  163SOL    HW2  489   2.044   2.634   0.779 -0.9646 -0.4662  2.3392
  164SOL     OW  490   3.060   0.244   1.258 -0.1549 -0.0069 -0.6630
  164SOL    HW1  491   3.097   0.329   1.209  1.7559  1.9788  0.6867
  164SOL    HW2  492   3.115   0.211   1.340  1.1008  2.9207 -0.3456
  165SOL     OW  493   1.092   1.432   0.671  0.2651 -0.1360  0.3672
  165SOL    HW1  494   1.066   1.465   0.763  1.4722 -1.1266  0.3441
  165SOL    HW2  495   1.036   1.478   0.596  1.5783  0.3756 -2.0617
  166SOL     OW  496   1.563   1.012   1.766 -0.5356  0.1823  0.1845
  166SOL    HW1  497   1.476   1.025   1.813  0.4817 -0.6107 -0.9393
  166SOL    HW2  498   1.634   1.079   1.796  0.1526 -1.1635 -2.8101
  167SOL     OW  499   0.783   1.933   1.444  0.0970 -0.3183  0.0780
  167SOL    HW1  500   0.804   1.992   1.532 -0.0937  2.6731 -0.1627
  167SOL    HW2  501   0.732   1.843   1.466 -1.6055 -0.4802  1.2028
  168SOL     OW  502   1.578   2.348   0.164 -0.6504 -0.0669 -0.4486
  168SOL    HW1  503   1.652   2.363   0.088  0.7009 -0.0954  1.2383
  168SOL    HW2  504   1.610   2.282   0.240 -1.7221 -2.2889 -2.1453
  169SOL     OW  505   0.084   2.575   2.220 -0.2600 -0.1711 -0.1816
  169SOL    HW1  506   0.127   2.529   2.142 -2.3033  1.2901  1.6965
  169SOL    HW2  507   0.144   2.566   2.306 -1.6370  1.3927  0.1354
  170SOL     OW  508   1.131   0.215   2.040  0.5137 -0.0593  0.4655
  170SOL    HW1  509   1.209   0.237   2.098 -0.1605 -1.5665 -0.8863
  170SOL    HW2  510   1.155   0.180   1.945  1.1099 -2.8375 -0.3644
  171SOL     OW  511   0.213   0.842   2.380  0.1645  0.2780  0.2927
  171SOL    HW1  512   0.131   0.836   2.437  0.5999  0.0390  0.4696
  171SOL    HW2  513   0.198   0.837   2.276  1.5534  2.6877 -2.1188
  172SOL     OW  514   0.954   0.998   2.927 -0.5157  0.6297 -0.2061
  172SOL    HW1  515   0.960   1.073   3.003  0.2597  1.8759 -0.5982
  172SOL    HW2  516   0.889   1.026   2.849 -1.8702 -0.3023  0.3726
  173SOL     OW  517   0.523   2.449   0.167 -0.1006  0.2205 -0.3792
  173SOL    HW1  518   0.508   2.365   0.103  1.8314  1.3947  1.4138
  173SOL    HW2  519   0.433   2.488   0.209  1.5322 -0.0634  1.1836
  174SOL     OW  520   1.488   2.854   1.081  0.7144  0.4503  0.1014
  174SOL    HW1  521   1.575   2.897   1.043 -1.4305  0.1342  2.1806
  174SOL    HW2  522   1.446   2.787   1.010 -1.1613 -2.2010 -0.8170
  175SOL     OW  523   0.437   3.052   1.681 -0.8415 -0.2581  0.0549
  175SOL    HW1  524   0.504   3.032   1.761  0.1538 -1.0633 -0.5332
  175SOL    HW2  525   0.437   3.154   1.657 -3.3469 -0.2168  0.2531
  176SOL     OW  526   2.602   0.362   0.020  0.4505 -0.2117  0.3474
  176SOL    HW1  527   2.611   0.451   0.071  0.2612  0.9467  0.1320
  176SOL    HW2  528   2.577   0.275   0.073 -0.9144 -2.3135  1.9202
  177SOL     OW  529   0.318   0.291   0.990  0.1297  0.1185  0.4400
  177SOL    HW1  530   0.278   0.196   0.988  2.9861  0.3258  0.2778
  177SOL    HW2  531   0.260   0.355   1.049  1.1419  0.7115  0.2431
  178SOL     OW  532   0.003   2.738   2.566  0.1818  0.1289 -0.5430
  178SOL    HW1  533  -0.024   2.639   2.568  0.3299 -0.1285 -1.3139
  178SOL    HW2  534   0.085   2.754   2.629  1.1268  1.7405  0.6451
  179SOL     OW  535   3.034   1.555   1.113 -0.3611 -0.1837 -0.2118
  179SOL    HW1  536   3.115   1.553   1.049  0.7118  0.5940 -1.9628
  179SOL    HW2  537   3.059   1.522   1.207 -1.9263 -0.6449 -2.0604
  180SOL     OW  538   0.205   1.376   1.777  0.0499  0.4739 -0.2939
  180SOL    HW1  539   0.255   1.298   1.812 -0.5334  3.5266 -0.5882
  180SOL    HW2  540   0.132   1.414   1.842  1.4311 -0.3387 -0.1649
  181SOL     OW  541   2.983   1.940   2.514 -0.8973  0.2573  0.1702
  181SOL    HW1  542   3.057   2.017   2.486  0.9324  2.5347  0.6242
  181SOL    HW2  543   2.905   1.921   2.448  1.1101  0.8555  2.6476
  182SOL     OW  544   2.337   1.282   1.269  0.0996 -0.1630  0.2369
  182SOL    HW1  545   2.282   1.230   1.198 -1.8965  1.0174 -0.4750
  182SOL    HW2  546   2.377   1.368   1.236 -0.1732  0.6407 -1.5168
  183SOL     OW  547   1.386   2.251   2.490 -0.3649  0.8100 -0.6061
  183SOL    HW1  548   1.319   2.176   2.508  0.7240 -0.4114 -1.4181
  183SOL    HW2  549   1.477   2.216   2.452  2.2389  1.9272 -0.1464
  184SOL     OW  550   2.142   0.858   0.718  0.4059 -0.4487  0.2051
  184SOL    HW1  551   2.043   0.892   0.717  1.4042 -3.4013  2.2293
  184SOL    HW2  552   2.139   0.752   0.706 -0.7802  3.0053 -0.3541
  185SOL     OW  553   1.528   2.747   2.021 -0.0994  0.0857  0.1945
  185SOL    HW1  554   1.450   2.811   2.000 -1.8155 -1.3133  0.8859
  185SOL    HW2  555   1.579   2.770   2.108 -0.3421  0.8537  0.7672
  186SOL     OW  556   0.050   2.194   1.645  0.4369 -0.2525  0.2870
  186SOL    HW1  557   0.036   2.238   1.744 -0.8750 -0.9536  1.4292
  186SOL    HW2  558   0.146   2.155   1.628 -0.9911  0.5506 -0.4061
  187SOL     OW  559   1.369   0.627   1.641 -0.1662  0.2691  0.3010
  187SOL    HW1  560   1.458   0.678   1.665 -0.8489 -0.5071 -1.2696
  187SOL    HW2  561   1.358   0.555   1.710 -0.6744  3.9740 -1.8461
  188SOL     OW  562   2.815   2.721   1.414 -0.9018 -0.0868 -0.1174
  188SOL    HW1  563   2.786   2.821   1.403 -1.3563  1.5142 -0.9255
  188SOL    HW2  564   2.733   2.662   1.407 -1.2435  3.0748  0.4378
  189SOL     OW  565   0.875   1.169   1.405  0.1403  0.6380 -0.0851
  189SOL    HW1  566   0.936   1.207   1.481 -1.2372  0.8836 -0.5276
  189SOL    HW2  567   0.810   1.242   1.376 -0.6384 -2.7472 -0.0034
  190SOL     OW  568   1.484   1.858   1.556 -0.4273 -0.2464 -0.0309
  190SOL    HW1  569   1.445   1.763   1.555  0.6023  1.5025 -3.0281
  190SOL    HW2  570   1.500   1.889   1.649 -0.9987 -2.1283 -1.6492
  191SOL     OW  571   0.916   0.834   1.527 -0.4333  0.2753  0.2273
  191SOL    HW1  572   0.957   0.773   1.599  0.1799  0.0582 -1.7832
  191SOL    HW2  573   0.981   0.857   1.449  1.3658 -2.1858 -0.1186
  192SOL     OW  574   1.847   2.471   1.097  0.0312  0.2438  0.1544
  192SOL    HW1  575   1.746   2.455   1.068 -1.0933  0.8935  2.1979
  192SOL    HW2  576   1.918   2.427   1.036  2.2070 -1.6950 -2.0737
  193SOL     OW  577   0.520   0.519   0.406  0.1749  0.1238 -0.0562
  193SOL    HW1  578   0.465   0.427   0.425  0.4243 -3.4765 -0.2220
  193SOL    HW2  579   0.586   0.514   0.328  0.8399  1.0965  0.3828
  194SOL     OW  580   0.312   0.916   1.324  0.2317 -0.0054 -0.1287
  194SOL    HW1  581   0.271   0.820   1.311 -0.6479 -2.7995  0.3679
  194SOL    HW2  582   0.334   0.965   1.235 -0.6624  0.0692  1.4649
  195SOL     OW  583   0.986   2.884   0.519 -0.1764  0.4425  0.3081
  195SOL    HW1  584   0.974   2.787   0.478  1.9761 -0.9022  1.1624
  195SOL    HW2  585   1.088   2.912   0.506  1.7777 -1.4373 -0.1329
  196SOL     OW  586   0.219   1.357   1.349  0.8245 -0.1682  0.2532
  196SOL    HW1  587   0.243   1.450   1.384  2.4890 -0.2690 -1.9857
  196SOL    HW2  588   0.227   1.283   1.422 -2.0253 -0.1889 -0.0504
  197SOL     OW  589   0.822   2.001   0.314 -0.0920  0.6055  0.8117
  197SOL    HW1  590   0.789   1.947   0.395  1.9608 -0.9370  1.5788
  197SOL    HW2  591   0.871   1.936   0.248  0.7263 -1.1110 -1.5220
  198SOL     OW  592   0.298   1.236   0.347 -0.4795 -0.3662 -0.0076
  198SOL    HW1  593   0.196   1.224   0.317 -3.5397  2.0107 -0.5617
  198SOL    HW2  594   0.303   1.309   0.421 -0.1140  0.5701  1.9713
  199SOL     OW  595   2.282   0.449   2.583  0.3160  0.4728  0.2944
  199SOL    HW1  596   2.222   0.437   2.667 -3.0091  2.6307 -0.8602
  199SOL    HW2  597   2.373   0.397   2.591 -2.7420  0.7778 -0.3054
  200SOL     OW  598   0.008   2.975   0.804  0.3039 -0.6456  0.5797
  200SOL    HW1  599   0.041   3.076   0.826  0.3458  0.0853  0.7131
  200SOL    HW2  600  -0.077   2.967   0.739  0.0503 -0.3909 -1.4532
  201SOL     OW  601   0.967   0.735   0.516 -0.6407  0.4369 -0.0657
  201SOL    HW1  602   0.960   0.825   0.565  1.0546  0.6726  1.8660
  201SOL    HW2  603   0.887   0.668   0.551 -1.0760  0.6609  0.5853
  202SOL     OW  604   0.395   1.203   1.853  0.1217 -0.1010 -0.0555
  202SOL    HW1  605   0.484   1.158   1.825 -1.8828  0.4668 -2.8871
  202SOL    HW2  606   0.413   1.248   1.944  0.4765  0.9745 -1.5438
  203SOL     OW  607   0.586   0.218   1.559  0.6877  0.6127  0.2913
  203SOL    HW1  608   0.642   0.183   1.477  2.5544  0.8684 -0.8176
  203SOL    HW2  609   0.638   0.198   1.650  3.1878 -0.7954  1.2993
  204SOL     OW  610   2.119   1.817   2.994 -0.1145 -0.1058 -0.1119
  204SOL    HW1  611   2.087   1.716   2.985  0.2682  1.2327  3.0894
  204SOL    HW2  612   2.159   1.861   2.902  1.4971 -0.2009 -1.3930
  205SOL     OW  613   1.838   1.855   3.079 -0.2307  0.9661  0.8340
  205SOL    HW1  614   1.941   1.851   3.058  0.0896  2.1674 -1.8968
  205SOL    HW2  615   1.784   1.927   3.024 -0.4853  1.3201 -1.7507
  206SOL     OW  616   2.407   2.802   0.386 -0.0153 -0.5551 -0.2468
  206SOL    HW1  617   2.403   2.719   0.441 -0.5815  0.4995  0.6017
  206SOL    HW2  618   2.480   2.798   0.315 -0.7550  1.1818  2.0944
  207SOL     OW  619   0.699   1.753   2.896  0.6482 -0.1222 -0.5587
  207SOL    HW1  620   0.791   1.711   2.869 -1.6659 -0.9697  0.9805
  207SOL    HW2  621   0.661   1.706   2.982 -1.1717 -0.5376 -3.2746
  208SOL     OW  622   1.113   1.679   1.281 -0.8273  0.2223 -0.5371
  208SOL    HW1  623   1.124   1.723   1.188  1.3619 -3.0182 -1.1381
  208SOL    HW2  624   1.141   1.741   1.358 -1.0898  0.8337 -1.7276
  209SOL     OW  625   0.206   0.982   3.097 -0.4934  0.2706 -0.0312
  209SOL    HW1  626   0.197   0.907   3.029  1.7888 -0.0949 -0.3543
  209SOL    HW2  627   0.221   0.941   3.190 -0.1568  0.7063 -0.3553
  210SOL     OW  628   1.722   0.486   1.222 -0.1464 -0.0448  0.4359
  210SOL    HW1  629   1.659   0.568   1.196 -1.0945  1.3254 -1.1998
  210SOL    HW2  630   1.821   0.512   1.196 -2.3316 -2.7977  1.1529
  211SOL     OW  631   2.027   1.022   1.565 -0.1473 -0.5312 -0.2142
  211SOL    HW1  632   2.052   0.946   1.624 -3.6843  2.0708  0.8100
  211SOL    HW2  633   2.107   1.082   1.535  2.7520  0.5127  0.0630
  212SOL     OW  634   0.013   0.985   1.506  0.7605 -0.4748  0.1512
  212SOL    HW1  635   0.083   1.063   1.522  0.5776 -1.5221  0.2497
  212SOL    HW2  636   0.031   0.900   1.565  1.3377 -0.4107 -1.4902
  213SOL     OW  637   2.739   0.225   0.284  0.3291  0.7340 -0.9090
  213SOL    HW1  638   2.823   0.187   0.240  2.1314  0.2607 -0.2860
  213SOL    HW2  639   2.651   0.165   0.277 -3.8932 -2.6655 -0.4296
  214SOL     OW  640   2.160   0.366   2.342 -0.4334 -0.2998 -0.2944
  214SOL    HW1  641   2.179   0.419   2.432  0.4525  0.0136  0.0158
  214SOL    HW2  642   2.167   0.268   2.365  0.7841  0.0583 -1.7561
  215SOL     OW  643   1.680   2.263   2.100  0.1886  0.3251 -0.1272
  215SOL    HW1  644   1.777   2.297   2.087  0.2464 -0.1001 -0.7860
  215SOL    HW2  645   1.614   2.344   2.115  1.2171  1.1743 -0.5416
  216SOL     OW  646   2.175   0.604   0.668 -0.4443  0.3863 -0.7206
  216SOL    HW1  647   2.158   0.502   0.633 -1.4861 -1.3832 -3.3108
  216SOL    HW2  648   2.207   0.661   0.587 -1.6431 -2.3384 -2.0053
  217SOL     OW  649   0.876   2.808   2.515  0.7585  0.4311  0.4250
  217SOL    HW1  650   0.824   2.742   2.575  1.3390  1.3272  1.9342
  217SOL    HW2  651   0.863   2.792   2.418 -0.7031  2.7335  2.6957
  218SOL     OW  652   1.888   1.471   0.062 -0.1665 -0.4778  0.2078
  218SOL    HW1  653   1.789   1.495   0.034 -0.1212  0.2200  1.8942
  218SOL    HW2  654   1.895   1.382   0.121  1.3604 -1.1546  1.0174
  219SOL     OW  655   2.484   1.289   2.531  0.0788  0.0254 -0.2204
  219SOL    HW1  656   2.541   1.242   2.461  3.3212  0.1244  1.4893
  219SOL    HW2  657   2.469   1.231   2.613  0.9972  0.8819  0.2796
  220SOL     OW  658   1.429   1.027   1.386 -0.0838  0.5366  0.6277
  220SOL    HW1  659   1.526   0.985   1.373  1.0485  1.8428  2.8132
  220SOL    HW2  660   1.392   1.081   1.300  0.0033 -1.5589  0.0693
  221SOL     OW  661   1.310   0.945   2.210  0.8461 -0.2356  0.0431
  221SOL    HW1  662   1.275   0.985   2.122  3.0799  4.6637  0.1506
  221SOL    HW2  663   1.409   0.985   2.226  1.4948  0.0393  0.1386
  222SOL     OW  664   1.099   0.137   1.214 -0.3823  0.3648  0.2922
  222SOL    HW1  665   1.040   0.200   1.271 -0.9599 -1.1951  2.1957
  222SOL    HW2  666   1.147   0.181   1.130 -0.3146  0.4208 -2.1976
  223SOL     OW  667   2.696   0.928   2.120  0.2444 -0.3476 -0.6864
  223SOL    HW1  668   2.646   1.007   2.155 -0.1421 -0.3685 -0.4123
  223SOL    HW2  669   2.768   0.893   2.186 -0.7406 -0.5872  0.7495
  224SOL     OW  670   1.472   1.062   2.715  0.4744 -0.8952  0.0157
  224SOL    HW1  671   1.458   0.965   2.700  0.6881  3.5459 -0.0038
  224SOL    HW2  672   1.499   1.119   2.633 -1.0617  3.2115 -0.7446
  225SOL     OW  673   2.975   2.703   2.881 -0.2482 -0.8704 -0.0924
  225SOL    HW1  674   2.886   2.729   2.837 -0.4484  1.8193 -1.1189
  225SOL    HW2  675   3.058   2.715   2.817  2.6430  0.0588 -1.4012
  226SOL     OW  676   2.371   1.615   2.797  0.5349 -0.0247 -0.8306
  226SOL    HW1  677   2.455   1.602   2.739  0.7046 -0.2344 -4.2987
  226SOL    HW2  678   2.364   1.537   2.869 -2.3057  1.7958  0.3056
  227SOL     OW  679   0.858   0.223   3.068  0.0476  0.3471 -0.1983
  227SOL    HW1  680   0.909   0.314   3.048  2.2632  0.7229  1.0111
  227SOL    HW2  681   0.819   0.181   2.979 -1.8645  2.2325 -0.1284
  228SOL     OW  682   2.408   0.593   2.823 -0.5868  0.4292 -0.0604
  228SOL    HW1  683   2.434   0.673   2.764  0.1580  0.0582 -0.4791
  228SOL    HW2  684   2.494   0.529   2.823  0.9031 -1.2183  0.7432
  229SOL     OW  685   0.569   0.458   1.788 -0.0735  0.2245 -0.3590
  229SOL    HW1  686   0.616   0.380   1.841  0.1891  0.7748  1.0723
  229SOL    HW2  687   0.609   0.468   1.697 -0.6718 -1.9902  0.2734
  230SOL     OW  688   1.872   1.201   2.018 -0.2586  0.6548  0.1800
  230SOL    HW1  689   1.962   1.242   1.984 -0.8967  0.6691 -0.0340
  230SOL    HW2  690   1.816   1.262   2.084  1.3970 -0.7428  1.9028
  231SOL     OW  691   0.668   1.068  -0.001  0.5998 -0.4485 -0.4360
  231SOL    HW1  692   0.768   1.094  -0.000 -3.7831  1.3504  0.1467
  231SOL    HW2  693   0.610   1.149   0.028 -0.9381  2.8016  0.6278
  232SOL     OW  694   2.445   2.992   2.821  0.6929 -0.4982 -0.0979
  232SOL    HW1  695   2.528   2.931   2.848  0.5431  1.8550  0.6924
  232SOL    HW2  696   2.477   3.070   2.756 -2.8953  0.6959  0.5111
  233SOL     OW  697   1.766   1.250   1.228 -0.2124  0.2997  0.0162
  233SOL    HW1  698   1.851   1.255   1.173 -0.8547  0.0285 -1.8537
  233SOL    HW2  699   1.743   1.155   1.255 -0.8096  1.0025 -0.3776
  234SOL     OW  700   1.605   2.526   1.843  0.1519 -0.2803  0.0012
  234SOL    HW1  701   1.568   2.594   1.907  0.5187  0.0869  0.1749
  234SOL    HW2  702   1.541   2.444   1.839  0.3138  1.9049  0.5256
  235SOL     OW  703   0.031   2.995   2.862 -0.0938 -0.9447  0.2314
  235SOL    HW1  704  -0.038   3.004   2.784  1.8990  0.5463  3.2285
  235SOL    HW2  705  -0.015   3.015   2.957  0.3239  0.6336  2.4722
  236SOL     OW  706   2.887   0.710   0.111  0.2241 -0.7714  0.4211
  236SOL    HW1  707   2.958   0.765   0.163 -0.3615 -1.0182 -3.6050
  236SOL    HW2  708   2.930   0.628   0.061  1.8611 -2.2636  1.2938
  237SOL     OW  709   1.487   1.638   0.956 -0.8218  0.2828 -0.2355
  237SOL    HW1  710   1.590   1.608   0.957 -1.0328 -0.0695  0.2288
  237SOL    HW2  711   1.457   1.687   1.040 -0.9757 -2.8555  0.0758
  238SOL     OW  712   1.887   1.233   0.762  0.0445 -0.1056 -0.0360
  238SOL    HW1  713   1.930   1.250   0.858  1.0088  1.7229  3.0956
  238SOL    HW2  714   1.802   1.293   0.736  1.6042 -0.1446  0.3204
  239SOL     OW  715   2.078   0.301   2.762 -0.5046 -0.1410  0.1988
  239SOL    HW1  716   2.110   0.261   2.849 -1.2698 -1.2429 -2.3976
  239SOL    HW2  717   2.003   0.376   2.768 -2.4494 -0.4859  2.6846
  240SOL     OW  718   0.926   0.674   0.223 -0.1880  0.2875 -0.3825
  240SOL    HW1  719   0.978   0.586   0.193  1.9160  2.4772  0.1330
  240SOL    HW2  720   0.937   0.693   0.329  3.0474 -3.0947  0.4167
  241SOL     OW  721   0.594   0.090   0.396 -0.5219 -0.2215  0.0933
  241SOL    HW1  722   0.643   0.154   0.337  0.6984 -1.9089  0.6594
  241SOL    HW2  723   0.581  -0.003   0.348 -0.9525 -0.3127  0.5449
  242SOL     OW  724   0.627   2.565   1.166 -0.3439  0.6144  0.0913
  242SOL    HW1  725   0.635   2.559   1.269  1.8852 -1.2318  0.1240
  242SOL    HW2  726   0.587   2.655   1.140  1.7692 -0.0900  0.2457
  243SOL     OW  727   1.046   0.547   2.420 -0.0128 -0.5322 -0.2655
  243SOL    HW1  728   0.978   0.619   2.378 -2.0522 -1.8199 -0.6740
  243SOL    HW2  729   1.022   0.513   2.518  0.6500  0.8220 -1.3901
  244SOL     OW  730   2.768   1.868   2.339 -0.1453  0.0711  0.6041
  244SOL    HW1  731   2.781   1.876   2.239 -1.1154  0.5780  2.3482
  244SOL    HW2  732   2.684   1.818   2.370 -0.2327 -0.5551  1.2991
  245SOL     OW  733   2.182   0.909   2.182 -0.5558  0.1938 -0.2492
  245SOL    HW1  734   2.275   0.908   2.229  0.6494  2.3186 -0.3907
  245SOL    HW2  735   2.121   0.977   2.237  0.6746 -1.5909  1.3544
  246SOL     OW  736   0.214   2.879   1.711  0.1425  0.1828  0.2399
  246SOL    HW1  737   0.127   2.897   1.661  3.2937 -0.0741 -0.8134
  246SOL    HW2  738   0.280   2.955   1.692  0.6929  2.1804  0.0586
  247SOL     OW  739   2.228   0.648   3.010  0.5819 -0.3901 -0.1985
  247SOL    HW1  740   2.297   0.644   2.936  0.5825  0.1043 -1.4095
  247SOL    HW2  741   2.164   0.728   2.996  2.0006 -0.7324 -2.1654
  248SOL     OW  742   2.208   1.824   1.558 -0.2977  0.1556  0.3361
  248SOL    HW1  743   2.270   1.758   1.612 -0.2202 -3.7325  2.5195
  248SOL    HW2  744   2.109   1.812   1.587  2.9410  0.5938  1.0185
  249SOL     OW  745   1.945   1.892   1.895 -0.5845 -0.1284 -0.4823
  249SOL    HW1  746   1.947   1.840   1.803  1.2295  2.9190 -2.4145
  249SOL    HW2  747   2.036   1.944   1.913  0.7496 -3.2098  1.5857
  250SOL     OW  748   1.092   0.700   1.872  0.2731  0.0134 -0.0365
  250SOL    HW1  749   1.137   0.644   1.948 -1.5979 -1.3342  2.0830
  250SOL    HW2  750   1.075   0.648   1.786 -1.7441  2.1081  1.9172
  251SOL     OW  751   3.025   1.659   2.536 -0.8187 -0.9803  0.2903
  251SOL    HW1  752   3.021   1.760   2.515  0.7639 -2.1562  0.1728
  251SOL    HW2  753   2.939   1.608   2.501 -1.0207 -2.4067  1.7372
  252SOL     OW  754   1.601   0.742   1.705 -0.3798 -0.0387  0.4810
  252SOL    HW1  755   1.696   0.709   1.720 -0.2780  1.4313 -1.2606
  252SOL    HW2  756   1.594   0.842   1.731 -1.8563  1.6766 -1.5134
  253SOL     OW  757   0.989   1.612   0.454  0.1049 -0.0365 -0.0017
  253SOL    HW1  758   0.986   1.517   0.414 -1.5325 -1.2760  0.8554
  253SOL    HW2  759   0.902   1.634   0.505  3.1762 -1.4634 -1.0307
  254SOL     OW  760   2.023   2.183   1.647  0.1975  0.5920  0.7288
  254SOL    HW1  761   1.982   2.115   1.580 -0.0120 -0.2537  1.2057
  254SOL    HW2  762   1.947   2.229   1.701 -1.0897  1.7710 -0.4254
  255SOL     OW  763   0.150   1.190   2.905  0.1280 -0.3144  0.0591
  255SOL    HW1  764   0.195   1.283   2.916  0.3368  2.4781 -1.6545
  255SOL    HW2  765   0.179   1.124   2.977 -1.1797  2.2247 -0.8063
  256SOL     OW  766   2.854   1.408   1.849 -0.5863 -0.4264  0.4462
  256SOL    HW1  767   2.764   1.449   1.860  1.9872  1.8332 -0.1478
  256SOL    HW2  768   2.857   1.313   1.805 -1.7985 -1.1687  2.4401
  257SOL     OW  769   0.794   0.155   1.736 -0.3041 -0.6856 -0.0031
  257SOL    HW1  770   0.842   0.246   1.718  2.5512  1.2968  0.6433
  257SOL    HW2  771   0.847   0.073   1.716 -1.2793  0.0837  0.3590
  258SOL     OW  772   2.986   1.225   0.489 -0.0023 -0.1399  0.9498
  258SOL    HW1  773   2.894   1.260   0.522 -1.3679 -0.1526 -1.9535
  258SOL    HW2  774   3.059   1.208   0.562 -1.9415  1.1245  0.4678
  259SOL     OW  775   0.403   2.886   3.046 -0.5042 -0.0402 -0.1392
  259SOL    HW1  776   0.361   2.825   3.120 -0.1315 -1.2957 -1.2445
  259SOL    HW2  777   0.433   2.833   2.957  0.3108  0.3077  0.6144
  260SOL     OW  778   2.711   0.709   2.799 -0.2380  1.0297  0.4488
  260SOL    HW1  779   2.627   0.764   2.782  0.9831  0.5693  1.8506
  260SOL    HW2  780   2.699   0.617   2.839 -0.1330  1.2472 -3.2092
  261SOL     OW  781   2.711   1.275   1.309 -0.2782  0.0869 -0.9356
  261SOL    HW1  782   2.669   1.214   1.232 -3.4786 -2.2339 -0.6341
  261SOL    HW2  783   2.788   1.234   1.369 -1.3144  0.7973 -0.0050
  262SOL     OW  784   1.370   2.967   1.922 -0.0166  0.6001  0.2099
  262SOL    HW1  785   1.416   3.061   1.918 -0.2729 -0.0544 -1.9572
  262SOL    HW2  786   1.264   2.960   1.912 -0.7064 -0.7463  2.4659
  263SOL     OW  787   0.849   0.693   2.290 -0.3576  0.2582  0.1618
  263SOL    HW1  788   0.828   0.605   2.245  2.9921  2.6992 -3.2453
  263SOL    HW2  789   0.873   0.764   2.217  0.3720 -1.6478  1.6511
  264SOL     OW  790   2.236   0.808   0.406 -0.0736 -0.1347  0.3667
  264SOL    HW1  791   2.232   0.729   0.334  4.3146  0.9119 -0.2233
  264SOL    HW2  792   2.311   0.876   0.383 -0.2239 -0.2771  0.3068
  265SOL     OW  793   0.945   2.446   2.612  0.0557  0.1470 -0.6318
  265SOL    HW1  794   1.029   2.508   2.648  2.9000  1.4625  0.4586
  265SOL    HW2  795   0.937   2.359   2.667  0.5126 -0.2580 -0.5030
  266SOL     OW  796   1.326   1.781   3.045  0.3544 -0.1657  0.2167
  266SOL    HW1  797   1.316   1.843   3.128 -2.7552 -0.4340 -0.7731
  266SOL    HW2  798   1.428   1.759   3.030  0.5042 -0.9582  0.3231
  267SOL     OW  799   1.052   0.079   2.316  0.3646 -0.4595 -0.4864
  267SOL    HW1  800   0.990   0.025   2.253  1.3929  3.2122 -0.4411
  267SOL    HW2  801   1.063   0.177   2.280  0.1968 -0.1275 -0.6946
  268SOL     OW  802   0.732   1.247   1.063  0.7428  0.7324 -0.3209
  268SOL    HW1  803   0.739   1.284   1.156  1.5088 -0.6682 -3.0248
  268SOL    HW2  804   0.765   1.324   0.995  3.6481  1.1740 -0.7710
  269SOL     OW  805   2.347   2.502   1.588  0.2276 -0.1147 -0.5329
  269SOL    HW1  806   2.417   2.434   1.619 -2.7511 -1.1614 -0.7008
  269SOL    HW2  807   2.257   2.514   1.641  2.2994  0.1163  0.0996
  270SOL     OW  808   0.137   2.985   1.964 -0.3377 -0.4766  0.1174
  270SOL    HW1  809   0.149   2.920   1.884  0.6368 -0.8405  1.0482
  270SOL    HW2  810   0.069   2.949   2.032 -2.6673  0.3967 -0.5254
  271SOL     OW  811   0.421   1.399   1.161  0.2909  0.0425 -0.0965
  271SOL    HW1  812   0.418   1.380   1.061  2.4140 -1.2882  1.0258
  271SOL    HW2  813   0.334   1.381   1.214 -2.1167  0.0510 -0.4592
  272SOL     OW  814   2.015   2.973   1.929 -0.7311  0.1172  0.1480
  272SOL    HW1  815   1.915   2.962   1.923  1.3890  2.0987  3.2188
  272SOL    HW2  816   2.060   2.992   1.840  1.7241  0.1618 -1.1513
  273SOL     OW  817   1.484   1.453   2.754 -0.5008  0.5486 -0.3901
  273SOL    HW1  818   1.384   1.421   2.748 -1.5279  1.7986 -0.8775
  273SOL    HW2  819   1.536   1.411   2.833  0.3865  2.2656  1.0851
  274SOL     OW  820   1.173   0.512   2.055 -0.2318  0.1905  0.1855
  274SOL    HW1  821   1.111   0.430   2.062  1.8007  2.0905 -0.7926
  274SOL    HW2  822   1.215   0.532   2.149 -0.4724 -0.0023 -0.4983
  275SOL     OW  823   0.659   2.130   1.898 -0.2123  0.3835  0.1651
  275SOL    HW1  824   0.628   2.215   1.951  0.7740 -3.3546  2.6591
  275SOL    HW2  825   0.579   2.071   1.869  1.7950 -0.3711 -1.9146
  276SOL     OW  826   2.192   1.113   2.787  0.1245 -0.2121  0.0841
  276SOL    HW1  827   2.127   1.159   2.724  0.1470 -3.1406  0.2454
  276SOL    HW2  828   2.152   1.024   2.824 -0.7222 -0.2098  1.3064
  277SOL     OW  829   0.009   0.796   0.250  0.5678  0.4609  0.5762
  277SOL    HW1  830   0.108   0.807   0.224  1.1339  2.0257  0.2055
  277SOL    HW2  831  -0.003   0.729   0.328  2.2035  0.3734  0.0383
  278SOL     OW  832   0.203   0.251   2.929  0.0888 -0.5336  0.5000
  278SOL    HW1  833   0.286   0.184   2.929  2.6079  0.0088 -1.0255
  278SOL    HW2  834   0.210   0.329   2.993 -0.0292  0.1324 -0.5511
  279SOL     OW  835   0.248   0.021   0.911  0.4399  0.1260  0.5725
  279SOL    HW1  836   0.271  -0.063   0.971  1.3006  1.2063 -1.3338
  279SOL    HW2  837   0.285   0.012   0.816  3.1437  4.1861  0.3453
  280SOL     OW  838   1.605   2.957   2.396 -0.2071  0.7146 -0.2518
  280SOL    HW1  839   1.690   2.981   2.455 -0.6216 -0.4310  1.1594
  280SOL    HW2  840   1.576   3.023   2.323 -0.7815 -3.0387 -0.7131
  281SOL     OW  841   0.574   0.983   2.278 -0.2702 -0.2342  0.3825
  281SOL    HW1  842   0.536   0.915   2.208  1.3910 -0.4194 -0.5776
  281SOL    HW2  843   0.547   0.962   2.373 -3.7172  1.8655 -0.4955
  282SOL     OW  844   1.780   2.477   0.500 -0.2803  0.1039  0.2147
  282SOL    HW1  845   1.731   2.399   0.450 -0.2070 -0.1457  1.1994
  282SOL    HW2  846   1.710   2.551   0.527 -1.7524 -0.0658  0.3047
  283SOL     OW  847   1.192   0.946   0.764 -0.2915 -0.0286 -0.1827
  283SOL    HW1  848   1.193   0.878   0.841 -3.0222  1.0835 -0.7241
  283SOL    HW2  849   1.148   1.034   0.791 -0.1698 -1.2322  0.7626
  284SOL     OW  850   2.244   2.804   2.488 -0.2157  0.2014  0.1610
  284SOL    HW1  851   2.343   2.807   2.465 -4.3097  1.1693 -1.7686
  284SOL    HW2  852   2.218   2.854   2.572 -1.4621  0.0242  1.7260
  285SOL     OW  853   1.402   3.079   2.571  0.3948  0.5416 -0.0741
  285SOL    HW1  854   1.453   3.081   2.483 -1.3861 -1.2293  1.5784
  285SOL    HW2  855   1.307   3.118   2.571 -2.3545 -0.9804  0.6542
  286SOL     OW  856   0.421   0.417   0.751  0.2689  0.5181  0.4980
  286SOL    HW1  857   0.428   0.347   0.828 -1.4589  1.2766 -0.7105
  286SOL    HW2  858   0.424   0.376   0.651 -0.6724 -2.5762  1.8848
  287SOL     OW  859   0.070   1.292   2.554  0.0965 -0.0336  0.5511
  287SOL    HW1  860   0.079   1.194   2.589 -1.9465  2.8162  0.1940
  287SOL    HW2  861   0.011   1.359   2.612  0.7730  2.2838  1.1742
  288SOL     OW  862   1.599   2.728   1.644 -0.0950  0.5579 -0.1912
  288SOL    HW1  863   1.608   2.660   1.724 -0.6717  0.8038 -0.1598
  288SOL    HW2  864   1.604   2.687   1.551  0.1421 -1.3788 -2.9317
  289SOL     OW  865   0.575   2.737   0.853  0.3902  0.3056  0.2113
  289SOL    HW1  866   0.641   2.787   0.790 -0.5161 -1.7483 -0.7098
  289SOL    HW2  867   0.593   2.750   0.957  1.5855  1.2708  2.4942
  290SOL     OW  868   2.835   1.128   1.752 -0.4194  0.0090 -0.6067
  290SOL    HW1  869   2.753   1.064   1.757 -0.5244 -1.8682  1.1469
  290SOL    HW2  870   2.906   1.082   1.813 -1.8022  0.8876 -1.7566
  291SOL     OW  871   1.982   3.092   0.047 -0.3049 -0.3284 -0.1163
  291SOL    HW1  872   1.967   3.152   0.124  2.1749  1.2187 -2.8429
  291SOL    HW2  873   2.057   3.129  -0.013 -0.1289 -0.2877  0.7979
  292SOL     OW  874   3.027   1.238   3.101  0.0912  0.1517  0.0778
  292SOL    HW1  875   2.932   1.240   3.064 -0.7760 -1.6699  0.4418
  292SOL    HW2  876   3.096   1.253   3.033 -0.7615 -0.6757 -0.2223
  293SOL     OW  877   0.553   2.157   0.287  0.3895 -0.6193 -0.0354
  293SOL    HW1  878   0.515   2.230   0.349  2.7185  1.1760 -0.5104
  293SOL    HW2  879   0.660   2.157   0.291  1.6970 -1.6810 -2.4484
  294SOL     OW  880   1.817   2.330   1.785 -0.3426  0.2836  0.0414
  294SOL    HW1  881   1.834   2.358   1.888  0.6742 -1.0927 -0.8534
  294SOL    HW2  882   1.754   2.392   1.731  1.2141  0.9859  1.4893
  295SOL     OW  883   0.975   1.041   0.454  0.1521 -0.0141 -0.0902
  295SOL    HW1  884   1.075   1.052   0.466  1.7457 -1.1779  1.2711
  295SOL    HW2  885   0.931   1.002   0.543 -0.4009 -1.2770 -0.0792
  296SOL     OW  886   1.190   2.136   2.713  0.0193 -0.1882  0.3034
  296SOL    HW1  887   1.089   2.151   2.699  1.1773  1.6469  1.8048
  296SOL    HW2  888   1.220   2.069   2.641  1.9221 -0.2293  0.1734
  297SOL     OW  889   1.350   0.570   1.285 -0.4779 -0.0984 -0.4595
  297SOL    HW1  890   1.381   0.530   1.375 -1.0094 -0.1456 -1.6689
  297SOL    HW2  891   1.417   0.623   1.232 -0.2648 -0.3366  1.1773
  298SOL     OW  892   0.519   1.369   2.993 -0.3241  0.5651 -0.1390
  298SOL    HW1  893   0.470   1.314   3.065  1.7029  2.0905 -1.2919
  298SOL    HW2  894   0.603   1.321   2.951  0.0012 -1.2545  0.4621
  299SOL     OW  895   0.433   0.288   1.297 -0.2457 -0.3587  0.4806
  299SOL    HW1  896   0.383   0.373   1.269  0.4715 -1.6194  0.6614
  299SOL    HW2  897   0.412   0.265   1.397 -0.1643 -1.6846 -1.3729
  300SOL     OW  898   1.268   1.734   2.570  0.3373  0.3094  0.2422
  300SOL    HW1  899   1.234   1.645   2.520 -0.7259  0.1514 -1.4654
  300SOL    HW2  900   1.371   1.733   2.586 -0.6434 -0.8167  0.0109
  301SOL     OW  901   0.446   0.280   0.516  0.2565 -0.0143 -0.5282
  301SOL    HW1  902   0.358   0.241   0.554 -0.8794 -1.8531 -0.0348
  301SOL    HW2  903   0.513   0.211   0.483  2.3764 -2.2401  1.9807
  302SOL     OW  904   1.222   2.451   2.309 -0.0113  0.3466 -0.3010
  302SOL    HW1  905   1.133   2.490   2.346 -0.0313  0.7296 -2.0065
  302SOL    HW2  906   1.249   2.363   2.361  1.0342  1.6294  1.2023
  303SOL     OW  907   0.921   2.435   0.819  0.8391  0.3045  0.0524
  303SOL    HW1  908   0.977   2.477   0.737  0.3697  1.0266  0.2370
  303SOL    HW2  909   0.969   2.462   0.908 -1.7135 -2.2639 -0.0842
  304SOL     OW  910   0.068   1.907   0.677 -0.3173  0.1708  0.0363
  304SOL    HW1  911   0.133   1.882   0.605 -0.0632  1.9644 -1.2371
  304SOL    HW2  912  -0.003   1.981   0.648 -2.4115 -1.5689 -1.6793
  305SOL     OW  913   1.601   0.889   0.697 -0.3401 -0.5028 -0.0682
  305SOL    HW1  914   1.523   0.887   0.630  1.4770  2.7388  2.7121
  305SOL    HW2  915   1.655   0.798   0.681  2.1140  0.0846  1.4060
  306SOL     OW  916   0.428   1.955   1.871 -0.1271  0.0693  0.3211
  306SOL    HW1  917   0.502   1.881   1.854  2.3296 -1.8208  1.1463
  306SOL    HW2  918   0.412   1.969   1.975 -0.3501  0.3806  2.2268
  307SOL     OW  919   3.014   0.872   2.503  0.5896  0.4871 -0.4832
  307SOL    HW1  920   3.041   0.918   2.592 -1.0141  0.0374 -1.0254
  307SOL    HW2  921   2.958   0.784   2.515  0.9770  0.6017 -1.0907
  308SOL     OW  922   1.582   2.671   2.829 -0.2724  0.2402  0.3562
  308SOL    HW1  923   1.605   2.619   2.745 -1.3571  1.5448  1.3203
  308SOL    HW2  924   1.499   2.625   2.877  0.2151 -0.7312  2.7560
  309SOL     OW  925   1.235   0.154   1.786  0.7393 -0.0735  0.2576
  309SOL    HW1  926   1.331   0.135   1.823 -1.1185  0.5468 -0.8760
  309SOL    HW2  927   1.233   0.177   1.683 -1.9679  0.0465  0.9889
  310SOL     OW  928   1.513   2.564   0.676  0.0583  0.5036 -0.3767
  310SOL    HW1  929   1.465   2.574   0.774 -1.2485  1.8361  4.5108
  310SOL    HW2  930   1.579   2.639   0.657  0.2766 -2.0261 -3.8557
  311SOL     OW  931   1.144   0.976   1.742  0.1836  0.5506 -0.2587
  311SOL    HW1  932   1.112   0.887   1.785  0.5487 -0.1710 -0.1877
  311SOL    HW2  933   1.189   0.959   1.646 -0.5786  1.3069 -2.5183
  312SOL     OW  934   1.545   0.679   1.121  0.0565 -0.0351  0.1534
  312SOL    HW1  935   1.548   0.777   1.088  1.8704 -0.3339 -1.9179
  312SOL    HW2  936   1.523   0.619   1.038 -3.3413 -3.9014  0.3089
  313SOL     OW  937   1.602   1.353   0.726  0.2907 -0.1929 -0.1848
  313SOL    HW1  938   1.533   1.367   0.806  4.5873 -1.8741 -0.3229
  313SOL    HW2  939   1.590   1.262   0.677 -0.9109 -0.4467  0.1248
  314SOL     OW  940   2.990   3.084   3.091 -0.1408  0.0529  0.1583
  314SOL    HW1  941   3.000   3.117   3.190 -0.5162  0.0774  2.1947
  314SOL    HW2  942   2.889   3.059   3.062 -1.6629 -0.6171 -2.5902
  315SOL     OW  943   1.188   0.251   2.763 -0.1712 -0.1845 -0.1329
  315SOL    HW1  944   1.174   0.188   2.680  1.6510 -0.0546  0.1348
  315SOL    HW2  945   1.148   0.214   2.849 -1.1903 -0.5205 -0.0711
  316SOL     OW  946   1.747   2.094   0.885 -0.1296 -0.0567  0.1505
  316SOL    HW1  947   1.667   2.085   0.956 -0.7047  1.5187 -1.3084
  316SOL    HW2  948   1.754   2.187   0.841  0.1068  0.4432 -1.1747
  317SOL     OW  949   1.181   0.642   2.759  0.2967  0.1129 -0.2619
  317SOL    HW1  950   1.148   0.714   2.824 -1.4959 -2.2008 -0.7195
  317SOL    HW2  951   1.110   0.560   2.747 -1.5389 -0.9246  0.2455
  318SOL     OW  952   1.428   0.004   2.230  0.3757  0.1138  0.1534
  318SOL    HW1  953   1.380   0.097   2.239 -0.7208  1.2468 -1.1791
  318SOL    HW2  954   1.371  -0.062   2.171 -2.3712 -1.3753  1.3437
  319SOL     OW  955   0.652   2.331   2.914  0.6718  0.3381  0.3618
  319SOL    HW1  956   0.616   2.286   3.000 -0.8465 -2.3104  0.1564
  319SOL    HW2  957   0.690   2.272   2.840 -0.8234  2.6753 -1.7973
  320SOL     OW  958   1.667   2.258   0.400 -0.4276  0.5379 -0.0092
  320SOL    HW1  959   1.750   2.202   0.386  1.9729 -2.5304  2.8570
  320SOL    HW2  960   1.586   2.201   0.442 -2.5212 -1.9348  1.7981
  321SOL     OW  961   1.678   2.765   0.581 -0.2108  0.1266 -0.1641
  321SOL    HW1  962   1.600   2.802   0.520  2.0597  0.2233  0.3266
  321SOL    HW2  963   1.769   2.793   0.548  1.0322 -1.3036  2.3806
  322SOL     OW  964   2.599   1.125   2.314  0.0243  0.2042 -0.0886
  322SOL    HW1  965   2.687   1.128   2.366  0.3319 -0.6496 -1.9865
  322SOL    HW2  966   2.550   1.035   2.333 -0.5988 -2.1605  0.7515
  323SOL     OW  967   1.164   2.649   0.816 -0.1118 -0.0999 -0.8924
  323SOL    HW1  968   1.141   2.588   0.737 -0.7649  2.4736  4.2464
  323SOL    HW2  969   1.153   2.751   0.799  0.2622  0.1745  2.6067
  324SOL     OW  970   0.237   2.544   2.451 -0.7550  0.6040 -0.1314
  324SOL    HW1  971   0.173   2.501   2.520 -0.5694 -1.3924  1.0976
  324SOL    HW2  972   0.286   2.629   2.482 -0.1861 -0.7568 -0.8822
  325SOL     OW  973   1.231   3.005   0.458 -0.6385  0.3077 -0.3127
  325SOL    HW1  974   1.222   3.054   0.370 -1.8464  1.1090  1.5928
  325SOL    HW2  975   1.247   3.070   0.536 -0.5591  0.2769 -1.7736
  326SOL     OW  976   2.472   0.782   0.020 -0.0867 -0.1566 -0.3693
  326SOL    HW1  977   2.383   0.756  -0.021  2.5832  3.7091 -0.7753
  326SOL    HW2  978   2.535   0.704   0.045 -0.4786  0.1175  2.0296
  327SOL     OW  979   2.794   0.321   0.545 -0.1135 -0.3868  0.0332
  327SOL    HW1  980   2.776   0.280   0.454 -0.4883  1.1950  0.4083
  327SOL    HW2  981   2.808   0.247   0.618 -2.3026  0.2015  4.0000
  328SOL     OW  982   2.625   0.637   0.409 -0.0420  0.2796  0.1052
  328SOL    HW1  983   2.687   0.700   0.464  0.7162  1.9279 -3.6883
  328SOL    HW2  984   2.604   0.547   0.459  0.1642  1.3505  3.3561
  329SOL     OW  985   2.906   2.945   2.111  0.4953  0.6174 -0.3591
  329SOL    HW1  986   2.986   2.897   2.163  2.0709  0.0786 -1.6036
  329SOL    HW2  987   2.918   3.049   2.099  0.8846  1.7079 -1.0541
  330SOL     OW  988   0.595   0.184   1.935  0.0627  0.5995 -0.0997
  330SOL    HW1  989   0.674   0.165   1.872  1.1502 -0.2116  0.8004
  330SOL    HW2  990   0.579   0.121   2.013  0.1391 -1.2159 -0.4128
  331SOL     OW  991   3.011   1.916   1.100  0.0374 -0.2030  0.6824
  331SOL    HW1  992   2.994   1.893   0.999  0.3965 -2.7439 -1.8100
  331SOL    HW2  993   2.941   1.879   1.171 -0.2024 -1.5681  0.6488
  332SOL     OW  994   0.401   1.183   0.066  0.3397 -0.5370 -0.0586
  332SOL    HW1  995   0.331   1.109   0.041  1.3080  2.9216  0.7191
  332SOL    HW2  996   0.392   1.195   0.171 -0.7728  1.3782 -0.3859
  333SOL     OW  997   2.942   0.997   0.349 -0.3659 -0.2049  0.6099
  333SOL    HW1  998   2.972   1.076   0.408 -0.5081 -1.4363  0.2488
  333SOL    HW2  999   3.017   0.950   0.310 -0.5908  1.5197  4.7141
  334SOL     OW 1000   1.715   1.274   1.822 -0.4795 -0.2604  0.5936
  334SOL    HW1 1001   1.757   1.267   1.723 -0.8611 -1.3202 -0.3381
  334SOL    HW2 1002   1.784   1.241   1.896 -1.6815  1.1546  1.2680
  335SOL     OW 1003   1.972   2.747   2.590 -0.0040 -0.3757  0.4578
  335SOL    HW1 1004   1.901   2.781   2.656 -2.8898  0.7377 -2.2600
  335SOL    HW2 1005   2.063   2.777   2.621 -0.8502  1.0740  1.5606
  336SOL     OW 1006   0.240   0.019   2.705 -0.1177 -0.2043 -0.3420
  336SOL    HW1 1007   0.319   0.022   2.776  0.0720  2.2301  0.6883
  336SOL    HW2 1008   0.153  -0.017   2.746 -1.4921 -0.7158 -2.2843
  337SOL     OW 1009   0.942   2.932   2.954 -0.8520 -0.5337  0.4195
  337SOL    HW1 1010   0.897   2.854   2.994  1.0682  4.0158 -0.5844
  337SOL    HW2 1011   1.044   2.919   2.955 -1.1459 -1.6516 -0.9673
  338SOL     OW 1012   0.051   0.977   0.677 -0.4216 -0.4068 -0.3588
  338SOL    HW1 1013  -0.038   0.930   0.711 -0.3581 -1.4454 -2.2987
  338SOL    HW2 1014   0.049   1.079   0.691 -1.6590 -0.8380 -0.8750
  339SOL     OW 1015   1.706   1.363   2.170 -0.4994 -0.6043 -0.0713
  339SOL    HW1 1016   1.619   1.395   2.123 -4.5461  0.5922  0.7462
  339SOL    HW2 1017   1.754   1.428   2.233  1.3529  2.4773 -0.8428
  340SOL     OW 1018   2.241   0.772   1.177 -0.6698  0.5189  0.1904
  340SOL    HW1 1019   2.154   0.823   1.156  1.6826  1.5543 -0.1715
  340SOL    HW2 1020   2.238   0.682   1.130 -0.4261 -0.3614 -1.7239
  341SOL     OW 1021   1.919   2.113   0.339 -0.4829 -0.4331 -0.0583
  341SOL    HW1 1022   1.946   2.125   0.240  0.8884  0.1793  1.2112
  341SOL    HW2 1023   1.989   2.059   0.397  1.1972  0.1439  2.3670
  342SOL     OW 1024   2.166   2.137   2.758  0.2431 -0.3042 -0.3170
  342SOL    HW1 1025   2.224   2.060   2.799 -0.1467 -1.5554 -1.1862
  342SOL    HW2 1026   2.072   2.105   2.733  0.3869  0.7161 -1.7945
  343SOL     OW 1027   0.424   0.782   2.769  0.3213 -0.0857 -0.1105
  343SOL    HW1 1028   0.424   0.832   2.681 -0.8110 -2.3799 -0.9091
  343SOL    HW2 1029   0.518   0.783   2.817 -1.3303  0.5299 -0.3153
  344SOL     OW 1030   1.891   1.498   0.386  0.2303  0.1979 -0.0389
  344SOL    HW1 1031   1.889   1.409   0.333 -1.1066  0.5771 -1.3252
  344SOL    HW2 1032   1.796   1.527   0.417 -0.6528 -0.8700 -1.1449
  345SOL     OW 1033   1.411   2.241   2.869  0.0955 -0.1482 -0.1700
  345SOL    HW1 1034   1.326   2.241   2.808 -0.5247 -0.9500  0.2194
  345SOL    HW2 1035   1.461   2.151   2.878 -0.9684  1.8893  1.1581
  346SOL     OW 1036   2.337   0.912   1.400  0.1699 -0.3378 -0.0072
  346SOL    HW1 1037   2.277   0.994   1.429 -0.6694 -0.7554 -1.8778
  346SOL    HW2 1038   2.297   0.863   1.316  1.1829  0.0835  2.2062
  347SOL     OW 1039   0.719   2.720   1.612 -0.3008 -0.2419 -0.0810
  347SOL    HW1 1040   0.676   2.732   1.703  0.2728 -0.7905 -2.0701
  347SOL    HW2 1041   0.656   2.758   1.535 -1.1014  0.6148 -1.1446
  348SOL     OW 1042   0.167   0.786   2.888 -0.4086  0.1036 -0.7345
  348SOL    HW1 1043   0.082   0.760   2.834  2.1660  0.0919  0.2237
  348SOL    HW2 1044   0.257   0.790   2.840 -0.2805 -1.0596  1.6987
  349SOL     OW 1045   1.823   0.452   2.786  0.1134  0.6460  0.3042
  349SOL    HW1 1046   1.820   0.536   2.724  0.7658  0.6594 -1.4108
  349SOL    HW2 1047   1.808   0.466   2.891 -0.2193  0.1716  0.4429
  350SOL     OW 1048   1.671   0.368   0.359  0.4344 -0.5729  0.1128
  350SOL    HW1 1049   1.738   0.379   0.438  2.5884 -1.3415 -0.2733
  350SOL    HW2 1050   1.674   0.450   0.298  0.1157  1.6873 -1.8718
  351SOL     OW 1051   0.934   0.835   2.083 -0.1527 -0.0476 -0.4230
  351SOL    HW1 1052   0.961   0.939   2.091 -1.1041 -0.8991 -0.4535
  351SOL    HW2 1053   0.989   0.780   2.014  0.9603 -0.4428 -1.1688
  352SOL     OW 1054   2.088   1.373   0.569 -0.2121 -0.1304  0.1304
  352SOL    HW1 1055   2.037   1.433   0.498  1.3745 -1.5304 -3.4981
  352SOL    HW2 1056   2.033   1.320   0.637  2.0385 -1.0297  2.1478
  353SOL     OW 1057   2.206   2.806   1.065  0.0644 -0.5084  0.5596
  353SOL    HW1 1058   2.235   2.733   1.135 -0.8670 -4.0338  0.6744
  353SOL    HW2 1059   2.105   2.830   1.078 -2.4924  2.5041 -0.4417
  354SOL     OW 1060   0.283   1.446   2.867  0.5370  0.0639  0.4269
  354SOL    HW1 1061   0.269   1.522   2.798  0.2384 -2.0346 -1.7053
  354SOL    HW2 1062   0.381   1.431   2.890 -0.5709  1.2923 -2.3517
  355SOL     OW 1063   0.740   1.591   0.596 -0.1348  0.2490  0.9044
  355SOL    HW1 1064   0.729   1.532   0.684  2.4503 -3.2995 -0.2855
  355SOL    HW2 1065   0.689   1.556   0.512  1.2833  1.2639 -1.4019
  356SOL     OW 1066   0.850   0.304   2.032 -0.2167 -0.0703 -0.1014
  356SOL    HW1 1067   0.951   0.265   2.043  1.2432 -1.4026  0.2046
  356SOL    HW2 1068   0.804   0.274   1.944  0.5970 -2.1444 -0.2468
  357SOL     OW 1069   1.027   1.328   0.364 -0.7332  0.1829  0.1430
  357SOL    HW1 1070   1.096   1.335   0.289  0.5658  1.1720  1.1679
  357SOL    HW2 1071   1.013   1.239   0.406  1.8412  1.5472  1.1764
  358SOL     OW 1072   1.630   1.525   0.504 -0.3894 -0.0462  0.5415
  358SOL    HW1 1073   1.605   1.459   0.573 -0.5614 -1.9174 -1.5539
  358SOL    HW2 1074   1.567   1.513   0.426  0.8718 -1.3376  0.3384
  359SOL     OW 1075   1.590   2.599   0.280  0.5067 -0.6678  0.4291
  359SOL    HW1 1076   1.561   2.515   0.230 -1.0005  0.3759  1.2289
  359SOL    HW2 1077   1.513   2.655   0.320 -0.9587  0.5046  0.0003
  360SOL     OW 1078   0.772   0.529   0.560 -0.0128 -0.4874  0.4032
  360SOL    HW1 1079   0.672   0.527   0.554  3.1819  0.4398  2.0196
  360SOL    HW2 1080   0.822   0.436   0.570  2.7392  0.1248  0.0185
  361SOL     OW 1081   1.314   1.273   0.639  0.2492 -0.2152 -0.0541
  361SOL    HW1 1082   1.352   1.279   0.733  1.6994  2.4135 -3.7670
  361SOL    HW2 1083   1.232   1.339   0.629  0.1890 -2.5741  0.4023
  362SOL     OW 1084   1.380   1.749   0.723  0.0445  0.0034 -0.2860
  362SOL    HW1 1085   1.447   1.689   0.775  0.3607  0.8558 -0.3243
  362SOL    HW2 1086   1.426   1.824   0.670 -0.8752  0.6205  1.7754
  363SOL     OW 1087   1.224   1.302   2.069  0.1893  0.0466 -0.1698
  363SOL    HW1 1088   1.315   1.353   2.042  0.3023  2.4326 -0.3898
  363SOL    HW2 1089   1.156   1.368   2.115 -1.3892 -0.3340  2.0238
  364SOL     OW 1090   0.515   2.363   2.037  0.4213  0.0819  0.1781
  364SOL    HW1 1091   0.421   2.405   2.057  0.4176 -0.0533 -0.2424
  364SOL    HW2 1092   0.564   2.405   1.956  0.9081  0.5295  0.5841
  365SOL     OW 1093   1.051   1.981   1.339  0.1498  0.7045 -0.1617
  365SOL    HW1 1094   0.950   1.978   1.361 -0.0375 -0.1044 -0.6372
  365SOL    HW2 1095   1.062   2.029   1.248 -0.3612 -0.7776  0.0084
  366SOL     OW 1096   2.854   1.944   0.368  0.2327 -0.0218 -0.3900
  366SOL    HW1 1097   2.785   1.966   0.291  0.7277 -1.3251 -0.5738
  366SOL    HW2 1098   2.928   1.877   0.338 -2.2016 -0.9198  0.6159
  367SOL     OW 1099   0.950   1.183   0.031 -0.6566 -0.2244 -0.1610
  367SOL    HW1 1100   0.954   1.097   0.093  1.9361 -0.0610 -1.3092
  367SOL    HW2 1101   1.040   1.231   0.039 -1.8575  0.7462  1.7963
  368SOL     OW 1102   1.459   0.518   0.596  0.2782  0.0780 -0.7779
  368SOL    HW1 1103   1.390   0.546   0.528  5.2273  1.5519  0.1652
  368SOL    HW2 1104   1.553   0.551   0.571 -1.0427 -0.4963 -0.4478
  369SOL     OW 1105   0.382   1.736   0.186  0.1325 -0.5788 -0.1721
  369SOL    HW1 1106   0.399   1.786   0.274  2.4282  1.6750  0.4669
  369SOL    HW2 1107   0.340   1.641   0.197 -1.2502  0.1332 -1.0731
  370SOL     OW 1108   0.426   2.096   1.036 -0.3930  0.0089  0.0784
  370SOL    HW1 1109   0.433   2.202   1.033  0.9804 -1.0195 -0.5087
  370SOL    HW2 1110   0.332   2.070   0.987 -3.9561  2.4117 -0.0652
  371SOL     OW 1111   2.863   2.220   2.628 -0.0721  0.0583  0.5447
  371SOL    HW1 1112   2.799   2.152   2.674  2.9800  1.8584  1.3894
  371SOL    HW2 1113   2.925   2.263   2.701  1.3308  0.2263 -0.9580
  372SOL     OW 1114   1.063   2.084   1.044 -0.3731  0.4911  0.9450
  372SOL    HW1 1115   0.977   2.129   1.002 -1.1200  1.4130  2.2718
  372SOL    HW2 1116   1.148   2.104   0.985  0.4607  2.8269  1.3414
  373SOL     OW 1117   1.929   1.910   0.991  0.2352 -0.0214  0.3089
  373SOL    HW1 1118   2.017   1.948   1.030  0.8946 -2.2381  1.8978
  373SOL    HW2 1119   1.864   1.979   0.951 -2.0286 -2.0193 -2.9551
  374SOL     OW 1120   1.862   0.409   0.565 -0.4042  0.5067  0.1174
  374SOL    HW1 1121   1.829   0.366   0.653  1.6719 -0.6703 -1.8413
  374SOL    HW2 1122   1.966   0.388   0.542  2.0232 -1.0316  0.9752
  375SOL     OW 1123   2.398   2.181   1.075 -0.4682  0.6238  0.2031
  375SOL    HW1 1124   2.432   2.139   0.983  1.4046  1.8700 -0.6121
  375SOL    HW2 1125   2.457   2.157   1.158 -0.5363 -0.5130  2.3386
  376SOL     OW 1126   3.049   0.532   1.427  0.2384  0.7476 -1.2618
  376SOL    HW1 1127   3.039   0.619   1.487 -0.9220  0.0725  1.2145
  376SOL    HW2 1128   2.979   0.459   1.438  1.3038 -1.6226 -1.0826
  377SOL     OW 1129   2.172   2.926   0.309 -0.2071  0.2737  0.1179
  377SOL    HW1 1130   2.170   3.029   0.319  1.6828 -0.3059 -1.9616
  377SOL    HW2 1131   2.250   2.881   0.358 -0.0019 -0.1185 -0.1567
  378SOL     OW 1132   1.745   1.826   2.519  0.0053  0.0818  0.0617
  378SOL    HW1 1133   1.842   1.856   2.528 -3.3929 -1.1629  0.5377
  378SOL    HW2 1134   1.730   1.721   2.516  1.5545  0.4608 -0.3613
  379SOL     OW 1135   0.717   0.149   2.835  0.6845 -0.2514 -0.3264
  379SOL    HW1 1136   0.765   0.073   2.789  0.4782  0.3979  0.9492
  379SOL    HW2 1137   0.659   0.215   2.778 -0.2435  2.2993 -1.4847
  380SOL     OW 1138   1.581   1.146   0.542  0.1191  0.2609 -0.3850
  380SOL    HW1 1139   1.482   1.180   0.549 -0.9502 -0.6856 -0.7432
  380SOL    HW2 1140   1.594   1.047   0.568 -1.6232 -0.6805 -0.1513
  381SOL     OW 1141   1.353   1.204   1.575  0.3122  0.1264  0.0377
  381SOL    HW1 1142   1.376   1.128   1.510 -0.7384 -1.0846  0.4205
  381SOL    HW2 1143   1.432   1.271   1.578 -0.7542 -0.6415 -0.5934
  382SOL     OW 1144   1.831   0.894   0.218 -0.2901  0.3017  0.3073
  382SOL    HW1 1145   1.860   0.855   0.127  1.0378  0.5136  0.3052
  382SOL    HW2 1146   1.888   0.861   0.300  2.0712 -0.3850 -0.1552
  383SOL     OW 1147   2.596   1.006   1.484  0.3417 -0.1157  0.2923
  383SOL    HW1 1148   2.501   0.978   1.456 -2.6898 -2.5179  1.0010
  383SOL    HW2 1149   2.668   0.990   1.411  0.2383  1.2533 -0.9409
  384SOL     OW 1150   0.885   2.234   0.177 -0.6578  0.1755 -0.3413
  384SOL    HW1 1151   0.874   2.328   0.217 -1.1291 -0.8647  1.2187
  384SOL    HW2 1152   0.883   2.155   0.248  1.7731 -1.4188 -0.8188
  385SOL     OW 1153   2.973   1.996   1.658  0.3443 -0.0797 -0.2691
  385SOL    HW1 1154   3.051   2.069   1.662 -1.9214 -2.5093  0.1122
  385SOL    HW2 1155   3.018   1.904   1.642 -2.0040 -0.3065  2.5399
  386SOL     OW 1156   0.484   1.076   0.465 -0.7232 -0.1221  0.0034
  386SOL    HW1 1157   0.472   0.982   0.494  0.4297  2.4657 -1.7492
  386SOL    HW2 1158   0.394   1.127   0.437 -0.5295  1.5131  0.7329
  387SOL     OW 1159   0.914   0.408   1.658 -0.0950 -0.3094 -0.4921
  387SOL    HW1 1160   0.937   0.506   1.684 -0.7829 -2.5383 -0.3368
  387SOL    HW2 1161   0.967   0.367   1.578  0.0287  0.2527 -0.8420
  388SOL     OW 1162   1.189   2.729   1.736  0.0088  0.1173  0.8066
  388SOL    HW1 1163   1.243   2.751   1.650 -2.4162  1.7922  1.0941
  388SOL    HW2 1164   1.237   2.661   1.796  0.6044  1.3618 -2.2877
  389SOL     OW 1165   0.137   2.981   1.255 -0.6502 -0.2969  0.7427
  389SOL    HW1 1166   0.036   3.010   1.243 -1.0189 -0.2203 -0.2168
  389SOL    HW2 1167   0.154   2.878   1.269  0.6436 -3.2527  1.0732
  390SOL     OW 1168   1.057   0.967   1.300  0.7267  0.0075 -0.0707
  390SOL    HW1 1169   1.131   0.955   1.373 -1.7806  2.0109  0.5703
  390SOL    HW2 1170   0.979   1.035   1.324 -2.8424 -1.2049 -0.0280
  391SOL     OW 1171   2.186   1.114   1.082 -0.3734 -0.2948  0.1634
  391SOL    HW1 1172   2.145   1.042   1.140  2.2408  1.8614 -0.5631
  391SOL    HW2 1173   2.234   1.081   0.997 -0.2385 -1.1295 -0.7587
  392SOL     OW 1174   0.877   2.655   3.045  0.1592 -0.1705 -0.6097
  392SOL    HW1 1175   0.966   2.599   3.037  4.0316 -1.6075 -0.3189
  392SOL    HW2 1176   0.819   2.616   3.116  1.7485 -1.6237 -0.6156
  393SOL     OW 1177   0.364   0.554   1.979 -0.9894 -0.6690  0.2570
  393SOL    HW1 1178   0.288   0.487   1.974  2.0689 -1.1150  0.1646
  393SOL    HW2 1179   0.434   0.526   1.904  1.0049 -0.4900 -2.3959
  394SOL     OW 1180   2.972   1.922   2.795  0.7521  0.5281  0.1240
  394SOL    HW1 1181   3.065   1.947   2.834 -2.0742  1.1614 -0.7399
  394SOL    HW2 1182   2.972   1.935   2.691  0.0220  0.8762 -0.2226
  395SOL     OW 1183   1.597   1.990   0.665 -0.0847  0.0879  0.0432
  395SOL    HW1 1184   1.658   1.926   0.607  0.9257 -0.8252  0.9853
  395SOL    HW2 1185   1.646   2.017   0.754  0.1147 -1.1257  0.9310
  396SOL     OW 1186   2.814   1.849   1.271  0.3310 -0.5688 -0.1050
  396SOL    HW1 1187   2.810   1.746   1.278 -1.8664  0.5395 -0.6369
  396SOL    HW2 1188   2.792   1.898   1.361  0.1686  2.8951 -0.3058
  397SOL     OW 1189   1.035   2.221   0.493 -0.7522  0.1819  0.0560
  397SOL    HW1 1190   0.944   2.190   0.536  4.1504 -1.1370  3.2525
  397SOL    HW2 1191   1.068   2.313   0.530  0.5251  1.1247  0.1053
  398SOL     OW 1192   2.164   0.006   1.009  0.0469  0.2967 -0.1983
  398SOL    HW1 1193   2.178  -0.093   1.034 -1.4949  1.2975 -2.3266
  398SOL    HW2 1194   2.083   0.049   1.062 -1.7005 -0.3827 -0.0743
  399SOL     OW 1195   3.080   2.445   2.563  0.1862 -0.2269  0.3217
  399SOL    HW1 1196   2.983   2.418   2.533  3.5734 -2.6476  0.6219
  399SOL    HW2 1197   3.130   2.370   2.616  3.0876 -0.2563  1.0108
  400SOL     OW 1198   0.802   1.635   1.346  0.4843  0.5463  0.9496
  400SOL    HW1 1199   0.722   1.668   1.404  0.2806 -1.1574 -1.0125
  400SOL    HW2 1200   0.805   1.681   1.253 -0.3629 -2.6678 -3.2242
  401SOL     OW 1201   1.863   0.097   1.282  0.1988  0.1767 -1.0162
  401SOL    HW1 1202   1.924   0.077   1.369 -0.8479  0.3125  2.5504
  401SOL    HW2 1203   1.762   0.115   1.303 -0.4909  2.1843 -1.7850
  402SOL     OW 1204   1.296   0.139   3.094 -0.2197 -0.2278 -0.0057
  402SOL    HW1 1205   1.382   0.108   3.046  2.3840 -0.3241  0.6222
  402SOL    HW2 1206   1.269   0.235   3.073 -0.9721  1.2419  2.1340
  403SOL     OW 1207   2.287   1.766   0.971 -0.3589  0.0576 -0.3361
  403SOL    HW1 1208   2.381   1.762   1.006 -2.3895  2.3036 -0.2231
  403SOL    HW2 1209   2.237   1.853   0.994 -1.2963  0.8820 -0.5334
  404SOL     OW 1210   0.164   2.478   2.795  0.0511 -0.5195  0.0279
  404SOL    HW1 1211   0.264   2.458   2.767  1.9439 -2.5728  2.2211
  404SOL    HW2 1212   0.154   2.579   2.826 -0.8132  0.6574  2.4468
  405SOL     OW 1213   0.131   2.450   0.698 -0.1587  0.6413 -0.4315
  405SOL    HW1 1214   0.131   2.394   0.613  0.7118  2.6082  2.4680
  405SOL    HW2 1215   0.217   2.510   0.710 -0.9721 -1.7152 -1.5557
  406SOL     OW 1216   0.091   1.522   3.032 -0.4741  0.2953  0.1641
  406SOL    HW1 1217   0.162   1.497   2.963 -0.6358 -2.5695 -0.0390
  406SOL    HW2 1218   0.134   1.526   3.130  0.5299 -1.0907 -1.9480
  407SOL     OW 1219   1.533   0.922   1.012  0.0074  0.3939  0.1026
  407SOL    HW1 1220   1.504   0.896   0.917 -0.1783  0.3042 -1.7943
  407SOL    HW2 1221   1.486   1.004   1.055  3.0846 -2.1833 -0.4432
  408SOL     OW 1222   1.613   2.440   0.959 -0.0402  0.3376  0.4048
  408SOL    HW1 1223   1.662   2.411   0.869  0.0649  0.1920 -0.5986
  408SOL    HW2 1224   1.549   2.520   0.944 -2.3277 -1.4409 -0.2800
  409SOL     OW 1225   0.625   0.827   0.754  0.6481  0.1470  0.2229
  409SOL    HW1 1226   0.568   0.805   0.668 -2.7855  1.3397  0.6036
  409SOL    HW2 1227   0.643   0.738   0.801  1.4250  1.6007  1.9671
  410SOL     OW 1228   1.314   2.028   1.393 -0.0711 -0.7328 -0.2128
  410SOL    HW1 1229   1.377   1.958   1.449 -0.3803 -0.2129  0.6072
  410SOL    HW2 1230   1.215   2.000   1.384 -2.4895 -0.4756 -0.0865
  411SOL     OW 1231   2.618   1.897   3.055  0.3081  0.2117 -0.2589
  411SOL    HW1 1232   2.533   1.945   3.022  1.0031  0.9129 -2.0004
  411SOL    HW2 1233   2.677   1.864   2.977  2.5015 -2.0413  0.3225
  412SOL     OW 1234   1.480   2.477   2.171  0.2742  0.1984  0.3808
  412SOL    HW1 1235   1.529   2.561   2.203 -0.2716 -0.1510 -3.0159
  412SOL    HW2 1236   1.392   2.459   2.224 -0.8332 -0.0269 -1.6150
  413SOL     OW 1237   3.033   0.222   2.917 -0.5525  0.2508 -0.2063
  413SOL    HW1 1238   3.020   0.148   2.989  1.8493 -0.2353  0.2334
  413SOL    HW2 1239   3.139   0.228   2.899  0.5525  0.1375 -3.2475
  414SOL     OW 1240   1.906   1.539   1.198  0.3530  0.1379  0.3548
  414SOL    HW1 1241   1.867   1.625   1.159  0.1599  2.6605  0.3251
  414SOL    HW2 1242   1.833   1.494   1.256 -1.2730  2.3937 -3.0841
  415SOL     OW 1243   0.338   2.241   0.708 -0.0070 -0.4322  0.9794
  415SOL    HW1 1244   0.288   2.324   0.744  1.1759  0.1842  0.9230
  415SOL    HW2 1245   0.292   2.162   0.747  1.2905  1.2710  0.4066
  416SOL     OW 1246   0.378   1.077   1.053  0.0224  0.2283 -0.4169
  416SOL    HW1 1247   0.369   1.020   0.970  0.1071  0.7879  1.6363
  416SOL    HW2 1248   0.462   1.133   1.053 -3.4741  0.2236  0.9783
  417SOL     OW 1249   2.234   2.306   2.020  0.2540  0.0175 -0.1641
  417SOL    HW1 1250   2.312   2.237   2.036 -1.5645 -3.5444 -0.6089
  417SOL    HW2 1251   2.149   2.282   2.078 -2.8371 -1.8870  0.7127
  418SOL     OW 1252   1.092   0.563   1.345 -0.1300  0.4061 -0.3230
  418SOL    HW1 1253   1.031   0.512   1.278  2.6579 -0.3628  0.8091
  418SOL    HW2 1254   1.195   0.578   1.318  0.5542  1.0237 -1.4550
  419SOL     OW 1255   0.957   0.502   2.992  0.6167 -0.0352 -0.2496
  419SOL    HW1 1256   0.875   0.496   2.930 -1.1887  0.8432 -3.1582
  419SOL    HW2 1257   0.968   0.600   3.021  1.5220  2.7430 -0.5335
  420SOL     OW 1258   0.103   2.265   0.510 -0.2825  0.2265  0.3547
  420SOL    HW1 1259   0.169   2.223   0.442  0.8096 -2.2238  1.4587
  420SOL    HW2 1260   0.025   2.202   0.535  1.0826 -0.8239  0.9299
  421SOL     OW 1261   0.316   3.003   0.644 -0.3772 -0.3403 -0.0035
  421SOL    HW1 1262   0.284   2.943   0.720  1.3657 -0.9253 -0.7701
  421SOL    HW2 1263   0.419   3.013   0.641 -0.0537 -0.2849  0.6647
  422SOL     OW 1264   1.041   2.537   1.038 -0.3744  0.6064 -0.5396
  422SOL    HW1 1265   1.093   2.612   0.987 -1.2455 -0.6532 -2.1373
  422SOL    HW2 1266   0.998   2.566   1.128  0.1333 -0.0427  1.6291
  423SOL     OW 1267   0.127   0.701   1.291  0.4134  0.1107 -0.3716
  423SOL    HW1 1268   0.064   0.617   1.313  0.8996  1.3592  0.6380
  423SOL    HW2 1269   0.077   0.796   1.286 -2.1409  0.9209  0.1765
  424SOL     OW 1270   1.010   2.244   2.040  0.4744 -0.8819 -0.3114
  424SOL    HW1 1271   1.017   2.346   2.019  1.2182 -0.0777 -0.6404
  424SOL    HW2 1272   1.010   2.215   2.144  1.9814 -0.5347 -0.2083
  425SOL     OW 1273   1.990   1.303   1.006 -0.0756 -0.3647 -0.1347
  425SOL    HW1 1274   2.060   1.230   1.040 -1.7254 -2.8376  0.0348
  425SOL    HW2 1275   2.038   1.388   0.977 -0.8054 -0.5681 -0.5578
  426SOL     OW 1276   1.500   1.603   1.368  0.4069  0.1642  0.8224
  426SOL    HW1 1277   1.472   1.679   1.299  1.0510  2.2717 -1.8390
  426SOL    HW2 1278   1.440   1.595   1.451  3.1086  1.3139 -0.2371
  427SOL     OW 1279   1.926   2.358   2.070  0.3535  0.0447  0.0523
  427SOL    HW1 1280   1.971   2.290   2.139  1.2039 -2.2977  2.0095
  427SOL    HW2 1281   1.942   2.457   2.090 -2.0229 -0.5736  1.5107
  428SOL     OW 1282   0.856   3.084   0.167  0.5044 -0.5512  0.0485
  428SOL    HW1 1283   0.839   3.154   0.095  1.6078 -2.5017  0.4159
  428SOL    HW2 1284   0.945   3.039   0.153 -0.1007 -2.2802  1.2172
  429SOL     OW 1285   1.302   0.075   0.260  0.6533 -0.0160 -0.2139
  429SOL    HW1 1286   1.395   0.076   0.305 -0.3075  0.2398 -0.0890
  429SOL    HW2 1287   1.310   0.091   0.158  2.5680 -0.1865  1.0948
  430SOL     OW 1288   2.798   1.421   0.317  0.8691 -0.2483  0.0336
  430SOL    HW1 1289   2.791   1.471   0.225 -3.1742 -0.2085 -3.9329
  430SOL    HW2 1290   2.840   1.480   0.390 -0.2084 -0.5846 -2.0570
  431SOL     OW 1291   2.122   1.557   0.869 -0.1675 -0.2400  0.3786
  431SOL    HW1 1292   2.183   1.622   0.925  1.4604  1.4122 -1.2453
  431SOL    HW2 1293   2.060   1.607   0.808  0.8040  0.1721  1.5525
  432SOL     OW 1294   2.883   2.244   1.192  0.5102  0.2565 -0.8810
  432SOL    HW1 1295   2.903   2.147   1.156  1.0793 -0.6764 -3.6008
  432SOL    HW2 1296   2.915   2.254   1.291 -1.1782  0.9865  1.4927
  433SOL     OW 1297   1.830   0.354   0.838 -0.1139 -0.6296 -0.0391
  433SOL    HW1 1298   1.732   0.346   0.872 -4.7478 -1.5746 -0.1294
  433SOL    HW2 1299   1.885   0.268   0.868 -0.0927 -0.9416 -1.0575
  434SOL     OW 1300   1.509   0.284   0.699  0.4773  0.7812 -0.1067
  434SOL    HW1 1301   1.483   0.364   0.637 -0.0876  2.9884 -1.3563
  434SOL    HW2 1302   1.557   0.308   0.786  0.0615 -2.3809 -0.3730
  435SOL     OW 1303   1.446   1.499   2.079 -0.5013  0.1435  0.2608
  435SOL    HW1 1304   1.412   1.553   2.163  1.4287  0.0966  0.7763
  435SOL    HW2 1305   1.465   1.563   1.994  0.6940  0.5666 -3.2963
  436SOL     OW 1306   1.704   2.736   2.269 -0.0668 -0.0307  0.7340
  436SOL    HW1 1307   1.660   2.814   2.322 -0.7800  1.1810  1.0133
  436SOL    HW2 1308   1.715   2.647   2.326 -0.9187 -0.4153 -0.7533
  437SOL     OW 1309   1.096   2.949   0.952 -0.1991 -0.2290 -0.1257
  437SOL    HW1 1310   1.013   3.011   0.941 -1.9332 -2.8113 -1.0046
  437SOL    HW2 1311   1.133   2.941   1.046  1.7169  1.4488 -0.8716
  438SOL     OW 1312   0.995   2.596   1.316 -0.0985  0.4525  0.5338
  438SOL    HW1 1313   1.084   2.616   1.369 -0.6632  0.9737 -2.2972
  438SOL    HW2 1314   0.980   2.492   1.315  1.0188 -2.2587 -0.9577
  439SOL     OW 1315   0.680   1.776   1.096  0.0798 -0.0135  0.2169
  439SOL    HW1 1316   0.652   1.855   1.034  0.6510  2.1039  0.6233
  439SOL    HW2 1317   0.600   1.742   1.152  0.6391  1.2082  1.0979
  440SOL     OW 1318   1.028   2.510   1.948  0.6062  0.5842 -0.0987
  440SOL    HW1 1319   0.965   2.539   1.867 -0.0859  2.2310 -0.0507
  440SOL    HW2 1320   1.133   2.520   1.931 -1.4379  3.4555  1.0773
  441SOL     OW 1321   0.511   2.724   1.428 -0.3619 -0.3378 -0.3834
  441SOL    HW1 1322   0.545   2.627   1.445  0.5779 -1.6876  2.5775
  441SOL    HW2 1323   0.408   2.731   1.404  2.9967 -0.6667 -0.4845
  442SOL     OW 1324   2.266   0.717   2.511 -0.2708  0.4814 -0.0630
  442SOL    HW1 1325   2.278   0.615   2.541  0.1266 -1.0920 -0.0165
  442SOL    HW2 1326   2.168   0.730   2.479 -0.0602 -1.3594  0.0296
  443SOL     OW 1327   1.225   2.723   2.133 -0.2446  0.0953  0.3657
  443SOL    HW1 1328   1.240   2.781   2.215  0.6609  1.8959 -2.0747
  443SOL    HW2 1329   1.172   2.636   2.158 -3.7208 -2.3640 -0.8518
  444SOL     OW 1330   1.088   1.266   1.587  0.4375 -0.0503 -0.0606
  444SOL    HW1 1331   1.183   1.217   1.588  1.1000  1.6694 -1.7955
  444SOL    HW2 1332   1.104   1.358   1.635 -2.3239 -0.5155  0.7775
  445SOL     OW 1333   0.019   2.337   1.872  0.2183 -0.5863  0.2850
  445SOL    HW1 1334   0.018   2.435   1.840  1.4878 -0.2945  1.4987
  445SOL    HW2 1335  -0.054   2.316   1.940 -0.5875 -0.2051 -1.7111
  446SOL     OW 1336   0.212   1.922   2.319 -0.4287 -0.2481 -0.1546
  446SOL    HW1 1337   0.167   1.985   2.392  1.2212 -0.9654 -0.3436
  446SOL    HW2 1338   0.139   1.901   2.245  2.1420 -0.8208  0.8168
  447SOL     OW 1339   1.182   1.687   1.941  1.0554 -0.3798  0.0793
  447SOL    HW1 1340   1.107   1.745   1.898 -1.8906 -1.2321  1.2766
  447SOL    HW2 1341   1.278   1.712   1.911 -0.5222 -1.4826 -2.2967
  448SOL     OW 1342   0.169   1.549   2.049 -0.0248  0.1299  0.3967
  448SOL    HW1 1343   0.172   1.617   1.966 -0.1863  0.1999  0.2989
  448SOL    HW2 1344   0.115   1.579   2.133  1.9637 -1.0774 -3.1411
  449SOL     OW 1345   1.975   2.950   0.823  0.3033  0.0868  0.0250
  449SOL    HW1 1346   2.052   2.984   0.882 -0.4749  3.1252  0.2525
  449SOL    HW2 1347   1.985   2.846   0.809 -1.3044 -0.4539 -1.8798
  450SOL     OW 1348   2.332   1.339   0.765 -0.2769 -0.2939  0.3489
  450SOL    HW1 1349   2.314   1.247   0.813  1.4486 -0.3396  0.8189
  450SOL    HW2 1350   2.253   1.368   0.702 -3.9981  0.1535  0.2675
  451SOL     OW 1351   1.366   0.002   1.431  1.0233  0.0764 -0.0090
  451SOL    HW1 1352   1.296   0.070   1.466  0.0520 -0.5326 -0.0335
  451SOL    HW2 1353   1.417  -0.047   1.506  1.8288  0.6089  1.4601
  452SOL     OW 1354   2.656   2.293   2.175 -0.2921  0.2447 -0.0347
  452SOL    HW1 1355   2.594   2.367   2.220 -0.1534  0.0931  1.6436
  452SOL    HW2 1356   2.727   2.256   2.244 -0.6432 -0.0556  1.5243
  453SOL     OW 1357   2.442   2.673   3.054 -0.3359  0.1042 -0.0435
  453SOL    HW1 1358   2.346   2.709   3.078  2.0511  1.2921  3.2891
  453SOL    HW2 1359   2.441   2.589   2.985 -0.5461  0.1082  0.6375
  454SOL     OW 1360   1.036   1.104   2.079 -0.6452 -0.3682  0.3155
  454SOL    HW1 1361   0.990   1.124   1.989  0.4662  0.4936 -0.4381
  454SOL    HW2 1362   1.119   1.159   2.100  0.7405 -1.5369 -0.4168
  455SOL     OW 1363   0.634   2.608   2.900  0.8914  0.0099 -0.0544
  455SOL    HW1 1364   0.696   2.665   2.962 -1.4595 -0.5236  1.9730
  455SOL    HW2 1365   0.650   2.507   2.916  1.1286 -0.2170  0.3823
  456SOL     OW 1366   0.502   1.910   0.380 -0.1548 -0.3871  0.4274
  456SOL    HW1 1367   0.576   1.883   0.442 -1.2352  1.2473 -0.2779
  456SOL    HW2 1368   0.511   2.004   0.336 -1.3810  0.7840  0.2716
  457SOL     OW 1369   0.354   2.623   0.725 -0.2169 -0.2823 -0.1770
  457SOL    HW1 1370   0.385   2.640   0.626  3.0246 -0.5289 -2.6424
  457SOL    HW2 1371   0.420   2.664   0.788 -0.5477 -1.4476 -1.0748
  458SOL     OW 1372   2.955   3.071   1.205  0.3504 -0.8713  0.3969
  458SOL    HW1 1373   2.988   3.166   1.214  2.0241 -2.6476 -4.0309
  458SOL    HW2 1374   2.945   3.039   1.107 -0.0642 -1.5817 -0.2265
  459SOL     OW 1375   2.203   2.527   0.819 -0.1762  0.2261  0.7004
  459SOL    HW1 1376   2.208   2.592   0.898  0.1647 -0.1501 -1.1199
  459SOL    HW2 1377   2.288   2.532   0.753 -2.8174  1.5499 -1.2069
  460SOL     OW 1378   1.138   1.945   2.936  0.2217 -0.2310  0.3863
  460SOL    HW1 1379   1.172   2.009   2.860  2.4889 -1.6970  0.4650
  460SOL    HW2 1380   1.218   1.893   2.982 -1.7524  0.6643 -1.3414
  461SOL     OW 1381   0.487   2.130   2.678 -0.2836  0.1687 -0.1029
  461SOL    HW1 1382   0.433   2.066   2.615 -0.4400  1.4256 -0.3271
  461SOL    HW2 1383   0.530   2.087   2.761 -1.1007  2.1200 -0.2639
  462SOL     OW 1384   0.927   1.146   1.830  0.4666  0.3028  0.2390
  462SOL    HW1 1385   1.004   1.109   1.768  0.4030  0.3466  3.3293
  462SOL    HW2 1386   0.884   1.230   1.788 -2.0331  0.7385 -1.2625
  463SOL     OW 1387   0.456   0.773   0.534  0.1033  0.3613  0.2624
  463SOL    HW1 1388   0.485   0.683   0.486 -2.5397 -0.1525  0.2223
  463SOL    HW2 1389   0.355   0.766   0.538  0.4993 -0.9574  0.7742
  464SOL     OW 1390   0.585   2.220   2.281  0.2946 -0.0937  0.4361
  464SOL    HW1 1391   0.604   2.305   2.338  2.5560 -0.5424 -0.9090
  464SOL    HW2 1392   0.570   2.245   2.179 -2.2328  0.6873 -2.3578
  465SOL     OW 1393   0.284   0.919   0.826 -0.2633 -0.6044  0.2524
  465SOL    HW1 1394   0.207   0.963   0.773 -0.4147  0.5726  0.6712
  465SOL    HW2 1395   0.294   0.814   0.803  0.6588 -1.6126 -0.4087
  466SOL     OW 1396   1.353   1.138   1.168  0.3009 -0.5554  0.2188
  466SOL    HW1 1397   1.416   1.219   1.185 -1.9498 -1.6070 -1.5290
  466SOL    HW2 1398   1.256   1.158   1.139 -2.5663 -1.2798  3.9653
  467SOL     OW 1399   0.505   0.320   2.328  0.1053  0.0559 -0.4388
  467SOL    HW1 1400   0.489   0.419   2.358  3.3105  0.4337 -1.6154
  467SOL    HW2 1401   0.503   0.252   2.408  0.8746 -2.3017 -1.8056
  468SOL     OW 1402   0.459   2.312   1.692 -0.3376  0.1336 -0.0189
  468SOL    HW1 1403   0.517   2.388   1.735  0.3742  2.9122 -2.4936
  468SOL    HW2 1404   0.428   2.336   1.598 -2.1824 -2.3470 -2.1769
  469SOL     OW 1405   1.499   1.341   1.279  0.0861 -0.3227  0.2747
  469SOL    HW1 1406   1.591   1.295   1.294  0.2469 -2.8905  1.6361
  469SOL    HW2 1407   1.512   1.446   1.295 -1.5388 -0.6283 -0.6476
  470SOL     OW 1408   3.035   1.690   0.767 -0.4824  0.4520 -0.3885
  470SOL    HW1 1409   3.118   1.747   0.739  0.0196 -3.9885 -0.8427
  470SOL    HW2 1410   2.970   1.734   0.832  0.7387 -1.2829  1.8304
  471SOL     OW 1411   2.637   1.362   2.143 -0.2984  0.4571 -0.3670
  471SOL    HW1 1412   2.602   1.299   2.217  1.4876  0.9648 -0.8356
  471SOL    HW2 1413   2.733   1.395   2.167  1.4327 -0.8410  0.9134
  472SOL     OW 1414   1.132   2.476   3.063 -0.0343 -0.4197 -0.0883
  472SOL    HW1 1415   1.150   2.469   3.167 -2.4590 -0.5464  0.6451
  472SOL    HW2 1416   1.097   2.385   3.022 -2.2340 -1.9680  2.4532
  473SOL     OW 1417   1.063   1.511   0.940 -0.4125 -0.1225 -0.8636
  473SOL    HW1 1418   0.969   1.519   0.982 -0.4110 -0.7587  1.2406
  473SOL    HW2 1419   1.128   1.440   0.988  1.2599  1.4245 -1.1390
  474SOL     OW 1420   0.735   1.237   0.625  0.6434  0.2163  0.1541
  474SOL    HW1 1421   0.695   1.250   0.528 -0.4103  1.2024  0.0533
  474SOL    HW2 1422   0.775   1.142   0.642  1.3296 -1.4431 -0.5753
  475SOL     OW 1423   2.839   0.169   0.771  0.0758 -0.1616 -0.7794
  475SOL    HW1 1424   2.925   0.156   0.830  0.7406  1.5463  2.2446
  475SOL    HW2 1425   2.749   0.159   0.826 -0.0195 -1.2985  2.0151
  476SOL     OW 1426   0.884   2.975   1.781  0.5110  0.4875  0.2584
  476SOL    HW1 1427   0.968   2.955   1.834  1.2707 -2.1216  1.2704
  476SOL    HW2 1428   0.896   2.947   1.681  0.5967 -0.3169 -1.7158
  477SOL     OW 1429   1.434   0.335   2.505 -0.0947 -0.2259 -0.0557
  477SOL    HW1 1430   1.459   0.360   2.603 -0.5882  1.4808  0.9409
  477SOL    HW2 1431   1.519   0.298   2.455 -1.3225  0.1333 -0.3616
  478SOL     OW 1432   2.246   1.840   0.260  0.0993 -0.0808 -0.5309
  478SOL    HW1 1433   2.173   1.774   0.232 -1.4837  0.1404  0.0730
  478SOL    HW2 1434   2.342   1.800   0.233  0.9565  0.7039 -0.8851
  479SOL     OW 1435   1.290   1.078   2.935 -0.3099 -0.2543 -0.5693
  479SOL    HW1 1436   1.361   1.082   2.855 -0.7117  0.1722 -0.1974
  479SOL    HW2 1437   1.187   1.051   2.918 -3.1699 -0.6554 -1.6327
  480SOL     OW 1438   2.502   2.312   0.383 -0.0798 -0.8670  0.0300
  480SOL    HW1 1439   2.459   2.223   0.407  1.5412  0.2141 -1.1423
  480SOL    HW2 1440   2.452   2.366   0.306  0.8553  4.3379  0.9448
  481SOL     OW 1441   1.033   1.164   0.831  0.2756  0.6949 -0.1347
  481SOL    HW1 1442   1.056   1.234   0.760  0.1411 -0.2844 -1.4379
  481SOL    HW2 1443   1.053   1.198   0.926 -0.1940  0.2569  0.1583
  482SOL     OW 1444   1.596   0.309   2.031 -0.2832  0.8838 -0.6009
  482SOL    HW1 1445   1.595   0.411   2.007  0.7109 -1.0619 -0.6753
  482SOL    HW2 1446   1.677   0.276   2.084  0.6442 -0.9971  3.1728
  483SOL     OW 1447   0.184   2.371   1.263  0.3224  0.5220  0.2083
  483SOL    HW1 1448   0.093   2.350   1.308  0.3456  0.5374  0.6397
  483SOL    HW2 1449   0.173   2.420   1.174 -0.1959  0.7514 -0.5675
  484SOL     OW 1450   1.688   0.992   1.377 -0.5620 -0.8479 -0.0377
  484SOL    HW1 1451   1.759   0.917   1.356  3.0095  0.5121  0.8088
  484SOL    HW2 1452   1.711   1.042   1.466  0.1445 -0.4209  0.8304
  485SOL     OW 1453   0.653   1.072   1.809  0.0296  0.4179  0.6102
  485SOL    HW1 1454   0.653   1.039   1.711 -1.8022  0.3272 -4.3465
  485SOL    HW2 1455   0.747   1.095   1.849 -0.3828  2.0756 -0.5827
  486SOL     OW 1456   0.940   1.930   2.447  0.5353  0.3360  0.1303
  486SOL    HW1 1457   0.978   1.872   2.526  0.1220 -0.7972  1.8134
  486SOL    HW2 1458   0.859   1.978   2.488  0.7895  2.4039  0.9009
  487SOL     OW 1459   1.755   1.556   0.912  0.0218 -0.1566 -0.0590
  487SOL    HW1 1460   1.774   1.451   0.913 -1.8794 -3.4582 -1.9006
  487SOL    HW2 1461   1.807   1.607   0.839 -1.7681  0.0942 -0.0626
  488SOL     OW 1462   2.957   0.881   2.235  0.2216  0.4049 -0.2547
  488SOL    HW1 1463   3.025   0.809   2.193  0.0028 -0.1211 -0.8585
  488SOL    HW2 1464   2.971   0.894   2.337 -0.4068 -0.1345  1.0585
  489SOL     OW 1465   2.782   0.251   1.314 -0.4371  0.0144 -0.0982
  489SOL    HW1 1466   2.761   0.197   1.400 -3.0388  2.3854 -0.9283
  489SOL    HW2 1467   2.887   0.258   1.299  3.4494 -2.0372 -1.3837
  490SOL     OW 1468   1.444   2.925   2.788 -0.0318  0.6185  0.0253
  490SOL    HW1 1469   1.526   2.861   2.796  1.1264  1.4515 -0.1550
  490SOL    HW2 1470   1.450   2.988   2.699  2.7857 -1.2409 -1.3994
  491SOL     OW 1471   1.790   1.473   2.656  0.1492  0.0482  0.6045
  491SOL    HW1 1472   1.737   1.456   2.744 -1.8614  1.7368  1.6042
  491SOL    HW2 1473   1.884   1.500   2.674  0.2541 -1.0889  1.7239
  492SOL     OW 1474   0.525   2.015   0.675 -0.3301  0.4126 -0.0235
  492SOL    HW1 1475   0.564   1.975   0.761  1.1207 -2.1372 -0.7781
  492SOL    HW2 1476   0.458   2.093   0.690  1.9830  0.7195 -0.8569
  493SOL     OW 1477   0.434   1.414   2.052  0.4959  0.3557 -0.4215
  493SOL    HW1 1478   0.350   1.470   2.062  0.8054 -2.0434  0.9161
  493SOL    HW2 1479   0.444   1.353   2.136 -0.6067 -0.4331 -1.2347
  494SOL     OW 1480   2.627   2.717   0.193  0.0064 -0.6183 -0.6902
  494SOL    HW1 1481   2.638   2.648   0.272 -0.2555 -1.4078 -0.6440
  494SOL    HW2 1482   2.572   2.678   0.116 -0.0306  1.7113  1.6994
  495SOL     OW 1483   2.745   2.676   2.692 -0.4889 -0.3162  0.3432
  495SOL    HW1 1484   2.668   2.607   2.677 -0.7926  0.9583  0.6209
  495SOL    HW2 1485   2.773   2.717   2.601 -2.0930  1.2961 -0.2278
  496SOL     OW 1486   2.037   2.184   0.710  0.1127 -0.7209 -0.3276
  496SOL    HW1 1487   2.051   2.227   0.806 -1.3525 -1.3584  2.4350
  496SOL    HW2 1488   2.091   2.097   0.704 -1.1890  1.1505  0.5649
  497SOL     OW 1489   0.207   2.983   2.424 -0.2266 -0.5403 -0.6000
  497SOL    HW1 1490   0.223   3.059   2.494 -3.7786 -0.6107  0.8798
  497SOL    HW2 1491   0.248   3.014   2.332  0.1643  1.8899 -2.0243
  498SOL     OW 1492   1.218   1.444   1.191  0.0018  0.1354 -0.3540
  498SOL    HW1 1493   1.296   1.417   1.251 -1.1834  0.1385 -1.3532
  498SOL    HW2 1494   1.155   1.511   1.235 -1.4465  2.3947 -1.8773
  499SOL     OW 1495   0.720   1.854   0.528  0.1289 -0.4754  0.5407
  499SOL    HW1 1496   0.734   1.757   0.556  1.2050  0.8984  0.7569
  499SOL    HW2 1497   0.690   1.917   0.605  1.8463  2.9958  0.7333
  500SOL     OW 1498   1.472   2.966   1.640 -0.2843  0.2483 -0.0018
  500SOL    HW1 1499   1.426   2.984   1.733 -0.8412 -0.4932  0.7648
  500SOL    HW2 1500   1.528   2.879   1.645  0.5165  1.3445  2.5393
  501SOL     OW 1501   0.846   1.121   2.295 -0.4548  0.3290  0.2460
  501SOL    HW1 1502   0.761   1.058   2.294 -0.3896 -0.3271  1.4011
  501SOL    HW2 1503   0.872   1.149   2.195  1.5332 -2.2549 -1.0416
  502SOL     OW 1504   2.627   0.949   1.759 -0.5095 -0.4766 -0.1688
  502SOL    HW1 1505   2.615   0.943   1.658 -2.2386  1.2678  0.2964
  502SOL    HW2 1506   2.550   0.902   1.813  0.6225  2.4815  1.0322
  503SOL     OW 1507   1.290   0.125   0.657  0.2032 -0.4507 -0.6909
  503SOL    HW1 1508   1.214   0.197   0.641  0.9843  1.7221  2.8498
  503SOL    HW2 1509   1.384   0.177   0.666  2.5280  2.4895 -4.8888
  504SOL     OW 1510   3.043   2.325   1.405 -0.4400 -0.2033  0.1472
  504SOL    HW1 1511   3.032   2.417   1.456  0.1139 -0.3234 -4.9377
  504SOL    HW2 1512   3.067   2.254   1.477  2.0772  0.2700  1.0864
  505SOL     OW 1513   2.270   1.174   1.522  0.0812  0.1862  0.2853
  505SOL    HW1 1514   2.295   1.223   1.429 -0.5560  3.3987 -1.2738
  505SOL    HW2 1515   2.304   1.225   1.603 -0.5584 -2.1679 -1.2273
  506SOL     OW 1516   2.000   0.210   1.769  0.1406  0.6479 -0.1383
  506SOL    HW1 1517   2.083   0.154   1.808  3.4559 -0.2238  1.7278
  506SOL    HW2 1518   1.997   0.302   1.817 -0.7511  1.7820 -1.8153
  507SOL     OW 1519   0.536   0.686   2.175  0.2634  0.2722  0.0818
  507SOL    HW1 1520   0.462   0.652   2.104 -3.9462 -1.8324 -0.8561
  507SOL    HW2 1521   0.602   0.608   2.189 -2.2932 -2.0967 -0.5322
  508SOL     OW 1522   0.257   1.624   0.891 -0.2139 -0.4359  0.4705
  508SOL    HW1 1523   0.300   1.700   0.832  1.7345 -0.9041  1.2500
  508SOL    HW2 1524   0.226   1.664   0.982 -2.2313  0.5512 -1.1649
  509SOL     OW 1525   1.345   1.251   2.347  0.0980  0.0156  0.3109
  509SOL    HW1 1526   1.261   1.197   2.360  5.0348  0.4842  1.9798
  509SOL    HW2 1527   1.422   1.194   2.309  1.6522 -4.3923  0.1074
  510SOL     OW 1528   1.294   2.031   2.055 -0.4717  0.1007  0.1047
  510SOL    HW1 1529   1.253   2.127   2.037  0.7894 -1.0736  0.7036
  510SOL    HW2 1530   1.235   1.978   2.117 -0.4200 -2.2129 -1.6324
  511SOL     OW 1531   3.091   2.699   1.352  0.1322 -0.7442 -0.2727
  511SOL    HW1 1532   3.087   2.664   1.255 -2.9956 -3.4627 -1.3829
  511SOL    HW2 1533   2.997   2.729   1.388  1.7507  0.8505 -0.0334
  512SOL     OW 1534   2.356   0.412   1.399 -0.2475  0.2237 -0.2790
  512SOL    HW1 1535   2.260   0.376   1.396  1.3932  0.5054 -0.2450
  512SOL    HW2 1536   2.410   0.368   1.324  1.0189 -0.8199  0.1725
  513SOL     OW 1537   2.479   2.065   0.852 -0.1883 -0.9181  0.3660
  513SOL    HW1 1538   2.421   2.130   0.794  1.5258  1.2944 -1.1879
  513SOL    HW2 1539   2.554   2.024   0.795 -1.5545  2.5386  0.9788
  514SOL     OW 1540   0.581   2.791   0.517  0.6017  0.5423 -0.2916
  514SOL    HW1 1541   0.595   2.851   0.435 -1.1563  0.2961 -1.0152
  514SOL    HW2 1542   0.632   2.823   0.603  2.3973  0.2188  0.8134
  515SOL     OW 1543   2.020   1.128   2.259 -0.5595  0.7273 -0.0214
  515SOL    HW1 1544   2.010   1.179   2.166  0.8814 -0.3816 -0.8760
  515SOL    HW2 1545   1.948   1.139   2.340 -1.2731 -3.3048  0.4198
  516SOL     OW 1546   0.262   0.245   1.932 -0.2422 -0.0353  0.8494
  516SOL    HW1 1547   0.335   0.245   1.857  2.0455 -1.4961 -0.3732
  516SOL    HW2 1548   0.173   0.203   1.904 -0.8457  1.0414  0.5620
  517SOL     OW 1549   0.424   3.040   1.174 -0.2321 -0.4646  0.1383
  517SOL    HW1 1550   0.432   3.138   1.148  0.1632  1.3471 -2.1525
  517SOL    HW2 1551   0.348   3.016   1.238 -1.2696 -1.7942  0.6386
  518SOL     OW 1552   2.197   3.095   1.767 -0.2633  0.0620 -0.2995
  518SOL    HW1 1553   2.260   3.167   1.803  0.0999 -1.0017 -0.1707
  518SOL    HW2 1554   2.240   3.029   1.695 -1.3199 -1.8345 -3.5050
  519SOL     OW 1555   2.355   2.238   2.594 -0.0380 -0.2578 -0.0057
  519SOL    HW1 1556   2.285   2.210   2.670  0.4767  3.0393  1.8600
  519SOL    HW2 1557   2.385   2.340   2.596  0.8849 -0.2988  0.4093
  520SOL     OW 1558   1.747   2.875   1.875 -0.4560  0.1399  0.0612
  520SOL    HW1 1559   1.649   2.872   1.913  1.1883 -0.5873  0.8366
  520SOL    HW2 1560   1.777   2.781   1.835  0.1868  0.5547 -1.5045
  521SOL     OW 1561   0.557   3.088   2.140 -0.2099 -0.5116 -0.6103
  521SOL    HW1 1562   0.457   3.063   2.153 -0.8877 -0.8368  0.1258
  521SOL    HW2 1563   0.609   3.121   2.222 -0.2851 -0.3392 -0.8250
  522SOL     OW 1564   0.207   1.888   1.431  0.0497 -0.4992 -0.0959
  522SOL    HW1 1565   0.269   1.934   1.501  0.8750 -0.8741  0.8841
  522SOL    HW2 1566   0.174   1.953   1.354 -1.8518  0.7648 -0.9505
  523SOL     OW 1567   2.261   2.950   1.549 -0.2686 -1.1585 -0.0371
  523SOL    HW1 1568   2.339   2.889   1.523 -1.0642 -1.1898  0.3327
  523SOL    HW2 1569   2.169   2.908   1.520  2.5632 -0.5409  0.3020
  524SOL     OW 1570   0.177   2.780   2.793  0.3285 -0.0264 -0.5173
  524SOL    HW1 1571   0.120   2.863   2.830 -1.3424  1.4432 -0.3355
  524SOL    HW2 1572   0.282   2.789   2.785  2.6009 -1.6655 -0.7074
  525SOL     OW 1573   2.150   1.972   0.466 -0.1324 -0.3490  0.4126
  525SOL    HW1 1574   2.166   1.925   0.557  3.6422 -1.2184  1.5215
  525SOL    HW2 1575   2.164   1.911   0.381  1.3156  0.8308 -2.1547
  526SOL     OW 1576   0.386   1.542   1.666 -0.4925 -0.4805 -0.6599
  526SOL    HW1 1577   0.310   1.515   1.731  1.4119 -0.4925 -0.8869
  526SOL    HW2 1578   0.455   1.466   1.647  3.4644  0.8343 -1.7275
  527SOL     OW 1579   1.101   2.977   1.249 -0.4177  0.1429  0.2673
  527SOL    HW1 1580   1.185   2.930   1.290  0.8273 -2.5828 -0.7836
  527SOL    HW2 1581   1.111   3.080   1.243  1.4786 -1.1525  1.1620
  528SOL     OW 1582   1.352   2.422   0.504  0.4461 -0.3814  0.2756
  528SOL    HW1 1583   1.375   2.322   0.514  2.1148  1.1479 -2.0564
  528SOL    HW2 1584   1.419   2.480   0.560 -1.2956  0.0513  0.6488
  529SOL     OW 1585   1.936   1.750   0.751  0.1500 -0.1254  1.0398
  529SOL    HW1 1586   1.871   1.762   0.670 -1.3899  1.4817  1.8544
  529SOL    HW2 1587   1.907   1.811   0.834  2.0665 -0.3231 -1.3240
  530SOL     OW 1588   0.289   2.523   0.307 -0.2420 -0.5964 -0.1063
  530SOL    HW1 1589   0.265   2.605   0.365 -2.1411 -2.8340 -1.6129
  530SOL    HW2 1590   0.333   2.443   0.361 -0.0147 -1.9647  0.9512
  531SOL     OW 1591   1.808   1.016   0.987  0.4952  0.0570  0.4185
  531SOL    HW1 1592   1.829   1.058   0.892  0.0473 -2.0566 -1.7585
  531SOL    HW2 1593   1.718   0.966   0.994 -1.9816  2.2658  1.1908
  532SOL     OW 1594   0.506   1.105   0.781  0.1426 -0.4761  0.8322
  532SOL    HW1 1595   0.523   1.135   0.684 -1.2040  1.1789  0.6400
  532SOL    HW2 1596   0.446   1.017   0.783  0.6495  0.4655  2.7267
  533SOL     OW 1597   1.751   0.034   2.590  0.3783 -0.5255  0.1370
  533SOL    HW1 1598   1.853   0.028   2.588  0.6075  1.5365 -0.6451
  533SOL    HW2 1599   1.720   0.091   2.670 -1.5472 -0.8383 -0.1981
  534SOL     OW 1600   0.307   0.223   1.631  0.0834  0.1635 -0.2884
  534SOL    HW1 1601   0.406   0.259   1.621 -0.2352 -0.4474 -0.6761
  534SOL    HW2 1602   0.233   0.302   1.628 -0.5166 -0.4982  3.0513
  535SOL     OW 1603   1.961   0.333   0.134  0.3173 -0.1332  0.3030
  535SOL    HW1 1604   1.964   0.418   0.192  1.0417 -1.2996 -0.7664
  535SOL    HW2 1605   1.926   0.254   0.181  0.2470  1.1900 -1.3650
  536SOL     OW 1606   1.407   2.622   0.933 -0.0537  0.4501  0.4988
  536SOL    HW1 1607   1.406   2.589   1.032 -0.7319  3.2439  1.3546
  536SOL    HW2 1608   1.305   2.623   0.895 -0.3390 -1.4203 -1.8771
  537SOL     OW 1609   0.834   0.281   2.409 -0.0747  0.7351  0.0242
  537SOL    HW1 1610   0.803   0.333   2.324 -0.5187  1.6534 -0.7187
  537SOL    HW2 1611   0.792   0.187   2.411 -1.9686  0.6482 -2.7163
  538SOL     OW 1612   1.665   2.334   1.494  0.3025 -0.3148 -0.5257
  538SOL    HW1 1613   1.628   2.236   1.488  1.1544 -0.2969  0.4456
  538SOL    HW2 1614   1.761   2.348   1.450  2.5100 -1.9639  0.3794
  539SOL     OW 1615   0.164   1.643   2.693 -0.2224  0.4423 -0.1674
  539SOL    HW1 1616   0.063   1.630   2.664  0.1700 -4.4042 -0.1233
  539SOL    HW2 1617   0.185   1.714   2.763  1.3488 -1.0483 -0.3119
  540SOL     OW 1618   2.671   1.742   1.911 -0.0830 -0.4151 -0.3231
  540SOL    HW1 1619   2.611   1.676   1.971 -2.3722 -0.4733  0.0814
  540SOL    HW2 1620   2.627   1.836   1.893 -4.2197  0.0115  3.2448
  541SOL     OW 1621   0.509   2.199   0.010  0.5108 -0.0677  0.0214
  541SOL    HW1 1622   0.539   2.176   0.106 -1.0441 -0.0135  0.4430
  541SOL    HW2 1623   0.412   2.168  -0.005  2.9605  0.3465  1.5490
  542SOL     OW 1624   2.227   2.556   0.419 -0.0333 -0.3282 -0.0901
  542SOL    HW1 1625   2.186   2.649   0.405 -0.0559 -0.3187  0.9476
  542SOL    HW2 1626   2.158   2.486   0.453 -1.3213  0.1335  2.2871
  543SOL     OW 1627   1.124   1.819   1.563  0.0041 -0.7793  0.1197
  543SOL    HW1 1628   1.096   1.862   1.654  3.2278  3.8915 -2.4830
  543SOL    HW2 1629   1.077   1.865   1.484  1.5698  0.0522 -2.4339
  544SOL     OW 1630   1.094   0.457   0.172  0.0213 -0.0962  0.2623
  544SOL    HW1 1631   1.065   0.377   0.226 -1.0663  1.5595  1.0828
  544SOL    HW2 1632   1.138   0.433   0.083 -0.1398  0.0084  0.6679
  545SOL     OW 1633   1.114   1.726   0.809 -0.0817  0.3488  0.2033
  545SOL    HW1 1634   1.215   1.723   0.770  1.5761  0.6459 -2.0727
  545SOL    HW2 1635   1.092   1.643   0.871 -0.5858  0.1105  0.1744
  546SOL     OW 1636   2.641   1.529   3.039 -0.2404 -0.2233  0.1092
  546SOL    HW1 1637   2.647   1.600   2.960  0.9414  2.3705 -2.3151
  546SOL    HW2 1638   2.553   1.472   3.038  1.0912 -2.1873  0.7059
  547SOL     OW 1639   0.622   3.004   2.610  0.1702 -0.0553  0.0891
  547SOL    HW1 1640   0.723   3.014   2.634  0.2565  0.3353 -1.9836
  547SOL    HW2 1641   0.571   2.944   2.678  1.6193  1.8752 -3.0402
  548SOL     OW 1642   2.090   0.877   2.991 -0.1323 -0.2154  0.1890
  548SOL    HW1 1643   1.998   0.840   3.013  0.8692  1.0331 -0.6295
  548SOL    HW2 1644   2.105   0.978   3.006  0.7227  0.3274 -0.9357
  549SOL     OW 1645   0.676   0.547   0.173 -0.4346  1.0527  0.1556
  549SOL    HW1 1646   0.616   0.585   0.098  0.1996 -2.1546  0.8097
  549SOL    HW2 1647   0.759   0.613   0.207  1.3106 -0.3499  2.8779
  550SOL     OW 1648   2.622   2.802   2.889 -0.1547 -0.3235  0.2568
  550SOL    HW1 1649   2.552   2.742   2.939 -1.8089 -0.0255  2.0329
  550SOL    HW2 1650   2.665   2.761   2.806 -0.4372  3.0927 -0.6256
  551SOL     OW 1651   0.297   0.856   0.244 -0.1579  0.1055  0.6007
  551SOL    HW1 1652   0.398   0.875   0.227 -1.1539  2.2603  1.6955
  551SOL    HW2 1653   0.269   0.827   0.336  0.7130 -0.1982 -0.2427
  552SOL     OW 1654   0.615   2.984   1.902 -0.0190  0.3311 -0.1734
  552SOL    HW1 1655   0.610   3.010   2.004 -0.3719  1.3854  1.2195
  552SOL    HW2 1656   0.713   2.991   1.860  3.2996 -0.2636  3.3982
  553SOL     OW 1657   2.908   2.458   0.359  0.2292  0.0128 -0.1072
  553SOL    HW1 1658   2.878   2.362   0.380 -1.4512 -2.1396  1.4387
  553SOL    HW2 1659   2.832   2.531   0.370 -2.9326 -3.0768 -2.8191
  554SOL     OW 1660   2.145   0.367   0.539 -0.6555 -0.3323 -0.1871
  554SOL    HW1 1661   2.186   0.380   0.446  0.5668  0.8705  2.0487
  554SOL    HW2 1662   2.153   0.265   0.564  1.3356  1.7638  0.4592
  555SOL     OW 1663   0.374   2.766   2.507 -0.1416 -0.5391 -0.3948
  555SOL    HW1 1664   0.303   2.843   2.490 -3.2294  1.2408  0.5364
  555SOL    HW2 1665   0.438   2.763   2.423 -0.0527  1.0063  1.3579
  556SOL     OW 1666   0.865   2.372   1.556 -0.3223  0.1329  0.1116
  556SOL    HW1 1667   0.919   2.454   1.595  1.4113  3.4148 -2.0208
  556SOL    HW2 1668   0.915   2.332   1.475 -0.6023  0.0344  1.9561
  557SOL     OW 1669   0.150   2.046   0.221 -0.0439 -0.5744  0.2599
  557SOL    HW1 1670   0.056   2.006   0.226 -2.2496 -0.5830  0.3671
  557SOL    HW2 1671   0.179   2.064   0.125  2.1328 -1.3679 -0.9841
  558SOL     OW 1672   2.784   2.216   0.418  0.1529 -0.4809  0.2816
  558SOL    HW1 1673   2.683   2.243   0.404 -2.0521 -0.0491  1.6223
  558SOL    HW2 1674   2.808   2.121   0.386  0.0544 -2.5203 -1.0413
  559SOL     OW 1675   0.419   2.316   1.410  0.5102 -0.0140 -0.2307
  559SOL    HW1 1676   0.338   2.337   1.351  0.4292 -0.8213  0.2355
  559SOL    HW2 1677   0.475   2.232   1.378  1.6353 -0.8638 -0.5375
  560SOL     OW 1678   2.115   1.132   3.067 -0.2443 -0.4811 -0.0478
  560SOL    HW1 1679   2.125   1.112   3.170  2.7058 -1.0245 -1.3912
  560SOL    HW2 1680   2.185   1.199   3.038 -0.6124 -1.6224  1.4349
  561SOL     OW 1681   0.012   1.861   0.001  0.1677  0.2501 -0.0990
  561SOL    HW1 1682  -0.024   1.791   0.067  0.1097  0.2815  0.2792
  561SOL    HW2 1683  -0.065   1.926  -0.020  2.2235  2.5938  0.9892
  562SOL     OW 1684   0.996   2.159   2.298  0.3665 -0.3377  0.3158
  562SOL    HW1 1685   0.978   2.232   2.375 -1.1190  3.5066  1.1950
  562SOL    HW2 1686   1.001   2.059   2.331  1.8930  0.3943 -2.6140
  563SOL     OW 1687   0.698   2.564   2.625  0.1107 -0.8092  0.4704
  563SOL    HW1 1688   0.789   2.515   2.615  1.4003 -0.2992  0.3566
  563SOL    HW2 1689   0.669   2.576   2.722 -2.1576 -1.2032 -0.6318
  564SOL     OW 1690   2.833   1.360   2.901  0.4992  0.6539  0.4455
  564SOL    HW1 1691   2.757   1.405   2.957  0.7449 -0.9257 -0.6663
  564SOL    HW2 1692   2.912   1.426   2.883  1.3610  0.7791 -0.6485
  565SOL     OW 1693   2.513   2.003   2.652 -0.7600 -0.7498 -0.1703
  565SOL    HW1 1694   2.489   2.094   2.603  2.0329  1.9972 -0.5693
  565SOL    HW2 1695   2.587   2.017   2.728 -0.3263  0.5620  0.4817
  566SOL     OW 1696   2.009   2.861   1.456 -0.5013  0.4970  0.6526
  566SOL    HW1 1697   1.960   2.773   1.480 -1.9242  0.1629 -0.0267
  566SOL    HW2 1698   2.005   2.889   1.353 -0.4599  0.4844 -1.7922
  567SOL     OW 1699   2.399   3.053   2.351 -0.1177  1.1504  0.2828
  567SOL    HW1 1700   2.309   3.099   2.375 -1.9579 -2.2749 -1.9433
  567SOL    HW2 1701   2.391   3.018   2.252  0.5252 -1.5926 -2.0005
  568SOL     OW 1702   1.533   1.778   0.236  0.1963  0.6770  0.3492
  568SOL    HW1 1703   1.450   1.835   0.208 -0.5334  1.0670  0.6269
  568SOL    HW2 1704   1.624   1.824   0.227 -0.1973  0.5170  0.0175
  569SOL     OW 1705   0.261   0.643   0.777  0.4752  0.4409  0.2824
  569SOL    HW1 1706   0.332   0.574   0.766 -1.6479 -1.7064 -2.8460
  569SOL    HW2 1707   0.170   0.603   0.802  1.0152 -0.3033 -1.4825
  570SOL     OW 1708   0.644   0.830   2.926 -0.1745  0.5041  0.2452
  570SOL    HW1 1709   0.700   0.855   2.842  0.1371  1.0186 -2.3861
  570SOL    HW2 1710   0.631   0.913   2.991  1.6989 -0.3392  0.5402
  571SOL     OW 1711   0.774   3.076   1.072  0.7351 -0.0498  0.4381
  571SOL    HW1 1712   0.853   3.120   1.016 -1.7165  0.6326 -0.0097
  571SOL    HW2 1713   0.795   2.980   1.110 -2.2321  0.7365 -1.1960
  572SOL     OW 1714   1.636   2.669   1.343  0.1246 -0.1462  0.6153
  572SOL    HW1 1715   1.556   2.647   1.281  2.1989  0.0283  0.0867
  572SOL    HW2 1716   1.667   2.765   1.343  1.7576 -1.3594  0.2110
  573SOL     OW 1717   2.939   0.484   2.033  0.3687 -0.0865 -0.0015
  573SOL    HW1 1718   2.852   0.430   2.048  0.9159  2.4713 -0.0765
  573SOL    HW2 1719   2.989   0.456   1.942  1.4439 -0.6749 -4.4668
  574SOL     OW 1720   0.149   1.752   1.116  0.3506  0.1827 -0.2174
  574SOL    HW1 1721   0.195   1.755   1.210 -1.4249  0.0428 -0.0298
  574SOL    HW2 1722   0.060   1.808   1.113  1.4358 -0.3239  0.0140
  575SOL     OW 1723   0.817   2.198   0.949  0.8002 -0.0132  0.3517
  575SOL    HW1 1724   0.781   2.236   1.042 -0.2267 -2.4650  2.6181
  575SOL    HW2 1725   0.843   2.273   0.882  0.6531 -2.1832  2.1595
  576SOL     OW 1726   2.860   2.981   1.662 -0.1244 -0.0205  0.0238
  576SOL    HW1 1727   2.756   2.979   1.681  2.4017 -1.0425  0.1742
  576SOL    HW2 1728   2.895   3.081   1.657 -0.2121 -0.7519 -0.7648
  577SOL     OW 1729   2.580   1.171   3.100  1.1663  0.2140 -0.3543
  577SOL    HW1 1730   2.618   1.110   3.024  1.7190  2.3059  1.5713
  577SOL    HW2 1731   2.653   1.176   3.176 -2.7622  0.1637  2.2610
  578SOL     OW 1732   1.408   2.765   2.464 -0.1931  0.3332  0.2113
  578SOL    HW1 1733   1.315   2.795   2.436 -0.5790 -1.2586 -0.8888
  578SOL    HW2 1734   1.482   2.837   2.449 -1.2746  0.0818  3.4982
  579SOL     OW 1735   0.034   2.467   0.203 -0.5305 -0.0584  0.0099
  579SOL    HW1 1736  -0.041   2.466   0.276 -0.8057 -0.4958  0.0230
  579SOL    HW2 1737   0.130   2.478   0.244  1.2104 -3.7765  0.7616
  580SOL     OW 1738   0.962   2.653   0.356 -0.0838 -0.4699  0.4623
  580SOL    HW1 1739   1.038   2.704   0.317 -0.6023  0.7258 -0.3760
  580SOL    HW2 1740   0.900   2.601   0.289  1.0969  0.3808  1.1970
  581SOL     OW 1741   1.224   2.659   1.459  0.1835 -0.7075 -0.6162
  581SOL    HW1 1742   1.279   2.575   1.487 -0.7914 -0.4710  1.7244
  581SOL    HW2 1743   1.275   2.731   1.405 -0.6730  2.6957 -0.2475
  582SOL     OW 1744   1.486   0.113   1.879  0.1567  0.1755  0.3544
  582SOL    HW1 1745   1.522   0.177   1.954  1.1646  1.6636 -0.1131
  582SOL    HW2 1746   1.556   0.087   1.802 -2.5052 -2.7005 -4.6972
  583SOL     OW 1747   2.418   3.076   0.528 -0.0487  0.3081  0.6154
  583SOL    HW1 1748   2.516   3.036   0.520  1.1643 -1.6192  0.8508
  583SOL    HW2 1749   2.338   3.008   0.540  0.6926 -0.2139 -1.8999
  584SOL     OW 1750   1.541   1.099   2.267 -0.1293  0.1427  0.2918
  584SOL    HW1 1751   1.597   1.174   2.220 -0.8858 -1.9656  0.6338
  584SOL    HW2 1752   1.586   1.010   2.284  0.8637  3.0622 -0.5331
  585SOL     OW 1753   2.112   2.665   2.888 -0.1644 -0.4723 -0.3149
  585SOL    HW1 1754   2.136   2.568   2.881  1.3418  0.2340 -1.4818
  585SOL    HW2 1755   2.011   2.688   2.870 -0.2587  0.7451 -0.0311
  586SOL     OW 1756   2.861   0.352   1.570  0.3543  0.2329 -0.3200
  586SOL    HW1 1757   2.855   0.445   1.626  1.8952  2.1390  0.2471
  586SOL    HW2 1758   2.769   0.319   1.544  2.2392 -0.6107 -1.9770
  587SOL     OW 1759   2.068   1.496   2.640 -0.4310  0.0544 -0.1105
  587SOL    HW1 1760   2.112   1.427   2.575  0.5945 -0.6332  0.5534
  587SOL    HW2 1761   2.127   1.513   2.721 -0.5797 -0.9873 -0.2501
  588SOL     OW 1762   0.476   2.700   2.254  0.5545  0.4077  0.1921
  588SOL    HW1 1763   0.423   2.678   2.165 -1.2766  2.2824 -0.1298
  588SOL    HW2 1764   0.496   2.616   2.309  0.1235  0.3117  2.5483
  589SOL     OW 1765   2.187   1.305   2.475  0.1725 -0.4742  0.0023
  589SOL    HW1 1766   2.174   1.248   2.391  1.4157  0.2147  0.8095
  589SOL    HW2 1767   2.285   1.293   2.514 -0.2135 -0.8623 -1.4195
  590SOL     OW 1768   2.303   1.758   2.030  0.3823 -0.3672  0.1097
  590SOL    HW1 1769   2.363   1.681   2.006  0.6629  0.9235  1.5622
  590SOL    HW2 1770   2.309   1.797   2.124  0.1564 -3.2907 -0.1603
  591SOL     OW 1771   1.256   2.426   0.234 -0.4247  0.5880 -0.1645
  591SOL    HW1 1772   1.286   2.346   0.172  0.4376 -2.7041 -3.1478
  591SOL    HW2 1773   1.280   2.405   0.335 -1.7980 -0.0266 -1.7132
  592SOL     OW 1774   1.770   2.337   0.750  0.1475  0.4491 -0.3551
  592SOL    HW1 1775   1.756   2.391   0.660  2.8248 -0.2285 -0.0511
  592SOL    HW2 1776   1.862   2.294   0.755  0.4168 -2.7487  0.6619
  593SOL     OW 1777   0.701   0.290   0.224 -0.0418 -0.0241  0.1602
  593SOL    HW1 1778   0.740   0.250   0.137  1.5940  1.9209  1.4384
  593SOL    HW2 1779   0.694   0.391   0.217 -0.1918 -2.5211 -3.1203
  594SOL     OW 1780   1.039   1.815   2.695  0.4346  0.4824 -0.0533
  594SOL    HW1 1781   1.128   1.775   2.664 -2.2737  0.0783  1.4807
  594SOL    HW2 1782   1.057   1.849   2.792  2.8962 -0.5518 -0.3156
  595SOL     OW 1783   1.558   0.074   1.010  0.7397 -0.4782 -0.6037
  595SOL    HW1 1784   1.628   0.004   0.974  0.9274 -1.4929  0.5257
  595SOL    HW2 1785   1.462   0.050   0.974 -2.0220 -0.2451  1.0812
  596SOL     OW 1786   0.037   1.563   2.289 -0.1629 -0.1172  0.2022
  596SOL    HW1 1787   0.078   1.469   2.275 -2.7186 -1.4084  1.4800
  596SOL    HW2 1788   0.020   1.577   2.391  0.6096 -1.8625 -2.0428
  597SOL     OW 1789   1.919   2.656   1.799 -0.1402  0.6129  0.2316
  597SOL    HW1 1790   1.893   2.621   1.707 -0.5351  0.1655 -1.1364
  597SOL    HW2 1791   2.018   2.676   1.809  0.5743 -1.5886 -2.4329
  598SOL     OW 1792   2.535   2.907   1.236  0.2293 -0.2408 -0.2801
  598SOL    HW1 1793   2.606   2.927   1.311 -1.8981 -1.8885  0.6753
  598SOL    HW2 1794   2.579   2.882   1.148 -0.7735  2.0084  0.4150
  599SOL     OW 1795   2.890   0.295   2.471 -0.2212 -0.2592  0.1062
  599SOL    HW1 1796   2.977   0.302   2.416  1.0303  3.8269  0.8678
  599SOL    HW2 1797   2.824   0.369   2.450 -1.4483  0.4118  1.3203
  600SOL     OW 1798   2.813   1.134   2.719  0.0682  0.5583 -0.1562
  600SOL    HW1 1799   2.760   1.055   2.755  4.7815  0.6022  0.8957
  600SOL    HW2 1800   2.816   1.210   2.791  1.2062  2.0770 -2.0318
  601SOL     OW 1801   3.079   1.340   2.008  0.3994  0.1690  0.1645
  601SOL    HW1 1802   2.991   1.386   1.974  1.5174 -2.9604 -0.2924
  601SOL    HW2 1803   3.160   1.405   2.016  1.4887  2.3920 -1.2631
  602SOL     OW 1804   1.447   1.678   2.320 -0.1325 -0.7844 -0.0658
  602SOL    HW1 1805   1.365   1.648   2.373  0.1406  0.5153 -1.5010
  602SOL    HW2 1806   1.537   1.641   2.365 -0.7492  0.2132  0.1241
  603SOL     OW 1807   0.677   1.169   2.776  0.5121 -0.1752 -0.2506
  603SOL    HW1 1808   0.573   1.164   2.778 -0.4029  1.4275 -1.4327
  603SOL    HW2 1809   0.726   1.098   2.720  3.6626  0.7093 -0.4552
  604SOL     OW 1810   2.434   0.998   0.170  0.0155  0.0536 -0.1930
  604SOL    HW1 1811   2.493   1.075   0.137  0.4572  0.5929 -2.0661
  604SOL    HW2 1812   2.450   0.916   0.106  1.3932 -1.8037  2.1753
  605SOL     OW 1813   2.506   1.175   1.974 -0.0542  0.5756  0.7429
  605SOL    HW1 1814   2.563   1.120   1.909  0.1195 -0.0094  0.8156
  605SOL    HW2 1815   2.557   1.254   2.018 -1.9725 -1.8757  0.6203
  606SOL     OW 1816   1.532   2.517   2.562 -0.6794  0.7182 -0.4570
  606SOL    HW1 1817   1.494   2.609   2.522 -0.8562  0.5739 -1.8576
  606SOL    HW2 1818   1.454   2.450   2.574  0.5993  0.6860  2.0595
  607SOL     OW 1819   1.352   1.593   0.313  0.3072 -0.4938  0.1368
  607SOL    HW1 1820   1.278   1.660   0.339 -0.2854 -1.6670 -0.9417
  607SOL    HW2 1821   1.435   1.643   0.278  2.9441  1.7471 -0.7548
  608SOL     OW 1822   1.460   2.812   0.387 -0.3648 -0.0951  0.3295
  608SOL    HW1 1823   1.520   2.848   0.309  0.6058  0.9652  0.0978
  608SOL    HW2 1824   1.371   2.866   0.402 -0.6078  0.9786 -1.5041
  609SOL     OW 1825   1.279   1.333   0.229  0.3668  0.2821 -0.8433
  609SOL    HW1 1826   1.279   1.429   0.277  1.7133  2.6676 -0.4196
  609SOL    HW2 1827   1.265   1.335   0.129 -0.2294 -0.0923  0.5286
  610SOL     OW 1828   2.973   1.148   2.218  0.4594  0.1017  0.3540
  610SOL    HW1 1829   2.979   1.045   2.206  1.0488  0.3324 -2.2577
  610SOL    HW2 1830   2.979   1.201   2.128  2.2304  2.2031  1.0214
  611SOL     OW 1831   2.532   0.265   1.179  0.0800 -0.4179  0.3332
  611SOL    HW1 1832   2.490   0.170   1.170 -0.2262  0.7851  1.8186
  611SOL    HW2 1833   2.617   0.264   1.242  1.5734  1.6682 -4.2353
  612SOL     OW 1834   0.712   2.296   1.176  0.0579 -0.0217  0.0272
  612SOL    HW1 1835   0.647   2.232   1.217  2.8156  0.0819 -1.7340
  612SOL    HW2 1836   0.687   2.399   1.181  2.2937  0.0030 -0.0932
  613SOL     OW 1837   0.840   1.383   2.383  0.8066 -0.1883  0.0952
  613SOL    HW1 1838   0.841   1.447   2.304  1.2645 -0.0828 -0.3583
  613SOL    HW2 1839   0.817   1.287   2.355  0.7172 -2.5603  2.0795
  614SOL     OW 1840   1.575   1.679   1.877 -0.2685  0.1466 -0.8239
  614SOL    HW1 1841   1.535   1.767   1.836 -2.0440  1.4685 -0.3280
  614SOL    HW2 1842   1.656   1.691   1.941  2.2191 -1.0483 -1.0262
  615SOL     OW 1843   0.782   1.362   1.741 -1.2413  0.5829  0.4123
  615SOL    HW1 1844   0.726   1.306   1.667  0.2789 -1.7346 -0.0435
  615SOL    HW2 1845   0.820   1.452   1.707 -0.9244 -1.6910 -1.5495
  616SOL     OW 1846   1.116   1.578   2.178  0.3326 -0.2475 -0.1411
  616SOL    HW1 1847   1.014   1.578   2.181  2.9925 -0.1150 -1.5279
  616SOL    HW2 1848   1.153   1.610   2.089 -0.0814  0.4514  0.4511
  617SOL     OW 1849   2.979   1.541   1.612  0.1656  0.1736  0.3718
  617SOL    HW1 1850   2.956   1.463   1.673  0.0085 -0.7964  0.0379
  617SOL    HW2 1851   3.005   1.503   1.518 -3.8740 -1.3601  0.6426
  618SOL     OW 1852   1.941   2.006   1.440  0.1026 -0.8762 -0.1012
  618SOL    HW1 1853   2.019   1.989   1.371 -0.2159 -0.8793 -2.9190
  618SOL    HW2 1854   1.895   1.917   1.474 -1.1955 -2.1742 -0.0018
  619SOL     OW 1855   1.712   0.464   2.399 -0.5268 -0.4920 -0.5114
  619SOL    HW1 1856   1.632   0.512   2.349  0.1219 -1.1836  1.5321
  619SOL    HW2 1857   1.695   0.362   2.394  1.5832  0.2498  0.0519
  620SOL     OW 1858   2.206   2.931   0.602 -0.1680 -0.2963 -0.2148
  620SOL    HW1 1859   2.114   2.977   0.621 -1.6652  2.1780  1.7168
  620SOL    HW2 1860   2.249   2.890   0.687  0.6604  0.2789 -3.0446
  621SOL     OW 1861   2.164   1.853   1.296  0.3962  0.0601 -0.0225
  621SOL    HW1 1862   2.172   1.853   1.397  1.2255 -0.6082 -0.3635
  621SOL    HW2 1863   2.157   1.759   1.254 -0.4872  2.0958  0.9815
  622SOL     OW 1864   2.147   0.837   1.723  0.4748  0.1180 -0.4960
  622SOL    HW1 1865   2.246   0.816   1.706 -1.4066 -2.2495 -0.5553
  622SOL    HW2 1866   2.113   0.791   1.806  3.3252  1.0236  1.3964
  623SOL     OW 1867   1.371   0.758   2.612 -0.4457 -0.2789  0.5386
  623SOL    HW1 1868   1.304   0.695   2.666  0.4887 -1.2193  2.1794
  623SOL    HW2 1869   1.324   0.820   2.540  2.2311 -0.0389  0.7145
  624SOL     OW 1870   0.501   0.694   0.024 -0.3652  0.5068 -0.3627
  624SOL    HW1 1871   0.553   0.716  -0.065  0.3920  1.6567 -0.4319
  624SOL    HW2 1872   0.506   0.772   0.089  0.5487  3.3162  0.9356
  625SOL     OW 1873   2.799   1.745   0.916  0.1414  0.1309 -0.5862
  625SOL    HW1 1874   2.704   1.773   0.948 -0.3055 -0.4470 -0.2212
  625SOL    HW2 1875   2.834   1.665   0.969 -0.1210 -1.4942 -0.8728
  626SOL     OW 1876   0.534   2.723   1.840 -0.3321  0.2495  0.2063
  626SOL    HW1 1877   0.542   2.818   1.878  0.5543  0.8035  0.2838
  626SOL    HW2 1878   0.439   2.705   1.801 -1.3129  0.4950  2.2917
  627SOL     OW 1879   0.706   0.985   1.531  0.0753 -0.1762 -0.5816
  627SOL    HW1 1880   0.760   0.901   1.555 -0.4027  1.1745  0.6311
  627SOL    HW2 1881   0.774   1.052   1.486  2.7912 -2.1007 -3.3314
  628SOL     OW 1882   2.405   0.187   0.686  0.2449 -0.1484 -0.0751
  628SOL    HW1 1883   2.414   0.113   0.610  0.4626  0.4610  0.7512
  628SOL    HW2 1884   2.314   0.176   0.730 -0.4589  0.9203  0.7864
  629SOL     OW 1885   1.970   0.913   1.981  0.0994 -0.4180  0.0972
  629SOL    HW1 1886   2.065   0.926   2.011 -0.8107  0.1704 -0.3986
  629SOL    HW2 1887   1.910   0.992   2.010  3.7653  0.5286  0.7176
  630SOL     OW 1888   2.790   2.188   0.776  0.1656 -0.6113  0.1674
  630SOL    HW1 1889   2.714   2.229   0.834  0.1203 -0.6013 -0.4982
  630SOL    HW2 1890   2.765   2.093   0.758 -0.7301  0.0726 -1.0501
  631SOL     OW 1891   2.975   0.124   2.113  0.5507  0.5660  0.1302
  631SOL    HW1 1892   2.995   0.174   2.204 -2.5642 -3.0066  0.6716
  631SOL    HW2 1893   3.050   0.132   2.043 -0.1231  0.9367 -0.0960
  632SOL     OW 1894   2.392   2.530   0.645  0.0006  0.4159  0.0338
  632SOL    HW1 1895   2.417   2.624   0.678  1.1849  1.4293 -1.6772
  632SOL    HW2 1896   2.335   2.532   0.558  0.9737  2.4693  0.3917
  633SOL     OW 1897   1.581   1.282   2.538  0.3556 -0.2315 -0.0148
  633SOL    HW1 1898   1.554   1.358   2.606 -1.0315 -0.5497  0.9274
  633SOL    HW2 1899   1.503   1.266   2.469 -2.3806  0.0033  1.1467
  634SOL     OW 1900   0.641   1.990   0.920 -0.4291 -0.4521  0.9767
  634SOL    HW1 1901   0.553   2.025   0.967 -1.9086  0.6373  1.8623
  634SOL    HW2 1902   0.716   2.064   0.917  0.4280 -1.4843  3.0519
  635SOL     OW 1903   0.016   2.318   3.056  0.0239 -0.2656  0.1426
  635SOL    HW1 1904  -0.024   2.358   2.968  1.6594  0.8876 -0.4029
  635SOL    HW2 1905   0.028   2.384   3.138 -1.7805 -1.1421 -0.6637
  636SOL     OW 1906   2.298   2.782   2.042  0.1833  0.1956  0.1219
  636SOL    HW1 1907   2.271   2.887   2.025 -2.0357  2.1242 -0.5737
  636SOL    HW2 1908   2.267   2.750   2.136 -1.8931 -0.4566 -2.9643
  637SOL     OW 1909   2.571   0.674   2.051 -0.3351  0.3495 -0.1445
  637SOL    HW1 1910   2.503   0.656   1.971 -0.6717 -2.3414 -1.2562
  637SOL    HW2 1911   2.627   0.761   2.035 -1.6413  0.8178  0.0311
  638SOL     OW 1912   2.466   1.850   1.294  0.6860  0.1079  0.3389
  638SOL    HW1 1913   2.366   1.838   1.272  0.5787 -1.7061 -1.2198
  638SOL    HW2 1914   2.497   1.777   1.355 -1.1672  1.4028 -1.9826
  639SOL     OW 1915   1.266   2.219   1.654 -0.5498  0.0544 -0.2173
  639SOL    HW1 1916   1.295   2.165   1.572  0.4362  1.6420 -2.1183
  639SOL    HW2 1917   1.185   2.180   1.699 -1.3706  0.7608 -1.7763
  640SOL     OW 1918   0.204   1.193   1.557 -0.2723  0.0174 -0.3587
  640SOL    HW1 1919   0.187   1.264   1.634 -0.1688  0.5605  0.3449
  640SOL    HW2 1920   0.290   1.135   1.564 -2.1029 -0.5140 -0.2618
  641SOL     OW 1921   2.023   0.074   1.532 -0.2666  0.2380  0.0071
  641SOL    HW1 1922   2.025   0.117   1.624 -1.3689  0.9755 -0.9744
  641SOL    HW2 1923   2.104   0.013   1.507 -0.2021 -2.4194  2.2867
  642SOL     OW 1924   1.940   0.112   0.300 -0.3639  0.2472  0.5774
  642SOL    HW1 1925   2.027   0.112   0.351  0.1432 -0.9366 -0.2337
  642SOL    HW2 1926   1.856   0.133   0.355  2.1538  2.5388  0.6065
  643SOL     OW 1927   2.861   1.908   2.068  0.2729  0.3200 -0.4367
  643SOL    HW1 1928   2.818   1.825   2.021  1.0603  1.2110 -0.1449
  643SOL    HW2 1929   2.845   1.990   2.010  1.8897 -1.6338  1.9148
  644SOL     OW 1930   2.183   2.327   1.193 -0.3557 -0.1044 -0.2930
  644SOL    HW1 1931   2.268   2.276   1.154  1.5065 -1.7055  1.5976
  644SOL    HW2 1932   2.168   2.333   1.299 -0.0744 -1.1679  2.2513
  645SOL     OW 1933   0.607   0.815   1.171 -0.4961 -0.7580 -0.7637
  645SOL    HW1 1934   0.537   0.750   1.136  0.7731  0.9620  0.5105
  645SOL    HW2 1935   0.647   0.870   1.094  0.9953 -0.8545  1.4074
  646SOL     OW 1936   1.483   1.935   1.837  0.8240 -0.1134 -0.3126
  646SOL    HW1 1937   1.578   1.980   1.833  3.1609  1.1633 -1.4190
  646SOL    HW2 1938   1.429   1.970   1.917  1.7706 -0.7890 -1.1427
  647SOL     OW 1939   0.855   0.983   0.679  0.1813 -0.4739  0.0388
  647SOL    HW1 1940   0.912   1.013   0.760 -1.3799 -3.3345  1.2955
  647SOL    HW2 1941   0.767   0.935   0.717 -3.7395  0.8168 -0.9155
  648SOL     OW 1942   0.091   0.159   0.274  0.8789  0.2146  0.6467
  648SOL    HW1 1943   0.135   0.103   0.195  1.1914 -1.6747 -1.9437
  648SOL    HW2 1944   0.100   0.265   0.260  0.7171  0.3621  1.1910
  649SOL     OW 1945   3.064   0.159   0.920 -0.0634 -0.0558  0.1137
  649SOL    HW1 1946   3.138   0.187   0.853  1.3927 -2.5453 -0.2080
  649SOL    HW2 1947   3.071   0.203   1.013  0.9063  0.7365  0.1178
  650SOL     OW 1948   2.717   0.721   1.399 -0.2144 -0.0743 -0.2933
  650SOL    HW1 1949   2.616   0.719   1.431  1.8515 -0.4184 -1.8568
  650SOL    HW2 1950   2.735   0.808   1.343 -3.8503  1.4753 -0.7407
  651SOL     OW 1951   0.909   1.576   1.645 -0.3490  0.5882 -0.0248
  651SOL    HW1 1952   0.983   1.628   1.700  1.9404  0.0628  0.5843
  651SOL    HW2 1953   0.919   1.576   1.542  0.6935  0.9046 -2.8628
  652SOL     OW 1954   2.256   2.502   2.466 -0.1621 -0.5872 -0.7691
  652SOL    HW1 1955   2.173   2.476   2.526 -0.9414 -0.7309  0.0518
  652SOL    HW2 1956   2.241   2.580   2.405 -0.5439 -1.5746  3.1400
  653SOL     OW 1957   2.731   1.170   0.239 -0.0953  0.2057  0.1759
  653SOL    HW1 1958   2.775   1.257   0.277  1.5135 -1.9995  1.4031
  653SOL    HW2 1959   2.794   1.086   0.254  1.7610 -0.3238  1.7549
  654SOL     OW 1960   1.249   2.272   1.229  0.2745  0.2207  0.4632
  654SOL    HW1 1961   1.283   2.199   1.296  0.6002  1.3740  2.8535
  654SOL    HW2 1962   1.302   2.277   1.137 -1.5241  0.5088 -0.7409
  655SOL     OW 1963   0.221   1.010   1.845  0.0757  0.8898  0.0686
  655SOL    HW1 1964   0.265   0.926   1.800  0.2820  2.9011  0.6745
  655SOL    HW2 1965   0.277   1.102   1.839  2.6351  0.2995  1.4028
  656SOL     OW 1966   2.526   2.472   2.592  0.2593 -0.0035 -0.8159
  656SOL    HW1 1967   2.616   2.444   2.546 -0.2521  0.4724 -0.3513
  656SOL    HW2 1968   2.472   2.540   2.544  2.2895 -2.6171  2.3111
  657SOL     OW 1969   3.066   1.077   1.888 -0.3629 -0.0842  0.2407
  657SOL    HW1 1970   3.065   1.178   1.914 -1.9926  0.0442 -0.3403
  657SOL    HW2 1971   3.163   1.041   1.871 -2.6386  0.9134 -2.5492
  658SOL     OW 1972   1.646   0.197   2.395 -0.8211 -0.0824 -0.5833
  658SOL    HW1 1973   1.656   0.129   2.474  2.4307 -0.6562 -1.5156
  658SOL    HW2 1974   1.714   0.163   2.321  1.0301 -2.1786 -0.5170
  659SOL     OW 1975   1.403   0.628   2.903 -0.5559  0.0706 -0.3946
  659SOL    HW1 1976   1.459   0.717   2.911 -1.1465  0.5517  0.7078
  659SOL    HW2 1977   1.308   0.631   2.862 -0.4586 -2.5243 -1.7245
  660SOL     OW 1978   1.454   0.356   1.435  0.4668 -0.1905 -0.6734
  660SOL    HW1 1979   1.494   0.342   1.527 -0.0526 -1.3330 -0.7717
  660SOL    HW2 1980   1.504   0.314   1.352  1.5337  1.1670 -1.7975
  661SOL     OW 1981   2.518   1.165   0.637  0.5377  0.1296  0.1432
  661SOL    HW1 1982   2.520   1.160   0.532 -1.1853  0.0973  1.9844
  661SOL    HW2 1983   2.472   1.256   0.670 -1.0785 -0.3525  0.5082
  662SOL     OW 1984   1.333   0.431   1.832 -0.1571 -0.5231 -0.0430
  662SOL    HW1 1985   1.270   0.354   1.802 -0.2851  1.2498 -0.2501
  662SOL    HW2 1986   1.298   0.470   1.922 -1.3186 -1.2109 -0.2284
  663SOL     OW 1987   0.837   1.559   2.189 -0.2504 -0.2118  0.3590
  663SOL    HW1 1988   0.815   1.651   2.231  2.0152 -1.4739  0.3194
  663SOL    HW2 1989   0.784   1.547   2.094 -0.0945 -0.1246 -2.6406
  664SOL     OW 1990   1.662   2.061   1.421  0.0129 -0.7751 -0.4463
  664SOL    HW1 1991   1.607   1.975   1.447 -0.0378 -0.8638 -3.4909
  664SOL    HW2 1992   1.764   2.057   1.447  0.8677 -0.5496 -0.5763
  665SOL     OW 1993   2.193   0.690   2.027 -0.3026  0.3588 -0.2050
  665SOL    HW1 1994   2.190   0.597   2.069 -1.1254 -1.5890 -0.1592
  665SOL    HW2 1995   2.202   0.768   2.093 -0.9426  0.8654 -0.0205
  666SOL     OW 1996   0.443   2.364   0.471  0.1589 -0.6727  0.4846
  666SOL    HW1 1997   0.535   2.412   0.470  3.0503  1.2624  0.7105
  666SOL    HW2 1998   0.421   2.296   0.545  0.7221 -1.7527 -2.8290
  667SOL     OW 1999   1.953   0.196   1.038 -0.3352  0.1486 -0.2232
  667SOL    HW1 2000   2.023   0.269   1.057  1.9878  0.8673 -3.2224
  667SOL    HW2 2001   1.901   0.159   1.122 -1.1475  0.7627 -2.3072
  668SOL     OW 2002   1.983   0.541   1.174  0.4261  0.3927  0.6416
  668SOL    HW1 2003   2.050   0.527   1.092  0.8922 -2.6708 -2.2366
  668SOL    HW2 2004   2.022   0.519   1.265  1.8374  0.1271 -0.6324
  669SOL     OW 2005   3.022   2.216   0.960  0.1212 -1.1493 -0.9652
  669SOL    HW1 2006   2.967   2.181   0.879 -0.2709 -2.2579 -0.8020
  669SOL    HW2 2007   2.955   2.273   1.017 -0.3076 -0.6569  1.9845
  670SOL     OW 2008   2.871   2.335   2.022 -0.7471 -0.3232  0.5144
  670SOL    HW1 2009   2.786   2.315   2.080  0.9806  1.3960 -0.3129
  670SOL    HW2 2010   2.866   2.435   1.989 -0.4265  1.2361 -0.5037
  671SOL     OW 2011   1.761   1.754   1.427 -0.6472 -0.4716  0.2107
  671SOL    HW1 2012   1.760   1.761   1.322 -0.0747  0.9763  0.3453
  671SOL    HW2 2013   1.670   1.711   1.457  1.2809  0.7596 -1.4703
  672SOL     OW 2014   0.449   0.577   2.410  0.1648  0.5647  0.6306
  672SOL    HW1 2015   0.480   0.625   2.319  0.4449  0.7180  0.2391
  672SOL    HW2 2016   0.362   0.622   2.451 -1.2141  1.5101  3.5569
  673SOL     OW 2017   0.138   1.177   1.140  0.0047  0.1450 -0.1925
  673SOL    HW1 2018   0.146   1.247   1.216 -1.8437 -1.6778  2.6157
  673SOL    HW2 2019   0.232   1.134   1.114 -0.1689  0.6432  0.2226
  674SOL     OW 2020   1.562   2.891   0.150 -0.2582  0.3356 -0.4223
  674SOL    HW1 2021   1.603   2.981   0.130 -2.3001 -2.7241  1.0632
  674SOL    HW2 2022   1.610   2.814   0.105 -0.2912 -1.5928  0.5270
  675SOL     OW 2023   1.647   0.842   2.306  0.3791 -0.0056 -0.3048
  675SOL    HW1 2024   1.723   0.843   2.232  3.3814  1.7440 -1.5123
  675SOL    HW2 2025   1.587   0.753   2.292 -1.7282 -0.9974  1.9759
  676SOL     OW 2026   2.486   1.558   2.016  0.1195  0.0690 -0.4351
  676SOL    HW1 2027   2.474   1.511   1.924 -1.8103  1.0571 -0.8718
  676SOL    HW2 2028   2.531   1.497   2.084  1.4361 -2.0452  0.6682
  677SOL     OW 2029   1.844   0.619   0.905 -0.8293 -0.1645  0.1979
  677SOL    HW1 2030   1.893   0.667   0.980 -0.9091 -1.4791 -0.7896
  677SOL    HW2 2031   1.873   0.520   0.891  0.5538  0.0702  3.4634
  678SOL     OW 2032   0.020   0.738   1.667  0.2547  0.3721 -0.0552
  678SOL    HW1 2033   0.120   0.742   1.680  0.1340  1.3849 -1.1532
  678SOL    HW2 2034  -0.036   0.762   1.750 -1.2107 -0.0885  1.3915
  679SOL     OW 2035   2.549   1.154   1.094 -0.1329 -0.2055  0.1111
  679SOL    HW1 2036   2.482   1.192   1.159  0.1688 -0.2214 -0.9691
  679SOL    HW2 2037   2.517   1.060   1.063  0.1323  1.5603 -1.6801
  680SOL     OW 2038   2.828   0.640   1.644 -0.4267  0.4315 -0.0796
  680SOL    HW1 2039   2.782   0.681   1.560  1.8731 -1.0458 -3.0027
  680SOL    HW2 2040   2.873   0.715   1.698 -0.7751 -0.6948  0.8560
  681SOL     OW 2041   2.987   0.119   1.613 -0.2610  0.1411 -0.2048
  681SOL    HW1 2042   3.074   0.112   1.557 -0.6320 -3.2428 -2.2343
  681SOL    HW2 2043   2.949   0.214   1.605  3.1306 -2.1299 -1.3312
  682SOL     OW 2044   0.792   0.056   1.378  0.1535  0.0700  0.4993
  682SOL    HW1 2045   0.747  -0.017   1.440  0.3363 -0.2633  1.1534
  682SOL    HW2 2046   0.795   0.029   1.277  3.1084 -0.1279  2.2333
  683SOL     OW 2047   1.365   0.279   2.178 -0.2920 -0.0632  0.5850
  683SOL    HW1 2048   1.328   0.357   2.233  2.2680  0.4706 -0.0880
  683SOL    HW2 2049   1.446   0.306   2.116  1.7963  0.9716  3.5972
  684SOL     OW 2050   1.426   2.148   0.513 -0.6043 -0.6693 -0.6767
  684SOL    HW1 2051   1.479   2.087   0.582  1.1136 -1.2638 -2.3810
  684SOL    HW2 2052   1.346   2.099   0.465 -0.5879  0.4386 -0.2276
  685SOL     OW 2053   2.185   2.007   1.920 -0.5122  0.1405  0.5628
  685SOL    HW1 2054   2.248   2.077   1.870  3.5434 -2.1391 -1.9741
  685SOL    HW2 2055   2.236   1.924   1.949 -0.3661  0.6516  0.0982
  686SOL     OW 2056   1.522   1.745   2.661  0.4168 -0.2138 -0.2694
  686SOL    HW1 2057   1.559   1.659   2.713  0.2744  0.1791 -0.7230
  686SOL    HW2 2058   1.601   1.789   2.602 -0.2691  0.1346 -2.6291
  687SOL     OW 2059   1.301   2.526   1.901  0.1870 -0.0956 -0.1288
  687SOL    HW1 2060   1.328   2.446   1.845 -0.0007 -0.8344 -1.1176
  687SOL    HW2 2061   1.357   2.543   1.985 -1.1760  1.8241 -2.3583
  688SOL     OW 2062   2.081   1.464   1.680 -0.1730 -0.9235 -0.0679
  688SOL    HW1 2063   2.168   1.487   1.635  0.4093 -0.2409  2.0226
  688SOL    HW2 2064   2.007   1.436   1.614  0.0195 -0.5522  1.6253
  689SOL     OW 2065   2.459   1.090   2.754 -0.4469  0.4072  0.6396
  689SOL    HW1 2066   2.363   1.115   2.781 -0.4986  1.0035 -0.9771
  689SOL    HW2 2067   2.511   1.034   2.832  2.6895 -0.6412 -0.4985
  690SOL     OW 2068   2.204   2.755   0.099  0.0973  0.3038 -0.0663
  690SOL    HW1 2069   2.142   2.743   0.012  0.9032 -1.3322 -1.5574
  690SOL    HW2 2070   2.167   2.813   0.179 -2.5402 -1.3003  1.2816
  691SOL     OW 2071   2.585   0.417   2.115  0.6357 -0.1493  0.7401
  691SOL    HW1 2072   2.669   0.367   2.079  1.0342  0.3155  0.6556
  691SOL    HW2 2073   2.591   0.519   2.098 -0.8179 -0.9901 -1.1096
  692SOL     OW 2074   2.791   1.211   0.721  0.4561 -0.0691  0.0576
  692SOL    HW1 2075   2.697   1.190   0.681 -0.9755 -0.5430 -1.5010
  692SOL    HW2 2076   2.804   1.307   0.760  1.1231 -0.3706 -0.5945
  693SOL     OW 2077   2.863   2.992   0.675  0.5523  0.4738  0.1048
  693SOL    HW1 2078   2.860   3.088   0.712  1.4449  1.1960  1.3262
  693SOL    HW2 2079   2.798   2.977   0.595 -1.4786 -0.1263 -0.8321
  694SOL     OW 2080   2.443   2.235   0.056 -0.5205  0.0622 -0.2013
  694SOL    HW1 2081   2.421   2.309   0.124  0.6124  0.4267 -2.7874
  694SOL    HW2 2082   2.373   2.165   0.044 -1.8290  0.1856 -0.5994
  695SOL     OW 2083   0.611   2.975   1.476 -0.5879  0.5780  0.3304
  695SOL    HW1 2084   0.580   2.880   1.439  2.0498  0.2991 -0.6144
  695SOL    HW2 2085   0.553   3.011   1.558  0.4679  0.7165  2.4074
  696SOL     OW 2086   2.674   1.926   0.714 -0.1912 -0.1411 -0.4265
  696SOL    HW1 2087   2.722   1.850   0.770  0.2882  2.1806  1.6471
  696SOL    HW2 2088   2.660   1.901   0.616  1.0512 -0.7305  0.4869
  697SOL     OW 2089   1.736   2.060   1.836  0.4359 -0.2752 -0.4219
  697SOL    HW1 2090   1.819   2.000   1.866  3.7149 -1.7065 -0.4643
  697SOL    HW2 2091   1.763   2.160   1.835  3.4907 -1.6633 -1.4645
  698SOL     OW 2092   2.886   0.371   2.734 -0.2833  0.2012  0.0448
  698SOL    HW1 2093   2.885   0.338   2.635  1.1129 -2.0174 -2.4059
  698SOL    HW2 2094   2.931   0.296   2.797  2.0963  2.0034  0.1951
  699SOL     OW 2095   1.502   0.054   2.928 -0.0614  0.2037  0.3217
  699SOL    HW1 2096   1.481  -0.036   2.882  2.0679  0.6335 -0.9123
  699SOL    HW2 2097   1.581   0.098   2.875 -0.1910 -1.7537 -3.2382
  700SOL     OW 2098   0.986   2.310   1.311 -0.0603  0.0362  0.1111
  700SOL    HW1 2099   1.079   2.285   1.268 -1.9009 -1.2022 -0.5158
  700SOL    HW2 2100   0.905   2.287   1.245 -1.5434  1.6541 -2.6663
  701SOL     OW 2101   1.913   2.817  -0.003 -0.2632  0.0262 -0.1079
  701SOL    HW1 2102   1.896   2.768   0.088 -0.2424 -1.2421  2.3242
  701SOL    HW2 2103   1.951   2.912   0.013 -1.6107  0.1842  0.9428
  702SOL     OW 2104   2.084   1.320   1.925 -0.0919 -0.0337 -0.3776
  702SOL    HW1 2105   2.140   1.237   1.905  0.3199  0.1822  0.6368
  702SOL    HW2 2106   2.076   1.382   1.839  2.3333  2.7119 -1.3088
  703SOL     OW 2107   1.912   0.840   1.406 -0.1654  0.1587  0.2292
  703SOL    HW1 2108   1.909   0.751   1.460  0.3618 -2.2507  0.6227
  703SOL    HW2 2109   1.963   0.914   1.454  0.8503 -1.0263  0.3220
  704SOL     OW 2110   0.314   2.093   1.667 -0.1032  0.5464 -0.2914
  704SOL    HW1 2111   0.344   2.019   1.730 -1.8378 -1.5911 -0.5115
  704SOL    HW2 2112   0.379   2.173   1.672 -3.2342 -0.6665  2.1291
  705SOL     OW 2113   2.538   1.387   0.951 -0.0454  0.2367  0.1106
  705SOL    HW1 2114   2.454   1.381   0.887  0.5916  0.6616 -1.9007
  705SOL    HW2 2115   2.599   1.302   0.947  1.2376 -1.9812  0.2725
  706SOL     OW 2116   0.651   1.771   1.848 -0.5024  0.2382 -0.2509
  706SOL    HW1 2117   0.664   1.672   1.871  1.3419  2.3936 -2.0848
  706SOL    HW2 2118   0.729   1.829   1.877  2.7004 -2.2548 -2.5785
  707SOL     OW 2119   2.247   1.114   1.876 -0.0013  0.1200 -0.4644
  707SOL    HW1 2120   2.344   1.125   1.920  3.2532  1.1461 -0.3940
  707SOL    HW2 2121   2.222   1.022   1.832  2.2649  0.2221  0.8074
  708SOL     OW 2122   2.995   0.493   3.065  0.8532 -0.5485  0.2589
  708SOL    HW1 2123   3.019   0.554   2.986 -1.8226 -1.2462 -2.1760
  708SOL    HW2 2124   2.985   0.400   3.019 -1.0564  0.4938 -1.2391
  709SOL     OW 2125   1.813   1.867   0.260  0.2798 -1.0282  0.0627
  709SOL    HW1 2126   1.850   1.960   0.276 -2.3882  1.5771  0.3470
  709SOL    HW2 2127   1.824   1.836   0.162 -0.6143 -1.3781  1.8626
  710SOL     OW 2128   1.693   1.590   2.413  0.0682  0.0425  0.0975
  710SOL    HW1 2129   1.756   1.606   2.329  1.2326 -0.8355 -3.8181
  710SOL    HW2 2130   1.715   1.503   2.469  2.0695 -2.8906  0.7176
  711SOL     OW 2131   2.663   2.919   0.971 -0.5401 -0.4757  0.1720
  711SOL    HW1 2132   2.610   3.006   0.969  1.1138  2.2652 -1.3938
  711SOL    HW2 2133   2.764   2.926   0.989 -0.7678 -0.3200 -3.4781
  712SOL     OW 2134   1.463   2.280   1.835  1.0277  0.5645 -0.7861
  712SOL    HW1 2135   1.529   2.210   1.875 -0.2515  0.3356 -0.7235
  712SOL    HW2 2136   1.394   2.238   1.772  0.5402  4.0991 -1.8929
  713SOL     OW 2137   2.790   1.520   2.496 -0.1925 -0.4111 -0.5711
  713SOL    HW1 2138   2.780   1.415   2.496 -0.2152 -0.3216  0.5712
  713SOL    HW2 2139   2.698   1.557   2.537 -1.0000 -1.7088 -2.4950
  714SOL     OW 2140   2.662   0.448   2.388 -0.1570  0.0699 -0.4351
  714SOL    HW1 2141   2.579   0.422   2.448 -3.0258  3.9320 -0.3477
  714SOL    HW2 2142   2.648   0.417   2.286  0.8201  1.0061 -1.4876
  715SOL     OW 2143   1.586   2.038   1.154 -0.2967 -0.0606 -0.2662
  715SOL    HW1 2144   1.518   2.114   1.121 -2.0537  1.3577 -1.9236
  715SOL    HW2 2145   1.636   2.062   1.241  1.1362 -1.7199  1.9056
  716SOL     OW 2146   1.228   0.229   1.519 -0.0729  0.3584 -0.0070
  716SOL    HW1 2147   1.136   0.254   1.474 -1.2905 -0.6703  0.5191
  716SOL    HW2 2148   1.308   0.283   1.479 -0.3410 -0.8558 -0.0533
  717SOL     OW 2149   1.094   0.618   1.618 -0.0029  0.0204  0.1597
  717SOL    HW1 2150   1.195   0.602   1.607 -1.6557  0.8791 -1.7434
  717SOL    HW2 2151   1.050   0.612   1.527  2.7604  1.7381  0.3499
  718SOL     OW 2152   0.732   0.990   0.976 -0.2701 -0.2574  0.7088
  718SOL    HW1 2153   0.670   0.979   0.897  1.2209  1.8470  2.0826
  718SOL    HW2 2154   0.733   1.088   1.008 -0.9356 -1.2392 -2.1976
  719SOL     OW 2155   0.745   1.828   2.291 -0.0217  0.1847 -0.0129
  719SOL    HW1 2156   0.797   1.845   2.374  0.2925  2.0014 -0.6041
  719SOL    HW2 2157   0.646   1.839   2.306  3.3803  2.5977  0.7286
  720SOL     OW 2158   2.192   1.109   0.246  0.2628 -0.4871  0.7360
  720SOL    HW1 2159   2.269   1.050   0.209 -0.4772  1.2397  1.2786
  720SOL    HW2 2160   2.182   1.105   0.348  1.4756 -0.0674  0.3659
  721SOL     OW 2161   2.297   3.067   2.092 -0.2234  0.8392 -0.0168
  721SOL    HW1 2162   2.344   3.151   2.049  0.9752  0.5636 -1.1894
  721SOL    HW2 2163   2.205   3.083   2.135  1.6218  0.4201 -0.2384
  722SOL     OW 2164   2.382   1.624   0.557  0.4234 -0.1674 -0.3947
  722SOL    HW1 2165   2.368   1.602   0.459  0.0200  0.4935 -0.9581
  722SOL    HW2 2166   2.300   1.656   0.611  3.8927 -1.1003  0.7824
  723SOL     OW 2167   2.555   2.744   1.974 -0.0412  0.4104 -0.2031
  723SOL    HW1 2168   2.590   2.792   2.057  1.2784  0.3260 -0.6864
  723SOL    HW2 2169   2.449   2.750   1.979 -0.1666  1.7165 -1.1813
  724SOL     OW 2170   0.527   2.482   2.405 -0.1263 -0.2239  0.6498
  724SOL    HW1 2171   0.429   2.460   2.443  0.0900  0.7788 -0.3749
  724SOL    HW2 2172   0.586   2.531   2.478 -1.4313  0.0419 -1.9054
  725SOL     OW 2173   2.480   2.764   1.558  0.2385  0.0019  0.0215
  725SOL    HW1 2174   2.555   2.774   1.487  0.3024  2.2747 -0.4305
  725SOL    HW2 2175   2.460   2.671   1.591  1.1670  1.1971  1.6231
  726SOL     OW 2176   2.358   2.221   0.673 -0.4549  0.1898  0.1633
  726SOL    HW1 2177   2.360   2.319   0.658 -2.2724 -0.1584 -2.3660
  726SOL    HW2 2178   2.380   2.164   0.585  1.4628 -1.4620  1.0357
  727SOL     OW 2179   0.210   3.106   0.078  0.5099  0.4500  0.2909
  727SOL    HW1 2180   0.294   3.042   0.059  0.2866 -0.4426  0.4425
  727SOL    HW2 2181   0.121   3.063   0.049  0.0035 -1.5852  2.4895
  728SOL     OW 2182   2.850   0.665   0.964  0.1405  0.0496 -0.0511
  728SOL    HW1 2183   2.767   0.665   0.896 -1.1272 -2.3358  0.0702
  728SOL    HW2 2184   2.821   0.599   1.039 -4.0193 -0.5848 -0.4077
  729SOL     OW 2185   2.912   2.442   0.704 -0.6511 -0.3822 -0.0769
  729SOL    HW1 2186   2.897   2.340   0.708  3.0177  2.3766 -0.6181
  729SOL    HW2 2187   3.011   2.460   0.715 -0.7541 -0.8284 -5.2746
  730SOL     OW 2188   2.614   0.588   0.838 -0.3050 -0.1240 -0.5789
  730SOL    HW1 2189   2.545   0.655   0.789 -2.9577  0.2377 -0.9173
  730SOL    HW2 2190   2.683   0.546   0.767  2.2884 -2.1300 -2.7916
  731SOL     OW 2191   0.093   2.128   2.439 -0.9232  0.2277 -0.5163
  731SOL    HW1 2192   0.112   2.170   2.539  2.7895  0.3798  1.0662
  731SOL    HW2 2193   0.062   2.199   2.371 -2.5462 -0.3855 -2.1575
  732SOL     OW 2194   1.117   2.862   1.951 -0.2788 -0.5504  0.0698
  732SOL    HW1 2195   1.152   2.807   2.033  0.5059 -0.2961  2.1199
  732SOL    HW2 2196   1.129   2.815   1.855  1.0232  2.2538 -1.7857
  733SOL     OW 2197   0.007   0.682   2.148  0.0161  0.7023 -0.8652
  733SOL    HW1 2198   0.086   0.735   2.105  1.0463  1.3166 -2.0329
  733SOL    HW2 2199  -0.042   0.614   2.085  3.3831  3.0002 -0.9807
  734SOL     OW 2200   1.431   0.384   2.764 -0.1588 -0.0523 -0.1773
  734SOL    HW1 2201   1.434   0.475   2.813  0.3477 -1.5015 -1.8241
  734SOL    HW2 2202   1.346   0.326   2.784 -2.2818 -1.1437  0.6478
  735SOL     OW 2203   2.918   2.612   2.245 -0.2847  0.3630 -0.3902
  735SOL    HW1 2204   2.854   2.581   2.170 -0.3358  1.1448  1.6113
  735SOL    HW2 2205   3.020   2.599   2.221  0.2192  1.5839 -0.3226
  736SOL     OW 2206   0.715   0.431   2.609  0.6830  0.1991  0.0856
  736SOL    HW1 2207   0.682   0.535   2.608  2.8640  6.1925 -1.8609
  736SOL    HW2 2208   0.734   0.388   2.513 -1.7001 -0.2512 -1.6030
  737SOL     OW 2209   2.660   0.432   2.856 -0.4481  0.7870 -0.1147
  737SOL    HW1 2210   2.626   0.418   2.951  0.2072  0.3895 -2.5100
  737SOL    HW2 2211   2.756   0.395   2.841 -2.0228 -0.7586  1.6546
  738SOL     OW 2212   1.580   1.243   2.920 -0.5349  0.0156  0.4949
  738SOL    HW1 2213   1.683   1.214   2.929  0.9885 -1.3704 -0.0430
  738SOL    HW2 2214   1.530   1.184   2.849  0.1705 -5.7354  0.6166
  739SOL     OW 2215   1.724   0.624   0.675  0.4586  0.1340  0.7145
  739SOL    HW1 2216   1.743   0.622   0.777  1.3700  1.9260 -0.5675
  739SOL    HW2 2217   1.775   0.549   0.622  1.6491 -1.4887  1.5882
  740SOL     OW 2218   1.951   1.882   2.336  0.2485 -0.8567 -0.5736
  740SOL    HW1 2219   2.003   1.792   2.355  1.5711  0.7311 -1.9685
  740SOL    HW2 2220   1.870   1.866   2.277  1.2971 -2.1099 -0.7945
  741SOL     OW 2221   2.548   0.049   2.602 -0.1234 -0.3834 -0.5291
  741SOL    HW1 2222   2.651   0.051   2.585 -1.3092 -0.2025  0.2907
  741SOL    HW2 2223   2.485   0.028   2.520 -2.3687 -2.5116 -1.0725
  742SOL     OW 2224   2.254   1.414   0.169 -0.1462 -0.0716 -0.2372
  742SOL    HW1 2225   2.181   1.493   0.173 -0.3387  1.8005 -1.9069
  742SOL    HW2 2226   2.229   1.327   0.221 -1.0043 -1.4452  1.8229
  743SOL     OW 2227   1.805   0.633   2.590 -0.1489 -0.4099 -0.0263
  743SOL    HW1 2228   1.773   0.567   2.516  1.3347 -0.7614 -1.8519
  743SOL    HW2 2229   1.729   0.703   2.613  0.6045 -0.2128  0.0987
  744SOL     OW 2230   2.694   2.141   0.060  0.1863 -0.5241  0.1036
  744SOL    HW1 2231   2.603   2.191   0.067 -0.9502  2.9532  1.6261
  744SOL    HW2 2232   2.681   2.049   0.019  0.8419 -1.2838 -0.9102
  745SOL     OW 2233   2.145   2.682   2.256 -0.0040  0.0792 -0.9626
  745SOL    HW1 2234   2.061   2.656   2.205  0.6080  0.0615  3.1039
  745SOL    HW2 2235   2.129   2.734   2.343  0.3017 -2.4670 -0.4694
  746SOL     OW 2236   3.093   2.600   1.813 -0.1182 -0.7642  0.2696
  746SOL    HW1 2237   3.187   2.608   1.775  0.5975  1.2072  1.4159
  746SOL    HW2 2238   3.044   2.691   1.825  1.1028 -1.2485  0.0099
  747SOL     OW 2239   0.029   1.771   1.628 -0.3758 -0.0128  0.3272
  747SOL    HW1 2240  -0.027   1.684   1.626 -0.8849 -0.2789 -3.2725
  747SOL    HW2 2241   0.053   1.808   1.531  0.4533  0.6771  0.4560
  748SOL     OW 2242   1.841   2.780   2.846 -0.4895  0.1516  0.5356
  748SOL    HW1 2243   1.865   2.799   2.947  1.5574 -0.6669 -1.0726
  748SOL    HW2 2244   1.739   2.758   2.844  0.4814 -1.1851 -0.3661
  749SOL     OW 2245   1.339   3.085   0.883  0.1399 -0.2470 -0.4930
  749SOL    HW1 2246   1.275   3.013   0.909  1.1862  0.0836  0.7188
  749SOL    HW2 2247   1.318   3.121   0.790 -0.5663  1.6899  2.8772
  750SOL     OW 2248   2.338   0.216   1.870 -0.4110 -0.7584  0.0712
  750SOL    HW1 2249   2.349   0.268   1.783  2.0764 -2.7939  0.1994
  750SOL    HW2 2250   2.318   0.287   1.947 -5.7051  1.8273  1.2989
  751SOL     OW 2251   0.915   2.199   2.730 -1.0505  0.4609  0.3878
  751SOL    HW1 2252   0.915   2.162   2.827  0.0770 -0.6979  0.3103
  751SOL    HW2 2253   0.849   2.149   2.666 -1.3034 -1.4217 -1.2240
  752SOL     OW 2254   1.271   0.851   1.517  0.1697 -0.2005  0.4666
  752SOL    HW1 2255   1.339   0.905   1.457 -1.1116 -0.9729 -0.5985
  752SOL    HW2 2256   1.320   0.767   1.555 -1.3609 -0.3612 -1.9842
  753SOL     OW 2257   0.944   2.586   1.683 -0.0832 -0.3031 -0.5237
  753SOL    HW1 2258   1.035   2.632   1.702 -4.2232  3.9049 -0.7768
  753SOL    HW2 2259   0.868   2.651   1.652 -2.2084  0.9602 -0.0949
  754SOL     OW 2260   1.226   1.330   3.062 -0.0927  0.4860 -0.7484
  754SOL    HW1 2261   1.265   1.255   2.997  1.8750 -2.9048 -0.7138
  754SOL    HW2 2262   1.207   1.424   3.016  0.7936  0.2222 -1.6954
  755SOL     OW 2263   1.929   0.430   2.201 -0.4080  0.4023  0.4674
  755SOL    HW1 2264   2.027   0.410   2.237  0.0780 -1.8931 -0.8937
  755SOL    HW2 2265   1.862   0.455   2.277 -2.6597  1.2972  1.4296
  756SOL     OW 2266   2.622   0.956   2.936  0.1955  0.1847  0.7614
  756SOL    HW1 2267   2.717   0.929   2.973  1.5703 -1.4428 -0.1772
  756SOL    HW2 2268   2.551   0.897   2.985  3.5023  0.9463 -2.2994
  757SOL     OW 2269   3.073   0.447   1.794  0.8998 -0.4279  0.1901
  757SOL    HW1 2270   3.065   0.536   1.742 -2.5356  0.8428  0.7844
  757SOL    HW2 2271   3.138   0.376   1.752 -0.8779 -0.3725 -2.9192
  758SOL     OW 2272   2.402   0.082   1.447  0.6766 -0.0248  0.6121
  758SOL    HW1 2273   2.341   0.028   1.512 -1.1414 -0.8142  1.1577
  758SOL    HW2 2274   2.386   0.070   1.345 -0.9137 -4.0067  0.6257
  759SOL     OW 2275   1.689   0.043   0.092 -0.2783 -0.0811 -0.0832
  759SOL    HW1 2276   1.633   0.105   0.024 -0.3914  2.1330  1.7639
  759SOL    HW2 2277   1.778   0.009   0.053  0.2802  0.3386 -0.1357
  760SOL     OW 2278   2.730   2.065   2.821 -0.3372 -0.9886 -0.0807
  760SOL    HW1 2279   2.815   2.004   2.840 -1.1859 -0.8974 -0.7483
  760SOL    HW2 2280   2.748   2.161   2.860 -2.4418  1.2244  0.1757
  761SOL     OW 2281   1.942   1.729   1.631 -0.1609 -0.2703 -0.5467
  761SOL    HW1 2282   1.987   1.641   1.667 -0.0616 -0.1571 -0.6689
  761SOL    HW2 2283   1.891   1.718   1.542  1.6100  1.0808  0.9528
  762SOL     OW 2284   0.478   2.368   0.996  0.4649  1.3410  0.1017
  762SOL    HW1 2285   0.526   2.363   0.907 -0.9464 -0.7515  2.8929
  762SOL    HW2 2286   0.531   2.433   1.056  1.0735  0.2357 -0.4797
  763SOL     OW 2287   2.097   1.514   2.991  0.3629 -0.1062 -0.0489
  763SOL    HW1 2288   2.180   1.455   2.999  0.7405 -0.6991  1.8181
  763SOL    HW2 2289   2.021   1.496   3.059 -2.0234 -0.5351  0.2319
  764SOL     OW 2290   0.690   0.594   0.878 -0.0885 -0.4985  0.1387
  764SOL    HW1 2291   0.667   0.512   0.821  1.3026 -2.8674  1.9974
  764SOL    HW2 2292   0.785   0.581   0.922 -0.0948  2.2839  1.7382
  765SOL     OW 2293   0.690   0.223   0.846 -0.3535  0.3361 -0.3077
  765SOL    HW1 2294   0.764   0.285   0.814  2.2354 -3.3066  0.2634
  765SOL    HW2 2295   0.673   0.222   0.949  1.6982  1.1182 -0.9976
  766SOL     OW 2296   2.963   2.098   3.093  0.5628 -0.0309  0.1653
  766SOL    HW1 2297   2.865   2.111   3.123 -2.8958  0.1913 -3.8661
  766SOL    HW2 2298   3.015   2.188   3.096 -1.4010 -1.1042 -0.2002
  767SOL     OW 2299   2.900   1.572   0.522  0.1350 -0.1075  0.0255
  767SOL    HW1 2300   2.822   1.524   0.571  1.6616  1.3209 -0.0943
  767SOL    HW2 2301   2.926   1.659   0.570  3.2440  0.8347  0.6268
  768SOL     OW 2302   1.091   0.222   0.333 -0.3691  0.3371 -0.2921
  768SOL    HW1 2303   1.013   0.152   0.364 -2.3027 -0.0157 -0.2473
  768SOL    HW2 2304   1.180   0.171   0.309 -0.1199  0.9719  0.2887
  769SOL     OW 2305   1.116   1.861   2.249  0.6467 -0.5751 -0.3998
  769SOL    HW1 2306   1.036   1.870   2.315 -0.4736 -1.6547  0.5215
  769SOL    HW2 2307   1.121   1.755   2.233 -1.0256 -0.5161 -1.5632
  770SOL     OW 2308   0.146   1.303   2.285  0.0411 -0.0768  1.1636
  770SOL    HW1 2309   0.124   1.312   2.386  0.4280  0.8817 -0.2337
  770SOL    HW2 2310   0.063   1.270   2.230 -3.3107  1.6027 -0.4055
  771SOL     OW 2311   2.974   2.821   1.866  0.1023 -0.1422  0.3330
  771SOL    HW1 2312   2.976   2.893   1.790  2.5021  1.9452 -0.7341
  771SOL    HW2 2313   2.934   2.853   1.953 -0.9695  0.3532 -2.4289
  772SOL     OW 2314   2.181   0.118   2.966 -0.0559  0.0890 -0.1511
  772SOL    HW1 2315   2.267   0.073   2.922  2.1742 -0.2967 -0.7054
  772SOL    HW2 2316   2.194   0.206   3.016 -0.5633 -2.3428  1.0014
  773SOL     OW 2317   0.709   2.077   2.527 -0.3711 -0.4727 -0.1070
  773SOL    HW1 2318   0.686   2.100   2.427  0.4156 -0.6242  0.2860
  773SOL    HW2 2319   0.630   2.105   2.591 -2.5853 -1.1571 -0.1832
  774SOL     OW 2320   2.041   0.021   2.652 -0.0553  0.1033 -0.3367
  774SOL    HW1 2321   2.059   0.116   2.698  0.0468 -0.3670  3.2886
  774SOL    HW2 2322   2.080  -0.053   2.707  1.0942  4.1863 -0.9863
  775SOL     OW 2323   2.536   2.843   2.489  0.5072  0.0931 -0.1847
  775SOL    HW1 2324   2.497   2.927   2.442  1.3798 -0.5501 -3.2737
  775SOL    HW2 2325   2.637   2.828   2.481  2.8539  2.1140  0.9389
  776SOL     OW 2326   0.044   1.244   0.261 -0.2057 -0.0442  0.0427
  776SOL    HW1 2327  -0.002   1.231   0.168  3.6982  2.0169 -0.8021
  776SOL    HW2 2328  -0.020   1.254   0.344  0.4924  1.2321  3.2900
  777SOL     OW 2329   0.235   2.726   0.498  0.1623 -0.1838  0.7090
  777SOL    HW1 2330   0.132   2.732   0.502 -1.0199 -1.7007 -3.9338
  777SOL    HW2 2331   0.277   2.821   0.485  0.3741  0.5697 -1.4363
  778SOL     OW 2332   1.348   1.998   0.184 -0.1984 -0.0378  0.2662
  778SOL    HW1 2333   1.268   1.992   0.250 -0.7549  0.0823 -0.2314
  778SOL    HW2 2334   1.354   2.089   0.136 -1.5180 -1.0241  0.3086
  779SOL     OW 2335   0.173   0.784   0.512 -0.2840 -0.0304 -0.1055
  779SOL    HW1 2336   0.130   0.689   0.506  0.5128  0.1863 -1.2748
  779SOL    HW2 2337   0.112   0.858   0.559 -1.3134  1.4839  0.5998
  780SOL     OW 2338   0.028   0.302   2.311 -0.4076  0.0175  0.4761
  780SOL    HW1 2339   0.003   0.401   2.344 -2.5023  0.3579 -1.2257
  780SOL    HW2 2340   0.115   0.290   2.256 -1.2657 -1.7052  1.7663
  781SOL     OW 2341   0.635   1.727   1.560 -0.4098  0.3132 -0.0432
  781SOL    HW1 2342   0.683   1.751   1.651 -0.8158  0.9559  1.1189
  781SOL    HW2 2343   0.558   1.652   1.573 -1.6422 -4.3489  1.7039
  782SOL     OW 2344   2.574   0.152   0.893 -0.4291  0.1186  0.5437
  782SOL    HW1 2345   2.503   0.168   0.815 -0.8864 -1.3134 -0.7651
  782SOL    HW2 2346   2.540   0.187   0.982 -0.5673  0.6496  1.3702
  783SOL     OW 2347   2.816   0.662   2.520 -0.2844 -0.1575 -0.4539
  783SOL    HW1 2348   2.782   0.680   2.620  0.3989  0.8540  0.8434
  783SOL    HW2 2349   2.750   0.602   2.459  1.2895 -2.5478 -0.1304
  784SOL     OW 2350   1.360   2.252   0.058 -0.0446 -0.0570  0.2793
  784SOL    HW1 2351   1.450   2.282   0.102  1.4794  0.9062  0.4352
  784SOL    HW2 2352   1.345   2.291  -0.039  0.1874 -1.1089 -2.3339
  785SOL     OW 2353   2.186   0.371   3.065 -0.4845 -0.2689  0.1268
  785SOL    HW1 2354   2.093   0.379   3.112  1.4191  2.0005  0.2375
  785SOL    HW2 2355   2.204   0.460   3.018 -1.5172  0.5408  1.8060
  786SOL     OW 2356   2.058   2.129   2.211  0.6609  0.3982  0.2288
  786SOL    HW1 2357   1.998   2.045   2.236  0.0414 -1.5046  1.1544
  786SOL    HW2 2358   2.159   2.123   2.244  0.1948 -0.9641 -0.9835
  787SOL     OW 2359   1.403   0.598   0.875  0.3316 -0.4077 -0.2186
  787SOL    HW1 2360   1.327   0.666   0.868  0.9829  0.0144  0.3380
  787SOL    HW2 2361   1.433   0.567   0.780 -0.0294  0.0327 -0.9421
  788SOL     OW 2362   1.223   0.399   3.030 -0.1141 -0.4305 -0.1772
  788SOL    HW1 2363   1.122   0.422   3.004  0.5192  2.0582 -1.3524
  788SOL    HW2 2364   1.293   0.427   2.958 -0.1771  3.3426 -3.1453
  789SOL     OW 2365   2.580   0.095   1.783 -0.8092  0.6895  0.3375
  789SOL    HW1 2366   2.487   0.141   1.810  2.4795 -0.4566  0.0099
  789SOL    HW2 2367   2.579  -0.007   1.771  0.5626  0.8153 -2.6260
  790SOL     OW 2368   2.533   2.668   0.836  0.1048 -0.6669 -0.3839
  790SOL    HW1 2369   2.605   2.714   0.766  0.0937 -1.1363 -2.1173
  790SOL    HW2 2370   2.575   2.644   0.929  0.5348  1.5096  1.9669
  791SOL     OW 2371   1.940   1.270   0.240  0.1077 -0.2678 -0.3068
  791SOL    HW1 2372   1.851   1.211   0.228 -1.2026  0.4611 -0.7771
  791SOL    HW2 2373   2.023   1.210   0.260  1.3203  2.1219 -1.2654
  792SOL     OW 2374   0.437   2.013   2.173 -0.6196 -0.4710  0.2882
  792SOL    HW1 2375   0.501   2.091   2.197 -1.0092 -1.0582  0.2275
  792SOL    HW2 2376   0.352   2.009   2.230  2.3330  0.0596  1.0066
  793SOL     OW 2377   2.124   1.564   2.092  0.8234  0.3260  0.0248
  793SOL    HW1 2378   2.177   1.644   2.052 -1.7616 -1.7769  0.4069
  793SOL    HW2 2379   2.124   1.486   2.030  2.1997  0.7871  2.2237
  794SOL     OW 2380   0.460   1.382   2.479 -0.5673  0.3229  0.0277
  794SOL    HW1 2381   0.457   1.315   2.400  0.0540  1.2251  3.3793
  794SOL    HW2 2382   0.391   1.459   2.468 -0.0048 -1.7746  0.9376
  795SOL     OW 2383   2.498   2.341   1.809  0.5969 -0.3176  0.0575
  795SOL    HW1 2384   2.448   2.412   1.860 -0.8976  1.1606  0.4876
  795SOL    HW2 2385   2.434   2.271   1.767  1.6033 -0.8536 -0.2892
  796SOL     OW 2386   3.088   1.053   2.707 -0.6697 -0.0863  0.2954
  796SOL    HW1 2387   2.987   1.089   2.700  0.4655 -1.0981  0.1558
  796SOL    HW2 2388   3.129   1.095   2.795  1.5295 -2.1742 -0.4529
  797SOL     OW 2389   0.776   0.664   1.348  0.1783 -0.0338  0.1856
  797SOL    HW1 2390   0.833   0.715   1.422 -1.5615  1.5790 -0.2594
  797SOL    HW2 2391   0.723   0.726   1.279 -0.0921  0.4784 -1.3639
  798SOL     OW 2392   1.296   0.426   1.072 -0.8190  0.0283 -0.0111
  798SOL    HW1 2393   1.315   0.475   1.165 -0.2039 -0.4942  1.3530
  798SOL    HW2 2394   1.328   0.488   1.000 -1.0873 -0.4909  2.0255
  799SOL     OW 2395   1.916   2.719   1.021 -0.4092  0.5749 -0.0512
  799SOL    HW1 2396   1.889   2.632   1.071 -1.6117 -0.5845 -2.0687
  799SOL    HW2 2397   1.906   2.712   0.920 -1.1604 -0.1431 -2.4880
  800SOL     OW 2398   2.954   0.825   1.866  0.4005  0.3141 -0.0144
  800SOL    HW1 2399   3.001   0.906   1.910  0.9888 -1.0676  1.6582
  800SOL    HW2 2400   2.884   0.779   1.926  3.8687 -2.6548 -0.2419
  801SOL     OW 2401   1.974   2.135   0.053  0.4191 -0.2768  0.4882
  801SOL    HW1 2402   1.908   2.102  -0.022 -1.0177 -0.5369 -0.2841
  801SOL    HW2 2403   2.069   2.096   0.046 -2.3886 -0.0495 -2.0937
  802SOL     OW 2404   0.710   0.723   2.511 -0.1179  0.0998  0.4416
  802SOL    HW1 2405   0.762   0.700   2.426 -0.9779 -1.2261  2.7669
  802SOL    HW2 2406   0.608   0.729   2.491  1.6508 -2.3501 -0.6209
  803SOL     OW 2407   0.963   0.081   0.891 -0.0756 -0.1096 -0.2808
  803SOL    HW1 2408   1.053   0.130   0.902 -0.4724  1.0885  1.4796
  803SOL    HW2 2409   0.908   0.113   0.810 -2.1732 -0.5467 -0.2895
  804SOL     OW 2410   0.291   3.069   2.174  0.0241  0.4076 -0.0723
  804SOL    HW1 2411   0.288   3.174   2.167  2.0607 -0.8316 -2.6391
  804SOL    HW2 2412   0.240   3.018   2.097  1.3113  0.8752 -0.7474
  805SOL     OW 2413   2.332   0.413   0.307 -0.0804 -0.3685 -0.7487
  805SOL    HW1 2414   2.404   0.446   0.375  0.9728  1.2323 -1.6435
  805SOL    HW2 2415   2.353   0.329   0.258 -0.3781  0.4450  1.6238
  806SOL     OW 2416   0.636   2.484   1.793 -0.7648 -0.2906  0.2821
  806SOL    HW1 2417   0.608   2.581   1.812 -0.6504 -2.1968 -0.5804
  806SOL    HW2 2418   0.733   2.474   1.755 -0.1488  1.0855  1.9761
  807SOL     OW 2419   2.491   0.942   0.436 -0.4349  0.2153 -0.1317
  807SOL    HW1 2420   2.552   0.866   0.467  0.2174 -0.8517 -0.1824
  807SOL    HW2 2421   2.474   0.949   0.333  0.9541 -4.9728  1.9505
  808SOL     OW 2422   0.633   2.011   2.883 -0.4052 -0.7455 -0.1522
  808SOL    HW1 2423   0.582   2.040   2.968  0.9319 -0.6010  0.5396
  808SOL    HW2 2424   0.661   1.913   2.892 -0.6376  0.9034 -0.3942
  809SOL     OW 2425   2.556   1.999   1.874 -0.4061  0.3707  0.7413
  809SOL    HW1 2426   2.649   2.041   1.864  2.1353  0.3225 -3.5528
  809SOL    HW2 2427   2.495   2.030   1.795 -0.9653  0.7617  0.2049
  810SOL     OW 2428   2.158   1.100   0.505 -0.3659 -0.3088 -0.0858
  810SOL    HW1 2429   2.147   1.020   0.569 -0.5963  0.7758  1.1413
  810SOL    HW2 2430   2.132   1.188   0.546 -1.4746  1.5769  0.9166
  811SOL     OW 2431   1.378   2.553   1.198 -0.6131 -0.0014  0.3503
  811SOL    HW1 2432   1.312   2.479   1.229  0.1644 -0.6243 -0.1644
  811SOL    HW2 2433   1.366   2.643   1.247  1.0220  2.8993 -3.0636
  812SOL     OW 2434   1.408   0.779   1.959 -0.0171  0.0979 -0.7675
  812SOL    HW1 2435   1.313   0.764   1.923 -0.9125 -1.1604 -0.0802
  812SOL    HW2 2436   1.415   0.879   1.987  0.2113  2.8589  2.0883
  813SOL     OW 2437   1.590   2.070   2.433 -0.3448 -0.1736 -0.0269
  813SOL    HW1 2438   1.635   1.981   2.457  0.3164  0.5802 -2.0138
  813SOL    HW2 2439   1.576   2.076   2.328  0.1122  0.5255 -0.8341
  814SOL     OW 2440   2.990   1.609   2.883 -0.5582  0.2591  0.9144
  814SOL    HW1 2441   3.078   1.589   2.930 -3.5972 -0.8758 -2.3564
  814SOL    HW2 2442   2.981   1.710   2.858  1.7723 -0.2432 -1.4201
  815SOL     OW 2443   2.206   2.896   2.771 -0.0251  0.0616  0.0364
  815SOL    HW1 2444   2.177   2.814   2.829 -0.7391  1.8704  1.8074
  815SOL    HW2 2445   2.301   2.929   2.790 -1.9026 -0.5704 -0.0798
  816SOL     OW 2446   1.575   0.351   1.680 -0.0688  0.1814  0.3361
  816SOL    HW1 2447   1.616   0.259   1.699  0.3741 -1.5793  2.0360
  816SOL    HW2 2448   1.512   0.385   1.757 -1.4312 -1.1090 -0.6180
  817SOL     OW 2449   0.383   1.178   2.662 -0.2112  0.3417 -0.1787
  817SOL    HW1 2450   0.287   1.193   2.693 -0.1011 -0.7221  1.3518
  817SOL    HW2 2451   0.425   1.254   2.604  1.7835 -0.8514  0.2672
  818SOL     OW 2452   1.980   0.813   0.439  0.6915 -0.2446  0.2760
  818SOL    HW1 2453   2.085   0.817   0.431  0.9038  1.5180 -0.6760
  818SOL    HW2 2454   1.949   0.867   0.520 -1.9363 -0.0222 -1.6309
  819SOL     OW 2455   2.734   2.973   3.058 -0.5202  0.1781 -0.0218
  819SOL    HW1 2456   2.745   2.917   3.144  0.4247  1.0898 -1.9295
  819SOL    HW2 2457   2.688   2.917   2.985  1.6815  2.2927 -1.0273
  820SOL     OW 2458   1.245   1.029   0.523 -0.0735 -0.1667  0.4538
  820SOL    HW1 2459   1.266   1.127   0.561 -2.7247 -0.1429 -0.2810
  820SOL    HW2 2460   1.230   0.959   0.598 -0.3987  2.4729 -1.0495
  821SOL     OW 2461   0.032   1.247   0.719 -0.0317 -0.2556 -0.3977
  821SOL    HW1 2462  -0.021   1.253   0.805 -1.1635 -0.7213  0.4845
  821SOL    HW2 2463   0.094   1.332   0.693 -0.2077  1.9093 -1.4136
  822SOL     OW 2464   2.519   1.807   2.465 -0.3695 -0.0244 -0.1507
  822SOL    HW1 2465   2.520   1.880   2.539 -0.6289  0.1761 -0.1120
  822SOL    HW2 2466   2.436   1.816   2.404  1.2191  0.4617 -0.1334
  823SOL     OW 2467   1.998   0.891   1.142 -0.6073  0.4307  0.3128
  823SOL    HW1 2468   1.952   0.853   1.227  1.2641  0.1118 -1.0966
  823SOL    HW2 2469   1.934   0.950   1.089 -1.1721  1.0012 -1.6708
  824SOL     OW 2470   0.213   1.991   2.799  0.3442 -0.4045  0.0936
  824SOL    HW1 2471   0.247   1.923   2.870 -0.8432  0.8803 -0.6192
  824SOL    HW2 2472   0.263   1.971   2.706 -1.9073  2.6390 -1.0960
  825SOL     OW 2473   1.325   1.050   0.264  0.1391  0.0734 -0.1123
  825SOL    HW1 2474   1.296   1.147   0.248 -0.1991  1.7058  1.8607
  825SOL    HW2 2475   1.298   1.026   0.365  2.2276  1.2143 -1.0405
  826SOL     OW 2476   1.933   0.620   1.599  0.1797 -0.2403  0.1005
  826SOL    HW1 2477   2.025   0.575   1.622  0.0609 -2.5548 -1.0349
  826SOL    HW2 2478   1.868   0.555   1.552 -0.9542  1.6617 -1.0094
  827SOL     OW 2479   0.664   1.231   0.303  0.8708 -0.1072  0.0595
  827SOL    HW1 2480   0.731   1.165   0.258  0.2592 -1.9863  0.1734
  827SOL    HW2 2481   0.580   1.181   0.344 -2.2628  0.5404  0.2053
  828SOL     OW 2482   2.651   0.112   1.515 -0.0143  0.2102 -0.3115
  828SOL    HW1 2483   2.550   0.094   1.486 -2.4575 -2.6685 -1.0515
  828SOL    HW2 2484   2.655   0.130   1.616  0.0260 -2.0689 -1.0635
  829SOL     OW 2485   2.962   2.391   2.825  0.4191  0.6378  0.4064
  829SOL    HW1 2486   2.878   2.365   2.882 -3.3265  1.1699 -1.8708
  829SOL    HW2 2487   2.987   2.494   2.830  0.3229  2.0866 -1.7119
  830SOL     OW 2488   2.880   0.958   3.049 -0.2775 -0.3329 -0.4758
  830SOL    HW1 2489   2.961   1.013   3.089 -0.3171 -0.9910  2.3768
  830SOL    HW2 2490   2.889   0.856   3.075 -0.3801  0.7564 -1.1410
  831SOL     OW 2491   0.023   0.547   0.422 -0.6029 -0.1948 -0.0321
  831SOL    HW1 2492   0.007   0.484   0.501  1.1227  0.0444 -0.7577
  831SOL    HW2 2493   0.062   0.493   0.340 -1.5386  2.0550 -1.6257
  832SOL     OW 2494   1.845   0.769   3.046  0.3084 -0.0196  0.4087
  832SOL    HW1 2495   1.753   0.819   3.045 -0.1185 -0.5910 -1.0092
  832SOL    HW2 2496   1.843   0.667   3.039 -0.1399  1.8977 -2.5349
  833SOL     OW 2497   2.428   2.052   0.453  0.0423 -0.3757 -0.6001
  833SOL    HW1 2498   2.329   2.020   0.428  0.0207  2.6950 -0.1116
  833SOL    HW2 2499   2.492   1.976   0.473  0.1467  1.2348  3.0950
  834SOL     OW 2500   0.161   0.111   0.548  0.7690  0.3386 -0.0294
  834SOL    HW1 2501   0.226   0.034   0.575 -4.0861 -0.4999 -0.0607
  834SOL    HW2 2502   0.150   0.119   0.443 -0.4222 -1.7498 -0.1802
  835SOL     OW 2503   2.442   1.519   1.162  1.1212  0.1699  0.0577
  835SOL    HW1 2504   2.476   1.611   1.180  1.1958 -1.5125 -2.5033
  835SOL    HW2 2505   2.491   1.463   1.084  0.8820  0.4903 -0.5526
  836SOL     OW 2506   1.616   0.836   2.569  0.2184 -0.2643  0.3374
  836SOL    HW1 2507   1.522   0.793   2.579  1.9543 -0.7047  0.6495
  836SOL    HW2 2508   1.634   0.852   2.468  0.2862  0.5071 -0.0394
  837SOL     OW 2509   1.645   0.052   0.600  0.2437  0.2363  0.2836
  837SOL    HW1 2510   1.595   0.129   0.647 -0.6790  0.1745  0.4770
  837SOL    HW2 2511   1.616   0.045   0.500  1.7791  1.1386  1.4395
  838SOL     OW 2512   1.233   1.359   2.735  0.3105 -0.2060 -0.8355
  838SOL    HW1 2513   1.223   1.449   2.784  0.6815 -1.1572 -0.1245
  838SOL    HW2 2514   1.152   1.338   2.670 -0.3346  1.2043  0.5343
  839SOL     OW 2515   1.609   0.371   0.995  0.0066  0.4313 -0.9814
  839SOL    HW1 2516   1.652   0.414   1.082 -1.0446 -1.4960  1.0328
  839SOL    HW2 2517   1.561   0.284   1.023  1.0411  1.5182 -0.9188
  840SOL     OW 2518   2.587   2.919   1.754  0.7827 -0.0823 -0.8048
  840SOL    HW1 2519   2.512   2.869   1.704 -1.8935  2.5205  0.1839
  840SOL    HW2 2520   2.603   2.871   1.844  0.4903 -1.1483 -0.3153
  841SOL     OW 2521   1.551   0.863   2.970 -0.5704 -0.1082  0.1200
  841SOL    HW1 2522   1.510   0.904   3.056  0.2372  0.5747 -1.3345
  841SOL    HW2 2523   1.589   0.929   2.900  4.1883 -2.6664 -0.3074
  842SOL     OW 2524   0.783   1.541   0.994 -0.0944  0.3618  0.0293
  842SOL    HW1 2525   0.763   1.644   1.020  0.1115  1.5061 -0.7617
  842SOL    HW2 2526   0.731   1.508   0.907  0.7009 -1.6540  0.3419
  843SOL     OW 2527   0.114   0.134   1.443 -0.3426  0.0284 -0.5502
  843SOL    HW1 2528   0.196   0.160   1.502  1.7554  1.4408  0.8331
  843SOL    HW2 2529   0.131   0.047   1.389 -0.1479 -1.3638  0.7576
  844SOL     OW 2530   0.770   2.471   0.245 -0.1123 -0.0612 -0.6744
  844SOL    HW1 2531   0.768   2.497   0.347  0.3046  0.9359  2.0744
  844SOL    HW2 2532   0.678   2.488   0.194 -2.6480 -1.1988  0.9588
  845SOL     OW 2533   1.695   2.924   1.366 -0.0161  0.0861 -0.4472
  845SOL    HW1 2534   1.715   2.943   1.469  2.1298 -1.1451  0.4551
  845SOL    HW2 2535   1.645   2.997   1.314  0.1332  1.2225  1.4820
  846SOL     OW 2536   1.704   2.958   0.915  0.0950  0.0088  0.0014
  846SOL    HW1 2537   1.658   2.951   0.821  1.3201  2.0925 -0.0895
  846SOL    HW2 2538   1.807   2.966   0.913  0.7700 -0.5651  1.4111
  847SOL     OW 2539   2.081   1.610   0.221  0.5216 -0.4275 -0.4644
  847SOL    HW1 2540   2.041   1.575   0.312  2.4392 -1.8481  1.9095
  847SOL    HW2 2541   2.024   1.577   0.143  1.7953  1.1551  1.3678
  848SOL     OW 2542   2.467   0.820   2.671  0.1875 -0.4124  0.0364
  848SOL    HW1 2543   2.464   0.925   2.676 -0.1970 -0.3902  0.6090
  848SOL    HW2 2544   2.414   0.784   2.592 -1.3623 -3.1531 -1.7305
  849SOL     OW 2545   2.444   0.840   2.304 -0.1972 -0.1183  0.0159
  849SOL    HW1 2546   2.492   0.777   2.243 -1.0574 -0.7647  3.7497
  849SOL    HW2 2547   2.376   0.794   2.369  0.1435  0.5107  1.8103
  850SOL     OW 2548   1.559   0.093   1.275 -0.3896  0.7507  0.0663
  850SOL    HW1 2549   1.558   0.104   1.171 -0.0750  0.4694  1.5739
  850SOL    HW2 2550   1.472   0.054   1.313  4.6331 -1.6355  2.2394
  851SOL     OW 2551   0.466   1.728   0.675  0.0585  0.6313 -0.2428
  851SOL    HW1 2552   0.439   1.827   0.662 -0.8425  0.5915 -0.2091
  851SOL    HW2 2553   0.547   1.720   0.739  1.4620  3.1890  1.3486
  852SOL     OW 2554   0.818   2.115   1.662  0.2650 -0.4016  0.0123
  852SOL    HW1 2555   0.812   2.217   1.635  0.3894 -0.3612  1.0519
  852SOL    HW2 2556   0.759   2.101   1.747 -2.8526 -0.1603  2.4643
  853SOL     OW 2557   2.547   1.558   2.589  0.4501  0.1805 -0.1260
  853SOL    HW1 2558   2.494   1.467   2.583 -1.1216 -2.0042  1.8965
  853SOL    HW2 2559   2.515   1.633   2.527 -2.2270 -1.1761  0.9817
  854SOL     OW 2560   2.453   1.414   1.786 -0.9819  0.1796 -0.0478
  854SOL    HW1 2561   2.507   1.382   1.704  0.8425 -1.7531  1.7330
  854SOL    HW2 2562   2.412   1.334   1.835  0.7597  2.0461  0.5442
  855SOL     OW 2563   2.052   2.332   0.948 -0.5518  0.0846  0.3779
  855SOL    HW1 2564   2.113   2.397   0.892  0.2006  1.9201  0.3403
  855SOL    HW2 2565   2.071   2.324   1.048  0.4679 -2.1753  0.4329
  856SOL     OW 2566   1.397   1.379   0.921 -0.0137  0.1856  0.2348
  856SOL    HW1 2567   1.425   1.480   0.922 -2.3155  1.3137  3.3174
  856SOL    HW2 2568   1.351   1.360   1.015  0.6785 -2.2249 -2.3457
  857SOL     OW 2569   2.980   2.632   1.076  0.4060  0.7668 -0.3226
  857SOL    HW1 2570   2.892   2.580   1.068 -0.5588  1.4958 -0.1845
  857SOL    HW2 2571   3.057   2.574   1.049 -3.6243  0.3163 -0.8720
  858SOL     OW 2572   2.318   2.168   1.687  0.1170 -0.5247 -0.2999
  858SOL    HW1 2573   2.212   2.153   1.696 -1.4802  0.8204  0.0868
  858SOL    HW2 2574   2.372   2.100   1.632  1.2547  2.2689 -1.3741
  859SOL     OW 2575   2.446   0.496   1.060  0.1744  0.0532 -0.3978
  859SOL    HW1 2576   2.499   0.526   0.975 -3.6231  1.2436  1.1465
  859SOL    HW2 2577   2.487   0.422   1.111  1.3889  1.3101 -1.5553
  860SOL     OW 2578   1.945   2.775   0.464  0.2835 -0.0335  0.1896
  860SOL    HW1 2579   1.891   2.743   0.387  4.2126  0.8160 -0.6161
  860SOL    HW2 2580   2.020   2.844   0.441  0.5079  1.8792  0.2153
  861SOL     OW 2581   1.105   2.593   2.763 -0.2319  0.0582 -0.3645
  861SOL    HW1 2582   1.118   2.686   2.729 -0.7358 -0.3859  1.8175
  861SOL    HW2 2583   1.112   2.585   2.864 -0.1171  0.1932 -1.2922
  862SOL     OW 2584   2.919   2.516   1.596  0.5453  0.0155 -0.4770
  862SOL    HW1 2585   2.951   2.559   1.688  0.8867  2.4885  0.0250
  862SOL    HW2 2586   2.882   2.586   1.529 -3.5681  3.5479 -2.6770
  863SOL     OW 2587   1.868   2.628   0.206 -0.2015 -0.1160 -0.1088
  863SOL    HW1 2588   1.938   2.547   0.197  0.0647  0.1850  1.2973
  863SOL    HW2 2589   1.779   2.608   0.252 -0.1136 -2.0868  0.3428
  864SOL     OW 2590   1.863   1.177   2.923  0.4792  0.2814  0.4396
  864SOL    HW1 2591   1.887   1.161   2.825  2.5212  0.9011  0.3519
  864SOL    HW2 2592   1.945   1.145   2.980 -1.4117 -1.9080 -1.1578
  865SOL     OW 2593   2.196   1.795   0.692 -0.5270 -0.4017  0.0966
  865SOL    HW1 2594   2.238   1.784   0.789 -3.7481 -0.3165  0.7578
  865SOL    HW2 2595   2.094   1.767   0.696  2.2850 -2.0777  0.4443
  866SOL     OW 2596   2.951   2.894   1.002  0.5232 -0.5364  0.8647
  866SOL    HW1 2597   3.030   2.921   0.939  1.5843 -2.2412  0.5485
  866SOL    HW2 2598   2.958   2.792   1.030 -1.1764  0.4188 -0.1465
  867SOL     OW 2599   0.406   1.335   0.872  0.5857 -0.4055 -0.4815
  867SOL    HW1 2600   0.448   1.244   0.843  0.3008  0.5642 -1.2583
  867SOL    HW2 2601   0.324   1.367   0.813 -1.3729 -0.9288 -0.3139
  868SOL     OW 2602   0.809   1.927   2.010  0.4822  0.4661 -0.0057
  868SOL    HW1 2603   0.819   1.895   2.109  1.1081 -1.2521 -0.0733
  868SOL    HW2 2604   0.751   2.013   1.999  1.0721 -3.8990  1.3842
  869SOL     OW 2605   2.480   1.961   1.588 -0.0325  1.0723  0.2430
  869SOL    HW1 2606   2.573   2.005   1.582 -0.2101  0.9949  0.2463
  869SOL    HW2 2607   2.450   1.917   1.501  0.1561  3.1708 -0.7897
  870SOL     OW 2608   2.258   2.612   1.231 -0.0828  0.3212 -0.3450
  870SOL    HW1 2609   2.230   2.516   1.205 -0.7338 -0.0213 -0.2943
  870SOL    HW2 2610   2.331   2.617   1.310  2.1485 -1.5654 -0.5297
  871SOL     OW 2611   2.990   2.078   0.569  0.1432 -0.1040  0.2440
  871SOL    HW1 2612   2.932   2.162   0.567  0.4567 -2.3818 -0.8402
  871SOL    HW2 2613   2.967   2.005   0.496 -0.9193  1.5773 -2.1065
  872SOL     OW 2614   2.146   0.490   1.696  0.1390  0.3236 -0.0867
  872SOL    HW1 2615   2.095   0.453   1.779  1.3435 -0.8442  0.3904
  872SOL    HW2 2616   2.250   0.473   1.707 -0.3371 -0.6437 -0.4037
  873SOL     OW 2617   1.719   2.080   2.962  0.4578 -0.1637  0.3774
  873SOL    HW1 2618   1.713   2.180   2.980  2.3075 -1.2692 -0.0865
  873SOL    HW2 2619   1.657   2.053   2.884 -0.5449  2.7201 -0.0881
  874SOL     OW 2620   0.660   2.451   0.768  0.2652  0.0442 -0.3592
  874SOL    HW1 2621   0.653   2.550   0.797 -0.1866  1.5396 -0.3429
  874SOL    HW2 2622   0.757   2.410   0.787  0.1164  0.4183 -1.2036
  875SOL     OW 2623   2.257   1.544   1.462  0.3687  1.0123  0.2138
  875SOL    HW1 2624   2.361   1.553   1.460 -0.5432  0.3857  1.6875
  875SOL    HW2 2625   2.217   1.584   1.378 -1.1230  0.4891  3.3467
  876SOL     OW 2626   0.143   2.232   2.684  0.2839  0.0472  0.3578
  876SOL    HW1 2627   0.188   2.158   2.742  1.0093  2.3306 -0.5327
  876SOL    HW2 2628   0.136   2.314   2.745  1.4139  0.5299  1.6373
  877SOL     OW 2629   2.772   2.669   0.658 -0.5331  0.3394  0.0120
  877SOL    HW1 2630   2.821   2.757   0.671 -3.4287 -2.2445 -0.3322
  877SOL    HW2 2631   2.824   2.584   0.682 -0.5648 -1.1910 -0.6917
  878SOL     OW 2632   2.873   1.467   2.251  0.0719 -0.8601  0.2080
  878SOL    HW1 2633   2.972   1.500   2.263 -0.0315 -0.7878  2.8842
  878SOL    HW2 2634   2.819   1.486   2.340 -0.3290 -1.2363  2.0411
  879SOL     OW 2635   2.393   0.038   1.176 -0.0134  0.0877  0.0574
  879SOL    HW1 2636   2.429  -0.055   1.203 -0.0682 -1.5971  0.3207
  879SOL    HW2 2637   2.316   0.026   1.108  0.8791 -2.1537 -1.8201
  880SOL     OW 2638   0.703   0.451   2.208  0.2475 -0.2582 -0.0141
  880SOL    HW1 2639   0.620   0.393   2.240 -2.3996 -2.3970  0.2072
  880SOL    HW2 2640   0.745   0.409   2.117  3.1152 -2.8710 -1.2531
  881SOL     OW 2641   0.884   0.048   0.435  0.0497  0.0421 -0.9417
  881SOL    HW1 2642   0.924  -0.037   0.483 -0.6734 -2.8939  2.5126
  881SOL    HW2 2643   0.853   0.033   0.336  1.2117  0.3373  0.3697
  882SOL     OW 2644   2.698   1.617   1.685  0.3322  0.0458 -0.3336
  882SOL    HW1 2645   2.791   1.587   1.662  1.4151  0.7220  1.1684
  882SOL    HW2 2646   2.697   1.677   1.773 -0.3024 -1.5064 -0.6459
  883SOL     OW 2647   0.946   0.597   0.959  0.5769  0.0992  0.5472
  883SOL    HW1 2648   0.958   0.690   1.014  1.9219  1.4371  1.6009
  883SOL    HW2 2649   1.029   0.537   0.966 -0.3378  1.2774 -1.4641
  884SOL     OW 2650   1.180   1.833   1.070 -0.1390  0.2439 -0.3899
  884SOL    HW1 2651   1.160   1.800   0.969 -2.0164 -0.4139 -1.6440
  884SOL    HW2 2652   1.147   1.928   1.095 -0.2740  1.6069 -1.7344
  885SOL     OW 2653   2.313   1.850   2.294 -0.0898 -0.0175  0.5725
  885SOL    HW1 2654   2.237   1.783   2.333 -1.5036 -0.0953 -2.6028
  885SOL    HW2 2655   2.291   1.954   2.301 -0.4794  1.0705  1.9021
  886SOL     OW 2656   2.656   0.469   1.774  0.2595  0.0160  0.0681
  886SOL    HW1 2657   2.706   0.404   1.835  2.0655  0.0394 -0.4658
  886SOL    HW2 2658   2.719   0.535   1.721  1.9459  0.6682 -0.2207
  887SOL     OW 2659   0.123   2.055   1.237 -0.4432 -0.2215  0.4118
  887SOL    HW1 2660   0.060   2.008   1.167  1.1139 -0.7786  2.1976
  887SOL    HW2 2661   0.166   2.144   1.201  0.6090  0.2644 -2.2070
  888SOL     OW 2662   0.549   1.324   1.557 -0.3080 -0.5402  0.3957
  888SOL    HW1 2663   0.595   1.331   1.465 -0.2895  0.4983 -2.2196
  888SOL    HW2 2664   0.505   1.232   1.564  2.7529 -1.5908  0.5988
  889SOL     OW 2665   0.832   2.475   2.150  0.3058 -0.3197 -0.2995
  889SOL    HW1 2666   0.766   2.392   2.152  1.0716  1.5150 -0.6285
  889SOL    HW2 2667   0.900   2.486   2.069 -0.1226 -0.1996  0.8906
  890SOL     OW 2668   2.358   2.469   0.198 -0.0950  0.2739  0.0026
  890SOL    HW1 2669   2.345   2.537   0.120  0.2276  0.2458  1.0113
  890SOL    HW2 2670   2.291   2.494   0.277 -2.4385 -1.3257 -1.1732
  891SOL     OW 2671   2.639   1.524   0.665 -0.0691 -0.1215 -0.6967
  891SOL    HW1 2672   2.638   1.516   0.770 -3.0688  0.4407  1.1025
  891SOL    HW2 2673   2.540   1.540   0.624 -1.1942 -0.2247 -0.6692
  892SOL     OW 2674   0.275   0.237   2.200  0.0084  0.8512  0.1051
  892SOL    HW1 2675   0.273   0.265   2.102  0.9966 -0.0633  1.6307
  892SOL    HW2 2676   0.365   0.265   2.249 -0.1977  1.6742  0.6765
  893SOL     OW 2677   1.664   0.231   2.769  0.8589 -0.4071 -0.3408
  893SOL    HW1 2678   1.747   0.297   2.784  1.5190 -0.5350  1.5489
  893SOL    HW2 2679   1.573   0.282   2.753  0.2376 -1.3238  2.6935
  894SOL     OW 2680   2.243   2.016   0.042 -0.7174 -0.2185  0.3278
  894SOL    HW1 2681   2.221   1.921   0.003 -1.1047  2.3822  1.6952
  894SOL    HW2 2682   2.269   2.002   0.143  1.3264 -0.8420  2.0612
  895SOL     OW 2683   2.857   1.429   0.860  0.1970 -0.2940  0.0613
  895SOL    HW1 2684   2.905   1.368   0.933  2.1994 -0.7743 -1.8693
  895SOL    HW2 2685   2.909   1.512   0.830  0.8315  0.1594 -1.6214
  896SOL     OW 2686   1.756   1.785   1.160 -1.0385 -0.2303  0.4069
  896SOL    HW1 2687   1.829   1.830   1.101 -1.0319  1.4611  0.2059
  896SOL    HW2 2688   1.662   1.827   1.145 -0.1752 -1.5674 -2.7269
  897SOL     OW 2689   0.277   0.558   3.038 -0.1594 -0.2468  0.4387
  897SOL    HW1 2690   0.218   0.617   2.977  2.9389  1.5804 -2.0427
  897SOL    HW2 2691   0.364   0.607   3.069  1.7821  2.8560 -1.2841
  898SOL     OW 2692   0.575   2.830   1.120 -0.5303  0.0369  0.5184
  898SOL    HW1 2693   0.524   2.919   1.151 -1.1750  0.3774 -1.5456
  898SOL    HW2 2694   0.678   2.835   1.136 -1.7459 -0.4583 -2.8270
  899SOL     OW 2695   2.737   0.941   1.237 -0.2201  0.5789  0.2843
  899SOL    HW1 2696   2.656   0.934   1.178  1.6014 -1.0313 -0.2169
  899SOL    HW2 2697   2.817   0.956   1.174 -1.8901 -0.3630 -1.7024
  900SOL     OW 2698   0.985   2.553   2.383  0.4547 -0.5838  0.2073
  900SOL    HW1 2699   0.928   2.530   2.297 -2.4637  0.6995 -2.1329
  900SOL    HW2 2700   0.936   2.539   2.471  1.0556 -1.3741  0.4554
  901SOL     OW 2701   1.912   2.396   1.373  0.8929  0.4218 -0.4682
  901SOL    HW1 2702   1.907   2.428   1.271 -1.0876  0.7690 -2.2824
  901SOL    HW2 2703   2.010   2.367   1.405  1.5399 -2.3859  1.3972
  902SOL     OW 2704   2.590   1.650   1.427 -0.1559  0.1947  0.3607
  902SOL    HW1 2705   2.617   1.644   1.530 -1.2643 -0.6455  1.3474
  902SOL    HW2 2706   2.662   1.607   1.370 -1.3835 -1.6643 -0.8902
  903SOL     OW 2707   0.247   2.459   2.003 -0.0937 -0.3875  0.6518
  903SOL    HW1 2708   0.198   2.380   1.956  0.7709 -0.2287 -0.7137
  903SOL    HW2 2709   0.258   2.534   1.934  0.7215 -0.6121 -1.4582
  904SOL     OW 2710   1.997   0.738   2.392 -0.3745  0.3429  0.9006
  904SOL    HW1 2711   1.921   0.717   2.454  0.5551  1.8084 -0.1211
  904SOL    HW2 2712   1.969   0.748   2.292 -2.0843 -0.2484  0.1886
  905SOL     OW 2713   2.809   0.078   2.585 -0.2685 -0.1136  0.0727
  905SOL    HW1 2714   2.889   0.014   2.605 -1.4337 -2.0557 -1.7030
  905SOL    HW2 2715   2.843   0.165   2.534 -1.7422 -0.6423  0.6554
  906SOL     OW 2716   0.165   1.766   1.855  0.6089  0.3918 -0.3130
  906SOL    HW1 2717   0.095   1.776   1.776 -0.1893  0.5108  2.0021
  906SOL    HW2 2718   0.247   1.829   1.847  0.0920  1.7265 -1.0211
  907SOL     OW 2719   0.163   2.487   1.006  0.2167  0.4562  0.1254
  907SOL    HW1 2720   0.238   2.557   1.003  1.3924  1.0632 -2.0798
  907SOL    HW2 2721   0.157   2.446   0.911  3.5431 -2.8538 -0.3668
  908SOL     OW 2722   2.701   2.969   0.451 -0.3944  0.2656  0.0744
  908SOL    HW1 2723   2.665   3.038   0.383  2.1353 -2.3138 -1.5833
  908SOL    HW2 2724   2.712   2.879   0.396 -0.7508  1.7214 -1.8633
  909SOL     OW 2725   0.803   0.936   2.686  0.4783 -0.6818 -0.5427
  909SOL    HW1 2726   0.771   0.847   2.640  0.7887 -1.1952 -2.3424
  909SOL    HW2 2727   0.861   0.995   2.620  3.5772 -1.1555  0.6498
  910SOL     OW 2728   1.772   1.832   2.078 -0.1100  0.1449 -0.5614
  910SOL    HW1 2729   1.847   1.871   2.015  0.3233 -0.3215  2.0119
  910SOL    HW2 2730   1.691   1.897   2.087  2.5699  0.1059 -0.2084
  911SOL     OW 2731   1.787   2.975   1.612 -0.0442  0.2504 -0.4424
  911SOL    HW1 2732   1.883   2.964   1.572  2.4400  0.7298 -0.9097
  911SOL    HW2 2733   1.758   2.908   1.685 -1.2079  0.7228 -0.4796
  912SOL     OW 2734   2.879   0.966   0.777 -0.3951 -0.2338 -0.0588
  912SOL    HW1 2735   2.884   0.957   0.882  1.7901 -0.1493  1.3083
  912SOL    HW2 2736   2.850   1.062   0.747  0.5859 -0.5908 -1.7129
  913SOL     OW 2737   2.563   1.271   1.566 -0.3364  0.1092  0.1929
  913SOL    HW1 2738   2.560   1.165   1.566  1.8281  0.6589  1.2262
  913SOL    HW2 2739   2.626   1.302   1.492 -0.6900  0.2880 -2.1851
  914SOL     OW 2740   2.800   0.522   1.215  0.0276 -0.2274  0.5671
  914SOL    HW1 2741   2.758   0.427   1.234 -1.8577 -0.4056 -0.1659
  914SOL    HW2 2742   2.791   0.598   1.288  2.8560  1.8967  3.2642
  915SOL     OW 2743   1.231   0.816   0.995 -0.9625  0.5657 -0.1753
  915SOL    HW1 2744   1.294   0.833   1.073 -0.9374 -2.6693  1.4245
  915SOL    HW2 2745   1.132   0.818   1.017  0.6054  2.1027  0.2584
  916SOL     OW 2746   0.600   0.011   0.674 -0.2477  0.0780 -0.1418
  916SOL    HW1 2747   0.612   0.078   0.751 -0.0971 -0.4881  1.2616
  916SOL    HW2 2748   0.620   0.049   0.579 -0.9641 -0.4671 -2.1472
  917SOL     OW 2749   2.816   2.598   1.994  0.2161  0.1851 -0.0519
  917SOL    HW1 2750   2.711   2.614   1.971 -2.0227 -0.3312  1.0645
  917SOL    HW2 2751   2.874   2.678   1.961 -0.8435  0.7597  0.2927
  918SOL     OW 2752   1.020   2.219   3.016 -0.4995  0.0812  0.4414
  918SOL    HW1 2753   0.948   2.223   3.092 -1.6638 -0.8971 -0.1830
  918SOL    HW2 2754   1.076   2.132   3.011 -0.5811 -0.7884  1.3706
  919SOL     OW 2755   0.908   1.599   2.810 -0.0818 -0.4112 -0.0410
  919SOL    HW1 2756   0.976   1.666   2.767  1.4872  0.6250  1.8690
  919SOL    HW2 2757   0.870   1.532   2.740  1.6219 -1.0827 -2.7184
  920SOL     OW 2758   1.273   1.995   2.489 -0.4337  0.5303  0.1970
  920SOL    HW1 2759   1.269   1.966   2.393  1.0406  1.4777  1.1393
  920SOL    HW2 2760   1.304   1.916   2.545 -1.7424 -0.7182  1.0294
  921SOL     OW 2761   1.100   0.059   2.577 -0.1125 -0.4235 -0.2605
  921SOL    HW1 2762   1.088   0.059   2.475  0.0895  0.5268 -2.3508
  921SOL    HW2 2763   1.012   0.050   2.631  0.2884  4.5958 -0.3631
  922SOL     OW 2764   2.144   2.383   2.859  0.3084 -0.1302 -1.0242
  922SOL    HW1 2765   2.167   2.281   2.835 -1.4543 -1.5046 -2.4898
  922SOL    HW2 2766   2.065   2.417   2.795 -2.6901  0.2889 -1.5659
  923SOL     OW 2767   1.252   2.690   0.258 -0.0508  0.3773 -0.1263
  923SOL    HW1 2768   1.342   2.741   0.280  0.5905 -1.5016 -0.6699
  923SOL    HW2 2769   1.270   2.589   0.242  0.6963 -0.6179 -1.2535
  924SOL     OW 2770   2.889   1.567   0.092  0.6539 -0.1757  0.0605
  924SOL    HW1 2771   2.811   1.568   0.022 -0.6089  1.9516 -2.1411
  924SOL    HW2 2772   2.982   1.555   0.044  0.1089  0.2802 -0.5980
  925SOL     OW 2773   3.098   2.916   1.554  0.1417 -0.1121  1.1359
  925SOL    HW1 2774   3.003   2.946   1.579  0.3411  1.2121 -0.3072
  925SOL    HW2 2775   3.096   2.826   1.501 -0.3288  0.6864  1.8704
  926SOL     OW 2776   1.345   2.845   1.313  0.0935  0.6883  0.2842
  926SOL    HW1 2777   1.385   2.847   1.213 -0.3616  2.7569  0.1552
  926SOL    HW2 2778   1.360   2.936   1.363 -0.6050  0.7704  0.3774
  927SOL     OW 2779   0.281   2.635   1.795 -0.1909 -0.1573 -0.4471
  927SOL    HW1 2780   0.260   2.567   1.719 -0.2280 -2.1852  2.6642
  927SOL    HW2 2781   0.267   2.737   1.765  1.9820  0.7267 -0.9383
  928SOL     OW 2782   1.570   2.021   2.138 -0.1198 -0.0564 -0.3326
  928SOL    HW1 2783   1.619   2.112   2.134  0.1498 -3.5451 -0.4407
  928SOL    HW2 2784   1.465   2.022   2.116  1.3597 -3.5287 -1.2865
  929SOL     OW 2785   2.415   2.485   2.861  0.0237 -0.0093 -0.1114
  929SOL    HW1 2786   2.311   2.466   2.867 -3.4468  0.1791 -0.5632
  929SOL    HW2 2787   2.451   2.464   2.762  0.2610 -0.2092  0.8966
  930SOL     OW 2788   2.168   2.013   1.060 -0.0802  0.4203 -0.0712
  930SOL    HW1 2789   2.168   1.969   1.152  4.2869  0.5005 -0.5550
  930SOL    HW2 2790   2.239   2.088   1.057 -0.2826 -0.2286  1.5168
  931SOL     OW 2791   0.537   1.710   2.673 -0.2462 -0.1002 -0.5174
  931SOL    HW1 2792   0.592   1.729   2.755 -0.0236  2.9388 -2.9805
  931SOL    HW2 2793   0.560   1.625   2.627  1.4466  0.9175  0.1059
  932SOL     OW 2794   0.459   0.046   2.917  0.1734 -0.0397  0.0574
  932SOL    HW1 2795   0.563   0.074   2.910  0.4382  0.9335  0.0265
  932SOL    HW2 2796   0.454  -0.040   2.972  0.6702  1.8329 -0.6990
  933SOL     OW 2797   1.066   0.765   2.999 -0.1724  0.3408  0.0308
  933SOL    HW1 2798   1.149   0.769   3.062  1.1733 -1.0117 -0.0225
  933SOL    HW2 2799   1.031   0.860   2.968  2.8710  1.3777 -0.7350
  934SOL     OW 2800   0.888   3.018   2.709 -0.3442  0.3565  0.0636
  934SOL    HW1 2801   0.904   2.929   2.654  1.1166 -0.5523 -0.9950
  934SOL    HW2 2802   0.902   3.010   2.813  1.7972  2.1198  1.6711
  935SOL     OW 2803   3.091   0.538   0.795 -0.2472 -0.7108 -0.3754
  935SOL    HW1 2804   3.084   0.457   0.731 -1.7479  1.5950  1.3279
  935SOL    HW2 2805   3.002   0.584   0.809 -1.8891 -0.7889 -1.2900
  936SOL     OW 2806   1.117   2.912   0.142  0.0317  0.0569 -0.0468
  936SOL    HW1 2807   1.164   2.950   0.060 -0.9755 -0.2803 -2.3153
  936SOL    HW2 2808   1.175   2.832   0.181  0.5965 -1.0370  1.3337
  937SOL     OW 2809   1.910   2.632   2.105 -0.4349 -0.3555 -0.1233
  937SOL    HW1 2810   1.816   2.647   2.154 -0.9428 -1.0417  1.4029
  937SOL    HW2 2811   1.918   2.654   2.006  2.4080 -1.7221  0.5337
  938SOL     OW 2812   2.717   2.087   1.580 -0.2865  0.0128 -0.0852
  938SOL    HW1 2813   2.718   2.193   1.595  1.4174  1.0988 -1.9105
  938SOL    HW2 2814   2.808   2.041   1.610  1.5059  1.2998  2.0370
  939SOL     OW 2815   2.851   1.249   2.470 -0.6823  0.5723  0.1714
  939SOL    HW1 2816   2.902   1.205   2.391  0.2422  1.4281 -1.0628
  939SOL    HW2 2817   2.852   1.190   2.555  0.4671 -0.1389  0.8009
  940SOL     OW 2818   0.989   0.452   2.682 -0.0880 -0.3365 -0.5452
  940SOL    HW1 2819   1.055   0.376   2.692  2.1416  1.6106 -1.1138
  940SOL    HW2 2820   0.892   0.423   2.661 -2.3944  3.7588 -1.1315
  941SOL     OW 2821   0.044   2.864   2.201 -0.4101  0.5555  0.1074
  941SOL    HW1 2822   0.073   2.762   2.207  4.0667 -4.1417  0.8409
  941SOL    HW2 2823   0.075   2.922   2.281  1.4191 -0.9859  0.5696
  942SOL     OW 2824   0.043   0.133   2.547  0.0701  0.0193  0.2281
  942SOL    HW1 2825   0.131   0.118   2.601  0.2594  0.5401  0.3656
  942SOL    HW2 2826   0.060   0.187   2.462  0.6761  0.5202  2.3363
  943SOL     OW 2827   2.116   1.667   2.428 -0.5166  0.8277  0.3704
  943SOL    HW1 2828   2.117   1.585   2.362  1.3057  0.1640 -0.8402
  943SOL    HW2 2829   2.101   1.649   2.527  0.9261  0.6240  3.8239
  944SOL     OW 2830   2.179   2.325   1.467 -0.0510  0.1143  0.1883
  944SOL    HW1 2831   2.267   2.369   1.498  1.0853  1.4467 -1.2453
  944SOL    HW2 2832   2.131   2.267   1.538 -0.2944  0.4298 -0.9711
  945SOL     OW 2833   0.632   1.489   0.364 -0.6906 -0.3230  0.3093
  945SOL    HW1 2834   0.670   1.549   0.293 -0.7846 -3.3790 -2.2486
  945SOL    HW2 2835   0.655   1.393   0.339 -1.5272 -0.1315  2.2402
  946SOL     OW 2836   0.443   0.932   2.530  0.0112  0.1355 -0.3232
  946SOL    HW1 2837   0.359   0.905   2.473  2.0842 -4.5054 -2.6656
  946SOL    HW2 2838   0.435   1.027   2.568  0.9598 -2.4026 -2.6284
  947SOL     OW 2839   1.544   0.576   0.043  0.3264  0.1472 -0.6931
  947SOL    HW1 2840   1.493   0.606  -0.047 -3.0261  2.2947  1.0012
  947SOL    HW2 2841   1.478   0.560   0.115  1.7530 -1.3015  0.8155
  948SOL     OW 2842   2.044   3.070   2.192  0.6457  0.7113  0.1345
  948SOL    HW1 2843   2.029   3.025   2.096  0.3205 -1.8641  0.7782
  948SOL    HW2 2844   2.010   3.011   2.270  2.7268 -0.0721 -1.0091
  949SOL     OW 2845   0.679   2.535   0.500  0.4569  0.3639 -0.0968
  949SOL    HW1 2846   0.645   2.637   0.494  1.7248  1.6286  1.3387
  949SOL    HW2 2847   0.680   2.487   0.595 -0.6903  0.7463 -0.6402
  950SOL     OW 2848   0.231   2.143   3.045  0.2046  0.2753 -0.0255
  950SOL    HW1 2849   0.156   2.217   3.042  0.9595  1.8350 -0.1734
  950SOL    HW2 2850   0.222   2.060   2.985  1.8359 -1.3809  1.2231
  951SOL     OW 2851   1.195   2.862   2.698 -0.2858  0.0819  0.3906
  951SOL    HW1 2852   1.164   2.935   2.631  1.1135 -2.8598  0.7099
  951SOL    HW2 2853   1.295   2.873   2.722 -0.7812  0.8438 -0.4448
  952SOL     OW 2854   0.101   1.643   0.435 -0.1637  0.2699 -0.4479
  952SOL    HW1 2855   0.167   1.717   0.460 -3.4808 -0.9036  2.1475
  952SOL    HW2 2856   0.072   1.576   0.510 -1.6959  1.0604  3.3974
  953SOL     OW 2857   2.503   1.778   0.163  0.4901 -0.1327 -0.0723
  953SOL    HW1 2858   2.530   1.682   0.167 -0.7884  1.7324  2.3187
  953SOL    HW2 2859   2.543   1.824   0.077  2.7508  0.2710 -1.8884
  954SOL     OW 2860   2.178   0.528   0.992  0.2525  0.1625 -0.1622
  954SOL    HW1 2861   2.164   0.551   0.893  0.8633 -0.6946  2.5562
  954SOL    HW2 2862   2.276   0.509   1.019 -0.1105 -2.2354 -0.4613
  955SOL     OW 2863   0.255   2.672   1.380  0.3924  0.6036 -0.3268
  955SOL    HW1 2864   0.156   2.693   1.407 -0.3288 -1.0950  2.7345
  955SOL    HW2 2865   0.268   2.671   1.278 -3.1584  0.2623  1.6044
  956SOL     OW 2866   2.763   2.432   2.441 -0.3579  0.4077  0.3118
  956SOL    HW1 2867   2.777   2.327   2.412  1.3462 -1.1449  3.5670
  956SOL    HW2 2868   2.815   2.500   2.387 -1.9516  0.2043 -0.0564
  957SOL     OW 2869   1.544   2.032   2.753  0.1203 -0.3428 -0.1856
  957SOL    HW1 2870   1.533   1.928   2.756  1.0710 -4.4036 -0.4531
  957SOL    HW2 2871   1.500   2.080   2.672  0.1204  0.5019 -1.1697
  958SOL     OW 2872   2.731   2.315   2.953  0.4330  0.3840  0.0600
  958SOL    HW1 2873   2.638   2.355   2.942 -1.2440 -0.4231  0.9910
  958SOL    HW2 2874   2.733   2.264   3.044 -1.9012 -1.4889  1.2244
  959SOL     OW 2875   0.246   2.750   0.127 -0.2165 -0.0494  0.1227
  959SOL    HW1 2876   0.150   2.769   0.095  0.6450 -1.0278 -0.9379
  959SOL    HW2 2877   0.250   2.653   0.174  1.0811 -0.8442  2.6328
  960SOL     OW 2878   1.989   0.418   1.934 -0.1945  0.3534 -0.1237
  960SOL    HW1 2879   1.937   0.501   1.908 -0.6091 -1.8837  1.8565
  960SOL    HW2 2880   1.984   0.402   2.037 -0.5253  1.1050  2.3406
  961SOL     OW 2881   2.549   1.827   1.041  0.5350 -0.0276  0.1014
  961SOL    HW1 2882   2.546   1.915   0.985 -0.8976 -0.0588 -0.8989
  961SOL    HW2 2883   2.539   1.849   1.141  0.6215 -1.5474  0.5577
  962SOL     OW 2884   1.255   0.907   0.034  0.2442 -0.1242  0.0311
  962SOL    HW1 2885   1.271   0.979  -0.038  0.7052 -0.0147 -1.2838
  962SOL    HW2 2886   1.268   0.945   0.130  0.6611  0.1883  0.3500
  963SOL     OW 2887   2.198   2.557   1.840  0.0579 -0.1522  0.1677
  963SOL    HW1 2888   2.172   2.467   1.888  1.3619  0.9781 -0.8113
  963SOL    HW2 2889   2.253   2.621   1.905  1.0919 -1.1521  2.0786
  964SOL     OW 2890   2.400   0.421   1.684 -0.1690  0.5573  0.2000
  964SOL    HW1 2891   2.491   0.440   1.729 -1.0544  0.4828 -2.0680
  964SOL    HW2 2892   2.410   0.397   1.582  1.7032 -0.0081  3.1837
  965SOL     OW 2893   2.598   3.077   0.222 -0.0331 -0.4926  0.0545
  965SOL    HW1 2894   2.657   3.073   0.138  2.1574  1.5927 -1.9751
  965SOL    HW2 2895   2.501   3.055   0.210  1.5369  0.9280  0.6163
  966SOL     OW 2896   2.472   2.458   2.277  0.1884  0.0277  0.7141
  966SOL    HW1 2897   2.383   2.411   2.306 -1.9633 -1.3414  1.8447
  966SOL    HW2 2898   2.462   2.562   2.274  0.5209 -0.6043  0.1258
  967SOL     OW 2899   2.807   2.792   2.436  0.2252 -0.2889  0.6348
  967SOL    HW1 2900   2.855   2.723   2.370 -2.1693 -0.3186 -2.1238
  967SOL    HW2 2901   2.860   2.875   2.462 -0.3907 -0.0490 -0.8013
  968SOL     OW 2902   1.916   1.087   2.675 -0.4458 -0.5009 -0.1467
  968SOL    HW1 2903   1.860   1.153   2.619  1.9767 -0.5869 -0.5141
  968SOL    HW2 2904   1.923   0.999   2.632  1.2363  2.6121  1.1146
  969SOL     OW 2905   2.740   2.458   1.081 -0.3951 -0.1210  0.2232
  969SOL    HW1 2906   2.691   2.421   0.996 -0.8462 -0.9107  0.4212
  969SOL    HW2 2907   2.776   2.389   1.149  0.3624  1.3246 -1.0121
  970SOL     OW 2908   1.046   2.140   1.795 -0.1304 -0.0162  0.0196
  970SOL    HW1 2909   0.953   2.142   1.750 -0.3607  1.6680 -1.6567
  970SOL    HW2 2910   1.047   2.176   1.894 -2.0431 -0.4873  0.5226
  971SOL     OW 2911   2.808   2.096   1.871  0.0179  0.3271  0.3269
  971SOL    HW1 2912   2.829   2.193   1.899 -0.9639  0.6732  0.1363
  971SOL    HW2 2913   2.875   2.054   1.807 -0.4743 -2.3053  2.3372
  972SOL     OW 2914   1.997   2.365   0.206  0.8329 -0.7933 -0.0612
  972SOL    HW1 2915   2.008   2.291   0.132  1.5398  1.5409 -2.2581
  972SOL    HW2 2916   2.026   2.331   0.302  0.7328 -1.1072  0.9532
  973SOL     OW 2917   1.329   1.065   1.942  0.4658 -0.2404  0.5004
  973SOL    HW1 2918   1.264   1.043   1.860 -0.1616  1.0738 -2.3448
  973SOL    HW2 2919   1.313   1.162   1.980 -0.8439 -0.0258  1.0999
  974SOL     OW 2920   1.609   0.582   1.984 -0.4564  0.1179  0.5422
  974SOL    HW1 2921   1.713   0.587   1.965  0.3550 -2.4250 -1.5866
  974SOL    HW2 2922   1.556   0.661   1.936 -0.5413  0.6775  0.3993
  975SOL     OW 2923   2.364   3.014   0.035  0.0470  0.3967  0.0188
  975SOL    HW1 2924   2.299   2.936   0.065 -0.6705 -2.3424  0.5210
  975SOL    HW2 2925   2.420   2.990  -0.045 -1.1624 -0.5625  1.7798
  976SOL     OW 2926   1.933   2.901   2.368 -0.1740 -0.1912  0.0533
  976SOL    HW1 2927   1.869   2.849   2.311  1.2107  1.9560  0.7919
  976SOL    HW2 2928   1.977   2.851   2.450  1.0697 -2.0953 -0.8122
  977SOL     OW 2929   0.448   0.653   1.021 -0.0329 -0.5053 -0.4464
  977SOL    HW1 2930   0.383   0.697   0.951 -0.0294  2.0885  2.4557
  977SOL    HW2 2931   0.536   0.632   0.971  2.0817  0.0890 -2.6204
   3.10000   3.10000   3.10000
