1000 SPC/Fw water molecules t=   0.73000 step= 730
 2931
    1SOL     OW    1   2.485   0.404   2.611  0.2312  0.2144 -0.2283
    1SOL    HW1    2   2.499   0.303   2.587 -0.8614 -0.7310 -1.2943
    1SOL    HW2    3   2.512   0.435   2.708  0.6184  0.7187  2.0201
    2SOL     OW    4   2.752   3.032   1.410  0.3732  0.2824  0.1741
    2SOL    HW1    5   2.800   3.074   1.325  0.8617  0.9862 -2.3890
    2SOL    HW2    6   2.698   3.099   1.468 -0.2648 -1.0763 -1.5096
    3SOL     OW    7   2.728   2.618   0.354  0.3690  0.0333 -0.4371
    3SOL    HW1    8   2.716   2.514   0.355  0.8215  0.0737 -0.6446
    3SOL    HW2    9   2.801   2.650   0.424 -2.3938 -1.7150  0.5047
    4SOL     OW   10   1.281   1.473   2.365  0.0364  0.9099 -0.1066
    4SOL    HW1   11   1.188   1.530   2.363 -0.1658  1.9947 -1.5166
    4SOL    HW2   12   1.266   1.380   2.415 -1.9936 -1.1360  2.1028
    5SOL     OW   13   1.170   1.524   3.085 -0.4020  0.0615  0.2587
    5SOL    HW1   14   1.241   1.594   3.110 -0.1432  0.9090 -0.4990
    5SOL    HW2   15   1.073   1.562   3.093 -0.5657 -0.9288 -0.0965
    6SOL     OW   16   0.085   1.888   2.947 -0.0863 -0.0862  0.3985
    6SOL    HW1   17  -0.001   1.901   3.011 -0.5596  1.2042 -0.8003
    6SOL    HW2   18   0.148   1.823   2.997 -0.9396  2.2235 -1.3429
    7SOL     OW   19   2.548   0.961   1.147  0.5028  0.4551  0.3877
    7SOL    HW1   20   2.479   0.895   1.182 -0.1378 -1.0469 -0.2370
    7SOL    HW2   21   2.559   0.950   1.044 -3.2239 -1.9376  1.6808
    8SOL     OW   22   0.384   0.578   1.530 -0.5794  0.2265 -0.5285
    8SOL    HW1   23   0.483   0.560   1.557 -1.5640  0.6044 -0.7426
    8SOL    HW2   24   0.371   0.567   1.425  1.9051 -0.1828 -0.9098
    9SOL     OW   25   1.176   0.890   2.358  0.1388 -0.3235  0.9310
    9SOL    HW1   26   1.253   0.940   2.306 -1.8252 -0.1048 -0.1079
    9SOL    HW2   27   1.102   0.856   2.296  2.6991 -0.8448  0.4765
   10SOL     OW   28   0.628   1.345   1.309  0.4701 -0.4542  0.1401
   10SOL    HW1   29   0.540   1.355   1.251 -2.4174 -1.0005  0.0479
   10SOL    HW2   30   0.679   1.436   1.290 -1.2060 -3.1872 -1.7628
   11SOL     OW   31   2.380   2.733   0.872  0.1950 -0.2988 -0.1276
   11SOL    HW1   32   2.334   2.728   0.964 -3.4775  0.9681  0.3265
   11SOL    HW2   33   2.483   2.752   0.871  2.7176 -0.6114 -0.2758
   12SOL     OW   34   1.472   0.887   0.363  0.0188  0.2940 -0.0481
   12SOL    HW1   35   1.386   0.945   0.345  2.0978 -0.3681 -0.6938
   12SOL    HW2   36   1.469   0.788   0.331 -2.0643  2.5236 -0.8057
   13SOL     OW   37   2.476   0.673   1.797 -0.5555 -0.3656 -0.5720
   13SOL    HW1   38   2.396   0.654   1.860 -1.7049 -1.2499 -0.2471
   13SOL    HW2   39   2.449   0.647   1.697 -0.9586  0.6275 -0.3296
   14SOL     OW   40   1.917   0.075   0.733 -0.7564 -0.3158 -0.0878
   14SOL    HW1   41   1.858   0.105   0.654 -0.9176 -0.8661  1.5486
   14SOL    HW2   42   1.865   0.006   0.786  1.9639 -0.8080  1.4685
   15SOL     OW   43   1.973   2.049   2.733  0.4422  0.4922 -0.1619
   15SOL    HW1   44   1.915   2.135   2.747  1.0072  1.4787  1.8566
   15SOL    HW2   45   1.921   1.963   2.700  0.5995  1.8523 -2.0236
   16SOL     OW   46   1.599   1.702   2.957 -0.2577  0.1927 -0.4515
   16SOL    HW1   47   1.619   1.601   2.985 -0.0492 -1.1497 -0.0634
   16SOL    HW2   48   1.654   1.775   3.008  3.5612 -1.4149 -1.9473
   17SOL     OW   49   0.139   0.537   0.173  0.6749 -0.1139  0.1451
   17SOL    HW1   50   0.226   0.561   0.122 -1.8285  0.5458  1.1350
   17SOL    HW2   51   0.062   0.539   0.106  0.8585  1.1281 -1.9259
   18SOL     OW   52   0.923   2.977   2.093 -0.3001 -0.7266  0.3405
   18SOL    HW1   53   0.847   2.908   2.096 -1.0768  2.5068 -1.5946
   18SOL    HW2   54   0.996   2.947   2.022  2.0644 -0.4250 -3.1836
   19SOL     OW   55   0.511   0.825   1.891 -0.0933  0.4347 -0.2375
   19SOL    HW1   56   0.520   0.791   1.990  1.3066 -4.0171  0.8149
   19SOL    HW2   57   0.593   0.813   1.831  1.2382 -1.3559 -1.4689
   20SOL     OW   58   0.216   2.741   0.811  0.0099 -0.6525 -0.4226
   20SOL    HW1   59   0.151   2.812   0.771 -1.3044 -1.4928 -1.1386
   20SOL    HW2   60   0.294   2.729   0.743  0.1023 -0.7302 -0.1834
   21SOL     OW   61   2.769   0.208   2.089 -0.2925  0.5848  0.2453
   21SOL    HW1   62   2.704   0.147   2.037 -0.4064 -0.0508 -1.4046
   21SOL    HW2   63   2.856   0.158   2.118  0.9843 -1.2448 -1.9790
   22SOL     OW   64   2.373   0.217   0.064  0.0547  0.1035  0.1011
   22SOL    HW1   65   2.370   0.116   0.040 -1.8200  1.6585 -0.4190
   22SOL    HW2   66   2.276   0.254   0.095 -2.3529  1.5432  0.5129
   23SOL     OW   67   2.761   0.654   0.630  0.2068 -0.0507 -0.1905
   23SOL    HW1   68   2.793   0.563   0.607  0.3837  0.4292  3.3505
   23SOL    HW2   69   2.767   0.725   0.555  0.7786 -3.6480  0.0067
   24SOL     OW   70   0.156   1.894   0.375 -0.1707 -0.0646  0.6826
   24SOL    HW1   71   0.107   1.964   0.315 -0.6162 -2.7704 -0.0893
   24SOL    HW2   72   0.249   1.878   0.330  1.2289  3.1350 -1.0163
   25SOL     OW   73   2.210   0.538   0.315 -0.1262  0.0569  0.2128
   25SOL    HW1   74   2.217   0.640   0.283  3.4502  2.9396  1.0769
   25SOL    HW2   75   2.302   0.497   0.309  0.8425  2.7128  1.5904
   26SOL     OW   76   2.536   2.105   2.104 -0.1878  0.2211  0.1278
   26SOL    HW1   77   2.580   2.164   2.179 -0.6557 -2.2335 -0.2358
   26SOL    HW2   78   2.595   2.023   2.075  2.3700 -1.3073 -0.4005
   27SOL     OW   79   0.599   2.979   0.197  0.0509 -0.2215  0.5291
   27SOL    HW1   80   0.700   2.956   0.185 -1.6065  0.3688  0.3924
   27SOL    HW2   81   0.547   2.985   0.109  1.9989  0.4832  0.2220
   28SOL     OW   82   1.596   0.156   0.311  0.0928 -0.2404 -0.4921
   28SOL    HW1   83   1.617   0.153   0.208  2.4020 -1.2344  0.8010
   28SOL    HW2   84   1.601   0.252   0.342 -1.1397 -0.2757 -0.7401
   29SOL     OW   85   1.952   0.572   0.406 -0.4690  0.7787  0.2925
   29SOL    HW1   86   1.940   0.671   0.409  2.1212 -0.0228  1.4567
   29SOL    HW2   87   2.054   0.543   0.402  0.2329  0.6519  2.3262
   30SOL     OW   88   0.212   2.002   0.900 -0.2544 -0.3071  0.1226
   30SOL    HW1   89   0.204   2.009   0.798 -1.0275 -0.8792 -1.0437
   30SOL    HW2   90   0.138   2.050   0.946  1.5887  1.1490  2.6072
   31SOL     OW   91   2.110   3.071   2.324  0.1992 -0.4948  0.1949
   31SOL    HW1   92   2.079   3.082   2.423 -0.9400  1.7767 -0.7833
   31SOL    HW2   93   2.050   2.996   2.280 -0.4407  2.1449 -2.5932
   32SOL     OW   94   2.962   0.121   0.238  0.2809 -0.6323 -0.7372
   32SOL    HW1   95   2.912   0.067   0.315 -2.0486 -0.6575 -0.0654
   32SOL    HW2   96   3.042   0.175   0.266 -1.7781  2.4053  0.5957
   33SOL     OW   97   0.943   0.314   0.608  0.1497 -0.2023  0.4829
   33SOL    HW1   98   0.935   0.225   0.550 -0.5675 -1.9503 -0.5881
   33SOL    HW2   99   1.042   0.342   0.639  0.1373 -1.5296 -2.5848
   34SOL     OW  100   0.315   2.816   1.093  0.0492 -0.4284  0.1990
   34SOL    HW1  101   0.268   2.771   1.014  1.5301 -2.9750  1.8607
   34SOL    HW2  102   0.416   2.844   1.075  2.6628 -1.2887  0.6110
   35SOL     OW  103   0.014   0.183   1.849  0.5111 -0.8022  0.4995
   35SOL    HW1  104   0.048   0.082   1.857  0.9591 -0.2533 -0.3833
   35SOL    HW2  105  -0.036   0.197   1.757  2.3184  1.0205  0.3616
   36SOL     OW  106   1.959   1.151   1.783 -0.2399  0.0337 -0.9805
   36SOL    HW1  107   2.028   1.135   1.702  1.4674  3.3310 -1.6850
   36SOL    HW2  108   1.996   1.209   1.860  0.2251  3.7897  2.0885
   37SOL     OW  109   1.196   0.156   0.891  0.2487  0.0395  0.3661
   37SOL    HW1  110   1.203   0.169   0.993  0.8689  0.5490  0.0076
   37SOL    HW2  111   1.268   0.096   0.855  0.6814  1.1933  0.5531
   38SOL     OW  112   1.110   2.814   2.444 -0.4656  0.4461  0.5229
   38SOL    HW1  113   1.039   2.737   2.470 -0.0486 -1.0810 -0.5822
   38SOL    HW2  114   1.063   2.894   2.407 -1.7156 -0.3669  0.2764
   39SOL     OW  115   2.310   1.415   3.034  0.1587 -0.2362 -0.4824
   39SOL    HW1  116   2.345   1.323   3.013 -0.9549  1.0851 -0.5483
   39SOL    HW2  117   2.317   1.429   3.135  0.5665 -3.1449  0.2197
   40SOL     OW  118   2.083   2.492   2.562  0.0591 -0.1364 -0.0654
   40SOL    HW1  119   2.048   2.587   2.583  3.6992 -0.6272  0.4912
   40SOL    HW2  120   2.016   2.418   2.539 -0.2203  1.2695 -1.9691
   41SOL     OW  121   2.998   0.682   2.806 -0.4335  0.5714  0.1234
   41SOL    HW1  122   2.921   0.742   2.773  0.7333 -0.6393 -0.9463
   41SOL    HW2  123   2.986   0.584   2.786  5.4307  3.1479  3.1842
   42SOL     OW  124   1.757   1.752   0.527 -0.1877  0.1044 -0.0038
   42SOL    HW1  125   1.750   1.646   0.522 -1.3614 -1.4863 -1.1042
   42SOL    HW2  126   1.779   1.794   0.432 -0.7748  0.3850  1.0905
   43SOL     OW  127   0.481   1.691   1.085 -0.3212  0.1158 -0.1168
   43SOL    HW1  128   0.476   1.625   1.171  0.3865 -0.1527  3.5379
   43SOL    HW2  129   0.391   1.712   1.040 -0.8151 -1.6641 -1.2799
   44SOL     OW  130   1.840   2.485   3.059 -0.2018  0.2944  0.0612
   44SOL    HW1  131   1.821   2.582   3.020  2.0708  3.5722  0.7945
   44SOL    HW2  132   1.909   2.496   3.141  4.5520 -3.0410 -0.2128
   45SOL     OW  133   0.387   1.955   2.588  0.5129 -0.3009 -0.0947
   45SOL    HW1  134   0.315   1.941   2.514  1.8560 -1.5912 -1.1304
   45SOL    HW2  135   0.446   1.873   2.585 -2.6667  0.7071 -0.5898
   46SOL     OW  136   1.256   0.686   0.221 -0.0143  0.1878 -0.2025
   46SOL    HW1  137   1.250   0.747   0.140 -2.5424 -0.3921 -1.1404
   46SOL    HW2  138   1.171   0.678   0.278  2.8995  3.3963  1.6180
   47SOL     OW  139   0.221   2.477   1.604  0.3951 -0.2601 -0.5401
   47SOL    HW1  140   0.188   2.379   1.599 -2.8196  4.7474 -0.6888
   47SOL    HW2  141   0.216   2.528   1.510  0.0653  1.2687 -0.4496
   48SOL     OW  142   2.608   0.624   0.123  0.6543  0.3584  0.1095
   48SOL    HW1  143   2.597   0.619   0.227  1.2267  1.0138  4.4141
   48SOL    HW2  144   2.693   0.675   0.095 -1.3425 -0.1068 -2.5792
   49SOL     OW  145   0.334   0.772   1.700 -0.4235  0.5196  0.0507
   49SOL    HW1  146   0.413   0.779   1.772  1.0802 -1.9259 -0.0775
   49SOL    HW2  147   0.357   0.694   1.630 -1.7157 -0.7114 -0.7699
   50SOL     OW  148   1.675   1.102   0.277  0.4134 -0.3004 -0.2167
   50SOL    HW1  149   1.705   1.003   0.252  2.7375 -3.5777 -1.2066
   50SOL    HW2  150   1.619   1.109   0.362  0.0997 -0.7485  2.1890
   51SOL     OW  151   2.898   1.872   0.343  0.2230  0.3638 -0.7045
   51SOL    HW1  152   2.863   1.820   0.265 -0.0478  0.4153  1.1398
   51SOL    HW2  153   2.978   1.824   0.389 -0.7858  2.6023 -0.9154
   52SOL     OW  154   0.790   2.014   0.479 -0.2191 -0.0640 -0.0070
   52SOL    HW1  155   0.707   2.055   0.522 -1.6151  1.2334  0.1362
   52SOL    HW2  156   0.832   1.946   0.549  2.3728  0.0591  1.0496
   53SOL     OW  157   0.178   0.424   1.595  0.7443 -0.0654  0.3348
   53SOL    HW1  158   0.259   0.482   1.559  2.7902 -1.5258 -5.6166
   53SOL    HW2  159   0.087   0.461   1.559 -1.3565 -0.3340  0.3899
   54SOL     OW  160   1.783   0.469   3.062 -0.1832  0.2980 -0.0134
   54SOL    HW1  161   1.836   0.419   3.135  0.0185  1.9011  0.1833
   54SOL    HW2  162   1.677   0.462   3.064 -2.0441  0.1884  0.0540
   55SOL     OW  163   0.768   2.900   0.688  0.1405  0.1649 -0.1748
   55SOL    HW1  164   0.744   2.998   0.713  3.2808  3.3696 -0.9561
   55SOL    HW2  165   0.871   2.901   0.673  1.1344 -0.2019 -1.0895
   56SOL     OW  166   0.456   1.603   0.028  0.4382  0.0814  0.2489
   56SOL    HW1  167   0.357   1.644   0.033  2.4019 -1.2890  0.6185
   56SOL    HW2  168   0.459   1.520  -0.026 -0.3196 -0.2114  1.2864
   57SOL     OW  169   1.760   2.527   2.558 -0.8255 -0.2411 -0.2754
   57SOL    HW1  170   1.791   2.431   2.525  1.2837  0.4862  0.2634
   57SOL    HW2  171   1.665   2.522   2.585 -1.7065  2.3132 -2.3426
   58SOL     OW  172   0.640   0.310   1.033 -0.1527 -0.2009  0.0878
   58SOL    HW1  173   0.566   0.384   1.031 -3.2266  1.7962 -0.9983
   58SOL    HW2  174   0.598   0.214   1.047  3.7895 -2.4695 -1.4254
   59SOL     OW  175   0.446   2.418   2.763  0.6047  0.1616 -0.8048
   59SOL    HW1  176   0.469   2.322   2.721  1.3415  1.3978  1.2742
   59SOL    HW2  177   0.504   2.437   2.844 -1.6023 -2.6530 -0.5054
   60SOL     OW  178   2.289   2.050   2.193 -0.0900  0.1208 -0.2490
   60SOL    HW1  179   2.390   2.056   2.154  2.2829  0.3727  0.6399
   60SOL    HW2  180   2.290   2.069   2.301  1.9541  3.4608  3.1214
   61SOL     OW  181   1.329   0.630   0.474  0.0040  0.2730  0.8570
   61SOL    HW1  182   1.258   0.695   0.520  0.8467  0.2339  1.8526
   61SOL    HW2  183   1.332   0.639   0.367  1.0413  1.9501  1.2063
   62SOL     OW  184   2.771   1.802   2.913  0.1525  0.3306 -0.2138
   62SOL    HW1  185   2.748   1.711   2.946  1.7384  0.7319 -0.1192
   62SOL    HW2  186   2.854   1.795   2.847  2.5995 -0.1154  1.6206
   63SOL     OW  187   0.623   0.910   0.172  0.0178  0.3330  0.0980
   63SOL    HW1  188   0.668   0.980   0.106 -0.3566  0.2862 -0.3057
   63SOL    HW2  189   0.698   0.880   0.240 -0.6352  2.5762  0.3352
   64SOL     OW  190   0.143   0.524   2.479 -0.1702 -0.6738 -0.3867
   64SOL    HW1  191   0.159   0.518   2.577 -0.0201 -0.1143 -1.5377
   64SOL    HW2  192   0.131   0.619   2.436 -0.8613  0.8854 -0.0273
   65SOL     OW  193   0.199   1.488   0.554  0.1167  0.2044  0.2548
   65SOL    HW1  194   0.235   1.573   0.608 -1.7612 -0.0014  4.8159
   65SOL    HW2  195   0.273   1.450   0.490 -1.6783  0.5936 -2.8358
   66SOL     OW  196   2.542   0.386   0.577  0.0369  0.2190  0.4494
   66SOL    HW1  197   2.624   0.441   0.605  1.8950 -0.5664 -1.1063
   66SOL    HW2  198   2.530   0.294   0.630 -0.5301 -1.9629  0.2390
   67SOL     OW  199   0.529   2.539   1.365 -0.0367  0.2641  0.0602
   67SOL    HW1  200   0.581   2.536   1.454 -0.2952 -0.9673 -0.7139
   67SOL    HW2  201   0.451   2.472   1.350  1.5792 -0.3745  2.1647
   68SOL     OW  202   1.001   1.109   2.443 -0.0668 -0.6132  0.2073
   68SOL    HW1  203   1.052   1.018   2.435  0.7815  0.5865  0.2273
   68SOL    HW2  204   0.923   1.130   2.375 -0.1089  0.5718  0.7408
   69SOL     OW  205   0.746   2.782   2.183  0.0273  0.4259 -0.8124
   69SOL    HW1  206   0.740   2.677   2.173  1.3222 -2.1463  1.7090
   69SOL    HW2  207   0.653   2.827   2.183  2.6173  0.6057 -1.3199
   70SOL     OW  208   0.557   0.328   2.691 -0.2508  0.4935 -0.8035
   70SOL    HW1  209   0.525   0.348   2.790 -2.5484 -1.0099  0.3773
   70SOL    HW2  210   0.576   0.224   2.676  1.3140  0.2991  2.2522
   71SOL     OW  211   1.069   1.719   0.367  0.1747  0.3098  0.3457
   71SOL    HW1  212   0.996   1.644   0.397 -1.6338  0.7123 -0.4654
   71SOL    HW2  213   1.057   1.756   0.272  0.8998 -0.2388  1.1073
   72SOL     OW  214   1.811   0.178   2.125  0.2079 -0.3470 -0.2083
   72SOL    HW1  215   1.903   0.217   2.146  2.3565 -0.7987  2.4694
   72SOL    HW2  216   1.821   0.074   2.103  0.1785 -0.3740 -1.4635
   73SOL     OW  217   2.835   2.162   2.423 -0.3359  0.3728 -0.4546
   73SOL    HW1  218   2.770   2.086   2.404  1.0785  3.4036  2.7202
   73SOL    HW2  219   2.849   2.174   2.533 -2.9224  1.9851  2.3435
   74SOL     OW  220   2.721   2.897   2.097  0.4013  0.0435 -0.1461
   74SOL    HW1  221   2.651   2.903   2.170 -0.8334 -0.2193  1.7043
   74SOL    HW2  222   2.814   2.923   2.128  0.4210 -2.1724 -0.0286
   75SOL     OW  223   0.906   0.753   1.092 -0.2097 -0.0694 -0.0225
   75SOL    HW1  224   0.829   0.801   1.048 -1.2772  0.2111  3.1651
   75SOL    HW2  225   0.947   0.817   1.159 -1.6768 -0.4970 -1.2486
   76SOL     OW  226   1.682   1.252   2.513  0.4770 -0.0847 -0.3185
   76SOL    HW1  227   1.590   1.208   2.495  1.4039 -3.2842 -1.8381
   76SOL    HW2  228   1.678   1.345   2.557  2.2146 -3.6427 -1.7362
   77SOL     OW  229   2.989   0.914   0.976  0.1729  0.0271 -0.0694
   77SOL    HW1  230   2.985   0.816   0.944  2.5335 -0.7145  1.1812
   77SOL    HW2  231   3.039   0.923   1.069  1.5892 -1.2236  2.6931
   78SOL     OW  232   2.095   1.412   1.538  0.1097  1.0302  0.4159
   78SOL    HW1  233   2.182   1.429   1.479  0.2804 -2.2892 -0.9111
   78SOL    HW2  234   2.010   1.457   1.504  1.1121 -0.5040 -1.0610
   79SOL     OW  235   0.630   1.311   0.876 -0.6110  0.6432 -0.0280
   79SOL    HW1  236   0.527   1.335   0.882 -0.4560  0.9834  1.0043
   79SOL    HW2  237   0.662   1.289   0.781 -2.1989 -1.3319 -1.0045
   80SOL     OW  238   0.627   0.489   1.570 -0.4797 -0.0222 -0.1266
   80SOL    HW1  239   0.682   0.534   1.493  0.1193  0.0169  0.9181
   80SOL    HW2  240   0.668   0.394   1.590  2.2035  0.2481 -0.8747
   81SOL     OW  241   1.039   1.377   2.610  0.1225  0.2225  0.4185
   81SOL    HW1  242   1.049   1.277   2.627 -0.6454 -0.2000 -2.6924
   81SOL    HW2  243   0.954   1.401   2.547 -1.0656 -0.5950  2.1242
   82SOL     OW  244   0.994   2.940   1.488  0.4762  0.1556  0.2885
   82SOL    HW1  245   1.005   3.007   1.411  1.9237  0.6715 -0.3925
   82SOL    HW2  246   0.908   2.883   1.480  1.6559 -2.8220  0.2324
   83SOL     OW  247   2.750   2.499   0.851 -0.1733  0.1936 -0.3563
   83SOL    HW1  248   2.686   2.432   0.800  0.2535 -1.5784 -1.1554
   83SOL    HW2  249   2.720   2.598   0.844  1.1351 -3.3642 -1.7573
   84SOL     OW  250   0.669   3.052   2.343 -0.2796 -0.0054  0.3222
   84SOL    HW1  251   0.601   3.024   2.414 -1.0739  2.9258 -0.2187
   84SOL    HW2  252   0.767   3.005   2.354 -1.0940 -1.3276  0.1785
   85SOL     OW  253   0.315   1.583   1.505 -0.2159  0.3917  0.0695
   85SOL    HW1  254   0.265   1.671   1.533 -0.8027 -0.3635  0.0775
   85SOL    HW2  255   0.366   1.548   1.590  1.8283 -2.6308 -0.0030
   86SOL     OW  256   0.389   0.976   1.505 -0.1579 -0.0379  0.1769
   86SOL    HW1  257   0.363   0.930   1.413  0.9205  3.3213  0.0442
   86SOL    HW2  258   0.371   0.913   1.587 -0.9268 -0.9969 -0.4612
   87SOL     OW  259   1.603   0.665   0.205  0.5030  0.0110  0.2059
   87SOL    HW1  260   1.666   0.749   0.221  1.2926  0.5688  0.4559
   87SOL    HW2  261   1.568   0.655   0.111 -0.8461 -1.7258  2.5514
   88SOL     OW  262   1.604   1.368   0.191  0.3849 -0.0823  0.1403
   88SOL    HW1  263   1.626   1.269   0.218 -1.6072 -1.1842 -0.7169
   88SOL    HW2  264   1.504   1.384   0.218 -0.0382 -2.4687  1.8338
   89SOL     OW  265   0.031   0.419   0.588  0.2941  0.3291  0.0934
   89SOL    HW1  266   0.104   0.341   0.581  0.8610 -0.9383 -1.1293
   89SOL    HW2  267  -0.065   0.383   0.600  1.5402 -0.7751 -2.5781
   90SOL     OW  268   0.893   1.623   0.019  0.0416 -0.0077  0.3625
   90SOL    HW1  269   0.822   1.591   0.087  0.3496 -0.8790 -1.3945
   90SOL    HW2  270   0.868   1.607  -0.083 -0.0059  1.3178 -0.8255
   91SOL     OW  271   1.228   1.452   1.762 -0.3179 -0.2108 -0.2484
   91SOL    HW1  272   1.215   1.530   1.825  1.6460  1.5258 -2.0658
   91SOL    HW2  273   1.320   1.409   1.767 -0.6890  2.4010 -0.0806
   92SOL     OW  274   0.043   0.962   1.196  0.0058  0.8079  0.0174
   92SOL    HW1  275   0.064   1.057   1.154  1.2940  1.5286  0.3741
   92SOL    HW2  276   0.032   0.970   1.297  0.5080 -1.1273 -1.0387
   93SOL     OW  277   0.030   2.746   3.094 -0.3545  0.0043  0.0135
   93SOL    HW1  278  -0.035   2.771   3.013 -1.3851 -1.0575 -2.5702
   93SOL    HW2  279   0.033   2.646   3.129  2.7794 -0.2212  2.2458
   94SOL     OW  280   1.520   1.435   1.754  0.0906  0.5359 -0.0316
   94SOL    HW1  281   1.589   1.355   1.745 -1.6867 -0.6512  0.5226
   94SOL    HW2  282   1.539   1.502   1.832 -1.2896 -0.1182  3.5174
   95SOL     OW  283   1.395   2.512   3.031 -0.4366  0.7259 -0.1081
   95SOL    HW1  284   1.295   2.511   3.067  1.2279  0.3919  2.0551
   95SOL    HW2  285   1.410   2.428   2.974 -0.9453 -0.1888  0.8577
   96SOL     OW  286   0.542   2.087   1.318 -0.6173  0.0458 -0.7411
   96SOL    HW1  287   0.493   2.037   1.241 -1.9261 -2.1532 -1.1066
   96SOL    HW2  288   0.608   2.028   1.370 -0.2019 -0.1443 -1.8327
   97SOL     OW  289   0.384   1.654   2.451 -0.0281  0.1181 -0.0210
   97SOL    HW1  290   0.298   1.707   2.437  0.2588  0.4792 -2.4281
   97SOL    HW2  291   0.411   1.644   2.554 -1.2748  0.2741  2.1661
   98SOL     OW  292   1.970   1.594   1.234  0.5292  0.4314  0.0706
   98SOL    HW1  293   1.883   1.568   1.288 -1.5971  0.9810  0.4921
   98SOL    HW2  294   1.983   1.535   1.150  0.8938  0.2621  0.9157
   99SOL     OW  295   2.451   2.106   1.399 -0.2359 -0.5834  0.1546
   99SOL    HW1  296   2.486   2.116   1.496 -0.4011 -0.1452  1.4824
   99SOL    HW2  297   2.432   2.008   1.371  1.6888 -0.7622 -2.9343
  100SOL     OW  298   2.327   0.316   2.088  0.1309 -0.3352  0.2454
  100SOL    HW1  299   2.268   0.299   2.175  1.4050  1.5816 -0.8999
  100SOL    HW2  300   2.394   0.392   2.105  1.6114 -2.9753  2.1273
  101SOL     OW  301   0.345   1.512   0.277  0.0925 -0.5000  0.5427
  101SOL    HW1  302   0.407   1.508   0.365  1.8096 -2.0138 -0.1164
  101SOL    HW2  303   0.357   1.603   0.225  0.6930  0.1892  2.0504
  102SOL     OW  304   2.282   0.996   0.867  0.0333  0.6360 -0.3903
  102SOL    HW1  305   2.207   0.932   0.827 -3.7889 -1.1242 -0.2222
  102SOL    HW2  306   2.293   1.081   0.812  0.4091 -0.0785  1.2442
  103SOL     OW  307   2.287   0.032   0.396 -0.3377  0.0548  0.1305
  103SOL    HW1  308   2.314   0.130   0.389  2.0552 -1.7578  1.3806
  103SOL    HW2  309   2.370  -0.031   0.416  2.1521 -0.9489  0.4885
  104SOL     OW  310   0.121   1.783   2.179  0.1285 -0.2186 -0.1051
  104SOL    HW1  311   0.167   1.763   2.086  4.6983 -0.1911 -0.3296
  104SOL    HW2  312   0.020   1.759   2.187  1.5356  1.6163  1.2860
  105SOL     OW  313   1.264   2.123   0.791 -0.2267  0.1679  0.2527
  105SOL    HW1  314   1.192   2.139   0.717 -1.3153 -0.5319  0.2961
  105SOL    HW2  315   1.284   2.020   0.805 -0.5325 -0.6281  1.8603
  106SOL     OW  316   2.157   0.456   1.426  0.0665 -0.9085  0.2834
  106SOL    HW1  317   2.103   0.366   1.421 -2.0253  0.6395 -1.9887
  106SOL    HW2  318   2.132   0.509   1.514 -0.0982 -2.2521  0.3480
  107SOL     OW  319   1.739   3.046   1.154  0.0133  0.7291 -0.0352
  107SOL    HW1  320   1.807   3.121   1.182  0.4728 -1.0671 -0.1207
  107SOL    HW2  321   1.682   3.012   1.232 -0.7446  0.7605 -1.4979
  108SOL     OW  322   0.804   2.783   1.194 -0.0824 -0.2639 -0.0434
  108SOL    HW1  323   0.774   2.769   1.294 -1.4964  0.4321  1.0761
  108SOL    HW2  324   0.907   2.782   1.180 -0.2200  0.9244  1.8403
  109SOL     OW  325   2.218   0.117   0.733 -0.9624  0.3763 -0.5714
  109SOL    HW1  326   2.114   0.115   0.726 -0.7333 -0.0104 -0.0956
  109SOL    HW2  327   2.249   0.081   0.828  2.7569  2.1380 -0.7063
  110SOL     OW  328   0.458   2.860   2.768  0.5196  0.2160  0.2022
  110SOL    HW1  329   0.452   2.869   2.668  1.0456 -0.9430  1.0699
  110SOL    HW2  330   0.530   2.790   2.798  0.6698 -1.6670  1.2717
  111SOL     OW  331   1.309   0.521   2.307 -0.2614  0.6629  0.4877
  111SOL    HW1  332   1.226   0.566   2.356 -0.8020  1.4748  0.8374
  111SOL    HW2  333   1.352   0.440   2.359 -0.7505  0.5142 -1.5182
  112SOL     OW  334   1.709   0.562   1.492  0.4617  0.3691  0.1555
  112SOL    HW1  335   1.715   0.532   1.395  1.1463 -0.2505 -1.4569
  112SOL    HW2  336   1.697   0.476   1.551 -1.1715 -0.8767 -0.1468
  113SOL     OW  337   2.247   1.673   1.768  0.1428  0.1423 -0.1986
  113SOL    HW1  338   2.310   1.600   1.733  0.3084  2.0590 -0.1498
  113SOL    HW2  339   2.262   1.700   1.867  0.0879 -0.8333  0.9114
  114SOL     OW  340   0.367   0.526   1.249 -0.1989  0.3403  0.4729
  114SOL    HW1  341   0.411   0.605   1.200  1.4356 -0.1223  0.8792
  114SOL    HW2  342   0.268   0.511   1.224 -1.5673  2.8580 -0.3769
  115SOL     OW  343   2.802   1.594   1.291 -0.2494 -0.2328 -0.3895
  115SOL    HW1  344   2.792   1.491   1.298 -3.0896  0.0984  0.9543
  115SOL    HW2  345   2.834   1.627   1.197 -0.1830 -2.8875  1.5436
  116SOL     OW  346   1.845   1.055   0.710  0.3868 -0.0883  0.5710
  116SOL    HW1  347   1.759   1.032   0.655 -0.9054  1.6587  1.1552
  116SOL    HW2  348   1.830   1.140   0.773 -0.0966  2.4223 -0.1232
  117SOL     OW  349   1.184   0.423   0.655 -0.1851  0.0785 -1.1709
  117SOL    HW1  350   1.235   0.437   0.749  2.2475  0.4499  1.0610
  117SOL    HW2  351   1.242   0.465   0.584 -0.2856  0.1823 -0.8038
  118SOL     OW  352   1.128   1.131   1.081  0.0789 -0.4641 -0.5731
  118SOL    HW1  353   1.092   1.064   1.149 -1.4267  0.6338  1.8908
  118SOL    HW2  354   1.146   1.226   1.134 -1.7587 -0.7545  0.2413
  119SOL     OW  355   1.819   1.621   2.153 -0.2367 -0.1366  0.3055
  119SOL    HW1  356   1.802   1.712   2.192 -0.3239  0.3193  0.2288
  119SOL    HW2  357   1.921   1.609   2.138 -2.7809  1.7262  0.4173
  120SOL     OW  358   2.928   2.825   0.167  0.6497  0.5826 -0.5535
  120SOL    HW1  359   3.014   2.802   0.118 -1.4095 -0.0411 -1.3706
  120SOL    HW2  360   2.846   2.770   0.121 -1.1665  0.6555 -1.3337
  121SOL     OW  361   2.012   0.761   2.305 -0.1352  0.0951 -0.1816
  121SOL    HW1  362   2.044   0.819   2.224 -2.8093 -1.2365 -0.3702
  121SOL    HW2  363   2.006   0.659   2.288  0.7445 -0.7169 -0.5377
  122SOL     OW  364   2.629   2.698   1.219 -0.0873 -0.2573 -0.1349
  122SOL    HW1  365   2.682   2.616   1.186  0.7511  0.4848 -0.4100
  122SOL    HW2  366   2.573   2.742   1.148  2.0142 -2.0026  2.2281
  123SOL     OW  367   1.772   0.084   1.693  0.0176  0.4419  0.4946
  123SOL    HW1  368   1.793  -0.014   1.662  0.2211  2.4922 -0.2135
  123SOL    HW2  369   1.845   0.129   1.749 -0.2467  1.2541 -0.5669
  124SOL     OW  370   0.121   0.439   1.076 -0.0049  0.6083  0.4893
  124SOL    HW1  371   0.101   0.516   1.133  1.2667  0.1045 -3.5947
  124SOL    HW2  372   0.098   0.467   0.977 -1.0556 -3.0308  0.4566
  125SOL     OW  373   0.841   1.853   0.697  0.1766  0.0346  0.1614
  125SOL    HW1  374   0.918   1.798   0.740  2.9098 -0.6965  0.3473
  125SOL    HW2  375   0.782   1.908   0.765 -1.0442  0.7084  0.6010
  126SOL     OW  376   1.884   2.291   2.475 -0.4926 -0.0101 -0.3594
  126SOL    HW1  377   1.955   2.272   2.404  0.3543 -0.9336  1.4999
  126SOL    HW2  378   1.842   2.205   2.516  0.1844 -0.4211  1.1135
  127SOL     OW  379   0.888   0.882   0.284  0.6440  0.5651 -0.2120
  127SOL    HW1  380   0.937   0.940   0.352  0.8685 -0.2734  0.1449
  127SOL    HW2  381   0.909   0.780   0.292 -1.1698  1.7722  0.3860
  128SOL     OW  382   0.931   0.260   1.397 -0.7025  0.2704  0.2256
  128SOL    HW1  383   0.899   0.344   1.341 -0.5418 -2.6120  1.4879
  128SOL    HW2  384   0.888   0.169   1.355 -0.0770 -2.6436  0.5425
  129SOL     OW  385   1.813   0.720   1.897 -0.2203 -0.1760  0.1407
  129SOL    HW1  386   1.817   0.724   1.790 -0.1281  0.1553 -0.2316
  129SOL    HW2  387   1.856   0.803   1.929 -1.1901  1.0871 -0.2239
  130SOL     OW  388   1.369   2.197   1.028 -0.2570  0.3669 -0.1184
  130SOL    HW1  389   1.332   2.180   0.931 -3.0639  1.9424 -1.1990
  130SOL    HW2  390   1.448   2.268   1.031  1.3745 -1.0383  1.3371
  131SOL     OW  391   3.032   1.415   1.355 -0.4568  0.2570 -0.2954
  131SOL    HW1  392   2.971   1.327   1.359 -1.6193 -1.4271  0.9345
  131SOL    HW2  393   3.135   1.402   1.336  2.0893 -1.9076  2.1811
  132SOL     OW  394   2.054   2.438   0.535 -0.1697  0.2384 -0.8974
  132SOL    HW1  395   1.953   2.464   0.536  2.1053  2.8302  1.4400
  132SOL    HW2  396   2.078   2.369   0.605  0.3056 -0.7103  0.0013
  133SOL     OW  397   1.891   2.318   2.796  0.1398  0.2157  0.6767
  133SOL    HW1  398   1.888   2.359   2.895 -3.0223  3.3588  0.2961
  133SOL    HW2  399   1.883   2.389   2.722  1.4025  0.6120  1.3934
  134SOL     OW  400   2.694   2.326   1.679 -0.4105  0.1820  0.1633
  134SOL    HW1  401   2.634   2.307   1.763  0.8078 -0.2656  2.7958
  134SOL    HW2  402   2.736   2.423   1.674  1.3411  0.0387 -2.3481
  135SOL     OW  403   0.702   1.476   2.663  0.0283 -0.4651 -0.8301
  135SOL    HW1  404   0.693   1.380   2.712 -0.6258  0.8520 -1.1699
  135SOL    HW2  405   0.738   1.468   2.571 -0.9119 -0.4753  2.6960
  136SOL     OW  406   1.203   1.965   0.431  0.5189  0.2534 -0.2985
  136SOL    HW1  407   1.167   2.021   0.512  1.9095  1.6550  0.6572
  136SOL    HW2  408   1.150   1.876   0.423 -0.0740 -1.6519 -1.7685
  137SOL     OW  409   0.432   1.137   2.143  0.1426 -0.3501  0.1205
  137SOL    HW1  410   0.332   1.155   2.174 -0.3961 -0.2104  0.8513
  137SOL    HW2  411   0.474   1.052   2.190  0.7117  1.9697  0.4755
  138SOL     OW  412   2.427   1.510   0.269 -1.0226  0.5159 -0.3028
  138SOL    HW1  413   2.349   1.443   0.252 -1.3963  0.7152  0.0504
  138SOL    HW2  414   2.504   1.457   0.314 -1.5938  1.4337 -1.7098
  139SOL     OW  415   1.866   2.631   1.299  0.1976 -0.3236 -0.4382
  139SOL    HW1  416   1.767   2.635   1.257 -4.3172  0.1260 -0.9777
  139SOL    HW2  417   1.895   2.531   1.327 -0.0707 -0.2823  2.1260
  140SOL     OW  418   3.013   2.942   2.571 -0.0980  0.6483 -0.6357
  140SOL    HW1  419   3.062   2.852   2.592 -3.1207  0.7723 -1.9933
  140SOL    HW2  420   3.082   3.022   2.569  0.5431 -1.4077 -1.2868
  141SOL     OW  421   1.321   1.697   1.635  0.1745 -0.3746  0.1775
  141SOL    HW1  422   1.224   1.734   1.645  0.4460 -1.0721 -1.2518
  141SOL    HW2  423   1.351   1.631   1.712  0.1643 -1.1402  0.5541
  142SOL     OW  424   1.573   0.578   2.233  0.1929  0.0752 -0.0534
  142SOL    HW1  425   1.592   0.588   2.131  1.7404 -0.3118  1.4104
  142SOL    HW2  426   1.473   0.560   2.254 -1.8927  0.5595  0.4464
  143SOL     OW  427   2.746   0.902   0.481  0.3986  0.3045  0.1065
  143SOL    HW1  428   2.781   0.966   0.404 -1.0842 -0.4922 -0.4332
  143SOL    HW2  429   2.775   0.935   0.576  0.0659 -2.2523  0.4736
  144SOL     OW  430   2.911   1.189   1.474 -0.1195  0.2484 -0.0726
  144SOL    HW1  431   2.854   1.163   1.557  0.8597 -0.3716  2.5399
  144SOL    HW2  432   3.003   1.147   1.484 -0.2480 -1.7034  0.0983
  145SOL     OW  433   1.031   1.871   0.112  0.2675 -0.5150  0.9030
  145SOL    HW1  434   1.062   1.941   0.040  1.1093  0.2749  0.9419
  145SOL    HW2  435   0.995   1.782   0.072 -1.3514 -1.9926  1.2976
  146SOL     OW  436   2.485   0.672   1.503  0.6056  0.0564 -0.0011
  146SOL    HW1  437   2.466   0.594   1.436 -0.0617 -2.1096  2.9330
  146SOL    HW2  438   2.457   0.765   1.473 -1.2369  2.2484  0.9522
  147SOL     OW  439   1.138   2.477   0.623 -0.2490 -0.1982 -0.2249
  147SOL    HW1  440   1.082   2.525   0.551 -2.5360  0.2367  3.2655
  147SOL    HW2  441   1.223   2.427   0.589 -1.7709  2.0706  2.7648
  148SOL     OW  442   1.679   1.458   3.051  0.2338  0.0794 -0.4370
  148SOL    HW1  443   1.669   1.366   3.003  0.9338 -0.2799 -2.1815
  148SOL    HW2  444   1.645   1.452   3.150  1.6191  2.1810  0.9066
  149SOL     OW  445   0.691   1.425   1.970  0.1026  0.1452 -0.1800
  149SOL    HW1  446   0.591   1.410   1.993 -0.5609 -2.3467 -1.7365
  149SOL    HW2  447   0.725   1.372   1.887  2.7821 -1.7205  0.5637
  150SOL     OW  448   3.041   1.266   0.963 -0.1008 -0.1871 -0.4827
  150SOL    HW1  449   3.110   1.271   1.043  1.9536 -1.7595 -1.2293
  150SOL    HW2  450   2.989   1.177   0.962 -0.5390 -0.2305  1.5718
  151SOL     OW  451   0.239   0.730   2.131 -0.0937 -0.3275  0.2249
  151SOL    HW1  452   0.210   0.801   2.065  0.3549 -0.9944  1.1737
  151SOL    HW2  453   0.242   0.637   2.088 -0.3342  2.0520 -0.9812
  152SOL     OW  454   1.401   1.758   1.281  0.3520 -0.0441  0.1129
  152SOL    HW1  455   1.374   1.842   1.336  0.9598 -0.3720 -0.6850
  152SOL    HW2  456   1.323   1.722   1.229  0.0336  0.3660  1.3996
  153SOL     OW  457   3.081   1.521   0.166  0.4168 -0.3299 -0.2405
  153SOL    HW1  458   3.095   1.418   0.182 -0.8109 -0.3149  0.8255
  153SOL    HW2  459   3.100   1.582   0.250  1.3968 -0.4054  0.7052
  154SOL     OW  460   2.370   1.868   2.739 -0.2428  0.1814  0.3342
  154SOL    HW1  461   2.365   1.768   2.766  1.5258 -0.8001  1.5353
  154SOL    HW2  462   2.460   1.899   2.700  0.9189  0.9832  0.8717
  155SOL     OW  463   2.430   1.220   0.391  0.3307 -0.2479  0.2878
  155SOL    HW1  464   2.503   1.212   0.316 -2.7344  0.3236  1.0358
  155SOL    HW2  465   2.335   1.193   0.359  1.4742 -0.6462  0.1991
  156SOL     OW  466   2.557   0.965   0.869 -0.4455  0.0879 -0.0769
  156SOL    HW1  467   2.449   0.948   0.866 -2.6340  0.3565  1.3043
  156SOL    HW2  468   2.580   1.062   0.838 -0.5701 -1.0470 -1.2740
  157SOL     OW  469   1.293   2.957   3.062  0.2269 -0.1655 -0.5475
  157SOL    HW1  470   1.348   2.943   2.976 -1.8812 -0.3483 -0.2748
  157SOL    HW2  471   1.261   3.053   3.085  0.5494 -3.8174  1.4441
  158SOL     OW  472   1.038   1.846   1.922  0.3351 -0.4685 -0.1994
  158SOL    HW1  473   1.063   1.945   1.887 -0.5653 -0.3143 -2.4512
  158SOL    HW2  474   0.953   1.856   1.982 -1.1555  1.0006 -1.9089
  159SOL     OW  475   0.818   0.433   1.219  0.3744  0.3330 -0.0267
  159SOL    HW1  476   0.784   0.531   1.246 -0.2677  1.7267 -0.9756
  159SOL    HW2  477   0.757   0.383   1.154 -0.4222 -1.4135 -0.6824
  160SOL     OW  478   1.395   2.326   1.608  0.1542 -0.1514 -0.5076
  160SOL    HW1  479   1.385   2.339   1.709 -1.8068 -0.7147 -2.2381
  160SOL    HW2  480   1.483   2.366   1.566  1.2209 -0.0637  0.5081
  161SOL     OW  481   0.074   2.932   0.297  0.1187  0.1438 -0.0241
  161SOL    HW1  482  -0.021   2.890   0.290 -1.8570  0.3989  1.6057
  161SOL    HW2  483   0.107   2.988   0.220 -0.0827 -1.2504  4.2195
  162SOL     OW  484   2.503   1.910   0.469 -0.8194 -0.0958  0.1512
  162SOL    HW1  485   2.516   1.878   0.371 -1.6008  2.0664 -3.0731
  162SOL    HW2  486   2.509   1.837   0.549 -0.0672 -3.3039  0.9509
  163SOL     OW  487   1.893   2.786   0.735 -0.7444  0.8762 -0.4952
  163SOL    HW1  488   1.890   2.790   0.634 -0.3465  0.5014  0.1564
  163SOL    HW2  489   1.971   2.727   0.769  0.5048  2.6288  1.1583
  164SOL     OW  490   3.085   0.221   1.175  0.1472  0.3348 -0.0781
  164SOL    HW1  491   3.130   0.299   1.125  0.2659 -3.6620  0.2168
  164SOL    HW2  492   3.145   0.196   1.253 -0.9379  1.6450 -0.1406
  165SOL     OW  493   0.932   1.415   0.710  0.1309  0.4440  0.5902
  165SOL    HW1  494   0.939   1.482   0.788  0.8334 -3.6388  3.2779
  165SOL    HW2  495   0.892   1.464   0.622  0.1516  0.1037 -1.2673
  166SOL     OW  496   1.493   1.098   1.739 -0.0222 -0.0603 -0.5582
  166SOL    HW1  497   1.419   1.093   1.810  0.2147  2.4834 -0.0070
  166SOL    HW2  498   1.583   1.112   1.787  0.9924 -1.5858  0.7755
  167SOL     OW  499   0.721   1.933   1.439  0.3206 -0.0445 -0.0636
  167SOL    HW1  500   0.746   1.998   1.514 -0.2395  0.2391 -1.2160
  167SOL    HW2  501   0.689   1.837   1.473 -1.7991  1.1737  0.9985
  168SOL     OW  502   1.629   2.380   0.149 -0.4086 -0.2592  0.2227
  168SOL    HW1  503   1.714   2.415   0.096  3.5880 -0.3861  0.5499
  168SOL    HW2  504   1.668   2.328   0.232  0.1541 -0.2775  1.0955
  169SOL     OW  505   0.152   2.563   2.228  0.1351 -0.1576  0.2689
  169SOL    HW1  506   0.165   2.523   2.133 -1.0542  1.0981 -1.9397
  169SOL    HW2  507   0.208   2.507   2.292 -0.0578 -0.8136 -1.5948
  170SOL     OW  508   1.160   0.229   1.998 -0.2471 -0.1321 -0.1598
  170SOL    HW1  509   1.226   0.205   2.073  0.6848 -1.3241 -0.1965
  170SOL    HW2  510   1.156   0.161   1.920 -3.5930  0.4174 -0.7689
  171SOL     OW  511   0.204   0.794   2.420 -0.2818 -0.2273  0.4243
  171SOL    HW1  512   0.134   0.843   2.479  2.2884 -1.3529  0.2110
  171SOL    HW2  513   0.181   0.792   2.318  1.5085 -0.1981  1.7266
  172SOL     OW  514   0.904   1.043   2.911  0.3432  0.1661 -0.0465
  172SOL    HW1  515   0.989   1.095   2.943 -0.0807  0.6787  1.3524
  172SOL    HW2  516   0.894   1.041   2.808  0.7622 -0.2016 -2.1248
  173SOL     OW  517   0.645   2.663   0.086  0.4398  0.5357  0.0340
  173SOL    HW1  518   0.609   2.728   0.014 -2.3449 -0.1033  0.2187
  173SOL    HW2  519   0.567   2.619   0.141 -2.1807 -2.6722  3.3849
  174SOL     OW  520   1.426   2.830   1.095  0.5233  0.7659  0.5018
  174SOL    HW1  521   1.438   2.918   1.043  0.8562 -1.9878 -0.5873
  174SOL    HW2  522   1.410   2.750   1.025  1.7759 -4.0360  0.0305
  175SOL     OW  523   0.382   0.071   1.691  0.2395 -0.5100  0.2726
  175SOL    HW1  524   0.469   0.108   1.732  0.8752 -2.1028  0.0122
  175SOL    HW2  525   0.325   0.138   1.637  0.7624  0.4541  0.5176
  176SOL     OW  526   2.573   0.381   3.089 -0.0261 -0.3266  0.3645
  176SOL    HW1  527   2.590   0.477   3.123  1.6704 -0.3596  0.7557
  176SOL    HW2  528   2.488   0.325   3.131  0.6860  2.6748  2.6335
  177SOL     OW  529   0.357   0.316   0.993 -0.0640  0.4459  0.0350
  177SOL    HW1  530   0.405   0.238   1.039 -1.2634 -2.2564 -0.4430
  177SOL    HW2  531   0.260   0.333   1.021  0.0088 -0.4638  0.1555
  178SOL     OW  532   3.086   2.652   2.645 -0.1826 -0.0444  0.0728
  178SOL    HW1  533   2.994   2.611   2.672 -2.0049  1.6547 -0.4805
  178SOL    HW2  534   3.142   2.686   2.724  0.3074 -0.7775 -1.5818
  179SOL     OW  535   0.017   1.695   1.191 -0.0298 -0.5801 -0.1631
  179SOL    HW1  536  -0.041   1.783   1.199 -0.2258  2.8795  0.7023
  179SOL    HW2  537   0.006   1.621   1.268 -0.4177  0.3475  1.4160
  180SOL     OW  538   0.243   1.191   1.840 -0.2535  0.0516 -0.1311
  180SOL    HW1  539   0.352   1.188   1.834  2.8705  1.5076 -0.9767
  180SOL    HW2  540   0.209   1.255   1.908 -0.0780 -0.0627 -1.2737
  181SOL     OW  541   3.014   1.854   2.493 -0.0169  0.2051  0.0761
  181SOL    HW1  542   3.098   1.918   2.487  1.8326 -0.8357 -1.2127
  181SOL    HW2  543   2.924   1.888   2.447  2.2392 -1.9657 -0.6334
  182SOL     OW  544   2.239   1.308   1.152 -0.2996  0.2173  0.1592
  182SOL    HW1  545   2.169   1.269   1.084  3.5319 -0.0213 -1.8926
  182SOL    HW2  546   2.284   1.393   1.116  0.0427 -1.0185 -0.0822
  183SOL     OW  547   1.518   2.227   2.546  0.3672  0.0104 -0.0435
  183SOL    HW1  548   1.434   2.183   2.580 -0.3744  3.1105 -1.2381
  183SOL    HW2  549   1.595   2.160   2.519 -2.3028  1.3608  0.4911
  184SOL     OW  550   2.044   0.863   0.769 -0.2122 -0.4518  0.2798
  184SOL    HW1  551   1.963   0.928   0.750 -1.4804 -0.2246  0.2452
  184SOL    HW2  552   2.015   0.778   0.821 -0.2645  1.4018  1.6282
  185SOL     OW  553   1.571   2.765   2.104  0.8101 -0.5706  0.1235
  185SOL    HW1  554   1.531   2.852   2.066  1.3499 -0.4577  1.1651
  185SOL    HW2  555   1.559   2.750   2.206  2.0780  2.5021 -1.6772
  186SOL     OW  556   0.106   2.221   1.663  0.1930 -0.0729 -0.0163
  186SOL    HW1  557   0.052   2.274   1.740 -2.8140 -0.1474 -1.0610
  186SOL    HW2  558   0.168   2.141   1.690  2.8053 -0.8787  2.0229
  187SOL     OW  559   1.359   0.750   1.653 -0.7147  0.1882 -0.1898
  187SOL    HW1  560   1.428   0.794   1.587 -1.9905  1.1229  0.5460
  187SOL    HW2  561   1.377   0.769   1.755  0.0767  0.1037 -0.2477
  188SOL     OW  562   2.766   2.772   1.447 -0.5773  0.4320 -0.4143
  188SOL    HW1  563   2.772   2.875   1.427 -0.2545 -0.5857  0.1078
  188SOL    HW2  564   2.721   2.720   1.368  2.3555  1.3514 -2.6713
  189SOL     OW  565   0.870   1.162   1.395  0.8920  1.3235  0.1150
  189SOL    HW1  566   0.947   1.210   1.442  0.4949  0.6679 -1.5568
  189SOL    HW2  567   0.808   1.230   1.355  0.5682 -1.7845  1.4699
  190SOL     OW  568   1.487   1.889   1.564 -0.2862  0.2601 -0.0835
  190SOL    HW1  569   1.427   1.810   1.601  1.4868 -0.0266 -0.3042
  190SOL    HW2  570   1.498   1.961   1.639 -0.1747  1.5423 -0.1962
  191SOL     OW  571   0.968   0.763   1.526  0.6345  0.1332  0.3760
  191SOL    HW1  572   1.029   0.676   1.521  0.9817  0.9539  2.0097
  191SOL    HW2  573   1.022   0.854   1.527  0.1311  0.6345  0.1628
  192SOL     OW  574   1.861   2.232   1.129 -0.1126  0.4465 -0.2431
  192SOL    HW1  575   1.763   2.218   1.097 -0.0275  1.7297 -0.5596
  192SOL    HW2  576   1.917   2.283   1.060 -1.6694  1.4348  1.0763
  193SOL     OW  577   0.537   0.575   0.462  0.5035 -0.0975 -0.0136
  193SOL    HW1  578   0.505   0.492   0.523  2.4899 -1.3380  0.3423
  193SOL    HW2  579   0.574   0.541   0.375  1.0362  0.7939 -0.0132
  194SOL     OW  580   0.316   0.869   1.272  0.5169 -0.0636  0.0230
  194SOL    HW1  581   0.226   0.820   1.266  0.3939 -0.9424  4.3345
  194SOL    HW2  582   0.325   0.942   1.193 -0.5038 -0.6457 -1.7359
  195SOL     OW  583   1.026   2.894   0.566 -0.4279 -0.5416 -0.0259
  195SOL    HW1  584   1.016   2.799   0.521 -0.2270 -1.4535 -0.2951
  195SOL    HW2  585   1.122   2.934   0.542  2.6440  3.6310 -1.1787
  196SOL     OW  586   0.193   1.372   1.374 -0.0234 -0.6935  0.0683
  196SOL    HW1  587   0.237   1.456   1.420 -0.0596  0.0404  0.2358
  196SOL    HW2  588   0.185   1.294   1.442  0.6237  0.1802 -0.9845
  197SOL     OW  589   0.825   2.053   0.214 -0.1740  0.3952 -0.0108
  197SOL    HW1  590   0.820   2.039   0.318  0.8416  2.3062 -0.4360
  197SOL    HW2  591   0.904   1.996   0.174  0.7068  0.0314  1.5926
  198SOL     OW  592   0.321   1.251   0.229  0.0729  0.4322  0.0934
  198SOL    HW1  593   0.214   1.230   0.228  0.5182 -0.1222 -0.5865
  198SOL    HW2  594   0.342   1.353   0.249  0.9818  2.3000  1.8315
  199SOL     OW  595   2.180   0.358   2.558 -0.0174  0.2132 -0.0854
  199SOL    HW1  596   2.114   0.318   2.632 -0.7109  0.2829  0.8247
  199SOL    HW2  597   2.274   0.364   2.592 -1.4142  2.1619 -0.2327
  200SOL     OW  598   0.054   2.920   0.736 -0.1071 -0.1432  0.5072
  200SOL    HW1  599  -0.020   2.859   0.702  1.0639  0.7576  1.2628
  200SOL    HW2  600   0.023   3.010   0.770  1.2395 -0.1709 -2.3464
  201SOL     OW  601   1.114   0.739   0.628  0.6754  0.1332 -0.3284
  201SOL    HW1  602   1.125   0.797   0.713  0.1713  0.2155  0.2574
  201SOL    HW2  603   1.023   0.695   0.615 -0.4962  1.1835  2.2569
  202SOL     OW  604   0.512   1.200   1.807  0.0632 -0.2965 -0.6154
  202SOL    HW1  605   0.520   1.198   1.701 -0.0350 -0.2110  1.9033
  202SOL    HW2  606   0.547   1.121   1.862 -1.1799 -0.2699  2.2786
  203SOL     OW  607   0.700   0.203   1.559  0.4416  0.0708 -0.0952
  203SOL    HW1  608   0.755   0.170   1.477 -0.4711  0.1377  2.0308
  203SOL    HW2  609   0.750   0.189   1.652 -0.8676 -0.0234  0.7027
  204SOL     OW  610   2.059   1.878   2.941 -0.1116 -0.4943 -0.8251
  204SOL    HW1  611   2.056   1.775   2.941  2.9110 -0.0892  1.8922
  204SOL    HW2  612   2.040   1.930   2.849  1.1414  2.6257 -1.5048
  205SOL     OW  613   1.809   1.876   3.099  0.3430 -0.2140 -0.1296
  205SOL    HW1  614   1.895   1.867   3.040  1.0564 -1.2576  2.0740
  205SOL    HW2  615   1.762   1.969   3.085 -1.6548  1.9370  0.5063
  206SOL     OW  616   2.518   2.792   0.329  0.2768  0.7840 -1.0659
  206SOL    HW1  617   2.587   2.714   0.339  1.0242  2.1963 -2.0327
  206SOL    HW2  618   2.551   2.850   0.252 -1.8205 -1.0314 -0.3867
  207SOL     OW  619   0.602   1.789   2.959  0.5434  0.2914  0.1573
  207SOL    HW1  620   0.686   1.733   2.938 -1.9466 -1.1940 -2.2030
  207SOL    HW2  621   0.552   1.760   3.043  1.3474  0.6125 -1.1342
  208SOL     OW  622   1.164   1.578   1.412 -0.6505  0.3120 -0.2566
  208SOL    HW1  623   1.153   1.621   1.321 -0.3005 -2.0306  2.1242
  208SOL    HW2  624   1.251   1.599   1.466 -0.8894  0.8965  1.5748
  209SOL     OW  625   0.270   0.949   3.005 -0.4224 -0.3065  0.3514
  209SOL    HW1  626   0.333   0.913   2.931  2.6243  1.8787  2.3580
  209SOL    HW2  627   0.225   0.874   3.060  0.1368  0.1614  1.9671
  210SOL     OW  628   1.772   0.504   1.215  0.3047  0.6658 -0.4248
  210SOL    HW1  629   1.728   0.583   1.169 -1.4536 -2.8906 -0.7130
  210SOL    HW2  630   1.864   0.481   1.169  1.2224  0.4237 -0.8574
  211SOL     OW  631   2.130   1.056   1.590  0.1656  0.1580 -0.1736
  211SOL    HW1  632   2.203   1.009   1.644  0.0935  0.7564 -0.7440
  211SOL    HW2  633   2.174   1.112   1.515  0.9581  1.6348 -1.6565
  212SOL     OW  634   0.024   0.980   1.480  0.1325 -0.0801 -0.1944
  212SOL    HW1  635   0.091   1.052   1.507 -2.5186 -0.7062  1.0293
  212SOL    HW2  636   0.034   0.888   1.528  3.1967 -0.9016 -0.5768
  213SOL     OW  637   2.776   0.371   0.349  0.4833 -0.6421  0.1692
  213SOL    HW1  638   2.816   0.310   0.278 -1.8134  2.0981  3.3474
  213SOL    HW2  639   2.727   0.443   0.295  2.0644 -1.0182 -0.9334
  214SOL     OW  640   2.160   0.259   2.301  0.1052  0.3189  0.1817
  214SOL    HW1  641   2.181   0.284   2.401  1.9967  1.3289  0.9609
  214SOL    HW2  642   2.155   0.154   2.294 -2.1346 -0.7393  1.8127
  215SOL     OW  643   1.622   2.304   2.083  0.2843 -0.3152  0.5817
  215SOL    HW1  644   1.718   2.326   2.049  0.8223 -0.1181 -0.6430
  215SOL    HW2  645   1.573   2.389   2.111  0.3697 -2.7580 -0.4884
  216SOL     OW  646   2.213   0.624   0.636 -0.1689  0.0247 -0.3174
  216SOL    HW1  647   2.187   0.522   0.620  0.9173 -1.3477  0.5257
  216SOL    HW2  648   2.136   0.687   0.620  0.0108 -3.6803  2.0230
  217SOL     OW  649   0.736   2.768   2.473  0.2689  0.2086 -0.0929
  217SOL    HW1  650   0.743   2.682   2.532 -1.7956  0.4603  0.0328
  217SOL    HW2  651   0.735   2.754   2.368  2.2114 -1.5433 -0.6239
  218SOL     OW  652   1.934   1.462   0.072 -0.4194 -0.1104 -0.1423
  218SOL    HW1  653   1.843   1.485   0.032  3.0985 -0.8144 -0.9128
  218SOL    HW2  654   1.938   1.371   0.126  1.7290  0.4761 -0.8191
  219SOL     OW  655   2.361   1.273   2.553  0.6955 -0.5975 -0.2934
  219SOL    HW1  656   2.412   1.210   2.492 -1.8577 -0.3603  0.1159
  219SOL    HW2  657   2.341   1.230   2.646 -1.5201 -1.1647  1.8728
  220SOL     OW  658   1.518   1.027   1.288 -0.0244  0.2300 -0.6904
  220SOL    HW1  659   1.606   1.048   1.345  2.2521  0.2893 -1.1437
  220SOL    HW2  660   1.506   1.074   1.194 -0.3974 -0.5567 -0.9176
  221SOL     OW  661   1.351   1.015   2.191  0.3958 -0.8560  0.3395
  221SOL    HW1  662   1.287   0.981   2.117  0.0789 -2.6749 -0.4714
  221SOL    HW2  663   1.454   1.007   2.160  0.5116 -1.7313 -0.7568
  222SOL     OW  664   1.194   0.035   1.208  0.0877 -0.1545  0.6352
  222SOL    HW1  665   1.253  -0.021   1.269 -2.7743  0.7102  2.2335
  222SOL    HW2  666   1.224   0.135   1.196 -1.0646  0.5304 -0.7011
  223SOL     OW  667   2.745   0.876   2.022 -0.6826  0.5750 -0.3428
  223SOL    HW1  668   2.756   0.878   2.125 -0.5426  1.3597  1.3868
  223SOL    HW2  669   2.823   0.924   1.972  0.3737 -0.7640  0.1467
  224SOL     OW  670   1.572   1.016   2.755  0.6963  0.2099  0.3096
  224SOL    HW1  671   1.601   0.939   2.691 -1.3931 -1.7647  0.9677
  224SOL    HW2  672   1.505   1.087   2.713  0.3764 -2.2164  2.7560
  225SOL     OW  673   2.932   2.799   2.907 -0.1621  0.0598 -0.1434
  225SOL    HW1  674   2.913   2.709   2.859  1.5871  0.0304  0.7553
  225SOL    HW2  675   2.947   2.887   2.851 -0.6255  2.3102  0.7316
  226SOL     OW  676   2.379   1.578   2.823 -0.0692 -0.1003 -0.3853
  226SOL    HW1  677   2.448   1.570   2.743  2.6946 -0.2047 -2.0534
  226SOL    HW2  678   2.330   1.489   2.843 -0.4623  1.8157 -0.9632
  227SOL     OW  679   0.843   0.161   3.019 -0.5519 -0.2748  0.2786
  227SOL    HW1  680   0.796   0.095   3.078  0.7205  0.4136 -0.0534
  227SOL    HW2  681   0.822   0.157   2.921 -0.9781  3.6543  2.8817
  228SOL     OW  682   2.377   0.594   2.863 -0.0535 -0.5564  0.6485
  228SOL    HW1  683   2.351   0.632   2.770  0.1452  1.3462  0.1970
  228SOL    HW2  684   2.466   0.537   2.867 -1.7727  0.5450  1.3495
  229SOL     OW  685   0.628   0.467   1.899  0.3753 -0.5864 -0.1042
  229SOL    HW1  686   0.629   0.386   1.834  2.7904  3.5651 -1.1855
  229SOL    HW2  687   0.669   0.551   1.857 -0.1580 -3.9776 -2.5977
  230SOL     OW  688   1.930   1.167   2.149 -0.2450 -0.7162  0.6670
  230SOL    HW1  689   1.984   1.228   2.085 -0.9393 -2.0715 -2.2141
  230SOL    HW2  690   1.831   1.197   2.128  1.3228  0.2349 -4.0877
  231SOL     OW  691   0.658   1.000   2.969  0.3022  0.3472  0.7100
  231SOL    HW1  692   0.751   1.046   2.949 -1.5339  0.1109  0.2258
  231SOL    HW2  693   0.582   1.067   2.998  0.0582 -0.3446 -0.8780
  232SOL     OW  694   2.427   0.026   2.793 -0.2119 -0.3160  0.2257
  232SOL    HW1  695   2.440  -0.076   2.793 -0.5048  0.4018  2.5386
  232SOL    HW2  696   2.479   0.076   2.718 -0.3922 -1.8567 -1.1412
  233SOL     OW  697   1.720   1.287   1.140  0.4866 -0.1937  0.2849
  233SOL    HW1  698   1.760   1.287   1.048  0.9407  1.3297  0.2875
  233SOL    HW2  699   1.761   1.215   1.199  0.2751  1.6466  0.2244
  234SOL     OW  700   1.597   2.587   1.876  0.0035  0.2887  0.6319
  234SOL    HW1  701   1.607   2.643   1.963  0.7880  1.0740 -0.3109
  234SOL    HW2  702   1.509   2.538   1.876  2.3569  0.5950 -1.8460
  235SOL     OW  703   0.057   3.006   2.850 -0.1919 -0.2107  0.4642
  235SOL    HW1  704   0.109   3.040   2.766 -0.6128  0.3593  0.9682
  235SOL    HW2  705  -0.014   3.069   2.896 -1.2775 -0.0729 -0.6575
  236SOL     OW  706   2.888   0.759   0.100  0.3392 -0.1941  0.7172
  236SOL    HW1  707   2.950   0.799   0.174 -0.2351  0.0202 -0.0587
  236SOL    HW2  708   2.924   0.672   0.058 -4.1134 -0.0044  0.8939
  237SOL     OW  709   1.490   1.707   0.978  0.1517  0.1846 -0.3472
  237SOL    HW1  710   1.585   1.681   0.944 -1.9158 -0.4233 -1.2761
  237SOL    HW2  711   1.484   1.722   1.083 -0.3095 -1.0007  2.9900
  238SOL     OW  712   1.774   1.261   0.870 -0.1425 -0.5121  0.0276
  238SOL    HW1  713   1.863   1.311   0.865 -3.0365  2.3992 -0.9210
  238SOL    HW2  714   1.696   1.305   0.824 -1.2407 -1.1947  0.6677
  239SOL     OW  715   2.047   0.234   2.755  0.0376 -0.0574 -0.7117
  239SOL    HW1  716   2.117   0.193   2.817  1.3528  0.3515  0.0459
  239SOL    HW2  717   1.993   0.311   2.793 -2.0187 -0.6855 -0.2791
  240SOL     OW  718   0.983   0.627   0.321 -0.4364 -1.1007  0.4449
  240SOL    HW1  719   0.989   0.536   0.273 -0.5691  1.7445 -1.5060
  240SOL    HW2  720   0.950   0.615   0.421  0.5544  2.4771 -0.2246
  241SOL     OW  721   0.635   0.111   0.380 -0.0739  0.1433  0.1396
  241SOL    HW1  722   0.672   0.180   0.308 -0.4737  1.3032  1.3103
  241SOL    HW2  723   0.614   0.019   0.346 -1.8322 -1.7224  1.1030
  242SOL     OW  724   0.678   2.475   1.113 -0.2064 -0.1492  0.0066
  242SOL    HW1  725   0.620   2.494   1.197  1.1375 -0.8141 -1.9953
  242SOL    HW2  726   0.762   2.538   1.110 -0.7332  1.0217  1.5650
  243SOL     OW  727   1.090   0.577   2.492 -0.7493 -0.3821  0.1060
  243SOL    HW1  728   0.999   0.614   2.468  3.2898  0.1394 -1.8397
  243SOL    HW2  729   1.102   0.549   2.591  1.2051  2.4714  2.2185
  244SOL     OW  730   2.766   1.887   2.346 -0.2205 -0.0580 -0.1472
  244SOL    HW1  731   2.839   1.859   2.272  1.8017 -0.6451 -3.1749
  244SOL    HW2  732   2.710   1.803   2.379 -0.8598  0.7525  0.4936
  245SOL     OW  733   2.434   0.645   2.182 -0.6331 -0.1005 -0.1318
  245SOL    HW1  734   2.452   0.709   2.258 -0.9088  0.0708  0.4975
  245SOL    HW2  735   2.497   0.558   2.171  0.0300 -1.1311 -2.4679
  246SOL     OW  736   0.221   2.907   1.668  0.0570 -0.4935 -0.0212
  246SOL    HW1  737   0.161   2.886   1.584  0.6553  1.0548 -0.0696
  246SOL    HW2  738   0.289   2.985   1.650 -0.1455  0.4689 -1.5044
  247SOL     OW  739   2.159   0.569   3.028  0.4978  0.1529 -0.8077
  247SOL    HW1  740   2.240   0.554   2.964  0.6777  1.6788  3.5245
  247SOL    HW2  741   2.113   0.667   3.017  2.1516  2.1148  2.3183
  248SOL     OW  742   2.113   1.804   1.579  0.2407  0.5168  0.2270
  248SOL    HW1  743   2.162   1.752   1.660  0.6099 -0.6751 -0.1350
  248SOL    HW2  744   2.010   1.799   1.592  1.2481  0.2300 -0.5006
  249SOL     OW  745   1.950   1.903   1.939 -1.0314 -0.4161  0.1830
  249SOL    HW1  746   1.923   1.866   1.843 -1.9635 -2.0378  0.8506
  249SOL    HW2  747   2.036   1.964   1.938 -0.6405  1.0326 -1.6064
  250SOL     OW  748   1.114   0.736   1.900  0.0070 -0.5542 -0.0211
  250SOL    HW1  749   1.187   0.666   1.928  1.2389 -1.9106 -0.6639
  250SOL    HW2  750   1.064   0.701   1.817 -0.3173  0.2047 -1.5822
  251SOL     OW  751   3.082   1.578   2.539 -0.2396 -0.0432 -0.0360
  251SOL    HW1  752   3.082   1.670   2.489 -0.9798 -1.0619  1.9220
  251SOL    HW2  753   2.989   1.557   2.581  1.3552  3.4308 -1.8822
  252SOL     OW  754   1.576   0.890   1.557 -0.2554 -0.1928  0.1448
  252SOL    HW1  755   1.582   0.924   1.461 -0.3116 -3.4061  1.6651
  252SOL    HW2  756   1.551   0.964   1.631  1.2384 -0.0104  1.9559
  253SOL     OW  757   0.857   1.513   0.443 -0.8250  0.6716  0.4825
  253SOL    HW1  758   0.917   1.423   0.426  1.6722  0.1680 -0.0187
  253SOL    HW2  759   0.765   1.508   0.405  4.1270 -1.0501  2.2101
  254SOL     OW  760   2.063   2.123   1.577 -0.8898 -0.3134 -0.0683
  254SOL    HW1  761   2.007   2.070   1.504 -0.8333  1.4000 -0.5518
  254SOL    HW2  762   2.009   2.164   1.657  0.4682  0.8883  1.7955
  255SOL     OW  763   0.110   1.174   2.926  0.1761  0.1449 -0.4154
  255SOL    HW1  764   0.159   1.258   2.894 -0.4070 -1.8826 -0.1289
  255SOL    HW2  765   0.179   1.095   2.933  2.4517 -0.0609 -0.9271
  256SOL     OW  766   2.760   1.375   1.733  0.3947  0.1098 -0.3179
  256SOL    HW1  767   2.696   1.432   1.789  0.3475 -1.4019 -1.2988
  256SOL    HW2  768   2.738   1.273   1.742 -1.3892  1.3895 -2.3643
  257SOL     OW  769   0.843   0.162   1.774 -0.0743  0.1704  0.3163
  257SOL    HW1  770   0.912   0.236   1.755 -2.1738 -0.6411  0.6018
  257SOL    HW2  771   0.882   0.071   1.759 -1.0943  2.7875 -0.7342
  258SOL     OW  772   2.906   1.296   0.437 -0.3756  0.1229  0.1037
  258SOL    HW1  773   2.847   1.381   0.410 -1.3408  0.9522  0.9008
  258SOL    HW2  774   2.953   1.318   0.524 -1.6668 -3.1848 -1.8951
  259SOL     OW  775   0.479   2.963   3.030 -0.0642  0.2896 -0.2927
  259SOL    HW1  776   0.409   2.899   3.080 -3.4678 -0.2731 -1.4047
  259SOL    HW2  777   0.478   2.942   2.931  0.1465  1.8853  2.3792
  260SOL     OW  778   2.739   0.826   2.744  0.6084  0.1165  0.2044
  260SOL    HW1  779   2.634   0.835   2.745  2.6831 -3.1557  0.0385
  260SOL    HW2  780   2.779   0.894   2.814  1.8141 -2.6719  0.6358
  261SOL     OW  781   2.746   1.327   1.310  0.6636 -0.4151 -0.2448
  261SOL    HW1  782   2.665   1.299   1.252 -0.2562 -0.9603 -2.1144
  261SOL    HW2  783   2.799   1.254   1.356 -0.4381  1.5233  1.2625
  262SOL     OW  784   1.434   2.999   2.010 -0.2732  0.2370  0.6250
  262SOL    HW1  785   1.451   3.082   1.946  1.5359 -0.8409  1.4647
  262SOL    HW2  786   1.345   2.946   1.989 -1.2962 -1.1131  0.3797
  263SOL     OW  787   0.856   0.717   2.345  0.5145 -0.5483 -0.5032
  263SOL    HW1  788   0.816   0.625   2.320 -3.4082  0.6253  2.4088
  263SOL    HW2  789   0.900   0.770   2.267  1.6789  2.9781  1.4304
  264SOL     OW  790   2.205   0.808   0.294 -0.2074  0.0860 -0.1810
  264SOL    HW1  791   2.137   0.879   0.318 -3.3711 -0.2752 -0.1413
  264SOL    HW2  792   2.297   0.832   0.321  0.5230  1.0754  0.7303
  265SOL     OW  793   0.899   2.279   2.668  0.0911  0.5592  0.1130
  265SOL    HW1  794   0.949   2.335   2.743 -2.5036  0.8733  1.6153
  265SOL    HW2  795   0.869   2.182   2.703 -1.1180 -3.2841  0.3373
  266SOL     OW  796   1.322   1.734   0.014 -0.1788  0.0386  0.4071
  266SOL    HW1  797   1.320   1.830   0.056 -1.5778  0.6222  3.2488
  266SOL    HW2  798   1.418   1.713  -0.025  0.3605 -1.2527  0.9432
  267SOL     OW  799   0.965   3.050   2.363 -0.2857 -0.1748 -0.1492
  267SOL    HW1  800   0.967   3.025   2.263  1.2425 -2.0582  0.4921
  267SOL    HW2  801   0.938   3.150   2.377  0.8171 -0.6765 -2.0152
  268SOL     OW  802   0.692   1.143   1.088  0.0968  0.2816  0.8100
  268SOL    HW1  803   0.701   1.178   1.180 -0.7430 -1.3641 -0.5271
  268SOL    HW2  804   0.691   1.220   1.016  0.8716  1.3458 -1.0192
  269SOL     OW  805   2.388   2.482   1.540 -0.1140  0.4858 -0.0486
  269SOL    HW1  806   2.467   2.415   1.549  0.1036  1.3246  2.1027
  269SOL    HW2  807   2.352   2.513   1.635 -0.3026 -0.6933  2.2201
  270SOL     OW  808   0.132   3.053   1.907 -0.1827  0.2003  0.3014
  270SOL    HW1  809   0.196   3.004   1.841 -0.8149 -0.6084 -1.2155
  270SOL    HW2  810   0.051   2.991   1.930  0.4696  0.5249  2.9973
  271SOL     OW  811   0.408   1.396   1.150  0.0014 -0.4237  0.3175
  271SOL    HW1  812   0.394   1.421   1.047 -1.6727  0.5890 -2.4304
  271SOL    HW2  813   0.323   1.398   1.207 -2.0757 -1.3482 -0.5697
  272SOL     OW  814   1.971   2.884   1.904 -0.5511 -0.5352  0.4595
  272SOL    HW1  815   1.937   2.828   1.828 -1.0581 -2.2191  0.6101
  272SOL    HW2  816   2.010   2.978   1.871 -1.1252  4.8715  1.0424
  273SOL     OW  817   1.451   1.474   2.790 -0.1885  0.1931 -0.1786
  273SOL    HW1  818   1.355   1.500   2.808 -0.8026 -0.0587 -2.4216
  273SOL    HW2  819   1.495   1.405   2.852 -0.4850  0.9740 -0.5803
  274SOL     OW  820   1.266   0.509   1.995  0.5504  0.1767  0.0284
  274SOL    HW1  821   1.219   0.416   1.994  0.9791 -3.3054  3.3010
  274SOL    HW2  822   1.286   0.537   2.092 -1.5696 -1.9529 -1.4488
  275SOL     OW  823   0.633   2.074   1.868 -0.2792  0.0777 -0.2875
  275SOL    HW1  824   0.595   2.168   1.900 -2.0437  0.5547  1.5457
  275SOL    HW2  825   0.569   1.995   1.884 -1.7465  1.8109  1.0527
  276SOL     OW  826   2.147   0.921   2.799  0.0820 -0.2153 -0.2658
  276SOL    HW1  827   2.082   0.880   2.732 -0.6175  1.3891  1.0849
  276SOL    HW2  828   2.109   0.929   2.898  1.2475  0.7498  2.8028
  277SOL     OW  829   3.092   0.854   0.270 -0.4365 -0.1244 -0.4536
  277SOL    HW1  830   3.171   0.895   0.214  0.5504 -0.7617  0.2809
  277SOL    HW2  831   3.111   0.763   0.319 -0.5320 -0.9972 -1.3740
  278SOL     OW  832   0.248   0.285   3.078 -0.0688 -0.5201  0.4659
  278SOL    HW1  833   0.337   0.227   3.085 -0.4630 -1.5091  1.3796
  278SOL    HW2  834   0.267   0.389   3.068 -1.9611  3.1126 -0.0276
  279SOL     OW  835   0.148   0.109   0.911 -0.1581  0.0543 -0.0126
  279SOL    HW1  836   0.150   0.071   1.008  3.5816  4.0191  0.9350
  279SOL    HW2  837   0.242   0.103   0.869  1.2274  1.2974 -0.0063
  280SOL     OW  838   1.563   2.906   2.528 -0.1658  0.1520 -0.2038
  280SOL    HW1  839   1.651   2.958   2.546 -0.6079  0.7460 -1.1752
  280SOL    HW2  840   1.481   2.970   2.509 -0.6543 -3.2348 -2.1706
  281SOL     OW  841   0.614   0.931   2.262 -0.3219 -0.0298 -0.1281
  281SOL    HW1  842   0.594   0.845   2.213  0.4346  1.5995 -0.5584
  281SOL    HW2  843   0.558   0.942   2.347 -1.0515  0.1474 -0.5831
  282SOL     OW  844   1.767   2.451   0.520  0.1464  0.8123  0.0825
  282SOL    HW1  845   1.731   2.365   0.470  3.8906  0.0338  0.3613
  282SOL    HW2  846   1.719   2.536   0.484  3.0391  0.8007 -0.7269
  283SOL     OW  847   1.133   0.911   0.849 -0.1767 -0.3492  0.4284
  283SOL    HW1  848   1.160   0.833   0.915  0.8645  2.2534 -0.4064
  283SOL    HW2  849   1.099   0.997   0.901 -0.1025 -0.8278  0.8181
  284SOL     OW  850   2.352   2.735   2.365 -0.0482 -1.0866  0.3678
  284SOL    HW1  851   2.424   2.810   2.361 -2.8125 -0.8623  1.2739
  284SOL    HW2  852   2.303   2.729   2.462 -0.4073 -1.0477  4.0527
  285SOL     OW  853   1.324   3.055   2.544 -0.8400  0.0521 -0.2141
  285SOL    HW1  854   1.331   3.076   2.443 -0.3319  0.1056  1.9585
  285SOL    HW2  855   1.223   3.077   2.583 -5.1072  0.4103 -2.4607
  286SOL     OW  856   0.461   0.412   0.758 -0.1269  0.2845  0.0196
  286SOL    HW1  857   0.428   0.361   0.840  1.2003 -1.5926  0.4010
  286SOL    HW2  858   0.479   0.348   0.679 -0.8493 -1.0106 -0.0394
  287SOL     OW  859   0.120   1.312   2.540  0.0213 -0.6687  0.2065
  287SOL    HW1  860   0.076   1.241   2.601  0.6292 -0.2021  0.5302
  287SOL    HW2  861   0.084   1.413   2.548  0.0556  4.1876 -1.3337
  288SOL     OW  862   1.566   2.679   1.574  0.3140  0.3142 -0.1198
  288SOL    HW1  863   1.564   2.605   1.655  1.2324 -1.9444 -2.0643
  288SOL    HW2  864   1.657   2.680   1.532 -0.4891  1.0307 -2.5947
  289SOL     OW  865   0.571   2.736   0.808 -0.5144 -0.1404  0.5663
  289SOL    HW1  866   0.648   2.774   0.747  1.9511 -0.1159  0.2420
  289SOL    HW2  867   0.567   2.786   0.896 -0.6315 -0.3630 -1.7810
  290SOL     OW  868   2.823   1.095   1.709 -0.1317  0.2044 -0.0379
  290SOL    HW1  869   2.781   1.011   1.661 -0.8108 -0.6160  0.2603
  290SOL    HW2  870   2.892   1.067   1.785  1.4477  3.3761 -1.5611
  291SOL     OW  871   1.960   0.086   0.082  0.1144  0.0619  0.5158
  291SOL    HW1  872   1.994   0.040   0.167  0.8634  2.7857  0.0456
  291SOL    HW2  873   2.001   0.180   0.066  2.3436 -2.7839  1.7659
  292SOL     OW  874   2.973   1.185   3.082 -0.1306 -0.5062 -0.1140
  292SOL    HW1  875   2.903   1.243   3.037  1.1915  2.1943  0.3731
  292SOL    HW2  876   3.058   1.182   3.025  0.5480 -1.5977  0.4497
  293SOL     OW  877   0.575   2.132   0.140  0.5150  0.2257 -0.4902
  293SOL    HW1  878   0.550   2.192   0.220 -0.4736  1.8605 -1.6492
  293SOL    HW2  879   0.667   2.078   0.153 -2.1414  0.4435  0.6387
  294SOL     OW  880   1.760   2.240   1.758  0.4038 -0.4263  0.4493
  294SOL    HW1  881   1.827   2.314   1.781 -0.1815  0.2218 -2.2299
  294SOL    HW2  882   1.720   2.258   1.666  0.2586  1.7837 -1.4647
  295SOL     OW  883   1.003   1.028   0.521 -0.9238 -0.2398 -0.1825
  295SOL    HW1  884   1.092   1.020   0.585  2.9374 -0.7005 -1.0777
  295SOL    HW2  885   0.917   1.018   0.580  2.6600 -2.2131  2.9809
  296SOL     OW  886   1.252   2.113   2.524 -0.3153 -0.0754  0.0099
  296SOL    HW1  887   1.275   2.127   2.424 -0.6254 -0.8143  2.2679
  296SOL    HW2  888   1.223   2.012   2.539 -3.1475 -2.4381 -1.3360
  297SOL     OW  889   1.446   0.612   1.374 -0.5450  1.0398 -0.7978
  297SOL    HW1  890   1.419   0.511   1.393  1.9221 -0.7023  1.8333
  297SOL    HW2  891   1.534   0.634   1.421 -0.3638  0.4699 -0.5739
  298SOL     OW  892   0.482   1.390   2.966  0.0500  0.5503  0.2803
  298SOL    HW1  893   0.474   1.311   3.035  3.6844 -1.3092  0.6624
  298SOL    HW2  894   0.562   1.370   2.904 -1.0023  0.6324  4.1740
  299SOL     OW  895   0.511   0.243   1.366 -0.0414  0.0373 -0.2675
  299SOL    HW1  896   0.491   0.338   1.326  1.0486  2.2372 -2.9848
  299SOL    HW2  897   0.563   0.236   1.457 -0.1024 -2.2583 -0.9924
  300SOL     OW  898   1.201   1.838   2.835  0.0533  0.3338 -0.0763
  300SOL    HW1  899   1.205   1.731   2.852 -0.7191  0.5053 -3.8641
  300SOL    HW2  900   1.294   1.883   2.852  2.6869 -0.2613 -2.1211
  301SOL     OW  901   0.481   0.288   0.528 -0.1687  0.7910 -0.2287
  301SOL    HW1  902   0.380   0.265   0.519  1.4038 -2.2009  2.7028
  301SOL    HW2  903   0.530   0.237   0.455  0.4021  0.7642  1.5620
  302SOL     OW  904   1.208   2.382   2.316 -0.0138 -0.2278  0.4668
  302SOL    HW1  905   1.126   2.402   2.372 -1.1007  0.9260  0.0200
  302SOL    HW2  906   1.219   2.279   2.292  0.3736  1.7236 -1.3301
  303SOL     OW  907   0.967   2.335   0.827  0.3669  0.1611 -0.1321
  303SOL    HW1  908   1.037   2.365   0.755 -2.1113  1.3371  0.4718
  303SOL    HW2  909   0.975   2.379   0.921 -2.0423 -1.5539  0.4747
  304SOL     OW  910   0.142   2.033   0.630 -0.4566 -0.2443 -0.5166
  304SOL    HW1  911   0.161   1.968   0.548  1.5888  1.3684 -2.8679
  304SOL    HW2  912   0.082   2.115   0.605  1.5437  2.1433 -0.7894
  305SOL     OW  913   1.643   0.926   0.573  0.1729 -0.2497 -0.0051
  305SOL    HW1  914   1.581   0.889   0.495 -1.6224  1.7441 -0.8853
  305SOL    HW2  915   1.677   0.853   0.641 -0.9768  1.5158  1.0499
  306SOL     OW  916   0.445   1.881   1.928  0.4355 -0.1176 -0.5483
  306SOL    HW1  917   0.509   1.799   1.905 -1.3619  0.8167  0.5426
  306SOL    HW2  918   0.419   1.873   2.029 -1.0309 -0.0116 -3.4535
  307SOL     OW  919   3.083   0.918   2.516 -0.0051  0.0780 -0.1807
  307SOL    HW1  920   3.080   1.001   2.577  1.1165  3.3002 -1.0134
  307SOL    HW2  921   3.030   0.839   2.552  0.0650 -1.6852 -0.4764
  308SOL     OW  922   1.556   2.678   2.841  0.3121  0.1347 -0.1971
  308SOL    HW1  923   1.544   2.602   2.773  0.3685  0.6161  0.4647
  308SOL    HW2  924   1.516   2.649   2.937 -0.8163 -0.7852  3.2279
  309SOL     OW  925   1.213   0.069   1.763 -0.0935  0.1259  0.0214
  309SOL    HW1  926   1.316   0.061   1.782  0.1852 -0.0471  0.5569
  309SOL    HW2  927   1.183   0.116   1.674  0.9691  2.7442 -0.8149
  310SOL     OW  928   1.495   2.536   0.653 -0.2943 -0.6176 -0.2046
  310SOL    HW1  929   1.489   2.570   0.753  0.2216 -0.3008  0.6468
  310SOL    HW2  930   1.567   2.589   0.595  0.4296 -0.0976 -2.1812
  311SOL     OW  931   1.158   0.947   1.588  0.0075  0.0133  0.0812
  311SOL    HW1  932   1.228   0.869   1.589 -1.0905  2.0020  1.7521
  311SOL    HW2  933   1.198   1.039   1.559 -0.0823  1.7605  3.1351
  312SOL     OW  934   1.627   0.679   0.980 -0.5967  0.4773  0.6154
  312SOL    HW1  935   1.595   0.776   0.952 -2.9273  1.8302 -1.1569
  312SOL    HW2  936   1.551   0.627   1.033 -2.0043 -1.2817  0.9664
  313SOL     OW  937   1.586   1.402   0.702 -0.5475  0.1801  0.2981
  313SOL    HW1  938   1.503   1.451   0.740  2.6175  0.5743  0.2929
  313SOL    HW2  939   1.567   1.310   0.656  2.9486 -1.0371  0.5419
  314SOL     OW  940   2.966   0.037   3.032  0.3594  0.5590 -0.0973
  314SOL    HW1  941   2.968   0.047   3.135  0.5373  2.5476 -0.2078
  314SOL    HW2  942   2.874  -0.008   3.007 -2.3438  1.2928  0.8858
  315SOL     OW  943   1.226   0.209   2.812  0.4101  0.4139 -0.0315
  315SOL    HW1  944   1.190   0.142   2.743  2.3620  1.3257  1.2374
  315SOL    HW2  945   1.211   0.174   2.913 -0.9424 -1.6845  1.7893
  316SOL     OW  946   1.711   2.059   0.851  0.2497 -0.5086  0.2505
  316SOL    HW1  947   1.653   2.054   0.934  0.4785  0.4203 -1.8118
  316SOL    HW2  948   1.741   2.153   0.819  1.3584 -0.7780 -0.8893
  317SOL     OW  949   1.129   0.677   2.886  0.1545 -0.3277 -0.3119
  317SOL    HW1  950   1.057   0.708   2.952 -0.5304 -3.4498  0.8386
  317SOL    HW2  951   1.101   0.594   2.830  0.6881  0.3500  2.2605
  318SOL     OW  952   1.333   3.067   2.274  0.3153  0.2850  0.2837
  318SOL    HW1  953   1.320   3.163   2.233 -1.3464 -1.7257  3.4171
  318SOL    HW2  954   1.373   2.999   2.208  0.4582 -0.4806  1.8942
  319SOL     OW  955   0.689   2.460   2.940  1.0509 -0.6827  0.0377
  319SOL    HW1  956   0.629   2.407   3.009  2.3921 -1.1986  0.8035
  319SOL    HW2  957   0.789   2.455   2.961 -0.8658  1.7170  0.6238
  320SOL     OW  958   1.704   2.212   0.379 -0.2851  0.7227  0.3602
  320SOL    HW1  959   1.789   2.157   0.394  0.8855 -0.4819 -0.8901
  320SOL    HW2  960   1.616   2.151   0.394  1.5061  0.1774 -1.8402
  321SOL     OW  961   1.675   2.716   0.476 -0.0818  1.0878 -0.1196
  321SOL    HW1  962   1.605   2.753   0.405 -1.4111  0.3153 -3.2401
  321SOL    HW2  963   1.776   2.743   0.464  1.9164  0.9081  0.5364
  322SOL     OW  964   2.559   1.149   2.414  0.3495  0.6038  0.9875
  322SOL    HW1  965   2.650   1.169   2.461  0.9713  0.0189 -0.7879
  322SOL    HW2  966   2.555   1.055   2.365  1.5123  0.7865 -1.2363
  323SOL     OW  967   1.135   2.630   0.834 -0.2132  0.0191  0.0271
  323SOL    HW1  968   1.136   2.571   0.747  0.7553 -1.3200  0.1039
  323SOL    HW2  969   1.114   2.729   0.816  1.5606  0.4882 -0.9107
  324SOL     OW  970   0.247   2.530   2.533  0.1049 -0.6309  0.2755
  324SOL    HW1  971   0.293   2.510   2.620 -0.5536  3.5941  1.2508
  324SOL    HW2  972   0.146   2.537   2.546 -2.0070  0.6155 -1.9598
  325SOL     OW  973   1.266   3.030   0.476  0.3632 -0.3631  0.1981
  325SOL    HW1  974   1.257   3.073   0.384  1.6486 -0.4515 -0.3650
  325SOL    HW2  975   1.291   3.104   0.548  0.6361 -0.5938  1.3367
  326SOL     OW  976   2.429   0.779   3.089 -0.0757  0.2417 -0.0931
  326SOL    HW1  977   2.381   0.728   3.013 -1.6157  0.4042 -0.0469
  326SOL    HW2  978   2.481   0.710   3.149 -1.8273 -0.3683  0.8749
  327SOL     OW  979   2.838   0.374   0.622 -0.3880  0.4007  0.4950
  327SOL    HW1  980   2.827   0.360   0.519  0.9491 -1.9766  1.7135
  327SOL    HW2  981   2.812   0.290   0.680  1.3153  0.7415  0.6731
  328SOL     OW  982   2.542   0.585   0.386  0.2249 -0.1197 -0.1471
  328SOL    HW1  983   2.492   0.671   0.396  1.3519 -2.0205 -3.2757
  328SOL    HW2  984   2.532   0.514   0.459 -3.1856  2.5078 -0.6061
  329SOL     OW  985   2.976   2.975   2.154 -0.1421 -0.0155  0.3411
  329SOL    HW1  986   3.034   2.905   2.202 -2.4756 -0.5976 -1.5650
  329SOL    HW2  987   3.001   3.074   2.167 -0.9508  0.1013  4.1783
  330SOL     OW  988   0.572   0.154   1.858 -0.1761  0.3057  0.2492
  330SOL    HW1  989   0.673   0.151   1.834 -1.4206 -0.7976  0.5596
  330SOL    HW2  990   0.564   0.096   1.945  1.3586 -0.3080  0.2482
  331SOL     OW  991   2.972   1.918   1.165  0.4093 -0.3025 -0.5287
  331SOL    HW1  992   3.009   1.991   1.098  3.9991 -1.2988  0.3097
  331SOL    HW2  993   2.891   1.949   1.222 -0.2944  0.6101  0.9974
  332SOL     OW  994   0.449   1.141   0.022  0.0098 -0.0448  0.0048
  332SOL    HW1  995   0.386   1.070  -0.023  2.5955  0.7865 -1.9858
  332SOL    HW2  996   0.412   1.183   0.111 -0.9674 -0.5136  1.2126
  333SOL     OW  997   2.902   1.062   0.296  0.0164 -0.4762  0.5533
  333SOL    HW1  998   2.931   1.132   0.370  1.3657  0.6856  0.9545
  333SOL    HW2  999   2.965   0.980   0.291 -0.9412  0.4387  2.0718
  334SOL     OW 1000   1.722   1.235   1.826  0.1994 -0.1383  0.1632
  334SOL    HW1 1001   1.809   1.184   1.794 -0.7485  0.0754 -0.4227
  334SOL    HW2 1002   1.728   1.281   1.917 -1.7681 -0.7692 -0.7712
  335SOL     OW 1003   1.958   2.780   2.599  0.4797  0.1547 -0.4260
  335SOL    HW1 1004   1.883   2.717   2.637 -2.1499  0.1651  1.3085
  335SOL    HW2 1005   2.019   2.822   2.676  2.0094 -0.0621  0.8874
  336SOL     OW 1006   0.273   0.112   2.810  0.3366  0.6048 -0.5229
  336SOL    HW1 1007   0.336   0.109   2.897  0.8803  1.9347 -0.2712
  336SOL    HW2 1008   0.194   0.180   2.820 -0.6563  0.1893 -0.0040
  337SOL     OW 1009   0.932   2.771   2.822  0.0016 -0.3715  0.4109
  337SOL    HW1 1010   0.912   2.731   2.917 -2.9261  0.7946 -0.4251
  337SOL    HW2 1011   1.024   2.741   2.785  0.0009 -0.4011  0.1980
  338SOL     OW 1012   0.019   1.047   0.646 -0.2140  0.4095 -0.3272
  338SOL    HW1 1013  -0.069   0.999   0.677 -0.9372 -2.0834  0.8186
  338SOL    HW2 1014   0.020   1.151   0.648 -1.2385  0.1270  2.7422
  339SOL     OW 1015   1.710   1.351   2.085  0.3279 -0.0682 -0.0437
  339SOL    HW1 1016   1.605   1.358   2.096 -0.0541  0.3231  0.2408
  339SOL    HW2 1017   1.753   1.433   2.125 -2.4046 -1.3395  1.4484
  340SOL     OW 1018   2.333   0.735   1.183 -0.3283  0.9982 -0.3604
  340SOL    HW1 1019   2.248   0.795   1.164  0.4785 -0.1164  0.4732
  340SOL    HW2 1020   2.366   0.672   1.107  1.0945  0.9604 -2.2272
  341SOL     OW 1021   1.946   2.083   0.339  0.5032  0.0974 -0.1331
  341SOL    HW1 1022   1.965   2.131   0.249  1.6933 -0.6154 -0.9593
  341SOL    HW2 1023   2.032   2.056   0.393 -0.5152 -2.4872 -1.7999
  342SOL     OW 1024   2.232   2.094   2.719  0.4316  0.5826 -0.0543
  342SOL    HW1 1025   2.286   2.003   2.736  0.5455 -0.4925 -0.2166
  342SOL    HW2 1026   2.128   2.078   2.725  0.3615 -2.3340  0.1354
  343SOL     OW 1027   0.393   0.880   2.787 -0.4238  0.0082 -0.2834
  343SOL    HW1 1028   0.396   0.934   2.699 -1.0855  4.3662 -1.5727
  343SOL    HW2 1029   0.491   0.859   2.825  0.6898 -1.7420  0.5578
  344SOL     OW 1030   1.951   1.395   0.382 -0.5730  0.2474  0.2988
  344SOL    HW1 1031   1.925   1.310   0.331 -1.9424 -0.2535  1.2910
  344SOL    HW2 1032   1.868   1.450   0.418 -1.8183 -1.3811 -0.3335
  345SOL     OW 1033   1.415   2.275   2.883  0.2935 -0.4796  0.3788
  345SOL    HW1 1034   1.334   2.219   2.856  0.9087 -1.2066  0.9954
  345SOL    HW2 1035   1.502   2.244   2.842 -0.7522 -0.8915  0.0379
  346SOL     OW 1036   2.382   0.919   1.390  0.7589 -0.1454  0.1643
  346SOL    HW1 1037   2.330   1.007   1.400 -0.7409 -0.9419 -0.2015
  346SOL    HW2 1038   2.335   0.858   1.321 -0.0410  1.8454  0.4701
  347SOL     OW 1039   0.745   2.781   1.467  0.5904  0.2456  0.5787
  347SOL    HW1 1040   0.728   2.727   1.553 -1.7863 -0.2756  0.8844
  347SOL    HW2 1041   0.681   2.866   1.465 -1.1524  1.7094  1.4080
  348SOL     OW 1042   0.173   0.661   2.844  0.5626  0.0854  0.2571
  348SOL    HW1 1043   0.079   0.685   2.826  1.6936 -0.3571  0.2826
  348SOL    HW2 1044   0.244   0.719   2.789  0.7336  1.3300 -5.1318
  349SOL     OW 1045   1.848   0.436   2.778  0.4774  0.3795 -0.0075
  349SOL    HW1 1046   1.824   0.501   2.701 -1.4377 -1.4131 -2.5973
  349SOL    HW2 1047   1.815   0.469   2.870 -0.0386 -2.3323  1.2915
  350SOL     OW 1048   1.605   0.420   0.365  0.7628 -0.2141 -0.5106
  350SOL    HW1 1049   1.650   0.443   0.454  0.7659  1.1183 -1.1894
  350SOL    HW2 1050   1.591   0.505   0.310  3.1906  0.2285  2.0683
  351SOL     OW 1051   0.987   0.863   2.149  0.0264  0.4354  0.5241
  351SOL    HW1 1052   0.945   0.958   2.124  0.4739  0.1562  2.0727
  351SOL    HW2 1053   1.026   0.805   2.071  1.0534  0.7390  0.3666
  352SOL     OW 1054   2.052   1.311   0.625 -0.4475  1.0452 -0.9891
  352SOL    HW1 1055   2.032   1.353   0.530  2.1086 -2.1829  0.8279
  352SOL    HW2 1056   2.143   1.332   0.663 -0.9536 -0.5741  0.8112
  353SOL     OW 1057   2.183   2.882   1.052  0.1898 -0.7418 -0.1030
  353SOL    HW1 1058   2.231   2.823   1.125  2.3102  1.0160  1.0935
  353SOL    HW2 1059   2.086   2.845   1.041  1.4429 -2.7833  0.1537
  354SOL     OW 1060   0.259   1.399   2.835 -0.0571  0.5460 -0.2581
  354SOL    HW1 1061   0.233   1.478   2.773  1.1532 -2.2526  0.8229
  354SOL    HW2 1062   0.349   1.409   2.884  0.7655  1.0822 -2.2873
  355SOL     OW 1063   0.487   1.501   0.501 -0.0095  0.3547  0.3411
  355SOL    HW1 1064   0.485   1.556   0.589 -0.3646 -0.0910 -0.0189
  355SOL    HW2 1065   0.554   1.423   0.510  1.5147  1.9147 -0.1237
  356SOL     OW 1066   0.856   0.248   2.060 -0.7527 -0.1754 -0.0684
  356SOL    HW1 1067   0.962   0.236   2.055 -0.8940 -0.9459 -1.0496
  356SOL    HW2 1068   0.817   0.223   1.968  2.2258  0.3413 -3.7230
  357SOL     OW 1069   0.971   1.290   0.391  0.1799 -0.0831 -0.3067
  357SOL    HW1 1070   0.958   1.254   0.293 -2.4651  0.0191 -0.1954
  357SOL    HW2 1071   0.980   1.208   0.455  0.1211 -1.8158 -1.5029
  358SOL     OW 1072   1.709   1.492   0.465  0.1659 -0.7713 -0.3650
  358SOL    HW1 1073   1.679   1.469   0.564 -0.2722 -0.4079  0.4735
  358SOL    HW2 1074   1.629   1.494   0.399 -1.1542 -1.6701  0.1296
  359SOL     OW 1075   1.588   2.723   0.111 -0.3129 -0.8701  0.4762
  359SOL    HW1 1076   1.571   2.626   0.088  3.0273  1.4558 -0.5121
  359SOL    HW2 1077   1.501   2.781   0.108 -2.4060  0.7207 -0.0104
  360SOL     OW 1078   0.884   0.579   0.581 -0.3780 -0.6576 -0.3245
  360SOL    HW1 1079   0.801   0.603   0.636  0.7054 -0.2040  4.4676
  360SOL    HW2 1080   0.907   0.477   0.587  1.0945 -0.9046  2.3455
  361SOL     OW 1081   1.201   1.353   0.741  0.3716 -0.3250  0.8456
  361SOL    HW1 1082   1.245   1.390   0.832  1.2621  2.0113 -1.0421
  361SOL    HW2 1083   1.102   1.381   0.723 -1.4933 -0.6417  1.9588
  362SOL     OW 1084   1.345   1.868   0.809  0.1854 -0.0035 -0.0700
  362SOL    HW1 1085   1.381   1.803   0.880  1.1558  0.0566  0.7856
  362SOL    HW2 1086   1.419   1.885   0.737 -1.7922 -0.4479  0.5619
  363SOL     OW 1087   1.206   1.297   2.013 -0.1485 -0.2996  0.0211
  363SOL    HW1 1088   1.283   1.307   2.083  0.2328 -0.6942 -0.6023
  363SOL    HW2 1089   1.182   1.386   1.970 -0.3167 -1.4852  0.2519
  364SOL     OW 1090   0.491   2.309   1.957 -0.2868  0.3992  0.1177
  364SOL    HW1 1091   0.395   2.338   1.938  1.1991 -3.4502 -0.1767
  364SOL    HW2 1092   0.554   2.344   1.883 -0.8114 -0.4975 -2.0486
  365SOL     OW 1093   0.995   1.863   1.440  0.0360  0.0255 -0.0926
  365SOL    HW1 1094   0.900   1.901   1.425 -0.7793  3.1544  2.3101
  365SOL    HW2 1095   1.008   1.762   1.413 -1.4860  0.7501 -1.8616
  366SOL     OW 1096   2.744   2.075   0.453 -0.2411  0.4957 -0.5444
  366SOL    HW1 1097   2.644   2.061   0.430  1.7887 -1.0423 -0.8827
  366SOL    HW2 1098   2.803   2.014   0.393  0.2869 -1.4009 -1.4307
  367SOL     OW 1099   0.917   1.128   0.155 -0.0900 -0.5340 -0.9148
  367SOL    HW1 1100   0.911   1.036   0.202  1.4898  1.4953  0.9929
  367SOL    HW2 1101   0.973   1.121   0.069  0.7291  0.9176 -0.4348
  368SOL     OW 1102   1.456   0.552   0.694 -0.5034 -0.4910  0.1861
  368SOL    HW1 1103   1.419   0.573   0.598  0.3833 -2.8302  1.5264
  368SOL    HW2 1104   1.525   0.619   0.736  0.9885 -1.1945  2.0713
  369SOL     OW 1105   0.213   1.717   0.049  0.1948  0.1557  0.0864
  369SOL    HW1 1106   0.243   1.808   0.088  0.2772  1.3751  1.3326
  369SOL    HW2 1107   0.121   1.682   0.088  0.2583  0.6391 -0.3576
  370SOL     OW 1108   0.458   2.077   1.031  0.3745  0.0575 -0.1576
  370SOL    HW1 1109   0.484   2.174   1.005  1.0807  0.1185 -0.7737
  370SOL    HW2 1110   0.365   2.047   0.993  2.3185  1.1507  0.1141
  371SOL     OW 1111   2.897   2.179   2.676  0.1538 -0.3145 -0.5032
  371SOL    HW1 1112   2.852   2.122   2.748  1.1471  0.8693 -0.5032
  371SOL    HW2 1113   2.990   2.221   2.713  2.6638  0.9557  1.8397
  372SOL     OW 1114   1.118   1.980   1.135  0.4159 -0.0751  0.5224
  372SOL    HW1 1115   1.043   2.008   1.072  5.3266 -0.0114  1.5568
  372SOL    HW2 1116   1.181   2.058   1.159 -0.1178 -1.6914 -0.4772
  373SOL     OW 1117   1.986   2.023   0.859 -0.3507 -0.5326  0.2477
  373SOL    HW1 1118   2.047   1.997   0.941  0.0070 -3.3860  0.4386
  373SOL    HW2 1119   1.882   2.023   0.885 -0.9745 -0.4227  1.9908
  374SOL     OW 1120   1.761   0.478   0.576 -0.0683 -0.3194  0.0152
  374SOL    HW1 1121   1.785   0.411   0.647 -0.0025  2.2844  0.1012
  374SOL    HW2 1122   1.836   0.502   0.502  5.8766  3.2339  0.0159
  375SOL     OW 1123   2.411   2.194   1.120  0.5378  0.3497  0.6264
  375SOL    HW1 1124   2.473   2.158   1.045  0.6007 -0.6030 -0.5813
  375SOL    HW2 1125   2.440   2.159   1.215 -2.1998  1.1794  1.5784
  376SOL     OW 1126   3.025   0.581   1.469  0.3226 -0.0463  0.4755
  376SOL    HW1 1127   3.075   0.640   1.538 -0.6671 -0.0192  0.2243
  376SOL    HW2 1128   2.923   0.576   1.483  0.3753 -3.2910 -1.4483
  377SOL     OW 1129   2.239   2.843   0.361 -0.2859  0.0032  0.5607
  377SOL    HW1 1130   2.226   2.942   0.346 -2.0943 -0.6165 -3.1253
  377SOL    HW2 1131   2.340   2.813   0.358  0.7895 -2.6300 -1.2224
  378SOL     OW 1132   1.842   1.800   2.656  0.1152  0.3683 -0.3048
  378SOL    HW1 1133   1.743   1.777   2.635 -1.1742 -3.1943  0.5613
  378SOL    HW2 1134   1.892   1.717   2.688  4.2762 -1.0277 -1.1195
  379SOL     OW 1135   0.862   0.122   2.749 -0.5656  0.2273 -0.0900
  379SOL    HW1 1136   0.802   0.042   2.712  2.5249  1.4790  0.9076
  379SOL    HW2 1137   0.853   0.213   2.699 -2.1337  0.5962  1.0187
  380SOL     OW 1138   1.516   1.168   0.565 -0.0098 -0.6219  0.0521
  380SOL    HW1 1139   1.412   1.149   0.573 -2.4741 -1.5209  0.4989
  380SOL    HW2 1140   1.569   1.083   0.562  1.5159 -0.6318 -0.1662
  381SOL     OW 1141   1.333   1.169   1.469 -0.0278  0.2281  0.3481
  381SOL    HW1 1142   1.387   1.174   1.384  0.8686  0.1956  1.9769
  381SOL    HW2 1143   1.389   1.181   1.555 -1.3521  1.8769  2.1053
  382SOL     OW 1144   1.788   0.876   0.210 -0.3189  0.4991  0.2057
  382SOL    HW1 1145   1.850   0.855   0.132 -2.4718  0.7937  2.8087
  382SOL    HW2 1146   1.840   0.857   0.298 -0.5285  0.6432 -1.1018
  383SOL     OW 1147   2.639   1.037   1.469 -0.2425 -0.2737 -0.7707
  383SOL    HW1 1148   2.540   1.022   1.435 -1.7639 -0.4581 -3.1052
  383SOL    HW2 1149   2.710   1.004   1.403 -0.9099  0.7591  2.7152
  384SOL     OW 1150   0.940   2.283   0.134 -0.3032  0.1886 -0.0388
  384SOL    HW1 1151   0.903   2.372   0.178  4.0945 -0.0804  0.2108
  384SOL    HW2 1152   0.906   2.196   0.181  0.6191 -1.2072  2.2531
  385SOL     OW 1153   3.001   2.030   1.746 -0.0057  0.1127 -0.4286
  385SOL    HW1 1154   3.083   2.071   1.698 -1.1293 -2.6417 -1.3885
  385SOL    HW2 1155   3.020   1.925   1.744  0.7496 -0.5890  1.2154
  386SOL     OW 1156   0.456   1.134   0.446 -0.1980 -0.4506 -0.4293
  386SOL    HW1 1157   0.442   1.029   0.453 -3.9161 -2.7431 -0.7591
  386SOL    HW2 1158   0.424   1.171   0.358 -0.4866  1.6474  1.4029
  387SOL     OW 1159   1.006   0.366   1.638  0.0757  0.2117 -0.6708
  387SOL    HW1 1160   1.061   0.444   1.606  1.0968  1.3187 -0.8539
  387SOL    HW2 1161   0.953   0.320   1.559 -1.8629  0.4370 -1.1917
  388SOL     OW 1162   1.205   2.654   1.768 -0.1673  0.0751 -0.0911
  388SOL    HW1 1163   1.229   2.642   1.666 -1.4182  2.9931 -1.9339
  388SOL    HW2 1164   1.251   2.585   1.836 -0.9186 -1.1708  1.1173
  389SOL     OW 1165   0.204   3.063   1.142  0.2017  0.3048  0.7539
  389SOL    HW1 1166   0.150   3.071   1.228  1.9094  0.4091 -0.4688
  389SOL    HW2 1167   0.220   2.963   1.110 -3.7414 -1.0041  1.5296
  390SOL     OW 1168   1.053   0.950   1.273  0.0067  0.1435  1.0358
  390SOL    HW1 1169   1.137   0.905   1.315  0.1488 -1.6919  0.7870
  390SOL    HW2 1170   0.993   1.002   1.343 -1.0865  0.0237 -0.6739
  391SOL     OW 1171   2.074   1.182   0.985  0.5146  0.0183 -0.3469
  391SOL    HW1 1172   2.000   1.119   1.006  0.5709  2.4587  0.0067
  391SOL    HW2 1173   2.150   1.128   0.931  2.8062  1.0633 -1.0663
  392SOL     OW 1174   0.893   2.651   3.074 -0.4714  0.1029 -0.2313
  392SOL    HW1 1175   0.806   2.675   3.135 -2.4388 -1.0821  2.4914
  392SOL    HW2 1176   0.986   2.682   3.115  0.8870  1.2431  0.4200
  393SOL     OW 1177   0.409   0.472   2.073 -0.6643 -0.7470 -0.4833
  393SOL    HW1 1178   0.323   0.435   2.026 -2.5370  1.4130 -0.6705
  393SOL    HW2 1179   0.501   0.457   2.022  1.6152 -0.9541  1.1634
  394SOL     OW 1180   2.999   1.779   2.761  0.6644 -0.5743 -0.1871
  394SOL    HW1 1181   3.085   1.810   2.808  0.4064 -0.6373 -2.9330
  394SOL    HW2 1182   2.998   1.802   2.658 -0.2505  1.7251 -2.3520
  395SOL     OW 1183   1.572   1.928   0.672  0.3505 -0.0785 -0.5794
  395SOL    HW1 1184   1.646   1.874   0.626 -0.6051  1.1435 -0.5834
  395SOL    HW2 1185   1.623   1.985   0.744 -0.4473 -1.8999 -0.9043
  396SOL     OW 1186   2.765   1.975   1.340 -0.5658 -0.0315 -0.1772
  396SOL    HW1 1187   2.766   2.016   1.434  1.4168 -0.2599 -0.7521
  396SOL    HW2 1188   2.683   1.914   1.316 -1.1591 -3.0032  1.1266
  397SOL     OW 1189   1.034   2.109   0.622  0.2622  0.2028 -0.1468
  397SOL    HW1 1190   0.968   2.056   0.565  1.2476  2.6337 -0.7217
  397SOL    HW2 1191   0.984   2.197   0.656 -2.5297  2.6253 -0.0752
  398SOL     OW 1192   2.243   0.033   0.990  0.1811  0.1488 -0.1571
  398SOL    HW1 1193   2.231  -0.067   1.015 -1.6615 -3.4563 -0.8152
  398SOL    HW2 1194   2.167   0.091   1.032  1.7241 -0.1083 -1.8593
  399SOL     OW 1195   2.856   2.557   2.775  0.0606 -0.4253  0.3626
  399SOL    HW1 1196   2.826   2.494   2.692  2.0640 -0.0778 -0.1007
  399SOL    HW2 1197   2.836   2.510   2.866 -0.8841  0.6150  1.4413
  400SOL     OW 1198   0.753   1.570   1.271  0.0115 -0.0027 -0.0318
  400SOL    HW1 1199   0.711   1.604   1.357  0.2276 -2.3556 -1.0106
  400SOL    HW2 1200   0.785   1.647   1.209  4.2385  0.4855 -0.8326
  401SOL     OW 1201   1.837   0.166   1.300 -0.3399 -0.2885  0.2625
  401SOL    HW1 1202   1.899   0.180   1.382  0.9579  0.1688 -0.9074
  401SOL    HW2 1203   1.740   0.181   1.323 -1.6769  1.5294 -0.3505
  402SOL     OW 1204   1.333   0.150   3.083 -0.2228 -0.1871 -0.3174
  402SOL    HW1 1205   1.422   0.136   3.023  0.7384 -1.5822  1.7655
  402SOL    HW2 1206   1.316   0.251   3.100  0.6744 -0.2600  0.7553
  403SOL     OW 1207   2.305   1.852   0.909  0.2821  0.0991 -0.1707
  403SOL    HW1 1208   2.384   1.817   0.961 -1.8120  0.1517  0.4001
  403SOL    HW2 1209   2.258   1.935   0.951  0.1485 -0.6867  0.2179
  404SOL     OW 1210   0.200   2.477   2.880 -0.1285 -0.1188  0.5083
  404SOL    HW1 1211   0.289   2.444   2.845 -2.1814  1.3291 -0.6168
  404SOL    HW2 1212   0.195   2.580   2.870  0.6212 -2.5070  0.7220
  405SOL     OW 1213   0.194   2.525   0.602 -0.2083  0.0257  0.1847
  405SOL    HW1 1214   0.145   2.509   0.511 -1.9684  0.2000  1.8447
  405SOL    HW2 1215   0.282   2.582   0.586 -2.7691  0.5450  0.9513
  406SOL     OW 1216   0.050   1.482   3.001 -0.0770 -0.2804 -0.8350
  406SOL    HW1 1217   0.133   1.434   2.954  2.0373 -2.4937 -0.4253
  406SOL    HW2 1218   0.060   1.492   3.108  1.2878 -0.3880 -2.4657
  407SOL     OW 1219   1.560   0.928   0.892  0.3138 -0.0329  0.1043
  407SOL    HW1 1220   1.522   0.924   0.797 -0.6718  0.0870 -0.7394
  407SOL    HW2 1221   1.511   1.008   0.939  0.6521  0.8026 -1.3242
  408SOL     OW 1222   1.593   2.364   1.012  0.1749 -1.3818 -0.0296
  408SOL    HW1 1223   1.610   2.376   0.912 -0.9644 -1.3733  2.2024
  408SOL    HW2 1224   1.620   2.451   1.066 -1.0186  4.7079  0.9084
  409SOL     OW 1225   0.533   0.856   0.770  0.0017  0.9015  0.1326
  409SOL    HW1 1226   0.508   0.885   0.674  0.5543  0.0789  1.3957
  409SOL    HW2 1227   0.538   0.752   0.779  0.1910 -1.6479  0.6955
  410SOL     OW 1228   1.247   2.011   1.405 -0.0604  0.0301 -0.7302
  410SOL    HW1 1229   1.263   2.007   1.514 -1.2867 -2.2798  0.8046
  410SOL    HW2 1230   1.154   1.969   1.387  0.5303  0.3002  3.0960
  411SOL     OW 1231   2.445   1.835   3.067  0.0835  1.0266 -0.2056
  411SOL    HW1 1232   2.375   1.878   3.004 -1.3388  0.6078 -0.7903
  411SOL    HW2 1233   2.524   1.795   3.017  0.8797  0.4072 -0.0791
  412SOL     OW 1234   1.482   2.492   2.232  0.2707  0.4108  0.5058
  412SOL    HW1 1235   1.541   2.558   2.280 -0.0026  2.6234 -1.0586
  412SOL    HW2 1236   1.407   2.441   2.283  0.7212  0.0155  0.1095
  413SOL     OW 1237   0.013   0.261   2.958  0.3182 -0.5923  0.0047
  413SOL    HW1 1238  -0.042   0.183   3.000  0.1273 -2.7125  0.9619
  413SOL    HW2 1239   0.113   0.275   2.995  0.8338  0.2728 -3.9671
  414SOL     OW 1240   1.771   1.460   1.385 -0.1930 -0.1925 -0.2646
  414SOL    HW1 1241   1.685   1.515   1.410 -0.7711 -0.1581 -1.4669
  414SOL    HW2 1242   1.761   1.401   1.305 -1.0245  1.5954  0.8924
  415SOL     OW 1243   0.346   2.263   0.644 -0.0851 -0.6337  0.8684
  415SOL    HW1 1244   0.307   2.358   0.626  0.5859 -2.0990 -0.4635
  415SOL    HW2 1245   0.280   2.184   0.647  0.1679 -2.7873 -1.4894
  416SOL     OW 1246   0.337   1.027   1.060 -0.2144 -0.1063 -0.2726
  416SOL    HW1 1247   0.283   1.004   0.972 -1.6916 -3.4796 -1.1938
  416SOL    HW2 1248   0.430   1.064   1.048 -0.9614  0.8992  2.2403
  417SOL     OW 1249   2.117   2.350   1.874  0.0182 -0.6687 -0.0437
  417SOL    HW1 1250   2.137   2.252   1.891 -0.1486 -0.6132 -0.2759
  417SOL    HW2 1251   2.042   2.382   1.938 -2.7884  0.3220 -1.7235
  418SOL     OW 1252   1.088   0.503   1.265 -0.3832  0.2376  0.2753
  418SOL    HW1 1253   0.987   0.500   1.243  0.6002 -0.4704  0.0894
  418SOL    HW2 1254   1.130   0.413   1.248 -1.8204 -1.3704 -3.7717
  419SOL     OW 1255   1.048   0.325   3.043 -0.1352  0.0993  0.2941
  419SOL    HW1 1256   1.083   0.364   2.950 -0.6536  1.8085  1.0562
  419SOL    HW2 1257   0.967   0.254   3.040  2.3892  0.0472  1.0105
  420SOL     OW 1258   0.201   2.251   0.370 -0.3224 -0.0866  0.0603
  420SOL    HW1 1259   0.190   2.174   0.299 -0.4741 -3.0285  2.4479
  420SOL    HW2 1260   0.110   2.276   0.410  1.2408  0.9048  3.7167
  421SOL     OW 1261   0.312   3.101   0.674 -0.2294  0.0892 -0.4390
  421SOL    HW1 1262   0.259   3.011   0.664  0.6662 -0.8623 -1.3613
  421SOL    HW2 1263   0.418   3.079   0.680  1.6919  0.6586  0.1565
  422SOL     OW 1264   0.988   2.541   1.042 -0.2616  0.3131  0.2605
  422SOL    HW1 1265   1.045   2.579   0.961  3.2239  0.7265  2.1718
  422SOL    HW2 1266   1.024   2.571   1.135  1.3115  1.5684  0.3292
  423SOL     OW 1267   0.077   0.660   1.231  0.3785 -0.4245  0.3516
  423SOL    HW1 1268  -0.001   0.633   1.294  0.8856  2.8421 -2.2924
  423SOL    HW2 1269   0.068   0.764   1.207  0.0102  2.1490  0.1219
  424SOL     OW 1270   0.997   2.208   2.057  0.2405 -0.4860 -0.3264
  424SOL    HW1 1271   0.984   2.302   2.020  1.4531 -0.4997 -1.1829
  424SOL    HW2 1272   0.995   2.208   2.162  0.2116  1.3457 -0.0879
  425SOL     OW 1273   1.964   1.442   1.007  0.3356 -0.1119 -0.3338
  425SOL    HW1 1274   2.021   1.358   1.008  0.0044  1.3056 -0.6242
  425SOL    HW2 1275   2.018   1.516   0.961 -3.6524 -0.9048 -0.2010
  426SOL     OW 1276   1.523   1.572   1.442  0.0085  0.2717 -0.1215
  426SOL    HW1 1277   1.487   1.657   1.389  1.7893  1.3321  0.2312
  426SOL    HW2 1278   1.521   1.570   1.545  0.4012 -2.2979  0.3576
  427SOL     OW 1279   1.924   2.386   2.088 -0.6505 -0.2076  0.1742
  427SOL    HW1 1280   1.951   2.315   2.159 -1.5591 -0.6331 -2.9890
  427SOL    HW2 1281   1.890   2.476   2.125  0.4239 -2.1229 -0.9079
  428SOL     OW 1282   0.871   2.928   0.149 -0.0043  0.1949  0.0163
  428SOL    HW1 1283   0.919   3.011   0.177  0.7883 -0.6745  2.8469
  428SOL    HW2 1284   0.927   2.861   0.093  0.7123 -0.1391  1.7142
  429SOL     OW 1285   1.293   0.065   0.244  0.1266  0.1499  0.3720
  429SOL    HW1 1286   1.376   0.102   0.293 -2.4938 -0.7653  1.2947
  429SOL    HW2 1287   1.288   0.100   0.145  1.4237  2.5990 -1.0652
  430SOL     OW 1288   2.728   1.512   0.369 -0.5483 -0.7877  0.2446
  430SOL    HW1 1289   2.736   1.588   0.302 -1.3385 -2.3120  1.5239
  430SOL    HW2 1290   2.754   1.549   0.464 -0.9264  1.8303  0.9008
  431SOL     OW 1291   2.114   1.639   0.882 -0.4490  0.0888 -0.1082
  431SOL    HW1 1292   2.189   1.708   0.907  2.7260 -2.1779 -4.6761
  431SOL    HW2 1293   2.035   1.689   0.835 -1.8106 -0.0959  1.7286
  432SOL     OW 1294   2.901   2.276   1.239 -0.2392 -0.4950 -0.4391
  432SOL    HW1 1295   2.821   2.208   1.253  0.4174 -1.1865  2.3901
  432SOL    HW2 1296   2.956   2.303   1.323  1.2281 -0.8843  3.5219
  433SOL     OW 1297   1.852   0.391   0.815 -0.0638  0.3034  0.2592
  433SOL    HW1 1298   1.781   0.371   0.892 -0.8878  1.0129  0.8385
  433SOL    HW2 1299   1.933   0.330   0.833  0.0118 -0.9541  1.7055
  434SOL     OW 1300   1.563   0.272   0.725  0.2398  0.4740 -0.0695
  434SOL    HW1 1301   1.529   0.372   0.700  2.2592  3.0453 -0.0474
  434SOL    HW2 1302   1.603   0.268   0.817  2.5198 -0.7857 -0.3309
  435SOL     OW 1303   1.446   1.423   2.138 -0.3135  1.0170 -0.2543
  435SOL    HW1 1304   1.384   1.416   2.217 -0.9874  1.4509  0.0262
  435SOL    HW2 1305   1.459   1.517   2.095  2.2012 -0.7011 -0.9942
  436SOL     OW 1306   1.624   2.693   2.378  0.1373  0.1290 -0.9267
  436SOL    HW1 1307   1.581   2.781   2.421  1.3280 -1.4500 -1.7963
  436SOL    HW2 1308   1.695   2.655   2.440 -0.0119  0.8824 -1.3266
  437SOL     OW 1309   1.103   2.915   0.857  0.0614  0.1033 -0.0432
  437SOL    HW1 1310   1.037   2.984   0.813  0.1694  0.4754  1.3587
  437SOL    HW2 1311   1.086   2.896   0.956  0.0171  1.3801 -2.1619
  438SOL     OW 1312   1.038   2.603   1.334  0.1411 -0.6330  0.6602
  438SOL    HW1 1313   1.070   2.636   1.426  0.1960  2.0187 -1.0875
  438SOL    HW2 1314   1.017   2.502   1.335  3.3263  2.8827 -1.1748
  439SOL     OW 1315   0.728   1.787   1.088 -0.2627  0.4444  0.4255
  439SOL    HW1 1316   0.723   1.888   1.113  0.3053  1.2560  1.1895
  439SOL    HW2 1317   0.631   1.742   1.083 -0.8423 -0.9658  0.0908
  440SOL     OW 1318   1.016   2.470   1.961 -0.3194  0.1559 -0.0760
  440SOL    HW1 1319   0.998   2.517   1.872 -0.4811  2.0491  0.2165
  440SOL    HW2 1320   1.111   2.489   1.997 -2.0738  1.2820  0.1330
  441SOL     OW 1321   0.421   2.786   1.355 -0.6257  0.0300 -0.7248
  441SOL    HW1 1322   0.476   2.698   1.368 -0.8551 -4.2771 -3.1460
  441SOL    HW2 1323   0.403   2.806   1.251  1.3241 -0.2979 -1.4552
  442SOL     OW 1324   2.282   0.665   2.622 -0.2800  0.0142 -0.3837
  442SOL    HW1 1325   2.296   0.580   2.562  0.4632 -0.4787  1.2809
  442SOL    HW2 1326   2.185   0.697   2.630  1.6595 -2.1374  0.0064
  443SOL     OW 1327   1.219   2.693   2.208  0.1878  0.4054 -0.1232
  443SOL    HW1 1328   1.269   2.606   2.231 -2.2762  1.9889 -1.7683
  443SOL    HW2 1329   1.182   2.739   2.290 -2.2920 -3.8950  1.1260
  444SOL     OW 1330   1.097   1.268   1.505  0.3333  1.0158  0.1688
  444SOL    HW1 1331   1.195   1.222   1.485  0.7652 -0.7294 -0.0907
  444SOL    HW2 1332   1.090   1.316   1.597  3.2206 -0.9001  2.4403
  445SOL     OW 1333   3.081   2.406   1.872  0.7301 -0.0459 -0.7701
  445SOL    HW1 1334   3.083   2.488   1.809  0.6791 -1.4214  0.0988
  445SOL    HW2 1335   2.987   2.389   1.918 -0.5464 -1.1632  1.5232
  446SOL     OW 1336   0.196   1.900   2.411  0.1157 -0.2526  0.3811
  446SOL    HW1 1337   0.161   2.003   2.389 -1.2661  3.1650 -0.3143
  446SOL    HW2 1338   0.167   1.839   2.332 -0.0051  0.1572  0.0072
  447SOL     OW 1339   1.235   1.657   1.956 -0.1723  0.0070  0.7733
  447SOL    HW1 1340   1.159   1.727   1.940 -0.4742  0.7929 -1.3041
  447SOL    HW2 1341   1.309   1.707   2.007  0.5503  0.8494 -0.7087
  448SOL     OW 1342   0.094   1.416   2.002 -0.2405  0.6921 -1.0267
  448SOL    HW1 1343   0.122   1.509   1.964  0.7033  0.1542  1.8013
  448SOL    HW2 1344   0.058   1.418   2.100 -1.9904 -0.6700  0.5874
  449SOL     OW 1345   1.738   2.941   0.895 -0.3289 -0.4438  0.2084
  449SOL    HW1 1346   1.748   2.951   1.001 -0.0617 -2.1113  0.4864
  449SOL    HW2 1347   1.808   2.879   0.851  0.5876  2.0517 -1.9957
  450SOL     OW 1348   2.299   1.466   0.760  0.1925 -0.5999  0.2199
  450SOL    HW1 1349   2.254   1.519   0.833  0.6279 -1.9351 -0.9069
  450SOL    HW2 1350   2.276   1.508   0.666 -0.7204  4.2624 -1.1748
  451SOL     OW 1351   1.340   3.078   1.449 -0.7705 -0.8974 -0.3687
  451SOL    HW1 1352   1.286   3.163   1.475  0.4944  3.4831 -0.3362
  451SOL    HW2 1353   1.366   3.017   1.530  1.8125  0.3868 -2.6259
  452SOL     OW 1354   2.664   2.286   2.260 -0.0540 -0.2281  0.0172
  452SOL    HW1 1355   2.642   2.382   2.290  1.3992  0.4419 -0.5914
  452SOL    HW2 1356   2.722   2.236   2.336 -0.9547 -1.6675 -0.3616
  453SOL     OW 1357   2.453   2.677   3.090  0.1319  0.1920  0.0902
  453SOL    HW1 1358   2.365   2.728   3.117 -3.1202  0.3759 -1.5376
  453SOL    HW2 1359   2.449   2.625   3.002 -0.4570  0.8048  2.5418
  454SOL     OW 1360   0.964   1.152   2.051  0.6766  0.7489 -0.0657
  454SOL    HW1 1361   0.956   1.155   1.948 -0.5355 -2.0929 -1.1543
  454SOL    HW2 1362   1.045   1.213   2.077  2.2191  2.2572 -1.1905
  455SOL     OW 1363   0.662   2.672   2.804  0.2106  0.7606 -0.1803
  455SOL    HW1 1364   0.754   2.705   2.758  1.2825 -1.1997  0.1613
  455SOL    HW2 1365   0.672   2.582   2.861  2.1676 -2.3520  0.0210
  456SOL     OW 1366   0.401   1.871   0.195  0.5772 -0.5580 -0.4379
  456SOL    HW1 1367   0.465   1.818   0.255  0.7349 -2.0122 -0.3758
  456SOL    HW2 1368   0.438   1.958   0.151  0.2521 -0.9869 -2.0915
  457SOL     OW 1369   0.393   2.714   0.619 -0.1888 -0.2596 -0.0555
  457SOL    HW1 1370   0.431   2.758   0.529  1.6538  1.6636  1.8964
  457SOL    HW2 1371   0.456   2.726   0.701 -0.6590 -3.2945 -1.6460
  458SOL     OW 1372   2.870   0.038   1.171  0.7961 -0.3720  0.7986
  458SOL    HW1 1373   2.934   0.118   1.160  0.4318  1.3455 -0.5754
  458SOL    HW2 1374   2.886  -0.042   1.105  2.6258 -0.6226  1.2289
  459SOL     OW 1375   2.127   2.613   0.795 -1.0037  0.0222 -0.0712
  459SOL    HW1 1376   2.220   2.655   0.809  0.8913  3.1417  0.1145
  459SOL    HW2 1377   2.111   2.579   0.698  0.4936 -1.6566 -0.0429
  460SOL     OW 1378   1.195   2.133   2.818  0.0061 -0.2547  0.3212
  460SOL    HW1 1379   1.188   2.178   2.725 -0.6632  1.4246 -0.2115
  460SOL    HW2 1380   1.192   2.032   2.798 -1.0315  0.3626 -2.2279
  461SOL     OW 1381   0.532   2.183   2.669  0.6050  0.5200 -0.3434
  461SOL    HW1 1382   0.461   2.118   2.631  2.8651  2.6660 -0.5330
  461SOL    HW2 1383   0.555   2.151   2.766 -0.2778  0.7738  0.1752
  462SOL     OW 1384   0.953   1.095   1.790 -0.5198 -0.3325 -0.8142
  462SOL    HW1 1385   0.988   1.035   1.716  0.6517  1.2267 -0.8975
  462SOL    HW2 1386   0.878   1.157   1.754 -0.8719  0.8903  0.9394
  463SOL     OW 1387   0.458   0.856   0.509  0.5327 -0.1536  0.0098
  463SOL    HW1 1388   0.506   0.769   0.483  0.1891  0.3704  1.2598
  463SOL    HW2 1389   0.351   0.845   0.520 -1.9979 -1.6286  0.7521
  464SOL     OW 1390   0.586   2.276   2.221  0.6504 -0.5189 -0.1830
  464SOL    HW1 1391   0.529   2.322   2.293 -0.7913  0.2889  1.1164
  464SOL    HW2 1392   0.551   2.286   2.123  0.6556  0.5980 -0.9877
  465SOL     OW 1393   0.221   0.932   0.829 -0.1060  0.3409  0.8042
  465SOL    HW1 1394   0.143   0.955   0.764 -3.5921  1.1273 -2.1172
  465SOL    HW2 1395   0.248   0.830   0.827  0.7079 -0.1068  0.5979
  466SOL     OW 1396   1.394   1.123   1.003  0.1091 -0.5410 -0.6028
  466SOL    HW1 1397   1.407   1.223   0.977 -0.3727  0.7966  0.6631
  466SOL    HW2 1398   1.295   1.111   1.032 -0.0697 -2.4493  1.7658
  467SOL     OW 1399   0.621   0.433   2.458  0.1205 -0.1460  0.2925
  467SOL    HW1 1400   0.536   0.486   2.423 -3.4915 -2.1993 -0.6685
  467SOL    HW2 1401   0.605   0.392   2.558  1.1773  0.1804  2.7058
  468SOL     OW 1402   0.440   2.271   1.621 -0.1300  0.0275 -0.5469
  468SOL    HW1 1403   0.506   2.338   1.670  0.4399  1.4736 -1.7429
  468SOL    HW2 1404   0.393   2.305   1.537 -1.6381  1.1258 -0.7467
  469SOL     OW 1405   1.484   1.348   1.266 -0.1161  0.0551 -0.2881
  469SOL    HW1 1406   1.571   1.330   1.208  0.4767  0.0973 -1.4031
  469SOL    HW2 1407   1.489   1.419   1.336  1.5993 -0.9868 -0.9038
  470SOL     OW 1408   3.030   1.866   0.755  0.5817 -0.4777  0.4788
  470SOL    HW1 1409   3.120   1.907   0.718 -1.0838  0.0350  2.7486
  470SOL    HW2 1410   3.042   1.806   0.836  0.0062 -0.8021 -0.3222
  471SOL     OW 1411   2.576   1.334   2.155 -0.1050 -0.5558 -0.2390
  471SOL    HW1 1412   2.555   1.260   2.220  0.3894  1.6585  0.1499
  471SOL    HW2 1413   2.660   1.389   2.181 -0.1643  0.5998 -0.3537
  472SOL     OW 1414   1.163   2.385   0.034 -0.1491  0.2147  0.1349
  472SOL    HW1 1415   1.225   2.409   0.115 -0.0685  1.5156  0.8774
  472SOL    HW2 1416   1.088   2.321   0.059  1.3173 -0.2439  0.2581
  473SOL     OW 1417   1.070   1.503   1.057  0.1240  0.5690 -0.5427
  473SOL    HW1 1418   0.967   1.510   1.031 -1.4737 -0.7175 -0.7937
  473SOL    HW2 1419   1.086   1.458   1.147  0.3072 -0.0679  0.2988
  474SOL     OW 1420   0.656   1.264   0.575  0.6160 -0.5896 -0.6683
  474SOL    HW1 1421   0.567   1.224   0.537  0.3160 -1.4892 -3.1075
  474SOL    HW2 1422   0.720   1.189   0.597  0.7503 -0.2290  1.5978
  475SOL     OW 1423   2.830   0.024   0.821  0.2207  0.1915 -0.4947
  475SOL    HW1 1424   2.875   0.116   0.829  0.3428 -0.5199  1.0265
  475SOL    HW2 1425   2.740   0.037   0.864  1.5633 -0.5479  1.9454
  476SOL     OW 1426   0.975   3.020   1.759 -0.2979  0.8819 -0.5468
  476SOL    HW1 1427   1.069   3.054   1.792  0.7389 -1.0055  2.8514
  476SOL    HW2 1428   0.986   2.963   1.671 -0.0434 -0.0617  0.6462
  477SOL     OW 1429   1.466   0.331   2.432 -0.5589  0.1470  0.1523
  477SOL    HW1 1430   1.443   0.363   2.532  0.2805  0.3356  2.2590
  477SOL    HW2 1431   1.549   0.270   2.430 -0.1878 -0.7833  0.7012
  478SOL     OW 1432   2.236   1.812   0.185  0.6321 -0.2772 -0.8285
  478SOL    HW1 1433   2.183   1.731   0.220 -1.6263  1.0945  2.7019
  478SOL    HW2 1434   2.309   1.794   0.114  0.7874  1.0514  3.0365
  479SOL     OW 1435   1.239   0.976   2.815 -0.3639  0.2810 -0.4618
  479SOL    HW1 1436   1.286   0.963   2.723 -3.9088  0.6123  0.7015
  479SOL    HW2 1437   1.187   0.891   2.845 -1.6852  1.6842 -0.0779
  480SOL     OW 1438   2.652   2.363   0.366  0.6658 -0.2218 -0.1289
  480SOL    HW1 1439   2.636   2.317   0.457  0.5671  1.4555 -1.0646
  480SOL    HW2 1440   2.562   2.404   0.333  1.7365 -0.1059  1.2077
  481SOL     OW 1441   0.933   1.185   0.863  0.5604 -0.0708 -0.1778
  481SOL    HW1 1442   0.932   1.271   0.809 -0.5609 -1.0556  2.1495
  481SOL    HW2 1443   0.994   1.187   0.947 -0.7156  0.2466 -0.9649
  482SOL     OW 1444   1.600   0.287   2.001  0.3321  0.0484  0.2544
  482SOL    HW1 1445   1.602   0.385   1.982  1.4566 -0.0808  0.5781
  482SOL    HW2 1446   1.688   0.246   2.046  1.7062  0.3660  0.1522
  483SOL     OW 1447   0.132   2.266   1.203 -0.4424 -0.0693 -0.1005
  483SOL    HW1 1448   0.079   2.323   1.272 -0.8405  0.7192 -1.4571
  483SOL    HW2 1449   0.179   2.334   1.133  1.1692 -0.9099 -1.5627
  484SOL     OW 1450   1.768   1.125   1.369  0.4086 -0.4340  0.2201
  484SOL    HW1 1451   1.838   1.050   1.391  0.8075  1.8423 -0.4160
  484SOL    HW2 1452   1.764   1.190   1.447  0.0465  0.5749  0.4691
  485SOL     OW 1453   0.750   0.859   1.755  0.0876  0.4591  0.4256
  485SOL    HW1 1454   0.732   0.904   1.659 -0.3817 -0.7736 -3.6418
  485SOL    HW2 1455   0.828   0.900   1.806 -1.5824  1.8907  0.6227
  486SOL     OW 1456   0.808   1.857   2.483 -0.2794  0.3299 -0.3143
  486SOL    HW1 1457   0.872   1.826   2.562  1.1914  2.1494  0.5823
  486SOL    HW2 1458   0.778   1.951   2.498 -0.5212  1.1594 -0.1391
  487SOL     OW 1459   1.755   1.666   0.944  0.7079  0.4583 -0.5361
  487SOL    HW1 1460   1.764   1.563   0.967  0.1333 -3.0249 -1.4842
  487SOL    HW2 1461   1.817   1.690   0.865  0.2470 -1.3670  0.8677
  488SOL     OW 1462   2.942   0.875   2.246  0.3754 -0.0107  0.2952
  488SOL    HW1 1463   2.955   0.776   2.220 -1.0436 -0.1737 -0.0308
  488SOL    HW2 1464   3.006   0.900   2.324  0.5127  0.6047 -0.1142
  489SOL     OW 1465   2.833   0.331   1.292 -0.4723  0.0401  0.5790
  489SOL    HW1 1466   2.794   0.301   1.381 -0.0753 -0.5375  0.8077
  489SOL    HW2 1467   2.931   0.301   1.285 -1.9200 -2.0430 -0.4471
  490SOL     OW 1468   1.417   2.933   2.803  0.4469 -0.4305 -0.2340
  490SOL    HW1 1469   1.462   2.838   2.803 -3.3871 -2.7571 -2.4265
  490SOL    HW2 1470   1.372   2.945   2.712  0.4083 -0.4894  1.8914
  491SOL     OW 1471   1.662   1.509   2.642  0.3483 -0.3586 -0.3687
  491SOL    HW1 1472   1.589   1.482   2.708 -0.5798 -2.6535 -0.5571
  491SOL    HW2 1473   1.753   1.511   2.684 -1.6678  1.2106  0.3946
  492SOL     OW 1474   0.558   2.066   0.617 -0.2254  0.2253 -0.2363
  492SOL    HW1 1475   0.613   2.061   0.709 -0.5509  0.3724  4.4833
  492SOL    HW2 1476   0.493   2.146   0.614  0.0006 -3.2266 -1.5342
  493SOL     OW 1477   0.436   1.406   2.051 -0.2062  0.1165 -0.4468
  493SOL    HW1 1478   0.345   1.447   2.072 -2.0231  1.3394  1.1346
  493SOL    HW2 1479   0.440   1.302   2.061  1.6811  0.8135  1.8019
  494SOL     OW 1480   2.715   2.691   0.077 -0.1955  0.5473  0.4382
  494SOL    HW1 1481   2.721   2.655   0.177  1.6042  0.4696  2.6543
  494SOL    HW2 1482   2.616   2.689   0.045 -1.7246  2.9460 -0.0364
  495SOL     OW 1483   2.593   2.716   2.632  0.1597 -0.7864  0.0174
  495SOL    HW1 1484   2.601   2.613   2.629 -2.0651  3.8350  0.4792
  495SOL    HW2 1485   2.666   2.774   2.583 -0.6247 -0.0063  1.7864
  496SOL     OW 1486   2.071   2.275   0.764  0.4442  0.0044 -0.2875
  496SOL    HW1 1487   2.055   2.321   0.854  2.8883 -0.9985 -0.6030
  496SOL    HW2 1488   2.049   2.172   0.768 -1.2980  0.3392 -1.8509
  497SOL     OW 1489   0.194   2.992   2.335  0.3884 -0.0560  0.0799
  497SOL    HW1 1490   0.166   3.042   2.418  1.2674 -1.9873 -1.1438
  497SOL    HW2 1491   0.259   3.048   2.273  0.0778  0.8870 -0.8251
  498SOL     OW 1492   1.208   1.332   1.233 -0.0565  0.2140  0.1936
  498SOL    HW1 1493   1.307   1.359   1.218 -1.8576 -0.9308 -1.9644
  498SOL    HW2 1494   1.184   1.299   1.330  0.5115 -0.1855 -1.0936
  499SOL     OW 1495   0.618   1.758   0.344  0.0604 -0.4776  0.8682
  499SOL    HW1 1496   0.638   1.677   0.282 -1.8300  0.8588  1.5360
  499SOL    HW2 1497   0.697   1.832   0.349  1.9696  1.3472 -2.5554
  500SOL     OW 1498   1.374   2.892   1.652  0.0950  0.4755 -0.7709
  500SOL    HW1 1499   1.342   2.906   1.753 -0.0125  2.0776  0.8621
  500SOL    HW2 1500   1.445   2.823   1.624 -2.7538 -0.8778 -1.0320
  501SOL     OW 1501   0.797   1.123   2.264  0.0679  0.0654 -0.0677
  501SOL    HW1 1502   0.727   1.047   2.262 -3.0122 -2.7487 -1.2209
  501SOL    HW2 1503   0.828   1.157   2.171  1.1225 -0.8328  1.7730
  502SOL     OW 1504   2.581   0.935   1.730 -0.2004 -0.1727 -0.0065
  502SOL    HW1 1505   2.582   0.948   1.626  1.4642 -0.8108  1.2286
  502SOL    HW2 1506   2.564   0.836   1.755  0.0849  1.6008 -1.8473
  503SOL     OW 1507   1.346   0.138   0.616 -0.1788 -0.2227  0.3365
  503SOL    HW1 1508   1.263   0.200   0.605  1.1872  0.3901  2.6202
  503SOL    HW2 1509   1.433   0.192   0.641 -1.7382 -0.3571  0.9200
  504SOL     OW 1510   3.001   2.334   1.495  0.1764 -0.0549  0.4375
  504SOL    HW1 1511   2.942   2.399   1.550  2.2067  1.3228  1.9761
  504SOL    HW2 1512   3.051   2.269   1.555  2.7089  0.3358 -2.2121
  505SOL     OW 1513   2.292   1.183   1.406  0.4277 -0.1719 -0.0494
  505SOL    HW1 1514   2.268   1.240   1.321  1.1853 -3.2046  1.8417
  505SOL    HW2 1515   2.363   1.230   1.461 -1.4564 -1.6132 -1.7840
  506SOL     OW 1516   1.958   0.202   1.839  0.6950  0.3610  0.4468
  506SOL    HW1 1517   2.039   0.145   1.869 -0.1778 -2.4910  1.3082
  506SOL    HW2 1518   1.942   0.292   1.888 -3.8963  0.0403 -1.2120
  507SOL     OW 1519   0.603   0.685   2.136  0.0949 -0.3823  0.2962
  507SOL    HW1 1520   0.529   0.616   2.115  1.6843 -1.1313  0.5644
  507SOL    HW2 1521   0.684   0.633   2.158 -0.7429  0.3625 -1.8074
  508SOL     OW 1522   0.307   1.655   0.736 -0.4793 -0.2815 -0.0284
  508SOL    HW1 1523   0.364   1.733   0.693 -1.1509  1.6447 -0.0003
  508SOL    HW2 1524   0.248   1.690   0.818 -0.9174 -3.6665  2.1791
  509SOL     OW 1525   1.297   1.174   2.410  0.1580  0.1801 -0.2309
  509SOL    HW1 1526   1.341   1.124   2.329 -3.0410  1.8987  1.2814
  509SOL    HW2 1527   1.193   1.162   2.412 -2.8153 -3.4128 -0.3971
  510SOL     OW 1528   1.282   2.123   2.226  0.5937  0.2740  0.1955
  510SOL    HW1 1529   1.295   2.141   2.127  1.4286 -2.7658  1.4411
  510SOL    HW2 1530   1.216   2.047   2.236 -2.6896  1.0705  0.5904
  511SOL     OW 1531   3.003   2.670   1.295 -0.4044 -0.3832 -0.0541
  511SOL    HW1 1532   3.048   2.644   1.203  3.1064  0.9006 -0.8980
  511SOL    HW2 1533   2.907   2.642   1.306  1.0375  1.4627  2.5567
  512SOL     OW 1534   2.428   0.435   1.375 -0.3834 -0.1921 -0.1919
  512SOL    HW1 1535   2.321   0.441   1.393  1.8222  1.7969  2.7053
  512SOL    HW2 1536   2.454   0.407   1.279 -0.2521  0.7329 -0.7333
  513SOL     OW 1537   2.582   2.108   0.912 -0.5700  0.3206 -0.6085
  513SOL    HW1 1538   2.551   2.201   0.886  0.4847 -0.1555  0.6951
  513SOL    HW2 1539   2.666   2.083   0.860  1.5874 -0.7053 -1.4759
  514SOL     OW 1540   0.677   2.767   0.463 -0.1021 -0.4177  0.3404
  514SOL    HW1 1541   0.674   2.826   0.376  1.5314  1.1945 -0.5234
  514SOL    HW2 1542   0.702   2.824   0.544  1.2213 -1.6697  0.4380
  515SOL     OW 1543   1.922   1.310   2.388  0.1242 -0.2393 -0.0305
  515SOL    HW1 1544   1.956   1.254   2.308 -1.0752  1.1914  0.4847
  515SOL    HW2 1545   1.823   1.288   2.409 -0.0608 -2.3437 -2.9659
  516SOL     OW 1546   0.281   0.288   1.892 -0.7103 -0.0473  0.5773
  516SOL    HW1 1547   0.360   0.219   1.863  1.0426  0.8938 -0.6610
  516SOL    HW2 1548   0.191   0.255   1.856  1.0557 -0.9133  0.7303
  517SOL     OW 1549   0.476   0.085   1.139 -0.8657 -1.1431  0.7967
  517SOL    HW1 1550   0.507   0.118   1.231  1.7669  1.6017 -2.2473
  517SOL    HW2 1551   0.378   0.050   1.137  1.6047 -0.0362 -1.7200
  518SOL     OW 1552   2.156   3.078   1.832  0.6295  0.2004 -0.1232
  518SOL    HW1 1553   2.212   3.168   1.839  0.8379 -1.3383 -0.5448
  518SOL    HW2 1554   2.157   3.028   1.735 -0.8218 -0.6707 -2.3005
  519SOL     OW 1555   2.337   2.120   2.463  0.0863  0.8014 -0.4610
  519SOL    HW1 1556   2.279   2.112   2.553 -0.7456 -0.8138 -0.2195
  519SOL    HW2 1557   2.339   2.219   2.430  0.0668 -2.2100 -0.4216
  520SOL     OW 1558   1.843   2.699   1.736  0.2927 -0.0488 -0.0451
  520SOL    HW1 1559   1.766   2.660   1.793 -0.9102 -1.2679  2.6604
  520SOL    HW2 1560   1.893   2.636   1.671 -1.3207  1.7267 -0.2845
  521SOL     OW 1561   0.554   3.067   2.075  0.0821 -0.2298  0.6054
  521SOL    HW1 1562   0.454   3.092   2.097 -1.0131  0.9628 -0.1180
  521SOL    HW2 1563   0.599   3.033   2.162 -2.5618 -0.1370 -0.2159
  522SOL     OW 1564   0.169   1.821   1.574  0.1955 -0.1039 -0.0911
  522SOL    HW1 1565   0.222   1.888   1.625  2.0507 -2.1350 -0.1123
  522SOL    HW2 1566   0.148   1.854   1.477  3.8251  2.0788 -1.0370
  523SOL     OW 1567   2.183   2.982   1.585  0.1095  0.0825 -0.3779
  523SOL    HW1 1568   2.223   2.893   1.555 -0.5258  1.5573 -1.1546
  523SOL    HW2 1569   2.086   2.975   1.565  0.1006  0.9040  2.6483
  524SOL     OW 1570   0.184   2.758   2.821 -0.4660 -0.7279 -0.4714
  524SOL    HW1 1571   0.143   2.846   2.851  0.2343 -0.8367 -1.9859
  524SOL    HW2 1572   0.283   2.774   2.789 -1.4885 -1.0517 -1.3408
  525SOL     OW 1573   2.232   2.007   0.408  0.0247 -0.4920  0.0292
  525SOL    HW1 1574   2.253   1.960   0.499 -3.5450 -0.3073 -0.0261
  525SOL    HW2 1575   2.252   1.942   0.335  0.8616 -1.1486  0.3856
  526SOL     OW 1576   0.478   1.475   1.731  0.2754  0.3696 -0.6475
  526SOL    HW1 1577   0.488   1.558   1.792 -0.2750  1.1946  0.2315
  526SOL    HW2 1578   0.484   1.380   1.779 -0.8749 -4.7438 -1.3045
  527SOL     OW 1579   1.078   2.878   1.132 -0.5827 -0.3666 -0.3460
  527SOL    HW1 1580   1.124   2.815   1.201 -1.3653  1.2717 -0.1928
  527SOL    HW2 1581   1.102   2.981   1.137  2.4824  0.6610  0.8852
  528SOL     OW 1582   1.365   2.342   0.528  0.2899 -0.0943  0.1763
  528SOL    HW1 1583   1.403   2.242   0.534  2.7567 -1.4678  0.0576
  528SOL    HW2 1584   1.416   2.411   0.584 -1.7884 -0.1033 -1.1414
  529SOL     OW 1585   1.921   1.779   0.742  0.0573  0.1007  0.0230
  529SOL    HW1 1586   1.860   1.764   0.657 -1.1392 -0.5566 -0.3102
  529SOL    HW2 1587   1.916   1.875   0.779  3.1204 -1.0210 -0.0432
  530SOL     OW 1588   0.416   2.590   0.187  0.0439  0.0382  1.2730
  530SOL    HW1 1589   0.405   2.653   0.267 -2.8739  2.3620  0.2833
  530SOL    HW2 1590   0.412   2.489   0.215  1.8851  1.0043  0.2892
  531SOL     OW 1591   1.867   0.989   1.065 -0.0084  0.0267 -0.9017
  531SOL    HW1 1592   1.821   0.923   1.001 -0.1009  2.9352  1.6580
  531SOL    HW2 1593   1.808   1.018   1.142  1.1667 -0.1189 -1.2585
  532SOL     OW 1594   0.373   1.177   0.722  0.3083  0.3003  0.0838
  532SOL    HW1 1595   0.382   1.194   0.623  0.7934 -1.4130 -0.0961
  532SOL    HW2 1596   0.356   1.079   0.747 -0.7035  0.8917 -1.2755
  533SOL     OW 1597   1.741   0.019   2.586  0.2525  0.0756 -0.1315
  533SOL    HW1 1598   1.845   0.013   2.596 -0.4295  1.1030  0.0773
  533SOL    HW2 1599   1.700   0.109   2.633  0.7202  2.4831  2.9702
  534SOL     OW 1600   0.253   0.218   1.452 -0.0755  0.1258 -0.2859
  534SOL    HW1 1601   0.351   0.197   1.428 -1.2943  0.2418 -3.8007
  534SOL    HW2 1602   0.229   0.304   1.500 -0.9930 -2.3259 -0.6617
  535SOL     OW 1603   1.901   0.376   0.228  0.2860 -0.2201 -0.1429
  535SOL    HW1 1604   1.913   0.461   0.294 -2.3188  4.7541  1.6612
  535SOL    HW2 1605   1.815   0.326   0.260 -1.9619 -1.1582 -1.9087
  536SOL     OW 1606   1.407   2.582   0.925  1.0110 -0.0755 -0.1861
  536SOL    HW1 1607   1.429   2.505   0.993  1.1406 -1.1305  2.8005
  536SOL    HW2 1608   1.308   2.588   0.899  1.7372 -4.2530 -1.2328
  537SOL     OW 1609   0.842   0.199   2.349 -0.5370 -0.6149  0.1896
  537SOL    HW1 1610   0.855   0.238   2.253 -2.4734  0.0651  0.8839
  537SOL    HW2 1611   0.766   0.128   2.342  1.7574 -0.9824 -1.4445
  538SOL     OW 1612   1.665   2.307   1.512 -0.0980 -0.3348 -0.1229
  538SOL    HW1 1613   1.613   2.223   1.475 -2.9039 -0.9630  0.4165
  538SOL    HW2 1614   1.743   2.344   1.451  0.3263  2.6251 -1.1621
  539SOL     OW 1615   0.220   1.651   2.700 -0.2155  0.4341  0.6779
  539SOL    HW1 1616   0.129   1.650   2.660  2.4005  0.4577  0.8140
  539SOL    HW2 1617   0.240   1.745   2.737 -1.6258 -1.1344  0.1776
  540SOL     OW 1618   2.733   1.702   1.976 -0.2287  0.2836  0.0784
  540SOL    HW1 1619   2.664   1.629   1.956  0.2001 -0.2806  0.4009
  540SOL    HW2 1620   2.687   1.793   1.971 -1.0634  1.2840  1.1827
  541SOL     OW 1621   0.477   2.335   3.068 -0.1379 -0.5316 -0.1404
  541SOL    HW1 1622   0.500   2.282   3.158  0.4276  0.3040  1.5707
  541SOL    HW2 1623   0.385   2.325   3.030  2.3892  3.6393 -2.1825
  542SOL     OW 1624   2.248   2.589   0.419 -0.0582 -0.5731 -0.3621
  542SOL    HW1 1625   2.214   2.689   0.422 -0.8098  0.2167 -3.2097
  542SOL    HW2 1626   2.177   2.524   0.463  1.2732  0.5699 -0.5515
  543SOL     OW 1627   1.000   1.721   1.674  0.4660 -0.4968 -0.4556
  543SOL    HW1 1628   1.003   1.761   1.771 -2.8317  2.7674  0.0105
  543SOL    HW2 1629   1.019   1.794   1.606 -2.7273 -1.7603 -2.0352
  544SOL     OW 1630   0.979   0.387   0.208  0.6609  0.6178 -0.0573
  544SOL    HW1 1631   0.920   0.321   0.266 -3.5114  2.3615  0.1572
  544SOL    HW2 1632   0.995   0.355   0.106  0.2768 -1.2775 -1.4915
  545SOL     OW 1633   1.100   1.718   0.715 -0.3934  0.4138  0.6563
  545SOL    HW1 1634   1.191   1.734   0.755 -1.0893  0.6669 -1.0332
  545SOL    HW2 1635   1.100   1.701   0.614  0.1366 -0.2946  1.7333
  546SOL     OW 1636   2.610   1.543   3.040  0.2537 -0.2453  0.6749
  546SOL    HW1 1637   2.544   1.521   2.964  0.0776  1.4882 -1.9589
  546SOL    HW2 1638   2.566   1.564   3.133  0.1199  0.9787 -3.2502
  547SOL     OW 1639   0.573   0.053   2.708  0.0225  0.0827 -0.5181
  547SOL    HW1 1640   0.654  -0.011   2.718 -3.0512  1.9694 -0.6174
  547SOL    HW2 1641   0.484   0.011   2.693  2.2078  0.7638 -2.5752
  548SOL     OW 1642   2.027   0.842   3.058 -0.2244  0.2466 -0.3714
  548SOL    HW1 1643   1.935   0.811   3.016 -0.2508 -1.6012 -1.1918
  548SOL    HW2 1644   2.042   0.946   3.073 -1.2091 -1.4022 -1.0340
  549SOL     OW 1645   0.686   0.592   0.196 -0.3187  0.1027  0.1806
  549SOL    HW1 1646   0.649   0.632   0.111 -0.2346 -3.6479 -0.7405
  549SOL    HW2 1647   0.749   0.652   0.254  0.2802 -0.2730 -0.1605
  550SOL     OW 1648   2.490   2.847   2.873  0.1333  0.5748 -0.6765
  550SOL    HW1 1649   2.489   2.804   2.967  2.7397  0.2202  0.7207
  550SOL    HW2 1650   2.525   2.792   2.796 -3.2269 -2.6819  0.6460
  551SOL     OW 1651   0.295   0.870   0.211  0.1289 -0.3112  0.1360
  551SOL    HW1 1652   0.383   0.925   0.198 -0.3303 -1.1232 -0.8603
  551SOL    HW2 1653   0.253   0.867   0.306 -3.2480 -0.0773 -0.1877
  552SOL     OW 1654   0.719   2.908   1.865  0.0441  0.7646  0.2825
  552SOL    HW1 1655   0.647   2.954   1.925 -3.7917 -0.3892  0.1175
  552SOL    HW2 1656   0.807   2.954   1.846 -1.0962 -1.6306  1.4223
  553SOL     OW 1657   0.014   2.521   0.391 -0.8364  0.6006 -0.3360
  553SOL    HW1 1658  -0.053   2.446   0.364  0.5517 -0.6543 -1.2677
  553SOL    HW2 1659  -0.029   2.607   0.430  0.9757 -0.7402  0.2144
  554SOL     OW 1660   2.183   0.359   0.577 -0.3197  0.4660 -0.0664
  554SOL    HW1 1661   2.196   0.341   0.474  0.2038  2.1488 -0.5847
  554SOL    HW2 1662   2.197   0.271   0.633  1.0993 -1.4109  0.5453
  555SOL     OW 1663   0.434   2.905   2.497 -0.1236  0.3684 -0.1307
  555SOL    HW1 1664   0.341   2.938   2.457 -1.9932  0.4774  1.9391
  555SOL    HW2 1665   0.469   2.823   2.442  3.3825  1.4136 -1.5537
  556SOL     OW 1666   0.855   2.397   1.578 -0.2034 -0.0200 -1.1356
  556SOL    HW1 1667   0.900   2.478   1.630 -0.9950 -2.0524  1.9674
  556SOL    HW2 1668   0.901   2.377   1.487  2.1034 -0.7815  0.1319
  557SOL     OW 1669   0.100   2.080   0.154  0.0178 -0.1162 -0.0873
  557SOL    HW1 1670   0.015   2.026   0.124 -0.0488 -0.8197 -0.1679
  557SOL    HW2 1671   0.151   2.131   0.075 -0.4687  3.9908  2.4312
  558SOL     OW 1672   2.931   2.342   0.299 -0.5299  0.1399 -0.3859
  558SOL    HW1 1673   2.832   2.328   0.330 -0.5940  0.3839 -0.6802
  558SOL    HW2 1674   2.947   2.320   0.200 -1.7290  1.4375 -0.1277
  559SOL     OW 1675   0.380   2.301   1.345 -0.0065  0.0821  0.2421
  559SOL    HW1 1676   0.294   2.292   1.285 -2.8471 -0.4907 -0.1111
  559SOL    HW2 1677   0.452   2.229   1.333 -1.0055  2.7394  0.3518
  560SOL     OW 1678   2.077   1.104   3.080 -0.0675  0.1000 -0.0038
  560SOL    HW1 1679   2.019   1.133   3.162  1.5001  1.5857  1.7455
  560SOL    HW2 1680   2.159   1.164   3.061 -1.4236 -0.3916 -1.7002
  561SOL     OW 1681   2.996   1.900   0.042 -0.1507 -0.1536 -0.0850
  561SOL    HW1 1682   2.932   1.814   0.050  1.4995 -1.3214  0.7381
  561SOL    HW2 1683   2.943   1.992   0.021 -0.7630  3.6889  3.0203
  562SOL     OW 1684   0.949   2.219   2.333  0.1497  0.5203  0.2624
  562SOL    HW1 1685   0.857   2.167   2.327 -3.2009 -1.5416  1.6046
  562SOL    HW2 1686   0.962   2.252   2.429  1.6200  0.9642 -3.1984
  563SOL     OW 1687   0.723   2.492   2.581  0.1468  0.2845  0.0647
  563SOL    HW1 1688   0.719   2.390   2.579 -0.9054  3.6543  0.2209
  563SOL    HW2 1689   0.705   2.533   2.673  2.9340  1.8495  0.1352
  564SOL     OW 1690   2.755   1.294   2.911  0.2742  0.1233  0.3615
  564SOL    HW1 1691   2.663   1.324   2.951  1.7010  1.7277 -0.3829
  564SOL    HW2 1692   2.810   1.378   2.877  1.0404  1.1443  0.2970
  565SOL     OW 1693   2.553   1.986   2.568  0.5831 -0.4845 -0.3021
  565SOL    HW1 1694   2.473   2.044   2.532  1.0818  0.0405 -0.7849
  565SOL    HW2 1695   2.598   2.026   2.654  0.4240 -1.1359  0.4312
  566SOL     OW 1696   2.002   2.850   1.408  0.7019  0.1395  0.2720
  566SOL    HW1 1697   1.949   2.768   1.371 -0.8623 -2.7599 -0.7202
  566SOL    HW2 1698   2.051   2.894   1.330 -2.0909  2.0495  0.7877
  567SOL     OW 1699   2.475   0.087   2.237 -0.0124 -0.1456 -0.9663
  567SOL    HW1 1700   2.553   0.155   2.257 -0.2799  0.1895 -0.8881
  567SOL    HW2 1701   2.448   0.078   2.142 -0.6330  0.3462  0.2213
  568SOL     OW 1702   1.544   1.760   0.229  0.4205 -0.0219  0.2050
  568SOL    HW1 1703   1.483   1.841   0.228  1.1668  0.1395 -0.1092
  568SOL    HW2 1704   1.635   1.787   0.192 -1.2141 -0.7583 -0.5449
  569SOL     OW 1705   0.296   0.642   0.870  0.4225  0.3292 -0.2851
  569SOL    HW1 1706   0.388   0.599   0.841  0.2177  1.9016  0.7194
  569SOL    HW2 1707   0.209   0.590   0.836  1.0205  1.6916 -0.7415
  570SOL     OW 1708   0.658   0.750   2.844 -0.1964  0.2475 -0.3650
  570SOL    HW1 1709   0.675   0.747   2.742 -0.6920  0.7364 -0.7324
  570SOL    HW2 1710   0.683   0.841   2.891 -1.9758 -2.4401  1.9251
  571SOL     OW 1711   0.800   3.064   1.064 -0.6943 -0.0015 -0.6782
  571SOL    HW1 1712   0.860   3.119   0.995  0.3027 -0.1221 -3.6767
  571SOL    HW2 1713   0.835   2.967   1.064 -0.6051  0.0192 -0.3053
  572SOL     OW 1714   1.600   2.617   1.213 -0.1739 -0.1932  0.4350
  572SOL    HW1 1715   1.517   2.554   1.234 -1.7468  0.5981  0.8593
  572SOL    HW2 1716   1.571   2.704   1.158  0.9202  2.4396 -0.4992
  573SOL     OW 1717   2.936   0.434   2.020 -0.1041 -0.3828 -0.1601
  573SOL    HW1 1718   2.899   0.339   2.049 -0.5792 -1.3650 -0.3245
  573SOL    HW2 1719   2.863   0.491   1.975 -0.5193  1.5459 -0.2315
  574SOL     OW 1720   0.196   1.733   0.999  0.3557 -0.4789  0.3009
  574SOL    HW1 1721   0.208   1.832   0.967 -4.1054  0.4435 -1.2901
  574SOL    HW2 1722   0.134   1.719   1.084  0.2085 -1.2332  0.1196
  575SOL     OW 1723   0.899   2.120   1.003  0.5442 -0.4084 -0.1142
  575SOL    HW1 1724   0.862   2.179   1.082  2.5782  1.0583  1.2263
  575SOL    HW2 1725   0.936   2.174   0.921 -0.3129  0.7069 -1.3106
  576SOL     OW 1726   2.912   2.970   1.648 -0.9688  0.2449 -0.1030
  576SOL    HW1 1727   2.820   2.940   1.610 -0.6759 -0.2546 -0.5490
  576SOL    HW2 1728   2.949   3.069   1.628  1.9178 -0.0749  3.0968
  577SOL     OW 1729   2.537   1.229   3.097 -0.1649  0.2538  0.4078
  577SOL    HW1 1730   2.581   1.152   3.039  0.1199  1.1673  0.4923
  577SOL    HW2 1731   2.588   1.253   3.182  1.1973 -0.0908 -2.6069
  578SOL     OW 1732   1.335   2.712   2.557  0.4512  0.2891 -0.4044
  578SOL    HW1 1733   1.250   2.747   2.504 -1.1572  2.0747  2.9410
  578SOL    HW2 1734   1.413   2.780   2.568  0.7124  2.6888 -1.4852
  579SOL     OW 1735   0.096   2.492   0.105  0.0802 -0.1271  0.2891
  579SOL    HW1 1736   0.095   2.525   0.199 -0.6488  2.8716 -1.3755
  579SOL    HW2 1737   0.192   2.465   0.076  0.2978 -1.0701  0.0003
  580SOL     OW 1738   1.018   2.640   0.409  0.0983  0.3961  0.6168
  580SOL    HW1 1739   1.106   2.649   0.350  0.1487  2.5888 -0.7906
  580SOL    HW2 1740   0.948   2.583   0.362  0.2369  1.7956  1.8998
  581SOL     OW 1741   1.274   2.580   1.517  0.3839 -0.3369 -0.1972
  581SOL    HW1 1742   1.307   2.485   1.493 -1.5243  0.1824 -0.9761
  581SOL    HW2 1743   1.302   2.651   1.449 -0.0149  1.7884  2.2007
  582SOL     OW 1744   1.505   0.086   1.818 -0.1862 -0.0915 -0.1848
  582SOL    HW1 1745   1.534   0.155   1.894  2.2969 -0.4277 -1.7200
  582SOL    HW2 1746   1.583   0.063   1.757 -1.0278  0.2990  1.3703
  583SOL     OW 1747   2.529   3.012   0.493  0.2901  0.5342 -0.0510
  583SOL    HW1 1748   2.535   2.944   0.413 -1.6365 -0.7938 -0.5364
  583SOL    HW2 1749   2.471   2.976   0.566 -0.1958 -1.1781 -3.8945
  584SOL     OW 1750   1.607   0.961   2.096 -0.0032 -0.6160  0.0949
  584SOL    HW1 1751   1.650   0.956   2.000  0.9280  1.1011 -0.2851
  584SOL    HW2 1752   1.662   0.921   2.171  0.9167  0.4754  1.1367
  585SOL     OW 1753   2.093   2.684   2.960  0.2355  0.0243  0.2118
  585SOL    HW1 1754   2.139   2.602   2.924  0.8061 -1.6433  0.4677
  585SOL    HW2 1755   1.988   2.692   2.945  0.5914 -0.4377 -1.2333
  586SOL     OW 1756   2.750   0.252   1.556  0.4194  0.6559 -0.6021
  586SOL    HW1 1757   2.756   0.348   1.594 -0.2031  0.7922 -2.2803
  586SOL    HW2 1758   2.661   0.212   1.589 -1.3328 -0.1308  1.1713
  587SOL     OW 1759   1.917   1.536   2.758 -0.2541 -0.3362  0.0308
  587SOL    HW1 1760   1.973   1.497   2.681 -0.7425  0.2935 -0.1616
  587SOL    HW2 1761   1.971   1.546   2.844 -0.9344  1.6445 -2.0443
  588SOL     OW 1762   0.488   2.756   2.271 -0.2160 -0.2583  0.0532
  588SOL    HW1 1763   0.411   2.788   2.208 -2.7699 -0.7352 -0.8845
  588SOL    HW2 1764   0.492   2.654   2.282  2.3081 -0.5733  1.4342
  589SOL     OW 1765   2.104   1.422   2.559 -0.1649 -0.4934 -0.3678
  589SOL    HW1 1766   2.028   1.393   2.498  0.2693 -0.9633  0.5875
  589SOL    HW2 1767   2.193   1.367   2.550  0.0259  1.2836  0.3560
  590SOL     OW 1768   2.346   1.639   2.037  0.3681  0.0242  0.0443
  590SOL    HW1 1769   2.423   1.586   1.990  0.5368 -0.4253  0.7448
  590SOL    HW2 1770   2.383   1.704   2.109 -1.6516 -0.2857  1.4375
  591SOL     OW 1771   1.324   2.393   0.264  0.0564  0.2137 -0.1427
  591SOL    HW1 1772   1.371   2.327   0.200 -3.1822 -0.0586 -1.8185
  591SOL    HW2 1773   1.336   2.374   0.365  0.5390 -1.2327 -0.8267
  592SOL     OW 1774   1.760   2.317   0.753  0.2125 -0.2378  0.1887
  592SOL    HW1 1775   1.735   2.363   0.660  0.5932  1.0265 -1.9048
  592SOL    HW2 1776   1.847   2.350   0.792 -0.8337 -0.0486 -0.0044
  593SOL     OW 1777   0.675   0.299   0.118  0.5774 -0.0084  0.2602
  593SOL    HW1 1778   0.715   0.289   0.022  0.0083  2.1691 -2.4039
  593SOL    HW2 1779   0.698   0.386   0.163 -2.2229  2.1993 -1.9766
  594SOL     OW 1780   0.970   1.826   2.713 -0.3806  0.1212  0.0434
  594SOL    HW1 1781   1.069   1.821   2.748  2.4472 -0.2782 -0.1075
  594SOL    HW2 1782   0.921   1.911   2.744  0.1804 -0.0044  0.6093
  595SOL     OW 1783   1.546   0.081   1.035  0.6993  0.3362  0.5345
  595SOL    HW1 1784   1.627   0.025   1.064  0.2757  1.0728  0.5447
  595SOL    HW2 1785   1.508   0.048   0.943  1.2747 -2.3431 -0.1194
  596SOL     OW 1786   3.067   1.481   2.255  0.3788 -0.3548  0.5825
  596SOL    HW1 1787   2.966   1.470   2.223 -2.5169  1.5920 -2.2189
  596SOL    HW2 1788   3.079   1.472   2.355  1.0206 -0.2935 -0.6966
  597SOL     OW 1789   2.045   2.558   1.594  0.1314 -0.4637  0.1855
  597SOL    HW1 1790   2.095   2.483   1.543 -1.5045  1.1769 -1.8797
  597SOL    HW2 1791   2.106   2.603   1.668 -1.6342 -1.0904 -2.2543
  598SOL     OW 1792   2.495   2.969   1.326  0.7770  0.1461 -0.1510
  598SOL    HW1 1793   2.590   2.989   1.370  1.2497 -0.2032 -2.2660
  598SOL    HW2 1794   2.508   2.925   1.233 -0.3625  0.7085  0.7934
  599SOL     OW 1795   2.935   0.410   2.497  0.2867 -0.5633  0.1043
  599SOL    HW1 1796   3.013   0.472   2.475  0.9348  0.6438 -1.5766
  599SOL    HW2 1797   2.844   0.436   2.449  0.4012  0.4150 -0.0153
  600SOL     OW 1798   2.778   1.134   2.690 -0.8170  0.0869 -0.7178
  600SOL    HW1 1799   2.710   1.052   2.692  0.2809 -3.7123  0.8619
  600SOL    HW2 1800   2.778   1.190   2.781 -0.5483  2.2637  0.2471
  601SOL     OW 1801   2.975   1.266   1.917 -0.2918  0.3573  0.0609
  601SOL    HW1 1802   2.904   1.291   1.847  1.5733  0.9484  0.0065
  601SOL    HW2 1803   3.050   1.342   1.915 -0.2047 -0.4750  0.4868
  602SOL     OW 1804   1.421   1.694   2.341 -0.0966 -0.1120 -0.6673
  602SOL    HW1 1805   1.364   1.607   2.324  2.2839  1.3943 -1.4902
  602SOL    HW2 1806   1.516   1.674   2.371 -0.9340  1.2011  0.0839
  603SOL     OW 1807   0.637   1.228   2.719 -0.1785 -0.0696  0.0676
  603SOL    HW1 1808   0.543   1.235   2.671  0.1970  0.9919  1.7230
  603SOL    HW2 1809   0.688   1.139   2.699 -1.8728 -1.3029 -0.8949
  604SOL     OW 1810   2.412   1.010   0.152 -0.5803 -0.4729  0.1111
  604SOL    HW1 1811   2.443   1.087   0.093 -3.1799  0.5573 -2.4610
  604SOL    HW2 1812   2.413   0.919   0.100  2.1561  2.8502 -1.6821
  605SOL     OW 1813   2.548   1.163   1.883 -0.8337 -0.2257 -0.0819
  605SOL    HW1 1814   2.590   1.092   1.822  1.8612  1.7474 -2.0360
  605SOL    HW2 1815   2.575   1.161   1.980 -0.5135  1.6373 -2.8932
  606SOL     OW 1816   1.494   2.480   2.654 -0.6326  0.4357 -0.6972
  606SOL    HW1 1817   1.435   2.559   2.612 -1.2731 -1.8002 -3.2157
  606SOL    HW2 1818   1.479   2.387   2.610  2.0721 -0.5573 -1.0608
  607SOL     OW 1819   1.386   1.645   0.446 -0.1421 -0.0913  0.1781
  607SOL    HW1 1820   1.312   1.710   0.462  1.2497 -0.2110 -2.4203
  607SOL    HW2 1821   1.459   1.679   0.381 -0.2473  0.1340 -0.5719
  608SOL     OW 1822   1.460   2.869   0.388  0.4779  0.7540 -0.0701
  608SOL    HW1 1823   1.536   2.939   0.363  1.6536  0.5731  0.4715
  608SOL    HW2 1824   1.376   2.913   0.432 -0.4965 -0.0272  0.3844
  609SOL     OW 1825   1.318   1.404   0.263  0.2174 -0.0516  0.0306
  609SOL    HW1 1826   1.342   1.453   0.351  1.5603 -1.5420 -4.9683
  609SOL    HW2 1827   1.254   1.457   0.203 -0.5559  0.3594  1.4494
  610SOL     OW 1828   3.009   1.143   2.213  0.0940 -0.2522 -0.4625
  610SOL    HW1 1829   2.973   1.047   2.207  0.7120  2.6827 -1.8286
  610SOL    HW2 1830   3.016   1.188   2.120 -0.7964  0.1371 -0.0811
  611SOL     OW 1831   2.610   0.298   1.126  0.0946 -0.0086 -0.3515
  611SOL    HW1 1832   2.552   0.234   1.189 -2.5715 -0.5165 -2.2901
  611SOL    HW2 1833   2.707   0.314   1.160  0.8775 -0.5096  0.3289
  612SOL     OW 1834   0.774   2.237   1.200 -0.2029  0.6593 -0.8101
  612SOL    HW1 1835   0.692   2.192   1.242 -1.6530 -1.3197 -0.5321
  612SOL    HW2 1836   0.752   2.332   1.160  0.1177  1.6126 -1.3473
  613SOL     OW 1837   0.802   1.432   2.416 -0.5202 -0.2287  0.5455
  613SOL    HW1 1838   0.840   1.490   2.339 -2.0414 -0.2177  0.4303
  613SOL    HW2 1839   0.712   1.388   2.388  0.0777 -1.9208  1.7737
  614SOL     OW 1840   1.595   1.653   1.949 -0.5743  0.1757  0.2944
  614SOL    HW1 1841   1.521   1.720   1.983 -1.0501 -1.2015 -0.5160
  614SOL    HW2 1842   1.675   1.643   2.013 -1.2398  0.9237  0.5775
  615SOL     OW 1843   0.799   1.304   1.714 -0.4899  0.1687  0.2921
  615SOL    HW1 1844   0.719   1.258   1.668  0.9090 -0.3899 -1.9445
  615SOL    HW2 1845   0.859   1.370   1.656 -0.1400  3.7593 -1.0824
  616SOL     OW 1846   1.062   1.626   2.324  0.3804  0.0487 -0.2480
  616SOL    HW1 1847   0.995   1.600   2.246 -0.5963 -0.4169 -2.3824
  616SOL    HW2 1848   1.101   1.724   2.314  2.3254  1.9683 -4.0764
  617SOL     OW 1849   2.949   1.553   1.596 -0.0141  0.1846  0.0642
  617SOL    HW1 1850   2.865   1.489   1.614 -1.1791 -1.0594 -1.4711
  617SOL    HW2 1851   2.985   1.531   1.501 -0.4184  0.6251  2.0716
  618SOL     OW 1852   1.931   2.002   1.368 -0.6085 -0.2411  0.7730
  618SOL    HW1 1853   1.910   2.047   1.279  1.2258 -0.7996  1.2257
  618SOL    HW2 1854   1.977   1.911   1.356  2.1069 -0.7135  0.9503
  619SOL     OW 1855   1.768   0.436   2.361  0.5260  0.2347  0.7664
  619SOL    HW1 1856   1.689   0.482   2.311  1.3749 -3.2125 -0.8775
  619SOL    HW2 1857   1.757   0.331   2.360 -2.1013  1.3488 -0.1627
  620SOL     OW 1858   2.319   2.941   0.685 -0.0927 -0.5935 -0.8560
  620SOL    HW1 1859   2.269   3.032   0.714 -3.2690  2.0737 -0.1776
  620SOL    HW2 1860   2.350   2.885   0.764  0.7162  0.3118 -0.7308
  621SOL     OW 1861   2.153   1.779   1.307  0.5742  0.0045 -0.5304
  621SOL    HW1 1862   2.160   1.802   1.412 -2.1591  1.5153 -1.6756
  621SOL    HW2 1863   2.097   1.696   1.287  2.5398  0.2705 -0.8023
  622SOL     OW 1864   2.266   0.896   1.776  0.2358  0.3623  0.3700
  622SOL    HW1 1865   2.366   0.917   1.754  1.3239  1.7295 -2.4187
  622SOL    HW2 1866   2.250   0.822   1.851  0.9335 -0.3227 -0.4258
  623SOL     OW 1867   1.320   0.819   2.594  0.0589  0.2731 -0.0435
  623SOL    HW1 1868   1.334   0.730   2.649  0.4907 -0.4820  0.9379
  623SOL    HW2 1869   1.254   0.823   2.513  0.2914  2.5246 -0.1177
  624SOL     OW 1870   0.523   0.714   3.066 -0.1013 -0.3312 -0.4831
  624SOL    HW1 1871   0.573   0.708   2.976  1.6485  0.7606  1.2961
  624SOL    HW2 1872   0.543   0.800   3.127  2.1222  0.0178  4.1156
  625SOL     OW 1873   2.802   1.696   1.035 -0.5570 -0.3231  0.2697
  625SOL    HW1 1874   2.709   1.741   1.043  1.8844 -0.4618  0.3075
  625SOL    HW2 1875   2.880   1.756   1.059  0.6840 -1.0751  0.7581
  626SOL     OW 1876   0.586   2.723   1.736 -0.3782 -0.7418 -0.3693
  626SOL    HW1 1877   0.641   2.797   1.788 -0.1975  1.5519 -1.2384
  626SOL    HW2 1878   0.485   2.745   1.741 -1.8880  1.2502 -1.2819
  627SOL     OW 1879   0.712   0.988   1.513  0.2361 -0.1027 -0.2319
  627SOL    HW1 1880   0.688   0.911   1.443  2.2725  0.6351 -1.3559
  627SOL    HW2 1881   0.771   1.065   1.475  0.3873  3.4197  1.8615
  628SOL     OW 1882   2.488   0.121   0.689  0.2007  0.4387  0.2189
  628SOL    HW1 1883   2.535   0.061   0.618  0.0757  1.9156  0.9618
  628SOL    HW2 1884   2.379   0.122   0.693 -2.7539 -1.1091  1.0971
  629SOL     OW 1885   2.000   0.923   1.997  0.1070  0.3018 -0.4742
  629SOL    HW1 1886   2.043   0.954   1.910 -1.0029  1.2483 -0.0718
  629SOL    HW2 1887   1.974   0.998   2.064  1.4448  0.6042  0.9666
  630SOL     OW 1888   2.916   2.307   0.816 -0.2902 -0.2076  0.1735
  630SOL    HW1 1889   2.851   2.389   0.824  0.0641  1.5438 -0.8938
  630SOL    HW2 1890   2.864   2.229   0.771 -0.6104  0.5295  0.3604
  631SOL     OW 1891   3.043   0.171   2.134 -0.4186 -0.7660 -0.2795
  631SOL    HW1 1892   3.100   0.207   2.213 -0.9741 -2.7279 -1.1864
  631SOL    HW2 1893   3.081   0.185   2.035  2.0532 -2.9799 -2.8156
  632SOL     OW 1894   2.409   2.573   0.646 -0.2430  0.0560  0.0600
  632SOL    HW1 1895   2.385   2.658   0.699  1.4300 -1.4034 -2.1373
  632SOL    HW2 1896   2.392   2.581   0.548 -1.0614 -1.4415  3.5522
  633SOL     OW 1897   1.399   1.211   2.656 -0.3849 -0.2772  0.1257
  633SOL    HW1 1898   1.423   1.309   2.679 -0.4615  1.4057 -2.0170
  633SOL    HW2 1899   1.352   1.199   2.567  0.8537  1.3601  1.0931
  634SOL     OW 1900   0.685   2.050   0.863  0.2040  0.2781  0.5909
  634SOL    HW1 1901   0.611   2.057   0.938 -0.1266  0.4143  0.3035
  634SOL    HW2 1902   0.780   2.047   0.907  0.6697  1.4237  1.2065
  635SOL     OW 1903   2.975   2.339   0.026 -0.2562 -0.2448 -0.4032
  635SOL    HW1 1904   2.898   2.394  -0.021 -2.3841  0.8035 -1.5672
  635SOL    HW2 1905   3.056   2.396   0.055 -1.9488  1.3356  0.7287
  636SOL     OW 1906   2.322   2.748   1.985 -0.0328 -0.2471  0.4633
  636SOL    HW1 1907   2.318   2.852   2.012  4.9544  1.4438 -0.2555
  636SOL    HW2 1908   2.263   2.694   2.047  0.5162  1.0337  0.0966
  637SOL     OW 1909   2.690   0.599   1.974 -0.6816 -0.6227 -0.0901
  637SOL    HW1 1910   2.624   0.582   1.893  0.2147 -0.1734 -0.2137
  637SOL    HW2 1911   2.687   0.697   2.000 -0.0811  1.7473  0.2048
  638SOL     OW 1912   2.425   1.817   1.274 -0.1105  0.0263 -0.5586
  638SOL    HW1 1913   2.322   1.806   1.275  1.8734  2.1538  1.1576
  638SOL    HW2 1914   2.468   1.770   1.354 -0.2511  0.6362  0.8205
  639SOL     OW 1915   1.295   2.076   1.717 -0.7720 -0.3916  0.0231
  639SOL    HW1 1916   1.312   2.161   1.657 -0.4653 -0.2892  1.3718
  639SOL    HW2 1917   1.199   2.066   1.747  1.4875 -0.8672 -0.6658
  640SOL     OW 1918   0.203   1.172   1.572 -0.1802 -0.3082  0.2246
  640SOL    HW1 1919   0.195   1.218   1.663 -1.2428 -0.8578 -1.4510
  640SOL    HW2 1920   0.290   1.119   1.567 -3.6608  0.6868 -0.4943
  641SOL     OW 1921   2.011   0.236   1.532  0.0680 -0.3348  0.7487
  641SOL    HW1 1922   1.981   0.286   1.617  1.0375  0.6256 -0.0427
  641SOL    HW2 1923   2.107   0.196   1.539  1.5387 -2.3050  2.1434
  642SOL     OW 1924   2.014   3.075   0.325 -0.1429 -0.2636 -0.1343
  642SOL    HW1 1925   2.104   3.124   0.338 -0.1690  0.4406 -1.1790
  642SOL    HW2 1926   1.944   3.107   0.395 -0.9874  0.4808 -1.3428
  643SOL     OW 1927   2.928   1.794   2.145 -0.2610  0.3226 -0.0386
  643SOL    HW1 1928   2.885   1.736   2.067 -0.8495 -1.8059  2.1554
  643SOL    HW2 1929   2.975   1.879   2.109 -1.1848  0.1061  0.9585
  644SOL     OW 1930   2.191   2.378   1.184 -0.4159 -0.7144 -0.3228
  644SOL    HW1 1931   2.263   2.312   1.149  1.2824 -0.2211 -1.5218
  644SOL    HW2 1932   2.192   2.385   1.287  2.1419  2.2855 -0.7876
  645SOL     OW 1933   0.616   0.833   1.285 -0.3457 -0.3746 -0.3358
  645SOL    HW1 1934   0.514   0.855   1.284  1.1871  0.0533  0.0966
  645SOL    HW2 1935   0.663   0.831   1.188  3.4936 -1.2339  0.7584
  646SOL     OW 1936   1.422   1.828   2.096  0.4878 -0.2129  0.5800
  646SOL    HW1 1937   1.415   1.930   2.082  0.9322 -0.1783  1.5330
  646SOL    HW2 1938   1.437   1.800   2.196 -0.2666 -0.6100 -0.0174
  647SOL     OW 1939   0.793   1.044   0.681 -0.0098  0.2243  0.2775
  647SOL    HW1 1940   0.850   1.091   0.749 -0.4607  1.8431 -0.5128
  647SOL    HW2 1941   0.733   0.972   0.719 -0.0352  2.7737  1.9282
  648SOL     OW 1942   0.114   0.258   0.273 -0.8066  0.0998  0.0908
  648SOL    HW1 1943   0.152   0.188   0.208  1.8753 -1.7730 -0.2152
  648SOL    HW2 1944   0.131   0.351   0.235  1.3950 -2.5422  0.8972
  649SOL     OW 1945   3.024   0.242   0.845 -0.4402 -0.2432 -0.3695
  649SOL    HW1 1946   3.119   0.194   0.863  1.7778  0.1511 -1.3086
  649SOL    HW2 1947   3.034   0.345   0.843  0.7636  0.7594  0.3364
  650SOL     OW 1948   2.768   0.701   1.510  0.5006  0.8768  0.1087
  650SOL    HW1 1949   2.662   0.704   1.510 -0.8277  1.8273 -1.6385
  650SOL    HW2 1950   2.806   0.771   1.442 -0.1691 -0.0180 -0.6275
  651SOL     OW 1951   0.911   1.496   1.534 -0.3868 -0.3149 -0.1686
  651SOL    HW1 1952   0.954   1.567   1.600 -1.0237 -1.9359  1.6437
  651SOL    HW2 1953   0.988   1.457   1.481 -0.0186  0.4788 -0.6050
  652SOL     OW 1954   2.362   2.383   2.412 -0.5631 -0.4052  0.3252
  652SOL    HW1 1955   2.279   2.434   2.448 -0.0128  1.4228  2.4541
  652SOL    HW2 1956   2.407   2.437   2.336  0.8063  2.5800  1.6087
  653SOL     OW 1957   2.671   1.220   0.235  0.5434  0.3140  0.1438
  653SOL    HW1 1958   2.681   1.315   0.278 -0.4438 -1.4211  0.6403
  653SOL    HW2 1959   2.754   1.155   0.255 -1.0730 -0.7918  0.1599
  654SOL     OW 1960   1.241   2.233   1.261 -0.4319 -0.4127 -0.6767
  654SOL    HW1 1961   1.264   2.148   1.321 -1.8428  0.8816 -0.7505
  654SOL    HW2 1962   1.291   2.231   1.169 -1.2685 -0.5164 -2.3335
  655SOL     OW 1963   0.149   0.931   1.868  0.4626 -0.1166  0.3009
  655SOL    HW1 1964   0.212   0.868   1.813 -0.2238 -0.5672  1.7314
  655SOL    HW2 1965   0.173   1.033   1.863  1.1701  1.0723  1.6972
  656SOL     OW 1966   2.573   2.441   2.600 -0.0160  0.4516  0.3728
  656SOL    HW1 1967   2.671   2.439   2.554  0.0377  1.7989 -1.9653
  656SOL    HW2 1968   2.498   2.402   2.542 -0.4132 -0.1980  0.9889
  657SOL     OW 1969   2.982   0.988   1.917 -0.3227  0.2533 -0.2913
  657SOL    HW1 1970   2.996   1.090   1.929  2.3717 -2.5242 -1.5035
  657SOL    HW2 1971   3.073   0.945   1.897  1.0906 -0.1543 -0.2184
  658SOL     OW 1972   1.689   0.184   2.366 -0.6102 -0.5377  0.4685
  658SOL    HW1 1973   1.700   0.104   2.429 -0.7290  0.5514 -0.8756
  658SOL    HW2 1974   1.716   0.165   2.266  0.7570  1.5078 -1.5587
  659SOL     OW 1975   1.388   0.629   2.842 -0.0491 -0.2504  0.0968
  659SOL    HW1 1976   1.442   0.716   2.873  0.0522  0.4783 -2.4542
  659SOL    HW2 1977   1.287   0.642   2.866 -2.2381 -0.2917  0.4686
  660SOL     OW 1978   1.415   0.339   1.444 -0.5467 -0.4971 -0.5186
  660SOL    HW1 1979   1.395   0.350   1.548  0.3222 -2.5341  2.6287
  660SOL    HW2 1980   1.467   0.253   1.416 -2.1728 -1.5648 -0.3543
  661SOL     OW 1981   2.330   1.202   0.658  0.3381 -0.0932  0.0049
  661SOL    HW1 1982   2.388   1.201   0.571  1.0807  0.2315  0.0136
  661SOL    HW2 1983   2.341   1.295   0.706  0.3210 -1.8260 -1.9405
  662SOL     OW 1984   1.377   0.372   1.719  0.1684 -0.1533  0.1626
  662SOL    HW1 1985   1.299   0.347   1.782 -0.1998 -1.9234  0.4345
  662SOL    HW2 1986   1.405   0.472   1.734  1.2199 -0.0282 -0.2527
  663SOL     OW 1987   0.851   1.549   2.175 -0.8905 -0.2254  0.7339
  663SOL    HW1 1988   0.791   1.617   2.212 -1.6066  2.3741  1.4596
  663SOL    HW2 1989   0.806   1.492   2.103  2.1820  1.2093 -0.0927
  664SOL     OW 1990   1.609   2.055   1.368  0.2000 -0.4108  0.3277
  664SOL    HW1 1991   1.540   2.004   1.431 -0.8369  1.6443  1.9029
  664SOL    HW2 1992   1.704   2.029   1.387 -2.3466 -3.1169 -1.3925
  665SOL     OW 1993   2.242   0.695   2.001  0.1590 -0.3504  0.0840
  665SOL    HW1 1994   2.146   0.701   2.040 -2.3461  1.1733  1.7931
  665SOL    HW2 1995   2.313   0.677   2.073  1.5886 -0.6271 -0.8341
  666SOL     OW 1996   0.455   2.332   0.309 -0.9001  0.0676 -0.4777
  666SOL    HW1 1997   0.501   2.397   0.379 -1.9253  2.6666  1.3810
  666SOL    HW2 1998   0.363   2.296   0.343  0.4408 -1.7864  1.7340
  667SOL     OW 1999   2.058   0.192   1.126  0.2599  0.2819  0.6437
  667SOL    HW1 2000   2.060   0.298   1.118  0.4305 -0.1010 -0.5051
  667SOL    HW2 2001   1.992   0.164   1.203  1.7670 -1.4982  2.1221
  668SOL     OW 2002   2.064   0.464   1.122  0.0623 -0.0755 -0.6226
  668SOL    HW1 2003   2.126   0.490   1.040 -0.6348 -2.7426  0.5631
  668SOL    HW2 2004   2.100   0.504   1.215  0.7892  2.0101  0.6289
  669SOL     OW 2005   3.069   2.134   1.012 -0.4102  0.3996  0.1267
  669SOL    HW1 2006   3.021   2.203   0.951  3.0063 -0.1102  2.2376
  669SOL    HW2 2007   3.111   2.174   1.097 -0.0357 -3.8087  0.0436
  670SOL     OW 2008   2.884   2.331   2.066 -0.4788  0.2267 -0.1405
  670SOL    HW1 2009   2.815   2.279   2.117 -0.0766  0.1352 -0.3075
  670SOL    HW2 2010   2.859   2.431   2.076  0.1290 -3.5299 -0.8293
  671SOL     OW 2011   1.729   1.780   1.450 -0.5621 -0.0065  0.0943
  671SOL    HW1 2012   1.744   1.752   1.354  1.5508 -1.2603  1.1634
  671SOL    HW2 2013   1.630   1.796   1.477 -0.6559 -0.8583  1.0726
  672SOL     OW 2014   0.435   0.601   2.371  0.3435 -0.0500 -0.4373
  672SOL    HW1 2015   0.492   0.635   2.294 -2.1042  1.1706 -0.3161
  672SOL    HW2 2016   0.348   0.659   2.385 -1.7950  0.6062 -0.3945
  673SOL     OW 2017   0.142   1.213   1.151 -0.3201  0.1663 -0.1009
  673SOL    HW1 2018   0.159   1.285   1.224  0.8851 -0.8000 -0.0411
  673SOL    HW2 2019   0.226   1.160   1.128 -0.7676  1.1958  0.0598
  674SOL     OW 2020   1.676   3.008   0.309 -0.1616 -0.6702 -0.3585
  674SOL    HW1 2021   1.649   3.111   0.300 -0.6651  0.2420  0.6157
  674SOL    HW2 2022   1.741   2.973   0.239  2.8905 -0.1633 -1.2456
  675SOL     OW 2023   1.734   0.809   2.291 -0.4140 -0.0192  0.4766
  675SOL    HW1 2024   1.841   0.804   2.287  1.6179  1.2383  0.1528
  675SOL    HW2 2025   1.682   0.720   2.271 -0.3604  0.6317  0.9501
  676SOL     OW 2026   2.547   1.497   1.930 -0.0519  0.1077 -0.2913
  676SOL    HW1 2027   2.506   1.453   1.850  4.2724 -1.1249  1.4343
  676SOL    HW2 2028   2.552   1.427   2.010 -0.8925 -1.1228  0.4844
  677SOL     OW 2029   1.890   0.668   0.927  0.4815 -0.4066 -0.4605
  677SOL    HW1 2030   1.787   0.668   0.964 -0.8865 -0.6931 -0.9199
  677SOL    HW2 2031   1.910   0.579   0.874 -1.1269 -0.3316  0.4562
  678SOL     OW 2032   0.067   0.733   1.632  0.1143  0.2348  0.2158
  678SOL    HW1 2033   0.164   0.747   1.661  0.3200 -2.5260  0.2027
  678SOL    HW2 2034   0.006   0.700   1.712 -0.9525 -0.2583 -1.7056
  679SOL     OW 2035   2.515   1.221   1.213 -0.2697 -0.2944 -0.3727
  679SOL    HW1 2036   2.417   1.247   1.191 -1.9145 -0.8263 -3.9268
  679SOL    HW2 2037   2.522   1.119   1.194  0.4247  0.7309  0.1176
  680SOL     OW 2038   2.803   0.503   1.699 -0.3106  0.0567 -0.2819
  680SOL    HW1 2039   2.771   0.577   1.631  0.6927  0.1660  3.5635
  680SOL    HW2 2040   2.889   0.530   1.752 -0.1395  2.1589  0.3677
  681SOL     OW 2041   2.978   0.118   1.591  0.2314  0.0788  0.3342
  681SOL    HW1 2042   3.050   0.116   1.508 -0.6485  0.4785 -2.5581
  681SOL    HW2 2043   2.883   0.156   1.567  3.1471  1.0091 -2.1704
  682SOL     OW 2044   0.771   0.047   1.319  0.3670 -0.2974  0.4715
  682SOL    HW1 2045   0.687   0.014   1.377 -1.0333 -2.3035  1.0022
  682SOL    HW2 2046   0.778   0.013   1.217 -1.3653 -0.2275 -0.9859
  683SOL     OW 2047   1.359   0.224   2.179 -0.2473  0.1943  0.0968
  683SOL    HW1 2048   1.390   0.257   2.274 -2.2608  2.2835  0.1291
  683SOL    HW2 2049   1.426   0.262   2.107 -0.7276 -4.5485 -3.2897
  684SOL     OW 2050   1.488   2.081   0.463 -0.4984  0.3346  0.2610
  684SOL    HW1 2051   1.520   2.014   0.535  1.6159 -0.4291 -2.5398
  684SOL    HW2 2052   1.393   2.058   0.422 -2.5754  1.6561 -3.0637
  685SOL     OW 2053   2.164   2.071   1.923  0.4429 -0.1219 -0.2049
  685SOL    HW1 2054   2.226   2.072   1.837  0.1042 -1.4785  1.1365
  685SOL    HW2 2055   2.207   2.045   2.009 -3.0703  2.9910  0.5033
  686SOL     OW 2056   1.503   1.847   2.760 -0.3317 -0.6690 -0.4539
  686SOL    HW1 2057   1.516   1.775   2.835  1.3609  0.6367 -0.3774
  686SOL    HW2 2058   1.469   1.805   2.674 -1.0869  0.2988 -0.4496
  687SOL     OW 2059   1.341   2.472   1.945 -0.4762  0.2169 -0.1956
  687SOL    HW1 2060   1.318   2.369   1.937  1.5861 -3.2810 -0.6481
  687SOL    HW2 2061   1.370   2.492   2.042 -0.5403 -2.2805 -0.5315
  688SOL     OW 2062   2.008   1.498   1.774  0.0926 -0.1288 -0.3027
  688SOL    HW1 2063   2.075   1.579   1.781  5.1462 -1.9807  1.8447
  688SOL    HW2 2064   2.025   1.450   1.683 -2.7294 -2.4186  1.5306
  689SOL     OW 2065   2.378   1.076   2.773 -0.4253  0.2044 -1.0383
  689SOL    HW1 2066   2.281   1.043   2.784  0.0700 -0.7695  3.0047
  689SOL    HW2 2067   2.437   1.037   2.845 -0.4443  0.3484 -1.7016
  690SOL     OW 2068   2.232   2.797   0.072 -0.0232 -0.7652  0.0286
  690SOL    HW1 2069   2.156   2.744   0.012 -0.9660 -0.9329  0.4142
  690SOL    HW2 2070   2.206   2.815   0.170 -0.5999 -1.1893 -0.0887
  691SOL     OW 2071   2.592   0.417   2.140 -0.7407  0.2938  0.5132
  691SOL    HW1 2072   2.652   0.333   2.117  0.3738  0.4110 -0.3594
  691SOL    HW2 2073   2.624   0.506   2.099  0.5316  2.4030 -2.5842
  692SOL     OW 2074   2.703   1.276   0.749  0.1648  0.2102  0.1594
  692SOL    HW1 2075   2.742   1.309   0.658  2.2568 -1.7656 -0.7839
  692SOL    HW2 2076   2.754   1.318   0.827 -0.6111  1.4651 -0.9651
  693SOL     OW 2077   2.836   2.921   0.646  0.3990  0.4432 -0.2302
  693SOL    HW1 2078   2.825   2.996   0.720  0.0636 -0.0937  1.7485
  693SOL    HW2 2079   2.846   2.953   0.545 -1.6411 -0.4520 -1.6950
  694SOL     OW 2080   2.417   2.204   0.087 -0.2209 -0.3056 -0.1939
  694SOL    HW1 2081   2.405   2.269   0.165  0.2955  1.0482  0.1343
  694SOL    HW2 2082   2.339   2.135   0.079  0.2393 -2.9093  2.3113
  695SOL     OW 2083   0.550   3.006   1.475  0.3255  0.4144 -0.3595
  695SOL    HW1 2084   0.495   2.926   1.442 -1.0501  1.1579  0.4009
  695SOL    HW2 2085   0.496   3.069   1.538 -0.9685  1.7487 -1.0894
  696SOL     OW 2086   2.829   2.077   0.720 -0.1542 -0.2334  0.0101
  696SOL    HW1 2087   2.893   1.998   0.740  0.1065  0.1511 -0.2206
  696SOL    HW2 2088   2.786   2.077   0.624 -0.2225  0.4841 -1.7134
  697SOL     OW 2089   1.591   1.998   1.856  0.0276  0.2312  0.0265
  697SOL    HW1 2090   1.609   1.892   1.853  1.8318 -1.5050  0.2975
  697SOL    HW2 2091   1.681   2.050   1.860  0.7593  0.2730 -0.8322
  698SOL     OW 2092   2.930   0.403   2.777 -0.2708  0.3670  0.2898
  698SOL    HW1 2093   2.925   0.387   2.674 -1.3218 -1.3083 -0.5118
  698SOL    HW2 2094   2.973   0.319   2.816 -2.0517  2.0000  0.0746
  699SOL     OW 2095   1.555   0.082   2.908 -0.1539  0.5468  0.0260
  699SOL    HW1 2096   1.521  -0.009   2.877 -1.2151  0.7789 -1.2795
  699SOL    HW2 2097   1.601   0.138   2.833 -1.9197 -0.4434  0.9031
  700SOL     OW 2098   1.002   2.332   1.340  0.1411  0.3979  0.1917
  700SOL    HW1 2099   1.096   2.296   1.311  0.6744  0.3934  1.6596
  700SOL    HW2 2100   0.921   2.296   1.281  1.8361  0.3669 -1.6776
  701SOL     OW 2101   1.870   2.915   3.060 -0.4031  0.3030 -0.1625
  701SOL    HW1 2102   1.857   2.845   3.135  3.2764 -1.2671  1.0767
  701SOL    HW2 2103   1.924   2.994   3.094 -2.7041  2.0354 -0.4828
  702SOL     OW 2104   2.097   1.307   1.967  0.3014 -0.2958  0.1803
  702SOL    HW1 2105   2.184   1.264   1.930 -0.1175 -0.8601 -2.7457
  702SOL    HW2 2106   2.074   1.388   1.905  0.1228 -0.1147  3.4139
  703SOL     OW 2107   1.925   0.911   1.434 -0.3792  0.1437  0.0588
  703SOL    HW1 2108   1.902   0.834   1.498 -0.1425 -0.8850 -2.2437
  703SOL    HW2 2109   2.007   0.958   1.471 -0.1077 -0.4659 -0.4373
  704SOL     OW 2110   0.304   2.033   1.714  0.3935 -0.2253  0.3314
  704SOL    HW1 2111   0.341   1.998   1.807 -0.4858  2.2214  0.1239
  704SOL    HW2 2112   0.362   2.108   1.680 -1.1855 -0.3198  2.7355
  705SOL     OW 2113   2.532   1.556   0.899  0.8558 -0.0734  0.4545
  705SOL    HW1 2114   2.471   1.495   0.845 -0.9905 -0.2434 -0.5152
  705SOL    HW2 2115   2.632   1.525   0.906  0.6767  0.7317  1.4624
  706SOL     OW 2116   0.624   1.671   1.894 -0.8388 -0.2708 -0.0827
  706SOL    HW1 2117   0.654   1.583   1.938 -0.5024 -2.4864 -0.7183
  706SOL    HW2 2118   0.697   1.742   1.899 -0.3386 -2.2675 -2.2415
  707SOL     OW 2119   2.297   1.160   1.861 -0.4726 -0.3286 -0.3410
  707SOL    HW1 2120   2.400   1.172   1.882  0.1652  0.3834  0.4663
  707SOL    HW2 2121   2.275   1.060   1.856  2.4401 -0.4116  1.7651
  708SOL     OW 2122   3.047   0.559   3.074  0.4338 -0.0791  0.4773
  708SOL    HW1 2123   3.032   0.632   3.004  1.0519  1.2069 -1.2042
  708SOL    HW2 2124   3.026   0.465   3.035  3.4171 -1.4583 -0.4881
  709SOL     OW 2125   1.851   1.842   0.275  0.0748  0.0520 -0.8688
  709SOL    HW1 2126   1.879   1.939   0.297 -2.1654 -0.1682 -0.7676
  709SOL    HW2 2127   1.840   1.826   0.173 -0.4170 -0.9232  1.8502
  710SOL     OW 2128   1.666   1.617   2.392 -0.2458  0.1544  0.3117
  710SOL    HW1 2129   1.742   1.594   2.323  2.3413 -1.3754  1.9412
  710SOL    HW2 2130   1.679   1.566   2.482  1.1154  2.0808 -0.1591
  711SOL     OW 2131   2.557   2.908   1.057 -0.1751 -0.5327  0.2868
  711SOL    HW1 2132   2.533   2.996   1.009 -2.4700 -1.0321 -0.7252
  711SOL    HW2 2133   2.657   2.899   1.081  1.2579  0.2479  0.8390
  712SOL     OW 2134   1.390   2.201   1.955 -0.0186  0.2392 -0.0162
  712SOL    HW1 2135   1.494   2.222   1.948 -0.6980  2.4067 -0.8786
  712SOL    HW2 2136   1.361   2.122   1.890  0.7582 -1.0843  0.3562
  713SOL     OW 2137   2.831   1.443   2.525  0.4627  0.6278  0.0542
  713SOL    HW1 2138   2.838   1.341   2.497  0.5556 -0.0201 -0.9680
  713SOL    HW2 2139   2.736   1.462   2.563 -1.0229 -0.2802 -0.0528
  714SOL     OW 2140   2.676   0.479   2.410  0.2072  0.5542  0.9049
  714SOL    HW1 2141   2.614   0.458   2.495 -0.0230  0.1130  1.6232
  714SOL    HW2 2142   2.629   0.453   2.320 -1.5672 -0.2570  0.9529
  715SOL     OW 2143   1.566   2.035   1.107  0.5229  0.6106 -0.4822
  715SOL    HW1 2144   1.480   2.086   1.070  1.3013 -0.7567 -1.2188
  715SOL    HW2 2145   1.573   2.034   1.211 -0.7358  0.1249  0.9445
  716SOL     OW 2146   1.165   0.179   1.491 -0.2551  1.0534 -0.4898
  716SOL    HW1 2147   1.078   0.197   1.441  1.4333 -1.0059  3.9501
  716SOL    HW2 2148   1.248   0.243   1.471  1.6029 -1.8189  1.4168
  717SOL     OW 2149   1.167   0.567   1.533 -0.0777  0.1521 -0.2992
  717SOL    HW1 2150   1.248   0.606   1.574 -4.0680 -1.6065  0.8652
  717SOL    HW2 2151   1.179   0.534   1.437 -1.2557 -0.3801  0.2346
  718SOL     OW 2152   0.685   0.884   0.999 -0.0315  0.0615 -0.1384
  718SOL    HW1 2153   0.628   0.881   0.909 -3.0781  0.3344  1.5002
  718SOL    HW2 2154   0.695   0.981   1.033 -1.7469 -3.2655  1.0872
  719SOL     OW 2155   0.633   1.690   2.336 -0.3173 -0.0361 -0.3659
  719SOL    HW1 2156   0.695   1.760   2.385  4.0133  1.1022  1.4786
  719SOL    HW2 2157   0.549   1.664   2.396 -1.0995 -1.4683 -2.0046
  720SOL     OW 2158   2.175   1.127   0.286  0.2624  0.1102 -0.3656
  720SOL    HW1 2159   2.239   1.054   0.245 -1.1263  2.0727  0.3868
  720SOL    HW2 2160   2.152   1.111   0.390  1.3970  0.9216 -1.0189
  721SOL     OW 2161   2.297   3.005   2.070 -0.1209  0.2681  0.2762
  721SOL    HW1 2162   2.240   3.030   1.986 -4.2739 -2.7721 -0.8731
  721SOL    HW2 2163   2.263   3.064   2.150  1.9877 -1.1003  1.2854
  722SOL     OW 2164   2.290   1.591   0.498  0.8103  0.0848  0.0108
  722SOL    HW1 2165   2.341   1.554   0.415  2.4417 -3.3088  0.8865
  722SOL    HW2 2166   2.196   1.633   0.478 -0.3139  1.3156 -1.8798
  723SOL     OW 2167   2.601   2.740   1.920  0.0390 -0.0287  0.9826
  723SOL    HW1 2168   2.646   2.810   1.985  0.6853  1.8324  0.6606
  723SOL    HW2 2169   2.501   2.721   1.940 -0.7008  1.0016  2.1001
  724SOL     OW 2170   0.495   2.494   2.393 -0.1517  0.2205 -0.2788
  724SOL    HW1 2171   0.418   2.520   2.459 -1.1437  1.9726 -0.7893
  724SOL    HW2 2172   0.589   2.493   2.433  0.1987 -1.9032 -1.8085
  725SOL     OW 2173   2.341   2.776   1.497  0.0410  0.6116  0.6136
  725SOL    HW1 2174   2.404   2.835   1.433  2.9971  3.0516  1.1357
  725SOL    HW2 2175   2.383   2.682   1.515  2.1357 -1.6442  0.7896
  726SOL     OW 2176   2.550   2.340   0.745  0.5108 -0.3730  0.4277
  726SOL    HW1 2177   2.504   2.437   0.726  1.9375  2.0279  1.9652
  726SOL    HW2 2178   2.517   2.274   0.676  2.7582  1.7950 -1.2444
  727SOL     OW 2179   0.138   3.062   0.042 -0.3495  0.2041 -0.5918
  727SOL    HW1 2180   0.208   3.021  -0.025 -0.8855  1.5097  0.8438
  727SOL    HW2 2181   0.051   3.094  -0.005 -3.0773 -0.9379 -0.4959
  728SOL     OW 2182   2.914   0.650   0.948 -0.2543 -0.0906  0.4914
  728SOL    HW1 2183   2.832   0.687   0.900  1.3829 -0.5976  0.5415
  728SOL    HW2 2184   2.882   0.618   1.040 -1.4173 -3.0900  0.2663
  729SOL     OW 2185   3.071   2.530   0.716 -0.7073 -0.7277  0.7507
  729SOL    HW1 2186   3.036   2.436   0.738  1.4246 -0.0360  2.3823
  729SOL    HW2 2187   3.165   2.533   0.671  1.3788 -2.7100 -3.4072
  730SOL     OW 2188   2.627   0.700   0.867  0.2395 -0.2158  0.2620
  730SOL    HW1 2189   2.618   0.801   0.864  0.0466  0.0053 -1.0998
  730SOL    HW2 2190   2.661   0.664   0.777 -1.8124  1.6227  0.5059
  731SOL     OW 2191   0.018   2.101   2.420  0.5509 -0.6809  0.5172
  731SOL    HW1 2192   0.005   2.142   2.514 -0.2297  0.8034  0.2675
  731SOL    HW2 2193  -0.072   2.110   2.370  1.0407  2.0702 -0.4806
  732SOL     OW 2194   1.230   2.839   1.963 -0.3262  0.4008 -0.2524
  732SOL    HW1 2195   1.238   2.788   2.054  1.1085 -0.5460  0.5082
  732SOL    HW2 2196   1.214   2.773   1.882 -2.4736 -2.9978  0.6692
  733SOL     OW 2197   3.022   0.599   2.232  0.4081 -0.4020 -0.0009
  733SOL    HW1 2198   3.119   0.623   2.195  2.4967 -0.0294 -1.9424
  733SOL    HW2 2199   2.978   0.519   2.188  1.7445 -0.0718 -0.2144
  734SOL     OW 2200   1.415   0.388   2.694  0.1864  0.1397 -0.2199
  734SOL    HW1 2201   1.397   0.487   2.715  0.1250 -0.9598 -1.2362
  734SOL    HW2 2202   1.345   0.328   2.743 -0.4907  1.8210 -1.5541
  735SOL     OW 2203   2.889   2.637   2.295  0.2328 -0.1509 -0.3135
  735SOL    HW1 2204   2.855   2.652   2.199 -2.6758  1.5038  2.6779
  735SOL    HW2 2205   2.982   2.673   2.317  0.5565  2.0709 -0.9631
  736SOL     OW 2206   0.863   0.356   2.571 -0.1681 -0.4397  0.0774
  736SOL    HW1 2207   0.790   0.426   2.534 -1.9114  2.1883  2.6723
  736SOL    HW2 2208   0.896   0.288   2.498 -1.1707 -1.9932  2.0094
  737SOL     OW 2209   2.630   0.440   2.840 -0.1115  0.0993 -0.3662
  737SOL    HW1 2210   2.617   0.403   2.938  0.7723  1.2358  0.5315
  737SOL    HW2 2211   2.713   0.406   2.788 -0.2933  2.3710  0.0303
  738SOL     OW 2212   1.665   1.237   2.895 -0.3153 -0.3882 -0.1504
  738SOL    HW1 2213   1.771   1.237   2.879  1.3611  1.2032 -1.7612
  738SOL    HW2 2214   1.622   1.142   2.872 -1.9727 -1.3381 -1.0826
  739SOL     OW 2215   1.751   0.707   0.698 -0.1270 -0.3343 -0.1723
  739SOL    HW1 2216   1.791   0.692   0.791 -1.9648 -0.1416  0.4626
  739SOL    HW2 2217   1.758   0.627   0.637  1.4949  0.9497  1.1499
  740SOL     OW 2218   1.980   1.932   2.385 -0.1799 -0.1107  0.1651
  740SOL    HW1 2219   2.047   1.855   2.403 -3.3973  0.6763 -0.3088
  740SOL    HW2 2220   1.921   1.906   2.301  1.3236 -0.4000 -2.4108
  741SOL     OW 2221   2.551   0.102   2.576  0.0257 -0.5976  0.4669
  741SOL    HW1 2222   2.653   0.107   2.574 -1.2432 -1.7007  2.3419
  741SOL    HW2 2223   2.512   0.056   2.490 -0.2009  2.1771  0.3892
  742SOL     OW 2224   2.206   1.384   0.204  0.1811  0.0944  0.7268
  742SOL    HW1 2225   2.138   1.461   0.199  2.2691 -1.4984  1.8653
  742SOL    HW2 2226   2.178   1.288   0.231  0.9753  1.9244  0.3516
  743SOL     OW 2227   1.789   0.627   2.580 -0.1176  0.4253 -0.5990
  743SOL    HW1 2228   1.774   0.547   2.511 -1.1766 -0.1068 -1.5447
  743SOL    HW2 2229   1.704   0.692   2.578  2.6945 -3.0218  2.5904
  744SOL     OW 2230   2.629   2.054   0.104 -0.2480  0.1345  0.1271
  744SOL    HW1 2231   2.534   2.093   0.085  1.0131  1.1093  3.4888
  744SOL    HW2 2232   2.636   1.958   0.099  0.7918  2.8789 -0.0926
  745SOL     OW 2233   2.172   2.657   2.174 -0.2867 -0.1471  0.8957
  745SOL    HW1 2234   2.082   2.691   2.219 -1.3959  1.2177 -0.4896
  745SOL    HW2 2235   2.251   2.697   2.234 -0.9454  3.2068  0.3484
  746SOL     OW 2236   3.086   2.631   1.707  0.6069  0.2561  0.2898
  746SOL    HW1 2237   3.162   2.596   1.649 -1.6791 -1.1342  0.9001
  746SOL    HW2 2238   3.100   2.725   1.751 -1.8600  0.1193 -0.0839
  747SOL     OW 2239   3.088   1.744   1.757  0.4052  0.2596  0.1504
  747SOL    HW1 2240   3.020   1.669   1.727 -2.4564 -1.9463  0.7568
  747SOL    HW2 2241   3.159   1.768   1.681  0.2485  0.0469  1.6092
  748SOL     OW 2242   1.827   2.721   2.893 -0.1674 -0.0910 -0.4815
  748SOL    HW1 2243   1.834   2.813   2.943 -0.4323 -1.2723  1.1758
  748SOL    HW2 2244   1.734   2.692   2.864  0.7529 -0.5230  0.1224
  749SOL     OW 2245   1.362   2.996   0.846  0.4680  0.1774 -0.0505
  749SOL    HW1 2246   1.278   2.934   0.858  0.0209 -2.6623  0.8036
  749SOL    HW2 2247   1.426   2.966   0.765 -3.5305  1.0087  0.9743
  750SOL     OW 2248   2.313   0.191   1.843 -0.3553  0.1913  0.0868
  750SOL    HW1 2249   2.330   0.250   1.761 -2.9998 -0.8790 -3.4268
  750SOL    HW2 2250   2.322   0.254   1.927 -2.1830  1.0289 -1.2167
  751SOL     OW 2251   0.844   2.051   2.806  0.0963  0.8047 -0.0387
  751SOL    HW1 2252   0.919   2.074   2.878  2.8537 -3.3681 -1.7079
  751SOL    HW2 2253   0.752   2.041   2.852  1.3348 -0.3107 -0.0864
  752SOL     OW 2254   1.325   0.810   1.250 -0.1855  0.4715 -0.3051
  752SOL    HW1 2255   1.377   0.900   1.263  1.5750 -0.3107  1.8787
  752SOL    HW2 2256   1.372   0.727   1.291 -0.1767  0.6812  0.5601
  753SOL     OW 2257   0.935   2.630   1.710  0.0182 -0.0398 -1.1409
  753SOL    HW1 2258   1.039   2.635   1.734 -0.8950 -0.4423 -0.9784
  753SOL    HW2 2259   0.891   2.725   1.718 -0.1443  2.3945  2.6642
  754SOL     OW 2260   1.145   1.191   2.991 -0.2883  0.3857 -0.5348
  754SOL    HW1 2261   1.194   1.170   2.905 -0.2901  0.8425  1.8388
  754SOL    HW2 2262   1.170   1.279   3.034 -2.1856 -3.7412  0.8937
  755SOL     OW 2263   2.005   0.477   2.229  0.4836 -0.8680 -0.1171
  755SOL    HW1 2264   2.074   0.412   2.276  1.7402  2.3962 -0.1677
  755SOL    HW2 2265   1.912   0.479   2.272  0.4557  1.2585 -0.3483
  756SOL     OW 2266   2.582   0.972   2.971 -0.5108  0.1309  0.4848
  756SOL    HW1 2267   2.686   0.975   2.994  2.2964  0.6864 -1.0635
  756SOL    HW2 2268   2.535   0.887   3.008 -3.0365 -1.2150 -1.8173
  757SOL     OW 2269   0.108   0.484   1.980  0.4085 -0.1724 -0.3312
  757SOL    HW1 2270   0.174   0.431   1.926 -0.6789  4.1599 -0.0144
  757SOL    HW2 2271   0.008   0.449   1.976  1.4037  2.0900 -0.6164
  758SOL     OW 2272   2.250   0.120   1.477  0.6136 -0.5102  0.0338
  758SOL    HW1 2273   2.229   0.026   1.514 -0.5548  0.7154  0.6768
  758SOL    HW2 2274   2.294   0.122   1.385 -1.3001 -1.0225  0.5952
  759SOL     OW 2275   1.694   0.117   0.060  0.5607  0.1220  0.1945
  759SOL    HW1 2276   1.646   0.084  -0.029 -0.7291 -0.9596 -0.1391
  759SOL    HW2 2277   1.796   0.097   0.054 -0.5967 -2.5166  0.3924
  760SOL     OW 2278   2.635   2.057   2.816  0.7163 -0.3715  0.0212
  760SOL    HW1 2279   2.695   1.994   2.871 -0.7404  0.1754  1.0287
  760SOL    HW2 2280   2.604   2.144   2.871  1.4352  1.8708  0.7033
  761SOL     OW 2281   1.868   1.765   1.694 -0.3498 -0.1650 -0.2409
  761SOL    HW1 2282   1.873   1.664   1.719 -0.3882 -0.5126  1.7395
  761SOL    HW2 2283   1.813   1.774   1.606 -0.5252  0.2631 -3.6656
  762SOL     OW 2284   0.508   2.344   0.954  0.3348 -0.3826 -0.3111
  762SOL    HW1 2285   0.545   2.335   0.859 -1.6233  1.3981  1.3544
  762SOL    HW2 2286   0.572   2.401   1.015  0.7058 -0.4710  2.2029
  763SOL     OW 2287   2.084   1.577   2.975 -0.3872  0.1033  0.0138
  763SOL    HW1 2288   2.179   1.528   2.980  2.4368  1.0551  2.6998
  763SOL    HW2 2289   2.019   1.547   3.053 -0.3764 -0.5716  3.1998
  764SOL     OW 2290   0.655   0.596   0.799 -0.0589  0.2032  0.2182
  764SOL    HW1 2291   0.584   0.521   0.789 -0.9023 -0.8841  1.4843
  764SOL    HW2 2292   0.743   0.559   0.839 -1.8148  2.4783  1.3179
  765SOL     OW 2293   0.734   0.231   0.787 -0.2841 -0.4921 -0.3503
  765SOL    HW1 2294   0.812   0.291   0.747  0.8845  2.1607 -0.0192
  765SOL    HW2 2295   0.698   0.270   0.877  2.4689 -0.0662 -3.9996
  766SOL     OW 2296   2.858   2.100   3.061 -0.1655 -0.5203  0.5931
  766SOL    HW1 2297   2.767   2.096   3.112 -0.5153  1.3295  1.3726
  766SOL    HW2 2298   2.903   2.190   3.070 -0.4653  0.0728  1.7511
  767SOL     OW 2299   2.788   1.663   0.600 -0.3028 -0.4210  0.1469
  767SOL    HW1 2300   2.701   1.721   0.622 -0.0866 -0.7769 -1.0874
  767SOL    HW2 2301   2.871   1.707   0.650  2.3826  2.7496  0.0918
  768SOL     OW 2302   0.944   0.074   0.225  0.1866 -0.7254  0.0393
  768SOL    HW1 2303   0.925   0.045   0.327  1.5322 -0.0702  2.7669
  768SOL    HW2 2304   1.041   0.058   0.204 -1.9962 -0.3945  0.1186
  769SOL     OW 2305   1.113   1.921   2.308 -0.3901  0.3865 -0.0293
  769SOL    HW1 2306   1.032   1.980   2.322  0.8773  1.0480  1.7767
  769SOL    HW2 2307   1.159   1.896   2.400 -0.2655 -0.6845  0.6634
  770SOL     OW 2308   0.182   1.205   2.281 -0.1221  0.0245 -0.0712
  770SOL    HW1 2309   0.165   1.257   2.368 -0.1804 -1.7687 -1.6147
  770SOL    HW2 2310   0.094   1.156   2.254  0.0391 -2.1178  0.1038
  771SOL     OW 2311   3.017   2.859   1.873 -0.3230 -0.4244 -0.4949
  771SOL    HW1 2312   2.960   2.885   1.792  1.3623 -2.0024 -0.3754
  771SOL    HW2 2313   2.969   2.882   1.961  1.2958  3.9821  0.3530
  772SOL     OW 2314   2.234   0.133   2.925  0.4354  0.0447  0.5603
  772SOL    HW1 2315   2.316   0.105   2.865 -0.9319 -1.8212  1.0972
  772SOL    HW2 2316   2.252   0.176   3.013 -1.4651 -1.2745  1.0358
  773SOL     OW 2317   0.706   2.137   2.431  0.4559 -0.0967  0.4688
  773SOL    HW1 2318   0.661   2.193   2.360 -2.3554 -0.1470  3.1669
  773SOL    HW2 2319   0.640   2.142   2.513  0.8291  2.2356  1.8536
  774SOL     OW 2320   2.060   3.094   2.592 -0.3030  0.3551  0.3317
  774SOL    HW1 2321   2.060   3.194   2.633  1.4082  0.3603 -2.4744
  774SOL    HW2 2322   2.107   3.024   2.652 -1.8295 -1.1063 -0.5302
  775SOL     OW 2323   2.540   2.926   2.316  0.0512 -0.1832  0.9622
  775SOL    HW1 2324   2.498   3.014   2.282 -0.5109 -1.5196 -0.3005
  775SOL    HW2 2325   2.603   2.939   2.393 -0.6112  0.3487 -1.6886
  776SOL     OW 2326   0.046   1.239   0.236  0.1266 -0.1724 -0.4756
  776SOL    HW1 2327  -0.024   1.204   0.170  0.9370 -1.9675  1.2280
  776SOL    HW2 2328   0.012   1.283   0.324  1.6788  1.5708  1.7377
  777SOL     OW 2329   0.365   2.807   0.359 -0.2490 -0.8384  0.2272
  777SOL    HW1 2330   0.261   2.819   0.358 -2.3286  0.3084 -0.6352
  777SOL    HW2 2331   0.418   2.881   0.302 -0.9233  0.9977 -2.1874
  778SOL     OW 2332   1.350   1.969   0.156 -0.0177 -0.3285  0.1340
  778SOL    HW1 2333   1.294   1.956   0.244  0.6598 -0.7912 -2.1537
  778SOL    HW2 2334   1.379   2.065   0.134  0.4943 -0.9511 -2.1927
  779SOL     OW 2335   0.193   0.857   0.501 -0.1110 -0.1985 -0.3374
  779SOL    HW1 2336   0.139   0.767   0.485 -2.9711  0.3643 -0.4777
  779SOL    HW2 2337   0.138   0.922   0.553 -0.1371  0.3634 -2.9969
  780SOL     OW 2338   0.060   0.239   2.389 -0.2812 -0.4200  0.2515
  780SOL    HW1 2339   0.044   0.335   2.416 -0.1406  0.4348 -1.7111
  780SOL    HW2 2340   0.159   0.229   2.356 -0.1097 -1.1039 -0.7948
  781SOL     OW 2341   0.654   1.662   1.512  0.0391  0.3079  0.2923
  781SOL    HW1 2342   0.733   1.601   1.537 -0.1334  0.4951 -0.2079
  781SOL    HW2 2343   0.564   1.623   1.552 -1.4319 -1.7220  1.6090
  782SOL     OW 2344   2.571   0.070   0.943  0.1233 -0.4569 -0.2746
  782SOL    HW1 2345   2.527   0.100   0.852  0.9395 -0.2185 -0.4408
  782SOL    HW2 2346   2.582   0.153   1.002 -0.1843  4.4022 -0.8546
  783SOL     OW 2347   2.811   0.703   2.507  0.3457  0.1731  0.6933
  783SOL    HW1 2348   2.770   0.738   2.593  1.1251  0.5986 -2.8907
  783SOL    HW2 2349   2.774   0.616   2.471  1.9277  0.3275  0.9626
  784SOL     OW 2350   1.450   2.217   0.045  0.0312 -0.3452  0.2664
  784SOL    HW1 2351   1.526   2.279   0.094 -0.7086  0.8170  0.9977
  784SOL    HW2 2352   1.426   2.255  -0.047  0.1187  0.1360 -0.5773
  785SOL     OW 2353   2.128   0.334   0.087  0.4129 -0.0442  0.4921
  785SOL    HW1 2354   2.053   0.349   0.151  0.5931  1.9347 -3.0726
  785SOL    HW2 2355   2.146   0.421   0.034  1.0707 -1.3467 -0.4178
  786SOL     OW 2356   2.052   2.207   2.253  0.4280 -0.1284 -0.8675
  786SOL    HW1 2357   2.022   2.120   2.306 -1.9107  0.2264 -0.8786
  786SOL    HW2 2358   2.149   2.213   2.211 -2.4297  1.8938  0.7669
  787SOL     OW 2359   1.344   0.495   0.976  0.5603  0.2251 -0.2698
  787SOL    HW1 2360   1.276   0.568   1.001 -0.7938 -2.6630 -0.0874
  787SOL    HW2 2361   1.400   0.513   0.888  0.0129  0.5834  1.6925
  788SOL     OW 2362   1.268   0.428   0.081  0.6095 -0.3096 -0.5701
  788SOL    HW1 2363   1.170   0.397   0.066  0.3640  0.7326 -1.2836
  788SOL    HW2 2364   1.260   0.525   0.108  0.0176  1.3157  0.8131
  789SOL     OW 2365   2.542   0.087   1.951  0.2452  0.1152  0.0982
  789SOL    HW1 2366   2.468   0.141   1.902  0.9419 -0.6510  1.3187
  789SOL    HW2 2367   2.564  -0.012   1.916  3.0873 -4.4106 -1.3376
  790SOL     OW 2368   2.661   2.751   0.830  0.3933 -0.9888  0.1981
  790SOL    HW1 2369   2.719   2.788   0.748  0.9722  0.0544  0.4368
  790SOL    HW2 2370   2.661   2.812   0.911  0.3598  0.1502 -3.0737
  791SOL     OW 2371   1.932   1.199   0.193 -0.3897  0.2134  0.3976
  791SOL    HW1 2372   1.837   1.163   0.220 -0.5641  0.0913 -0.7063
  791SOL    HW2 2373   2.016   1.152   0.234  0.8809 -2.3000  2.3545
  792SOL     OW 2374   0.447   1.830   2.184 -0.4090  1.1072  0.0143
  792SOL    HW1 2375   0.498   1.757   2.241  0.5023 -0.8205 -0.4566
  792SOL    HW2 2376   0.350   1.843   2.216 -0.8326 -0.7735  2.1471
  793SOL     OW 2377   2.083   1.539   2.120 -0.0720  0.0820 -0.2364
  793SOL    HW1 2378   2.175   1.568   2.094 -1.9412 -0.5683  1.3524
  793SOL    HW2 2379   2.057   1.451   2.076  0.9795  0.3828 -1.4797
  794SOL     OW 2380   0.512   1.384   2.365 -0.0339 -0.2123  0.0131
  794SOL    HW1 2381   0.517   1.330   2.278 -1.8115 -0.5875  2.8874
  794SOL    HW2 2382   0.469   1.475   2.354  1.0716 -2.3790  2.3972
  795SOL     OW 2383   2.500   2.248   1.853  0.1292  0.1056  0.2691
  795SOL    HW1 2384   2.496   2.214   1.950  0.2695 -0.8507 -1.1671
  795SOL    HW2 2385   2.426   2.206   1.793 -0.0283  0.8244  0.9834
  796SOL     OW 2386   3.058   1.133   2.704 -0.0934  0.0189  0.1080
  796SOL    HW1 2387   2.958   1.128   2.720 -2.1208  0.3783 -1.0302
  796SOL    HW2 2388   3.108   1.148   2.791 -0.4805  0.8733 -0.8945
  797SOL     OW 2389   0.763   0.638   1.402 -0.0375 -0.1064 -0.6679
  797SOL    HW1 2390   0.835   0.693   1.452  0.5532 -0.8579  0.7580
  797SOL    HW2 2391   0.688   0.695   1.357 -0.0206  0.2930 -0.4300
  798SOL     OW 2392   1.294   0.297   1.164  0.6683 -0.0650  0.1270
  798SOL    HW1 2393   1.340   0.323   1.253 -0.8500 -0.8734 -2.2813
  798SOL    HW2 2394   1.316   0.358   1.089  0.3620 -0.7916  0.3913
  799SOL     OW 2395   1.958   2.736   1.032 -0.8153  0.0607 -0.0443
  799SOL    HW1 2396   1.934   2.729   1.133  2.2166  0.9076 -2.2318
  799SOL    HW2 2397   1.879   2.716   0.972 -1.1389 -1.0714 -0.0356
  800SOL     OW 2398   3.018   0.661   1.844 -0.3958  0.5784  0.4098
  800SOL    HW1 2399   2.951   0.728   1.885 -0.7025  0.6626 -0.9568
  800SOL    HW2 2400   3.081   0.614   1.910 -1.9252 -0.8690 -2.6430
  801SOL     OW 2401   1.970   2.245   0.091 -0.3575 -0.3488  0.5224
  801SOL    HW1 2402   1.881   2.231   0.037 -1.4582  1.5327 -0.7375
  801SOL    HW2 2403   2.049   2.189   0.059  1.7093  3.1896 -1.2697
  802SOL     OW 2404   0.704   0.832   2.554 -0.3534  0.1237  0.7171
  802SOL    HW1 2405   0.761   0.790   2.475  0.4095  1.2151 -1.4893
  802SOL    HW2 2406   0.618   0.874   2.519  2.4948  0.0903  1.0822
  803SOL     OW 2407   0.947   0.040   0.850 -0.2379 -0.2402 -0.2616
  803SOL    HW1 2408   1.043   0.063   0.878 -2.2856 -1.2959 -0.2094
  803SOL    HW2 2409   0.886   0.114   0.813 -0.7286 -1.3809 -0.9601
  804SOL     OW 2410   0.289   0.048   2.136  0.5400 -0.1320 -0.1532
  804SOL    HW1 2411   0.311   0.148   2.159  1.8412 -0.0052  0.6237
  804SOL    HW2 2412   0.227   0.041   2.052  0.7341 -0.4399 -0.5710
  805SOL     OW 2413   2.386   0.295   0.362  0.0998  1.1273 -0.0353
  805SOL    HW1 2414   2.450   0.341   0.431  1.1942 -0.6305 -0.9359
  805SOL    HW2 2415   2.425   0.284   0.266 -2.8316 -0.1631 -0.0479
  806SOL     OW 2416   0.615   2.444   1.740 -0.2846  0.4925  1.2020
  806SOL    HW1 2417   0.592   2.545   1.738 -0.4377 -0.1328 -0.4051
  806SOL    HW2 2418   0.714   2.427   1.714  0.0485  1.3501 -0.0866
  807SOL     OW 2419   2.478   0.865   0.389  0.1325 -0.4105 -0.2963
  807SOL    HW1 2420   2.575   0.884   0.424  1.7563 -2.2039  1.2567
  807SOL    HW2 2421   2.450   0.922   0.307 -1.5062 -2.0336  1.1092
  808SOL     OW 2422   0.547   2.060   2.917  0.0491  0.1885 -0.1241
  808SOL    HW1 2423   0.540   2.110   3.006 -0.2571  2.0623 -1.5052
  808SOL    HW2 2424   0.573   1.961   2.928  2.5599  0.3439  0.9565
  809SOL     OW 2425   2.696   1.964   1.922 -0.3399  0.2257 -0.4511
  809SOL    HW1 2426   2.784   2.015   1.930 -0.7679 -0.2945  0.1211
  809SOL    HW2 2427   2.641   2.003   1.843  1.3017  2.8600 -1.1191
  810SOL     OW 2428   2.083   1.046   0.536 -0.2687 -0.3590 -0.1278
  810SOL    HW1 2429   2.147   1.012   0.611 -0.6342 -0.7316  1.3303
  810SOL    HW2 2430   2.022   1.124   0.572  0.7801 -1.9811  0.9838
  811SOL     OW 2431   1.342   2.509   1.230  0.0632  0.1654 -0.5682
  811SOL    HW1 2432   1.305   2.418   1.272  0.1064 -0.5965  0.2056
  811SOL    HW2 2433   1.290   2.590   1.262 -0.5569 -1.1140 -0.2488
  812SOL     OW 2434   1.425   0.807   1.963  0.0776 -0.4540  0.4534
  812SOL    HW1 2435   1.496   0.853   2.017 -2.9290 -0.0159  0.4198
  812SOL    HW2 2436   1.337   0.854   1.957  2.9117 -2.4134  2.1908
  813SOL     OW 2437   1.724   2.049   2.503 -0.1944 -0.3097  0.0215
  813SOL    HW1 2438   1.803   1.986   2.535  1.3003 -2.0655  1.1904
  813SOL    HW2 2439   1.677   2.019   2.411 -0.1549  0.6145 -1.4373
  814SOL     OW 2440   2.920   1.539   2.847  0.0962 -0.0939  0.1328
  814SOL    HW1 2441   3.004   1.512   2.900  0.0245  0.6549 -0.7668
  814SOL    HW2 2442   2.930   1.629   2.797 -1.3298 -1.2086 -0.0777
  815SOL     OW 2443   2.148   2.931   2.781 -0.1136 -0.4599  0.0877
  815SOL    HW1 2444   2.082   2.890   2.851 -1.5492  0.8644 -1.4586
  815SOL    HW2 2445   2.240   2.954   2.814 -0.6185  2.9608 -1.7042
  816SOL     OW 2446   1.649   0.320   1.627  0.2133  0.1475 -0.2787
  816SOL    HW1 2447   1.702   0.229   1.647  0.1841 -2.7247 -0.8305
  816SOL    HW2 2448   1.558   0.317   1.674  0.9701 -0.9877 -1.6914
  817SOL     OW 2449   0.406   1.227   2.559 -0.3086 -0.0936 -0.1678
  817SOL    HW1 2450   0.304   1.239   2.563  0.6358 -3.9868  0.9772
  817SOL    HW2 2451   0.453   1.286   2.489  0.5471 -1.7657 -0.6968
  818SOL     OW 2452   1.914   0.840   0.451 -0.1709  0.4781 -0.0429
  818SOL    HW1 2453   1.967   0.929   0.476  0.0359  0.9075 -2.7800
  818SOL    HW2 2454   1.855   0.805   0.526 -0.5041 -0.3718 -1.1106
  819SOL     OW 2455   2.739   2.981   3.003 -0.5089 -0.0103 -0.3144
  819SOL    HW1 2456   2.801   2.897   3.003 -1.8364  1.0433 -0.6286
  819SOL    HW2 2457   2.641   2.955   2.983  2.4916 -0.8014  2.3576
  820SOL     OW 2458   1.261   1.098   0.695 -0.0686 -0.2722  0.1116
  820SOL    HW1 2459   1.251   1.203   0.721  1.4453 -0.8661  1.8158
  820SOL    HW2 2460   1.217   1.034   0.760  3.1647  2.8405 -1.1295
  821SOL     OW 2461   3.073   1.321   0.674  0.1131 -0.0001  0.2143
  821SOL    HW1 2462   3.093   1.330   0.778  1.6781 -1.5296 -0.0786
  821SOL    HW2 2463   3.149   1.370   0.627 -1.4448 -3.6795  1.4920
  822SOL     OW 2464   2.572   1.733   2.456  0.6599 -0.2954 -0.2728
  822SOL    HW1 2465   2.583   1.821   2.510  1.3567  0.2528 -2.5502
  822SOL    HW2 2466   2.481   1.740   2.398 -1.5111 -0.1448  0.5097
  823SOL     OW 2467   2.104   0.895   1.219  0.1051  0.1533  0.5155
  823SOL    HW1 2468   2.033   0.859   1.283  0.6553 -0.1652 -3.2556
  823SOL    HW2 2469   2.066   0.926   1.128  2.2903 -0.1945 -0.5307
  824SOL     OW 2470   0.214   2.076   2.788  0.2126 -0.0139 -0.0908
  824SOL    HW1 2471   0.153   2.012   2.847  1.6889 -0.7567 -1.5580
  824SOL    HW2 2472   0.263   2.020   2.710  2.6194 -0.4538  1.0911
  825SOL     OW 2473   1.294   1.085   0.255  0.0270  0.2975  0.1989
  825SOL    HW1 2474   1.350   1.169   0.254  0.7205  0.5959  1.1428
  825SOL    HW2 2475   1.197   1.104   0.269  2.0876  0.2510 -0.7519
  826SOL     OW 2476   1.890   0.702   1.623  0.0212  0.2764  0.0786
  826SOL    HW1 2477   1.965   0.638   1.655 -0.7027 -1.7723 -0.0311
  826SOL    HW2 2478   1.821   0.649   1.564 -1.8789 -0.7411 -0.2389
  827SOL     OW 2479   0.671   1.258   0.253  0.3549 -1.2630 -0.2439
  827SOL    HW1 2480   0.759   1.212   0.221  1.0628  3.2688 -0.0266
  827SOL    HW2 2481   0.599   1.199   0.305 -0.9420 -2.7748 -3.7103
  828SOL     OW 2482   2.524   0.087   1.597  0.2513  0.0559  0.0860
  828SOL    HW1 2483   2.433   0.123   1.559  1.4850  1.4376 -0.5308
  828SOL    HW2 2484   2.515  -0.010   1.634  1.0055 -0.3422  0.8722
  829SOL     OW 2485   2.773   2.469   3.005 -0.1949  0.2852  0.3179
  829SOL    HW1 2486   2.694   2.401   2.998  0.4973 -1.2554  1.3506
  829SOL    HW2 2487   2.752   2.546   3.073 -1.4006  1.5721 -1.5623
  830SOL     OW 2488   2.860   0.962   2.988  0.3456  0.4808 -0.1626
  830SOL    HW1 2489   2.898   1.057   3.016 -1.5679  0.1126  0.1592
  830SOL    HW2 2490   2.892   0.886   3.056  0.8054  1.9374 -1.2841
  831SOL     OW 2491   0.070   0.624   0.410 -0.6980 -0.1167 -0.2195
  831SOL    HW1 2492   0.063   0.562   0.496 -0.8503 -0.7971  0.2765
  831SOL    HW2 2493   0.094   0.561   0.328 -2.5537 -0.2453  0.7598
  832SOL     OW 2494   1.779   0.743   3.002  0.1924  0.0081 -0.3611
  832SOL    HW1 2495   1.682   0.777   2.990  1.7568 -0.5752 -0.3461
  832SOL    HW2 2496   1.784   0.644   3.028 -1.5891  0.8755  0.2450
  833SOL     OW 2497   2.443   2.173   0.541  0.5366 -0.2336 -0.0928
  833SOL    HW1 2498   2.349   2.197   0.504  1.4709 -0.8930  2.2693
  833SOL    HW2 2499   2.473   2.074   0.515  0.3919 -1.9074  1.9119
  834SOL     OW 2500   0.201   0.220   0.554 -0.3161  0.0497 -0.0369
  834SOL    HW1 2501   0.237   0.153   0.621  0.5938  2.2997  2.6068
  834SOL    HW2 2502   0.190   0.182   0.455  2.2525 -2.9936 -2.9230
  835SOL     OW 2503   2.389   1.545   1.119 -0.6754 -0.0907 -0.2055
  835SOL    HW1 2504   2.366   1.636   1.152  0.5854  0.8184 -1.1380
  835SOL    HW2 2505   2.451   1.537   1.033 -1.2222 -0.2253 -0.2115
  836SOL     OW 2506   1.592   0.823   2.550  0.1083  0.3040  0.6167
  836SOL    HW1 2507   1.487   0.811   2.539 -1.6145 -0.8357  0.2167
  836SOL    HW2 2508   1.643   0.832   2.457 -0.3599 -1.9573 -2.1288
  837SOL     OW 2509   1.705   0.116   0.552 -0.0955 -0.2085 -0.2360
  837SOL    HW1 2510   1.646   0.175   0.620  0.0644  0.6736  0.5658
  837SOL    HW2 2511   1.666   0.119   0.456  1.8730  2.4871  1.0229
  838SOL     OW 2512   1.187   1.556   2.806  0.6197 -0.1748  0.0951
  838SOL    HW1 2513   1.171   1.531   2.906  0.2967  0.2031 -0.2772
  838SOL    HW2 2514   1.141   1.495   2.735  2.0830 -0.0466 -1.3025
  839SOL     OW 2515   1.670   0.317   1.004  0.3248 -0.4683  0.5410
  839SOL    HW1 2516   1.670   0.377   1.090 -1.5297 -1.0122 -0.2057
  839SOL    HW2 2517   1.611   0.230   1.020 -0.9450  0.0591 -0.0592
  840SOL     OW 2518   2.511   2.953   1.752 -0.0754  0.7186 -0.4079
  840SOL    HW1 2519   2.410   2.950   1.772 -1.7296  1.1935 -2.5466
  840SOL    HW2 2520   2.562   2.866   1.788  1.1245  1.6537  0.5951
  841SOL     OW 2521   1.514   0.833   2.963  0.6913 -0.5003 -0.2122
  841SOL    HW1 2522   1.469   0.878   3.045 -0.3138  0.4449  0.8498
  841SOL    HW2 2523   1.522   0.904   2.880  1.4297  4.6698 -1.0909
  842SOL     OW 2524   0.820   1.564   0.945 -0.1535 -0.2106  0.1003
  842SOL    HW1 2525   0.783   1.640   1.003  1.2947  0.0265 -0.0140
  842SOL    HW2 2526   0.749   1.504   0.900 -1.1354  0.0787 -1.3942
  843SOL     OW 2527   0.067   0.051   1.406  0.2907 -0.3150 -0.0217
  843SOL    HW1 2528   0.154   0.100   1.434  0.6051  0.2610 -1.5755
  843SOL    HW2 2529   0.052  -0.050   1.432  2.4402  2.2167 -0.3758
  844SOL     OW 2530   0.821   2.501   0.266 -0.0889  0.3029  0.1434
  844SOL    HW1 2531   0.753   2.471   0.339  1.4971  0.0498  1.1974
  844SOL    HW2 2532   0.787   2.541   0.175  2.5151  2.2409 -1.5221
  845SOL     OW 2533   1.617   2.902   1.376 -0.0870 -0.5877 -0.0048
  845SOL    HW1 2534   1.666   2.910   1.467  0.7614  0.2481 -0.9287
  845SOL    HW2 2535   1.547   2.825   1.371  2.8210 -0.7414  1.0930
  846SOL     OW 2536   1.555   2.903   0.695  0.3429  0.0702  0.0057
  846SOL    HW1 2537   1.587   2.866   0.604  0.6212  0.6724 -1.5763
  846SOL    HW2 2538   1.624   2.934   0.762  1.1190 -1.0831  0.1792
  847SOL     OW 2539   2.067   1.629   0.330 -0.0823  0.2129 -0.3299
  847SOL    HW1 2540   2.013   1.538   0.329  0.1285 -3.7036  2.7723
  847SOL    HW2 2541   2.010   1.710   0.328  2.5991 -2.6901 -1.7698
  848SOL     OW 2542   2.443   0.876   2.572 -0.3343 -0.1723  0.2605
  848SOL    HW1 2543   2.431   0.951   2.643 -2.7413  0.2648 -2.7212
  848SOL    HW2 2544   2.387   0.794   2.602  0.9860  0.4349 -0.4995
  849SOL     OW 2545   2.601   0.837   2.363 -0.1362 -0.5034  0.0789
  849SOL    HW1 2546   2.695   0.815   2.396 -1.5941 -1.1288 -0.9103
  849SOL    HW2 2547   2.529   0.858   2.437 -0.5630  2.1633  0.8167
  850SOL     OW 2548   1.544   0.120   1.317  0.3099 -1.0745  0.3193
  850SOL    HW1 2549   1.518   0.106   1.216  3.1260  1.8413  1.2272
  850SOL    HW2 2550   1.497   0.044   1.370  2.5475  0.6744  1.0688
  851SOL     OW 2551   0.476   1.817   0.587  0.1614  0.5156  0.2333
  851SOL    HW1 2552   0.500   1.919   0.584  2.6005 -0.2784 -0.8405
  851SOL    HW2 2553   0.535   1.758   0.522 -1.6898 -0.6061 -1.7007
  852SOL     OW 2554   0.803   2.117   1.637  0.2580 -0.4728  0.0613
  852SOL    HW1 2555   0.823   2.215   1.612 -0.5722  1.7344  2.9953
  852SOL    HW2 2556   0.724   2.115   1.706 -3.2690  0.9335  0.7818
  853SOL     OW 2557   2.522   1.487   2.601  0.0497 -0.3647  0.1250
  853SOL    HW1 2558   2.450   1.408   2.597  1.5124 -0.6585  0.7773
  853SOL    HW2 2559   2.510   1.566   2.533  3.4772 -0.1812  0.9485
  854SOL     OW 2560   2.373   1.414   1.730 -0.0357  0.3437  0.1825
  854SOL    HW1 2561   2.452   1.373   1.671 -0.6068 -0.5988 -0.9212
  854SOL    HW2 2562   2.297   1.346   1.731  1.0025  0.4352  2.7065
  855SOL     OW 2563   2.020   2.423   0.978 -0.1876  0.1540  0.2283
  855SOL    HW1 2564   2.040   2.507   0.914  3.4170  1.1625 -1.0549
  855SOL    HW2 2565   2.080   2.420   1.067  4.1266  1.4580 -2.3579
  856SOL     OW 2566   1.320   1.491   0.956 -0.0787 -0.2000 -0.5148
  856SOL    HW1 2567   1.379   1.580   0.961  0.6399  1.8963  0.4591
  856SOL    HW2 2568   1.224   1.504   0.994  1.0756 -1.5625 -0.5645
  857SOL     OW 2569   3.083   2.694   0.943  0.7267 -0.0057  0.4381
  857SOL    HW1 2570   3.044   2.638   0.861 -1.4889 -1.8382 -1.1939
  857SOL    HW2 2571   3.184   2.713   0.933 -1.9207 -1.4439  0.7041
  858SOL     OW 2572   2.345   2.098   1.688  0.4516 -0.5699  0.0719
  858SOL    HW1 2573   2.252   2.087   1.637  0.1191  1.7421  0.6659
  858SOL    HW2 2574   2.412   2.021   1.681 -1.4900 -0.7282 -0.5232
  859SOL     OW 2575   2.476   0.525   1.020 -0.0694  0.4556 -0.2685
  859SOL    HW1 2576   2.535   0.578   0.949  1.2499  1.8649 -1.5008
  859SOL    HW2 2577   2.516   0.433   1.048 -1.3585 -0.9654  1.4383
  860SOL     OW 2578   1.964   2.794   0.426 -0.5487  0.1719 -0.2780
  860SOL    HW1 2579   1.919   2.798   0.334 -1.1491 -1.0603  3.3172
  860SOL    HW2 2580   2.063   2.842   0.426  0.7110  1.2936  2.7072
  861SOL     OW 2581   1.010   2.425   2.885  0.2456 -0.0128  0.0371
  861SOL    HW1 2582   1.046   2.511   2.845  1.7084 -0.4037  1.1858
  861SOL    HW2 2583   1.034   2.418   2.984  0.0180 -0.3540 -0.5141
  862SOL     OW 2584   2.841   2.561   1.614 -0.8348  0.1012 -0.1994
  862SOL    HW1 2585   2.932   2.581   1.658 -1.1263 -0.5062 -1.1426
  862SOL    HW2 2586   2.811   2.643   1.561  1.4114  0.7057 -0.1709
  863SOL     OW 2587   1.858   2.737   0.175  0.1572  0.0715  0.4794
  863SOL    HW1 2588   1.899   2.644   0.193 -0.6901  0.6140 -0.9711
  863SOL    HW2 2589   1.754   2.731   0.159 -0.9766 -0.2843 -0.8846
  864SOL     OW 2590   1.925   1.200   2.842 -0.5063 -0.5009 -0.0422
  864SOL    HW1 2591   1.938   1.158   2.746 -0.3455 -1.8364  2.0907
  864SOL    HW2 2592   1.988   1.157   2.914  0.9928  1.8652 -0.1360
  865SOL     OW 2593   2.189   1.866   0.639  0.5024 -0.3440 -0.3511
  865SOL    HW1 2594   2.253   1.884   0.720  1.0514 -2.1358  0.3087
  865SOL    HW2 2595   2.097   1.831   0.665  0.3056 -1.0571 -1.4706
  866SOL     OW 2596   2.872   2.904   1.002  0.0276  0.0903  0.6793
  866SOL    HW1 2597   2.876   2.969   0.917  1.1438  1.3989 -0.2581
  866SOL    HW2 2598   2.951   2.834   1.000  0.7699  0.5122  1.2122
  867SOL     OW 2599   0.362   1.430   0.876 -0.6010 -0.2752 -0.3600
  867SOL    HW1 2600   0.329   1.342   0.837 -1.1861 -3.2530  0.4331
  867SOL    HW2 2601   0.326   1.515   0.819 -1.5033 -2.9621 -2.6242
  868SOL     OW 2602   0.789   1.907   2.027  0.0834 -0.0785 -0.4144
  868SOL    HW1 2603   0.729   1.893   2.113  0.7520  0.7602 -1.6392
  868SOL    HW2 2604   0.742   1.970   1.962 -2.9394 -1.0163  0.8085
  869SOL     OW 2605   2.542   1.914   1.663  0.5032  0.2238 -0.1362
  869SOL    HW1 2606   2.621   1.972   1.622  1.2072  1.8121  1.0998
  869SOL    HW2 2607   2.566   1.813   1.673 -0.2440 -3.9553  0.2420
  870SOL     OW 2608   2.247   2.673   1.244 -0.4875 -0.2213 -0.4277
  870SOL    HW1 2609   2.210   2.580   1.228 -0.7840 -2.1956 -0.8998
  870SOL    HW2 2610   2.267   2.691   1.349 -1.5247 -0.1926  4.9858
  871SOL     OW 2611   3.055   2.217   0.543  0.0162 -0.6153 -0.3604
  871SOL    HW1 2612   2.982   2.222   0.618 -2.6120  0.9325 -0.1287
  871SOL    HW2 2613   3.025   2.276   0.462  2.1731  0.0597 -2.2089
  872SOL     OW 2614   2.117   0.535   1.706  0.3929  0.2103 -0.0500
  872SOL    HW1 2615   2.058   0.521   1.789  0.7352 -0.7626  0.5778
  872SOL    HW2 2616   2.217   0.510   1.718 -2.1058 -1.7348 -1.3847
  873SOL     OW 2617   1.695   2.122   3.059 -0.6564  0.4079 -0.1839
  873SOL    HW1 2618   1.607   2.148   3.104 -0.0062 -0.4488 -2.2403
  873SOL    HW2 2619   1.685   2.097   2.957  0.2236 -0.0721  1.8674
  874SOL     OW 2620   0.677   2.454   0.751 -0.0466  0.2893  0.3380
  874SOL    HW1 2621   0.631   2.544   0.782  1.1386  2.8047  0.8855
  874SOL    HW2 2622   0.761   2.433   0.804 -0.2909 -1.3579 -3.5646
  875SOL     OW 2623   2.333   1.475   1.402  0.6546  0.3679  0.0367
  875SOL    HW1 2624   2.409   1.546   1.436  0.6541  0.0792 -0.8718
  875SOL    HW2 2625   2.361   1.427   1.315 -0.0246 -0.5472 -0.4772
  876SOL     OW 2626   0.042   2.271   2.719 -0.1777 -0.3788  0.3774
  876SOL    HW1 2627   0.112   2.199   2.745  1.4125 -1.3197  2.5442
  876SOL    HW2 2628   0.056   2.360   2.774  1.8459 -0.3934  1.4698
  877SOL     OW 2629   2.922   2.689   0.547 -0.6527  0.1418  0.5128
  877SOL    HW1 2630   2.894   2.784   0.584 -0.7133 -0.1354 -0.5135
  877SOL    HW2 2631   2.944   2.622   0.624 -0.4521  1.3451 -1.6197
  878SOL     OW 2632   2.797   1.497   2.236  0.2963 -0.3050  0.7222
  878SOL    HW1 2633   2.800   1.591   2.201 -2.1742 -2.6650 -0.9614
  878SOL    HW2 2634   2.798   1.490   2.339  0.0454  0.4555  0.9586
  879SOL     OW 2635   2.426   0.127   1.237 -0.3180  0.0120  0.6607
  879SOL    HW1 2636   2.444   0.031   1.277 -1.8637 -0.1038 -0.9645
  879SOL    HW2 2637   2.371   0.125   1.151  1.8062  2.3624  0.5652
  880SOL     OW 2638   0.776   0.473   2.220 -0.3841 -0.0818  0.2202
  880SOL    HW1 2639   0.751   0.412   2.301 -1.1424  0.2470 -0.8629
  880SOL    HW2 2640   0.800   0.416   2.138  1.4494  0.0126  2.3910
  881SOL     OW 2641   0.892   0.043   0.493 -0.1408 -0.3660  0.3911
  881SOL    HW1 2642   0.948  -0.033   0.532  2.4780 -0.0287  1.9291
  881SOL    HW2 2643   0.789   0.025   0.485 -0.5518  1.2370  1.2652
  882SOL     OW 2644   2.704   1.674   1.675  0.1177  0.0235  0.1777
  882SOL    HW1 2645   2.787   1.652   1.620  1.0365 -1.3659  0.9314
  882SOL    HW2 2646   2.740   1.692   1.772 -0.4322 -2.0145  0.3636
  883SOL     OW 2647   0.893   0.506   0.915  0.2431 -0.2729  0.1093
  883SOL    HW1 2648   0.922   0.599   0.956  1.6094  0.7759 -0.0063
  883SOL    HW2 2649   0.882   0.434   0.986  1.6236  0.5637  0.8927
  884SOL     OW 2650   1.147   1.720   1.181  0.0253  0.5388 -0.0305
  884SOL    HW1 2651   1.097   1.668   1.103  3.5498  0.8479  1.8844
  884SOL    HW2 2652   1.117   1.818   1.182 -1.0055  0.3973  0.7910
  885SOL     OW 2653   2.332   1.778   2.309 -0.4348  0.1472 -0.0364
  885SOL    HW1 2654   2.256   1.715   2.337  1.5612 -3.9732  0.4113
  885SOL    HW2 2655   2.306   1.875   2.278  0.6665  0.7965 -3.3576
  886SOL     OW 2656   2.587   0.333   1.791  0.4618  0.1376 -0.0867
  886SOL    HW1 2657   2.602   0.253   1.859 -2.5625  0.6774  2.5421
  886SOL    HW2 2658   2.666   0.397   1.793 -1.8062  2.1216  0.6690
  887SOL     OW 2659   0.104   1.943   1.340  0.0992 -0.2200  0.0712
  887SOL    HW1 2660   0.006   1.948   1.308 -0.2347  0.5612  2.4660
  887SOL    HW2 2661   0.159   2.030   1.325 -1.3827  0.2458  0.7108
  888SOL     OW 2662   0.549   1.214   1.526  0.3578 -0.1935  0.6385
  888SOL    HW1 2663   0.579   1.270   1.439 -1.4429  1.9552 -0.1642
  888SOL    HW2 2664   0.489   1.133   1.505 -2.0120 -0.5142 -1.0742
  889SOL     OW 2665   0.810   2.501   2.170  0.0428 -0.4050  0.4538
  889SOL    HW1 2666   0.733   2.429   2.154 -0.5132 -1.1429  0.3532
  889SOL    HW2 2667   0.901   2.484   2.117  2.0856  0.3491 -0.4552
  890SOL     OW 2668   2.414   2.464   0.250 -0.3072 -0.1186  0.1698
  890SOL    HW1 2669   2.424   2.509   0.158 -0.7963 -4.7681 -2.0121
  890SOL    HW2 2670   2.344   2.512   0.312  0.7285 -0.3708  1.0595
  891SOL     OW 2671   2.519   1.716   0.672 -0.0683  0.0835  0.7047
  891SOL    HW1 2672   2.531   1.655   0.752  0.4802  1.8275 -1.9470
  891SOL    HW2 2673   2.443   1.675   0.619  3.0631  0.4467  0.6852
  892SOL     OW 2674   0.368   0.269   2.297  0.0480  0.4569 -0.5513
  892SOL    HW1 2675   0.402   0.341   2.230 -0.7636  0.5448 -2.3557
  892SOL    HW2 2676   0.435   0.252   2.376  1.4345  0.2966 -0.7825
  893SOL     OW 2677   1.655   0.242   2.701  0.6730 -0.1364 -0.1318
  893SOL    HW1 2678   1.733   0.296   2.749 -2.3944  2.9444 -0.7907
  893SOL    HW2 2679   1.568   0.297   2.697  1.4827 -0.0830  0.4499
  894SOL     OW 2680   2.176   2.040   0.032  0.0719  0.1021 -0.0380
  894SOL    HW1 2681   2.127   1.999  -0.049 -0.6934 -0.7215 -0.9676
  894SOL    HW2 2682   2.186   1.967   0.108 -0.8652 -0.8107  2.7628
  895SOL     OW 2683   2.816   1.450   0.914 -0.2781 -0.2523  0.0912
  895SOL    HW1 2684   2.901   1.389   0.916 -2.2289  0.6544  0.2246
  895SOL    HW2 2685   2.833   1.546   0.956 -2.2602  2.3327  2.2913
  896SOL     OW 2686   1.701   1.810   1.182 -0.1116 -0.0330  0.8738
  896SOL    HW1 2687   1.723   1.745   1.106 -1.8613  2.0042  1.4076
  896SOL    HW2 2688   1.652   1.895   1.147  0.8653  0.4681  1.6610
  897SOL     OW 2689   0.309   0.537   3.057  0.2754  0.2660  0.5082
  897SOL    HW1 2690   0.243   0.567   2.981 -1.9892 -1.3561 -1.8192
  897SOL    HW2 2691   0.392   0.598   3.065 -0.7035 -0.3827  0.9990
  898SOL     OW 2692   0.574   2.867   1.071 -0.1843  0.0888  0.0547
  898SOL    HW1 2693   0.585   2.974   1.070 -1.2165  0.9638  0.7029
  898SOL    HW2 2694   0.662   2.823   1.115  0.8849 -0.0976  0.4238
  899SOL     OW 2695   2.826   0.892   1.333 -0.3159 -0.1936 -0.3713
  899SOL    HW1 2696   2.817   0.854   1.236  0.6012  2.1044  0.2190
  899SOL    HW2 2697   2.906   0.955   1.346 -0.9122 -3.2567 -0.8885
  900SOL     OW 2698   0.977   2.521   2.452 -0.2890  0.0749 -0.4932
  900SOL    HW1 2699   0.900   2.510   2.379  2.1463 -0.7174  2.6625
  900SOL    HW2 2700   0.940   2.508   2.548 -3.1662  0.9404  0.6624
  901SOL     OW 2701   1.905   2.368   1.359  0.2043 -0.5912  0.0820
  901SOL    HW1 2702   1.881   2.310   1.278  0.9528 -1.5179 -0.1366
  901SOL    HW2 2703   1.996   2.343   1.400 -1.0039 -0.3567 -1.6786
  902SOL     OW 2704   2.548   1.641   1.440 -0.1442 -0.3514 -0.5758
  902SOL    HW1 2705   2.594   1.634   1.533 -0.7199 -1.4438 -1.2776
  902SOL    HW2 2706   2.616   1.624   1.364  0.0996 -2.8224 -0.9149
  903SOL     OW 2707   0.234   2.464   1.956 -0.2175  0.3571 -0.2874
  903SOL    HW1 2708   0.136   2.443   1.925  2.5673  0.7415 -0.8674
  903SOL    HW2 2709   0.281   2.546   1.910 -1.1747  0.0524  0.8363
  904SOL     OW 2710   2.005   0.792   2.593  0.7631  0.0496 -0.0628
  904SOL    HW1 2711   1.927   0.720   2.603 -2.0095 -1.1715 -2.2866
  904SOL    HW2 2712   2.021   0.803   2.491 -0.2581  0.3529  0.3056
  905SOL     OW 2713   2.854   0.137   2.557  0.2621  0.1860 -0.0161
  905SOL    HW1 2714   2.902   0.044   2.555 -2.0710  1.7496  1.7265
  905SOL    HW2 2715   2.911   0.219   2.528 -0.5553  0.0476  1.9382
  906SOL     OW 2716   0.207   1.711   1.926  0.7388  0.0321 -0.0600
  906SOL    HW1 2717   0.121   1.727   1.873 -0.2718 -1.2657  3.0878
  906SOL    HW2 2718   0.296   1.745   1.894  0.3927 -1.1981  2.1532
  907SOL     OW 2719   0.250   2.442   1.014  0.2410  0.0254  0.3945
  907SOL    HW1 2720   0.333   2.393   0.974  0.5271  1.0917  0.1407
  907SOL    HW2 2721   0.227   2.526   0.958 -0.1893  1.2350  0.5710
  908SOL     OW 2722   2.819   3.014   0.380  0.1975 -0.7571 -0.1235
  908SOL    HW1 2723   2.721   3.040   0.397  0.3161  0.4257 -3.3185
  908SOL    HW2 2724   2.827   2.958   0.294 -0.8360 -0.3064  3.1130
  909SOL     OW 2725   0.825   1.052   2.647  0.0108 -0.2738 -0.1572
  909SOL    HW1 2726   0.783   0.959   2.628 -1.8136 -1.3306  0.6102
  909SOL    HW2 2727   0.898   1.080   2.580 -1.5133 -0.8989 -2.9491
  910SOL     OW 2728   1.802   1.894   2.175 -0.1763  0.3884  0.0487
  910SOL    HW1 2729   1.868   1.881   2.089  1.0175 -0.1348 -1.5689
  910SOL    HW2 2730   1.721   1.959   2.150  0.2012  0.1929 -0.1434
  911SOL     OW 2731   1.814   2.929   1.606 -0.3975 -0.0673  0.5397
  911SOL    HW1 2732   1.879   2.908   1.529 -0.9552 -0.3555 -0.5413
  911SOL    HW2 2733   1.806   2.850   1.670  2.9046  2.3292 -1.3348
  912SOL     OW 2734   2.862   1.011   0.739  0.1954  0.2990 -0.1469
  912SOL    HW1 2735   2.858   0.992   0.841 -1.3516 -1.6373  0.7393
  912SOL    HW2 2736   2.787   1.076   0.715  2.0136  2.0954  3.4486
  913SOL     OW 2737   2.530   1.284   1.550  0.2713  0.1035 -0.2028
  913SOL    HW1 2738   2.566   1.191   1.535 -2.2008  1.2790  0.7449
  913SOL    HW2 2739   2.576   1.353   1.488 -0.1301  0.8055  2.8718
  914SOL     OW 2740   2.780   0.595   1.178  0.3155  0.1930  0.1237
  914SOL    HW1 2741   2.817   0.503   1.216  2.0644 -1.6971  0.8565
  914SOL    HW2 2742   2.678   0.596   1.152 -3.1942  0.3274 -1.9292
  915SOL     OW 2743   1.187   0.718   1.036 -0.7423  0.4988  0.5044
  915SOL    HW1 2744   1.235   0.757   1.120  1.4738  0.1677 -1.3260
  915SOL    HW2 2745   1.085   0.714   1.055  4.0418  0.9235 -2.2036
  916SOL     OW 2746   0.601   0.023   0.637 -0.1572 -0.1983  0.0812
  916SOL    HW1 2747   0.651   0.087   0.700 -0.7518 -0.2017  1.4367
  916SOL    HW2 2748   0.588   0.051   0.540  1.8808 -0.4005  2.8381
  917SOL     OW 2749   2.832   2.603   2.033 -0.1712  0.3271 -0.1046
  917SOL    HW1 2750   2.740   2.628   1.988  0.1591  0.2348 -0.6854
  917SOL    HW2 2751   2.913   2.626   1.976  0.3405  1.6451  0.7499
  918SOL     OW 2752   1.017   2.092   3.027  0.1603  0.3099 -0.1479
  918SOL    HW1 2753   0.991   2.163   3.102 -1.6612  1.1679  1.3885
  918SOL    HW2 2754   1.105   2.104   2.972  0.0048 -0.5815 -2.3007
  919SOL     OW 2755   0.820   1.624   2.868  0.4377 -0.5432 -0.1106
  919SOL    HW1 2756   0.874   1.691   2.809 -1.5424 -0.3689  0.1534
  919SOL    HW2 2757   0.776   1.552   2.805  2.3067 -0.4119  0.8991
  920SOL     OW 2758   1.252   1.817   2.527 -0.1775  0.4183 -0.4367
  920SOL    HW1 2759   1.308   1.760   2.462 -0.5806  3.1114 -3.1888
  920SOL    HW2 2760   1.197   1.760   2.593 -0.3899  2.2941  1.3747
  921SOL     OW 2761   1.083   0.022   2.629 -0.4181  0.0817 -0.0124
  921SOL    HW1 2762   1.032  -0.023   2.547 -1.8704 -0.8469 -0.7407
  921SOL    HW2 2763   1.018   0.040   2.705  1.0060  2.4289 -0.1368
  922SOL     OW 2764   2.230   2.370   2.796 -0.2329 -0.5848 -0.1528
  922SOL    HW1 2765   2.251   2.273   2.780 -1.3351  2.5424  1.3377
  922SOL    HW2 2766   2.170   2.406   2.720  1.0248  0.9966  3.7965
  923SOL     OW 2767   1.280   2.670   0.278  0.4635 -0.3360  0.4225
  923SOL    HW1 2768   1.345   2.744   0.304 -0.9769 -1.6807 -1.9359
  923SOL    HW2 2769   1.321   2.578   0.289 -0.6160  3.5174 -0.0927
  924SOL     OW 2770   2.830   1.673   0.113 -0.2605 -0.6424  0.6745
  924SOL    HW1 2771   2.751   1.630   0.063  0.6166  0.8480  0.6065
  924SOL    HW2 2772   2.903   1.606   0.141 -0.1980 -0.0854  1.2686
  925SOL     OW 2773   0.008   2.887   1.461  0.1932  0.2916 -0.1476
  925SOL    HW1 2774  -0.057   2.920   1.535 -0.0766 -1.1540 -1.0289
  925SOL    HW2 2775  -0.032   2.797   1.420 -0.8273 -2.3991  2.9207
  926SOL     OW 2776   1.288   2.795   1.335 -0.6648 -0.3377 -0.1981
  926SOL    HW1 2777   1.333   2.819   1.245  0.2988  0.4334  1.6424
  926SOL    HW2 2778   1.310   2.866   1.405  0.9941 -0.6687 -2.9958
  927SOL     OW 2779   0.312   2.672   1.778  0.1815 -0.0618  0.5255
  927SOL    HW1 2780   0.278   2.588   1.727  0.1803  1.1008  0.1937
  927SOL    HW2 2781   0.274   2.761   1.737 -0.9560 -1.6441  2.5767
  928SOL     OW 2782   1.577   2.078   2.225 -0.4851 -0.2753  0.5509
  928SOL    HW1 2783   1.606   2.175   2.195  2.8607 -0.2909 -0.6328
  928SOL    HW2 2784   1.484   2.082   2.263  1.0002 -1.7774 -2.2447
  929SOL     OW 2785   2.448   2.518   2.855 -0.8050  0.0202  0.1301
  929SOL    HW1 2786   2.354   2.468   2.853 -1.5706 -0.2588 -1.2919
  929SOL    HW2 2787   2.499   2.506   2.761  0.8967 -1.3827 -0.9262
  930SOL     OW 2788   2.180   2.027   1.079  0.0229  0.2736 -0.3484
  930SOL    HW1 2789   2.181   1.989   1.175 -0.2551 -0.9874  1.5955
  930SOL    HW2 2790   2.242   2.100   1.059 -1.8331 -0.4110 -0.0837
  931SOL     OW 2791   0.530   1.697   2.684  0.0921  0.0928  0.4549
  931SOL    HW1 2792   0.533   1.725   2.785 -1.6210 -0.1043 -1.5148
  931SOL    HW2 2793   0.595   1.621   2.652 -2.6645 -2.3575  2.3112
  932SOL     OW 2794   0.463   0.126   3.060 -0.0622  0.2262 -0.3608
  932SOL    HW1 2795   0.542   0.180   3.110 -0.2935  1.4432  0.7947
  932SOL    HW2 2796   0.485   0.025   3.061  1.1025 -2.0237 -0.7799
  933SOL     OW 2797   0.965   0.806   3.067  0.3065  0.0292  0.5226
  933SOL    HW1 2798   0.954   0.827   3.168  0.6196 -0.2937  1.2501
  933SOL    HW2 2799   0.916   0.866   3.002 -1.2219 -3.2634  1.9107
  934SOL     OW 2800   0.788   2.969   2.684  0.2030 -0.7319  0.0484
  934SOL    HW1 2801   0.777   2.921   2.593 -1.0944  0.6264  1.7442
  934SOL    HW2 2802   0.834   2.906   2.751 -0.1034 -0.1368  1.6713
  935SOL     OW 2803   0.047   0.518   0.831 -0.0877  0.2321 -0.4850
  935SOL    HW1 2804   0.045   0.489   0.730  0.5415 -0.2741  0.3970
  935SOL    HW2 2805  -0.046   0.567   0.860 -1.2953  0.5275  0.6264
  936SOL     OW 2806   1.108   2.771   0.082  0.3785 -0.0095 -0.3931
  936SOL    HW1 2807   1.176   2.820   0.016  1.3092  0.0820  0.1732
  936SOL    HW2 2808   1.164   2.722   0.153  0.2836 -1.6553 -1.3358
  937SOL     OW 2809   1.825   2.654   2.094 -0.0414  0.3193 -0.1404
  937SOL    HW1 2810   1.730   2.704   2.091 -0.5160  0.1695 -1.0590
  937SOL    HW2 2811   1.880   2.683   2.012 -1.1530 -1.7810 -0.1654
  938SOL     OW 2812   2.753   2.076   1.591 -0.2924  0.0275  0.2096
  938SOL    HW1 2813   2.723   2.177   1.602  0.3938  0.8638 -2.0695
  938SOL    HW2 2814   2.852   2.061   1.620  1.1072  1.3172  0.9706
  939SOL     OW 2815   2.845   1.189   2.421  0.2430 -0.4471  0.3896
  939SOL    HW1 2816   2.895   1.184   2.333 -0.5015  0.5623  1.8659
  939SOL    HW2 2817   2.870   1.128   2.497  0.4912  2.5516  0.2432
  940SOL     OW 2818   1.066   0.427   2.764 -0.4053 -0.4672 -0.7403
  940SOL    HW1 2819   1.135   0.350   2.753  0.3516  0.6900 -0.7190
  940SOL    HW2 2820   0.982   0.402   2.713 -0.3550  0.3688  1.4693
  941SOL     OW 2821   0.028   2.793   2.258 -0.1711  0.0519 -0.5930
  941SOL    HW1 2822   0.078   2.700   2.247 -0.6687  2.3216  1.1659
  941SOL    HW2 2823   0.089   2.859   2.305 -1.8014  0.2179  1.7699
  942SOL     OW 2824   0.103   0.041   2.578 -0.1348  0.1345 -0.1336
  942SOL    HW1 2825   0.187   0.076   2.632  1.0140 -0.1463  2.7093
  942SOL    HW2 2826   0.074   0.113   2.503 -0.7584  2.4091 -0.5733
  943SOL     OW 2827   2.093   1.652   2.385  0.0759  0.3611  0.1654
  943SOL    HW1 2828   2.072   1.635   2.285 -0.6058 -1.5719 -1.5462
  943SOL    HW2 2829   2.098   1.560   2.438  0.1305 -4.7383  0.6258
  944SOL     OW 2830   2.158   2.350   1.460  0.1261 -0.3027 -0.1337
  944SOL    HW1 2831   2.256   2.385   1.477 -2.8147  1.2555 -0.8130
  944SOL    HW2 2832   2.147   2.248   1.493 -2.7387  0.1196 -1.1282
  945SOL     OW 2833   0.685   1.506   0.173 -0.1051 -0.5615  0.3755
  945SOL    HW1 2834   0.595   1.535   0.128 -2.1963  0.7051 -0.4591
  945SOL    HW2 2835   0.686   1.406   0.205  1.8847 -1.0050 -0.8429
  946SOL     OW 2836   0.447   0.943   2.486 -0.4672  0.1108 -0.2362
  946SOL    HW1 2837   0.353   0.893   2.477 -0.3798 -1.4125  1.9840
  946SOL    HW2 2838   0.441   1.040   2.528  3.0776 -1.1237  0.2742
  947SOL     OW 2839   1.512   0.497   3.046  0.1835  0.1349  0.3328
  947SOL    HW1 2840   1.469   0.532   2.956  1.1222 -0.0489  0.6252
  947SOL    HW2 2841   1.438   0.459   3.102 -0.5843 -0.8395  1.2972
  948SOL     OW 2842   1.829   3.005   2.125  0.2471  0.3110 -0.2488
  948SOL    HW1 2843   1.857   2.943   2.049 -2.3514  1.1399  1.1688
  948SOL    HW2 2844   1.830   2.951   2.213 -3.9827 -0.0699  1.7494
  949SOL     OW 2845   0.642   2.485   0.472 -0.1122  0.2466  0.4527
  949SOL    HW1 2846   0.631   2.587   0.488 -1.5112  1.8245  3.3508
  949SOL    HW2 2847   0.644   2.436   0.563  0.1270  0.7247  2.0694
  950SOL     OW 2848   0.224   2.228   3.015 -0.2320  0.6499 -0.1539
  950SOL    HW1 2849   0.182   2.314   2.983 -1.6264 -2.6578 -2.6318
  950SOL    HW2 2850   0.254   2.167   2.935  0.7724 -0.5893 -0.9700
  951SOL     OW 2851   1.223   2.668   2.802  0.4961  0.4519 -0.2904
  951SOL    HW1 2852   1.289   2.707   2.873  3.2831  2.4555  0.3892
  951SOL    HW2 2853   1.263   2.668   2.705 -1.7641  0.1040 -1.7462
  952SOL     OW 2854   0.054   1.656   0.379 -0.4731  0.1596  0.0327
  952SOL    HW1 2855   0.091   1.749   0.363  3.4475  0.3879  1.1811
  952SOL    HW2 2856   0.102   1.594   0.452  2.0878 -0.4176  0.7038
  953SOL     OW 2857   2.540   1.775   0.211 -0.4829  0.2261 -0.0491
  953SOL    HW1 2858   2.486   1.691   0.232  0.2998 -0.1352  2.8593
  953SOL    HW2 2859   2.508   1.820   0.125  0.3043  1.5262  3.4280
  954SOL     OW 2860   2.214   0.532   0.915  0.0242  0.0143 -0.3456
  954SOL    HW1 2861   2.207   0.556   0.813 -0.5461  1.3280  0.0521
  954SOL    HW2 2862   2.316   0.520   0.941 -0.5776 -0.3003 -2.8812
  955SOL     OW 2863   0.151   2.586   1.370  0.4118  0.3135 -0.2889
  955SOL    HW1 2864   0.048   2.607   1.355 -0.2914 -0.7962  0.7403
  955SOL    HW2 2865   0.213   2.654   1.330  0.2599 -2.0432  0.1367
  956SOL     OW 2866   2.816   2.438   2.479  0.8493 -0.1138 -0.1309
  956SOL    HW1 2867   2.857   2.345   2.460 -1.6400  1.6746 -1.1671
  956SOL    HW2 2868   2.838   2.509   2.410 -0.6439  1.0795  1.1134
  957SOL     OW 2869   1.657   2.062   2.807  0.9366 -0.4360  0.0339
  957SOL    HW1 2870   1.595   1.981   2.786  1.0844  1.1000  2.7390
  957SOL    HW2 2871   1.704   2.102   2.720  0.7792  3.2738 -1.7921
  958SOL     OW 2872   2.573   2.299   2.974  0.0693  0.4199  0.5211
  958SOL    HW1 2873   2.519   2.365   2.913 -2.1434 -4.1648 -1.2884
  958SOL    HW2 2874   2.511   2.272   3.051 -0.9369  0.7671  0.7005
  959SOL     OW 2875   0.292   2.787   0.034 -0.8289  0.3210 -0.2065
  959SOL    HW1 2876   0.188   2.776   0.017 -2.9784  1.6871  1.0321
  959SOL    HW2 2877   0.333   2.701   0.070 -0.5559  1.4438  0.4063
  960SOL     OW 2878   1.943   0.476   1.937 -0.0355 -0.2519 -0.3763
  960SOL    HW1 2879   1.876   0.553   1.915 -1.4598  1.1030  1.2173
  960SOL    HW2 2880   1.972   0.478   2.036 -1.3270 -0.2141 -2.7878
  961SOL     OW 2881   2.557   1.851   1.047  0.3937 -0.0585 -0.2876
  961SOL    HW1 2882   2.570   1.937   0.988 -0.8363  0.0644 -0.7350
  961SOL    HW2 2883   2.504   1.859   1.135 -0.2946  0.2396 -2.9464
  962SOL     OW 2884   1.312   0.924   0.034  0.0945 -0.1049  0.1223
  962SOL    HW1 2885   1.260   0.965  -0.046 -0.0075 -0.1980 -0.0018
  962SOL    HW2 2886   1.321   0.988   0.122 -2.5776  1.5208  1.2353
  963SOL     OW 2887   2.291   2.555   1.784 -0.0691  0.7605 -0.1251
  963SOL    HW1 2888   2.242   2.475   1.819  0.2702 -0.5953  0.0912
  963SOL    HW2 2889   2.317   2.626   1.853 -1.4941  0.0607 -0.9430
  964SOL     OW 2890   2.368   0.417   1.655  0.0084  0.2182  0.5547
  964SOL    HW1 2891   2.463   0.404   1.700 -0.8001 -2.2578 -2.1023
  964SOL    HW2 2892   2.376   0.401   1.556 -1.3144  4.3650  0.8382
  965SOL     OW 2893   2.593   2.978   0.150  0.0318 -0.3962  0.2081
  965SOL    HW1 2894   2.674   2.989   0.087 -1.6894 -2.4275 -0.0174
  965SOL    HW2 2895   2.506   3.019   0.115 -0.7752 -0.5440  3.5414
  966SOL     OW 2896   2.570   2.545   2.304  0.4548  0.4733 -1.0044
  966SOL    HW1 2897   2.638   2.594   2.364  1.2483  1.0165 -1.6151
  966SOL    HW2 2898   2.496   2.608   2.266  0.3172 -1.4365 -2.3924
  967SOL     OW 2899   2.780   2.825   2.493  0.1627  0.1176  0.5449
  967SOL    HW1 2900   2.819   2.742   2.445 -1.3735  1.6081 -0.2063
  967SOL    HW2 2901   2.855   2.887   2.531  0.3958 -0.4529  0.6924
  968SOL     OW 2902   1.932   1.069   2.612 -0.1356  0.2577  0.5833
  968SOL    HW1 2903   1.854   1.111   2.555 -3.3532  0.1146 -2.1711
  968SOL    HW2 2904   1.945   0.969   2.607  1.2681 -0.5748 -0.4235
  969SOL     OW 2905   2.793   2.479   1.124  0.1357  0.6282 -0.2953
  969SOL    HW1 2906   2.787   2.475   1.019 -0.0924  0.6629  0.5972
  969SOL    HW2 2907   2.851   2.404   1.166  1.4047  2.9525  2.0976
  970SOL     OW 2908   1.025   2.087   1.821 -0.0598  0.0886 -0.0088
  970SOL    HW1 2909   0.942   2.077   1.759  0.0965 -0.1984 -0.5300
  970SOL    HW2 2910   1.010   2.139   1.911  1.4033  2.4978 -1.8023
  971SOL     OW 2911   2.973   2.051   2.032 -0.3972  0.5586 -0.5514
  971SOL    HW1 2912   2.961   2.147   2.065  2.3274 -3.2376 -0.4124
  971SOL    HW2 2913   2.991   2.040   1.933 -1.2217 -1.3817  1.8826
  972SOL     OW 2914   1.966   2.501   0.236 -0.2634 -0.0529 -0.4430
  972SOL    HW1 2915   1.978   2.404   0.203 -1.6569  1.8174 -0.6045
  972SOL    HW2 2916   2.023   2.511   0.320  0.3134 -1.5238  2.2162
  973SOL     OW 2917   1.275   1.046   1.923 -0.1031  0.4658 -0.1597
  973SOL    HW1 2918   1.199   0.996   1.872  0.8727 -0.9924  0.5295
  973SOL    HW2 2919   1.244   1.140   1.954 -0.7244  1.3241 -0.4939
  974SOL     OW 2920   1.604   0.576   1.972  0.2345 -0.1131  0.5347
  974SOL    HW1 2921   1.697   0.611   1.936  0.0904 -0.3776 -0.9295
  974SOL    HW2 2922   1.520   0.635   1.940  2.7005  1.3194 -1.1772
  975SOL     OW 2923   2.374   3.046   0.009  0.2400  0.6512  0.3061
  975SOL    HW1 2924   2.320   2.962   0.044 -1.4399  2.1166  1.2082
  975SOL    HW2 2925   2.386   3.057  -0.093 -0.6394 -1.3817 -0.4921
  976SOL     OW 2926   1.895   2.849   2.334  0.4075  0.4917  0.3102
  976SOL    HW1 2927   1.850   2.754   2.320 -0.6765 -0.2971 -0.8586
  976SOL    HW2 2928   1.953   2.857   2.418 -2.7796  0.9050 -0.0608
  977SOL     OW 2929   0.483   0.691   1.063 -0.4068 -0.3458  0.0186
  977SOL    HW1 2930   0.393   0.712   1.008  2.7452 -1.1811 -0.9841
  977SOL    HW2 2931   0.570   0.726   1.015 -2.3762  0.9869 -0.2217
   3.10000   3.10000   3.10000
