1000 SPC/Fw water molecules t= 476.00000 step= 476000
 3000
    1SOL     OW    1   2.782   0.123   1.602  0.3491  0.6585  0.1399
    1SOL    HW1    2   2.786   0.186   1.517 -0.4336  1.3277 -2.4955
    1SOL    HW2    3   2.708   0.151   1.664  0.2591  0.4051 -0.6729
    2SOL     OW    4   0.015   3.012   2.908 -0.0080 -0.2603  0.1608
    2SOL    HW1    5   3.078   2.959   2.960  1.2613  0.1478 -2.5536
    2SOL    HW2    6   0.048   2.954   2.833  0.3097 -0.4075 -0.5527
    3SOL     OW    7   1.172   2.289   0.067 -0.1340  0.4780 -0.0544
    3SOL    HW1    8   1.239   2.233   0.014 -1.2656 -0.7693  0.1296
    3SOL    HW2    9   1.223   2.346   0.139  1.9081  1.3165 -0.6749
    4SOL     OW   10   1.291   2.756   2.380 -0.3692 -0.6165 -0.1668
    4SOL    HW1   11   1.238   2.805   2.308 -3.4011  4.2351 -0.2150
    4SOL    HW2   12   1.291   2.817   2.462 -1.0324  2.9175  1.1085
    5SOL     OW   13   2.101   0.116   2.817 -0.1880  0.1090 -0.5513
    5SOL    HW1   14   2.167   0.122   2.897  0.6667  0.1152  0.7258
    5SOL    HW2   15   2.061   0.209   2.808 -0.1178  0.4146 -3.6062
    6SOL     OW   16   0.017   1.793   1.031 -0.1235  0.1369 -0.3898
    6SOL    HW1   17   0.121   1.790   1.026  2.4501 -0.1472 -2.3825
    6SOL    HW2   18   3.100   1.729   0.961 -2.7131 -1.0363  0.1666
    7SOL     OW   19   1.053   1.882   0.556 -0.2774 -0.3723 -0.2176
    7SOL    HW1   20   1.042   1.897   0.656 -1.2506  1.3883 -0.4210
    7SOL    HW2   21   1.142   1.831   0.543  0.4860  0.4884  1.0429
    8SOL     OW   22   0.252   0.554   0.378  0.7023 -0.2932 -0.2568
    8SOL    HW1   23   0.344   0.599   0.376  0.4824  0.0451  0.3602
    8SOL    HW2   24   0.182   0.605   0.328 -2.5591  1.4576  2.4127
    9SOL     OW   25   0.283   2.718   1.656  0.2659  0.0082 -0.2031
    9SOL    HW1   26   0.370   2.696   1.612 -0.0148 -1.2533  0.3571
    9SOL    HW2   27   0.211   2.653   1.619  2.6967 -0.5723  1.5324
   10SOL     OW   28   1.189   1.899   0.153 -0.5165  0.0523 -0.0532
   10SOL    HW1   29   1.150   1.925   0.247 -2.7791  2.4388  2.1178
   10SOL    HW2   30   1.180   1.799   0.128 -0.6507 -1.0091 -1.2569
   11SOL     OW   31   1.960   0.685   1.473  0.0154 -0.4180 -0.4276
   11SOL    HW1   32   2.010   0.709   1.562  1.7586 -0.4118  2.8147
   11SOL    HW2   33   1.867   0.716   1.485  0.2974  0.7539 -1.5724
   12SOL     OW   34   0.441   0.855   2.154 -0.0815 -0.3737 -0.5370
   12SOL    HW1   35   0.410   0.952   2.140 -1.4051  0.7986 -2.1195
   12SOL    HW2   36   0.450   0.831   2.254 -1.2023  0.4346 -0.0796
   13SOL     OW   37   2.148   0.003   0.433 -0.0698 -0.3317 -0.1582
   13SOL    HW1   38   2.231   0.049   0.398  0.6402 -1.8381 -1.5031
   13SOL    HW2   39   2.099   3.072   0.359  0.7640 -0.3277 -0.6996
   14SOL     OW   40   2.368   1.972   0.258 -0.2108  0.6888  0.8050
   14SOL    HW1   41   2.452   1.960   0.197 -2.5116 -1.6540  1.0305
   14SOL    HW2   42   2.356   2.066   0.281 -0.1152 -0.7605  3.5290
   15SOL     OW   43   2.790   3.070   3.116 -0.0450 -0.6140  0.2572
   15SOL    HW1   44   2.800   0.049   0.002 -1.9660  1.2148  3.3338
   15SOL    HW2   45   2.697   3.042   3.095 -0.8880 -2.8275  2.8812
   16SOL     OW   46   3.061   0.714   1.022 -0.4345  0.6592  0.3341
   16SOL    HW1   47   3.091   0.619   1.035  0.0524 -1.7218  0.1578
   16SOL    HW2   48   3.017   0.732   0.931 -0.9961  0.7640  4.7539
   17SOL     OW   49   0.760   0.405   0.862  0.0093  0.0285  0.2449
   17SOL    HW1   50   0.717   0.339   0.923  2.8258  2.7764  0.1374
   17SOL    HW2   51   0.847   0.436   0.899 -1.8469  0.6539 -0.0374
   18SOL     OW   52   2.821   0.095   0.847 -0.2567 -0.7163 -0.4351
   18SOL    HW1   53   2.732   0.065   0.809 -3.5176 -1.9178 -0.0135
   18SOL    HW2   54   2.817   0.197   0.857 -3.4588  2.7320  0.9997
   19SOL     OW   55   1.776   1.701   1.155  0.2396 -0.2146 -0.8648
   19SOL    HW1   56   1.793   1.773   1.080  0.4447  1.8127  1.1535
   19SOL    HW2   57   1.739   1.610   1.115 -0.9657 -1.8597 -2.5300
   20SOL     OW   58   2.184   1.777   2.617  0.5536 -0.1736  0.0041
   20SOL    HW1   59   2.095   1.775   2.671  0.6792 -0.2298 -1.4469
   20SOL    HW2   60   2.185   1.846   2.544  1.4387 -2.9257  0.4971
   21SOL     OW   61   1.391   2.896   0.487 -0.2580  0.7384 -0.0896
   21SOL    HW1   62   1.306   2.837   0.485 -0.5774 -1.3678 -0.1844
   21SOL    HW2   63   1.452   2.863   0.416  1.2405 -1.4118 -0.1958
   22SOL     OW   64   2.384   0.897   3.119  0.2039  0.1413 -0.3407
   22SOL    HW1   65   2.475   0.905   0.044 -2.6686 -1.7828  1.0293
   22SOL    HW2   66   2.382   0.837   3.036 -0.7664 -0.1823  0.6909
   23SOL     OW   67   0.770   0.513   2.283  0.0980  0.0336  0.1147
   23SOL    HW1   68   0.753   0.414   2.260  0.4730  0.1316  1.6479
   23SOL    HW2   69   0.828   0.565   2.217 -0.0713  4.2147 -2.1673
   24SOL     OW   70   2.051   2.296   0.877  0.6734 -1.1637  0.3176
   24SOL    HW1   71   2.053   2.383   0.929 -1.4908 -0.3594 -1.3012
   24SOL    HW2   72   1.997   2.311   0.794  1.8246  0.9588  0.1636
   25SOL     OW   73   1.315   3.085   0.089 -0.2236 -0.6858  0.0961
   25SOL    HW1   74   1.310   3.105   3.117 -0.6964  0.6523  1.4830
   25SOL    HW2   75   1.394   0.007   0.135  1.2569  2.4868  0.0765
   26SOL     OW   76   0.998   2.865   2.774 -0.0854  0.2341 -0.7254
   26SOL    HW1   77   0.965   2.894   2.865  0.4447  1.7089 -0.1682
   26SOL    HW2   78   1.042   2.771   2.782  1.0967 -1.1815  1.7359
   27SOL     OW   79   1.174   0.538   1.302  0.1925 -0.1909 -0.1552
   27SOL    HW1   80   1.153   0.590   1.214 -0.0499 -1.7559  2.4723
   27SOL    HW2   81   1.086   0.485   1.320 -0.4097 -0.1360  2.7319
   28SOL     OW   82   0.637   1.887   0.963 -0.7059 -0.4185  0.2124
   28SOL    HW1   83   0.601   1.934   0.875 -1.9078  1.3506 -4.9759
   28SOL    HW2   84   0.576   1.924   1.038 -0.2866  1.4087 -0.3876
   29SOL     OW   85   2.722   0.948   0.849  0.2447 -0.0188 -0.1453
   29SOL    HW1   86   2.653   0.886   0.804  0.4887 -0.5977 -1.9678
   29SOL    HW2   87   2.711   0.954   0.948  2.0918 -1.3062  0.4536
   30SOL     OW   88   1.384   3.092   1.826 -0.3567 -0.5958 -0.1269
   30SOL    HW1   89   1.369   2.990   1.818  1.0588 -2.6284 -1.1586
   30SOL    HW2   90   1.339   0.008   1.908 -2.9007 -0.0228 -0.1557
   31SOL     OW   91   1.276   0.011   1.216 -0.0319  0.2707  0.4537
   31SOL    HW1   92   1.371   0.018   1.173  0.0724 -0.0960  2.1096
   31SOL    HW2   93   1.209   3.094   1.149  2.4025  1.4616  1.2512
   32SOL     OW   94   2.571   1.008   1.986  0.0208 -0.2747 -0.3283
   32SOL    HW1   95   2.511   0.939   1.944  1.0856 -1.1537  2.9290
   32SOL    HW2   96   2.518   1.089   2.026 -1.4141  1.5952  1.6914
   33SOL     OW   97   2.172   2.704   2.832  0.0027 -0.3771 -0.3304
   33SOL    HW1   98   2.149   2.781   2.898 -0.2491  0.6891 -0.7714
   33SOL    HW2   99   2.267   2.716   2.800 -3.4360 -1.2770  1.9673
   34SOL     OW  100   1.916   0.917   3.103 -0.4993  0.1286  0.0882
   34SOL    HW1  101   1.985   0.929   0.055 -0.9708  1.1238 -0.7295
   34SOL    HW2  102   1.906   0.818   3.083  0.2424 -1.6892  1.2874
   35SOL     OW  103   2.864   1.272   1.526  0.1096  0.4891  0.1827
   35SOL    HW1  104   2.772   1.279   1.574 -0.6648 -0.6848 -0.0090
   35SOL    HW2  105   2.904   1.368   1.529 -0.7608  0.0070 -0.1628
   36SOL     OW  106   2.494   2.350   2.913 -0.0899 -0.2507  0.7329
   36SOL    HW1  107   2.491   2.448   2.942 -1.6821 -2.1409  0.3208
   36SOL    HW2  108   2.525   2.346   2.817 -0.5844  1.7608 -1.4779
   37SOL     OW  109   1.729   3.115   2.055 -0.2567  0.3847  0.0102
   37SOL    HW1  110   1.792   0.076   2.065  1.2554  0.3897 -0.2975
   37SOL    HW2  111   1.706   3.106   1.957 -1.3793  0.0620 -0.8774
   38SOL     OW  112   0.774   1.103   2.409  0.2458 -0.1847 -0.0415
   38SOL    HW1  113   0.793   1.204   2.397 -1.1033  0.1040  3.5226
   38SOL    HW2  114   0.859   1.047   2.387 -2.4113 -1.8819  0.8805
   39SOL     OW  115   1.653   0.567   1.720  0.0364  0.1459  0.0208
   39SOL    HW1  116   1.566   0.524   1.689  0.2336  0.8800 -2.7186
   39SOL    HW2  117   1.715   0.499   1.764 -2.8437 -0.6146  1.2543
   40SOL     OW  118   0.873   2.362   0.485 -0.2063  0.2138 -0.4731
   40SOL    HW1  119   0.878   2.278   0.429 -1.0054 -2.2245 -0.0872
   40SOL    HW2  120   0.948   2.431   0.463 -1.9168  1.0593  0.8529
   41SOL     OW  121   2.447   2.332   1.397  0.5371  0.4372  0.0032
   41SOL    HW1  122   2.375   2.352   1.326 -0.0000  2.5717 -1.1303
   41SOL    HW2  123   2.495   2.415   1.419  0.0748 -0.7166  1.3601
   42SOL     OW  124   2.599   3.050   0.527  0.1556  0.2903 -0.4588
   42SOL    HW1  125   2.680   3.065   0.465 -0.8272  0.2317  0.8924
   42SOL    HW2  126   2.619   3.079   0.617 -1.7585  0.1211 -5.2265
   43SOL     OW  127   0.718   1.399   2.391 -0.0291  0.1720 -0.1280
   43SOL    HW1  128   0.753   1.495   2.371  0.3223  1.1801  0.2281
   43SOL    HW2  129   0.617   1.392   2.379 -0.5871 -1.3817  1.2297
   44SOL     OW  130   2.277   2.805   1.027 -0.5727  0.8342 -0.1617
   44SOL    HW1  131   2.178   2.818   1.012  0.4320 -1.9784  1.9066
   44SOL    HW2  132   2.331   2.849   0.952  0.8582 -1.0049 -0.9922
   45SOL     OW  133   0.078   2.339   2.923  0.0045  0.8375  0.2828
   45SOL    HW1  134   0.116   2.293   3.006  2.7955  0.2718  0.7743
   45SOL    HW2  135   0.154   2.349   2.856 -1.2035  2.1117  0.1138
   46SOL     OW  136   0.678   2.702   2.084  0.2113 -0.4497 -0.6488
   46SOL    HW1  137   0.625   2.672   2.163 -0.2394  1.4388 -0.5051
   46SOL    HW2  138   0.699   2.629   2.017 -0.6046  1.2897  0.0079
   47SOL     OW  139   0.527   1.699   0.537  0.8830 -0.2429  0.0347
   47SOL    HW1  140   0.496   1.796   0.521  0.2078  2.3997 -0.7711
   47SOL    HW2  141   0.519   1.642   0.455  0.7544  2.0033 -2.6672
   48SOL     OW  142   0.772   2.654   1.296  0.0916 -0.0751  0.1934
   48SOL    HW1  143   0.673   2.637   1.283  2.1784  1.9613  0.0065
   48SOL    HW2  144   0.786   2.702   1.383 -0.4697  2.1443 -0.6930
   49SOL     OW  145   0.148   2.887   0.064  0.0767  0.0582  0.5994
   49SOL    HW1  146   0.152   2.897   0.167 -1.3601 -0.6311  0.7416
   49SOL    HW2  147   0.050   2.883   0.040  2.2950 -0.1734  1.9688
   50SOL     OW  148   1.655   0.533   0.499  0.6628 -0.1293  0.0436
   50SOL    HW1  149   1.562   0.548   0.537  0.5385 -2.7966 -0.4011
   50SOL    HW2  150   1.690   0.609   0.444  0.4069 -0.1744 -1.0757
   51SOL     OW  151   2.043   3.089   0.861 -0.0702 -0.1325  0.2660
   51SOL    HW1  152   1.983   3.032   0.799 -2.2566 -0.1491  0.2923
   51SOL    HW2  153   2.108   0.011   0.806 -4.9688  0.8888  0.7765
   52SOL     OW  154   0.581   1.608   0.977 -0.3756  0.1189 -0.1594
   52SOL    HW1  155   0.654   1.556   0.922  2.1551 -1.1296 -0.1462
   52SOL    HW2  156   0.629   1.691   1.013 -1.5895 -0.5791  0.9274
   53SOL     OW  157   0.248   1.144   2.850  0.3544 -0.4623  0.2399
   53SOL    HW1  158   0.239   1.046   2.868 -1.1607  0.9241 -1.4391
   53SOL    HW2  159   0.245   1.201   2.934  2.0218  1.0783 -1.3513
   54SOL     OW  160   2.643   2.313   2.502  0.1550 -0.3954  0.4142
   54SOL    HW1  161   2.580   2.396   2.494 -0.4657  2.2116 -0.5673
   54SOL    HW2  162   2.599   2.224   2.468  2.3104 -2.8807 -0.5820
   55SOL     OW  163   2.794   2.272   1.494 -0.2668  0.4189 -0.0060
   55SOL    HW1  164   2.813   2.374   1.493  0.3210  2.8601 -1.0349
   55SOL    HW2  165   2.745   2.239   1.577 -0.1120 -1.3333  0.9797
   56SOL     OW  166   1.403   0.845   1.450  0.4743 -0.4462 -0.2840
   56SOL    HW1  167   1.499   0.863   1.474 -1.3802  1.0170 -0.6380
   56SOL    HW2  168   1.388   0.840   1.352  0.9256  0.6541  0.5849
   57SOL     OW  169   1.809   1.889   0.973  0.2008  0.3809 -0.4524
   57SOL    HW1  170   1.870   1.965   1.003 -0.3482 -2.2873 -0.4825
   57SOL    HW2  171   1.865   1.832   0.906 -0.7893  0.6885  1.6374
   58SOL     OW  172   2.147   0.176   2.248 -0.1216  0.1221  0.4977
   58SOL    HW1  173   2.188   0.173   2.343  0.2974  2.3867  0.2754
   58SOL    HW2  174   2.150   0.268   2.202 -0.4881  2.6156 -2.7400
   59SOL     OW  175   1.730   0.148   2.692  0.2041 -0.0970  0.1746
   59SOL    HW1  176   1.807   0.086   2.665  0.4312 -0.3074 -1.7509
   59SOL    HW2  177   1.720   0.226   2.625  0.3122  1.2874 -0.8375
   60SOL     OW  178   1.486   1.959   2.855 -0.2307 -0.1511  0.1362
   60SOL    HW1  179   1.491   2.056   2.882  2.7370  0.4633  0.9718
   60SOL    HW2  180   1.448   1.949   2.759 -0.8565 -2.2048  1.1105
   61SOL     OW  181   0.662   2.118   0.018  0.4878 -0.2387 -0.1077
   61SOL    HW1  182   0.603   2.048   3.098  0.0993  0.2066  0.1197
   61SOL    HW2  183   0.751   2.081   0.055  1.1067  1.7290  2.6836
   62SOL     OW  184   1.476   2.011   1.536 -0.4360  0.2950  0.2209
   62SOL    HW1  185   1.421   1.945   1.591  1.6206 -2.0271 -1.7331
   62SOL    HW2  186   1.569   1.976   1.515 -2.2528  1.0091  0.3147
   63SOL     OW  187   1.083   2.046   0.357 -0.0769 -0.0797  0.0432
   63SOL    HW1  188   1.010   2.099   0.305 -0.2000 -1.1139 -2.4066
   63SOL    HW2  189   1.052   1.993   0.439  1.3073  0.3307  1.4031
   64SOL     OW  190   1.892   1.535   2.645  0.3634  0.3998  0.4608
   64SOL    HW1  191   1.853   1.446   2.669 -2.3431  3.0828  1.1644
   64SOL    HW2  192   1.934   1.536   2.554  0.4110  2.5066 -2.2691
   65SOL     OW  193   1.700   1.863   1.418  0.0856  0.1925  0.2780
   65SOL    HW1  194   1.681   1.773   1.377  2.2385 -2.8214  1.0236
   65SOL    HW2  195   1.756   1.921   1.357 -1.0251  0.5740  1.0220
   66SOL     OW  196   2.952   0.730   0.727 -0.5286  0.2607 -0.3866
   66SOL    HW1  197   2.883   0.655   0.735  0.1548 -2.7587 -1.7940
   66SOL    HW2  198   2.918   0.799   0.662  0.4294 -1.9738 -3.0388
   67SOL     OW  199   2.042   2.513   1.057  0.6083 -0.0425 -0.1037
   67SOL    HW1  200   2.001   2.578   1.121 -0.1790  0.1461 -0.2565
   67SOL    HW2  201   2.142   2.525   1.049 -2.0170 -3.0434  0.0694
   68SOL     OW  202   2.509   2.718   1.842  0.9584 -0.4889  0.5708
   68SOL    HW1  203   2.466   2.664   1.761 -0.9846 -0.0670 -2.6865
   68SOL    HW2  204   2.495   2.818   1.825  4.4962  0.5202  2.0798
   69SOL     OW  205   2.796   2.849   2.679  0.0636 -0.0652  0.4912
   69SOL    HW1  206   2.856   2.806   2.606 -0.0783  1.2175 -2.6028
   69SOL    HW2  207   2.772   2.778   2.746 -1.4078  0.6562  0.0104
   70SOL     OW  208   1.036   1.459   2.418  0.3224  0.1856 -0.1306
   70SOL    HW1  209   1.023   1.421   2.325 -2.3903 -1.5068 -0.5655
   70SOL    HW2  210   1.045   1.383   2.489 -0.4676 -0.2234  0.6723
   71SOL     OW  211   0.900   1.771   2.111 -0.3432 -0.0450 -0.2330
   71SOL    HW1  212   0.952   1.685   2.091 -0.5289  0.3599  1.8311
   71SOL    HW2  213   0.840   1.793   2.034  0.4370 -0.2576 -0.0315
   72SOL     OW  214   2.943   1.512   1.652  0.5056 -0.6883 -0.0738
   72SOL    HW1  215   2.921   1.455   1.733  3.9552  1.5728 -1.6631
   72SOL    HW2  216   2.864   1.575   1.625  0.5728  0.4881  0.4114
   73SOL     OW  217   0.713   2.222   2.827  0.6028  0.3669 -0.3195
   73SOL    HW1  218   0.776   2.263   2.762 -5.0007 -2.2717 -0.2309
   73SOL    HW2  219   0.729   2.260   2.921 -1.0918 -0.5434  1.1916
   74SOL     OW  220   1.172   0.356   2.162 -0.5290 -0.0678  0.1147
   74SOL    HW1  221   1.102   0.285   2.142 -1.2658  1.2950 -0.8415
   74SOL    HW2  222   1.153   0.395   2.250  0.6770 -0.8613  0.2685
   75SOL     OW  223   1.000   3.054   0.562 -0.1014 -0.2798  0.3144
   75SOL    HW1  224   0.922   3.046   0.629  2.0453  1.1688 -1.1823
   75SOL    HW2  225   1.082   3.015   0.612 -3.4912  0.5778  0.2980
   76SOL     OW  226   0.486   1.588   2.766 -0.3977  0.2159 -0.3885
   76SOL    HW1  227   0.538   1.669   2.733 -1.2723 -0.1895 -0.0394
   76SOL    HW2  228   0.406   1.571   2.706  0.0882 -1.3630  1.5505
   77SOL     OW  229   0.561   2.617   0.668 -0.3120  0.3494 -0.2806
   77SOL    HW1  230   0.604   2.602   0.763  0.8867 -0.1503  1.5708
   77SOL    HW2  231   0.570   2.542   0.602 -0.3782  0.6827 -0.1291
   78SOL     OW  232   2.684   1.000   3.021  0.0971 -0.4509 -0.0476
   78SOL    HW1  233   2.760   1.064   3.025 -0.9251  1.2214 -2.9680
   78SOL    HW2  234   2.711   0.906   3.050 -1.0338  0.0398 -2.3476
   79SOL     OW  235   0.781   1.474   2.659 -0.5060  0.5098 -0.0362
   79SOL    HW1  236   0.759   1.423   2.573  0.3582  0.3086  0.6406
   79SOL    HW2  237   0.752   1.569   2.650  0.0163 -0.6612  0.0709
   80SOL     OW  238   2.185   1.087   1.374  0.5524  0.0504  0.1460
   80SOL    HW1  239   2.173   1.119   1.471  2.0317  0.5147 -0.2235
   80SOL    HW2  240   2.243   1.144   1.315  0.7848  3.2613 -0.2451
   81SOL     OW  241   2.197   1.048   2.531  0.1882  0.1529  0.6673
   81SOL    HW1  242   2.207   1.141   2.574  1.2486  0.5085  3.6050
   81SOL    HW2  243   2.098   1.024   2.521  2.1398 -0.0752 -1.3144
   82SOL     OW  244   2.411   2.055   1.369  0.4731  0.4741 -0.1266
   82SOL    HW1  245   2.419   2.153   1.381 -1.5418 -3.4577 -0.9173
   82SOL    HW2  246   2.355   2.010   1.440 -2.9913 -1.0430  0.7273
   83SOL     OW  247   2.122   2.748   0.177  0.1323 -0.6174 -0.6384
   83SOL    HW1  248   2.217   2.785   0.181  0.4975 -1.8002 -1.8083
   83SOL    HW2  249   2.104   2.671   0.241  1.1721 -1.0201 -1.3099
   84SOL     OW  250   0.684   0.756   0.614 -0.3330 -0.0502  0.3381
   84SOL    HW1  251   0.771   0.783   0.662 -2.7018  0.4571  1.9956
   84SOL    HW2  252   0.661   0.662   0.637  3.4188  2.7186  0.5965
   85SOL     OW  253   2.008   1.812   1.277  0.3570 -0.1561  0.2530
   85SOL    HW1  254   1.934   1.754   1.236  3.3234  1.7307 -1.4714
   85SOL    HW2  255   2.088   1.810   1.211  4.2879 -1.7460 -2.0605
   86SOL     OW  256   0.544   1.027   1.093 -0.2052 -0.2711  0.3660
   86SOL    HW1  257   0.506   0.935   1.066 -1.5071  2.0917  2.0908
   86SOL    HW2  258   0.584   1.068   1.005  0.1258  2.3209 -1.6971
   87SOL     OW  259   3.101   2.315   2.573  0.2963 -0.3545  0.5166
   87SOL    HW1  260   0.019   2.236   2.522 -3.0037 -1.4762 -3.1972
   87SOL    HW2  261   0.043   2.392   2.567  1.1626 -1.6344 -0.6350
   88SOL     OW  262   0.194   2.966   0.319 -0.0136  0.2011  0.4857
   88SOL    HW1  263   0.149   2.896   0.379 -0.7132 -1.0786  3.0548
   88SOL    HW2  264   0.288   2.983   0.350  0.0005 -0.4913  1.6391
   89SOL     OW  265   1.392   0.375   1.288 -0.2962  0.1511  0.2698
   89SOL    HW1  266   1.322   0.444   1.267  0.7728 -0.5215 -0.1610
   89SOL    HW2  267   1.342   0.296   1.331  1.2096  2.1893 -0.2731
   90SOL     OW  268   0.065   1.123   2.081  0.0419 -0.2397 -0.1635
   90SOL    HW1  269   0.154   1.078   2.094 -2.0949 -0.6287 -2.8703
   90SOL    HW2  270   0.015   1.084   1.998  0.9125 -0.5917  1.3317
   91SOL     OW  271   1.973   2.698   0.721 -0.3835 -0.6465  0.4886
   91SOL    HW1  272   2.048   2.632   0.695  1.5734 -2.3564  1.2936
   91SOL    HW2  273   1.885   2.649   0.718  1.2046  1.3119  2.1607
   92SOL     OW  274   1.536   1.857   0.877 -0.7751 -0.0006  0.7649
   92SOL    HW1  275   1.627   1.877   0.922 -2.9933  0.2362  1.4211
   92SOL    HW2  276   1.545   1.767   0.825 -0.2754  0.8707 -0.4916
   93SOL     OW  277   0.248   1.365   0.353 -0.1235  0.0981  0.5280
   93SOL    HW1  278   0.251   1.265   0.325  0.7317  2.5066 -2.0070
   93SOL    HW2  279   0.341   1.404   0.334  0.2970 -1.5463  1.5642
   94SOL     OW  280   0.678   2.440   0.875  0.3309 -0.3009 -0.3162
   94SOL    HW1  281   0.625   2.386   0.806 -1.5386 -1.5143  0.5216
   94SOL    HW2  282   0.670   2.401   0.970  0.6147  1.1912  2.5124
   95SOL     OW  283   0.326   0.899   0.363  0.0614 -0.4053  0.4345
   95SOL    HW1  284   0.327   0.924   0.460 -1.5699 -0.2783  0.7326
   95SOL    HW2  285   0.396   0.829   0.337  1.3392  0.8056 -0.0325
   96SOL     OW  286   0.756   2.505   1.928 -0.2429  0.2286  0.8204
   96SOL    HW1  287   0.838   2.456   1.939 -2.6159  2.5686  1.6021
   96SOL    HW2  288   0.708   2.468   1.847  1.1302 -0.7960  0.9182
   97SOL     OW  289   2.274   0.944   0.673 -0.0639 -0.2069  0.0230
   97SOL    HW1  290   2.248   1.011   0.604  1.4299  0.1006 -1.6214
   97SOL    HW2  291   2.264   0.987   0.764 -0.7971  1.9442 -0.8436
   98SOL     OW  292   0.134   2.025   1.855  0.6015 -0.6791  0.2080
   98SOL    HW1  293   0.237   2.016   1.862  2.5147  0.7308  0.4640
   98SOL    HW2  294   0.095   2.047   1.947  2.4773  1.1557 -1.0770
   99SOL     OW  295   0.021   0.320   1.687  0.8219 -0.2399 -0.4563
   99SOL    HW1  296   3.082   0.392   1.725 -0.8609  0.4763 -1.4293
   99SOL    HW2  297   3.103   0.230   1.666  0.2344  2.3330  2.1551
  100SOL     OW  298   2.055   0.375   2.450  0.0128  0.8288  0.3144
  100SOL    HW1  299   2.148   0.343   2.455 -1.9697  4.0499  2.2387
  100SOL    HW2  300   2.033   0.456   2.507  0.1225 -2.7479 -1.1634
  101SOL     OW  301   1.188   2.892   1.931 -0.0817  0.2559 -0.5354
  101SOL    HW1  302   1.118   2.943   1.881  0.6307 -0.0406 -0.1754
  101SOL    HW2  303   1.186   2.915   2.030  0.6268  2.5414 -1.4357
  102SOL     OW  304   0.632   0.514   1.616 -0.3097 -0.0459  0.1977
  102SOL    HW1  305   0.539   0.531   1.649 -0.9236  1.0120 -2.6611
  102SOL    HW2  306   0.698   0.520   1.690  0.6276  1.7838 -2.1905
  103SOL     OW  307   0.488   0.854   2.917  0.4882 -0.3301 -0.5645
  103SOL    HW1  308   0.394   0.882   2.955 -0.4836  2.0749 -0.0389
  103SOL    HW2  309   0.534   0.926   2.858 -0.0261 -1.8464 -1.0954
  104SOL     OW  310   0.612   3.057   1.972  0.0002  0.0801  0.1088
  104SOL    HW1  311   0.621   0.031   1.958 -1.4564  0.0972 -0.8667
  104SOL    HW2  312   0.534   3.011   1.922 -1.3195 -3.1126 -2.3588
  105SOL     OW  313   2.659   2.709   2.077 -0.1216  0.2852  0.4006
  105SOL    HW1  314   2.586   2.698   2.005  2.0955 -2.1282  4.5374
  105SOL    HW2  315   2.625   2.778   2.142  3.1049  0.2951 -0.3227
  106SOL     OW  316   0.594   0.001   0.835 -0.4290  0.2472 -0.3727
  106SOL    HW1  317   0.679   0.032   0.785 -0.7187  0.2859  0.9185
  106SOL    HW2  318   0.622   3.060   0.913 -1.5032 -3.0114 -0.7120
  107SOL     OW  319   3.091   2.048   0.995 -0.1671 -0.4232 -0.4514
  107SOL    HW1  320   0.028   2.126   1.038  1.8010  6.5228  0.6789
  107SOL    HW2  321   3.116   1.952   1.027 -0.7226  0.9145 -0.3053
  108SOL     OW  322   0.402   2.318   0.817  0.4301  0.2061  0.5270
  108SOL    HW1  323   0.322   2.369   0.856  1.1910  1.2190  1.2659
  108SOL    HW2  324   0.373   2.251   0.746  1.6226  0.9099  0.2446
  109SOL     OW  325   1.647   3.097   0.769 -0.1413  0.0690 -0.1915
  109SOL    HW1  326   1.609   3.077   0.863 -0.4319  0.3502 -0.0546
  109SOL    HW2  327   1.728   3.039   0.756 -0.2612 -1.0333  1.5357
  110SOL     OW  328   1.718   2.034   0.630  0.6690 -0.0272  0.1914
  110SOL    HW1  329   1.808   2.004   0.597 -1.2384 -0.9553  1.7395
  110SOL    HW2  330   1.730   2.063   0.725  0.0921 -0.5446 -0.9714
  111SOL     OW  331   1.919   2.847   1.917  0.0552 -0.5334 -0.1408
  111SOL    HW1  332   1.903   2.870   2.016  0.9534  0.4943 -0.3730
  111SOL    HW2  333   1.841   2.880   1.856 -0.1917  0.2298 -2.0700
  112SOL     OW  334   1.810   2.317   2.817 -0.0301  0.1846  0.4948
  112SOL    HW1  335   1.896   2.350   2.864  1.8977  0.1376  0.9032
  112SOL    HW2  336   1.777   2.395   2.766  0.3528 -1.4591  3.8133
  113SOL     OW  337   2.289   2.228   2.017 -0.4984 -0.6202 -0.0066
  113SOL    HW1  338   2.308   2.226   2.115 -3.0598  0.8952  0.0077
  113SOL    HW2  339   2.361   2.287   1.969  2.8014  0.1305 -1.1878
  114SOL     OW  340   0.223   1.326   1.595  0.1925 -0.4232 -0.4798
  114SOL    HW1  341   0.261   1.326   1.502 -0.4864  1.2361  2.1019
  114SOL    HW2  342   0.154   1.402   1.610 -0.7400 -2.0156  2.4402
  115SOL     OW  343   2.702   0.724   2.854 -0.3041  0.4455 -0.3370
  115SOL    HW1  344   2.603   0.722   2.860 -0.6092  1.1246  1.1200
  115SOL    HW2  345   2.749   0.685   2.938  0.2244 -3.5040  1.2575
  116SOL     OW  346   2.898   0.336   0.033 -0.1219  0.1150 -0.0766
  116SOL    HW1  347   2.996   0.304   0.022  3.9457 -2.1062  1.1546
  116SOL    HW2  348   2.847   0.313   3.070  0.7601  1.4191 -1.9535
  117SOL     OW  349   2.580   2.757   0.846  0.1078  0.2546 -0.1224
  117SOL    HW1  350   2.509   2.824   0.812  1.9199  0.3090 -0.2445
  117SOL    HW2  351   2.539   2.690   0.914 -1.6587 -2.2819  3.4983
  118SOL     OW  352   1.068   2.202   2.262  0.3271 -0.0666 -0.0048
  118SOL    HW1  353   1.083   2.101   2.262  0.2301 -0.4887  1.2947
  118SOL    HW2  354   1.100   2.244   2.353  0.8540 -0.0275 -0.6928
  119SOL     OW  355   0.608   2.738   0.192  0.2369 -0.0261 -0.1583
  119SOL    HW1  356   0.537   2.786   0.134  1.2081  0.4275  0.0293
  119SOL    HW2  357   0.623   2.768   0.289 -0.4100 -1.4216 -0.3992
  120SOL     OW  358   1.292   0.713   0.412  0.0468  0.7907  0.0870
  120SOL    HW1  359   1.270   0.620   0.362  1.4942 -3.1745 -1.6337
  120SOL    HW2  360   1.374   0.758   0.368  2.4680  1.0030  1.0203
  121SOL     OW  361   1.736   0.811   1.102 -0.0243  0.4436 -0.3845
  121SOL    HW1  362   1.749   0.719   1.147  1.5329 -0.8720  0.7292
  121SOL    HW2  363   1.710   0.884   1.168  0.6264 -1.8070  0.0102
  122SOL     OW  364   1.880   1.695   2.158  0.5879  0.0963  0.1152
  122SOL    HW1  365   1.803   1.757   2.155 -2.6256  1.7384 -0.1769
  122SOL    HW2  366   1.877   1.625   2.083 -2.7949  0.1915 -0.2002
  123SOL     OW  367   0.246   1.027   0.588  0.2307 -0.1266  0.2963
  123SOL    HW1  368   0.232   1.131   0.584  1.5380  0.0915  0.7853
  123SOL    HW2  369   0.165   0.981   0.635 -0.7075 -0.5998 -1.0163
  124SOL     OW  370   0.785   0.235   2.670 -0.1052 -0.1762  0.0399
  124SOL    HW1  371   0.860   0.208   2.602  0.9194 -0.2395 -2.7245
  124SOL    HW2  372   0.813   0.215   2.767 -1.5495  0.2238 -1.1168
  125SOL     OW  373   0.693   2.998   2.832 -0.8447  0.1113 -0.5123
  125SOL    HW1  374   0.751   2.969   2.908 -0.0807  0.5868 -2.8043
  125SOL    HW2  375   0.667   2.918   2.772  1.0174  0.4766  2.1012
  126SOL     OW  376   0.656   1.420   3.106 -0.7672  0.1054  0.0430
  126SOL    HW1  377   0.634   1.383   3.013  1.3112 -0.2222  1.4731
  126SOL    HW2  378   0.752   1.451   3.108 -0.9961 -2.7221  1.1653
  127SOL     OW  379   1.044   2.758   0.766  0.8068 -0.0504 -0.5261
  127SOL    HW1  380   0.970   2.812   0.734  2.1145 -0.4373  0.2098
  127SOL    HW2  381   1.120   2.816   0.796 -1.0105 -0.4298 -1.2520
  128SOL     OW  382   1.776   2.000   0.152  0.5045  0.0610  0.0174
  128SOL    HW1  383   1.742   1.906   0.164  2.1010 -1.3825  0.8135
  128SOL    HW2  384   1.802   2.013   0.054  1.5996  1.4608  0.9206
  129SOL     OW  385   1.793   1.788   1.675 -0.2124 -0.5890  0.0596
  129SOL    HW1  386   1.758   1.811   1.583  0.8744  1.7463 -0.3936
  129SOL    HW2  387   1.718   1.740   1.729 -2.1841  0.6611  2.7565
  130SOL     OW  388   2.077   1.796   1.722  0.0951 -0.1641 -0.0259
  130SOL    HW1  389   1.979   1.823   1.707  2.9666  1.6501 -1.3948
  130SOL    HW2  390   2.109   1.821   1.816 -0.6437  0.4142 -1.3303
  131SOL     OW  391   0.972   2.689   2.049  0.1211  0.7038 -0.0122
  131SOL    HW1  392   1.023   2.643   1.973 -2.2607  0.0064  0.7723
  131SOL    HW2  393   0.873   2.671   2.031  1.4543  0.3023  1.3313
  132SOL     OW  394   2.497   1.510   0.846 -0.0669  0.1050 -0.2782
  132SOL    HW1  395   2.503   1.613   0.846  1.2670  2.4139  2.4123
  132SOL    HW2  396   2.566   1.467   0.785 -0.3199 -1.0542  0.9408
  133SOL     OW  397   0.822   1.919   1.868 -0.3963 -0.5743 -0.0681
  133SOL    HW1  398   0.759   1.902   1.789 -0.7392 -1.0528  1.5948
  133SOL    HW2  399   0.784   1.986   1.936  0.3286 -1.3714 -1.3656
  134SOL     OW  400   0.017   1.470   0.975  0.6978 -0.5858 -0.0425
  134SOL    HW1  401   3.061   1.455   0.909 -0.3437 -1.0287  0.8076
  134SOL    HW2  402   0.100   1.460   0.919 -1.0595 -0.0165  2.3023
  135SOL     OW  403   2.224   1.658   2.964 -0.4531 -0.2141 -0.3151
  135SOL    HW1  404   2.268   1.749   2.941 -0.3567  0.7836  1.7059
  135SOL    HW2  405   2.123   1.664   2.948  0.8264  0.6587 -1.6216
  136SOL     OW  406   0.009   1.753   1.334  0.4333  0.3643  0.0705
  136SOL    HW1  407   0.039   1.805   1.249 -0.6414  0.6609 -1.0313
  136SOL    HW2  408   3.101   1.823   1.406  1.2526  0.8795 -1.4755
  137SOL     OW  409   2.931   1.339   2.746  0.0676  0.5349 -0.1289
  137SOL    HW1  410   2.866   1.262   2.741  3.3175  0.9921  0.1069
  137SOL    HW2  411   2.899   1.428   2.782  0.7873 -0.8847 -3.3635
  138SOL     OW  412   2.805   0.364   0.900  0.3879  0.0243 -0.2331
  138SOL    HW1  413   2.721   0.350   0.957 -0.1981  0.6952 -0.0429
  138SOL    HW2  414   2.783   0.429   0.819 -0.4553  1.4492 -1.8830
  139SOL     OW  415   2.235   2.233   3.025  0.4124  0.0803  0.3594
  139SOL    HW1  416   2.326   2.272   3.043  0.3484 -1.4640  3.9140
  139SOL    HW2  417   2.235   2.175   2.940 -0.8686 -2.6753 -0.9300
  140SOL     OW  418   0.908   1.445   0.616 -0.2843 -0.0013 -0.2132
  140SOL    HW1  419   0.878   1.531   0.668 -0.8674 -0.4451 -0.0205
  140SOL    HW2  420   0.837   1.370   0.634  0.6753 -1.0515  1.6626
  141SOL     OW  421   1.164   1.179   0.765 -0.3258  0.6563 -0.0967
  141SOL    HW1  422   1.232   1.255   0.762  0.2272  0.0776  0.2211
  141SOL    HW2  423   1.133   1.160   0.668  0.9375  1.7426  1.2106
  142SOL     OW  424   1.335   0.775   1.197  0.3379 -0.5772  0.3306
  142SOL    HW1  425   1.264   0.726   1.146 -0.2234 -0.3506  1.0573
  142SOL    HW2  426   1.423   0.774   1.144 -1.7498  0.9212 -2.6481
  143SOL     OW  427   0.320   0.368   2.910  0.0145 -0.2290 -0.2286
  143SOL    HW1  428   0.243   0.312   2.866 -3.7826 -4.0045  0.3982
  143SOL    HW2  429   0.353   0.448   2.852  0.4775 -0.1667 -2.6123
  144SOL     OW  430   2.394   0.107   0.382  0.4436  0.2297  0.1368
  144SOL    HW1  431   2.435   0.191   0.349 -1.5512 -2.3498  0.1087
  144SOL    HW2  432   2.459   0.061   0.441 -0.3404  0.3124  0.0282
  145SOL     OW  433   2.385   2.810   2.680 -0.3660  0.5357  0.0045
  145SOL    HW1  434   2.429   2.780   2.593  0.0823 -2.2310 -0.5573
  145SOL    HW2  435   2.342   2.900   2.672  1.2506 -2.6394  2.0518
  146SOL     OW  436   0.018   2.725   0.396 -0.6130 -0.7526  0.7172
  146SOL    HW1  437   0.055   2.633   0.408 -1.8603  0.8106  2.7289
  146SOL    HW2  438   3.042   2.728   0.360 -3.1286  0.2785  0.2399
  147SOL     OW  439   1.370   0.841   0.087  0.3022  0.0308 -0.2892
  147SOL    HW1  440   1.276   0.874   0.087 -0.0099 -0.2525 -0.1525
  147SOL    HW2  441   1.377   0.748   0.047  1.4845  0.1327 -0.6176
  148SOL     OW  442   1.080   0.088   0.153  0.0729 -0.4811  0.5072
  148SOL    HW1  443   1.093   0.130   0.246  0.7575  0.0777 -1.9879
  148SOL    HW2  444   1.154   0.020   0.137  0.6544  1.1229  1.4743
  149SOL     OW  445   1.345   0.807   2.665  0.6579  0.1141 -0.1273
  149SOL    HW1  446   1.308   0.753   2.585  0.8679 -3.1390 -1.9748
  149SOL    HW2  447   1.286   0.790   2.752 -0.5989 -0.5925  1.8529
  150SOL     OW  448   1.411   2.907   2.791 -0.4284  0.2296 -0.1533
  150SOL    HW1  449   1.375   2.967   2.868 -2.0460  2.0438 -0.7096
  150SOL    HW2  450   1.472   2.830   2.821 -0.5608  0.1550 -0.2560
  151SOL     OW  451   3.079   1.153   2.960  0.6646 -0.3961 -0.6761
  151SOL    HW1  452   3.070   1.183   2.865 -1.9627  0.3612  2.3318
  151SOL    HW2  453   2.995   1.166   3.021 -1.9790 -1.5677 -0.5656
  152SOL     OW  454   0.677   0.140   1.572 -0.0742 -0.2964 -0.5239
  152SOL    HW1  455   0.636   0.224   1.534  0.6689  3.4784 -0.9221
  152SOL    HW2  456   0.758   0.111   1.520 -0.5808 -4.6317 -2.0420
  153SOL     OW  457   2.515   0.124   1.777  0.1585 -0.2086  0.7591
  153SOL    HW1  458   2.488   0.202   1.713  0.6298 -1.6397 -1.3957
  153SOL    HW2  459   2.504   0.164   1.870 -1.3194 -1.1215  2.2705
  154SOL     OW  460   2.124   0.092   1.946  0.2274 -0.3591  0.5082
  154SOL    HW1  461   2.026   0.124   1.948 -0.1165 -2.0662 -0.5988
  154SOL    HW2  462   2.124   0.016   2.011 -1.9397 -3.5901 -1.1768
  155SOL     OW  463   3.089   1.159   0.199  0.3598 -0.1142 -0.0304
  155SOL    HW1  464   3.079   1.262   0.199  2.3517 -1.0757  0.3694
  155SOL    HW2  465   3.009   1.121   0.246 -3.5576  0.9933  1.3991
  156SOL     OW  466   1.728   1.066   0.164 -0.0522  0.1330 -0.8609
  156SOL    HW1  467   1.755   1.059   0.068  0.5071 -1.1582 -2.6311
  156SOL    HW2  468   1.717   0.973   0.200  0.7619 -0.4027 -1.1850
  157SOL     OW  469   0.968   2.479   0.097  0.0141 -0.4361  0.8118
  157SOL    HW1  470   1.024   2.408   0.144  0.1650 -1.7684 -0.7579
  157SOL    HW2  471   0.897   2.438   0.037 -0.9553 -0.8810 -1.2782
  158SOL     OW  472   1.625   1.014   1.556  0.2919 -0.6279  0.4651
  158SOL    HW1  473   1.664   1.012   1.653  0.5303 -0.2635  0.5890
  158SOL    HW2  474   1.573   1.103   1.528 -2.8078  1.5992  1.3430
  159SOL     OW  475   0.179   0.200   0.637  0.0391  0.2613 -0.4490
  159SOL    HW1  476   0.238   0.122   0.666 -1.9652  1.3253  0.3148
  159SOL    HW2  477   0.188   0.223   0.539  1.1711  1.6653 -2.1353
  160SOL     OW  478   2.499   1.951   1.767  0.8620 -0.1728  0.2506
  160SOL    HW1  479   2.540   1.859   1.769 -0.5887 -1.1292  0.5485
  160SOL    HW2  480   2.422   1.945   1.704  2.6950  1.0423  1.3022
  161SOL     OW  481   0.044   0.086   0.296 -0.1070 -0.3636 -0.4685
  161SOL    HW1  482   3.117   3.121   0.277 -0.8913  1.4301 -0.3735
  161SOL    HW2  483   0.140   0.064   0.318 -1.2150 -0.7790  1.8468
  162SOL     OW  484   0.577   0.582   2.098 -0.0201  0.6451  0.5017
  162SOL    HW1  485   0.555   0.680   2.076  0.5866 -1.1913  0.1801
  162SOL    HW2  486   0.627   0.568   2.185 -0.2893  0.4035 -1.2071
  163SOL     OW  487   2.957   3.100   2.419  0.4863 -0.5518 -0.4685
  163SOL    HW1  488   2.896   0.058   2.415  0.5588 -1.7645  0.1892
  163SOL    HW2  489   2.906   3.026   2.375  3.0696 -2.2039  1.1369
  164SOL     OW  490   2.405   1.603   0.203 -0.1945  0.1032  0.4864
  164SOL    HW1  491   2.361   1.680   0.256 -1.7316  0.4281  2.2324
  164SOL    HW2  492   2.337   1.548   0.152  2.2927 -0.4486  2.4454
  165SOL     OW  493   0.655   0.144   1.232  0.1784 -0.5443  0.2052
  165SOL    HW1  494   0.621   0.211   1.303 -0.6226 -0.5925  0.5361
  165SOL    HW2  495   0.753   0.106   1.251  0.6575 -1.6080  1.3716
  166SOL     OW  496   3.013   0.244   0.439 -0.1961 -0.4583  0.3051
  166SOL    HW1  497   3.075   0.188   0.381  0.4145 -3.2694  0.1240
  166SOL    HW2  498   2.943   0.180   0.478 -1.0057  1.2339 -0.4314
  167SOL     OW  499   2.053   0.576   0.858  0.2902  0.1955  1.1246
  167SOL    HW1  500   2.070   0.611   0.950 -1.7839 -3.3172 -4.5361
  167SOL    HW2  501   2.039   0.472   0.859 -1.3634 -0.1220  1.4667
  168SOL     OW  502   1.083   0.468   2.396  0.0797  0.2185 -0.0650
  168SOL    HW1  503   1.114   0.473   2.493  2.0188 -1.1266 -1.1723
  168SOL    HW2  504   0.992   0.512   2.384 -2.8543 -2.4655 -0.4047
  169SOL     OW  505   0.956   1.824   1.164 -0.5945 -0.0325  0.4508
  169SOL    HW1  506   1.005   1.780   1.088 -2.4369 -1.6611 -3.2194
  169SOL    HW2  507   0.912   1.910   1.131  1.1617 -1.0762 -1.6470
  170SOL     OW  508   3.039   0.053   1.682  0.1850  0.1780 -0.4146
  170SOL    HW1  509   3.061   3.088   1.637  1.1875 -1.0895 -2.5710
  170SOL    HW2  510   2.942   0.074   1.652 -3.5092 -1.3954  0.4131
  171SOL     OW  511   2.658   0.814   2.167  0.1573 -0.5264 -0.5015
  171SOL    HW1  512   2.635   0.875   2.091  0.7757 -3.9789 -1.9559
  171SOL    HW2  513   2.622   0.719   2.154 -0.0010  0.8719  1.4879
  172SOL     OW  514   1.228   2.147   1.122 -0.3577  0.0422 -0.4404
  172SOL    HW1  515   1.140   2.155   1.079  0.8521 -1.3982  1.2562
  172SOL    HW2  516   1.305   2.175   1.061 -1.0358  2.4255 -1.5723
  173SOL     OW  517   2.462   2.386   0.130 -0.5669 -0.9493  0.5991
  173SOL    HW1  518   2.381   2.381   0.196 -0.9741  2.9808  2.8233
  173SOL    HW2  519   2.476   2.476   0.085 -0.5445 -2.4813 -0.1898
  174SOL     OW  520   1.809   0.785   0.338 -0.2563 -0.1879 -0.1052
  174SOL    HW1  521   1.788   0.719   0.262  2.0114  1.6814  1.3262
  174SOL    HW2  522   1.908   0.785   0.356 -0.7273 -1.1599 -2.9932
  175SOL     OW  523   0.746   1.814   1.321 -0.3119 -0.4891 -0.5255
  175SOL    HW1  524   0.692   1.731   1.316  0.9413  1.4356 -0.0364
  175SOL    HW2  525   0.815   1.812   1.241  1.1748  0.8739 -0.7079
  176SOL     OW  526   0.344   0.007   0.724 -0.4070  0.1142  0.3971
  176SOL    HW1  527   0.426   0.007   0.787  0.9882 -0.1794  0.5379
  176SOL    HW2  528   0.304   3.040   0.713  1.0399 -1.2848  1.2896
  177SOL     OW  529   2.712   1.210   0.220 -0.2274  0.0299 -0.5192
  177SOL    HW1  530   2.771   1.160   0.286 -0.0829 -0.6321  0.4391
  177SOL    HW2  531   2.675   1.299   0.256 -0.5173 -0.9675  2.1471
  178SOL     OW  532   2.745   2.455   2.153 -0.1657 -0.0744 -0.2934
  178SOL    HW1  533   2.702   2.545   2.130 -3.1630 -0.3776  0.3792
  178SOL    HW2  534   2.811   2.463   2.228 -0.0367  0.3354 -2.0860
  179SOL     OW  535   2.379   3.088   0.140 -0.1550  0.2332  0.6250
  179SOL    HW1  536   2.394   0.010   0.230 -0.9224 -0.5251  0.2079
  179SOL    HW2  537   2.280   3.095   0.107 -0.0800  2.1036 -2.3568
  180SOL     OW  538   2.260   0.576   0.656 -0.3680 -0.1530  0.3208
  180SOL    HW1  539   2.183   0.570   0.725 -4.0156  0.9614  1.6860
  180SOL    HW2  540   2.295   0.671   0.638  0.3768  2.4797 -0.6057
  181SOL     OW  541   3.020   0.143   2.795  0.1867 -0.2570  1.0834
  181SOL    HW1  542   3.097   0.131   2.858  1.3330 -0.7890 -1.2128
  181SOL    HW2  543   2.996   0.047   2.757 -2.2823 -1.2054 -1.6505
  182SOL     OW  544   2.501   2.085   2.447 -0.0457 -0.2459 -0.2453
  182SOL    HW1  545   2.522   2.124   2.354 -0.2447  2.6208 -1.3927
  182SOL    HW2  546   2.531   1.989   2.460  1.6250 -2.1230 -0.9140
  183SOL     OW  547   0.112   0.949   1.517 -0.0036 -0.0947 -0.1027
  183SOL    HW1  548   0.140   1.002   1.431  0.5464  1.3387 -2.8095
  183SOL    HW2  549   0.029   0.991   1.556  0.5982  0.1454 -1.5471
  184SOL     OW  550   0.189   1.523   1.174  0.6990  0.3862  0.1156
  184SOL    HW1  551   0.207   1.618   1.139  1.5647 -2.0221 -0.9992
  184SOL    HW2  552   0.153   1.458   1.101  1.1865 -2.8707 -1.0668
  185SOL     OW  553   2.904   2.963   1.341  0.4444 -0.5623  0.1280
  185SOL    HW1  554   2.966   2.908   1.287  0.5925  2.9624  1.0006
  185SOL    HW2  555   2.896   3.052   1.294 -1.5357 -1.0838  2.3445
  186SOL     OW  556   2.083   2.732   2.561 -0.2793 -0.2022 -0.4198
  186SOL    HW1  557   2.108   2.739   2.660  1.7652  2.6640  1.4362
  186SOL    HW2  558   1.991   2.687   2.547 -3.7556 -0.1483  0.0435
  187SOL     OW  559   0.168   1.288   0.595 -0.0697 -0.1154 -0.2292
  187SOL    HW1  560   0.178   1.336   0.502  1.6648  0.3020 -4.0601
  187SOL    HW2  561   0.177   1.355   0.671  0.8868 -1.5291 -1.9924
  188SOL     OW  562   2.109   1.535   0.289  0.0398 -0.0147  0.8102
  188SOL    HW1  563   2.144   1.630   0.311  0.9298 -1.0612  0.1163
  188SOL    HW2  564   2.137   1.503   0.198 -0.3071  1.1075  0.2229
  189SOL     OW  565   3.086   1.659   2.954 -0.6547  0.3444  0.8879
  189SOL    HW1  566   0.059   1.628   2.951 -4.6018  3.0277  1.2782
  189SOL    HW2  567   3.056   1.692   2.860  1.3710  0.3034  2.3892
  190SOL     OW  568   2.326   0.892   2.275  0.2837 -0.4554  0.2999
  190SOL    HW1  569   2.346   0.994   2.281  0.7708  0.9393  1.7385
  190SOL    HW2  570   2.396   0.843   2.330  1.2194 -1.4027 -0.1312
  191SOL     OW  571   0.814   1.312   2.059  0.4743 -0.1893  0.0195
  191SOL    HW1  572   0.780   1.266   1.976 -0.9081  1.0053 -1.6961
  191SOL    HW2  573   0.736   1.334   2.125 -1.3105 -1.0736 -0.4028
  192SOL     OW  574   1.960   1.554   1.924  0.0831 -0.0069  0.1347
  192SOL    HW1  575   1.875   1.534   1.874  0.2571 -1.1323  1.2616
  192SOL    HW2  576   2.022   1.604   1.863  1.6966 -1.8051  2.4031
  193SOL     OW  577   0.799   0.119   0.730  0.8579  0.3727  0.6659
  193SOL    HW1  578   0.797   0.184   0.651 -0.2574 -1.3772 -2.3585
  193SOL    HW2  579   0.855   0.156   0.808 -2.8292  4.0843  2.8740
  194SOL     OW  580   1.503   1.432   1.688  0.4708 -0.2446  0.2428
  194SOL    HW1  581   1.520   1.360   1.623  0.3755  0.5836  0.2840
  194SOL    HW2  582   1.465   1.394   1.777  0.0782  0.0680 -2.1709
  195SOL     OW  583   1.940   0.187   1.046  0.1016 -0.3867 -0.6163
  195SOL    HW1  584   1.998   0.109   1.018 -1.8294 -0.5318 -0.9727
  195SOL    HW2  585   1.930   0.259   0.972  1.0105 -0.8333  0.2457
  196SOL     OW  586   1.087   1.579   2.015  0.1707 -0.1791  0.7195
  196SOL    HW1  587   1.183   1.620   2.019  1.1702 -0.3815  1.4076
  196SOL    HW2  588   1.074   1.546   1.916 -2.8786  0.1101 -3.9004
  197SOL     OW  589   0.506   0.116   2.544  0.3977 -0.1999  0.4105
  197SOL    HW1  590   0.587   0.136   2.604  0.0997 -0.3950 -0.9704
  197SOL    HW2  591   0.525   0.030   2.482  3.2744 -1.4692  1.3759
  198SOL     OW  592   2.955   1.092   0.841  0.0029 -0.3916  0.2075
  198SOL    HW1  593   2.944   1.126   0.935  0.8396 -0.5733 -0.8866
  198SOL    HW2  594   2.889   1.019   0.823 -0.2717  1.8220 -2.2219
  199SOL     OW  595   0.408   2.246   1.097 -0.1950  0.1071  0.3114
  199SOL    HW1  596   0.413   2.247   0.993  6.2402 -0.3322  0.1453
  199SOL    HW2  597   0.322   2.279   1.136  1.4422 -2.4867 -0.8908
  200SOL     OW  598   2.737   1.876   2.760 -0.0293 -0.1213 -0.0293
  200SOL    HW1  599   2.827   1.822   2.744  1.6166 -0.8836  3.1736
  200SOL    HW2  600   2.664   1.811   2.788  2.2640 -0.0009 -0.4633
  201SOL     OW  601   0.932   2.500   1.168 -0.8359  0.2544 -0.2431
  201SOL    HW1  602   0.940   2.514   1.070  2.6533  3.0632  0.7374
  201SOL    HW2  603   0.842   2.540   1.203 -1.5258 -1.0576  3.2509
  202SOL     OW  604   1.068   2.776   0.165 -0.4820 -0.3844 -0.1907
  202SOL    HW1  605   1.034   2.687   0.129  0.9264 -0.3548  0.6583
  202SOL    HW2  606   1.165   2.790   0.134 -0.3178 -2.1780  1.3461
  203SOL     OW  607   1.768   3.030   3.021 -0.1883 -0.2088 -0.3211
  203SOL    HW1  608   1.687   3.074   2.985  0.1049 -0.8388  2.5956
  203SOL    HW2  609   1.824   2.986   2.948 -1.3129 -1.8697 -5.2281
  204SOL     OW  610   0.536   1.625   1.536  0.1923  0.0378  0.1315
  204SOL    HW1  611   0.556   1.602   1.439 -1.1425  1.5865  1.4171
  204SOL    HW2  612   0.603   1.597   1.609  0.0018 -1.7929  1.2975
  205SOL     OW  613   2.193   1.384   2.311 -0.3308  0.0678  0.1623
  205SOL    HW1  614   2.275   1.436   2.275  1.8275 -1.6836 -1.3733
  205SOL    HW2  615   2.186   1.299   2.254 -0.6481 -1.4407 -0.9901
  206SOL     OW  616   0.130   2.044   0.002  0.1625  0.3559  0.0642
  206SOL    HW1  617   0.149   2.023   3.025 -0.3966 -1.0089  0.1598
  206SOL    HW2  618   0.065   1.971   0.036 -0.0773  0.9354 -1.0269
  207SOL     OW  619   0.322   2.299   2.391  0.6497 -0.1451 -0.0728
  207SOL    HW1  620   0.405   2.245   2.379 -1.3657  0.4397 -1.2339
  207SOL    HW2  621   0.286   2.322   2.298 -0.7565 -3.4825  0.6047
  208SOL     OW  622   0.224   2.718   1.378 -0.2247  0.4970  0.4549
  208SOL    HW1  623   0.157   2.654   1.424 -0.3846  0.0395 -0.3652
  208SOL    HW2  624   0.201   2.816   1.385  0.0934  0.5586 -0.6983
  209SOL     OW  625   1.145   2.881   2.202  0.0484 -0.4309  0.4141
  209SOL    HW1  626   1.088   2.823   2.146 -0.5963  3.9828  0.2796
  209SOL    HW2  627   1.091   2.937   2.267  0.3399 -1.9999  0.4935
  210SOL     OW  628   2.826   1.090   1.977 -0.4774  0.5126 -0.0096
  210SOL    HW1  629   2.902   1.021   1.962  2.1174 -1.9341 -0.8237
  210SOL    HW2  630   2.734   1.043   1.987  1.1310 -3.2118  1.1592
  211SOL     OW  631   1.301   0.070   2.060  0.0914 -0.1854 -0.5630
  211SOL    HW1  632   1.368   3.123   2.089  1.8296  0.7101 -1.9378
  211SOL    HW2  633   1.279   0.136   2.131  1.1808 -2.4073  2.6544
  212SOL     OW  634   1.829   2.566   1.900  0.2761  0.3773  0.4717
  212SOL    HW1  635   1.878   2.652   1.920 -0.2096 -1.1084  3.0342
  212SOL    HW2  636   1.898   2.492   1.897 -0.5831  0.1702  1.4020
  213SOL     OW  637   2.516   0.561   1.707 -0.1046 -0.4832 -0.4397
  213SOL    HW1  638   2.491   0.472   1.667 -1.3850  0.6708  2.0412
  213SOL    HW2  639   2.618   0.581   1.699 -0.1681 -2.7718  1.1816
  214SOL     OW  640   0.745   2.157   0.718 -0.3889  0.1876 -0.2002
  214SOL    HW1  641   0.831   2.105   0.737  1.0356  1.0408 -1.0867
  214SOL    HW2  642   0.763   2.239   0.663 -0.1445  0.9716 -0.1952
  215SOL     OW  643   2.563   1.776   0.794 -0.5881 -0.1381 -0.5010
  215SOL    HW1  644   2.654   1.778   0.844 -0.2562 -0.0929 -0.1162
  215SOL    HW2  645   2.558   1.853   0.726  1.6478  1.3742 -0.8093
  216SOL     OW  646   2.755   0.662   1.661 -0.8106 -0.0566 -0.5971
  216SOL    HW1  647   2.707   0.752   1.648  0.6166 -0.5309  0.6678
  216SOL    HW2  648   2.843   0.655   1.604  0.7275  1.4950  0.4459
  217SOL     OW  649   2.096   0.433   1.543 -0.5619 -0.1434 -0.3464
  217SOL    HW1  650   2.170   0.430   1.477 -2.7248  0.7401  2.7311
  217SOL    HW2  651   2.038   0.518   1.526 -2.1215  0.8784 -0.0796
  218SOL     OW  652   1.949   2.478   1.439 -0.4146 -0.0884  0.2882
  218SOL    HW1  653   1.861   2.525   1.417 -0.3280  0.9232 -0.0067
  218SOL    HW2  654   1.959   2.467   1.537  1.5455 -0.4225 -0.9105
  219SOL     OW  655   2.264   2.338   0.294  0.5161  0.4340 -0.0711
  219SOL    HW1  656   2.221   2.254   0.255  1.1728 -2.6395 -0.6644
  219SOL    HW2  657   2.187   2.398   0.319 -0.2404 -1.9708 -1.4593
  220SOL     OW  658   1.539   2.767   0.287 -0.5474 -0.0093 -0.5921
  220SOL    HW1  659   1.543   2.675   0.336 -1.6118 -0.8881  1.1829
  220SOL    HW2  660   1.612   2.774   0.218 -0.9966  0.9616  1.4965
  221SOL     OW  661   3.071   2.149   1.719 -0.3942 -0.1109 -0.6979
  221SOL    HW1  662   3.018   2.062   1.701 -0.3969 -0.7594 -2.5527
  221SOL    HW2  663   0.035   2.118   1.769  2.5620  2.2201  1.5391
  222SOL     OW  664   1.726   2.615   0.788 -0.2617 -0.2450  0.0936
  222SOL    HW1  665   1.734   2.563   0.876  0.5236  1.1189  2.0410
  222SOL    HW2  666   1.630   2.628   0.749 -0.6391  0.7933  1.7437
  223SOL     OW  667   1.377   2.594   1.249 -0.0530  0.2947  0.2995
  223SOL    HW1  668   1.397   2.654   1.331  0.6749  0.3165  1.1941
  223SOL    HW2  669   1.368   2.493   1.277  1.5787 -1.1386 -0.2359
  224SOL     OW  670   2.888   2.520   1.443 -0.0112 -0.0271 -0.1040
  224SOL    HW1  671   2.929   2.543   1.351 -2.5677  0.1782 -2.6002
  224SOL    HW2  672   2.932   2.587   1.511 -1.0936  2.1759 -0.3742
  225SOL     OW  673   2.371   2.130   0.885 -0.2391 -0.0052  0.2197
  225SOL    HW1  674   2.291   2.172   0.929 -0.8190  2.4219 -0.9366
  225SOL    HW2  675   2.354   2.109   0.786 -0.4837  0.2077 -2.7229
  226SOL     OW  676   1.343   2.390   0.241 -0.5192 -0.1805  1.0347
  226SOL    HW1  677   1.430   2.346   0.203  3.5614  0.6381 -1.0957
  226SOL    HW2  678   1.312   2.335   0.319 -0.0422  0.2373 -2.4921
  227SOL     OW  679   1.940   1.022   0.758  0.5849 -0.4928 -0.5837
  227SOL    HW1  680   1.865   1.073   0.709 -0.2236  1.7330 -1.4547
  227SOL    HW2  681   1.948   0.924   0.725  0.6718 -2.9205  1.0597
  228SOL     OW  682   1.752   0.615   0.146 -0.8430 -0.5734 -0.3074
  228SOL    HW1  683   1.770   0.632   0.045  0.0812  1.4591 -1.0434
  228SOL    HW2  684   1.668   0.556   0.151 -1.8195  0.5369 -1.6071
  229SOL     OW  685   2.756   0.940   2.402 -0.0745 -0.4448 -0.1585
  229SOL    HW1  686   2.718   0.910   2.313  2.6881  0.9379  1.5640
  229SOL    HW2  687   2.855   0.953   2.398 -0.4760  0.7590 -1.9360
  230SOL     OW  688   0.382   1.290   0.966  0.1236  0.1853 -0.5605
  230SOL    HW1  689   0.428   1.337   1.049  1.5665 -1.2694  1.2913
  230SOL    HW2  690   0.454   1.243   0.907 -0.5091 -2.3886  2.7447
  231SOL     OW  691   2.431   0.460   2.654  0.1907 -0.3059 -0.2327
  231SOL    HW1  692   2.387   0.468   2.747 -1.6048 -1.3999  1.6072
  231SOL    HW2  693   2.530   0.441   2.660  2.7959 -0.7957 -0.7873
  232SOL     OW  694   2.915   1.953   0.752 -0.2413  0.2830 -0.0900
  232SOL    HW1  695   3.007   1.990   0.764 -1.1333 -2.5113  2.1265
  232SOL    HW2  696   2.854   2.035   0.746 -0.4250 -2.2910  1.2582
  233SOL     OW  697   1.837   2.637   2.569 -0.0251  0.8908  0.3456
  233SOL    HW1  698   1.809   2.619   2.669 -3.0091 -3.2626  3.3685
  233SOL    HW2  699   1.821   2.736   2.541 -1.0543 -1.9607  0.0622
  234SOL     OW  700   1.320   1.949   1.285 -0.0848  0.1242  0.2735
  234SOL    HW1  701   1.386   1.985   1.352  0.0511  0.4798 -1.6289
  234SOL    HW2  702   1.274   2.032   1.239 -2.1900 -0.2115 -1.6556
  235SOL     OW  703   1.059   1.898   1.760 -0.0181 -0.1071 -0.6063
  235SOL    HW1  704   0.974   1.895   1.815  0.9428  4.0117 -2.6646
  235SOL    HW2  705   1.053   1.831   1.685 -0.1608  2.3072 -3.1939
  236SOL     OW  706   0.857   2.482   2.763  0.0430 -0.2607 -0.0897
  236SOL    HW1  707   0.935   2.544   2.735  0.6769  1.5365 -1.5943
  236SOL    HW2  708   0.842   2.498   2.863 -1.2735  1.4103 -1.5667
  237SOL     OW  709   0.569   3.025   1.530  0.0169  0.4305  0.0801
  237SOL    HW1  710   0.640   2.961   1.559  1.0803  0.1920 -0.9174
  237SOL    HW2  711   0.589   3.122   1.561 -0.4979  1.3100 -2.4576
  238SOL     OW  712   0.988   0.767   0.276 -0.3924  0.9838 -0.1953
  238SOL    HW1  713   1.053   0.717   0.339  0.7786  1.1660  0.0826
  238SOL    HW2  714   0.899   0.796   0.320 -2.3912  1.3209 -0.0755
  239SOL     OW  715   2.435   0.738   2.903 -0.3320  0.0386 -0.0271
  239SOL    HW1  716   2.368   0.768   2.829  1.1305 -1.6983 -1.3091
  239SOL    HW2  717   2.421   0.636   2.910 -0.7979 -0.7373 -1.3109
  240SOL     OW  718   2.845   2.163   1.109  0.5010  0.7733 -0.4777
  240SOL    HW1  719   2.824   2.099   1.186  1.4005  0.8189  2.9145
  240SOL    HW2  720   2.919   2.127   1.049 -1.6675  1.0971 -1.0488
  241SOL     OW  721   1.135   1.529   0.783  0.1434  0.2221 -0.6189
  241SOL    HW1  722   1.225   1.550   0.746 -2.8857  0.5323 -1.3430
  241SOL    HW2  723   1.071   1.508   0.709 -0.0808 -0.9131  0.1053
  242SOL     OW  724   1.026   0.542   0.843  0.0558  0.3709  0.6155
  242SOL    HW1  725   0.951   0.600   0.803  1.2178 -1.7084 -1.3843
  242SOL    HW2  726   1.076   0.496   0.766  1.3645  1.3458 -0.5218
  243SOL     OW  727   0.546   0.622   1.129  0.1321  1.0097 -0.1883
  243SOL    HW1  728   0.482   0.569   1.189 -1.2878 -0.5418  3.6693
  243SOL    HW2  729   0.500   0.691   1.073 -0.4128  1.4159  1.2886
  244SOL     OW  730   1.053   0.164   0.408  0.0995  0.6457  0.0071
  244SOL    HW1  731   1.048   0.090   0.478 -4.1640 -0.8761 -2.7554
  244SOL    HW2  732   1.033   0.256   0.448 -3.1614 -0.1329  0.3984
  245SOL     OW  733   2.063   0.773   0.431 -0.0363 -0.0255  0.9182
  245SOL    HW1  734   2.015   0.760   0.521  1.8910  0.6799 -3.8811
  245SOL    HW2  735   2.124   0.851   0.440  1.6968  0.1154 -1.9562
  246SOL     OW  736   0.381   0.083   1.721  0.3534 -0.4924 -0.0697
  246SOL    HW1  737   0.380   3.109   1.757 -0.3242 -1.4262  3.0797
  246SOL    HW2  738   0.380   0.087   1.619  2.0547  2.2169 -0.4014
  247SOL     OW  739   1.022   0.169   1.845 -0.0599  0.3615 -0.1732
  247SOL    HW1  740   1.032   0.247   1.780  0.2646 -1.2761 -0.2457
  247SOL    HW2  741   1.110   0.149   1.890  1.6814  0.4793 -2.8845
  248SOL     OW  742   0.510   1.805   2.068 -0.0352 -0.0269  0.0316
  248SOL    HW1  743   0.550   1.898   2.089 -0.3516 -0.6824  0.5187
  248SOL    HW2  744   0.476   1.748   2.145 -0.6130  0.4379 -1.2587
  249SOL     OW  745   0.545   2.468   0.231 -0.0207  0.0552  0.0663
  249SOL    HW1  746   0.449   2.509   0.251 -2.3901 -1.4706  0.9205
  249SOL    HW2  747   0.609   2.547   0.214 -2.5974  0.0275 -0.2717
  250SOL     OW  748   0.695   0.237   2.133  0.1472  0.3513 -0.5107
  250SOL    HW1  749   0.613   0.193   2.173 -0.6267  0.1329 -0.0165
  250SOL    HW2  750   0.709   0.227   2.036  1.6784  2.2804  1.3298
  251SOL     OW  751   2.860   1.923   1.652  0.2617 -0.0944 -0.8238
  251SOL    HW1  752   2.871   1.884   1.745  2.8199  2.0009 -1.0181
  251SOL    HW2  753   2.785   1.998   1.642 -2.8566 -3.3267 -0.4298
  252SOL     OW  754   1.355   0.254   1.795 -0.0120 -0.2395  0.3631
  252SOL    HW1  755   1.393   0.286   1.884  1.3527 -1.5518  0.1842
  252SOL    HW2  756   1.374   0.154   1.791 -2.1944 -1.1597 -0.3951
  253SOL     OW  757   2.225   1.980   2.175  0.0850  0.4968 -0.0686
  253SOL    HW1  758   2.190   2.065   2.131  0.5041  1.8655 -0.4349
  253SOL    HW2  759   2.228   1.993   2.272 -2.2800  1.1403 -0.9982
  254SOL     OW  760   0.825   1.484   0.945  0.2925 -0.0333  0.3255
  254SOL    HW1  761   0.864   1.526   0.860 -0.1267 -4.0055 -0.4261
  254SOL    HW2  762   0.856   1.391   0.961  1.0915 -0.0953  1.8825
  255SOL     OW  763   0.185   2.781   1.894  0.6685  0.2493  0.4342
  255SOL    HW1  764   0.113   2.713   1.923 -0.1364  0.3832 -1.0651
  255SOL    HW2  765   0.220   2.756   1.803 -1.1700  0.4432  3.0647
  256SOL     OW  766   0.369   2.751   0.476 -0.2129  0.1330 -0.1429
  256SOL    HW1  767   0.446   2.716   0.530  0.3616 -1.3176  3.0071
  256SOL    HW2  768   0.371   2.708   0.384  1.9957  1.1272 -1.1263
  257SOL     OW  769   1.137   2.538   2.348  0.3408 -0.4772 -0.3240
  257SOL    HW1  770   1.207   2.612   2.354 -0.1896 -1.2772  1.2711
  257SOL    HW2  771   1.125   2.508   2.253  0.2183 -0.8865  1.3435
  258SOL     OW  772   1.419   2.094   1.932  0.6848  0.4952  0.4482
  258SOL    HW1  773   1.370   2.161   1.870 -1.8351  1.5832  1.0735
  258SOL    HW2  774   1.494   2.138   1.983 -0.0503  2.0528  1.3903
  259SOL     OW  775   0.921   0.897   2.087 -1.2807  0.3945  0.0264
  259SOL    HW1  776   1.002   0.918   2.019  5.1278 -0.5314 -3.9896
  259SOL    HW2  777   0.834   0.891   2.041  3.0254  3.3074  1.4086
  260SOL     OW  778   2.929   0.842   2.714  0.4049  0.1760 -0.1362
  260SOL    HW1  779   2.983   0.833   2.797 -1.2434 -2.4326 -0.0426
  260SOL    HW2  780   2.837   0.803   2.731 -0.5546  0.3401 -0.8685
  261SOL     OW  781   0.882   1.203   0.942  0.2813 -0.4268  0.2963
  261SOL    HW1  782   0.919   1.168   1.027 -1.5849  1.8945  0.1406
  261SOL    HW2  783   0.944   1.176   0.868 -0.3879 -1.8798  0.9141
  262SOL     OW  784   2.234   2.020   2.477 -0.2494  0.0281 -0.1942
  262SOL    HW1  785   2.173   2.054   2.551 -1.7939  1.1559  2.2744
  262SOL    HW2  786   2.325   2.071   2.479  2.1380 -0.1956 -0.1938
  263SOL     OW  787   0.676   2.921   0.992  0.5218 -0.1980  0.0746
  263SOL    HW1  788   0.763   2.909   1.044 -0.2262 -1.6687 -2.0527
  263SOL    HW2  789   0.623   2.834   0.986  2.3441  0.8835 -1.2190
  264SOL     OW  790   2.928   2.139   0.416 -0.3880 -0.1970  0.3327
  264SOL    HW1  791   2.911   2.156   0.515 -0.0800 -0.1472  1.4626
  264SOL    HW2  792   2.850   2.085   0.377  1.0055  3.4939 -0.5331
  265SOL     OW  793   2.168   1.335   2.583 -0.5047 -0.1869 -0.0351
  265SOL    HW1  794   2.184   1.349   2.482  0.9034 -1.2183 -1.0105
  265SOL    HW2  795   2.211   1.412   2.636 -1.2475  2.7754  0.8302
  266SOL     OW  796   1.341   1.958   2.148  0.1802  0.1398 -0.1661
  266SOL    HW1  797   1.368   2.003   2.062  1.0305  0.0161 -2.5342
  266SOL    HW2  798   1.235   1.964   2.160 -1.0627 -4.5444 -2.7761
  267SOL     OW  799   2.506   0.626   2.443 -0.0761 -0.3708  0.0820
  267SOL    HW1  800   2.524   0.718   2.480  0.8979  2.8175 -1.0951
  267SOL    HW2  801   2.470   0.568   2.519 -0.5777  0.0898  0.7310
  268SOL     OW  802   1.011   1.244   3.042 -0.4013  0.3498 -0.1378
  268SOL    HW1  803   0.993   1.312   2.969  0.4088 -0.6436  0.9675
  268SOL    HW2  804   1.111   1.242   3.070  1.5201 -1.7542 -1.3662
  269SOL     OW  805   0.078   2.066   2.121  0.2886 -0.0999  0.1751
  269SOL    HW1  806   0.120   1.997   2.187  0.5808 -3.4372 -1.9464
  269SOL    HW2  807   3.104   2.084   2.143  0.6595  0.0076 -0.4173
  270SOL     OW  808   3.028   1.859   0.056  0.4656  0.1450  0.6127
  270SOL    HW1  809   2.984   1.825   0.140  2.5543  1.5729  0.1491
  270SOL    HW2  810   3.025   1.782   3.108  1.1684 -1.8087  0.4255
  271SOL     OW  811   0.261   0.291   0.394  0.1535 -0.3027  0.5717
  271SOL    HW1  812   0.355   0.265   0.421  0.5221  3.2470  0.4296
  271SOL    HW2  813   0.244   0.392   0.365 -1.3873  3.3931 -2.3562
  272SOL     OW  814   3.056   2.845   0.664 -0.0082  0.7118 -0.0669
  272SOL    HW1  815   2.976   2.790   0.698  0.1279 -0.7254  3.1604
  272SOL    HW2  816   3.091   2.807   0.574 -0.1218  1.1979  0.4174
  273SOL     OW  817   0.159   3.021   2.023  0.6206  0.3926  0.7728
  273SOL    HW1  818   0.200   3.018   2.116 -3.4953 -0.9834 -3.2065
  273SOL    HW2  819   0.164   2.931   1.975 -2.1483  2.4341  0.0989
  274SOL     OW  820   0.378   0.473   1.265 -0.0563 -0.4661  0.2465
  274SOL    HW1  821   0.357   0.433   1.177 -2.0495  1.7068  1.7849
  274SOL    HW2  822   0.295   0.512   1.312 -0.8543  2.4349  1.4161
  275SOL     OW  823   1.128   1.660   1.010  1.0175 -0.3128 -0.1122
  275SOL    HW1  824   1.221   1.689   1.036 -3.5722 -1.1786  1.4780
  275SOL    HW2  825   1.129   1.604   0.923 -1.1196  0.0912  1.1260
  276SOL     OW  826   0.515   1.592   1.895 -0.6137 -0.2046 -0.0823
  276SOL    HW1  827   0.543   1.658   1.967  0.4701  2.1175 -0.0616
  276SOL    HW2  828   0.416   1.574   1.896 -0.3399  0.3973 -1.4678
  277SOL     OW  829   1.296   2.310   1.822  0.2908 -0.2470  0.1662
  277SOL    HW1  830   1.318   2.374   1.902 -1.8953  1.7430  3.5394
  277SOL    HW2  831   1.202   2.271   1.828 -0.3217 -3.1949  0.1666
  278SOL     OW  832   2.101   3.033   2.158 -0.6068  0.0744 -0.1207
  278SOL    HW1  833   2.009   2.995   2.170  2.8106  0.3286  0.2133
  278SOL    HW2  834   2.107   0.002   2.197  1.6337 -2.0970  1.1403
  279SOL     OW  835   1.578   1.708   2.999  0.2381 -0.6304 -0.3179
  279SOL    HW1  836   1.597   1.623   2.948 -0.0698  0.4961  2.2999
  279SOL    HW2  837   1.644   1.783   2.975 -3.1837 -1.5996  1.3358
  280SOL     OW  838   1.766   0.348   0.692  0.7136 -0.0547 -0.1450
  280SOL    HW1  839   1.679   0.314   0.734  0.8245 -0.6389  2.2993
  280SOL    HW2  840   1.746   0.415   0.618  0.9746 -1.2035  0.4470
  281SOL     OW  841   0.350   0.408   2.077 -0.0992 -0.2052 -0.3370
  281SOL    HW1  842   0.323   0.381   1.982 -0.5257  2.4910  1.7195
  281SOL    HW2  843   0.415   0.483   2.079 -0.4164  4.0393 -1.2788
  282SOL     OW  844   0.204   2.868   0.689 -0.5036 -0.3844  0.1906
  282SOL    HW1  845   0.104   2.866   0.700  2.5112 -1.4855  0.8941
  282SOL    HW2  846   0.238   2.815   0.609  2.5170 -0.3088  0.9299
  283SOL     OW  847   1.316   2.354   1.301  0.2624 -0.1408  0.4323
  283SOL    HW1  848   1.293   2.274   1.239 -0.2952 -1.7355 -1.3328
  283SOL    HW2  849   1.351   2.322   1.392 -0.8876  2.8278 -1.0189
  284SOL     OW  850   2.210   2.551   1.369  0.1863  0.0963  0.2657
  284SOL    HW1  851   2.219   2.557   1.266  2.3635  1.5681 -0.2996
  284SOL    HW2  852   2.116   2.538   1.397  1.4942  0.8079 -0.4778
  285SOL     OW  853   0.523   1.972   0.734 -0.4173 -0.5979 -0.3482
  285SOL    HW1  854   0.605   2.025   0.696  0.7603  0.8124  0.3848
  285SOL    HW2  855   0.442   2.016   0.696 -0.2899 -1.2310  0.1478
  286SOL     OW  856   3.108   2.578   1.949 -0.6300 -0.0223  0.2997
  286SOL    HW1  857   3.045   2.635   2.003 -0.5357  0.1817 -0.1098
  286SOL    HW2  858   3.090   2.478   1.964  1.3506  2.2906  0.3566
  287SOL     OW  859   0.611   1.150   0.866  0.4132 -0.6294  0.2666
  287SOL    HW1  860   0.709   1.174   0.877 -0.4045  2.1433 -0.5991
  287SOL    HW2  861   0.597   1.143   0.764 -1.2000  1.1783 -1.7963
  288SOL     OW  862   1.375   2.204   2.610  0.3480 -0.0591  0.2146
  288SOL    HW1  863   1.383   2.135   2.534  1.3560  0.8802  0.0671
  288SOL    HW2  864   1.313   2.169   2.686 -1.4541 -0.2913 -1.3211
  289SOL     OW  865   2.496   1.385   2.677 -0.0893 -0.0751 -0.5695
  289SOL    HW1  866   2.410   1.436   2.707 -0.6624  2.5440 -1.2696
  289SOL    HW2  867   2.548   1.438   2.608  2.3894 -1.2739  0.0980
  290SOL     OW  868   1.392   1.495   1.177 -0.4367 -0.6663 -0.0313
  290SOL    HW1  869   1.308   1.449   1.212 -0.9615 -0.0509 -0.5955
  290SOL    HW2  870   1.366   1.579   1.124  0.7597  1.2626  1.6351
  291SOL     OW  871   1.114   0.956   0.124  0.2344 -0.2733  0.0496
  291SOL    HW1  872   1.066   0.883   0.181 -1.5830 -3.8715  1.3630
  291SOL    HW2  873   1.042   0.997   0.064 -2.4574  1.6425 -3.5767
  292SOL     OW  874   2.002   1.599   0.605  0.1297 -0.1804  0.4982
  292SOL    HW1  875   1.928   1.539   0.574 -1.4965 -1.0574  2.2084
  292SOL    HW2  876   2.092   1.555   0.592  2.4197  1.6055  1.3908
  293SOL     OW  877   1.544   0.050   1.159 -0.1393 -0.1640  1.1369
  293SOL    HW1  878   1.593   0.044   1.248  1.5685 -0.4783 -0.3984
  293SOL    HW2  879   1.555   0.145   1.128  2.6485  0.9725 -0.4816
  294SOL     OW  880   2.153   0.929   0.148  0.1743 -0.1232  0.1451
  294SOL    HW1  881   2.244   0.904   0.109  0.0227  0.9783  1.7836
  294SOL    HW2  882   2.161   0.959   0.244  3.1330 -1.7677  0.7685
  295SOL     OW  883   2.152   2.094   2.784  0.1215  0.1093  0.2928
  295SOL    HW1  884   2.066   2.041   2.797 -1.0138 -1.8832 -0.3520
  295SOL    HW2  885   2.134   2.169   2.715 -1.8040  0.0224  0.8450
  296SOL     OW  886   1.548   1.585   1.386  0.2559 -0.6058 -0.3619
  296SOL    HW1  887   1.480   1.572   1.315 -0.2423  1.2656  2.3605
  296SOL    HW2  888   1.512   1.576   1.482  0.3582  1.2526 -1.3449
  297SOL     OW  889   0.426   0.792   2.410  0.9703 -0.4270  0.1252
  297SOL    HW1  890   0.394   0.714   2.469  0.8231  0.5271  0.6765
  297SOL    HW2  891   0.478   0.862   2.461  0.2066  0.4712  0.8005
  298SOL     OW  892   1.712   2.607   1.451  0.2127 -0.4752  0.5633
  298SOL    HW1  893   1.704   2.532   1.518  0.1771  3.5938 -1.2731
  298SOL    HW2  894   1.745   2.689   1.496 -1.0224 -1.8871 -0.4676
  299SOL     OW  895   1.121   0.504   2.681  0.5040 -0.0938 -0.4751
  299SOL    HW1  896   1.069   0.581   2.725 -0.3128  0.4491  2.2999
  299SOL    HW2  897   1.118   0.422   2.743  1.4105  0.8091 -1.4326
  300SOL     OW  898   2.105   1.308   0.425 -0.1994 -0.3677 -0.2276
  300SOL    HW1  899   2.115   1.391   0.366 -0.3261  0.4367 -1.3063
  300SOL    HW2  900   2.026   1.258   0.396  1.9211  2.7844  1.7828
  301SOL     OW  901   2.335   0.313   2.453  0.0797 -0.2690  0.3695
  301SOL    HW1  902   2.417   0.273   2.409 -1.0808  3.4377  0.3104
  301SOL    HW2  903   2.364   0.365   2.538 -0.2121 -0.7784  3.3840
  302SOL     OW  904   2.660   1.577   2.524 -0.3785  0.3366  0.2964
  302SOL    HW1  905   2.686   1.566   2.427  1.0469  1.3150  1.9662
  302SOL    HW2  906   2.582   1.641   2.536  0.2418  0.0648  2.4343
  303SOL     OW  907   0.163   2.518   2.498 -0.2403  0.1857 -0.5255
  303SOL    HW1  908   0.139   2.498   2.398  0.0576 -3.2383 -3.0142
  303SOL    HW2  909   0.191   2.615   2.522  1.0774 -0.6954 -0.0135
  304SOL     OW  910   2.961   1.370   1.172 -0.0362  0.1293  0.3959
  304SOL    HW1  911   2.976   1.269   1.188  0.1421 -0.1509 -0.8121
  304SOL    HW2  912   3.040   1.417   1.122 -0.1912  2.5948  1.0203
  305SOL     OW  913   0.111   0.378   2.275  0.0414 -0.2853  0.1006
  305SOL    HW1  914   0.189   0.377   2.208 -0.3336  0.0360  0.1522
  305SOL    HW2  915   0.119   0.296   2.338  2.9205 -0.0404  1.6501
  306SOL     OW  916   1.318   1.331   0.441 -0.4174  0.0140  0.0601
  306SOL    HW1  917   1.345   1.232   0.457  2.7338  0.2305  1.2726
  306SOL    HW2  918   1.407   1.384   0.429  2.4408  2.4768  0.3929
  307SOL     OW  919   2.880   0.087   1.210  0.0534  0.7885 -0.5952
  307SOL    HW1  920   2.970   0.092   1.165  0.2664  0.5627  1.3434
  307SOL    HW2  921   2.830   0.172   1.197  0.9837 -0.7410  0.4571
  308SOL     OW  922   2.942   1.694   2.735 -0.0088 -0.4228  0.5027
  308SOL    HW1  923   2.878   1.621   2.765  0.9272  2.3307  1.1038
  308SOL    HW2  924   2.935   1.696   2.634  1.2146 -3.3365 -0.2209
  309SOL     OW  925   0.100   1.960   2.860  0.5726 -0.4286  0.6175
  309SOL    HW1  926   0.000   1.990   2.832 -2.4922  0.7368 -0.9680
  309SOL    HW2  927   0.163   1.944   2.786 -1.7509 -1.6572  0.3588
  310SOL     OW  928   2.464   0.308   0.025  0.0190 -0.3694  0.0193
  310SOL    HW1  929   2.547   0.361   3.122  1.6708  1.5005  2.5865
  310SOL    HW2  930   2.423   0.339   0.116 -2.2880 -0.8153  1.8411
  311SOL     OW  931   2.105   1.145   2.859  0.6884  0.6826 -0.1264
  311SOL    HW1  932   2.117   1.226   2.793  0.2851  1.4117  1.5896
  311SOL    HW2  933   2.010   1.101   2.871 -1.4056 -1.6235 -0.4787
  312SOL     OW  934   1.321   1.369   2.178  0.1320  0.4640  0.8062
  312SOL    HW1  935   1.354   1.410   2.264 -0.4045 -0.4077  2.9029
  312SOL    HW2  936   1.221   1.344   2.185 -0.1631 -0.4277  2.6158
  313SOL     OW  937   0.129   0.501   0.092  0.1613  0.0802 -0.2354
  313SOL    HW1  938   0.102   0.404   0.074 -1.7699  0.4364  0.9535
  313SOL    HW2  939   0.058   0.557   0.135  1.7698  1.2831 -1.0134
  314SOL     OW  940   0.376   1.880   1.443  0.5134 -0.8702  0.1184
  314SOL    HW1  941   0.391   1.930   1.531 -1.4463  0.6181 -0.4998
  314SOL    HW2  942   0.424   1.789   1.438  0.3893 -1.8415  1.2204
  315SOL     OW  943   1.212   1.707   1.409  0.0748 -0.1028  0.3418
  315SOL    HW1  944   1.282   1.685   1.481 -0.2445 -0.9386 -2.8003
  315SOL    HW2  945   1.235   1.795   1.360 -1.4634 -0.1491  0.0789
  316SOL     OW  946   0.132   2.233   0.540  0.7584 -0.5487  0.1441
  316SOL    HW1  947   0.086   2.181   0.469 -1.2435 -0.1558  2.3413
  316SOL    HW2  948   0.233   2.222   0.542  1.2327 -1.0248  0.2285
  317SOL     OW  949   2.598   0.306   1.050 -0.5931  0.6344 -0.1337
  317SOL    HW1  950   2.584   0.372   1.129  0.0058 -2.3595  0.0019
  317SOL    HW2  951   2.603   0.206   1.072 -0.1130 -0.3655  0.4811
  318SOL     OW  952   1.328   2.819   0.134 -0.0591 -0.6254  0.5988
  318SOL    HW1  953   1.409   2.801   0.196  0.6820  0.8834  1.1832
  318SOL    HW2  954   1.326   2.920   0.113  2.2739 -0.7796  1.4327
  319SOL     OW  955   1.545   0.144   2.881 -0.4485 -0.5941  0.3036
  319SOL    HW1  956   1.542   0.229   2.938 -0.6279  0.2945  0.1898
  319SOL    HW2  957   1.625   0.137   2.817 -0.2088 -1.3495  3.3964
  320SOL     OW  958   2.584   2.037   2.033 -0.1074 -0.6180 -0.0156
  320SOL    HW1  959   2.625   1.957   2.080  2.4934  2.9527 -0.7037
  320SOL    HW2  960   2.535   2.015   1.948  0.4489  0.7490  0.8415
  321SOL     OW  961   0.266   2.545   3.102  0.2589  0.1704  0.2403
  321SOL    HW1  962   0.213   2.590   3.024 -1.5421  1.8267  0.2828
  321SOL    HW2  963   0.256   2.442   3.093  0.4920  0.6971 -0.1048
  322SOL     OW  964   2.676   0.931   1.706  0.1207  0.6618  0.0677
  322SOL    HW1  965   2.605   0.996   1.671  0.4413  1.7655 -3.3343
  322SOL    HW2  966   2.678   0.929   1.804  0.3274  3.4584 -1.2153
  323SOL     OW  967   1.842   1.206   0.367 -0.7388 -0.5404 -0.2294
  323SOL    HW1  968   1.801   1.151   0.290  0.3780  1.8911 -0.5747
  323SOL    HW2  969   1.827   1.164   0.462 -1.2450 -0.1655  0.9680
  324SOL     OW  970   0.160   0.321   1.435  0.1716 -0.0548  0.5101
  324SOL    HW1  971   0.218   0.405   1.429 -0.3803 -2.8459  0.8761
  324SOL    HW2  972   0.114   0.320   1.528  0.1469  0.5699  1.1002
  325SOL     OW  973   2.724   2.981   1.554  0.0322  0.2346 -0.1499
  325SOL    HW1  974   2.777   2.968   1.466 -1.4477 -0.6467 -0.3713
  325SOL    HW2  975   2.717   3.075   1.579  1.3052  0.1329 -1.4679
  326SOL     OW  976   1.858   2.604   0.304  0.4624 -0.0844 -1.0562
  326SOL    HW1  977   1.799   2.666   0.257 -0.4156 -0.5706 -1.0436
  326SOL    HW2  978   1.820   2.511   0.286  0.5356  1.6888  0.1119
  327SOL     OW  979   2.081   2.102   0.496 -0.7394  0.4907 -0.4806
  327SOL    HW1  980   2.048   2.008   0.521  3.6832 -2.4796  1.2947
  327SOL    HW2  981   2.045   2.139   0.407 -1.4359  1.3545  1.1203
  328SOL     OW  982   2.695   2.282   1.930  0.8635  0.5609  0.0382
  328SOL    HW1  983   2.714   2.190   1.972  2.4730  0.4612  2.3719
  328SOL    HW2  984   2.723   2.357   1.995  1.3766  0.0231 -2.3326
  329SOL     OW  985   0.120   2.236   1.133 -0.0707 -0.2098 -0.6799
  329SOL    HW1  986   0.126   2.337   1.148  2.6055  1.6553 -1.3014
  329SOL    HW2  987   0.145   2.182   1.213 -1.4422  1.2202 -1.7626
  330SOL     OW  988   2.397   1.153   2.352  0.0551  0.1013 -0.4611
  330SOL    HW1  989   2.314   1.133   2.406 -1.0645 -0.2948 -2.8793
  330SOL    HW2  990   2.480   1.160   2.409  0.4033  0.4649  1.6233
  331SOL     OW  991   2.265   1.498   0.687 -0.3090 -0.4595 -0.4453
  331SOL    HW1  992   2.245   1.398   0.684  0.4287  0.7352  1.3638
  331SOL    HW2  993   2.351   1.516   0.737 -0.9354 -0.2054 -0.4984
  332SOL     OW  994   0.150   2.985   1.372  0.5263 -0.3740 -0.3164
  332SOL    HW1  995   0.059   2.969   1.417  0.2296 -2.2846  0.7752
  332SOL    HW2  996   0.173   3.082   1.364  2.2316  0.4609  0.9213
  333SOL     OW  997   0.102   1.669   2.052 -0.0467 -0.1749  0.2855
  333SOL    HW1  998   0.064   1.742   1.995  0.0846  0.9073  2.6185
  333SOL    HW2  999   0.150   1.598   1.996  0.6784 -2.0732 -1.5277
  334SOL     OW 1000   0.349   0.853   1.297 -0.0659  0.1075 -0.2315
  334SOL    HW1 1001   0.295   0.939   1.307  2.0014 -4.0462 -1.2387
  334SOL    HW2 1002   0.370   0.836   1.198 -0.0078  0.1711  1.3197
  335SOL     OW 1003   2.924   1.801   1.907 -0.8694  0.3713  0.0993
  335SOL    HW1 1004   3.007   1.770   1.855  2.6137  3.0159 -0.2257
  335SOL    HW2 1005   2.877   1.723   1.955  0.6445 -1.0762  1.4170
  336SOL     OW 1006   1.913   2.827   2.823 -0.0465 -0.7918 -0.1012
  336SOL    HW1 1007   1.839   2.761   2.834  1.1829 -0.8590  0.6073
  336SOL    HW2 1008   1.972   2.838   2.904 -1.4390  0.5871  1.1430
  337SOL     OW 1009   0.792   0.658   1.225  0.1948  0.1889 -0.4689
  337SOL    HW1 1010   0.810   0.756   1.242 -0.8576 -0.5085  1.5442
  337SOL    HW2 1011   0.698   0.644   1.190 -1.7541 -0.2338 -0.5018
  338SOL     OW 1012   1.457   2.320   0.726  0.2388 -0.1913 -1.0410
  338SOL    HW1 1013   1.545   2.338   0.679  0.3823 -1.1984  0.0551
  338SOL    HW2 1014   1.481   2.264   0.812 -0.4854  3.0269  0.9453
  339SOL     OW 1015   0.431   1.965   1.179  0.2073 -0.6160  0.0384
  339SOL    HW1 1016   0.460   1.965   1.277  2.3590 -0.9919  0.9262
  339SOL    HW2 1017   0.427   2.060   1.139 -0.7020  0.2073  0.8251
  340SOL     OW 1018   0.444   0.171   2.198 -0.4343  0.0128 -0.0621
  340SOL    HW1 1019   0.412   0.235   2.128  1.2548 -1.6139  0.1746
  340SOL    HW2 1020   0.380   0.098   2.226  1.9315  2.4924  0.5165
  341SOL     OW 1021   1.990   1.705   0.856 -0.5442 -0.1541 -0.4752
  341SOL    HW1 1022   2.025   1.675   0.768 -1.9876 -0.6806  1.0784
  341SOL    HW2 1023   2.073   1.710   0.917 -0.1586  1.1170  0.2222
  342SOL     OW 1024   1.635   1.644   0.713  0.1283 -0.3247  1.0449
  342SOL    HW1 1025   1.698   1.569   0.742 -0.0435 -0.3408 -2.2225
  342SOL    HW2 1026   1.681   1.685   0.630  1.5068  1.9902  2.4802
  343SOL     OW 1027   2.277   0.212   0.988 -0.0023 -0.2216  0.5497
  343SOL    HW1 1028   2.314   0.298   0.950 -0.3278  0.5527  1.0267
  343SOL    HW2 1029   2.238   0.156   0.917  1.4837  0.4348 -1.4273
  344SOL     OW 1030   2.815   0.273   2.912 -0.0144  0.6094 -0.4319
  344SOL    HW1 1031   2.760   0.309   2.839  3.8549  0.7079  3.9191
  344SOL    HW2 1032   2.905   0.237   2.872  2.7764 -2.5316 -2.6904
  345SOL     OW 1033   1.198   2.687   1.088  0.1442  0.1786  0.4777
  345SOL    HW1 1034   1.282   2.647   1.130 -1.2544 -0.2247  0.6033
  345SOL    HW2 1035   1.113   2.631   1.103  3.3528 -0.7158 -0.3966
  346SOL     OW 1036   2.333   2.313   1.649 -0.0667  0.2806  0.1524
  346SOL    HW1 1037   2.249   2.263   1.628  1.0768 -1.1196  1.1301
  346SOL    HW2 1038   2.401   2.284   1.583  1.0331  0.9211  3.0789
  347SOL     OW 1039   2.593   0.051   1.110  0.8602 -0.7539 -0.5142
  347SOL    HW1 1040   2.682   3.120   1.119  4.0035  1.6040 -1.2545
  347SOL    HW2 1041   2.554   0.075   1.200 -0.9460  0.9830 -0.7871
  348SOL     OW 1042   0.773   0.945   1.254  0.1451  0.0366  0.2583
  348SOL    HW1 1043   0.758   0.953   1.354  2.0969 -1.4835  1.0482
  348SOL    HW2 1044   0.693   0.968   1.198  1.4005 -3.6026  0.8431
  349SOL     OW 1045   2.307   0.158   3.009  0.0224  0.1663 -0.1857
  349SOL    HW1 1046   2.369   0.215   3.068 -1.9438 -1.4859  0.5845
  349SOL    HW2 1047   2.367   0.117   2.934  0.7322 -0.3151 -2.3676
  350SOL     OW 1048   2.594   1.941   0.097  0.1947  0.3032 -0.0020
  350SOL    HW1 1049   2.635   1.849   0.077  0.9414  0.8338  0.4228
  350SOL    HW2 1050   2.573   1.988   0.011  0.2911  1.0390  2.9531
  351SOL     OW 1051   1.201   0.410   0.653 -0.1413 -0.6622 -0.1100
  351SOL    HW1 1052   1.237   0.316   0.655  1.0310 -0.4481 -3.1426
  351SOL    HW2 1053   1.127   0.432   0.579 -2.1484  1.1147 -3.4802
  352SOL     OW 1054   2.065   2.235   2.576 -0.8731  0.5650  0.9455
  352SOL    HW1 1055   1.973   2.280   2.579 -0.6445  2.0493 -1.9052
  352SOL    HW2 1056   2.100   2.221   2.480  2.0433 -1.0439 -0.7632
  353SOL     OW 1057   0.391   0.607   0.055 -0.2559 -0.2491  0.1687
  353SOL    HW1 1058   0.301   0.575   0.086 -0.8347  0.6079  4.2406
  353SOL    HW2 1059   0.394   0.642   3.081  2.6852  0.4026  0.5688
  354SOL     OW 1060   1.222   1.986   3.024  0.1150 -0.1318 -0.1665
  354SOL    HW1 1061   1.222   1.901   2.972  0.0937 -4.0860  1.3632
  354SOL    HW2 1062   1.212   1.965   3.122  2.2986  1.0818 -1.5113
  355SOL     OW 1063   2.769   2.749   1.724 -0.5580  0.4901  0.5108
  355SOL    HW1 1064   2.759   2.829   1.660  0.3246 -1.4895  2.3717
  355SOL    HW2 1065   2.691   2.741   1.787 -0.7751  1.0066 -0.8462
  356SOL     OW 1066   2.832   0.821   0.487  0.5382 -0.2190  0.1967
  356SOL    HW1 1067   2.913   0.774   0.452  1.3922 -0.6263  1.1584
  356SOL    HW2 1068   2.745   0.764   0.471  0.9833  0.0991 -3.8589
  357SOL     OW 1069   2.392   0.431   0.900  0.7670  0.0626 -0.2096
  357SOL    HW1 1070   2.369   0.528   0.902  2.1487 -2.0862  0.0203
  357SOL    HW2 1071   2.482   0.410   0.943  0.8788 -0.2204  0.2197
  358SOL     OW 1072   0.923   2.572   0.902 -0.0413  0.0617 -0.1387
  358SOL    HW1 1073   0.827   2.541   0.881 -1.4020  1.5928 -1.3071
  358SOL    HW2 1074   0.957   2.629   0.825 -0.1486  1.0583 -0.2083
  359SOL     OW 1075   0.036   2.598   2.852  0.3440  0.1291  0.4278
  359SOL    HW1 1076   0.037   2.502   2.885 -3.1202  4.0672  1.1938
  359SOL    HW2 1077   3.062   2.636   2.859 -1.1600 -0.2339 -2.6140
  360SOL     OW 1078   0.571   0.987   1.722  0.1683  0.2916  0.3761
  360SOL    HW1 1079   0.471   1.012   1.718 -2.8908 -0.8384  0.9919
  360SOL    HW2 1080   0.601   0.931   1.649  2.3315  0.8297  4.1448
  361SOL     OW 1081   2.457   2.804   0.449 -0.0534 -0.2141 -0.1683
  361SOL    HW1 1082   2.374   2.795   0.512 -2.0278  3.1278  1.7653
  361SOL    HW2 1083   2.516   2.882   0.483 -2.7452  0.0324  0.9927
  362SOL     OW 1084   0.186   0.101   1.025 -0.0556  0.0626 -0.1574
  362SOL    HW1 1085   0.176   0.008   0.989 -1.6643  0.7066  0.7312
  362SOL    HW2 1086   0.196   0.099   1.128  0.1729 -0.6263 -1.5469
  363SOL     OW 1087   0.768   1.203   0.585 -0.6883  0.1875 -0.4040
  363SOL    HW1 1088   0.810   1.181   0.491  0.8233  0.2434  3.1149
  363SOL    HW2 1089   0.694   1.135   0.612 -2.8673  0.5709  1.6264
  364SOL     OW 1090   0.707   1.532   1.727 -0.3942 -0.2869 -0.1611
  364SOL    HW1 1091   0.730   1.436   1.745 -0.1418  0.1832 -0.6644
  364SOL    HW2 1092   0.626   1.567   1.779 -0.2569 -0.1950 -1.4936
  365SOL     OW 1093   2.547   0.913   0.448  0.3430  0.0582  0.3244
  365SOL    HW1 1094   2.554   0.997   0.504  0.3807 -0.4750  0.7682
  365SOL    HW2 1095   2.554   0.931   0.347 -0.8178  1.7985 -1.5783
  366SOL     OW 1096   2.725   1.772   1.224  0.8120  0.0619 -0.2347
  366SOL    HW1 1097   2.746   1.872   1.253 -0.8422  2.3404  0.1827
  366SOL    HW2 1098   2.787   1.705   1.274  0.7954  0.3793 -0.3583
  367SOL     OW 1099   2.113   2.148   1.850  1.1325  0.0097 -0.4288
  367SOL    HW1 1100   2.024   2.205   1.856 -1.3473  3.2560  1.4051
  367SOL    HW2 1101   2.183   2.190   1.906  2.7090 -1.8489 -0.3822
  368SOL     OW 1102   2.743   1.282   1.018 -0.1755 -0.3344  0.4236
  368SOL    HW1 1103   2.797   1.316   0.936  1.4105  1.7129  0.3884
  368SOL    HW2 1104   2.797   1.319   1.101  0.5023  0.0540  0.5866
  369SOL     OW 1105   2.455   2.638   3.113 -0.2806  0.2195 -0.2446
  369SOL    HW1 1106   2.422   2.708   0.056  0.2880 -3.0569 -1.4503
  369SOL    HW2 1107   2.492   2.688   3.027  1.5073  1.6787 -2.8179
  370SOL     OW 1108   3.054   2.946   1.558 -0.2776 -0.4304 -0.4960
  370SOL    HW1 1109   3.064   2.867   1.621  1.6171  0.2589 -0.5302
  370SOL    HW2 1110   2.963   2.952   1.508 -1.9051  1.5932 -3.7010
  371SOL     OW 1111   0.671   1.772   2.691  0.0804 -0.3550 -0.0142
  371SOL    HW1 1112   0.701   1.844   2.758  3.7371 -2.1054 -0.0126
  371SOL    HW2 1113   0.679   1.813   2.597 -1.5784  0.0472  0.2316
  372SOL     OW 1114   0.851   1.096   0.312 -0.0169  0.1231 -0.4740
  372SOL    HW1 1115   0.818   1.002   0.342 -1.2071  1.0023  1.0677
  372SOL    HW2 1116   0.830   1.119   0.217 -1.9636 -1.7554 -0.3644
  373SOL     OW 1117   1.451   2.662   2.910  0.5703 -0.5494 -0.9508
  373SOL    HW1 1118   1.425   2.622   3.003 -0.2526 -1.0491 -0.1672
  373SOL    HW2 1119   1.401   2.612   2.840  0.1410  2.3426  0.0711
  374SOL     OW 1120   0.323   1.975   0.174 -0.1231  0.2430 -0.1861
  374SOL    HW1 1121   0.379   2.054   0.199 -1.3101  1.0867  1.4492
  374SOL    HW2 1122   0.250   1.992   0.100 -1.6220  0.4092  0.7618
  375SOL     OW 1123   0.979   1.552   1.735  0.0350  0.2012 -0.4767
  375SOL    HW1 1124   0.880   1.535   1.748  1.4208 -0.6939 -0.6950
  375SOL    HW2 1125   0.994   1.628   1.666 -1.0655 -0.1294 -0.6776
  376SOL     OW 1126   0.698   2.384   1.678  0.5430 -0.7045  0.3564
  376SOL    HW1 1127   0.647   2.454   1.631  1.3163 -1.7552  0.8713
  376SOL    HW2 1128   0.797   2.402   1.669 -1.5945  2.7365  1.1682
  377SOL     OW 1129   2.400   1.531   2.223 -0.1774  0.0918 -0.6477
  377SOL    HW1 1130   2.394   1.632   2.221 -1.0185  1.9572  0.7224
  377SOL    HW2 1131   2.493   1.503   2.236 -2.1865  2.3813  0.0551
  378SOL     OW 1132   0.873   2.908   3.027  0.6236 -0.4354 -0.0297
  378SOL    HW1 1133   0.861   2.813   3.070 -0.1684  1.3266 -2.1583
  378SOL    HW2 1134   0.858   2.982   3.098  1.5903  2.2197  0.4091
  379SOL     OW 1135   2.006   0.301   0.813 -0.3113  0.4459 -0.1917
  379SOL    HW1 1136   1.924   0.318   0.756  0.8151 -0.3303  1.3605
  379SOL    HW2 1137   2.069   0.231   0.769  2.4567 -1.2811  0.1307
  380SOL     OW 1138   3.059   2.000   1.460  0.5362 -0.0607 -0.5751
  380SOL    HW1 1139   2.973   1.980   1.507  1.0481  0.9898 -0.4603
  380SOL    HW2 1140   3.046   2.088   1.405  3.2883  0.1851  0.9262
  381SOL     OW 1141   1.778   2.036   1.843 -0.5525  0.4879 -0.2905
  381SOL    HW1 1142   1.803   2.095   1.767 -0.5777 -0.4048  2.7392
  381SOL    HW2 1143   1.770   1.942   1.800 -0.7533 -1.7632 -2.4569
  382SOL     OW 1144   2.981   0.380   2.643  0.4064  0.2510  0.0812
  382SOL    HW1 1145   2.996   0.284   2.671 -0.7245 -0.9826 -3.4719
  382SOL    HW2 1146   2.965   0.385   2.536  0.9833 -0.9186 -2.1750
  383SOL     OW 1147   1.795   1.280   2.711 -0.0112 -0.0786 -0.1123
  383SOL    HW1 1148   1.795   1.256   2.613 -0.6461 -0.9654 -1.5112
  383SOL    HW2 1149   1.828   1.201   2.765  2.9747  0.7461  0.8472
  384SOL     OW 1150   1.017   2.296   0.905  0.2114  0.1217 -0.0557
  384SOL    HW1 1151   0.983   2.392   0.891 -3.1205  0.8256 -2.1737
  384SOL    HW2 1152   0.939   2.232   0.923  2.8806 -1.3337  0.1620
  385SOL     OW 1153   1.949   2.323   0.623 -0.1201  0.1894 -0.3616
  385SOL    HW1 1154   1.858   2.340   0.578 -0.9306 -0.9697 -0.0140
  385SOL    HW2 1155   1.989   2.240   0.586  0.0550  1.3877  2.2582
  386SOL     OW 1156   1.952   2.113   1.045 -0.3764  0.2580 -0.2559
  386SOL    HW1 1157   1.973   2.191   0.984 -0.6883  0.3819 -0.1338
  386SOL    HW2 1158   2.004   2.118   1.132  1.2917  0.8770  1.7536
  387SOL     OW 1159   0.375   2.307   1.580  0.3093 -0.0692  0.1617
  387SOL    HW1 1160   0.277   2.312   1.559  1.7395 -0.8024 -0.7845
  387SOL    HW2 1161   0.398   2.208   1.591 -1.9876  1.6643 -1.8851
  388SOL     OW 1162   0.029   0.715   1.883  0.0250 -0.1909 -0.4773
  388SOL    HW1 1163   3.081   0.640   1.866 -0.7784 -2.5192  1.3565
  388SOL    HW2 1164   0.086   0.698   1.970  0.5167  2.2377  5.1832
  389SOL     OW 1165   1.773   1.201   0.673 -0.0604  0.4155  0.7761
  389SOL    HW1 1166   1.779   1.280   0.732 -2.2739 -2.5723 -0.8635
  389SOL    HW2 1167   1.674   1.165   0.663  0.4925 -0.2997 -1.6447
  390SOL     OW 1168   0.899   2.178   2.523  0.3793  0.0445 -0.3702
  390SOL    HW1 1169   0.834   2.257   2.527  0.5474 -0.6789  1.3959
  390SOL    HW2 1170   0.990   2.212   2.500 -3.4881 -1.1279 -0.0434
  391SOL     OW 1171   0.984   1.991   2.701 -0.5053  0.3631 -0.4322
  391SOL    HW1 1172   0.896   1.982   2.754 -1.5036  3.1413 -0.5528
  391SOL    HW2 1173   0.971   2.055   2.624 -1.7245 -1.9638 -1.0964
  392SOL     OW 1174   2.928   2.768   2.043 -0.1771  0.4592 -0.0312
  392SOL    HW1 1175   2.827   2.745   2.040 -1.5588  0.0325 -1.1947
  392SOL    HW2 1176   2.949   2.852   1.989 -1.1933 -2.6761  1.7214
  393SOL     OW 1177   2.100   2.572   0.398 -0.2307 -0.2050 -0.0233
  393SOL    HW1 1178   2.002   2.572   0.373  0.5065  1.3648  1.4057
  393SOL    HW2 1179   2.112   2.556   0.496 -0.8582 -3.1278  0.5579
  394SOL     OW 1180   0.664   0.661   2.475  0.4794 -0.2571 -0.2671
  394SOL    HW1 1181   0.576   0.706   2.441 -1.8403  1.7857  0.9639
  394SOL    HW2 1182   0.692   0.586   2.409 -0.2927 -4.6266 -2.0364
  395SOL     OW 1183   0.529   1.257   1.216 -0.2766  0.4124 -0.2364
  395SOL    HW1 1184   0.525   1.178   1.156 -2.8207  2.4607  0.1617
  395SOL    HW2 1185   0.617   1.263   1.264 -0.0822 -2.1053 -0.4259
  396SOL     OW 1186   1.597   1.590   2.117  0.0189 -0.3821  0.3107
  396SOL    HW1 1187   1.598   1.491   2.100 -1.5889  0.4041 -2.2531
  396SOL    HW2 1188   1.631   1.604   2.210 -0.8496 -0.9584 -0.2471
  397SOL     OW 1189   0.775   0.509   2.926  0.4332 -0.0348  0.0841
  397SOL    HW1 1190   0.730   0.499   3.019  0.7274  0.5812  2.2958
  397SOL    HW2 1191   0.710   0.501   2.849 -0.6088  0.0960 -0.7007
  398SOL     OW 1192   0.282   1.945   2.677  0.4859 -0.0273  0.4323
  398SOL    HW1 1193   0.365   1.979   2.722 -0.1315  0.6410  0.1110
  398SOL    HW2 1194   0.239   2.006   2.604 -0.6083  1.3019 -0.4890
  399SOL     OW 1195   0.148   1.872   2.281  0.1357 -0.5024  0.4795
  399SOL    HW1 1196   0.213   1.823   2.340 -1.3850 -1.8017  0.4124
  399SOL    HW2 1197   0.112   1.808   2.213  0.9378  0.3588 -1.7495
  400SOL     OW 1198   2.367   0.753   1.571  0.0157 -0.2265 -0.5924
  400SOL    HW1 1199   2.406   0.800   1.491  1.5896  2.3695 -0.1724
  400SOL    HW2 1200   2.430   0.686   1.618 -0.3868  0.3875 -0.0427
  401SOL     OW 1201   1.088   1.471   0.379 -0.1806  0.1077  0.0114
  401SOL    HW1 1202   1.028   1.495   0.457  2.1943 -0.8788  0.3020
  401SOL    HW2 1203   1.173   1.413   0.397  0.3389 -0.8516 -0.2818
  402SOL     OW 1204   0.098   2.502   2.250  0.1581 -0.1197  0.5120
  402SOL    HW1 1205   0.153   2.592   2.236  0.4405 -2.1154 -1.4903
  402SOL    HW2 1206   0.128   2.427   2.193 -0.9430  0.2959  0.0986
  403SOL     OW 1207   0.465   1.626   2.273 -0.3834  0.1437  0.0196
  403SOL    HW1 1208   0.412   1.671   2.350  0.9775  0.4907  1.1847
  403SOL    HW2 1209   0.459   1.521   2.272  0.8028  0.1038  0.9100
  404SOL     OW 1210   1.834   2.187   1.593 -0.2133  0.1930  0.1621
  404SOL    HW1 1211   1.762   2.255   1.576 -2.8300  0.0734  0.1290
  404SOL    HW2 1212   1.857   2.125   1.514 -0.8150 -1.5681 -3.1999
  405SOL     OW 1213   2.877   2.617   2.820  0.3060  0.7314 -0.3848
  405SOL    HW1 1214   2.833   2.588   2.907 -0.8282 -1.0538  0.5687
  405SOL    HW2 1215   2.866   2.546   2.748 -1.5644  0.9053  0.6681
  406SOL     OW 1216   0.577   1.172   0.082 -0.5930 -0.0485  0.1059
  406SOL    HW1 1217   0.625   1.090   0.042 -0.2024  1.4696 -1.6370
  406SOL    HW2 1218   0.609   1.257   0.037  0.5977 -3.2221  1.3937
  407SOL     OW 1219   2.070   2.452   2.921  0.1747 -0.0482  0.1256
  407SOL    HW1 1220   2.126   2.374   2.953 -0.6986  0.7403 -0.3975
  407SOL    HW2 1221   2.128   2.525   2.879 -1.0343  1.8632  0.6117
  408SOL     OW 1222   2.974   2.974   0.213 -0.3766  0.1230  0.6393
  408SOL    HW1 1223   2.940   2.883   0.256 -3.7600 -3.1052  0.8256
  408SOL    HW2 1224   2.966   2.975   0.112 -1.8894  1.5279 -1.4552
  409SOL     OW 1225   2.093   1.251   0.932  0.6644  0.1464  0.4995
  409SOL    HW1 1226   2.015   1.293   0.979  0.1563 -0.6939 -2.4652
  409SOL    HW2 1227   2.105   1.290   0.834  0.0942  0.4736 -0.9669
  410SOL     OW 1228   2.911   1.729   0.558  0.1026 -0.5663  0.5514
  410SOL    HW1 1229   2.887   1.797   0.626  0.4195 -1.5715  0.1987
  410SOL    HW2 1230   3.008   1.705   0.544 -0.1669 -0.4616  1.4242
  411SOL     OW 1231   0.237   1.467   0.828 -0.4587  0.1218  0.9496
  411SOL    HW1 1232   0.297   1.546   0.814 -1.1563 -1.1275  1.8997
  411SOL    HW2 1233   0.297   1.394   0.873 -2.4805 -1.7315  1.4169
  412SOL     OW 1234   2.335   2.115   0.588  0.3755  0.3122 -0.0898
  412SOL    HW1 1235   2.360   2.214   0.583 -1.9768 -0.2776 -1.3458
  412SOL    HW2 1236   2.240   2.107   0.546 -1.3413  0.2130  0.6212
  413SOL     OW 1237   1.921   0.939   2.475 -0.0553  0.6522 -0.3607
  413SOL    HW1 1238   1.973   0.934   2.388  2.9608 -0.9325  0.3019
  413SOL    HW2 1239   1.827   0.971   2.460 -0.7834 -3.7827 -0.8161
  414SOL     OW 1240   2.806   3.074   0.378  0.2329  0.3413  0.3200
  414SOL    HW1 1241   2.858   3.029   0.302 -0.8745 -1.4934 -0.6984
  414SOL    HW2 1242   2.869   3.081   0.458 -0.2273  0.8182 -0.4565
  415SOL     OW 1243   0.825   2.072   1.051 -0.1052  0.3687 -0.3524
  415SOL    HW1 1244   0.766   2.148   1.080 -0.4146 -1.2459 -2.4580
  415SOL    HW2 1245   0.764   1.992   1.027 -2.4942  0.2135 -0.5941
  416SOL     OW 1246   0.190   2.799   2.707  0.1983 -0.2427 -0.1183
  416SOL    HW1 1247   0.124   2.839   2.638  2.3169  1.1869 -0.2464
  416SOL    HW2 1248   0.157   2.717   2.748  0.2432  2.0750 -1.1928
  417SOL     OW 1249   3.044   0.854   1.270  0.0210  0.2217 -0.1176
  417SOL    HW1 1250   3.014   0.810   1.186 -0.2285  1.4181 -0.1658
  417SOL    HW2 1251   0.019   0.839   1.296  1.5801 -1.7471 -0.4488
  418SOL     OW 1252   0.038   0.252   0.015 -0.2837 -0.9690  0.2001
  418SOL    HW1 1253   0.009   0.195   0.095  1.5811  0.3470 -0.3254
  418SOL    HW2 1254   0.128   0.215   3.106 -0.7774 -0.9454  2.0122
  419SOL     OW 1255   0.285   1.638   1.672  0.1328 -0.4931 -0.2790
  419SOL    HW1 1256   0.220   1.612   1.595 -0.8218 -0.0355 -0.0757
  419SOL    HW2 1257   0.378   1.619   1.646 -0.1516 -0.2288  2.2033
  420SOL     OW 1258   0.491   1.500   0.322  0.2364 -0.2988 -0.1578
  420SOL    HW1 1259   0.478   1.580   0.260 -1.9661  0.5232 -0.0469
  420SOL    HW2 1260   0.588   1.470   0.320  1.2089  1.4736 -0.3585
  421SOL     OW 1261   2.078   2.270   2.283  0.0702  0.3238  0.3297
  421SOL    HW1 1262   2.031   2.358   2.273 -0.6153 -1.8007  0.5574
  421SOL    HW2 1263   2.176   2.290   2.314  3.5259 -1.3559  1.2506
  422SOL     OW 1264   0.089   0.486   2.753  0.3279 -0.0778 -0.1531
  422SOL    HW1 1265   0.131   0.506   2.665 -0.5468 -0.3749 -0.0884
  422SOL    HW2 1266   0.002   0.438   2.732 -0.3610  1.8558 -0.8509
  423SOL     OW 1267   1.257   2.220   0.441  0.5505  0.1481  0.0573
  423SOL    HW1 1268   1.231   2.247   0.535  1.5745 -3.4326 -4.7124
  423SOL    HW2 1269   1.187   2.152   0.409 -0.5460  1.6602 -0.1540
  424SOL     OW 1270   0.715   2.028   1.503 -0.2554  0.3838 -0.4961
  424SOL    HW1 1271   0.739   2.121   1.462  1.5241  2.0805  0.2019
  424SOL    HW2 1272   0.729   1.948   1.438 -1.9922 -3.1539 -0.0207
  425SOL     OW 1273   2.971   2.686   2.533 -0.4088 -0.3916 -0.2480
  425SOL    HW1 1274   2.958   2.601   2.477  3.0146  0.9524 -1.2904
  425SOL    HW2 1275   2.963   2.654   2.631 -1.1516 -0.2646 -1.1940
  426SOL     OW 1276   1.770   0.439   0.979 -0.5592 -0.4046  0.0156
  426SOL    HW1 1277   1.833   0.493   1.036 -0.9740  0.6926  1.0985
  426SOL    HW2 1278   1.784   0.463   0.880 -0.2761  1.5277 -2.1016
  427SOL     OW 1279   0.166   1.272   3.082 -0.0744  0.3611  0.0247
  427SOL    HW1 1280   0.177   1.258   0.058  1.7358 -0.0920 -0.1711
  427SOL    HW2 1281   0.084   1.232   3.039 -1.5755  0.0391 -1.9810
  428SOL     OW 1282   1.319   1.422   0.030  0.1971  0.3230 -1.1112
  428SOL    HW1 1283   1.291   1.360   0.107  0.3021  0.6634 -0.2117
  428SOL    HW2 1284   1.363   1.365   3.083 -4.3457  0.8048  0.2110
  429SOL     OW 1285   2.798   2.705   0.702  0.2505  0.3931  0.9311
  429SOL    HW1 1286   2.723   2.736   0.765 -0.5844  0.2472 -2.8274
  429SOL    HW2 1287   2.764   2.672   0.612 -0.4439  1.2965  1.2707
  430SOL     OW 1288   0.495   2.494   2.532  0.6812 -0.4255 -0.1829
  430SOL    HW1 1289   0.499   2.525   2.633  4.7630  0.7939  1.0342
  430SOL    HW2 1290   0.407   2.457   2.511  2.0936 -0.8917  0.7517
  431SOL     OW 1291   2.843   1.130   0.434 -0.9048  0.5454  0.0762
  431SOL    HW1 1292   2.911   1.174   0.496  0.1285  2.4171  2.3386
  431SOL    HW2 1293   2.822   1.038   0.472  2.1222 -0.8950  2.2849
  432SOL     OW 1294   2.162   2.593   2.318  0.2283  0.1556 -0.4214
  432SOL    HW1 1295   2.221   2.633   2.248 -0.8852 -0.1583  0.5659
  432SOL    HW2 1296   2.145   2.657   2.392 -2.4927 -0.7273  0.1305
  433SOL     OW 1297   1.464   2.608   0.718 -0.5551  0.0500  0.2246
  433SOL    HW1 1298   1.430   2.509   0.719 -2.0563 -0.2127  1.5575
  433SOL    HW2 1299   1.402   2.673   0.769  0.1526 -1.0056 -0.9534
  434SOL     OW 1300   1.088   1.942   2.221  0.1559  0.0723 -0.2996
  434SOL    HW1 1301   1.011   1.902   2.171  2.1028 -0.1148 -1.3510
  434SOL    HW2 1302   1.095   1.891   2.314  0.6575 -4.3438  3.0153
  435SOL     OW 1303   2.796   0.702   0.010 -0.0130 -0.3144  0.1972
  435SOL    HW1 1304   2.880   0.732   3.080  2.3398 -1.1256 -0.0780
  435SOL    HW2 1305   2.792   0.757   0.095  0.5226  1.7272 -0.9304
  436SOL     OW 1306   0.291   2.692   2.259 -0.1493  0.2258  0.5123
  436SOL    HW1 1307   0.283   2.769   2.190 -0.8443 -1.2837 -0.4696
  436SOL    HW2 1308   0.387   2.686   2.297 -0.4244  2.7270  1.9190
  437SOL     OW 1309   1.926   3.056   1.511 -0.3375  0.7611 -0.3606
  437SOL    HW1 1310   2.028   3.046   1.533  2.2814 -0.0733 -3.1114
  437SOL    HW2 1311   1.915   0.032   1.486  1.1319 -0.3802 -1.7742
  438SOL     OW 1312   0.202   1.811   0.644  0.3663 -0.0141 -0.1487
  438SOL    HW1 1313   0.177   1.903   0.684 -0.4792 -1.3013  0.5397
  438SOL    HW2 1314   0.249   1.748   0.710  0.4452  1.4695  0.5697
  439SOL     OW 1315   0.346   0.332   1.024  0.2945  0.0121  0.5883
  439SOL    HW1 1316   0.438   0.316   0.988 -2.1703  1.0013 -0.7183
  439SOL    HW2 1317   0.304   0.242   1.037 -0.3121 -0.4568 -0.2725
  440SOL     OW 1318   2.866   2.868   2.292  0.5465 -0.3602 -0.3477
  440SOL    HW1 1319   2.896   2.799   2.361  0.9145 -1.4185 -0.1076
  440SOL    HW2 1320   2.902   2.830   2.200 -0.4936 -2.4809 -2.0358
  441SOL     OW 1321   0.125   0.767   0.262  0.3367  0.1201 -0.8068
  441SOL    HW1 1322   0.201   0.825   0.304  0.8972 -1.1070 -0.1125
  441SOL    HW2 1323   0.057   0.732   0.332  1.6090 -2.0544  0.2373
  442SOL     OW 1324   1.607   2.524   2.313 -1.2076  0.2835  0.1471
  442SOL    HW1 1325   1.661   2.475   2.242  0.5877  1.8973 -0.3642
  442SOL    HW2 1326   1.580   2.466   2.391 -3.3851  0.9174 -0.6277
  443SOL     OW 1327   0.588   3.120   0.149  0.0775  0.0349 -0.4056
  443SOL    HW1 1328   0.671   3.062   0.163  0.2416 -1.2063  2.1397
  443SOL    HW2 1329   0.609   0.093   0.123 -1.2014  1.1234  0.1831
  444SOL     OW 1330   1.339   1.854   2.617  0.1492  0.1840  0.1674
  444SOL    HW1 1331   1.400   1.904   2.553 -0.9321  2.1941  1.1745
  444SOL    HW2 1332   1.260   1.808   2.574  0.7859  0.9939  0.0908
  445SOL     OW 1333   0.324   0.475   0.668 -0.1224  0.2326 -0.4833
  445SOL    HW1 1334   0.298   0.380   0.686 -0.4077 -1.4377  1.3217
  445SOL    HW2 1335   0.285   0.511   0.583 -1.1916 -0.1070 -0.1881
  446SOL     OW 1336   1.665   0.759   0.718 -0.2388  0.3017 -0.1029
  446SOL    HW1 1337   1.588   0.691   0.707  0.2928 -0.9200  0.1011
  446SOL    HW2 1338   1.634   0.838   0.776  1.4574 -0.1203 -0.5058
  447SOL     OW 1339   2.857   0.891   0.198  0.1830 -0.6068 -0.3217
  447SOL    HW1 1340   2.851   0.896   0.298 -0.9876 -1.1730 -2.0116
  447SOL    HW2 1341   2.953   0.883   0.164  0.0468 -0.1055 -2.9630
  448SOL     OW 1342   1.925   2.044   1.388 -0.1720  0.2049 -0.9847
  448SOL    HW1 1343   1.976   1.957   1.360 -0.1311 -0.5050  0.3648
  448SOL    HW2 1344   1.972   2.130   1.359 -0.3043  1.4256  1.4227
  449SOL     OW 1345   0.910   1.612   3.103 -0.3823 -0.2660  0.6104
  449SOL    HW1 1346   0.932   1.550   3.024  1.8086 -2.8068  0.1066
  449SOL    HW2 1347   0.994   1.631   0.033 -0.3968  4.5264 -0.9813
  450SOL     OW 1348   2.221   2.878   2.361  0.1744 -0.3637  0.5170
  450SOL    HW1 1349   2.157   2.857   2.436 -0.4129 -2.6681  2.0487
  450SOL    HW2 1350   2.167   2.928   2.292 -1.2414 -0.9893  1.7434
  451SOL     OW 1351   2.265   0.757   2.701  0.4409  0.4550 -0.4912
  451SOL    HW1 1352   2.210   0.844   2.704  0.9518  1.5177  0.8146
  451SOL    HW2 1353   2.312   0.744   2.614  0.4983 -0.3365  1.2164
  452SOL     OW 1354   1.570   1.182   1.092 -0.0667  0.1307  0.0298
  452SOL    HW1 1355   1.469   1.166   1.117 -1.9947 -2.6611  1.5951
  452SOL    HW2 1356   1.627   1.119   1.150  0.0820 -3.3661  3.9162
  453SOL     OW 1357   1.699   0.756   1.507  0.3584 -0.4734 -0.5003
  453SOL    HW1 1358   1.681   0.695   1.583  1.2011  0.6136 -0.4111
  453SOL    HW2 1359   1.676   0.855   1.528  0.8252 -0.9904  1.6640
  454SOL     OW 1360   2.787   1.087   2.721  0.8693 -0.2966 -0.2432
  454SOL    HW1 1361   2.844   1.001   2.718  1.3659 -0.8281  1.2362
  454SOL    HW2 1362   2.708   1.064   2.782 -0.6699  0.0641 -0.3879
  455SOL     OW 1363   2.917   1.576   1.334  0.3478  0.0531 -0.2223
  455SOL    HW1 1364   3.011   1.615   1.332 -2.2599 -0.5038  0.2861
  455SOL    HW2 1365   2.911   1.501   1.268  0.3791 -2.1477  0.3382
  456SOL     OW 1366   1.437   2.734   1.461  0.9533  0.7491 -0.1112
  456SOL    HW1 1367   1.537   2.713   1.471  0.0075  1.0818 -2.0500
  456SOL    HW2 1368   1.410   2.834   1.464  0.1158  2.0918 -1.0921
  457SOL     OW 1369   1.547   2.971   1.007  0.4305 -0.0584 -0.2041
  457SOL    HW1 1370   1.624   2.911   1.030 -3.4990  1.2853  2.3291
  457SOL    HW2 1371   1.559   3.056   1.067  1.4852  0.8166 -1.4906
  458SOL     OW 1372   2.867   2.955   0.969 -0.1495 -0.3930 -0.3418
  458SOL    HW1 1373   2.776   2.927   0.952  1.2878  2.2998  0.6524
  458SOL    HW2 1374   2.875   3.054   0.936 -0.7090 -1.1774 -0.8548
  459SOL     OW 1375   1.546   0.852   0.332  0.2937  0.7501 -0.1434
  459SOL    HW1 1376   1.523   0.892   0.240 -1.0806  0.5219 -1.6286
  459SOL    HW2 1377   1.647   0.844   0.347  0.3425 -3.0463  1.5131
  460SOL     OW 1378   0.562   2.687   2.340 -0.1871  0.2118  0.1334
  460SOL    HW1 1379   0.527   2.608   2.396 -0.2694  0.2069  1.2264
  460SOL    HW2 1380   0.606   2.763   2.392 -0.7428 -0.7223  2.4634
  461SOL     OW 1381   0.191   1.607   0.230 -0.3111 -0.8286 -0.0087
  461SOL    HW1 1382   0.213   1.528   0.285  1.6335  1.9105 -1.2738
  461SOL    HW2 1383   0.276   1.663   0.208  2.0741 -0.3177  0.2494
  462SOL     OW 1384   1.748   2.147   0.390  0.0385  0.3340 -0.6577
  462SOL    HW1 1385   1.710   2.088   0.462  0.3466  0.7158 -4.3029
  462SOL    HW2 1386   1.769   2.091   0.310 -1.5006  2.3743  0.1501
  463SOL     OW 1387   2.611   0.328   0.507 -0.0584 -0.4651 -0.0996
  463SOL    HW1 1388   2.561   0.410   0.483  1.4903  0.7805 -0.1541
  463SOL    HW2 1389   2.644   0.269   0.430 -0.9353 -0.3230  1.7958
  464SOL     OW 1390   0.817   2.158   0.293 -0.5823 -0.5058  0.2767
  464SOL    HW1 1391   0.821   2.155   0.191 -3.5726  0.4339  0.2591
  464SOL    HW2 1392   0.768   2.078   0.329  0.7778 -0.3844 -3.2501
  465SOL     OW 1393   2.277   0.472   1.253 -0.1385 -0.0141  0.0680
  465SOL    HW1 1394   2.213   0.403   1.217  0.2435  1.5071 -3.6604
  465SOL    HW2 1395   2.229   0.563   1.253 -2.2747  2.1743  0.5983
  466SOL     OW 1396   2.224   0.116   0.692 -0.5103 -0.2585 -0.2292
  466SOL    HW1 1397   2.190   0.098   0.596  0.9945 -0.2753  0.2125
  466SOL    HW2 1398   2.316   0.163   0.694 -2.2179  0.2548  1.8982
  467SOL     OW 1399   0.959   0.621   2.110  0.2958  0.0259  0.3909
  467SOL    HW1 1400   0.959   0.722   2.109  1.6643 -0.6966 -0.4735
  467SOL    HW2 1401   1.046   0.595   2.071 -0.5312 -0.0816  2.2349
  468SOL     OW 1402   2.564   0.281   2.041 -0.0633  0.5147 -0.2021
  468SOL    HW1 1403   2.489   0.331   1.997  0.8975  0.6681 -1.4609
  468SOL    HW2 1404   2.646   0.340   2.052  0.3820 -0.4138 -0.9674
  469SOL     OW 1405   1.048   2.619   1.788  0.3331 -0.2575  0.7930
  469SOL    HW1 1406   1.135   2.656   1.743  2.6287  0.0442  0.7260
  469SOL    HW2 1407   0.986   2.698   1.798  3.4064  0.5008  2.9613
  470SOL     OW 1408   2.370   1.172   1.789  0.3813 -0.3377 -0.1806
  470SOL    HW1 1409   2.369   1.073   1.810  2.8370 -1.1098  1.4674
  470SOL    HW2 1410   2.429   1.215   1.861  1.5849 -1.3837  0.9427
  471SOL     OW 1411   2.915   1.472   3.040  0.3590 -0.0307  0.0085
  471SOL    HW1 1412   2.988   1.540   3.012  3.3308 -1.1760  1.3951
  471SOL    HW2 1413   2.819   1.483   2.997 -4.9451  1.9800 -1.0717
  472SOL     OW 1414   0.408   2.162   0.569 -0.6162 -0.7105 -1.1949
  472SOL    HW1 1415   0.411   2.086   0.501 -1.0001  2.2949  0.7425
  472SOL    HW2 1416   0.468   2.240   0.531  0.9606  3.5864 -1.6777
  473SOL     OW 1417   1.131   2.403   2.093 -0.2446  0.2197  0.1925
  473SOL    HW1 1418   1.038   2.405   2.058  2.2441 -1.0243  0.9407
  473SOL    HW2 1419   1.142   2.308   2.141 -0.1459 -2.8227  1.8162
  474SOL     OW 1420   0.873   2.929   2.555 -0.1017  0.8143 -1.0835
  474SOL    HW1 1421   0.902   2.836   2.522  1.5989 -0.9865 -1.0643
  474SOL    HW2 1422   0.904   2.936   2.655 -0.2562 -0.8999 -0.8386
  475SOL     OW 1423   0.945   2.113   0.035  0.1156  0.5681 -0.1632
  475SOL    HW1 1424   1.036   2.152   0.045 -2.6850 -0.6644 -1.6267
  475SOL    HW2 1425   0.951   2.012   0.045 -0.7121 -0.9484  1.0586
  476SOL     OW 1426   1.117   0.665   1.076 -0.1176  0.2036  0.0226
  476SOL    HW1 1427   1.108   0.610   0.993  0.9557 -1.9478  1.2715
  476SOL    HW2 1428   1.037   0.728   1.083 -0.3055 -1.1441  0.2635
  477SOL     OW 1429   2.055   2.262   1.278 -0.3955  0.1153  0.0336
  477SOL    HW1 1430   2.153   2.274   1.257 -0.1721 -0.3345 -1.2204
  477SOL    HW2 1431   2.005   2.345   1.312 -4.3930  0.2032  0.7750
  478SOL     OW 1432   0.114   0.641   2.979 -0.4628  0.1468 -0.0815
  478SOL    HW1 1433   0.110   0.575   2.899  1.4757  3.1515  0.9430
  478SOL    HW2 1434   0.114   0.586   3.066 -1.3478 -1.9197  1.3838
  479SOL     OW 1435   0.894   0.060   1.401 -0.0121 -0.0516 -0.1217
  479SOL    HW1 1436   0.963   0.126   1.379  1.0957 -0.0528  0.2875
  479SOL    HW2 1437   0.931   3.085   1.422  1.3602 -4.5389  3.5939
  480SOL     OW 1438   2.660   2.340   0.481  0.3664  0.0781  0.4284
  480SOL    HW1 1439   2.677   2.295   0.392  2.0953  0.4498 -0.0435
  480SOL    HW2 1440   2.709   2.302   0.559  0.1127 -0.8782  0.3865
  481SOL     OW 1441   0.176   0.716   1.655  0.1794  0.4540  0.4520
  481SOL    HW1 1442   0.168   0.800   1.595 -0.2176 -0.4697  2.2633
  481SOL    HW2 1443   0.125   0.723   1.741 -1.3988 -0.4606 -0.2056
  482SOL     OW 1444   1.044   3.058   1.031  0.4095 -0.3984 -0.1022
  482SOL    HW1 1445   1.004   0.020   1.066  0.9350 -1.6679 -2.0829
  482SOL    HW2 1446   0.990   2.971   1.053  1.2731 -0.4846 -1.3184
  483SOL     OW 1447   0.169   1.551   2.658  0.4041  0.4179 -0.2921
  483SOL    HW1 1448   0.076   1.512   2.648  0.5734  1.5621 -2.5812
  483SOL    HW2 1449   0.198   1.551   2.753  0.9203  3.2639  0.1248
  484SOL     OW 1450   1.623   1.887   2.148 -0.0357 -0.3790 -0.1515
  484SOL    HW1 1451   1.602   1.938   2.062 -2.9919 -0.8874  2.3426
  484SOL    HW2 1452   1.565   1.802   2.140  0.0141 -0.7188 -0.8705
  485SOL     OW 1453   0.203   3.023   2.316 -0.0827  0.6234  0.8221
  485SOL    HW1 1454   0.164   3.118   2.305 -0.3391  1.2199 -0.2296
  485SOL    HW2 1455   0.135   2.959   2.363  1.2663 -0.1887 -0.5353
  486SOL     OW 1456   1.277   3.037   0.713 -0.0952 -0.2562  0.2410
  486SOL    HW1 1457   1.279   2.980   0.794  0.1066  1.3569 -1.0363
  486SOL    HW2 1458   1.336   2.995   0.643 -0.1509 -0.2435  1.9458
  487SOL     OW 1459   1.556   0.216   0.805 -0.2882 -0.1337 -0.1848
  487SOL    HW1 1460   1.585   0.116   0.789 -2.1022 -3.0732  0.8461
  487SOL    HW2 1461   1.553   0.247   0.904  2.0373 -2.2457  3.1448
  488SOL     OW 1462   2.194   0.841   1.054 -0.2640  0.0653 -0.0380
  488SOL    HW1 1463   2.251   0.912   1.008 -0.0402 -0.0012 -2.1339
  488SOL    HW2 1464   2.096   0.870   1.039  2.2837 -1.1167 -1.2689
  489SOL     OW 1465   1.166   0.214   1.325 -0.1106  0.0954 -0.3466
  489SOL    HW1 1466   1.215   0.126   1.306 -0.7323  1.5356  1.3126
  489SOL    HW2 1467   1.141   0.253   1.234 -2.5758 -0.8465  0.8921
  490SOL     OW 1468   0.662   0.567   0.057 -0.2522 -0.5179  0.1272
  490SOL    HW1 1469   0.692   0.499   0.125 -0.8449 -0.7642 -1.0095
  490SOL    HW2 1470   0.559   0.571   0.053 -2.1615 -0.0403  0.6062
  491SOL     OW 1471   0.894   2.917   0.346  0.6009  0.9851  0.7164
  491SOL    HW1 1472   0.933   2.996   0.405 -0.8755  1.6349 -1.9383
  491SOL    HW2 1473   0.964   2.868   0.297 -0.9268 -0.0983  4.4662
  492SOL     OW 1474   1.370   1.667   1.624  0.6187  0.3392  0.0710
  492SOL    HW1 1475   1.372   1.747   1.687  0.2623 -0.9904  0.2648
  492SOL    HW2 1476   1.436   1.593   1.642  0.6972 -1.1210 -2.8145
  493SOL     OW 1477   0.431   1.717   0.175 -0.1898  0.2984  0.0991
  493SOL    HW1 1478   0.379   1.805   0.175  3.0768 -0.1387  2.9765
  493SOL    HW2 1479   0.457   1.685   0.082  4.4496  0.4141  0.7883
  494SOL     OW 1480   1.947   1.886   0.563  0.0846 -0.5403  0.2185
  494SOL    HW1 1481   1.998   1.826   0.623 -0.0326  3.4718  0.0861
  494SOL    HW2 1482   1.858   1.838   0.539 -4.5075 -1.2028  1.7082
  495SOL     OW 1483   0.241   1.338   2.427  0.3694  0.0264  0.1109
  495SOL    HW1 1484   0.161   1.375   2.483 -1.3027 -1.1603  1.6650
  495SOL    HW2 1485   0.207   1.266   2.371  2.2914 -0.4792  0.2407
  496SOL     OW 1486   0.512   2.994   2.409  0.3276 -0.3172  0.1365
  496SOL    HW1 1487   0.420   2.970   2.364 -1.8468 -4.2002 -2.3399
  496SOL    HW2 1488   0.585   2.982   2.340 -2.1496 -1.3115 -1.2993
  497SOL     OW 1489   1.515   1.119   0.666  0.4218  0.7146 -0.9335
  497SOL    HW1 1490   1.464   1.097   0.583  1.0034 -1.4290  0.8601
  497SOL    HW2 1491   1.490   1.207   0.710  1.7229 -1.0689  2.0918
  498SOL     OW 1492   2.872   2.720   0.305  0.0012 -0.0642 -0.6313
  498SOL    HW1 1493   2.880   2.680   0.213  1.5529  1.4493  2.5479
  498SOL    HW2 1494   2.813   2.666   0.372 -1.6106 -1.3646 -0.0565
  499SOL     OW 1495   2.170   2.507   0.668 -1.2078  0.3529 -0.2217
  499SOL    HW1 1496   2.094   2.440   0.675  0.4423  1.4025 -0.2072
  499SOL    HW2 1497   2.257   2.462   0.699 -1.9524 -0.9585 -1.5368
  500SOL     OW 1498   0.446   0.589   2.794 -0.1007 -0.5281 -0.1174
  500SOL    HW1 1499   0.475   0.675   2.844  0.8589 -0.4217  0.1918
  500SOL    HW2 1500   0.530   0.544   2.770 -1.3781 -1.4114 -1.4057
  501SOL     OW 1501   1.668   2.815   1.837 -0.7861 -0.0687 -0.6284
  501SOL    HW1 1502   1.705   2.720   1.830 -1.1730  0.4964 -0.1392
  501SOL    HW2 1503   1.579   2.812   1.891 -0.2416 -1.7161 -0.0083
  502SOL     OW 1504   0.082   0.155   2.427  0.6687 -0.3488  0.0494
  502SOL    HW1 1505   0.000   0.096   2.438 -0.8579 -0.0955 -0.1561
  502SOL    HW2 1506   0.137   0.155   2.512  0.6152 -2.7922 -0.8165
  503SOL     OW 1507   1.912   2.510   2.218 -0.2203  0.0726  0.4280
  503SOL    HW1 1508   1.838   2.551   2.266 -1.3446 -2.3107 -0.5222
  503SOL    HW2 1509   2.005   2.556   2.229  2.2532 -1.8619 -0.6909
  504SOL     OW 1510   1.889   0.141   1.781  0.1735  0.1578  0.0571
  504SOL    HW1 1511   1.842   0.052   1.778  1.2373 -0.0680  0.4945
  504SOL    HW2 1512   1.902   0.175   1.685 -1.4895 -3.4574 -0.2883
  505SOL     OW 1513   2.481   1.601   1.696 -0.9221 -0.0037 -0.1953
  505SOL    HW1 1514   2.576   1.583   1.654  1.3085  0.8459 -3.1485
  505SOL    HW2 1515   2.412   1.595   1.624  2.7431 -0.7931  1.4016
  506SOL     OW 1516   0.242   1.472   1.930  0.1109 -0.1422 -0.1314
  506SOL    HW1 1517   0.152   1.427   1.931  0.1643  1.1904 -1.2829
  506SOL    HW2 1518   0.274   1.488   1.835 -1.7749  0.1375  0.2784
  507SOL     OW 1519   0.792   2.755   1.554 -0.3574  0.1352 -0.0077
  507SOL    HW1 1520   0.835   2.783   1.646  0.6748 -0.5799  0.7378
  507SOL    HW2 1521   0.710   2.699   1.570  1.6892  1.0817 -0.5705
  508SOL     OW 1522   0.868   0.745   1.502 -0.2961  0.1263  0.0525
  508SOL    HW1 1523   0.873   0.709   1.595 -3.6177  1.9921 -2.3144
  508SOL    HW2 1524   0.862   0.670   1.433 -0.3560  0.8505  0.2674
  509SOL     OW 1525   1.614   2.387   1.878  0.2585 -0.1921 -0.3060
  509SOL    HW1 1526   1.683   2.449   1.913 -1.3476  1.1644  1.6635
  509SOL    HW2 1527   1.520   2.403   1.912 -2.2696  0.8211 -1.4120
  510SOL     OW 1528   2.479   1.010   2.764 -0.4876  0.5017 -1.0034
  510SOL    HW1 1529   2.524   0.983   2.849 -3.4850  1.1449 -0.5430
  510SOL    HW2 1530   2.413   1.082   2.777  3.1356 -2.9303 -0.5050
  511SOL     OW 1531   0.765   1.353   1.349 -0.3014 -0.1138  0.2548
  511SOL    HW1 1532   0.831   1.298   1.304 -1.5584 -0.4817 -0.3522
  511SOL    HW2 1533   0.775   1.347   1.450 -2.2368  1.3425 -0.0793
  512SOL     OW 1534   2.642   1.643   0.515 -0.8196 -0.1881 -0.2915
  512SOL    HW1 1535   2.739   1.661   0.512 -1.5378 -1.4179 -1.7770
  512SOL    HW2 1536   2.593   1.716   0.559  1.6775  1.4605 -2.6966
  513SOL     OW 1537   0.693   1.928   2.438 -0.0578  0.6612 -0.1080
  513SOL    HW1 1538   0.775   1.988   2.455  2.0193  1.0627 -3.0171
  513SOL    HW2 1539   0.724   1.835   2.406 -1.9652  0.6831 -0.8774
  514SOL     OW 1540   0.090   2.281   1.522  0.0253 -0.3002  0.0737
  514SOL    HW1 1541   0.061   2.282   1.425 -0.7579  0.7398  0.1707
  514SOL    HW2 1542   0.021   2.238   1.580  1.1411  0.3423 -0.9156
  515SOL     OW 1543   2.163   1.188   1.619  0.4912  0.0382 -0.1129
  515SOL    HW1 1544   2.218   1.225   1.698 -1.1148  1.0885 -0.2596
  515SOL    HW2 1545   2.094   1.260   1.591  0.8692 -1.2932  0.4579
  516SOL     OW 1546   2.532   3.017   3.038 -0.2179  0.0353 -0.0081
  516SOL    HW1 1547   2.523   3.072   2.952  1.5753 -0.4438  3.0883
  516SOL    HW2 1548   2.473   3.058   3.112  0.2229  1.9518 -0.6197
  517SOL     OW 1549   1.321   1.736   2.890 -0.3122  0.2738  0.2328
  517SOL    HW1 1550   1.377   1.818   2.882 -1.5618  1.7050 -1.2147
  517SOL    HW2 1551   1.374   1.666   2.942 -1.9109  2.4553 -0.1244
  518SOL     OW 1552   1.382   2.996   1.428  0.4868  0.4264  0.1335
  518SOL    HW1 1553   1.472   3.040   1.432 -1.6965 -0.0366 -0.0354
  518SOL    HW2 1554   1.322   3.036   1.350 -0.8292 -1.1329 -2.9665
  519SOL     OW 1555   2.329   2.560   1.095 -0.0704  0.6131  0.1780
  519SOL    HW1 1556   2.429   2.554   1.076  2.2360 -1.1281  1.6995
  519SOL    HW2 1557   2.294   2.656   1.079  1.6681  1.8172  1.8702
  520SOL     OW 1558   2.901   2.139   2.102 -0.2317 -0.4601 -1.0061
  520SOL    HW1 1559   2.851   2.058   2.069  0.6897 -0.5482  1.5036
  520SOL    HW2 1560   2.896   2.155   2.205 -1.9258  0.3051  1.9305
  521SOL     OW 1561   3.024   0.809   2.952  0.2806  0.0294 -0.0661
  521SOL    HW1 1562   3.113   0.751   2.941 -0.1786 -0.3128 -1.0543
  521SOL    HW2 1563   3.029   0.877   3.027 -0.6954  1.2387 -0.1925
  522SOL     OW 1564   0.888   0.811   2.577 -0.3475 -0.0655  0.4260
  522SOL    HW1 1565   0.909   0.869   2.498  0.8651  1.4421  1.3211
  522SOL    HW2 1566   0.812   0.745   2.548 -0.0278 -2.2979 -1.5252
  523SOL     OW 1567   0.065   2.541   0.695 -0.2281  0.0769  0.2020
  523SOL    HW1 1568   0.125   2.529   0.772 -1.7885 -2.7214 -1.7066
  523SOL    HW2 1569   0.112   2.509   0.613 -1.3916  0.1255  2.8104
  524SOL     OW 1570   1.913   2.613   3.070 -0.1997  0.2221  0.4107
  524SOL    HW1 1571   1.963   2.547   3.009  1.2083 -1.1395  0.8358
  524SOL    HW2 1572   1.930   2.579   0.046 -0.8762 -2.4109  1.3303
  525SOL     OW 1573   2.559   0.488   1.254  0.1304  0.0747 -0.4815
  525SOL    HW1 1574   2.582   0.587   1.264  3.6279  3.2062  0.2953
  525SOL    HW2 1575   2.458   0.467   1.253 -2.4430 -1.3855 -0.5032
  526SOL     OW 1576   1.176   2.747   0.429 -0.4845 -0.3074  0.1321
  526SOL    HW1 1577   1.144   2.666   0.478  2.2893  2.0288 -2.0828
  526SOL    HW2 1578   1.170   2.733   0.328  1.4005 -0.6648  1.7447
  527SOL     OW 1579   2.187   2.872   0.583  0.2956  0.0526  0.4662
  527SOL    HW1 1580   2.102   2.831   0.624 -1.0595  1.6379 -0.3197
  527SOL    HW2 1581   2.178   2.959   0.525  2.1506 -2.2948 -0.3446
  528SOL     OW 1582   1.881   0.670   2.942 -0.1141 -0.2130 -0.0554
  528SOL    HW1 1583   1.883   0.737   2.867 -3.0261 -0.7183  1.4540
  528SOL    HW2 1584   1.850   0.575   2.919 -1.7000  0.8082 -0.1007
  529SOL     OW 1585   1.641   1.584   2.397  0.7218  0.0778  0.4072
  529SOL    HW1 1586   1.575   1.598   2.475  0.3355  0.1272 -0.0074
  529SOL    HW2 1587   1.738   1.574   2.432 -3.0385  1.5220  1.4106
  530SOL     OW 1588   2.569   2.776   2.886  0.3535 -0.6561 -0.2363
  530SOL    HW1 1589   2.498   2.743   2.822 -0.1874  0.8736  0.2753
  530SOL    HW2 1590   2.563   2.874   2.906  0.0734 -0.0485 -2.7020
  531SOL     OW 1591   1.841   1.068   2.892  0.4485  0.2304 -0.4810
  531SOL    HW1 1592   1.877   1.020   2.975  1.0584 -0.2951  0.3090
  531SOL    HW2 1593   1.750   1.036   2.873  1.6881  2.9558  1.1664
  532SOL     OW 1594   1.543   0.321   1.058 -0.3291  0.6814 -0.0696
  532SOL    HW1 1595   1.483   0.365   1.124  0.1974  0.4301 -0.3219
  532SOL    HW2 1596   1.614   0.385   1.028 -2.3503 -1.2493  2.6546
  533SOL     OW 1597   0.648   1.049   2.810  0.3141  0.4565 -0.2670
  533SOL    HW1 1598   0.609   1.141   2.815 -2.0207 -3.1365  0.1926
  533SOL    HW2 1599   0.749   1.046   2.805 -1.6281  1.4428 -2.4293
  534SOL     OW 1600   1.474   0.452   0.097  0.4265  0.3585  0.1541
  534SOL    HW1 1601   1.510   0.358   0.086 -1.7576  0.0864  0.6828
  534SOL    HW2 1602   1.417   0.479   0.016  0.7372  0.1580  0.2353
  535SOL     OW 1603   0.776   2.360   3.092 -0.1827 -0.2982 -0.4991
  535SOL    HW1 1604   0.704   2.432   3.112 -0.3858  2.4536  2.4030
  535SOL    HW2 1605   0.733   2.269   3.109 -2.0690 -3.0376 -1.1285
  536SOL     OW 1606   0.451   3.015   0.384  0.4701 -0.3942 -0.5864
  536SOL    HW1 1607   0.507   3.030   0.300  1.3878 -0.5523 -1.7310
  536SOL    HW2 1608   0.474   2.923   0.428  0.6982 -3.7651  2.2150
  537SOL     OW 1609   1.853   0.404   0.348 -0.4403 -0.3679 -0.0399
  537SOL    HW1 1610   1.895   0.323   0.394  3.8794 -2.5288  0.9590
  537SOL    HW2 1611   1.780   0.455   0.403  0.7393  0.7342  0.5213
  538SOL     OW 1612   2.549   2.095   2.984 -0.2480  0.6044 -0.0173
  538SOL    HW1 1613   2.652   2.098   2.968 -1.0278  2.5953 -0.1555
  538SOL    HW2 1614   2.517   2.193   2.977  0.9149 -1.0840  1.1500
  539SOL     OW 1615   2.483   1.243   3.010  0.1700 -0.0016 -0.0241
  539SOL    HW1 1616   2.407   1.213   3.069  1.2348 -0.9762 -1.4972
  539SOL    HW2 1617   2.560   1.175   3.019  3.1952  0.3715 -2.3842
  540SOL     OW 1618   1.006   3.039   1.793  0.0063 -0.4173  0.0624
  540SOL    HW1 1619   1.012   0.017   1.812 -0.1246  0.7139 -0.2487
  540SOL    HW2 1620   0.985   3.026   1.692  2.1622  3.7235  0.1853
  541SOL     OW 1621   2.416   3.072   2.381  0.2672 -0.1394  0.2745
  541SOL    HW1 1622   2.339   3.005   2.384  0.6906 -0.9106  0.6124
  541SOL    HW2 1623   2.496   3.029   2.331  1.8843 -2.4088 -1.1021
  542SOL     OW 1624   0.233   0.890   2.993  0.1818  0.3848 -0.5911
  542SOL    HW1 1625   0.204   0.791   3.006  1.2495 -0.2546  2.8781
  542SOL    HW2 1626   0.163   0.946   3.046 -1.4693 -0.3641  1.3840
  543SOL     OW 1627   0.374   0.822   1.030 -0.1900  0.6148  0.2327
  543SOL    HW1 1628   0.313   0.907   1.022 -0.2232 -0.9932 -1.5823
  543SOL    HW2 1629   0.310   0.747   1.006  0.3921  0.7306  3.0533
  544SOL     OW 1630   2.573   0.776   1.203 -0.3116  0.3133  0.1016
  544SOL    HW1 1631   2.646   0.830   1.163  1.6849  0.4999  0.7976
  544SOL    HW2 1632   2.511   0.834   1.258 -1.9005 -1.6363 -0.9698
  545SOL     OW 1633   1.341   1.770   0.444 -0.1632 -0.0807 -0.0863
  545SOL    HW1 1634   1.348   1.865   0.482 -0.6822 -0.5373  2.4801
  545SOL    HW2 1635   1.413   1.756   0.374 -0.1056 -1.8776 -0.6737
  546SOL     OW 1636   2.403   2.608   1.568  0.8294 -0.0004 -0.3731
  546SOL    HW1 1637   2.330   2.569   1.509  1.1004 -0.0674 -0.1780
  546SOL    HW2 1638   2.459   2.685   1.522  1.2241  0.8799  1.5480
  547SOL     OW 1639   0.782   2.269   2.210 -0.0775  0.1157 -0.0553
  547SOL    HW1 1640   0.885   2.249   2.226  1.2241 -0.9385 -1.1275
  547SOL    HW2 1641   0.759   2.364   2.223 -0.5028 -0.7441 -0.2811
  548SOL     OW 1642   1.199   0.823   2.891  0.4317  0.8957 -0.5993
  548SOL    HW1 1643   1.108   0.782   2.871  0.4463  0.3747 -1.2123
  548SOL    HW2 1644   1.248   0.752   2.947 -2.4545  0.1662  0.1864
  549SOL     OW 1645   2.563   0.627   0.458 -0.4593 -0.1462  0.2218
  549SOL    HW1 1646   2.483   0.598   0.406  2.8206 -1.3511  2.5956
  549SOL    HW2 1647   2.557   0.730   0.474 -0.6643  2.2468 -0.1574
  550SOL     OW 1648   2.257   1.068   0.398  0.3572  0.5443 -0.3633
  550SOL    HW1 1649   2.359   1.080   0.410  0.7639  0.1764 -0.4496
  550SOL    HW2 1650   2.205   1.155   0.398 -0.5894 -4.5514 -2.6884
  551SOL     OW 1651   1.557   0.225   1.522  0.1343 -0.5069  0.5519
  551SOL    HW1 1652   1.546   0.206   1.620  1.8347  0.1872 -0.8084
  551SOL    HW2 1653   1.501   0.300   1.487  1.6701 -0.2606 -1.3153
  552SOL     OW 1654   1.942   3.059   2.675  0.1275  0.1764 -0.0541
  552SOL    HW1 1655   1.997   0.002   2.731 -1.5836 -0.8967 -1.6964
  552SOL    HW2 1656   1.930   2.969   2.728 -1.6223 -2.1317  4.3514
  553SOL     OW 1657   0.700   2.958   2.196  0.5554 -0.2154 -0.7961
  553SOL    HW1 1658   0.713   2.858   2.170  0.7290 -1.2216 -0.9294
  553SOL    HW2 1659   0.685   3.010   2.109 -0.6143  0.3344  0.3812
  554SOL     OW 1660   0.224   0.114   1.283 -0.4147 -0.1877 -0.0299
  554SOL    HW1 1661   0.198   0.193   1.344 -0.3471 -2.7319  0.5243
  554SOL    HW2 1662   0.321   0.089   1.292 -1.4068  3.0422 -0.5802
  555SOL     OW 1663   2.433   1.802   2.246  0.0063  0.3667  0.3117
  555SOL    HW1 1664   2.358   1.851   2.206  0.4452 -1.0140  1.8937
  555SOL    HW2 1665   2.530   1.821   2.220  2.5038 -1.0370  0.1559
  556SOL     OW 1666   1.042   0.478   3.038 -0.3919 -0.5737 -0.1836
  556SOL    HW1 1667   1.066   0.392   2.988  1.7795  0.4928 -2.0287
  556SOL    HW2 1668   0.968   0.525   2.987 -1.0467 -0.6500 -0.8085
  557SOL     OW 1669   0.146   2.089   2.477  0.2802  0.0382 -0.4794
  557SOL    HW1 1670   0.204   2.164   2.438  2.7847 -1.2684 -0.7362
  557SOL    HW2 1671   0.156   2.012   2.415 -1.6610  0.8762 -0.2147
  558SOL     OW 1672   2.003   0.360   2.844 -0.4898  0.2051 -0.1201
  558SOL    HW1 1673   2.012   0.419   2.759  1.4014  2.9576 -2.4479
  558SOL    HW2 1674   2.063   0.397   2.915  1.4765 -1.0922 -2.1562
  559SOL     OW 1675   2.261   1.951   1.579  0.9002 -0.3375 -0.5582
  559SOL    HW1 1676   2.209   1.873   1.624 -4.0939  0.9704 -0.8176
  559SOL    HW2 1677   2.202   2.030   1.553  0.1421 -2.0579  1.2631
  560SOL     OW 1678   2.007   1.115   1.970 -0.0230  0.3552  0.2195
  560SOL    HW1 1679   2.046   1.037   1.910  2.4556  0.7277 -2.0665
  560SOL    HW2 1680   1.949   1.168   1.905 -1.8873  0.0079 -2.4891
  561SOL     OW 1681   0.198   0.088   2.936  0.1530  0.6955  0.6500
  561SOL    HW1 1682   0.135   0.008   2.921 -2.2952 -1.4815 -0.4424
  561SOL    HW2 1683   0.270   0.073   3.012  3.5035 -0.6522  0.9223
  562SOL     OW 1684   0.973   1.744   1.540 -0.2052  0.1401 -0.1065
  562SOL    HW1 1685   1.034   1.716   1.461  0.5679 -0.2955 -1.4834
  562SOL    HW2 1686   0.890   1.784   1.501 -0.1436  0.7374 -1.6837
  563SOL     OW 1687   1.039   0.121   2.996  0.2146 -0.0885 -0.7003
  563SOL    HW1 1688   1.050   0.117   3.098  2.3645 -1.5715 -1.4286
  563SOL    HW2 1689   0.942   0.121   2.964  0.2066  0.3999 -1.0609
  564SOL     OW 1690   2.935   2.469   0.761  0.1055 -0.3527  0.0980
  564SOL    HW1 1691   3.033   2.483   0.731  1.1477 -0.4233 -0.0461
  564SOL    HW2 1692   2.871   2.548   0.745  0.5013  0.2133  0.2245
  565SOL     OW 1693   0.655   2.299   1.130 -0.9864  0.1650 -0.1231
  565SOL    HW1 1694   0.683   2.298   1.229 -0.4092 -2.6533  0.2790
  565SOL    HW2 1695   0.558   2.274   1.119  4.2182 -0.7152  1.6888
  566SOL     OW 1696   1.240   0.107   2.654 -0.0427  0.6154 -0.3254
  566SOL    HW1 1697   1.263   0.010   2.634 -0.3052  2.7374  1.8726
  566SOL    HW2 1698   1.155   0.138   2.612  1.6949  1.6887  1.1469
  567SOL     OW 1699   2.382   2.942   0.814  0.2480  0.0453 -0.1007
  567SOL    HW1 1700   2.451   3.019   0.816 -0.6530 -0.1518  0.9725
  567SOL    HW2 1701   2.345   2.927   0.718 -3.1259  2.8196 -1.0975
  568SOL     OW 1702   1.441   1.317   0.813 -0.1180  0.5926 -0.3123
  568SOL    HW1 1703   1.447   1.298   0.909 -1.2950 -0.7833 -1.3706
  568SOL    HW2 1704   1.396   1.407   0.794  0.4737 -0.6345  1.1524
  569SOL     OW 1705   2.627   1.225   2.500 -0.0846 -0.7506 -0.2152
  569SOL    HW1 1706   2.584   1.273   2.583 -2.4865  3.2094  2.7539
  569SOL    HW2 1707   2.696   1.155   2.534  1.4160  0.6255  0.6470
  570SOL     OW 1708   2.986   0.212   2.134 -0.1218 -0.2238 -0.0967
  570SOL    HW1 1709   3.059   0.279   2.165  1.9936  1.5160 -1.6770
  570SOL    HW2 1710   3.031   0.144   2.067  2.2209 -2.2994 -0.6838
  571SOL     OW 1711   0.413   2.959   1.812  0.1392  0.0168 -0.5721
  571SOL    HW1 1712   0.337   2.939   1.879 -1.2970  0.7013  0.8362
  571SOL    HW2 1713   0.412   2.888   1.739  1.4736 -0.0502  2.0490
  572SOL     OW 1714   3.010   2.226   1.335  0.3707  0.0237 -0.0714
  572SOL    HW1 1715   2.936   2.239   1.403 -1.3004 -1.2027 -0.1371
  572SOL    HW2 1716   2.969   2.224   1.242 -0.9410 -1.5521  1.2952
  573SOL     OW 1717   0.945   0.703   2.814 -0.8040 -0.2503  0.0678
  573SOL    HW1 1718   0.878   0.644   2.854  3.1528 -1.4811 -0.2271
  573SOL    HW2 1719   0.918   0.758   2.734  0.6955  0.3098  0.8719
  574SOL     OW 1720   2.478   2.522   2.494  0.4099  0.0308 -0.6686
  574SOL    HW1 1721   2.491   2.623   2.465  1.4784  1.0090 -0.2753
  574SOL    HW2 1722   2.396   2.487   2.442  2.1279  0.9723  1.7566
  575SOL     OW 1723   1.319   2.848   0.913  0.3144  0.2505 -0.6744
  575SOL    HW1 1724   1.279   2.784   0.983  1.0212  3.1998 -0.6210
  575SOL    HW2 1725   1.401   2.892   0.953  0.3347 -0.9788 -0.2489
  576SOL     OW 1726   1.009   0.236   0.864  0.4466  0.4154  0.5204
  576SOL    HW1 1727   1.085   0.183   0.819  0.2901  0.9113 -0.0262
  576SOL    HW2 1728   1.013   0.337   0.854  2.2305  0.2326 -2.4461
  577SOL     OW 1729   2.122   1.250   0.674  0.0256 -0.3664  0.8587
  577SOL    HW1 1730   2.136   1.258   0.571  2.2208  1.6126 -2.2563
  577SOL    HW2 1731   2.073   1.166   0.696  2.3711  4.3144 -0.4951
  578SOL     OW 1732   1.935   0.530   1.189  0.3790  0.2144  0.9002
  578SOL    HW1 1733   1.871   0.453   1.224 -0.2400 -2.8223  2.3152
  578SOL    HW2 1734   1.967   0.589   1.262 -0.4028 -0.8626 -1.2100
  579SOL     OW 1735   1.875   0.761   2.685  0.5280 -0.1893  0.5590
  579SOL    HW1 1736   1.776   0.745   2.659 -1.5216  0.4869  0.3889
  579SOL    HW2 1737   1.914   0.840   2.634 -1.2971  1.7044  1.5821
  580SOL     OW 1738   1.721   0.952   2.083 -0.0110 -0.3369  0.3653
  580SOL    HW1 1739   1.630   0.992   2.094  1.4787 -0.1425  1.3299
  580SOL    HW2 1740   1.785   0.985   2.151 -1.7328  0.4450 -1.3929
  581SOL     OW 1741   0.217   0.622   0.881 -0.2802  0.1803 -0.2962
  581SOL    HW1 1742   0.183   0.543   0.935 -1.1174  1.3754  0.3791
  581SOL    HW2 1743   0.271   0.590   0.798  0.8987 -2.2329 -2.1437
  582SOL     OW 1744   2.949   0.532   1.850 -0.0445  0.0479  0.8483
  582SOL    HW1 1745   2.908   0.564   1.761 -0.3047 -1.2596 -2.8647
  582SOL    HW2 1746   2.884   0.519   1.924  0.4542 -0.9041 -0.5114
  583SOL     OW 1747   0.337   0.581   2.542 -0.4023  0.0975  0.4197
  583SOL    HW1 1748   0.348   0.603   2.641 -1.7096  1.8622  1.2967
  583SOL    HW2 1749   0.398   0.506   2.504  1.1236  0.4288 -1.8237
  584SOL     OW 1750   2.054   2.191   0.211  0.3718  0.2028  0.1198
  584SOL    HW1 1751   2.023   2.096   0.201 -0.3008 -1.1898 -1.2231
  584SOL    HW2 1752   2.019   2.254   0.133 -2.5118  1.0378 -4.6003
  585SOL     OW 1753   0.249   2.266   0.016 -0.5517  0.9694  0.4245
  585SOL    HW1 1754   0.190   2.184   0.012 -0.9799 -0.2718 -4.5906
  585SOL    HW2 1755   0.334   2.239   0.067  0.3771 -3.3475 -4.3108
  586SOL     OW 1756   1.965   1.541   2.366  0.9019  0.5277 -0.1779
  586SOL    HW1 1757   1.950   1.604   2.286  0.3154 -0.6406  0.1004
  586SOL    HW2 1758   2.035   1.472   2.349 -2.4443  2.5448 -1.1944
  587SOL     OW 1759   2.558   1.716   2.900 -0.4435 -0.1044 -1.0616
  587SOL    HW1 1760   2.549   1.654   2.981 -3.0951  1.1603  1.8361
  587SOL    HW2 1761   2.498   1.795   2.907 -0.4863 -0.6092 -0.8940
  588SOL     OW 1762   3.031   0.417   1.324 -0.2273  0.0158  0.3455
  588SOL    HW1 1763   3.048   0.439   1.226 -1.7986  3.4270 -0.2746
  588SOL    HW2 1764   3.110   0.371   1.371  0.0855 -0.5448  1.3737
  589SOL     OW 1765   0.977   0.427   0.458 -0.0500 -0.0945  0.4789
  589SOL    HW1 1766   0.972   0.470   0.362 -0.8878  0.7294  1.2496
  589SOL    HW2 1767   0.890   0.391   0.495  0.4105 -1.3820  2.1478
  590SOL     OW 1768   2.558   1.956   0.578 -0.0431 -0.3366 -0.1538
  590SOL    HW1 1769   2.481   2.023   0.580  0.4800 -0.5760  1.3792
  590SOL    HW2 1770   2.625   1.975   0.503  2.5344 -0.4499  0.9128
  591SOL     OW 1771   0.528   2.643   0.992 -0.0958 -0.1080  0.1004
  591SOL    HW1 1772   0.550   2.561   0.934 -2.5743  1.2918 -0.1920
  591SOL    HW2 1773   0.446   2.690   0.956  1.7819  1.2732 -1.0805
  592SOL     OW 1774   1.349   1.050   1.199 -0.3291  0.2801  0.2870
  592SOL    HW1 1775   1.348   1.091   1.292 -0.8268 -1.4913  1.3897
  592SOL    HW2 1776   1.341   0.947   1.207 -0.7029 -2.8643  1.2480
  593SOL     OW 1777   0.960   2.425   1.622 -0.4770  0.4172 -0.3820
  593SOL    HW1 1778   0.999   2.446   1.528  0.7761  0.3684 -1.8965
  593SOL    HW2 1779   1.000   2.482   1.695  0.2789 -0.5292 -0.6641
  594SOL     OW 1780   1.172   1.629   0.113  0.1795 -0.2086  0.0452
  594SOL    HW1 1781   1.231   1.558   0.064 -1.5162 -0.5026 -0.7163
  594SOL    HW2 1782   1.148   1.598   0.209  0.9796  0.8996 -2.2000
  595SOL     OW 1783   1.530   1.250   1.459 -0.3037 -0.1382 -0.0740
  595SOL    HW1 1784   1.593   1.301   1.403  2.4750 -1.0363 -1.5405
  595SOL    HW2 1785   1.436   1.288   1.446 -0.6854 -1.2775  0.5855
  596SOL     OW 1786   3.057   0.965   1.910 -0.1798 -0.1419 -0.5437
  596SOL    HW1 1787   3.116   0.883   1.902  1.6533  1.7899 -0.4124
  596SOL    HW2 1788   3.058   1.021   1.823  3.5443  0.6920  0.9245
  597SOL     OW 1789   1.414   2.765   1.975  0.0398 -0.3382  0.3010
  597SOL    HW1 1790   1.336   2.826   1.961  1.8131 -3.9364  2.2590
  597SOL    HW2 1791   1.448   2.772   2.066 -1.8043 -0.2494 -2.3037
  598SOL     OW 1792   2.592   1.378   1.459  0.5973  0.3451  0.5384
  598SOL    HW1 1793   2.675   1.431   1.433  0.8497  2.8746 -1.7154
  598SOL    HW2 1794   2.516   1.445   1.456  0.1948  0.3940 -0.1303
  599SOL     OW 1795   0.820   2.693   0.034 -0.2426  0.3951 -0.7509
  599SOL    HW1 1796   0.750   2.725   0.102  1.7025 -1.8860  2.7546
  599SOL    HW2 1797   0.876   2.613   0.069  0.0877  0.1158  0.1032
  600SOL     OW 1798   2.988   2.335   0.218 -0.1035 -0.0836 -0.1716
  600SOL    HW1 1799   2.954   2.276   0.293 -0.1626  1.7682  1.2082
  600SOL    HW2 1800   3.011   2.273   0.142 -0.8782  0.0641  0.5457
  601SOL     OW 1801   0.593   0.852   1.478 -0.4837  0.7769  0.6258
  601SOL    HW1 1802   0.505   0.818   1.435  0.6953 -3.6299 -0.0765
  601SOL    HW2 1803   0.668   0.787   1.459 -0.8829  4.3738  2.2491
  602SOL     OW 1804   0.597   0.227   0.990 -0.7279 -0.2011 -0.1625
  602SOL    HW1 1805   0.616   0.196   1.085  1.5438  1.1498 -1.8713
  602SOL    HW2 1806   0.585   0.149   0.922  2.4267 -1.5436  1.1970
  603SOL     OW 1807   0.230   0.151   2.653 -0.1929  0.7398  0.1042
  603SOL    HW1 1808   0.204   0.132   2.749  2.6728  2.3026 -1.4348
  603SOL    HW2 1809   0.332   0.129   2.640  2.9315 -0.7350  0.3833
  604SOL     OW 1810   1.085   2.485   1.391 -0.0333  0.3177 -0.4350
  604SOL    HW1 1811   1.167   2.438   1.358 -1.0227  3.5296  0.8308
  604SOL    HW2 1812   1.023   2.500   1.317  2.1496 -2.5450  0.7953
  605SOL     OW 1813   1.696   1.326   2.033 -0.3669  0.1853 -0.1678
  605SOL    HW1 1814   1.752   1.315   1.947  1.5692  2.5034 -3.6828
  605SOL    HW2 1815   1.604   1.284   2.025  2.3323  0.9346  1.8389
  606SOL     OW 1816   2.076   2.859   3.035  0.1860  0.2595 -0.3410
  606SOL    HW1 1817   2.076   2.788   3.108 -1.8500  0.5527 -0.5320
  606SOL    HW2 1818   2.118   2.951   3.064 -0.2238 -0.1751 -1.5020
  607SOL     OW 1819   0.715   0.188   1.868  0.3789  0.1789  0.1084
  607SOL    HW1 1820   0.813   0.166   1.884  1.9029 -2.0484  2.7684
  607SOL    HW2 1821   0.689   0.150   1.777  2.6441 -1.6603  2.7912
  608SOL     OW 1822   0.247   2.306   2.111  0.3561  0.9537  0.5377
  608SOL    HW1 1823   0.192   2.219   2.093 -2.4072 -0.2561 -1.2460
  608SOL    HW2 1824   0.266   2.358   2.024  3.8399  0.1213 -0.9967
  609SOL     OW 1825   1.262   1.189   0.175  0.5585 -0.5941 -0.1576
  609SOL    HW1 1826   1.254   1.247   0.259  0.0587  0.2866 -1.1640
  609SOL    HW2 1827   1.209   1.106   0.181  2.0441  0.6269  2.2595
  610SOL     OW 1828   0.277   2.932   1.130  0.3191 -0.2187  0.0490
  610SOL    HW1 1829   0.370   2.970   1.147 -0.9643 -1.5302  1.1202
  610SOL    HW2 1830   0.231   2.941   1.221  0.0017 -2.5550 -1.0727
  611SOL     OW 1831   1.061   1.065   0.499 -0.1366  0.4579  0.7440
  611SOL    HW1 1832   0.986   1.084   0.429 -1.1547 -1.2251 -2.1051
  611SOL    HW2 1833   1.047   0.985   0.553 -0.2555  0.3870 -3.6947
  612SOL     OW 1834   2.237   1.770   0.336  0.1799  0.0620  0.1138
  612SOL    HW1 1835   2.285   1.856   0.301  0.5642 -1.3450  1.5803
  612SOL    HW2 1836   2.223   1.783   0.436  1.5992 -0.8599  0.5362
  613SOL     OW 1837   1.580   1.453   0.336 -0.2988  0.6475 -0.5359
  613SOL    HW1 1838   1.679   1.464   0.360  0.1948  1.2457 -0.9849
  613SOL    HW2 1839   1.567   1.474   0.238 -0.3124  2.5253  0.9111
  614SOL     OW 1840   2.794   0.207   2.427  0.2814 -0.7859 -0.2501
  614SOL    HW1 1841   2.714   0.191   2.368  3.6644 -0.3480  2.7504
  614SOL    HW2 1842   2.850   0.291   2.406  2.3893 -0.2385  0.0480
  615SOL     OW 1843   0.776   1.445   0.275 -0.3777  0.0621  0.1665
  615SOL    HW1 1844   0.712   1.402   0.208  0.3093 -2.4223 -1.5328
  615SOL    HW2 1845   0.856   1.387   0.291 -1.3851  0.4576  2.0675
  616SOL     OW 1846   1.355   1.032   3.003  0.4205 -0.1271 -0.1817
  616SOL    HW1 1847   1.368   1.007   3.105 -1.2754  1.0485 -0.0100
  616SOL    HW2 1848   1.296   0.964   2.955  0.1163 -0.9203 -1.9552
  617SOL     OW 1849   1.444   0.216   0.404  0.0989 -0.0002 -0.2957
  617SOL    HW1 1850   1.414   0.304   0.373 -1.9892 -4.0530  2.8882
  617SOL    HW2 1851   1.379   0.195   0.481 -1.2350 -1.0602  1.0235
  618SOL     OW 1852   2.775   1.890   2.460 -0.6456 -0.0630  0.9529
  618SOL    HW1 1853   2.854   1.824   2.466  2.3692 -0.2528  0.4963
  618SOL    HW2 1854   2.738   1.904   2.550  2.3703  1.9497  0.3520
  619SOL     OW 1855   2.250   1.691   0.970 -0.2830  0.0539 -0.2237
  619SOL    HW1 1856   2.249   1.767   1.040  0.1108  2.6616 -0.9654
  619SOL    HW2 1857   2.329   1.703   0.908 -0.3391  4.4398 -0.6159
  620SOL     OW 1858   2.301   0.084   1.437 -0.0290 -0.1246  0.2946
  620SOL    HW1 1859   2.233   0.105   1.358 -1.1895 -1.7066 -1.9116
  620SOL    HW2 1860   2.268   3.122   1.487  0.7351 -2.8363  1.7456
  621SOL     OW 1861   0.100   2.041   0.746 -0.3649  0.2823 -0.0473
  621SOL    HW1 1862   0.079   2.055   0.846  3.4485 -1.6053  0.6898
  621SOL    HW2 1863   0.089   2.125   0.688 -2.1748 -0.0139  0.2800
  622SOL     OW 1864   0.744   1.667   2.341 -0.2695  0.3716 -0.0159
  622SOL    HW1 1865   0.648   1.647   2.321  0.7397  0.3549 -0.0373
  622SOL    HW2 1866   0.806   1.661   2.260 -0.4545 -0.1770  0.9695
  623SOL     OW 1867   2.469   2.763   2.402  0.2048  0.3740 -0.6762
  623SOL    HW1 1868   2.377   2.800   2.393  1.9318  1.0251  0.5523
  623SOL    HW2 1869   2.538   2.816   2.348  2.1588  0.6063 -1.8943
  624SOL     OW 1870   0.843   1.723   0.333  0.3318  0.2267  0.7235
  624SOL    HW1 1871   0.811   1.627   0.332 -1.8617 -0.0408 -1.9588
  624SOL    HW2 1872   0.901   1.727   0.412 -0.0606  1.3523 -2.1539
  625SOL     OW 1873   0.549   2.164   2.354 -0.3046  0.1152 -0.1282
  625SOL    HW1 1874   0.581   2.070   2.379 -1.2230  0.7847  0.0062
  625SOL    HW2 1875   0.625   2.216   2.313  0.0121  1.0175  3.1532
  626SOL     OW 1876   0.093   2.473   0.414  0.1081  0.0820  0.0184
  626SOL    HW1 1877   0.087   2.393   0.478 -0.3417  0.3465  1.0211
  626SOL    HW2 1878   0.028   2.454   0.337  2.2544  0.2169 -0.9409
  627SOL     OW 1879   1.091   1.725   2.488 -0.4306 -0.2173 -0.1551
  627SOL    HW1 1880   1.066   1.635   2.454  0.1444 -1.3682 -0.4548
  627SOL    HW2 1881   1.069   1.734   2.584  2.3258  1.4412 -1.3244
  628SOL     OW 1882   1.438   2.029   0.564 -0.7382 -0.1082  0.1291
  628SOL    HW1 1883   1.396   2.107   0.512  0.0402  0.7921  1.5202
  628SOL    HW2 1884   1.537   2.046   0.590  2.5221 -1.4325 -0.3608
  629SOL     OW 1885   0.897   0.609   1.760 -0.4610  0.4193  0.2316
  629SOL    HW1 1886   0.834   0.560   1.821  0.4876  2.3947 -0.6101
  629SOL    HW2 1887   0.969   0.664   1.806  0.3971  2.0808  0.4599
  630SOL     OW 1888   2.386   0.304   1.622 -0.2384  0.1951 -0.2277
  630SOL    HW1 1889   2.349   0.238   1.551 -1.6613 -1.5562 -2.1552
  630SOL    HW2 1890   2.307   0.327   1.682 -0.3772  1.0685  3.5075
  631SOL     OW 1891   1.446   0.593   0.653  0.3204  0.1936  0.1568
  631SOL    HW1 1892   1.391   0.671   0.616  1.4247  0.2411  1.7692
  631SOL    HW2 1893   1.377   0.525   0.684  2.1495  3.5329 -1.5360
  632SOL     OW 1894   2.194   0.415   2.152  0.2180  0.7233  0.1218
  632SOL    HW1 1895   2.185   0.513   2.176 -3.8896 -0.8335 -1.0782
  632SOL    HW2 1896   2.284   0.390   2.104  0.5908 -0.9944  0.5018
  633SOL     OW 1897   1.386   1.285   2.943 -0.2972 -0.4553  0.6371
  633SOL    HW1 1898   1.327   1.334   2.875  2.3538 -2.5211  0.9733
  633SOL    HW2 1899   1.369   1.189   2.948 -0.9338  1.8689 -1.6132
  634SOL     OW 1900   0.473   2.226   0.159  0.3090  0.1004 -0.3721
  634SOL    HW1 1901   0.482   2.321   0.206 -0.2822  2.8116 -0.6974
  634SOL    HW2 1902   0.553   2.188   0.107 -0.7180 -1.7908  0.7258
  635SOL     OW 1903   2.804   1.585   2.066 -0.1215 -0.0940 -0.2808
  635SOL    HW1 1904   2.864   1.504   2.089  0.9870  3.2138 -1.0819
  635SOL    HW2 1905   2.707   1.553   2.052  0.4382  0.3414  1.5068
  636SOL     OW 1906   0.534   1.915   3.002  0.1697 -0.3592 -0.3942
  636SOL    HW1 1907   0.536   1.814   3.021 -0.6537 -1.7661  0.7156
  636SOL    HW2 1908   0.474   1.936   2.919 -2.6280 -2.1925 -0.8843
  637SOL     OW 1909   0.040   2.042   0.362  0.3148  0.1146  0.1616
  637SOL    HW1 1910   0.040   1.942   0.379 -0.7238  1.5785  0.2123
  637SOL    HW2 1911   3.065   2.079   0.366 -1.4358  1.1236 -0.1695
  638SOL     OW 1912   2.684   2.607   0.470 -0.0171 -0.0713  0.2182
  638SOL    HW1 1913   2.593   2.653   0.462  0.6613  0.8673  1.6646
  638SOL    HW2 1914   2.678   2.503   0.451  1.1510 -4.3644 -1.1178
  639SOL     OW 1915   1.030   0.515   0.182  0.2585  0.4556  0.0411
  639SOL    HW1 1916   1.037   0.494   0.083 -1.0909  0.1728  3.8341
  639SOL    HW2 1917   1.016   0.619   0.193 -1.1403  1.7796 -1.1347
  640SOL     OW 1918   2.432   2.399   1.880  0.1041  0.0995  0.0028
  640SOL    HW1 1919   2.527   2.359   1.903 -0.9178  0.4638 -0.3979
  640SOL    HW2 1920   2.401   2.376   1.782 -0.9501 -0.4942 -2.8617
  641SOL     OW 1921   2.534   2.826   1.442 -0.0022 -0.6471 -0.5179
  641SOL    HW1 1922   2.453   2.865   1.400  0.9538  1.6081  0.7307
  641SOL    HW2 1923   2.576   2.890   1.506  2.0509 -2.7493  0.0706
  642SOL     OW 1924   1.251   1.039   1.588  0.3422 -0.3722  0.6352
  642SOL    HW1 1925   1.274   1.114   1.521  0.5044 -0.2755 -2.1709
  642SOL    HW2 1926   1.286   0.948   1.553  0.3629 -1.2633  0.7899
  643SOL     OW 1927   1.056   1.367   2.173  0.6090 -0.1081 -0.2889
  643SOL    HW1 1928   0.959   1.349   2.141 -2.7609 -1.1947 -1.8340
  643SOL    HW2 1929   1.093   1.441   2.114  0.0048  1.2254  0.0238
  644SOL     OW 1930   1.418   0.388   2.034 -0.2317  0.0049  0.1379
  644SOL    HW1 1931   1.333   0.388   2.089  1.7847  1.5008  0.6829
  644SOL    HW2 1932   1.490   0.405   2.099 -0.8478  2.8531 -2.7711
  645SOL     OW 1933   1.970   1.381   1.580  0.7280 -0.4335 -0.6299
  645SOL    HW1 1934   1.894   1.401   1.512 -0.1286  3.8408 -0.0954
  645SOL    HW2 1935   2.022   1.471   1.588 -0.4649 -1.5882  0.6816
  646SOL     OW 1936   1.549   2.231   0.097 -0.0861 -0.5237 -0.0097
  646SOL    HW1 1937   1.538   2.218   3.119  0.3484  1.2088 -0.2037
  646SOL    HW2 1938   1.563   2.140   0.139 -1.5477  3.0441 -1.9959
  647SOL     OW 1939   1.742   2.797   1.036 -0.4640 -0.0639 -0.0238
  647SOL    HW1 1940   1.737   2.759   0.943  0.3983 -1.4819  1.9804
  647SOL    HW2 1941   1.730   2.728   1.113 -0.0247  2.3380  2.4313
  648SOL     OW 1942   0.087   2.566   1.551 -0.0055  0.3129 -0.4955
  648SOL    HW1 1943   0.018   2.594   1.627 -2.4131  2.5626  2.6085
  648SOL    HW2 1944   0.096   2.462   1.541 -0.9302 -1.4001  0.2841
  649SOL     OW 1945   1.103   2.622   2.768  0.3698 -0.1781  1.0606
  649SOL    HW1 1946   1.134   2.545   2.832  2.9912  1.7100 -1.6739
  649SOL    HW2 1947   1.169   2.622   2.689 -0.6597 -0.3015  0.2871
  650SOL     OW 1948   2.723   1.722   0.062 -0.5557 -0.8704 -0.1459
  650SOL    HW1 1949   2.751   1.725   0.161 -1.7701  0.5282 -0.4975
  650SOL    HW2 1950   2.698   1.631   0.036 -1.4508  1.7671  1.8893
  651SOL     OW 1951   2.588   2.233   2.216 -0.1936 -0.4717  0.0534
  651SOL    HW1 1952   2.589   2.158   2.149 -0.4516 -0.3799 -1.5456
  651SOL    HW2 1953   2.650   2.307   2.181  2.6902 -3.2127 -1.2693
  652SOL     OW 1954   2.386   2.359   0.538 -0.3219  0.3142  0.1948
  652SOL    HW1 1955   2.348   2.366   0.446 -0.9083 -1.5726  1.9199
  652SOL    HW2 1956   2.486   2.363   0.540 -0.5780 -2.0681  1.4964
  653SOL     OW 1957   2.762   1.684   1.542  0.4106  0.4392  0.6721
  653SOL    HW1 1958   2.784   1.782   1.562 -0.2526 -1.3419 -0.1713
  653SOL    HW2 1959   2.808   1.655   1.460  2.5282 -0.9691  3.3707
  654SOL     OW 1960   0.858   1.021   0.027  0.1396 -0.4404  0.3490
  654SOL    HW1 1961   0.894   1.081   3.082  0.7993 -2.4515  1.1094
  654SOL    HW2 1962   0.814   0.938   3.116 -2.7501  0.6213  0.4673
  655SOL     OW 1963   1.130   1.080   1.036  0.9367 -0.4874  0.5502
  655SOL    HW1 1964   1.221   1.066   1.075 -0.6722  0.1977 -0.7111
  655SOL    HW2 1965   1.131   1.132   0.947  0.1655  1.0432 -0.5125
  656SOL     OW 1966   1.525   2.754   2.220 -0.2141 -0.7052 -0.0071
  656SOL    HW1 1967   1.441   2.733   2.273 -0.3728  0.6579  1.2902
  656SOL    HW2 1968   1.586   2.674   2.226 -0.9306  0.8694 -0.5798
  657SOL     OW 1969   1.836   1.509   0.389  0.2169  0.8891 -0.1759
  657SOL    HW1 1970   1.824   1.408   0.365  1.2030 -0.6250 -1.2761
  657SOL    HW2 1971   1.930   1.538   0.362  1.3103 -3.2787  1.0947
  658SOL     OW 1972   1.849   2.808   1.579  0.5056  0.4905  0.3868
  658SOL    HW1 1973   1.928   2.774   1.631 -1.2270 -0.6633  0.8713
  658SOL    HW2 1974   1.883   2.894   1.534 -1.0599 -1.4235  0.4266
  659SOL     OW 1975   2.882   1.713   0.276 -0.3664 -0.0367  0.0620
  659SOL    HW1 1976   2.926   1.627   0.252  1.5257  1.1401  0.2541
  659SOL    HW2 1977   2.890   1.722   0.378 -2.0233 -0.6695 -0.8592
  660SOL     OW 1978   1.302   0.171   0.708 -0.0031 -0.0614  0.1108
  660SOL    HW1 1979   1.296   0.067   0.701  2.0247 -0.1616  0.6498
  660SOL    HW2 1980   1.391   0.204   0.742 -0.8180 -0.5685 -1.0160
  661SOL     OW 1981   1.824   0.294   0.068  0.0775 -0.0297 -0.0277
  661SOL    HW1 1982   1.829   0.322   0.165 -0.5391 -0.2028  1.4561
  661SOL    HW2 1983   1.867   0.203   0.063  0.2642  1.3653 -1.4087
  662SOL     OW 1984   0.512   0.152   0.514 -0.2130 -0.4526  0.1382
  662SOL    HW1 1985   0.482   0.141   0.613 -0.1188 -1.6579  1.8735
  662SOL    HW2 1986   0.488   0.073   0.456 -0.8215  2.1108  1.4638
  663SOL     OW 1987   1.349   2.558   2.625 -0.0231  0.0900  0.3565
  663SOL    HW1 1988   1.362   2.596   2.534  0.2130  2.1789  0.8651
  663SOL    HW2 1989   1.382   2.459   2.631  0.2510 -4.8044 -0.0946
  664SOL     OW 1990   0.522   2.547   1.539 -0.0077  0.0513 -0.8448
  664SOL    HW1 1991   0.465   2.464   1.562 -1.9870 -0.7709  2.2140
  664SOL    HW2 1992   0.510   2.579   1.440 -2.9097  0.8858  1.2326
  665SOL     OW 1993   1.640   2.608   1.192  0.1108  0.2684  0.1370
  665SOL    HW1 1994   1.542   2.606   1.162  0.8641  0.6112  0.2357
  665SOL    HW2 1995   1.656   2.622   1.293 -0.0473  2.6287  1.4225
  666SOL     OW 1996   0.906   2.662   2.437 -0.0919  0.0007 -0.1104
  666SOL    HW1 1997   0.981   2.633   2.370 -0.1309 -3.8597 -3.3286
  666SOL    HW2 1998   0.840   2.586   2.463 -2.1083 -2.5769  2.2143
  667SOL     OW 1999   2.981   0.629   1.529 -0.4564  0.1188 -0.0796
  667SOL    HW1 2000   3.079   0.658   1.559  3.2791  1.3500  0.7332
  667SOL    HW2 2001   2.991   0.577   1.440 -0.7764  2.5646  0.2604
  668SOL     OW 2002   1.156   0.262   1.612 -1.1205 -0.0617  0.0732
  668SOL    HW1 2003   1.184   0.255   1.516 -0.5603 -0.5857 -1.5159
  668SOL    HW2 2004   1.236   0.265   1.678  1.3573  1.5896  2.2838
  669SOL     OW 2005   1.956   2.714   1.242 -0.2729  0.4966 -0.1703
  669SOL    HW1 2006   1.945   2.723   1.342 -0.1546  1.7059  2.7060
  669SOL    HW2 2007   1.984   2.801   1.188  2.4678  2.3221 -2.4522
  670SOL     OW 2008   1.535   2.223   2.942  0.4746 -0.3905  0.1239
  670SOL    HW1 2009   1.463   2.282   2.899 -1.0181  1.2836 -4.2626
  670SOL    HW2 2010   1.627   2.258   2.920 -0.2028  0.2353 -2.8848
  671SOL     OW 2011   0.323   1.144   0.218 -0.7394 -0.0425 -0.1250
  671SOL    HW1 2012   0.419   1.166   0.176  2.6536  0.4333 -1.1943
  671SOL    HW2 2013   0.318   1.048   0.255  1.0986 -1.2401 -1.8059
  672SOL     OW 2014   2.710   0.476   2.722 -0.5139  0.0984 -0.4745
  672SOL    HW1 2015   2.716   0.571   2.760  0.4073 -1.1301  1.0846
  672SOL    HW2 2016   2.802   0.451   2.682  1.8457 -0.4376 -1.6246
  673SOL     OW 2017   0.179   2.063   1.338  0.3293 -0.4599 -0.2015
  673SOL    HW1 2018   0.107   2.048   1.404  1.3052 -1.4409  1.2263
  673SOL    HW2 2019   0.259   2.009   1.369 -2.4976  1.8941  2.1707
  674SOL     OW 2020   1.383   2.275   1.568 -0.3463  0.2859 -0.0278
  674SOL    HW1 2021   1.351   2.293   1.666 -0.3064 -0.3792 -0.4065
  674SOL    HW2 2022   1.423   2.182   1.558 -1.0612  0.8213  3.5638
  675SOL     OW 2023   1.118   1.486   1.251  0.0272  0.2985  0.1937
  675SOL    HW1 2024   1.115   1.575   1.301  0.0391  1.5200 -3.8783
  675SOL    HW2 2025   1.035   1.486   1.191 -2.4425  1.6026 -1.3937
  676SOL     OW 2026   2.409   0.710   0.988 -0.2020  0.0132 -0.2734
  676SOL    HW1 2027   2.315   0.724   1.022 -1.0004  0.9578 -4.0603
  676SOL    HW2 2028   2.477   0.723   1.061  0.2847 -0.3001 -0.9299
  677SOL     OW 2029   2.690   0.220   0.268 -0.2402  0.1951  0.0493
  677SOL    HW1 2030   2.750   0.138   0.286 -1.7621  1.7176 -1.5895
  677SOL    HW2 2031   2.731   0.299   0.221 -2.8078  1.3632 -0.4104
  678SOL     OW 2032   2.509   1.234   0.909  0.0751 -0.6741 -0.4148
  678SOL    HW1 2033   2.592   1.252   0.965  1.2623  2.0963 -0.3829
  678SOL    HW2 2034   2.475   1.329   0.887  0.1530  0.4171  2.7661
  679SOL     OW 2035   2.665   0.468   0.064 -0.0575  0.1601  0.4403
  679SOL    HW1 2036   2.698   0.562   0.040 -0.3906  1.5605  2.0883
  679SOL    HW2 2037   2.743   0.405   0.062 -0.6533 -0.9469 -1.0194
  680SOL     OW 2038   0.461   1.350   2.285 -0.1618 -0.5808 -0.0646
  680SOL    HW1 2039   0.511   1.260   2.264  3.7420 -1.9967 -1.4855
  680SOL    HW2 2040   0.376   1.334   2.342  0.1866 -1.0771 -0.6392
  681SOL     OW 2041   2.683   2.148   1.701 -0.2666 -0.2318 -0.1732
  681SOL    HW1 2042   2.700   2.218   1.775  0.4632  1.6294 -1.8467
  681SOL    HW2 2043   2.602   2.092   1.729 -2.1493  0.9371 -1.6959
  682SOL     OW 2044   0.771   1.951   2.859  0.0692  0.2691  0.2196
  682SOL    HW1 2045   0.778   1.938   2.960 -1.7009  0.1339 -0.5346
  682SOL    HW2 2046   0.737   2.046   2.838 -0.6531 -2.2737 -0.4180
  683SOL     OW 2047   2.739   2.031   1.310 -0.1785 -0.0395  0.0762
  683SOL    HW1 2048   2.657   2.052   1.255  2.4640 -2.3923 -0.2859
  683SOL    HW2 2049   2.739   2.087   1.398  0.1330  0.1671  2.2797
  684SOL     OW 2050   2.810   1.325   1.828 -0.2215  0.5432  0.2012
  684SOL    HW1 2051   2.734   1.374   1.870  1.2802 -0.5282  1.1069
  684SOL    HW2 2052   2.820   1.232   1.867  2.6663 -1.3674 -1.1807
  685SOL     OW 2053   0.931   0.884   1.043 -0.6996  0.6189 -0.2368
  685SOL    HW1 2054   1.010   0.948   1.038  1.6143 -1.7284  0.7477
  685SOL    HW2 2055   0.865   0.908   1.123 -0.8158  1.0281  2.0516
  686SOL     OW 2056   0.760   0.146   2.934 -0.2080  0.4901 -0.4045
  686SOL    HW1 2057   0.718   0.066   2.882 -0.6719  0.4690 -0.9831
  686SOL    HW2 2058   0.690   0.206   2.973 -1.4346  0.5658 -0.6356
  687SOL     OW 2059   0.682   2.053   2.065 -0.0971 -0.4669  0.1907
  687SOL    HW1 2060   0.636   2.126   2.005  0.7016  0.0689  1.4580
  687SOL    HW2 2061   0.735   2.098   2.138 -0.3415 -1.7873 -1.1198
  688SOL     OW 2062   1.945   0.205   1.494 -0.2463 -0.4044 -0.5207
  688SOL    HW1 2063   1.908   0.222   1.398 -0.0980  2.7092 -1.5711
  688SOL    HW2 2064   1.988   0.292   1.528 -0.7132  0.2592 -0.3579
  689SOL     OW 2065   1.954   0.752   0.672  0.5127  0.4225  0.1522
  689SOL    HW1 2066   1.851   0.733   0.677 -2.6231  0.7209  0.2688
  689SOL    HW2 2067   1.995   0.690   0.744  0.4578  0.9371 -1.0552
  690SOL     OW 2068   2.941   1.095   1.266  0.2762  0.0892  0.4686
  690SOL    HW1 2069   2.941   1.136   1.361  1.6020 -0.8386 -0.1860
  690SOL    HW2 2070   2.989   0.999   1.270 -1.8721 -1.6598  1.3987
  691SOL     OW 2071   0.285   1.076   1.719 -0.6250  0.2575 -0.1531
  691SOL    HW1 2072   0.269   1.175   1.692 -0.0909  0.5684 -0.1016
  691SOL    HW2 2073   0.255   1.012   1.644 -2.4062 -1.1403 -1.9146
  692SOL     OW 2074   0.669   0.890   1.973 -0.3084 -0.7010  0.0096
  692SOL    HW1 2075   0.675   0.906   1.873  1.6124 -0.0445  1.1903
  692SOL    HW2 2076   0.574   0.900   2.001  2.7745 -1.2478 -2.9749
  693SOL     OW 2077   0.454   1.297   1.986 -0.1427 -0.0213 -0.0745
  693SOL    HW1 2078   0.365   1.347   1.974  0.2990 -2.9381 -1.8531
  693SOL    HW2 2079   0.485   1.318   2.078  0.3835  0.1272  1.6772
  694SOL     OW 2080   1.370   1.590   0.657 -0.2837 -0.1623  0.1515
  694SOL    HW1 2081   1.471   1.603   0.679  2.5262  1.2848 -1.9201
  694SOL    HW2 2082   1.354   1.651   0.577 -0.4558  0.9394 -1.5431
  695SOL     OW 2083   0.231   1.040   0.992 -0.1566  0.9981  0.3710
  695SOL    HW1 2084   0.301   1.106   0.979 -0.8295 -3.1925 -0.1382
  695SOL    HW2 2085   0.181   1.036   0.904 -1.0425  1.6395 -3.2432
  696SOL     OW 2086   0.593   2.385   0.469  0.4023  0.0109  0.1789
  696SOL    HW1 2087   0.577   2.415   0.375 -0.8901  1.0763  0.0280
  696SOL    HW2 2088   0.694   2.369   0.475  2.8470  2.4407  0.7282
  697SOL     OW 2089   1.252   0.657   1.544  0.3094  0.3801  0.0273
  697SOL    HW1 2090   1.309   0.728   1.498  3.3329 -1.5980 -1.2083
  697SOL    HW2 2091   1.226   0.603   1.459  0.8344 -0.7900 -1.4360
  698SOL     OW 2092   1.655   1.607   1.837 -0.0195  0.1331  0.1911
  698SOL    HW1 2093   1.612   1.540   1.774  0.6107 -1.5702  3.0675
  698SOL    HW2 2094   1.636   1.587   1.935  2.8405  1.2029  0.5778
  699SOL     OW 2095   0.016   0.645   2.246 -0.2186 -0.4079  0.2871
  699SOL    HW1 2096   0.081   0.571   2.272 -0.6396 -0.0984 -2.2272
  699SOL    HW2 2097   0.065   0.722   2.200  1.1368  0.4997  0.9236
  700SOL     OW 2098   1.674   2.378   0.521 -0.0524 -0.1661 -0.0134
  700SOL    HW1 2099   1.675   2.291   0.467 -1.3373  0.1574  0.6190
  700SOL    HW2 2100   1.617   2.456   0.483  2.5482  3.7368 -0.8600
  701SOL     OW 2101   0.322   1.720   2.488 -0.0630  0.4884  0.2441
  701SOL    HW1 2102   0.284   1.637   2.534  1.0723 -1.0611 -1.5417
  701SOL    HW2 2103   0.305   1.800   2.547  1.2558  0.6995  0.1677
  702SOL     OW 2104   0.499   0.218   3.020 -0.0947  0.1824 -0.1942
  702SOL    HW1 2105   0.472   0.122   3.032  0.3177  2.4076  0.6285
  702SOL    HW2 2106   0.421   0.275   2.988 -2.0988 -0.3233 -0.6921
  703SOL     OW 2107   1.491   0.461   2.906  0.3506 -0.3402  0.5382
  703SOL    HW1 2108   1.589   0.443   2.935  1.5920  1.8097  0.2281
  703SOL    HW2 2109   1.480   0.443   2.804  3.2047  1.6004 -3.0605
  704SOL     OW 2110   2.789   1.789   0.932  0.1429  0.4434 -0.9853
  704SOL    HW1 2111   2.781   1.786   1.033 -0.7836  2.0341  1.0771
  704SOL    HW2 2112   2.817   1.880   0.900 -0.2268 -0.1597 -0.8160
  705SOL     OW 2113   2.731   1.851   2.181  0.1365 -0.1220  0.8906
  705SOL    HW1 2114   2.767   1.759   2.159 -0.1297 -3.3624  0.5560
  705SOL    HW2 2115   2.749   1.859   2.277  1.1349  2.0510 -2.3758
  706SOL     OW 2116   3.059   2.841   1.132 -0.4864  0.2389  0.6366
  706SOL    HW1 2117   2.985   2.876   1.076  1.8143 -2.7209  2.9963
  706SOL    HW2 2118   0.026   2.870   1.096  1.7859  1.4806  0.8113
  707SOL     OW 2119   0.856   3.060   0.132 -0.2086  0.2781 -0.1678
  707SOL    HW1 2120   0.862   2.988   0.205 -2.6435  2.1590 -0.8972
  707SOL    HW2 2121   0.933   0.007   0.136 -1.0228  0.5202  1.1704
  708SOL     OW 2122   0.723   2.280   1.386 -0.3256 -0.4492  0.0715
  708SOL    HW1 2123   0.799   2.346   1.372  0.0668 -0.1700  1.9621
  708SOL    HW2 2124   0.682   2.286   1.480  1.5716  0.4499 -1.3337
  709SOL     OW 2125   1.792   0.365   2.364 -1.0218  0.0489 -0.1196
  709SOL    HW1 2126   1.726   0.379   2.445 -1.8392 -0.9673  3.3984
  709SOL    HW2 2127   1.883   0.335   2.388 -2.1327  0.8985 -0.6174
  710SOL     OW 2128   1.196   2.909   2.604 -0.2469 -0.5831  0.1446
  710SOL    HW1 2129   1.107   2.907   2.648 -1.7829 -1.3909  0.7945
  710SOL    HW2 2130   1.278   2.895   2.667  1.8329  1.2120 -0.9315
  711SOL     OW 2131   1.139   2.315   2.502 -0.1133 -0.3533 -0.1170
  711SOL    HW1 2132   1.233   2.305   2.544  0.1052  1.9508 -1.4971
  711SOL    HW2 2133   1.132   2.405   2.450 -1.5750  0.9949  3.6705
  712SOL     OW 2134   1.203   2.151   2.808 -0.0610 -0.2335 -0.5144
  712SOL    HW1 2135   1.120   2.126   2.754 -0.8555  0.3008  1.0655
  712SOL    HW2 2136   1.218   2.090   2.893  1.5964 -1.1164  0.0307
  713SOL     OW 2137   1.136   0.954   1.922 -0.6147 -0.0204  0.0710
  713SOL    HW1 2138   1.188   1.033   1.880  3.0098  2.1504  0.2202
  713SOL    HW2 2139   1.175   0.873   1.885 -1.1723  1.0351  0.0875
  714SOL     OW 2140   1.394   1.752   1.086 -0.5474  0.1271  0.0036
  714SOL    HW1 2141   1.458   1.798   1.018  1.5200 -0.0041 -1.1030
  714SOL    HW2 2142   1.364   1.819   1.161  0.7479 -0.6358  2.1585
  715SOL     OW 2143   3.096   0.455   0.592 -0.2100 -0.1019  0.2065
  715SOL    HW1 2144   3.079   0.364   0.542  0.7826 -1.4616 -1.8345
  715SOL    HW2 2145   0.008   0.442   0.685 -0.6103  0.4530  0.8663
  716SOL     OW 2146   0.683   2.781   0.453 -0.0389  0.5353  0.0740
  716SOL    HW1 2147   0.765   2.836   0.424 -0.9499 -0.5193  1.6067
  716SOL    HW2 2148   0.702   2.724   0.537  0.0691 -2.6171  1.7732
  717SOL     OW 2149   2.990   0.450   0.252 -0.1051  0.2444  0.1301
  717SOL    HW1 2150   2.980   0.365   0.311 -2.4683  1.0276 -0.8706
  717SOL    HW2 2151   2.960   0.426   0.157  2.1707  0.5602 -0.0774
  718SOL     OW 2152   1.722   2.220   0.910 -0.5176 -0.3877 -0.3743
  718SOL    HW1 2153   1.793   2.161   0.941 -0.1534  3.4219  0.5328
  718SOL    HW2 2154   1.747   2.311   0.947 -0.5997 -2.5042 -0.0680
  719SOL     OW 2155   2.845   2.423   1.018  0.3498 -0.0071  0.3433
  719SOL    HW1 2156   2.859   2.324   1.043 -0.4485  0.5952  3.1850
  719SOL    HW2 2157   2.897   2.450   0.931 -3.0107  3.2067  1.3355
  720SOL     OW 2158   0.931   1.195   1.225  0.3573  0.0851  0.0451
  720SOL    HW1 2159   1.023   1.198   1.267  0.0365  0.3020  0.9877
  720SOL    HW2 2160   0.877   1.111   1.248  1.8005 -4.2345 -1.4156
  721SOL     OW 2161   1.493   0.693   0.991  0.1575 -0.3409 -0.2018
  721SOL    HW1 2162   1.470   0.603   0.946 -1.2347 -1.7595  1.8693
  721SOL    HW2 2163   1.591   0.721   0.996  0.8260 -1.1417  0.4982
  722SOL     OW 2164   1.353   1.320   1.902  0.3328  0.2924  0.2431
  722SOL    HW1 2165   1.277   1.314   1.829 -0.2596 -0.7035 -1.2804
  722SOL    HW2 2166   1.328   1.313   1.999  0.6433 -0.4116  1.2373
  723SOL     OW 2167   0.985   2.933   1.525 -0.5035  0.1073 -0.1680
  723SOL    HW1 2168   0.903   2.874   1.509 -1.4741 -2.6533 -1.8512
  723SOL    HW2 2169   1.065   2.874   1.513 -2.2396 -0.3759  3.3610
  724SOL     OW 2170   2.099   2.167   1.589  0.4993 -0.1605 -0.1667
  724SOL    HW1 2171   2.113   2.146   1.689  0.5364 -0.5472  1.7695
  724SOL    HW2 2172   1.999   2.183   1.578 -1.4355 -3.4508  0.9687
  725SOL     OW 2173   0.882   2.860   1.159 -0.1961  0.0121 -0.6051
  725SOL    HW1 2174   0.822   2.790   1.210 -2.5922  0.6001  2.8479
  725SOL    HW2 2175   0.978   2.828   1.168  2.2008  0.5185  0.8738
  726SOL     OW 2176   1.552   0.071   0.194  0.0163 -0.2430 -0.0841
  726SOL    HW1 2177   1.520   0.119   0.276 -0.2897 -0.8758 -0.5267
  726SOL    HW2 2178   1.652   0.063   0.189 -1.9630  1.4100 -1.4212
  727SOL     OW 2179   1.286   1.936   0.771  0.2766  0.0209  0.0527
  727SOL    HW1 2180   1.346   1.979   0.700  0.2121  0.1953 -3.0729
  727SOL    HW2 2181   1.338   1.861   0.810 -0.6973  0.2161  1.6719
  728SOL     OW 2182   1.908   0.192   2.108  0.2979  0.3020 -0.4221
  728SOL    HW1 2183   1.841   0.253   2.153  0.1663  0.3443 -3.0667
  728SOL    HW2 2184   1.990   0.188   2.166 -2.1460  0.0602  0.2834
  729SOL     OW 2185   2.354   1.611   1.464 -0.3735 -0.4192  0.2318
  729SOL    HW1 2186   2.262   1.642   1.496  1.8849  1.7232 -0.2797
  729SOL    HW2 2187   2.384   1.650   1.374  0.2228  1.3399 -2.2796
  730SOL     OW 2188   2.051   0.552   2.657  0.0396 -0.1703  0.2271
  730SOL    HW1 2189   2.143   0.595   2.670 -1.4399 -0.3308  0.3888
  730SOL    HW2 2190   1.984   0.626   2.667  2.5434 -0.6189 -1.2627
  731SOL     OW 2191   0.579   0.335   1.411 -0.5454 -0.4725  0.3415
  731SOL    HW1 2192   0.616   0.395   1.482 -1.6791 -2.4801  0.0223
  731SOL    HW2 2193   0.514   0.387   1.351 -2.8344  1.2587 -1.3736
  732SOL     OW 2194   1.792   0.277   1.264  0.1421 -0.7003 -0.1131
  732SOL    HW1 2195   1.722   0.354   1.271  0.4794 -0.7954  2.2427
  732SOL    HW2 2196   1.836   0.267   1.170 -0.2285 -0.4505  1.3597
  733SOL     OW 2197   0.848   1.235   1.612  0.2525  0.4713 -0.1010
  733SOL    HW1 2198   0.796   1.228   1.700  0.5540  1.3769  0.2642
  733SOL    HW2 2199   0.877   1.140   1.585 -1.8892 -2.7383  1.3041
  734SOL     OW 2200   2.608   1.430   0.335  0.5703 -0.1529  0.1099
  734SOL    HW1 2201   2.533   1.481   0.288  0.8440  1.8846 -1.1558
  734SOL    HW2 2202   2.669   1.489   0.387  1.7736 -1.9405 -0.6845
  735SOL     OW 2203   0.489   0.675   0.348  0.1705 -0.5706 -0.6747
  735SOL    HW1 2204   0.490   0.631   0.257  2.1507 -0.9501  0.7109
  735SOL    HW2 2205   0.558   0.640   0.411 -4.1212  2.6442  1.9668
  736SOL     OW 2206   1.721   2.626   2.886 -0.8908 -0.1663  0.4360
  736SOL    HW1 2207   1.755   2.629   2.981  0.8205  3.0292 -0.9192
  736SOL    HW2 2208   1.622   2.626   2.879  2.8609 -1.4804 -1.4970
  737SOL     OW 2209   1.011   1.984   0.839 -0.5063 -0.0423  0.1297
  737SOL    HW1 2210   0.961   2.006   0.927  1.0458  2.9264  2.7927
  737SOL    HW2 2211   1.113   1.986   0.845  0.7994 -3.6657  0.9707
  738SOL     OW 2212   2.302   3.074   2.630  0.0208 -0.3163  0.2609
  738SOL    HW1 2213   2.343   3.092   2.540  1.6534 -0.2467  1.6106
  738SOL    HW2 2214   2.238   0.018   2.668  0.4341 -0.4274  0.8355
  739SOL     OW 2215   1.837   2.359   2.500 -0.0536 -0.6512 -0.5513
  739SOL    HW1 2216   1.801   2.302   2.424  3.6070  0.1036  2.0428
  739SOL    HW2 2217   1.846   2.461   2.483  0.2237  1.0254 -1.5033
  740SOL     OW 2218   1.662   2.174   2.034  0.0253 -0.3759  0.3330
  740SOL    HW1 2219   1.642   2.255   1.974 -0.8202 -0.2794 -0.4690
  740SOL    HW2 2220   1.710   2.105   1.980 -2.1955  1.4006 -1.9260
  741SOL     OW 2221   2.267   1.540   2.716 -0.4776  0.1528 -0.6827
  741SOL    HW1 2222   2.221   1.617   2.671  4.3052  1.3493  1.0616
  741SOL    HW2 2223   2.253   1.554   2.816  0.2332  0.6604 -1.3577
  742SOL     OW 2224   0.976   1.479   2.869  0.3089  0.2138 -0.4663
  742SOL    HW1 2225   1.027   1.563   2.846 -0.3691 -1.9820  0.7002
  742SOL    HW2 2226   0.912   1.465   2.790 -0.3317  2.6163  2.6674
  743SOL     OW 2227   1.671   1.045   2.478 -0.3004 -0.4531  0.1695
  743SOL    HW1 2228   1.690   1.121   2.408 -3.8835  3.2538  0.6326
  743SOL    HW2 2229   1.593   1.067   2.542 -3.0524 -1.8107  1.3042
  744SOL     OW 2230   2.230   2.821   1.313  0.3743  0.1576 -0.1024
  744SOL    HW1 2231   2.214   2.726   1.350  3.3823  0.6711  3.7876
  744SOL    HW2 2232   2.253   2.825   1.211  1.4711 -0.8178 -3.0816
  745SOL     OW 2233   2.279   1.078   0.912  0.3523 -0.4517  0.2920
  745SOL    HW1 2234   2.366   1.128   0.916 -0.9257  0.4526 -4.3825
  745SOL    HW2 2235   2.197   1.142   0.910  1.6936 -0.5723 -2.7121
  746SOL     OW 2236   2.267   1.838   1.182  0.0761 -0.4462 -0.3115
  746SOL    HW1 2237   2.340   1.771   1.186 -3.7256 -1.0920 -1.4406
  746SOL    HW2 2238   2.303   1.926   1.215  0.0504 -1.7057  1.0934
  747SOL     OW 2239   2.003   2.974   0.290  0.0147 -0.0336  0.3138
  747SOL    HW1 2240   1.909   2.949   0.332  0.3334 -1.2658  3.6337
  747SOL    HW2 2241   2.045   2.903   0.230 -1.4427 -0.5352  1.5892
  748SOL     OW 2242   0.821   1.845   0.082 -0.6471  0.4463  0.1407
  748SOL    HW1 2243   0.821   1.814   0.179 -1.7038  1.5476  0.3309
  748SOL    HW2 2244   0.856   1.768   0.016  0.8072 -1.8720 -0.9700
  749SOL     OW 2245   2.792   0.399   2.072  0.1480  0.0008  0.2869
  749SOL    HW1 2246   2.793   0.490   2.117 -2.8807 -0.0416  1.3632
  749SOL    HW2 2247   2.853   0.328   2.115 -2.0834  1.0598 -0.0465
  750SOL     OW 2248   1.234   0.722   1.805  0.3335 -0.0986  0.1045
  750SOL    HW1 2249   1.333   0.704   1.837  0.9310 -2.3932  0.7285
  750SOL    HW2 2250   1.228   0.698   1.705 -0.7197 -1.8247  0.9802
  751SOL     OW 2251   2.364   2.535   2.093 -0.3552 -0.4132 -0.5533
  751SOL    HW1 2252   2.410   2.495   2.012  0.4427  0.0496 -2.8450
  751SOL    HW2 2253   2.351   2.634   2.070 -0.5126  1.9497 -1.3532
  752SOL     OW 2254   1.966   1.393   1.213 -0.1038  0.1611  0.4302
  752SOL    HW1 2255   1.955   1.291   1.208  1.5801  0.2863  0.7703
  752SOL    HW2 2256   2.040   1.420   1.278  0.9035  1.7747  3.4163
  753SOL     OW 2257   1.267   1.009   2.182  0.8635  0.2180  0.3107
  753SOL    HW1 2258   1.199   1.011   2.107  0.8191  0.4678 -0.8539
  753SOL    HW2 2259   1.302   0.914   2.200 -2.4191 -0.3806  0.4390
  754SOL     OW 2260   0.191   2.492   0.939 -0.6753  0.9358 -0.0294
  754SOL    HW1 2261   0.228   2.584   0.948  1.2553 -5.4682 -1.3117
  754SOL    HW2 2262   0.150   2.461   1.023  1.9084  0.4997 -0.9104
  755SOL     OW 2263   2.573   0.105   1.384 -0.7592  0.2346 -0.2485
  755SOL    HW1 2264   2.635   0.186   1.373  1.3938  0.8073 -0.2547
  755SOL    HW2 2265   2.475   0.126   1.395  1.9545  1.0668  0.0002
  756SOL     OW 2266   1.816   2.194   2.279  1.2211 -0.2089  0.0962
  756SOL    HW1 2267   1.916   2.222   2.274  1.0660 -2.2946  0.8759
  756SOL    HW2 2268   1.777   2.165   2.192 -0.8760  0.0124  1.1177
  757SOL     OW 2269   2.936   3.028   1.954  0.0365 -0.1347 -0.5651
  757SOL    HW1 2270   2.990   3.091   1.895 -2.2907  1.7861  0.4393
  757SOL    HW2 2271   2.841   3.063   1.973 -3.0883 -1.5647 -0.1484
  758SOL     OW 2272   0.485   2.686   1.301  0.5896 -0.2712 -0.1329
  758SOL    HW1 2273   0.474   2.678   1.199 -0.3411 -1.1573 -0.0745
  758SOL    HW2 2274   0.392   2.716   1.347 -2.9244  1.3388  1.9998
  759SOL     OW 2275   1.942   0.948   1.025 -0.3785 -0.2641  0.1748
  759SOL    HW1 2276   1.864   0.884   1.039  0.9839  0.7568 -0.2518
  759SOL    HW2 2277   1.940   0.989   0.931 -0.3419 -0.2069  2.0260
  760SOL     OW 2278   1.429   0.464   1.638  0.3794  0.2637 -0.5067
  760SOL    HW1 2279   1.388   0.393   1.703 -2.7839  1.6142  2.8746
  760SOL    HW2 2280   1.367   0.538   1.611 -0.8566 -1.4229  0.0722
  761SOL     OW 2281   2.185   0.209   1.244  0.6083  0.1071 -0.1830
  761SOL    HW1 2282   2.244   0.230   1.163 -1.1232  1.2845 -1.1104
  761SOL    HW2 2283   2.087   0.210   1.216  0.5796  3.1878  2.2085
  762SOL     OW 2284   1.764   2.966   0.433  0.3219  0.1691 -0.0204
  762SOL    HW1 2285   1.707   3.046   0.440  0.1055 -1.1346  0.3455
  762SOL    HW2 2286   1.710   2.883   0.455  0.9344 -0.5138 -0.3599
  763SOL     OW 2287   0.917   0.415   1.259  0.2679  0.2521  0.0118
  763SOL    HW1 2288   0.912   0.399   1.360  0.9870  1.1911  2.1273
  763SOL    HW2 2289   0.869   0.502   1.240 -1.2464 -2.4657 -0.7783
  764SOL     OW 2290   2.342   2.325   2.284  0.4204 -0.0955  0.2374
  764SOL    HW1 2291   2.438   2.296   2.268 -2.0918  3.3615  0.3893
  764SOL    HW2 2292   2.322   2.412   2.239 -1.6371 -0.7993  2.3997
  765SOL     OW 2293   3.071   1.248   2.313  0.5414  0.3083 -0.4393
  765SOL    HW1 2294   0.013   1.185   2.263  1.5554  1.0334 -1.3485
  765SOL    HW2 2295   3.070   1.237   2.417 -1.7841  2.0960  1.5288
  766SOL     OW 2296   2.847   1.301   2.149  0.5973 -0.5373 -0.4842
  766SOL    HW1 2297   2.924   1.278   2.209  1.4447 -1.1079  0.1125
  766SOL    HW2 2298   2.843   1.237   2.073  0.7606  1.9283  2.8898
  767SOL     OW 2299   0.457   2.063   1.650  1.0746  0.5255 -0.3249
  767SOL    HW1 2300   0.555   2.054   1.621  1.3016 -1.9825  0.9128
  767SOL    HW2 2301   0.424   2.003   1.728  0.3769  0.1708 -0.1117
  768SOL     OW 2302   0.715   0.814   3.043  0.6578  0.7408 -0.4185
  768SOL    HW1 2303   0.628   0.820   2.985 -2.9819 -1.1544 -5.4573
  768SOL    HW2 2304   0.708   0.720   3.087 -0.2261 -2.4854 -1.0977
  769SOL     OW 2305   1.366   2.572   0.023 -0.3065 -0.6983 -0.0105
  769SOL    HW1 2306   1.345   2.666   0.053 -0.7853  0.6540  2.0160
  769SOL    HW2 2307   1.334   2.502   0.091  0.0474 -2.0666 -2.3945
  770SOL     OW 2308   0.993   0.187   2.510 -0.1210 -0.0115 -0.4931
  770SOL    HW1 2309   1.032   0.264   2.459 -0.8141 -1.4775  1.8419
  770SOL    HW2 2310   0.929   0.133   2.449  0.6039  0.9218 -1.3747
  771SOL     OW 2311   0.775   2.907   0.707 -0.4784  0.0628 -0.0299
  771SOL    HW1 2312   0.736   2.908   0.611  1.0989  1.2560 -1.6536
  771SOL    HW2 2313   0.706   2.925   0.780 -0.1577 -1.6259  0.0209
  772SOL     OW 2314   2.590   0.969   0.193  0.1999 -0.5895  0.5840
  772SOL    HW1 2315   2.602   1.067   0.182 -3.0090 -1.8370  0.9477
  772SOL    HW2 2316   2.683   0.928   0.201 -1.0282  0.5632  1.2480
  773SOL     OW 2317   2.053   0.965   1.749 -0.2893  0.2062  0.3228
  773SOL    HW1 2318   2.084   0.870   1.720 -1.8582 -2.8233  0.2805
  773SOL    HW2 2319   2.106   1.040   1.700  0.5373 -0.2024 -1.0578
  774SOL     OW 2320   0.711   0.329   0.551  0.1527 -0.2509 -0.3654
  774SOL    HW1 2321   0.669   0.403   0.614 -1.2527 -0.4048  2.9049
  774SOL    HW2 2322   0.647   0.250   0.538 -1.5487 -2.2480  1.7855
  775SOL     OW 2323   1.668   0.086   0.517 -0.0954  0.3375  0.0897
  775SOL    HW1 2324   1.634   0.061   0.611  0.1310 -1.1671  2.9147
  775SOL    HW2 2325   1.627   0.172   0.485  1.7417 -0.8268  0.7245
  776SOL     OW 2326   2.529   0.192   2.312 -0.2445 -0.0465  0.0091
  776SOL    HW1 2327   2.534   0.218   2.211  0.8451 -0.5678 -3.9865
  776SOL    HW2 2328   2.484   0.100   2.329 -0.9006  0.7016 -1.0034
  777SOL     OW 2329   1.530   1.580   0.107  0.2404  0.5830 -0.1627
  777SOL    HW1 2330   1.557   1.630   0.023  1.8727  2.5262  2.2970
  777SOL    HW2 2331   1.445   1.520   0.088 -1.4177 -1.5150  4.1730
  778SOL     OW 2332   0.291   2.580   0.255  0.1091  0.0702 -0.2438
  778SOL    HW1 2333   0.218   2.544   0.307 -1.3650  1.8069 -3.5969
  778SOL    HW2 2334   0.275   2.571   0.157 -1.6299 -0.5769  3.1338
  779SOL     OW 2335   3.072   1.458   0.126 -0.3184  0.1634 -0.2989
  779SOL    HW1 2336   3.023   1.476   0.038  0.4833 -0.4327  1.3197
  779SOL    HW2 2337   0.019   1.532   0.140 -1.6787 -2.0877  0.6348
  780SOL     OW 2338   1.755   0.372   1.863 -0.3115 -0.1371  0.3679
  780SOL    HW1 2339   1.692   0.349   1.939  1.8755 -0.0483 -0.3820
  780SOL    HW2 2340   1.805   0.287   1.837  0.9742 -4.3118  0.1621
  781SOL     OW 2341   1.752   1.416   1.369  0.4006 -0.0552  0.1894
  781SOL    HW1 2342   1.685   1.491   1.373  2.9615  1.3224  0.5155
  781SOL    HW2 2343   1.816   1.422   1.290 -0.8222 -1.5666 -0.6086
  782SOL     OW 2344   2.023   2.398   1.976 -0.2773  0.4191 -0.0951
  782SOL    HW1 2345   1.976   2.430   2.062 -1.4430  2.3141  1.3386
  782SOL    HW2 2346   2.119   2.369   1.991  0.3143  2.4727  0.1537
  783SOL     OW 2347   1.466   0.659   1.931  0.2640  0.5104  0.3485
  783SOL    HW1 2348   1.548   0.650   1.867 -1.5691 -2.8444  0.8913
  783SOL    HW2 2349   1.423   0.567   1.963 -3.6552 -1.0227  2.5930
  784SOL     OW 2350   1.793   1.184   2.264  0.2172  0.0384  0.0752
  784SOL    HW1 2351   1.755   1.238   2.186  0.4071  0.7478 -0.6805
  784SOL    HW2 2352   1.889   1.158   2.259 -2.2101  1.3440 -1.5027
  785SOL     OW 2353   2.061   0.561   0.227  0.1434  0.2685  0.2915
  785SOL    HW1 2354   2.076   0.649   0.274  0.8836 -1.2734 -0.8917
  785SOL    HW2 2355   1.984   0.511   0.274 -0.6567 -0.7914  0.7246
  786SOL     OW 2356   2.941   1.443   0.791 -0.1339  0.3197 -0.0749
  786SOL    HW1 2357   2.883   1.515   0.752 -2.7749 -1.7020  1.0917
  786SOL    HW2 2358   2.950   1.361   0.729 -0.5191 -0.6099  2.3559
  787SOL     OW 2359   1.731   1.737   0.479  0.2859  0.3852  0.0016
  787SOL    HW1 2360   1.775   1.652   0.441 -1.2363 -1.7227 -2.9492
  787SOL    HW2 2361   1.669   1.770   0.407  0.2354 -3.3664 -2.1310
  788SOL     OW 2362   2.247   1.290   1.167  0.0318  0.3159 -0.1586
  788SOL    HW1 2363   2.261   1.387   1.149 -2.4499  1.4138 -1.6748
  788SOL    HW2 2364   2.193   1.237   1.097  1.1744 -3.3894 -1.9036
  789SOL     OW 2365   2.947   1.675   2.461  0.0366 -0.0470  0.7786
  789SOL    HW1 2366   2.900   1.583   2.461  0.2447 -0.1413  1.2034
  789SOL    HW2 2367   3.029   1.662   2.407 -2.2901  2.1878 -1.2504
  790SOL     OW 2368   0.603   2.848   2.629  0.3070  0.4625 -0.0598
  790SOL    HW1 2369   0.700   2.872   2.593  1.3109 -1.2335  1.4720
  790SOL    HW2 2370   0.536   2.914   2.588 -0.8287  0.3026 -0.6629
  791SOL     OW 2371   0.478   2.590   2.777  0.6015  0.9152  0.4024
  791SOL    HW1 2372   0.454   2.684   2.794 -1.2184  2.1824  1.0590
  791SOL    HW2 2373   0.510   2.548   2.863  0.4952 -1.7956  1.1385
  792SOL     OW 2374   1.660   0.449   2.149 -0.0360 -0.1994 -0.4067
  792SOL    HW1 2375   1.710   0.415   2.234  3.8750 -0.4453  1.5686
  792SOL    HW2 2376   1.709   0.531   2.108  1.5359  0.5303  0.8135
  793SOL     OW 2377   2.735   0.066   2.087 -0.5365  0.1468  0.5608
  793SOL    HW1 2378   2.665   0.136   2.059  0.2759  1.3729 -1.4835
  793SOL    HW2 2379   2.823   0.110   2.108 -0.7391  0.4873 -1.7602
  794SOL     OW 2380   0.725   0.479   1.893  0.2998  0.4981  0.2309
  794SOL    HW1 2381   0.647   0.513   1.948  1.5706 -1.5705 -1.6229
  794SOL    HW2 2382   0.712   0.372   1.878  0.7656 -5.7151  1.2604
  795SOL     OW 2383   2.668   1.421   0.658 -0.0861 -0.4202  0.5760
  795SOL    HW1 2384   2.653   1.509   0.608 -2.6865  0.3915  2.1674
  795SOL    HW2 2385   2.654   1.342   0.591 -2.1007 -4.7375 -0.0115
  796SOL     OW 2386   2.855   2.415   2.653 -0.2238  0.2017 -0.6289
  796SOL    HW1 2387   2.767   2.389   2.602 -3.0728 -1.6548  0.6968
  796SOL    HW2 2388   2.934   2.352   2.635  2.6365 -0.6016 -1.3082
  797SOL     OW 2389   2.665   2.208   0.222 -0.1286 -0.6533 -0.1041
  797SOL    HW1 2390   2.716   2.152   0.156 -0.4323  1.8889  0.4780
  797SOL    HW2 2391   2.603   2.278   0.186 -0.9577 -0.0720 -0.6636
  798SOL     OW 2392   0.402   0.565   1.749 -0.3396  0.0779 -0.0509
  798SOL    HW1 2393   0.359   0.478   1.790  1.4846 -2.1263  0.1169
  798SOL    HW2 2394   0.333   0.636   1.727 -0.7699  0.2175  0.2284
  799SOL     OW 2395   2.540   0.559   2.186 -0.1167 -0.3805  0.6474
  799SOL    HW1 2396   2.560   0.460   2.163 -1.0016  0.6889 -0.7792
  799SOL    HW2 2397   2.547   0.581   2.286  1.0344 -1.4352 -1.5497
  800SOL     OW 2398   2.829   2.231   0.683 -0.4002  0.4465  0.4416
  800SOL    HW1 2399   2.763   2.220   0.768 -2.0393  0.6045  0.1162
  800SOL    HW2 2400   2.890   2.309   0.695  2.5666 -1.5275 -0.7780
  801SOL     OW 2401   1.336   0.839   0.772 -0.3272  0.2696  0.1138
  801SOL    HW1 2402   1.402   0.913   0.771  1.1248  0.5387  3.8297
  801SOL    HW2 2403   1.370   0.772   0.844 -2.0492  0.6202  1.0460
  802SOL     OW 2404   1.462   2.119   0.925 -0.3072 -0.3548 -0.3383
  802SOL    HW1 2405   1.562   2.137   0.930  2.4556 -0.3754  1.1393
  802SOL    HW2 2406   1.448   2.027   0.889  2.0682  1.7653 -0.7347
  803SOL     OW 2407   0.058   1.757   0.412 -0.0008 -0.1684  0.6500
  803SOL    HW1 2408   0.102   1.693   0.344  2.4288 -0.9149  2.7981
  803SOL    HW2 2409   0.115   1.771   0.494  0.3825 -0.6657 -0.4451
  804SOL     OW 2410   1.495   2.548   0.445  0.2403  0.2279 -0.2448
  804SOL    HW1 2411   1.430   2.493   0.400  1.5103  3.2675  1.0948
  804SOL    HW2 2412   1.470   2.580   0.537 -2.5840  0.9451 -2.0259
  805SOL     OW 2413   1.462   2.031   2.429 -0.5432  0.2807 -0.1367
  805SOL    HW1 2414   1.425   1.999   2.341 -1.0153  0.2603 -0.1236
  805SOL    HW2 2415   1.564   2.037   2.414  0.2387 -0.1659  1.2155
  806SOL     OW 2416   1.640   3.099   1.437  0.1253  0.5245  0.3662
  806SOL    HW1 2417   1.729   3.060   1.463  0.3300 -0.5906  0.3784
  806SOL    HW2 2418   1.640   0.073   1.465 -0.0357  2.6312 -0.4109
  807SOL     OW 2419   2.133   0.014   0.059 -0.5493  0.3738  0.1564
  807SOL    HW1 2420   2.036   0.035   0.083  0.9234  1.1266 -1.3797
  807SOL    HW2 2421   2.177   0.080   3.116 -0.3590 -0.5994  0.5011
  808SOL     OW 2422   0.499   1.626   3.034 -0.5206  0.2172 -0.7508
  808SOL    HW1 2423   0.506   1.625   2.934 -1.5644  2.8688  1.8783
  808SOL    HW2 2424   0.552   1.546   3.073  0.1725  1.6497  1.0089
  809SOL     OW 2425   3.034   0.889   2.471 -1.0656 -0.3598  0.1484
  809SOL    HW1 2426   3.047   0.802   2.416 -0.0571 -0.1317 -0.2265
  809SOL    HW2 2427   3.000   0.879   2.567  1.8951 -2.1040  1.6411
  810SOL     OW 2428   2.959   0.424   2.388 -0.2227 -0.0721  0.5849
  810SOL    HW1 2429   2.916   0.518   2.383 -1.5059 -3.0936 -1.6214
  810SOL    HW2 2430   3.049   0.422   2.332  1.2505 -1.6438  1.4000
  811SOL     OW 2431   2.165   2.554   1.763  0.0836 -0.3007 -0.0805
  811SOL    HW1 2432   2.160   2.492   1.843 -0.7751 -1.8977  1.6981
  811SOL    HW2 2433   2.243   2.542   1.699 -2.4876 -0.6569  1.0922
  812SOL     OW 2434   1.299   0.413   0.302 -0.3637 -0.3572  0.4864
  812SOL    HW1 2435   1.199   0.411   0.275  1.4502 -1.0386 -0.1264
  812SOL    HW2 2436   1.357   0.428   0.219  0.7510  2.5807 -0.0111
  813SOL     OW 2437   1.794   0.664   2.041 -0.4735 -0.4575 -0.0197
  813SOL    HW1 2438   1.755   0.758   2.033 -0.2655 -0.9169  0.2102
  813SOL    HW2 2439   1.859   0.643   1.966  0.4325 -0.1490  1.6822
  814SOL     OW 2440   1.958   1.118   1.228 -0.4363 -0.5135 -0.1081
  814SOL    HW1 2441   2.040   1.104   1.287 -0.1642  1.7742  0.0844
  814SOL    HW2 2442   1.969   1.049   1.152  3.2551 -0.5918 -1.6326
  815SOL     OW 2443   0.558   1.030   0.589 -0.1392 -0.2432  0.0944
  815SOL    HW1 2444   0.579   0.928   0.593 -0.0793 -3.1132 -2.0731
  815SOL    HW2 2445   0.462   1.051   0.558  0.0020 -0.3455 -1.3741
  816SOL     OW 2446   2.143   1.992   0.022 -0.0352 -0.1810  0.1548
  816SOL    HW1 2447   2.168   2.076   3.100 -1.7856 -2.1708  4.0619
  816SOL    HW2 2448   2.220   1.954   0.074 -3.8829 -0.3286 -1.0426
  817SOL     OW 2449   2.958   2.589   1.185 -0.4422 -0.2170  0.3294
  817SOL    HW1 2450   2.899   2.533   1.126  1.4691  1.8077  0.7857
  817SOL    HW2 2451   2.998   2.668   1.137 -1.3766 -2.3531  0.7903
  818SOL     OW 2452   1.306   0.605   3.019  0.5498 -0.1646 -0.2315
  818SOL    HW1 2453   1.230   0.542   3.043  1.0897 -1.5596  2.2238
  818SOL    HW2 2454   1.386   0.562   2.971 -0.1387  2.7596  2.3674
  819SOL     OW 2455   0.593   0.517   0.698 -0.0939 -0.3824  0.3292
  819SOL    HW1 2456   0.488   0.506   0.712 -0.8732  1.2916  0.9573
  819SOL    HW2 2457   0.657   0.486   0.772  1.9011  0.1471  0.1406
  820SOL     OW 2458   2.135   0.703   1.280  0.3939  0.7542  0.1596
  820SOL    HW1 2459   2.169   0.771   1.213  2.3951 -2.3750 -0.9098
  820SOL    HW2 2460   2.062   0.738   1.345  1.2884 -0.5990  2.3784
  821SOL     OW 2461   2.937   3.117   0.609 -0.1486  0.7140  0.0047
  821SOL    HW1 2462   2.899   0.042   0.698  1.9239  3.6980  1.3368
  821SOL    HW2 2463   3.009   3.046   0.634 -0.2054 -1.8049 -1.6273
  822SOL     OW 2464   0.754   2.427   2.522  0.4087  0.1017  0.4360
  822SOL    HW1 2465   0.788   2.461   2.613 -0.3846  2.2907 -0.2492
  822SOL    HW2 2466   0.656   2.443   2.512  1.4092  3.8290  0.5646
  823SOL     OW 2467   3.116   1.359   1.951  0.3503 -0.7296  0.0804
  823SOL    HW1 2468   3.025   1.381   1.909 -1.3023  0.6761  0.8084
  823SOL    HW2 2469   3.118   1.277   2.006  2.5267  4.2801  0.8342
  824SOL     OW 2470   0.929   3.060   2.327  0.6398 -0.3956  0.3728
  824SOL    HW1 2471   0.927   3.020   2.419  0.1260  0.2835  0.1568
  824SOL    HW2 2472   0.849   3.034   2.269  0.2218  1.1041  2.6375
  825SOL     OW 2473   1.482   1.967   0.074  0.2674 -0.3747  0.4733
  825SOL    HW1 2474   1.385   1.988   0.086  1.7612 -1.5320 -0.5019
  825SOL    HW2 2475   1.494   1.915   3.106  4.4044 -3.1748 -1.0475
  826SOL     OW 2476   1.185   2.420   2.922 -0.2728  0.8543 -1.0853
  826SOL    HW1 2477   1.167   2.414   3.026 -0.2229  1.6367  0.8458
  826SOL    HW2 2478   1.170   2.334   2.871 -0.3812 -1.9025 -2.0295
  827SOL     OW 2479   0.409   1.865   1.812  0.2104 -0.7317  0.1381
  827SOL    HW1 2480   0.346   1.791   1.778 -0.8219 -2.0381  1.1336
  827SOL    HW2 2481   0.439   1.831   1.905 -1.8424 -0.8174  0.9464
  828SOL     OW 2482   0.278   1.775   1.016  0.5546 -0.3870 -0.1494
  828SOL    HW1 2483   0.346   1.737   0.944  0.6472 -1.0630 -1.6045
  828SOL    HW2 2484   0.334   1.831   1.081  2.9602  0.2430  0.5192
  829SOL     OW 2485   2.974   2.616   0.037  0.1882 -0.0863  0.2156
  829SOL    HW1 2486   3.042   2.544   0.037 -1.9958  2.2171 -1.5622
  829SOL    HW2 2487   2.901   2.584   3.097  1.4702 -0.1513  0.0032
  830SOL     OW 2488   1.131   0.823   0.600  0.4470 -0.2988  0.0220
  830SOL    HW1 2489   1.187   0.778   0.528  0.2895  1.0829  0.8661
  830SOL    HW2 2490   1.185   0.832   0.687 -2.1171  1.4549 -0.2262
  831SOL     OW 2491   2.761   2.482   3.036 -0.2132  0.2006  0.0526
  831SOL    HW1 2492   2.767   2.396   2.979  0.3965  0.7958  0.1997
  831SOL    HW2 2493   2.678   2.477   3.098 -0.8332  1.8386 -0.1148
  832SOL     OW 2494   1.735   2.370   0.215  0.0636  0.3315 -0.0634
  832SOL    HW1 2495   1.664   2.327   0.158 -0.2446  0.6731 -1.6761
  832SOL    HW2 2496   1.749   2.315   0.300  0.1056 -1.2700 -0.9365
  833SOL     OW 2497   0.562   0.973   2.543 -0.3640 -0.6296 -0.4659
  833SOL    HW1 2498   0.603   0.966   2.641 -0.7611 -1.3696 -1.9263
  833SOL    HW2 2499   0.623   1.024   2.477  1.3369  1.2346 -1.9097
  834SOL     OW 2500   2.695   0.527   0.701 -0.0101  0.0307 -0.3039
  834SOL    HW1 2501   2.688   0.459   0.629  0.0905  2.8653  0.0982
  834SOL    HW2 2502   2.640   0.605   0.674  1.9021 -1.5421 -0.8524
  835SOL     OW 2503   2.149   0.687   2.216  0.4419 -0.1843 -0.5275
  835SOL    HW1 2504   2.207   0.756   2.262  0.8015  1.8196  2.9214
  835SOL    HW2 2505   2.056   0.704   2.253 -0.3036 -1.0473 -1.2702
  836SOL     OW 2506   0.652   1.953   0.376 -0.1010  0.1203 -0.2582
  836SOL    HW1 2507   0.551   1.947   0.398 -0.5982 -0.6665  2.0368
  836SOL    HW2 2508   0.690   1.861   0.354 -1.5241 -1.6283 -1.6584
  837SOL     OW 2509   2.438   1.213   2.067 -0.0443 -0.0941  0.5989
  837SOL    HW1 2510   2.479   1.211   2.159 -0.1501  2.1648 -1.2790
  837SOL    HW2 2511   2.340   1.250   2.071 -2.4451 -0.2103 -1.4122
  838SOL     OW 2512   0.171   1.044   2.390  0.4556  0.0483 -0.2080
  838SOL    HW1 2513   0.241   0.979   2.427 -0.6561 -3.0251 -1.0431
  838SOL    HW2 2514   0.083   1.004   2.403  0.7697  1.2841 -1.4431
  839SOL     OW 2515   0.417   2.865   2.853  0.6377 -0.4723  0.0679
  839SOL    HW1 2516   0.352   2.831   2.781 -0.9208 -0.3637 -0.2645
  839SOL    HW2 2517   0.467   2.942   2.813  1.9679 -1.4002 -1.2260
  840SOL     OW 2518   0.005   1.280   2.584  0.1597  0.6517  0.1732
  840SOL    HW1 2519   0.069   1.211   2.623 -0.1184  1.6832 -0.9934
  840SOL    HW2 2520   3.044   1.309   2.639 -0.3729 -0.4565 -0.4003
  841SOL     OW 2521   0.464   2.108   2.776  0.8519  0.5468 -0.1535
  841SOL    HW1 2522   0.402   2.185   2.771 -1.5183  1.1753  0.1051
  841SOL    HW2 2523   0.560   2.144   2.789  2.6523  0.3476 -0.0530
  842SOL     OW 2524   0.954   0.167   1.124  0.3112 -0.2817 -0.1960
  842SOL    HW1 2525   0.976   0.191   1.027 -0.2375  1.7412  3.9892
  842SOL    HW2 2526   0.910   0.249   1.163  0.1619 -2.1813 -0.7434
  843SOL     OW 2527   0.007   1.544   2.297 -0.3874 -0.5323 -0.5556
  843SOL    HW1 2528   0.057   1.579   2.219 -0.2523 -0.7368  1.2479
  843SOL    HW2 2529   0.000   1.440   2.299  1.1211  0.4430 -0.8220
  844SOL     OW 2530   1.720   1.970   2.380 -0.5490 -0.0820  0.0451
  844SOL    HW1 2531   1.701   1.912   2.299  3.8376 -2.0971  1.2060
  844SOL    HW2 2532   1.777   2.054   2.353  1.9520 -0.9789 -2.8095
  845SOL     OW 2533   1.811   2.925   2.479 -0.1911  1.0821 -0.0418
  845SOL    HW1 2534   1.722   2.939   2.522  0.5957  0.0979 -2.8819
  845SOL    HW2 2535   1.874   2.993   2.529 -0.4177  1.1597  1.3760
  846SOL     OW 2536   2.585   1.497   3.108 -0.2494  0.0990  0.0227
  846SOL    HW1 2537   2.529   1.543   0.058  1.1488  0.1639 -1.5932
  846SOL    HW2 2538   2.547   1.408   3.072  1.6868  2.1027  1.1039
  847SOL     OW 2539   2.477   0.068   2.817  0.1357 -0.1564  0.7369
  847SOL    HW1 2540   2.424   0.028   2.737  2.7588  0.3299  1.7581
  847SOL    HW2 2541   2.573   0.091   2.786  0.3593 -0.8966 -0.9755
  848SOL     OW 2542   2.307   0.492   0.406 -0.7023  0.3890 -0.5502
  848SOL    HW1 2543   2.235   0.544   0.359 -0.3025 -4.0743  0.3503
  848SOL    HW2 2544   2.299   0.518   0.510 -4.6024  0.4074  4.0767
  849SOL     OW 2545   1.304   3.120   2.945 -0.3801  0.1063  0.0812
  849SOL    HW1 2546   1.221   0.020   2.894  3.5363  1.4659  2.8239
  849SOL    HW2 2547   1.385   0.052   2.906  0.4064  1.7896 -3.0080
  850SOL     OW 2548   3.049   0.668   0.420  0.7421 -0.0926  0.2360
  850SOL    HW1 2549   3.004   0.607   0.354  3.4684 -0.3655  1.2528
  850SOL    HW2 2550   3.081   0.606   0.496 -2.6170 -0.3308 -1.6740
  851SOL     OW 2551   0.277   1.301   1.304  0.2429  0.2712  0.8458
  851SOL    HW1 2552   0.377   1.291   1.286 -1.5476 -0.8702  2.2949
  851SOL    HW2 2553   0.250   1.392   1.263 -0.7540  0.4908 -3.0033
  852SOL     OW 2554   1.404   0.758   2.200  0.2014  0.7136 -0.1970
  852SOL    HW1 2555   1.479   0.755   2.264 -3.3854  3.5563  0.1857
  852SOL    HW2 2556   1.430   0.726   2.104 -1.0150 -1.3212 -3.8510
  853SOL     OW 2557   2.216   1.476   0.052  0.0811  0.0647  1.0523
  853SOL    HW1 2558   2.206   1.379   0.022 -2.9679 -1.6401  1.0978
  853SOL    HW2 2559   2.224   1.536   3.089  1.0773  1.2150 -1.5306
  854SOL     OW 2560   1.493   1.124   2.029 -0.4542 -0.4373 -0.2951
  854SOL    HW1 2561   1.442   1.182   1.962 -1.9625 -0.1256 -0.5141
  854SOL    HW2 2562   1.429   1.087   2.098 -0.7048 -1.2439  0.0835
  855SOL     OW 2563   0.309   2.370   1.839  0.6290 -0.8245  0.0710
  855SOL    HW1 2564   0.356   2.333   1.755  0.8415  0.2546 -0.7492
  855SOL    HW2 2565   0.228   2.420   1.807 -0.4841 -1.1067  1.9869
  856SOL     OW 2566   1.075   1.250   2.606  0.1811 -0.0528  0.6246
  856SOL    HW1 2567   1.127   1.189   2.541 -0.0231  0.5978  0.6693
  856SOL    HW2 2568   1.011   1.202   2.673  2.1934  1.1099  2.4316
  857SOL     OW 2569   0.926   1.013   2.761  0.0563 -0.0908 -0.1346
  857SOL    HW1 2570   1.015   0.981   2.804 -0.2763  0.2511  1.5260
  857SOL    HW2 2571   0.890   0.947   2.692 -1.3853  1.7152 -0.0597
  858SOL     OW 2572   0.293   0.341   1.832  0.4267 -0.3965  0.6167
  858SOL    HW1 2573   0.340   0.254   1.804 -0.6556 -1.3518 -1.1396
  858SOL    HW2 2574   0.197   0.319   1.805 -2.9437 -2.6789  0.5860
  859SOL     OW 2575   2.472   0.239   0.715 -0.5895 -0.1052 -0.8156
  859SOL    HW1 2576   2.533   0.263   0.636 -0.4852 -2.6741 -0.6821
  859SOL    HW2 2577   2.451   0.322   0.769 -0.6099 -0.6475  0.4346
  860SOL     OW 2578   0.954   1.010   1.508 -0.7647  0.0708  0.1069
  860SOL    HW1 2579   0.906   0.920   1.511 -1.2649 -0.8799 -2.3774
  860SOL    HW2 2580   1.053   0.991   1.533 -2.1913  0.6695 -2.3924
  861SOL     OW 2581   1.700   1.024   1.287 -0.3661 -0.1794 -0.5371
  861SOL    HW1 2582   1.799   1.054   1.275 -2.3013 -1.3462  0.2188
  861SOL    HW2 2583   1.671   1.035   1.381  1.5392  1.1618  0.0231
  862SOL     OW 2584   0.958   0.177   2.203 -0.4507 -0.3170  0.4200
  862SOL    HW1 2585   0.973   0.078   2.218  1.1359  1.6122 -0.6938
  862SOL    HW2 2586   0.857   0.195   2.179 -0.1992  2.6104 -0.8537
  863SOL     OW 2587   2.767   0.338   1.372  0.1410 -0.3611  0.0118
  863SOL    HW1 2588   2.699   0.409   1.341 -3.3487 -0.1282  0.9646
  863SOL    HW2 2589   2.863   0.373   1.357  0.6953  2.2552 -0.7983
  864SOL     OW 2590   2.637   2.969   2.241 -0.3405  0.4614  0.3352
  864SOL    HW1 2591   2.726   2.924   2.267 -2.3700  2.0073 -1.5051
  864SOL    HW2 2592   2.662   3.050   2.182 -0.1341 -1.1200 -1.4653
  865SOL     OW 2593   1.224   1.070   2.456 -0.3864  0.3383  0.5695
  865SOL    HW1 2594   1.307   1.069   2.518  0.3559  2.8991 -0.0851
  865SOL    HW2 2595   1.247   1.056   2.357  0.6921 -0.2315 -0.4625
  866SOL     OW 2596   2.614   2.569   1.085  0.2103  0.0209  0.1553
  866SOL    HW1 2597   2.626   2.585   1.190 -0.1883 -0.9826  3.1851
  866SOL    HW2 2598   2.677   2.500   1.049 -2.4945  2.6324 -1.2002
  867SOL     OW 2599   2.625   2.591   1.373 -0.1001 -0.3438 -0.1113
  867SOL    HW1 2600   2.601   2.681   1.404  2.0472 -1.7229  0.1278
  867SOL    HW2 2601   2.714   2.549   1.407 -2.4029 -0.7956 -3.2446
  868SOL     OW 2602   0.080   1.570   1.530 -0.1668  0.1496 -0.1613
  868SOL    HW1 2603   3.119   1.518   1.543  3.1060 -0.7089 -0.9184
  868SOL    HW2 2604   0.079   1.626   1.444  0.3708 -2.5302  0.1232
  869SOL     OW 2605   2.106   1.809   1.986 -0.1663  0.1795 -0.1351
  869SOL    HW1 2606   2.133   1.879   2.051 -1.5466 -1.5706  0.5921
  869SOL    HW2 2607   2.032   1.752   2.020 -1.3127  0.6503 -1.7198
  870SOL     OW 2608   1.565   0.958   0.880  0.4021 -0.2885  0.0321
  870SOL    HW1 2609   1.585   0.993   0.974 -0.1919  0.1887  2.4575
  870SOL    HW2 2610   1.560   1.029   0.808 -0.0590 -1.4558 -0.9434
  871SOL     OW 2611   2.560   1.541   1.982 -0.4682  0.5600 -0.3004
  871SOL    HW1 2612   2.476   1.557   2.043 -1.0014 -0.0228  0.3727
  871SOL    HW2 2613   2.534   1.548   1.880  1.4340 -1.3166 -0.9642
  872SOL     OW 2614   1.467   1.617   2.633 -0.1474 -0.0810  0.0735
  872SOL    HW1 2615   1.511   1.558   2.701  0.9430  0.3072 -4.1035
  872SOL    HW2 2616   1.419   1.700   2.672 -2.7152  1.5625  3.6108
  873SOL     OW 2617   1.134   1.313   1.707  0.4860 -0.0646  0.5139
  873SOL    HW1 2618   1.094   1.405   1.705  1.9276 -2.2977 -0.8938
  873SOL    HW2 2619   1.065   1.245   1.684  1.7056  0.4937 -0.2633
  874SOL     OW 2620   1.247   1.306   1.432  0.0613 -0.0515 -0.4252
  874SOL    HW1 2621   1.218   1.308   1.529  1.4229 -0.4334 -0.8568
  874SOL    HW2 2622   1.199   1.372   1.372  2.3168  0.0841 -0.2157
  875SOL     OW 2623   2.708   0.003   2.656  0.0940  0.4873  0.0972
  875SOL    HW1 2624   2.711   0.060   2.573 -0.8496  0.2318 -2.1701
  875SOL    HW2 2625   2.754   3.036   2.643  0.6232  0.6962 -0.8331
  876SOL     OW 2626   0.752   0.841   0.363  0.2263 -0.5909 -0.2855
  876SOL    HW1 2627   0.719   0.818   0.463 -1.6078  1.5069 -0.1847
  876SOL    HW2 2628   0.684   0.827   0.292 -0.4598  2.0450  0.8875
  877SOL     OW 2629   1.865   2.955   0.700 -0.3275  0.4401  0.1893
  877SOL    HW1 2630   1.866   2.978   0.601  0.5612  1.0075 -0.6581
  877SOL    HW2 2631   1.882   2.854   0.719 -0.5621  0.7727 -0.4436
  878SOL     OW 2632   2.732   1.964   0.355  0.5958 -0.1228  0.4976
  878SOL    HW1 2633   2.795   1.891   0.321  1.5911  0.7722 -0.4336
  878SOL    HW2 2634   2.672   1.996   0.279  1.4463 -2.1319  0.2503
  879SOL     OW 2635   3.066   2.326   1.959 -0.0338 -0.5962 -0.5890
  879SOL    HW1 2636   3.009   2.266   2.020 -0.1542 -1.9850 -1.2647
  879SOL    HW2 2637   3.065   2.278   1.870 -0.5083  1.0247 -2.4969
  880SOL     OW 2638   0.416   1.675   0.789 -0.2160  0.2019  0.5489
  880SOL    HW1 2639   0.487   1.655   0.860  0.2071  0.3871 -2.0814
  880SOL    HW2 2640   0.458   1.679   0.695  1.1381  1.5323  2.1010
  881SOL     OW 2641   1.357   0.348   2.639 -1.1701  0.2671 -0.2733
  881SOL    HW1 2642   1.318   0.251   2.625  1.3962 -1.9101 -1.8225
  881SOL    HW2 2643   1.284   0.419   2.653  0.8311 -0.9385  1.0152
  882SOL     OW 2644   2.593   1.095   0.659 -0.5104 -0.1995 -0.4614
  882SOL    HW1 2645   2.523   1.107   0.726  0.7945 -1.7739  3.5734
  882SOL    HW2 2646   2.671   1.055   0.704 -0.6415  0.8811  1.2168
  883SOL     OW 2647   1.603   0.684   2.627 -0.3585  0.1885 -0.5191
  883SOL    HW1 2648   1.519   0.713   2.678  0.4969 -0.3265 -2.3572
  883SOL    HW2 2649   1.604   0.730   2.536  2.0928  2.2193  0.8154
  884SOL     OW 2650   0.027   0.122   1.947 -0.5580 -0.1107  0.0948
  884SOL    HW1 2651   0.018   0.113   1.845  1.4600  0.7428 -2.0946
  884SOL    HW2 2652   0.098   0.061   1.985 -1.0464 -2.1486 -1.4871
  885SOL     OW 2653   2.075   1.032   2.216  0.6312  0.4838  0.3128
  885SOL    HW1 2654   2.050   1.064   2.121 -0.1855  1.9711  1.5270
  885SOL    HW2 2655   2.166   0.994   2.217 -3.1879  1.5100  0.6873
  886SOL     OW 2656   1.748   0.396   2.945 -0.2455  0.3073 -0.4028
  886SOL    HW1 2657   1.764   0.373   3.044 -0.8169 -0.9408  1.4926
  886SOL    HW2 2658   1.798   0.334   2.885  1.2865  1.8175  0.3045
  887SOL     OW 2659   1.175   2.720   1.523  0.0623  0.2783 -0.3922
  887SOL    HW1 2660   1.277   2.717   1.505  1.3319  1.5995  0.8705
  887SOL    HW2 2661   1.129   2.632   1.489 -1.0506 -1.3336 -1.6541
  888SOL     OW 2662   2.454   0.951   1.391  0.4036  0.4058  0.1560
  888SOL    HW1 2663   2.362   0.997   1.398  1.7256  0.0593 -0.4339
  888SOL    HW2 2664   2.525   1.002   1.437 -0.9180 -3.3419 -3.5540
  889SOL     OW 2665   2.000   2.890   1.043 -0.0720  0.4809 -0.1343
  889SOL    HW1 2666   1.908   2.863   1.008  0.5988 -3.1797 -2.6646
  889SOL    HW2 2667   2.027   2.972   0.990  1.8666 -3.3071 -1.2955
  890SOL     OW 2668   1.088   2.539   0.585 -0.2982  0.0035 -0.2208
  890SOL    HW1 2669   1.135   2.465   0.641  2.9161 -0.1771 -0.6049
  890SOL    HW2 2670   1.076   2.624   0.644  0.3348  1.6412  1.3550
  891SOL     OW 2671   2.851   1.196   3.100 -0.4095 -0.0567  0.0437
  891SOL    HW1 2672   2.812   1.172   0.068  1.8422 -1.5260  0.2941
  891SOL    HW2 2673   2.871   1.296   3.091  3.8085  1.4151  0.0990
  892SOL     OW 2674   2.457   1.758   2.531  0.0789  0.1495  0.1610
  892SOL    HW1 2675   2.440   1.770   2.431 -1.9943  2.1099 -1.5974
  892SOL    HW2 2676   2.371   1.750   2.583  1.7689 -0.6699  0.4177
  893SOL     OW 2677   2.300   2.308   1.159  0.2511  0.2185  0.1675
  893SOL    HW1 2678   2.386   2.259   1.144  1.4818 -1.4080 -1.1641
  893SOL    HW2 2679   2.318   2.407   1.143 -1.6400 -0.3818  0.8900
  894SOL     OW 2680   0.094   0.871   0.759 -0.3617  0.3709  0.0763
  894SOL    HW1 2681   0.135   0.794   0.806 -2.6609  1.2194 -2.7737
  894SOL    HW2 2682   3.117   0.857   0.758  1.0687  1.4283 -0.7897
  895SOL     OW 2683   2.853   2.149   2.385  0.1501  0.5950  0.2158
  895SOL    HW1 2684   2.835   2.055   2.418 -0.9369  0.5196  1.0828
  895SOL    HW2 2685   2.796   2.222   2.430 -2.3812  2.6726 -0.8824
  896SOL     OW 2686   1.594   3.028   2.619 -0.3078  0.3597 -0.0012
  896SOL    HW1 2687   1.501   2.984   2.639 -0.9868 -3.3662 -1.1391
  896SOL    HW2 2688   1.598   0.005   2.645  0.6999 -2.0013 -0.5620
  897SOL     OW 2689   0.040   1.772   1.786 -0.2806  0.4675 -0.2276
  897SOL    HW1 2690   0.066   1.870   1.807  1.0666  0.9065  0.4720
  897SOL    HW2 2691   0.100   1.733   1.715 -1.8110  0.1762  2.6006
  898SOL     OW 2692   0.554   2.240   1.902  0.4597  0.0961 -0.1088
  898SOL    HW1 2693   0.459   2.275   1.910 -0.1226  1.7419 -1.1208
  898SOL    HW2 2694   0.599   2.285   1.824 -2.0407 -1.1381 -0.4173
  899SOL     OW 2695   1.661   3.072   1.778  0.1107  0.7172 -0.0473
  899SOL    HW1 2696   1.672   2.971   1.774  0.1076 -2.1052 -0.1351
  899SOL    HW2 2697   1.562   3.094   1.749  0.1345 -1.2756  1.0251
  900SOL     OW 2698   1.343   1.060   0.443 -0.2041 -0.2609  0.5335
  900SOL    HW1 2699   1.372   0.965   0.422  2.0315  0.5996  1.5508
  900SOL    HW2 2700   1.242   1.063   0.463 -0.9430 -1.1019  0.9984
  901SOL     OW 2701   1.438   1.057   2.628 -0.5118  0.2282 -0.0782
  901SOL    HW1 2702   1.387   1.127   2.682 -0.3510  0.7445  4.5195
  901SOL    HW2 2703   1.422   0.964   2.657  4.8824  3.5079  0.0962
  902SOL     OW 2704   0.102   2.490   1.194  0.0243 -0.8613 -0.1068
  902SOL    HW1 2705   0.001   2.494   1.198  1.6065 -1.2589 -1.4858
  902SOL    HW2 2706   0.144   2.575   1.225  0.3890 -0.5359  1.2350
  903SOL     OW 2707   2.651   1.410   2.302  0.0560 -0.0743  0.1856
  903SOL    HW1 2708   2.627   1.337   2.365  0.5151  0.7868  0.3333
  903SOL    HW2 2709   2.706   1.373   2.225 -0.2619  0.4760  0.2202
  904SOL     OW 2710   1.583   1.790   0.257  0.4935  0.2367 -0.6219
  904SOL    HW1 2711   1.573   1.693   0.222 -2.9226 -0.8725 -2.4749
  904SOL    HW2 2712   1.536   1.856   0.196 -1.3042  0.2729  0.0736
  905SOL     OW 2713   2.121   2.817   1.737  0.1705 -0.3512  0.1974
  905SOL    HW1 2714   2.140   2.714   1.734  0.0532 -1.6199 -1.5343
  905SOL    HW2 2715   2.054   2.845   1.806  1.4026  1.4408 -1.2933
  906SOL     OW 2716   1.737   2.811   0.065 -0.0624  0.2617  0.3559
  906SOL    HW1 2717   1.805   2.773   3.119 -1.5731 -0.3660 -0.8967
  906SOL    HW2 2718   1.700   2.899   0.033  0.7292 -1.4185  1.5936
  907SOL     OW 2719   0.279   2.741   0.925 -0.4610 -0.7106  0.1903
  907SOL    HW1 2720   0.269   2.822   0.990 -1.5431 -0.1541  2.4530
  907SOL    HW2 2721   0.234   2.768   0.839  2.4495 -1.2452  3.3676
  908SOL     OW 2722   0.828   2.808   1.807 -0.3777  0.1022 -0.1061
  908SOL    HW1 2723   0.879   2.896   1.808 -0.9492  2.5107  1.0637
  908SOL    HW2 2724   0.752   2.809   1.871  0.8622  0.3513 -0.7233
  909SOL     OW 2725   1.655   0.508   1.324  0.0011 -0.1935  0.1755
  909SOL    HW1 2726   1.684   0.546   1.415  0.2148 -1.0146 -0.3369
  909SOL    HW2 2727   1.558   0.482   1.322 -2.0497 -1.7799 -1.2506
  910SOL     OW 2728   0.681   0.428   0.292  0.5466 -0.6177 -0.1434
  910SOL    HW1 2729   0.594   0.385   0.258  2.0372  2.3901  0.4216
  910SOL    HW2 2730   0.693   0.392   0.385 -2.5227  0.2632 -1.3449
  911SOL     OW 2731   0.324   3.113   0.039 -0.7479  0.4741 -0.2790
  911SOL    HW1 2732   0.391   3.097   0.111 -1.3600  0.7857  0.0375
  911SOL    HW2 2733   0.246   3.049   0.066 -0.4816  1.0237  1.6045
  912SOL     OW 2734   3.038   2.167   2.794  0.0413  0.1383  0.1921
  912SOL    HW1 2735   3.083   2.222   2.868  0.8558 -0.4692 -1.0469
  912SOL    HW2 2736   3.065   2.206   2.702 -1.0593  3.9926 -2.6352
  913SOL     OW 2737   2.382   2.817   0.185  0.0530 -0.5375 -0.5927
  913SOL    HW1 2738   2.403   2.909   0.150 -3.0143 -2.0160 -0.7314
  913SOL    HW2 2739   2.412   2.813   0.283  1.2248  0.7521  1.8858
  914SOL     OW 2740   1.332   1.687   2.058 -0.2627 -0.0786 -0.1979
  914SOL    HW1 2741   1.419   1.634   2.073 -3.7606  1.3220 -0.7252
  914SOL    HW2 2742   1.341   1.786   2.071  1.6983 -1.1879 -1.4825
  915SOL     OW 2743   2.950   2.476   2.343 -0.4366  0.3550 -0.1870
  915SOL    HW1 2744   3.033   2.522   2.300  1.8179 -0.1466 -1.2290
  915SOL    HW2 2745   2.983   2.387   2.387  0.5450 -3.5285  2.1470
  916SOL     OW 2746   2.878   0.622   2.196  0.0349 -0.5848  0.7760
  916SOL    HW1 2747   2.818   0.705   2.209  1.0670  1.3861  0.4195
  916SOL    HW2 2748   2.977   0.647   2.180  2.5588  1.8843 -2.0938
  917SOL     OW 2749   1.879   0.030   0.118 -0.2979 -0.0742 -0.1500
  917SOL    HW1 2750   1.896   3.099   0.203 -0.6406 -1.3801  2.1439
  917SOL    HW2 2751   1.838   3.092   0.051  4.3717  2.9568  3.1001
  918SOL     OW 2752   1.862   2.920   2.179 -0.0741  0.4146 -0.1824
  918SOL    HW1 2753   1.840   2.908   2.278  1.4228  1.2168  0.8476
  918SOL    HW2 2754   1.799   2.989   2.136  0.3570  3.4055  0.3724
  919SOL     OW 2755   1.645   2.390   1.592  0.1290 -0.4459 -0.3473
  919SOL    HW1 2756   1.645   2.408   1.690 -0.3117 -0.8055 -1.6267
  919SOL    HW2 2757   1.551   2.367   1.569  0.5441 -0.7706  0.0936
  920SOL     OW 2758   3.098   0.917   0.096  0.1727 -0.4116 -0.1106
  920SOL    HW1 2759   0.034   0.846   0.148  2.3498 -3.0671  1.5125
  920SOL    HW2 2760   3.102   1.012   0.131 -2.0859 -2.7284 -0.0947
  921SOL     OW 2761   2.509   0.901   2.526 -0.4338 -0.0852 -0.1814
  921SOL    HW1 2762   2.604   0.935   2.502  0.2792 -1.2872  4.4275
  921SOL    HW2 2763   2.489   0.937   2.623  0.5934 -0.6449  0.9857
  922SOL     OW 2764   1.072   1.735   2.782  0.1047  0.1977 -0.5215
  922SOL    HW1 2765   1.038   1.831   2.770 -0.1551  0.0852  0.2193
  922SOL    HW2 2766   1.161   1.733   2.837  1.4682 -1.4652  0.4738
  923SOL     OW 2767   0.612   1.137   2.194 -0.3535 -0.0112  0.2019
  923SOL    HW1 2768   0.650   1.112   2.289 -2.2697 -1.9735  0.4202
  923SOL    HW2 2769   0.639   1.061   2.127 -0.0135  1.3315 -1.4503
  924SOL     OW 2770   0.278   2.358   2.766  0.3256  0.7164 -0.3736
  924SOL    HW1 2771   0.350   2.426   2.786 -2.4880 -1.1766  0.1090
  924SOL    HW2 2772   0.242   2.366   2.671 -0.1275 -0.7044 -1.1135
  925SOL     OW 2773   1.640   1.467   1.072  0.3309  0.5104 -0.1311
  925SOL    HW1 2774   1.658   1.366   1.064  0.6349  0.6812  1.8643
  925SOL    HW2 2775   1.544   1.482   1.103 -0.5870 -1.9330  0.4715
  926SOL     OW 2776   1.635   0.412   2.576 -0.7412 -0.0517 -0.3187
  926SOL    HW1 2777   1.536   0.385   2.584  0.2371  0.2039  0.5851
  926SOL    HW2 2778   1.642   0.512   2.588  0.4249  0.4013 -0.4560
  927SOL     OW 2779   2.318   2.808   2.052  0.3349 -0.0196  0.0165
  927SOL    HW1 2780   2.308   2.820   1.954 -0.1195  1.5982  0.3458
  927SOL    HW2 2781   2.285   2.892   2.094  0.3323 -0.1686  1.3206
  928SOL     OW 2782   0.615   1.334   2.865 -0.2562  0.0669 -0.2674
  928SOL    HW1 2783   0.523   1.366   2.826 -3.2363  0.2376 -0.5631
  928SOL    HW2 2784   0.687   1.363   2.800 -0.3847 -1.0958 -3.6807
  929SOL     OW 2785   0.085   0.303   0.871 -0.3726 -0.2201  0.9664
  929SOL    HW1 2786   0.103   0.265   0.777  0.2353 -3.6068 -1.9727
  929SOL    HW2 2787   0.118   0.229   0.937 -2.4761  0.3718  1.8354
  930SOL     OW 2788   2.384   0.437   1.919  0.1129  0.1298  0.4021
  930SOL    HW1 2789   2.302   0.396   1.884  0.7965 -0.7204  0.0323
  930SOL    HW2 2790   2.414   0.506   1.851 -1.0045  4.1412 -3.6522
  931SOL     OW 2791   2.236   1.197   3.115  0.4944  0.4737 -0.2524
  931SOL    HW1 2792   2.187   1.178   3.031 -2.2318 -1.4799  1.9059
  931SOL    HW2 2793   2.226   1.118   0.052  3.1920  2.3794 -2.9225
  932SOL     OW 2794   2.474   1.668   1.207 -0.8233  0.2635 -0.4921
  932SOL    HW1 2795   2.570   1.708   1.227  1.4489  1.1715  0.3213
  932SOL    HW2 2796   2.481   1.586   1.150  0.0140  2.2397  0.3057
  933SOL     OW 2797   3.015   2.664   1.702 -0.2419  0.1153  0.2580
  933SOL    HW1 2798   3.053   2.643   1.799 -0.4950  1.6308 -0.8989
  933SOL    HW2 2799   2.914   2.694   1.715 -2.9521  1.4599  1.7835
  934SOL     OW 2800   0.467   3.102   1.291  0.2109 -0.1944 -0.0118
  934SOL    HW1 2801   0.475   3.070   1.389 -1.2719 -0.0516  0.1846
  934SOL    HW2 2802   0.547   0.036   1.266 -3.1411 -0.5051 -1.5563
  935SOL     OW 2803   2.357   0.711   2.000 -0.3226 -0.2452 -0.3437
  935SOL    HW1 2804   2.323   0.756   2.089 -0.2625  0.0155  1.9400
  935SOL    HW2 2805   2.397   0.625   2.025 -1.9455  1.6671 -1.3096
  936SOL     OW 2806   2.368   0.893   1.816  0.4319 -0.3918 -0.2837
  936SOL    HW1 2807   2.354   0.864   1.717  1.0707 -1.4558 -2.2684
  936SOL    HW2 2808   2.352   0.814   1.878  1.7952  2.3106 -1.7803
  937SOL     OW 2809   1.845   1.247   1.806 -0.1375  0.7373  0.1724
  937SOL    HW1 2810   1.797   1.170   1.756 -0.8144 -0.8951 -0.2951
  937SOL    HW2 2811   1.885   1.310   1.739  1.1934  0.0201  0.1337
  938SOL     OW 2812   0.542   2.536   3.036 -0.1206  0.1206 -0.0964
  938SOL    HW1 2813   0.581   2.625   3.056 -0.8396  0.2055 -0.8496
  938SOL    HW2 2814   0.455   2.522   3.087  0.1342 -0.2392  4.1097
  939SOL     OW 2815   2.341   0.472   2.922  0.5136  0.2059  0.1955
  939SOL    HW1 2816   2.251   0.514   2.950 -1.8144 -0.3501  1.6726
  939SOL    HW2 2817   2.368   0.389   2.975  1.5016  1.1009 -2.4282
  940SOL     OW 2818   1.194   2.313   0.694  0.1970 -0.0015 -0.1912
  940SOL    HW1 2819   1.294   2.308   0.716  2.1771 -1.1967 -0.6134
  940SOL    HW2 2820   1.134   2.302   0.776 -1.4809 -0.1164 -0.6538
  941SOL     OW 2821   1.061   2.190   1.797  0.3043  0.2325  0.0377
  941SOL    HW1 2822   1.007   2.249   1.738  1.0562 -0.9905  0.8280
  941SOL    HW2 2823   1.052   2.093   1.772  0.0050 -2.2411 -0.3259
  942SOL     OW 2824   2.882   2.098   0.065 -0.1433 -0.3329 -0.3305
  942SOL    HW1 2825   2.929   2.006   0.078  0.3069 -3.4110  1.5943
  942SOL    HW2 2826   2.828   2.103   3.104  1.6764 -0.5028  2.7529
  943SOL     OW 2827   2.240   2.976   1.539  0.2034 -0.5993 -0.6114
  943SOL    HW1 2828   2.247   2.918   1.455 -0.7324  0.4584 -2.2561
  943SOL    HW2 2829   2.211   2.923   1.625  0.9156 -0.9099  1.6414
  944SOL     OW 2830   1.871   2.047   2.793  0.3336 -0.0101 -0.2974
  944SOL    HW1 2831   1.846   1.987   2.714 -1.1993  0.6429  0.2749
  944SOL    HW2 2832   1.845   2.145   2.787 -1.1944 -0.7723 -0.3667
  945SOL     OW 2833   2.686   2.136   0.896 -0.2215 -0.3700 -0.2383
  945SOL    HW1 2834   2.737   2.163   0.979 -0.3939 -2.0843  0.6007
  945SOL    HW2 2835   2.587   2.116   0.911 -2.0574 -1.9457  1.8871
  946SOL     OW 2836   1.292   1.388   2.712  0.2333  0.5285  0.3966
  946SOL    HW1 2837   1.196   1.382   2.683  0.8009  2.8472  0.1476
  946SOL    HW2 2838   1.347   1.467   2.675  0.5428 -0.3536  2.2756
  947SOL     OW 2839   0.225   0.732   2.079  0.0377  0.4706 -0.0465
  947SOL    HW1 2840   0.292   0.804   2.108  0.4103 -0.5123 -0.2263
  947SOL    HW2 2841   0.276   0.646   2.082  1.3064  0.1176 -2.5188
  948SOL     OW 2842   3.025   1.204   0.602  0.0978  0.3692 -0.0266
  948SOL    HW1 2843   0.001   1.225   0.602 -1.3871 -0.1844 -0.0183
  948SOL    HW2 2844   2.999   1.146   0.681 -0.5447 -0.3976  2.0783
  949SOL     OW 2845   0.673   0.493   2.688 -0.3625 -0.1450 -0.1462
  949SOL    HW1 2846   0.671   0.545   2.601  0.1721 -2.7533  1.0314
  949SOL    HW2 2847   0.701   0.397   2.675  2.8703  1.5735 -0.3563
  950SOL     OW 2848   0.204   0.659   1.392  0.0523 -0.2821  0.4485
  950SOL    HW1 2849   0.202   0.660   1.493  0.9433  0.4690  0.7223
  950SOL    HW2 2850   0.255   0.739   1.357 -0.7510 -1.6128 -2.2523
  951SOL     OW 2851   0.380   1.315   2.700 -0.1801  0.2743  0.3967
  951SOL    HW1 2852   0.338   1.332   2.611 -4.1587  2.4271  2.4719
  951SOL    HW2 2853   0.326   1.242   2.749  0.2887  1.8319 -2.3523
  952SOL     OW 2854   1.793   2.449   1.018  0.1002  0.1416  0.0619
  952SOL    HW1 2855   1.730   2.477   1.091  2.1294 -0.2708 -1.0734
  952SOL    HW2 2856   1.887   2.481   1.023 -2.8720  0.1817  0.7774
  953SOL     OW 2857   0.409   2.819   0.023 -0.5945 -0.1179 -0.1276
  953SOL    HW1 2858   0.313   2.825   0.037  2.9067  0.2529 -0.8099
  953SOL    HW2 2859   0.431   2.844   3.051 -3.2863  0.5270 -1.6092
  954SOL     OW 2860   2.716   1.012   1.121  0.2899  0.2600  0.1757
  954SOL    HW1 2861   2.775   1.015   1.204  0.2227  3.2378  1.5574
  954SOL    HW2 2862   2.733   1.098   1.075  1.4671 -1.8303 -0.1477
  955SOL     OW 2863   1.602   1.444   2.799  0.5569 -0.6136 -0.4860
  955SOL    HW1 2864   1.690   1.392   2.780  0.3293 -1.4501  1.3965
  955SOL    HW2 2865   1.537   1.384   2.852 -1.6708  1.0436 -1.0494
  956SOL     OW 2866   1.247   0.718   2.418 -0.3714  0.5052  0.2464
  956SOL    HW1 2867   1.208   0.622   2.412 -2.4716 -0.9789 -0.5232
  956SOL    HW2 2868   1.270   0.748   2.326 -2.6269 -1.1419  0.5235
  957SOL     OW 2869   0.963   0.466   1.532 -0.2536  0.0515  0.2969
  957SOL    HW1 2870   0.948   0.524   1.617  1.8306  2.6187  0.0027
  957SOL    HW2 2871   1.042   0.404   1.550  0.7563  0.8322  0.7711
  958SOL     OW 2872   0.385   1.912   0.442 -0.1595 -0.0305  0.3652
  958SOL    HW1 2873   0.321   1.891   0.522 -0.5219  0.6345  0.2828
  958SOL    HW2 2874   0.340   1.889   0.350  1.1514 -0.6637  2.3495
  959SOL     OW 2875   2.113   0.720   1.681 -0.4663  0.3475  0.5868
  959SOL    HW1 2876   2.191   0.684   1.623  0.7760 -0.4488 -0.6469
  959SOL    HW2 2877   2.105   0.688   1.777 -0.1813  2.7365 -2.1725
  960SOL     OW 2878   0.220   1.540   2.969  0.5732 -0.3530  0.4034
  960SOL    HW1 2879   0.313   1.577   2.991  1.7880  1.1942  0.1697
  960SOL    HW2 2880   0.214   1.444   3.005 -1.1704  1.6238  1.4232
  961SOL     OW 2881   0.857   1.677   0.719  0.0840 -0.1088  0.1095
  961SOL    HW1 2882   0.799   1.748   0.682 -0.1858 -2.6690  1.8070
  961SOL    HW2 2883   0.940   1.722   0.752 -0.3316  0.4166 -2.8080
  962SOL     OW 2884   0.594   1.590   1.286 -0.1240  0.2772  0.4060
  962SOL    HW1 2885   0.558   1.590   1.191  1.1708  1.4076 -0.6392
  962SOL    HW2 2886   0.672   1.523   1.292 -0.1063 -0.0827  0.4222
  963SOL     OW 2887   1.565   2.392   2.554 -0.0654  0.6122  0.1942
  963SOL    HW1 2888   1.505   2.311   2.571  0.7583 -2.7467  1.4954
  963SOL    HW2 2889   1.665   2.361   2.564  2.1966 -5.5931  0.8356
  964SOL     OW 2890   0.016   2.883   2.532 -0.4070  0.3213  0.1119
  964SOL    HW1 2891   3.099   2.976   2.510 -0.5507 -0.3216  0.3187
  964SOL    HW2 2892   3.075   2.808   2.526  0.4761  1.2473 -0.7701
  965SOL     OW 2893   2.799   2.104   2.884  0.2894 -0.1298  0.1723
  965SOL    HW1 2894   2.890   2.138   2.851 -1.0280  1.6650 -1.3345
  965SOL    HW2 2895   2.772   2.023   2.826 -1.9117 -1.5529 -1.7237
  966SOL     OW 2896   2.729   1.517   2.821  0.1191  0.2387 -0.0035
  966SOL    HW1 2897   2.686   1.439   2.772  3.1379 -0.6141  2.1738
  966SOL    HW2 2898   2.660   1.588   2.847  0.2434  1.6849  0.8758
  967SOL     OW 2899   1.918   0.167   0.473 -0.1430 -0.1473  0.1342
  967SOL    HW1 2900   1.988   0.105   0.440 -1.6795  0.9824  1.2754
  967SOL    HW2 2901   1.829   0.124   0.498 -2.1554 -1.1443 -1.2204
  968SOL     OW 2902   2.555   0.024   0.843 -0.1451 -0.4369 -0.3832
  968SOL    HW1 2903   2.544   0.028   0.946  3.3063 -0.0859  1.3688
  968SOL    HW2 2904   2.506   0.097   0.792  0.8560 -1.3329 -2.1706
  969SOL     OW 2905   0.351   1.048   1.986 -0.7196  0.0980 -0.4034
  969SOL    HW1 2906   0.289   1.032   1.905 -1.5390 -1.7443 -0.8441
  969SOL    HW2 2907   0.403   1.130   1.960  1.8617 -2.4169 -0.3226
  970SOL     OW 2908   1.989   1.677   2.855  0.6978  0.1014 -0.0291
  970SOL    HW1 2909   1.929   1.635   2.780 -1.4676 -0.1894  0.7380
  970SOL    HW2 2910   1.934   1.741   2.917 -3.2529  0.0055 -0.5993
  971SOL     OW 2911   2.163   0.325   1.801  0.1341  0.4428  0.0589
  971SOL    HW1 2912   2.131   0.234   1.836 -3.2924  0.1825  1.6289
  971SOL    HW2 2913   2.118   0.352   1.712  0.1665  1.3727  1.0749
  972SOL     OW 2914   3.032   0.429   1.043 -0.2999  0.1653  0.2558
  972SOL    HW1 2915   2.937   0.418   0.999 -0.7698 -1.1406 -2.3858
  972SOL    HW2 2916   3.102   0.382   0.980  0.3454 -1.8509 -0.5496
  973SOL     OW 2917   0.456   0.347   2.419 -0.4170 -0.0069  0.6570
  973SOL    HW1 2918   0.434   0.324   2.322 -0.2390  2.2875 -2.6185
  973SOL    HW2 2919   0.474   0.268   2.482  1.2673 -1.1222 -0.7997
  974SOL     OW 2920   2.982   1.077   1.637 -0.4941 -0.3628 -0.0255
  974SOL    HW1 2921   2.956   1.158   1.580 -3.4939 -0.4817 -4.1466
  974SOL    HW2 2922   2.906   1.013   1.640 -0.2416  1.2937 -0.8865
  975SOL     OW 2923   1.504   3.028   2.143  0.4843  0.1547  0.0079
  975SOL    HW1 2924   1.591   3.073   2.116 -3.3033  0.3023 -0.0818
  975SOL    HW2 2925   1.506   2.932   2.182 -0.5433  2.1903 -1.2960
  976SOL     OW 2926   2.080   1.633   1.522  0.1830  0.0529  0.4119
  976SOL    HW1 2927   2.065   1.674   1.432  2.9305  0.0003  1.3674
  976SOL    HW2 2928   2.068   1.697   1.602 -0.7133 -1.7149  2.1671
  977SOL     OW 2929   2.992   2.885   3.084 -0.5369  0.1731  0.3120
  977SOL    HW1 2930   2.983   2.788   3.117  1.0853 -0.7428 -1.4444
  977SOL    HW2 2931   2.902   2.930   3.078  1.2385 -0.2653 -0.4823
  978SOL     OW 2932   2.194   1.320   2.010  0.1033  0.2492 -0.7550
  978SOL    HW1 2933   2.152   1.410   2.031  0.8509  2.8532 -2.0942
  978SOL    HW2 2934   2.127   1.243   1.992  0.2146 -0.4395 -0.3142
  979SOL     OW 2935   1.000   0.942   2.351  0.3174 -0.2054 -0.6479
  979SOL    HW1 2936   1.085   0.978   2.392  1.8951  0.9355 -0.8332
  979SOL    HW2 2937   1.011   0.920   2.250  0.0607  0.6857 -2.6082
  980SOL     OW 2938   1.836   1.853   2.633  0.3056  0.7959  0.0625
  980SOL    HW1 2939   1.812   1.896   2.543  0.6316 -1.8580  0.5666
  980SOL    HW2 2940   1.817   1.753   2.621  0.9359 -3.4910 -2.2901
  981SOL     OW 2941   1.779   0.970   1.799 -0.2384 -0.4242 -0.2493
  981SOL    HW1 2942   1.877   0.945   1.791  0.7453  1.6662 -1.3107
  981SOL    HW2 2943   1.739   0.966   1.894 -2.1488  2.6883  1.6295
  982SOL     OW 2944   0.447   0.321   0.175  0.0415 -0.3622  0.1441
  982SOL    HW1 2945   0.356   0.288   0.206  0.3126 -0.1391 -0.4014
  982SOL    HW2 2946   0.459   0.317   0.077  0.6511 -2.6983  0.6236
  983SOL     OW 2947   2.085   0.531   3.072 -0.5221  0.0174  0.1418
  983SOL    HW1 2948   2.087   0.535   0.046  1.6347  3.7478 -2.0783
  983SOL    HW2 2949   2.010   0.581   3.022 -4.4979 -3.0763 -0.6614
  984SOL     OW 2950   1.185   0.299   2.861 -0.3892 -0.0315 -0.0221
  984SOL    HW1 2951   1.270   0.266   2.821 -0.3094  3.9451 -1.8591
  984SOL    HW2 2952   1.152   0.243   2.938 -1.0895  1.8981 -1.1710
  985SOL     OW 2953   1.378   2.490   1.995 -0.2902 -0.9862 -0.1576
  985SOL    HW1 2954   1.308   2.470   2.064  0.3984  1.2726 -3.3957
  985SOL    HW2 2955   1.364   2.584   1.951 -0.6425 -0.7137 -2.1151
  986SOL     OW 2956   2.438   2.979   1.735 -0.1384 -0.1731  0.1974
  986SOL    HW1 2957   2.383   2.955   1.652 -1.5028 -2.1839 -1.2127
  986SOL    HW2 2958   2.463   3.082   1.737 -4.1161 -1.4155  1.8288
  987SOL     OW 2959   1.787   1.471   0.818  0.5160 -0.5244  0.1802
  987SOL    HW1 2960   1.746   1.484   0.909 -2.2719  0.6096 -1.8613
  987SOL    HW2 2961   1.857   1.542   0.800 -1.2199 -3.9387  0.2645
  988SOL     OW 2962   2.551   1.145   1.587  0.4999 -0.1962  0.1880
  988SOL    HW1 2963   2.491   1.186   1.659  4.4435  1.1558 -2.9484
  988SOL    HW2 2964   2.561   1.218   1.517 -2.1638  0.3965  1.9659
  989SOL     OW 2965   1.920   1.882   3.007 -0.4786  0.5928 -0.2548
  989SOL    HW1 2966   1.899   1.942   2.927 -0.6327 -0.3366 -1.0546
  989SOL    HW2 2967   2.007   1.912   3.061  1.7150  1.3918  2.2913
  990SOL     OW 2968   1.621   0.793   2.375 -0.1543  0.8911  0.2674
  990SOL    HW1 2969   1.721   0.763   2.351  3.4386  0.4561 -1.1124
  990SOL    HW2 2970   1.622   0.891   2.403  1.2367 -0.5164 -0.0158
  991SOL     OW 2971   0.899   0.805   0.782 -0.2390  0.1809 -0.4527
  991SOL    HW1 2972   0.988   0.829   0.734 -2.4145 -1.3336  0.0626
  991SOL    HW2 2973   0.887   0.847   0.875 -1.2757  0.6362 -0.8930
  992SOL     OW 2974   0.189   1.060   1.273  0.0141 -0.0969  0.0524
  992SOL    HW1 2975   0.208   1.158   1.300  2.5456  0.7541  0.9043
  992SOL    HW2 2976   0.191   1.052   1.174  0.3973 -0.2492 -0.7607
  993SOL     OW 2977   2.051   0.615   1.937 -0.2224 -0.6050  0.1826
  993SOL    HW1 2978   2.113   0.650   2.009 -2.4672 -2.2247 -1.8639
  993SOL    HW2 2979   2.046   0.513   1.944 -1.6947 -1.4176 -1.7261
  994SOL     OW 2980   1.354   1.896   1.768 -0.2834  0.7879  0.0658
  994SOL    HW1 2981   1.379   1.969   1.831 -1.7302 -1.5841 -0.9936
  994SOL    HW2 2982   1.256   1.874   1.780  0.5551  0.9746  1.2306
  995SOL     OW 2983   2.344   1.918   2.898 -0.0298  0.2356  0.0166
  995SOL    HW1 2984   2.422   1.977   2.920  0.2166 -0.2048  0.3916
  995SOL    HW2 2985   2.275   1.955   2.834  1.2142  0.6460 -1.5247
  996SOL     OW 2986   2.241   1.812   0.625  0.1406 -0.2918 -0.6201
  996SOL    HW1 2987   2.327   1.866   0.649  3.0784  4.7724  1.4265
  996SOL    HW2 2988   2.256   1.711   0.643 -0.5526 -0.4905 -0.5699
  997SOL     OW 2989   1.872   0.689   2.304  0.3276 -0.1949  0.0756
  997SOL    HW1 2990   1.848   0.689   2.209 -1.0395  1.8378  3.0206
  997SOL    HW2 2991   1.873   0.601   2.350  0.7628  1.4150 -2.0542
  998SOL     OW 2992   2.509   0.797   0.751  0.4172 -0.0975 -0.1178
  998SOL    HW1 2993   2.469   0.752   0.832  1.1532  0.2822 -1.6338
  998SOL    HW2 2994   2.443   0.860   0.711  2.1563 -0.6639  1.5067
  999SOL     OW 2995   2.479   1.216   0.450  0.3174 -0.2779  0.4904
  999SOL    HW1 2996   2.530   1.199   0.536 -0.0747 -0.6012  0.3300
  999SOL    HW2 2997   2.528   1.282   0.388  0.9248 -1.2236 -1.7246
 1000SOL     OW 2998   0.654   1.226   1.820 -0.1211  0.2977  0.1945
 1000SOL    HW1 2999   0.569   1.263   1.861  1.3644  1.7192 -0.7956
 1000SOL    HW2 3000   0.644   1.134   1.775 -1.1536  2.5101 -1.1267
   3.12316   3.12316   3.12316
