1000 SPC/Fw water molecules t= 399.00000 step= 399000
 3000
    1SOL     OW    1   0.030   2.873   1.751 -0.1405 -0.0907  0.7072
    1SOL    HW1    2   3.052   2.822   1.759  1.9248  2.4620  0.7291
    1SOL    HW2    3   0.112   2.811   1.726  2.8442 -1.0017 -2.2737
    2SOL     OW    4   2.473   2.573   0.318 -0.6864 -0.2621 -0.2343
    2SOL    HW1    5   2.538   2.564   0.242 -2.4325 -0.1304 -0.2623
    2SOL    HW2    6   2.437   2.667   0.330  1.7758  1.2156 -2.2247
    3SOL     OW    7   1.414   2.775   0.190 -0.2841 -0.1097 -0.1778
    3SOL    HW1    8   1.434   2.863   0.235 -0.4360 -0.2115 -1.3362
    3SOL    HW2    9   1.314   2.777   0.184 -0.0846  1.2108 -0.2506
    4SOL     OW   10   1.124   3.035   2.410  0.0066 -0.1408  0.2727
    4SOL    HW1   11   1.204   2.973   2.410  1.3157 -1.6134  0.9098
    4SOL    HW2   12   1.113   3.080   2.321  1.1681  1.3361  3.0868
    5SOL     OW   13   2.126   3.030   1.581 -0.1415  0.3670 -0.2151
    5SOL    HW1   14   2.122   2.953   1.647  3.0648  2.4078 -0.5539
    5SOL    HW2   15   2.210   3.031   1.527 -2.0356  0.6530  2.0207
    6SOL     OW   16   2.377   1.972   0.538 -0.5231  0.1254  0.3264
    6SOL    HW1   17   2.353   1.873   0.546 -1.0076 -2.3670 -1.1868
    6SOL    HW2   18   2.299   2.013   0.490 -1.1987 -2.3337  1.2663
    7SOL     OW   19   2.317   1.285   0.703  0.1799 -0.2780  0.2684
    7SOL    HW1   20   2.418   1.271   0.708 -0.2182 -1.9883 -0.8966
    7SOL    HW2   21   2.293   1.303   0.603 -1.4575 -1.8908 -0.7126
    8SOL     OW   22   0.447   1.409   0.980  0.0384  0.3662 -0.8120
    8SOL    HW1   23   0.538   1.426   1.024 -1.2967  0.2663 -0.3944
    8SOL    HW2   24   0.452   1.394   0.882  0.5201  0.4349  4.4068
    9SOL     OW   25   0.246   2.735   1.709 -0.0811 -0.7066 -0.4154
    9SOL    HW1   26   0.318   2.781   1.656  0.0289  2.5611 -1.3227
    9SOL    HW2   27   0.223   2.649   1.656 -1.4452 -2.8555  0.6086
   10SOL     OW   28   1.129   2.385   0.416  0.0189  0.3430 -0.6213
   10SOL    HW1   29   1.210   2.333   0.388 -2.0806 -0.6416 -0.8276
   10SOL    HW2   30   1.162   2.457   0.479  0.5804  0.4793 -1.3560
   11SOL     OW   31   1.558   2.069   1.060 -0.1706  0.1948  0.4140
   11SOL    HW1   32   1.654   2.074   1.021  2.3883 -0.6185 -2.6948
   11SOL    HW2   33   1.564   2.080   1.161 -0.9992  0.7433  1.6734
   12SOL     OW   34   2.701   0.517   2.035 -0.2068  0.0151 -0.5298
   12SOL    HW1   35   2.717   0.615   2.050  0.6038 -2.3622 -2.6615
   12SOL    HW2   36   2.683   0.463   2.122  0.7446 -0.1159  4.3987
   13SOL     OW   37   2.647   2.879   0.266 -0.2615  0.0495 -0.3737
   13SOL    HW1   38   2.732   2.817   0.272 -0.0323 -3.4110  1.0056
   13SOL    HW2   39   2.611   2.875   0.170  0.6646  0.4380 -1.2494
   14SOL     OW   40   1.882   1.396   3.099 -0.0852  0.5826  0.2505
   14SOL    HW1   41   1.810   1.348   3.043  0.0668  1.1803 -2.6083
   14SOL    HW2   42   1.861   1.393   0.087 -1.8415 -0.2695  1.0909
   15SOL     OW   43   2.700   2.438   2.000 -0.2906 -0.4832 -0.4086
   15SOL    HW1   44   2.607   2.399   1.992 -0.1995 -0.0317 -2.1052
   15SOL    HW2   45   2.740   2.403   2.086 -0.7727 -0.6615 -0.8368
   16SOL     OW   46   2.864   3.000   0.773 -0.3332  0.0461  0.1071
   16SOL    HW1   47   2.867   3.059   0.856  2.6840  1.5360 -1.1652
   16SOL    HW2   48   2.786   2.932   0.773 -0.0053  1.6931 -0.2437
   17SOL     OW   49   1.107   0.156   1.160 -0.2075 -0.1474 -0.2332
   17SOL    HW1   50   1.025   0.216   1.146 -1.8840 -0.7321  2.7764
   17SOL    HW2   51   1.125   0.151   1.262 -1.2759  0.1485 -1.8894
   18SOL     OW   52   1.670   0.111   1.063  0.4807  0.5846  0.5181
   18SOL    HW1   53   1.737   0.046   1.109  1.2224  1.9362  3.5456
   18SOL    HW2   54   1.691   0.205   1.088 -2.7513 -0.3720  0.4058
   19SOL     OW   55   2.368   1.351   0.236 -0.2133 -0.0174  0.0043
   19SOL    HW1   56   2.307   1.375   0.156 -0.6448 -0.1732 -1.7609
   19SOL    HW2   57   2.431   1.429   0.257 -1.3412 -1.6834 -1.1087
   20SOL     OW   58   2.449   1.587   2.465 -0.2004  0.6602 -0.7231
   20SOL    HW1   59   2.403   1.502   2.503 -2.7911  0.6410  1.0898
   20SOL    HW2   60   2.419   1.663   2.522 -1.1358 -1.7401 -0.4294
   21SOL     OW   61   1.431   2.981   0.479 -0.5548  0.0755 -0.1139
   21SOL    HW1   62   1.520   2.929   0.482 -0.7561  0.3382 -1.5686
   21SOL    HW2   63   1.363   2.945   0.545 -0.3952  2.4517 -0.7716
   22SOL     OW   64   2.929   0.841   0.872 -0.1436 -0.1253 -0.4284
   22SOL    HW1   65   2.928   0.785   0.957 -0.0953  0.3594 -0.4260
   22SOL    HW2   66   2.835   0.872   0.859  0.3525 -2.1961  1.1253
   23SOL     OW   67   0.537   3.007   1.994  0.2686 -0.3704 -0.3844
   23SOL    HW1   68   0.591   3.092   1.995 -0.2049 -1.0890 -0.2311
   23SOL    HW2   69   0.444   3.035   1.955 -2.2280  2.8201  1.3145
   24SOL     OW   70   2.341   2.494   0.759 -0.2028  0.8495 -0.1954
   24SOL    HW1   71   2.413   2.528   0.696  2.2534  1.5690  1.9949
   24SOL    HW2   72   2.343   2.392   0.757 -0.9225 -0.7956  0.9920
   25SOL     OW   73   1.916   0.167   2.511  0.0578  0.6765  0.5201
   25SOL    HW1   74   1.919   0.209   2.601 -1.6338 -0.9070  1.3660
   25SOL    HW2   75   1.951   0.229   2.443  0.1516 -1.7861  1.7954
   26SOL     OW   76   1.476   2.481   3.082  1.4089 -0.1464 -0.2295
   26SOL    HW1   77   1.505   2.578   3.066 -0.0805 -0.1751  1.7573
   26SOL    HW2   78   1.377   2.472   3.104  1.8977  0.3110  2.6379
   27SOL     OW   79   1.482   0.697   1.094 -0.6629 -0.1581 -0.0200
   27SOL    HW1   80   1.393   0.709   1.142 -0.7875  0.6945 -2.0453
   27SOL    HW2   81   1.466   0.655   1.003 -1.1146  0.8030  0.0108
   28SOL     OW   82   0.842   1.305   0.607  0.1192  0.1530  0.3485
   28SOL    HW1   83   0.821   1.254   0.524  1.0841  0.8453  0.6535
   28SOL    HW2   84   0.931   1.289   0.652  3.1603 -0.0660 -1.1785
   29SOL     OW   85   2.689   0.420   1.496  0.0548 -0.6829  0.7279
   29SOL    HW1   86   2.660   0.333   1.538 -2.2111 -1.6076  0.4468
   29SOL    HW2   87   2.654   0.501   1.551 -0.0253  1.1533  0.5605
   30SOL     OW   88   1.169   2.815   1.353  0.1945  0.1139 -0.0635
   30SOL    HW1   89   1.152   2.806   1.453  0.3956 -1.0000  0.6613
   30SOL    HW2   90   1.164   2.721   1.308 -2.0449  2.3045  0.9550
   31SOL     OW   91   1.659   2.963   1.614  0.3485 -0.2074  0.1183
   31SOL    HW1   92   1.671   2.915   1.702  2.1956  0.9105 -2.6220
   31SOL    HW2   93   1.744   2.953   1.555  2.3929  1.3494  1.1603
   32SOL     OW   94   1.564   1.852   2.624  0.7538  0.4449  0.3222
   32SOL    HW1   95   1.490   1.827   2.562 -2.1492  0.1137 -2.7183
   32SOL    HW2   96   1.620   1.770   2.649 -3.1252  1.2404  2.6204
   33SOL     OW   97   2.593   0.784   2.524  0.3015  0.0370  0.3222
   33SOL    HW1   98   2.536   0.769   2.444  0.9820  1.8209  0.6446
   33SOL    HW2   99   2.554   0.734   2.605  1.2118 -0.1059 -1.9263
   34SOL     OW  100   1.853   0.459   0.442 -0.6493  0.5326  0.0381
   34SOL    HW1  101   1.882   0.519   0.519 -2.1768  2.2700  1.0369
   34SOL    HW2  102   1.756   0.471   0.417  1.1642  2.4343  1.3534
   35SOL     OW  103   3.087   2.035   2.270 -0.2316 -0.0198  0.0383
   35SOL    HW1  104   3.001   2.051   2.224  3.3602 -0.9303 -2.0709
   35SOL    HW2  105   3.096   2.099   2.347  2.1396 -2.0832 -0.4518
   36SOL     OW  106   2.340   1.838   3.091  0.1973 -0.3077  0.6583
   36SOL    HW1  107   2.296   1.783   3.011 -0.3723 -1.2256 -1.8858
   36SOL    HW2  108   2.373   1.931   3.051  0.7287  1.7820 -2.3772
   37SOL     OW  109   1.932   0.352   1.445 -0.5750 -0.3428 -0.2548
   37SOL    HW1  110   1.922   0.428   1.506 -1.4051 -2.3262 -1.5682
   37SOL    HW2  111   2.014   0.301   1.469 -3.5650  0.6170 -1.6874
   38SOL     OW  112   0.293   0.490   2.476 -0.5077 -0.0479  0.4963
   38SOL    HW1  113   0.274   0.545   2.388 -0.2886  0.5133 -2.4295
   38SOL    HW2  114   0.336   0.551   2.546  1.0165 -0.0023 -0.5482
   39SOL     OW  115   1.899   1.194   1.471  0.0018 -0.6794  0.1360
   39SOL    HW1  116   1.821   1.170   1.406 -1.6935 -1.3241  2.1551
   39SOL    HW2  117   1.932   1.285   1.441  0.8236  1.5263 -0.5611
   40SOL     OW  118   1.095   1.700   0.984  0.1125  0.2769 -0.9391
   40SOL    HW1  119   1.127   1.786   1.029 -0.2617  1.1494  0.6393
   40SOL    HW2  120   1.176   1.656   0.945  0.4517 -1.1510  0.5258
   41SOL     OW  121   1.967   2.072   1.164 -0.5283 -0.7544  0.6964
   41SOL    HW1  122   2.015   1.982   1.147 -1.0086 -0.7967  0.7779
   41SOL    HW2  123   1.944   2.095   1.259  0.9686  0.8691 -0.4030
   42SOL     OW  124   2.904   0.693   1.115  0.8104  0.1144 -0.7449
   42SOL    HW1  125   2.998   0.655   1.110  0.5105  1.5503  1.5707
   42SOL    HW2  126   2.895   0.757   1.197  2.5228  2.4445  1.3733
   43SOL     OW  127   0.581   1.796   3.087  0.5407  0.8091  0.2455
   43SOL    HW1  128   0.575   1.841   0.064  1.8420  1.9026 -2.1864
   43SOL    HW2  129   0.553   1.698   3.093 -0.1403 -0.8382 -0.5156
   44SOL     OW  130   1.527   2.512   1.533 -0.4566 -0.9598 -0.7223
   44SOL    HW1  131   1.510   2.523   1.633  0.7156 -1.4575 -0.5544
   44SOL    HW2  132   1.522   2.596   1.477 -0.9492 -0.0532 -0.9590
   45SOL     OW  133   0.924   2.859   2.493  0.0024 -0.0316 -0.0940
   45SOL    HW1  134   1.001   2.918   2.477 -0.9981 -3.7522 -0.4345
   45SOL    HW2  135   0.911   2.805   2.411  1.3322  0.0587  1.7714
   46SOL     OW  136   0.842   2.281   2.298  0.0606  0.1391  0.4859
   46SOL    HW1  137   0.876   2.289   2.201  0.5678 -1.4328  0.6771
   46SOL    HW2  138   0.859   2.368   2.348  1.9703 -1.8594 -1.6486
   47SOL     OW  139   0.912   2.204   1.079 -0.1796  0.4124  0.4005
   47SOL    HW1  140   0.844   2.274   1.092  2.1700 -3.0457 -1.3104
   47SOL    HW2  141   0.873   2.109   1.083 -1.4159  1.7658 -0.7071
   48SOL     OW  142   0.571   2.451   1.365  0.5197 -0.0603  0.4285
   48SOL    HW1  143   0.525   2.481   1.279 -1.4276  2.1210 -0.6856
   48SOL    HW2  144   0.589   2.350   1.365 -0.2789 -0.4920 -0.7862
   49SOL     OW  145   2.464   0.029   0.023  0.3802  0.7950  0.3010
   49SOL    HW1  146   2.457   0.113   0.077  2.3246 -0.1965  0.6206
   49SOL    HW2  147   2.554   0.035   3.088  0.3820 -1.2218  0.1121
   50SOL     OW  148   1.629   0.786   0.374  0.6057 -0.8523 -0.4911
   50SOL    HW1  149   1.701   0.769   0.310 -1.2436  0.9748  2.7539
   50SOL    HW2  150   1.643   0.857   0.447 -0.1083 -0.2399  0.4292
   51SOL     OW  151   2.006   0.859   0.770 -0.3645 -0.0348 -0.2391
   51SOL    HW1  152   1.960   0.880   0.859  0.0679  0.8619  1.7574
   51SOL    HW2  153   2.083   0.928   0.755 -0.7679  1.4190  1.9633
   52SOL     OW  154   0.573   1.574   0.265  0.2790 -0.8915 -0.1135
   52SOL    HW1  155   0.616   1.564   0.174  1.3224  0.7235  2.0939
   52SOL    HW2  156   0.539   1.486   0.300  0.2931  1.6459 -1.2145
   53SOL     OW  157   0.399   1.169   2.980 -0.3055  0.1293 -0.2167
   53SOL    HW1  158   0.484   1.142   3.031  1.5903 -0.8712 -0.5311
   53SOL    HW2  159   0.405   1.138   2.884 -0.9436 -2.1301  2.0076
   54SOL     OW  160   2.328   1.414   2.250  0.5690 -0.1890  0.0522
   54SOL    HW1  161   2.388   1.477   2.302  1.6370  0.0814  1.3535
   54SOL    HW2  162   2.347   1.430   2.150  3.8432  1.5784 -3.5449
   55SOL     OW  163   2.616   2.339   0.841 -0.5037 -0.0194  0.2751
   55SOL    HW1  164   2.578   2.431   0.853  3.0613  0.8884  1.1028
   55SOL    HW2  165   2.540   2.277   0.862  3.3922  1.7496 -1.2892
   56SOL     OW  166   1.870   3.068   1.164  0.0124  0.6349 -0.5351
   56SOL    HW1  167   1.823   3.029   1.244  1.4957  0.8982 -0.6010
   56SOL    HW2  168   1.876   2.999   1.090  0.2084  1.0877 -2.0521
   57SOL     OW  169   1.572   1.405   0.348 -0.5275  0.4677 -0.6091
   57SOL    HW1  170   1.510   1.337   0.389  2.0158 -0.1422 -1.8087
   57SOL    HW2  171   1.520   1.490   0.314 -0.9994 -2.9525  0.1061
   58SOL     OW  172   2.413   0.187   1.452 -0.2715 -0.3348  0.0902
   58SOL    HW1  173   2.309   0.198   1.454 -2.6480 -0.3990  1.1257
   58SOL    HW2  174   2.456   0.198   1.545  0.3354  0.1380 -0.5983
   59SOL     OW  175   1.230   2.454   2.699  0.0544 -0.0693  0.1568
   59SOL    HW1  176   1.318   2.491   2.661  4.2281 -2.2302 -0.2197
   59SOL    HW2  177   1.154   2.522   2.695  2.5461 -0.4914 -0.6774
   60SOL     OW  178   2.905   2.605   2.741 -0.5840  0.5234 -0.1020
   60SOL    HW1  179   2.901   2.597   2.840  0.2804 -0.6582 -0.4041
   60SOL    HW2  180   2.845   2.679   2.710  1.2941  1.5223 -0.7836
   61SOL     OW  181   0.774   2.428   1.115  0.3290 -0.0152  0.2965
   61SOL    HW1  182   0.820   2.522   1.107  1.2799  0.9350  1.5127
   61SOL    HW2  183   0.686   2.419   1.063  2.1719  1.0151 -2.5017
   62SOL     OW  184   1.674   1.748   2.222 -0.3024  0.1322  0.0188
   62SOL    HW1  185   1.761   1.708   2.179 -0.8084  0.0195 -2.0450
   62SOL    HW2  186   1.683   1.848   2.216  0.9750 -1.7583  0.4623
   63SOL     OW  187   1.858   1.808   0.215  0.1240 -0.3177  0.3144
   63SOL    HW1  188   1.956   1.809   0.183 -2.4300 -0.8818 -0.9071
   63SOL    HW2  189   1.810   1.886   0.164 -0.2750  2.5935 -2.3790
   64SOL     OW  190   1.877   1.124   0.226 -0.1698 -0.5484 -0.5919
   64SOL    HW1  191   1.901   1.191   0.301 -1.5585 -2.2204  0.2975
   64SOL    HW2  192   1.778   1.107   0.241 -1.1845 -2.0349 -0.5774
   65SOL     OW  193   2.032   2.287   1.995 -0.2541  0.7712 -0.6540
   65SOL    HW1  194   2.062   2.195   2.021  0.5183 -1.0853 -2.2311
   65SOL    HW2  195   1.932   2.298   1.994  1.1093 -3.2007 -0.2581
   66SOL     OW  196   0.267   1.072   1.401 -0.7532  0.4723 -0.5169
   66SOL    HW1  197   0.331   1.006   1.356  0.7058  1.0414  1.7627
   66SOL    HW2  198   0.313   1.159   1.425  0.8557  0.9032  0.7417
   67SOL     OW  199   2.086   2.892   0.168 -0.0640 -0.1462  0.2681
   67SOL    HW1  200   2.161   2.843   0.211 -1.7522  1.9270 -0.2728
   67SOL    HW2  201   2.084   2.858   0.072  1.1408 -1.3884  0.6482
   68SOL     OW  202   1.836   2.473   1.241 -0.0450 -0.0062  0.1948
   68SOL    HW1  203   1.927   2.475   1.194  0.8959 -2.9039  0.8966
   68SOL    HW2  204   1.769   2.507   1.171 -0.0683  0.7710  0.7936
   69SOL     OW  205   2.841   1.959   2.893 -0.0771 -0.3827  0.1749
   69SOL    HW1  206   2.788   1.877   2.865 -0.7064 -1.8674 -1.8484
   69SOL    HW2  207   2.891   1.956   2.982  1.3907  2.3692 -1.5001
   70SOL     OW  208   0.083   1.029   2.174  0.1902  0.4828  0.1192
   70SOL    HW1  209   0.093   1.101   2.100  0.8578  1.0900  2.2680
   70SOL    HW2  210   0.030   1.059   2.254 -1.1796 -0.4306  1.1254
   71SOL     OW  211   0.943   1.074   2.453 -0.4838 -0.3036  0.3988
   71SOL    HW1  212   0.887   1.086   2.363 -0.2604  1.2756 -4.6124
   71SOL    HW2  213   0.983   0.979   2.468 -0.1004 -0.5086  0.3722
   72SOL     OW  214   2.629   1.348   2.146  0.2094 -0.7328 -0.2466
   72SOL    HW1  215   2.544   1.305   2.117  2.2144  2.9250  0.5659
   72SOL    HW2  216   2.707   1.296   2.109 -2.0567 -0.3138 -2.4683
   73SOL     OW  217   1.156   1.859   2.980 -0.0739  0.1590 -0.1353
   73SOL    HW1  218   1.083   1.929   2.971  2.0179 -1.9895 -0.9264
   73SOL    HW2  219   1.233   1.904   3.026 -3.4711 -0.0741 -1.1465
   74SOL     OW  220   2.096   3.069   2.446  0.7419  0.0878 -0.1343
   74SOL    HW1  221   2.019   0.020   2.463  0.5921 -1.1047 -0.2065
   74SOL    HW2  222   2.182   0.004   2.481  1.0773  0.3837 -0.3150
   75SOL     OW  223   1.588   2.477   0.776  0.7621 -0.4371  0.1683
   75SOL    HW1  224   1.547   2.510   0.866 -1.1905 -3.4048  1.1782
   75SOL    HW2  225   1.653   2.404   0.797  1.1676  0.0342 -0.8831
   76SOL     OW  226   2.719   1.731   2.839 -0.0952  0.8399 -0.4302
   76SOL    HW1  227   2.658   1.681   2.899  0.1088 -1.0654  1.1661
   76SOL    HW2  228   2.798   1.672   2.826 -1.6428 -0.2011 -1.4832
   77SOL     OW  229   3.055   2.465   1.698  0.0148  0.1999  0.3534
   77SOL    HW1  230   3.076   2.500   1.787  2.3334 -2.6452 -3.5027
   77SOL    HW2  231   3.026   2.367   1.696  0.0078 -2.5178  0.5633
   78SOL     OW  232   2.488   1.015   3.093  0.1867  0.1330  0.1632
   78SOL    HW1  233   2.463   1.030   0.083 -2.0424  0.2642  2.3163
   78SOL    HW2  234   2.479   0.922   3.063 -1.8951 -0.3229  1.3945
   79SOL     OW  235   0.259   1.534   2.851 -0.0545 -0.0066  0.3176
   79SOL    HW1  236   0.335   1.482   2.804  0.0189 -0.2959  0.7253
   79SOL    HW2  237   0.176   1.522   2.799  1.5856  1.7712 -2.4728
   80SOL     OW  238   1.839   1.517   2.177  0.5383 -0.0395 -0.0239
   80SOL    HW1  239   1.867   1.532   2.079 -0.5891  2.4205  2.3807
   80SOL    HW2  240   1.916   1.480   2.234 -0.6784 -0.4239  1.4697
   81SOL     OW  241   2.299   1.157   2.150 -0.3736 -0.4006  0.0907
   81SOL    HW1  242   2.240   1.175   2.071  1.8465 -1.4350  1.9261
   81SOL    HW2  243   2.315   1.243   2.200  0.0747  0.6771  0.3954
   82SOL     OW  244   1.464   1.447   1.939  0.2866 -0.3081  0.5107
   82SOL    HW1  245   1.367   1.470   1.913 -0.8730 -0.1789  0.1439
   82SOL    HW2  246   1.500   1.381   1.869  0.5483  1.4659 -1.1828
   83SOL     OW  247   3.085   0.312   0.024  0.1288 -0.0411  0.3758
   83SOL    HW1  248   3.104   0.339   0.119 -0.5729 -1.5000 -0.6563
   83SOL    HW2  249   2.986   0.315   0.007  1.5760  0.9159 -1.8683
   84SOL     OW  250   0.020   0.755   0.139 -0.4592 -0.5969 -0.9604
   84SOL    HW1  251   3.038   0.718   0.159 -2.5434 -2.0038 -0.8663
   84SOL    HW2  252   0.037   0.822   0.215 -0.0727 -0.3969  0.9657
   85SOL     OW  253   2.226   2.077   1.629  0.9852 -0.1684 -0.0421
   85SOL    HW1  254   2.313   2.027   1.620 -0.7034  2.9085  2.6092
   85SOL    HW2  255   2.244   2.163   1.681  0.1243  1.0527  1.5701
   86SOL     OW  256   0.397   0.423   1.109  0.2488 -0.3270 -0.1800
   86SOL    HW1  257   0.376   0.520   1.089  2.5553 -0.7310  1.0645
   86SOL    HW2  258   0.419   0.365   1.026  0.3833 -0.2276  0.2612
   87SOL     OW  259   2.872   2.013   1.956 -0.1094 -0.1096  0.6203
   87SOL    HW1  260   2.968   1.978   1.948  0.8980  2.7558 -0.1516
   87SOL    HW2  261   2.837   2.020   2.054 -1.8268  0.8017 -0.5761
   88SOL     OW  262   0.279   2.028   0.082  0.0404 -0.3587 -0.2269
   88SOL    HW1  263   0.375   2.048   0.110  1.3638  0.9323  1.6310
   88SOL    HW2  264   0.278   1.938   0.039 -0.5380  2.2124  0.4951
   89SOL     OW  265   1.349   0.790   0.180 -0.2731  0.0287 -0.4333
   89SOL    HW1  266   1.365   0.884   0.143  1.1505 -1.0530  0.1532
   89SOL    HW2  267   1.423   0.758   0.245  1.5561 -0.9606  2.4142
   90SOL     OW  268   0.150   1.580   2.444  0.2277 -0.5501 -0.3836
   90SOL    HW1  269   0.086   1.645   2.404  3.2657 -2.0239 -1.4354
   90SOL    HW2  270   0.241   1.586   2.402 -2.2840 -0.5812  2.3677
   91SOL     OW  271   2.066   0.137   1.215 -0.0581 -0.4837 -0.0228
   91SOL    HW1  272   1.994   0.071   1.204  4.6294  1.3957 -0.2147
   91SOL    HW2  273   2.045   0.228   1.171 -0.4049 -0.4060 -2.3375
   92SOL     OW  274   2.424   1.350   1.331  0.6360 -0.2492  0.1099
   92SOL    HW1  275   2.501   1.317   1.276 -0.4145 -0.6279  0.2769
   92SOL    HW2  276   2.419   1.305   1.424 -1.3723  1.2495  0.6883
   93SOL     OW  277   0.142   1.071   0.069 -0.0357 -0.3664  1.1711
   93SOL    HW1  278   0.119   1.014   0.153 -1.2606  0.3741  0.1556
   93SOL    HW2  279   0.234   1.117   0.073 -1.5796  0.0672 -1.9514
   94SOL     OW  280   1.375   2.375   2.205  0.4260  0.1010 -0.0718
   94SOL    HW1  281   1.431   2.310   2.254  0.1116  2.3194  1.4938
   94SOL    HW2  282   1.438   2.423   2.139 -2.8265  0.2205 -3.0785
   95SOL     OW  283   0.366   0.700   1.060 -0.6266  0.0579 -0.2755
   95SOL    HW1  284   0.458   0.740   1.044 -1.1600  1.1125 -1.0696
   95SOL    HW2  285   0.313   0.706   0.968 -2.7438  0.1618 -0.6981
   96SOL     OW  286   2.820   2.965   1.582  0.5795 -0.1236  0.3775
   96SOL    HW1  287   2.903   3.029   1.595  4.1077  0.0780  3.3214
   96SOL    HW2  288   2.822   2.889   1.513  2.9011  0.8109 -0.6663
   97SOL     OW  289   2.586   0.623   1.645 -0.1469  0.3552  0.4679
   97SOL    HW1  290   2.634   0.711   1.645 -2.8780 -1.3847  1.0582
   97SOL    HW2  291   2.562   0.608   1.743 -0.1158 -2.0315  0.7664
   98SOL     OW  292   2.257   2.644   1.436 -0.7106 -0.3364  0.7327
   98SOL    HW1  293   2.344   2.697   1.420  1.1974  2.2619  1.2630
   98SOL    HW2  294   2.221   2.619   1.347  0.3913  1.5972 -2.2246
   99SOL     OW  295   0.640   0.157   1.713  0.7332  0.7841 -0.4758
   99SOL    HW1  296   0.550   0.210   1.729 -0.6412  0.2767 -0.8601
   99SOL    HW2  297   0.715   0.215   1.677 -1.9239  0.4188  0.1801
  100SOL     OW  298   2.170   0.296   2.258  0.6245 -0.3205  0.6267
  100SOL    HW1  299   2.162   0.205   2.218 -1.4180 -0.7371  1.0714
  100SOL    HW2  300   2.134   0.379   2.201  0.6568  0.6893 -3.0011
  101SOL     OW  301   0.107   0.041   2.295  0.5700 -0.2834  0.4887
  101SOL    HW1  302   0.095   3.072   2.350  1.5140  2.0160 -1.8933
  101SOL    HW2  303   0.166   0.108   2.345 -2.2380  1.6123  0.5595
  102SOL     OW  304   0.744   0.539   1.801 -0.1175  0.3383 -1.1562
  102SOL    HW1  305   0.768   0.500   1.709 -0.9495  1.2582  1.0293
  102SOL    HW2  306   0.810   0.510   1.874 -1.5257 -0.6476  0.4729
  103SOL     OW  307   0.931   0.664   2.692  0.3132  0.1172 -0.2770
  103SOL    HW1  308   0.997   0.640   2.765 -0.6369  0.3708 -0.8841
  103SOL    HW2  309   0.870   0.739   2.728  1.7472  1.0198 -1.5936
  104SOL     OW  310   0.059   0.581   2.153 -0.0630 -0.0131  0.0201
  104SOL    HW1  311   0.158   0.575   2.180 -0.5545 -1.9261 -0.7016
  104SOL    HW2  312   0.051   0.661   2.085 -0.7666  1.7700 -3.5595
  105SOL     OW  313   2.432   2.164   1.167  0.1934  0.2948 -0.5162
  105SOL    HW1  314   2.466   2.259   1.184 -0.2847 -0.7761  0.4394
  105SOL    HW2  315   2.332   2.170   1.142  0.6065 -0.0266  2.2595
  106SOL     OW  316   1.910   0.181   0.458  0.3469  0.3705  0.1572
  106SOL    HW1  317   1.948   0.167   0.550  0.7109  0.5164 -0.1466
  106SOL    HW2  318   1.875   0.275   0.445 -0.7727  2.1856  1.1572
  107SOL     OW  319   1.817   2.312   0.831  0.6643 -0.2610  0.1306
  107SOL    HW1  320   1.787   2.296   0.733  0.5144  3.5152 -0.7305
  107SOL    HW2  321   1.827   2.223   0.881 -0.1256 -4.5096  0.0341
  108SOL     OW  322   0.133   2.389   1.287  0.1520 -0.5774 -0.2862
  108SOL    HW1  323   0.027   2.385   1.287 -0.8175 -0.7310 -2.8718
  108SOL    HW2  324   0.163   2.457   1.218  1.1569  0.1692 -0.6160
  109SOL     OW  325   1.900   2.547   0.927 -0.3864  0.5873 -0.3993
  109SOL    HW1  326   1.854   2.457   0.913 -0.4730  0.6228  0.4072
  109SOL    HW2  327   1.827   2.613   0.948  1.3105 -0.0620 -0.1364
  110SOL     OW  328   1.590   1.522   1.585 -0.4742  0.4493  0.7872
  110SOL    HW1  329   1.598   1.434   1.631 -0.9239  1.7507 -0.7560
  110SOL    HW2  330   1.500   1.531   1.543  1.7899 -1.2471 -3.9460
  111SOL     OW  331   1.766   2.337   1.961  0.4473  0.0181  0.2193
  111SOL    HW1  332   1.782   2.324   1.862  0.0583 -1.1646  0.7109
  111SOL    HW2  333   1.694   2.409   1.982  0.3219  0.0734 -1.2224
  112SOL     OW  334   1.764   2.142   2.947 -0.0021  0.1730 -0.0217
  112SOL    HW1  335   1.715   2.195   3.017  0.5234  2.2202  0.1951
  112SOL    HW2  336   1.864   2.165   2.949 -0.8645  2.4944 -1.9605
  113SOL     OW  337   1.933   2.075   1.681  0.1435  0.2869 -0.1360
  113SOL    HW1  338   2.031   2.085   1.652 -0.3291  0.6847  0.2514
  113SOL    HW2  339   1.916   1.975   1.708 -1.1777 -2.1821  1.5454
  114SOL     OW  340   3.023   1.589   1.566 -0.0480 -0.1313 -0.3181
  114SOL    HW1  341   3.083   1.647   1.628  0.9754 -0.3813  0.9240
  114SOL    HW2  342   3.070   1.499   1.551 -0.2097 -1.9160 -0.0733
  115SOL     OW  343   0.065   0.924   0.345  0.1666  0.0166 -0.2235
  115SOL    HW1  344   3.092   0.916   0.403 -2.4821  1.4006  1.1272
  115SOL    HW2  345   0.147   0.910   0.407  0.5872 -1.1956  0.0460
  116SOL     OW  346   2.691   1.239   2.882  0.2783 -0.1606  0.1560
  116SOL    HW1  347   2.663   1.141   2.879 -0.1688  3.1838 -2.1050
  116SOL    HW2  348   2.611   1.297   2.870 -1.4864 -4.3543 -0.9462
  117SOL     OW  349   2.928   2.436   0.187  0.1474 -0.1372 -0.0211
  117SOL    HW1  350   2.892   2.344   0.215  1.6693  0.6615 -1.6979
  117SOL    HW2  351   2.863   2.494   0.137  0.9372 -0.1608 -0.3005
  118SOL     OW  352   0.638   1.931   2.856 -0.0279  0.6362 -0.7662
  118SOL    HW1  353   0.563   1.998   2.835  1.6257 -0.1855 -0.2281
  118SOL    HW2  354   0.625   1.885   2.948  2.2538 -1.2480 -2.3517
  119SOL     OW  355   0.439   2.324   0.633 -0.2454 -0.5965 -0.0527
  119SOL    HW1  356   0.517   2.258   0.631  2.9997  2.5837  3.0104
  119SOL    HW2  357   0.353   2.282   0.664  1.3228 -0.5700  1.8956
  120SOL     OW  358   1.340   0.356   0.293  0.3665 -0.2573  0.0408
  120SOL    HW1  359   1.292   0.318   0.216  4.5996 -0.4240  1.0105
  120SOL    HW2  360   1.361   0.276   0.356  1.7392 -2.2250  0.3502
  121SOL     OW  361   1.409   2.606   0.954 -0.9341  0.3412 -0.1709
  121SOL    HW1  362   1.414   2.709   0.957 -2.5052 -1.6669 -2.1432
  121SOL    HW2  363   1.327   2.586   0.904  2.3590 -0.7910  0.4011
  122SOL     OW  364   2.499   1.902   2.245  0.4324 -0.0594  0.2984
  122SOL    HW1  365   2.591   1.863   2.242 -0.8962 -0.0757 -0.3060
  122SOL    HW2  366   2.427   1.832   2.226 -0.8891 -1.7408  2.8126
  123SOL     OW  367   0.848   1.704   0.876  0.0052  0.0286  0.0066
  123SOL    HW1  368   0.937   1.695   0.928 -0.1553 -0.7268 -0.1311
  123SOL    HW2  369   0.771   1.701   0.940  1.8454 -1.1233  0.3669
  124SOL     OW  370   0.088   0.507   2.913 -0.0603  0.1415 -0.4027
  124SOL    HW1  371   0.032   0.448   2.975  0.3698 -1.7732 -1.4956
  124SOL    HW2  372   0.135   0.442   2.853 -1.9724  3.7212 -0.2357
  125SOL     OW  373   0.363   0.463   0.047 -0.2900 -0.3377 -0.2679
  125SOL    HW1  374   0.332   0.546   3.106  0.3924 -1.1033  0.5228
  125SOL    HW2  375   0.362   0.379   3.098 -0.4148  0.1359 -2.0101
  126SOL     OW  376   3.084   1.635   0.493  0.1167 -0.0802 -0.2150
  126SOL    HW1  377   0.056   1.585   0.462 -0.5414  0.7749 -0.2006
  126SOL    HW2  378   3.032   1.666   0.415  1.8473  1.1335  3.9789
  127SOL     OW  379   0.928   2.402   1.731 -0.3865 -0.0106 -0.1294
  127SOL    HW1  380   0.845   2.463   1.742  0.7457 -0.1720  3.5650
  127SOL    HW2  381   0.912   2.349   1.646 -1.2697  0.8446  1.7417
  128SOL     OW  382   1.264   1.613   0.150 -0.2497 -0.0997 -0.2031
  128SOL    HW1  383   1.172   1.659   0.164 -0.1141  0.3379 -1.4033
  128SOL    HW2  384   1.267   1.558   0.065  1.7226  3.9715  0.3678
  129SOL     OW  385   1.887   2.139   1.411 -0.0633 -0.3914  0.1185
  129SOL    HW1  386   1.798   2.182   1.395 -0.6454 -1.8856  1.3552
  129SOL    HW2  387   1.901   2.107   1.504 -0.9811  2.8069  0.9304
  130SOL     OW  388   1.717   2.267   1.685  0.1851 -0.1346 -0.4447
  130SOL    HW1  389   1.776   2.181   1.700  1.7926 -2.7614  1.3778
  130SOL    HW2  390   1.722   2.299   1.589 -2.3007  0.1612 -1.4260
  131SOL     OW  391   2.714   2.336   2.468  0.2250 -0.0103  0.1811
  131SOL    HW1  392   2.659   2.255   2.492 -0.4195 -0.8052 -2.0446
  131SOL    HW2  393   2.800   2.340   2.525  1.4141 -2.4000  2.1697
  132SOL     OW  394   2.970   2.022   0.772 -0.7677  0.1745 -0.7819
  132SOL    HW1  395   3.047   1.963   0.799  2.2671 -2.5129  0.9439
  132SOL    HW2  396   2.921   2.040   0.859 -0.8948 -0.0495  0.9159
  133SOL     OW  397   0.914   0.490   2.046  0.4065 -0.1763 -0.5440
  133SOL    HW1  398   1.003   0.504   2.004 -3.6886 -0.1706  2.0773
  133SOL    HW2  399   0.897   0.553   2.123  0.9164 -0.9065 -0.3133
  134SOL     OW  400   2.818   1.750   0.105 -0.1059 -0.3786  0.3668
  134SOL    HW1  401   2.874   1.793   0.184  2.9119 -0.0447 -0.3629
  134SOL    HW2  402   2.725   1.796   0.096 -0.8775  0.8453 -0.5860
  135SOL     OW  403   1.552   0.997   2.435  0.0325  0.3422  0.0395
  135SOL    HW1  404   1.553   1.085   2.491 -0.3430 -0.9867 -1.3936
  135SOL    HW2  405   1.460   0.956   2.424 -0.3928 -1.8670  2.3464
  136SOL     OW  406   2.571   1.994   0.830 -0.1169  0.2265 -0.1966
  136SOL    HW1  407   2.611   2.005   0.921  2.0210 -1.1216 -1.1858
  136SOL    HW2  408   2.641   1.966   0.759 -1.1598  0.9959 -1.0931
  137SOL     OW  409   2.777   1.750   0.869 -0.0597 -0.6357  0.1137
  137SOL    HW1  410   2.856   1.797   0.916  0.1457 -1.4347 -1.4108
  137SOL    HW2  411   2.799   1.730   0.772  0.4451 -3.0654  1.8276
  138SOL     OW  412   2.797   0.530   0.747  0.8458  0.0775  0.5683
  138SOL    HW1  413   2.881   0.480   0.771 -1.3912 -1.7607  0.5360
  138SOL    HW2  414   2.710   0.496   0.784 -2.8505  0.8001 -1.1030
  139SOL     OW  415   3.038   2.754   0.028 -0.0470 -0.3558 -0.0211
  139SOL    HW1  416   2.998   2.820   3.070  0.5508  1.2623  2.8023
  139SOL    HW2  417   0.027   2.738   0.012 -0.6295  0.1862 -0.7977
  140SOL     OW  418   0.678   1.526   1.655 -0.1828 -0.5133 -0.1066
  140SOL    HW1  419   0.654   1.433   1.660  0.3148  0.5001 -0.3541
  140SOL    HW2  420   0.713   1.557   1.744 -1.1103 -1.7586 -1.4802
  141SOL     OW  421   1.325   1.619   0.853 -0.8419  0.5298  0.0115
  141SOL    HW1  422   1.378   1.594   0.768 -2.0264  0.8461 -3.4305
  141SOL    HW2  423   1.379   1.685   0.912  2.2610  2.3483 -2.0889
  142SOL     OW  424   0.911   0.653   0.708 -0.2286  0.3009  0.4329
  142SOL    HW1  425   0.917   0.555   0.746 -1.2168 -0.1353 -1.1963
  142SOL    HW2  426   0.832   0.706   0.746  2.5989  2.0887  0.5752
  143SOL     OW  427   0.653   1.264   2.442 -0.1287  0.0995 -0.1614
  143SOL    HW1  428   0.724   1.334   2.457 -0.8150 -0.6725 -1.6811
  143SOL    HW2  429   0.561   1.306   2.458 -0.2802  0.0852  0.5855
  144SOL     OW  430   2.483   3.076   0.738  0.1566 -0.0897 -0.1224
  144SOL    HW1  431   2.494   0.065   0.750  1.7598 -0.6301 -1.8948
  144SOL    HW2  432   2.452   3.028   0.823 -0.5283 -2.8852 -0.0645
  145SOL     OW  433   2.316   0.353   2.646 -0.6092 -0.2344  0.3686
  145SOL    HW1  434   2.241   0.327   2.711 -0.7562  1.0412 -0.6663
  145SOL    HW2  435   2.401   0.377   2.700  0.0844  0.3406 -0.9031
  146SOL     OW  436   3.059   2.766   0.514  0.7316 -0.1288 -0.4097
  146SOL    HW1  437   3.062   2.813   0.608 -1.3672 -0.7344  1.1982
  146SOL    HW2  438   0.001   2.681   0.522  1.9581  0.1077  1.4390
  147SOL     OW  439   1.010   1.195   2.669 -0.6927  0.2378  0.2044
  147SOL    HW1  440   0.976   1.159   2.578  3.0198 -1.2195 -0.1222
  147SOL    HW2  441   1.021   1.295   2.671 -1.6898 -0.7740 -0.9570
  148SOL     OW  442   1.555   0.288   2.792 -0.5610  0.0333  0.1345
  148SOL    HW1  443   1.544   0.220   2.867  0.0239  0.0074 -1.0162
  148SOL    HW2  444   1.518   0.253   2.707  1.4935  1.1302 -0.0642
  149SOL     OW  445   1.670   0.222   2.061  0.2334  0.3187 -0.0102
  149SOL    HW1  446   1.681   0.126   2.094  0.8763  2.7622 -0.8066
  149SOL    HW2  447   1.715   0.296   2.120 -0.3843  0.9137  2.3101
  150SOL     OW  448   2.320   2.704   0.046 -0.0626 -0.3976 -0.3569
  150SOL    HW1  449   2.365   2.626   0.004 -0.5560 -0.8014  3.3279
  150SOL    HW2  450   2.227   2.666   0.079 -1.8633 -1.3526 -1.2554
  151SOL     OW  451   0.530   1.499   0.003 -0.2140  0.5409 -0.0005
  151SOL    HW1  452   0.432   1.469   3.110  0.2922  0.1129 -0.5613
  151SOL    HW2  453   0.589   1.458   3.040 -0.0896 -0.9366 -1.2440
  152SOL     OW  454   0.385   3.059   1.580  0.2438 -0.0253  0.2399
  152SOL    HW1  455   0.356   0.041   1.547  0.6858  0.6274 -0.9675
  152SOL    HW2  456   0.360   3.043   1.679  0.9626  0.9096  3.1031
  153SOL     OW  457   2.583   2.929   1.715  0.8923  0.1960  0.4029
  153SOL    HW1  458   2.645   2.948   1.635  0.0026  3.3465  2.1309
  153SOL    HW2  459   2.607   2.990   1.794 -0.6269  0.3093  2.0279
  154SOL     OW  460   2.527   3.102   2.582  0.0766  0.0287  0.0925
  154SOL    HW1  461   2.479   0.067   2.532  0.4810 -0.4575 -2.1807
  154SOL    HW2  462   2.612   3.078   2.525  0.1817  0.6822 -1.6495
  155SOL     OW  463   2.994   1.211   0.433  0.0923  0.1690 -0.0528
  155SOL    HW1  464   3.052   1.154   0.494 -1.8818  1.0122 -0.0635
  155SOL    HW2  465   2.949   1.284   0.490  1.6561  1.1335 -0.6112
  156SOL     OW  466   0.179   1.497   0.401  0.3109  0.0148 -0.0828
  156SOL    HW1  467   0.233   1.561   0.340 -0.2118  0.9661  0.3055
  156SOL    HW2  468   0.142   1.421   0.344  0.2453  0.2309  1.8134
  157SOL     OW  469   0.694   0.042   0.447  0.3956  0.1075 -0.0926
  157SOL    HW1  470   0.660   3.062   0.480  1.7171 -1.6239 -0.6954
  157SOL    HW2  471   0.799   0.046   0.448  0.9034  0.4928 -2.7356
  158SOL     OW  472   1.725   1.356   0.981  0.5892  0.2747  0.1863
  158SOL    HW1  473   1.774   1.271   1.016 -1.5366 -3.1391  0.3971
  158SOL    HW2  474   1.786   1.433   0.993 -2.8398 -1.8627  0.0849
  159SOL     OW  475   0.091   0.244   0.301  0.0764  0.9014 -0.4911
  159SOL    HW1  476   0.144   0.329   0.277  1.1728 -0.5714 -0.4260
  159SOL    HW2  477   0.151   0.169   0.334  1.3518 -1.9654 -3.0031
  160SOL     OW  478   2.204   2.328   1.790  0.2868 -0.5590  0.1068
  160SOL    HW1  479   2.132   2.308   1.862  1.6663 -3.6090  2.5155
  160SOL    HW2  480   2.179   2.414   1.742  1.9017 -1.7731 -0.2726
  161SOL     OW  481   0.386   0.784   2.856 -0.0902  0.1741  0.1721
  161SOL    HW1  482   0.327   0.746   2.931  2.9577  2.2481  0.6709
  161SOL    HW2  483   0.338   0.864   2.817  1.0829  1.2015  1.9965
  162SOL     OW  484   1.000   0.082   1.795 -0.3426  0.5311  0.6339
  162SOL    HW1  485   1.101   0.091   1.780 -0.6477 -0.2570 -0.9502
  162SOL    HW2  486   0.971   0.142   1.868  0.3791 -1.6860  0.4208
  163SOL     OW  487   2.765   3.033   2.462  0.2019  0.7519  0.0317
  163SOL    HW1  488   2.845   2.967   2.437 -0.9303 -0.3826 -0.3806
  163SOL    HW2  489   2.771   0.007   2.409  1.7054 -0.8354  0.3002
  164SOL     OW  490   1.860   2.050   0.426 -0.2315  0.3694  0.1635
  164SOL    HW1  491   1.809   2.037   0.343  2.7953 -0.7762  1.7904
  164SOL    HW2  492   1.955   2.021   0.406 -0.5870  0.2569 -0.0749
  165SOL     OW  493   0.223   0.193   1.531 -0.3508 -0.0692 -0.6613
  165SOL    HW1  494   0.122   0.181   1.542 -0.4910 -1.7332  1.8293
  165SOL    HW2  495   0.248   0.261   1.464 -0.6642 -2.3943  1.0581
  166SOL     OW  496   2.166   0.816   0.532  0.2792 -0.5622  0.1799
  166SOL    HW1  497   2.098   0.807   0.611 -1.6480  0.5439  4.1273
  166SOL    HW2  498   2.200   0.722   0.508  0.3550  1.9874  1.8477
  167SOL     OW  499   2.278   0.691   2.940 -0.5346  0.5024  1.0244
  167SOL    HW1  500   2.325   0.677   3.031  1.2411 -1.9004 -1.9382
  167SOL    HW2  501   2.175   0.679   2.937  0.7788 -0.3012 -0.9027
  168SOL     OW  502   1.729   3.068   2.477 -0.2275  0.5326 -0.0277
  168SOL    HW1  503   1.723   3.001   2.552 -1.0405 -1.7010  0.9064
  168SOL    HW2  504   1.777   0.043   2.506 -1.5366  0.9224  0.8857
  169SOL     OW  505   0.581   1.709   0.994  0.2134  0.5165  0.7049
  169SOL    HW1  506   0.546   1.768   0.922  0.8385  1.4163  1.6665
  169SOL    HW2  507   0.530   1.727   1.081 -1.0213 -0.4716 -2.2194
  170SOL     OW  508   0.066   0.904   1.281  0.1635 -0.3596  0.1457
  170SOL    HW1  509   0.103   0.966   1.208 -1.0137  1.1425 -2.8554
  170SOL    HW2  510   0.080   0.945   1.370  0.5832 -4.3691 -1.5428
  171SOL     OW  511   2.653   1.674   2.315 -0.6663  0.0355  0.1847
  171SOL    HW1  512   2.672   1.628   2.223  4.0209 -0.9753 -1.1033
  171SOL    HW2  513   2.580   1.615   2.360  1.3364 -0.6070  0.8546
  172SOL     OW  514   0.576   1.730   1.493 -0.3109 -0.4301 -0.6137
  172SOL    HW1  515   0.596   1.812   1.549 -2.8750  1.1211 -1.0660
  172SOL    HW2  516   0.590   1.648   1.549 -1.1494  3.2175  1.6513
  173SOL     OW  517   1.987   1.625   3.016 -0.1492  0.7222 -0.1525
  173SOL    HW1  518   1.948   1.533   3.045  2.5452 -2.0623  1.3526
  173SOL    HW2  519   1.924   1.700   2.998  3.8019 -1.6819 -0.8971
  174SOL     OW  520   1.451   1.062   2.896  0.2858  0.0246  0.4263
  174SOL    HW1  521   1.519   1.093   2.824  0.6602  3.2665 -3.1284
  174SOL    HW2  522   1.396   0.990   2.853 -1.3419  2.0225 -0.5572
  175SOL     OW  523   1.221   1.276   1.156 -0.0319  0.4712  0.5195
  175SOL    HW1  524   1.306   1.335   1.156  4.0877 -1.3657 -0.7553
  175SOL    HW2  525   1.172   1.291   1.245 -1.0024  1.2423 -0.5174
  176SOL     OW  526   1.424   0.162   0.467  0.1156  0.0728 -0.0355
  176SOL    HW1  527   1.461   0.183   0.560 -1.6234  3.0517 -2.1302
  176SOL    HW2  528   1.386   0.071   0.458 -0.1013  0.3543 -0.0103
  177SOL     OW  529   0.276   0.901   0.515 -0.0779  0.2899  0.1644
  177SOL    HW1  530   0.318   0.814   0.476  0.8324 -1.5329 -1.3912
  177SOL    HW2  531   0.322   0.925   0.605  0.9223  1.8571 -1.1026
  178SOL     OW  532   2.903   2.363   2.634 -0.1760  0.1600  0.2101
  178SOL    HW1  533   2.935   2.281   2.689 -0.6922  0.6069  0.5285
  178SOL    HW2  534   2.869   2.443   2.692  0.4346  0.2634  0.2388
  179SOL     OW  535   2.430   2.785   2.409 -0.1835 -0.4959  0.3337
  179SOL    HW1  536   2.339   2.776   2.453 -2.4026  0.5776 -0.3775
  179SOL    HW2  537   2.492   2.711   2.437 -1.0501 -1.5306 -0.5143
  180SOL     OW  538   2.137   0.854   1.108  0.1058 -0.3234 -0.4050
  180SOL    HW1  539   2.131   0.799   1.198 -2.2841 -0.7639  4.3122
  180SOL    HW2  540   2.236   0.863   1.080  2.5412 -1.2812 -1.1905
  181SOL     OW  541   2.191   0.584   2.517  0.1090 -0.2947 -0.2231
  181SOL    HW1  542   2.248   0.563   2.599  1.6144 -1.8423  0.0749
  181SOL    HW2  543   2.236   0.542   2.436  0.0182 -2.7398 -1.8254
  182SOL     OW  544   2.812   2.369   2.237  0.1048  0.5866 -0.4597
  182SOL    HW1  545   2.904   2.407   2.250  1.5201  1.5234  1.6540
  182SOL    HW2  546   2.770   2.365   2.333  1.3864 -1.4060  0.8475
  183SOL     OW  547   2.078   0.854   1.775  0.2887  0.8967 -0.1850
  183SOL    HW1  548   2.180   0.827   1.786  1.0329  0.5287  1.7652
  183SOL    HW2  549   2.047   0.868   1.674 -1.4815 -0.1548 -2.4383
  184SOL     OW  550   0.116   1.734   0.946 -0.8503 -0.0994 -0.2096
  184SOL    HW1  551   0.157   1.730   0.850  0.8957 -0.8201 -1.7881
  184SOL    HW2  552   0.137   1.648   0.997 -0.5850 -2.0859  2.6245
  185SOL     OW  553   2.998   0.370   0.848  0.2666 -0.6431  0.1286
  185SOL    HW1  554   2.920   0.309   0.871  3.2224 -0.3346 -1.0619
  185SOL    HW2  555   3.047   0.394   0.935  0.2141 -2.0253  0.9212
  186SOL     OW  556   2.150   2.601   2.383  0.4585 -0.2093 -0.3103
  186SOL    HW1  557   2.053   2.615   2.356  0.8843  2.3555  0.8722
  186SOL    HW2  558   2.169   2.672   2.453 -1.6257 -2.1725 -1.6003
  187SOL     OW  559   0.483   1.375   0.707 -0.3627  0.6412  0.1203
  187SOL    HW1  560   0.532   1.283   0.704 -0.2557 -0.2271  0.3225
  187SOL    HW2  561   0.549   1.452   0.694 -1.2113  1.6108  0.0370
  188SOL     OW  562   2.193   1.365   0.927 -0.6866  0.1823 -0.0453
  188SOL    HW1  563   2.151   1.276   0.957 -3.3765 -0.4233 -3.9658
  188SOL    HW2  564   2.243   1.350   0.840  0.0295  0.0594 -0.2221
  189SOL     OW  565   3.056   1.155   2.703 -0.0354  0.3744  0.7679
  189SOL    HW1  566   3.053   1.095   2.785 -1.3443 -1.1961  1.5680
  189SOL    HW2  567   2.961   1.171   2.665  1.6734 -0.3679  0.1160
  190SOL     OW  568   2.402   0.465   2.252  0.7139 -0.1534  0.0990
  190SOL    HW1  569   2.314   0.409   2.257 -0.0187 -0.1100 -0.1002
  190SOL    HW2  570   2.485   0.405   2.241  1.4282  0.5156 -0.9148
  191SOL     OW  571   1.255   0.252   2.048  0.2298 -0.3807 -0.0676
  191SOL    HW1  572   1.232   0.318   1.974 -0.4609  0.6721  2.2359
  191SOL    HW2  573   1.189   0.179   2.063  2.1421 -1.3856  0.2274
  192SOL     OW  574   0.884   1.658   1.430  0.4438  0.3923 -0.3641
  192SOL    HW1  575   0.924   1.744   1.463  0.2288 -0.7670  0.1201
  192SOL    HW2  576   0.803   1.629   1.487  0.1135  0.5626  1.4176
  193SOL     OW  577   1.287   2.969   0.855  0.3681 -0.0251 -0.2896
  193SOL    HW1  578   1.214   3.012   0.914  1.9437 -1.9515  1.9234
  193SOL    HW2  579   1.250   2.942   0.769  2.1397 -0.2313  3.7207
  194SOL     OW  580   0.595   1.854   2.054  0.0511  0.4109 -0.6909
  194SOL    HW1  581   0.606   1.947   2.093  1.1647  1.5003 -0.8877
  194SOL    HW2  582   0.555   1.865   1.960 -1.1773 -1.9004 -0.0954
  195SOL     OW  583   1.652   0.561   0.782 -0.0736  0.5885  0.0532
  195SOL    HW1  584   1.628   0.482   0.717 -0.5222 -2.6979 -2.0918
  195SOL    HW2  585   1.571   0.613   0.798  2.0547  2.1464  0.7814
  196SOL     OW  586   1.188   1.605   1.918  0.0626 -0.5446  0.2762
  196SOL    HW1  587   1.175   1.613   2.018  0.1877  0.4037 -1.2323
  196SOL    HW2  588   1.186   1.702   1.875  0.8570  2.1011  0.7299
  197SOL     OW  589   0.324   0.491   1.794  0.0868 -0.2855  0.3647
  197SOL    HW1  590   0.391   0.539   1.850 -0.2124  1.2078 -0.1491
  197SOL    HW2  591   0.287   0.538   1.708  0.0752 -1.6767 -1.1508
  198SOL     OW  592   0.652   0.767   0.762 -0.0752 -0.5113  0.2173
  198SOL    HW1  593   0.619   0.713   0.685  1.3106  0.9851 -0.0600
  198SOL    HW2  594   0.694   0.857   0.731 -2.0180  2.4395 -1.9653
  199SOL     OW  595   0.162   2.529   1.533  0.7538  0.0561  0.0814
  199SOL    HW1  596   0.153   2.484   1.442 -0.8176 -2.6874  0.1262
  199SOL    HW2  597   0.108   2.482   1.607 -1.4409  0.6149  0.0412
  200SOL     OW  598   1.737   1.335   2.512 -0.4055  0.1889  0.3276
  200SOL    HW1  599   1.801   1.257   2.518 -2.8964  1.2848 -0.7423
  200SOL    HW2  600   1.641   1.302   2.533 -0.3727  1.8204 -1.1644
  201SOL     OW  601   0.513   2.367   1.726  0.0457  0.2099 -0.2455
  201SOL    HW1  602   0.534   2.452   1.675  1.0393  1.6621 -0.7556
  201SOL    HW2  603   0.501   2.288   1.663 -1.4396  3.0482  0.1080
  202SOL     OW  604   1.293   2.757   2.841 -0.4433  0.4216 -0.4854
  202SOL    HW1  605   1.252   2.682   2.784  1.1736 -0.7291  0.3920
  202SOL    HW2  606   1.221   2.799   2.903 -1.7442  1.3976 -0.4780
  203SOL     OW  607   1.645   0.584   2.555 -0.0419 -0.9874 -0.0997
  203SOL    HW1  608   1.545   0.595   2.544 -0.8157 -0.4747 -1.3098
  203SOL    HW2  609   1.673   0.488   2.584 -1.2560 -3.9830 -1.8311
  204SOL     OW  610   0.704   1.248   1.673  0.3725 -0.2964  0.2923
  204SOL    HW1  611   0.768   1.292   1.737 -1.2795 -0.8249 -1.3642
  204SOL    HW2  612   0.690   1.150   1.685 -1.4246  3.6636  0.7379
  205SOL     OW  613   2.224   0.986   2.734 -0.2748  0.5104  0.6522
  205SOL    HW1  614   2.161   0.940   2.670 -2.6354 -0.3688 -0.3973
  205SOL    HW2  615   2.309   1.009   2.680  1.7355 -2.0365  0.6429
  206SOL     OW  616   0.315   1.792   2.846 -0.1861 -0.3969  0.4744
  206SOL    HW1  617   0.289   1.693   2.864  0.0349  0.7825 -0.8420
  206SOL    HW2  618   0.409   1.802   2.813 -1.3793  1.5500  1.1536
  207SOL     OW  619   0.914   2.816   1.809 -0.1087 -0.0843  0.5363
  207SOL    HW1  620   0.873   2.726   1.781 -2.0685 -0.9849 -2.5105
  207SOL    HW2  621   0.853   2.895   1.782  0.8536 -1.2205  1.5860
  208SOL     OW  622   0.570   2.625   1.572 -0.2057  0.0572  0.7375
  208SOL    HW1  623   0.487   2.681   1.547 -0.9536 -0.4163 -2.0008
  208SOL    HW2  624   0.579   2.554   1.500  1.5814  0.0967  0.4143
  209SOL     OW  625   1.112   2.735   0.154 -0.3593 -0.4509 -0.0532
  209SOL    HW1  626   1.074   2.797   0.226  1.8135 -0.0058 -0.4597
  209SOL    HW2  627   1.119   2.777   0.060  0.2294  2.0792 -1.2516
  210SOL     OW  628   2.771   1.607   1.623 -0.5782 -0.6573  0.6153
  210SOL    HW1  629   2.749   1.511   1.649  2.4275  0.6849 -1.5500
  210SOL    HW2  630   2.873   1.612   1.604  0.3357 -0.9090  1.6006
  211SOL     OW  631   1.252   0.348   1.477  0.3241 -0.4065  0.6799
  211SOL    HW1  632   1.192   0.391   1.547  0.8334 -0.9328  0.3988
  211SOL    HW2  633   1.348   0.377   1.493 -0.2475 -1.2263  1.4283
  212SOL     OW  634   1.178   2.026   1.513 -0.0166 -1.2038  0.1215
  212SOL    HW1  635   1.239   2.107   1.494 -0.0040 -0.9504  3.7867
  212SOL    HW2  636   1.229   1.957   1.566  0.4872  0.8881  0.0744
  213SOL     OW  637   2.563   0.260   1.706 -0.1452 -0.2314  0.0289
  213SOL    HW1  638   2.489   0.253   1.777  1.6541  0.1715  2.3796
  213SOL    HW2  639   2.638   0.190   1.724 -0.5125  1.6526 -0.2618
  214SOL     OW  640   0.691   1.942   1.660 -0.6953 -0.0521  0.1705
  214SOL    HW1  641   0.761   1.910   1.728  1.7125  1.7363 -0.0837
  214SOL    HW2  642   0.737   2.013   1.600  1.1955  0.7712  0.4506
  215SOL     OW  643   2.680   2.020   1.134  0.2006  1.0320  0.5688
  215SOL    HW1  644   2.599   2.074   1.163 -1.9015  0.8061 -3.2159
  215SOL    HW2  645   2.733   1.977   1.211  1.6803  1.3941  2.3010
  216SOL     OW  646   0.086   0.984   1.564  0.0532  0.0171 -0.1214
  216SOL    HW1  647   0.174   1.016   1.520 -1.6945  0.1665 -0.5290
  216SOL    HW2  648   0.118   0.913   1.630  0.4111  3.5026  0.5341
  217SOL     OW  649   2.732   0.297   1.213 -0.4045  0.5789 -0.2412
  217SOL    HW1  650   2.806   0.233   1.233  0.1547  1.7401  1.9633
  217SOL    HW2  651   2.706   0.339   1.300  0.7891 -1.4550 -1.9704
  218SOL     OW  652   1.295   2.212   1.212 -0.4981 -0.3532  0.4356
  218SOL    HW1  653   1.375   2.173   1.270  2.2506  0.3329  0.1916
  218SOL    HW2  654   1.300   2.190   1.113  2.0126  2.8706 -1.5148
  219SOL     OW  655   1.360   2.297   0.323  0.2872  0.0182  0.0668
  219SOL    HW1  656   1.381   2.391   0.287 -1.9007  1.7544  1.7855
  219SOL    HW2  657   1.411   2.286   0.411  1.9109 -1.5949  0.7709
  220SOL     OW  658   1.741   2.425   0.327 -0.0679 -0.0939 -0.0759
  220SOL    HW1  659   1.644   2.444   0.316  1.4132 -1.6700 -0.3550
  220SOL    HW2  660   1.768   2.391   0.421 -1.2781 -1.7323 -1.7298
  221SOL     OW  661   2.926   2.097   1.056  0.1927 -0.2196  0.4883
  221SOL    HW1  662   2.987   2.012   1.060  2.2277  1.8498  2.4611
  221SOL    HW2  663   2.835   2.086   1.100 -0.2911  2.5805 -0.5946
  222SOL     OW  664   1.105   2.303   0.898 -0.2040 -0.0934 -0.3151
  222SOL    HW1  665   1.156   2.221   0.870  0.7658  2.7163 -1.4068
  222SOL    HW2  666   1.038   2.283   0.973  0.9637 -2.9297 -0.8660
  223SOL     OW  667   0.957   2.500   2.417  0.1853 -0.6127 -0.1476
  223SOL    HW1  668   1.055   2.512   2.413 -2.9163  3.1348  2.1645
  223SOL    HW2  669   0.917   2.598   2.401  1.4548  4.0210 -0.5584
  224SOL     OW  670   2.801   1.412   1.073 -0.4000 -0.2500 -0.0110
  224SOL    HW1  671   2.738   1.494   1.068 -0.2383 -0.5740 -0.3877
  224SOL    HW2  672   2.887   1.432   1.126  2.1541  0.3221 -2.3642
  225SOL     OW  673   2.394   1.773   0.866  0.0157  0.2712  0.2726
  225SOL    HW1  674   2.434   1.865   0.860 -0.9307  1.3118 -1.5406
  225SOL    HW2  675   2.436   1.709   0.793  1.0452 -2.7973 -2.1790
  226SOL     OW  676   1.248   2.555   0.579 -0.3469  0.0274  0.0808
  226SOL    HW1  677   1.342   2.594   0.581 -0.7738 -0.1371  0.8186
  226SOL    HW2  678   1.217   2.546   0.677  0.2215 -0.1210 -0.7967
  227SOL     OW  679   1.272   1.098   1.436  0.2495 -0.5392  0.5814
  227SOL    HW1  680   1.173   1.098   1.408  0.6213  0.2421  2.9490
  227SOL    HW2  681   1.327   1.183   1.410 -0.7484  2.4851  0.3501
  228SOL     OW  682   1.294   0.643   2.238  0.6022  0.5553  0.4794
  228SOL    HW1  683   1.237   0.691   2.169  1.6949  1.4349  0.0088
  228SOL    HW2  684   1.387   0.637   2.203 -0.7654 -0.2792 -1.5713
  229SOL     OW  685   2.628   0.988   2.793  0.2820 -0.5055 -0.9605
  229SOL    HW1  686   2.707   0.920   2.797  0.9664  3.3148  0.3600
  229SOL    HW2  687   2.541   0.936   2.813 -1.8747 -1.1303  2.7689
  230SOL     OW  688   1.125   1.276   0.749 -0.2343 -0.3015  0.3560
  230SOL    HW1  689   1.190   1.251   0.823  1.0486  0.9221  0.0609
  230SOL    HW2  690   1.168   1.346   0.686 -2.6453  1.0952  0.5518
  231SOL     OW  691   2.430   3.070   2.310  0.6739  0.2937  0.1476
  231SOL    HW1  692   2.434   2.974   2.346  0.4981  1.8411  1.2659
  231SOL    HW2  693   2.382   0.027   2.370  0.2499  1.2957 -2.8155
  232SOL     OW  694   0.560   1.982   0.198 -0.5897 -0.0902 -0.1468
  232SOL    HW1  695   0.577   1.955   0.294  1.3259  2.3223 -0.0026
  232SOL    HW2  696   0.597   2.076   0.178  0.7024  4.1041  0.3959
  233SOL     OW  697   1.534   2.427   2.587  0.4767  0.3182  0.3745
  233SOL    HW1  698   1.534   2.391   2.682  1.3337 -0.5179  1.7572
  233SOL    HW2  699   1.598   2.370   2.532  2.2435 -0.3483 -0.2256
  234SOL     OW  700   1.188   1.360   1.832 -0.1672  0.2280 -0.4853
  234SOL    HW1  701   1.172   1.458   1.848  0.2605  0.7653  0.9809
  234SOL    HW2  702   1.106   1.301   1.824  0.9446 -0.0424  1.4036
  235SOL     OW  703   0.479   1.908   1.819  0.2929  0.1700 -0.1165
  235SOL    HW1  704   0.554   1.941   1.754  1.8519  2.6039 -2.1230
  235SOL    HW2  705   0.393   1.953   1.803  1.1263 -0.8898 -3.6931
  236SOL     OW  706   1.946   2.787   2.750  0.4795  0.0816  0.2019
  236SOL    HW1  707   1.854   2.747   2.781  0.7482  1.4035  1.7411
  236SOL    HW2  708   1.940   2.820   2.655  0.6580  0.1519 -0.8561
  237SOL     OW  709   1.489   0.077   0.836 -0.0663 -0.0342  0.2474
  237SOL    HW1  710   1.431   3.107   0.838  2.5927  2.0342  3.1950
  237SOL    HW2  711   1.562   0.076   0.908 -1.6657 -0.7305 -1.8758
  238SOL     OW  712   1.196   0.652   2.838  0.1090 -0.3070 -0.3800
  238SOL    HW1  713   1.223   0.645   2.936  0.9654 -0.2355  0.1042
  238SOL    HW2  714   1.267   0.703   2.784 -2.8837 -2.4235  2.0223
  239SOL     OW  715   0.871   0.232   1.997 -0.0806 -0.1457 -0.3845
  239SOL    HW1  716   0.775   0.198   2.005 -1.2739  1.5110 -0.9218
  239SOL    HW2  717   0.880   0.328   2.033 -0.0704  3.8040  0.5150
  240SOL     OW  718   2.092   2.620   0.734 -0.2687  0.2263 -0.1610
  240SOL    HW1  719   2.181   2.580   0.755  0.3260 -1.2868 -0.2493
  240SOL    HW2  720   2.019   2.599   0.800  1.9637  0.3281 -1.1465
  241SOL     OW  721   1.329   1.541   1.465  0.2851 -0.2415  0.3590
  241SOL    HW1  722   1.236   1.522   1.433  1.2330  2.8128  2.2529
  241SOL    HW2  723   1.342   1.646   1.459 -1.5127  2.7377 -0.3668
  242SOL     OW  724   0.256   0.709   0.817  0.0087 -0.7694 -0.7974
  242SOL    HW1  725   0.158   0.712   0.790 -2.1477  0.5147 -0.7872
  242SOL    HW2  726   0.315   0.681   0.736  1.9085  0.9612  0.7305
  243SOL     OW  727   0.565   0.692   1.468 -0.5605 -0.0791 -0.2338
  243SOL    HW1  728   0.473   0.719   1.443  0.9187  2.7221  0.4755
  243SOL    HW2  729   0.589   0.617   1.404 -1.2000  1.3095  0.9754
  244SOL     OW  730   1.155   0.435   0.031  0.4557  0.2299 -0.8122
  244SOL    HW1  731   1.072   0.483   0.064  0.6231 -3.5058  0.9779
  244SOL    HW2  732   1.215   0.509   0.001 -0.8470 -0.3020 -0.6959
  245SOL     OW  733   2.116   0.259   3.055 -0.0907 -0.5812 -0.7125
  245SOL    HW1  734   2.078   0.167   3.086 -0.5898  0.5077 -1.9407
  245SOL    HW2  735   2.179   0.299   0.012  1.7738 -3.2827 -1.1637
  246SOL     OW  736   0.535   1.010   1.811 -0.7437  0.4554 -0.0969
  246SOL    HW1  737   0.462   0.947   1.842 -0.2824  2.6343  2.4192
  246SOL    HW2  738   0.616   0.955   1.764  3.2354 -0.2559 -1.6517
  247SOL     OW  739   0.612   2.943   2.256 -0.2072 -0.1213  0.0468
  247SOL    HW1  740   0.587   2.961   2.157  0.9667 -1.3314 -2.5254
  247SOL    HW2  741   0.625   3.024   2.317 -0.9264 -1.0856  1.7200
  248SOL     OW  742   0.383   1.585   2.320  0.1390 -0.3253  0.4126
  248SOL    HW1  743   0.365   1.574   2.218  1.4788  0.0147  0.1817
  248SOL    HW2  744   0.447   1.661   2.338 -1.3527 -2.4126  0.6801
  249SOL     OW  745   0.202   0.122   2.826 -0.4308 -0.0718  0.6443
  249SOL    HW1  746   0.178   0.207   2.774  0.8174  1.7759  0.4096
  249SOL    HW2  747   0.243   0.056   2.758 -1.1408 -2.6865 -2.1480
  250SOL     OW  748   2.960   2.948   2.987  0.2849 -0.6747  0.2129
  250SOL    HW1  749   3.013   3.024   3.035 -0.8539  0.0816  1.1592
  250SOL    HW2  750   2.954   2.967   2.888  1.0921 -2.5978  0.9937
  251SOL     OW  751   0.193   1.498   1.057  0.3074 -0.2937 -0.0185
  251SOL    HW1  752   0.115   1.442   1.020 -0.0458  0.2112  0.2369
  251SOL    HW2  753   0.286   1.459   1.048  1.9531  0.4613  1.3452
  252SOL     OW  754   1.501   2.829   2.056 -0.3637  0.6912 -0.6554
  252SOL    HW1  755   1.484   2.925   2.080 -1.4254  0.6329 -1.2359
  252SOL    HW2  756   1.572   2.781   2.120  2.9573 -2.8058  2.0611
  253SOL     OW  757   2.070   2.025   2.617 -0.1870 -0.7201  0.1387
  253SOL    HW1  758   2.107   2.012   2.524 -1.3000 -1.4193 -0.5796
  253SOL    HW2  759   1.978   2.070   2.614  1.5489 -0.2247  0.1274
  254SOL     OW  760   0.408   1.448   2.020  0.3670 -0.6200 -0.0674
  254SOL    HW1  761   0.401   1.364   1.963 -0.6520  3.2952  1.2779
  254SOL    HW2  762   0.507   1.462   2.050  3.6581 -0.7922  3.9237
  255SOL     OW  763   1.136   0.117   1.444  0.5043  0.1392 -0.3695
  255SOL    HW1  764   1.176   0.030   1.484 -0.3175 -2.0069  2.0676
  255SOL    HW2  765   1.188   0.200   1.470 -0.6707  0.2169  1.0010
  256SOL     OW  766   2.776   2.337   1.398 -0.1605 -0.1239 -0.3346
  256SOL    HW1  767   2.773   2.433   1.426 -2.1212  0.1323  0.3443
  256SOL    HW2  768   2.712   2.279   1.456 -1.3723  0.8044  0.4259
  257SOL     OW  769   0.415   2.359   3.065 -0.4877  0.4701  0.7077
  257SOL    HW1  770   0.462   2.283   3.022 -0.7643  0.7498  1.3026
  257SOL    HW2  771   0.419   2.356   0.056  0.5762  1.7421 -1.0643
  258SOL     OW  772   0.912   1.928   2.127 -0.6008  0.1496 -0.2048
  258SOL    HW1  773   0.907   1.958   2.027  1.6859 -0.9941 -2.6883
  258SOL    HW2  774   0.842   1.977   2.182  1.5037  0.5388 -0.6684
  259SOL     OW  775   0.874   1.635   2.740  0.2477 -0.4249 -0.2068
  259SOL    HW1  776   0.902   1.729   2.708 -3.7176 -2.7979  0.0713
  259SOL    HW2  777   0.900   1.609   2.839 -0.8024  1.8671 -0.7715
  260SOL     OW  778   2.465   0.753   2.247  0.3436  0.2765  0.5133
  260SOL    HW1  779   2.379   0.807   2.256  0.5989 -0.9940  0.5955
  260SOL    HW2  780   2.440   0.658   2.214 -3.0989  0.0632  2.6964
  261SOL     OW  781   1.114   0.767   0.819  0.3119  0.3691 -0.0977
  261SOL    HW1  782   1.027   0.725   0.780 -1.2851 -1.6023 -0.8021
  261SOL    HW2  783   1.098   0.810   0.913 -0.9276 -0.7804  2.3863
  262SOL     OW  784   1.934   2.342   2.642 -0.2012 -0.1136  0.0688
  262SOL    HW1  785   1.866   2.324   2.574  5.1956  0.7530 -0.6667
  262SOL    HW2  786   1.898   2.390   2.724 -1.1396 -0.2344 -0.4475
  263SOL     OW  787   0.256   2.015   0.490  0.0754 -0.2299  0.7329
  263SOL    HW1  788   0.352   2.003   0.483 -0.1366 -2.8562  2.1636
  263SOL    HW2  789   0.213   1.956   0.416 -0.5913 -1.7234  1.0461
  264SOL     OW  790   0.056   2.276   0.805  0.3080  0.0338 -0.1868
  264SOL    HW1  791   0.096   2.205   0.864 -2.0699  0.4935  1.4023
  264SOL    HW2  792   3.065   2.286   0.817  1.1221  1.4386  0.2635
  265SOL     OW  793   0.519   1.331   0.390 -0.0059  0.7004  0.3925
  265SOL    HW1  794   0.486   1.335   0.486  0.3388  0.5534 -0.7145
  265SOL    HW2  795   0.611   1.287   0.386 -1.5542 -0.3414 -1.3201
  266SOL     OW  796   0.900   1.755   2.414 -0.6824 -0.2886 -0.4563
  266SOL    HW1  797   0.876   1.833   2.481  2.2650  1.0455  5.1423
  266SOL    HW2  798   0.983   1.782   2.355  0.1987  0.8071 -2.1912
  267SOL     OW  799   1.370   0.566   2.526  0.0031  0.1078 -0.3228
  267SOL    HW1  800   1.311   0.518   2.594 -1.0731  0.8574  0.9380
  267SOL    HW2  801   1.329   0.551   2.435  0.4209  0.9782  1.4162
  268SOL     OW  802   0.584   0.871   3.006 -0.1126  0.0594  0.0728
  268SOL    HW1  803   0.510   0.833   2.944 -0.6217  1.6088  0.1581
  268SOL    HW2  804   0.542   0.906   3.094 -0.3216  0.9729 -1.3904
  269SOL     OW  805   2.395   2.368   2.350 -0.0431  0.1826 -0.0835
  269SOL    HW1  806   2.405   2.268   2.356  0.8858  1.3569  1.1148
  269SOL    HW2  807   2.352   2.405   2.270  2.9511 -1.3399  1.1574
  270SOL     OW  808   1.611   1.492   2.933 -0.5255 -0.7016  0.1403
  270SOL    HW1  809   1.647   1.518   2.844 -0.3131 -1.0113  1.3566
  270SOL    HW2  810   1.628   1.395   2.947 -1.2048  0.8234 -1.4399
  271SOL     OW  811   0.408   0.237   3.017  0.1087  0.5464  0.0337
  271SOL    HW1  812   0.500   0.201   2.985  0.3932  0.6339  1.7180
  271SOL    HW2  813   0.334   0.172   2.984 -0.5805 -0.6107 -1.9468
  272SOL     OW  814   2.727   0.593   0.296  0.0625 -0.2875 -0.7724
  272SOL    HW1  815   2.773   0.588   0.386  1.0301  1.3492  0.2149
  272SOL    HW2  816   2.627   0.621   0.306 -0.2966  0.4722 -0.6525
  273SOL     OW  817   0.501   2.742   1.931 -0.0390  0.4110 -0.0588
  273SOL    HW1  818   0.531   2.832   1.970 -0.1176 -1.9332  0.0325
  273SOL    HW2  819   0.403   2.750   1.899 -0.1231  0.0355  0.1288
  274SOL     OW  820   0.144   0.797   1.749  0.9314  0.1515 -0.9617
  274SOL    HW1  821   0.076   0.801   1.827  1.2072  1.5793  2.1200
  274SOL    HW2  822   0.136   0.707   1.699 -0.4583 -1.6525  0.1652
  275SOL     OW  823   0.708   1.551   0.689  0.3483  0.3882 -0.3426
  275SOL    HW1  824   0.760   1.466   0.684 -2.9031  0.3950  0.3357
  275SOL    HW2  825   0.741   1.608   0.768  1.8989 -0.3552 -0.1273
  276SOL     OW  826   0.695   0.826   2.085  0.0934 -0.5301  0.2994
  276SOL    HW1  827   0.647   0.912   2.064 -1.6052 -2.2320  0.4200
  276SOL    HW2  828   0.727   0.819   2.184 -1.5303 -0.6190  0.1872
  277SOL     OW  829   1.174   2.442   1.903 -0.3711 -0.0877 -0.3755
  277SOL    HW1  830   1.097   2.437   1.832 -3.7440  1.4397 -1.1470
  277SOL    HW2  831   1.184   2.359   1.963  1.8533 -1.8883  2.4498
  278SOL     OW  832   1.686   2.843   1.868 -0.4750  0.5111 -0.1798
  278SOL    HW1  833   1.619   2.812   1.939  1.6625  3.9966  2.8846
  278SOL    HW2  834   1.745   2.904   1.922  1.3518 -1.7082  0.2773
  279SOL     OW  835   1.216   1.411   0.307  0.1741 -0.3748 -0.1046
  279SOL    HW1  836   1.238   1.494   0.252 -0.1886  1.2344  0.4734
  279SOL    HW2  837   1.294   1.343   0.309  2.9873 -0.0706  0.5731
  280SOL     OW  838   0.977   1.297   0.230 -0.6285 -0.0312  0.3180
  280SOL    HW1  839   0.941   1.334   0.140 -2.3119  1.2899 -4.6680
  280SOL    HW2  840   1.056   1.352   0.266 -0.2172  0.3988  0.3844
  281SOL     OW  841   0.319   0.371   1.364  0.6233 -0.4464  0.1889
  281SOL    HW1  842   0.403   0.370   1.416 -2.5500  3.1805 -3.5821
  281SOL    HW2  843   0.333   0.399   1.265  1.5088  0.7335 -1.0859
  282SOL     OW  844   0.100   2.524   0.644  0.4876  0.0034 -0.4210
  282SOL    HW1  845   0.077   2.487   0.549  2.0149 -0.8371  1.1149
  282SOL    HW2  846   0.084   2.446   0.709 -0.0444  1.5754  2.1633
  283SOL     OW  847   1.570   2.163   2.267  0.0806  0.6940  0.1295
  283SOL    HW1  848   1.648   2.156   2.204 -1.3771  3.7997  1.3190
  283SOL    HW2  849   1.511   2.075   2.272 -0.5028  1.1816  0.0208
  284SOL     OW  850   2.426   2.947   0.965 -0.3039  0.1333 -0.3807
  284SOL    HW1  851   2.363   3.014   1.013  0.9665  0.9727 -0.4306
  284SOL    HW2  852   2.396   2.850   0.970 -0.4654  1.3580  1.9305
  285SOL     OW  853   0.583   2.297   2.617 -0.1405  0.2472 -0.3725
  285SOL    HW1  854   0.523   2.356   2.565 -1.4801 -2.3655 -2.4029
  285SOL    HW2  855   0.680   2.326   2.618 -1.3381 -1.8856 -0.8901
  286SOL     OW  856   3.037   2.794   0.784 -0.8080 -1.1947 -0.0826
  286SOL    HW1  857   2.973   2.873   0.765 -2.5664 -1.0546 -0.7121
  286SOL    HW2  858   3.015   2.739   0.867  0.7215 -0.1647  1.0646
  287SOL     OW  859   0.842   1.175   0.909  0.1702 -0.5334  0.0875
  287SOL    HW1  860   0.890   1.258   0.943  1.0487 -0.4184 -0.6668
  287SOL    HW2  861   0.785   1.192   0.829  0.5984 -0.5654  3.9761
  288SOL     OW  862   2.217   2.173   2.783  0.0439  0.3833  0.1385
  288SOL    HW1  863   2.179   2.100   2.722 -0.3984  2.1119 -0.6852
  288SOL    HW2  864   2.229   2.260   2.736  0.0530 -2.4585 -1.6179
  289SOL     OW  865   2.990   2.144   2.733  0.3596 -0.1054  0.3440
  289SOL    HW1  866   2.930   2.095   2.802  0.7068 -2.1528 -0.6644
  289SOL    HW2  867   3.061   2.081   2.692  1.9807  0.1077 -1.2956
  290SOL     OW  868   1.335   1.783   1.315  0.0372 -0.4449 -0.2283
  290SOL    HW1  869   1.419   1.755   1.267 -3.4255 -1.1350  0.8692
  290SOL    HW2  870   1.269   1.833   1.254  0.6626  1.2932 -2.2634
  291SOL     OW  871   1.425   1.279   0.020  0.0126 -0.0947  0.3310
  291SOL    HW1  872   1.370   1.351   3.080  1.3735 -0.0175  1.0033
  291SOL    HW2  873   1.378   1.188   0.045 -0.2700 -1.8497  0.0992
  292SOL     OW  874   0.921   1.543   0.370  0.0117 -0.0612 -0.4385
  292SOL    HW1  875   0.980   1.577   0.445 -0.1110  0.0974 -2.0946
  292SOL    HW2  876   0.866   1.460   0.390 -2.3243  1.3474  0.6032
  293SOL     OW  877   1.461   2.856   1.011 -0.3966  0.3278 -0.3353
  293SOL    HW1  878   1.450   2.882   1.111  0.5040  1.8369  0.1263
  293SOL    HW2  879   1.397   2.908   0.950 -0.6150  0.7143 -0.7359
  294SOL     OW  880   1.948   1.284   2.759  0.3259  0.2747  0.1810
  294SOL    HW1  881   1.998   1.227   2.825 -1.2423  0.5854 -1.9766
  294SOL    HW2  882   1.872   1.332   2.802 -0.5655 -0.5264 -1.8352
  295SOL     OW  883   1.794   1.865   2.972 -0.1586 -0.2344  0.8279
  295SOL    HW1  884   1.704   1.819   3.001 -3.3907  0.3130 -2.7144
  295SOL    HW2  885   1.780   1.966   2.949 -0.9356  2.8584 -0.6905
  296SOL     OW  886   1.803   0.619   1.840 -0.2368  0.6622 -0.2486
  296SOL    HW1  887   1.831   0.647   1.743 -3.0601  0.2016 -0.3047
  296SOL    HW2  888   1.863   0.654   1.915 -0.1260  2.0182  1.1843
  297SOL     OW  889   0.003   0.817   2.028 -0.1082  0.0323  0.3051
  297SOL    HW1  890   3.016   0.838   2.004 -0.5003 -2.1477  1.2169
  297SOL    HW2  891   0.041   0.889   2.088 -0.7410 -0.2968  2.0410
  298SOL     OW  892   0.885   1.861   1.824  0.2675  0.2229  0.5246
  298SOL    HW1  893   0.987   1.837   1.808  3.3127 -1.7666  0.0291
  298SOL    HW2  894   0.881   1.957   1.854  1.4672 -0.9165 -1.9895
  299SOL     OW  895   1.263   0.042   2.629  0.2769  0.1262  0.0361
  299SOL    HW1  896   1.341   0.082   2.579 -2.5825 -1.8927 -1.9852
  299SOL    HW2  897   1.209   3.099   2.563  2.5061  1.2230  0.8893
  300SOL     OW  898   3.054   1.070   2.986 -0.0989  0.2452  0.3610
  300SOL    HW1  899   2.982   1.019   3.032  1.6524  0.4424 -0.5849
  300SOL    HW2  900   0.021   1.091   3.052  1.1834 -0.9212 -1.6507
  301SOL     OW  901   1.780   0.834   2.486 -0.0477  0.2352 -0.0441
  301SOL    HW1  902   1.747   0.738   2.489  0.6667 -0.1731  3.3895
  301SOL    HW2  903   1.704   0.900   2.489  2.2125  0.3515  0.7445
  302SOL     OW  904   2.385   1.777   2.808  0.1398  0.1793 -0.2877
  302SOL    HW1  905   2.402   1.872   2.844  2.2330  1.3124 -0.1707
  302SOL    HW2  906   2.461   1.710   2.830  2.4445  1.3560 -1.2476
  303SOL     OW  907   0.466   2.118   2.786  0.2944 -0.4665  0.0118
  303SOL    HW1  908   0.480   2.191   2.715  1.8012 -2.1370 -2.7039
  303SOL    HW2  909   0.368   2.121   2.808  1.6089  0.8523  0.4991
  304SOL     OW  910   0.030   1.333   1.545  0.2560 -0.1595 -0.3348
  304SOL    HW1  911   0.035   1.308   1.447 -0.0805 -2.5777 -2.9111
  304SOL    HW2  912   3.108   1.259   1.608 -0.2557  3.1166 -1.8037
  305SOL     OW  913   2.457   0.611   1.887 -0.3324 -0.1175 -0.0841
  305SOL    HW1  914   2.379   0.545   1.879 -0.9359  0.7099  3.3850
  305SOL    HW2  915   2.528   0.572   1.954  0.6799  1.0363  2.4427
  306SOL     OW  916   2.156   1.434   1.715  0.2661 -0.7974  0.4546
  306SOL    HW1  917   2.135   1.522   1.659 -0.8597  3.2376 -2.5038
  306SOL    HW2  918   2.074   1.384   1.729  1.9133  2.3669 -1.4850
  307SOL     OW  919   2.875   3.104   1.048 -0.1346  0.6992  0.0380
  307SOL    HW1  920   2.839   3.017   1.094  2.2486 -1.8218  2.0016
  307SOL    HW2  921   2.928   0.057   1.104 -0.8591  0.0611  0.7515
  308SOL     OW  922   0.082   1.719   1.730  0.5042  0.0153 -0.0649
  308SOL    HW1  923   0.049   1.787   1.800  1.4969  1.2813  0.5940
  308SOL    HW2  924   0.178   1.686   1.742 -0.2340 -2.3351  0.2670
  309SOL     OW  925   2.420   2.351   1.985 -0.2694  0.0384  0.2061
  309SOL    HW1  926   2.377   2.419   2.048  2.0522  1.3234  1.8586
  309SOL    HW2  927   2.374   2.348   1.896  0.7979 -1.3440  1.7332
  310SOL     OW  928   2.127   1.412   2.594  0.0958  0.0821 -0.2619
  310SOL    HW1  929   2.151   1.494   2.660  0.7399  0.5227 -1.8367
  310SOL    HW2  930   2.053   1.354   2.638  1.5496 -4.0279 -0.7430
  311SOL     OW  931   1.675   1.251   3.026 -0.0283 -0.3983  0.0631
  311SOL    HW1  932   1.581   1.268   3.048  1.4114 -1.2563 -1.6549
  311SOL    HW2  933   1.701   1.158   3.049  1.5988  0.9057  0.5003
  312SOL     OW  934   1.196   2.079   2.397  0.4113  0.1405 -0.0146
  312SOL    HW1  935   1.169   1.990   2.356 -1.9674  1.0375  0.4831
  312SOL    HW2  936   1.297   2.077   2.387 -1.3076 -0.2782  0.1815
  313SOL     OW  937   0.187   0.065   0.845 -0.2396 -0.2825  0.3415
  313SOL    HW1  938   0.123   0.132   0.803 -0.8476 -1.2895  0.7163
  313SOL    HW2  939   0.215   0.108   0.936  0.5210 -0.1139  0.4807
  314SOL     OW  940   0.562   2.002   1.161 -0.0310 -0.2924 -0.4393
  314SOL    HW1  941   0.577   2.081   1.225 -0.9039 -0.6578  2.7206
  314SOL    HW2  942   0.518   1.928   1.206  1.4683  1.5880 -0.9033
  315SOL     OW  943   0.437   2.122   2.165 -0.1313  0.3579 -0.8786
  315SOL    HW1  944   0.337   2.102   2.148 -0.7201 -0.3179  3.4997
  315SOL    HW2  945   0.489   2.156   2.085 -0.0319 -1.4629  3.6807
  316SOL     OW  946   0.280   2.435   0.889  0.4646  0.0092 -0.2109
  316SOL    HW1  947   0.201   2.369   0.880 -2.8549  0.4129  1.6180
  316SOL    HW2  948   0.318   2.454   0.800  0.4196 -0.0746 -0.5636
  317SOL     OW  949   2.537   0.003   1.268  0.1372  0.4443  0.0098
  317SOL    HW1  950   2.486   0.013   1.182  0.7290 -3.8543 -0.6969
  317SOL    HW2  951   2.511   0.076   1.330 -1.9343 -0.1079  2.5964
  318SOL     OW  952   2.245   2.431   0.306  0.0774 -0.6265 -0.3804
  318SOL    HW1  953   2.252   2.334   0.274 -0.5481  1.4036  0.2553
  318SOL    HW2  954   2.333   2.484   0.323  3.0329  1.4146  1.6057
  319SOL     OW  955   1.307   1.703   2.819 -0.2146  0.4946 -0.3742
  319SOL    HW1  956   1.260   1.779   2.851  1.1705 -3.1949 -2.9307
  319SOL    HW2  957   1.328   1.723   2.720 -0.2628 -0.5104 -0.5024
  320SOL     OW  958   0.364   2.348   2.338 -0.3119  0.3320 -0.4249
  320SOL    HW1  959   0.404   2.265   2.288 -0.9102 -1.0665 -2.4334
  320SOL    HW2  960   0.329   2.415   2.268 -3.8659 -0.6583 -0.8670
  321SOL     OW  961   0.819   2.368   3.106  0.7145  0.0870  0.2841
  321SOL    HW1  962   0.897   2.401   3.051 -0.9469 -0.3878 -2.8017
  321SOL    HW2  963   0.767   2.303   3.049 -1.0095  1.9272 -0.3214
  322SOL     OW  964   2.656   0.323   2.211 -0.3223 -0.3024  0.0080
  322SOL    HW1  965   2.620   0.252   2.146 -0.2022  0.2145 -2.7666
  322SOL    HW2  966   2.708   0.280   2.286  1.4517 -0.0669  1.0108
  323SOL     OW  967   2.859   1.241   0.854 -0.0937 -0.4568 -0.1303
  323SOL    HW1  968   2.890   1.296   0.933  0.1039 -0.0592  0.8958
  323SOL    HW2  969   2.914   1.152   0.856  3.2660 -1.9576 -1.4468
  324SOL     OW  970   0.350   0.854   1.914 -1.1959  0.1740 -0.1756
  324SOL    HW1  971   0.397   0.766   1.924 -0.6020  1.3713 -0.8004
  324SOL    HW2  972   0.266   0.844   1.849 -1.9077 -1.7087  0.4578
  325SOL     OW  973   0.584   0.160   2.028  0.1141 -0.9329  0.2212
  325SOL    HW1  974   0.529   0.226   1.984  2.3220 -0.6651  2.3260
  325SOL    HW2  975   0.563   0.159   2.128  1.6584 -1.1216 -0.8772
  326SOL     OW  976   2.089   2.604   0.155 -0.2172  0.5027 -0.5193
  326SOL    HW1  977   1.997   2.609   0.197  0.7997 -2.6337  0.0294
  326SOL    HW2  978   2.149   2.550   0.219 -0.7765  0.5029 -0.2159
  327SOL     OW  979   2.228   1.366   0.463 -0.6297 -0.7943 -0.3094
  327SOL    HW1  980   2.207   1.464   0.469  1.7715 -2.7545 -0.4632
  327SOL    HW2  981   2.281   1.350   0.374 -1.6578 -1.3574  0.7092
  328SOL     OW  982   2.978   1.825   2.597  0.5176 -0.3185 -0.5832
  328SOL    HW1  983   2.919   1.803   2.680 -3.2804 -2.8624 -0.4212
  328SOL    HW2  984   3.071   1.849   2.629 -0.3719  0.9064  0.6329
  329SOL     OW  985   0.397   2.144   1.580 -0.1541  0.0390 -0.3215
  329SOL    HW1  986   0.366   2.135   1.485 -0.7200  1.1032  0.3138
  329SOL    HW2  987   0.324   2.103   1.642 -3.5477 -2.2063  1.3980
  330SOL     OW  988   2.384   1.340   2.552  0.3914  0.7236 -0.0486
  330SOL    HW1  989   2.288   1.370   2.579 -0.8254  1.0277  0.2470
  330SOL    HW2  990   2.391   1.242   2.527  1.9387  0.6263 -1.0714
  331SOL     OW  991   2.362   2.684   0.974  0.2945  0.0330 -0.2914
  331SOL    HW1  992   2.262   2.702   1.003 -1.9571  0.0362  4.0441
  331SOL    HW2  993   2.369   2.618   0.898  0.1374 -0.4524 -1.0495
  332SOL     OW  994   0.393   2.805   0.730  0.1729 -0.2379  0.1789
  332SOL    HW1  995   0.303   2.817   0.776 -1.7904 -1.1229  0.5485
  332SOL    HW2  996   0.440   2.721   0.763  1.9868 -2.5980  0.7027
  333SOL     OW  997   2.208   2.419   2.612 -0.4109  0.4205 -0.1063
  333SOL    HW1  998   2.105   2.411   2.607  0.2778 -0.5139  1.2608
  333SOL    HW2  999   2.256   2.408   2.520  2.0573 -0.6227 -1.4899
  334SOL     OW 1000   0.563   1.114   0.674 -0.0396  0.0747  0.1483
  334SOL    HW1 1001   0.495   1.049   0.710 -0.6791 -0.5508 -0.3927
  334SOL    HW2 1002   0.653   1.069   0.652  0.3242 -1.8617  1.3276
  335SOL     OW 1003   2.770   1.893   2.414  0.0379  0.2247 -0.0976
  335SOL    HW1 1004   2.836   1.866   2.486 -1.9640  0.5833 -2.7181
  335SOL    HW2 1005   2.726   1.814   2.372  0.9403  1.7715 -0.6973
  336SOL     OW 1006   2.276   2.938   2.006 -0.3276  0.4132 -0.1198
  336SOL    HW1 1007   2.343   2.860   2.000  0.1270  0.8934  0.8928
  336SOL    HW2 1008   2.213   2.943   1.926  0.4984  0.1668 -1.2416
  337SOL     OW 1009   0.855   1.004   1.131  0.0436  0.0218  0.1217
  337SOL    HW1 1010   0.953   0.980   1.126 -2.1190 -1.4123 -0.1647
  337SOL    HW2 1011   0.837   1.054   1.044 -1.2579  0.4732  4.0699
  338SOL     OW 1012   1.144   1.946   1.091  0.9028 -0.3760  0.1283
  338SOL    HW1 1013   1.069   2.013   1.087  1.3864 -0.7343 -0.6528
  338SOL    HW2 1014   1.225   1.991   1.045  0.4228 -0.3349  2.6391
  339SOL     OW 1015   0.116   1.771   1.445 -0.1043 -0.0700 -0.3398
  339SOL    HW1 1016   0.102   1.764   1.548 -0.5366 -2.1899  0.6779
  339SOL    HW2 1017   0.172   1.694   1.408  1.5294  1.4861 -1.2260
  340SOL     OW 1018   1.132   2.834   1.646  0.2970  0.3826  0.1614
  340SOL    HW1 1019   1.128   2.938   1.646 -1.5571  0.6006  0.9846
  340SOL    HW2 1020   1.063   2.798   1.719 -0.0236  3.1410  1.2344
  341SOL     OW 1021   1.581   1.683   1.187  0.6580 -0.0215  0.1931
  341SOL    HW1 1022   1.558   1.730   1.100  0.6390  0.6262  1.7414
  341SOL    HW2 1023   1.679   1.703   1.211  0.2243  0.2274  0.5345
  342SOL     OW 1024   2.615   1.606   1.041 -0.1976 -0.3511 -0.3496
  342SOL    HW1 1025   2.680   1.668   0.990  1.4969 -0.0471  0.2686
  342SOL    HW2 1026   2.516   1.614   1.012 -0.3868 -0.2886  0.9084
  343SOL     OW 1027   2.541   0.575   1.301  0.5198 -0.0313 -0.2194
  343SOL    HW1 1028   2.582   0.508   1.365 -0.6709 -1.7141  1.3458
  343SOL    HW2 1029   2.558   0.674   1.323 -0.3089  0.6675  1.2601
  344SOL     OW 1030   2.350   0.378   0.798 -0.1479  0.2973  0.4249
  344SOL    HW1 1031   2.412   0.308   0.827 -0.1204 -0.7198  0.9941
  344SOL    HW2 1032   2.344   0.372   0.695 -0.5773 -0.8323 -0.9633
  345SOL     OW 1033   0.801   2.739   2.289 -0.1266  0.0052  0.3912
  345SOL    HW1 1034   0.790   2.679   2.206  1.1373 -2.1069  3.0446
  345SOL    HW2 1035   0.738   2.822   2.282  1.7723 -2.5319 -0.7718
  346SOL     OW 1036   2.919   2.324   0.896  0.0477 -0.1746 -0.0057
  346SOL    HW1 1037   2.937   2.249   0.967 -0.5041  0.0373 -0.0100
  346SOL    HW2 1038   2.820   2.353   0.890 -0.1301  0.4786  0.5388
  347SOL     OW 1039   2.101   0.158   1.470 -0.6239 -0.1299 -0.3672
  347SOL    HW1 1040   2.092   0.067   1.510 -2.2715  2.7593 -1.1957
  347SOL    HW2 1041   2.108   0.153   1.367 -1.0029 -3.5590 -1.8918
  348SOL     OW 1042   0.987   1.086   1.364  0.0904 -0.0782 -0.3223
  348SOL    HW1 1043   0.961   1.025   1.290  0.6853 -1.1897 -0.8254
  348SOL    HW2 1044   0.996   1.033   1.452 -0.9639  1.6632  3.6654
  349SOL     OW 1045   2.237   0.451   1.881 -0.4063  0.1913 -0.1497
  349SOL    HW1 1046   2.184   0.488   1.957 -0.8268  0.6717  0.3330
  349SOL    HW2 1047   2.253   0.351   1.904  0.7056 -1.4048  2.0836
  350SOL     OW 1048   2.035   2.463   0.538  0.1260  0.2725  0.2141
  350SOL    HW1 1049   2.052   2.545   0.595  0.6549 -1.3476 -1.2512
  350SOL    HW2 1050   2.116   2.442   0.478  0.6474 -0.5878  0.2196
  351SOL     OW 1051   1.198   0.413   2.710 -0.2264 -0.5148  0.5786
  351SOL    HW1 1052   1.176   0.326   2.761  0.2282  0.4112  1.2245
  351SOL    HW2 1053   1.186   0.485   2.780 -1.8136  0.3100  2.1765
  352SOL     OW 1054   2.042   2.565   1.993  0.4964  0.0773  0.0785
  352SOL    HW1 1055   2.046   2.463   1.990 -0.0285 -2.9209  0.0126
  352SOL    HW2 1056   1.981   2.599   1.915 -2.5642 -0.7001 -2.1583
  353SOL     OW 1057   0.440   0.819   2.427 -0.1118  0.0129  0.1745
  353SOL    HW1 1058   0.387   0.834   2.342  0.5114  0.5339  1.5499
  353SOL    HW2 1059   0.538   0.843   2.422  0.6571 -0.8198  1.4356
  354SOL     OW 1060   0.523   2.882   2.677  0.5572  0.4484  0.4130
  354SOL    HW1 1061   0.531   2.811   2.602  0.6790 -0.7512 -4.8488
  354SOL    HW2 1062   0.430   2.922   2.685  1.0700  1.3268  1.7402
  355SOL     OW 1063   2.126   2.764   1.076 -0.1040 -0.1404  0.2158
  355SOL    HW1 1064   2.146   2.850   1.128 -0.2939  1.6497 -0.3052
  355SOL    HW2 1065   2.027   2.768   1.044  0.1626  1.0626  1.1530
  356SOL     OW 1066   2.472   0.710   0.345 -0.1794 -0.5090 -0.5304
  356SOL    HW1 1067   2.504   0.793   0.395  0.1803 -0.4176  1.9024
  356SOL    HW2 1068   2.390   0.663   0.382  0.9028 -1.0083 -1.6149
  357SOL     OW 1069   0.320   3.063   1.851 -0.1202 -0.0183  0.1154
  357SOL    HW1 1070   0.331   0.054   1.844 -2.2009  1.9015  0.0110
  357SOL    HW2 1071   0.231   3.046   1.903 -2.0581 -0.5071  3.2348
  358SOL     OW 1072   2.990   1.487   1.274  0.0530 -0.1714  0.5897
  358SOL    HW1 1073   3.082   1.456   1.249 -2.7035  0.8511 -1.5995
  358SOL    HW2 1074   2.983   1.591   1.257  0.0159  3.4313  1.1310
  359SOL     OW 1075   2.635   0.152   2.805 -0.0781 -0.0366 -0.1612
  359SOL    HW1 1076   2.585   0.086   2.744 -0.4934 -3.8964 -0.0451
  359SOL    HW2 1077   2.668   0.111   2.890 -0.4642 -1.4419  1.4148
  360SOL     OW 1078   1.223   0.733   1.163  0.3545  0.2052  0.1103
  360SOL    HW1 1079   1.136   0.677   1.160 -0.1488  0.9255 -0.3923
  360SOL    HW2 1080   1.247   0.761   1.259 -0.8023  1.1371  0.5696
  361SOL     OW 1081   2.763   2.542   1.607  0.1562 -0.5875  0.3550
  361SOL    HW1 1082   2.847   2.590   1.638 -1.5137 -0.6332 -1.0602
  361SOL    HW2 1083   2.675   2.584   1.635  0.7453 -0.2990  1.9869
  362SOL     OW 1084   1.296   0.235   0.946  0.6655  0.1105  0.5564
  362SOL    HW1 1085   1.366   0.178   0.894  2.0072 -4.0496  0.5624
  362SOL    HW2 1086   1.294   0.200   1.040  3.0164  2.4042 -2.2192
  363SOL     OW 1087   2.074   1.761   0.574 -0.3377  0.0570  0.2553
  363SOL    HW1 1088   2.171   1.731   0.581  0.2133  0.4492 -0.6628
  363SOL    HW2 1089   2.009   1.683   0.584 -1.7366 -0.8721  3.6105
  364SOL     OW 1090   0.682   0.819   1.707 -0.0140  0.2238  0.3984
  364SOL    HW1 1091   0.749   0.785   1.776 -0.1259  0.3889  2.4232
  364SOL    HW2 1092   0.674   0.757   1.622 -2.0591 -0.9102 -0.4154
  365SOL     OW 1093   0.071   0.344   1.050  0.1504  0.8623 -0.5011
  365SOL    HW1 1094   0.141   0.271   1.059  0.6478  1.4461 -3.1485
  365SOL    HW2 1095   0.064   0.407   1.133  1.6949 -2.8272  0.2214
  366SOL     OW 1096   2.792   1.071   0.306 -0.1216  0.4615  0.3171
  366SOL    HW1 1097   2.788   1.131   0.226 -1.1305 -0.3160 -0.6132
  366SOL    HW2 1098   2.863   1.096   0.375  1.3701  0.1530 -1.9682
  367SOL     OW 1099   2.126   1.977   2.374  0.4297  0.0838  0.1026
  367SOL    HW1 1100   2.055   2.050   2.359  0.6166 -0.6146  1.0542
  367SOL    HW2 1101   2.218   2.018   2.395  2.3210 -0.2624  4.3629
  368SOL     OW 1102   2.360   2.219   0.798  0.2629 -0.4552  0.1877
  368SOL    HW1 1103   2.412   2.135   0.788 -0.5836  0.2195 -0.0989
  368SOL    HW2 1104   2.259   2.203   0.780 -0.3526 -1.9546  0.1022
  369SOL     OW 1105   2.177   0.184   2.811  0.1293 -0.2799  0.4680
  369SOL    HW1 1106   2.165   0.220   2.904 -1.2168 -1.8683 -0.1121
  369SOL    HW2 1107   2.230   0.095   2.814  0.2054  0.7602  2.7631
  370SOL     OW 1108   0.668   0.526   1.065  0.3960  0.2754 -0.5024
  370SOL    HW1 1109   0.575   0.478   1.055 -2.7927 -2.3692  2.3969
  370SOL    HW2 1110   0.665   0.633   1.075  0.5480  2.9421 -0.5598
  371SOL     OW 1111   0.321   1.665   0.242  0.5031 -0.4519  0.5208
  371SOL    HW1 1112   0.299   1.678   0.146  0.8450  1.7380 -1.0004
  371SOL    HW2 1113   0.419   1.635   0.242 -0.1538 -1.1889  0.4803
  372SOL     OW 1114   0.724   0.789   2.382 -0.0264  0.3610  0.3191
  372SOL    HW1 1115   0.703   0.690   2.421 -2.1354 -1.4607  2.9080
  372SOL    HW2 1116   0.823   0.815   2.398 -2.3889 -1.9600  0.0866
  373SOL     OW 1117   1.021   2.655   2.707  0.8098 -0.0193  0.5210
  373SOL    HW1 1118   0.977   2.666   2.801 -0.1113 -2.3541  0.2200
  373SOL    HW2 1119   0.993   2.725   2.640  2.8231 -0.4196 -2.8343
  374SOL     OW 1120   0.849   1.894   0.546 -0.4744  0.3950  0.6089
  374SOL    HW1 1121   0.911   1.810   0.546  0.0848 -0.4397  0.7974
  374SOL    HW2 1122   0.756   1.861   0.524  3.9593 -0.9030  2.4942
  375SOL     OW 1123   0.885   0.796   1.897 -0.2573 -0.5855 -0.0680
  375SOL    HW1 1124   0.819   0.772   1.971  2.4608  1.6434  1.5298
  375SOL    HW2 1125   0.979   0.766   1.920 -1.9093  0.5301 -0.0436
  376SOL     OW 1126   3.061   2.580   1.939 -0.1421 -0.1280 -0.1429
  376SOL    HW1 1127   2.977   2.624   1.963 -0.4268 -2.6248  1.2389
  376SOL    HW2 1128   0.026   2.642   1.959 -0.8792 -1.4410 -0.4377
  377SOL     OW 1129   2.496   1.567   2.948 -0.0669 -0.0442  0.0969
  377SOL    HW1 1130   2.461   1.493   2.886 -1.3632 -3.0371  2.6464
  377SOL    HW2 1131   2.465   1.550   3.044 -0.4519  1.2912 -0.5557
  378SOL     OW 1132   2.247   3.051   2.929  0.1014  0.4490 -0.2326
  378SOL    HW1 1133   2.160   2.994   2.938  0.3326  0.5839  1.3178
  378SOL    HW2 1134   2.286   3.079   3.016 -0.1472  0.1379 -1.8667
  379SOL     OW 1135   1.908   0.609   0.698 -0.0875 -0.2208  0.3446
  379SOL    HW1 1136   1.962   0.690   0.730  0.9808  0.5553 -1.6929
  379SOL    HW2 1137   1.810   0.613   0.732 -1.0700 -1.4790  2.1508
  380SOL     OW 1138   2.458   1.964   1.629  0.2628 -0.0855  0.4737
  380SOL    HW1 1139   2.446   1.925   1.725 -1.6074  0.4731  3.0365
  380SOL    HW2 1140   2.508   1.901   1.563  0.9964 -1.9398  1.2573
  381SOL     OW 1141   2.672   1.334   2.414  0.2203 -0.1151 -0.3117
  381SOL    HW1 1142   2.654   1.325   2.318 -0.6637  1.0061  3.7803
  381SOL    HW2 1143   2.596   1.375   2.462  2.6588 -4.7604  0.6105
  382SOL     OW 1144   2.713   2.768   2.624 -0.0671 -0.2394  0.6502
  382SOL    HW1 1145   2.637   2.702   2.608  0.0386 -1.7687 -1.3412
  382SOL    HW2 1146   2.697   2.863   2.597  2.3258 -2.8273  0.4026
  383SOL     OW 1147   0.877   1.388   0.003 -0.2707  0.0795  0.0230
  383SOL    HW1 1148   0.792   1.363   3.066  0.9474 -0.1724  0.3109
  383SOL    HW2 1149   0.935   1.457   3.062  3.0088 -2.4239  1.1877
  384SOL     OW 1150   1.552   1.921   1.720  0.7376  0.2587  0.2453
  384SOL    HW1 1151   1.484   1.998   1.728 -0.6623 -1.0493 -4.5741
  384SOL    HW2 1152   1.610   1.911   1.804 -1.7293  0.8259 -2.4102
  385SOL     OW 1153   1.677   2.852   0.553 -0.4194 -0.0124 -0.0606
  385SOL    HW1 1154   1.687   2.950   0.575 -0.1674 -0.9168 -1.7139
  385SOL    HW2 1155   1.760   2.805   0.518  0.1051 -0.9764 -0.0743
  386SOL     OW 1156   1.954   1.288   0.421 -0.2097  0.4534  0.1648
  386SOL    HW1 1157   2.051   1.308   0.450 -2.0295 -1.4434  0.1758
  386SOL    HW2 1158   1.912   1.368   0.378 -1.5087 -0.5094 -2.5524
  387SOL     OW 1159   2.937   2.190   1.608 -0.1693  0.0441 -0.2102
  387SOL    HW1 1160   2.865   2.184   1.676  0.2343  0.5621 -1.0245
  387SOL    HW2 1161   2.909   2.251   1.532 -0.1802  1.2707 -1.8121
  388SOL     OW 1162   3.058   1.133   1.738 -0.2390 -0.2430  0.1887
  388SOL    HW1 1163   3.106   1.116   1.826 -1.0238 -0.6013  0.1737
  388SOL    HW2 1164   3.103   1.065   1.673  1.2851  0.7656  0.1955
  389SOL     OW 1165   1.730   0.522   0.043 -0.4250  0.7592 -0.2684
  389SOL    HW1 1166   1.713   0.437   0.096  1.1103 -1.0202  1.9884
  389SOL    HW2 1167   1.784   0.584   0.099  1.2860  0.0193 -1.0565
  390SOL     OW 1168   1.020   1.619   2.983  0.0220  0.0850 -0.5392
  390SOL    HW1 1169   0.981   1.632   3.073  0.4519  2.6320  0.9127
  390SOL    HW2 1170   1.069   1.706   2.960 -1.1002  0.4345  0.9199
  391SOL     OW 1171   1.345   2.027   0.244 -0.2514 -0.5351 -0.0736
  391SOL    HW1 1172   1.370   2.121   0.274 -2.5674 -0.1377  1.6393
  391SOL    HW2 1173   1.372   2.012   0.150 -2.6685 -0.9978  1.5910
  392SOL     OW 1174   3.053   2.494   2.301 -0.4932 -0.2126  0.0348
  392SOL    HW1 1175   0.033   2.509   2.254  2.2975  0.8729 -1.2645
  392SOL    HW2 1176   3.080   2.485   2.401  1.0233 -2.1404  2.2314
  393SOL     OW 1177   1.401   1.893   0.502  0.0547 -0.1667 -0.0294
  393SOL    HW1 1178   1.485   1.941   0.524 -1.4593 -0.9537 -1.2913
  393SOL    HW2 1179   1.368   1.922   0.412 -0.9698 -0.0526 -0.6467
  394SOL     OW 1180   0.597   0.481   2.254 -0.2175  0.5927  0.4110
  394SOL    HW1 1181   0.682   0.484   2.192  1.0985 -1.0918 -1.2117
  394SOL    HW2 1182   0.611   0.510   2.353  0.6549  1.5480  1.3474
  395SOL     OW 1183   0.620   1.396   1.331  0.1732 -0.0194 -0.7113
  395SOL    HW1 1184   0.700   1.365   1.384 -1.2206 -1.0918 -0.1518
  395SOL    HW2 1185   0.636   1.481   1.275 -0.9323 -0.3891  2.0171
  396SOL     OW 1186   1.936   1.162   2.162 -1.3269 -0.2202 -0.6235
  396SOL    HW1 1187   1.838   1.172   2.172  2.1378  0.6189 -0.3659
  396SOL    HW2 1188   1.985   1.221   2.230  0.2084 -0.9818 -0.5339
  397SOL     OW 1189   0.718   0.369   3.087 -0.3660  0.7602 -0.5255
  397SOL    HW1 1190   0.646   0.408   3.023  0.6117  2.4546 -0.8597
  397SOL    HW2 1191   0.702   0.401   0.073  0.5160 -0.6112 -0.7804
  398SOL     OW 1192   1.198   2.287   0.023 -0.5330 -0.1539 -0.0912
  398SOL    HW1 1193   1.191   2.192   0.063 -1.0894  0.1612 -0.5622
  398SOL    HW2 1194   1.157   2.354   0.085  1.2560 -1.7226 -1.4108
  399SOL     OW 1195   1.785   2.103   2.104  0.0816 -0.6155 -0.0360
  399SOL    HW1 1196   1.759   2.019   2.051 -2.7047 -0.0539  0.6120
  399SOL    HW2 1197   1.774   2.183   2.039 -1.8989  1.1484 -0.4009
  400SOL     OW 1198   2.194   1.323   1.222  0.2142  0.0023  0.3624
  400SOL    HW1 1199   2.180   1.331   1.127  1.2453  0.1305  7.3146
  400SOL    HW2 1200   2.286   1.360   1.247 -2.0604  1.6846  0.7999
  401SOL     OW 1201   1.267   1.118   0.939 -0.2477  0.3615  0.3419
  401SOL    HW1 1202   1.248   1.171   1.023 -0.5638 -1.2603 -4.8289
  401SOL    HW2 1203   1.367   1.129   0.920 -1.1676  0.1761 -0.3128
  402SOL     OW 1204   0.137   2.883   2.442  0.0778 -0.3927  0.8184
  402SOL    HW1 1205   0.097   2.830   2.522  0.0437  0.5110 -0.4275
  402SOL    HW2 1206   0.218   2.839   2.394 -1.5040  1.3935  0.1525
  403SOL     OW 1207   2.610   1.819   1.464  0.4221 -0.0605  0.0168
  403SOL    HW1 1208   2.675   1.752   1.503 -0.3594 -0.7581 -1.4207
  403SOL    HW2 1209   2.540   1.764   1.413  1.9179  0.0743 -4.0917
  404SOL     OW 1210   2.140   1.895   1.442 -0.2141 -0.0793  0.3754
  404SOL    HW1 1211   2.208   1.891   1.365 -0.2821  0.8347 -1.9338
  404SOL    HW2 1212   2.161   1.981   1.492  0.1533 -0.8139 -1.9992
  405SOL     OW 1213   2.562   0.425   2.806 -0.3055  0.5487 -0.2010
  405SOL    HW1 1214   2.578   0.325   2.830  1.6189  0.5518  2.3445
  405SOL    HW2 1215   2.650   0.475   2.780  2.5214  2.5079  0.8433
  406SOL     OW 1216   0.879   1.462   2.438 -0.4105  0.0658  0.5138
  406SOL    HW1 1217   0.866   1.558   2.469  1.2310 -2.8784 -0.6213
  406SOL    HW2 1218   0.972   1.430   2.456  1.1417  0.0369 -1.9429
  407SOL     OW 1219   1.851   2.660   0.269  0.0736  0.1383 -0.7930
  407SOL    HW1 1220   1.864   2.737   0.338  2.4491  3.4522  2.0149
  407SOL    HW2 1221   1.806   2.575   0.304 -0.0728  1.7646 -2.5795
  408SOL     OW 1222   0.174   2.884   0.857 -0.1596  0.8913  0.5900
  408SOL    HW1 1223   0.150   2.977   0.864  3.3217 -3.8868 -1.7699
  408SOL    HW2 1224   0.100   2.823   0.825 -1.8585 -1.7031 -0.3278
  409SOL     OW 1225   2.101   2.199   0.748  0.0518  0.2787  0.0896
  409SOL    HW1 1226   2.042   2.116   0.751  0.0097 -2.1227  0.8498
  409SOL    HW2 1227   2.058   2.267   0.681 -1.6256  0.3150 -1.5369
  410SOL     OW 1228   2.419   2.057   2.896  0.2525 -0.0918  0.1385
  410SOL    HW1 1229   2.496   2.120   2.867  0.3383 -2.4722  3.0976
  410SOL    HW2 1230   2.329   2.101   2.864 -1.9556  0.9696 -2.2070
  411SOL     OW 1231   0.246   0.060   0.385  0.2669  0.1748 -0.2184
  411SOL    HW1 1232   0.336   0.058   0.335  0.7465  1.7988  2.1580
  411SOL    HW2 1233   0.263   0.016   0.479 -2.6604  0.6924 -0.2594
  412SOL     OW 1234   1.471   2.540   0.297 -0.3582 -0.3835 -0.0603
  412SOL    HW1 1235   1.442   2.621   0.244  0.8405 -1.1063  2.1928
  412SOL    HW2 1236   1.486   2.563   0.394  0.1891 -0.4020  1.7745
  413SOL     OW 1237   2.073   0.477   2.112  0.2052 -0.3723  0.8814
  413SOL    HW1 1238   2.074   0.575   2.095  1.3716 -4.2852  1.5321
  413SOL    HW2 1239   1.978   0.443   2.139 -0.7734  2.4404  1.4546
  414SOL     OW 1240   0.030   0.496   0.496  0.5717  0.2030 -0.0363
  414SOL    HW1 1241   0.091   0.560   0.546  2.0674  0.5915 -0.2369
  414SOL    HW2 1242   0.062   0.484   0.400  0.0865  0.4676 -0.8922
  415SOL     OW 1243   0.208   1.542   1.337  0.0085 -0.6229 -0.0128
  415SOL    HW1 1244   0.188   1.530   1.239 -2.4563 -2.0057  0.2735
  415SOL    HW2 1245   0.273   1.467   1.373 -0.5463  0.4166 -0.4960
  416SOL     OW 1246   0.186   2.990   0.136  0.4530  0.0696 -0.1836
  416SOL    HW1 1247   0.144   3.051   0.065  1.5483 -0.7361 -2.7008
  416SOL    HW2 1248   0.178   3.036   0.227 -1.0170 -0.5466 -1.7024
  417SOL     OW 1249   2.253   0.030   1.067 -0.4996 -0.3283 -0.8071
  417SOL    HW1 1250   2.173   0.072   1.114 -0.6149 -3.4967  0.6808
  417SOL    HW2 1251   2.332   0.089   1.071 -3.2087 -2.8007  3.0513
  418SOL     OW 1252   0.623   0.546   2.493  0.1401 -0.2845  0.2341
  418SOL    HW1 1253   0.683   0.511   2.569  1.2716  1.5994 -1.7711
  418SOL    HW2 1254   0.547   0.601   2.533 -2.4423 -2.7781  0.2522
  419SOL     OW 1255   0.385   0.951   0.780 -0.3886  0.0498  0.1711
  419SOL    HW1 1256   0.368   0.861   0.819  1.2699 -1.0909  0.3258
  419SOL    HW2 1257   0.385   1.021   0.855 -0.0545  1.3813  0.3517
  420SOL     OW 1258   1.807   2.037   0.946 -0.2206 -0.2215  0.2562
  420SOL    HW1 1259   1.829   1.980   0.865  1.1788  0.4877  1.1319
  420SOL    HW2 1260   1.877   2.045   1.017 -0.5814 -1.2775 -1.1980
  421SOL     OW 1261   1.757   2.045   2.676 -0.1435 -0.1451  0.8206
  421SOL    HW1 1262   1.744   2.081   2.770  1.4969  0.7656  0.9060
  421SOL    HW2 1263   1.686   1.972   2.660  0.9537 -3.3249  0.4080
  422SOL     OW 1264   2.820   0.384   3.071 -0.1598  0.2123 -0.7046
  422SOL    HW1 1265   2.794   0.396   2.972  0.9426 -0.6891 -2.1983
  422SOL    HW2 1266   2.791   0.461   0.022  0.3075  1.3691 -2.6138
  423SOL     OW 1267   1.500   1.810   0.962 -0.3247 -0.1143 -0.6279
  423SOL    HW1 1268   1.490   1.900   1.008 -2.7736  0.6641  0.5414
  423SOL    HW2 1269   1.576   1.802   0.893 -0.0325  1.0397 -0.9884
  424SOL     OW 1270   0.273   1.426   1.658  0.2323  0.3719 -0.0506
  424SOL    HW1 1271   0.289   1.519   1.699  0.0215 -0.6529  1.1500
  424SOL    HW2 1272   0.180   1.408   1.607 -1.6549 -3.7314 -0.2258
  425SOL     OW 1273   2.675   2.695   1.929  0.0408  0.3640  0.3570
  425SOL    HW1 1274   2.695   2.600   1.958  0.2737  0.8783 -1.1036
  425SOL    HW2 1275   2.581   2.725   1.956 -0.9601 -2.2471 -1.0611
  426SOL     OW 1276   1.938   2.878   0.412  0.1450 -0.4373  0.5377
  426SOL    HW1 1277   1.989   2.888   0.498  0.4012 -0.4288  1.1649
  426SOL    HW2 1278   2.010   2.867   0.339  0.7884 -2.6076  0.3906
  427SOL     OW 1279   0.415   0.644   2.641 -0.0714  0.0568 -0.2982
  427SOL    HW1 1280   0.431   0.714   2.566 -1.3068 -0.9819 -1.1920
  427SOL    HW2 1281   0.414   0.686   2.737 -0.8438 -2.7351  1.4451
  428SOL     OW 1282   2.069   1.022   0.091  0.0369  0.4240 -0.1232
  428SOL    HW1 1283   1.991   1.067   0.143 -1.5216 -1.9825 -1.5064
  428SOL    HW2 1284   2.062   1.038   3.100  2.2854  0.8442  0.2316
  429SOL     OW 1285   2.932   0.205   0.345 -0.7720 -0.2749  0.0519
  429SOL    HW1 1286   2.915   0.167   0.439  2.4877 -1.1565  0.3846
  429SOL    HW2 1287   3.029   0.232   0.340  0.3326  1.4012 -0.9622
  430SOL     OW 1288   1.030   2.904   2.029 -0.1164 -0.5233  0.2786
  430SOL    HW1 1289   0.983   2.865   1.950 -0.9770 -1.6988  0.0258
  430SOL    HW2 1290   1.092   2.837   2.076  0.6518 -2.0757  0.5167
  431SOL     OW 1291   3.000   1.779   1.280 -0.0913 -0.2449  0.1125
  431SOL    HW1 1292   2.927   1.835   1.328 -1.0626  2.7659  3.1866
  431SOL    HW2 1293   3.077   1.779   1.346 -1.0917 -0.2283  1.0087
  432SOL     OW 1294   2.102   2.852   1.784  0.5847 -0.2778  0.2371
  432SOL    HW1 1295   2.170   2.777   1.774 -0.7054  1.1192  2.3341
  432SOL    HW2 1296   2.021   2.809   1.831  1.6900 -1.0659  1.2619
  433SOL     OW 1297   0.998   1.710   0.162 -0.1397  0.0045  0.3362
  433SOL    HW1 1298   0.963   1.632   0.218  2.0963  2.5474  2.0250
  433SOL    HW2 1299   0.951   1.797   0.183  1.8710  0.1401 -1.8684
  434SOL     OW 1300   3.105   2.225   2.460 -0.1882 -0.3654 -0.1875
  434SOL    HW1 1301   0.077   2.256   2.512  0.9756  0.1169  1.5933
  434SOL    HW2 1302   3.024   2.250   2.517  0.7995 -0.5070  0.4433
  435SOL     OW 1303   0.394   0.634   0.587  1.2966  0.1781  0.3364
  435SOL    HW1 1304   0.411   0.533   0.599  0.9849 -0.0474 -1.1580
  435SOL    HW2 1305   0.473   0.689   0.546 -0.8439 -1.6120  1.1430
  436SOL     OW 1306   0.230   2.320   1.807 -0.2255  0.2328 -0.0637
  436SOL    HW1 1307   0.316   2.338   1.756 -1.2632  0.7437 -0.9539
  436SOL    HW2 1308   0.174   2.253   1.751  0.1044  1.9829 -1.9916
  437SOL     OW 1309   1.012   1.891   1.367 -0.1644  0.5785 -0.0736
  437SOL    HW1 1310   1.070   1.952   1.428  0.4014  0.5631 -1.6618
  437SOL    HW2 1311   1.067   1.859   1.290 -2.9069  1.3830  0.4131
  438SOL     OW 1312   0.056   2.197   0.535 -0.5199  0.0123 -0.7155
  438SOL    HW1 1313   0.126   2.134   0.498 -1.8316  1.0367 -2.1383
  438SOL    HW2 1314   0.023   2.165   0.626 -1.0379  0.6172  1.2339
  439SOL     OW 1315   0.235   0.141   1.100 -0.0127  0.2276  0.1196
  439SOL    HW1 1316   0.219   0.061   1.161  1.5260 -0.5130 -1.2129
  439SOL    HW2 1317   0.323   0.187   1.122  1.6186  2.4766  1.6814
  440SOL     OW 1318   2.895   2.705   2.199 -0.0457  0.3017  0.2972
  440SOL    HW1 1319   2.969   2.639   2.213  0.1781  2.2651 -1.2286
  440SOL    HW2 1320   2.808   2.657   2.184  0.2611  0.3063 -0.9703
  441SOL     OW 1321   2.901   0.607   1.700 -0.5225 -0.4106  0.0286
  441SOL    HW1 1322   2.881   0.520   1.742 -1.0884  2.5583 -1.5480
  441SOL    HW2 1323   2.890   0.684   1.768 -1.8915 -0.9825  0.8130
  442SOL     OW 1324   1.671   2.319   0.026  0.4438 -0.0730 -0.6158
  442SOL    HW1 1325   1.735   2.351   0.095  0.8312 -2.1915 -0.4187
  442SOL    HW2 1326   1.590   2.384   0.016 -1.6423  0.0789  0.5831
  443SOL     OW 1327   0.446   0.935   0.122  0.2682  0.0968  0.2994
  443SOL    HW1 1328   0.379   0.866   0.138  0.4607  0.6264 -0.4163
  443SOL    HW2 1329   0.425   1.015   0.178  2.0701 -0.4752  2.2350
  444SOL     OW 1330   1.500   1.610   2.391 -0.3308  0.5557  0.5654
  444SOL    HW1 1331   1.455   1.539   2.345  1.2900  2.2917  0.6375
  444SOL    HW2 1332   1.584   1.643   2.346  1.4531 -0.2412  0.8433
  445SOL     OW 1333   0.152   2.579   1.087 -0.1589 -0.1020  0.2272
  445SOL    HW1 1334   0.055   2.590   1.068  4.1967  2.2671 -0.3427
  445SOL    HW2 1335   0.197   2.549   1.001 -0.1262  1.3894 -1.4783
  446SOL     OW 1336   2.335   1.264   1.605  0.1461 -0.1128  0.7981
  446SOL    HW1 1337   2.264   1.328   1.643  0.0599 -1.5108  2.4647
  446SOL    HW2 1338   2.398   1.234   1.677 -1.8583 -0.9457 -1.4726
  447SOL     OW 1339   0.204   0.690   3.058  0.3766 -0.3408  0.4049
  447SOL    HW1 1340   0.138   0.733   0.017 -1.7057  0.9747 -0.9826
  447SOL    HW2 1341   0.152   0.643   2.983 -1.6074  1.5667  1.7936
  448SOL     OW 1342   1.410   2.166   1.751 -0.2636 -0.3478 -0.1483
  448SOL    HW1 1343   1.334   2.202   1.695  1.6497 -1.0897  0.7471
  448SOL    HW2 1344   1.482   2.237   1.774 -0.1135 -2.1538  0.1373
  449SOL     OW 1345   1.210   1.448   0.577 -0.6399  0.4825  0.4692
  449SOL    HW1 1346   1.306   1.484   0.594 -0.6057  1.4997 -1.7640
  449SOL    HW2 1347   1.208   1.429   0.476  0.7276 -0.3626 -1.9230
  450SOL     OW 1348   2.455   1.862   1.879  0.1004 -0.0022 -0.0524
  450SOL    HW1 1349   2.538   1.823   1.849 -2.1441  2.2572  1.7229
  450SOL    HW2 1350   2.456   1.937   1.946  2.8321 -2.1998 -1.3719
  451SOL     OW 1351   2.933   1.379   2.920 -0.2774 -0.0789 -0.1150
  451SOL    HW1 1352   2.957   1.294   2.867 -0.4034  0.3622  2.4862
  451SOL    HW2 1353   2.834   1.398   2.908  0.6468 -0.6863 -1.3728
  452SOL     OW 1354   1.625   0.904   0.903 -0.0609  0.5555 -0.4077
  452SOL    HW1 1355   1.603   0.825   0.965 -0.6955 -0.6106  2.5429
  452SOL    HW2 1356   1.717   0.898   0.864  0.7847  0.6837  0.8370
  453SOL     OW 1357   2.111   1.133   1.015 -0.1408 -0.3715 -0.3017
  453SOL    HW1 1358   2.136   1.048   1.067  1.5768  0.7835  2.6489
  453SOL    HW2 1359   2.016   1.162   1.037 -0.3659 -1.2721 -0.2359
  454SOL     OW 1360   2.943   0.898   0.536 -0.1348 -0.2146 -0.1961
  454SOL    HW1 1361   2.938   0.796   0.541  0.5452 -1.8806  0.2809
  454SOL    HW2 1362   2.889   0.929   0.614 -1.0647 -0.2968  0.7757
  455SOL     OW 1363   2.617   2.694   1.080 -0.1124 -0.3141  0.2740
  455SOL    HW1 1364   2.652   2.708   0.986 -1.4069  0.8127  2.7665
  455SOL    HW2 1365   2.511   2.689   1.081 -4.0220 -0.1368  0.8007
  456SOL     OW 1366   0.571   2.762   1.081  0.3459 -0.3047 -0.2588
  456SOL    HW1 1367   0.672   2.760   1.077  0.2111 -0.1201 -1.0410
  456SOL    HW2 1368   0.535   2.858   1.080 -0.3527  1.0875  1.1465
  457SOL     OW 1369   1.861   2.973   0.771 -0.3894  0.1642 -0.3310
  457SOL    HW1 1370   1.791   3.013   0.715 -1.1351 -2.4182  0.3501
  457SOL    HW2 1371   1.935   2.944   0.709  0.3599 -0.3860 -1.3949
  458SOL     OW 1372   2.790   0.234   0.949 -0.1836  0.2111  0.3657
  458SOL    HW1 1373   2.826   0.146   0.986 -1.6961 -0.6847  1.2098
  458SOL    HW2 1374   2.773   0.297   1.025  0.9426  0.1991 -0.3658
  459SOL     OW 1375   1.997   0.663   2.934  0.2765 -0.1294 -0.0931
  459SOL    HW1 1376   1.934   0.725   2.886 -0.2271  0.1272 -2.1104
  459SOL    HW2 1377   1.955   0.570   2.941  1.7254 -2.6893  0.1585
  460SOL     OW 1378   2.766   2.305   3.041  0.2779 -0.0904 -0.0842
  460SOL    HW1 1379   2.823   2.386   3.019 -0.9381 -0.0955  0.4496
  460SOL    HW2 1380   2.829   2.228   3.052  1.6793  0.9954 -0.2694
  461SOL     OW 1381   0.632   1.710   0.492 -0.1477 -0.0930 -0.1840
  461SOL    HW1 1382   0.675   1.654   0.568 -1.1528  0.1406 -0.9850
  461SOL    HW2 1383   0.624   1.659   0.405 -0.6690  0.1919  1.3481
  462SOL     OW 1384   2.535   2.532   0.596  0.0984 -0.1082  0.4195
  462SOL    HW1 1385   2.627   2.482   0.589 -1.1622  1.8736  1.6496
  462SOL    HW2 1386   2.520   2.583   0.509  0.3860  2.3711 -0.1576
  463SOL     OW 1387   2.895   0.612   0.516 -0.1129  0.0705 -0.0530
  463SOL    HW1 1388   2.856   0.592   0.608 -1.4289  1.0262  1.4203
  463SOL    HW2 1389   2.983   0.564   0.511 -2.7838  2.4158 -0.8830
  464SOL     OW 1390   1.211   2.862   0.618  0.2877 -0.0558  0.4171
  464SOL    HW1 1391   1.122   2.883   0.575  2.7273 -1.1717 -0.8676
  464SOL    HW2 1392   1.246   2.771   0.582  2.2449 -0.9753  1.3585
  465SOL     OW 1393   2.355   0.979   0.449 -0.4160 -0.7542  0.3072
  465SOL    HW1 1394   2.269   0.943   0.486  0.8488 -4.1572  1.1464
  465SOL    HW2 1395   2.338   1.021   0.356  0.8735 -2.4658 -0.5768
  466SOL     OW 1396   2.519   2.868   0.043 -0.4601 -0.8622  0.5423
  466SOL    HW1 1397   2.494   2.964   0.022 -0.3661 -1.2134  1.0676
  466SOL    HW2 1398   2.438   2.808   0.039  2.2083  1.5212 -1.7986
  467SOL     OW 1399   1.164   0.699   1.625  0.3215  0.1723 -0.7165
  467SOL    HW1 1400   1.198   0.773   1.690 -0.7228  0.9608  1.6760
  467SOL    HW2 1401   1.213   0.712   1.537  0.4734 -1.9566 -3.3019
  468SOL     OW 1402   0.319   0.598   2.213 -0.1033 -0.3738 -0.3102
  468SOL    HW1 1403   0.410   0.558   2.223 -2.7408  0.0571 -0.2739
  468SOL    HW2 1404   0.331   0.698   2.194  1.4936  3.2578  2.8902
  469SOL     OW 1405   0.777   2.980   2.687  0.6586 -0.1383  0.1850
  469SOL    HW1 1406   0.684   2.937   2.680 -2.5107 -2.6998  0.9489
  469SOL    HW2 1407   0.839   2.946   2.613  1.9802  0.2612  2.1092
  470SOL     OW 1408   1.919   1.122   2.531 -0.1576  0.2804 -0.4553
  470SOL    HW1 1409   1.947   1.158   2.617 -0.6329  0.1153 -0.0749
  470SOL    HW2 1410   1.923   1.024   2.541 -3.0575  1.1124  0.3068
  471SOL     OW 1411   2.803   1.190   2.619 -0.0387 -0.0267 -0.4731
  471SOL    HW1 1412   2.782   1.280   2.578 -0.0751  2.3492 -0.6147
  471SOL    HW2 1413   2.741   1.165   2.698 -0.6648 -1.1197 -0.1924
  472SOL     OW 1414   0.479   2.343   0.224 -0.3686  0.0522  0.1342
  472SOL    HW1 1415   0.481   2.412   0.298  1.6562  2.4943 -1.7000
  472SOL    HW2 1416   0.569   2.299   0.206 -3.5541  2.5170 -0.0102
  473SOL     OW 1417   0.636   0.055   2.858 -0.0386  0.1594  0.1403
  473SOL    HW1 1418   0.671   3.090   2.801  0.8293  2.3178 -0.3456
  473SOL    HW2 1419   0.602   0.013   2.943 -0.8008 -1.0304 -4.7162
  474SOL     OW 1420   1.546   0.516   2.191  0.0976 -1.0445 -0.0737
  474SOL    HW1 1421   1.490   0.436   2.219  0.3610 -0.0728  0.2447
  474SOL    HW2 1422   1.568   0.516   2.095 -0.1353 -2.4545 -0.4353
  475SOL     OW 1423   0.820   2.717   0.218  0.4677 -0.2701  0.2686
  475SOL    HW1 1424   0.874   2.802   0.246  0.1828  0.0326 -2.2372
  475SOL    HW2 1425   0.879   2.639   0.184 -1.4976  1.2623  1.1570
  476SOL     OW 1426   0.418   1.131   0.979 -0.2213  0.2075 -0.1583
  476SOL    HW1 1427   0.500   1.102   1.032 -0.7816  0.1712 -0.4654
  476SOL    HW2 1428   0.406   1.234   0.977  0.2301  2.0465  1.1751
  477SOL     OW 1429   1.519   2.109   1.342 -0.0635  0.0225  0.0441
  477SOL    HW1 1430   1.577   2.190   1.359 -2.2288 -1.3871  0.9933
  477SOL    HW2 1431   1.556   2.030   1.397 -1.4205 -3.1080  1.9547
  478SOL     OW 1432   0.904   1.428   2.169 -0.2048  0.7162  0.3214
  478SOL    HW1 1433   0.930   1.335   2.141  1.2494 -0.9660  1.5943
  478SOL    HW2 1434   0.895   1.432   2.271  0.1359 -0.4819 -1.6399
  479SOL     OW 1435   0.474   3.006   1.070 -0.1286 -0.2314 -0.1957
  479SOL    HW1 1436   0.399   3.031   1.131  2.9934  1.0329 -1.4702
  479SOL    HW2 1437   0.450   3.022   0.970 -1.0742 -2.2748  0.0833
  480SOL     OW 1438   2.622   2.499   0.102 -0.0165 -0.6619  0.1260
  480SOL    HW1 1439   2.677   2.443   0.038 -0.4554  1.5254  1.3936
  480SOL    HW2 1440   2.535   2.514   0.055  1.2947 -0.0947  2.5409
  481SOL     OW 1441   2.996   0.169   1.221  0.2569 -0.7244 -0.5511
  481SOL    HW1 1442   3.073   0.215   1.179 -4.2484 -0.9157 -0.2917
  481SOL    HW2 1443   3.017   0.091   1.288 -0.0706 -0.6211  1.0742
  482SOL     OW 1444   1.549   2.481   2.032  0.1193 -0.0094  0.4910
  482SOL    HW1 1445   1.561   2.561   2.087 -1.5159 -0.5559 -1.7611
  482SOL    HW2 1446   1.530   2.509   1.937 -2.2707 -0.5995  1.1603
  483SOL     OW 1447   0.495   1.439   2.740 -0.2045  0.1129 -0.3226
  483SOL    HW1 1448   0.540   1.524   2.741  1.7403 -3.4505  1.6498
  483SOL    HW2 1449   0.483   1.412   2.643  0.3060 -3.1570  0.7847
  484SOL     OW 1450   1.153   1.580   2.225  0.3277  0.0011  0.1185
  484SOL    HW1 1451   1.205   1.505   2.269 -1.0047  0.8306 -1.9597
  484SOL    HW2 1452   1.065   1.547   2.182 -0.0203  0.4546 -1.7140
  485SOL     OW 1453   2.720   0.086   3.064 -0.1873 -0.1413 -0.1294
  485SOL    HW1 1454   2.711   0.184   3.066  0.1457 -1.2735  0.5853
  485SOL    HW2 1455   2.783   0.063   0.031  1.2703 -1.5891  3.7150
  486SOL     OW 1456   1.683   0.011   0.605  0.9442 -0.0312  0.0364
  486SOL    HW1 1457   1.714   0.065   0.526 -0.3249  1.1869  2.1671
  486SOL    HW2 1458   1.617   0.061   0.669 -1.1648  1.8125 -0.5872
  487SOL     OW 1459   1.165   2.566   0.842  0.5942 -0.0253  0.1194
  487SOL    HW1 1460   1.125   2.473   0.869  1.2382 -0.1166  1.7438
  487SOL    HW2 1461   1.101   2.643   0.866 -0.4402  0.1932 -1.0035
  488SOL     OW 1462   2.332   1.082   0.198 -0.4881 -0.4725  0.4393
  488SOL    HW1 1463   2.346   1.185   0.213  0.5389  4.2708  0.5956
  488SOL    HW2 1464   2.246   1.068   0.145 -0.3343 -1.0416 -0.0256
  489SOL     OW 1465   1.403   2.953   1.285 -0.1510  0.2390  0.1453
  489SOL    HW1 1466   1.308   2.913   1.300 -1.1623 -0.8542 -1.9047
  489SOL    HW2 1467   1.400   3.056   1.267 -1.5286  2.1046  1.2325
  490SOL     OW 1468   0.781   0.916   0.312 -0.0919 -0.2983 -0.5606
  490SOL    HW1 1469   0.853   0.910   0.386  2.3172  0.3943  1.3925
  490SOL    HW2 1470   0.810   0.868   0.229  0.3701 -0.0050  1.0017
  491SOL     OW 1471   1.170   0.114   0.662  0.4507 -0.3642  0.5179
  491SOL    HW1 1472   1.226   0.198   0.681  1.4125  1.2612  0.2152
  491SOL    HW2 1473   1.104   0.099   0.737  1.5472 -1.9703 -1.5098
  492SOL     OW 1474   1.316   1.378   2.281 -0.6492  0.3107  0.1760
  492SOL    HW1 1475   1.367   1.370   2.194 -1.7336 -0.1273  0.4318
  492SOL    HW2 1476   1.271   1.289   2.313 -0.7905 -1.9078  1.5919
  493SOL     OW 1477   0.236   2.547   0.213 -0.1440  0.4645 -0.0416
  493SOL    HW1 1478   0.183   2.552   0.299 -1.0547 -1.3287 -3.5196
  493SOL    HW2 1479   0.333   2.522   0.234 -0.4606 -0.7392  1.2891
  494SOL     OW 1480   2.134   1.947   0.360  0.1240  0.7107 -0.4757
  494SOL    HW1 1481   2.117   1.897   0.449 -0.8608  0.3899 -2.6949
  494SOL    HW2 1482   2.138   1.881   0.283  0.7520 -1.9994  0.3556
  495SOL     OW 1483   2.848   0.816   2.834 -0.5602 -0.4186  0.4381
  495SOL    HW1 1484   2.944   0.785   2.812  2.2560 -1.3838 -0.8635
  495SOL    HW2 1485   2.823   0.815   2.937 -0.7376  1.6316  0.9591
  496SOL     OW 1486   2.978   2.912   2.068  0.4861  0.0377 -0.8965
  496SOL    HW1 1487   2.936   2.837   2.121 -1.2333 -0.5707 -0.9448
  496SOL    HW2 1488   2.964   2.905   1.967  0.8558  1.5869 -1.0630
  497SOL     OW 1489   2.678   0.933   0.876  0.1101 -0.2815  0.4463
  497SOL    HW1 1490   2.653   0.947   0.971  0.2627  0.0404 -3.4547
  497SOL    HW2 1491   2.598   0.936   0.814  0.6920 -0.1895  0.5618
  498SOL     OW 1492   0.174   2.161   2.837 -0.4591  0.1933  0.0785
  498SOL    HW1 1493   0.114   2.199   2.913 -0.2148 -0.0235 -0.0395
  498SOL    HW2 1494   0.204   2.227   2.762 -0.1799 -0.3288 -2.5883
  499SOL     OW 1495   0.665   2.167   0.611 -0.1890  0.3509  0.1503
  499SOL    HW1 1496   0.729   2.240   0.594  0.4489 -1.1934  0.1194
  499SOL    HW2 1497   0.700   2.100   0.677  0.3082 -2.7893  0.9216
  500SOL     OW 1498   0.901   0.177   2.483  0.2311 -0.1598  0.4460
  500SOL    HW1 1499   0.892   0.186   2.585  0.1310  0.6615 -0.5524
  500SOL    HW2 1500   0.835   0.118   2.439  0.2035  2.2453 -1.7879
  501SOL     OW 1501   0.878   0.134   1.504  0.6925  0.1333  0.4494
  501SOL    HW1 1502   0.854   0.060   1.576 -1.9758 -0.7587 -0.8882
  501SOL    HW2 1503   0.976   0.126   1.480  1.7461  1.3948 -1.6696
  502SOL     OW 1504   0.115   0.362   1.975 -0.1663  0.0764 -0.2662
  502SOL    HW1 1505   0.196   0.396   1.922  0.5655  1.4339 -0.7774
  502SOL    HW2 1506   0.071   0.438   2.031 -3.9824 -1.3591  1.6805
  503SOL     OW 1507   2.117   1.697   2.380 -0.2007  0.2473  0.3569
  503SOL    HW1 1508   2.122   1.801   2.386 -1.3301 -1.2287 -0.7347
  503SOL    HW2 1509   2.140   1.647   2.469  0.6872 -1.6978  1.0044
  504SOL     OW 1510   1.883   0.646   1.563  0.3932  0.2958 -0.5267
  504SOL    HW1 1511   1.910   0.707   1.492 -2.7287 -2.0109  2.6439
  504SOL    HW2 1512   1.965   0.610   1.615  0.7554 -0.4688  3.8157
  505SOL     OW 1513   2.790   1.064   1.712 -1.0362 -0.0645 -0.2487
  505SOL    HW1 1514   2.889   1.096   1.719  1.6010 -1.1355 -1.6487
  505SOL    HW2 1515   2.782   1.011   1.626  1.8280 -1.3935  0.1378
  506SOL     OW 1516   0.426   1.385   2.484 -0.2201  0.2459 -0.1171
  506SOL    HW1 1517   0.349   1.316   2.480 -3.6126  1.3708 -2.1006
  506SOL    HW2 1518   0.414   1.466   2.422 -1.2970  4.3391  0.1707
  507SOL     OW 1519   0.418   2.806   2.380  0.4455  0.1052  0.2553
  507SOL    HW1 1520   0.482   2.867   2.331 -0.5514 -1.1592  0.5658
  507SOL    HW2 1521   0.443   2.713   2.353  1.1628  0.2508 -0.2496
  508SOL     OW 1522   1.317   0.818   1.398 -0.3141  0.6833  0.4168
  508SOL    HW1 1523   1.294   0.916   1.411 -0.7290  2.0036 -0.5743
  508SOL    HW2 1524   1.396   0.803   1.454  1.9705 -1.7245  0.9874
  509SOL     OW 1525   0.877   1.686   1.154 -0.2495 -0.2134  0.2911
  509SOL    HW1 1526   0.888   1.661   1.251  0.2998 -1.0700  1.2759
  509SOL    HW2 1527   0.968   1.680   1.109 -0.3451 -0.4143  2.1432
  510SOL     OW 1528   2.701   1.031   2.430  0.1660 -0.9741  0.2278
  510SOL    HW1 1529   2.728   1.106   2.494  1.3225 -0.0767  1.0745
  510SOL    HW2 1530   2.668   0.950   2.481 -1.9988  0.7482 -0.8423
  511SOL     OW 1531   0.449   1.774   1.235 -0.0233  0.0070  0.3351
  511SOL    HW1 1532   0.350   1.771   1.260  0.0090 -2.2883 -0.1023
  511SOL    HW2 1533   0.510   1.740   1.310  0.1751  2.3509 -0.1174
  512SOL     OW 1534   2.594   2.598   1.356 -0.6601 -0.0500  0.0325
  512SOL    HW1 1535   2.539   2.515   1.375  1.8208  2.5358 -1.0378
  512SOL    HW2 1536   2.587   2.625   1.259 -0.6455  0.3738  2.4117
  513SOL     OW 1537   0.257   1.380   3.057  0.2727 -0.3473  0.0286
  513SOL    HW1 1538   0.309   1.298   3.030 -0.0295  0.6449  2.2112
  513SOL    HW2 1539   0.239   1.442   2.975 -2.5588  1.0256 -0.5899
  514SOL     OW 1540   0.162   2.453   2.926  1.1157 -0.3533 -0.5623
  514SOL    HW1 1541   0.095   2.454   3.004 -3.8172 -0.9501 -1.5384
  514SOL    HW2 1542   0.255   2.431   2.967 -1.4976 -2.0019 -0.2413
  515SOL     OW 1543   1.647   1.128   2.195  0.5853  0.0221  0.5726
  515SOL    HW1 1544   1.608   1.218   2.205 -1.0075 -2.4197  2.3651
  515SOL    HW2 1545   1.631   1.082   2.284  0.7890  4.3848 -1.1929
  516SOL     OW 1546   2.233   2.159   0.212 -0.0398  0.0622 -0.1467
  516SOL    HW1 1547   2.204   2.075   0.266  0.9979 -1.1938 -1.6581
  516SOL    HW2 1548   2.316   2.144   0.159 -0.2849  0.7399 -0.2275
  517SOL     OW 1549   1.372   1.195   0.390  0.2615 -0.6044  0.1873
  517SOL    HW1 1550   1.414   1.143   0.466  1.5389  2.4189 -0.3920
  517SOL    HW2 1551   1.283   1.154   0.367  1.5504 -1.3291 -0.7424
  518SOL     OW 1552   2.271   2.566   2.136 -0.2769 -0.1966  0.3300
  518SOL    HW1 1553   2.231   2.580   2.228  0.2781  1.0584  2.0748
  518SOL    HW2 1554   2.199   2.584   2.064  1.9418  2.9740 -0.6538
  519SOL     OW 1555   1.674   2.335   1.401  0.1001  0.2834  0.0327
  519SOL    HW1 1556   1.718   2.378   1.319  1.1719 -1.3334 -1.8723
  519SOL    HW2 1557   1.620   2.403   1.457  1.7510  1.3028 -1.0700
  520SOL     OW 1558   2.411   2.440   2.806 -0.0138  0.0427 -0.0780
  520SOL    HW1 1559   2.452   2.530   2.815 -3.1064 -3.1509 -2.6016
  520SOL    HW2 1560   2.342   2.446   2.733  0.7355 -1.0822  0.4133
  521SOL     OW 1561   0.355   1.223   2.180  0.0026 -0.1396 -0.4728
  521SOL    HW1 1562   0.308   1.218   2.268 -1.6186 -0.7115  1.2269
  521SOL    HW2 1563   0.347   1.315   2.146  0.7273 -1.4126 -0.8591
  522SOL     OW 1564   1.161   0.471   1.877 -0.4058 -0.3666 -0.6263
  522SOL    HW1 1565   1.187   0.569   1.877 -0.0025 -0.5318  0.4776
  522SOL    HW2 1566   1.113   0.446   1.788 -0.8092 -1.4143  1.5327
  523SOL     OW 1567   0.520   2.352   0.968  0.1174 -0.5236 -0.0578
  523SOL    HW1 1568   0.519   2.261   0.926  1.5634  1.7717  1.7693
  523SOL    HW2 1569   0.426   2.389   0.968  1.4645  0.4447  0.7759
  524SOL     OW 1570   1.530   2.616   0.541  0.4395  0.1581  0.4818
  524SOL    HW1 1571   1.586   2.697   0.521  0.3849 -3.6892  2.4833
  524SOL    HW2 1572   1.556   2.573   0.629  0.7554 -1.3057 -2.3782
  525SOL     OW 1573   2.193   1.084   1.425 -0.4215 -0.0780 -0.5639
  525SOL    HW1 1574   2.253   1.138   1.488  0.2740  1.1551  2.7345
  525SOL    HW2 1575   2.154   1.144   1.353 -0.1296  1.0928  1.6596
  526SOL     OW 1576   0.963   2.757   0.826  0.0107 -0.1838  0.2486
  526SOL    HW1 1577   0.896   2.706   0.771  2.0715  0.9232  0.9523
  526SOL    HW2 1578   0.987   2.839   0.772  2.4900  0.3723 -1.0600
  527SOL     OW 1579   2.725   2.270   0.327 -0.1895  0.7263 -0.1297
  527SOL    HW1 1580   2.747   2.366   0.353  1.0602 -2.1559  3.1964
  527SOL    HW2 1581   2.685   2.214   0.404  0.1625  0.2263  2.7008
  528SOL     OW 1582   2.037   0.563   0.266 -0.1310  0.2746 -0.5162
  528SOL    HW1 1583   2.027   0.664   0.252  0.4047  0.1997  0.9276
  528SOL    HW2 1584   1.964   0.522   0.332 -3.4840 -1.9310  0.8030
  529SOL     OW 1585   1.485   1.237   2.509  0.0277  0.5727 -0.4508
  529SOL    HW1 1586   1.468   1.293   2.432 -1.4678 -4.4095 -0.0865
  529SOL    HW2 1587   1.417   1.252   2.581 -0.8545  1.9876  0.4938
  530SOL     OW 1588   2.412   0.666   0.080  0.0001  0.3630 -0.5907
  530SOL    HW1 1589   2.486   0.619   0.023  0.2513 -1.2882 -1.4312
  530SOL    HW2 1590   2.432   0.684   0.177 -0.3254  1.4550 -0.0592
  531SOL     OW 1591   1.028   1.072   3.103 -0.0984 -0.0904  0.5158
  531SOL    HW1 1592   0.986   1.136   0.055 -1.5136 -2.6053 -1.8044
  531SOL    HW2 1593   0.989   1.097   3.012  4.9860  3.1912  0.6657
  532SOL     OW 1594   1.805   0.482   0.996 -0.0491 -0.6939 -0.0522
  532SOL    HW1 1595   1.890   0.427   0.984  1.7489 -0.4173 -1.4349
  532SOL    HW2 1596   1.757   0.499   0.907  0.6375  0.6451 -0.2536
  533SOL     OW 1597   1.161   0.994   2.152 -0.3371 -0.0878 -0.3455
  533SOL    HW1 1598   1.198   1.013   2.241  0.9264 -1.1948  0.4208
  533SOL    HW2 1599   1.201   1.060   2.084 -0.9502 -0.4142  3.4537
  534SOL     OW 1600   1.965   0.428   2.462  0.3063 -0.5756 -0.5399
  534SOL    HW1 1601   2.048   0.481   2.480 -3.9003 -1.6386  1.1240
  534SOL    HW2 1602   1.913   0.416   2.551 -2.1719  2.5175  0.8473
  535SOL     OW 1603   0.528   0.344   0.219 -0.3577 -0.2132  0.5030
  535SOL    HW1 1604   0.483   0.404   0.145 -1.6587  2.3720 -0.4541
  535SOL    HW2 1605   0.531   0.249   0.186  0.9477 -2.5400 -1.3369
  536SOL     OW 1606   0.933   3.081   0.790 -0.3823 -0.0976 -0.4227
  536SOL    HW1 1607   0.963   3.050   0.882 -0.0428  2.8030 -1.4719
  536SOL    HW2 1608   0.849   0.022   0.802 -2.1155  2.3051  0.5429
  537SOL     OW 1609   1.525   1.148   0.896  0.0087 -0.1242 -0.3370
  537SOL    HW1 1610   1.562   1.053   0.904  0.5923 -1.7877 -0.9052
  537SOL    HW2 1611   1.593   1.214   0.933 -0.5711  2.7161 -0.1188
  538SOL     OW 1612   2.948   2.022   0.052  0.0986  0.6888 -0.4586
  538SOL    HW1 1613   2.972   1.949   0.120 -1.8580  0.5012  0.5691
  538SOL    HW2 1614   3.026   2.083   0.029 -0.9580 -0.1718  1.5088
  539SOL     OW 1615   2.546   1.811   0.163 -0.0555 -0.1337 -0.9489
  539SOL    HW1 1616   2.475   1.800   0.088 -0.3673 -1.7493 -0.7139
  539SOL    HW2 1617   2.584   1.905   0.159 -0.1617  1.3195  1.7018
  540SOL     OW 1618   0.401   2.822   1.473 -0.0628  0.9120  0.2636
  540SOL    HW1 1619   0.358   2.804   1.382  2.3269 -1.1249  0.2485
  540SOL    HW2 1620   0.400   2.920   1.502  0.5773 -1.0139 -0.0937
  541SOL     OW 1621   2.176   0.074   2.113 -0.4492 -0.4683  0.2301
  541SOL    HW1 1622   2.251   0.006   2.099 -1.6938  1.9167 -1.5409
  541SOL    HW2 1623   2.132   0.101   2.025 -0.2674  1.0764  2.0541
  542SOL     OW 1624   2.831   0.184   2.362  0.4753 -0.2776  0.2029
  542SOL    HW1 1625   2.861   0.192   2.460 -1.2613 -2.1068  0.3674
  542SOL    HW2 1626   2.903   0.212   2.293  1.2322  0.7308 -2.8607
  543SOL     OW 1627   0.799   0.344   0.591 -0.1142 -0.1492 -0.0569
  543SOL    HW1 1628   0.823   0.421   0.527  1.8957 -0.3328 -0.2324
  543SOL    HW2 1629   0.700   0.323   0.579  1.6603 -0.6046 -2.1224
  544SOL     OW 1630   2.999   2.594   1.031  0.1482  0.1864  0.3130
  544SOL    HW1 1631   2.906   2.641   1.021 -0.3350  4.7991  2.1019
  544SOL    HW2 1632   2.995   2.512   1.085 -2.6372  0.5153 -0.5481
  545SOL     OW 1633   1.299   2.092   0.949  0.2283  0.3686  0.3203
  545SOL    HW1 1634   1.291   2.076   0.850 -0.0160  1.8253  1.1126
  545SOL    HW2 1635   1.395   2.111   0.977 -2.8371  0.5680 -0.3942
  546SOL     OW 1636   2.007   0.061   1.878  0.8768  0.1246 -0.0789
  546SOL    HW1 1637   1.953   0.140   1.842  0.0745 -1.4225 -0.6843
  546SOL    HW2 1638   2.038   0.003   1.800  1.2395  0.5821 -2.2138
  547SOL     OW 1639   0.499   0.223   2.279  0.0069  0.7260  0.5163
  547SOL    HW1 1640   0.405   0.213   2.314  1.6758  1.0868 -0.2703
  547SOL    HW2 1641   0.526   0.322   2.269  2.1697 -1.6067  2.5374
  548SOL     OW 1642   1.935   1.783   2.745  0.3965  0.1204 -0.0743
  548SOL    HW1 1643   1.874   1.809   2.820  0.3629 -2.9896 -1.3136
  548SOL    HW2 1644   1.977   1.862   2.701 -0.5176 -0.0573 -0.4587
  549SOL     OW 1645   0.023   0.756   0.694 -0.5333 -0.5881  0.2639
  549SOL    HW1 1646   0.036   0.836   0.634  1.8461  2.2172  0.2093
  549SOL    HW2 1647   3.059   0.783   0.761 -1.2723  1.4301  2.3347
  550SOL     OW 1648   1.683   1.819   0.758  0.0473 -0.1658 -0.2314
  550SOL    HW1 1649   1.747   1.747   0.722 -0.8420  0.5269  0.2537
  550SOL    HW2 1650   1.667   1.890   0.691  1.4284  1.4132  3.1259
  551SOL     OW 1651   0.841   0.303   1.080  0.3120 -0.8783  0.0179
  551SOL    HW1 1652   0.801   0.212   1.090  1.2238 -0.6856  1.7953
  551SOL    HW2 1653   0.768   0.377   1.078  0.0960 -0.0829 -1.4686
  552SOL     OW 1654   2.458   2.758   2.120 -0.1120  0.6774 -0.5011
  552SOL    HW1 1655   2.489   2.797   2.210 -1.2533 -0.4140  2.7185
  552SOL    HW2 1656   2.385   2.689   2.140 -0.0747  2.1877  2.5868
  553SOL     OW 1657   2.953   3.014   2.705 -0.2314 -0.3566 -0.2991
  553SOL    HW1 1658   3.043   2.964   2.684  1.8306 -1.0693  0.1043
  553SOL    HW2 1659   2.880   2.988   2.636 -0.2213 -0.4044 -1.0612
  554SOL     OW 1660   0.919   2.918   1.261  0.3902  0.2714 -0.1952
  554SOL    HW1 1661   0.854   2.923   1.348 -0.6021  1.7816  1.1224
  554SOL    HW2 1662   1.009   2.880   1.284 -0.3255  4.0051 -1.4440
  555SOL     OW 1663   2.359   2.735   1.759 -0.3222 -0.2305  0.3102
  555SOL    HW1 1664   2.371   2.637   1.733 -1.1390  2.1555  4.6486
  555SOL    HW2 1665   2.443   2.784   1.734  1.5571 -0.8565 -0.4734
  556SOL     OW 1666   1.123   0.189   2.812  0.0769 -0.3831 -0.2466
  556SOL    HW1 1667   1.182   0.123   2.757  1.7949 -1.0898 -0.3701
  556SOL    HW2 1668   1.098   0.149   2.902  0.5746  0.3656  0.4358
  557SOL     OW 1669   3.072   1.771   2.333  0.5742  0.2705  0.0725
  557SOL    HW1 1670   3.030   1.797   2.423  0.4338  1.8517 -1.6587
  557SOL    HW2 1671   3.101   1.859   2.287  1.1800  2.0826  2.0489
  558SOL     OW 1672   2.435   1.081   2.511 -0.2933 -0.6872  0.0480
  558SOL    HW1 1673   2.381   1.004   2.475 -1.2885  4.0488  3.0168
  558SOL    HW2 1674   2.534   1.074   2.493 -3.5665 -2.9871 -1.2675
  559SOL     OW 1675   2.429   2.082   2.046 -0.3126  0.2004 -0.4359
  559SOL    HW1 1676   2.467   2.058   2.137 -1.9334  0.6932 -0.4334
  559SOL    HW2 1677   2.423   2.186   2.028 -1.2276  0.5110  1.8283
  560SOL     OW 1678   3.060   0.596   2.407  0.0194  0.1819  0.4034
  560SOL    HW1 1679   2.981   0.654   2.383 -1.1787 -1.6254 -0.1130
  560SOL    HW2 1680   0.006   0.586   2.324  1.1479  0.9803  1.6497
  561SOL     OW 1681   0.670   0.564   0.342 -0.0524  0.5497 -0.0475
  561SOL    HW1 1682   0.623   0.481   0.300 -1.7385  1.0384 -3.2160
  561SOL    HW2 1683   0.767   0.549   0.365 -1.3940 -0.1434 -2.4287
  562SOL     OW 1684   1.075   1.458   1.431 -0.2713  0.0348 -0.3130
  562SOL    HW1 1685   1.021   1.543   1.430  1.1470 -0.9498 -0.4696
  562SOL    HW2 1686   1.007   1.386   1.417  0.3536  2.1196  0.9940
  563SOL     OW 1687   1.500   2.756   3.045  0.5232 -0.1673 -0.2825
  563SOL    HW1 1688   1.482   2.761   0.036 -1.1266  1.3755  1.2675
  563SOL    HW2 1689   1.413   2.752   2.990 -1.5822 -0.4513 -1.0638
  564SOL     OW 1690   0.191   2.114   0.977  0.2921  0.3219 -0.5500
  564SOL    HW1 1691   0.173   2.058   1.062  1.3701 -0.9266 -1.4189
  564SOL    HW2 1692   0.292   2.123   0.956  0.9507  2.0141  0.1758
  565SOL     OW 1693   0.694   2.077   2.226  0.2623 -0.0773 -0.1704
  565SOL    HW1 1694   0.605   2.076   2.271  1.3092  1.6040  1.4878
  565SOL    HW2 1695   0.751   2.156   2.263  0.9443  3.4184  0.3171
  566SOL     OW 1696   1.215   2.554   2.352  0.0446  0.3327  0.4584
  566SOL    HW1 1697   1.295   2.491   2.358 -2.7192 -0.1764 -1.6370
  566SOL    HW2 1698   1.214   2.607   2.263 -0.2095  2.6512 -4.2065
  567SOL     OW 1699   2.167   2.255   1.047 -0.3253  0.1367 -0.0870
  567SOL    HW1 1700   2.096   2.188   1.065  0.3769  0.8992 -2.1121
  567SOL    HW2 1701   2.178   2.283   0.947 -1.9178  1.5843 -2.5258
  568SOL     OW 1702   2.029   0.827   0.310 -0.4202 -0.1032 -0.1638
  568SOL    HW1 1703   2.039   0.918   0.264  2.3170  2.7154 -2.2366
  568SOL    HW2 1704   2.069   0.828   0.404 -3.4441 -1.4073 -0.3841
  569SOL     OW 1705   0.046   1.445   2.664  0.1648  0.4762  0.7349
  569SOL    HW1 1706   0.089   1.495   2.588  1.3843  1.4046  2.0434
  569SOL    HW2 1707   0.011   1.351   2.648  0.5516  0.1441 -1.0954
  570SOL     OW 1708   3.056   3.047   1.380 -0.2598  0.2266  0.0913
  570SOL    HW1 1709   3.034   3.059   1.479  1.0724  0.1689  0.3615
  570SOL    HW2 1710   3.068   2.954   1.355 -0.9189  6.2859  1.5438
  571SOL     OW 1711   0.218   0.588   1.570  0.6288 -0.2000 -0.2537
  571SOL    HW1 1712   0.254   0.630   1.486 -2.6010  0.7981 -1.0614
  571SOL    HW2 1713   0.139   0.529   1.541  0.5137  2.4501 -3.1655
  572SOL     OW 1714   2.908   2.564   0.745  0.3442  0.1088 -0.5080
  572SOL    HW1 1715   2.958   2.482   0.785  1.6241 -1.7061  0.5273
  572SOL    HW2 1716   2.969   2.646   0.726  0.3868  1.2183  1.8028
  573SOL     OW 1717   0.730   0.739   0.100  0.2546 -0.4670  0.1381
  573SOL    HW1 1718   0.684   0.722   0.188 -0.4910 -1.5920 -0.2308
  573SOL    HW2 1719   0.667   0.796   0.038 -0.0082  1.6598 -1.2401
  574SOL     OW 1720   2.869   2.557   3.025 -0.1995  0.5044 -0.1198
  574SOL    HW1 1721   2.816   2.642   3.024 -1.0956 -0.8913  0.8941
  574SOL    HW2 1722   2.963   2.583   3.056 -0.7414 -0.8054 -0.0028
  575SOL     OW 1723   1.081   2.336   1.274 -0.0616  0.4206 -0.2153
  575SOL    HW1 1724   1.015   2.311   1.203  0.8382 -0.6780  0.8894
  575SOL    HW2 1725   1.168   2.289   1.261 -2.3013  0.5098 -0.1048
  576SOL     OW 1726   0.225   3.022   1.235  0.4066  0.3373  0.6008
  576SOL    HW1 1727   0.207   2.923   1.208  2.6863 -0.3998 -1.3888
  576SOL    HW2 1728   0.211   3.028   1.337  1.0204 -2.1632 -1.0079
  577SOL     OW 1729   2.189   1.630   0.967  0.3684  0.2909  0.6739
  577SOL    HW1 1730   2.207   1.531   0.955  1.1211  3.2079  0.1968
  577SOL    HW2 1731   2.260   1.682   0.922  0.1142  0.3531  2.6981
  578SOL     OW 1732   1.612   0.283   0.144  0.0926  0.5828  0.2472
  578SOL    HW1 1733   1.645   0.216   0.211 -2.9206  0.1091  0.2614
  578SOL    HW2 1734   1.519   0.262   0.119  1.4138 -0.8780  0.5742
  579SOL     OW 1735   2.912   1.482   2.524 -0.0246  0.1516  0.0419
  579SOL    HW1 1736   2.827   1.468   2.476  1.5943 -0.1240  3.0295
  579SOL    HW2 1737   2.930   1.575   2.555  1.2709  1.9056  0.2485
  580SOL     OW 1738   1.693   0.949   1.523  0.5544 -0.4245 -0.9920
  580SOL    HW1 1739   1.794   0.921   1.522  2.0752 -0.9939  1.2566
  580SOL    HW2 1740   1.635   0.865   1.510  1.8072 -1.3400 -0.7252
  581SOL     OW 1741   0.844   1.288   1.442  0.0608  0.0002 -0.6411
  581SOL    HW1 1742   0.808   1.277   1.534  0.1194 -0.8417 -3.4278
  581SOL    HW2 1743   0.893   1.209   1.401  0.5267  1.6008  1.0151
  582SOL     OW 1744   0.110   3.029   2.039 -0.1069  0.3703 -0.2030
  582SOL    HW1 1745   0.139   3.084   2.119 -1.9729 -1.2768 -0.4965
  582SOL    HW2 1746   0.021   2.984   2.060  2.1896  4.9101  2.3825
  583SOL     OW 1747   2.104   0.538   1.655  0.0173 -0.6321 -0.3793
  583SOL    HW1 1748   2.135   0.502   1.746 -1.6937  0.7140  0.3320
  583SOL    HW2 1749   2.176   0.534   1.582  0.2425 -0.2568 -1.3762
  584SOL     OW 1750   1.431   2.058   2.813  0.1690 -0.5671 -0.5813
  584SOL    HW1 1751   1.447   1.976   2.758  0.5704  0.4946  1.5802
  584SOL    HW2 1752   1.340   2.097   2.795  2.2458  0.1159  2.2236
  585SOL     OW 1753   0.434   2.850   0.301  0.1412  0.3005 -0.2679
  585SOL    HW1 1754   0.360   2.785   0.333 -2.0693 -0.5293 -1.1216
  585SOL    HW2 1755   0.480   2.824   0.215  0.4479  3.1095  1.1007
  586SOL     OW 1756   1.708   2.252   2.488 -0.0131  0.1796 -0.0447
  586SOL    HW1 1757   1.727   2.177   2.545  1.7940  5.3234 -1.8036
  586SOL    HW2 1758   1.654   2.214   2.409 -0.3844 -1.6277  0.5337
  587SOL     OW 1759   2.638   2.124   0.547  0.3439  0.0238 -0.0405
  587SOL    HW1 1760   2.555   2.069   0.565 -1.2145  0.0822  0.7943
  587SOL    HW2 1761   2.652   2.196   0.619 -0.0648  1.7809 -1.6582
  588SOL     OW 1762   2.461   0.234   1.118  0.1819  0.1880 -0.2518
  588SOL    HW1 1763   2.555   0.241   1.149 -4.1919  1.4199  0.1835
  588SOL    HW2 1764   2.406   0.318   1.135  2.5157  0.1949  0.8336
  589SOL     OW 1765   0.924   0.479   0.370 -0.3768  0.1517  0.0175
  589SOL    HW1 1766   1.010   0.452   0.421  0.5788  1.6105  1.9120
  589SOL    HW2 1767   0.950   0.498   0.276 -1.1341 -1.0240  3.0826
  590SOL     OW 1768   2.330   1.656   0.533 -0.1626 -0.6158 -0.4925
  590SOL    HW1 1769   2.382   1.636   0.447  2.7627  0.7580  0.6119
  590SOL    HW2 1770   2.392   1.633   0.611 -2.1858 -0.3833 -2.6919
  591SOL     OW 1771   0.309   2.758   1.221 -0.0792 -0.1753  0.0747
  591SOL    HW1 1772   0.402   2.738   1.183 -0.9152 -2.4435  0.7618
  591SOL    HW2 1773   0.241   2.696   1.172 -1.9966 -2.5411  1.2513
  592SOL     OW 1774   1.006   0.933   1.568  0.3656 -0.2877 -1.1992
  592SOL    HW1 1775   0.971   0.966   1.661  0.7035 -0.1130  4.0050
  592SOL    HW2 1776   1.066   0.849   1.578  0.6917 -1.6055 -0.0677
  593SOL     OW 1777   0.740   1.429   1.043 -0.5606  0.1346 -0.4634
  593SOL    HW1 1778   0.841   1.404   1.040  0.7537 -1.4454 -2.3009
  593SOL    HW2 1779   0.726   1.528   1.043 -3.8250  1.1758 -0.1494
  594SOL     OW 1780   0.861   1.925   0.238 -0.3119  0.0050  0.6526
  594SOL    HW1 1781   0.771   1.949   0.199  3.7080 -0.3666 -1.8794
  594SOL    HW2 1782   0.865   1.927   0.339 -1.4959 -0.2277 -3.2307
  595SOL     OW 1783   1.619   0.389   1.209 -0.1760  0.7342  0.0161
  595SOL    HW1 1784   1.520   0.395   1.208  0.3942 -0.5671 -0.2310
  595SOL    HW2 1785   1.660   0.447   1.136 -0.0593 -0.5765 -0.6778
  596SOL     OW 1786   3.004   1.846   1.035  0.0200  0.5979 -0.0376
  596SOL    HW1 1787   2.987   1.824   1.134 -1.7758  1.5284 -1.1134
  596SOL    HW2 1788   3.100   1.822   1.003  1.8943 -0.3228  0.7866
  597SOL     OW 1789   0.067   2.490   2.679 -0.0798 -0.3356 -0.2949
  597SOL    HW1 1790   3.079   2.481   2.676 -1.4314 -0.4547  0.5391
  597SOL    HW2 1791   0.097   2.482   2.778  0.4625  1.5204  3.1314
  598SOL     OW 1792   2.801   2.067   2.220 -0.6660 -0.5053 -0.6117
  598SOL    HW1 1793   2.781   2.012   2.305  1.8068 -0.3021  1.4352
  598SOL    HW2 1794   2.795   2.165   2.246  0.6094 -1.7182 -1.8853
  599SOL     OW 1795   0.946   0.231   3.109 -0.6033 -0.4345 -0.0530
  599SOL    HW1 1796   0.862   0.284   3.088 -0.2496  0.1469 -2.3143
  599SOL    HW2 1797   1.026   0.295   3.106  1.0046  1.6009 -1.4976
  600SOL     OW 1798   0.718   2.588   0.442 -0.0894 -0.4335 -0.0993
  600SOL    HW1 1799   0.740   2.638   0.360 -0.7513 -0.3201  2.5293
  600SOL    HW2 1800   0.623   2.551   0.444  0.1159 -1.5636  2.1987
  601SOL     OW 1801   0.467   0.930   1.305 -0.1339 -0.6259  0.3539
  601SOL    HW1 1802   0.503   1.023   1.274 -2.0474 -2.1971  0.3026
  601SOL    HW2 1803   0.514   0.857   1.247  1.5159  0.1827 -1.7857
  602SOL     OW 1804   0.554   2.606   0.863  0.4954 -0.0275  0.2204
  602SOL    HW1 1805   0.575   2.514   0.893  0.8767  2.6305 -1.5998
  602SOL    HW2 1806   0.536   2.674   0.937 -2.0875  0.4907 -0.9951
  603SOL     OW 1807   1.084   0.034   2.158 -0.2136  0.0249 -0.4183
  603SOL    HW1 1808   1.056   3.059   2.112 -2.6704  0.2258 -0.9318
  603SOL    HW2 1809   1.004   0.104   2.151 -0.3270  0.3701  0.2986
  604SOL     OW 1810   0.751   2.596   1.781  0.2704  0.4632  0.4063
  604SOL    HW1 1811   0.684   2.619   1.708 -0.2068  3.0465  0.1287
  604SOL    HW2 1812   0.710   2.593   1.874 -0.7744  2.6635  1.8295
  605SOL     OW 1813   2.063   0.735   2.035 -0.4541  0.6246 -0.2025
  605SOL    HW1 1814   2.055   0.794   1.954  2.5251 -1.2756  1.0768
  605SOL    HW2 1815   2.052   0.790   2.121  0.0072  1.7433 -4.0127
  606SOL     OW 1816   2.402   2.904   2.738  0.2996  0.3228  0.0448
  606SOL    HW1 1817   2.352   2.968   2.799 -2.1400  0.1370 -0.9270
  606SOL    HW2 1818   2.459   2.957   2.673 -0.6485 -0.3155  0.0854
  607SOL     OW 1819   0.817   0.763   1.408 -0.8036  0.0878 -0.0698
  607SOL    HW1 1820   0.721   0.743   1.433  0.1454  2.2090 -0.0035
  607SOL    HW2 1821   0.866   0.833   1.465  2.4460  0.0887  0.1840
  608SOL     OW 1822   0.113   1.950   2.691 -0.3933 -0.0134 -0.2702
  608SOL    HW1 1823   0.118   2.045   2.735  0.4088  1.0253 -0.3528
  608SOL    HW2 1824   0.192   1.889   2.718  2.1255  0.4855 -0.6192
  609SOL     OW 1825   1.603   1.079   0.220 -0.0296  0.4029 -0.0481
  609SOL    HW1 1826   1.622   1.023   0.304  0.0203 -2.4920 -0.3466
  609SOL    HW2 1827   1.525   1.143   0.238 -1.6502 -0.8397 -0.7469
  610SOL     OW 1828   0.630   0.424   1.340 -0.2575 -0.1761  0.4814
  610SOL    HW1 1829   0.605   0.320   1.336 -2.6008 -0.1070 -0.1488
  610SOL    HW2 1830   0.671   0.451   1.251 -0.9718  0.9870 -0.5341
  611SOL     OW 1831   1.410   0.626   0.844 -0.2105 -0.0729  0.3650
  611SOL    HW1 1832   1.322   0.579   0.854 -1.7446  0.2293  1.2912
  611SOL    HW2 1833   1.396   0.709   0.787 -2.1200  1.6637  2.9907
  612SOL     OW 1834   1.694   0.982   3.106  0.2132 -0.1261  0.0368
  612SOL    HW1 1835   1.657   1.039   0.070  0.9000 -2.5573 -1.7824
  612SOL    HW2 1836   1.748   0.910   0.037 -2.5414  1.4596  0.7529
  613SOL     OW 1837   2.264   0.575   0.439  0.5393 -0.9432 -0.0304
  613SOL    HW1 1838   2.193   0.562   0.366 -1.6959 -0.3063 -0.0332
  613SOL    HW2 1839   2.291   0.488   0.490 -0.0129 -0.7359  0.7537
  614SOL     OW 1840   2.816   0.043   2.050  0.1121 -0.0132 -0.1468
  614SOL    HW1 1841   2.848   3.060   2.077 -0.8215 -0.0551  2.0410
  614SOL    HW2 1842   2.887   0.111   2.075 -0.4898  0.1801  1.4135
  615SOL     OW 1843   0.840   1.951   1.087 -0.1195  0.0499  0.4988
  615SOL    HW1 1844   0.873   1.857   1.100  4.0202  0.8017 -0.9080
  615SOL    HW2 1845   0.755   1.964   1.138  2.1284 -0.3507  1.4453
  616SOL     OW 1846   1.748   1.560   2.697  0.0189  0.4102 -0.1958
  616SOL    HW1 1847   1.824   1.629   2.694  0.5343  0.9415 -0.1641
  616SOL    HW2 1848   1.760   1.486   2.628 -0.7033  1.4928  0.7724
  617SOL     OW 1849   1.530   0.074   2.966 -0.3676  0.0144  0.3636
  617SOL    HW1 1850   1.498   3.100   2.920  0.6212  1.7683  1.7399
  617SOL    HW2 1851   1.583   0.048   3.048 -0.6881  0.7594  0.0567
  618SOL     OW 1852   1.177   2.139   2.807 -0.3423 -0.0385 -0.4621
  618SOL    HW1 1853   1.110   2.138   2.884 -2.7245  1.0734  0.5632
  618SOL    HW2 1854   1.136   2.169   2.718  1.8926  0.1729 -0.0949
  619SOL     OW 1855   2.520   1.581   0.691  0.8514  0.0752 -0.0680
  619SOL    HW1 1856   2.604   1.609   0.642 -0.1029  0.2422  1.3146
  619SOL    HW2 1857   2.533   1.485   0.727 -2.1715 -0.2579  2.8227
  620SOL     OW 1858   2.067   2.922   2.201 -0.3108 -0.1194  0.3263
  620SOL    HW1 1859   2.080   2.978   2.288 -0.9699  0.9982 -2.1124
  620SOL    HW2 1860   2.136   2.955   2.131  0.4559 -0.2343 -0.0934
  621SOL     OW 1861   2.870   1.368   0.620  0.2516 -0.0680 -0.1996
  621SOL    HW1 1862   2.859   1.325   0.710 -3.3757  1.6531 -1.8224
  621SOL    HW2 1863   2.944   1.440   0.624  3.1657  0.8461 -0.1019
  622SOL     OW 1864   1.415   1.930   2.237 -0.3345  0.1867 -0.4423
  622SOL    HW1 1865   1.323   1.914   2.201  3.1764  1.5634  3.6076
  622SOL    HW2 1866   1.475   1.848   2.236 -0.0324 -0.4023  2.5235
  623SOL     OW 1867   0.533   2.571   2.347 -0.5614 -0.4573 -0.4105
  623SOL    HW1 1868   0.592   2.604   2.423  2.8741 -0.0592 -1.4431
  623SOL    HW2 1869   0.473   2.492   2.381  1.9720 -2.4134 -0.4137
  624SOL     OW 1870   0.616   2.552   3.085 -0.0406 -0.4043  0.2200
  624SOL    HW1 1871   0.693   2.489   0.008  3.9880 -1.7075  2.8572
  624SOL    HW2 1872   0.538   2.496   3.063  1.5037  1.0607  1.2020
  625SOL     OW 1873   0.176   2.095   2.083 -0.0498 -1.0102 -0.7810
  625SOL    HW1 1874   0.136   2.190   2.071 -0.5061 -2.4454  0.2769
  625SOL    HW2 1875   0.113   2.040   2.143 -0.6375 -2.3260 -0.9153
  626SOL     OW 1876   0.044   0.020   3.069 -0.5251  0.8720  0.0425
  626SOL    HW1 1877   0.031   0.114   3.103  0.4944 -1.2677  0.6613
  626SOL    HW2 1878   0.101   0.019   2.983 -0.0220  0.2405 -1.1086
  627SOL     OW 1879   2.107   1.796   0.129 -0.6213 -0.1311  0.4024
  627SOL    HW1 1880   2.182   1.831   0.071  0.0990 -1.7294  0.8085
  627SOL    HW2 1881   2.087   1.701   0.091 -1.1307 -4.0932 -1.8032
  628SOL     OW 1882   1.585   1.724   3.081  0.4395  0.7581 -0.4786
  628SOL    HW1 1883   1.590   1.651   3.011  1.8275  0.7515  3.4444
  628SOL    HW2 1884   1.577   1.682   0.063 -1.2455 -3.5346  1.8155
  629SOL     OW 1885   0.373   0.222   1.758 -0.3156 -0.5559  0.0492
  629SOL    HW1 1886   0.362   0.314   1.798 -1.5883 -1.0549  1.3955
  629SOL    HW2 1887   0.316   0.214   1.677  1.5968 -0.1346 -0.6107
  630SOL     OW 1888   2.325   0.858   1.522 -0.5166  0.2220  0.3132
  630SOL    HW1 1889   2.278   0.940   1.485  0.7556 -0.0118  2.9656
  630SOL    HW2 1890   2.326   0.863   1.623  0.6762 -0.3112  1.4832
  631SOL     OW 1891   2.060   0.190   0.708 -0.2755  0.0948 -0.4176
  631SOL    HW1 1892   2.052   0.273   0.761 -0.4065  1.9041  2.5836
  631SOL    HW2 1893   2.116   0.125   0.760  1.8031  3.3004  0.5841
  632SOL     OW 1894   2.858   0.809   1.878  0.1656 -0.2387 -0.6618
  632SOL    HW1 1895   2.838   0.893   1.826  2.4271 -2.1902  0.8528
  632SOL    HW2 1896   2.778   0.786   1.936 -1.4009  2.5528  0.4274
  633SOL     OW 1897   0.749   0.441   2.695  0.2154  0.4959 -0.1532
  633SOL    HW1 1898   0.798   0.353   2.715  1.3667 -1.1372  3.2810
  633SOL    HW2 1899   0.812   0.518   2.708  3.0357  0.7662 -0.2069
  634SOL     OW 1900   0.671   2.701   2.867  0.2312  0.1739 -0.5479
  634SOL    HW1 1901   0.652   2.639   2.948  2.6039 -0.6889 -1.3867
  634SOL    HW2 1902   0.587   2.742   2.825 -1.2082 -1.1138 -2.6081
  635SOL     OW 1903   0.074   1.287   1.256  0.4664  0.2025  0.0644
  635SOL    HW1 1904   0.149   1.243   1.303 -1.6992  0.7066 -1.9292
  635SOL    HW2 1905   0.062   1.249   1.166 -0.8996 -0.3878  0.6167
  636SOL     OW 1906   0.007   1.450   0.015  0.1345  0.1470 -0.4457
  636SOL    HW1 1907   3.065   1.413   3.047 -0.0311 -0.2801  0.3452
  636SOL    HW2 1908   0.106   1.422   0.007  1.3710  0.6946 -0.5271
  637SOL     OW 1909   0.203   2.753   0.002  0.4748  1.0468 -0.0674
  637SOL    HW1 1910   0.210   2.674   0.060  2.5584  3.2526 -3.4232
  637SOL    HW2 1911   0.197   2.840   0.054 -0.0805  1.1135 -0.4101
  638SOL     OW 1912   2.793   2.480   0.524 -0.0648 -0.1791 -0.1477
  638SOL    HW1 1913   2.837   2.523   0.443  1.2258  1.6922 -1.5677
  638SOL    HW2 1914   2.830   2.515   0.616  0.9741  0.6896  0.0130
  639SOL     OW 1915   1.133   1.087   0.348  0.5456  0.0128  0.3125
  639SOL    HW1 1916   1.053   1.139   0.311 -0.1441 -0.0411 -1.2194
  639SOL    HW2 1917   1.127   0.994   0.316 -1.6690 -0.8276 -0.3577
  640SOL     OW 1918   1.878   2.586   1.515 -0.9025 -0.4098  0.2225
  640SOL    HW1 1919   1.857   2.517   1.441 -2.7167 -2.6795  1.2985
  640SOL    HW2 1920   1.966   2.569   1.566  1.8102 -1.6884  3.2961
  641SOL     OW 1921   0.095   0.313   0.669  0.0372  0.5343 -0.4929
  641SOL    HW1 1922   0.021   0.334   0.739 -0.7908  0.3824 -1.3046
  641SOL    HW2 1923   0.074   0.363   0.581  1.4442  0.2924 -0.1401
  642SOL     OW 1924   1.268   0.923   1.765  0.1445 -0.1401 -0.1709
  642SOL    HW1 1925   1.315   0.901   1.850 -2.0108  0.7331 -1.9377
  642SOL    HW2 1926   1.284   1.019   1.736 -1.2554  0.8368  1.0548
  643SOL     OW 1927   0.830   1.934   2.605  0.2654 -0.1397  0.3849
  643SOL    HW1 1928   0.871   2.026   2.588 -1.3411 -1.5942  1.7384
  643SOL    HW2 1929   0.785   1.938   2.696 -1.1106  0.4394  0.9719
  644SOL     OW 1930   1.059   2.395   2.928  0.1463 -0.0606 -0.4284
  644SOL    HW1 1931   1.102   2.344   3.011 -0.0253 -2.2828  1.0311
  644SOL    HW2 1932   1.139   2.407   2.867 -3.1242  0.5486  4.7353
  645SOL     OW 1933   1.627   1.289   1.735 -0.7648  0.3006 -0.2510
  645SOL    HW1 1934   1.717   1.241   1.739  1.0608  0.2718  2.1940
  645SOL    HW2 1935   1.548   1.228   1.718 -0.5984 -1.4677  0.4986
  646SOL     OW 1936   0.880   2.861   2.912 -0.8486 -0.2703 -0.2288
  646SOL    HW1 1937   0.802   2.797   2.919 -3.3080  0.2583  0.9294
  646SOL    HW2 1938   0.860   2.933   2.841 -2.2203  1.9434 -1.1850
  647SOL     OW 1939   0.932   2.926   0.552 -0.2277 -0.5469 -0.1248
  647SOL    HW1 1940   0.836   2.894   0.535  2.2356  1.6827  1.5578
  647SOL    HW2 1941   0.939   2.997   0.627 -2.6011  0.0563  4.2875
  648SOL     OW 1942   2.823   2.755   1.395  0.6794 -0.2338  0.4254
  648SOL    HW1 1943   2.800   2.785   1.299 -0.5360 -0.6841 -2.0471
  648SOL    HW2 1944   2.750   2.690   1.426 -0.0987  0.3018  3.3824
  649SOL     OW 1945   0.748   2.196   2.920  0.4031 -0.1564 -0.2395
  649SOL    HW1 1946   0.768   2.267   2.848 -0.8730  0.6966 -0.2111
  649SOL    HW2 1947   0.694   2.122   2.880  3.3403  0.2511  1.3084
  650SOL     OW 1948   2.110   2.000   2.072  0.3424  0.1747 -0.1770
  650SOL    HW1 1949   2.101   2.005   2.175  1.3176  1.4374 -0.1415
  650SOL    HW2 1950   2.204   1.961   2.050  4.0450 -0.0038  1.0375
  651SOL     OW 1951   2.976   2.893   2.371 -0.7643  0.4002  0.3290
  651SOL    HW1 1952   3.075   2.880   2.360  0.9202 -1.1736 -0.0458
  651SOL    HW2 1953   2.924   2.831   2.310 -1.6840  0.3285  0.2351
  652SOL     OW 1954   2.851   1.958   0.532  0.5860 -0.0444 -0.2819
  652SOL    HW1 1955   2.898   2.005   0.611 -1.5774  0.1553 -1.1816
  652SOL    HW2 1956   2.772   2.017   0.504  1.9167 -0.5686  0.1648
  653SOL     OW 1957   2.560   0.952   1.122 -0.0023  0.1571 -0.2169
  653SOL    HW1 1958   2.559   0.907   1.217  0.8862 -1.5127 -2.3335
  653SOL    HW2 1959   2.478   0.920   1.071 -0.4188 -1.6852 -1.2618
  654SOL     OW 1960   0.852   0.212   2.745 -0.3274  0.2786 -0.2466
  654SOL    HW1 1961   0.948   0.214   2.782  2.5004  2.7891  0.4529
  654SOL    HW2 1962   0.802   0.145   2.798  3.3959  0.9300 -0.0582
  655SOL     OW 1963   0.806   0.391   1.553  0.4711 -0.5186 -0.4257
  655SOL    HW1 1964   0.752   0.438   1.476 -0.3156  2.3123  0.6508
  655SOL    HW2 1965   0.838   0.298   1.524 -0.7249 -1.4903  0.8907
  656SOL     OW 1966   0.184   2.532   2.204 -0.1971 -0.9712  0.5002
  656SOL    HW1 1967   0.158   2.453   2.143 -1.2099  1.4415 -0.0221
  656SOL    HW2 1968   0.223   2.612   2.147  0.8695 -2.4493 -2.1163
  657SOL     OW 1969   2.242   0.468   0.101 -0.4306 -0.4154  0.5531
  657SOL    HW1 1970   2.166   0.493   0.167 -1.7919  1.3069  0.9854
  657SOL    HW2 1971   2.305   0.551   0.095  0.1026 -0.3882  1.1901
  658SOL     OW 1972   2.112   1.808   1.146 -0.4195 -0.4042 -0.3360
  658SOL    HW1 1973   2.191   1.827   1.212 -0.6015  0.2066 -0.2658
  658SOL    HW2 1974   2.142   1.742   1.071 -0.0210 -0.1975 -1.6413
  659SOL     OW 1975   2.612   2.240   2.835 -0.3117  0.3806 -0.1693
  659SOL    HW1 1976   2.551   2.319   2.805 -2.3346  2.1485 -0.4200
  659SOL    HW2 1977   2.661   2.258   2.922 -0.1542 -2.5011 -2.5385
  660SOL     OW 1978   1.129   0.036   3.060  0.1859  0.3308  0.4599
  660SOL    HW1 1979   1.207   0.045   0.011 -2.1951  0.3687 -2.6641
  660SOL    HW2 1980   1.051   0.097   3.087 -2.0266 -4.6292  0.2526
  661SOL     OW 1981   2.265   0.169   0.379 -0.2055  0.0150 -0.4239
  661SOL    HW1 1982   2.170   0.153   0.357  4.0687  0.0222  1.2544
  661SOL    HW2 1983   2.320   0.157   0.293  2.9276 -1.7186  1.4184
  662SOL     OW 1984   0.434   3.072   0.787  0.0128 -0.2022  0.5557
  662SOL    HW1 1985   0.354   0.022   0.797 -0.4182 -0.8055 -1.5534
  662SOL    HW2 1986   0.404   2.975   0.766 -1.1440 -1.1463  0.1028
  663SOL     OW 1987   1.357   0.323   2.300  0.0347  0.4314 -1.1329
  663SOL    HW1 1988   1.333   0.304   2.200 -0.7330 -1.9932  1.9484
  663SOL    HW2 1989   1.267   0.315   2.355 -3.6309 -0.1679 -0.2790
  664SOL     OW 1990   0.758   2.909   1.463 -0.4475  0.3257 -0.4121
  664SOL    HW1 1991   0.661   2.882   1.448 -1.1050  1.1119 -0.4672
  664SOL    HW2 1992   0.772   2.935   1.561 -0.8986  0.9128 -1.8408
  665SOL     OW 1993   0.936   2.330   2.016  0.4653 -0.3248  0.4258
  665SOL    HW1 1994   0.914   2.410   1.960 -1.4426  1.4733  0.4733
  665SOL    HW2 1995   1.034   2.328   2.043  1.1232  2.3971 -4.1899
  666SOL     OW 1996   0.295   3.055   2.606  0.2348  0.4377  0.0267
  666SOL    HW1 1997   0.387   3.052   2.560  3.6122 -0.2263 -2.4612
  666SOL    HW2 1998   0.237   2.983   2.563  0.9282  0.3362 -0.8681
  667SOL     OW 1999   1.816   1.655   1.473  0.0543  0.3274  0.0457
  667SOL    HW1 2000   1.742   1.589   1.504 -2.6863 -0.8305 -0.0202
  667SOL    HW2 2001   1.904   1.603   1.482 -4.9831 -1.2423 -0.5991
  668SOL     OW 2002   1.558   0.439   1.558  0.5003 -0.0872  0.2364
  668SOL    HW1 2003   1.619   0.392   1.490  2.4491 -1.4724 -0.8586
  668SOL    HW2 2004   1.580   0.417   1.650  1.9591 -1.8432 -0.4833
  669SOL     OW 2005   2.425   2.505   1.656  0.5012  0.4458 -0.0676
  669SOL    HW1 2006   2.418   2.419   1.707 -0.5789  1.0017 -0.3548
  669SOL    HW2 2007   2.406   2.494   1.559  1.4336 -1.9681  2.8981
  670SOL     OW 2008   1.539   2.367   2.836  0.3701 -0.3897 -0.0231
  670SOL    HW1 2009   1.518   2.269   2.824  0.4840  0.7274  0.1322
  670SOL    HW2 2010   1.476   2.396   2.915 -0.2418  1.0203 -1.4130
  671SOL     OW 2011   1.118   1.048   0.618  0.4469  0.4280 -0.3229
  671SOL    HW1 2012   1.113   1.122   0.689 -4.1666 -0.1078 -1.4836
  671SOL    HW2 2013   1.132   1.079   0.522  0.6287  1.1958 -1.0234
  672SOL     OW 2014   0.012   1.056   2.457  0.4750 -0.0185 -0.1072
  672SOL    HW1 2015   3.107   1.094   2.551 -0.4915 -0.5279  2.4958
  672SOL    HW2 2016   0.051   0.961   2.463  0.5533 -2.6451 -2.1950
  673SOL     OW 2017   2.815   1.996   1.377 -0.2110 -0.1030  0.1346
  673SOL    HW1 2018   2.854   2.063   1.442 -2.2745 -1.9816  1.1656
  673SOL    HW2 2019   2.730   1.944   1.409  0.9145 -0.7338  2.3502
  674SOL     OW 2020   0.564   2.298   1.996 -0.4594 -0.1254 -0.3288
  674SOL    HW1 2021   0.559   2.326   1.898 -0.8920  0.5616  0.4322
  674SOL    HW2 2022   0.605   2.380   2.042 -0.7433  0.6196 -0.1825
  675SOL     OW 2023   0.923   1.044   1.787 -0.2311 -0.3607  0.0978
  675SOL    HW1 2024   0.917   0.963   1.843  0.1412  1.6013 -0.9332
  675SOL    HW2 2025   0.894   1.125   1.837  2.8883 -0.9794  0.2264
  676SOL     OW 2026   2.320   0.479   1.157  0.5882 -0.0651  0.2474
  676SOL    HW1 2027   2.333   0.535   1.071 -0.8263 -0.0420 -0.1881
  676SOL    HW2 2028   2.390   0.503   1.229  1.0776 -0.8964  2.4684
  677SOL     OW 2029   2.450   1.350   2.795  0.0052  0.7568 -0.3438
  677SOL    HW1 2030   2.389   1.280   2.845 -0.6371 -0.4234  2.5866
  677SOL    HW2 2031   2.409   1.361   2.696 -0.3633 -2.0337 -2.4786
  678SOL     OW 2032   2.903   0.880   1.307 -0.7188 -0.5538 -0.5458
  678SOL    HW1 2033   3.005   0.898   1.298 -1.7085  1.7635 -0.2006
  678SOL    HW2 2034   2.854   0.972   1.317 -2.3723  0.7211 -1.3064
  679SOL     OW 2035   2.410   0.249   0.150  0.0524  0.3936 -0.2300
  679SOL    HW1 2036   2.500   0.289   0.185  1.0256 -1.7117  0.4229
  679SOL    HW2 2037   2.332   0.312   0.159 -0.6562 -1.1079 -0.0352
  680SOL     OW 2038   0.020   1.843   1.976 -0.2952  0.2590  0.4730
  680SOL    HW1 2039   0.121   1.834   1.999 -0.7956 -0.2667 -0.6534
  680SOL    HW2 2040   3.075   1.763   2.014 -0.5536 -2.6827 -0.8652
  681SOL     OW 2041   2.172   2.302   1.392  0.5774 -0.1669 -0.5239
  681SOL    HW1 2042   2.125   2.212   1.388 -0.5751  0.8684  0.3421
  681SOL    HW2 2043   2.147   2.368   1.320 -1.1010  1.7643  1.9015
  682SOL     OW 2044   0.251   1.771   3.102  0.7490 -0.0915 -0.0304
  682SOL    HW1 2045   0.152   1.744   3.101 -1.7098 -1.4491  3.3439
  682SOL    HW2 2046   0.279   1.794   3.006 -2.4810 -0.3860  0.8601
  683SOL     OW 2047   0.098   2.145   1.621  0.6332  0.6705 -0.1766
  683SOL    HW1 2048   0.141   2.139   1.527  2.5740 -0.0317  0.6917
  683SOL    HW2 2049   3.103   2.141   1.618 -1.5461  1.7095  0.2314
  684SOL     OW 2050   3.086   1.330   2.343  0.0578 -0.2966 -0.3367
  684SOL    HW1 2051   3.029   1.404   2.391 -1.5544  2.2985  2.6068
  684SOL    HW2 2052   3.043   1.239   2.358  4.4052 -0.8419  1.9527
  685SOL     OW 2053   1.462   1.065   0.617  0.1567 -0.2856  0.0557
  685SOL    HW1 2054   1.494   1.110   0.705  3.3215 -1.2202  0.6349
  685SOL    HW2 2055   1.410   0.977   0.637 -2.2369 -2.7258  0.5864
  686SOL     OW 2056   0.555   0.256   0.482  0.1066 -0.2764  0.6654
  686SOL    HW1 2057   0.604   0.162   0.475  1.1945 -1.0652  0.0743
  686SOL    HW2 2058   0.531   0.292   0.388 -1.7037 -0.0078  2.4933
  687SOL     OW 2059   0.995   2.080   3.004 -0.8091  0.1326  0.4044
  687SOL    HW1 2060   1.022   2.089   3.104 -0.5175  0.8152  0.1917
  687SOL    HW2 2061   0.904   2.123   2.980 -3.0713  0.1304  2.9222
  688SOL     OW 2062   1.682   1.169   1.340 -0.9521  0.0388  0.1785
  688SOL    HW1 2063   1.607   1.236   1.322 -1.8562  1.8178 -1.5771
  688SOL    HW2 2064   1.656   1.091   1.404 -1.7759 -1.4553  2.8381
  689SOL     OW 2065   2.080   0.422   0.816  0.1085 -1.0711  0.3063
  689SOL    HW1 2066   2.181   0.427   0.813  1.6343  0.7185 -1.1472
  689SOL    HW2 2067   2.029   0.495   0.758  0.5042 -1.0547  0.8913
  690SOL     OW 2068   0.097   1.316   0.872 -0.3970  0.3490 -0.1938
  690SOL    HW1 2069   0.087   1.212   0.872  1.5253  0.5733 -1.1506
  690SOL    HW2 2070   0.149   1.344   0.785  1.3979  0.9387  0.2420
  691SOL     OW 2071   0.250   2.122   1.357 -0.4278  0.2630 -0.0926
  691SOL    HW1 2072   0.238   2.048   1.288  0.8214 -1.8121 -2.1521
  691SOL    HW2 2073   0.197   2.202   1.321 -1.1024 -0.8784 -0.9143
  692SOL     OW 2074   1.924   0.521   1.245  0.1061 -0.5468 -0.3806
  692SOL    HW1 2075   1.949   0.437   1.300 -0.3542  0.5330  0.6828
  692SOL    HW2 2076   1.886   0.501   1.153  1.9455  0.6308  1.1053
  693SOL     OW 2077   0.618   1.732   2.308 -0.4304 -0.3479  0.5229
  693SOL    HW1 2078   0.609   1.787   2.223  0.8731  3.2394 -1.6640
  693SOL    HW2 2079   0.718   1.740   2.335  2.4023  0.3050 -1.1230
  694SOL     OW 2080   1.913   1.537   1.072  0.1010 -0.0177  0.6759
  694SOL    HW1 2081   1.889   1.625   1.123 -0.4986  0.7229  0.7878
  694SOL    HW2 2082   2.014   1.531   1.065 -2.3438  3.0479  2.0869
  695SOL     OW 2083   1.324   0.830   0.663 -0.0672 -0.5313 -0.0194
  695SOL    HW1 2084   1.308   0.761   0.593  1.0851 -1.1178  0.4109
  695SOL    HW2 2085   1.241   0.827   0.725  1.5033  1.0993 -1.1964
  696SOL     OW 2086   0.507   0.033   0.250  0.2444 -0.2920  0.0272
  696SOL    HW1 2087   0.461   3.052   0.256  2.5511  0.5226 -0.7848
  696SOL    HW2 2088   0.590   0.041   0.311 -0.5773 -0.4005  1.5994
  697SOL     OW 2089   1.895   0.886   1.026 -0.3245  0.4500 -0.4574
  697SOL    HW1 2090   1.827   0.860   1.092 -0.4599 -1.5623  3.2194
  697SOL    HW2 2091   1.985   0.870   1.072  0.0461 -0.7401  0.9636
  698SOL     OW 2092   1.585   1.397   2.191  0.3941  0.6932  0.7269
  698SOL    HW1 2093   1.546   1.401   2.094  0.1946 -3.5365 -2.2012
  698SOL    HW2 2094   1.674   1.439   2.195 -3.4201 -1.2729 -1.4233
  699SOL     OW 2095   2.825   0.375   1.817  0.2335  0.5507 -0.9781
  699SOL    HW1 2096   2.786   0.412   1.905  1.3003 -1.9796  1.0459
  699SOL    HW2 2097   2.749   0.333   1.766  1.7067  2.1443  2.2657
  700SOL     OW 2098   1.442   2.279   0.596  0.1366  0.0203 -0.1003
  700SOL    HW1 2099   1.472   2.366   0.645 -1.2251  1.9498  3.5710
  700SOL    HW2 2100   1.350   2.251   0.622  1.7600 -1.4964 -0.7913
  701SOL     OW 2101   2.378   2.085   2.399 -0.2408 -0.7523  0.0705
  701SOL    HW1 2102   2.409   2.015   2.332 -0.6680  1.9665 -3.1865
  701SOL    HW2 2103   2.456   2.104   2.465  1.7900  1.4281 -1.5491
  702SOL     OW 2104   0.640   2.883   0.496  0.4477  0.3863 -0.5213
  702SOL    HW1 2105   0.643   2.822   0.582 -1.8529  0.1003 -0.2679
  702SOL    HW2 2106   0.556   2.878   0.438  3.0177  3.3024  0.3963
  703SOL     OW 2107   1.853   2.992   2.041 -0.2896  0.4028  0.1252
  703SOL    HW1 2108   1.899   3.060   1.980 -2.3417  1.0406 -1.5276
  703SOL    HW2 2109   1.921   2.958   2.110 -1.2423  0.8050  0.6720
  704SOL     OW 2110   2.678   2.048   0.159 -0.3375  0.0951 -0.0777
  704SOL    HW1 2111   2.694   2.124   0.225 -1.7807 -0.5997  1.1180
  704SOL    HW2 2112   2.761   2.041   0.102  0.3845  0.3577 -1.2664
  705SOL     OW 2113   2.543   2.564   2.486  0.0877  0.6706 -0.0598
  705SOL    HW1 2114   2.616   2.506   2.529  0.0965  2.0120  0.5490
  705SOL    HW2 2115   2.482   2.505   2.431  0.0520  0.3988  1.6035
  706SOL     OW 2116   2.643   0.267   0.517  0.0738 -0.5726 -0.1102
  706SOL    HW1 2117   2.655   0.288   0.418 -0.7779  2.2112 -1.5353
  706SOL    HW2 2118   2.697   0.193   0.549 -3.0352  2.1525 -0.6288
  707SOL     OW 2119   1.145   0.281   2.451  0.4111 -0.5099 -0.1432
  707SOL    HW1 2120   1.052   0.239   2.457 -1.3751 -1.7957 -1.1609
  707SOL    HW2 2121   1.176   0.309   2.545  0.6357 -2.0313  0.3190
  708SOL     OW 2122   0.231   1.987   1.825 -0.0728  0.1542  0.6814
  708SOL    HW1 2123   0.165   2.013   1.753 -0.6169  0.9902  0.3788
  708SOL    HW2 2124   0.194   2.014   1.914  1.1648  1.7321 -2.5666
  709SOL     OW 2125   1.275   3.081   1.618  0.3572 -0.2784  0.1155
  709SOL    HW1 2126   1.364   0.006   1.580  1.1668 -2.0420 -0.5040
  709SOL    HW2 2127   1.282   3.062   1.720  0.4456  2.0347  1.8011
  710SOL     OW 2128   1.542   2.694   2.508 -0.6578  0.0100  0.6710
  710SOL    HW1 2129   1.545   2.593   2.532  0.8574 -2.0552  0.1865
  710SOL    HW2 2130   1.593   2.754   2.573 -1.6791 -2.1987  2.1861
  711SOL     OW 2131   0.844   2.385   2.683  0.0866 -0.1488  0.0878
  711SOL    HW1 2132   0.899   2.319   2.624  0.2915  1.4084 -2.1675
  711SOL    HW2 2133   0.908   2.453   2.731  0.1485  0.9390 -1.6850
  712SOL     OW 2134   1.074   2.071   0.138 -0.6024  0.0063 -0.3670
  712SOL    HW1 2135   0.991   2.024   0.169  1.7255  2.3999  1.6671
  712SOL    HW2 2136   1.154   2.043   0.197  0.8919 -0.4826  0.7219
  713SOL     OW 2137   2.167   1.231   1.946 -0.0158  0.4900 -0.4617
  713SOL    HW1 2138   2.211   1.255   1.860  1.9392  1.1647  0.4772
  713SOL    HW2 2139   2.072   1.192   1.932 -2.9550 -0.9521  0.7947
  714SOL     OW 2140   0.948   1.144   2.071  0.0428 -0.3032  0.0257
  714SOL    HW1 2141   0.870   1.128   2.133  2.5516  2.3419  1.0755
  714SOL    HW2 2142   1.027   1.085   2.087 -1.8255 -1.0078 -1.3744
  715SOL     OW 2143   2.710   0.327   0.239  0.0338 -0.8987  0.4302
  715SOL    HW1 2144   2.798   0.293   0.274 -0.8036  1.1687 -1.2868
  715SOL    HW2 2145   2.712   0.429   0.236  3.3669 -0.5067  1.9067
  716SOL     OW 2146   0.004   2.766   1.434  0.5680 -0.0604  0.2632
  716SOL    HW1 2147   0.063   2.693   1.466 -2.2748  0.3692  1.3328
  716SOL    HW2 2148   3.024   2.732   1.409  0.7291 -1.4133 -0.2108
  717SOL     OW 2149   2.369   0.884   0.955  0.5421 -0.2420  0.1153
  717SOL    HW1 2150   2.390   0.928   0.866 -3.0396  0.1919 -0.5319
  717SOL    HW2 2151   2.375   0.780   0.951  2.7171 -2.1367 -1.3774
  718SOL     OW 2152   1.419   1.304   1.371  0.6209 -0.5217  0.1843
  718SOL    HW1 2153   1.390   1.387   1.425 -3.6234  1.9534  0.7019
  718SOL    HW2 2154   1.451   1.327   1.279 -1.0235 -1.9737  1.8327
  719SOL     OW 2155   2.521   2.689   2.843  0.4090  0.1885  0.1978
  719SOL    HW1 2156   2.607   2.708   2.898 -0.4788  2.4010  0.4054
  719SOL    HW2 2157   2.483   2.769   2.795  1.9981 -1.3300  1.4681
  720SOL     OW 2158   0.934   0.405   0.826 -0.3821  0.2340  0.4248
  720SOL    HW1 2159   0.871   0.372   0.754 -0.8018  2.1352 -0.7402
  720SOL    HW2 2160   0.906   0.360   0.911  0.1306  1.0773 -3.6816
  721SOL     OW 2161   2.419   0.615   0.938 -0.0380 -0.4868  0.1423
  721SOL    HW1 2162   2.517   0.602   0.965 -1.1974  0.6882 -1.4473
  721SOL    HW2 2163   2.395   0.552   0.860 -0.7579  1.7489 -1.6815
  722SOL     OW 2164   0.809   2.123   1.937 -0.4282  0.0043 -0.6687
  722SOL    HW1 2165   0.712   2.135   1.968 -1.7905  0.0901 -1.3896
  722SOL    HW2 2166   0.857   2.205   1.970  0.4418 -2.3065  0.5128
  723SOL     OW 2167   1.422   0.098   1.185 -0.3004 -0.5012  0.3981
  723SOL    HW1 2168   1.405   0.191   1.212  0.7609 -1.9774 -0.0706
  723SOL    HW2 2169   1.515   0.081   1.153  0.2630 -2.9843 -1.9120
  724SOL     OW 2170   1.633   1.883   1.474 -0.0641  0.7007  0.1324
  724SOL    HW1 2171   1.617   1.875   1.574 -0.3489 -1.1505 -1.5939
  724SOL    HW2 2172   1.696   1.809   1.443 -0.5185 -2.3021  2.1920
  725SOL     OW 2173   1.195   2.587   1.194  0.0358 -0.2101 -0.6096
  725SOL    HW1 2174   1.267   2.568   1.129  0.3092  1.0166 -1.7895
  725SOL    HW2 2175   1.141   2.507   1.220 -1.7096  1.6865 -1.8394
  726SOL     OW 2176   1.652   3.052   0.080 -0.0883 -0.0798  0.0631
  726SOL    HW1 2177   1.709   2.969   0.059 -1.0864 -0.6106 -0.9985
  726SOL    HW2 2178   1.683   3.091   0.171  1.4657 -1.9521 -0.0533
  727SOL     OW 2179   1.718   1.738   0.429 -0.4482  0.0089 -0.0361
  727SOL    HW1 2180   1.639   1.708   0.374  1.2932 -0.8150 -0.3875
  727SOL    HW2 2181   1.786   1.782   0.363  3.4292  0.1223  0.8060
  728SOL     OW 2182   1.883   2.662   1.816 -0.3120 -0.1650  0.6925
  728SOL    HW1 2183   1.887   2.631   1.715 -0.5589  0.0492 -3.3323
  728SOL    HW2 2184   1.796   2.715   1.823  0.2849  1.8320 -0.7864
  729SOL     OW 2185   2.114   2.495   1.597 -0.3770 -0.5313 -0.2181
  729SOL    HW1 2186   2.110   2.408   1.545  0.6338  0.9918 -0.7681
  729SOL    HW2 2187   2.175   2.563   1.548  1.4055  0.5500  1.4182
  730SOL     OW 2188   1.282   1.206   2.693 -0.1193 -0.1042  0.0737
  730SOL    HW1 2189   1.311   1.229   2.788  2.0103 -1.4082 -0.6922
  730SOL    HW2 2190   1.181   1.181   2.682  1.5415  0.7872 -3.0200
  731SOL     OW 2191   0.616   0.142   1.317 -0.5076 -0.0073 -0.1246
  731SOL    HW1 2192   0.672   0.098   1.246 -1.3070  0.6182 -3.2422
  731SOL    HW2 2193   0.666   0.128   1.406 -2.8777 -0.2708 -1.2555
  732SOL     OW 2194   1.044   3.044   1.030  0.5675  0.2372 -0.5194
  732SOL    HW1 2195   1.016   2.972   1.092 -0.1006 -1.4014 -0.9718
  732SOL    HW2 2196   1.084   0.013   1.076  0.8174 -1.9044  2.1528
  733SOL     OW 2197   1.102   0.938   1.030  0.0802 -0.0603 -0.3412
  733SOL    HW1 2198   1.168   0.998   0.974  1.0017  0.3407 -2.2179
  733SOL    HW2 2199   1.143   0.867   1.088  0.3790 -0.4387 -0.3504
  734SOL     OW 2200   2.445   2.162   0.042  0.2577 -0.4143  0.0756
  734SOL    HW1 2201   2.449   2.147   3.052 -1.4298  0.7566  3.3969
  734SOL    HW2 2202   2.529   2.128   0.090 -0.4583  0.3042  0.8492
  735SOL     OW 2203   0.494   0.307   0.892 -0.0366 -0.0651 -0.2434
  735SOL    HW1 2204   0.553   0.225   0.889  1.4766  0.5809  0.0657
  735SOL    HW2 2205   0.461   0.326   0.798  0.4632  0.7661 -2.3298
  736SOL     OW 2206   1.795   2.457   2.879 -0.3345  0.0438  0.2880
  736SOL    HW1 2207   1.856   2.434   2.957 -0.1929 -2.3618  2.3757
  736SOL    HW2 2208   1.715   2.400   2.882  2.3548 -0.0891  2.3445
  737SOL     OW 2209   0.840   2.694   1.065  0.2265  0.0391 -0.3213
  737SOL    HW1 2210   0.879   2.721   0.972  1.1545 -0.5065 -0.0295
  737SOL    HW2 2211   0.878   2.750   1.142  0.8563  1.1352 -1.4220
  738SOL     OW 2212   1.630   3.047   2.225 -0.1579  0.5947 -0.0633
  738SOL    HW1 2213   1.655   3.046   2.326 -1.2987  2.3764  0.2449
  738SOL    HW2 2214   1.706   3.011   2.169 -0.9579  1.5611 -1.7553
  739SOL     OW 2215   1.166   2.228   2.131  0.2170 -0.9523 -0.2306
  739SOL    HW1 2216   1.242   2.290   2.155 -1.1685  0.5299 -0.2083
  739SOL    HW2 2217   1.148   2.177   2.217 -0.4819  0.7715  0.2425
  740SOL     OW 2218   1.273   2.291   1.487  0.3962 -0.2891  0.5606
  740SOL    HW1 2219   1.199   2.319   1.422 -0.0682 -1.0576  0.5927
  740SOL    HW2 2220   1.358   2.348   1.468  2.3356  0.8827 -0.9067
  741SOL     OW 2221   2.789   1.222   0.072 -0.0619  0.0848  0.2417
  741SOL    HW1 2222   2.802   1.316   0.106  0.6417  0.1321  0.1512
  741SOL    HW2 2223   2.780   1.213   3.083  1.3000 -0.3179  0.9730
  742SOL     OW 2224   0.640   1.509   2.138 -0.3403  0.6373 -0.1253
  742SOL    HW1 2225   0.618   1.578   2.208 -0.0662 -0.9748  0.6249
  742SOL    HW2 2226   0.735   1.473   2.145 -0.5866  0.3635 -1.9823
  743SOL     OW 2227   0.147   0.825   2.483 -0.1297 -0.2674 -0.5662
  743SOL    HW1 2228   0.245   0.814   2.473 -1.0030  0.2914  0.2769
  743SOL    HW2 2229   0.089   0.768   2.423  2.0885 -0.1637  1.0642
  744SOL     OW 2230   2.445   2.369   1.390 -0.0588 -0.3334  0.0568
  744SOL    HW1 2231   2.343   2.353   1.395  1.4166  0.1049  2.0696
  744SOL    HW2 2232   2.495   2.301   1.446  1.6659 -1.1807  1.2167
  745SOL     OW 2233   2.350   1.868   1.259 -0.2599 -0.5158 -0.7106
  745SOL    HW1 2234   2.394   1.785   1.224 -3.4116  0.9312 -1.3716
  745SOL    HW2 2235   2.409   1.950   1.234  2.1234  1.1607  0.2456
  746SOL     OW 2236   2.459   0.986   0.717  0.1981 -0.2129 -0.6476
  746SOL    HW1 2237   2.423   0.955   0.628 -1.1158  0.1025  2.8749
  746SOL    HW2 2238   2.495   1.081   0.697  0.2714  2.6458 -0.5630
  747SOL     OW 2239   1.608   2.051   0.564 -0.1053 -0.1123  0.1845
  747SOL    HW1 2240   1.696   2.087   0.524  1.4566 -0.9416  0.4223
  747SOL    HW2 2241   1.545   2.128   0.577  0.2775 -3.3050 -1.6416
  748SOL     OW 2242   1.008   2.086   0.668 -0.0825  0.7201 -0.1731
  748SOL    HW1 2243   0.948   2.009   0.639 -2.5775  0.8595  3.8878
  748SOL    HW2 2244   0.963   2.141   0.742 -0.7246  4.2070  1.9738
  749SOL     OW 2245   3.031   0.216   2.195 -0.2325  0.2160 -0.5866
  749SOL    HW1 2246   3.071   0.269   2.117  1.9762  1.1582 -2.7090
  749SOL    HW2 2247   3.092   0.143   2.230  0.7682  0.8607 -0.8634
  750SOL     OW 2248   1.718   0.224   1.390  0.3979 -0.1548  0.2392
  750SOL    HW1 2249   1.805   0.274   1.410 -2.5395 -0.8940  1.0776
  750SOL    HW2 2250   1.659   0.273   1.321  1.0939 -0.1356 -0.9598
  751SOL     OW 2251   1.708   2.708   2.871  0.1395  0.3004 -0.3942
  751SOL    HW1 2252   1.633   2.713   2.940  4.8600  1.0071  2.0381
  751SOL    HW2 2253   1.745   2.612   2.866  0.0655  0.9914  1.8949
  752SOL     OW 2254   1.702   2.055   0.183 -0.1455 -0.1360  0.1904
  752SOL    HW1 2255   1.652   2.039   0.094 -0.1461  3.0107  0.4250
  752SOL    HW2 2256   1.779   2.116   0.169 -0.9307  2.1639  0.5916
  753SOL     OW 2257   1.974   0.878   2.270 -0.6223 -1.0281 -0.8373
  753SOL    HW1 2258   1.901   0.837   2.329  0.5672  0.3466 -2.5503
  753SOL    HW2 2259   1.951   0.976   2.256 -1.0543 -0.8033  2.9525
  754SOL     OW 2260   0.252   2.687   0.514 -1.0339  0.1867  0.5445
  754SOL    HW1 2261   0.205   2.619   0.573  0.2131  0.0287  2.0710
  754SOL    HW2 2262   0.323   2.743   0.567 -0.4384  0.4548 -0.2224
  755SOL     OW 2263   2.074   0.360   1.070  0.4190 -0.2650 -0.4943
  755SOL    HW1 2264   2.157   0.391   1.107 -3.1710 -2.7049 -1.9603
  755SOL    HW2 2265   2.083   0.390   0.971  2.2210  2.0501 -1.2989
  756SOL     OW 2266   1.076   1.455   2.652 -0.3225  0.2262  0.6491
  756SOL    HW1 2267   1.000   1.521   2.655 -0.4069 -2.3506 -0.5836
  756SOL    HW2 2268   1.170   1.497   2.664  2.1932 -0.3471 -0.2513
  757SOL     OW 2269   2.726   2.931   1.192  0.3645 -0.0831 -0.3844
  757SOL    HW1 2270   2.674   2.877   1.122  1.9507  1.5228  1.6981
  757SOL    HW2 2271   2.662   2.992   1.240 -0.7366  0.4946  1.1323
  758SOL     OW 2272   0.808   3.044   1.703  0.4601  0.8379 -0.2093
  758SOL    HW1 2273   0.720   3.096   1.709  3.1444  4.2582  0.4831
  758SOL    HW2 2274   0.882   3.101   1.745  0.3068  0.3794 -2.1233
  759SOL     OW 2275   2.588   1.269   0.738 -0.5912 -0.3703  0.1212
  759SOL    HW1 2276   2.597   1.232   0.645  0.4603  0.1370 -1.6157
  759SOL    HW2 2277   2.672   1.252   0.792  1.4668  0.3048 -2.0549
  760SOL     OW 2278   2.081   0.719   1.360  0.6935 -0.5479  0.3663
  760SOL    HW1 2279   2.026   0.640   1.324  0.0698  0.3420  2.6022
  760SOL    HW2 2280   2.172   0.693   1.399 -1.4300 -3.0173 -1.6503
  761SOL     OW 2281   2.010   0.054   0.079  0.4140  0.0587 -0.2282
  761SOL    HW1 2282   1.919   0.060   0.116  0.9089  0.4752 -0.1551
  761SOL    HW2 2283   2.054   3.078   0.099 -1.2487  1.7476 -0.1108
  762SOL     OW 2284   1.966   2.161   0.133  0.2815 -0.5354  0.2235
  762SOL    HW1 2285   2.049   2.154   0.194 -0.0011 -1.8294 -3.3982
  762SOL    HW2 2286   1.990   2.180   0.037  0.0088  1.6484  2.0941
  763SOL     OW 2287   0.628   1.125   1.190 -0.1367 -0.0015  0.0562
  763SOL    HW1 2288   0.717   1.076   1.200 -3.0353 -2.2184 -1.4869
  763SOL    HW2 2289   0.621   1.219   1.234  0.0703 -0.7396 -1.5822
  764SOL     OW 2290   2.371   2.444   3.078  0.1088 -0.4115 -0.7972
  764SOL    HW1 2291   2.371   2.449   2.975  1.3055  0.3413 -2.5300
  764SOL    HW2 2292   2.374   2.347   0.001 -0.0780 -0.0431 -0.3962
  765SOL     OW 2293   1.073   0.555   2.356  0.4261 -0.0779 -0.7399
  765SOL    HW1 2294   1.041   0.466   2.397  0.0506  0.4042 -0.5273
  765SOL    HW2 2295   1.166   0.536   2.310 -0.8102  1.8203 -1.0568
  766SOL     OW 2296   0.218   1.238   2.439  0.5181  0.0651  0.1507
  766SOL    HW1 2297   0.175   1.145   2.459  0.3318 -2.5661  2.4706
  766SOL    HW2 2298   0.142   1.307   2.428  1.2899  2.1176 -0.3950
  767SOL     OW 2299   2.997   1.653   2.088  0.4522 -0.1050 -0.3251
  767SOL    HW1 2300   3.010   1.671   2.188  0.2033 -2.4173  0.7853
  767SOL    HW2 2301   2.901   1.635   2.066  1.5895  0.9551 -1.0309
  768SOL     OW 2302   0.866   1.110   2.885  0.1249 -0.1503 -0.3538
  768SOL    HW1 2303   0.832   1.017   2.884 -0.7863  0.7031 -1.8831
  768SOL    HW2 2304   0.898   1.131   2.795 -1.9446 -2.1768  2.3832
  769SOL     OW 2305   2.063   2.859   3.004 -0.2696  0.3175  0.0487
  769SOL    HW1 2306   2.107   2.789   2.940  2.0911  0.2594 -1.7165
  769SOL    HW2 2307   1.968   2.871   2.975  1.6473 -0.0548  0.4650
  770SOL     OW 2308   2.974   0.460   2.604  0.5714  0.2111 -0.0864
  770SOL    HW1 2309   2.998   0.505   2.513 -1.3306 -0.5260  0.5971
  770SOL    HW2 2310   2.957   0.357   2.591 -2.9016 -2.4828  0.9689
  771SOL     OW 2311   0.831   2.077   1.406 -0.1134 -0.0602 -0.2960
  771SOL    HW1 2312   0.897   2.005   1.388  0.8000  0.7775  0.5356
  771SOL    HW2 2313   0.878   2.164   1.432  2.2940  2.7185  0.0393
  772SOL     OW 2314   0.531   0.466   2.883  0.4703 -0.3190 -0.0884
  772SOL    HW1 2315   0.601   0.462   2.806  0.0734  1.6199  1.1567
  772SOL    HW2 2316   0.445   0.516   2.864 -0.4243  1.4393  1.3058
  773SOL     OW 2317   2.544   1.154   1.791 -0.1610 -0.4375 -0.4257
  773SOL    HW1 2318   2.499   1.094   1.860 -2.5930 -0.2549 -1.5115
  773SOL    HW2 2319   2.635   1.103   1.760 -0.1448 -1.2638 -0.5026
  774SOL     OW 2320   1.182   0.488   0.477 -0.4297  0.4839 -0.3542
  774SOL    HW1 2321   1.251   0.453   0.411  0.6642  1.1070 -1.2861
  774SOL    HW2 2322   1.192   0.448   0.568  0.4330 -0.4373 -0.3373
  775SOL     OW 2323   2.068   2.476   3.047  0.5464 -0.2239  0.0366
  775SOL    HW1 2324   2.099   2.546   2.980  1.4069  1.9803 -0.2683
  775SOL    HW2 2325   2.095   2.516   0.029  3.6735  0.2016  0.1387
  776SOL     OW 2326   2.368   0.184   1.875 -0.8085 -0.0945  0.3404
  776SOL    HW1 2327   2.352   0.099   1.819  2.1964 -0.6144 -0.5866
  776SOL    HW2 2328   2.408   0.166   1.968  0.3436 -0.4695  0.4860
  777SOL     OW 2329   0.358   1.103   2.722 -0.4669 -0.4063  0.2227
  777SOL    HW1 2330   0.344   1.144   2.630 -0.5071 -0.9926 -2.1237
  777SOL    HW2 2331   0.269   1.063   2.757 -1.7501 -1.2322  0.0538
  778SOL     OW 2332   0.993   2.941   0.289 -0.1429  0.2276  0.4145
  778SOL    HW1 2333   0.978   3.031   0.245  2.4356  0.5476  1.2393
  778SOL    HW2 2334   0.976   2.936   0.391  0.3791 -1.9277  0.9578
  779SOL     OW 2335   0.142   0.927   2.840  0.0459 -0.5016  0.6974
  779SOL    HW1 2336   0.087   0.988   2.899 -2.7058  1.8596  1.7804
  779SOL    HW2 2337   0.095   0.842   2.821 -0.6285  0.0036  0.3011
  780SOL     OW 2338   2.030   0.854   2.578  0.0055  0.3004 -0.1679
  780SOL    HW1 2339   2.075   0.768   2.548 -0.4996 -1.7336 -0.4570
  780SOL    HW2 2340   1.931   0.847   2.558  2.0387 -0.6626  1.2663
  781SOL     OW 2341   2.337   1.467   1.999 -0.4945  0.1620 -0.1115
  781SOL    HW1 2342   2.265   1.393   1.994 -3.6025 -1.6261 -1.6195
  781SOL    HW2 2343   2.314   1.547   1.936 -0.7500  0.7094 -2.2289
  782SOL     OW 2344   1.134   1.835   2.277  0.2360 -0.4323 -0.6524
  782SOL    HW1 2345   1.158   1.737   2.261 -2.1127 -0.2836  0.5868
  782SOL    HW2 2346   1.048   1.859   2.220 -3.0969 -0.9233 -2.1596
  783SOL     OW 2347   0.725   3.096   1.088  0.5133  0.5375 -0.3846
  783SOL    HW1 2348   0.781   3.030   1.143  0.9010 -0.0337 -1.9079
  783SOL    HW2 2349   0.627   3.071   1.080 -0.7363  2.1107 -1.2741
  784SOL     OW 2350   1.333   0.631   3.064 -0.3852  0.3884  0.4446
  784SOL    HW1 2351   1.428   0.608   3.029 -0.9088  3.5547  1.4793
  784SOL    HW2 2352   1.337   0.684   0.042 -0.6089 -0.4102  2.8225
  785SOL     OW 2353   1.382   0.213   0.014  0.1119  0.3706 -0.4207
  785SOL    HW1 2354   1.315   0.279   3.082  1.0753  0.5132 -1.8932
  785SOL    HW2 2355   1.429   0.149   3.065  1.2594 -0.9161 -0.6855
  786SOL     OW 2356   0.222   1.352   0.630  0.4205  0.5434  0.6326
  786SOL    HW1 2357   0.321   1.354   0.654 -1.3073  1.2442 -2.6402
  786SOL    HW2 2358   0.204   1.402   0.546 -1.3354  1.2619  0.7469
  787SOL     OW 2359   1.836   1.473   0.270 -0.4285 -0.3242 -0.6551
  787SOL    HW1 2360   1.853   1.573   0.248 -0.7833  0.6369  4.7686
  787SOL    HW2 2361   1.736   1.452   0.290 -0.8644  0.9291  1.3697
  788SOL     OW 2362   1.858   1.742   1.223  0.4153 -0.0488 -0.2498
  788SOL    HW1 2363   1.835   1.730   1.319  2.1542  1.3989 -1.8465
  788SOL    HW2 2364   1.950   1.782   1.215 -0.0009 -2.6538  0.9133
  789SOL     OW 2365   3.105   1.383   2.097  0.1472 -0.1889 -0.7625
  789SOL    HW1 2366   3.086   1.479   2.073  1.1329 -1.7571  0.8511
  789SOL    HW2 2367   3.108   1.361   2.200 -0.7354  0.6962  2.6377
  790SOL     OW 2368   0.575   3.059   3.107  0.0203  0.1069  0.3957
  790SOL    HW1 2369   0.563   2.964   0.030 -0.1396  1.1269 -1.1497
  790SOL    HW2 2370   0.587   0.011   0.074 -0.2393 -2.2572 -2.9308
  791SOL     OW 2371   0.665   0.065   2.406  0.1174 -0.6217  0.0551
  791SOL    HW1 2372   0.624   0.136   2.347  2.9059  0.3206  0.6264
  791SOL    HW2 2373   0.648   0.083   2.507 -0.8242 -1.6391 -1.5473
  792SOL     OW 2374   1.816   0.412   2.221  0.4014  0.3170  0.0596
  792SOL    HW1 2375   1.852   0.404   2.313 -0.6609 -1.5850 -0.4704
  792SOL    HW2 2376   1.734   0.472   2.219 -2.5531 -0.0347 -1.1758
  793SOL     OW 2377   0.041   0.523   1.243 -0.0658  0.2468  0.5299
  793SOL    HW1 2378   0.001   0.517   1.340  0.0893 -0.9777  0.3160
  793SOL    HW2 2379   0.125   0.575   1.244 -1.0826 -2.9273  2.0927
  794SOL     OW 2380   0.531   0.623   1.947 -0.2786 -0.3971 -0.2010
  794SOL    HW1 2381   0.582   0.676   2.016  2.4258 -1.5916 -0.1431
  794SOL    HW2 2382   0.597   0.576   1.885  3.1105 -0.3337  1.7501
  795SOL     OW 2383   0.090   1.281   0.256 -0.6685 -0.0074  0.0711
  795SOL    HW1 2384   0.054   1.283   0.163 -1.0228  0.0250 -1.3445
  795SOL    HW2 2385   0.015   1.249   0.319 -0.6001  1.4415 -1.7890
  796SOL     OW 2386   2.898   2.770   0.286  0.1252 -0.1140  0.4823
  796SOL    HW1 2387   2.950   2.761   0.374  0.2494  0.3317  1.0001
  796SOL    HW2 2388   2.967   2.767   0.209 -0.0764 -3.6565  0.7257
  797SOL     OW 2389   1.916   2.678   2.230 -0.2030  0.0044 -0.3247
  797SOL    HW1 2390   1.959   2.618   2.162  2.2661  3.2347  1.4856
  797SOL    HW2 2391   1.971   2.764   2.224 -0.3330 -4.5533  0.5907
  798SOL     OW 2392   3.101   1.042   0.859  0.8871 -0.4252 -0.2033
  798SOL    HW1 2393   0.020   1.049   0.762  0.8446  0.3220  0.7229
  798SOL    HW2 2394   3.050   0.948   0.867 -2.6835 -3.6521 -1.7363
  799SOL     OW 2395   2.795   0.546   2.776  0.3908  0.0285  0.1352
  799SOL    HW1 2396   2.864   0.515   2.710  2.0588  1.1401 -0.0433
  799SOL    HW2 2397   2.796   0.649   2.787  1.0836 -0.7869  2.7528
  800SOL     OW 2398   2.974   1.845   0.297 -0.7121 -0.1431 -0.1735
  800SOL    HW1 2399   3.076   1.834   0.308  0.6098  0.9171 -1.4418
  800SOL    HW2 2400   2.939   1.892   0.382  1.3415 -0.6088 -0.7515
  801SOL     OW 2401   1.544   1.422   1.144 -0.3569 -0.3272 -0.6247
  801SOL    HW1 2402   1.605   1.399   1.068  0.4895 -0.5252 -2.1029
  801SOL    HW2 2403   1.547   1.525   1.162  0.1202  2.4606  2.7699
  802SOL     OW 2404   1.156   1.830   1.786 -0.0216 -0.7939 -0.0974
  802SOL    HW1 2405   1.179   1.912   1.841  0.0621 -0.0999 -0.9556
  802SOL    HW2 2406   1.227   1.814   1.717 -0.0261 -2.8686  0.7887
  803SOL     OW 2407   0.209   1.763   0.653  0.2729  0.9359  0.3551
  803SOL    HW1 2408   0.158   1.697   0.596  0.4857  0.2577  3.6761
  803SOL    HW2 2409   0.190   1.859   0.623  0.7137  1.5665 -1.8503
  804SOL     OW 2410   0.887   2.344   1.466 -0.1184  0.0124  0.4124
  804SOL    HW1 2411   0.971   2.350   1.400  0.7947 -0.3389  0.0833
  804SOL    HW2 2412   0.802   2.389   1.429 -3.2267  2.9806  1.7442
  805SOL     OW 2413   2.245   1.404   0.007 -0.1376  0.1385  0.4216
  805SOL    HW1 2414   2.185   1.473   3.065 -1.3921  2.4252 -0.3244
  805SOL    HW2 2415   2.265   1.325   3.060  1.6247  0.7691  0.3027
  806SOL     OW 2416   1.663   2.772   1.298 -0.0975 -0.1800  0.1374
  806SOL    HW1 2417   1.748   2.804   1.343  0.1950 -0.4765  0.6524
  806SOL    HW2 2418   1.586   2.837   1.311  0.1144  0.3738  1.0921
  807SOL     OW 2419   2.596   0.566   3.045  0.1559 -0.0984 -0.4577
  807SOL    HW1 2420   2.614   0.657   3.012 -1.4046 -1.3072  1.7791
  807SOL    HW2 2421   2.548   0.513   2.966 -1.5906 -1.3039 -3.3557
  808SOL     OW 2422   0.087   1.091   0.618 -0.7179  0.4709 -0.6749
  808SOL    HW1 2423   0.157   1.035   0.569  1.3683  1.6280 -1.3103
  808SOL    HW2 2424   0.119   1.189   0.624 -0.4450  0.8266  1.7498
  809SOL     OW 2425   2.879   0.783   2.336  0.1295  0.3737 -0.0592
  809SOL    HW1 2426   2.899   0.840   2.257 -1.8733 -1.0732  1.6634
  809SOL    HW2 2427   2.837   0.837   2.413  0.0481  0.6274 -1.3739
  810SOL     OW 2428   1.558   0.717   1.468 -0.0809 -0.0525  0.0094
  810SOL    HW1 2429   1.544   0.626   1.505 -3.4893  1.0589 -2.2829
  810SOL    HW2 2430   1.612   0.717   1.377  0.6041  1.7340 -1.4750
  811SOL     OW 2431   1.891   2.867   1.435 -0.0312 -0.3354 -0.4548
  811SOL    HW1 2432   1.904   2.769   1.462  0.6181  0.0922 -0.3749
  811SOL    HW2 2433   1.974   2.923   1.458  1.5461  1.6986  0.7130
  812SOL     OW 2434   1.790   2.831   0.021 -0.0939  0.5701  0.0538
  812SOL    HW1 2435   1.834   2.764   0.086  0.4782  0.9169  0.6367
  812SOL    HW2 2436   1.713   2.784   3.087  0.8112  1.2686 -1.7432
  813SOL     OW 2437   1.948   1.081   1.887  0.4409 -0.3185  0.1385
  813SOL    HW1 2438   1.954   1.089   1.989 -0.7406 -0.4772 -0.7652
  813SOL    HW2 2439   2.000   0.998   1.861 -1.8211  2.7821  0.7118
  814SOL     OW 2440   1.531   0.982   1.997  0.3786  0.1191 -0.0351
  814SOL    HW1 2441   1.572   1.018   2.081 -1.5460  1.0871  1.1518
  814SOL    HW2 2442   1.600   0.989   1.917  3.1429 -0.3343 -1.3664
  815SOL     OW 2443   0.533   0.792   0.415  0.0128  0.4300  0.1056
  815SOL    HW1 2444   0.582   0.870   0.382  0.6869 -0.1360 -0.2834
  815SOL    HW2 2445   0.584   0.711   0.382 -1.5311  1.5466  2.2773
  816SOL     OW 2446   2.175   1.598   2.781  0.3090  0.2092  0.2772
  816SOL    HW1 2447   2.096   1.630   2.839  0.4611 -2.5890  1.6350
  816SOL    HW2 2448   2.248   1.669   2.786  0.5913 -0.7015 -0.1866
  817SOL     OW 2449   0.436   2.503   0.434 -0.2469 -0.0956  0.2431
  817SOL    HW1 2450   0.453   2.443   0.511  0.8979  1.6038 -0.0431
  817SOL    HW2 2451   0.352   2.558   0.456  1.4893 -0.2697  0.9022
  818SOL     OW 2452   1.809   0.362   2.686  0.2813  0.7323 -0.5658
  818SOL    HW1 2453   1.854   0.381   2.774  1.2034  1.7974 -0.1292
  818SOL    HW2 2454   1.719   0.318   2.695 -0.2623  2.4409  0.3400
  819SOL     OW 2455   1.563   0.505   0.418 -0.0059  0.0737 -0.0256
  819SOL    HW1 2456   1.480   0.476   0.364  0.0408  1.7328  3.0799
  819SOL    HW2 2457   1.577   0.603   0.403 -1.2559 -0.3299  1.3018
  820SOL     OW 2458   1.708   1.005   0.503 -0.5702  0.6772  0.1954
  820SOL    HW1 2459   1.623   1.047   0.537 -1.0882  2.8005 -3.2190
  820SOL    HW2 2460   1.788   1.067   0.536 -0.4694 -2.5454 -2.7888
  821SOL     OW 2461   2.442   2.818   0.399 -0.5203 -0.0593 -0.1702
  821SOL    HW1 2462   2.395   2.896   0.449 -2.2375  3.1229  1.7329
  821SOL    HW2 2463   2.522   2.850   0.344 -0.7558  0.3915  1.5316
  822SOL     OW 2464   0.164   2.763   1.990 -0.2318  0.0243  0.5369
  822SOL    HW1 2465   0.136   2.846   2.037  0.7662 -1.7883  0.4945
  822SOL    HW2 2466   0.195   2.776   1.891 -2.9499 -0.2334 -0.8776
  823SOL     OW 2467   2.610   2.188   1.570  0.3206  0.0409  0.9764
  823SOL    HW1 2468   2.660   2.217   1.655  0.2430 -0.5571 -0.0820
  823SOL    HW2 2469   2.550   2.111   1.593  0.0107  0.6968 -0.5806
  824SOL     OW 2470   1.284   2.817   2.434  0.0774  0.1451 -0.6920
  824SOL    HW1 2471   1.227   2.731   2.422  0.8448  0.6310 -0.7611
  824SOL    HW2 2472   1.383   2.795   2.451 -1.1897  0.3375  2.2087
  825SOL     OW 2473   1.870   1.589   0.589 -0.3694  0.1409 -0.1596
  825SOL    HW1 2474   1.819   1.510   0.621  0.3073 -1.1267  2.2213
  825SOL    HW2 2475   1.817   1.651   0.526 -2.0491 -1.6337 -2.5559
  826SOL     OW 2476   1.861   0.786   0.044 -0.6319  0.2590  0.3293
  826SOL    HW1 2477   1.951   0.786   0.095  1.6572 -0.7988 -0.4594
  826SOL    HW2 2478   1.882   0.759   3.058 -1.4817 -2.1914 -0.6259
  827SOL     OW 2479   0.364   1.339   1.418 -0.2166  0.1612 -0.7227
  827SOL    HW1 2480   0.359   1.381   1.514 -0.2156  1.6513  2.1464
  827SOL    HW2 2481   0.460   1.350   1.385 -2.2723  1.5853  1.7848
  828SOL     OW 2482   1.882   1.550   1.883  0.3325  0.1189  0.1126
  828SOL    HW1 2483   1.792   1.598   1.859 -1.6539  1.4173 -0.7441
  828SOL    HW2 2484   1.888   1.470   1.817  0.1027 -1.8498 -1.1220
  829SOL     OW 2485   0.130   1.879   0.293 -0.0242 -0.1178 -0.2392
  829SOL    HW1 2486   0.132   1.954   0.222 -0.0448  2.5659 -2.1539
  829SOL    HW2 2487   0.210   1.820   0.269 -0.7330 -0.0273  1.5484
  830SOL     OW 2488   1.201   0.424   0.769  0.1162  0.5503 -0.0234
  830SOL    HW1 2489   1.249   0.360   0.834 -0.9686  0.4341 -2.4610
  830SOL    HW2 2490   1.103   0.420   0.780  0.3126 -1.2844 -0.3068
  831SOL     OW 2491   2.875   1.500   0.171  0.0946 -0.0061  0.0496
  831SOL    HW1 2492   2.970   1.474   0.136  1.8955 -2.6372  1.4474
  831SOL    HW2 2493   2.855   1.596   0.142  1.9890  0.2766 -0.6262
  832SOL     OW 2494   1.119   2.865   3.031  0.4518  0.0863  0.3800
  832SOL    HW1 2495   1.022   2.862   3.002 -0.1406  2.4961  1.6566
  832SOL    HW2 2496   1.149   2.967   3.039 -0.6608  1.7485 -1.2623
  833SOL     OW 2497   1.131   0.746   2.049  0.4333  0.4567 -0.1434
  833SOL    HW1 2498   1.224   0.725   2.008  0.7481 -0.4439 -0.4665
  833SOL    HW2 2499   1.138   0.838   2.099 -2.7444  1.4763 -0.9701
  834SOL     OW 2500   0.238   0.686   1.303  0.3041  0.1901  0.0648
  834SOL    HW1 2501   0.179   0.765   1.322 -2.1382 -0.5182  1.7873
  834SOL    HW2 2502   0.268   0.688   1.208 -2.1474  1.3087  3.6137
  835SOL     OW 2503   3.080   0.502   1.497  0.2208  0.1506  0.4997
  835SOL    HW1 2504   3.027   0.564   1.555  2.3635  0.7211 -1.5250
  835SOL    HW2 2505   3.060   0.399   1.509  0.6622  1.1854  2.4381
  836SOL     OW 2506   0.533   1.966   0.463  0.2148  0.4996 -0.7447
  836SOL    HW1 2507   0.554   1.867   0.483 -0.8964  0.1224 -1.5925
  836SOL    HW2 2508   0.580   2.031   0.524  0.2379  0.0648 -1.5627
  837SOL     OW 2509   1.956   1.783   2.165 -0.6173  0.0409 -0.5355
  837SOL    HW1 2510   2.017   1.854   2.122  0.2631  0.8278  4.4297
  837SOL    HW2 2511   1.997   1.734   2.246  0.0867 -0.9661 -0.5777
  838SOL     OW 2512   0.114   1.168   1.954 -0.1330 -0.2075  0.0628
  838SOL    HW1 2513   0.205   1.182   1.910  1.2814 -1.6545 -2.1885
  838SOL    HW2 2514   0.081   1.262   1.986  1.7482  0.5272 -0.3964
  839SOL     OW 2515   0.383   0.356   0.650 -0.2473  0.1441  0.2777
  839SOL    HW1 2516   0.282   0.332   0.649 -0.8593  0.8840 -2.3249
  839SOL    HW2 2517   0.437   0.306   0.573  2.8666 -0.9998 -1.2193
  840SOL     OW 2518   2.888   0.165   2.620 -0.0533  0.2708  0.1798
  840SOL    HW1 2519   2.955   0.097   2.657 -3.1493  1.4646  4.3912
  840SOL    HW2 2520   2.820   0.178   2.703 -4.0659 -2.9967  5.5455
  841SOL     OW 2521   0.599   2.793   0.088  0.2276 -0.4452 -0.4370
  841SOL    HW1 2522   0.578   2.712   0.027  1.0984 -0.2977 -0.2583
  841SOL    HW2 2523   0.689   2.778   0.138  0.9899 -1.8367 -0.6641
  842SOL     OW 2524   0.672   0.059   0.819  0.3480 -0.2601  0.1615
  842SOL    HW1 2525   0.585   0.013   0.790  0.4446 -0.1401 -2.4472
  842SOL    HW2 2526   0.704   0.017   0.909 -0.3678 -1.5214  2.5719
  843SOL     OW 2527   3.108   0.718   2.759  0.1292 -0.2738 -0.9603
  843SOL    HW1 2528   0.029   0.714   2.667  2.3032  2.4626  1.8579
  843SOL    HW2 2529   0.005   0.626   2.802 -0.0426 -1.4021  0.4212
  844SOL     OW 2530   0.947   2.169   2.516  0.4090 -0.3057 -0.0391
  844SOL    HW1 2531   0.876   2.191   2.443 -0.5192  0.2121 -0.5311
  844SOL    HW2 2532   1.028   2.131   2.468 -0.6475 -1.7767 -0.3189
  845SOL     OW 2533   2.188   2.825   2.551 -0.3375  0.0042  0.1948
  845SOL    HW1 2534   2.263   2.852   2.615 -1.7298  2.3117 -1.1516
  845SOL    HW2 2535   2.141   2.904   2.508 -2.0621 -0.1355 -3.6580
  846SOL     OW 2536   2.058   1.386   2.314 -0.3095  0.3317  0.2667
  846SOL    HW1 2537   2.038   1.390   2.412  1.2071 -0.5802 -1.2259
  846SOL    HW2 2538   2.157   1.397   2.297 -0.1644 -2.4368 -0.5335
  847SOL     OW 2539   2.745   2.800   3.018 -0.1689  0.2963 -0.3911
  847SOL    HW1 2540   2.680   2.842   3.080  0.3127 -1.2901 -1.2312
  847SOL    HW2 2541   2.804   2.865   2.970 -1.5676 -0.0968  0.3113
  848SOL     OW 2542   0.164   0.533   0.238 -0.1484 -0.1354  0.2992
  848SOL    HW1 2543   0.120   0.621   0.231 -2.1380 -1.2043 -0.5216
  848SOL    HW2 2544   0.227   0.510   0.160  3.0665  0.7239  1.3510
  849SOL     OW 2545   1.415   3.109   2.093 -0.3433  0.3914 -0.2228
  849SOL    HW1 2546   1.486   3.086   2.160 -1.8239  1.3065 -0.9722
  849SOL    HW2 2547   1.390   0.092   2.101  0.6496 -0.5570  0.2242
  850SOL     OW 2548   0.806   0.965   0.672 -0.1472 -0.0837  0.3052
  850SOL    HW1 2549   0.853   0.938   0.586  1.1045 -0.7530 -3.8353
  850SOL    HW2 2550   0.869   1.001   0.742  0.6105 -2.3975 -1.6988
  851SOL     OW 2551   0.355   1.166   0.235  0.3431  0.0122  0.1378
  851SOL    HW1 2552   0.423   1.223   0.290  1.2960  0.2422  0.0311
  851SOL    HW2 2553   0.260   1.182   0.264 -0.4090 -2.7444  1.3515
  852SOL     OW 2554   1.399   0.746   1.956  0.0579  0.4034  0.1778
  852SOL    HW1 2555   1.460   0.822   1.968 -3.2444 -0.7855 -1.7717
  852SOL    HW2 2556   1.456   0.660   1.936  1.0267 -0.4450  0.1904
  853SOL     OW 2557   2.734   1.504   0.414  0.1844  0.2394 -0.6836
  853SOL    HW1 2558   2.769   1.434   0.473  0.2714 -2.0115 -1.3162
  853SOL    HW2 2559   2.781   1.500   0.319 -1.4855  1.2328  3.1994
  854SOL     OW 2560   1.219   1.143   2.372 -0.2598 -0.4567 -0.4032
  854SOL    HW1 2561   1.122   1.116   2.371 -0.6379 -0.6656 -0.4102
  854SOL    HW2 2562   1.274   1.091   2.442  2.0203 -1.0944 -0.7798
  855SOL     OW 2563   0.283   2.744   2.820  0.9887 -0.3741  0.1670
  855SOL    HW1 2564   0.272   2.761   2.922 -0.5881  2.1244  0.4393
  855SOL    HW2 2565   0.284   2.647   2.801  0.0032  1.5403  1.4358
  856SOL     OW 2566   1.298   0.870   2.427 -0.5312 -0.3237  0.9411
  856SOL    HW1 2567   1.334   0.789   2.379 -1.2330  1.7093  0.1513
  856SOL    HW2 2568   1.192   0.867   2.439 -4.4460 -2.2966 -1.9441
  857SOL     OW 2569   1.424   0.819   2.702 -0.0732  0.4404 -0.2927
  857SOL    HW1 2570   1.505   0.764   2.727 -0.2448  2.4100 -1.3619
  857SOL    HW2 2571   1.380   0.792   2.612 -3.5289 -1.8612 -2.8193
  858SOL     OW 2572   2.852   0.997   2.166 -0.6270 -0.4735  0.1453
  858SOL    HW1 2573   2.782   1.015   2.238  1.2382  1.0787  0.1123
  858SOL    HW2 2574   2.854   1.079   2.108  0.4633 -2.6659 -1.4053
  859SOL     OW 2575   2.564   0.227   0.793  0.2882  0.0235 -0.3842
  859SOL    HW1 2576   2.647   0.230   0.852  5.4307  1.2181 -2.8100
  859SOL    HW2 2577   2.592   0.264   0.702  1.9361 -0.9411  1.1091
  860SOL     OW 2578   1.808   0.013   0.290 -0.1192 -0.5329 -0.0853
  860SOL    HW1 2579   1.863   0.074   0.355  1.8950 -1.0285 -0.2338
  860SOL    HW2 2580   1.832   3.025   0.309  0.4392 -0.4137 -1.9999
  861SOL     OW 2581   1.351   0.357   1.217  0.0264  0.1769 -0.2362
  861SOL    HW1 2582   1.305   0.388   1.132 -3.3235 -1.6051  2.7987
  861SOL    HW2 2583   1.290   0.350   1.298  0.1439  0.5827  1.8307
  862SOL     OW 2584   1.495   0.158   2.516 -0.1795  0.3193  0.5980
  862SOL    HW1 2585   1.560   0.087   2.483 -0.2656  0.4059  0.6966
  862SOL    HW2 2586   1.453   0.207   2.435  0.8015  0.9262  1.1605
  863SOL     OW 2587   2.728   2.749   0.838 -0.2952  0.0680 -0.0118
  863SOL    HW1 2588   2.675   2.778   0.756 -0.0322 -0.5062  1.5570
  863SOL    HW2 2589   2.803   2.683   0.813  2.6008  1.0546 -1.3173
  864SOL     OW 2590   2.550   0.097   2.101  0.2696 -0.3455 -0.0428
  864SOL    HW1 2591   2.519   0.047   2.182 -0.6873  3.2710 -0.2865
  864SOL    HW2 2592   2.643   0.076   2.075 -0.9860 -0.6901  0.7080
  865SOL     OW 2593   1.325   1.157   1.998 -0.1463  0.0701  0.0592
  865SOL    HW1 2594   1.301   1.210   1.917 -0.2389 -1.8973 -0.2103
  865SOL    HW2 2595   1.406   1.098   1.979 -1.4822  1.8906  0.5645
  866SOL     OW 2596   1.862   2.828   1.005 -0.1581  0.5230 -0.1369
  866SOL    HW1 2597   1.770   2.789   1.028 -2.8350  0.4828  2.8916
  866SOL    HW2 2598   1.862   2.880   0.918 -1.0884  2.5629 -0.3519
  867SOL     OW 2599   2.355   3.031   0.505  0.2248  0.6717 -0.1141
  867SOL    HW1 2600   2.406   3.044   0.594  0.2742  0.2388 -2.1686
  867SOL    HW2 2601   2.337   0.000   0.445  0.4165 -0.6602 -0.5129
  868SOL     OW 2602   0.094   2.352   2.032 -0.0534  0.1581  0.0974
  868SOL    HW1 2603   0.164   2.333   1.960  1.1343  1.4355  1.3095
  868SOL    HW2 2604   0.042   2.434   2.001 -1.6786 -0.2259  3.5697
  869SOL     OW 2605   1.957   2.165   2.312 -0.4329  0.6423  0.0079
  869SOL    HW1 2606   1.884   2.148   2.237  0.8875 -0.8572 -0.6176
  869SOL    HW2 2607   1.916   2.223   2.389 -0.8894  0.7513  2.0359
  870SOL     OW 2608   1.492   1.542   0.638 -0.1071  0.7721  0.7998
  870SOL    HW1 2609   1.519   1.630   0.596 -0.7124 -1.5833 -1.0379
  870SOL    HW2 2610   1.572   1.469   0.622  2.3501 -1.1210  0.0884
  871SOL     OW 2611   2.714   1.857   1.814 -0.1732  0.1321 -0.2635
  871SOL    HW1 2612   2.780   1.914   1.871 -1.2969  0.2033  1.8437
  871SOL    HW2 2613   2.751   1.809   1.731 -2.3228 -0.1737  1.6680
  872SOL     OW 2614   0.597   1.695   2.712 -0.1594 -0.3748 -0.1258
  872SOL    HW1 2615   0.676   1.659   2.659  1.9788  2.4743  1.0667
  872SOL    HW2 2616   0.623   1.747   2.794  1.2279 -2.0605 -1.5217
  873SOL     OW 2617   0.857   1.351   1.871 -0.0847  0.2944 -0.0152
  873SOL    HW1 2618   0.839   1.448   1.892  0.4286 -1.0924 -1.5586
  873SOL    HW2 2619   0.881   1.296   1.954  0.2739 -0.3790 -1.5705
  874SOL     OW 2620   1.690   1.004   1.793 -0.5214  0.6073 -0.0561
  874SOL    HW1 2621   1.666   0.980   1.692 -3.6222  0.8543 -2.6031
  874SOL    HW2 2622   1.791   1.022   1.802 -1.0649  0.4259  0.8207
  875SOL     OW 2623   2.890   0.002   0.156  0.6493  0.4230  0.7720
  875SOL    HW1 2624   2.889   3.012   0.166  1.9528 -1.0072 -3.2596
  875SOL    HW2 2625   2.945   0.046   0.231 -1.3565  0.2549  1.4330
  876SOL     OW 2626   0.772   1.187   0.373 -0.0513 -0.5020  0.2013
  876SOL    HW1 2627   0.785   1.090   0.343  0.8523 -1.7059 -0.2047
  876SOL    HW2 2628   0.825   1.258   0.315 -0.8015  2.3568  0.2408
  877SOL     OW 2629   2.605   2.842   0.638 -0.0012  0.1762 -0.0043
  877SOL    HW1 2630   2.556   2.912   0.697 -0.9763 -0.2510  1.1455
  877SOL    HW2 2631   2.573   2.853   0.538  1.0467  0.0308 -0.9888
  878SOL     OW 2632   1.961   1.980   0.689  0.1470  0.2056 -0.0289
  878SOL    HW1 2633   1.889   2.003   0.623 -0.1671 -1.0710  0.7211
  878SOL    HW2 2634   2.009   1.894   0.666  1.8727  0.3948  1.7089
  879SOL     OW 2635   2.484   1.607   1.274 -0.3146 -0.5086  0.0448
  879SOL    HW1 2636   2.441   1.520   1.299 -1.1831 -0.5094 -0.0749
  879SOL    HW2 2637   2.527   1.597   1.185  0.6378  0.6161  1.8804
  880SOL     OW 2638   0.469   2.072   0.915 -0.1850 -0.9490  0.0776
  880SOL    HW1 2639   0.503   2.043   1.006 -1.4026 -0.8673  0.9648
  880SOL    HW2 2640   0.477   1.996   0.852 -1.9356  3.2089  0.1861
  881SOL     OW 2641   0.668   0.788   1.039  0.3237 -0.4089 -0.3242
  881SOL    HW1 2642   0.730   0.852   1.091  0.2839  0.6993 -0.1225
  881SOL    HW2 2643   0.678   0.801   0.940 -0.8970 -1.0710 -0.7744
  882SOL     OW 2644   2.610   1.217   1.177  0.5507  0.5466  0.1269
  882SOL    HW1 2645   2.589   1.126   1.130  1.5377 -0.1586 -2.0589
  882SOL    HW2 2646   2.686   1.266   1.130  0.9871  0.9097  0.4839
  883SOL     OW 2647   1.582   0.257   1.777 -0.0246  0.0783  0.3684
  883SOL    HW1 2648   1.595   0.202   1.863 -0.6500  0.5147  1.5160
  883SOL    HW2 2649   1.567   0.195   1.698  3.2797  0.6008 -0.2800
  884SOL     OW 2650   3.079   0.279   1.738  0.4814  0.1809  0.3775
  884SOL    HW1 2651   0.029   0.309   1.817 -2.3509 -0.1819  4.5707
  884SOL    HW2 2652   2.982   0.298   1.766 -0.1344  1.8480  1.3817
  885SOL     OW 2653   1.273   1.470   2.996  0.0646 -0.0716  0.2290
  885SOL    HW1 2654   1.172   1.486   3.003  0.8109  0.4368  0.0386
  885SOL    HW2 2655   1.322   1.541   2.946  2.7103 -0.3020  2.6595
  886SOL     OW 2656   1.893   0.413   2.953  0.1200 -0.0571 -0.4179
  886SOL    HW1 2657   1.844   0.447   3.035 -2.0100  0.0020 -0.5172
  886SOL    HW2 2658   1.964   0.340   2.968  0.1481  3.0366  0.7277
  887SOL     OW 2659   1.517   0.083   1.533 -0.2223  0.2503  0.2762
  887SOL    HW1 2660   1.590   0.108   1.463  1.8323 -0.7349 -0.4173
  887SOL    HW2 2661   1.554   0.004   1.586 -0.9149  1.8537 -0.5865
  888SOL     OW 2662   1.975   1.808   1.821 -0.2259 -0.4092 -0.7228
  888SOL    HW1 2663   1.948   1.719   1.861 -0.4352  2.4105 -0.6460
  888SOL    HW2 2664   2.059   1.844   1.860 -1.7443 -2.1821 -0.9993
  889SOL     OW 2665   1.819   2.285   0.546 -0.4846 -0.1288  0.3119
  889SOL    HW1 2666   1.848   2.196   0.503  1.1750 -0.4209  1.0538
  889SOL    HW2 2667   1.897   2.353   0.536  2.4943  1.7085  2.1769
  890SOL     OW 2668   1.272   2.068   0.675 -0.0911  0.6902 -0.2436
  890SOL    HW1 2669   1.172   2.073   0.657  2.7203  0.0931 -1.3389
  890SOL    HW2 2670   1.328   2.010   0.609 -0.1077  0.1333 -0.8358
  891SOL     OW 2671   2.718   0.849   3.053 -0.0019  0.3213  0.0847
  891SOL    HW1 2672   2.758   0.809   0.030  0.0883 -0.7851  2.3264
  891SOL    HW2 2673   2.667   0.931   3.074 -0.0389 -0.6697 -1.5769
  892SOL     OW 2674   1.732   0.691   2.796  0.4589  0.0182  0.5395
  892SOL    HW1 2675   1.666   0.644   2.866 -3.2035 -0.2933  1.5548
  892SOL    HW2 2676   1.727   0.651   2.701  0.0601  0.1152 -0.2921
  893SOL     OW 2677   1.445   2.762   1.644  0.0212 -0.3698  0.0956
  893SOL    HW1 2678   1.354   2.772   1.600 -2.5664 -0.1637 -1.0641
  893SOL    HW2 2679   1.508   2.842   1.633 -0.1709  0.7175 -0.5019
  894SOL     OW 2680   2.852   0.058   0.546  0.1868 -0.1330 -0.1799
  894SOL    HW1 2681   2.822   3.096   0.481 -0.3541 -0.2282 -1.2133
  894SOL    HW2 2682   2.887   0.022   0.629 -0.4811  1.7204 -1.3894
  895SOL     OW 2683   2.037   2.226   2.979 -0.0464 -0.0355 -0.0191
  895SOL    HW1 2684   2.104   2.176   2.919 -0.2901 -0.4592  3.1565
  895SOL    HW2 2685   2.070   2.317   3.015 -1.9700  2.0318  0.7530
  896SOL     OW 2686   2.321   0.159   2.462 -0.2653  0.5301 -0.1984
  896SOL    HW1 2687   2.339   0.234   2.529 -1.3305 -0.5057 -2.0225
  896SOL    HW2 2688   2.270   0.198   2.383 -0.1468  1.9106  2.1261
  897SOL     OW 2689   0.328   1.649   1.799 -0.4641  0.4654 -0.3226
  897SOL    HW1 2690   0.315   1.606   1.891  0.9140 -1.1538  0.4980
  897SOL    HW2 2691   0.401   1.721   1.807  2.1440 -0.1132  0.5881
  898SOL     OW 2692   2.226   1.707   1.897  0.0385  0.0879  0.4552
  898SOL    HW1 2693   2.191   1.686   1.805 -0.8153  1.0626  0.7291
  898SOL    HW2 2694   2.317   1.746   1.895 -0.4688  2.3029  2.2229
  899SOL     OW 2695   1.650   2.612   1.057  0.1250 -0.0447  0.0474
  899SOL    HW1 2696   1.563   2.607   1.011  3.1128 -1.0294 -0.0087
  899SOL    HW2 2697   1.640   2.670   1.142  2.5873  0.4364 -0.3541
  900SOL     OW 2698   1.088   0.852   0.162  0.1301  0.1719 -0.1650
  900SOL    HW1 2699   1.190   0.827   0.169  3.4640 -2.0753 -1.6249
  900SOL    HW2 2700   1.073   0.942   0.112 -1.8763  1.5628 -2.0093
  901SOL     OW 2701   1.298   1.746   2.532  0.1057 -0.3411  0.0107
  901SOL    HW1 2702   1.371   1.693   2.487 -0.2054  1.4449  0.8920
  901SOL    HW2 2703   1.227   1.776   2.466 -1.7593  0.6535 -0.6113
  902SOL     OW 2704   0.062   2.429   0.051  0.3700  0.3332  0.5226
  902SOL    HW1 2705   0.126   2.478   0.116  1.1331  1.3367  1.0738
  902SOL    HW2 2706   3.078   2.450   0.087  0.5810  0.8299 -1.0612
  903SOL     OW 2707   2.346   0.858   1.797 -0.2588  0.2762 -0.5452
  903SOL    HW1 2708   2.383   0.764   1.805 -3.3775  3.8312  0.3164
  903SOL    HW2 2709   2.373   0.914   1.880 -1.6788 -1.3007 -1.2163
  904SOL     OW 2710   1.564   0.525   2.932 -0.4783 -0.2492 -0.0859
  904SOL    HW1 2711   1.583   0.438   2.881  0.8595 -0.6750 -0.0444
  904SOL    HW2 2712   1.625   0.531   3.013 -1.0683  0.7902 -0.1448
  905SOL     OW 2713   2.136   2.495   1.199 -0.5776 -0.6194 -0.8035
  905SOL    HW1 2714   2.137   2.586   1.153 -2.3605  2.0862 -0.7965
  905SOL    HW2 2715   2.160   2.421   1.133  0.5324 -3.4591  0.0230
  906SOL     OW 2716   1.424   1.962   3.075 -0.0703  0.5101  0.2270
  906SOL    HW1 2717   1.468   1.866   3.080 -0.1640 -5.6887  1.8120
  906SOL    HW2 2718   1.445   2.009   2.991 -1.6562  4.3574  2.2408
  907SOL     OW 2719   0.714   2.708   0.684  0.2164 -0.6007 -0.4551
  907SOL    HW1 2720   0.651   2.666   0.753  1.5181 -0.4441 -1.3570
  907SOL    HW2 2721   0.720   2.655   0.596 -0.4493  0.2618 -1.1248
  908SOL     OW 2722   1.240   2.681   2.094 -0.0657 -0.4603  0.2949
  908SOL    HW1 2723   1.213   2.624   2.012  0.8886  0.5607 -0.9655
  908SOL    HW2 2724   1.327   2.735   2.076  2.7943  2.5842  1.2350
  909SOL     OW 2725   1.728   0.734   1.224  0.2207 -0.6227  0.2047
  909SOL    HW1 2726   1.789   0.655   1.228  0.4685  2.2767 -3.5452
  909SOL    HW2 2727   1.640   0.700   1.188  0.4887  0.0145 -2.1232
  910SOL     OW 2728   1.306   1.025   0.016  0.1760 -0.4533 -0.7090
  910SOL    HW1 2729   1.210   1.041   3.102  2.3956  0.7831 -0.9247
  910SOL    HW2 2730   1.370   1.061   3.055 -1.5412  1.3324  1.4941
  911SOL     OW 2731   2.837   0.801   0.159 -0.1687  0.3891 -0.4250
  911SOL    HW1 2732   2.796   0.718   0.209 -1.1899 -0.5609  3.6439
  911SOL    HW2 2733   2.813   0.892   0.204  1.0695 -0.7257 -0.2850
  912SOL     OW 2734   0.054   2.159   3.096 -0.5277 -0.2732  0.1432
  912SOL    HW1 2735   0.131   2.093   3.110  4.1017 -1.1691  1.0661
  912SOL    HW2 2736   0.073   2.247   0.032  0.2755 -1.3788 -2.0942
  913SOL     OW 2737   2.601   2.106   2.564 -0.6712 -0.1209  0.5777
  913SOL    HW1 2738   2.623   2.127   2.658 -0.1995 -1.0349 -2.6597
  913SOL    HW2 2739   2.651   2.022   2.537 -1.8727  3.0280 -0.4471
  914SOL     OW 2740   1.345   1.829   1.577  0.3930 -0.2090  0.1836
  914SOL    HW1 2741   1.355   1.819   1.478 -2.5445 -0.7390  1.3486
  914SOL    HW2 2742   1.435   1.834   1.619 -1.8757 -3.5256 -1.6257
  915SOL     OW 2743   0.640   2.581   2.098  0.2784  0.1174  0.2357
  915SOL    HW1 2744   0.587   2.643   2.037  0.6190  2.6746 -1.8692
  915SOL    HW2 2745   0.594   2.570   2.188 -6.1075 -0.3528  1.5202
  916SOL     OW 2746   0.373   1.252   1.833  0.2773 -1.1144  0.1351
  916SOL    HW1 2747   0.424   1.172   1.800 -0.9813 -0.0923  1.1897
  916SOL    HW2 2748   0.364   1.321   1.757  0.9785  1.2389  0.2938
  917SOL     OW 2749   2.379   0.356   0.540  0.1858 -0.0964  0.2302
  917SOL    HW1 2750   2.331   0.274   0.502 -0.4945 -1.0694  2.1451
  917SOL    HW2 2751   2.477   0.341   0.523 -0.7563  2.5195  0.6017
  918SOL     OW 2752   1.629   2.697   2.239  0.0051  0.5189 -0.3478
  918SOL    HW1 2753   1.726   2.674   2.252  0.6648 -0.9336  0.0282
  918SOL    HW2 2754   1.581   2.703   2.331 -0.0168  1.8438  0.8709
  919SOL     OW 2755   1.421   2.548   1.807  0.3930 -0.7470  0.3893
  919SOL    HW1 2756   1.404   2.637   1.760  3.1589  1.5685  0.6539
  919SOL    HW2 2757   1.335   2.520   1.850  3.8329  0.0475  2.7045
  920SOL     OW 2758   0.757   0.874   2.798 -0.6042  0.1190 -0.5396
  920SOL    HW1 2759   0.708   0.928   2.728 -2.2303 -3.2173  0.5778
  920SOL    HW2 2760   0.705   0.860   2.883 -0.1978 -3.1254  0.7547
  921SOL     OW 2761   0.143   0.358   2.691 -0.0879 -0.0924  0.4243
  921SOL    HW1 2762   0.057   0.399   2.662 -1.3017  2.1114  0.3449
  921SOL    HW2 2763   0.218   0.396   2.633  1.9696  2.0202 -0.6221
  922SOL     OW 2764   0.748   1.996   0.813  0.5906  0.6008  0.2670
  922SOL    HW1 2765   0.806   1.924   0.765  0.2129  1.0850  0.9343
  922SOL    HW2 2766   0.745   1.980   0.915 -0.2372 -0.5619  2.3936
  923SOL     OW 2767   0.563   1.090   2.059 -0.0656  0.7701 -0.0553
  923SOL    HW1 2768   0.549   1.081   1.959  0.2011 -2.9412  0.8797
  923SOL    HW2 2769   0.490   1.148   2.099  2.5010 -1.9767 -2.5802
  924SOL     OW 2770   1.419   2.991   2.809  0.5117  0.2983  0.1082
  924SOL    HW1 2771   1.365   3.060   2.761  1.5147  0.3332  0.4029
  924SOL    HW2 2772   1.378   2.895   2.819  0.5514 -0.4213  0.0863
  925SOL     OW 2773   2.719   1.355   1.724  0.3253  0.3641 -0.1580
  925SOL    HW1 2774   2.663   1.289   1.777  0.1086  0.9753 -1.8370
  925SOL    HW2 2775   2.765   1.304   1.651  0.2291 -0.3754 -1.1923
  926SOL     OW 2776   1.991   0.914   1.507  0.0559 -0.4199  0.1799
  926SOL    HW1 2777   2.034   1.002   1.489  0.9553 -3.1868 -0.5016
  926SOL    HW2 2778   2.022   0.844   1.435 -0.5385  2.1850 -1.9453
  927SOL     OW 2779   2.261   2.943   1.231  0.8243 -0.2631  0.2683
  927SOL    HW1 2780   2.307   2.961   1.323  1.2456 -0.0122 -2.1920
  927SOL    HW2 2781   2.248   3.026   1.175  1.2535  0.1641  1.4242
  928SOL     OW 2782   0.301   0.870   2.192  0.1064 -0.0469  0.3431
  928SOL    HW1 2783   0.227   0.939   2.190 -1.3233 -0.3881 -0.5487
  928SOL    HW2 2784   0.362   0.887   2.110  1.7770 -0.7745 -0.7088
  929SOL     OW 2785   2.659   0.599   1.042 -0.3821  0.7848  0.5047
  929SOL    HW1 2786   2.617   0.593   1.132  2.2367 -1.6708 -1.4811
  929SOL    HW2 2787   2.759   0.610   1.058 -2.0679  1.0079  0.1343
  930SOL     OW 2788   2.873   2.834   1.807  0.3123 -0.0865  0.6109
  930SOL    HW1 2789   2.789   2.784   1.846 -2.3527 -3.2143 -0.2554
  930SOL    HW2 2790   2.846   2.890   1.725 -0.0567 -0.0847 -0.0669
  931SOL     OW 2791   1.880   1.171   0.634  0.3989 -0.0347 -0.0344
  931SOL    HW1 2792   1.956   1.146   0.697  0.4729 -2.7827 -0.6217
  931SOL    HW2 2793   1.917   1.225   0.553  0.4725  0.5716  0.7880
  932SOL     OW 2794   2.858   1.237   2.033  0.0648 -0.0041  0.8597
  932SOL    HW1 2795   2.859   1.281   1.939  0.3740 -0.2377  0.5763
  932SOL    HW2 2796   2.951   1.251   2.072 -2.8850 -1.1052 -0.5594
  933SOL     OW 2797   2.738   2.213   1.804 -0.3317 -0.5550 -0.1661
  933SOL    HW1 2798   2.774   2.139   1.864 -0.0652 -1.3880 -0.6606
  933SOL    HW2 2799   2.752   2.301   1.853 -0.9924  1.1365 -0.6612
  934SOL     OW 2800   0.589   2.189   1.366  0.6803  0.3559  0.2262
  934SOL    HW1 2801   0.673   2.136   1.383 -0.4870 -1.4591  1.2223
  934SOL    HW2 2802   0.511   2.160   1.427  1.3411  2.0649 -1.7506
  935SOL     OW 2803   2.731   1.627   2.013 -0.1624  0.3776 -0.1739
  935SOL    HW1 2804   2.703   1.690   1.939  0.7595 -0.2718  2.2192
  935SOL    HW2 2805   2.712   1.529   1.986  1.9514  0.4772 -0.3195
  936SOL     OW 2806   2.316   1.721   2.192 -0.3526 -0.8954  0.1614
  936SOL    HW1 2807   2.306   1.655   2.117  0.4038  3.0774 -0.4165
  936SOL    HW2 2808   2.237   1.708   2.252 -0.9129 -1.6338 -3.2215
  937SOL     OW 2809   1.926   1.309   1.714  0.3515 -0.2619 -0.1051
  937SOL    HW1 2810   1.918   1.245   1.791  0.4789  0.0145  2.9828
  937SOL    HW2 2811   1.898   1.264   1.623  3.5370 -0.5220  0.5961
  938SOL     OW 2812   0.707   2.641   2.568  0.0048  0.9222  0.6804
  938SOL    HW1 2813   0.765   2.563   2.552 -0.6740  3.0146 -0.4801
  938SOL    HW2 2814   0.736   2.683   2.652  0.2615  0.3806 -1.0825
  939SOL     OW 2815   2.311   1.187   2.967  0.2221 -0.1522  0.6765
  939SOL    HW1 2816   2.226   1.133   2.945 -1.3535  1.4517  0.6153
  939SOL    HW2 2817   2.379   1.133   3.018 -3.0867  1.1718 -0.1807
  940SOL     OW 2818   1.007   1.662   0.657  0.2075  0.4540  0.7406
  940SOL    HW1 2819   1.095   1.631   0.691 -1.8884  0.8416  1.2833
  940SOL    HW2 2820   0.944   1.671   0.738  0.0725 -3.5457  0.7533
  941SOL     OW 2821   1.652   2.885   2.682  0.4549 -0.4508 -0.1651
  941SOL    HW1 2822   1.573   2.946   2.711 -1.1831 -0.4977  0.5897
  941SOL    HW2 2823   1.661   2.822   2.762 -1.2469 -0.6878  0.4959
  942SOL     OW 2824   0.882   2.362   0.490  0.7666  0.0334  0.3937
  942SOL    HW1 2825   0.820   2.442   0.479 -0.0712  2.4678 -0.4748
  942SOL    HW2 2826   0.979   2.378   0.468 -0.0905  0.7564  2.0758
  943SOL     OW 2827   1.876   0.304   1.786 -0.2700  0.5237 -0.0887
  943SOL    HW1 2828   1.784   0.278   1.752 -0.7951  1.9079  1.5400
  943SOL    HW2 2829   1.870   0.402   1.813  0.0923  0.0229  2.1336
  944SOL     OW 2830   0.677   1.345   2.937  0.3645  0.1341  0.0479
  944SOL    HW1 2831   0.620   1.355   2.853 -1.9709 -1.0566 -0.7213
  944SOL    HW2 2832   0.729   1.256   2.936 -3.2542  1.0385  0.3503
  945SOL     OW 2833   2.980   2.345   1.239 -0.7127 -0.1002  0.3297
  945SOL    HW1 2834   2.896   2.345   1.300  1.0043  3.9022  1.8040
  945SOL    HW2 2835   2.981   2.262   1.182 -1.4387  0.5597 -0.5752
  946SOL     OW 2836   0.617   1.073   2.650  0.0186 -0.5751 -0.4551
  946SOL    HW1 2837   0.641   1.140   2.578  2.6817  1.2345 -1.4866
  946SOL    HW2 2838   0.514   1.070   2.662 -0.0097 -0.2207 -3.1182
  947SOL     OW 2839   2.754   0.084   1.766  0.3472  0.1215 -0.1303
  947SOL    HW1 2840   2.791   0.074   1.862  0.2029 -1.2685 -0.3401
  947SOL    HW2 2841   2.803   0.020   1.709 -0.4762  2.0229 -0.9827
  948SOL     OW 2842   0.186   1.900   1.198  0.1068  0.3410  0.0924
  948SOL    HW1 2843   0.182   1.849   1.109  1.2711 -0.2857  0.5565
  948SOL    HW2 2844   0.137   1.851   1.272  0.5488 -1.9980  0.3046
  949SOL     OW 2845   1.374   1.189   1.695 -0.2898 -0.8666 -0.3072
  949SOL    HW1 2846   1.325   1.170   1.607 -1.5630 -1.5953  3.0435
  949SOL    HW2 2847   1.336   1.279   1.727  0.6500 -1.4480 -1.3574
  950SOL     OW 2848   0.157   1.073   1.082 -0.1725 -0.1839 -0.4463
  950SOL    HW1 2849   0.083   1.060   1.012  0.7341  1.1982 -1.5068
  950SOL    HW2 2850   0.249   1.095   1.034 -0.1842 -2.4486 -1.1776
  951SOL     OW 2851   0.285   1.791   2.068 -0.5205 -0.5917 -0.4269
  951SOL    HW1 2852   0.348   1.835   2.137 -0.3495 -2.0167  1.0595
  951SOL    HW2 2853   0.328   1.793   1.975 -0.6549 -1.9664  1.1351
  952SOL     OW 2854   1.490   1.705   0.286  0.4107  0.4651  0.2690
  952SOL    HW1 2855   1.428   1.761   0.349 -0.3143  2.4982  3.0678
  952SOL    HW2 2856   1.434   1.664   0.209  2.9955 -0.6793  0.7264
  953SOL     OW 2857   0.967   0.609   0.130  0.2622  0.3744 -0.1885
  953SOL    HW1 2858   1.026   0.675   0.173 -0.8526  1.5534  0.2247
  953SOL    HW2 2859   0.882   0.655   0.090 -0.7275  3.2166  1.3984
  954SOL     OW 2860   2.113   1.105   0.739  0.1525  0.5873 -0.8085
  954SOL    HW1 2861   2.179   1.174   0.701 -2.0795  1.9198 -0.4102
  954SOL    HW2 2862   2.123   1.104   0.842 -0.5951  0.4252 -0.9463
  955SOL     OW 2863   2.489   1.586   0.309 -0.2050  0.7523  0.4701
  955SOL    HW1 2864   2.509   1.673   0.259  0.3698 -1.3819 -0.8889
  955SOL    HW2 2865   2.575   1.549   0.348  0.8196 -0.2131 -0.2808
  956SOL     OW 2866   1.055   0.447   1.626  0.0931 -0.9428  0.5185
  956SOL    HW1 2867   1.074   0.546   1.635 -0.9152  0.3969  0.0749
  956SOL    HW2 2868   0.956   0.431   1.608  0.1886  0.3065  1.8502
  957SOL     OW 2869   1.835   1.143   1.101  0.1444 -0.4749  0.4082
  957SOL    HW1 2870   1.777   1.151   1.184  0.2448  2.9078  1.1633
  957SOL    HW2 2871   1.860   1.045   1.072 -0.2590 -1.9240 -1.4073
  958SOL     OW 2872   0.433   1.823   0.773 -0.0434 -0.3315  0.4549
  958SOL    HW1 2873   0.334   1.795   0.747 -1.8068 -2.4911 -1.5524
  958SOL    HW2 2874   0.495   1.789   0.703  0.1172 -0.8984  1.4811
  959SOL     OW 2875   1.966   1.427   1.350 -0.5092  0.9200  0.4338
  959SOL    HW1 2876   1.895   1.442   1.280  1.7386  0.8005 -0.0127
  959SOL    HW2 2877   2.055   1.391   1.310 -1.0025 -1.3715  1.9991
  960SOL     OW 2878   2.984   1.627   2.793 -0.0114  0.5360  0.2408
  960SOL    HW1 2879   3.044   1.650   2.872  2.4047 -1.2153  1.9612
  960SOL    HW2 2880   3.018   1.537   2.753  0.8613  2.9471 -1.3391
  961SOL     OW 2881   1.023   1.375   1.005 -0.1670  0.5098  0.1708
  961SOL    HW1 2882   1.059   1.395   0.910  2.5660  2.1281 -0.6511
  961SOL    HW2 2883   1.093   1.351   1.076  0.0994  0.9823  0.2694
  962SOL     OW 2884   0.987   0.856   0.491  0.4418 -0.0839 -0.0544
  962SOL    HW1 2885   1.003   0.755   0.484  3.1295 -0.0457 -0.4047
  962SOL    HW2 2886   1.054   0.901   0.553 -2.1668  0.5612 -0.2750
  963SOL     OW 2887   1.255   2.051   1.951 -0.5218 -0.3874  0.3811
  963SOL    HW1 2888   1.321   2.100   1.890 -1.2228 -0.9689  1.5264
  963SOL    HW2 2889   1.207   2.115   2.013  1.0135 -1.1435  1.2061
  964SOL     OW 2890   0.026   2.789   2.677 -0.2746 -0.2738 -0.4562
  964SOL    HW1 2891   0.113   2.797   2.733 -1.1484 -1.4089 -0.7981
  964SOL    HW2 2892   3.079   2.708   2.701  0.2774 -1.1718  0.0540
  965SOL     OW 2893   0.764   2.256   0.238  0.4477 -0.3242 -0.6586
  965SOL    HW1 2894   0.798   2.301   0.156 -1.2708 -0.6304  2.2396
  965SOL    HW2 2895   0.807   2.294   0.324 -0.9252  1.9748 -0.4757
  966SOL     OW 2896   3.081   1.719   3.081 -0.3024 -0.1915  0.3841
  966SOL    HW1 2897   2.993   1.746   0.015 -1.3770  0.3411 -0.3161
  966SOL    HW2 2898   3.097   1.619   3.079 -1.9634  0.6402 -0.8693
  967SOL     OW 2899   2.169   2.675   2.858  0.0503  0.3125 -0.4052
  967SOL    HW1 2900   2.254   2.650   2.809  0.3933  1.0206  0.6061
  967SOL    HW2 2901   2.092   2.699   2.792 -0.9144 -1.2922 -3.0535
  968SOL     OW 2902   2.113   2.894   0.631 -0.4069 -0.0973 -0.4339
  968SOL    HW1 2903   2.200   2.918   0.593 -3.6808  0.7751 -3.0976
  968SOL    HW2 2904   2.107   2.796   0.660  2.2910 -1.1561 -0.0554
  969SOL     OW 2905   0.762   1.115   2.246 -0.6322 -0.2217 -0.0501
  969SOL    HW1 2906   0.732   1.167   2.330 -1.7471 -1.8451 -1.2567
  969SOL    HW2 2907   0.678   1.106   2.185 -1.3516  0.6638 -1.6112
  970SOL     OW 2908   1.727   1.388   0.695  0.1494  0.0576  0.1849
  970SOL    HW1 2909   1.774   1.302   0.675  0.2539  2.5498  1.8520
  970SOL    HW2 2910   1.727   1.406   0.793 -0.2396 -0.4144 -2.1835
  971SOL     OW 2911   2.383   2.966   1.467  0.8596  0.6125 -0.7662
  971SOL    HW1 2912   2.416   2.918   1.552  2.3094 -2.3226  2.7172
  971SOL    HW2 2913   2.413   3.063   1.468 -0.0086  0.1035  0.8492
  972SOL     OW 2914   3.032   3.108   1.660  0.4014 -0.1907 -0.1756
  972SOL    HW1 2915   3.094   3.038   1.695  1.5800  5.3207 -0.2460
  972SOL    HW2 2916   3.056   0.087   1.700  0.5999  0.9591  0.8657
  973SOL     OW 2917   0.271   0.192   2.432 -0.3038 -0.2186 -0.0105
  973SOL    HW1 2918   0.314   0.129   2.501  2.8354 -1.2549 -0.0316
  973SOL    HW2 2919   0.299   0.288   2.456  0.2650 -0.6019  0.5173
  974SOL     OW 2920   2.464   0.991   1.987  0.1230  0.1457 -0.1784
  974SOL    HW1 2921   2.424   1.057   2.053 -0.7359 -0.4720  1.9487
  974SOL    HW2 2922   2.527   0.921   2.031  0.4430 -1.5032 -1.4448
  975SOL     OW 2923   0.958   0.647   1.199 -0.6179 -0.0373 -0.2739
  975SOL    HW1 2924   0.895   0.571   1.177 -3.5296 -0.3601 -0.1586
  975SOL    HW2 2925   0.911   0.716   1.257 -0.8318 -1.2439 -1.2360
  976SOL     OW 2926   0.775   1.610   1.909  0.1876 -0.2943 -0.2787
  976SOL    HW1 2927   0.702   1.594   1.983 -1.4886  0.0063  1.5998
  976SOL    HW2 2928   0.802   1.710   1.893  2.0082  1.5188 -0.2624
  977SOL     OW 2929   0.976   0.093   0.225  0.3961 -0.2459  0.2917
  977SOL    HW1 2930   0.943   0.159   0.155  1.3829  0.6203 -2.0554
  977SOL    HW2 2931   0.964   0.126   0.318  0.8465 -3.1325 -1.4460
  978SOL     OW 2932   2.660   0.816   2.078 -0.1448  0.1836  0.4444
  978SOL    HW1 2933   2.598   0.787   2.159 -0.7198 -2.4872 -0.1714
  978SOL    HW2 2934   2.728   0.887   2.114 -0.5904 -0.0661  1.8974
  979SOL     OW 2935   1.552   0.517   1.905  0.0023  0.0729 -0.4083
  979SOL    HW1 2936   1.540   0.429   1.853 -0.3522  2.0266 -1.5436
  979SOL    HW2 2937   1.645   0.558   1.881  1.1913 -1.4054  0.9743
  980SOL     OW 2938   1.637   1.633   1.856 -0.0933  0.6117 -0.0904
  980SOL    HW1 2939   1.573   1.585   1.925 -3.0193 -0.5122  0.1759
  980SOL    HW2 2940   1.594   1.627   1.759 -0.4901 -1.4422 -3.3889
  981SOL     OW 2941   2.567   0.841   1.384 -0.0700  0.3532  1.0121
  981SOL    HW1 2942   2.657   0.839   1.437 -0.1276  0.7737 -0.1250
  981SOL    HW2 2943   2.484   0.867   1.432  0.8097  1.5779 -0.2730
  982SOL     OW 2944   0.532   0.159   2.642  0.3454  0.3438  0.3714
  982SOL    HW1 2945   0.534   0.258   2.643 -0.1238 -3.3044  0.0886
  982SOL    HW2 2946   0.577   0.117   2.726  0.6813  0.6282  0.7421
  983SOL     OW 2947   2.464   0.677   2.745  0.6917 -0.6433 -0.4028
  983SOL    HW1 2948   2.383   0.706   2.802 -1.5111  1.1699  0.9204
  983SOL    HW2 2949   2.492   0.581   2.766 -1.2535 -2.0507  0.1335
  984SOL     OW 2950   1.257   3.043   1.889  0.6162  0.1882  0.0831
  984SOL    HW1 2951   1.339   3.064   1.947  0.2684  0.2781  0.8930
  984SOL    HW2 2952   1.189   2.990   1.943  0.4775  3.5821  1.2681
  985SOL     OW 2953   1.736   1.897   1.962 -0.1417 -0.2744  0.4644
  985SOL    HW1 2954   1.834   1.889   1.960 -3.2339 -0.2323 -0.1781
  985SOL    HW2 2955   1.693   1.805   1.950 -0.9496  0.7990  0.6028
  986SOL     OW 2956   2.286   0.604   1.471  0.0808  0.0387  0.0349
  986SOL    HW1 2957   2.311   0.697   1.512 -1.6417  2.2606  1.3278
  986SOL    HW2 2958   2.366   0.551   1.428  0.4363 -0.2048 -1.3983
  987SOL     OW 2959   2.776   1.096   1.388  0.1540 -0.1594 -0.2509
  987SOL    HW1 2960   2.702   1.124   1.326 -2.2729  0.0917  2.8285
  987SOL    HW2 2961   2.820   1.173   1.436  0.8307  1.6554 -1.5346
  988SOL     OW 2962   2.107   1.670   1.615 -0.6191 -0.1288 -0.1383
  988SOL    HW1 2963   2.060   1.719   1.688  1.1799  1.1072  1.2927
  988SOL    HW2 2964   2.108   1.733   1.538 -1.1430 -2.3866 -1.1948
  989SOL     OW 2965   1.053   2.467   0.174  0.5752  0.8552 -0.2888
  989SOL    HW1 2966   1.078   2.564   0.164 -0.9272 -3.4500  0.2331
  989SOL    HW2 2967   1.088   2.435   0.264  3.3258  1.9353 -1.0541
  990SOL     OW 2968   1.820   0.922   2.865 -0.0231 -0.0891 -0.1733
  990SOL    HW1 2969   1.768   0.839   2.833 -0.1819 -0.1295 -2.4060
  990SOL    HW2 2970   1.779   0.948   2.952 -1.5331  0.5714 -2.4976
  991SOL     OW 2971   0.941   0.126   0.504 -0.3361  0.5972  0.1084
  991SOL    HW1 2972   1.034   0.126   0.556  2.3311  0.1130 -0.8211
  991SOL    HW2 2973   0.885   0.203   0.534  2.0110 -2.1531 -3.7147
  992SOL     OW 2974   2.856   1.331   1.485 -0.3247 -0.3605  0.3254
  992SOL    HW1 2975   2.815   1.392   1.417 -0.5608 -2.1860  1.0672
  992SOL    HW2 2976   2.924   1.381   1.537 -1.6938 -1.3888 -0.0005
  993SOL     OW 2977   2.779   0.828   1.553 -0.5003 -0.2488 -0.1635
  993SOL    HW1 2978   2.813   0.738   1.586  1.1374 -1.2748  0.0376
  993SOL    HW2 2979   2.820   0.857   1.463  0.2410  1.2682  2.1735
  994SOL     OW 2980   0.273   2.313   2.596 -0.0187 -0.2631  0.1696
  994SOL    HW1 2981   0.321   2.310   2.505 -1.2233  1.1742 -2.2152
  994SOL    HW2 2982   0.220   2.396   2.595  2.0565 -2.0512 -0.7848
  995SOL     OW 2983   2.052   1.037   2.913  0.3671  0.3612  0.5759
  995SOL    HW1 2984   2.126   0.994   2.861 -2.8233  2.3659 -2.8869
  995SOL    HW2 2985   1.957   1.002   2.884  0.5769  3.1120 -0.6471
  996SOL     OW 2986   2.787   1.690   0.616  0.2956  0.3091 -0.1380
  996SOL    HW1 2987   2.797   1.775   0.562  2.2450 -1.5538  0.0689
  996SOL    HW2 2988   2.779   1.608   0.552  2.2238 -1.2748 -1.3392
  997SOL     OW 2989   2.259   0.916   2.294  0.3738 -0.2950  0.5127
  997SOL    HW1 2990   2.270   1.010   2.251  0.5088  1.4011  0.3589
  997SOL    HW2 2991   2.163   0.885   2.290 -0.8905 -0.4448  0.4036
  998SOL     OW 2992   2.592   1.128   0.485  0.1403  0.2598 -0.0248
  998SOL    HW1 2993   2.515   1.062   0.472  0.6217 -0.5654 -0.3765
  998SOL    HW2 2994   2.648   1.130   0.403 -2.7740  0.9664 -0.1416
  999SOL     OW 2995   0.023   2.432   0.392 -0.1605  0.7400  0.1993
  999SOL    HW1 2996   0.028   2.339   0.429  2.2200  2.0564 -0.0265
  999SOL    HW2 2997   3.050   2.441   0.338 -1.2468 -0.3487 -0.0314
 1000SOL     OW 2998   1.018   0.805   2.448  0.0103 -0.0501  0.3296
 1000SOL    HW1 2999   1.010   0.757   2.541 -2.3380  1.2318 -1.1815
 1000SOL    HW2 3000   1.045   0.729   2.390 -1.4141 -0.4902  3.9754
   3.11050   3.11050   3.11050
