1000 SPC/Fw water molecules t= 228.00000 step= 228000
 3000
    1SOL     OW    1   3.024   2.859   0.905 -0.1873 -0.4229  0.2121
    1SOL    HW1    2   0.022   2.839   0.846 -2.1709  1.3030  0.5801
    1SOL    HW2    3   3.005   2.960   0.910  2.4352  1.7043 -2.1944
    2SOL     OW    4   1.969   1.766   1.599 -0.0690 -0.1836 -0.2697
    2SOL    HW1    5   2.025   1.685   1.638  0.5361  0.9755  0.8700
    2SOL    HW2    6   1.870   1.743   1.595  1.8379  3.9433 -2.1679
    3SOL     OW    7   1.605   2.281   2.455 -0.1059  0.0193  0.5180
    3SOL    HW1    8   1.546   2.337   2.513 -0.9735 -1.7053 -1.2485
    3SOL    HW2    9   1.703   2.292   2.483 -0.0524 -0.2218  0.0807
    4SOL     OW   10   2.033   1.895   2.280 -0.1812 -0.5366 -0.1476
    4SOL    HW1   11   2.019   1.987   2.324  0.5728  2.2057 -0.9204
    4SOL    HW2   12   2.110   1.849   2.325 -1.2928 -1.6748 -4.0655
    5SOL     OW   13   1.291   1.207   1.518 -0.7252  0.0292 -0.1085
    5SOL    HW1   14   1.276   1.194   1.416  3.7700  2.0241 -0.2578
    5SOL    HW2   15   1.257   1.127   1.570 -1.8686  1.9226 -3.2616
    6SOL     OW   16   2.803   0.225   2.956  0.4377 -0.5313  0.0048
    6SOL    HW1   17   2.902   0.236   2.986  0.3447  0.8871  0.0727
    6SOL    HW2   18   2.780   0.125   2.966 -0.4253 -1.8786 -1.2354
    7SOL     OW   19   0.096   1.600   1.278 -0.2641 -0.0118 -0.0676
    7SOL    HW1   20   0.152   1.564   1.358  5.1994  2.8529  1.9591
    7SOL    HW2   21   0.151   1.666   1.224 -1.3010  2.0592 -0.6794
    8SOL     OW   22   1.109   0.291   0.760  0.3995  0.4295 -0.2246
    8SOL    HW1   23   1.155   0.348   0.829  1.1052 -2.0185 -0.1338
    8SOL    HW2   24   1.016   0.255   0.793 -3.5725 -2.6927  1.6599
    9SOL     OW   25   1.336   0.483   2.441  0.1456 -0.6692  0.6186
    9SOL    HW1   26   1.387   0.548   2.499  2.6789 -0.3922 -0.3271
    9SOL    HW2   27   1.311   0.529   2.352 -2.4029  1.4674 -1.9166
   10SOL     OW   28   0.664   2.250   0.290 -0.2841 -0.2554 -0.8984
   10SOL    HW1   29   0.595   2.215   0.222  2.7772 -2.7766 -0.9762
   10SOL    HW2   30   0.657   2.350   0.316 -0.7064  1.4800 -0.2518
   11SOL     OW   31   0.936   1.001   0.157 -0.0167 -0.5763  0.5462
   11SOL    HW1   32   0.865   1.069   0.135 -1.8640 -1.4559 -0.9458
   11SOL    HW2   33   0.896   0.916   0.190 -1.4906  0.3556 -3.6181
   12SOL     OW   34   0.040   0.355   1.757 -0.4889 -0.0592 -0.2376
   12SOL    HW1   35   3.040   0.416   1.756  1.9378 -3.0391  1.0244
   12SOL    HW2   36   0.130   0.413   1.755  2.4953  1.6478 -1.4966
   13SOL     OW   37   1.358   0.084   0.150 -0.0633 -0.8968  0.1466
   13SOL    HW1   38   1.282   0.056   0.087 -0.3920  1.0477 -2.3674
   13SOL    HW2   39   1.322   0.118   0.242 -0.1716 -1.3139  2.0876
   14SOL     OW   40   1.158   2.491   1.124 -0.3777  0.1590 -0.5242
   14SOL    HW1   41   1.164   2.510   1.225 -1.9221  1.4280  0.2284
   14SOL    HW2   42   1.201   2.399   1.114 -0.5205 -0.0100  3.1623
   15SOL     OW   43   2.537   1.066   1.645 -0.2933  0.0105 -0.2906
   15SOL    HW1   44   2.596   1.008   1.701  3.2310 -1.4148  0.2368
   15SOL    HW2   45   2.511   1.007   1.567 -1.3461 -2.4584 -0.6267
   16SOL     OW   46   1.950   3.000   0.003 -0.6099  0.1460  0.2980
   16SOL    HW1   47   1.884   2.929   3.048 -1.4897 -2.2745  2.9529
   16SOL    HW2   48   2.000   3.037   3.002  1.9170 -0.4911  0.3907
   17SOL     OW   49   0.823   3.014   1.366  0.1357 -0.0830  0.8110
   17SOL    HW1   50   0.897   3.004   1.293 -0.8975 -0.3394 -2.5562
   17SOL    HW2   51   0.853   2.958   1.447  0.1664 -2.4380  1.1390
   18SOL     OW   52   1.594   0.533   3.015  0.1928 -0.8153 -0.2134
   18SOL    HW1   53   1.576   0.440   3.052  0.6687  1.3448 -0.6290
   18SOL    HW2   54   1.561   0.602   0.006 -0.9222  0.8051  0.5423
   19SOL     OW   55   2.030   1.781   0.190 -0.7035  1.0077  0.2293
   19SOL    HW1   56   2.084   1.739   0.266  0.3419 -1.8537  0.2587
   19SOL    HW2   57   1.988   1.866   0.224  1.2449 -3.7143 -1.9749
   20SOL     OW   58   2.081   1.527   1.655  0.6447 -0.2280  0.2871
   20SOL    HW1   59   2.154   1.465   1.692  0.3066  0.9759 -2.3052
   20SOL    HW2   60   1.989   1.498   1.685  0.8348  1.9233  0.6426
   21SOL     OW   61   0.761   1.139   2.864  0.3178 -0.0525 -0.9551
   21SOL    HW1   62   0.816   1.154   2.781 -0.5821 -1.7327  0.9566
   21SOL    HW2   63   0.812   1.165   2.949  0.5171 -1.6911  0.2134
   22SOL     OW   64   2.112   2.988   1.381 -0.2964  0.2254  0.0149
   22SOL    HW1   65   2.047   2.917   1.351  1.6858 -0.4007  0.6637
   22SOL    HW2   66   2.120   3.063   1.312 -2.7842 -0.6329  2.2194
   23SOL     OW   67   2.908   0.515   1.733  0.2124  0.4521 -0.0456
   23SOL    HW1   68   2.976   0.581   1.701  0.0803  1.5923  3.4840
   23SOL    HW2   69   2.848   0.563   1.799 -0.3481  1.9550 -0.9966
   24SOL     OW   70   2.305   2.528   1.006 -0.0504  0.7121 -0.0524
   24SOL    HW1   71   2.315   2.604   1.073  0.2646 -2.1782  0.3107
   24SOL    HW2   72   2.225   2.472   1.029  1.5950  2.0991 -1.4421
   25SOL     OW   73   1.592   2.693   2.489  0.4838  0.1912 -0.0726
   25SOL    HW1   74   1.685   2.663   2.476 -3.0882  1.3977  1.1776
   25SOL    HW2   75   1.532   2.637   2.427  0.6849 -1.8138  0.0156
   26SOL     OW   76   1.781   2.832   2.999 -0.4210 -0.0684 -0.1526
   26SOL    HW1   77   1.789   2.837   2.897 -0.9130  1.0466  0.1176
   26SOL    HW2   78   1.721   2.759   3.025  2.0967  1.1865 -2.1607
   27SOL     OW   79   0.245   1.613   2.717 -0.3770 -0.7170  0.0483
   27SOL    HW1   80   0.203   1.703   2.745 -1.2754  0.4646 -0.8630
   27SOL    HW2   81   0.347   1.612   2.698  2.5702  1.1146 -0.8987
   28SOL     OW   82   2.824   1.141   1.436 -0.2569 -0.0739 -0.8013
   28SOL    HW1   83   2.897   1.202   1.400  1.9458 -1.0362 -2.1321
   28SOL    HW2   84   2.815   1.156   1.535 -0.5722  0.0559  1.4906
   29SOL     OW   85   2.710   2.431   1.991 -0.2545 -0.1817  0.3287
   29SOL    HW1   86   2.798   2.378   2.015  4.4424 -2.3946 -3.6551
   29SOL    HW2   87   2.725   2.498   1.915  3.0662 -0.4524 -1.6010
   30SOL     OW   88   1.723   0.219   2.918 -0.5471 -0.2480  0.0084
   30SOL    HW1   89   1.634   0.255   2.892  1.9019 -0.8725  1.2364
   30SOL    HW2   90   1.780   0.294   2.969  0.9250  1.9219  1.3510
   31SOL     OW   91   2.783   2.579   1.789 -0.2308  0.2322 -0.0076
   31SOL    HW1   92   2.805   2.649   1.858  1.1168 -0.0155 -0.5496
   31SOL    HW2   93   2.738   2.615   1.708  1.6935 -1.6174 -0.4432
   32SOL     OW   94   1.048   1.466   1.507  0.1126  0.7630  0.5681
   32SOL    HW1   95   0.981   1.541   1.499  1.5875 -1.8434  2.1240
   32SOL    HW2   96   1.040   1.399   1.430 -2.7473  0.5793 -2.6206
   33SOL     OW   97   0.458   2.802   2.362  0.6947 -0.5551  0.3457
   33SOL    HW1   98   0.412   2.809   2.274 -3.7820  1.4782 -0.0453
   33SOL    HW2   99   0.414   2.739   2.427  1.8740  0.9360  3.3907
   34SOL     OW  100   1.844   0.041   0.694 -0.0117  0.2189 -0.5869
   34SOL    HW1  101   1.825   0.047   0.593  0.3440  2.1585 -0.7064
   34SOL    HW2  102   1.943   0.062   0.721  0.1368  0.6680  0.0087
   35SOL     OW  103   2.095   0.028   0.775  0.7647 -0.4672  1.0189
   35SOL    HW1  104   2.121   0.047   0.678 -0.7996 -3.5329  0.4786
   35SOL    HW2  105   2.156   0.078   0.834 -1.9443 -2.7083 -2.1546
   36SOL     OW  106   1.796   2.667   2.117  0.3758 -0.1092  0.5370
   36SOL    HW1  107   1.884   2.632   2.073  1.1599  0.2880  1.7312
   36SOL    HW2  108   1.711   2.622   2.087 -0.4727 -0.6955  1.8072
   37SOL     OW  109   0.861   2.800   2.271  0.2318  0.2791 -0.2600
   37SOL    HW1  110   0.799   2.810   2.191  1.3879 -1.7788 -1.6568
   37SOL    HW2  111   0.864   2.707   2.306  0.4828 -0.5043 -2.8113
   38SOL     OW  112   0.069   2.844   2.488  0.5457  0.4572  0.2680
   38SOL    HW1  113   0.098   2.802   2.579 -0.0281  0.7240  1.1617
   38SOL    HW2  114   0.072   2.945   2.498 -0.8897 -1.5937  2.2012
   39SOL     OW  115   2.258   1.224   2.075 -0.0496 -0.2398 -0.0242
   39SOL    HW1  116   2.327   1.232   2.152  2.0031 -1.2432  0.3965
   39SOL    HW2  117   2.307   1.198   1.989  0.8695  0.3767  0.8880
   40SOL     OW  118   0.245   2.922   2.725 -0.0153  0.2204 -0.2602
   40SOL    HW1  119   0.300   2.973   2.656  1.3918 -0.4696 -3.4320
   40SOL    HW2  120   0.304   2.868   2.787  0.4584 -2.6249  0.0661
   41SOL     OW  121   1.680   0.685   0.939 -0.0321  0.6461 -0.3068
   41SOL    HW1  122   1.746   0.765   0.913  5.7217  0.6447 -1.5826
   41SOL    HW2  123   1.582   0.712   0.946 -1.0509  0.6720  2.9663
   42SOL     OW  124   0.497   0.529   1.278  0.1257  0.6560 -0.2157
   42SOL    HW1  125   0.594   0.502   1.253  1.1789  1.1528 -0.2633
   42SOL    HW2  126   0.454   0.581   1.199 -0.4478 -2.6054  1.0253
   43SOL     OW  127   2.515   1.598   2.782  0.2994  0.7462  0.0575
   43SOL    HW1  128   2.604   1.573   2.825 -2.0074 -0.7290  3.7088
   43SOL    HW2  129   2.515   1.697   2.753  1.1177  1.7192 -1.5190
   44SOL     OW  130   0.069   2.671   0.619 -0.3962 -0.0225 -0.2452
   44SOL    HW1  131   0.131   2.740   0.654 -1.8212 -0.2833  0.7385
   44SOL    HW2  132   0.012   2.627   0.691 -0.9405 -0.7018 -1.9839
   45SOL     OW  133   0.270   2.645   1.621 -0.1216 -0.5406  0.0663
   45SOL    HW1  134   0.203   2.577   1.580  1.2328  0.9895 -0.4035
   45SOL    HW2  135   0.226   2.737   1.650 -0.6503  0.9751 -2.1285
   46SOL     OW  136   2.341   2.224   2.110 -0.4640  0.1469  0.1597
   46SOL    HW1  137   2.391   2.187   2.190 -3.1065  1.3081  0.3727
   46SOL    HW2  138   2.375   2.319   2.088 -1.7838 -0.5555 -2.1436
   47SOL     OW  139   2.194   1.960   1.255 -0.4010  0.0518  0.1092
   47SOL    HW1  140   2.207   2.058   1.268 -0.4246 -1.0212  0.7939
   47SOL    HW2  141   2.096   1.937   1.270  0.3847 -1.3778 -0.4974
   48SOL     OW  142   0.488   1.815   3.061  0.2371  0.0627  0.3135
   48SOL    HW1  143   0.582   1.789   0.009 -0.5609  0.7824  0.3545
   48SOL    HW2  144   0.424   1.735   3.068 -1.0162 -1.4586 -0.8271
   49SOL     OW  145   2.825   0.218   2.526 -0.0698  0.0757  0.1291
   49SOL    HW1  146   2.741   0.169   2.493 -0.5310 -2.4328  0.2067
   49SOL    HW2  147   2.832   0.319   2.498  0.8105  0.1924  1.0000
   50SOL     OW  148   2.371   0.802   0.246  0.3455  0.3407  0.7089
   50SOL    HW1  149   2.332   0.890   0.273  4.5150  0.6755 -0.1075
   50SOL    HW2  150   2.308   0.755   0.182 -0.0497 -1.8356 -0.5138
   51SOL     OW  151   2.066   0.618   1.195 -0.0096  0.2088 -0.3631
   51SOL    HW1  152   2.089   0.681   1.115 -1.2632  2.2672 -4.2950
   51SOL    HW2  153   1.989   0.559   1.171 -0.8575 -1.6693 -0.5256
   52SOL     OW  154   1.163   1.254   2.836 -0.4667  0.8126  0.2830
   52SOL    HW1  155   1.209   1.333   2.788 -1.5783  1.5666 -0.5125
   52SOL    HW2  156   1.222   1.226   2.916  2.2602  0.2568  0.8351
   53SOL     OW  157   0.845   1.754   1.749 -0.0279  0.3689  0.0644
   53SOL    HW1  158   0.754   1.725   1.782  1.2115  1.6144 -0.2641
   53SOL    HW2  159   0.852   1.746   1.647  1.8239 -1.9276  2.4382
   54SOL     OW  160   1.969   0.247   0.988 -0.1303 -0.1721 -0.2518
   54SOL    HW1  161   2.044   0.192   1.017 -2.5180  1.6724 -0.0252
   54SOL    HW2  162   1.999   0.307   0.908  0.5193  1.8783  1.5463
   55SOL     OW  163   2.656   2.221   1.307  0.0782 -0.1364  0.0139
   55SOL    HW1  164   2.716   2.276   1.242  4.4130  2.6053 -0.1656
   55SOL    HW2  165   2.655   2.121   1.286  0.0923 -0.4651  0.6712
   56SOL     OW  166   0.872   2.908   1.617  0.5820 -0.1101  0.0486
   56SOL    HW1  167   0.947   2.852   1.582  1.5419  0.8564  1.4986
   56SOL    HW2  168   0.897   2.949   1.708 -0.9622  3.1733 -0.6803
   57SOL     OW  169   1.751   1.427   0.315  0.3027 -0.2064 -0.0612
   57SOL    HW1  170   1.844   1.430   0.358 -0.4197 -0.4177 -0.0019
   57SOL    HW2  171   1.714   1.519   0.293  0.4235  0.4413 -1.7255
   58SOL     OW  172   2.904   0.453   2.330  0.1229 -0.0479 -0.5111
   58SOL    HW1  173   2.905   0.466   2.228  0.0245 -0.7198  3.1767
   58SOL    HW2  174   2.889   0.538   2.382 -1.0907  2.5237  0.2553
   59SOL     OW  175   0.906   2.513   2.360  0.0914 -0.6936 -0.0805
   59SOL    HW1  176   0.938   2.532   2.453 -0.6358  2.4891  1.9891
   59SOL    HW2  177   0.824   2.454   2.355 -0.9579  4.0609  2.1300
   60SOL     OW  178   2.689   2.515   0.772 -0.2410 -0.5266  0.0848
   60SOL    HW1  179   2.626   2.502   0.850 -0.6785  1.4017 -3.2225
   60SOL    HW2  180   2.636   2.533   0.686  1.2358 -2.7139  0.4206
   61SOL     OW  181   1.397   2.273   0.761  0.1202  0.0278 -0.3523
   61SOL    HW1  182   1.362   2.371   0.750  2.4850 -1.3051 -1.4315
   61SOL    HW2  183   1.359   2.214   0.687  0.0536  0.2469 -0.9513
   62SOL     OW  184   2.439   2.007   2.556  0.2719 -0.0161  0.1488
   62SOL    HW1  185   2.491   1.945   2.619  1.7652  0.8153  0.5242
   62SOL    HW2  186   2.349   1.961   2.529 -0.6534 -0.2440 -2.5844
   63SOL     OW  187   2.352   0.097   2.872 -0.1806  0.5614  0.6398
   63SOL    HW1  188   2.350   0.107   2.772 -0.2283  1.5432 -0.1289
   63SOL    HW2  189   2.425   0.151   2.911 -4.0469  0.1647 -0.7803
   64SOL     OW  190   1.318   0.817   2.716  0.0102  0.6682  0.2086
   64SOL    HW1  191   1.338   0.808   2.816  0.1404  3.2159  0.8375
   64SOL    HW2  192   1.379   0.754   2.665 -1.0690  0.6075  1.3133
   65SOL     OW  193   1.640   2.564   0.283 -0.3933  0.0157  0.6930
   65SOL    HW1  194   1.600   2.617   0.203  1.1750  0.4567 -0.7328
   65SOL    HW2  195   1.641   2.459   0.270 -0.3278 -0.9179  1.5789
   66SOL     OW  196   0.044   1.404   1.711  0.1422  0.2574 -0.3727
   66SOL    HW1  197   0.014   1.502   1.741 -2.2198  4.1808 -3.0535
   66SOL    HW2  198   0.092   1.406   1.619  1.3043  0.2438  0.1128
   67SOL     OW  199   2.636   0.024   2.773 -0.6762  0.0979 -0.5059
   67SOL    HW1  200   2.725   3.059   2.786  1.2749 -1.6041 -1.1164
   67SOL    HW2  201   2.622   0.043   2.676  1.1992  0.3529  2.2413
   68SOL     OW  202   0.685   2.435   1.324  0.0301 -0.0114 -0.6592
   68SOL    HW1  203   0.731   2.350   1.349  0.2621  1.8632  0.7387
   68SOL    HW2  204   0.748   2.515   1.329  0.0332  0.3485 -3.8568
   69SOL     OW  205   0.602   2.493   0.404 -0.1896  0.5382 -0.0184
   69SOL    HW1  206   0.681   2.529   0.456  2.8667  0.5190 -0.4391
   69SOL    HW2  207   0.528   2.467   0.474 -1.5584 -0.4365  0.9228
   70SOL     OW  208   2.976   1.061   2.842 -0.0648  0.2450 -0.4162
   70SOL    HW1  209   2.896   1.042   2.897  3.0633 -2.3105 -1.4633
   70SOL    HW2  210   2.973   1.013   2.749 -0.8917  0.1402  1.2956
   71SOL     OW  211   0.439   1.157   2.553 -0.2670  0.1004 -0.0529
   71SOL    HW1  212   0.413   1.231   2.488  2.0980 -1.0371 -1.7602
   71SOL    HW2  213   0.445   1.191   2.647 -0.1908  0.6712 -1.4694
   72SOL     OW  214   0.194   2.265   0.285  0.2716  0.0203 -0.1750
   72SOL    HW1  215   0.287   2.229   0.256  2.5860 -1.3543  0.7794
   72SOL    HW2  216   0.211   2.341   0.353  1.0538 -1.7786  0.8344
   73SOL     OW  217   0.751   1.245   0.208  0.4621  0.0986  0.3504
   73SOL    HW1  218   0.739   1.313   0.136 -1.4857  2.3374  0.6480
   73SOL    HW2  219   0.840   1.253   0.258  1.9695  1.9851  1.4498
   74SOL     OW  220   3.017   3.052   0.165  0.4317  0.2206  0.3079
   74SOL    HW1  221   2.935   3.035   0.107 -2.3332 -0.8995 -1.5920
   74SOL    HW2  222   3.067   0.053   0.124 -1.3790  0.2522  1.0124
   75SOL     OW  223   2.297   1.610   2.246  0.9883  0.2672  0.4638
   75SOL    HW1  224   2.389   1.603   2.205 -1.9265  0.4452 -1.9723
   75SOL    HW2  225   2.228   1.571   2.176 -1.4320 -1.7962 -2.9524
   76SOL     OW  226   2.094   2.574   1.466 -0.3234  0.2251 -0.6154
   76SOL    HW1  227   2.154   2.607   1.542  0.6703 -0.0466 -0.3578
   76SOL    HW2  228   2.142   2.588   1.375  0.1638 -0.6506  1.3719
   77SOL     OW  229   2.502   0.461   1.478  0.4768  0.0440  0.0231
   77SOL    HW1  230   2.481   0.553   1.517  2.9859 -2.4726  0.5528
   77SOL    HW2  231   2.600   0.442   1.501  0.9409  2.1603 -1.3006
   78SOL     OW  232   2.042   1.217   0.042  0.3910 -0.4751 -0.0111
   78SOL    HW1  233   1.970   1.240   3.049 -2.4667  0.8234 -1.3601
   78SOL    HW2  234   2.064   1.305   0.090  0.4702  5.0499  1.5329
   79SOL     OW  235   0.682   1.659   2.119 -0.1288  0.4289  0.1457
   79SOL    HW1  236   0.627   1.668   2.030 -2.2423  0.4046 -1.0941
   79SOL    HW2  237   0.751   1.586   2.112 -1.6176 -1.3135 -0.6413
   80SOL     OW  238   1.515   1.007   1.087  0.1298  0.3197 -0.1572
   80SOL    HW1  239   1.496   1.054   1.000 -0.0615  4.3224 -1.6378
   80SOL    HW2  240   1.615   1.010   1.100 -1.4148 -2.0354  1.7851
   81SOL     OW  241   0.761   0.507   1.456  0.1494 -0.2592 -0.0662
   81SOL    HW1  242   0.705   0.436   1.496  1.8012  2.9219  1.1977
   81SOL    HW2  243   0.759   0.508   1.350  1.0282  1.3369 -2.5102
   82SOL     OW  244   1.306   2.342   1.777 -0.3512  0.0107  0.0374
   82SOL    HW1  245   1.345   2.268   1.833 -2.3349  2.0770  2.2188
   82SOL    HW2  246   1.259   2.302   1.694 -1.0471  0.0660 -1.5328
   83SOL     OW  247   0.419   3.068   1.033  0.5245 -0.3168  0.3359
   83SOL    HW1  248   0.441   0.069   1.086  0.8628 -1.3492 -3.3672
   83SOL    HW2  249   0.426   0.015   0.931 -0.8927  0.5674 -1.5032
   84SOL     OW  250   0.000   0.807   2.959  0.1134  0.4597 -0.6171
   84SOL    HW1  251   0.048   0.878   2.903 -1.9078 -1.8190 -1.8161
   84SOL    HW2  252   2.992   0.779   2.918 -1.9796  2.8702  1.0603
   85SOL     OW  253   3.039   2.591   1.648 -0.5523  0.2587 -0.4477
   85SOL    HW1  254   3.029   2.619   1.552  0.1266 -0.4429  1.6061
   85SOL    HW2  255   2.953   2.591   1.704  0.7468 -0.8279 -0.1697
   86SOL     OW  256   0.044   2.757   1.848 -0.0517  0.0552  0.3403
   86SOL    HW1  257   0.033   2.683   1.777  1.8987 -0.0898 -1.7034
   86SOL    HW2  258   0.075   2.845   1.808 -0.1514 -1.6244 -0.5105
   87SOL     OW  259   2.955   2.629   2.764 -0.3396 -0.0394  0.2223
   87SOL    HW1  260   2.915   2.686   2.688 -0.3327  0.1154  0.0900
   87SOL    HW2  261   2.885   2.575   2.814 -1.1178  0.7871 -1.0236
   88SOL     OW  262   0.243   1.957   1.287  0.0304 -0.3625  0.7516
   88SOL    HW1  263   0.322   2.024   1.291 -0.6290 -2.6801  4.4281
   88SOL    HW2  264   0.222   1.915   1.199 -3.1135 -0.0449  3.1201
   89SOL     OW  265   1.229   0.813   1.833  0.5286  0.4796 -0.1135
   89SOL    HW1  266   1.130   0.812   1.821  4.1103 -0.2990 -0.3178
   89SOL    HW2  267   1.263   0.718   1.842 -0.4431  2.2320 -0.5321
   90SOL     OW  268   2.788   1.404   1.890 -0.2686 -0.0268  0.3645
   90SOL    HW1  269   2.867   1.387   1.959  2.9316 -0.2147 -1.5949
   90SOL    HW2  270   2.765   1.501   1.883  0.3048 -1.6037  3.7384
   91SOL     OW  271   1.244   2.098   0.573  0.4868  0.5334  0.0265
   91SOL    HW1  272   1.277   2.154   0.494 -1.1740  0.8959  1.1094
   91SOL    HW2  273   1.230   2.000   0.562 -0.5661  1.7066 -0.2524
   92SOL     OW  274   2.372   0.366   1.072  0.2146  0.4123 -0.2707
   92SOL    HW1  275   2.466   0.409   1.078  1.9507 -0.0245  2.6230
   92SOL    HW2  276   2.322   0.375   1.158 -1.9833  2.5674 -0.3454
   93SOL     OW  277   2.467   1.571   0.108  0.7676 -0.7570  0.8214
   93SOL    HW1  278   2.489   1.498   0.038  1.3925 -4.1384 -0.3022
   93SOL    HW2  279   2.390   1.632   0.080 -0.2081 -2.6987 -0.7445
   94SOL     OW  280   2.520   2.134   2.318 -0.1394 -0.4343 -0.7619
   94SOL    HW1  281   2.484   2.094   2.407 -1.5632 -4.3965  0.6052
   94SOL    HW2  282   2.600   2.192   2.345  0.7300 -1.1075 -1.6264
   95SOL     OW  283   1.835   0.497   1.137  0.2633 -0.1080  0.1195
   95SOL    HW1  284   1.793   0.558   1.066 -2.0160  2.5982  2.7209
   95SOL    HW2  285   1.856   0.407   1.095 -1.0607  0.1758  1.6479
   96SOL     OW  286   2.773   0.083   1.772 -0.1046  0.2034 -0.2667
   96SOL    HW1  287   2.737   0.011   1.835  0.5515  3.3990  0.6338
   96SOL    HW2  288   2.747   0.068   1.673 -1.4836 -1.1060  1.2365
   97SOL     OW  289   2.221   0.136   1.222 -0.4540 -0.1193 -0.5664
   97SOL    HW1  290   2.237   0.148   1.119 -1.5604  1.2997 -1.1382
   97SOL    HW2  291   2.246   0.218   1.275 -0.1919  0.5601 -1.8991
   98SOL     OW  292   1.423   2.419   1.437 -0.7188  0.5051  0.7369
   98SOL    HW1  293   1.474   2.498   1.395 -0.4424  1.0983 -3.1155
   98SOL    HW2  294   1.479   2.332   1.445 -1.4965 -0.9614  1.4903
   99SOL     OW  295   2.879   2.772   1.962 -0.1913 -0.3918  0.2652
   99SOL    HW1  296   2.973   2.770   1.920 -2.9941  1.8112 -0.1154
   99SOL    HW2  297   2.885   2.762   2.067 -0.2335  1.8409 -0.1724
  100SOL     OW  298   0.142   0.683   2.607 -0.6758 -0.0327 -0.4393
  100SOL    HW1  299   0.160   0.759   2.669 -1.9185 -0.8543  0.8327
  100SOL    HW2  300   0.229   0.622   2.599  3.2729 -3.5814  0.0303
  101SOL     OW  301   1.765   0.879   0.163  0.5903  0.5838  0.0724
  101SOL    HW1  302   1.771   0.826   0.249  0.6942 -0.3247 -0.9412
  101SOL    HW2  303   1.811   0.970   0.184 -0.4904 -0.9882  0.1946
  102SOL     OW  304   0.137   0.559   1.470  0.2118  0.1479 -0.1845
  102SOL    HW1  305   0.100   0.608   1.549 -1.6259  0.5332 -2.1826
  102SOL    HW2  306   0.218   0.505   1.501 -2.2180 -0.7628 -2.4268
  103SOL     OW  307   2.888   0.870   2.029 -0.2049  0.0076  0.9192
  103SOL    HW1  308   2.950   0.808   1.980 -0.9324  0.1123 -0.2904
  103SOL    HW2  309   2.822   0.810   2.078 -1.7048  0.6650 -0.0862
  104SOL     OW  310   0.336   0.297   2.775 -0.5750 -0.1615  0.3743
  104SOL    HW1  311   0.318   0.287   2.672 -0.7339 -2.7304 -2.1415
  104SOL    HW2  312   0.436   0.299   2.800 -2.1014  0.7437 -0.6705
  105SOL     OW  313   2.250   1.644   1.885 -0.8583 -0.2388  0.1602
  105SOL    HW1  314   2.222   1.703   1.960 -2.0707  0.1551  1.2830
  105SOL    HW2  315   2.223   1.546   1.897  2.9215 -3.3046 -0.1701
  106SOL     OW  316   1.634   0.366   0.368 -0.3576 -0.2531 -0.2802
  106SOL    HW1  317   1.724   0.337   0.331 -0.1841  1.6156 -0.2275
  106SOL    HW2  318   1.633   0.360   0.467 -0.7893  0.6357  1.1368
  107SOL     OW  319   0.047   1.838   1.511  0.3889  0.6659 -0.0964
  107SOL    HW1  320   0.019   1.932   1.480 -0.4782 -0.4944 -2.4221
  107SOL    HW2  321   0.127   1.804   1.464 -0.9744 -0.8330  0.9447
  108SOL     OW  322   2.940   2.727   2.229  0.0661  0.0781 -0.0860
  108SOL    HW1  323   3.034   2.684   2.246 -2.6541 -1.1489  0.5447
  108SOL    HW2  324   2.925   2.822   2.267  0.9428  0.2277  0.7096
  109SOL     OW  325   1.902   0.405   3.008  0.0815 -0.1053 -0.0697
  109SOL    HW1  326   1.888   0.497   3.047  1.8798 -2.8361 -1.2608
  109SOL    HW2  327   1.995   0.364   3.036  2.0875 -0.0972  1.5469
  110SOL     OW  328   0.372   2.277   2.410  0.0497 -0.4945 -0.1297
  110SOL    HW1  329   0.408   2.214   2.339 -0.4726  2.5239  3.4010
  110SOL    HW2  330   0.442   2.306   2.478 -1.6509 -1.1459  1.5704
  111SOL     OW  331   1.559   2.545   2.024  0.3053  0.2893 -0.3050
  111SOL    HW1  332   1.590   2.450   2.001  0.4501 -1.8195 -0.0432
  111SOL    HW2  333   1.483   2.563   1.962 -0.3372 -1.8326  2.7723
  112SOL     OW  334   1.833   2.609   2.395 -0.6874 -0.4015 -0.3177
  112SOL    HW1  335   1.904   2.672   2.435  3.8286  0.4649  1.1873
  112SOL    HW2  336   1.847   2.610   2.288  2.6371 -1.1844 -4.4760
  113SOL     OW  337   1.840   2.590   1.750  0.0310 -0.7775 -0.0715
  113SOL    HW1  338   1.814   2.673   1.804  3.0371  3.6609 -0.0502
  113SOL    HW2  339   1.940   2.577   1.742 -3.6993 -1.0725  0.2635
  114SOL     OW  340   2.845   0.698   0.512  0.0891  0.1649  0.3980
  114SOL    HW1  341   2.793   0.732   0.431 -0.0521 -0.8935  1.7876
  114SOL    HW2  342   2.774   0.668   0.586 -0.8541  1.3568  0.1672
  115SOL     OW  343   0.183   0.931   2.761  0.3207  0.2617 -0.3796
  115SOL    HW1  344   0.205   1.010   2.701 -2.3244  2.9712  1.1015
  115SOL    HW2  345   0.270   0.897   2.809  1.0128 -1.4995  0.0090
  116SOL     OW  346   0.289   1.232   2.111  0.1701 -0.6300 -0.1442
  116SOL    HW1  347   0.327   1.152   2.062 -2.2396  2.2389 -0.0508
  116SOL    HW2  348   0.271   1.306   2.043 -0.4573 -1.5123 -0.7510
  117SOL     OW  349   2.609   0.045   0.287 -0.2072  0.1199  0.1359
  117SOL    HW1  350   2.607   3.023   0.307  1.4368 -0.9184  1.2999
  117SOL    HW2  351   2.561   0.104   0.358  0.4748 -0.5295  0.0437
  118SOL     OW  352   1.186   1.859   1.565  0.0068  0.7717  0.1378
  118SOL    HW1  353   1.260   1.790   1.549 -1.7126  1.4231  1.5959
  118SOL    HW2  354   1.143   1.844   1.659  1.4506 -0.6078 -2.8805
  119SOL     OW  355   1.168   2.353   3.054  0.1603  0.1119  0.0915
  119SOL    HW1  356   1.226   2.428   0.012  1.9545  0.8284 -0.4512
  119SOL    HW2  357   1.227   2.291   2.999  0.6555 -2.4952  4.7559
  120SOL     OW  358   0.381   0.827   2.898 -0.3918  0.0154  0.0974
  120SOL    HW1  359   0.368   0.728   2.926 -1.0552 -2.1352  2.8398
  120SOL    HW2  360   0.481   0.850   2.904 -0.4261  1.7281  1.6942
  121SOL     OW  361   2.068   2.644   1.161 -0.2173 -0.0086  0.0446
  121SOL    HW1  362   2.045   2.557   1.111  0.4225  1.6777 -0.2444
  121SOL    HW2  363   1.985   2.691   1.202 -1.2704  2.3359 -3.1078
  122SOL     OW  364   2.393   2.009   1.952  0.2976 -0.0711  0.3059
  122SOL    HW1  365   2.363   2.096   2.004 -0.2741  5.8097  2.7233
  122SOL    HW2  366   2.378   2.022   1.850  0.1117  0.9573 -0.0757
  123SOL     OW  367   0.179   2.943   0.513  0.3993  0.0211 -0.0693
  123SOL    HW1  368   0.244   3.020   0.497  1.6461 -0.6356 -1.3119
  123SOL    HW2  369   0.088   2.965   0.477  2.2122  2.8642  0.3148
  124SOL     OW  370   2.084   0.902   2.401  0.1061  0.1166  0.0179
  124SOL    HW1  371   2.001   0.879   2.459 -0.2769 -1.0858  0.2316
  124SOL    HW2  372   2.063   0.899   2.304 -0.1248  2.9597  0.7094
  125SOL     OW  373   0.461   1.204   0.605  0.4473 -0.2554  0.2397
  125SOL    HW1  374   0.487   1.157   0.515 -1.1819 -2.0513 -0.8963
  125SOL    HW2  375   0.400   1.286   0.592  1.2545  0.1735  1.8908
  126SOL     OW  376   2.574   1.685   1.095  0.3616 -0.1660 -0.3010
  126SOL    HW1  377   2.531   1.719   1.182 -2.0542 -1.8521  0.2851
  126SOL    HW2  378   2.654   1.736   1.058  1.3274  4.5816  0.4130
  127SOL     OW  379   0.005   2.263   1.742 -0.9341 -0.2070  0.1798
  127SOL    HW1  380   3.023   2.305   1.673 -0.5721  0.2161 -0.1845
  127SOL    HW2  381   3.046   2.270   1.839  0.6327  1.0254  1.9661
  128SOL     OW  382   0.804   0.563   2.733 -0.5818  0.6308 -0.0345
  128SOL    HW1  383   0.745   0.616   2.794  0.6700  0.6629  0.0025
  128SOL    HW2  384   0.884   0.624   2.711  0.7962  0.8630  0.8512
  129SOL     OW  385   2.617   1.066   0.971 -0.3071  0.3187  0.0035
  129SOL    HW1  386   2.710   1.109   0.961  1.0167  0.6025  0.1645
  129SOL    HW2  387   2.587   1.065   1.067 -0.5156  1.1039 -1.5634
  130SOL     OW  388   2.373   1.264   1.530 -0.2087  0.5224 -0.3527
  130SOL    HW1  389   2.421   1.186   1.573 -0.5912  0.5193 -0.8179
  130SOL    HW2  390   2.433   1.332   1.486 -0.8874 -0.0222  1.1683
  131SOL     OW  391   2.641   0.382   0.016  0.8835 -0.2444  0.3822
  131SOL    HW1  392   2.691   0.467   0.041 -0.3761 -0.6026 -0.7481
  131SOL    HW2  393   2.699   0.322   3.038  2.6572  1.1792  4.4263
  132SOL     OW  394   2.777   2.052   1.834 -0.5654 -0.1817  0.1199
  132SOL    HW1  395   2.730   2.045   1.927 -2.9528 -1.2969  2.9566
  132SOL    HW2  396   2.882   2.047   1.838 -0.9488 -0.9928  0.4518
  133SOL     OW  397   0.860   0.992   1.078  0.0936 -0.2570 -1.0027
  133SOL    HW1  398   0.861   0.929   0.998  0.0327 -0.8400 -0.2509
  133SOL    HW2  399   0.793   1.070   1.076  2.1483 -0.6919  1.0726
  134SOL     OW  400   0.115   1.191   0.207  0.5623 -0.1557  0.1998
  134SOL    HW1  401   0.019   1.169   0.241 -1.8413 -1.4432 -1.3397
  134SOL    HW2  402   0.117   1.180   0.105  2.3565 -0.9298 -0.5549
  135SOL     OW  403   2.172   1.135   1.399 -0.1064  0.2069  0.5047
  135SOL    HW1  404   2.238   1.204   1.438 -0.5503 -0.0279  0.4148
  135SOL    HW2  405   2.087   1.126   1.453 -1.7415  2.0737 -1.1422
  136SOL     OW  406   2.677   0.625   0.719  0.4984 -0.1349  0.4035
  136SOL    HW1  407   2.577   0.623   0.721 -1.0960 -0.3904 -1.5249
  136SOL    HW2  408   2.706   0.656   0.811 -0.4031  1.9934  2.3056
  137SOL     OW  409   2.547   1.409   1.367 -0.3227 -0.0132 -0.1250
  137SOL    HW1  410   2.625   1.443   1.428 -2.3902 -0.2888 -0.8070
  137SOL    HW2  411   2.588   1.383   1.280 -0.2736  0.0262  1.7760
  138SOL     OW  412   1.614   0.685   1.378 -0.2644 -0.8915  0.2711
  138SOL    HW1  413   1.621   0.731   1.468  2.5772  0.7830 -0.8804
  138SOL    HW2  414   1.651   0.591   1.389  0.0626  0.8730 -0.8461
  139SOL     OW  415   2.052   0.109   0.171  0.1629  0.2775  0.8820
  139SOL    HW1  416   2.001   0.062   0.096  1.4032 -0.3929 -0.0895
  139SOL    HW2  417   2.136   0.056   0.191 -1.3926 -0.8545  0.8901
  140SOL     OW  418   1.418   1.900   1.884 -0.5259  0.1121 -0.3974
  140SOL    HW1  419   1.493   1.868   1.948 -1.2470  1.4318 -2.2977
  140SOL    HW2  420   1.365   1.823   1.853  1.7826  1.6789  1.6738
  141SOL     OW  421   1.902   1.844   0.929 -0.0235  0.3767 -0.1267
  141SOL    HW1  422   1.996   1.861   0.957 -3.3058 -3.3677 -2.3631
  141SOL    HW2  423   1.865   1.762   0.983  1.3631 -1.3888 -0.5863
  142SOL     OW  424   3.036   0.874   0.134 -0.2375  0.0670  0.5257
  142SOL    HW1  425   3.056   0.843   0.035  1.7291  1.0133 -2.9597
  142SOL    HW2  426   3.064   0.808   0.203 -2.6675  0.3370 -1.0804
  143SOL     OW  427   0.507   2.068   2.739  0.1354  0.0258 -0.3399
  143SOL    HW1  428   0.432   2.033   2.677  2.3485  0.2636 -0.6736
  143SOL    HW2  429   0.533   1.989   2.803  0.6033 -0.7942  0.5796
  144SOL     OW  430   0.952   3.067   1.840  0.0440 -0.1823  0.3954
  144SOL    HW1  431   0.981   0.073   1.786 -0.7699  1.2811  1.7881
  144SOL    HW2  432   1.030   3.006   1.864 -0.0553 -1.0026 -2.7848
  145SOL     OW  433   2.609   0.997   0.483  0.2159 -0.3414  0.1058
  145SOL    HW1  434   2.667   0.973   0.564 -1.9334 -0.2879  1.3909
  145SOL    HW2  435   2.524   1.041   0.515  0.6636 -1.9797  0.3268
  146SOL     OW  436   2.457   2.488   0.285  0.3023 -0.3434 -0.4641
  146SOL    HW1  437   2.430   2.514   0.192  0.0879 -0.7944 -0.3284
  146SOL    HW2  438   2.370   2.463   0.336  0.5715  1.6068  0.2644
  147SOL     OW  439   2.522   2.653   1.252  0.2602  0.1990  0.0790
  147SOL    HW1  440   2.462   2.733   1.272 -0.0713 -1.8663  1.3249
  147SOL    HW2  441   2.541   2.658   1.150  2.4652 -2.1184 -1.9820
  148SOL     OW  442   1.436   2.930   2.439 -0.1055  0.3330 -0.1001
  148SOL    HW1  443   1.352   2.891   2.398 -1.1316 -0.4061 -1.3887
  148SOL    HW2  444   1.507   2.853   2.428 -0.5476 -0.2047 -1.3376
  149SOL     OW  445   1.144   0.478   2.631 -0.1138 -0.6111  0.4124
  149SOL    HW1  446   1.215   0.477   2.555  1.0080 -1.9487 -1.5199
  149SOL    HW2  447   1.096   0.566   2.633 -0.1367 -1.2842  0.2627
  150SOL     OW  448   0.777   2.736   0.169 -0.3215 -0.6138  0.4041
  150SOL    HW1  449   0.773   2.639   0.156 -0.0375  2.6259 -0.9047
  150SOL    HW2  450   0.719   2.764   0.247  0.5017 -2.5827 -1.4430
  151SOL     OW  451   0.037   1.767   0.179 -0.9549  0.2130  0.1708
  151SOL    HW1  452   0.069   1.690   0.120 -1.2845  1.8145 -2.5246
  151SOL    HW2  453   0.095   1.778   0.267  1.6917 -0.3636  0.8436
  152SOL     OW  454   3.037   0.723   0.708  0.2363 -0.1858 -0.2177
  152SOL    HW1  455   0.042   0.689   0.665  1.2214  0.2484 -1.3672
  152SOL    HW2  456   2.962   0.726   0.642  1.9237  0.4963 -0.3839
  153SOL     OW  457   2.411   3.024   0.926 -0.9896 -0.1912 -0.5967
  153SOL    HW1  458   2.482   3.019   0.858  1.1809  3.9220 -0.8383
  153SOL    HW2  459   2.377   2.930   0.951  2.3055 -0.8138 -3.1925
  154SOL     OW  460   0.967   0.844   1.806  0.6793  0.1650  0.3766
  154SOL    HW1  461   0.896   0.846   1.882  1.7164  0.5705  1.9369
  154SOL    HW2  462   0.915   0.791   1.734 -0.4511 -0.5221 -2.5628
  155SOL     OW  463   2.861   1.619   1.001 -0.2800  0.3950 -0.3821
  155SOL    HW1  464   2.829   1.532   0.967  0.0144  2.0922 -0.6197
  155SOL    HW2  465   2.909   1.679   0.935  0.0256  1.5404  2.3816
  156SOL     OW  466   2.373   1.985   0.286 -0.2740 -0.3103  0.7866
  156SOL    HW1  467   2.357   1.892   0.318  1.7489  0.0115  0.3317
  156SOL    HW2  468   2.431   1.986   0.198  2.5070 -3.1625 -1.0226
  157SOL     OW  469   1.008   2.981   0.889 -0.5067  0.4484  0.2666
  157SOL    HW1  470   0.934   2.911   0.865  1.2588 -1.9143 -0.6122
  157SOL    HW2  471   1.105   2.954   0.856  1.0790  2.9943  0.8527
  158SOL     OW  472   2.284   0.264   2.601  0.0090 -0.5968  0.1054
  158SOL    HW1  473   2.336   0.346   2.632 -0.5132 -0.2252  1.2057
  158SOL    HW2  474   2.224   0.274   2.520 -0.8209 -2.2506 -0.6688
  159SOL     OW  475   0.381   0.006   0.256 -0.3512 -0.2227  0.0239
  159SOL    HW1  476   0.325   0.045   0.187  3.3821 -1.7930  1.2768
  159SOL    HW2  477   0.364   2.987   0.268  0.8943  0.5665 -0.3630
  160SOL     OW  478   1.369   2.211   2.908 -0.5219  0.1913  0.2119
  160SOL    HW1  479   1.416   2.129   2.940 -1.1035 -0.7426 -3.7936
  160SOL    HW2  480   1.432   2.292   2.917 -1.8980 -0.3156 -0.0481
  161SOL     OW  481   2.541   1.704   2.484  0.1258  0.6675 -0.4247
  161SOL    HW1  482   2.578   1.757   2.406  0.9238 -1.1979 -0.0266
  161SOL    HW2  483   2.439   1.730   2.491 -5.4667  1.5904 -0.2850
  162SOL     OW  484   3.013   2.782   1.161  0.1302 -0.2962 -0.2875
  162SOL    HW1  485   3.035   2.824   1.070  1.0968  1.1295  0.3612
  162SOL    HW2  486   0.016   2.762   1.218 -0.3001  1.3922  1.0432
  163SOL     OW  487   2.087   0.358   2.771  0.0130 -0.5895  0.3137
  163SOL    HW1  488   2.104   0.336   2.869 -0.3266  1.3103 -3.7804
  163SOL    HW2  489   2.156   0.320   2.701  4.5417  1.1997 -0.8984
  164SOL     OW  490   2.985   1.782   0.816  0.1076  0.6555  0.0101
  164SOL    HW1  491   2.961   1.748   0.724  1.3571 -2.0103 -2.9686
  164SOL    HW2  492   2.951   1.877   0.826 -0.5725 -0.6861 -2.3581
  165SOL     OW  493   2.607   0.295   1.868  0.1280 -0.2001 -0.0312
  165SOL    HW1  494   2.672   0.224   1.839 -0.5999 -2.1010 -0.2170
  165SOL    HW2  495   2.542   0.321   1.795  1.1541 -0.5786 -1.4123
  166SOL     OW  496   2.236   0.527   0.872  0.0453 -0.4031  0.1342
  166SOL    HW1  497   2.151   0.470   0.869 -0.4111 -0.5532 -2.7900
  166SOL    HW2  498   2.298   0.479   0.943  2.0957 -0.9669  2.3986
  167SOL     OW  499   0.518   0.318   0.897  0.0651  0.2591 -0.1843
  167SOL    HW1  500   0.503   0.295   0.994 -0.9385  0.7201  0.7113
  167SOL    HW2  501   0.620   0.327   0.880  1.8667  1.2388 -0.3833
  168SOL     OW  502   1.706   2.921   2.160  0.5991  0.0426 -0.5427
  168SOL    HW1  503   1.747   2.829   2.161 -4.2348  1.6801 -3.0665
  168SOL    HW2  504   1.742   2.979   2.238  0.3492 -0.6250  0.0233
  169SOL     OW  505   0.221   1.061   0.637  0.5060 -0.2044  0.1295
  169SOL    HW1  506   0.321   1.089   0.649  4.5347  1.3267 -0.7282
  169SOL    HW2  507   0.207   1.028   0.543  1.2676  4.2109  1.3567
  170SOL     OW  508   2.725   0.721   1.309  0.1510 -0.1595  0.5863
  170SOL    HW1  509   2.646   0.750   1.249  2.6458 -1.1111  0.8356
  170SOL    HW2  510   2.748   0.619   1.304  1.0314  1.4218  2.0128
  171SOL     OW  511   0.880   2.435   1.737  0.5610 -0.2791  0.1984
  171SOL    HW1  512   0.936   2.390   1.665 -0.1945 -0.4341  2.1752
  171SOL    HW2  513   0.891   2.392   1.827 -0.6427  2.8246  1.2418
  172SOL     OW  514   0.226   2.468   1.258  0.8066 -0.7156 -0.3224
  172SOL    HW1  515   0.201   2.435   1.349 -1.0959  0.9162 -0.3979
  172SOL    HW2  516   0.229   2.572   1.251  1.7645 -0.8103  2.8811
  173SOL     OW  517   1.468   0.257   2.847  0.3391  0.0896 -0.5194
  173SOL    HW1  518   1.422   0.166   2.836 -0.4523 -0.6034 -0.5106
  173SOL    HW2  519   1.403   0.332   2.877 -0.4314  2.9012  2.2668
  174SOL     OW  520   1.525   0.082   2.358  0.2733  0.1297 -0.5276
  174SOL    HW1  521   1.511   0.141   2.441  0.1134 -0.2108  0.9508
  174SOL    HW2  522   1.510   3.063   2.374 -0.9650  0.0734 -0.5923
  175SOL     OW  523   1.939   2.544   0.021 -0.0448 -0.4088  0.2622
  175SOL    HW1  524   1.942   2.477   3.025 -3.0763  0.8356  4.2809
  175SOL    HW2  525   1.998   2.622   3.075  0.8711 -2.5246  1.3269
  176SOL     OW  526   1.900   0.120   2.738 -0.1368 -0.5878 -0.0360
  176SOL    HW1  527   1.857   0.149   2.827  1.9131 -0.0911 -0.2390
  176SOL    HW2  528   1.834   0.125   2.661  1.1715  1.6861 -0.6792
  177SOL     OW  529   0.811   1.648   0.242  0.2002 -0.1887  0.0682
  177SOL    HW1  530   0.865   1.678   0.320 -0.2173 -0.7849 -2.8879
  177SOL    HW2  531   0.729   1.590   0.273  0.8025 -2.6099  1.4924
  178SOL     OW  532   2.970   1.967   2.550  0.1582  0.1949 -0.1835
  178SOL    HW1  533   2.893   2.000   2.606  3.8015 -0.1413 -1.0415
  178SOL    HW2  534   2.972   1.866   2.532 -1.6811 -2.3318  0.1883
  179SOL     OW  535   0.681   2.560   2.569 -0.4939  0.2859  0.3550
  179SOL    HW1  536   0.775   2.545   2.609  0.5759 -0.8278 -1.0145
  179SOL    HW2  537   0.668   2.659   2.540 -1.6665  1.5911 -1.4499
  180SOL     OW  538   1.952   1.924   1.384  0.6207 -0.3924 -0.0695
  180SOL    HW1  539   1.987   1.904   1.477 -0.0693  1.1879 -2.1924
  180SOL    HW2  540   1.875   1.866   1.353 -2.1337  1.3691  1.0821
  181SOL     OW  541   1.679   1.259   2.241 -0.3101 -0.0078  0.2606
  181SOL    HW1  542   1.674   1.206   2.153  0.6239 -1.6658  1.2675
  181SOL    HW2  543   1.764   1.224   2.291  2.2139 -1.9060  2.3498
  182SOL     OW  544   2.483   2.879   2.419  0.3563  0.5811  0.1452
  182SOL    HW1  545   2.563   2.815   2.410  2.7247 -3.5994  2.0036
  182SOL    HW2  546   2.429   2.886   2.333 -2.8781  1.3939  0.2130
  183SOL     OW  547   1.503   0.654   2.582 -0.0946  0.2325 -0.0124
  183SOL    HW1  548   1.530   0.730   2.517 -0.3949 -1.7102 -0.4415
  183SOL    HW2  549   1.583   0.603   2.618 -1.7411 -0.2220  0.6539
  184SOL     OW  550   0.798   0.918   1.392  0.4501  0.2355 -0.0676
  184SOL    HW1  551   0.841   0.990   1.447 -0.1798 -1.2506  0.4033
  184SOL    HW2  552   0.835   0.916   1.295 -2.1875  0.0656 -0.9529
  185SOL     OW  553   2.313   0.936   1.056 -0.0821 -0.1185  0.2389
  185SOL    HW1  554   2.311   1.020   1.108 -1.0918 -2.8413 -2.0432
  185SOL    HW2  555   2.312   0.950   0.955  1.8727 -0.8275 -1.1496
  186SOL     OW  556   0.516   1.613   2.610 -0.2171  0.5133 -0.1416
  186SOL    HW1  557   0.545   1.697   2.663  0.6114  1.7973  0.4165
  186SOL    HW2  558   0.515   1.633   2.513 -0.8197  0.0164  2.1364
  187SOL     OW  559   2.565   1.448   0.310  0.6234 -0.0480 -0.0884
  187SOL    HW1  560   2.655   1.494   0.328 -1.7336  1.9253  1.8612
  187SOL    HW2  561   2.518   1.493   0.232  1.6246 -0.1516 -1.3407
  188SOL     OW  562   0.181   1.797   0.397 -0.5408  0.5223 -0.0166
  188SOL    HW1  563   0.111   1.853   0.447  0.3222 -2.3760  0.7138
  188SOL    HW2  564   0.279   1.810   0.432  2.8929 -1.3170  1.4242
  189SOL     OW  565   2.411   0.510   0.486 -0.3400 -0.0832  0.0189
  189SOL    HW1  566   2.360   0.539   0.403 -2.7618  0.2421 -0.9498
  189SOL    HW2  567   2.509   0.512   0.464  3.3342  1.2594 -1.5964
  190SOL     OW  568   1.088   1.328   2.419  0.5044  0.1431 -0.3141
  190SOL    HW1  569   1.161   1.398   2.402  0.5250 -1.0555  2.3570
  190SOL    HW2  570   1.113   1.252   2.359 -2.0366  1.8548  1.2670
  191SOL     OW  571   2.255   0.209   2.019 -0.2732 -0.0614  0.0223
  191SOL    HW1  572   2.263   0.311   2.028  2.5622  3.0392 -0.7487
  191SOL    HW2  573   2.279   0.177   1.925  2.7571  0.6425  0.5002
  192SOL     OW  574   1.940   1.085   1.529 -0.1123 -0.2401  0.0402
  192SOL    HW1  575   1.868   1.154   1.555  2.3210 -0.3969 -0.1174
  192SOL    HW2  576   1.912   1.024   1.455 -2.8596  0.4234  0.0391
  193SOL     OW  577   0.901   0.578   0.677  0.1820  0.4168 -0.0883
  193SOL    HW1  578   0.830   0.551   0.616  0.8721  0.0772  0.7667
  193SOL    HW2  579   0.993   0.553   0.643 -1.0435 -1.0402  0.2348
  194SOL     OW  580   1.274   2.951   0.832 -0.0542  0.0171 -0.0730
  194SOL    HW1  581   1.321   2.884   0.772  1.5105  2.1283 -0.4474
  194SOL    HW2  582   1.283   2.931   0.933  1.1730  0.9004  1.8397
  195SOL     OW  583   2.368   0.687   0.708 -0.0517  0.3981  0.1096
  195SOL    HW1  584   2.370   0.639   0.621 -0.6471  3.1284  3.4970
  195SOL    HW2  585   2.311   0.634   0.774 -3.1908  1.2051 -0.8667
  196SOL     OW  586   0.992   1.907   1.373  0.4700  0.6723 -0.0638
  196SOL    HW1  587   1.011   1.975   1.302 -0.5888 -1.3788 -0.3946
  196SOL    HW2  588   1.081   1.882   1.428  2.4087 -1.4046  1.8721
  197SOL     OW  589   0.316   2.806   0.316 -0.5617 -0.0470  0.5056
  197SOL    HW1  590   0.245   2.847   0.376 -0.9922 -0.3621  1.1595
  197SOL    HW2  591   0.275   2.736   0.254 -2.2873 -2.5708  0.7027
  198SOL     OW  592   0.918   0.859   0.793 -0.0779 -0.1907  0.0492
  198SOL    HW1  593   0.924   0.930   0.724 -1.3714 -5.6123 -3.4984
  198SOL    HW2  594   0.920   0.767   0.751 -0.0474  1.6823  1.4670
  199SOL     OW  595   3.014   0.121   1.639 -0.0723 -0.1449 -0.3776
  199SOL    HW1  596   3.056   0.203   1.684 -0.2044  2.0347 -0.4947
  199SOL    HW2  597   2.925   0.098   1.679 -2.1738  1.6974 -1.6215
  200SOL     OW  598   2.162   1.877   2.842  0.0278 -0.3028  0.6344
  200SOL    HW1  599   2.057   1.898   2.855 -6.2657  2.1675  1.2623
  200SOL    HW2  600   2.169   1.802   2.772 -0.6254 -2.7409 -2.3007
  201SOL     OW  601   2.551   2.715   0.949  0.4329  0.6272 -0.6094
  201SOL    HW1  602   2.450   2.724   0.962 -0.1018 -0.3236 -1.8404
  201SOL    HW2  603   2.592   2.798   0.905 -1.2419  1.3977 -1.9567
  202SOL     OW  604   2.647   0.461   0.327 -0.5288 -0.3009 -0.2347
  202SOL    HW1  605   2.670   0.531   0.255  2.9798 -0.7948  0.3218
  202SOL    HW2  606   2.704   0.374   0.320  0.1544 -1.2803  1.8392
  203SOL     OW  607   1.245   1.472   2.090  0.3461 -0.0384  0.0062
  203SOL    HW1  608   1.293   1.515   2.011 -0.6412 -0.7269 -0.2732
  203SOL    HW2  609   1.242   1.530   2.172  0.1497 -0.8142  0.1354
  204SOL     OW  610   0.804   1.366   1.923  0.1193 -0.1793 -0.1807
  204SOL    HW1  611   0.875   1.433   1.900 -0.6165 -2.1996  0.1665
  204SOL    HW2  612   0.840   1.305   2.000 -0.3468  1.0741  0.7378
  205SOL     OW  613   1.188   2.128   1.647  1.0014  0.6778 -0.3565
  205SOL    HW1  614   1.200   2.032   1.614  0.0013  0.9283  2.5105
  205SOL    HW2  615   1.167   2.133   1.747 -0.5397  1.0879 -0.0784
  206SOL     OW  616   0.088   0.359   2.872  0.7448 -0.3443 -0.0166
  206SOL    HW1  617   0.184   0.351   2.835 -0.1121  1.7161 -0.7373
  206SOL    HW2  618   0.062   0.269   2.918 -0.0394 -0.1414  0.2122
  207SOL     OW  619   1.398   2.884   2.102 -1.0161  0.1470  0.5112
  207SOL    HW1  620   1.364   2.946   2.028 -2.3448 -0.3644 -1.8671
  207SOL    HW2  621   1.497   2.894   2.115 -0.8219 -1.6242 -0.4598
  208SOL     OW  622   0.614   2.153   1.898 -0.0573  0.0634  0.6688
  208SOL    HW1  623   0.710   2.129   1.884 -1.2884  0.7285 -0.7307
  208SOL    HW2  624   0.565   2.164   1.813  0.9651 -3.2807  0.9452
  209SOL     OW  625   1.872   1.241   2.895  0.4214  0.1144  0.1625
  209SOL    HW1  626   1.796   1.302   2.861 -2.2644 -0.7563  2.1922
  209SOL    HW2  627   1.844   1.140   2.906  2.7832  1.2332 -0.0569
  210SOL     OW  628   2.957   0.431   0.985  0.3624  0.3196 -0.5368
  210SOL    HW1  629   2.888   0.469   0.923  2.6835  1.8962 -0.1150
  210SOL    HW2  630   2.967   0.332   0.972 -0.1958 -0.1389 -1.2899
  211SOL     OW  631   0.763   1.253   1.062 -0.2109 -0.4806 -0.0790
  211SOL    HW1  632   0.716   1.264   0.968 -2.2801  1.0690 -0.1855
  211SOL    HW2  633   0.851   1.301   1.052 -1.1055  0.7502 -3.0899
  212SOL     OW  634   1.070   1.759   0.679  0.4087 -0.4971  0.3302
  212SOL    HW1  635   1.049   1.806   0.765 -2.0903 -0.4461 -1.8311
  212SOL    HW2  636   1.090   1.661   0.696  2.1137  0.4575 -0.3550
  213SOL     OW  637   1.564   0.075   1.616  0.0512 -0.3832  0.4196
  213SOL    HW1  638   1.639   0.035   1.565  0.2900  0.1836  3.0414
  213SOL    HW2  639   1.593   0.166   1.657  0.5088  0.9800  0.4169
  214SOL     OW  640   1.493   1.666   2.401 -0.2316  0.5132 -0.1386
  214SOL    HW1  641   1.413   1.616   2.363 -4.4374 -1.6181 -1.8129
  214SOL    HW2  642   1.452   1.722   2.476 -1.2625  2.3610 -0.4927
  215SOL     OW  643   0.240   1.752   1.086 -0.0688  0.1196  0.2960
  215SOL    HW1  644   0.182   1.701   1.015 -1.1010 -0.0208 -3.0392
  215SOL    HW2  645   0.328   1.781   1.034  1.9184  0.4044  0.0378
  216SOL     OW  646   0.543   0.012   2.133 -0.2150 -0.0513 -0.5628
  216SOL    HW1  647   0.615   0.057   2.069  1.1396  0.6285 -1.3874
  216SOL    HW2  648   0.549   0.060   2.223  0.7343  0.5995 -1.6375
  217SOL     OW  649   2.378   0.461   2.996  0.4613 -0.1882  0.2257
  217SOL    HW1  650   2.369   0.456   2.893 -1.5725 -0.6121 -1.1187
  217SOL    HW2  651   2.472   0.438   3.034  2.4593  0.0761  1.0281
  218SOL     OW  652   1.930   1.620   2.282 -0.4621 -0.0980  0.0622
  218SOL    HW1  653   1.829   1.616   2.260  1.3029  0.3879 -0.9489
  218SOL    HW2  654   1.953   1.715   2.302 -0.0117 -1.8372 -1.2788
  219SOL     OW  655   1.581   1.170   0.413 -0.3232  0.7018 -0.0534
  219SOL    HW1  656   1.636   1.241   0.452 -4.1293  0.2563 -0.4610
  219SOL    HW2  657   1.575   1.180   0.313  0.0629 -0.0464  2.2677
  220SOL     OW  658   1.483   1.919   1.033  0.4855  0.0927  0.4602
  220SOL    HW1  659   1.462   1.928   1.132 -0.2575  0.6016  1.1715
  220SOL    HW2  660   1.489   2.018   1.004  1.3869 -2.7539  0.5037
  221SOL     OW  661   0.134   0.571   3.043  0.2369  0.1782  0.1303
  221SOL    HW1  662   0.094   0.658   3.003  2.6811 -0.9051  1.9922
  221SOL    HW2  663   0.131   0.496   2.970 -0.4904  1.2061 -1.3384
  222SOL     OW  664   1.072   2.767   1.476  0.4377 -0.0957  0.3359
  222SOL    HW1  665   1.098   2.677   1.436 -1.8236  0.0406  0.3002
  222SOL    HW2  666   1.120   2.845   1.433  1.7634 -2.0963 -1.8940
  223SOL     OW  667   1.340   2.859   2.724  0.3578  0.7625 -0.2455
  223SOL    HW1  668   1.293   2.918   2.798  2.1055  4.3768  1.0533
  223SOL    HW2  669   1.370   2.921   2.649 -0.4104  2.4756  1.9575
  224SOL     OW  670   2.594   1.058   1.240  0.2010 -0.6001 -0.2936
  224SOL    HW1  671   2.550   0.986   1.299  0.8798  2.8997 -1.9168
  224SOL    HW2  672   2.670   1.103   1.291 -0.7756  1.7598 -0.0215
  225SOL     OW  673   0.871   1.169   1.516  0.0169 -0.3848 -0.3831
  225SOL    HW1  674   0.903   1.213   1.598 -2.8706 -0.8189  1.4111
  225SOL    HW2  675   0.903   1.209   1.429 -2.3866  0.7772 -0.2032
  226SOL     OW  676   1.533   2.702   2.890 -0.2767 -0.1226 -0.4093
  226SOL    HW1  677   1.467   2.766   2.847 -0.6166  0.7021  1.2106
  226SOL    HW2  678   1.585   2.647   2.821  1.4345 -0.9304 -1.3762
  227SOL     OW  679   0.634   2.144   0.955 -0.0558  0.0144  0.5209
  227SOL    HW1  680   0.570   2.128   0.881  1.3432  1.7925  1.2363
  227SOL    HW2  681   0.658   2.241   0.971  2.1188 -0.8907  0.7198
  228SOL     OW  682   0.460   2.368   1.211  0.3099  0.4522  0.0077
  228SOL    HW1  683   0.366   2.398   1.244 -4.5896 -2.5077  3.0281
  228SOL    HW2  684   0.543   2.415   1.260  2.2410 -1.3009 -0.9194
  229SOL     OW  685   2.412   1.151   0.160  0.5658  0.1625 -0.0806
  229SOL    HW1  686   2.321   1.150   0.204 -0.8800 -1.4490 -1.8346
  229SOL    HW2  687   2.438   1.242   0.122  1.8202  0.6235 -0.0131
  230SOL     OW  688   0.887   1.194   2.133 -0.0608  0.3167 -0.1288
  230SOL    HW1  689   0.809   1.194   2.200  0.1029  0.3106 -1.4085
  230SOL    HW2  690   0.956   1.121   2.157  3.6949 -2.9487  0.6128
  231SOL     OW  691   1.548   1.973   1.662  0.2450 -0.0867  0.0243
  231SOL    HW1  692   1.626   2.036   1.692  0.6083 -1.0309 -1.9625
  231SOL    HW2  693   1.489   1.952   1.742 -0.5553  0.9812  0.9333
  232SOL     OW  694   2.113   2.311   1.021  0.0728  0.2125 -0.3915
  232SOL    HW1  695   2.030   2.362   0.981 -1.8044  2.9622 -0.0714
  232SOL    HW2  696   2.142   2.233   0.959  0.0705 -2.0356  1.4110
  233SOL     OW  697   1.671   2.512   2.733  0.3920 -0.0854 -0.1839
  233SOL    HW1  698   1.741   2.485   2.670 -0.7004 -1.6135  1.3033
  233SOL    HW2  699   1.581   2.506   2.687  2.9800  0.4327 -0.4551
  234SOL     OW  700   1.003   0.024   2.807  0.3799  0.1222 -0.2169
  234SOL    HW1  701   1.035   0.105   2.752 -1.5386  0.5049  3.0542
  234SOL    HW2  702   0.939   3.037   2.756 -1.8980 -1.3178  0.0730
  235SOL     OW  703   2.724   2.560   0.002 -0.3125  0.1634  0.2148
  235SOL    HW1  704   2.708   2.634   0.063 -0.3928 -1.2955  0.8900
  235SOL    HW2  705   2.777   2.488   0.046  0.4095 -1.8490 -0.4476
  236SOL     OW  706   2.087   2.330   2.213 -0.0318  0.5049  0.1102
  236SOL    HW1  707   2.186   2.306   2.196  2.6012 -1.2423  2.5136
  236SOL    HW2  708   2.055   2.260   2.286  0.4820  1.5559 -0.4766
  237SOL     OW  709   1.630   1.249   1.393 -0.1623 -0.3530  0.4689
  237SOL    HW1  710   1.588   1.157   1.389 -0.9636  1.2937 -0.6783
  237SOL    HW2  711   1.553   1.315   1.421 -1.9639 -2.2671  1.3130
  238SOL     OW  712   1.914   0.204   2.294 -0.3858 -0.3831 -0.5356
  238SOL    HW1  713   1.951   0.152   2.216 -3.1715  0.0475  3.2203
  238SOL    HW2  714   1.833   0.153   2.320  2.3696  1.8887  0.6148
  239SOL     OW  715   0.581   1.661   1.837  0.1476 -0.1731 -0.5215
  239SOL    HW1  716   0.517   1.706   1.771 -2.4526  0.7386  0.3065
  239SOL    HW2  717   0.575   1.557   1.821 -0.4669  0.5840 -1.0249
  240SOL     OW  718   0.139   2.215   0.607 -0.0545 -0.3229  0.2278
  240SOL    HW1  719   0.052   2.263   0.597  0.6588 -0.0168 -0.0830
  240SOL    HW2  720   0.184   2.200   0.514  0.0980  2.1376 -0.4236
  241SOL     OW  721   1.989   2.016   0.754  0.5562  0.2722 -0.9011
  241SOL    HW1  722   1.978   1.936   0.814  1.8155  0.8083 -2.1801
  241SOL    HW2  723   1.906   2.024   0.697  2.2381  0.8471  0.5622
  242SOL     OW  724   1.476   1.509   0.140  0.1589 -0.5037 -0.2213
  242SOL    HW1  725   1.545   1.436   0.109  2.5388 -0.8742  1.2033
  242SOL    HW2  726   1.432   1.546   0.055 -0.1997 -1.0750  0.9440
  243SOL     OW  727   0.641   2.818   2.092 -0.3945  0.2845  0.0538
  243SOL    HW1  728   0.574   2.885   2.129 -1.6054  0.9441  0.0484
  243SOL    HW2  729   0.648   2.820   1.993 -1.4620  1.8514  2.6250
  244SOL     OW  730   1.693   2.891   2.670 -0.3007  0.5332  0.3917
  244SOL    HW1  731   1.632   2.954   2.722 -0.8497  0.7756  2.2997
  244SOL    HW2  732   1.640   2.822   2.622  2.5282  0.7159  2.2401
  245SOL     OW  733   1.527   2.928   0.188  0.1636  0.7179  0.0699
  245SOL    HW1  734   1.624   2.952   0.195 -0.1577 -2.5538 -1.4307
  245SOL    HW2  735   1.472   2.998   0.140  0.0061  2.4096 -1.1978
  246SOL     OW  736   1.237   3.040   2.933  0.3693  0.7488 -0.1145
  246SOL    HW1  737   1.152   0.001   2.886 -4.9763  2.6056 -2.1859
  246SOL    HW2  738   1.210   2.958   2.992 -3.6318 -1.5816  1.9268
  247SOL     OW  739   0.022   0.661   1.989  0.0937  0.0491  0.3632
  247SOL    HW1  740   0.071   0.718   2.062  1.5936 -1.6553  3.7975
  247SOL    HW2  741   3.060   0.582   2.036 -2.3371  2.0103  0.2102
  248SOL     OW  742   0.809   0.822   2.344 -0.0868  0.0694 -0.1910
  248SOL    HW1  743   0.849   0.910   2.374  0.3628  0.3230  0.9866
  248SOL    HW2  744   0.879   0.766   2.297 -0.0530 -3.9233 -0.6354
  249SOL     OW  745   2.286   0.483   0.255 -0.1605 -0.5439  0.2281
  249SOL    HW1  746   2.280   0.557   0.185 -2.9582 -1.4642 -2.2165
  249SOL    HW2  747   2.334   0.396   0.220  2.8228  1.7491 -1.1851
  250SOL     OW  748   0.747   0.236   0.613  0.5599  0.4827  0.0773
  250SOL    HW1  749   0.816   0.236   0.539 -0.9808 -0.3226  1.2662
  250SOL    HW2  750   0.781   0.198   0.698 -2.3834 -0.5280 -2.9839
  251SOL     OW  751   1.086   0.219   2.655 -0.0020  0.1860 -0.1408
  251SOL    HW1  752   1.110   0.316   2.660 -0.5441 -1.3467  0.2591
  251SOL    HW2  753   1.145   0.167   2.589 -0.5600  2.0652 -0.3798
  252SOL     OW  754   1.654   1.842   2.047  0.0449  0.1781  0.0954
  252SOL    HW1  755   1.726   1.907   2.085  1.1429 -1.5071  0.8870
  252SOL    HW2  756   1.677   1.745   2.078 -1.4074 -0.0326 -1.8717
  253SOL     OW  757   2.104   2.576   1.805  0.3440 -0.3606  0.4972
  253SOL    HW1  758   2.169   2.657   1.802  1.3003  0.0319 -4.1308
  253SOL    HW2  759   2.152   2.495   1.769  0.4257  0.3805 -0.5905
  254SOL     OW  760   1.072   2.155   1.913 -0.3223  0.2568  0.5826
  254SOL    HW1  761   1.169   2.147   1.947  2.6355  1.3328  0.0037
  254SOL    HW2  762   1.025   2.238   1.956 -0.5896 -1.7526 -0.0540
  255SOL     OW  763   0.990   0.871   0.507 -0.1199  0.2925 -0.7421
  255SOL    HW1  764   0.906   0.917   0.536  0.7735  1.4568 -0.5165
  255SOL    HW2  765   0.987   0.851   0.407 -2.0284  1.0574  0.3172
  256SOL     OW  766   1.816   2.040   2.143 -0.0551  0.2996  0.3685
  256SOL    HW1  767   1.842   2.114   2.078  2.3442 -0.3126 -1.7510
  256SOL    HW2  768   1.896   2.014   2.204  0.5385  1.5333 -0.3067
  257SOL     OW  769   0.562   2.309   2.585 -0.0677  0.1100 -0.6252
  257SOL    HW1  770   0.613   2.398   2.601 -1.7825 -0.7303  0.8058
  257SOL    HW2  771   0.594   2.241   2.653 -0.7586  1.0378 -3.8827
  258SOL     OW  772   0.626   0.570   2.132  0.1474  0.5258  0.2599
  258SOL    HW1  773   0.624   0.633   2.211  1.4836 -2.0242 -1.6882
  258SOL    HW2  774   0.723   0.554   2.110 -0.9981  0.2861 -0.7412
  259SOL     OW  775   0.691   0.505   2.493  0.6214 -0.3497  0.2594
  259SOL    HW1  776   0.718   0.517   2.588 -0.9621 -1.1427 -1.9396
  259SOL    HW2  777   0.771   0.476   2.436  0.4196  0.4806  4.1258
  260SOL     OW  778   1.320   0.597   0.572  0.0628  0.1781  0.4361
  260SOL    HW1  779   1.306   0.689   0.608 -1.5315 -2.5185  0.5168
  260SOL    HW2  780   1.243   0.577   0.511 -4.0490 -0.0005  3.3549
  261SOL     OW  781   0.423   2.691   2.767  0.2872 -0.0347  0.4615
  261SOL    HW1  782   0.513   2.657   2.798 -1.9606 -2.2144 -0.9485
  261SOL    HW2  783   0.409   2.677   2.664  1.4044 -1.0503 -2.7566
  262SOL     OW  784   2.281   2.845   2.846  0.0015  0.5429  0.0558
  262SOL    HW1  785   2.381   2.861   2.867  0.8538  2.3714 -0.6817
  262SOL    HW2  786   2.228   2.935   2.834 -1.2064  0.8532  1.8846
  263SOL     OW  787   0.281   1.996   2.617 -0.8313 -0.0487 -0.0823
  263SOL    HW1  788   0.253   2.088   2.590 -2.4027  0.2260  1.0296
  263SOL    HW2  789   0.218   1.961   2.691 -2.2595 -2.4663 -0.3880
  264SOL     OW  790   0.571   1.284   1.249  0.0052 -0.0865 -0.1666
  264SOL    HW1  791   0.654   1.272   1.192 -0.7130 -1.2872  1.6944
  264SOL    HW2  792   0.561   1.203   1.304 -0.5375  2.6368  1.1699
  265SOL     OW  793   0.339   1.589   0.007 -0.0805  0.6704  0.4619
  265SOL    HW1  794   0.242   1.558   0.012  1.8828 -1.0057 -0.4407
  265SOL    HW2  795   0.392   1.502   0.005  0.4166  1.0766  0.6970
  266SOL     OW  796   1.392   1.380   0.576  0.3681 -0.2190  0.1615
  266SOL    HW1  797   1.300   1.410   0.614 -3.5061  2.0437  0.9672
  266SOL    HW2  798   1.388   1.275   0.570  1.3113 -2.1884  0.9877
  267SOL     OW  799   2.556   0.832   0.002  0.0613 -0.6091  0.7219
  267SOL    HW1  800   2.511   0.802   2.992 -0.3194 -0.9680 -2.6694
  267SOL    HW2  801   2.499   0.813   0.083  1.5804  0.3505  0.1844
  268SOL     OW  802   2.862   2.958   2.787  0.1567 -1.0508  0.1738
  268SOL    HW1  803   2.940   3.012   2.742 -0.9556  0.6900  0.2448
  268SOL    HW2  804   2.845   2.873   2.728  1.1041 -1.5857  0.8760
  269SOL     OW  805   1.728   0.222   2.540  1.3129  0.1532  0.1478
  269SOL    HW1  806   1.804   0.284   2.564  2.0979  0.3944 -0.4404
  269SOL    HW2  807   1.638   0.269   2.539  0.1086 -0.6036 -1.3089
  270SOL     OW  808   0.881   0.995   2.539  0.1652 -0.2291  0.6557
  270SOL    HW1  809   0.782   0.972   2.538 -1.9533  0.1091 -1.8917
  270SOL    HW2  810   0.894   1.090   2.563  3.1368  1.4207  0.7119
  271SOL     OW  811   2.687   1.057   0.154  0.1568 -0.3392 -0.5318
  271SOL    HW1  812   2.586   1.068   0.135  0.4645 -0.3970  0.0007
  271SOL    HW2  813   2.704   0.960   0.180 -1.3593 -0.2708  0.7848
  272SOL     OW  814   2.780   1.719   2.691  0.0901 -0.0120 -0.5732
  272SOL    HW1  815   2.701   1.782   2.691  1.1981  1.7405 -1.3811
  272SOL    HW2  816   2.800   1.678   2.600  0.7626  1.7010 -0.7550
  273SOL     OW  817   2.255   0.654   0.055  0.4692  0.3861  0.1310
  273SOL    HW1  818   2.302   0.601   3.060 -0.3985  1.2540 -1.4531
  273SOL    HW2  819   2.171   0.700   0.020  3.5046  0.0740  1.7776
  274SOL     OW  820   0.175   2.401   0.964  0.0003  0.0113  0.2157
  274SOL    HW1  821   0.267   2.415   0.918 -1.1551  0.1365  0.0936
  274SOL    HW2  822   0.183   2.402   1.062  0.3475  0.6072 -0.5410
  275SOL     OW  823   2.388   1.356   0.718 -0.6643 -0.2059 -0.2035
  275SOL    HW1  824   2.491   1.349   0.692 -2.6005  0.2648 -0.6675
  275SOL    HW2  825   2.376   1.317   0.812  0.4443 -1.0229 -1.7946
  276SOL     OW  826   0.113   1.202   2.668  0.0998 -0.2294  0.2789
  276SOL    HW1  827   0.157   1.194   2.577  2.9703 -0.3809  0.6742
  276SOL    HW2  828   0.030   1.144   2.666 -2.7700 -1.6083  0.6987
  277SOL     OW  829   1.606   2.572   1.317  0.2033  0.3004  0.6425
  277SOL    HW1  830   1.665   2.621   1.383 -0.2922 -1.1753 -0.5877
  277SOL    HW2  831   1.662   2.494   1.275 -2.7100  0.2510  1.6813
  278SOL     OW  832   1.280   0.532   1.816 -0.1187 -0.1501 -0.7079
  278SOL    HW1  833   1.196   0.501   1.865  0.6882 -0.0908  0.0219
  278SOL    HW2  834   1.274   0.500   1.720  1.5915 -0.0610 -0.9356
  279SOL     OW  835   1.548   1.867   0.596  0.2187  0.2519 -0.1938
  279SOL    HW1  836   1.577   1.874   0.692 -1.9732  0.5460  0.2479
  279SOL    HW2  837   1.540   1.770   0.564 -3.4366 -0.2316 -1.3277
  280SOL     OW  838   0.652   1.779   0.649  0.4575 -0.5513 -0.0449
  280SOL    HW1  839   0.725   1.833   0.690 -0.2178 -1.3035 -0.7455
  280SOL    HW2  840   0.641   1.688   0.690  0.1054  0.3793 -1.9262
  281SOL     OW  841   3.008   0.061   2.633  0.0546  0.4264  0.3977
  281SOL    HW1  842   2.941   0.129   2.593  0.4919 -1.8326  0.9702
  281SOL    HW2  843   0.015   0.047   2.576  1.4213 -0.7949 -1.6004
  282SOL     OW  844   0.458   0.835   0.561 -0.5733 -0.3455 -0.0496
  282SOL    HW1  845   0.471   0.754   0.501  1.2988  2.0628 -0.5803
  282SOL    HW2  846   0.481   0.919   0.512  1.8169 -2.5543  3.9557
  283SOL     OW  847   1.877   1.999   0.294 -0.3338 -0.3318  0.0091
  283SOL    HW1  848   1.966   2.047   0.316 -0.6284 -2.3477 -1.4454
  283SOL    HW2  849   1.827   2.042   0.212  0.2477  2.5531 -0.2365
  284SOL     OW  850   1.200   1.323   0.351 -0.1523 -0.1789 -0.7678
  284SOL    HW1  851   1.257   1.369   0.428  0.3856  1.6801  0.1462
  284SOL    HW2  852   1.264   1.283   0.280 -0.5051 -0.3561  1.1742
  285SOL     OW  853   2.376   0.502   2.712  0.1760 -0.2320  0.4205
  285SOL    HW1  854   2.467   0.539   2.740 -1.0907 -1.4517  2.3017
  285SOL    HW2  855   2.324   0.571   2.663  0.6639 -0.2907 -1.2300
  286SOL     OW  856   1.174   2.993   1.375  0.5870  0.2580 -0.0261
  286SOL    HW1  857   1.130   2.979   1.284 -2.6826 -0.9281 -1.6012
  286SOL    HW2  858   1.207   0.011   1.380 -2.6727 -1.4777 -2.0269
  287SOL     OW  859   0.985   1.401   1.045  0.5095  0.2210 -0.2326
  287SOL    HW1  860   1.079   1.429   1.018  1.0699  0.5457  0.6317
  287SOL    HW2  861   0.921   1.479   1.027 -0.8784  0.3169  0.0113
  288SOL     OW  862   1.547   3.066   2.858 -0.4626  0.1240  0.6047
  288SOL    HW1  863   1.598   0.070   2.892 -1.8277  0.3927 -0.8982
  288SOL    HW2  864   1.519   3.011   2.940  1.9292  0.5940  2.7536
  289SOL     OW  865   0.130   1.481   2.516  0.1730  0.1223  0.0064
  289SOL    HW1  866   0.028   1.491   2.506 -1.7778 -0.7653 -1.1771
  289SOL    HW2  867   0.173   1.536   2.586  0.0598 -0.4480 -0.0297
  290SOL     OW  868   1.801   2.219   0.977  0.2696  0.0740 -0.1774
  290SOL    HW1  869   1.841   2.279   0.902  0.4916 -0.0964  0.5763
  290SOL    HW2  870   1.834   2.121   0.968 -1.7330 -2.8376  0.4524
  291SOL     OW  871   2.362   2.055   2.894 -0.1202  0.3436 -0.5653
  291SOL    HW1  872   2.332   2.140   2.942 -1.0423 -0.0994  2.2535
  291SOL    HW2  873   2.276   2.003   2.874  1.2214 -2.7621  2.2650
  292SOL     OW  874   1.033   0.739   2.174  0.2676  0.2415 -0.0593
  292SOL    HW1  875   1.118   0.682   2.198  3.3401 -0.5586  1.4061
  292SOL    HW2  876   1.062   0.836   2.160  2.7184  1.2060 -1.0122
  293SOL     OW  877   2.089   2.823   0.873  0.4158  0.4354 -0.3817
  293SOL    HW1  878   2.059   2.916   0.834 -0.2644  1.6088  2.2553
  293SOL    HW2  879   2.170   2.783   0.824  0.2897 -3.9065 -0.9850
  294SOL     OW  880   0.321   0.386   2.516 -0.0577 -0.0260 -0.3897
  294SOL    HW1  881   0.359   0.458   2.576  1.4806 -0.4704 -2.6653
  294SOL    HW2  882   0.384   0.371   2.438  0.9193 -1.5242  1.1119
  295SOL     OW  883   1.311   1.819   0.479  0.0205 -0.2068 -0.1513
  295SOL    HW1  884   1.391   1.844   0.533 -0.0139 -0.5580 -0.9755
  295SOL    HW2  885   1.316   1.723   0.445  0.7285 -1.9134 -0.9618
  296SOL     OW  886   2.458   1.726   0.363  0.1025  0.3201 -0.5720
  296SOL    HW1  887   2.475   1.698   0.267 -1.1167  3.0293 -4.1684
  296SOL    HW2  888   2.414   1.653   0.418 -1.4452  0.7757 -2.5299
  297SOL     OW  889   2.151   0.312   3.065  0.3308  0.2475  0.5176
  297SOL    HW1  890   2.168   0.249   0.062  1.7124 -2.8279  3.3245
  297SOL    HW2  891   2.233   0.370   3.055  1.3733 -1.4996  4.0323
  298SOL     OW  892   1.297   2.370   2.298 -0.3676  0.1795  0.1562
  298SOL    HW1  893   1.235   2.318   2.363 -1.8834 -2.5257 -0.8948
  298SOL    HW2  894   1.379   2.313   2.271 -1.0364 -2.1789  0.3113
  299SOL     OW  895   1.249   2.647   2.547  0.4170  0.2493  0.7904
  299SOL    HW1  896   1.271   2.737   2.590 -0.5898 -0.5186 -1.0430
  299SOL    HW2  897   1.294   2.646   2.454 -3.1234 -0.0520  0.0756
  300SOL     OW  898   2.106   3.068   2.869 -0.3332  0.1820 -0.0467
  300SOL    HW1  899   2.055   0.042   2.800 -1.3401 -1.5032  1.7640
  300SOL    HW2  900   2.192   0.042   2.887  0.6306  1.5639 -1.4243
  301SOL     OW  901   1.439   1.421   1.441 -0.4724  0.1866 -0.3737
  301SOL    HW1  902   1.366   1.350   1.471 -0.2882 -1.1873  2.5761
  301SOL    HW2  903   1.412   1.478   1.362  0.9366  0.8991 -3.2964
  302SOL     OW  904   2.632   2.302   0.426  0.3776 -0.1436 -0.2736
  302SOL    HW1  905   2.690   2.371   0.467  1.3240 -1.3813 -1.8215
  302SOL    HW2  906   2.574   2.344   0.354 -0.8617  1.7598  0.4612
  303SOL     OW  907   2.741   2.256   2.376 -0.2430  0.5860  0.3179
  303SOL    HW1  908   2.738   2.356   2.370 -0.6502 -0.5017  0.4815
  303SOL    HW2  909   2.832   2.215   2.358 -1.4981  2.8224  1.7365
  304SOL     OW  910   2.757   0.649   1.903  0.4388 -0.2678  0.2693
  304SOL    HW1  911   2.699   0.703   1.840 -0.3898 -1.5216  1.5857
  304SOL    HW2  912   2.731   0.669   2.002 -1.0140  0.0968  2.7158
  305SOL     OW  913   0.858   2.030   1.801 -0.2675 -0.1486 -0.5499
  305SOL    HW1  914   0.856   1.927   1.806  0.5410 -0.4386  1.7898
  305SOL    HW2  915   0.949   2.078   1.830  3.8949  1.0496  0.8144
  306SOL     OW  916   2.706   0.829   1.695 -0.0036 -0.0196  0.6023
  306SOL    HW1  917   2.764   0.824   1.609 -0.5568  2.4430 -3.7792
  306SOL    HW2  918   2.733   0.907   1.759 -3.0205  2.6674 -1.5306
  307SOL     OW  919   1.461   1.221   1.897  0.1547 -0.1857  0.0823
  307SOL    HW1  920   1.361   1.227   1.925  1.0204  2.2013 -0.9370
  307SOL    HW2  921   1.474   1.155   1.817  1.5890 -0.5649 -0.6163
  308SOL     OW  922   2.638   1.418   1.095  0.1826  0.3769  0.4551
  308SOL    HW1  923   2.628   1.519   1.104 -0.5257 -0.8035  0.5184
  308SOL    HW2  924   2.556   1.379   1.047  1.2378 -0.8415  1.5108
  309SOL     OW  925   2.314   1.544   1.250  0.1887 -0.0033  0.4297
  309SOL    HW1  926   2.322   1.645   1.263 -1.4599 -0.7606  0.5511
  309SOL    HW2  927   2.390   1.493   1.291 -0.5948 -1.5414 -1.5834
  310SOL     OW  928   2.652   1.451   2.464  0.0931  0.4745  0.5970
  310SOL    HW1  929   2.590   1.531   2.487  1.9056  0.6201 -0.7132
  310SOL    HW2  930   2.746   1.469   2.497 -2.2383  1.6187 -1.4424
  311SOL     OW  931   0.142   2.193   3.020 -0.3382 -0.0298 -0.6746
  311SOL    HW1  932   0.071   2.258   3.059 -1.6558  0.1245 -1.0498
  311SOL    HW2  933   0.132   2.102   3.065  0.4164 -0.6753  2.4296
  312SOL     OW  934   2.325   1.579   0.939 -0.0729  0.1644  0.2625
  312SOL    HW1  935   2.373   1.499   0.905 -1.7079  1.8308  0.9394
  312SOL    HW2  936   2.329   1.575   1.041  2.2961 -2.3885 -2.1854
  313SOL     OW  937   2.542   3.065   1.178  0.3732  0.2860  0.0103
  313SOL    HW1  938   2.496   3.070   1.085 -1.6521 -0.5689 -0.8770
  313SOL    HW2  939   2.471   3.033   1.242 -2.0709 -0.6202 -0.1098
  314SOL     OW  940   0.966   1.752   0.433 -0.7446  0.4284  0.2302
  314SOL    HW1  941   1.006   1.808   0.355 -1.7099  0.6277 -2.8006
  314SOL    HW2  942   1.028   1.749   0.516  0.5150 -0.8191  0.0273
  315SOL     OW  943   1.120   2.553   2.206 -0.2803  0.5060  0.1560
  315SOL    HW1  944   1.034   2.544   2.264 -0.5628  0.6761  0.4750
  315SOL    HW2  945   1.182   2.474   2.235 -1.5987 -2.9994  0.5588
  316SOL     OW  946   2.944   1.117   0.197  0.1775 -0.4711 -0.0697
  316SOL    HW1  947   2.995   1.034   0.175 -2.4571 -0.5330  0.3637
  316SOL    HW2  948   2.844   1.106   0.180  1.0642 -0.8677  2.3655
  317SOL     OW  949   0.961   0.239   0.371  0.6051 -1.0540 -0.8407
  317SOL    HW1  950   0.902   0.190   0.300  1.2033 -2.5405 -0.6887
  317SOL    HW2  951   1.019   0.171   0.409 -3.7964  1.6745 -2.9949
  318SOL     OW  952   2.855   2.500   0.448 -1.1848 -0.7652 -0.2024
  318SOL    HW1  953   2.844   2.601   0.463  2.2265  1.4492  2.8445
  318SOL    HW2  954   2.910   2.460   0.524  1.4369  0.1529  0.2187
  319SOL     OW  955   0.699   1.272   2.513 -0.1700  0.0001 -0.1818
  319SOL    HW1  956   0.624   1.248   2.577 -0.8513 -0.0512 -0.6910
  319SOL    HW2  957   0.752   1.347   2.560 -2.3774 -0.1832  2.3164
  320SOL     OW  958   0.595   2.381   1.682 -0.2050 -0.2760  0.3128
  320SOL    HW1  959   0.681   2.434   1.662  1.3061 -1.8394 -2.0174
  320SOL    HW2  960   0.519   2.441   1.705  0.3738 -1.5463 -0.4168
  321SOL     OW  961   1.604   2.374   2.973 -0.1828 -0.3464  0.1342
  321SOL    HW1  962   1.654   2.419   2.892  2.4119  0.2886  3.2255
  321SOL    HW2  963   1.620   2.428   3.057 -1.2157  0.5952 -0.3757
  322SOL     OW  964   2.759   1.040   1.856  0.2214 -0.0733  0.4534
  322SOL    HW1  965   2.802   1.129   1.838  1.2080 -3.8656  1.8097
  322SOL    HW2  966   2.807   0.980   1.920 -3.9764 -0.4391 -1.2880
  323SOL     OW  967   2.328   0.957   0.773 -0.4584 -0.4246  0.2750
  323SOL    HW1  968   2.357   0.860   0.771 -0.9539  0.0807  0.7152
  323SOL    HW2  969   2.363   1.006   0.692  0.6010 -1.2203  1.2415
  324SOL     OW  970   0.395   2.676   3.039  0.2536  0.0049 -0.6290
  324SOL    HW1  971   0.364   2.648   2.945 -5.7472 -3.9108 -0.7138
  324SOL    HW2  972   0.326   2.654   0.034 -1.8722 -0.1312  2.3706
  325SOL     OW  973   1.268   0.585   2.168 -0.1508  0.1979 -0.2049
  325SOL    HW1  974   1.358   0.575   2.122 -0.0369 -0.5027  0.4918
  325SOL    HW2  975   1.209   0.506   2.154  0.6760  1.1357 -1.2133
  326SOL     OW  976   2.328   2.630   1.609 -0.4243  0.2093 -0.4107
  326SOL    HW1  977   2.422   2.660   1.594 -2.2877 -2.9663  0.4630
  326SOL    HW2  978   2.333   2.531   1.642  0.0480 -3.8166 -0.1026
  327SOL     OW  979   2.003   0.628   2.799 -0.2968  0.1174  0.1764
  327SOL    HW1  980   1.929   0.626   2.866 -0.5260 -0.4759 -0.1456
  327SOL    HW2  981   2.040   0.532   2.793 -0.2038  1.8005  0.4141
  328SOL     OW  982   2.760   1.024   2.372  0.0699 -0.1010  0.2607
  328SOL    HW1  983   2.729   1.022   2.276 -0.6563 -2.0380  1.1830
  328SOL    HW2  984   2.697   0.963   2.421 -1.7479 -2.4163  0.4814
  329SOL     OW  985   1.213   0.156   2.061 -0.0920 -0.1170 -0.2114
  329SOL    HW1  986   1.171   0.077   2.010 -0.0025  0.2719  0.3958
  329SOL    HW2  987   1.315   0.154   2.056  1.9820  0.8694 -0.4935
  330SOL     OW  988   2.854   1.816   1.479 -0.3348 -0.2705  0.0279
  330SOL    HW1  989   2.949   1.830   1.513  0.5719  1.0710  1.9745
  330SOL    HW2  990   2.858   1.773   1.389  0.5637  1.9348 -1.9644
  331SOL     OW  991   0.529   1.404   1.912  0.2552 -0.5191  0.0932
  331SOL    HW1  992   0.519   1.424   2.015 -0.4886  0.9017  1.8706
  331SOL    HW2  993   0.629   1.384   1.896 -1.9550  2.2677 -0.4802
  332SOL     OW  994   0.108   2.877   1.456  0.3264  0.6775  0.2821
  332SOL    HW1  995   0.108   2.896   1.556  1.2435 -1.0413 -1.4133
  332SOL    HW2  996   0.042   2.943   1.405 -0.3670  2.2487 -0.4548
  333SOL     OW  997   2.268   2.807   1.830  0.4368 -0.2262  0.7091
  333SOL    HW1  998   2.332   2.878   1.866 -0.4095  0.1823  2.0915
  333SOL    HW2  999   2.304   2.773   1.741 -0.9451  1.2467  4.0951
  334SOL     OW 1000   0.919   2.042   0.953  0.0150 -0.0025 -0.4719
  334SOL    HW1 1001   0.821   2.050   0.923 -0.3198 -1.6091 -2.2492
  334SOL    HW2 1002   0.968   2.119   0.906 -1.1830  0.7951 -1.0997
  335SOL     OW 1003   0.822   2.272   2.752 -0.3541  0.4139  0.0433
  335SOL    HW1 1004   0.783   2.244   2.839  2.1464  4.1031 -2.5481
  335SOL    HW2 1005   0.886   2.350   2.760 -0.1223 -0.5369 -0.7079
  336SOL     OW 1006   2.935   0.199   1.999  0.2495 -0.1653 -0.8647
  336SOL    HW1 1007   2.899   0.197   1.904 -1.3002  0.2772  1.0540
  336SOL    HW2 1008   3.007   0.130   2.021  0.1826  3.0367 -0.4948
  337SOL     OW 1009   2.699   2.195   0.023 -0.0186  0.1881  0.0470
  337SOL    HW1 1010   2.729   2.272   0.078  0.4947 -2.7264 -2.1692
  337SOL    HW2 1011   2.780   2.147   3.062 -2.0460 -2.5781 -0.3873
  338SOL     OW 1012   1.025   2.109   1.193  0.2628 -0.1739  0.6990
  338SOL    HW1 1013   1.114   2.155   1.172 -0.5589  1.3764 -1.7949
  338SOL    HW2 1014   0.991   2.060   1.108 -2.4994  0.4599  0.6445
  339SOL     OW 1015   2.925   0.465   2.048 -0.2000 -0.1707  0.1086
  339SOL    HW1 1016   2.860   0.522   1.986 -1.1745  3.6572 -0.8273
  339SOL    HW2 1017   2.918   0.363   2.026  0.2686 -1.1776 -0.7195
  340SOL     OW 1018   1.936   2.443   0.570  0.0380 -0.6747 -0.3726
  340SOL    HW1 1019   1.940   2.382   0.492 -0.1438  0.4460  2.6449
  340SOL    HW2 1020   1.843   2.479   0.572  1.9745  0.5673 -1.4519
  341SOL     OW 1021   1.556   1.496   1.110  0.2115  0.2646  0.1758
  341SOL    HW1 1022   1.637   1.505   1.172 -0.2363 -2.3457  1.1798
  341SOL    HW2 1023   1.587   1.521   1.014  0.2645 -2.0795 -0.8862
  342SOL     OW 1024   0.251   1.382   0.590  0.4500 -1.1953  0.3642
  342SOL    HW1 1025   0.242   1.412   0.489 -2.2653  0.4290 -2.3373
  342SOL    HW2 1026   0.159   1.366   0.632 -1.7176  0.8098 -0.3281
  343SOL     OW 1027   1.466   2.928   1.345  0.1654 -0.1202 -0.5986
  343SOL    HW1 1028   1.369   2.970   1.355 -1.8329  2.3269 -1.7525
  343SOL    HW2 1029   1.524   2.946   1.426 -0.4863  0.4803 -0.8309
  344SOL     OW 1030   2.312   2.813   1.055  0.1828 -0.0116  0.7595
  344SOL    HW1 1031   2.227   2.783   1.005 -1.4382 -0.6108 -0.3901
  344SOL    HW2 1032   2.293   2.834   1.155 -0.1795  0.9450  0.7973
  345SOL     OW 1033   2.753   2.294   2.703 -0.1244 -0.4021  0.1830
  345SOL    HW1 1034   2.734   2.373   2.641 -0.1085  0.0198 -4.5201
  345SOL    HW2 1035   2.853   2.284   2.721 -2.7897 -0.5466  1.4624
  346SOL     OW 1036   0.218   1.925   0.758  0.1269 -0.6120 -0.6697
  346SOL    HW1 1037   0.178   1.913   0.666  3.4402  1.4908  1.5294
  346SOL    HW2 1038   0.148   1.941   0.826  3.7833  0.4434  0.1002
  347SOL     OW 1039   1.923   2.427   0.851 -0.5153  0.3126  0.1751
  347SOL    HW1 1040   1.921   2.425   0.747 -0.8827 -0.5842  0.8908
  347SOL    HW2 1041   1.892   2.516   0.889  0.4055  0.0131 -2.6729
  348SOL     OW 1042   1.279   1.469   2.703  0.4508 -0.5616  0.0786
  348SOL    HW1 1043   1.315   1.394   2.642  1.8402  2.8583  1.5101
  348SOL    HW2 1044   1.260   1.554   2.648 -1.9221  0.3291 -0.1416
  349SOL     OW 1045   2.078   0.910   2.126  0.1897 -0.2005 -0.0824
  349SOL    HW1 1046   2.016   0.887   2.053  0.9762 -1.6633 -1.4794
  349SOL    HW2 1047   2.172   0.937   2.091 -1.0621 -1.3966  0.2170
  350SOL     OW 1048   3.018   2.496   1.323  0.2242 -0.7197 -0.5040
  350SOL    HW1 1049   3.003   2.414   1.383  1.0538 -1.9390  0.7391
  350SOL    HW2 1050   0.016   2.480   1.261  1.8835  1.0366  1.5593
  351SOL     OW 1051   0.578   0.300   2.875 -0.3940  0.4505 -0.1997
  351SOL    HW1 1052   0.582   0.213   2.929  0.0863 -1.0401  1.0899
  351SOL    HW2 1053   0.657   0.311   2.815 -2.1381 -2.4543  1.1502
  352SOL     OW 1054   0.763   2.670   1.435 -0.2748  0.4786  0.0612
  352SOL    HW1 1055   0.833   2.676   1.507  0.3768  0.2783 -1.6486
  352SOL    HW2 1056   0.677   2.703   1.477 -1.6235 -1.8066 -1.9078
  353SOL     OW 1057   1.018   0.719   2.639  0.5251 -0.5924 -0.0701
  353SOL    HW1 1058   0.976   0.799   2.589 -0.3576  0.7716 -4.3023
  353SOL    HW2 1059   1.082   0.751   2.712 -1.1777  0.8363 -1.4425
  354SOL     OW 1060   1.384   1.113   0.586  0.2465 -0.2570  0.0798
  354SOL    HW1 1061   1.339   1.018   0.585 -0.8849 -0.5945 -0.9961
  354SOL    HW2 1062   1.450   1.117   0.512 -1.7631 -0.4536  1.8998
  355SOL     OW 1063   2.809   0.211   0.270 -0.1838 -0.3076 -0.9316
  355SOL    HW1 1064   2.874   0.214   0.195  0.2934 -0.5268  4.2105
  355SOL    HW2 1065   2.718   0.166   0.245  2.4377 -1.1668 -3.2421
  356SOL     OW 1066   2.933   0.973   2.589  0.1355  0.1696 -0.3463
  356SOL    HW1 1067   3.002   0.940   2.522 -2.1528  2.5185  0.1015
  356SOL    HW2 1068   2.859   1.026   2.544 -4.2821  0.0572 -2.2264
  357SOL     OW 1069   0.665   2.835   1.812  0.6069 -0.2578  0.1762
  357SOL    HW1 1070   0.676   2.928   1.771 -0.7559  1.9100  1.3801
  357SOL    HW2 1071   0.609   2.786   1.748  1.8865  0.6447  2.1926
  358SOL     OW 1072   2.582   1.213   2.549  0.0662  0.3992 -0.3553
  358SOL    HW1 1073   2.602   1.314   2.536 -0.0783  0.2004 -0.4926
  358SOL    HW2 1074   2.530   1.170   2.473  1.1072  1.1937  0.5981
  359SOL     OW 1075   2.473   2.503   2.592 -0.0491  0.4821 -0.0605
  359SOL    HW1 1076   2.404   2.573   2.566 -1.5732 -0.7287  1.0284
  359SOL    HW2 1077   2.437   2.410   2.568  0.9527  2.3231 -0.4972
  360SOL     OW 1078   2.104   0.776   0.993 -0.2674  0.1718  0.5084
  360SOL    HW1 1079   2.130   0.706   0.926 -3.8514  1.4243  1.4380
  360SOL    HW2 1080   2.186   0.825   1.042 -1.0326  1.5554  0.1884
  361SOL     OW 1081   1.835   2.705   0.931 -0.7387  0.5481  0.8066
  361SOL    HW1 1082   1.770   2.784   0.927  0.2964 -0.6211 -0.1525
  361SOL    HW2 1083   1.930   2.740   0.909  1.7319 -0.2446 -0.0180
  362SOL     OW 1084   1.475   1.178   0.838 -0.0421 -0.0667 -0.1603
  362SOL    HW1 1085   1.436   1.149   0.751  0.4472  2.7334  0.0692
  362SOL    HW2 1086   1.569   1.220   0.824  0.6849 -1.9461  1.6478
  363SOL     OW 1087   2.966   1.704   2.437  0.6880  0.4001 -0.0594
  363SOL    HW1 1088   3.019   1.723   2.356 -0.7193 -0.4966  0.5835
  363SOL    HW2 1089   2.930   1.610   2.439 -0.1119  1.3447 -1.5662
  364SOL     OW 1090   1.193   0.564   1.392 -0.4354 -0.2434  0.4048
  364SOL    HW1 1091   1.232   0.509   1.466  1.0746 -0.1591  0.8075
  364SOL    HW2 1092   1.272   0.580   1.327  4.0025 -0.2091  0.6630
  365SOL     OW 1093   3.034   3.062   1.355  0.4453 -0.1707 -0.4020
  365SOL    HW1 1094   0.038   0.031   1.317  2.8653  2.2892 -0.8316
  365SOL    HW2 1095   2.973   3.030   1.282  1.0554 -0.0631 -0.4799
  366SOL     OW 1096   2.927   1.371   0.086 -0.1060 -0.0890 -0.8465
  366SOL    HW1 1097   2.884   1.408   0.168  1.9836 -1.6876 -1.2263
  366SOL    HW2 1098   2.932   1.271   0.098  2.8565  1.3421 -1.2066
  367SOL     OW 1099   2.771   2.029   2.752  0.1357  0.0440  0.4145
  367SOL    HW1 1100   2.751   2.121   2.708 -3.1968  0.9718  0.1783
  367SOL    HW2 1101   2.829   2.039   2.835 -1.1177  0.1712 -1.4577
  368SOL     OW 1102   2.988   2.136   1.091  0.3688 -0.5005 -0.1652
  368SOL    HW1 1103   2.917   2.208   1.070 -0.3909  0.8956  1.2264
  368SOL    HW2 1104   3.041   2.122   1.005  1.5599  1.8056  0.1729
  369SOL     OW 1105   0.506   0.285   0.475 -0.1488  0.1229 -0.0578
  369SOL    HW1 1106   0.478   0.266   0.379  0.7308 -1.2612 -0.7682
  369SOL    HW2 1107   0.575   0.217   0.503  0.6203 -0.9513  2.6348
  370SOL     OW 1108   0.565   1.047   1.410  0.0906 -0.1342  0.1914
  370SOL    HW1 1109   0.503   1.003   1.341 -1.6976 -1.7451 -1.1075
  370SOL    HW2 1110   0.658   1.000   1.412 -0.9897  0.8213  0.5387
  371SOL     OW 1111   2.391   1.994   0.730  0.1978 -0.0321 -0.4493
  371SOL    HW1 1112   2.357   1.902   0.711  0.9274 -0.3763 -2.0188
  371SOL    HW2 1113   2.430   2.036   0.643  0.1813 -1.0538  1.0339
  372SOL     OW 1114   0.015   0.830   2.421  0.3483  0.3798 -0.2243
  372SOL    HW1 1115   0.065   0.764   2.480 -1.2247  0.2326 -2.0308
  372SOL    HW2 1116   0.069   0.854   2.334 -1.2842  1.0095 -3.3348
  373SOL     OW 1117   2.857   1.494   0.340 -0.4119 -0.6698  0.0066
  373SOL    HW1 1118   2.906   1.569   0.395  2.1989  1.8761 -0.0473
  373SOL    HW2 1119   2.835   1.412   0.399 -0.8722  0.4421  0.0635
  374SOL     OW 1120   0.560   2.527   0.124 -0.4952 -0.1999 -0.3158
  374SOL    HW1 1121   0.566   2.567   0.219 -0.1235 -0.4177 -1.3141
  374SOL    HW2 1122   0.527   2.598   0.058  0.4021  0.0926 -0.4133
  375SOL     OW 1123   0.710   0.281   0.174  0.1792 -0.3165  0.1378
  375SOL    HW1 1124   0.776   0.325   0.109  0.9166 -1.4913  0.7737
  375SOL    HW2 1125   0.691   0.183   0.151  0.9616  1.7146 -1.0273
  376SOL     OW 1126   0.064   0.024   2.068 -0.4411  0.1484 -0.6021
  376SOL    HW1 1127   0.001   3.043   2.120 -0.1260  1.1718  1.1121
  376SOL    HW2 1128   0.150   3.057   2.040 -3.1857 -0.8802  1.0588
  377SOL     OW 1129   0.730   1.920   2.208  0.2452  0.0478 -0.5950
  377SOL    HW1 1130   0.767   1.926   2.305 -0.3039  1.6439  1.7905
  377SOL    HW2 1131   0.717   1.823   2.173 -0.2391 -4.2585 -0.4615
  378SOL     OW 1132   1.274   0.880   0.547 -0.5511  0.6755  0.2724
  378SOL    HW1 1133   1.303   0.906   0.453 -3.8408  1.0125 -0.6229
  378SOL    HW2 1134   1.173   0.892   0.559  0.0308 -1.6520  0.3602
  379SOL     OW 1135   1.021   1.490   0.146 -0.2552  0.5370 -0.2235
  379SOL    HW1 1136   0.952   1.553   0.189 -1.4734  1.5004 -0.2730
  379SOL    HW2 1137   1.077   1.448   0.220  1.1520 -0.0211  2.0033
  380SOL     OW 1138   0.012   1.942   1.896  0.1696  0.2616 -0.6652
  380SOL    HW1 1139   0.090   1.974   1.846 -3.7744  2.0860  3.0168
  380SOL    HW2 1140   3.068   1.848   1.876 -0.0045  1.6292  2.5973
  381SOL     OW 1141   0.251   0.922   1.753 -0.1944 -0.4487 -0.3846
  381SOL    HW1 1142   0.329   0.907   1.686  2.3478  1.8949  1.3969
  381SOL    HW2 1143   0.159   0.943   1.709  0.8407 -0.9255  1.8651
  382SOL     OW 1144   2.564   2.307   2.891 -0.1997 -0.2143  0.2208
  382SOL    HW1 1145   2.651   2.308   2.834  1.7303 -1.9203 -2.3110
  382SOL    HW2 1146   2.569   2.234   2.956 -1.3490 -0.8140 -1.9977
  383SOL     OW 1147   2.255   1.803   2.442 -0.4215  0.2402 -0.2997
  383SOL    HW1 1148   2.267   1.741   2.362  0.1796  0.7576 -3.1526
  383SOL    HW2 1149   2.198   1.767   2.518 -1.9673 -0.1732 -0.0769
  384SOL     OW 1150   0.692   2.307   2.105  0.2433 -0.3995  0.2375
  384SOL    HW1 1151   0.647   2.396   2.082 -2.2181 -1.3469 -0.8349
  384SOL    HW2 1152   0.662   2.237   2.036 -1.0180  0.4943 -0.1862
  385SOL     OW 1153   2.754   1.929   1.070 -0.4632  0.1845 -0.1314
  385SOL    HW1 1154   2.842   1.976   1.080  0.0596 -0.0253 -0.2178
  385SOL    HW2 1155   2.712   1.913   1.163 -1.1274 -1.0065 -0.5461
  386SOL     OW 1156   1.771   0.991   2.996 -0.0423  0.0966  0.2011
  386SOL    HW1 1157   1.728   0.941   2.921  2.9335  2.0002  2.4841
  386SOL    HW2 1158   1.762   0.939   0.003 -2.5079  0.7470  1.2817
  387SOL     OW 1159   0.520   0.952   1.693  0.2254  0.0365  0.3545
  387SOL    HW1 1160   0.560   0.987   1.604 -1.6532 -0.5513  0.9186
  387SOL    HW2 1161   0.510   1.027   1.765 -0.4956 -0.2209  0.4744
  388SOL     OW 1162   2.858   0.881   1.481  0.3767  0.1785  0.5374
  388SOL    HW1 1163   2.801   0.828   1.416  0.1724  1.2761  0.4162
  388SOL    HW2 1164   2.846   0.977   1.444  0.6537  3.5862  1.3442
  389SOL     OW 1165   1.700   1.038   2.521 -0.0493  1.1721 -0.3615
  389SOL    HW1 1166   1.777   1.095   2.497  1.7445  0.9340 -0.5260
  389SOL    HW2 1167   1.637   1.085   2.580 -0.0971 -1.7110 -0.4873
  390SOL     OW 1168   2.311   2.367   0.493 -0.2966  0.0976 -0.8553
  390SOL    HW1 1169   2.280   2.394   0.592  0.2165  2.7840  1.8654
  390SOL    HW2 1170   2.363   2.280   0.485  0.5534 -1.0507 -1.7230
  391SOL     OW 1171   1.437   2.728   0.728 -0.2498 -0.9476  0.2276
  391SOL    HW1 1172   1.505   2.790   0.682  1.7944  0.3851  0.4206
  391SOL    HW2 1173   1.478   2.649   0.778 -1.2367  0.2001 -1.8528
  392SOL     OW 1174   2.627   2.715   1.598 -0.8119 -0.0513 -0.1055
  392SOL    HW1 1175   2.684   2.662   1.532 -0.2822  0.1031 -1.1175
  392SOL    HW2 1176   2.593   2.804   1.564 -0.1153  3.4636  2.4068
  393SOL     OW 1177   1.881   1.914   2.816  0.5263  0.1514  0.2382
  393SOL    HW1 1178   1.855   2.011   2.838  1.0113  0.5399  1.9623
  393SOL    HW2 1179   1.874   1.858   2.901  0.1103  0.6591 -0.6716
  394SOL     OW 1180   0.650   2.602   2.876  0.0373  0.3003 -0.2676
  394SOL    HW1 1181   0.620   2.511   2.903  0.1160 -1.6560  0.4334
  394SOL    HW2 1182   0.744   2.620   2.901 -0.4357 -0.8611  3.4278
  395SOL     OW 1183   0.798   1.616   1.042  1.0338  0.3761 -0.5796
  395SOL    HW1 1184   0.710   1.622   0.996  1.9671  1.1194  2.0827
  395SOL    HW2 1185   0.796   1.644   1.140  0.9140 -2.2404  0.9124
  396SOL     OW 1186   1.847   0.799   2.566  0.3118 -0.2205  0.0540
  396SOL    HW1 1187   1.794   0.888   2.558 -0.6365  2.0814 -0.1714
  396SOL    HW2 1188   1.813   0.745   2.638  0.8491  1.4133 -1.7042
  397SOL     OW 1189   2.877   0.739   2.762  0.2299  0.3352 -0.0048
  397SOL    HW1 1190   2.898   0.817   2.699  3.2485  1.4221 -0.2948
  397SOL    HW2 1191   2.948   0.666   2.747 -0.6436 -0.9402 -0.4086
  398SOL     OW 1192   1.270   0.428   0.268  0.1450  0.0481 -0.1581
  398SOL    HW1 1193   1.348   0.390   0.224 -5.9045  1.9111  1.2949
  398SOL    HW2 1194   1.240   0.374   0.347 -1.6401  0.7935 -3.8895
  399SOL     OW 1195   1.850   3.027   1.725  0.0845 -0.6593 -0.0515
  399SOL    HW1 1196   1.811   3.003   1.634 -1.3721  2.4246  1.5223
  399SOL    HW2 1197   1.831   2.950   1.793  0.4557 -3.0276  1.0842
  400SOL     OW 1198   2.977   2.159   2.332 -0.5777 -0.1088 -0.2398
  400SOL    HW1 1199   2.990   2.089   2.406 -1.0545  0.3093 -0.1905
  400SOL    HW2 1200   2.969   2.116   2.237 -1.2480 -1.2095 -0.1271
  401SOL     OW 1201   0.655   0.028   0.217  0.2552 -0.2517 -0.1352
  401SOL    HW1 1202   0.566   0.002   0.259 -1.8210 -1.3026  2.4251
  401SOL    HW2 1203   0.656   3.072   0.123 -1.3838 -1.1668  0.0968
  402SOL     OW 1204   0.165   2.398   1.512 -0.2836  0.2474 -0.0607
  402SOL    HW1 1205   0.210   2.344   1.589  0.4988 -0.4061  1.4875
  402SOL    HW2 1206   0.061   2.390   1.507 -0.6033  0.2921 -2.6159
  403SOL     OW 1207   0.144   1.005   1.427  0.2390  0.7098 -0.4435
  403SOL    HW1 1208   0.090   0.987   1.515 -0.9925 -1.7756  1.9211
  403SOL    HW2 1209   0.127   0.927   1.363 -2.4966 -0.0066  3.3935
  404SOL     OW 1210   0.031   2.423   2.183 -0.0787  0.4083  0.3882
  404SOL    HW1 1211   0.006   2.334   2.227  0.6131  1.9294 -0.1927
  404SOL    HW2 1212   0.054   2.496   2.250  0.5484  1.9509 -0.6176
  405SOL     OW 1213   2.542   0.265   2.313 -0.2840 -0.2652  0.0316
  405SOL    HW1 1214   2.445   0.254   2.288 -2.4094  0.0328  2.6983
  405SOL    HW2 1215   2.557   0.349   2.367  0.9708  0.3754 -2.4419
  406SOL     OW 1216   2.175   2.367   0.262  0.0978  0.1791 -0.7266
  406SOL    HW1 1217   2.216   2.379   0.357  1.7365  0.1431  1.1365
  406SOL    HW2 1218   2.080   2.400   0.261  0.2324  0.2183 -1.0345
  407SOL     OW 1219   1.856   1.532   0.680  0.1417  0.8206 -0.4055
  407SOL    HW1 1220   1.815   1.570   0.763 -0.2795  0.3318  0.5404
  407SOL    HW2 1221   1.832   1.583   0.599  0.0326 -2.3054  2.4601
  408SOL     OW 1222   0.462   0.399   2.274  0.3242 -0.0521  0.2033
  408SOL    HW1 1223   0.448   0.347   2.188 -0.7327  0.3668 -0.0663
  408SOL    HW2 1224   0.550   0.456   2.273  0.7052  0.5214 -1.9691
  409SOL     OW 1225   2.885   1.741   0.495 -0.7585  0.0125 -0.1457
  409SOL    HW1 1226   2.799   1.751   0.546  1.9828  2.1006  2.4830
  409SOL    HW2 1227   2.878   1.787   0.405  0.5915  0.2867  0.2397
  410SOL     OW 1228   2.035   1.484   1.347 -0.1237 -0.7498  0.0974
  410SOL    HW1 1229   2.135   1.478   1.320 -0.7858 -1.1648  0.1391
  410SOL    HW2 1230   2.027   1.515   1.445 -2.6918  2.2502  1.7016
  411SOL     OW 1231   0.011   0.744   0.394  0.0011  0.4054  0.6121
  411SOL    HW1 1232   0.065   0.655   0.385 -0.5830 -2.6891  0.0125
  411SOL    HW2 1233   3.001   0.744   0.442 -2.3958  0.1479 -3.5463
  412SOL     OW 1234   1.931   0.642   0.062  0.4530  0.2752  0.2362
  412SOL    HW1 1235   1.883   0.732   0.070 -0.5811  1.4972  0.2215
  412SOL    HW2 1236   1.926   0.588   0.150 -1.2072 -1.3145 -1.1083
  413SOL     OW 1237   0.848   0.731   1.587 -0.0349  0.5648  0.0742
  413SOL    HW1 1238   0.830   0.636   1.549  2.4044  0.4581  0.6755
  413SOL    HW2 1239   0.818   0.806   1.521  1.2309  0.6455 -2.7071
  414SOL     OW 1240   0.089   1.179   3.016  0.5681  0.0627  0.0105
  414SOL    HW1 1241   0.098   1.276   2.983 -1.2777 -1.4673 -2.2508
  414SOL    HW2 1242   0.038   1.129   2.943  2.4156 -0.6259 -3.0088
  415SOL     OW 1243   0.245   1.408   0.318  0.5087 -0.5130  0.2758
  415SOL    HW1 1244   0.194   1.480   0.271 -0.8429 -2.9037  0.8016
  415SOL    HW2 1245   0.206   1.320   0.292  0.0849  4.3101 -3.3194
  416SOL     OW 1246   1.766   0.747   0.408  0.0840  0.9965  0.1458
  416SOL    HW1 1247   1.668   0.725   0.383  2.6865 -1.3157  0.1372
  416SOL    HW2 1248   1.830   0.666   0.408  0.5736 -0.6210 -1.4958
  417SOL     OW 1249   0.177   0.177   0.935  0.3867  0.0096 -0.1820
  417SOL    HW1 1250   0.190   0.268   0.975 -1.9535 -1.1941 -0.8068
  417SOL    HW2 1251   0.247   0.152   0.864 -1.9225  2.8026  0.5804
  418SOL     OW 1252   2.114   0.935   0.077  0.0643  0.5865 -0.3577
  418SOL    HW1 1253   2.147   0.901   3.068  0.3574 -1.0021  0.8693
  418SOL    HW2 1254   2.038   0.996   0.053 -0.9378 -0.3096  0.8730
  419SOL     OW 1255   0.413   0.301   0.182 -0.3949  0.2351  0.2444
  419SOL    HW1 1256   0.376   0.391   0.159  0.5208 -0.0870 -2.7411
  419SOL    HW2 1257   0.515   0.296   0.164  2.8619  0.8020  1.4216
  420SOL     OW 1258   0.584   1.589   0.841  0.0073  0.6967  0.1128
  420SOL    HW1 1259   0.612   1.490   0.841 -2.1864 -0.4580  2.0316
  420SOL    HW2 1260   0.483   1.591   0.830  0.9858 -1.1335  1.4416
  421SOL     OW 1261   0.410   2.200   0.137  0.1049 -0.0281  0.1596
  421SOL    HW1 1262   0.439   2.102   0.136  2.6984 -1.0689 -1.3768
  421SOL    HW2 1263   0.400   2.236   0.039  0.4782  0.5447 -3.1750
  422SOL     OW 1264   2.395   0.327   1.698 -0.5984 -0.1155  0.4863
  422SOL    HW1 1265   2.427   0.391   1.623  3.3996  0.6617  0.1711
  422SOL    HW2 1266   2.296   0.323   1.707 -1.1299  1.4222 -1.5826
  423SOL     OW 1267   2.085   1.471   0.876 -0.6653  0.2228 -0.1535
  423SOL    HW1 1268   2.079   1.468   0.776  0.6973 -0.9816  0.1196
  423SOL    HW2 1269   2.175   1.512   0.900  0.4075 -0.5896 -1.4372
  424SOL     OW 1270   2.101   1.478   0.132 -0.3637 -0.6885  0.0950
  424SOL    HW1 1271   2.094   1.545   0.054 -0.4890  1.7254  0.9143
  424SOL    HW2 1272   2.082   1.523   0.221 -1.2622  0.9245 -2.0494
  425SOL     OW 1273   0.397   3.019   2.533  0.2075  0.2956  0.3378
  425SOL    HW1 1274   0.434   0.031   2.506  0.5125  0.1594  1.1036
  425SOL    HW2 1275   0.434   2.947   2.470  0.5306 -1.9439  2.6011
  426SOL     OW 1276   2.291   2.715   2.586  0.1081 -0.0806 -0.1987
  426SOL    HW1 1277   2.262   2.769   2.667 -0.5157  1.8047  3.0951
  426SOL    HW2 1278   2.369   2.757   2.533  0.4585 -1.0230 -0.6362
  427SOL     OW 1279   0.642   0.965   2.145 -0.5283 -0.0324 -0.4696
  427SOL    HW1 1280   0.683   0.897   2.212  1.5101 -0.8494  3.1571
  427SOL    HW2 1281   0.646   1.059   2.184  0.5324 -0.5286 -0.4987
  428SOL     OW 1282   2.006   1.208   2.157 -0.4624 -0.7265 -0.2014
  428SOL    HW1 1283   2.001   1.109   2.143 -0.8527 -1.1553 -0.0469
  428SOL    HW2 1284   2.092   1.244   2.121  0.3997 -0.4836 -0.9309
  429SOL     OW 1285   2.450   0.207   0.454  0.0334  0.1175 -0.1408
  429SOL    HW1 1286   2.425   0.214   0.356 -2.1714  0.6187 -2.0864
  429SOL    HW2 1287   2.454   0.299   0.500 -0.2193 -3.6654  1.9741
  430SOL     OW 1288   1.523   1.464   2.000  0.0617 -0.4283 -0.1109
  430SOL    HW1 1289   1.525   1.373   1.953 -1.5953  0.4096 -0.1074
  430SOL    HW2 1290   1.477   1.534   1.937  2.2993  2.7010 -0.6026
  431SOL     OW 1291   2.702   1.838   1.679 -0.1240  0.0311  0.1834
  431SOL    HW1 1292   2.762   1.819   1.602 -1.0591 -1.5499  0.8638
  431SOL    HW2 1293   2.723   1.928   1.724 -0.0851  4.7485  0.0711
  432SOL     OW 1294   0.893   2.678   1.864  0.2339 -0.0525 -0.1616
  432SOL    HW1 1295   0.870   2.593   1.809 -2.7323  1.2867 -2.8440
  432SOL    HW2 1296   0.807   2.732   1.882  0.0285  4.4540 -0.3437
  433SOL     OW 1297   1.603   2.880   0.905 -0.0867 -0.4886  0.2394
  433SOL    HW1 1298   1.607   2.981   0.889 -1.8055  3.7836  0.7072
  433SOL    HW2 1299   1.503   2.857   0.930 -2.3644  0.4322  1.6095
  434SOL     OW 1300   0.412   2.040   1.995 -0.0407  0.2282 -0.8748
  434SOL    HW1 1301   0.508   2.070   1.962  1.9638 -0.1989 -1.7199
  434SOL    HW2 1302   0.344   2.066   1.926 -0.3803  2.0568 -1.2509
  435SOL     OW 1303   0.517   1.497   0.401 -0.0248  0.8709 -0.3894
  435SOL    HW1 1304   0.472   1.426   0.347  1.1008  2.9790  0.9345
  435SOL    HW2 1305   0.479   1.587   0.383  1.2376 -0.7553 -1.9131
  436SOL     OW 1306   0.247   1.396   1.902 -0.3643 -0.7357 -0.0300
  436SOL    HW1 1307   0.171   1.409   1.833 -0.3721 -0.8020  1.6515
  436SOL    HW2 1308   0.334   1.418   1.857  0.1445 -3.3651  1.3538
  437SOL     OW 1309   1.291   0.465   2.896 -0.3191  0.4496  0.2384
  437SOL    HW1 1310   1.371   0.526   2.917  2.2727  1.0085  0.8063
  437SOL    HW2 1311   1.245   0.488   2.808  0.5954 -0.3357 -1.0312
  438SOL     OW 1312   0.525   1.934   1.494  0.0484  0.6475 -0.1378
  438SOL    HW1 1313   0.483   1.990   1.421 -1.0936 -2.3336  1.0508
  438SOL    HW2 1314   0.628   1.952   1.507  1.3953 -0.4881  0.7456
  439SOL     OW 1315   1.881   1.732   3.039  0.7824 -0.4050 -0.1292
  439SOL    HW1 1316   1.925   1.749   0.049 -0.0801 -0.7240  1.1286
  439SOL    HW2 1317   1.916   1.657   2.986  1.3719  2.8294 -0.4984
  440SOL     OW 1318   1.546   0.430   0.636 -0.4822 -0.2841  0.4686
  440SOL    HW1 1319   1.533   0.373   0.716  0.1935  1.3982 -3.4780
  440SOL    HW2 1320   1.466   0.493   0.631 -0.9912 -1.9727 -1.2365
  441SOL     OW 1321   0.530   2.722   1.576 -0.0259 -0.4305  0.2903
  441SOL    HW1 1322   0.448   2.660   1.586  0.9814 -0.2447  0.1585
  441SOL    HW2 1323   0.518   2.785   1.499  1.1564 -0.8844  3.3691
  442SOL     OW 1324   2.540   2.386   0.954  0.0038 -0.0788 -0.3750
  442SOL    HW1 1325   2.458   2.439   0.983 -0.2415 -2.3026  0.2261
  442SOL    HW2 1326   2.532   2.285   0.948  1.9247  1.0534  1.1357
  443SOL     OW 1327   2.595   0.860   2.490 -0.4437  0.0200 -0.0414
  443SOL    HW1 1328   2.549   0.786   2.438  0.6919 -0.4422 -2.0010
  443SOL    HW2 1329   2.534   0.918   2.548  0.9704  0.4209  1.3179
  444SOL     OW 1330   1.536   0.864   2.413 -0.2921 -0.9436 -0.5594
  444SOL    HW1 1331   1.572   0.949   2.453 -3.1881 -1.3635  0.7791
  444SOL    HW2 1332   1.513   0.872   2.314 -1.8317  1.4323 -1.7099
  445SOL     OW 1333   2.768   2.283   1.666 -0.2959 -0.6501 -0.1296
  445SOL    HW1 1334   2.751   2.209   1.733  1.7611 -0.5608  0.0482
  445SOL    HW2 1335   2.768   2.378   1.700  1.3565 -1.0168  0.6136
  446SOL     OW 1336   3.054   1.290   0.605 -0.1700  0.1717  0.1150
  446SOL    HW1 1337   0.027   1.206   0.639  0.6392 -1.2916 -0.6976
  446SOL    HW2 1338   2.987   1.256   0.537 -3.8234 -0.5700 -1.4854
  447SOL     OW 1339   0.875   2.402   0.789 -0.2935 -0.1495 -0.0986
  447SOL    HW1 1340   0.822   2.452   0.858  0.6271  2.6443 -0.7411
  447SOL    HW2 1341   0.821   2.326   0.740  0.1383 -1.9342 -0.3085
  448SOL     OW 1342   1.577   1.532   1.667  0.6559 -0.0911  0.1170
  448SOL    HW1 1343   1.645   1.473   1.709 -0.1114  0.8617 -2.8587
  448SOL    HW2 1344   1.499   1.485   1.621 -2.3986  0.4151  0.0251
  449SOL     OW 1345   0.840   1.746   2.816  0.2829  0.2870 -1.1339
  449SOL    HW1 1346   0.916   1.816   2.819  0.2855  2.9040  0.1105
  449SOL    HW2 1347   0.874   1.666   2.759 -1.4597  0.4443  1.5346
  450SOL     OW 1348   2.914   2.042   2.108 -0.2555 -0.2626  0.6847
  450SOL    HW1 1349   2.831   1.989   2.109  3.6668  1.2544 -0.3444
  450SOL    HW2 1350   2.984   2.004   2.051 -2.3222 -1.6179  3.1181
  451SOL     OW 1351   1.877   0.494   1.608  0.5313  0.6198 -0.0272
  451SOL    HW1 1352   1.971   0.493   1.571 -3.0055  1.0655 -0.2680
  451SOL    HW2 1353   1.839   0.591   1.617  0.1606  3.2753  0.9381
  452SOL     OW 1354   0.809   2.752   1.189  0.2384 -0.6229  0.2127
  452SOL    HW1 1355   0.813   2.710   1.286  0.0940 -0.4202  1.9382
  452SOL    HW2 1356   0.708   2.784   1.178  0.2802  2.5714 -0.2436
  453SOL     OW 1357   1.034   1.791   0.953  0.5127  0.0692 -0.0542
  453SOL    HW1 1358   0.956   1.732   0.986 -1.2752  2.8965  0.7768
  453SOL    HW2 1359   1.005   1.887   0.962 -0.8969 -3.9583  0.3205
  454SOL     OW 1360   3.070   0.977   0.806  0.0037 -0.0338  0.2780
  454SOL    HW1 1361   3.044   0.883   0.770  0.2414  1.7988  1.1854
  454SOL    HW2 1362   0.090   0.997   0.785 -0.4937  0.7186  1.3867
  455SOL     OW 1363   0.338   0.598   0.400  0.1263 -0.0137 -0.3623
  455SOL    HW1 1364   0.252   0.556   0.434 -0.5337 -0.1423  0.7269
  455SOL    HW2 1365   0.423   0.558   0.444 -1.0465 -0.3330  0.0730
  456SOL     OW 1366   2.267   2.412   0.753  0.2565 -0.0156  0.2720
  456SOL    HW1 1367   2.267   2.462   0.842 -1.5298 -1.2172 -1.1579
  456SOL    HW2 1368   2.227   2.318   0.766  1.2869  0.1190 -1.4546
  457SOL     OW 1369   1.550   2.678   0.067 -0.1715 -0.6434 -0.7063
  457SOL    HW1 1370   1.530   2.768   0.112 -0.2154  2.3036 -0.3122
  457SOL    HW2 1371   1.536   2.682   3.042 -1.4904  0.4440 -3.8797
  458SOL     OW 1372   2.824   3.042   3.040 -0.0038  0.1517 -0.4596
  458SOL    HW1 1373   2.737   3.012   3.075  0.9490  1.0427  1.2172
  458SOL    HW2 1374   2.847   2.992   2.955 -1.1143 -0.6684  0.6125
  459SOL     OW 1375   2.127   0.240   1.730  0.3795 -0.3312  0.1809
  459SOL    HW1 1376   2.147   0.147   1.696 -0.6729  0.5054  0.3250
  459SOL    HW2 1377   2.036   0.238   1.783 -3.6279  0.3497 -2.2199
  460SOL     OW 1378   3.012   0.505   0.142 -0.5702  0.2231 -0.3051
  460SOL    HW1 1379   3.073   0.533   0.063 -0.8773 -1.0863  0.0804
  460SOL    HW2 1380   2.920   0.554   0.141 -3.1194 -0.7240 -0.9433
  461SOL     OW 1381   0.016   2.091   1.365  0.3519  0.1015 -0.0833
  461SOL    HW1 1382   3.049   2.100   1.271  0.9370  2.3830 -2.7033
  461SOL    HW2 1383   0.107   2.059   1.351 -2.2961  1.4432  0.8383
  462SOL     OW 1384   3.010   0.050   0.903 -0.2824 -0.4917 -0.5135
  462SOL    HW1 1385   0.020   0.104   0.912  1.5020  0.9550 -0.6200
  462SOL    HW2 1386   2.946   0.088   0.968  2.7548  0.6313  0.2431
  463SOL     OW 1387   2.496   1.373   3.016 -0.4883 -0.2787 -0.1548
  463SOL    HW1 1388   2.417   1.382   2.952  0.3574  4.2635 -0.5131
  463SOL    HW2 1389   2.581   1.366   2.962  1.7227  1.8231  0.0452
  464SOL     OW 1390   0.506   2.800   1.067 -0.1655  0.5829 -0.4690
  464SOL    HW1 1391   0.491   2.894   1.048  2.1902 -2.3545  1.4322
  464SOL    HW2 1392   0.490   2.777   1.164  4.0371  0.1423 -1.3126
  465SOL     OW 1393   0.764   0.571   1.170  0.6447  0.6666  0.3671
  465SOL    HW1 1394   0.865   0.576   1.179 -1.8854  0.6479 -0.4034
  465SOL    HW2 1395   0.734   0.582   1.075  1.9536  0.7448  0.1929
  466SOL     OW 1396   1.514   2.252   2.211 -0.0866  0.1194 -0.4471
  466SOL    HW1 1397   1.582   2.260   2.134  2.0494  1.5098 -0.8311
  466SOL    HW2 1398   1.548   2.283   2.302 -0.2765 -0.4249  0.5693
  467SOL     OW 1399   0.766   0.136   1.981  0.1566 -0.4421 -1.0275
  467SOL    HW1 1400   0.809   0.173   2.068 -2.0067  0.9299  0.4676
  467SOL    HW2 1401   0.827   0.065   1.946  0.0688 -0.0456  0.9098
  468SOL     OW 1402   0.154   1.089   2.295 -0.3558 -0.1344  0.2937
  468SOL    HW1 1403   0.206   1.158   2.237 -3.3427  1.3405  1.2766
  468SOL    HW2 1404   0.206   1.003   2.284  0.7813  2.7054  1.3326
  469SOL     OW 1405   0.778   2.553   0.588  0.3395  0.0569  0.0842
  469SOL    HW1 1406   0.843   2.631   0.571  1.5870  5.5200 -1.5467
  469SOL    HW2 1407   0.818   2.486   0.653  0.2780  2.9805  1.9405
  470SOL     OW 1408   2.320   1.328   2.353  0.7386 -0.6356 -0.2627
  470SOL    HW1 1409   2.316   1.424   2.312  3.0570  1.7073  1.4164
  470SOL    HW2 1410   2.344   1.336   2.450 -0.1516  2.1834 -1.2849
  471SOL     OW 1411   1.000   2.439   2.877 -0.8708 -0.2676  0.0176
  471SOL    HW1 1412   1.077   2.395   2.934  1.8781 -0.5166  3.8743
  471SOL    HW2 1413   0.951   2.506   2.936 -1.1450  1.5574  0.3784
  472SOL     OW 1414   0.389   2.548   1.835 -0.3306  0.1086  0.1007
  472SOL    HW1 1415   0.326   2.534   1.917  0.9493  0.5021 -1.6530
  472SOL    HW2 1416   0.347   2.613   1.770 -0.0254  0.6058  1.2478
  473SOL     OW 1417   0.860   0.034   3.040  0.1345  0.0008  0.6380
  473SOL    HW1 1418   0.915   0.049   2.957  1.4283 -1.7717  1.1328
  473SOL    HW2 1419   0.769   0.071   3.019  2.8432 -1.4844 -0.6530
  474SOL     OW 1420   1.720   0.144   0.906 -0.3723 -0.4639 -0.0914
  474SOL    HW1 1421   1.738   0.092   0.818 -1.8581  0.2684 -1.8137
  474SOL    HW2 1422   1.788   0.213   0.922 -2.3321 -1.5381  2.2136
  475SOL     OW 1423   1.474   0.318   1.321 -0.4020  0.5791 -0.2842
  475SOL    HW1 1424   1.467   0.317   1.219 -0.3640 -1.2935  0.0642
  475SOL    HW2 1425   1.566   0.351   1.344 -0.5153  0.4969  1.6002
  476SOL     OW 1426   0.214   1.006   1.068  0.0351 -0.2200 -0.6453
  476SOL    HW1 1427   0.133   1.036   1.123 -1.9103 -0.4334 -0.0849
  476SOL    HW2 1428   0.265   1.081   1.019  0.6950  2.2245 -1.0333
  477SOL     OW 1429   1.277   2.496   0.674 -0.3992 -0.2710 -0.1279
  477SOL    HW1 1430   1.337   2.534   0.602  2.8065  1.0245  0.2844
  477SOL    HW2 1431   1.254   2.566   0.743  0.6640 -1.8706  1.1648
  478SOL     OW 1432   0.130   2.657   2.298  0.2090  0.1261  0.3287
  478SOL    HW1 1433   0.115   2.711   2.385  1.5217 -0.1680 -1.4797
  478SOL    HW2 1434   0.185   2.714   2.236 -4.2242 -1.7543 -2.2766
  479SOL     OW 1435   2.844   0.484   1.260 -0.0647 -0.0223 -0.3172
  479SOL    HW1 1436   2.915   0.484   1.191  0.3075 -2.1561  2.5729
  479SOL    HW2 1437   2.861   0.421   1.338 -0.6991  0.8789  0.0689
  480SOL     OW 1438   0.042   2.413   0.090 -0.5335 -0.6985 -0.4140
  480SOL    HW1 1439   0.087   2.361   0.162 -1.9747 -0.3613  3.3031
  480SOL    HW2 1440   3.022   2.399   0.098 -1.1594 -2.9094 -1.7184
  481SOL     OW 1441   2.503   1.740   1.927  0.1500  0.0885  0.0219
  481SOL    HW1 1442   2.432   1.692   1.865 -0.4006  0.8350  0.5492
  481SOL    HW2 1443   2.466   1.830   1.949  1.2474 -0.6335  0.1145
  482SOL     OW 1444   1.564   2.032   2.506  0.3997 -0.4174  0.1642
  482SOL    HW1 1445   1.584   2.134   2.506 -0.8734  0.6352  0.1432
  482SOL    HW2 1446   1.464   2.010   2.507 -0.0616 -1.4810 -0.5906
  483SOL     OW 1447   0.825   1.604   1.490 -0.4239  0.0562  0.0484
  483SOL    HW1 1448   0.807   1.631   1.394  1.0380 -0.4235  1.4327
  483SOL    HW2 1449   0.762   1.525   1.511  0.5627 -0.2169 -0.6049
  484SOL     OW 1450   0.396   0.469   1.530  0.0637 -0.0064  0.1712
  484SOL    HW1 1451   0.423   0.549   1.590  1.5218 -1.0927  0.9468
  484SOL    HW2 1452   0.431   0.482   1.438 -1.1707  0.4964 -0.3417
  485SOL     OW 1453   2.264   1.204   2.978  0.3078 -0.0297  0.5275
  485SOL    HW1 1454   2.173   1.204   3.019  1.4328 -2.3896 -0.1221
  485SOL    HW2 1455   2.339   1.185   3.045 -0.0798  0.1756 -0.5317
  486SOL     OW 1456   1.351   3.002   1.650 -0.4642  0.2621  0.1757
  486SOL    HW1 1457   1.434   3.063   1.647  1.4974 -3.3893 -2.3347
  486SOL    HW2 1458   1.281   3.021   1.582 -0.2985 -1.6105  4.0533
  487SOL     OW 1459   0.444   2.134   1.652 -0.6076 -0.5418  1.1251
  487SOL    HW1 1460   0.490   2.224   1.650  0.4065 -0.0075  1.4451
  487SOL    HW2 1461   0.488   2.067   1.586 -0.4095 -5.0039  1.1630
  488SOL     OW 1462   2.551   1.883   2.810  0.0186  0.2412  0.1798
  488SOL    HW1 1463   2.476   1.939   2.859 -2.0819  1.1619  2.3993
  488SOL    HW2 1464   2.631   1.944   2.801  1.0276 -1.4192 -0.2132
  489SOL     OW 1465   2.193   0.115   0.533  0.1302  0.3806 -0.4904
  489SOL    HW1 1466   2.180   0.019   0.493 -0.4633 -4.0412  3.2153
  489SOL    HW2 1467   2.279   0.155   0.496 -1.9839  0.5611  1.5751
  490SOL     OW 1468   1.280   2.223   2.615 -0.0137 -0.4303  0.3957
  490SOL    HW1 1469   1.284   2.127   2.582  1.9184  2.5801  1.1981
  490SOL    HW2 1470   1.248   2.231   2.711 -1.9854 -1.5569  0.8736
  491SOL     OW 1471   0.435   1.515   1.605  0.1954 -0.1715  0.0268
  491SOL    HW1 1472   0.430   1.618   1.624 -0.3366  1.6917 -0.5204
  491SOL    HW2 1473   0.520   1.481   1.568 -1.8479 -1.5713  0.9116
  492SOL     OW 1474   1.200   1.232   1.987  0.0261 -0.4342 -0.3168
  492SOL    HW1 1475   1.117   1.215   1.927 -1.0362  0.4955  3.5659
  492SOL    HW2 1476   1.195   1.331   2.021 -0.9013 -3.4646  0.4005
  493SOL     OW 1477   2.352   1.722   0.694 -0.5043 -0.3612  0.0883
  493SOL    HW1 1478   2.340   1.644   0.634  0.0686 -1.5367 -0.8247
  493SOL    HW2 1479   2.349   1.699   0.796 -2.1414 -1.4253  3.4837
  494SOL     OW 1480   0.446   1.825   0.924 -0.0072  0.6810  0.3937
  494SOL    HW1 1481   0.527   1.770   0.895 -0.7390  0.4615  0.1978
  494SOL    HW2 1482   0.378   1.839   0.848  0.2554  0.8679  0.7702
  495SOL     OW 1483   2.313   2.718   0.717  0.4398  0.5329 -0.1385
  495SOL    HW1 1484   2.363   2.759   0.641 -3.0355  1.0316  1.7299
  495SOL    HW2 1485   2.340   2.622   0.726 -0.7291  1.2955 -0.4375
  496SOL     OW 1486   2.550   2.968   1.484 -0.3706 -0.2287 -0.3277
  496SOL    HW1 1487   2.643   3.005   1.475  1.4459  3.7967  1.4262
  496SOL    HW2 1488   2.499   3.026   1.557  1.7033  0.5196  0.8925
  497SOL     OW 1489   2.307   0.973   2.503 -0.1351 -0.7049 -0.2651
  497SOL    HW1 1490   2.351   1.005   2.420 -0.7889  2.0165  1.4795
  497SOL    HW2 1491   2.211   0.941   2.481  1.0752  1.4331 -0.3935
  498SOL     OW 1492   2.963   2.294   1.489 -0.4893 -0.2735  0.8187
  498SOL    HW1 1493   2.983   2.196   1.460 -0.8320 -1.3015  0.1664
  498SOL    HW2 1494   2.874   2.298   1.538  1.3422  2.0697 -0.0591
  499SOL     OW 1495   0.953   2.367   2.023  0.0173 -0.0683 -0.1822
  499SOL    HW1 1496   0.870   2.365   2.077 -1.1240  1.1310 -1.6058
  499SOL    HW2 1497   1.017   2.441   2.048 -4.0951 -2.7942 -0.3122
  500SOL     OW 1498   1.356   2.270   0.392  0.0039  0.0048  0.4331
  500SOL    HW1 1499   1.327   2.369   0.409 -2.4193  0.7736  1.1917
  500SOL    HW2 1500   1.441   2.261   0.338 -0.5586 -0.6581  0.2462
  501SOL     OW 1501   1.887   2.816   1.323 -0.3626 -0.1868 -0.1445
  501SOL    HW1 1502   1.825   2.804   1.243 -0.6188  1.3599 -0.1213
  501SOL    HW2 1503   1.846   2.774   1.409 -0.0248 -1.3998  0.8749
  502SOL     OW 1504   2.392   0.677   1.886 -0.3765 -0.0369 -0.5816
  502SOL    HW1 1505   2.293   0.655   1.870 -0.3067  0.3352  1.1885
  502SOL    HW2 1506   2.441   0.606   1.946  0.0904  0.1789  2.4454
  503SOL     OW 1507   2.682   1.122   2.118 -0.0219  1.1767 -0.1579
  503SOL    HW1 1508   2.712   1.211   2.155 -0.9826 -0.1136 -2.4291
  503SOL    HW2 1509   2.674   1.117   2.016  0.4384  2.2958 -1.0830
  504SOL     OW 1510   1.509   0.974   1.345 -0.1895  0.2589 -0.0142
  504SOL    HW1 1511   1.518   0.873   1.356 -0.1464 -0.0739 -0.3383
  504SOL    HW2 1512   1.503   0.996   1.249  1.1826 -0.3114  0.9897
  505SOL     OW 1513   0.567   2.885   1.331 -0.2743 -0.1207  0.0027
  505SOL    HW1 1514   0.660   2.925   1.345  0.9996 -0.1360  2.9939
  505SOL    HW2 1515   0.493   2.949   1.354  0.4802 -0.3760  0.2555
  506SOL     OW 1516   3.028   0.240   0.101 -0.5203 -0.1304 -0.0049
  506SOL    HW1 1517   3.020   0.341   0.123 -0.0331  0.9806 -1.7373
  506SOL    HW2 1518   0.048   0.215   0.087  0.6536 -0.3227 -0.2586
  507SOL     OW 1519   2.586   2.599   2.836 -0.3676 -0.1026 -0.1674
  507SOL    HW1 1520   2.545   2.535   2.768 -1.6645 -0.2889 -1.6016
  507SOL    HW2 1521   2.628   2.555   2.922 -0.5968 -2.1491  3.4014
  508SOL     OW 1522   1.078   0.352   1.937 -0.4646 -0.1212  0.0191
  508SOL    HW1 1523   1.048   0.323   1.849 -1.0473  2.9378  0.4002
  508SOL    HW2 1524   1.149   0.290   1.981  3.0475 -2.0475  1.2255
  509SOL     OW 1525   1.702   1.795   1.295 -0.1804 -0.2749  0.2729
  509SOL    HW1 1526   1.702   1.797   1.397 -0.7351  0.2475 -0.8984
  509SOL    HW2 1527   1.626   1.854   1.264 -0.7005  1.3839  0.3019
  510SOL     OW 1528   2.436   0.893   1.442  0.1181 -0.3111  0.0591
  510SOL    HW1 1529   2.448   0.814   1.509 -1.0003  0.4509 -1.5796
  510SOL    HW2 1530   2.345   0.885   1.398  1.1920  1.8807 -0.3284
  511SOL     OW 1531   1.485   1.957   1.306  0.5974  0.4248 -0.3691
  511SOL    HW1 1532   1.494   2.048   1.348  1.1005  1.2962 -0.8331
  511SOL    HW2 1533   1.468   1.887   1.377 -0.1510  2.3291 -1.6411
  512SOL     OW 1534   2.870   1.368   0.830 -0.3421 -0.5623 -0.0249
  512SOL    HW1 1535   2.900   1.321   0.915 -1.0746 -0.7917 -3.4424
  512SOL    HW2 1536   2.938   1.354   0.754 -2.5759 -0.3222  1.0367
  513SOL     OW 1537   0.061   1.513   0.008  0.9418  0.4381 -0.0211
  513SOL    HW1 1538   0.117   1.472   3.008  1.2703 -0.4731  0.7633
  513SOL    HW2 1539   3.059   1.453   0.039 -2.9646 -0.1798 -0.7141
  514SOL     OW 1540   2.627   2.049   2.074  0.1210  0.8574 -0.1804
  514SOL    HW1 1541   2.606   2.107   2.154 -1.8859 -0.3567  0.7796
  514SOL    HW2 1542   2.545   2.040   2.021  1.4811 -1.5784 -2.5385
  515SOL     OW 1543   2.159   1.176   0.744 -0.4302 -0.1373  0.0084
  515SOL    HW1 1544   2.103   1.196   0.822  0.1588 -0.4700  1.0350
  515SOL    HW2 1545   2.225   1.101   0.762  2.8180  2.1472  0.1615
  516SOL     OW 1546   2.379   2.820   0.075 -0.0882 -0.2139 -0.4836
  516SOL    HW1 1547   2.456   2.824   0.005  2.1707 -0.5510  1.3450
  516SOL    HW2 1548   2.305   2.755   0.049 -0.8020  2.7072  1.4880
  517SOL     OW 1549   0.895   1.525   2.669 -0.1177 -0.0729  0.0217
  517SOL    HW1 1550   0.918   1.428   2.697 -0.0927  0.2541 -1.3312
  517SOL    HW2 1551   0.903   1.541   2.568  2.5129 -0.2025  2.3143
  518SOL     OW 1552   0.216   0.262   2.137 -0.0070  0.8517 -0.3948
  518SOL    HW1 1553   0.163   0.176   2.121 -0.7826 -2.9565  0.6184
  518SOL    HW2 1554   0.180   0.293   2.224  1.3618  1.7795  0.7412
  519SOL     OW 1555   0.730   1.470   3.049  0.3875 -0.5679 -0.3110
  519SOL    HW1 1556   0.829   1.445   3.023 -0.9405  2.1471 -0.2084
  519SOL    HW2 1557   0.708   1.572   3.043 -1.0086  3.8578  1.4542
  520SOL     OW 1558   2.977   2.296   1.999 -0.0765  0.1454  0.0758
  520SOL    HW1 1559   2.961   2.207   2.042 -1.8476  4.8079 -0.6381
  520SOL    HW2 1560   3.048   2.351   2.045  0.5542 -0.1408 -0.6463
  521SOL     OW 1561   0.511   2.095   2.248 -0.4842  0.3926 -0.1302
  521SOL    HW1 1562   0.593   2.033   2.240  0.5535 -1.2122  0.9150
  521SOL    HW2 1563   0.467   2.112   2.159  0.8503  0.0167 -1.8624
  522SOL     OW 1564   1.746   2.822   1.886 -0.8227  0.4222 -0.0418
  522SOL    HW1 1565   1.727   2.856   1.983 -0.7642  1.6700  1.0215
  522SOL    HW2 1566   1.661   2.784   1.846  1.8363 -0.3852 -0.8120
  523SOL     OW 1567   2.021   1.973   1.789 -0.4400 -0.3160 -0.2599
  523SOL    HW1 1568   2.054   1.938   1.877 -0.2938  0.0545 -0.8387
  523SOL    HW2 1569   2.019   1.903   1.717 -0.9381  1.8540 -0.9559
  524SOL     OW 1570   0.577   2.790   0.386 -0.0993 -0.1384  0.7551
  524SOL    HW1 1571   0.481   2.794   0.353 -3.4843  1.0603  1.4997
  524SOL    HW2 1572   0.580   2.744   0.474  0.3032  0.4124 -3.5195
  525SOL     OW 1573   0.091   0.482   0.367  0.1456  0.1253 -0.9050
  525SOL    HW1 1574   0.031   0.464   0.284  2.8303  0.3153  0.0339
  525SOL    HW2 1575   0.100   0.410   0.439 -0.2321 -0.5149  3.5772
  526SOL     OW 1576   1.053   0.056   0.538  0.3096  0.2626 -0.0681
  526SOL    HW1 1577   0.979   3.070   0.516  2.4374  0.3748 -2.0781
  526SOL    HW2 1578   1.081   0.043   0.636 -0.0831 -1.2982 -0.1616
  527SOL     OW 1579   1.833   1.644   1.124  0.0624  0.1538 -0.0447
  527SOL    HW1 1580   1.919   1.606   1.163  3.1234 -2.4548 -0.0027
  527SOL    HW2 1581   1.778   1.679   1.199  0.1438  0.9662 -0.6029
  528SOL     OW 1582   2.768   2.521   2.248 -0.1472 -0.1041  0.0082
  528SOL    HW1 1583   2.740   2.498   2.155 -1.1450 -1.5943  1.8398
  528SOL    HW2 1584   2.833   2.600   2.239 -1.5960  1.0672 -0.3051
  529SOL     OW 1585   1.184   1.597   2.318  0.0614 -0.2758 -0.4634
  529SOL    HW1 1586   1.174   1.685   2.270 -0.5994 -0.7066 -0.5639
  529SOL    HW2 1587   1.112   1.577   2.391 -0.6500  1.4328  1.1928
  530SOL     OW 1588   1.362   1.208   0.156  0.0839 -0.1877  0.4913
  530SOL    HW1 1589   1.452   1.246   0.168 -1.9452  2.1290 -1.5014
  530SOL    HW2 1590   1.363   1.144   0.076 -2.5508  0.7787  3.0847
  531SOL     OW 1591   0.372   1.094   3.041 -0.3666  0.2195  0.5099
  531SOL    HW1 1592   0.369   1.009   2.984  1.0611 -1.9464 -0.0275
  531SOL    HW2 1593   0.281   1.142   3.046 -1.3641 -2.3479  2.4760
  532SOL     OW 1594   1.725   1.277   0.797 -0.0678 -0.5308 -0.4497
  532SOL    HW1 1595   1.781   1.257   0.879  0.8911 -3.7068 -1.1620
  532SOL    HW2 1596   1.748   1.368   0.756  2.6223 -1.0072 -0.5028
  533SOL     OW 1597   0.539   0.140   2.380  0.5202  0.4889  0.1529
  533SOL    HW1 1598   0.511   0.231   2.349 -0.6206 -0.9720 -3.6249
  533SOL    HW2 1599   0.598   0.145   2.470  1.1443  1.9385  0.4682
  534SOL     OW 1600   0.910   2.684   2.991 -0.5358 -0.1460  0.6339
  534SOL    HW1 1601   0.858   2.676   3.075  1.1152  1.0900 -2.2803
  534SOL    HW2 1602   0.990   2.748   2.995  1.6540 -1.1301  0.3080
  535SOL     OW 1603   0.210   0.156   0.063  0.5230  0.5225 -0.3956
  535SOL    HW1 1604   0.301   0.199   0.079  1.3117 -2.1927 -0.1417
  535SOL    HW2 1605   0.200   0.142   3.045 -1.6020 -0.7424 -0.1632
  536SOL     OW 1606   0.152   0.805   2.175  0.4344  0.4813 -0.1683
  536SOL    HW1 1607   0.211   0.868   2.116 -0.0285  1.1392  0.4726
  536SOL    HW2 1608   0.204   0.726   2.216  0.6128 -0.0846  2.0098
  537SOL     OW 1609   0.995   0.263   1.389  0.0504  0.6823  0.0981
  537SOL    HW1 1610   0.909   0.212   1.382  0.8660 -2.3497  0.9255
  537SOL    HW2 1611   0.998   0.340   1.318  0.5471 -2.6884 -1.6428
  538SOL     OW 1612   0.835   2.010   0.230 -0.3216  0.0863 -0.1217
  538SOL    HW1 1613   0.857   2.078   0.304  1.7732  2.5175 -0.4486
  538SOL    HW2 1614   0.909   1.941   0.227 -1.7460 -0.3523 -0.9329
  539SOL     OW 1615   2.443   1.142   1.890  0.6790  0.2596  0.0185
  539SOL    HW1 1616   2.447   1.096   1.799 -0.9310 -1.2595 -2.0659
  539SOL    HW2 1617   2.500   1.225   1.887  1.0772 -0.7087  0.7795
  540SOL     OW 1618   2.082   1.530   2.073  0.1814 -0.5415  0.2207
  540SOL    HW1 1619   2.029   1.467   2.020  0.1662  0.1978  0.7589
  540SOL    HW2 1620   2.026   1.565   2.154 -0.2735 -2.4331  0.0469
  541SOL     OW 1621   0.655   1.401   1.486 -0.0233  0.5005 -0.9456
  541SOL    HW1 1622   0.727   1.329   1.492  1.0788 -2.0566  0.7682
  541SOL    HW2 1623   0.599   1.374   1.407  0.7929  0.0184  1.3384
  542SOL     OW 1624   1.529   0.628   2.066  0.0352 -0.0925 -0.0531
  542SOL    HW1 1625   1.614   0.597   2.116  0.9365  0.6816 -0.0159
  542SOL    HW2 1626   1.532   0.602   1.968  2.4142  0.3881 -2.7774
  543SOL     OW 1627   1.093   0.645   0.263 -0.2281  0.0900  0.2452
  543SOL    HW1 1628   1.148   0.561   0.246 -2.5390  1.1604 -0.9759
  543SOL    HW2 1629   1.021   0.616   0.330 -1.6540 -1.2416 -1.2882
  544SOL     OW 1630   2.784   1.717   2.134  0.5559  0.1466 -0.0730
  544SOL    HW1 1631   2.758   1.780   2.208  0.9789  1.4208 -2.4644
  544SOL    HW2 1632   2.885   1.711   2.122 -2.1924  0.6780  1.3957
  545SOL     OW 1633   1.794   2.110   1.714 -0.0598 -0.0809 -0.0566
  545SOL    HW1 1634   1.876   2.067   1.748 -1.0621  0.2884  0.7954
  545SOL    HW2 1635   1.786   2.209   1.735 -0.0168  0.3504 -2.8118
  546SOL     OW 1636   0.335   0.049   2.892  0.4574 -0.2545 -0.0927
  546SOL    HW1 1637   0.331   0.143   2.848  0.4457  0.3474 -2.4274
  546SOL    HW2 1638   0.286   3.051   2.842 -0.2180 -1.2027  1.5762
  547SOL     OW 1639   2.212   1.031   0.300  0.3727 -0.6721  0.2680
  547SOL    HW1 1640   2.176   0.982   0.218 -0.0463  0.2682  1.2565
  547SOL    HW2 1641   2.131   1.060   0.360 -0.7464  0.1242  1.5757
  548SOL     OW 1642   2.157   1.678   2.663  0.0723 -1.1852 -1.1324
  548SOL    HW1 1643   2.091   1.629   2.599 -4.5683 -1.0422 -1.0563
  548SOL    HW2 1644   2.197   1.619   2.740  1.9178 -0.5165 -0.4013
  549SOL     OW 1645   2.011   0.413   0.778  0.0065 -0.4688  0.5094
  549SOL    HW1 1646   2.066   0.435   0.695  0.0163  2.7172  0.2454
  549SOL    HW2 1647   1.925   0.460   0.769  2.3688  2.3917  2.1381
  550SOL     OW 1648   2.568   2.104   0.949 -0.8262 -0.0932  0.1348
  550SOL    HW1 1649   2.633   2.035   0.990  3.3852  0.5062  1.7102
  550SOL    HW2 1650   2.484   2.060   0.908 -0.1771  0.6812 -1.2234
  551SOL     OW 1651   1.014   0.198   1.669  0.5443 -0.2857  0.3269
  551SOL    HW1 1652   1.046   0.231   1.575  0.1668 -1.8860 -2.3796
  551SOL    HW2 1653   0.929   0.249   1.693 -1.2628 -0.5769  2.9566
  552SOL     OW 1654   0.366   2.607   2.510  0.0266  0.2517  0.3801
  552SOL    HW1 1655   0.269   2.584   2.529 -1.1832 -1.0562 -1.9888
  552SOL    HW2 1656   0.419   2.526   2.483 -1.6591 -2.2112  0.5571
  553SOL     OW 1657   0.869   2.961   0.441  0.0725 -0.0075  0.0447
  553SOL    HW1 1658   0.780   2.959   0.396  0.0302 -0.0908  0.1231
  553SOL    HW2 1659   0.872   2.882   0.500  0.0652 -0.0498  0.9366
  554SOL     OW 1660   2.126   2.224   1.751 -0.3263 -0.2706 -0.1968
  554SOL    HW1 1661   2.111   2.130   1.792 -0.3120 -0.2711  1.7355
  554SOL    HW2 1662   2.086   2.230   1.656  0.7577  0.3223 -1.0328
  555SOL     OW 1663   1.332   2.147   2.003  0.0245 -0.5550  0.6001
  555SOL    HW1 1664   1.351   2.061   1.950 -0.1580  0.1793  1.2245
  555SOL    HW2 1665   1.392   2.170   2.081 -0.5221 -0.2374 -1.0960
  556SOL     OW 1666   1.365   1.615   1.232  0.4734  0.2648 -0.1578
  556SOL    HW1 1667   1.285   1.640   1.177  0.6633  3.1272  0.9525
  556SOL    HW2 1668   1.433   1.566   1.174 -0.9742  0.7324 -0.7667
  557SOL     OW 1669   1.940   2.247   1.996 -0.2343 -0.1098 -0.3790
  557SOL    HW1 1670   1.988   2.277   1.910  0.9979  0.6424 -0.0522
  557SOL    HW2 1671   2.007   2.250   2.069 -1.3927  3.2225 -1.2505
  558SOL     OW 1672   0.391   0.358   1.969  0.5820 -0.0177  0.1001
  558SOL    HW1 1673   0.312   0.326   2.025 -2.8544 -0.4473  0.2378
  558SOL    HW2 1674   0.383   0.457   1.947  0.2926 -0.6526 -2.5630
  559SOL     OW 1675   2.354   2.865   1.326  0.6054 -0.0207 -0.1115
  559SOL    HW1 1676   2.432   2.883   1.391 -0.9935  0.4844  0.9394
  559SOL    HW2 1677   2.273   2.917   1.351  1.9564 -0.1575  0.8301
  560SOL     OW 1678   1.073   2.445   0.490 -0.1419 -0.9432 -0.1845
  560SOL    HW1 1679   1.029   2.537   0.492  0.6794 -1.6765 -1.1660
  560SOL    HW2 1680   1.155   2.447   0.553  1.6959  1.3813  0.0420
  561SOL     OW 1681   1.143   0.339   0.022  0.4146  0.6645  0.7209
  561SOL    HW1 1682   1.175   0.389   3.019 -1.2740  0.8855 -0.4956
  561SOL    HW2 1683   1.184   0.384   0.103 -1.0408  2.4381  0.1870
  562SOL     OW 1684   0.826   0.302   2.769 -0.3967 -0.6598 -0.8995
  562SOL    HW1 1685   0.917   0.262   2.748 -0.6602 -0.9051 -1.0565
  562SOL    HW2 1686   0.824   0.404   2.741 -0.3613  1.9909 -1.7402
  563SOL     OW 1687   1.642   1.830   2.693  0.4773  0.0042  0.0869
  563SOL    HW1 1688   1.727   1.857   2.743 -1.8705  0.9362  0.7962
  563SOL    HW2 1689   1.625   1.896   2.616  3.2162  0.1561  0.3942
  564SOL     OW 1690   2.760   1.003   0.719  0.2730  0.4349 -0.1348
  564SOL    HW1 1691   2.699   0.994   0.802  0.7639  2.2563  1.1277
  564SOL    HW2 1692   2.856   0.971   0.731  1.8632 -0.5617  1.7390
  565SOL     OW 1693   1.448   0.258   2.573 -0.7737 -0.5907  0.1383
  565SOL    HW1 1694   1.462   0.253   2.672 -0.3430  0.3693  1.3066
  565SOL    HW2 1695   1.391   0.340   2.543 -2.7595  2.1352 -0.9419
  566SOL     OW 1696   1.166   0.339   2.273  0.0845 -0.5131 -0.2005
  566SOL    HW1 1697   1.246   0.321   2.332 -3.4793 -0.8153 -1.4860
  566SOL    HW2 1698   1.166   0.274   2.192  0.2821  2.1134 -2.5384
  567SOL     OW 1699   2.651   1.271   0.715 -0.7972 -1.0695  0.0256
  567SOL    HW1 1700   2.687   1.176   0.720 -0.2025 -0.4850 -0.2048
  567SOL    HW2 1701   2.725   1.333   0.752  1.2346  0.5877 -0.5039
  568SOL     OW 1702   1.775   2.016   0.562  0.3453 -0.3591 -0.1239
  568SOL    HW1 1703   1.830   2.003   0.477  1.8233  1.9071  0.5591
  568SOL    HW2 1704   1.690   1.955   0.555  0.5519 -1.6122  0.3892
  569SOL     OW 1705   2.003   1.502   2.911 -0.6485  0.0708 -0.2239
  569SOL    HW1 1706   1.936   1.425   2.912 -1.6449  2.0245  0.3116
  569SOL    HW2 1707   2.097   1.473   2.905 -2.4386  3.4476  0.1989
  570SOL     OW 1708   0.122   2.980   1.713 -0.9269  0.2178 -0.0521
  570SOL    HW1 1709   0.219   3.012   1.708  0.4917  0.7147  0.5181
  570SOL    HW2 1710   0.046   3.049   1.705  0.5969 -1.6254 -0.1424
  571SOL     OW 1711   0.043   0.270   2.393  0.0723 -0.5546  0.3116
  571SOL    HW1 1712   3.039   0.326   2.371 -1.4085 -1.7815  1.6128
  571SOL    HW2 1713   0.121   0.327   2.433  1.6686 -1.1804  0.2350
  572SOL     OW 1714   0.784   1.481   0.478  0.4886 -0.4248  0.0245
  572SOL    HW1 1715   0.684   1.476   0.454 -1.1100 -0.7220  0.0917
  572SOL    HW2 1716   0.830   1.573   0.479  1.1518  2.3984 -1.8701
  573SOL     OW 1717   1.300   2.587   0.109 -0.5730  0.3300  0.3719
  573SOL    HW1 1718   1.401   2.586   0.087 -0.3140  0.1779 -0.4788
  573SOL    HW2 1719   1.277   2.646   0.191 -1.5726  0.2402  1.1760
  574SOL     OW 1720   0.874   0.148   0.872  0.0170 -0.2455  0.0740
  574SOL    HW1 1721   0.850   0.206   0.952  1.0618 -2.6976 -1.4853
  574SOL    HW2 1722   0.906   0.054   0.904 -1.5735 -2.6657 -0.1322
  575SOL     OW 1723   0.010   0.923   1.645  0.3692 -0.3556 -0.1731
  575SOL    HW1 1724   3.002   0.897   1.599 -0.8627  0.5621 -0.7472
  575SOL    HW2 1725   0.005   0.994   1.717  1.5229  0.8522  1.5173
  576SOL     OW 1726   1.756   3.027   1.475 -0.0337 -0.3557  0.1735
  576SOL    HW1 1727   1.812   0.034   1.469 -0.9825  0.7272 -0.7108
  576SOL    HW2 1728   1.746   2.981   1.387  0.2833  1.2900 -0.6178
  577SOL     OW 1729   3.028   1.118   2.107  0.0460 -0.0767 -0.3455
  577SOL    HW1 1730   2.970   1.039   2.085  1.5528 -0.0360  2.3785
  577SOL    HW2 1731   0.031   1.091   2.156 -4.1787 -0.1643 -0.9457
  578SOL     OW 1732   1.759   3.018   2.412  0.1430  0.1385 -0.0570
  578SOL    HW1 1733   1.711   0.030   2.423 -3.0852  4.6123 -3.1704
  578SOL    HW2 1734   1.757   2.959   2.497  3.0202 -0.7775 -1.0090
  579SOL     OW 1735   2.132   1.907   2.031  0.3467 -0.2195 -0.0423
  579SOL    HW1 1736   2.230   1.925   2.002  1.9040 -1.9701  2.8467
  579SOL    HW2 1737   2.115   1.921   2.131  2.0253  1.3003  0.8013
  580SOL     OW 1738   2.000   1.518   2.524 -0.6349 -0.1096  0.3377
  580SOL    HW1 1739   1.950   1.542   2.436 -1.1742  1.9143 -0.0968
  580SOL    HW2 1740   1.969   1.430   2.570  2.6060 -1.7190  0.3698
  581SOL     OW 1741   1.369   1.083   2.982 -0.4660 -0.3545  0.3924
  581SOL    HW1 1742   1.345   0.982   2.977  0.2921  0.1914  0.2241
  581SOL    HW2 1743   1.441   1.109   2.913 -0.3571 -0.5933 -0.8714
  582SOL     OW 1744   0.826   2.211   1.360  0.0066  0.4667  0.8294
  582SOL    HW1 1745   0.766   2.141   1.397 -0.1957  0.3726  1.2111
  582SOL    HW2 1746   0.901   2.179   1.299 -2.9646 -0.6974 -2.1410
  583SOL     OW 1747   1.224   1.129   1.238 -0.5975  0.1414  0.3311
  583SOL    HW1 1748   1.201   1.037   1.201 -2.8666 -1.1624  1.5091
  583SOL    HW2 1749   1.304   1.173   1.193 -0.7268  2.5057 -0.4175
  584SOL     OW 1750   1.670   2.503   0.617  0.2061  0.3222 -0.4004
  584SOL    HW1 1751   1.647   2.406   0.593 -2.2281  1.4724 -0.1363
  584SOL    HW2 1752   1.628   2.531   0.708  1.0631 -1.9701  3.2576
  585SOL     OW 1753   2.320   2.523   3.026 -0.2720 -0.5274 -0.1529
  585SOL    HW1 1754   2.387   2.507   2.950 -0.3403  0.1887  1.1744
  585SOL    HW2 1755   2.259   2.598   3.005 -0.0866 -1.6481  1.1010
  586SOL     OW 1756   2.820   1.975   0.697  0.0109  0.7794 -0.2760
  586SOL    HW1 1757   2.746   1.965   0.632  0.8148 -1.0615  0.6168
  586SOL    HW2 1758   2.815   2.063   0.748  0.5514 -1.5352  2.0371
  587SOL     OW 1759   1.152   1.667   3.065 -0.4007  0.3435  0.0624
  587SOL    HW1 1760   1.242   1.633   3.023  0.9234 -1.6668  0.7213
  587SOL    HW2 1761   1.105   1.589   0.039 -1.4257 -0.0067  0.1716
  588SOL     OW 1762   0.496   0.249   1.154 -0.2571 -0.5074  0.1980
  588SOL    HW1 1763   0.569   0.205   1.209  0.4318  0.6557  0.7183
  588SOL    HW2 1764   0.461   0.334   1.194 -1.3002 -0.8085 -3.5921
  589SOL     OW 1765   1.104   0.426   0.524  0.2252  0.1231  0.3544
  589SOL    HW1 1766   1.037   0.376   0.463 -3.8361  1.0303 -3.2922
  589SOL    HW2 1767   1.110   0.372   0.613 -2.1490  0.3166  0.6062
  590SOL     OW 1768   2.236   2.264   3.054  0.7134  0.4758  0.2156
  590SOL    HW1 1769   2.203   2.253   0.072  2.2041  0.7967  1.1943
  590SOL    HW2 1770   2.272   2.361   3.046 -0.6344 -4.7264  0.4302
  591SOL     OW 1771   0.316   2.796   2.131  0.4914  0.0041 -0.5523
  591SOL    HW1 1772   0.310   2.890   2.093 -1.5465  1.7676  0.5089
  591SOL    HW2 1773   0.303   2.726   2.061  0.0615  0.5527  1.1337
  592SOL     OW 1774   3.011   1.418   2.102  0.3880 -0.2035 -0.1108
  592SOL    HW1 1775   3.031   1.321   2.127  1.9112 -1.7613  2.2569
  592SOL    HW2 1776   0.006   1.491   2.107 -0.8926 -0.4940  2.4422
  593SOL     OW 1777   1.808   1.374   1.241  0.1885 -0.1784 -0.1760
  593SOL    HW1 1778   1.888   1.412   1.295  2.2349  1.2598  0.6797
  593SOL    HW2 1779   1.739   1.317   1.290  0.0721  1.4032  0.4558
  594SOL     OW 1780   2.930   1.416   2.809  0.1888 -0.0771  0.5379
  594SOL    HW1 1781   2.882   1.468   2.885 -0.2986  1.7016  1.1363
  594SOL    HW2 1782   3.006   1.351   2.839  2.2151 -2.4608  1.6816
  595SOL     OW 1783   0.774   1.018   0.560 -0.4898 -0.4113  0.5700
  595SOL    HW1 1784   0.724   0.999   0.473 -0.6591  0.9970 -0.2222
  595SOL    HW2 1785   0.770   1.112   0.593  1.0133  0.8982 -0.2377
  596SOL     OW 1786   3.000   1.352   1.374  0.6014 -0.1961  0.0321
  596SOL    HW1 1787   2.968   1.339   1.282 -0.6887 -0.7169  0.2645
  596SOL    HW2 1788   0.006   1.408   1.373  0.0850  2.4565 -0.2765
  597SOL     OW 1789   1.016   2.328   1.546 -0.1556 -0.2762  0.3544
  597SOL    HW1 1790   0.937   2.286   1.501  0.9930 -0.5665  1.0327
  597SOL    HW2 1791   1.086   2.255   1.575  3.6671 -1.3481 -0.9161
  598SOL     OW 1792   2.345   2.366   1.702  0.0218  0.0725  0.3408
  598SOL    HW1 1793   2.276   2.307   1.752  1.9594  2.2340  0.5166
  598SOL    HW2 1794   2.379   2.314   1.621 -2.1306  0.9765  1.9695
  599SOL     OW 1795   0.475   1.366   3.068  0.0236 -0.0810 -0.1291
  599SOL    HW1 1796   0.571   1.390   3.056 -0.1024 -0.5477  0.1685
  599SOL    HW2 1797   0.468   1.262   3.065 -1.1198 -2.3995 -1.5244
  600SOL     OW 1798   0.798   0.744   3.027 -0.0887 -0.1825 -0.1382
  600SOL    HW1 1799   0.870   0.676   3.036  1.6075 -0.1723  0.5927
  600SOL    HW2 1800   0.766   0.769   0.040 -3.4264 -1.9617 -0.7187
  601SOL     OW 1801   0.480   0.685   1.656  0.1282  0.4804 -0.2952
  601SOL    HW1 1802   0.502   0.784   1.641  1.0941  0.2063 -1.8820
  601SOL    HW2 1803   0.553   0.638   1.705 -0.7036 -0.2826 -1.1147
  602SOL     OW 1804   0.371   2.424   0.538 -0.1127 -0.2754 -0.1952
  602SOL    HW1 1805   0.359   2.423   0.641 -1.6174 -1.5057 -1.5467
  602SOL    HW2 1806   0.288   2.462   0.495 -0.7106  1.2643  4.0572
  603SOL     OW 1807   1.158   2.697   1.941 -1.1482 -0.0082 -0.3009
  603SOL    HW1 1808   1.071   2.674   1.901  2.0320 -0.7703 -1.3504
  603SOL    HW2 1809   1.162   2.654   2.034 -1.5909 -0.6276 -4.1445
  604SOL     OW 1810   0.396   2.221   2.947 -0.1411 -0.3691  0.2993
  604SOL    HW1 1811   0.425   2.175   2.865  0.5803  0.6205  3.0875
  604SOL    HW2 1812   0.294   2.222   2.951  1.6821  0.4280 -0.6327
  605SOL     OW 1813   2.034   1.139   1.795  0.1579 -0.1384 -0.2024
  605SOL    HW1 1814   1.982   1.113   1.709 -2.2083 -2.0379 -1.4398
  605SOL    HW2 1815   2.083   1.224   1.778  0.1638 -2.7026  0.9123
  606SOL     OW 1816   0.636   0.877   2.885 -0.2984  0.3439 -0.5050
  606SOL    HW1 1817   0.684   0.965   2.873 -2.4917 -0.6308  2.1967
  606SOL    HW2 1818   0.701   0.814   2.936 -0.9691 -0.9522 -0.8367
  607SOL     OW 1819   1.086   0.879   1.187 -0.4034  0.1384  0.1577
  607SOL    HW1 1820   1.078   0.865   1.287 -1.6884  4.0525 -2.2582
  607SOL    HW2 1821   1.008   0.933   1.147  0.2523  2.4352  0.0153
  608SOL     OW 1822   2.817   1.687   1.858  0.3594  0.1161 -0.2659
  608SOL    HW1 1823   2.781   1.711   1.950  2.0623  1.8450  2.2662
  608SOL    HW2 1824   2.778   1.742   1.779 -0.7423  1.1052 -0.3236
  609SOL     OW 1825   2.413   0.255   0.164  0.5605 -0.3167  0.3425
  609SOL    HW1 1826   2.505   0.264   0.116  1.8625  0.6766 -1.7402
  609SOL    HW2 1827   2.376   0.160   0.148  1.4035  1.1137  0.6231
  610SOL     OW 1828   2.764   2.592   1.416  0.5564  0.0990 -0.1346
  610SOL    HW1 1829   2.684   2.583   1.350  0.5967 -1.5976 -1.8570
  610SOL    HW2 1830   2.851   2.576   1.358 -1.7245  1.4371  0.0270
  611SOL     OW 1831   1.675   2.302   0.257  0.0888 -0.6129 -0.4157
  611SOL    HW1 1832   1.683   2.215   0.198  3.6195 -1.6319 -1.6040
  611SOL    HW2 1833   1.662   2.284   0.358 -1.8415  1.2132  2.7793
  612SOL     OW 1834   0.635   3.043   1.627 -0.0358  0.1003 -0.4284
  612SOL    HW1 1835   0.724   2.990   1.621 -0.1287 -1.0722  1.2085
  612SOL    HW2 1836   0.616   0.020   1.542 -1.2332  0.2206  2.1471
  613SOL     OW 1837   0.010   1.926   0.564 -0.6585  0.3822 -0.4225
  613SOL    HW1 1838   3.050   2.001   0.615  2.6075  0.3735 -2.2276
  613SOL    HW2 1839   3.027   1.848   0.548 -0.6502  2.4126  2.1073
  614SOL     OW 1840   1.708   0.328   1.713 -0.6538  0.2955  0.4182
  614SOL    HW1 1841   1.776   0.382   1.653  1.8752 -1.8551  1.8426
  614SOL    HW2 1842   1.768   0.274   1.773 -1.1548 -1.6263  0.7195
  615SOL     OW 1843   1.223   1.476   0.972 -0.6967  0.8991  0.0229
  615SOL    HW1 1844   1.250   1.574   0.989 -2.2137  2.1351  1.1046
  615SOL    HW2 1845   1.289   1.407   1.008  2.3704 -2.1337  1.5695
  616SOL     OW 1846   1.837   1.688   0.467  0.1495 -0.2594 -0.0191
  616SOL    HW1 1847   1.932   1.697   0.430 -2.5600  0.9595  0.6134
  616SOL    HW2 1848   1.767   1.708   0.392 -0.1552 -1.3788 -1.3112
  617SOL     OW 1849   1.530   0.732   0.099  0.0507  0.6452 -0.0250
  617SOL    HW1 1850   1.487   0.698   0.190 -1.6336 -0.8342 -0.1689
  617SOL    HW2 1851   1.606   0.793   0.120 -2.3149 -0.8545  1.9905
  618SOL     OW 1852   0.572   0.711   2.406  0.4184 -0.2726 -0.1609
  618SOL    HW1 1853   0.589   0.615   2.429 -1.6254  0.1892 -1.7780
  618SOL    HW2 1854   0.655   0.769   2.404 -2.8116 -2.1340 -0.6954
  619SOL     OW 1855   2.888   1.622   1.271 -0.2474 -0.2028 -0.4953
  619SOL    HW1 1856   2.989   1.636   1.281  0.9364 -0.3758 -0.9260
  619SOL    HW2 1857   2.866   1.618   1.172  0.2872 -2.3346 -2.0274
  620SOL     OW 1858   2.058   2.600   2.640  0.2451 -0.0399  0.3874
  620SOL    HW1 1859   2.143   2.641   2.598  0.3352  0.8982  0.0711
  620SOL    HW2 1860   2.017   2.665   2.707 -1.0887  0.4813  0.1266
  621SOL     OW 1861   2.908   2.049   3.017 -0.0239 -0.1444  0.2593
  621SOL    HW1 1862   2.912   1.946   2.994  0.6238 -4.4146 -1.0323
  621SOL    HW2 1863   2.972   2.071   0.013 -0.3339  2.8369  2.0620
  622SOL     OW 1864   1.483   0.112   2.093  0.1188 -0.1759 -0.8146
  622SOL    HW1 1865   1.496   0.124   2.193  0.1910  0.8765 -1.2354
  622SOL    HW2 1866   1.559   0.051   2.057  0.5791 -2.7885  1.6026
  623SOL     OW 1867   0.659   2.428   0.995  0.2957 -0.2180 -0.3344
  623SOL    HW1 1868   0.597   2.405   1.068  6.7642 -2.7385 -1.3509
  623SOL    HW2 1869   0.733   2.490   1.030  0.1336  0.5617  0.2091
  624SOL     OW 1870   0.050   2.837   2.894  0.1511 -0.0582  0.7662
  624SOL    HW1 1871   0.046   2.737   2.884  0.2803  1.2402 -1.4557
  624SOL    HW2 1872   0.111   2.880   2.825  0.4644 -1.9123  2.3890
  625SOL     OW 1873   0.914   2.046   0.616  0.3918 -0.0353  0.0170
  625SOL    HW1 1874   0.938   1.952   0.588  1.6750 -1.7864  1.9711
  625SOL    HW2 1875   0.939   2.111   0.542  0.1377  0.1924  0.2117
  626SOL     OW 1876   2.711   0.346   2.723 -0.4336  0.4906  0.1279
  626SOL    HW1 1877   2.741   0.313   2.814  2.8211  0.2079 -0.4434
  626SOL    HW2 1878   2.755   0.289   2.651  0.9517 -1.7674  0.5870
  627SOL     OW 1879   1.448   1.908   2.912  0.0476 -0.4577 -0.1314
  627SOL    HW1 1880   1.514   1.916   2.833  0.5828  1.4067  1.3212
  627SOL    HW2 1881   1.364   1.864   2.877 -0.5264  0.9310 -2.4586
  628SOL     OW 1882   0.100   2.544   2.563  0.2467 -0.1770 -0.4660
  628SOL    HW1 1883   0.117   2.453   2.522 -0.1444  2.1901 -0.3976
  628SOL    HW2 1884   0.019   2.551   2.622  1.6065 -0.1955  0.2374
  629SOL     OW 1885   0.718   2.990   2.723 -0.5524 -0.2468  0.4315
  629SOL    HW1 1886   0.715   2.943   2.814 -0.7985 -0.3215 -0.4887
  629SOL    HW2 1887   0.721   2.925   2.644 -1.6796  1.7327 -0.9557
  630SOL     OW 1888   1.208   0.966   2.081  0.2869  0.5760  0.4982
  630SOL    HW1 1889   1.221   0.901   2.002  2.0416  0.4681 -2.6749
  630SOL    HW2 1890   1.199   1.064   2.050 -2.0137  1.4643  1.7769
  631SOL     OW 1891   1.892   1.100   0.238  0.3456 -0.4497 -0.3930
  631SOL    HW1 1892   1.918   1.104   0.335  1.7224  1.0330 -3.8721
  631SOL    HW2 1893   1.950   1.161   0.182  0.0425  0.9899  2.0147
  632SOL     OW 1894   2.510   0.461   2.054  0.0223  0.3251 -0.4763
  632SOL    HW1 1895   2.569   0.490   2.135  3.5451 -0.2802  0.4780
  632SOL    HW2 1896   2.546   0.380   2.003 -0.7468 -0.4428  1.1456
  633SOL     OW 1897   0.732   1.746   0.009 -0.2147  1.0003  0.3702
  633SOL    HW1 1898   0.808   1.781   3.039 -1.8787 -2.5391 -1.2987
  633SOL    HW2 1899   0.754   1.702   0.099  1.2348  0.5784  0.2137
  634SOL     OW 1900   2.403   2.511   2.260  0.0994  0.7371 -0.1441
  634SOL    HW1 1901   2.324   2.581   2.281 -0.7859  1.4968  0.2725
  634SOL    HW2 1902   2.422   2.497   2.158  0.4908 -1.5640  0.3542
  635SOL     OW 1903   1.964   0.540   0.293 -0.1360  0.1562  0.2048
  635SOL    HW1 1904   1.939   0.444   0.293  0.8630  0.8622 -0.5908
  635SOL    HW2 1905   2.063   0.552   0.314 -2.7505 -2.3703  0.8115
  636SOL     OW 1906   0.670   1.314   0.776 -0.3665 -0.3497  0.4145
  636SOL    HW1 1907   0.582   1.280   0.739  3.6325  2.1068 -0.4530
  636SOL    HW2 1908   0.747   1.282   0.724 -2.2417 -0.1403  1.6724
  637SOL     OW 1909   2.859   2.352   0.197 -0.2388  0.8143 -0.1560
  637SOL    HW1 1910   2.836   2.255   0.231 -2.8743 -3.8505  0.6519
  637SOL    HW2 1911   2.849   2.420   0.267  1.0569 -2.1036 -0.5164
  638SOL     OW 1912   1.477   2.578   2.272  0.7752 -0.0988  0.0787
  638SOL    HW1 1913   1.500   2.584   2.171  0.6379 -2.0305  0.9072
  638SOL    HW2 1914   1.418   2.497   2.290  1.7147  0.6473  1.5355
  639SOL     OW 1915   1.358   1.976   0.268 -0.0870 -0.2980  0.3909
  639SOL    HW1 1916   1.293   2.053   0.262  0.2207 -0.0868  1.1067
  639SOL    HW2 1917   1.339   1.910   0.344 -0.8641  0.3927  2.2144
  640SOL     OW 1918   2.106   0.378   0.509  0.0767 -0.8192 -0.1643
  640SOL    HW1 1919   2.118   0.275   0.531  1.2643  0.7805 -3.3041
  640SOL    HW2 1920   2.195   0.428   0.498 -0.2866  0.6129 -0.3869
  641SOL     OW 1921   3.001   3.037   0.449 -0.2857 -0.3784  0.7154
  641SOL    HW1 1922   2.969   0.030   0.512  2.5020 -0.2748 -1.6603
  641SOL    HW2 1923   2.994   3.061   0.349  0.8058 -2.1203 -0.9757
  642SOL     OW 1924   0.643   0.267   1.557 -0.0782  0.1186 -0.0456
  642SOL    HW1 1925   0.548   0.256   1.589  2.1314 -0.0957  0.8216
  642SOL    HW2 1926   0.699   0.264   1.643 -0.5483  1.0217 -1.1761
  643SOL     OW 1927   0.660   1.212   2.275 -0.0712 -0.3996  0.2470
  643SOL    HW1 1928   0.674   1.233   2.375 -0.5474 -2.8535 -0.5931
  643SOL    HW2 1929   0.600   1.283   2.227 -0.8303  0.6362  1.7989
  644SOL     OW 1930   1.395   2.561   0.420 -0.1427  0.5678 -0.5487
  644SOL    HW1 1931   1.370   2.626   0.352 -1.0607 -2.7812  1.5055
  644SOL    HW2 1932   1.496   2.549   0.407  0.5452 -0.9324 -0.4080
  645SOL     OW 1933   1.738   2.094   0.101  0.5368  0.1124  0.1107
  645SOL    HW1 1934   1.781   2.095   0.010 -2.6529  0.9923  2.0217
  645SOL    HW2 1935   1.669   2.014   0.105  2.7977 -2.1120 -1.5158
  646SOL     OW 1936   0.183   1.396   2.872 -0.0979 -0.0301  0.0234
  646SOL    HW1 1937   0.214   1.485   2.821  3.3068  3.2147 -0.4800
  646SOL    HW2 1938   0.201   1.317   2.809  1.9526 -1.0315 -0.8519
  647SOL     OW 1939   0.790   0.285   1.093  0.4765  0.4213 -0.3940
  647SOL    HW1 1940   0.775   0.247   1.185 -0.1751  3.7620 -3.3743
  647SOL    HW2 1941   0.790   0.382   1.099 -0.5705 -1.3412 -1.5709
  648SOL     OW 1942   1.392   0.635   1.229  0.5001 -0.3475 -0.0303
  648SOL    HW1 1943   1.407   0.683   1.140 -1.0805  1.8881 -2.4119
  648SOL    HW2 1944   1.475   0.637   1.284 -0.8254 -1.0063  3.0507
  649SOL     OW 1945   1.068   1.872   0.201 -0.2378 -0.1007  0.4785
  649SOL    HW1 1946   1.088   1.971   0.187 -1.4251 -0.0560  1.6333
  649SOL    HW2 1947   1.136   1.810   0.159  0.0860 -0.2560  4.2887
  650SOL     OW 1948   2.738   1.391   2.205 -0.5744  0.2036 -0.2950
  650SOL    HW1 1949   2.713   1.430   2.297 -1.7024  3.1558  0.0329
  650SOL    HW2 1950   2.829   1.428   2.179  1.6052 -0.3834  1.8949
  651SOL     OW 1951   1.433   2.438   2.630 -0.0384  0.5663 -0.6453
  651SOL    HW1 1952   1.382   2.353   2.629  2.9615  1.2334 -2.1734
  651SOL    HW2 1953   1.371   2.510   2.598  2.5297 -0.5994 -1.0873
  652SOL     OW 1954   2.678   1.762   0.086  0.5595 -0.3942  0.8800
  652SOL    HW1 1955   2.600   1.696   0.088  0.1078  0.5230 -1.7588
  652SOL    HW2 1956   2.651   1.861   0.077  2.8637  1.0956 -0.4968
  653SOL     OW 1957   0.173   0.094   1.218  0.3212  0.1238  0.3347
  653SOL    HW1 1958   0.188   0.064   1.119  1.1769 -2.3539 -1.1070
  653SOL    HW2 1959   0.148   0.195   1.223 -2.4820  1.6073  1.3548
  654SOL     OW 1960   2.177   0.291   2.359  0.4520  0.5679  0.5307
  654SOL    HW1 1961   2.233   0.220   2.311 -0.8264  0.6338 -0.3291
  654SOL    HW2 1962   2.077   0.259   2.354  0.8540  1.3967 -0.2332
  655SOL     OW 1963   0.194   2.931   1.053  0.0766  0.4718  0.1718
  655SOL    HW1 1964   0.169   2.901   0.957 -0.4165 -2.8927 -1.2919
  655SOL    HW2 1965   0.279   2.989   1.054  0.3494 -1.6323  1.3259
  656SOL     OW 1966   2.931   3.011   2.301  0.0711 -0.0048  0.0082
  656SOL    HW1 1967   2.869   0.004   2.265 -1.0309  1.0047 -0.9718
  656SOL    HW2 1968   2.952   3.029   2.398 -0.5441 -1.0888 -0.2257
  657SOL     OW 1969   2.412   0.785   2.828  0.1455  0.9173 -0.3999
  657SOL    HW1 1970   2.414   0.880   2.790 -0.1877 -0.3692 -0.5068
  657SOL    HW2 1971   2.493   0.732   2.798  0.5793  1.5382  2.8752
  658SOL     OW 1972   2.168   1.857   0.995 -0.0316 -0.5848  0.6039
  658SOL    HW1 1973   2.230   1.784   0.968 -0.7689  3.8184 -1.5747
  658SOL    HW2 1974   2.209   1.909   1.074  1.2842  0.6888  0.4276
  659SOL     OW 1975   2.203   2.949   0.446  0.1896 -0.2584  0.0347
  659SOL    HW1 1976   2.140   2.878   0.468  2.0264  1.1713 -2.9281
  659SOL    HW2 1977   2.292   2.931   0.493 -2.5122  0.8455  1.0953
  660SOL     OW 1978   1.535   1.179   2.712  0.6281  0.2405  0.3758
  660SOL    HW1 1979   1.456   1.191   2.643 -3.0329  1.3573 -2.3515
  660SOL    HW2 1980   1.594   1.265   2.714  2.0591 -0.0875  0.6563
  661SOL     OW 1981   2.525   2.217   1.564 -0.5098 -0.2212 -0.3257
  661SOL    HW1 1982   2.552   2.194   1.468  1.1616  0.0279 -0.7737
  661SOL    HW2 1983   2.608   2.267   1.603  2.6740  0.4583  0.6330
  662SOL     OW 1984   0.788   0.766   0.235  0.1488 -0.0202  0.0409
  662SOL    HW1 1985   0.686   0.756   0.240  0.5634 -0.5799 -1.0368
  662SOL    HW2 1986   0.828   0.672   0.261  1.5182 -2.5842 -1.9686
  663SOL     OW 1987   2.197   2.167   0.806  1.3344 -0.3243 -0.3097
  663SOL    HW1 1988   2.117   2.121   0.765  0.3174  1.8913 -1.3440
  663SOL    HW2 1989   2.284   2.114   0.788  1.6109  1.0062  0.5565
  664SOL     OW 1990   0.782   1.768   1.274 -0.7009  0.6340  0.0051
  664SOL    HW1 1991   0.717   1.831   1.226 -0.8307 -0.3829 -0.3312
  664SOL    HW2 1992   0.866   1.814   1.312 -0.7484 -0.2392  0.9957
  665SOL     OW 1993   1.662   2.295   1.989 -0.3473  0.2367 -0.1037
  665SOL    HW1 1994   1.659   2.313   1.892 -0.7187 -0.7407  0.6230
  665SOL    HW2 1995   1.753   2.258   2.016 -2.2972 -1.6451  0.1480
  666SOL     OW 1996   0.194   2.621   0.133  0.0480  0.1602  0.1651
  666SOL    HW1 1997   0.136   2.700   0.112 -0.2452 -0.5657  1.7814
  666SOL    HW2 1998   0.157   2.532   0.102 -1.2900 -0.5480  1.9331
  667SOL     OW 1999   2.467   1.442   1.873  0.0273  0.0984  0.3095
  667SOL    HW1 2000   2.510   1.492   1.796  0.0810  1.0191 -0.1922
  667SOL    HW2 2001   2.490   1.480   1.967  0.1075  2.3762  2.4134
  668SOL     OW 2002   0.415   0.597   2.671 -0.0150  0.4393  0.2784
  668SOL    HW1 2003   0.457   0.670   2.614 -0.2199 -0.1615 -0.5000
  668SOL    HW2 2004   0.471   0.591   2.754 -1.1925  0.2278  0.4479
  669SOL     OW 2005   1.989   2.304   2.905 -0.1695 -0.1341 -0.0284
  669SOL    HW1 2006   2.045   2.327   2.821  3.2513 -0.8740  1.0118
  669SOL    HW2 2007   2.064   2.265   2.961 -2.5706  0.2859 -1.5839
  670SOL     OW 2008   2.273   1.461   2.822  0.4368 -0.0482 -0.2078
  670SOL    HW1 2009   2.269   1.361   2.824 -1.6009  1.5499  0.4008
  670SOL    HW2 2010   2.360   1.496   2.777 -0.0723 -0.0747 -1.6818
  671SOL     OW 2011   0.334   1.549   0.786  0.0925  0.1692  0.0902
  671SOL    HW1 2012   0.324   1.506   0.694 -2.5516  0.0130  1.2539
  671SOL    HW2 2013   0.243   1.556   0.836 -1.0233  2.7267  2.0295
  672SOL     OW 2014   2.334   0.918   2.032 -0.1154  0.4679  0.3605
  672SOL    HW1 2015   2.371   1.004   1.989  1.4774 -1.5287 -3.6307
  672SOL    HW2 2016   2.356   0.843   1.970 -1.9142 -1.9721  1.1384
  673SOL     OW 2017   2.448   2.420   1.957  0.2824  0.1641  0.0500
  673SOL    HW1 2018   2.547   2.414   1.978 -2.9401  0.2797  3.9976
  673SOL    HW2 2019   2.429   2.408   1.858 -0.6301 -0.3104 -1.0889
  674SOL     OW 2020   1.371   2.582   1.826 -0.0542  0.0331 -0.5955
  674SOL    HW1 2021   1.338   2.488   1.808  2.5779  2.4513  0.7257
  674SOL    HW2 2022   1.299   2.638   1.868 -0.3291 -1.3365  1.4324
  675SOL     OW 2023   0.627   0.772   0.750 -0.4987 -0.2004 -0.1274
  675SOL    HW1 2024   0.712   0.826   0.745  1.6474 -0.6228 -0.8912
  675SOL    HW2 2025   0.553   0.807   0.693  2.0237  1.8536  1.3913
  676SOL     OW 2026   2.020   1.104   0.518 -0.8227 -0.1551 -0.3378
  676SOL    HW1 2027   1.927   1.064   0.516  0.3015 -0.3884  2.1806
  676SOL    HW2 2028   2.064   1.101   0.613  0.7045 -0.5940 -1.6125
  677SOL     OW 2029   2.902   1.446   2.504 -0.2526  0.3385  0.4745
  677SOL    HW1 2030   2.923   1.426   2.601 -0.4872 -1.6199 -0.2516
  677SOL    HW2 2031   2.939   1.368   2.444  0.9337 -0.3250 -4.4832
  678SOL     OW 2032   2.660   1.953   1.340  0.2957  0.3664  0.1759
  678SOL    HW1 2033   2.723   1.911   1.414  0.5446  0.0755  1.0021
  678SOL    HW2 2034   2.570   1.902   1.339  3.0759 -0.2377 -1.0630
  679SOL     OW 2035   2.069   2.699   0.531 -0.0438  0.3556 -0.2760
  679SOL    HW1 2036   2.122   2.688   0.614 -0.2095  1.1799  2.2411
  679SOL    HW2 2037   2.041   2.605   0.501  2.1968 -0.5927  0.6199
  680SOL     OW 2038   0.149   2.042   2.177  0.8831 -0.7821  0.1001
  680SOL    HW1 2039   0.204   2.068   2.092  0.7718 -1.4643  0.8528
  680SOL    HW2 2040   0.203   1.991   2.242  0.5230  0.0862 -0.3890
  681SOL     OW 2041   2.856   1.265   1.676 -0.6406 -0.1134  0.5655
  681SOL    HW1 2042   2.954   1.237   1.688 -0.4907  1.1208  2.7664
  681SOL    HW2 2043   2.827   1.327   1.752  2.4605 -2.6387  2.1888
  682SOL     OW 2044   1.107   2.203   0.812  0.1926 -0.3500 -0.0026
  682SOL    HW1 2045   1.045   2.284   0.794 -0.4082 -0.2192 -1.9346
  682SOL    HW2 2046   1.155   2.170   0.728 -4.8604 -0.7740 -0.1511
  683SOL     OW 2047   2.213   1.177   1.135  0.0705 -0.1747  0.3461
  683SOL    HW1 2048   2.140   1.210   1.073 -0.9177  0.8408  1.5056
  683SOL    HW2 2049   2.183   1.157   1.229  2.2179  0.0934  0.6089
  684SOL     OW 2050   0.134   1.857   2.812 -0.2148  0.4874  0.0607
  684SOL    HW1 2051   0.038   1.837   2.838  4.3770  0.9894 -2.8895
  684SOL    HW2 2052   0.181   1.893   2.896  2.2482  0.2888  1.0403
  685SOL     OW 2053   1.629   1.263   0.155 -0.0169  0.2546  0.2031
  685SOL    HW1 2054   1.706   1.212   0.115 -0.0784  2.0368  0.6682
  685SOL    HW2 2055   1.665   1.333   0.224 -0.5422  0.8655  1.7315
  686SOL     OW 2056   0.100   0.771   1.269 -0.6836  0.0444 -0.1656
  686SOL    HW1 2057   0.110   0.682   1.320 -1.2959 -1.8051  2.9001
  686SOL    HW2 2058   0.135   0.761   1.175 -1.9619 -2.1658  1.4131
  687SOL     OW 2059   0.884   2.155   2.523 -0.0936 -0.0356 -0.0562
  687SOL    HW1 2060   0.881   2.192   2.621 -1.3109 -0.0950  0.2753
  687SOL    HW2 2061   0.833   2.222   2.464 -1.0644 -0.5729 -2.0384
  688SOL     OW 2062   0.408   1.777   1.672 -0.0610  0.3027 -0.6103
  688SOL    HW1 2063   0.326   1.830   1.700  2.5471 -1.6228 -2.5858
  688SOL    HW2 2064   0.452   1.836   1.605  0.9704 -2.4801  0.5165
  689SOL     OW 2065   1.509   1.019   1.664  0.4798 -0.2035 -0.3773
  689SOL    HW1 2066   1.415   1.003   1.636 -0.4772  0.3237  1.6367
  689SOL    HW2 2067   1.563   0.939   1.643 -1.9823  2.4678  2.0263
  690SOL     OW 2068   2.463   0.726   1.152 -0.3400 -0.3477 -0.0480
  690SOL    HW1 2069   2.427   0.741   1.243 -2.4625  0.3930  0.2002
  690SOL    HW2 2070   2.411   0.780   1.085  0.8717 -1.5712  2.4386
  691SOL     OW 2071   0.791   2.016   1.538 -0.0221 -0.2877 -0.2406
  691SOL    HW1 2072   0.875   1.980   1.494 -0.6206 -1.5335 -0.6646
  691SOL    HW2 2073   0.803   2.043   1.637  1.4636  2.9891  1.9352
  692SOL     OW 2074   1.886   0.191   1.403 -0.0649  0.4242  0.5407
  692SOL    HW1 2075   1.875   0.157   1.302  1.1557  0.5332 -4.5133
  692SOL    HW2 2076   1.982   0.211   1.422 -0.1396 -0.1447 -3.1363
  693SOL     OW 2077   0.313   0.913   2.008  0.1889 -0.1613  0.7834
  693SOL    HW1 2078   0.409   0.894   2.029  0.4697 -0.8985  0.6045
  693SOL    HW2 2079   0.299   0.932   1.905 -0.0494 -1.3415  1.2239
  694SOL     OW 2080   1.856   0.068   1.163  0.2658 -0.1258  0.1112
  694SOL    HW1 2081   1.860   0.110   1.069 -0.4916  1.0657 -0.2548
  694SOL    HW2 2082   1.823   3.054   1.161 -1.0947  1.6051 -3.5020
  695SOL     OW 2083   1.243   1.410   1.715 -0.0273 -0.1292 -0.0442
  695SOL    HW1 2084   1.200   1.444   1.632  2.9777 -2.2196 -1.4757
  695SOL    HW2 2085   1.272   1.314   1.695  1.8604  0.1156  1.6938
  696SOL     OW 2086   1.781   2.979   0.221  0.3209  0.7206 -0.1347
  696SOL    HW1 2087   1.813   2.900   0.274  0.3421  0.1512  0.8915
  696SOL    HW2 2088   1.850   3.012   0.159  1.0454 -0.8898 -0.7174
  697SOL     OW 2089   0.860   0.525   0.358  0.0581  0.5822 -1.0896
  697SOL    HW1 2090   0.858   0.435   0.312  0.1735  1.3154  0.1752
  697SOL    HW2 2091   0.774   0.536   0.417 -1.3709  1.4702 -0.6173
  698SOL     OW 2092   1.335   1.233   2.533 -0.0029  0.1369 -0.0113
  698SOL    HW1 2093   1.362   1.236   2.434 -2.6492  0.3371  0.7224
  698SOL    HW2 2094   1.258   1.164   2.545 -0.3667 -1.4732  2.0883
  699SOL     OW 2095   1.376   1.279   1.074 -0.4214  1.0001 -0.1531
  699SOL    HW1 2096   1.445   1.353   1.083 -0.7395 -0.3368  0.3796
  699SOL    HW2 2097   1.393   1.233   0.985  0.7478 -2.3248 -0.1302
  700SOL     OW 2098   1.747   0.064   0.444 -0.0170 -0.4364 -0.5245
  700SOL    HW1 2099   1.749   3.071   0.373 -1.5780 -1.1536  0.5762
  700SOL    HW2 2100   1.810   0.141   0.416  1.0428 -2.4015 -1.6741
  701SOL     OW 2101   2.296   3.052   2.575 -0.3261 -0.3660 -0.5777
  701SOL    HW1 2102   2.355   3.014   2.505 -1.6161  0.5856 -0.1351
  701SOL    HW2 2103   2.294   0.075   2.560 -0.3562  1.6508  0.6305
  702SOL     OW 2104   1.061   0.093   0.103 -0.1993 -0.2157  0.5319
  702SOL    HW1 2105   1.092   0.178   0.052 -0.2976  1.1477  0.4237
  702SOL    HW2 2106   0.972   0.065   0.057  0.5405  0.1220  1.9116
  703SOL     OW 2107   2.207   2.690   2.224  0.1577 -0.1073 -0.4524
  703SOL    HW1 2108   2.152   2.640   2.152  0.0624 -1.1051 -1.3431
  703SOL    HW2 2109   2.143   2.731   2.295 -0.7950 -1.0567 -1.7546
  704SOL     OW 2110   0.429   2.395   0.843  0.7020  0.5206 -0.1228
  704SOL    HW1 2111   0.397   2.296   0.832  1.2756 -1.4793 -0.4341
  704SOL    HW2 2112   0.522   2.397   0.882 -0.3031 -0.1442 -0.8158
  705SOL     OW 2113   2.300   0.085   2.242 -0.2906  0.2824 -0.0362
  705SOL    HW1 2114   2.270   0.111   2.154  1.3583 -3.1206  1.3591
  705SOL    HW2 2115   2.333   3.069   2.238  0.0330  1.0117  0.8028
  706SOL     OW 2116   1.909   0.264   0.340  0.2562  0.1302  0.4049
  706SOL    HW1 2117   1.971   0.326   0.393 -0.4976  2.9019  0.8002
  706SOL    HW2 2118   1.958   0.205   0.267  3.0103  1.4456 -2.5823
  707SOL     OW 2119   1.200   1.838   2.164 -0.4042  0.2757 -0.0701
  707SOL    HW1 2120   1.275   1.888   2.203 -1.0848 -1.8270  0.7108
  707SOL    HW2 2121   1.119   1.893   2.157 -0.3312  0.0393  1.2239
  708SOL     OW 2122   0.186   2.551   2.005  0.5512 -0.4455 -0.0896
  708SOL    HW1 2123   0.136   2.512   2.087  1.4313  0.2235 -1.2800
  708SOL    HW2 2124   0.112   2.599   1.952  0.4094  1.2284 -1.5202
  709SOL     OW 2125   1.873   0.168   1.854 -0.2800  0.2743  1.0162
  709SOL    HW1 2126   1.923   0.153   1.939 -0.8480 -0.7568 -2.6965
  709SOL    HW2 2127   1.856   0.081   1.800 -2.1585 -2.9440 -2.2323
  710SOL     OW 2128   1.866   0.615   1.960  0.2797  0.5426  0.4223
  710SOL    HW1 2129   1.785   0.646   1.899 -1.9474  3.5204 -0.9561
  710SOL    HW2 2130   1.830   0.583   2.045  0.3047 -0.5519 -3.1111
  711SOL     OW 2131   0.918   2.241   0.382  0.4336 -0.1533  0.6815
  711SOL    HW1 2132   0.967   2.325   0.409  0.6838 -2.2035 -1.8505
  711SOL    HW2 2133   0.816   2.255   0.370  1.1312 -0.4323  0.7466
  712SOL     OW 2134   0.595   2.561   2.050 -0.0502 -0.2271  0.9610
  712SOL    HW1 2135   0.515   2.569   1.993  1.6701 -1.3435  0.9158
  712SOL    HW2 2136   0.620   2.644   2.101 -0.0241  0.9359  0.9980
  713SOL     OW 2137   2.000   1.390   0.506 -0.1387 -0.1070  0.0046
  713SOL    HW1 2138   1.950   1.424   0.583 -1.0370 -1.1782 -4.6642
  713SOL    HW2 2139   2.026   1.296   0.527 -1.1978  1.7792 -1.8823
  714SOL     OW 2140   0.614   1.947   1.131  0.2246  0.3887  0.2530
  714SOL    HW1 2141   0.553   1.895   1.070  3.2443  1.8836 -1.2070
  714SOL    HW2 2142   0.644   2.027   1.079 -3.1281 -1.5656  0.0030
  715SOL     OW 2143   1.938   2.841   2.782  0.2794 -0.0533  0.0108
  715SOL    HW1 2144   1.979   2.920   2.831  1.1687 -0.1738 -1.9368
  715SOL    HW2 2145   1.866   2.875   2.722  2.3168  1.0932  2.2251
  716SOL     OW 2146   2.694   2.988   1.972  0.6119 -0.1261 -0.1106
  716SOL    HW1 2147   2.743   2.902   1.948 -1.3864  3.4165  3.7620
  716SOL    HW2 2148   2.726   3.036   2.054 -1.1961  0.3689 -4.9421
  717SOL     OW 2149   0.387   0.968   0.210 -0.0193 -0.4338  0.1557
  717SOL    HW1 2150   0.379   1.021   0.123 -2.5202  1.4832  0.8699
  717SOL    HW2 2151   0.308   0.983   0.266 -1.2757 -1.8762 -2.7859
  718SOL     OW 2152   1.169   1.004   2.547  0.4375 -0.2495 -0.1262
  718SOL    HW1 2153   1.095   1.043   2.605 -0.7128 -0.5747  2.1216
  718SOL    HW2 2154   1.220   0.940   2.606 -2.2176 -0.2224  1.1039
  719SOL     OW 2155   2.797   1.536   3.001  0.2433 -0.3155 -0.5554
  719SOL    HW1 2156   2.824   1.477   0.001  0.4788  0.9425  0.5257
  719SOL    HW2 2157   2.742   1.615   3.032 -1.0161  2.2988  2.6025
  720SOL     OW 2158   1.112   0.743   0.964  0.5309 -0.1466  0.1070
  720SOL    HW1 2159   1.106   0.791   1.054 -0.7549 -0.6459  0.6109
  720SOL    HW2 2160   1.049   0.789   0.893  0.1047  0.1261 -1.9112
  721SOL     OW 2161   2.797   0.617   0.064  0.1752  0.5046  0.6145
  721SOL    HW1 2162   2.851   0.637   3.059 -1.5822 -1.8865  0.9741
  721SOL    HW2 2163   2.748   0.698   0.099 -0.0885 -0.0112  3.8350
  722SOL     OW 2164   1.614   0.885   2.793  0.0702  0.3034 -0.5470
  722SOL    HW1 2165   1.646   0.789   2.769  3.2735 -2.0661 -0.3417
  722SOL    HW2 2166   1.552   0.931   2.727  1.1366 -2.3758 -0.2247
  723SOL     OW 2167   0.154   0.979   0.378 -0.6457  0.1547 -0.5000
  723SOL    HW1 2168   0.112   1.058   0.333  2.0687 -1.0827 -0.8210
  723SOL    HW2 2169   0.101   0.895   0.366  3.3410  1.2699 -3.0096
  724SOL     OW 2170   0.487   1.387   2.160 -0.2117  0.3560 -0.2019
  724SOL    HW1 2171   0.409   1.323   2.148 -0.4609  0.1405 -1.3555
  724SOL    HW2 2172   0.477   1.439   2.249  0.4569 -0.3857  0.8903
  725SOL     OW 2173   1.857   0.778   1.694  0.4060  0.9217  0.3662
  725SOL    HW1 2174   1.947   0.793   1.660 -3.7869  0.8475  1.2856
  725SOL    HW2 2175   1.854   0.830   1.783  1.5590  2.8290  2.1062
  726SOL     OW 2176   1.622   2.849   0.549 -0.0166  0.1374  0.4178
  726SOL    HW1 2177   1.598   2.751   0.528  0.6339  0.6437  0.8645
  726SOL    HW2 2178   1.720   2.866   0.514  1.7289  0.0783  1.3737
  727SOL     OW 2179   1.380   1.278   2.275  0.1912  1.0082  0.8268
  727SOL    HW1 2180   1.473   1.235   2.275  1.3153 -1.4159 -1.3266
  727SOL    HW2 2181   1.358   1.309   2.182  1.8442 -0.6372 -0.9133
  728SOL     OW 2182   1.438   2.608   1.113 -0.1839 -0.1005 -0.1360
  728SOL    HW1 2183   1.350   2.561   1.127  0.5607  0.6460  0.6175
  728SOL    HW2 2184   1.501   2.594   1.193  0.2563  1.3700  0.8302
  729SOL     OW 2185   1.828   0.898   1.332 -0.0441 -0.3090 -0.3225
  729SOL    HW1 2186   1.826   0.946   1.240 -0.5534 -0.1198 -0.8166
  729SOL    HW2 2187   1.768   0.820   1.339 -1.0545  2.1500 -0.8028
  730SOL     OW 2188   0.519   1.690   2.330 -0.0708 -0.1082  0.1364
  730SOL    HW1 2189   0.433   1.700   2.278  2.9629 -0.5195  1.6884
  730SOL    HW2 2190   0.602   1.685   2.268  1.5077  1.1958 -2.4920
  731SOL     OW 2191   0.352   0.432   0.665  0.8361  0.1160  0.1497
  731SOL    HW1 2192   0.399   0.440   0.753 -1.9584  1.1856 -3.1654
  731SOL    HW2 2193   0.401   0.365   0.599  0.7043 -1.9918 -1.0829
  732SOL     OW 2194   1.167   0.855   0.120 -0.1777  0.0721 -0.4628
  732SOL    HW1 2195   1.135   0.773   0.176 -0.4398 -0.6655  1.0751
  732SOL    HW2 2196   1.098   0.929   0.129 -0.8077 -0.9620 -1.7128
  733SOL     OW 2197   0.715   2.203   0.691 -0.2174 -0.2962 -0.3253
  733SOL    HW1 2198   0.777   2.126   0.672 -0.1494  0.1191  0.1374
  733SOL    HW2 2199   0.625   2.185   0.647  0.4945 -1.7033  0.9328
  734SOL     OW 2200   3.018   2.260   2.737 -0.3417 -0.1949  0.4543
  734SOL    HW1 2201   3.063   2.253   2.647  1.8547  0.3166 -0.6530
  734SOL    HW2 2202   3.076   2.239   2.818  1.4763  3.1518  1.7706
  735SOL     OW 2203   1.082   0.795   1.436  0.1349 -0.7586  0.7023
  735SOL    HW1 2204   1.006   0.778   1.501 -1.3322 -0.5642 -0.9960
  735SOL    HW2 2205   1.127   0.707   1.419 -0.2813  0.6097 -0.3332
  736SOL     OW 2206   2.109   2.727   3.026 -0.0039  0.3792 -0.4247
  736SOL    HW1 2207   2.054   2.792   0.006 -1.2214 -0.0839  2.6287
  736SOL    HW2 2208   2.161   2.783   2.964 -1.6156 -4.3217  0.1787
  737SOL     OW 2209   0.133   0.253   0.544 -0.2404  0.5044  0.3099
  737SOL    HW1 2210   0.040   0.233   0.511  0.9445 -0.9121  3.9197
  737SOL    HW2 2211   0.141   0.252   0.644 -0.5786 -1.4933  0.2336
  738SOL     OW 2212   2.240   0.155   0.957 -0.0209  0.0233  0.1785
  738SOL    HW1 2213   2.298   0.238   0.982  0.8235  0.8807  0.7276
  738SOL    HW2 2214   2.297   0.077   0.925  1.4555  1.7031 -2.2091
  739SOL     OW 2215   1.916   2.426   0.273  0.3199  0.1103 -0.1573
  739SOL    HW1 2216   1.827   2.378   0.260  0.0534  2.4661 -0.8658
  739SOL    HW2 2217   1.942   2.479   0.190  0.7709 -0.8532 -0.3271
  740SOL     OW 2218   1.487   0.237   1.062  0.3729 -0.9679 -0.6518
  740SOL    HW1 2219   1.448   0.199   0.974 -0.0546 -1.0263  1.2278
  740SOL    HW2 2220   1.582   0.214   1.053 -3.9351  0.5800 -2.2579
  741SOL     OW 2221   2.740   0.805   0.958  0.2319 -0.2540 -0.3360
  741SOL    HW1 2222   2.826   0.771   1.003  1.4356  0.1687 -2.3690
  741SOL    HW2 2223   2.695   0.885   1.006  1.9241  1.1848  0.7218
  742SOL     OW 2224   0.983   2.007   2.127  0.0414 -0.8287 -0.1600
  742SOL    HW1 2225   0.889   1.999   2.162 -0.8336  0.8133  0.5215
  742SOL    HW2 2226   0.976   2.050   2.036 -0.1944  0.0201 -0.3559
  743SOL     OW 2227   1.601   0.755   1.661  0.1824  0.0656 -0.4699
  743SOL    HW1 2228   1.698   0.758   1.684 -3.0039 -1.7255  1.2912
  743SOL    HW2 2229   1.560   0.675   1.704 -0.5549  1.6369  3.3067
  744SOL     OW 2230   2.099   0.547   1.461 -0.2317 -0.4321 -0.1222
  744SOL    HW1 2231   2.068   0.572   1.365  0.1311  1.8857 -1.1412
  744SOL    HW2 2232   2.129   0.627   1.516  1.7114  1.7144 -1.4378
  745SOL     OW 2233   1.725   1.206   1.648 -0.2809  0.2656  0.3125
  745SOL    HW1 2234   1.682   1.133   1.701  0.1721  2.3858  0.7953
  745SOL    HW2 2235   1.677   1.215   1.558  0.3375  1.6270 -2.6059
  746SOL     OW 2236   1.695   1.581   0.892  0.0122  0.0193  0.2006
  746SOL    HW1 2237   1.752   1.597   0.975  1.3219  0.3782 -1.6061
  746SOL    HW2 2238   1.670   1.670   0.851 -0.0851  0.6880  2.1709
  747SOL     OW 2239   1.967   1.265   1.027 -0.0770 -0.1395 -0.0740
  747SOL    HW1 2240   2.000   1.344   0.968 -1.4345  1.3229 -1.7980
  747SOL    HW2 2241   1.907   1.299   1.104  0.2741  0.0541  1.1989
  748SOL     OW 2242   0.403   2.128   0.776 -0.1055  0.1830  0.3513
  748SOL    HW1 2243   0.338   2.048   0.786 -2.3752 -1.0755  1.9919
  748SOL    HW2 2244   0.426   2.144   0.682 -2.3712  1.1097  1.4553
  749SOL     OW 2245   2.351   2.910   2.168  0.0246  0.9091  0.0485
  749SOL    HW1 2246   2.295   2.822   2.177 -0.3021 -7.4911 -0.4650
  749SOL    HW2 2247   2.348   2.944   2.073  1.0705  0.2139 -2.5500
  750SOL     OW 2248   2.612   0.497   1.090 -0.3962 -0.2704  0.6510
  750SOL    HW1 2249   2.681   0.462   1.158 -0.2196  0.2588 -0.2061
  750SOL    HW2 2250   2.586   0.597   1.102 -0.1959  0.3529 -0.3920
  751SOL     OW 2251   2.580   2.834   0.304 -0.3413  0.3411  0.1371
  751SOL    HW1 2252   2.664   2.784   0.281  0.7035 -0.4100 -0.2351
  751SOL    HW2 2253   2.499   2.821   0.242 -2.2808  0.8064  2.1131
  752SOL     OW 2254   0.203   2.847   0.767  0.6466  0.9189  0.5478
  752SOL    HW1 2255   0.294   2.800   0.761 -1.6158  2.0388  1.2282
  752SOL    HW2 2256   0.195   2.920   0.698 -1.6351 -0.9890  2.6151
  753SOL     OW 2257   1.553   0.529   1.816  0.2191  0.3064 -0.2909
  753SOL    HW1 2258   1.455   0.521   1.815  2.1396  1.4584  0.0750
  753SOL    HW2 2259   1.598   0.448   1.771 -0.8179 -2.7691 -1.4048
  754SOL     OW 2260   1.661   2.372   1.728  0.5939  0.2221 -0.4237
  754SOL    HW1 2261   1.734   2.442   1.738  0.0366 -0.9600 -0.5133
  754SOL    HW2 2262   1.571   2.412   1.684 -4.5759  0.5482 -1.1870
  755SOL     OW 2263   2.945   0.235   0.500 -0.4112 -0.1656  0.1656
  755SOL    HW1 2264   2.919   0.325   0.545  2.2047  2.7288 -1.8381
  755SOL    HW2 2265   2.882   0.229   0.418 -0.3780  0.4425  2.3693
  756SOL     OW 2266   1.385   1.593   2.961 -0.7195  0.0164  0.4139
  756SOL    HW1 2267   1.342   1.566   2.875 -1.5537  0.5629  1.3227
  756SOL    HW2 2268   1.490   1.608   2.949  3.8617 -1.2390 -2.8582
  757SOL     OW 2269   1.279   0.159   1.426 -0.6023  0.0927 -0.0368
  757SOL    HW1 2270   1.357   0.202   1.374 -0.0231 -0.7763 -0.1340
  757SOL    HW2 2271   1.193   0.208   1.413 -0.5094 -1.1623 -3.1676
  758SOL     OW 2272   0.695   0.173   1.321  0.1767 -0.3448  0.9043
  758SOL    HW1 2273   0.671   0.210   1.416  0.3394 -0.1835  3.4820
  758SOL    HW2 2274   0.734   0.076   1.335  2.4821 -2.0359  0.5735
  759SOL     OW 2275   0.428   0.685   1.043  0.1630  0.3679 -0.4220
  759SOL    HW1 2276   0.502   0.707   0.980  1.3775  0.8411  1.7113
  759SOL    HW2 2277   0.337   0.702   0.998 -1.5396 -1.1749  0.4655
  760SOL     OW 2278   2.419   1.291   0.982 -0.4233 -0.4225  0.1842
  760SOL    HW1 2279   2.486   1.223   0.943  0.3302  1.2931 -0.8361
  760SOL    HW2 2280   2.373   1.254   1.066 -1.3495  3.3457 -2.6380
  761SOL     OW 2281   1.523   0.610   0.353 -0.3824  0.3746 -0.6538
  761SOL    HW1 2282   1.573   0.521   0.339  1.0772  0.0015 -4.8781
  761SOL    HW2 2283   1.446   0.591   0.417  0.6406 -1.8556 -1.6626
  762SOL     OW 2284   2.209   2.235   1.261  0.7820 -0.4341 -0.3598
  762SOL    HW1 2285   2.161   2.269   1.179  0.6622 -0.5256  1.0695
  762SOL    HW2 2286   2.302   2.277   1.275  0.3118  1.1065 -0.5762
  763SOL     OW 2287   1.398   1.618   1.832 -0.3725 -0.5152 -0.2208
  763SOL    HW1 2288   1.484   1.612   1.777 -1.3208  1.6468  2.2036
  763SOL    HW2 2289   1.324   1.561   1.794  1.9612  1.0224 -0.5489
  764SOL     OW 2290   2.698   1.894   2.335 -0.2625 -0.0409 -0.1299
  764SOL    HW1 2291   2.768   1.903   2.406  1.1426  1.6951 -1.1553
  764SOL    HW2 2292   2.652   1.977   2.309 -0.1858 -4.4687 -0.1852
  765SOL     OW 2293   0.893   2.538   1.070 -0.6666  0.0522  0.7189
  765SOL    HW1 2294   0.988   2.511   1.101 -0.9518  0.8232 -0.1753
  765SOL    HW2 2295   0.864   2.625   1.123 -0.9819 -0.4159  1.1846
  766SOL     OW 2296   0.829   1.874   2.481  0.1869  0.0235 -0.1481
  766SOL    HW1 2297   0.771   1.840   2.560  1.9992 -2.1533  1.0107
  766SOL    HW2 2298   0.854   1.969   2.495 -0.8281 -0.0757  0.8271
  767SOL     OW 2299   1.956   0.580   2.409 -0.4381 -0.1337  0.5108
  767SOL    HW1 2300   2.047   0.612   2.379  0.7893  2.3033  1.4349
  767SOL    HW2 2301   1.898   0.660   2.441  0.2846  0.0636  2.2428
  768SOL     OW 2302   1.000   2.538   2.613 -0.1998 -0.1688 -0.3269
  768SOL    HW1 2303   1.094   2.575   2.604 -0.1865  0.2779  1.2071
  768SOL    HW2 2304   1.000   2.511   2.711  1.8172  0.3413 -1.5405
  769SOL     OW 2305   3.039   2.534   0.868 -0.1422  0.5108 -0.1167
  769SOL    HW1 2306   2.963   2.555   0.934  2.4738 -0.6089 -1.0716
  769SOL    HW2 2307   0.033   2.485   0.917  2.3318  2.3492  2.4099
  770SOL     OW 2308   0.602   2.871   3.077  0.3453  0.2273  0.2273
  770SOL    HW1 2309   0.523   2.811   3.061 -0.7510 -0.0290  0.1256
  770SOL    HW2 2310   0.656   2.834   0.073  0.4744 -0.0537  2.3658
  771SOL     OW 2311   1.079   2.096   2.358  0.0300  0.1721 -0.3110
  771SOL    HW1 2312   1.054   2.092   2.261 -2.1330 -1.3099 -0.0873
  771SOL    HW2 2313   0.994   2.113   2.415 -0.7131 -0.7873 -0.1630
  772SOL     OW 2314   2.027   0.058   2.088  0.6308  0.7271  0.2110
  772SOL    HW1 2315   2.116   0.095   2.066 -1.3881  0.0537  3.0783
  772SOL    HW2 2316   2.020   3.048   2.040 -1.4773  0.9467  2.7290
  773SOL     OW 2317   1.215   2.970   1.882 -0.4853 -0.3919 -0.2282
  773SOL    HW1 2318   1.289   2.984   1.807  1.8600 -0.5879 -0.0061
  773SOL    HW2 2319   1.189   2.872   1.895  2.5219 -0.5010 -0.8315
  774SOL     OW 2320   1.479   0.899   2.150  0.1844  0.2023  0.0590
  774SOL    HW1 2321   1.384   0.917   2.118 -0.0993 -2.5791  0.5827
  774SOL    HW2 2322   1.522   0.813   2.116  0.6711 -1.3893 -0.7656
  775SOL     OW 2323   2.303   3.071   0.213  0.0410  0.2250 -0.3033
  775SOL    HW1 2324   2.346   3.001   0.145  2.8270 -0.9306 -0.2530
  775SOL    HW2 2325   2.287   3.022   0.297  0.9126  2.4801 -1.3528
  776SOL     OW 2326   2.252   0.996   1.688 -0.0727 -0.4923  0.1440
  776SOL    HW1 2327   2.233   1.030   1.593 -0.2960  0.9534 -0.5711
  776SOL    HW2 2328   2.205   1.056   1.756  0.7139 -0.7373 -1.5226
  777SOL     OW 2329   2.980   1.199   2.387  0.5713 -0.3541 -0.2462
  777SOL    HW1 2330   3.068   1.168   2.347 -1.9780  0.2171 -0.7603
  777SOL    HW2 2331   2.899   1.144   2.344  2.3517 -3.0633 -1.6757
  778SOL     OW 2332   2.246   0.462   2.066  0.0319 -0.5219  0.8398
  778SOL    HW1 2333   2.229   0.486   2.163  0.9840  1.4198 -0.6358
  778SOL    HW2 2334   2.342   0.469   2.042 -3.7365  1.0577  2.8256
  779SOL     OW 2335   0.017   0.071   2.895 -0.2328 -0.6154  0.0788
  779SOL    HW1 2336   0.051   3.057   2.919  0.9000  1.2033 -1.0411
  779SOL    HW2 2337   0.014   0.084   2.792  0.1415 -0.6635  0.6454
  780SOL     OW 2338   2.022   2.853   2.390  0.2111 -0.0831  0.0911
  780SOL    HW1 2339   2.085   2.912   2.443 -0.8114 -1.3900  1.2861
  780SOL    HW2 2340   1.951   2.918   2.350 -0.7789  0.1432 -2.0258
  781SOL     OW 2341   0.044   0.675   1.726 -0.0411 -0.0920 -0.2349
  781SOL    HW1 2342   0.052   0.774   1.699 -2.1643  0.2859 -0.9356
  781SOL    HW2 2343   0.048   0.665   1.827 -1.9670  1.1790 -1.9657
  782SOL     OW 2344   2.134   2.098   0.273  0.7423  0.4394  0.3026
  782SOL    HW1 2345   2.225   2.055   0.274 -3.5378  0.1118  0.0623
  782SOL    HW2 2346   2.137   2.197   0.301  1.7205  0.9528  1.8154
  783SOL     OW 2347   0.465   2.100   1.290  0.2124  0.5692 -0.3151
  783SOL    HW1 2348   0.478   2.195   1.254  0.3058  0.2906 -0.0216
  783SOL    HW2 2349   0.529   2.035   1.244 -1.4034  2.4643 -2.1072
  784SOL     OW 2350   2.399   0.766   2.257 -0.0021 -0.2934 -0.3348
  784SOL    HW1 2351   2.341   0.678   2.254 -1.5790 -0.7419 -1.4524
  784SOL    HW2 2352   2.360   0.832   2.190  1.3613 -0.8690 -0.3482
  785SOL     OW 2353   0.099   0.381   1.258 -0.0316  0.8519 -0.3068
  785SOL    HW1 2354   0.175   0.394   1.187  1.6839  2.1211  1.0049
  785SOL    HW2 2355   0.118   0.441   1.341 -1.9652  1.3969  1.0352
  786SOL     OW 2356   1.829   2.766   0.366 -0.5320 -0.0654 -0.4787
  786SOL    HW1 2357   1.772   2.686   0.346 -0.3074 -0.3876  2.1431
  786SOL    HW2 2358   1.913   2.746   0.413 -1.7493 -0.5841  0.3597
  787SOL     OW 2359   1.384   0.214   0.794  0.2882  0.0579  0.0958
  787SOL    HW1 2360   1.285   0.219   0.772  0.7961  1.1576  0.9159
  787SOL    HW2 2361   1.431   0.162   0.722 -1.9461 -0.7021  1.9085
  788SOL     OW 2362   0.098   1.612   0.907 -0.2991 -0.4759  0.2013
  788SOL    HW1 2363   0.030   1.676   0.866  0.1038 -0.9778 -1.4329
  788SOL    HW2 2364   0.051   1.552   0.974  0.4635 -1.6441 -0.7130
  789SOL     OW 2365   2.700   0.721   2.168 -0.0589  0.0200 -0.0792
  789SOL    HW1 2366   2.599   0.726   2.188  2.0056 -3.4860 -1.5725
  789SOL    HW2 2367   2.756   0.721   2.252  0.9726 -1.7663  0.7127
  790SOL     OW 2368   0.878   0.381   3.035  0.0853  0.0100  0.4900
  790SOL    HW1 2369   0.843   0.344   2.947 -1.6974  2.6909 -1.4846
  790SOL    HW2 2370   0.959   0.336   3.065  0.1210  0.8140  0.7795
  791SOL     OW 2371   2.569   2.838   2.973 -0.4364 -0.4078 -0.2313
  791SOL    HW1 2372   2.582   2.901   2.895 -1.2856  1.2255 -0.5393
  791SOL    HW2 2373   2.599   2.750   2.938 -0.8947  3.3752  0.2427
  792SOL     OW 2374   1.210   0.977   1.629  0.1137  0.6097  0.0070
  792SOL    HW1 2375   1.173   0.919   1.555  0.1898  0.3529 -1.8417
  792SOL    HW2 2376   1.224   0.916   1.706 -0.6299  1.0409  1.0478
  793SOL     OW 2377   2.603   0.217   1.310 -0.1242  0.3511 -0.2876
  793SOL    HW1 2378   2.522   0.272   1.343 -1.2306 -0.0434 -0.8156
  793SOL    HW2 2379   2.571   0.138   1.249 -2.4793 -2.5916 -0.1721
  794SOL     OW 2380   2.757   0.105   2.180 -0.1324 -0.0768  0.2883
  794SOL    HW1 2381   2.697   0.175   2.223 -1.9881  0.6177 -1.6977
  794SOL    HW2 2382   2.811   0.146   2.106 -0.0573 -0.6848  3.1689
  795SOL     OW 2383   0.588   1.820   2.821 -0.1436  0.2686 -0.3706
  795SOL    HW1 2384   0.684   1.788   2.830 -3.3874  0.6894 -0.1264
  795SOL    HW2 2385   0.541   1.809   2.910  0.8645  4.8425 -3.5675
  796SOL     OW 2386   2.192   0.671   2.593 -0.1190  0.1867 -0.2311
  796SOL    HW1 2387   2.204   0.768   2.564 -2.0700 -1.5508 -0.4217
  796SOL    HW2 2388   2.097   0.652   2.634 -1.8571 -0.6677  0.1300
  797SOL     OW 2389   2.517   2.000   0.064  0.0387 -0.4307  0.3775
  797SOL    HW1 2390   2.588   2.070   0.059 -1.9015  2.0320  0.8873
  797SOL    HW2 2391   2.454   2.008   3.065  0.2565 -1.0432 -0.5013
  798SOL     OW 2392   2.963   0.283   1.419 -0.2794 -0.3767 -1.0423
  798SOL    HW1 2393   2.995   0.230   1.504 -1.1489 -0.9395  0.1763
  798SOL    HW2 2394   3.041   0.300   1.356 -1.4459 -1.1086 -0.0743
  799SOL     OW 2395   0.379   0.264   1.706  0.4738 -0.0994  0.1300
  799SOL    HW1 2396   0.382   0.347   1.640  0.5239  3.4545 -0.4791
  799SOL    HW2 2397   0.386   0.296   1.801  0.0474 -2.1168  1.1207
  800SOL     OW 2398   0.189   1.932   0.019  0.3906  0.1275  0.3957
  800SOL    HW1 2399   0.119   1.895   0.086 -0.3316 -0.1196  1.5660
  800SOL    HW2 2400   0.282   1.913   0.049 -2.3404 -1.5908  0.6561
  801SOL     OW 2401   1.658   1.839   0.825  0.0091 -0.4933 -0.7772
  801SOL    HW1 2402   1.585   1.870   0.892 -1.5604 -1.8700  1.1850
  801SOL    HW2 2403   1.749   1.854   0.871  0.4330 -1.0045  0.8685
  802SOL     OW 2404   1.331   0.974   0.296  0.0706  0.2499 -0.8147
  802SOL    HW1 2405   1.364   1.064   0.259  1.2190  1.3608  1.5052
  802SOL    HW2 2406   1.265   0.938   0.230  0.8815 -1.4879 -1.9629
  803SOL     OW 2407   0.999   1.532   1.851  0.5732 -0.8426 -0.3605
  803SOL    HW1 2408   0.942   1.596   1.797  1.7039  3.3649  0.7961
  803SOL    HW2 2409   1.063   1.474   1.805 -0.4938 -0.4375 -0.0956
  804SOL     OW 2410   1.778   2.406   1.197 -0.3919 -0.8573 -0.6418
  804SOL    HW1 2411   1.811   2.327   1.251  0.5216  0.2771  1.4389
  804SOL    HW2 2412   1.792   2.370   1.107  2.8179 -2.0852  2.5338
  805SOL     OW 2413   0.116   2.225   2.514  0.0282 -0.1918 -0.3821
  805SOL    HW1 2414   0.054   2.195   2.438  2.4793  1.1007  0.3556
  805SOL    HW2 2415   0.211   2.255   2.487  2.8447 -1.3112  1.2894
  806SOL     OW 2416   1.055   2.938   0.255  0.4901 -0.8294 -0.1182
  806SOL    HW1 2417   1.039   3.034   0.220 -3.6547  2.0339  2.0480
  806SOL    HW2 2418   0.988   2.912   0.329  1.1062 -1.6860  0.0092
  807SOL     OW 2419   2.537   1.032   2.745 -0.2761 -0.2964 -0.7667
  807SOL    HW1 2420   2.600   1.023   2.821  2.5228  0.7676 -1.6307
  807SOL    HW2 2421   2.563   1.113   2.693  1.8725 -3.1356  1.7299
  808SOL     OW 2422   1.530   2.179   0.971 -0.2895 -0.0736 -0.1354
  808SOL    HW1 2423   1.486   2.233   0.893  0.2226  1.4149  1.5714
  808SOL    HW2 2424   1.630   2.197   0.982 -1.1753 -1.7628  0.4983
  809SOL     OW 2425   0.327   0.075   0.525  0.5145 -0.3099 -0.4383
  809SOL    HW1 2426   0.375   0.066   0.440 -1.9894 -3.7426  1.3464
  809SOL    HW2 2427   0.262   0.157   0.526 -1.5652  0.8699 -0.7397
  810SOL     OW 2428   1.163   1.476   0.680  0.1695  0.2498  0.6436
  810SOL    HW1 2429   1.212   1.487   0.766  2.0312  0.1748 -1.0727
  810SOL    HW2 2430   1.083   1.420   0.694  0.9567 -0.3393  1.6621
  811SOL     OW 2431   1.363   2.866   1.095  0.0419  0.3346  0.4233
  811SOL    HW1 2432   1.380   2.767   1.087  2.3259  0.6333  3.5511
  811SOL    HW2 2433   1.390   2.892   1.193  1.4679  0.3556  2.9111
  812SOL     OW 2434   1.293   0.177   0.395 -0.4834  0.7741 -0.0351
  812SOL    HW1 2435   1.382   0.146   0.433 -0.1848  0.6994  0.1118
  812SOL    HW2 2436   1.212   0.140   0.441 -0.9937 -2.0874 -0.9207
  813SOL     OW 2437   1.086   2.981   2.278  0.5614  0.1524 -0.9965
  813SOL    HW1 2438   0.999   2.932   2.284  0.4982 -0.1097  0.2500
  813SOL    HW2 2439   1.168   2.916   2.268  1.0561  0.8794 -0.0108
  814SOL     OW 2440   1.001   2.954   1.175  0.2077  0.2806 -0.3877
  814SOL    HW1 2441   0.936   2.876   1.175 -1.7127  0.3606 -2.8215
  814SOL    HW2 2442   1.016   2.993   1.081  2.1235  0.7804 -4.1953
  815SOL     OW 2443   0.168   2.529   0.390  0.1190  0.1776  0.1807
  815SOL    HW1 2444   0.179   2.560   0.291  0.2284  0.0896 -1.1272
  815SOL    HW2 2445   0.106   2.580   0.449 -0.2690 -0.4934  0.0556
  816SOL     OW 2446   2.230   1.182   2.678 -0.2691 -0.3399 -0.0360
  816SOL    HW1 2447   2.253   1.165   2.775  1.9404 -0.0619  0.6956
  816SOL    HW2 2448   2.273   1.111   2.619 -0.0135  0.8942  1.8757
  817SOL     OW 2449   1.840   2.381   2.524 -0.3416  0.3083  0.2028
  817SOL    HW1 2450   1.934   2.364   2.572 -0.1312  0.4276  1.6548
  817SOL    HW2 2451   1.846   2.469   2.470  0.6199  0.2751 -0.6523
  818SOL     OW 2452   0.969   1.196   0.356 -0.2896 -0.2930 -0.2236
  818SOL    HW1 2453   0.989   1.111   0.299  0.2702 -0.6889 -0.6845
  818SOL    HW2 2454   1.053   1.258   0.358  2.7624 -1.2751 -1.3460
  819SOL     OW 2455   1.561   1.913   0.077 -0.1269 -0.4414 -0.4986
  819SOL    HW1 2456   1.484   1.927   0.144 -0.7253  1.5930  0.9184
  819SOL    HW2 2457   1.516   1.895   3.063 -2.2428 -1.0037  0.6082
  820SOL     OW 2458   0.533   0.739   0.213  0.2826 -0.1125  0.3445
  820SOL    HW1 2459   0.466   0.670   0.187  1.3240  0.2580  2.0602
  820SOL    HW2 2460   0.489   0.831   0.226  2.4317 -1.1964  0.0726
  821SOL     OW 2461   0.333   3.020   1.389  0.2701  0.3544  0.1311
  821SOL    HW1 2462   0.273   2.943   1.421  0.7680 -1.1441  0.9363
  821SOL    HW2 2463   0.281   3.079   1.320 -1.2528  2.6136 -1.5710
  822SOL     OW 2464   1.992   2.125   2.400 -0.5108 -0.5231  0.2721
  822SOL    HW1 2465   1.902   2.166   2.413  2.5978 -4.3018  0.1601
  822SOL    HW2 2466   2.013   2.071   2.482 -0.1630 -0.1003  0.1696
  823SOL     OW 2467   0.663   0.568   1.854  0.3275 -0.0578  0.5097
  823SOL    HW1 2468   0.671   0.663   1.885  0.5180 -1.5106  0.7011
  823SOL    HW2 2469   0.586   0.521   1.901 -3.7343 -1.3601  1.9716
  824SOL     OW 2470   2.415   0.017   1.656 -0.1778 -0.5180  0.0761
  824SOL    HW1 2471   2.419   0.122   1.657 -1.0662  4.8182  1.4485
  824SOL    HW2 2472   2.320   3.059   1.646 -0.1683 -0.8069  0.4330
  825SOL     OW 2473   0.508   1.274   2.783 -0.0233  0.0054  0.1695
  825SOL    HW1 2474   0.455   1.314   2.861  1.8000 -0.9731 -2.0418
  825SOL    HW2 2475   0.597   1.230   2.806  0.2733 -1.9889 -2.1389
  826SOL     OW 2476   1.870   0.431   2.643  0.0243 -0.1035  0.9993
  826SOL    HW1 2477   1.906   0.464   2.550 -0.0396  0.4039 -1.8575
  826SOL    HW2 2478   1.953   0.392   2.700  1.5725  1.9183 -0.0638
  827SOL     OW 2479   0.725   2.298   2.379  0.1166  0.1471 -0.1004
  827SOL    HW1 2480   0.645   2.311   2.443 -1.5764  1.8067  2.6787
  827SOL    HW2 2481   0.692   2.287   2.285  2.9658  2.2316  0.7053
  828SOL     OW 2482   2.764   0.057   1.484  0.1560  0.1013 -0.6480
  828SOL    HW1 2483   2.867   0.060   1.471  0.9679  1.5367 -0.7614
  828SOL    HW2 2484   2.717   0.102   1.403 -0.0106 -0.6142  0.0493
  829SOL     OW 2485   1.393   1.698   1.495 -0.3185  0.2698  0.2907
  829SOL    HW1 2486   1.483   1.666   1.523 -0.2242  0.3160 -2.6338
  829SOL    HW2 2487   1.368   1.670   1.396 -1.8504 -1.2011 -1.6903
  830SOL     OW 2488   0.694   0.847   1.896 -0.1726 -0.3506  0.0574
  830SOL    HW1 2489   0.639   0.880   1.815  0.9500  0.7578  1.2640
  830SOL    HW2 2490   0.659   0.894   1.979 -0.9702  1.3512 -0.5584
  831SOL     OW 2491   2.878   1.871   0.251  0.0767 -0.4530 -0.4233
  831SOL    HW1 2492   2.805   1.811   0.204 -1.9968 -1.7602 -0.1089
  831SOL    HW2 2493   2.969   1.856   0.201 -1.3682 -1.4679 -1.6056
  832SOL     OW 2494   1.288   2.794   0.300  0.5310  0.0758  0.5693
  832SOL    HW1 2495   1.201   2.853   0.275 -1.6926  0.0417 -0.4843
  832SOL    HW2 2496   1.369   2.855   0.294 -0.0546 -0.4622  0.5533
  833SOL     OW 2497   2.742   0.367   1.578  0.3221 -0.0193  0.2770
  833SOL    HW1 2498   2.809   0.401   1.645 -0.4565  0.3675 -0.5135
  833SOL    HW2 2499   2.777   0.285   1.528  0.7512 -1.7321 -1.3221
  834SOL     OW 2500   0.179   0.729   0.950 -0.2238  0.0766  0.1930
  834SOL    HW1 2501   0.158   0.825   0.977 -1.2385 -0.0412  0.4311
  834SOL    HW2 2502   0.180   0.715   0.847 -0.4136 -2.4799 -0.3995
  835SOL     OW 2503   2.616   2.959   0.731  0.7284 -0.4758  0.3079
  835SOL    HW1 2504   2.665   3.050   0.717  0.8310  0.1865 -0.3125
  835SOL    HW2 2505   2.673   2.885   0.771 -0.5940  1.2330 -1.2230
  836SOL     OW 2506   1.190   1.822   2.845 -0.0111  0.1369 -0.4443
  836SOL    HW1 2507   1.128   1.904   2.832  1.0277 -1.3915  1.4342
  836SOL    HW2 2508   1.166   1.775   2.934  1.0353 -2.0317 -2.0277
  837SOL     OW 2509   1.671   1.703   0.273 -0.6277  0.4726  0.3779
  837SOL    HW1 2510   1.688   1.774   0.203  0.2762  0.1020  2.0097
  837SOL    HW2 2511   1.577   1.704   0.310  2.7884  0.6913 -2.1816
  838SOL     OW 2512   2.822   0.724   2.436 -0.1428 -0.1296  0.2767
  838SOL    HW1 2513   2.920   0.762   2.445  3.6841  1.3754 -0.8587
  838SOL    HW2 2514   2.747   0.788   2.465  0.6217 -2.4376 -2.6902
  839SOL     OW 2515   0.613   0.939   2.595  0.4684 -0.2394 -0.0627
  839SOL    HW1 2516   0.544   1.013   2.577 -2.0720 -0.8194  1.0157
  839SOL    HW2 2517   0.597   0.893   2.683 -2.1685 -1.4446 -1.0470
  840SOL     OW 2518   1.344   0.789   2.987  0.2969 -0.1335 -0.2024
  840SOL    HW1 2519   1.441   0.767   3.012 -0.4557 -0.8366 -1.2792
  840SOL    HW2 2520   1.294   0.790   3.078 -0.9991  0.9340  3.4031
  841SOL     OW 2521   0.609   2.746   0.656  0.4372 -0.5242  0.8765
  841SOL    HW1 2522   0.520   2.703   0.684 -0.2694  0.5776 -0.8816
  841SOL    HW2 2523   0.685   2.677   0.646  0.4379 -3.0565 -1.3727
  842SOL     OW 2524   0.647   0.547   0.560 -0.2020  0.2966  0.0429
  842SOL    HW1 2525   0.605   0.454   0.563  1.2543  1.0637 -1.3378
  842SOL    HW2 2526   0.623   0.596   0.646  0.4822 -1.4703  2.0712
  843SOL     OW 2527   0.420   0.910   1.233 -0.8848  0.3280  0.5743
  843SOL    HW1 2528   0.446   0.815   1.210 -0.6564  0.4438 -1.0841
  843SOL    HW2 2529   0.348   0.953   1.173  1.1415  1.9058 -0.3789
  844SOL     OW 2530   2.130   2.350   2.672  0.2708  0.1623  0.0520
  844SOL    HW1 2531   2.107   2.449   2.653 -1.9369  1.0958 -1.6755
  844SOL    HW2 2532   2.227   2.318   2.677  1.0981 -3.0593  2.6027
  845SOL     OW 2533   2.109   3.037   1.642 -0.0382  0.0257  0.4440
  845SOL    HW1 2534   2.121   3.013   1.543 -2.0236  0.9647 -1.5835
  845SOL    HW2 2535   2.020   3.008   1.684  2.9891  0.4260 -3.8169
  846SOL     OW 2536   1.891   1.196   2.406 -0.0139 -0.4859 -0.0178
  846SOL    HW1 2537   1.960   1.218   2.337  2.4144 -1.3699  2.6095
  846SOL    HW2 2538   1.914   1.229   2.504 -1.0046  0.1823  3.0378
  847SOL     OW 2539   2.024   2.903   1.958 -0.8846  0.3980 -0.3289
  847SOL    HW1 2540   1.941   2.847   1.939  0.0100  2.0467  0.1719
  847SOL    HW2 2541   2.102   2.849   1.919  2.8012 -2.0444 -3.7803
  848SOL     OW 2542   3.078   2.805   0.080  0.5252 -0.1276 -0.7710
  848SOL    HW1 2543   0.007   2.833   3.063 -0.8514  0.9194 -2.4320
  848SOL    HW2 2544   3.048   2.884   0.137 -0.4091 -1.0430  0.8926
  849SOL     OW 2545   0.178   2.724   1.254 -0.2933 -0.1684 -0.6110
  849SOL    HW1 2546   0.156   2.772   1.342 -1.1695  1.8529  0.8850
  849SOL    HW2 2547   0.200   2.800   1.185 -0.0685 -0.4327  0.7284
  850SOL     OW 2548   0.462   1.793   0.421 -0.2187 -0.2614 -0.2691
  850SOL    HW1 2549   0.535   1.783   0.496  1.2120  0.0338 -2.4823
  850SOL    HW2 2550   0.497   1.864   0.352 -1.2833  0.3372  0.6960
  851SOL     OW 2551   2.165   0.808   2.903  0.5030 -0.1463  0.4532
  851SOL    HW1 2552   2.091   0.747   2.866 -1.5298 -1.2508 -1.1300
  851SOL    HW2 2553   2.258   0.786   2.864  0.7468 -1.2758 -1.7023
  852SOL     OW 2554   1.961   1.904   2.565 -0.5528 -0.1743  0.2965
  852SOL    HW1 2555   1.882   1.884   2.497 -1.5515  1.6423 -1.7059
  852SOL    HW2 2556   1.939   1.870   2.659 -0.9977  1.2532 -1.3232
  853SOL     OW 2557   0.541   1.948   0.202  0.2436 -1.0938 -0.4235
  853SOL    HW1 2558   0.530   1.900   0.110 -0.4763 -2.9369 -2.7155
  853SOL    HW2 2559   0.642   1.966   0.214 -3.3906 -1.5929 -1.1516
  854SOL     OW 2560   1.647   1.076   2.035  0.5579 -0.3468 -0.1651
  854SOL    HW1 2561   1.585   1.007   2.082 -0.0895 -1.4225  0.5200
  854SOL    HW2 2562   1.597   1.133   1.967 -0.8758  0.1400  0.0493
  855SOL     OW 2563   0.626   2.328   3.040  0.5661 -0.1309 -0.0106
  855SOL    HW1 2564   0.609   2.391   0.041  1.4960 -0.9124 -2.2780
  855SOL    HW2 2565   0.538   2.282   3.008  1.4001  1.3222  1.2554
  856SOL     OW 2566   0.317   3.024   2.006  0.0770 -1.1055  0.4122
  856SOL    HW1 2567   0.345   3.057   1.911 -1.4957  1.8375 -0.8909
  856SOL    HW2 2568   0.391   3.054   2.069 -2.1493 -1.9619 -0.4292
  857SOL     OW 2569   0.772   0.322   1.795 -0.0335 -0.1209 -0.2978
  857SOL    HW1 2570   0.753   0.249   1.862 -1.5349  0.4443  0.3287
  857SOL    HW2 2571   0.730   0.409   1.833 -2.1287  3.4077  1.2072
  858SOL     OW 2572   0.331   1.773   2.171 -0.0644 -0.5415  0.5935
  858SOL    HW1 2573   0.325   1.844   2.237  1.3128 -0.4107 -3.0628
  858SOL    HW2 2574   0.365   1.815   2.084 -3.1652  1.6862 -0.9318
  859SOL     OW 2575   2.063   2.311   1.494 -0.0403  0.3967 -0.0323
  859SOL    HW1 2576   2.116   2.265   1.420 -0.1382  0.9208 -0.0262
  859SOL    HW2 2577   2.078   2.412   1.492 -0.0100  0.7333  0.9408
  860SOL     OW 2578   1.772   0.524   0.739 -0.0169  0.0521 -0.3669
  860SOL    HW1 2579   1.726   0.590   0.802 -0.2380  3.9212  0.5830
  860SOL    HW2 2580   1.700   0.481   0.677  0.6837  1.0020 -0.6808
  861SOL     OW 2581   0.161   0.457   0.987 -0.1819  0.4626 -0.3452
  861SOL    HW1 2582   0.187   0.553   0.962  0.7027 -0.1514 -1.0968
  861SOL    HW2 2583   0.060   0.455   0.997  0.4683 -0.9174 -1.2944
  862SOL     OW 2584   2.187   0.850   1.311  0.3231 -0.0153 -0.4029
  862SOL    HW1 2585   2.115   0.780   1.278 -0.7066 -1.6445 -0.1011
  862SOL    HW2 2586   2.152   0.947   1.290  3.1581  1.0896 -0.3488
  863SOL     OW 2587   0.276   1.232   1.327  0.6222 -0.5230  0.1603
  863SOL    HW1 2588   0.208   1.158   1.352  1.7166 -1.3862  1.9740
  863SOL    HW2 2589   0.367   1.195   1.328 -1.2646  0.6325 -0.2466
  864SOL     OW 2590   2.425   3.026   1.922 -0.3370 -0.2139 -0.2574
  864SOL    HW1 2591   2.523   3.005   1.951  1.9030 -0.5211 -0.2577
  864SOL    HW2 2592   2.434   3.059   1.824 -1.4479  0.5407  0.5044
  865SOL     OW 2593   0.908   0.447   2.334 -0.2351 -0.3628  0.6342
  865SOL    HW1 2594   0.901   0.463   2.234 -0.2318 -2.2904  1.8810
  865SOL    HW2 2595   0.994   0.396   2.344  0.2497 -0.0048 -3.3801
  866SOL     OW 2596   2.456   2.870   0.540 -0.4308  0.4815  0.5454
  866SOL    HW1 2597   2.503   2.914   0.619  0.2375  3.6615  0.6539
  866SOL    HW2 2598   2.512   2.857   0.454 -0.5980 -2.4799 -2.6515
  867SOL     OW 2599   2.788   2.776   0.820  0.2378  0.2944  0.0184
  867SOL    HW1 2600   2.768   2.676   0.805  1.6497 -1.2168  0.3379
  867SOL    HW2 2601   2.884   2.792   0.847 -0.4480 -0.8225  0.2077
  868SOL     OW 2602   1.626   1.620   2.882 -0.4549  0.0700  0.2624
  868SOL    HW1 2603   1.681   1.652   2.956 -2.1405 -0.4477 -3.5706
  868SOL    HW2 2604   1.617   1.692   2.814  0.9772  1.9912  4.7145
  869SOL     OW 2605   2.768   2.227   0.783 -0.5295 -0.3687  0.0944
  869SOL    HW1 2606   2.679   2.183   0.798  1.7946 -0.4323 -2.6530
  869SOL    HW2 2607   2.776   2.323   0.821  1.7587 -1.4635  1.0817
  870SOL     OW 2608   2.845   2.131   0.333  0.0953  0.0671  0.1751
  870SOL    HW1 2609   2.786   2.152   0.409  2.2191 -0.8891  0.1340
  870SOL    HW2 2610   2.852   2.031   0.311  1.4306  0.7758  0.4385
  871SOL     OW 2611   0.027   1.389   1.082 -0.2375 -0.2619 -0.3237
  871SOL    HW1 2612   0.097   1.408   1.155  0.5485 -0.1142  0.2308
  871SOL    HW2 2613   3.015   1.368   1.115  1.9219 -1.4366 -1.5476
  872SOL     OW 2614   0.911   1.633   2.414 -0.1650 -0.4875 -0.9514
  872SOL    HW1 2615   0.905   1.606   2.315 -0.0490  0.2534 -0.1919
  872SOL    HW2 2616   0.887   1.733   2.429  0.8549  0.2437  1.5565
  873SOL     OW 2617   0.378   3.064   1.725 -0.0135  0.0812  0.5704
  873SOL    HW1 2618   0.373   0.087   1.713  0.0741  2.7018 -0.9085
  873SOL    HW2 2619   0.471   3.033   1.689  0.3508 -0.9291  1.0728
  874SOL     OW 2620   0.896   0.510   2.063 -0.7613  0.0390 -0.3137
  874SOL    HW1 2621   0.943   0.600   2.068 -0.2447 -2.1158 -1.1930
  874SOL    HW2 2622   0.957   0.435   2.022  2.6983 -3.4472 -0.6244
  875SOL     OW 2623   2.846   0.151   1.111 -0.0969  0.1816 -0.1838
  875SOL    HW1 2624   2.838   0.054   1.139 -0.1631  1.9316  0.8960
  875SOL    HW2 2625   2.782   0.209   1.165  1.4061  3.0981 -0.2780
  876SOL     OW 2626   0.569   1.086   0.375  0.1713 -0.1089  0.0106
  876SOL    HW1 2627   0.523   1.039   0.297 -2.0217  0.4324  1.5876
  876SOL    HW2 2628   0.617   1.171   0.352  1.7989  0.3660  0.5705
  877SOL     OW 2629   1.030   1.138   1.801 -0.0995  0.6878  0.3302
  877SOL    HW1 2630   1.055   1.062   1.736 -0.6563  0.3876 -0.1020
  877SOL    HW2 2631   0.933   1.122   1.825  1.0953 -1.2363 -2.8844
  878SOL     OW 2632   2.492   2.096   0.508 -0.0376 -0.5537 -0.6465
  878SOL    HW1 2633   2.455   2.055   0.424 -0.1557 -0.3717  3.7754
  878SOL    HW2 2634   2.542   2.184   0.484  0.3228  0.8492  2.5910
  879SOL     OW 2635   2.585   1.585   1.652  0.3312 -0.2155 -0.1056
  879SOL    HW1 2636   2.658   1.523   1.610  2.9963 -3.3066 -0.6180
  879SOL    HW2 2637   2.623   1.676   1.684  0.3039  0.3817  2.7734
  880SOL     OW 2638   1.051   2.623   0.827  0.0202  0.1428  0.0892
  880SOL    HW1 2639   1.003   2.536   0.842  2.3037 -0.9909 -0.2374
  880SOL    HW2 2640   1.038   2.675   0.914  1.3173 -1.3360 -2.8463
  881SOL     OW 2641   0.499   2.187   0.500  0.3714 -0.1973  0.2853
  881SOL    HW1 2642   0.565   2.190   0.426 -0.7754  0.1934  2.5660
  881SOL    HW2 2643   0.462   2.283   0.507 -0.5324  0.3907 -1.2786
  882SOL     OW 2644   1.830   0.905   0.844 -0.1859  0.0681  0.0052
  882SOL    HW1 2645   1.810   0.926   0.747 -0.2904 -2.5940  1.8066
  882SOL    HW2 2646   1.929   0.872   0.860  1.9696 -2.6533  2.2903
  883SOL     OW 2647   1.404   0.752   0.993  0.3272 -0.3176 -0.7467
  883SOL    HW1 2648   1.306   0.737   0.971 -0.9970 -0.4052  0.5037
  883SOL    HW2 2649   1.426   0.850   1.009 -3.4625  1.6858  0.8135
  884SOL     OW 2650   2.862   2.685   0.228  0.0958  0.1748 -0.0046
  884SOL    HW1 2651   2.927   2.708   0.151 -3.0316 -1.2098  2.7225
  884SOL    HW2 2652   2.893   2.711   0.322  1.3007 -1.7018  1.0167
  885SOL     OW 2653   0.966   1.222   2.637 -0.0895 -0.6683 -0.0115
  885SOL    HW1 2654   1.026   1.260   2.710  1.6027  2.1163  0.1873
  885SOL    HW2 2655   0.990   1.261   2.542 -2.3702  0.3922 -1.2046
  886SOL     OW 2656   1.283   1.742   2.590 -0.2777 -0.3391  0.1909
  886SOL    HW1 2657   1.241   1.769   2.680  1.4166 -1.9626 -1.7881
  886SOL    HW2 2658   1.294   1.821   2.525  1.9254  2.2748 -1.3519
  887SOL     OW 2659   1.021   0.512   1.176 -0.2158 -0.2261 -0.2729
  887SOL    HW1 2660   1.085   0.513   1.097  0.3089 -1.2429 -0.8654
  887SOL    HW2 2661   1.077   0.526   1.264  2.1445  0.1986 -1.7515
  888SOL     OW 2662   2.118   0.585   1.872 -0.1609 -0.0618  0.4533
  888SOL    HW1 2663   2.162   0.530   1.950 -0.2117 -1.2839  2.9283
  888SOL    HW2 2664   2.014   0.580   1.877  1.0249  1.7083  1.4126
  889SOL     OW 2665   0.068   2.161   0.883 -0.0387  0.1779 -0.3649
  889SOL    HW1 2666   0.102   2.162   0.788  0.0799  0.2488 -1.8830
  889SOL    HW2 2667   0.099   2.247   0.930 -2.2029  1.7010  0.2244
  890SOL     OW 2668   1.622   2.248   0.526 -0.7301 -0.0783 -0.1732
  890SOL    HW1 2669   1.686   2.197   0.588  4.8864  0.5575  0.6314
  890SOL    HW2 2670   1.524   2.224   0.532  1.5652 -2.4501  0.4901
  891SOL     OW 2671   2.769   0.997   2.981 -0.0072 -0.0258 -0.1589
  891SOL    HW1 2672   2.777   1.057   3.063  1.7139 -0.6876  0.5368
  891SOL    HW2 2673   2.710   0.915   2.999 -0.9167 -0.3398 -2.3339
  892SOL     OW 2674   2.786   2.347   1.066 -0.7575 -1.0196  0.4183
  892SOL    HW1 2675   2.696   2.343   1.018  1.0947 -1.6860 -0.5490
  892SOL    HW2 2676   2.825   2.446   1.072  1.7478  2.1054  1.7023
  893SOL     OW 2677   1.199   0.459   0.974  0.0143  0.2298 -0.8962
  893SOL    HW1 2678   1.290   0.431   1.008 -2.1256 -0.1165 -0.2697
  893SOL    HW2 2679   1.190   0.557   0.951 -2.5695 -3.3624  1.0616
  894SOL     OW 2680   2.906   0.450   0.710  0.2740  0.6112 -0.2680
  894SOL    HW1 2681   2.820   0.505   0.704  2.1841  2.4931  1.6128
  894SOL    HW2 2682   2.989   0.509   0.700 -0.3217 -0.7904 -3.3951
  895SOL     OW 2683   1.652   1.427   2.470 -0.2973  0.0742  0.3160
  895SOL    HW1 2684   1.611   1.512   2.433  0.3757 -1.0709 -2.8731
  895SOL    HW2 2685   1.673   1.359   2.399 -0.0421  0.5488  0.9852
  896SOL     OW 2686   1.711   0.450   1.379 -0.0124  0.5165  0.1619
  896SOL    HW1 2687   1.777   0.420   1.450  1.2006  1.3224  0.9359
  896SOL    HW2 2688   1.758   0.458   1.285 -0.3073  0.1447 -1.3166
  897SOL     OW 2689   0.187   1.423   1.482  0.3732 -0.6751  0.3575
  897SOL    HW1 2690   0.263   1.444   1.547  0.9779 -0.1828  0.0569
  897SOL    HW2 2691   0.223   1.347   1.420  2.0868  0.8836  1.5412
  898SOL     OW 2692   2.029   2.557   2.060 -0.2239 -0.4110 -0.0835
  898SOL    HW1 2693   2.061   2.548   1.968 -1.1220  0.7397  4.0918
  898SOL    HW2 2694   2.036   2.467   2.106 -0.6398  2.1533 -2.4335
  899SOL     OW 2695   1.288   1.731   0.997  0.1172  0.4316  0.4654
  899SOL    HW1 2696   1.352   1.810   1.005 -0.0243  0.1467  1.3881
  899SOL    HW2 2697   1.190   1.761   0.988 -1.8353  1.4083 -0.4142
  900SOL     OW 2698   1.314   1.964   2.441  0.2827  0.2674  0.3574
  900SOL    HW1 2699   1.370   1.973   2.358  0.4876  0.8499 -1.0672
  900SOL    HW2 2700   1.222   1.996   2.413 -0.5440  1.0319  1.6412
  901SOL     OW 2701   0.952   1.470   2.137 -0.2791  0.0305 -0.7345
  901SOL    HW1 2702   1.051   1.478   2.110  0.5156 -0.2676  0.5838
  901SOL    HW2 2703   0.925   1.371   2.142  0.1581  1.3087  0.9213
  902SOL     OW 2704   2.366   1.498   0.487 -0.2551 -0.2583 -0.5115
  902SOL    HW1 2705   2.440   1.466   0.424  0.4841 -2.9429  2.4047
  902SOL    HW2 2706   2.358   1.437   0.570 -0.3933  2.4730  0.6757
  903SOL     OW 2707   2.105   1.601   0.384 -0.6802 -0.3190 -0.4229
  903SOL    HW1 2708   2.203   1.595   0.416 -0.6419  2.5397 -0.9340
  903SOL    HW2 2709   2.061   1.520   0.427 -0.3138  0.2769 -0.9768
  904SOL     OW 2710   1.086   1.086   2.301  0.0229 -0.0830 -0.2441
  904SOL    HW1 2711   1.127   1.039   2.218  0.9204 -0.4098 -2.5532
  904SOL    HW2 2712   1.103   1.044   2.390 -2.9618  0.6056 -1.9649
  905SOL     OW 2713   2.822   0.089   0.696 -0.0436 -0.0330  0.0210
  905SOL    HW1 2714   2.845   0.168   0.637  0.9395  2.2985  2.4469
  905SOL    HW2 2715   2.899   0.067   0.760  0.5814  0.2890  0.1853
  906SOL     OW 2716   3.062   2.109   0.177  0.4200  0.5403 -0.0263
  906SOL    HW1 2717   2.996   2.091   0.249  1.5699  0.0691  0.8398
  906SOL    HW2 2718   0.064   2.159   0.215  0.5454 -0.4555 -1.2878
  907SOL     OW 2719   1.497   0.309   0.147  0.1683 -0.4603  0.1020
  907SOL    HW1 2720   1.452   0.220   0.151  1.0431  1.9282  2.9585
  907SOL    HW2 2721   1.555   0.334   0.224 -0.1365  1.4846 -1.4419
  908SOL     OW 2722   1.740   2.700   1.524 -0.2252  0.4615  0.8411
  908SOL    HW1 2723   1.790   2.643   1.594  0.5495 -0.6761  2.0888
  908SOL    HW2 2724   1.651   2.715   1.571 -0.5373 -0.2378  2.4344
  909SOL     OW 2725   2.478   0.708   1.618  0.3050  0.4199 -0.2419
  909SOL    HW1 2726   2.418   0.710   1.701  0.9321 -0.3288 -0.7867
  909SOL    HW2 2727   2.569   0.751   1.645 -0.1777  1.9903  2.2558
  910SOL     OW 2728   1.204   0.061   2.474 -0.1592 -0.6624 -0.5300
  910SOL    HW1 2729   1.298   0.028   2.480 -0.8297  2.7028  0.6464
  910SOL    HW2 2730   1.146   0.020   2.407  1.7092  2.1458  3.2022
  911SOL     OW 2731   2.457   1.095   2.334 -0.1689 -0.0698  0.5435
  911SOL    HW1 2732   2.533   1.108   2.268 -0.8755  0.2942 -0.9459
  911SOL    HW2 2733   2.388   1.171   2.325  2.1329 -3.1549 -1.6224
  912SOL     OW 2734   2.362   2.029   1.686 -0.4661  0.3196 -0.7534
  912SOL    HW1 2735   2.431   2.094   1.645 -1.7659 -0.5002 -0.2277
  912SOL    HW2 2736   2.361   1.944   1.635 -2.0951  2.5659  2.0900
  913SOL     OW 2737   2.421   2.389   1.302  0.3395  0.8592  0.2725
  913SOL    HW1 2738   2.495   2.320   1.311 -0.8503  1.2660 -0.7321
  913SOL    HW2 2739   2.444   2.480   1.337  1.9704  0.9896  1.1963
  914SOL     OW 2740   2.431   1.834   1.285  0.1063 -0.1996 -0.0329
  914SOL    HW1 2741   2.415   1.803   1.380 -1.5607 -0.1446  0.9452
  914SOL    HW2 2742   2.354   1.894   1.251 -1.2597  0.5881 -2.4964
  915SOL     OW 2743   1.164   2.532   1.403 -0.5295 -0.7723 -0.1158
  915SOL    HW1 2744   1.105   2.461   1.446  0.7326  0.5860 -0.0701
  915SOL    HW2 2745   1.263   2.510   1.425  2.7908 -1.0261  0.4638
  916SOL     OW 2746   2.856   2.602   1.052 -0.4168  0.5781  0.0219
  916SOL    HW1 2747   2.914   2.664   1.111 -0.5345  0.5161 -0.1088
  916SOL    HW2 2748   2.768   2.650   1.030 -3.4487  2.1426 -0.5175
  917SOL     OW 2749   2.685   1.309   2.794  0.5050 -0.3477 -0.1789
  917SOL    HW1 2750   2.775   1.357   2.785 -0.0824  0.6078 -0.7357
  917SOL    HW2 2751   2.649   1.295   2.702  3.4545  0.0459 -0.3545
  918SOL     OW 2752   1.767   1.843   2.392  0.0062  0.1008  0.4258
  918SOL    HW1 2753   1.709   1.925   2.400  2.6677 -0.9860 -0.1835
  918SOL    HW2 2754   1.716   1.773   2.337 -2.2292  0.3310 -0.2898
  919SOL     OW 2755   1.541   2.187   1.454 -0.1722  0.0563  0.2620
  919SOL    HW1 2756   1.525   2.115   1.526 -0.1626 -1.7723  0.1515
  919SOL    HW2 2757   1.640   2.197   1.444 -0.0472  0.9170 -0.5071
  920SOL     OW 2758   0.581   0.047   3.013 -0.5340 -0.3642 -0.6954
  920SOL    HW1 2759   0.618   3.032   3.023  0.6506  0.8827 -1.7333
  920SOL    HW2 2760   0.492   0.047   2.966  0.4880 -1.3042  0.6252
  921SOL     OW 2761   2.589   0.062   2.506 -0.6869 -0.5216 -0.6303
  921SOL    HW1 2762   2.564   3.045   2.487  0.2538 -1.6862  1.4617
  921SOL    HW2 2763   2.550   0.125   2.444  0.4398 -0.4778 -1.1973
  922SOL     OW 2764   2.370   1.739   1.535 -0.1546 -0.0564  0.0682
  922SOL    HW1 2765   2.425   1.673   1.591 -2.3825 -0.2329 -1.2176
  922SOL    HW2 2766   2.270   1.729   1.542  0.0908  1.0717  0.5426
  923SOL     OW 2767   1.141   2.152   0.197 -0.5694  0.1198  0.6264
  923SOL    HW1 2768   1.088   2.203   0.268  1.4336 -0.2700 -1.5990
  923SOL    HW2 2769   1.132   2.201   0.107  0.2581 -1.2894 -1.1380
  924SOL     OW 2770   1.718   0.628   2.765  0.4807 -0.0591  0.2959
  924SOL    HW1 2771   1.673   0.609   2.854  0.2854  0.5529 -0.4421
  924SOL    HW2 2772   1.777   0.553   2.733 -1.6027  1.3290 -1.4935
  925SOL     OW 2773   2.673   0.800   0.316 -0.2761  0.6212  0.7742
  925SOL    HW1 2774   2.641   0.876   0.372  0.0900  0.4090  0.0095
  925SOL    HW2 2775   2.594   0.752   0.279  4.6873  1.9619 -1.4159
  926SOL     OW 2776   0.232   0.679   0.685  0.4050 -0.0945  0.4418
  926SOL    HW1 2777   0.265   0.582   0.677 -0.1296 -0.6594  1.5300
  926SOL    HW2 2778   0.289   0.747   0.634 -1.4331  0.8902 -1.1315
  927SOL     OW 2779   0.884   1.278   0.606  0.8177 -0.5324  0.2411
  927SOL    HW1 2780   0.920   1.232   0.520 -0.9679 -1.9617 -1.5210
  927SOL    HW2 2781   0.831   1.362   0.576  1.8371 -1.3940  0.4481
  928SOL     OW 2782   0.138   0.019   2.477  0.4780 -0.5270 -0.0534
  928SOL    HW1 2783   0.235   0.002   2.493  0.5839  0.7608 -0.9997
  928SOL    HW2 2784   0.115   0.105   2.422 -0.3349 -0.9173 -0.7960
  929SOL     OW 2785   2.272   0.392   1.335  0.1468  0.4894  0.2869
  929SOL    HW1 2786   2.199   0.444   1.385  2.7230  1.7432 -0.3916
  929SOL    HW2 2787   2.362   0.414   1.376 -0.1717 -2.7182 -2.4227
  930SOL     OW 2788   1.830   2.203   1.397 -0.2898  0.7118 -0.3256
  930SOL    HW1 2789   1.898   2.253   1.456 -0.0665  1.0688  1.9686
  930SOL    HW2 2790   1.862   2.108   1.375 -1.2622 -0.6722 -0.9954
  931SOL     OW 2791   1.820   1.039   1.075  0.3621  0.7749 -0.4582
  931SOL    HW1 2792   1.812   0.985   0.990 -0.5261  1.8203 -3.8306
  931SOL    HW2 2793   1.886   1.121   1.054  0.9238  2.2572 -1.5734
  932SOL     OW 2794   2.933   0.819   1.164  0.3662  0.0994 -0.7274
  932SOL    HW1 2795   2.855   0.769   1.216 -0.4254 -3.1174  0.0005
  932SOL    HW2 2796   3.018   0.804   1.218 -1.0998  0.4315  2.4302
  933SOL     OW 2797   2.517   1.524   2.110  0.3629 -0.0150  0.2442
  933SOL    HW1 2798   2.611   1.480   2.132  4.4074  3.3627 -0.3365
  933SOL    HW2 2799   2.531   1.609   2.046  0.4200  1.8576 -3.3953
  934SOL     OW 2800   1.677   2.900   1.187  0.5940 -0.2185 -0.4184
  934SOL    HW1 2801   1.607   2.919   1.259 -2.6906  1.0641  0.7667
  934SOL    HW2 2802   1.634   2.896   1.100  0.6384  3.3398  0.8596
  935SOL     OW 2803   2.909   1.065   1.015  0.2584 -0.2641  0.2371
  935SOL    HW1 2804   2.914   0.991   1.083 -0.0166  0.9928 -2.3074
  935SOL    HW2 2805   2.967   1.041   0.938 -0.2034  1.1120  1.0276
  936SOL     OW 2806   2.879   1.282   1.148  0.4574 -0.7333 -0.1057
  936SOL    HW1 2807   2.876   1.186   1.117 -1.7727 -0.1439 -0.4406
  936SOL    HW2 2808   2.785   1.329   1.142 -1.8018  1.1399 -1.1300
  937SOL     OW 2809   1.516   0.071   0.580  0.0613  0.3767  0.7198
  937SOL    HW1 2810   1.603   0.088   0.531  0.8190 -0.7484  0.0580
  937SOL    HW2 2811   1.515   3.051   0.603 -0.3342  0.5290 -2.0859
  938SOL     OW 2812   2.989   2.338   0.642  0.5546 -0.8476  0.3670
  938SOL    HW1 2813   2.922   2.281   0.692 -3.8408 -1.2735 -2.1452
  938SOL    HW2 2814   3.019   2.423   0.697 -0.4568  3.0887 -1.2434
  939SOL     OW 2815   0.965   2.005   2.819  0.1763 -0.1093 -0.3252
  939SOL    HW1 2816   0.931   2.048   2.909  0.7889 -0.9021  1.5781
  939SOL    HW2 2817   0.889   2.018   2.753  2.4078  0.1852  3.3215
  940SOL     OW 2818   2.663   2.648   2.448 -0.1778  0.3861  0.1263
  940SOL    HW1 2819   2.684   2.591   2.364 -2.5984  1.5451 -1.4439
  940SOL    HW2 2820   2.597   2.596   2.502  1.9264  2.1539 -0.0209
  941SOL     OW 2821   1.146   2.834   0.006 -0.7185  0.0658 -0.0290
  941SOL    HW1 2822   1.100   2.858   0.095  0.1640 -0.3114 -1.5544
  941SOL    HW2 2823   1.192   2.748   0.009 -2.7881  2.4424  0.6366
  942SOL     OW 2824   1.688   1.757   1.574  0.1677 -0.2056  0.2321
  942SOL    HW1 2825   1.662   1.676   1.623  0.3436  0.5721  0.8244
  942SOL    HW2 2826   1.645   1.837   1.628 -1.0882 -0.0170 -1.2682
  943SOL     OW 2827   2.237   1.350   1.767  0.3589  0.1902  0.9427
  943SOL    HW1 2828   2.258   1.318   1.673  0.7388  0.0290  0.0216
  943SOL    HW2 2829   2.326   1.370   1.815  0.1203 -0.1318  0.3033
  944SOL     OW 2830   1.867   0.959   1.923 -0.1374  0.3063  0.2370
  944SOL    HW1 2831   1.930   1.036   1.900 -0.8416 -1.6760 -0.7754
  944SOL    HW2 2832   1.781   0.999   1.965  1.0432  0.4650 -2.3546
  945SOL     OW 2833   2.827   2.982   1.217 -0.5190  0.8284  0.9275
  945SOL    HW1 2834   2.727   2.977   1.199 -0.4080  2.4179  2.0917
  945SOL    HW2 2835   2.878   2.888   1.217  3.2807 -0.3258  0.4862
  946SOL     OW 2836   0.542   1.138   1.899  0.4275 -0.2304 -0.0367
  946SOL    HW1 2837   0.529   1.241   1.900  0.0207  0.3257 -2.1384
  946SOL    HW2 2838   0.580   1.104   1.984 -0.9849  0.3391 -2.9777
  947SOL     OW 2839   0.400   2.690   0.835 -0.0780 -0.0094  0.5668
  947SOL    HW1 2840   0.445   2.735   0.915  1.0853  2.6164 -2.1094
  947SOL    HW2 2841   0.383   2.588   0.853 -1.2114 -1.8844 -2.0170
  948SOL     OW 2842   0.000   1.153   1.803  0.1381 -0.0607  0.1707
  948SOL    HW1 2843   0.002   1.145   1.905  0.1550 -0.2236 -0.5736
  948SOL    HW2 2844   0.030   1.240   1.767 -3.7631  0.1137  1.2994
  949SOL     OW 2845   0.343   0.638   2.253  0.0502 -0.5622  0.2408
  949SOL    HW1 2846   0.418   0.676   2.312  0.2230  1.9498  0.4164
  949SOL    HW2 2847   0.363   0.541   2.236 -1.4234  1.3834  0.3080
  950SOL     OW 2848   0.736   0.565   0.895  0.5982 -0.2065  0.0374
  950SOL    HW1 2849   0.674   0.643   0.867  0.3059  2.1300  0.4596
  950SOL    HW2 2850   0.809   0.545   0.827  0.1555 -0.7323  2.1237
  951SOL     OW 2851   1.104   1.800   1.836 -0.2416 -0.1132 -0.1760
  951SOL    HW1 2852   1.112   1.871   1.904  0.1065  0.3477 -0.3365
  951SOL    HW2 2853   1.061   1.714   1.871  0.0373 -2.8157  0.3985
  952SOL     OW 2854   0.967   1.295   3.023 -0.0273  0.3996 -0.3217
  952SOL    HW1 2855   0.994   1.374   0.007  1.5638  2.0013  2.0136
  952SOL    HW2 2856   1.040   1.262   2.963 -2.3816  0.3279 -2.4672
  953SOL     OW 2857   1.266   2.760   2.296 -0.5377  0.0610  0.2431
  953SOL    HW1 2858   1.223   2.678   2.260 -0.3848 -0.6759 -1.7152
  953SOL    HW2 2859   1.334   2.789   2.224 -1.1059 -0.7303 -0.6742
  954SOL     OW 2860   2.348   1.096   0.546  0.1194 -0.5227 -0.0538
  954SOL    HW1 2861   2.325   1.086   0.446  0.0238  0.9745 -0.7862
  954SOL    HW2 2862   2.284   1.154   0.595  1.6299 -2.8514  0.2039
  955SOL     OW 2863   0.319   1.933   2.365 -0.0134  0.1421  0.5182
  955SOL    HW1 2864   0.406   1.977   2.341  1.0919 -0.1996  0.0694
  955SOL    HW2 2865   0.290   1.959   2.459  1.4803 -0.1176 -1.0024
  956SOL     OW 2866   0.994   1.275   1.292 -0.4100  0.0362 -0.0043
  956SOL    HW1 2867   1.082   1.225   1.283 -1.1874  0.4904 -0.1559
  956SOL    HW2 2868   0.987   1.341   1.215  0.6484 -4.7228  1.1563
  957SOL     OW 2869   1.978   1.259   2.651  0.3938  0.6454  0.5235
  957SOL    HW1 2870   1.921   1.265   2.735 -0.9760  0.1179 -0.4048
  957SOL    HW2 2871   2.074   1.227   2.667  2.1880  0.3936  2.7483
  958SOL     OW 2872   1.586   2.550   0.893 -0.4773 -0.2671 -0.3465
  958SOL    HW1 2873   1.536   2.580   0.982 -2.0290  2.2628  3.2570
  958SOL    HW2 2874   1.674   2.589   0.907 -1.0565 -1.6481 -2.1888
  959SOL     OW 2875   1.653   1.622   2.195  0.0693 -0.3994 -0.3689
  959SOL    HW1 2876   1.605   1.559   2.128 -1.2592  0.8860  0.6035
  959SOL    HW2 2877   1.585   1.644   2.275 -1.8830  0.4868  0.9438
  960SOL     OW 2878   3.009   0.507   2.690 -0.2005  0.4184  0.1878
  960SOL    HW1 2879   3.071   0.569   2.643 -1.6453 -1.0592  2.0904
  960SOL    HW2 2880   3.060   0.445   2.751 -1.1513  2.3748  1.9461
  961SOL     OW 2881   0.316   0.621   1.880  0.0614  0.3037 -0.0307
  961SOL    HW1 2882   0.266   0.664   1.957  0.1569 -0.5728  2.7494
  961SOL    HW2 2883   0.326   0.677   1.795 -2.1250 -0.4609 -1.4707
  962SOL     OW 2884   1.447   1.597   0.399 -0.1536 -0.3182  0.3946
  962SOL    HW1 2885   1.431   1.570   0.302  0.4969  3.9445 -0.4763
  962SOL    HW2 2886   1.427   1.521   0.466 -0.0215 -0.7202  0.5493
  963SOL     OW 2887   1.766   2.149   2.877  0.1952 -0.0624  0.3245
  963SOL    HW1 2888   1.846   2.213   2.880  1.1616  0.3468  1.7395
  963SOL    HW2 2889   1.677   2.203   2.883 -1.9482  0.5550 -0.8681
  964SOL     OW 2890   1.005   2.733   0.587 -0.2394 -0.8508  0.5314
  964SOL    HW1 2891   1.088   2.774   0.548  0.2840  2.7151 -0.6898
  964SOL    HW2 2892   1.022   2.717   0.686  2.7480  4.4270  0.5125
  965SOL     OW 2893   0.794   2.807   0.845 -0.2821 -0.5454  0.3580
  965SOL    HW1 2894   0.713   2.806   0.788  2.9643 -1.2516  1.4653
  965SOL    HW2 2895   0.777   2.775   0.935  1.3394 -0.8155 -2.1644
  966SOL     OW 2896   2.970   1.779   2.893  0.7714  0.2057 -0.0304
  966SOL    HW1 2897   2.913   1.772   2.810  4.0943  1.4825 -0.3748
  966SOL    HW2 2898   2.955   1.691   2.949  0.4703 -1.8457 -1.9788
  967SOL     OW 2899   1.531   2.766   1.687  0.5038  0.6066  0.1289
  967SOL    HW1 2900   1.467   2.689   1.712  0.9093 -1.0254  2.2887
  967SOL    HW2 2901   1.480   2.853   1.678 -0.3512 -2.3970 -2.1358
  968SOL     OW 2902   1.774   0.960   0.576 -0.0827 -0.3033 -0.2667
  968SOL    HW1 2903   1.781   0.877   0.517  3.5030 -0.8265  0.6459
  968SOL    HW2 2904   1.692   1.012   0.552  1.0309  0.3517 -2.5472
  969SOL     OW 2905   0.175   1.562   2.106 -0.1675 -0.4557  0.2839
  969SOL    HW1 2906   0.208   1.506   2.029 -1.5536  0.4248 -0.8162
  969SOL    HW2 2907   0.249   1.613   2.148 -1.1002  0.2692  1.3150
  970SOL     OW 2908   2.775   1.502   1.469 -0.1933 -0.1034  0.0175
  970SOL    HW1 2909   2.818   1.541   1.390 -0.1430 -1.0759  2.7401
  970SOL    HW2 2910   2.841   1.438   1.515 -2.7483  1.0052 -0.1645
  971SOL     OW 2911   1.354   0.437   1.577 -0.1571 -0.1670  0.0242
  971SOL    HW1 2912   1.360   0.337   1.574  2.6572 -0.5879  1.5049
  971SOL    HW2 2913   1.435   0.480   1.538  1.4316 -0.7719  0.9642
  972SOL     OW 2914   0.652   0.142   2.618  0.3453  0.5585 -0.4161
  972SOL    HW1 2915   0.667   0.046   2.650 -3.1303 -2.4216  4.1078
  972SOL    HW2 2916   0.720   0.200   2.664  0.8915 -0.8056 -0.0456
  973SOL     OW 2917   2.762   1.268   0.463  0.2468  0.3232  0.1368
  973SOL    HW1 2918   2.693   1.291   0.530  0.1504 -2.1627 -0.3479
  973SOL    HW2 2919   2.727   1.206   0.396  3.4994  0.5990  1.5065
  974SOL     OW 2920   1.829   1.361   2.011  0.0353  0.0166 -0.5421
  974SOL    HW1 2921   1.749   1.393   2.067 -3.3161  1.6261 -2.8553
  974SOL    HW2 2922   1.891   1.293   2.062  0.0529 -2.5065 -1.4000
  975SOL     OW 2923   2.939   2.764   0.467 -0.0958 -0.2113  0.0010
  975SOL    HW1 2924   3.020   2.728   0.522  2.5081  0.3977 -1.6851
  975SOL    HW2 2925   2.924   2.865   0.496 -2.9064  3.0929  3.1238
  976SOL     OW 2926   3.055   1.660   1.744 -0.1873  0.3573  0.1571
  976SOL    HW1 2927   3.066   1.736   1.677 -0.7806 -0.8916  3.5287
  976SOL    HW2 2928   2.960   1.659   1.793 -3.0868  2.3071  0.7046
  977SOL     OW 2929   0.933   2.456   0.115  0.0918 -0.1692  0.1430
  977SOL    HW1 2930   0.873   2.390   0.163 -2.8688 -3.1277  1.3705
  977SOL    HW2 2931   1.018   2.422   0.071  1.2291 -2.2897  0.6958
  978SOL     OW 2932   0.860   2.115   3.051  0.4372  0.5612  0.2854
  978SOL    HW1 2933   0.814   2.206   3.065 -1.9930 -1.3435  2.0115
  978SOL    HW2 2934   0.857   2.070   0.064 -0.5701 -0.9817 -0.7637
  979SOL     OW 2935   1.235   2.240   1.054  0.3203 -0.4466  0.6264
  979SOL    HW1 2936   1.335   2.222   1.051  1.9484 -3.6480  0.0245
  979SOL    HW2 2937   1.187   2.220   0.964 -2.0450  1.5624 -0.6347
  980SOL     OW 2938   0.385   1.407   2.455  0.3384  0.7243 -0.1603
  980SOL    HW1 2939   0.450   1.456   2.514 -0.3466  0.4359  1.5468
  980SOL    HW2 2940   0.294   1.447   2.457  2.3336  1.2283 -1.0903
  981SOL     OW 2941   2.629   0.639   2.779  0.0859  0.3299 -0.2537
  981SOL    HW1 2942   2.710   0.699   2.762  2.2357  1.3867 -0.2624
  981SOL    HW2 2943   2.664   0.545   2.791 -3.2153 -1.7813  0.0620
  982SOL     OW 2944   2.847   2.784   2.578 -0.1726 -0.5451 -0.2261
  982SOL    HW1 2945   2.906   2.809   2.501 -4.1338  1.7129  3.0595
  982SOL    HW2 2946   2.762   2.741   2.553  2.3492  0.9920 -1.6263
  983SOL     OW 2947   2.139   0.750   1.667 -0.6653  0.1483 -0.2812
  983SOL    HW1 2948   2.198   0.838   1.678  0.3650  0.7428 -0.1992
  983SOL    HW2 2949   2.128   0.698   1.756  0.1434  2.1266  0.0163
  984SOL     OW 2950   0.891   0.195   2.201 -0.4909  0.3114  0.2448
  984SOL    HW1 2951   0.881   0.278   2.259  0.8332 -1.3893 -0.8561
  984SOL    HW2 2952   0.968   0.133   2.227  0.2409 -0.5214  0.4950
  985SOL     OW 2953   1.450   1.958   2.222 -0.4746  0.0273 -0.2082
  985SOL    HW1 2954   1.510   1.900   2.169 -0.3376  0.5306 -0.4169
  985SOL    HW2 2955   1.477   2.056   2.210 -2.4764 -1.8849 -0.2617
  986SOL     OW 2956   1.741   0.499   2.183 -0.0846  0.0227  0.0347
  986SOL    HW1 2957   1.802   0.523   2.260 -0.2143 -2.8854  0.7050
  986SOL    HW2 2958   1.768   0.409   2.150  0.0875  4.3815 -0.1520
  987SOL     OW 2959   2.227   0.549   2.344 -0.2266  0.1792 -0.2514
  987SOL    HW1 2960   2.237   0.600   2.428  0.9857 -3.1614 -1.0303
  987SOL    HW2 2961   2.201   0.454   2.365  1.4395 -0.4784 -1.5024
  988SOL     OW 2962   2.609   0.473   2.487  0.3065  0.0916 -0.3774
  988SOL    HW1 2963   2.667   0.559   2.495 -0.5382  1.6553  4.4715
  988SOL    HW2 2964   2.612   0.427   2.577  0.0804 -3.4493  0.8651
  989SOL     OW 2965   2.393   2.245   2.687  0.2455 -0.2508 -0.5427
  989SOL    HW1 2966   2.452   2.265   2.770  2.3664 -0.5384  0.3758
  989SOL    HW2 2967   2.415   2.152   2.647  1.2727 -2.1726 -0.6367
  990SOL     OW 2968   0.353   0.544   0.113  0.4428 -0.3308 -0.1221
  990SOL    HW1 2969   0.337   0.573   0.211  0.4310 -0.8856  1.8865
  990SOL    HW2 2970   0.271   0.565   0.049 -1.9542 -2.0819 -1.8307
  991SOL     OW 2971   0.535   0.591   2.930  0.4212 -0.2743  0.5070
  991SOL    HW1 2972   0.562   0.493   2.913 -0.1594  1.5693 -0.7983
  991SOL    HW2 2973   0.527   0.602   3.027  0.2110 -2.5178 -2.8558
  992SOL     OW 2974   3.071   1.759   2.148 -0.3551 -0.0090 -0.5689
  992SOL    HW1 2975   0.046   1.841   2.160 -0.8092 -2.4139 -1.6641
  992SOL    HW2 2976   0.059   1.682   2.139 -1.3194 -0.4316  3.9047
  993SOL     OW 2977   0.396   0.098   0.793 -0.0836 -0.0340  0.0158
  993SOL    HW1 2978   0.381   0.082   0.688 -4.0344  0.0276 -3.2661
  993SOL    HW2 2979   0.459   0.178   0.797  0.1848 -1.3918 -2.6274
  994SOL     OW 2980   0.232   2.109   1.799 -0.9136 -0.1337 -0.4401
  994SOL    HW1 2981   0.156   2.170   1.782  1.1341 -1.7762  0.2521
  994SOL    HW2 2982   0.314   2.137   1.746 -2.6898  0.3084  3.1054
  995SOL     OW 2983   2.264   1.743   0.029  0.1826 -0.0161 -0.0879
  995SOL    HW1 2984   2.270   1.780   3.012 -1.0899 -0.5870 -0.7314
  995SOL    HW2 2985   2.179   1.779   0.074  0.8458  0.5008  1.3505
  996SOL     OW 2986   1.703   1.406   2.739 -0.5588 -0.0203  0.6122
  996SOL    HW1 2987   1.666   1.491   2.786  1.0241 -0.6742  1.2231
  996SOL    HW2 2988   1.693   1.416   2.636 -0.1337 -2.2236 -0.8315
  997SOL     OW 2989   1.832   1.436   1.760  0.0146  0.3017  0.2211
  997SOL    HW1 2990   1.826   1.426   1.860  1.8529  0.2195  3.7022
  997SOL    HW2 2991   1.826   1.343   1.708  2.3653 -1.3621 -0.1535
  998SOL     OW 2992   2.631   1.807   0.594 -0.1688 -0.1062  0.2874
  998SOL    HW1 2993   2.559   1.830   0.664 -2.1126  0.1064  2.1471
  998SOL    HW2 2994   2.590   1.790   0.502 -0.5149  1.4113  1.1866
  999SOL     OW 2995   2.484   2.575   0.548 -0.1536  0.0025  0.4900
  999SOL    HW1 2996   2.519   2.633   0.469  0.1127 -0.7479  1.0934
  999SOL    HW2 2997   2.445   2.491   0.509  1.9971  1.9803  3.9357
 1000SOL     OW 2998   0.709   2.864   2.487  0.0973  0.6732 -0.0879
 1000SOL    HW1 2999   0.612   2.848   2.446 -4.3575  0.6530 -2.6396
 1000SOL    HW2 3000   0.777   2.849   2.408 -1.2700  0.8057 -1.7643
   3.07898   3.07898   3.07898
