1000 SPC/Fw water molecules t= 466.00000 step= 466000
 3000
    1SOL     OW    1   2.804   2.866   1.760 -0.0150  0.3028  0.5186
    1SOL    HW1    2   2.824   2.911   1.668  0.7840 -1.4350  0.0207
    1SOL    HW2    3   2.757   2.923   1.833 -0.8923 -0.6289  2.0229
    2SOL     OW    4   2.716   2.917   3.031  0.0548 -0.5864 -0.4545
    2SOL    HW1    5   2.723   2.951   0.017 -1.1609  0.0987 -0.7912
    2SOL    HW2    6   2.802   2.921   2.975  0.9656  0.2871  1.2208
    3SOL     OW    7   1.212   2.599   0.164  0.0871 -0.0147 -0.3654
    3SOL    HW1    8   1.213   2.499   0.133  0.2741 -0.8920  1.7116
    3SOL    HW2    9   1.301   2.629   0.208  2.1257  0.6050 -1.0698
    4SOL     OW   10   1.389   2.647   2.459  0.0559  0.8872  0.3922
    4SOL    HW1   11   1.463   2.714   2.441 -3.5624  3.7002 -0.2257
    4SOL    HW2   12   1.399   2.602   2.552  2.5927 -1.5167  1.2823
    5SOL     OW   13   2.166   0.293   2.237  0.3456  0.4032  0.0079
    5SOL    HW1   14   2.188   0.220   2.167  0.0631  0.8617  2.1922
    5SOL    HW2   15   2.076   0.344   2.225 -0.3170  1.2578 -0.4503
    6SOL     OW   16   2.968   1.623   1.095 -0.1107 -0.0187 -0.7086
    6SOL    HW1   17   3.020   1.709   1.071 -2.7854  2.6615 -1.6313
    6SOL    HW2   18   2.905   1.642   1.169  0.6687  0.3627 -0.2532
    7SOL     OW   19   1.328   2.103   0.474 -0.0411  0.3773  0.3783
    7SOL    HW1   20   1.262   2.049   0.530 -0.9507  2.8024  1.8701
    7SOL    HW2   21   1.328   2.072   0.379  0.9919 -0.4279  1.5224
    8SOL     OW   22   0.171   0.632   0.379  0.1567 -0.7160 -0.5122
    8SOL    HW1   23   0.255   0.652   0.327  1.3516 -0.1627 -0.7519
    8SOL    HW2   24   0.087   0.675   0.335 -1.8885 -1.9288 -1.7533
    9SOL     OW   25   0.230   2.797   1.624 -0.2475 -0.9615 -0.4193
    9SOL    HW1   26   0.281   2.708   1.631  0.6765  0.5676 -0.1748
    9SOL    HW2   27   0.132   2.777   1.637  1.1498  0.4430 -0.0586
   10SOL     OW   28   1.147   2.348   0.465 -0.5141  0.2473  0.0075
   10SOL    HW1   29   1.220   2.277   0.462  1.3406 -1.0837  2.7914
   10SOL    HW2   30   1.179   2.426   0.524 -2.8927 -0.6972  0.2098
   11SOL     OW   31   2.124   0.854   1.340 -0.3591 -0.8044  0.2550
   11SOL    HW1   32   2.194   0.798   1.389  0.5694 -1.1586  1.4477
   11SOL    HW2   33   2.048   0.876   1.403 -1.4950 -0.6349  0.2445
   12SOL     OW   34   0.196   0.760   2.229  0.5058  0.0162  0.3839
   12SOL    HW1   35   0.238   0.845   2.190 -0.9304  0.0344  1.9054
   12SOL    HW2   36   0.217   0.754   2.329  1.7057  0.2624  1.2299
   13SOL     OW   37   1.996   0.060   0.344 -0.0397  0.8737 -0.0114
   13SOL    HW1   38   2.021   0.038   0.443  1.6572 -0.6476 -0.4491
   13SOL    HW2   39   1.896   0.070   0.333  2.2954 -1.6368  0.2108
   14SOL     OW   40   2.013   2.007   0.169  0.0483  0.1976 -0.3523
   14SOL    HW1   41   2.082   2.037   0.104 -1.7339 -0.0039  0.7844
   14SOL    HW2   42   2.023   1.908   0.194  1.8652  1.4868  0.9247
   15SOL     OW   43   0.068   3.063   2.872 -0.1534  0.1657  0.4367
   15SOL    HW1   44   0.111   0.051   2.863  1.1270 -1.5014  1.3645
   15SOL    HW2   45   0.131   2.997   2.923 -2.3767  0.4900  0.0143
   16SOL     OW   46   2.867   0.617   1.138  0.1151  0.0803  0.2300
   16SOL    HW1   47   2.923   0.546   1.087  2.3705 -0.8956  0.3510
   16SOL    HW2   48   2.798   0.572   1.197  0.1502  1.2870 -1.3752
   17SOL     OW   49   0.730   0.362   1.014 -0.4038  0.0909 -0.0805
   17SOL    HW1   50   0.754   0.277   1.073 -0.5427 -1.9558  2.8635
   17SOL    HW2   51   0.749   0.448   1.062  1.4200 -2.0202 -0.3276
   18SOL     OW   52   2.914   3.088   0.578  0.0478  0.2773  0.6634
   18SOL    HW1   53   2.817   3.090   0.539 -2.1523  0.1843  0.1266
   18SOL    HW2   54   2.933   0.073   0.623  1.0201 -0.6995 -0.5624
   19SOL     OW   55   1.763   1.298   1.263 -0.3264  0.1168  0.0232
   19SOL    HW1   56   1.698   1.312   1.184  0.5825  1.6711  0.9919
   19SOL    HW2   57   1.782   1.384   1.309 -1.2760 -1.7173  1.5408
   20SOL     OW   58   2.301   1.932   2.424 -0.3349  0.0075 -0.2934
   20SOL    HW1   59   2.253   1.910   2.511 -0.8469 -0.6635  1.5755
   20SOL    HW2   60   2.392   1.890   2.408  0.2752  0.3165 -0.1393
   21SOL     OW   61   1.422   2.906   0.376 -0.4825  0.4002  0.6723
   21SOL    HW1   62   1.502   2.846   0.350  1.1237  0.6634 -1.9255
   21SOL    HW2   63   1.349   2.893   0.303 -0.8179 -1.0918 -0.5182
   22SOL     OW   64   2.416   0.965   0.374 -0.1495 -0.0412  0.8540
   22SOL    HW1   65   2.498   1.011   0.420  2.3883 -1.3571  1.3559
   22SOL    HW2   66   2.412   0.868   0.404 -1.0544 -1.4751  1.1403
   23SOL     OW   67   0.955   0.636   1.982 -0.3959 -0.3916 -0.0970
   23SOL    HW1   68   0.944   0.533   1.989 -1.3958 -2.5401  4.3586
   23SOL    HW2   69   1.053   0.664   2.003 -0.7820  1.3825  1.6290
   24SOL     OW   70   1.959   2.204   0.883  0.0787  0.1691 -0.0896
   24SOL    HW1   71   2.055   2.229   0.903 -1.7054  0.5765  1.4930
   24SOL    HW2   72   1.904   2.292   0.861 -0.4231  1.2680 -0.8430
   25SOL     OW   73   1.506   0.009   0.064 -0.3382  0.1895  0.6321
   25SOL    HW1   74   1.605   3.085   0.079 -0.1089 -0.5321 -1.2502
   25SOL    HW2   75   1.492   0.100   0.023  0.8672  0.0668  0.4723
   26SOL     OW   76   1.280   2.884   2.663  0.1457  0.0095  0.1293
   26SOL    HW1   77   1.381   2.875   2.687  0.5552 -0.3709 -1.3907
   26SOL    HW2   78   1.237   2.797   2.634 -0.1243 -0.0723 -2.2543
   27SOL     OW   79   1.048   0.557   1.056 -0.1955  0.0170 -0.2834
   27SOL    HW1   80   0.968   0.592   1.003 -0.8372  0.9974  1.1645
   27SOL    HW2   81   1.024   0.520   1.149 -2.5707  1.0958  0.2020
   28SOL     OW   82   0.401   2.008   0.932 -0.5110  0.0560  0.3510
   28SOL    HW1   83   0.467   2.060   0.874 -1.8815  0.2512 -1.2356
   28SOL    HW2   84   0.407   2.024   1.031 -0.5462 -1.7057 -1.2274
   29SOL     OW   85   2.427   1.061   1.189  0.0638 -0.4529 -0.6842
   29SOL    HW1   86   2.375   0.975   1.179 -1.0992 -0.1738 -1.2633
   29SOL    HW2   87   2.473   1.071   1.282  1.5372 -0.1072 -0.6550
   30SOL     OW   88   1.704   2.995   1.412  0.4962 -0.4497  0.1873
   30SOL    HW1   89   1.747   2.930   1.350 -0.5204  1.1941  0.1738
   30SOL    HW2   90   1.643   3.065   1.373  1.2872 -0.1063  2.6676
   31SOL     OW   91   1.283   0.018   1.223  0.2117 -0.3551 -0.6442
   31SOL    HW1   92   1.282   0.040   1.122  1.0965  1.2954  1.1055
   31SOL    HW2   93   1.291   3.023   1.237  0.3701  0.5339 -2.5509
   32SOL     OW   94   2.276   1.404   1.933 -0.6715 -0.4527 -0.0053
   32SOL    HW1   95   2.284   1.358   1.843  0.8242  1.5240  2.6794
   32SOL    HW2   96   2.178   1.428   1.946  3.0231  1.8515  1.9665
   33SOL     OW   97   2.334   2.979   2.675 -0.4761  0.0005  0.2072
   33SOL    HW1   98   2.246   2.955   2.721 -1.0878 -0.7646  0.6856
   33SOL    HW2   99   2.321   3.046   2.597  0.9840 -1.6230 -2.0458
   34SOL     OW  100   2.258   0.999   0.145  0.0794  0.1743  0.0256
   34SOL    HW1  101   2.329   0.984   0.218 -0.2943  2.4158 -1.6908
   34SOL    HW2  102   2.239   0.914   0.088 -1.0483 -1.4408 -1.9764
   35SOL     OW  103   3.019   1.578   1.707 -0.5850  0.3006  0.0343
   35SOL    HW1  104   3.090   1.579   1.781 -1.0598  0.4037  2.2676
   35SOL    HW2  105   2.952   1.501   1.728 -2.6948 -1.9904 -1.0481
   36SOL     OW  106   2.594   2.481   2.996 -0.5340  0.3960 -0.5742
   36SOL    HW1  107   2.563   2.579   3.002  2.1363 -0.6627 -0.4440
   36SOL    HW2  108   2.571   2.446   2.902 -0.5436 -0.0674  0.4119
   37SOL     OW  109   1.811   2.846   1.809 -0.5418 -0.1336  0.3304
   37SOL    HW1  110   1.898   2.883   1.764 -0.5259  2.1456 -0.8775
   37SOL    HW2  111   1.834   2.801   1.898  0.2346 -1.5934  0.5170
   38SOL     OW  112   0.776   1.215   2.440 -0.1323 -0.3521  0.0151
   38SOL    HW1  113   0.846   1.162   2.492 -3.8286  1.0612  0.3491
   38SOL    HW2  114   0.709   1.154   2.392 -0.7446 -0.5096  0.9436
   39SOL     OW  115   1.877   0.603   1.759 -0.1849 -0.4430  0.0900
   39SOL    HW1  116   1.818   0.646   1.826  0.8518  0.7706 -3.4037
   39SOL    HW2  117   1.929   0.529   1.805 -1.6788 -2.3682  0.5683
   40SOL     OW  118   0.802   2.430   0.735  0.3742 -0.6336 -0.4894
   40SOL    HW1  119   0.772   2.365   0.666  4.0636 -1.5826  0.2797
   40SOL    HW2  120   0.856   2.379   0.807  1.1430 -0.0495  0.6658
   41SOL     OW  121   2.239   2.033   0.911  0.1820 -0.0139  0.0280
   41SOL    HW1  122   2.236   2.134   0.900  1.2156 -0.5055 -1.7961
   41SOL    HW2  123   2.333   2.011   0.946 -2.1273  0.4872  1.7764
   42SOL     OW  124   2.166   0.329   0.457 -0.2687 -0.7496 -0.4236
   42SOL    HW1  125   2.083   0.286   0.426  3.8713  0.6025 -0.1504
   42SOL    HW2  126   2.250   0.278   0.431 -1.8492  2.5639 -2.1351
   43SOL     OW  127   0.632   1.385   2.595 -0.1232 -0.4006 -0.3582
   43SOL    HW1  128   0.567   1.439   2.536  2.7806 -1.7066 -0.5729
   43SOL    HW2  129   0.699   1.340   2.529  0.7345  3.8861  0.4648
   44SOL     OW  130   1.831   2.803   1.201  0.0558  0.8227 -0.0540
   44SOL    HW1  131   1.748   2.748   1.171  0.4548  0.0921 -0.8811
   44SOL    HW2  132   1.889   2.834   1.124  2.5300 -1.1742 -0.7318
   45SOL     OW  133   0.649   2.266   2.773  0.0461  0.2826  0.1842
   45SOL    HW1  134   0.587   2.277   2.852  4.1603  2.5282 -0.0095
   45SOL    HW2  135   0.696   2.352   2.751 -0.3734 -1.5141  0.1850
   46SOL     OW  136   0.770   2.803   2.221 -0.3179 -0.4618  0.1170
   46SOL    HW1  137   0.807   2.775   2.130 -1.7831 -0.5184  0.7099
   46SOL    HW2  138   0.720   2.729   2.264  2.7474  2.2981 -0.0964
   47SOL     OW  139   0.653   1.662   0.850  0.4100  0.1190 -0.0575
   47SOL    HW1  140   0.661   1.686   0.752  1.8941 -0.7271 -0.4229
   47SOL    HW2  141   0.704   1.732   0.904 -2.4605  0.3272  0.1852
   48SOL     OW  142   0.741   2.668   1.472 -0.4331 -0.1872  0.0177
   48SOL    HW1  143   0.789   2.601   1.419 -0.4802  2.0577  0.9504
   48SOL    HW2  144   0.807   2.747   1.476  1.8213  2.4999 -0.4675
   49SOL     OW  145   0.172   2.870   3.015  0.4491  0.1710 -0.7388
   49SOL    HW1  146   0.168   2.801   3.091 -0.6913 -1.3241  0.3092
   49SOL    HW2  147   0.247   2.840   2.950 -0.2406 -2.7602 -3.1248
   50SOL     OW  148   1.403   0.671   0.427 -0.1892 -0.1146 -0.3272
   50SOL    HW1  149   1.306   0.692   0.441 -0.1653  2.8348  0.4058
   50SOL    HW2  150   1.453   0.678   0.516  1.6431 -0.4036 -2.4852
   51SOL     OW  151   1.713   2.994   0.726  0.2982 -0.4883  1.2731
   51SOL    HW1  152   1.643   3.027   0.658  0.1581  3.2714 -1.8415
   51SOL    HW2  153   1.741   3.075   0.775 -0.9035 -1.7965  0.0109
   52SOL     OW  154   0.335   1.595   1.201 -0.4455  0.3461 -0.2023
   52SOL    HW1  155   0.430   1.556   1.216 -0.8689 -0.8886  0.1847
   52SOL    HW2  156   0.342   1.653   1.120 -0.1200  0.2612  0.4982
   53SOL     OW  157   0.018   1.000   2.940 -0.1147  0.1720  0.0027
   53SOL    HW1  158   3.045   1.024   3.003 -0.4512 -0.7840  1.0758
   53SOL    HW2  159   0.102   1.037   2.983 -0.4215 -0.1822 -1.1121
   54SOL     OW  160   2.961   2.202   2.821 -0.2095  0.3375 -0.3211
   54SOL    HW1  161   2.860   2.188   2.848  2.5751 -0.8696 -0.4636
   54SOL    HW2  162   2.966   2.251   2.734  0.3579  1.3980 -1.0096
   55SOL     OW  163   2.534   2.109   1.306 -0.1401  0.7005  0.1407
   55SOL    HW1  164   2.572   2.194   1.349  0.0376 -2.2602  0.1568
   55SOL    HW2  165   2.435   2.126   1.287 -2.1809  1.0364 -1.3064
   56SOL     OW  166   1.407   0.686   1.318 -0.4853  0.5561 -0.1947
   56SOL    HW1  167   1.394   0.780   1.357  0.5439 -2.1006  1.4603
   56SOL    HW2  168   1.369   0.683   1.222  1.4365  0.4453 -3.8870
   57SOL     OW  169   1.896   1.696   0.980 -0.3047 -0.3282  0.1802
   57SOL    HW1  170   1.967   1.750   0.925 -0.0608  2.2361 -0.5304
   57SOL    HW2  171   1.943   1.614   1.020 -0.2561 -1.0055 -0.5011
   58SOL     OW  172   2.561   0.252   2.170  0.1788  0.0205  0.3123
   58SOL    HW1  173   2.588   0.349   2.180 -1.3535  0.4961 -4.4268
   58SOL    HW2  174   2.559   0.227   2.069  0.2024  1.2273  0.8248
   59SOL     OW  175   1.642   2.846   2.158 -0.1618  0.5131 -0.0047
   59SOL    HW1  176   1.582   2.853   2.075 -0.7274  1.7695 -0.5803
   59SOL    HW2  177   1.740   2.846   2.135  2.3064  3.8051  0.6946
   60SOL     OW  178   1.206   1.961   3.039 -0.2245 -0.2456  0.0866
   60SOL    HW1  179   1.229   1.980   0.033 -0.2839  0.6208 -0.6115
   60SOL    HW2  180   1.103   1.961   3.016 -1.4904  0.5466 -0.2784
   61SOL     OW  181   0.702   2.120   0.264  0.0880 -0.0247 -0.0358
   61SOL    HW1  182   0.668   2.039   0.316 -0.4145  0.8997  0.5497
   61SOL    HW2  183   0.746   2.179   0.334  1.2304 -3.5731  1.1943
   62SOL     OW  184   1.409   1.823   1.520 -0.3683 -0.1004  0.5318
   62SOL    HW1  185   1.330   1.812   1.585 -0.4909 -1.1557 -0.3501
   62SOL    HW2  186   1.496   1.835   1.571 -3.5192 -1.2335  0.1855
   63SOL     OW  187   1.138   1.994   0.629 -0.1091  0.0868 -0.4511
   63SOL    HW1  188   1.043   2.016   0.601  0.5402  0.3664 -0.3397
   63SOL    HW2  189   1.132   1.903   0.675  0.9742 -1.0167  1.6275
   64SOL     OW  190   1.698   1.671   2.477  0.3568  0.0182  0.0777
   64SOL    HW1  191   1.743   1.582   2.455  1.0810  0.5842  0.9967
   64SOL    HW2  192   1.749   1.717   2.553  1.0910  0.9559 -0.1831
   65SOL     OW  193   1.698   1.819   1.583  0.2310 -0.3321 -0.8286
   65SOL    HW1  194   1.743   1.816   1.489 -0.2914 -0.1405 -1.5535
   65SOL    HW2  195   1.746   1.895   1.634 -1.4371 -3.1636 -1.1177
   66SOL     OW  196   3.071   1.006   0.970  0.5443 -0.1345  0.4933
   66SOL    HW1  197   0.041   0.944   0.995 -0.4681  3.7429 -3.3573
   66SOL    HW2  198   2.988   0.952   0.935  1.4909  0.5415 -1.5170
   67SOL     OW  199   2.200   2.321   0.909 -0.3805  0.6410  0.5581
   67SOL    HW1  200   2.263   2.326   0.984 -1.9165 -0.6449 -1.7917
   67SOL    HW2  201   2.223   2.390   0.836  0.8533  0.4252 -0.9895
   68SOL     OW  202   2.398   2.764   1.635  0.1855 -0.2297 -0.1697
   68SOL    HW1  203   2.342   2.724   1.560  2.4149 -1.3945  1.0609
   68SOL    HW2  204   2.342   2.795   1.717  1.9451 -0.8234 -1.9392
   69SOL     OW  205   2.483   2.761   2.989 -0.1345 -0.4691 -0.1522
   69SOL    HW1  206   2.469   2.769   2.889  1.0599  0.1279 -0.9685
   69SOL    HW2  207   2.570   2.808   3.016 -2.4381 -0.6857  0.1515
   70SOL     OW  208   0.827   1.570   2.693  0.3913  0.1838  0.2024
   70SOL    HW1  209   0.913   1.523   2.655  1.4530 -1.6507  0.6821
   70SOL    HW2  210   0.751   1.501   2.689 -0.5061 -0.0551  0.5164
   71SOL     OW  211   0.783   1.588   1.849  0.4429 -0.0832 -0.7659
   71SOL    HW1  212   0.782   1.518   1.778  1.6305  0.2738 -0.7941
   71SOL    HW2  213   0.804   1.679   1.809 -1.4930 -0.9607 -0.4454
   72SOL     OW  214   3.010   1.138   1.578 -0.2493  0.5498  0.1879
   72SOL    HW1  215   3.097   1.126   1.635  0.6647 -2.2942 -0.6361
   72SOL    HW2  216   3.040   1.183   1.487  0.5497 -0.2173  0.1965
   73SOL     OW  217   0.989   2.252   2.217 -0.0099 -0.5285  0.1014
   73SOL    HW1  218   0.975   2.280   2.119  1.8160 -1.6977  0.4712
   73SOL    HW2  219   1.089   2.249   2.236  1.8475 -1.7288 -3.2401
   74SOL     OW  220   1.336   0.296   2.031 -0.1814  0.4486 -0.2747
   74SOL    HW1  221   1.272   0.275   2.109 -0.7881  2.1820  2.1888
   74SOL    HW2  222   1.428   0.266   2.064 -1.8261  0.0960  0.8112
   75SOL     OW  223   1.070   2.959   0.589  0.3124 -0.3364  0.5504
   75SOL    HW1  224   1.064   2.903   0.506 -1.0917  0.8707  1.3655
   75SOL    HW2  225   1.157   2.930   0.636 -1.1057 -2.8162 -1.3178
   76SOL     OW  226   0.385   1.766   2.725  0.6358 -0.2034 -0.1894
   76SOL    HW1  227   0.471   1.732   2.760 -1.1909  0.4696 -0.8895
   76SOL    HW2  228   0.388   1.853   2.678  0.8091 -1.5773  1.4326
   77SOL     OW  229   0.398   2.396   0.985  0.3336 -0.3005 -0.2025
   77SOL    HW1  230   0.474   2.459   0.955  0.9019  0.2322 -0.7158
   77SOL    HW2  231   0.300   2.433   0.978 -1.4889 -2.9126  2.0362
   78SOL     OW  232   2.695   1.363   0.282 -0.2074 -0.1385  0.6405
   78SOL    HW1  233   2.613   1.319   0.232  0.2231 -0.9835 -1.1016
   78SOL    HW2  234   2.673   1.455   0.328 -3.0718  0.1639 -2.0625
   79SOL     OW  235   0.556   1.572   2.881 -0.4640 -0.5063  0.4824
   79SOL    HW1  236   0.487   1.500   2.897  1.1941  1.8199 -1.0777
   79SOL    HW2  237   0.632   1.568   2.948  0.0405  2.4133  0.2111
   80SOL     OW  238   2.089   1.237   1.482  0.3054  0.0677 -0.1777
   80SOL    HW1  239   2.016   1.185   1.535  1.6290  2.3682  1.0576
   80SOL    HW2  240   2.088   1.222   1.386 -3.1103 -1.2354  1.8426
   81SOL     OW  241   2.014   0.646   2.477 -0.1812  0.0909  0.2193
   81SOL    HW1  242   1.955   0.677   2.553 -0.2968 -0.1665 -1.2375
   81SOL    HW2  243   1.959   0.648   2.394  0.7684  0.1993  2.7127
   82SOL     OW  244   2.119   1.814   1.300  0.3522  0.4168 -0.2451
   82SOL    HW1  245   2.103   1.869   1.217 -3.0388  1.0185 -1.2158
   82SOL    HW2  246   2.167   1.724   1.287  1.6801 -1.3612 -1.0356
   83SOL     OW  247   2.234   2.853   0.008  0.1842  0.3724  0.5107
   83SOL    HW1  248   2.324   2.857   3.067 -0.2913  2.2741 -2.3676
   83SOL    HW2  249   2.176   2.935   3.085 -1.9375  4.1692  0.4675
   84SOL     OW  250   0.853   0.658   0.349  0.4351  0.1452 -0.1782
   84SOL    HW1  251   0.778   0.714   0.309  0.3228  0.2667  2.7160
   84SOL    HW2  252   0.855   0.651   0.453 -1.2429  1.3759  2.3020
   85SOL     OW  253   2.198   1.540   1.247  0.1218  0.3747  0.5893
   85SOL    HW1  254   2.122   1.521   1.180 -0.2258  0.2792 -0.4161
   85SOL    HW2  255   2.281   1.575   1.201  1.2580 -0.6327 -0.0044
   86SOL     OW  256   0.630   0.728   1.238  0.7066  0.7826 -0.3886
   86SOL    HW1  257   0.607   0.726   1.339  2.2411  0.2595  0.2774
   86SOL    HW2  258   0.604   0.819   1.200  0.9772 -1.1920 -0.5127
   87SOL     OW  259   3.089   2.370   2.343  0.0518  0.1627  0.2604
   87SOL    HW1  260   3.057   2.302   2.271 -0.0425 -2.0568 -4.2613
   87SOL    HW2  261   3.077   2.458   2.296  0.7929 -3.9241 -1.3972
   88SOL     OW  262   0.160   2.939   0.256  0.0402 -0.0219  0.8821
   88SOL    HW1  263   0.087   2.985   0.315 -0.0573 -1.4258 -1.0679
   88SOL    HW2  264   0.253   2.943   0.291  1.0834 -0.7946  1.4667
   89SOL     OW  265   1.236   0.104   0.962 -0.2052  0.1708  0.7571
   89SOL    HW1  266   1.325   0.097   0.913 -1.9798 -1.3940 -0.1130
   89SOL    HW2  267   1.199   0.191   0.939  2.3125 -0.8038  2.2367
   90SOL     OW  268   2.820   1.004   2.195 -0.1233  0.3314  0.1141
   90SOL    HW1  269   2.759   0.936   2.237  0.4512 -0.5207  0.8943
   90SOL    HW2  270   2.882   0.959   2.129 -0.7940  1.0065  0.8357
   91SOL     OW  271   1.977   2.682   0.768  0.2363 -0.3292 -0.2291
   91SOL    HW1  272   1.912   2.705   0.697  1.1970  0.3400  3.4610
   91SOL    HW2  273   2.013   2.585   0.752 -2.3583 -1.5567  0.0828
   92SOL     OW  274   1.727   1.644   0.791  0.0469  0.7289  0.6673
   92SOL    HW1  275   1.788   1.669   0.873 -0.8881  1.9034  0.9628
   92SOL    HW2  276   1.787   1.595   0.720  5.1898 -0.0978 -0.7138
   93SOL     OW  277   0.521   1.466   0.571  0.3319 -0.0453  0.4760
   93SOL    HW1  278   0.584   1.389   0.575 -0.2139  2.8201 -1.1655
   93SOL    HW2  279   0.572   1.553   0.580 -1.8020 -3.1051 -0.0327
   94SOL     OW  280   0.809   2.531   1.240 -0.1844  0.1022 -0.6722
   94SOL    HW1  281   0.902   2.514   1.274 -1.3392  0.0074  0.6699
   94SOL    HW2  282   0.756   2.445   1.220 -0.0626 -1.2119 -0.2979
   95SOL     OW  283   0.280   0.998   0.620 -0.0476  0.2772  0.1095
   95SOL    HW1  284   0.301   1.087   0.666 -1.9838 -0.7221  0.0631
   95SOL    HW2  285   0.302   0.923   0.684 -0.4805 -1.9356  0.8478
   96SOL     OW  286   0.842   2.677   1.982 -0.0586  0.8396  0.0903
   96SOL    HW1  287   0.820   2.756   1.921 -0.4606 -0.0574 -0.7720
   96SOL    HW2  288   0.791   2.596   1.952  0.7538  1.1037 -1.4459
   97SOL     OW  289   2.601   0.897   0.894 -0.8371  0.0985 -0.0091
   97SOL    HW1  290   2.576   0.827   0.970  0.8055 -2.3964  1.0247
   97SOL    HW2  291   2.595   0.992   0.923  1.4089 -1.8754 -0.4753
   98SOL     OW  292   0.392   1.986   2.058  0.4385 -0.3894 -0.6409
   98SOL    HW1  293   0.400   1.902   2.006 -2.4726  2.0954 -1.4006
   98SOL    HW2  294   0.292   2.017   2.060 -0.6159  0.3238  0.9083
   99SOL     OW  295   2.934   0.334   1.496  0.8208 -0.5216 -0.5760
   99SOL    HW1  296   3.036   0.324   1.474  0.3133 -0.0677 -0.4440
   99SOL    HW2  297   2.919   0.390   1.584  2.0518  1.4988 -0.7905
  100SOL     OW  298   1.912   0.228   2.679  0.3020 -0.2960 -0.7773
  100SOL    HW1  299   2.005   0.238   2.721  2.2971  0.1497 -0.9534
  100SOL    HW2  300   1.928   0.175   2.592 -1.0149  0.2957 -0.0265
  101SOL     OW  301   1.175   0.047   2.204  0.5776 -0.1526  0.2756
  101SOL    HW1  302   1.112   0.128   2.212 -1.3376  3.4537 -0.9019
  101SOL    HW2  303   1.191   0.004   2.297  0.3948  1.1840  0.6783
  102SOL     OW  304   0.586   0.650   1.723  0.1555  0.3365  0.9742
  102SOL    HW1  305   0.546   0.654   1.818  1.5069  0.2019 -2.2611
  102SOL    HW2  306   0.691   0.650   1.722 -0.6915 -1.2719 -1.3124
  103SOL     OW  307   0.506   1.038   2.932 -0.3240 -0.7361 -0.2669
  103SOL    HW1  308   0.491   1.128   2.880  1.3521  3.6481 -1.9452
  103SOL    HW2  309   0.464   0.965   2.869 -0.7648  0.2751 -1.0136
  104SOL     OW  310   0.655   0.241   2.012 -0.1137 -0.0975 -0.4554
  104SOL    HW1  311   0.680   0.157   1.964 -0.3114  2.3004 -0.1509
  104SOL    HW2  312   0.699   0.235   2.108  0.0276 -0.8949  2.9890
  105SOL     OW  313   2.677   2.393   1.876 -0.2764 -0.1136  0.4564
  105SOL    HW1  314   2.577   2.402   1.900 -1.0320  3.2984 -0.8676
  105SOL    HW2  315   2.687   2.346   1.785  2.0785 -1.4690  0.8010
  106SOL     OW  316   0.633   2.958   0.781  0.3940 -0.3782 -0.0623
  106SOL    HW1  317   0.731   2.992   0.785  3.3658  0.4024  1.4357
  106SOL    HW2  318   0.589   2.990   0.695 -1.2829  2.0360 -0.8622
  107SOL     OW  319   2.769   2.014   1.149  0.4857 -0.0034  0.2730
  107SOL    HW1  320   2.795   2.100   1.098 -0.2967  0.7047 -0.6214
  107SOL    HW2  321   2.701   2.028   1.223  1.3020 -0.7299  1.7782
  108SOL     OW  322   0.123   2.575   0.799 -0.1089 -0.2774 -0.3613
  108SOL    HW1  323   0.033   2.598   0.759  0.8883 -0.1171  0.4464
  108SOL    HW2  324   0.121   2.599   0.902  0.2718 -1.4560 -1.9999
  109SOL     OW  325   1.496   2.856   0.833  0.4106 -0.2308 -0.2891
  109SOL    HW1  326   1.484   2.868   0.935  1.2274  1.0668  2.2123
  109SOL    HW2  327   1.571   2.921   0.807 -0.0406 -1.1066 -3.0242
  110SOL     OW  328   1.778   1.921   0.717 -0.3980 -0.2125  0.1047
  110SOL    HW1  329   1.752   1.832   0.758  1.2086  1.6771 -2.2849
  110SOL    HW2  330   1.760   2.003   0.773 -0.2780 -0.5042 -0.2127
  111SOL     OW  331   2.049   2.534   1.925 -0.4048 -0.5295 -0.1576
  111SOL    HW1  332   2.064   2.482   2.012  0.5239  0.3193 -1.6040
  111SOL    HW2  333   2.018   2.628   1.942  1.6388  1.7280 -0.8755
  112SOL     OW  334   1.800   2.357   2.468 -0.1843  0.1056 -0.1413
  112SOL    HW1  335   1.695   2.364   2.474 -1.1743  0.0748 -0.4894
  112SOL    HW2  336   1.842   2.434   2.525 -0.8417  0.7619 -3.2263
  113SOL     OW  337   2.416   2.080   2.005  0.3411  0.5087  0.4684
  113SOL    HW1  338   2.311   2.071   2.010 -2.4683 -0.1883  1.5697
  113SOL    HW2  339   2.449   2.049   1.914  2.0898  1.4677  0.2244
  114SOL     OW  340   0.129   1.073   1.252 -0.3849 -0.6774  0.0201
  114SOL    HW1  341   0.058   1.138   1.297 -1.7238 -0.9325  0.3783
  114SOL    HW2  342   0.146   0.989   1.308 -0.7395 -2.2757  1.6669
  115SOL     OW  343   2.498   0.559   2.891 -0.1470 -0.0589 -0.6682
  115SOL    HW1  344   2.531   0.653   2.909 -1.0802  2.3324 -2.6354
  115SOL    HW2  345   2.568   0.512   2.833  1.8098 -0.3803  1.2479
  116SOL     OW  346   2.688   0.404   2.729 -0.1379  0.0866 -0.2435
  116SOL    HW1  347   2.708   0.305   2.734  0.2447 -2.8929  0.5175
  116SOL    HW2  348   2.667   0.442   2.639  1.7665 -0.4930  0.2009
  117SOL     OW  349   2.529   2.710   0.853  0.3459  0.0970  0.4326
  117SOL    HW1  350   2.505   2.810   0.869  2.1105 -0.0296 -0.7446
  117SOL    HW2  351   2.567   2.675   0.939  0.2263  2.5928 -0.5640
  118SOL     OW  352   0.995   1.992   2.334  0.2398  0.5241  0.1378
  118SOL    HW1  353   1.051   1.922   2.286  1.1115  0.0392 -0.1554
  118SOL    HW2  354   1.007   2.084   2.288  1.9791  2.0448  1.5995
  119SOL     OW  355   0.629   2.797   0.414  0.0630  0.5389 -0.0277
  119SOL    HW1  356   0.716   2.853   0.403  1.9031 -0.5358 -1.4865
  119SOL    HW2  357   0.652   2.697   0.395 -1.8133 -0.4315 -1.6624
  120SOL     OW  358   1.351   0.793   0.729 -0.0346  0.0975 -0.0401
  120SOL    HW1  359   1.368   0.873   0.789  0.1727  4.9361 -1.3969
  120SOL    HW2  360   1.443   0.747   0.703  0.9869 -1.8917  1.1384
  121SOL     OW  361   1.830   0.717   1.027  0.0948  0.2186  0.0367
  121SOL    HW1  362   1.923   0.747   1.059  0.5185  1.0171 -0.1701
  121SOL    HW2  363   1.750   0.775   1.064 -2.5673 -1.2594 -0.2833
  122SOL     OW  364   2.025   1.623   2.198  0.4169 -0.0676  0.1075
  122SOL    HW1  365   2.117   1.672   2.205  2.7068 -0.8324 -0.9155
  122SOL    HW2  366   2.020   1.552   2.124  1.8646 -3.0770 -2.4759
  123SOL     OW  367   0.648   0.813   0.694 -0.1095 -0.0608  0.0729
  123SOL    HW1  368   0.673   0.854   0.788 -0.9296  0.8353  2.1785
  123SOL    HW2  369   0.561   0.758   0.689  0.0718 -0.1859 -1.0059
  124SOL     OW  370   0.709   0.365   2.713  0.0073  0.1099 -0.5632
  124SOL    HW1  371   0.674   0.341   2.806  2.3079  2.1135  1.1162
  124SOL    HW2  372   0.807   0.387   2.716  0.5228  2.9356  1.2608
  125SOL     OW  373   0.766   0.105   2.889  0.2771 -0.4557  0.4897
  125SOL    HW1  374   0.800   0.031   2.953  0.6176 -0.2272  2.0510
  125SOL    HW2  375   0.819   0.111   2.800 -0.6678 -0.0720 -1.7313
  126SOL     OW  376   0.785   1.284   0.151  0.2656 -0.2544 -0.8281
  126SOL    HW1  377   0.752   1.295   0.055  2.5762  0.6082 -0.5836
  126SOL    HW2  378   0.714   1.319   0.212  3.4828 -1.3014  0.0458
  127SOL     OW  379   1.061   2.571   1.026 -0.1596 -0.5133  0.4635
  127SOL    HW1  380   1.033   2.640   1.095  0.1456  1.1839 -0.2665
  127SOL    HW2  381   1.131   2.608   0.952 -0.9229  1.4808 -2.1580
  128SOL     OW  382   1.322   2.008   0.182 -0.5444 -0.5770 -0.3478
  128SOL    HW1  383   1.338   1.907   0.199  0.9104 -1.8344 -0.9443
  128SOL    HW2  384   1.409   2.064   0.179  1.7482 -0.9560 -3.0251
  129SOL     OW  385   1.919   1.465   1.734 -0.5182 -0.0394 -0.2435
  129SOL    HW1  386   1.936   1.365   1.713  0.1140 -1.6907  1.3434
  129SOL    HW2  387   1.820   1.486   1.709 -0.7997  0.7228  0.8366
  130SOL     OW  388   2.119   1.644   1.724 -0.0336 -0.0382 -0.0264
  130SOL    HW1  389   2.039   1.584   1.732  2.0849  2.4690  1.2844
  130SOL    HW2  390   2.190   1.601   1.665 -0.9031 -0.5907 -0.5573
  131SOL     OW  391   0.903   2.284   1.957  0.5309  0.4604  0.6946
  131SOL    HW1  392   0.972   2.326   1.895 -2.7821  0.0644  1.7213
  131SOL    HW2  393   0.812   2.330   1.944 -0.5061 -3.2847 -1.8077
  132SOL     OW  394   2.566   1.656   0.633 -0.3803  0.0554  0.1746
  132SOL    HW1  395   2.640   1.653   0.699 -3.4741  2.0706 -0.0273
  132SOL    HW2  396   2.502   1.728   0.655 -0.0067 -2.8964 -0.3802
  133SOL     OW  397   0.831   1.840   1.748 -0.0049 -0.1724 -0.0146
  133SOL    HW1  398   0.749   1.901   1.730 -1.0020 -1.5904  0.3713
  133SOL    HW2  399   0.891   1.892   1.808 -0.3333  0.6594 -0.3459
  134SOL     OW  400   2.994   1.827   0.814 -0.1807  0.1608  0.1362
  134SOL    HW1  401   3.071   1.762   0.786  1.2724 -4.7608  3.1288
  134SOL    HW2  402   3.013   1.866   0.910 -1.2400  0.5494 -0.5586
  135SOL     OW  403   1.933   1.374   2.728  0.1127  0.6633 -0.4089
  135SOL    HW1  404   1.985   1.462   2.711  1.3504  1.2905 -0.8977
  135SOL    HW2  405   1.912   1.335   2.636 -0.0998 -1.2964 -3.8277
  136SOL     OW  406   0.071   1.440   1.206 -0.1361  0.6574  0.2439
  136SOL    HW1  407   0.164   1.432   1.166 -2.2172 -1.8446  0.9314
  136SOL    HW2  408   0.008   1.498   1.154  1.6450  1.0741  0.7337
  137SOL     OW  409   2.407   1.468   3.018  0.2108 -0.0633 -0.5611
  137SOL    HW1  410   2.390   1.366   3.028 -1.7299  0.7349  2.2102
  137SOL    HW2  411   2.452   1.497   2.932 -0.7919 -0.1942  0.5170
  138SOL     OW  412   2.571   0.367   0.648  0.0408  0.3731  0.1070
  138SOL    HW1  413   2.476   0.396   0.628  0.8330 -0.3458 -1.9264
  138SOL    HW2  414   2.630   0.381   0.562  1.3367 -1.6485  0.6954
  139SOL     OW  415   2.334   2.542   2.776 -0.5012  0.3080 -0.1499
  139SOL    HW1  416   2.344   2.646   2.770 -1.4364  1.2829 -2.7589
  139SOL    HW2  417   2.424   2.490   2.768  2.2870 -1.0038 -0.5196
  140SOL     OW  418   0.631   1.454   1.004  0.3363  0.9597  0.2750
  140SOL    HW1  419   0.627   1.524   0.928  0.0014  0.1694 -1.3043
  140SOL    HW2  420   0.627   1.356   0.967 -2.4221 -1.9897 -0.9675
  141SOL     OW  421   1.025   1.259   0.811  0.0593 -0.1713  0.4111
  141SOL    HW1  422   1.079   1.206   0.881  0.3616  0.7695 -0.2500
  141SOL    HW2  423   1.085   1.261   0.733  0.2341  0.2015  0.8506
  142SOL     OW  424   1.313   0.946   1.030 -0.4806 -0.2676  0.0512
  142SOL    HW1  425   1.322   0.846   1.061 -3.1267 -3.7626 -0.6354
  142SOL    HW2  426   1.403   0.992   1.011  0.0079 -4.1141  1.1385
  143SOL     OW  427   0.260   0.486   2.934 -0.3640 -0.1360  0.0940
  143SOL    HW1  428   0.163   0.498   2.903 -3.3997  1.3463 -0.5568
  143SOL    HW2  429   0.319   0.488   2.847 -0.5116 -1.0136 -1.4527
  144SOL     OW  430   2.391   0.158   0.305  0.1231 -0.3009  0.6424
  144SOL    HW1  431   2.338   0.071   0.287 -0.0023  0.2253 -2.5230
  144SOL    HW2  432   2.470   0.139   0.368  0.3868 -2.0780  1.4533
  145SOL     OW  433   2.279   0.019   2.443 -0.6996 -0.2894  0.1483
  145SOL    HW1  434   2.346   0.077   2.493  1.0026 -1.2431  0.9027
  145SOL    HW2  435   2.183   0.058   2.448 -0.7226  0.6254  0.1837
  146SOL     OW  436   2.956   2.604   0.453  0.6083 -0.2042 -0.3711
  146SOL    HW1  437   3.059   2.600   0.441 -0.2948  1.5253 -1.8681
  146SOL    HW2  438   2.909   2.656   0.382  4.0052 -1.8558 -2.7122
  147SOL     OW  439   1.450   0.757   2.885 -0.0584 -0.2364 -0.0226
  147SOL    HW1  440   1.346   0.752   2.875 -1.0116 -0.9489  0.5898
  147SOL    HW2  441   1.473   0.707   2.971  0.8405  0.0962  1.3933
  148SOL     OW  442   1.039   3.082   0.134 -0.5124  0.2719  0.7497
  148SOL    HW1  443   0.971   0.011   0.202  0.9577 -1.1769  1.6241
  148SOL    HW2  444   1.128   0.009   0.161 -1.9154 -0.4947 -3.1623
  149SOL     OW  445   1.361   1.040   2.696 -0.0687 -0.0696  0.0348
  149SOL    HW1  446   1.436   0.969   2.704  4.2676 -1.0913 -2.5485
  149SOL    HW2  447   1.390   1.115   2.628 -1.6178 -0.7645 -1.4278
  150SOL     OW  448   1.420   2.887   3.031  0.4159 -0.8652 -0.4074
  150SOL    HW1  449   1.444   2.894   2.930 -1.0282  0.5892 -4.2041
  150SOL    HW2  450   1.459   2.966   3.080  1.1836 -0.9495 -2.4056
  151SOL     OW  451   0.196   1.164   3.093  0.0747  0.2250 -0.0288
  151SOL    HW1  452   0.143   1.234   0.041 -0.1752  1.8325 -0.6139
  151SOL    HW2  453   0.262   1.118   0.056  0.4392 -0.8284  0.7569
  152SOL     OW  454   0.772   0.356   1.451  0.4029 -0.2226  0.1288
  152SOL    HW1  455   0.814   0.294   1.516  0.2961  2.0730  1.0739
  152SOL    HW2  456   0.683   0.393   1.489 -2.0562 -0.4330 -0.4074
  153SOL     OW  457   2.657   3.023   1.925  0.1019  0.1256 -0.1159
  153SOL    HW1  458   2.558   2.996   1.941  1.1899 -1.8824  2.3752
  153SOL    HW2  459   2.668   0.007   1.880  1.6940 -1.3448 -0.4654
  154SOL     OW  460   2.409   2.976   2.058 -0.2574  0.1422  0.1198
  154SOL    HW1  461   2.426   2.933   2.150  1.1955  0.3758  2.5056
  154SOL    HW2  462   2.380   3.071   2.072  1.4235  0.2801 -1.5569
  155SOL     OW  463   0.189   1.407   0.426 -0.4810  0.6904  0.5101
  155SOL    HW1  464   0.188   1.309   0.391 -2.0797  1.1170  2.3093
  155SOL    HW2  465   0.150   1.418   0.517  3.5819 -0.0386  0.4782
  156SOL     OW  466   1.987   1.098   0.180  0.1030  0.1069 -0.4876
  156SOL    HW1  467   1.926   1.022   0.199 -1.5539 -0.2562  1.8559
  156SOL    HW2  468   2.087   1.067   0.168  1.8019  2.0000 -2.2993
  157SOL     OW  469   1.091   2.726   3.034  0.5047  0.6564 -0.5528
  157SOL    HW1  470   1.136   2.709   0.018 -0.1899  1.0337 -0.6560
  157SOL    HW2  471   0.995   2.686   3.039 -0.8462  0.0884 -2.8144
  158SOL     OW  472   1.850   0.900   1.495 -0.4796 -0.2364 -0.4860
  158SOL    HW1  473   1.915   0.923   1.572  0.7930 -0.7883  1.9351
  158SOL    HW2  474   1.844   0.976   1.426 -1.2291  0.7883 -1.5183
  159SOL     OW  475   3.010   3.064   0.127 -0.0500  0.1445  0.4157
  159SOL    HW1  476   3.055   2.972   0.144 -2.0353 -0.5905 -0.8285
  159SOL    HW2  477   3.058   0.015   0.053  2.1924  0.9784 -1.2008
  160SOL     OW  478   2.375   1.929   1.734 -0.1461 -0.1221  0.0567
  160SOL    HW1  479   2.423   1.874   1.663  0.0109 -0.3024  0.9084
  160SOL    HW2  480   2.278   1.923   1.722 -0.2485 -1.7660  2.7119
  161SOL     OW  481   0.016   0.223   0.017  0.0259  0.5006  0.3841
  161SOL    HW1  482   0.116   0.212   0.035 -1.2690  1.0949 -1.7183
  161SOL    HW2  483   3.077   0.273   0.098 -0.3563  0.5108  1.2492
  162SOL     OW  484   0.503   0.777   1.951  0.4753  0.0413 -0.3370
  162SOL    HW1  485   0.421   0.719   1.971  0.7348  1.1759 -0.7763
  162SOL    HW2  486   0.555   0.800   2.036 -1.3591  0.0851 -0.6849
  163SOL     OW  487   2.717   3.010   2.535  0.1574 -0.1081 -0.0568
  163SOL    HW1  488   2.678   3.079   2.468 -0.7057 -1.8255  2.4191
  163SOL    HW2  489   2.813   2.995   2.517 -3.4698  0.8803 -1.3754
  164SOL     OW  490   2.277   1.682   0.031  0.4095 -0.4160  0.3168
  164SOL    HW1  491   2.177   1.659   0.033  0.9150  0.4447 -0.9393
  164SOL    HW2  492   2.324   1.607   3.086 -1.1870 -1.3378  1.1865
  165SOL     OW  493   0.090   3.079   1.227  0.5642 -0.2764  0.2056
  165SOL    HW1  494   0.134   3.059   1.138 -2.7319 -1.2825  1.6171
  165SOL    HW2  495   0.150   3.049   1.305 -0.6761 -0.9634  0.7896
  166SOL     OW  496   2.711   0.370   3.058  0.3237 -0.9447 -0.1818
  166SOL    HW1  497   2.622   0.371   0.009 -2.2223 -0.5171  1.7299
  166SOL    HW2  498   2.693   0.312   2.980 -0.2060  2.4489  2.0732
  167SOL     OW  499   2.065   0.689   0.622 -0.1670 -0.0385 -0.1970
  167SOL    HW1  500   2.156   0.738   0.631 -1.6273 -0.7682  1.0683
  167SOL    HW2  501   2.047   0.611   0.684  0.9297  1.6501 -0.9999
  168SOL     OW  502   1.113   0.532   2.321 -0.2998 -0.3784 -0.4465
  168SOL    HW1  503   1.132   0.565   2.416 -1.8391 -2.1988 -0.4509
  168SOL    HW2  504   1.187   0.563   2.253  0.5483  2.2670 -0.2680
  169SOL     OW  505   0.675   1.942   1.204 -0.2052 -0.0788  0.5511
  169SOL    HW1  506   0.577   1.966   1.201  1.7824 -0.2300  0.0812
  169SOL    HW2  507   0.717   1.918   1.109  2.1968 -0.3697 -3.2434
  170SOL     OW  508   0.089   3.096   1.597  0.0493  0.0857 -0.5305
  170SOL    HW1  509   0.156   3.027   1.564 -0.0849 -0.3029 -0.2458
  170SOL    HW2  510   0.023   0.006   1.525 -0.7157 -0.4804 -0.7193
  171SOL     OW  511   2.442   1.332   2.162  0.5321 -0.3631  0.6629
  171SOL    HW1  512   2.539   1.359   2.134  1.1713  0.4958 -1.4173
  171SOL    HW2  513   2.379   1.348   2.082 -0.0476 -1.3930  0.9360
  172SOL     OW  514   1.346   2.023   1.037 -0.0418  0.1209 -0.6611
  172SOL    HW1  515   1.257   2.051   1.071  0.0350 -2.3439 -0.0162
  172SOL    HW2  516   1.352   1.921   1.038  0.4709  0.7395  0.9490
  173SOL     OW  517   2.172   2.116   3.088  0.5147 -0.2601 -0.0109
  173SOL    HW1  518   2.114   2.169   3.016 -1.9200  4.1481  0.2584
  173SOL    HW2  519   2.232   2.191   0.026 -0.8410 -1.6279 -0.9643
  174SOL     OW  520   1.680   0.699   0.292 -0.2690 -0.4501 -0.1728
  174SOL    HW1  521   1.608   0.679   0.359  0.3054 -0.3850 -0.8072
  174SOL    HW2  522   1.774   0.687   0.325 -0.9179  1.0757 -0.7856
  175SOL     OW  523   0.654   1.842   1.449  0.1125  0.9927 -0.2145
  175SOL    HW1  524   0.663   1.877   1.354 -0.7573  1.1048  2.5642
  175SOL    HW2  525   0.623   1.743   1.442 -0.1153 -2.3589  4.1757
  176SOL     OW  526   0.237   0.068   0.479  0.0235 -0.3684 -0.6318
  176SOL    HW1  527   0.307   0.008   0.434 -1.0100  0.3127  1.3661
  176SOL    HW2  528   0.141   0.043   0.449 -3.6370 -0.6295  0.5321
  177SOL     OW  529   0.047   1.352   0.121  0.5214 -0.0105 -0.2871
  177SOL    HW1  530   3.079   1.320   0.180  2.6370  2.8677 -0.3106
  177SOL    HW2  531   0.088   1.437   0.164  2.1985  1.3895 -0.7908
  178SOL     OW  532   2.940   2.442   1.971 -0.1058  0.0063 -0.3360
  178SOL    HW1  533   2.849   2.460   1.932  1.0642  0.1703  2.2430
  178SOL    HW2  534   2.954   2.493   2.058 -2.3042 -0.1952 -3.3541
  179SOL     OW  535   2.066   3.060   3.029  0.5426  1.0538  0.2358
  179SOL    HW1  536   2.120   0.043   3.033  0.5479 -0.5427 -1.5523
  179SOL    HW2  537   1.975   3.075   3.068  3.4841 -1.0331 -1.2440
  180SOL     OW  538   2.355   0.494   0.599 -0.7138 -0.0419  0.1436
  180SOL    HW1  539   2.350   0.595   0.618  0.7053  2.7077  4.0870
  180SOL    HW2  540   2.279   0.466   0.539 -1.6978 -0.1322  0.3004
  181SOL     OW  541   0.090   3.003   2.611  0.7465  0.3477  0.3319
  181SOL    HW1  542   0.062   3.046   2.697  0.8783 -2.5668 -3.9335
  181SOL    HW2  543   0.007   2.971   2.562  2.8499  1.1715  1.9772
  182SOL     OW  544   2.687   2.155   2.404 -0.1635  0.1166  0.0470
  182SOL    HW1  545   2.705   2.248   2.446  0.4682  1.4686  1.1133
  182SOL    HW2  546   2.611   2.171   2.335 -0.6029  1.1078 -0.1270
  183SOL     OW  547   2.700   0.833   1.418 -0.2607  0.1328 -0.1253
  183SOL    HW1  548   2.794   0.809   1.381 -0.4814  0.4942 -0.0150
  183SOL    HW2  549   2.701   0.921   1.466  0.0020 -1.8565 -0.3566
  184SOL     OW  550   2.895   1.436   0.908  0.1865  0.0075  0.0046
  184SOL    HW1  551   2.917   1.519   0.971 -0.5176  1.9136 -1.7019
  184SOL    HW2  552   2.972   1.369   0.911  0.3364  0.6891  0.6405
  185SOL     OW  553   0.017   0.295   1.229 -0.3246 -0.1580 -0.0439
  185SOL    HW1  554   0.058   0.205   1.192  0.5485 -0.9336  0.1312
  185SOL    HW2  555   3.071   0.347   1.157 -1.0832  0.8461 -0.2850
  186SOL     OW  556   2.391   2.448   2.321  0.0069  0.4667  0.7005
  186SOL    HW1  557   2.314   2.478   2.386  3.4840 -0.7468  0.8572
  186SOL    HW2  558   2.470   2.510   2.338 -2.0910  0.5515 -1.0039
  187SOL     OW  559   0.336   1.313   0.696  0.3269 -0.0644 -0.1748
  187SOL    HW1  560   0.399   1.379   0.644  0.3907  1.2742  0.9057
  187SOL    HW2  561   0.242   1.320   0.658 -0.3983  1.9893  0.4057
  188SOL     OW  562   1.679   1.865   3.031  0.0328 -0.1853  0.1231
  188SOL    HW1  563   1.713   1.951   3.077  0.0999  0.0008 -0.3662
  188SOL    HW2  564   1.664   1.789   3.102 -0.6241 -0.8465  3.0079
  189SOL     OW  565   0.012   1.628   3.051  0.2130  0.0981  0.6595
  189SOL    HW1  566   3.077   1.537   3.016  2.4196 -3.3838 -2.3880
  189SOL    HW2  567   0.109   1.630   3.018  1.7464 -1.4398  1.7514
  190SOL     OW  568   2.243   0.500   2.803  0.5255 -0.3157  0.4010
  190SOL    HW1  569   2.219   0.558   2.722 -0.9410  1.5569 -1.9032
  190SOL    HW2  570   2.338   0.520   2.834  0.0355  1.0405 -1.1970
  191SOL     OW  571   0.888   1.337   2.185  0.4830 -0.4450 -0.0686
  191SOL    HW1  572   0.827   1.324   2.103 -0.7444 -0.5728 -1.4392
  191SOL    HW2  573   0.851   1.314   2.278 -2.0099  0.5170  2.7311
  192SOL     OW  574   1.650   1.167   2.012  0.2177 -0.5700  0.9429
  192SOL    HW1  575   1.574   1.168   1.941  0.3487  0.6795 -1.7303
  192SOL    HW2  576   1.706   1.082   1.998  2.5875 -0.5977  1.6890
  193SOL     OW  577   0.867   3.079   0.733  0.2562  0.0546 -0.3313
  193SOL    HW1  578   0.934   3.026   0.678 -0.8747  0.7136 -0.8581
  193SOL    HW2  579   0.902   0.003   0.826 -0.9806 -0.8526 -0.9304
  194SOL     OW  580   1.402   1.441   1.643  0.4240 -0.2837 -0.3864
  194SOL    HW1  581   1.340   1.409   1.570  1.8510  1.2988  2.9524
  194SOL    HW2  582   1.348   1.472   1.723  0.8568  0.4790  1.2773
  195SOL     OW  583   1.755   0.208   0.785 -0.0406  0.2437 -0.1626
  195SOL    HW1  584   1.780   0.275   0.712 -0.9195 -0.7830 -0.8107
  195SOL    HW2  585   1.817   0.212   0.871  4.1961 -0.6771  1.6447
  196SOL     OW  586   0.892   1.606   2.116 -0.3449  0.0798 -0.0146
  196SOL    HW1  587   0.863   1.622   2.021 -0.0918  3.0760  0.8758
  196SOL    HW2  588   0.922   1.510   2.138  2.9541  1.0994  1.0148
  197SOL     OW  589   0.615   0.318   2.465 -0.3685 -0.5972 -0.0661
  197SOL    HW1  590   0.666   0.330   2.554 -2.9593 -1.7335 -0.2331
  197SOL    HW2  591   0.574   0.223   2.460 -0.2275  0.7407  2.2884
  198SOL     OW  592   2.947   1.042   1.217  0.1348 -0.4203 -0.5325
  198SOL    HW1  593   2.885   1.120   1.202 -2.4317 -3.7173  1.7146
  198SOL    HW2  594   3.020   1.037   1.144  1.0062  0.2496 -1.3792
  199SOL     OW  595   0.693   2.299   1.138 -0.1894  0.1580 -0.0735
  199SOL    HW1  596   0.740   2.216   1.099 -0.1420 -1.3807 -2.0157
  199SOL    HW2  597   0.618   2.327   1.079  0.7106  0.1469 -0.1430
  200SOL     OW  598   2.944   1.950   2.689 -0.6173 -0.3986 -0.0024
  200SOL    HW1  599   2.962   2.045   2.721 -0.4431  1.9969 -1.1031
  200SOL    HW2  600   2.943   1.888   2.771  1.7540  2.0627  1.7974
  201SOL     OW  601   1.052   2.491   1.378 -0.1052  0.6940 -0.3011
  201SOL    HW1  602   1.125   2.542   1.335 -0.4061  2.1045  0.3784
  201SOL    HW2  603   1.073   2.391   1.384  1.4741 -0.3154  2.8744
  202SOL     OW  604   0.763   2.548   0.331 -0.0111  0.3478  0.2707
  202SOL    HW1  605   0.804   2.457   0.296 -0.6845 -1.0323 -2.0104
  202SOL    HW2  606   0.717   2.595   0.254 -1.0322 -0.5912 -0.4890
  203SOL     OW  607   1.986   0.111   2.445  0.3594 -0.2131 -0.4691
  203SOL    HW1  608   2.011   0.175   2.365 -1.8133  2.9284 -1.6681
  203SOL    HW2  609   1.989   0.011   2.416  1.0546 -1.9867 -1.7995
  204SOL     OW  610   0.227   1.342   1.488  0.4036  0.1100 -0.4240
  204SOL    HW1  611   0.143   1.346   1.432 -0.9018 -2.8184 -1.2096
  204SOL    HW2  612   0.308   1.309   1.433  0.9408 -1.6869 -1.1504
  205SOL     OW  613   2.375   1.421   2.406 -0.8325  0.4204 -0.0110
  205SOL    HW1  614   2.416   1.406   2.313  0.1247 -2.7383  0.7561
  205SOL    HW2  615   2.277   1.396   2.404 -1.7417 -1.0117 -0.8482
  206SOL     OW  616   0.165   2.188   2.436 -0.0547  0.0089  0.2130
  206SOL    HW1  617   0.150   2.242   2.352 -1.8121  1.0013  0.3707
  206SOL    HW2  618   0.113   2.233   2.511  1.0432  0.9402  0.5473
  207SOL     OW  619   0.622   2.815   1.841  0.1355  0.3854  0.6729
  207SOL    HW1  620   0.593   2.774   1.930 -2.1457 -0.4128 -0.5668
  207SOL    HW2  621   0.599   2.737   1.778  0.4820 -1.8072  1.8547
  208SOL     OW  622   3.059   2.690   1.407 -0.2750 -0.7683  0.4563
  208SOL    HW1  623   3.082   2.675   1.507  0.7982 -0.3694  2.1920
  208SOL    HW2  624   0.033   2.733   1.356  1.3354  0.3263 -1.8316
  209SOL     OW  625   1.165   2.626   2.307  0.6173  0.1576  0.1403
  209SOL    HW1  626   1.157   2.528   2.284 -0.5265 -1.3047  0.8046
  209SOL    HW2  627   1.245   2.641   2.367 -0.7853 -0.1827 -0.3879
  210SOL     OW  628   2.871   1.271   2.224  0.1342 -0.0920  0.3825
  210SOL    HW1  629   2.839   1.173   2.221  1.4346  1.1199  2.2691
  210SOL    HW2  630   2.838   1.322   2.305  1.4121  0.6444 -0.4443
  211SOL     OW  631   1.424   0.002   2.137 -0.4836  0.1717 -0.2083
  211SOL    HW1  632   1.433   3.029   2.073 -0.9845  0.0183  1.9197
  211SOL    HW2  633   1.327   0.035   2.142 -1.2650 -0.4648  0.0576
  212SOL     OW  634   1.717   2.694   1.566 -0.0131  0.6637  0.1837
  212SOL    HW1  635   1.763   2.754   1.635  1.8345 -2.0453 -0.0384
  212SOL    HW2  636   1.784   2.655   1.499 -2.8695  0.7298  1.1753
  213SOL     OW  637   2.383   0.699   1.721 -0.0625 -0.3391 -0.1696
  213SOL    HW1  638   2.326   0.665   1.642  0.5223  0.1638  1.3539
  213SOL    HW2  639   2.479   0.681   1.695 -2.6192 -2.3729  0.3833
  214SOL     OW  640   0.773   2.119   0.899  0.1765  0.3230  0.1263
  214SOL    HW1  641   0.860   2.177   0.893 -1.3038 -2.3740  1.3637
  214SOL    HW2  642   0.693   2.161   0.852  0.9645 -1.7470 -1.7066
  215SOL     OW  643   2.423   1.914   0.610 -0.0014  0.5178  0.4432
  215SOL    HW1  644   2.526   1.933   0.609  0.3113  2.5391  1.1810
  215SOL    HW2  645   2.367   1.994   0.575 -1.7006  1.6189  2.1044
  216SOL     OW  646   2.821   0.814   1.955  0.1345  0.1338  0.5634
  216SOL    HW1  647   2.763   0.899   1.934 -2.6030 -1.1606 -0.2621
  216SOL    HW2  648   2.758   0.735   1.961  0.2903 -0.9687  1.1937
  217SOL     OW  649   2.144   0.464   1.272 -0.6197  0.2921 -0.0430
  217SOL    HW1  650   2.197   0.437   1.194 -1.0091  3.9445  1.2784
  217SOL    HW2  651   2.051   0.423   1.266  0.9440  1.0806  0.9660
  218SOL     OW  652   1.889   2.234   1.198  0.2991 -0.0567  0.0656
  218SOL    HW1  653   1.858   2.304   1.130  0.4358  0.3518  0.1263
  218SOL    HW2  654   1.809   2.211   1.263 -4.2901 -0.4177  2.3782
  219SOL     OW  655   1.822   2.311   2.996 -0.2557 -0.4063 -0.0822
  219SOL    HW1  656   1.721   2.329   2.984 -0.0735 -0.0653  0.7395
  219SOL    HW2  657   1.859   2.336   3.086 -2.1213 -1.7214 -0.6034
  220SOL     OW  658   1.696   2.589   0.112  0.2318  0.0475 -0.3061
  220SOL    HW1  659   1.658   2.613   0.207 -1.5721 -2.9089 -1.7213
  220SOL    HW2  660   1.760   2.506   0.117  1.6007  1.4230 -1.4852
  221SOL     OW  661   0.172   2.549   1.834 -0.3394 -0.1744 -0.2012
  221SOL    HW1  662   0.171   2.453   1.875  0.5738 -0.3222 -1.2229
  221SOL    HW2  663   0.175   2.619   1.911  1.0882 -0.1583  3.0442
  222SOL     OW  664   1.814   2.460   1.018 -0.3348 -0.0168 -0.1641
  222SOL    HW1  665   1.894   2.518   1.053  1.6264  3.8108 -1.4362
  222SOL    HW2  666   1.798   2.449   0.915 -1.8286 -0.6739 -1.7454
  223SOL     OW  667   1.396   2.395   1.701 -0.0906  0.3057 -0.0611
  223SOL    HW1  668   1.499   2.418   1.690  2.8633  1.4038 -1.6284
  223SOL    HW2  669   1.384   2.295   1.713 -0.7847 -1.4894 -0.4713
  224SOL     OW  670   2.675   2.300   1.429  0.2552  0.3165  0.2842
  224SOL    HW1  671   2.750   2.352   1.385  0.2429 -0.4078  2.1383
  224SOL    HW2  672   2.694   2.272   1.524  0.1472  2.2894 -1.6140
  225SOL     OW  673   2.184   2.102   0.615 -0.2320 -0.7585 -0.5310
  225SOL    HW1  674   2.097   2.091   0.563  2.7400 -0.7522  0.9354
  225SOL    HW2  675   2.171   2.114   0.715  2.9056 -4.2214 -0.2565
  226SOL     OW  676   1.396   2.571   0.424 -0.0538  0.0032  0.5855
  226SOL    HW1  677   1.427   2.475   0.435 -1.7462  0.7017 -0.3889
  226SOL    HW2  678   1.314   2.588   0.486 -1.0387  0.2723 -1.0451
  227SOL     OW  679   2.166   1.075   0.744  0.3372  0.7428  0.0028
  227SOL    HW1  680   2.081   1.062   0.796  5.4181  0.3372  0.1221
  227SOL    HW2  681   2.144   1.118   0.655  2.5161  2.4395 -1.1208
  228SOL     OW  682   1.496   0.265   3.047  0.1470  0.6104  0.5273
  228SOL    HW1  683   1.575   0.323   3.026 -2.1559  0.3937 -0.3421
  228SOL    HW2  684   1.445   0.251   2.961 -1.8632 -1.5559 -0.8765
  229SOL     OW  685   2.634   1.095   2.527 -0.1902 -0.7335 -0.3202
  229SOL    HW1  686   2.668   1.019   2.588 -0.4976  1.0459 -0.3551
  229SOL    HW2  687   2.716   1.146   2.495  1.7220  0.5752  0.3005
  230SOL     OW  688   0.245   1.323   0.958 -0.0437  0.1070 -0.0853
  230SOL    HW1  689   0.304   1.272   1.022 -1.4938 -1.9431 -0.4158
  230SOL    HW2  690   0.273   1.312   0.863  0.0093 -1.6444  0.1097
  231SOL     OW  691   2.430   0.198   2.553 -0.4240 -0.2697  0.4861
  231SOL    HW1  692   2.396   0.295   2.535 -0.6348 -1.4573 -2.6816
  231SOL    HW2  693   2.529   0.192   2.528  1.8645  1.0543 -0.8075
  232SOL     OW  694   2.920   2.218   0.433 -0.2450 -0.4943  0.1872
  232SOL    HW1  695   2.946   2.168   0.521  1.1258  0.6018  0.3752
  232SOL    HW2  696   2.880   2.313   0.447  1.9262 -0.1345  2.8131
  233SOL     OW  697   1.532   2.429   2.367 -0.2194  0.3368 -0.1316
  233SOL    HW1  698   1.473   2.509   2.386  0.2606  0.8503 -2.6242
  233SOL    HW2  699   1.557   2.427   2.268  1.4188 -1.6287 -0.0954
  234SOL     OW  700   1.383   1.668   1.300 -0.4764 -0.0586 -0.2972
  234SOL    HW1  701   1.389   1.721   1.390 -3.3028 -0.9536  2.6734
  234SOL    HW2  702   1.400   1.729   1.220 -0.8081 -0.6584  2.5722
  235SOL     OW  703   0.990   1.763   1.509 -0.4040 -0.1978  0.1729
  235SOL    HW1  704   0.918   1.796   1.578 -0.1774  4.1923  0.0899
  235SOL    HW2  705   1.053   1.700   1.559  2.2545  0.6749  2.7282
  236SOL     OW  706   1.113   2.946   2.853  0.3862 -0.6403  0.0987
  236SOL    HW1  707   1.124   2.867   2.912 -0.1698  3.5522 -1.2566
  236SOL    HW2  708   1.177   2.940   2.769 -1.4228  0.3255 -0.3994
  237SOL     OW  709   0.896   0.127   1.580  0.0447 -0.6703 -0.7381
  237SOL    HW1  710   0.907   0.078   1.498  0.1236  1.9989  1.2963
  237SOL    HW2  711   0.932   0.078   1.662  0.6662 -0.0395 -1.9326
  238SOL     OW  712   1.395   0.923   0.247 -0.4646  0.2092  0.6854
  238SOL    HW1  713   1.314   0.892   0.193 -1.2664  0.0786  0.6564
  238SOL    HW2  714   1.440   0.841   0.289 -3.5837 -3.4501  0.3322
  239SOL     OW  715   2.524   0.859   2.921  0.6299 -0.2206 -0.2900
  239SOL    HW1  716   2.424   0.885   2.904 -1.5458  1.3702 -0.7125
  239SOL    HW2  717   2.553   0.897   3.010 -0.2201 -2.0098 -0.2618
  240SOL     OW  718   2.563   2.229   0.770  0.4083 -0.2184  0.3617
  240SOL    HW1  719   2.526   2.163   0.837 -1.7337  0.3781 -2.0772
  240SOL    HW2  720   2.591   2.166   0.697  0.0440  2.9240  5.0738
  241SOL     OW  721   0.899   1.389   1.007  0.1701  0.4731  0.0455
  241SOL    HW1  722   0.957   1.334   0.944  1.0813 -0.2319 -0.0021
  241SOL    HW2  723   0.807   1.401   0.965  0.2813 -3.2828 -0.7518
  242SOL     OW  724   0.829   0.566   0.877 -0.1360 -0.0136 -0.3452
  242SOL    HW1  725   0.828   0.578   0.776  0.6799  3.1245 -2.1826
  242SOL    HW2  726   0.783   0.474   0.896  0.3045 -1.7695 -2.2796
  243SOL     OW  727   0.443   0.422   1.161 -0.5046  0.2043  0.4784
  243SOL    HW1  728   0.349   0.451   1.195  0.0372 -0.8898 -0.2165
  243SOL    HW2  729   0.504   0.502   1.132  2.8778  1.7657  0.9103
  244SOL     OW  730   1.085   0.125   0.492 -0.1231  0.0534 -0.2343
  244SOL    HW1  731   1.061   0.030   0.532 -1.8635 -2.7937 -0.0702
  244SOL    HW2  732   1.027   0.146   0.409 -1.0870 -0.2341 -0.1463
  245SOL     OW  733   1.939   0.636   0.381  1.5034  0.3849  0.3956
  245SOL    HW1  734   1.970   0.659   0.476  0.1785 -0.3866 -1.5431
  245SOL    HW2  735   2.006   0.686   0.323 -1.2466 -0.1631  1.0720
  246SOL     OW  736   0.437   0.283   1.823 -0.7736 -0.1823  0.2517
  246SOL    HW1  737   0.496   0.283   1.905  2.3153 -0.2811 -0.9947
  246SOL    HW2  738   0.475   0.333   1.735  3.1512  2.2366 -1.6112
  247SOL     OW  739   1.021   0.071   1.818 -0.1810 -1.0549 -0.0424
  247SOL    HW1  740   1.113   0.113   1.798 -0.6706  2.1104 -3.4336
  247SOL    HW2  741   1.021   0.000   1.899  1.4393 -1.5436  2.1097
  248SOL     OW  742   0.546   1.675   1.961 -0.3174 -0.0609 -0.3495
  248SOL    HW1  743   0.633   1.653   1.915 -2.2447 -2.5115 -2.3814
  248SOL    HW2  744   0.558   1.682   2.064  1.1590  1.1409  2.3093
  249SOL     OW  745   0.433   2.586   0.248 -0.1195  0.3981  0.4289
  249SOL    HW1  746   0.356   2.579   0.187  1.3020 -0.4229 -1.7558
  249SOL    HW2  747   0.414   2.576   0.345  0.5470  0.0651 -2.4720
  250SOL     OW  748   0.931   0.343   1.971 -0.0139  0.2569  0.1594
  250SOL    HW1  749   0.830   0.324   1.974 -1.0356  0.6075 -2.3208
  250SOL    HW2  750   0.978   0.309   1.881 -0.2180  0.9691 -0.6796
  251SOL     OW  751   2.702   1.974   1.471  0.1104  1.0609 -0.2659
  251SOL    HW1  752   2.657   1.894   1.512  0.5877  0.3308  0.9499
  251SOL    HW2  753   2.643   2.023   1.406 -0.0299  1.1898  2.4515
  252SOL     OW  754   1.678   0.173   1.785 -0.1098  0.3581  0.3651
  252SOL    HW1  755   1.645   0.179   1.881  0.6011  0.8815  1.1487
  252SOL    HW2  756   1.639   0.092   1.736 -0.0330 -2.2523  2.9528
  253SOL     OW  757   2.210   1.822   2.203  0.2235  0.5426  0.2240
  253SOL    HW1  758   2.182   1.890   2.131 -0.3048  0.0068 -0.5020
  253SOL    HW2  759   2.232   1.864   2.291  0.7643  1.9904 -1.0450
  254SOL     OW  760   0.588   1.505   1.288  0.8949  0.3363  0.5732
  254SOL    HW1  761   0.662   1.513   1.354 -2.2731  0.0103 -1.0552
  254SOL    HW2  762   0.629   1.479   1.196  0.3004  2.0446 -0.4027
  255SOL     OW  763   0.462   2.983   1.716  0.9410  0.3925  0.4459
  255SOL    HW1  764   0.514   2.916   1.773  1.8555 -0.4640  3.2304
  255SOL    HW2  765   0.370   2.942   1.687 -1.8163 -2.8226 -1.0272
  256SOL     OW  766   0.185   2.814   0.679 -0.3824 -0.0339 -0.7383
  256SOL    HW1  767   0.149   2.719   0.707 -2.5197 -1.1883 -0.8021
  256SOL    HW2  768   0.285   2.802   0.676  0.1758  2.2138 -0.1696
  257SOL     OW  769   0.986   2.366   2.639 -0.2940  0.2589 -0.3623
  257SOL    HW1  770   1.012   2.290   2.702 -0.5634 -0.2946 -1.9722
  257SOL    HW2  771   0.921   2.326   2.569 -3.2175  2.1470 -0.5121
  258SOL     OW  772   1.408   2.118   1.914 -0.0290 -0.1476  0.3152
  258SOL    HW1  773   1.359   2.047   1.967  0.3547  2.0664 -2.3899
  258SOL    HW2  774   1.382   2.108   1.813  1.3401  0.8672 -1.5095
  259SOL     OW  775   1.004   1.075   2.131  0.5417 -0.0117 -0.0404
  259SOL    HW1  776   0.922   1.008   2.126 -5.4439 -1.2259 -1.6227
  259SOL    HW2  777   0.980   1.161   2.186 -0.2707  2.0288 -0.7420
  260SOL     OW  778   2.609   0.489   2.435  0.1217 -0.2787  0.2027
  260SOL    HW1  779   2.504   0.476   2.422 -3.4213 -0.8400 -0.5706
  260SOL    HW2  780   2.659   0.402   2.420 -0.7038  1.3601 -0.3572
  261SOL     OW  781   0.764   1.243   0.763 -0.1994  0.2183  0.0461
  261SOL    HW1  782   0.868   1.234   0.765 -0.1655 -2.1602 -0.6765
  261SOL    HW2  783   0.737   1.235   0.665 -0.1189 -0.0786  3.1602
  262SOL     OW  784   2.408   2.160   2.710 -0.1493 -0.6423  0.3719
  262SOL    HW1  785   2.332   2.092   2.701 -1.0725  1.1346  1.1253
  262SOL    HW2  786   2.481   2.116   2.765  0.8006  0.4648 -0.6591
  263SOL     OW  787   0.709   2.718   1.097  0.1409 -0.0177  0.2116
  263SOL    HW1  788   0.778   2.789   1.078 -1.2938 -0.0812 -1.9566
  263SOL    HW2  789   0.742   2.648   1.160 -1.2941 -1.2684  0.5686
  264SOL     OW  790   2.831   2.248   0.166 -0.0653  0.1623 -0.5033
  264SOL    HW1  791   2.903   2.234   0.240  0.2194 -1.3117  2.1285
  264SOL    HW2  792   2.837   2.172   0.096  0.2683  2.0461  0.7441
  265SOL     OW  793   1.879   1.051   2.638  0.7092  0.5684 -0.1297
  265SOL    HW1  794   1.872   1.104   2.552  2.1479  0.9829 -2.2936
  265SOL    HW2  795   1.967   1.069   2.690  0.2758  1.3107  1.2107
  266SOL     OW  796   1.301   1.953   2.115 -0.0937 -0.1689  0.0783
  266SOL    HW1  797   1.294   2.031   2.180 -1.2359 -1.1971  0.5289
  266SOL    HW2  798   1.217   1.891   2.116 -2.3025 -1.1574 -0.8889
  267SOL     OW  799   2.355   0.980   2.588  0.4291 -0.1752 -0.1414
  267SOL    HW1  800   2.371   1.001   2.490 -0.3612  3.6264 -0.3410
  267SOL    HW2  801   2.418   1.041   2.640 -1.0871 -0.8496 -0.9302
  268SOL     OW  802   0.949   1.172   2.851 -0.0260 -0.2039 -0.4614
  268SOL    HW1  803   0.880   1.228   2.896 -0.3773 -0.3302  1.7560
  268SOL    HW2  804   1.003   1.130   2.924  1.3119  1.3066 -1.9983
  269SOL     OW  805   0.000   1.863   1.930 -0.6960  0.1640 -0.8020
  269SOL    HW1  806   0.026   1.867   1.832 -1.7346 -0.0067  1.3983
  269SOL    HW2  807   3.003   1.844   1.942 -1.4876 -3.0326 -0.8097
  270SOL     OW  808   0.113   1.975   0.067 -0.6555 -0.5932 -0.1968
  270SOL    HW1  809   0.089   1.918   0.149  0.5388  1.0477  1.8821
  270SOL    HW2  810   0.030   2.020   0.027 -2.0496 -1.9251 -1.6481
  271SOL     OW  811   0.002   0.388   0.250  0.5921 -0.1180  0.0044
  271SOL    HW1  812   0.079   0.436   0.300 -0.2051  0.3761  2.8671
  271SOL    HW2  813   3.031   0.457   0.237  1.6308  0.2809  0.1631
  272SOL     OW  814   3.093   0.004   0.385 -0.7242 -0.0968  0.1357
  272SOL    HW1  815   3.045   0.008   0.298  0.4719  0.7356  1.1843
  272SOL    HW2  816   3.028   3.091   0.461  0.9779 -2.6928  2.0189
  273SOL     OW  817   0.375   3.022   2.115  0.3696  0.0818  0.2568
  273SOL    HW1  818   0.296   2.990   2.174 -0.6359 -1.4972  1.0202
  273SOL    HW2  819   0.351   3.080   2.037 -0.2413 -1.2063  1.6182
  274SOL     OW  820   0.196   0.527   1.265 -0.2568  0.7445  0.5082
  274SOL    HW1  821   0.136   0.441   1.268 -2.9492  1.0246 -1.1251
  274SOL    HW2  822   0.224   0.559   1.358  2.0110 -0.0780  0.8074
  275SOL     OW  823   1.032   1.618   1.084 -0.2515  0.4081 -0.1391
  275SOL    HW1  824   1.098   1.588   1.153  2.1574  0.6094  0.3702
  275SOL    HW2  825   0.966   1.539   1.070 -0.9212 -2.6721  0.7457
  276SOL     OW  826   0.462   1.410   1.872  0.1125  0.4662  0.2605
  276SOL    HW1  827   0.489   1.487   1.927 -1.2584 -0.9832 -3.0673
  276SOL    HW2  828   0.375   1.370   1.907 -0.8118 -1.9915  1.2895
  277SOL     OW  829   1.077   1.934   1.903 -0.0262  0.0022 -0.0538
  277SOL    HW1  830   1.006   1.964   1.970  0.8730  1.9482 -0.0966
  277SOL    HW2  831   1.099   2.008   1.837  0.1595 -1.2665 -1.4301
  278SOL     OW  832   2.307   2.632   2.131  0.2886  0.3169  0.2953
  278SOL    HW1  833   2.219   2.665   2.173  1.4022  1.7574  0.2331
  278SOL    HW2  834   2.346   2.547   2.171 -0.6532 -1.0979  2.2477
  279SOL     OW  835   1.491   1.580   2.766  0.1994 -0.1605  0.1531
  279SOL    HW1  836   1.530   1.488   2.760 -1.2637  2.1179 -1.8878
  279SOL    HW2  837   1.557   1.651   2.735  2.4037 -0.6131 -0.3732
  280SOL     OW  838   1.460   0.409   0.418  0.2115 -0.1392 -0.3048
  280SOL    HW1  839   1.521   0.394   0.497  0.4264  0.0242  1.8476
  280SOL    HW2  840   1.445   0.511   0.406 -0.0011  4.2846 -0.7135
  281SOL     OW  841   0.542   0.466   1.536  0.2736 -0.3456  0.0704
  281SOL    HW1  842   0.442   0.483   1.528 -0.0845  0.4862  1.6049
  281SOL    HW2  843   0.583   0.531   1.606  2.1041  1.8202  0.1157
  282SOL     OW  844   0.151   3.071   0.712 -0.3151 -0.5665 -0.2061
  282SOL    HW1  845   0.175   0.020   0.628 -1.8847 -0.6823 -1.0878
  282SOL    HW2  846   0.178   2.975   0.704  0.8931 -0.0848 -0.4245
  283SOL     OW  847   1.369   2.047   1.372 -0.0165  0.3125 -0.2800
  283SOL    HW1  848   1.328   2.033   1.278 -0.3515 -2.5294  0.1878
  283SOL    HW2  849   1.369   1.961   1.425 -0.6233 -0.8923 -0.1423
  284SOL     OW  850   2.388   2.754   1.228  0.5201  0.2514 -0.0045
  284SOL    HW1  851   2.483   2.734   1.259 -2.5237 -2.4677  0.2998
  284SOL    HW2  852   2.372   2.694   1.145  1.7067 -2.8607 -2.5331
  285SOL     OW  853   0.514   2.227   0.807  0.3274  0.1869 -0.0056
  285SOL    HW1  854   0.457   2.293   0.866  0.4078 -1.8325 -0.6298
  285SOL    HW2  855   0.514   2.257   0.709  1.0063  1.5149  1.0303
  286SOL     OW  856   3.095   2.686   1.688  0.1318  0.1349 -0.3173
  286SOL    HW1  857   3.055   2.750   1.758 -1.4658 -0.7927 -0.0485
  286SOL    HW2  858   0.050   2.614   1.731  1.2025  1.1060  0.5950
  287SOL     OW  859   0.524   1.198   0.878  0.2042  0.4631  0.4776
  287SOL    HW1  860   0.611   1.210   0.824  0.7491  2.1170 -2.3984
  287SOL    HW2  861   0.444   1.232   0.823  0.5489 -0.7458  1.6347
  288SOL     OW  862   1.098   1.886   2.579  0.1130  0.2496 -0.2779
  288SOL    HW1  863   1.190   1.849   2.567 -2.4355  2.8058 -0.6467
  288SOL    HW2  864   1.068   1.943   2.497  0.4014  1.5355  0.0407
  289SOL     OW  865   2.553   1.549   2.762 -0.1820 -0.6134 -0.2487
  289SOL    HW1  866   2.558   1.630   2.823 -0.0665 -3.2350  0.0978
  289SOL    HW2  867   2.487   1.571   2.689  1.0420  0.6408  0.3082
  290SOL     OW  868   1.202   1.219   1.031 -0.0007 -0.0401 -1.1654
  290SOL    HW1  869   1.204   1.126   1.077  0.9146 -0.5832 -0.4681
  290SOL    HW2  870   1.245   1.296   1.091  0.0578  1.8408  1.7836
  291SOL     OW  871   1.140   1.052   3.069  0.1024  0.1251  0.6420
  291SOL    HW1  872   1.195   1.131   3.035  2.4773  0.8531  2.6555
  291SOL    HW2  873   1.153   0.963   3.018 -0.5274 -0.9526 -2.7533
  292SOL     OW  874   1.613   1.677   0.114 -0.6522 -0.1919 -0.2584
  292SOL    HW1  875   1.632   1.582   0.093 -1.5711  1.2701 -0.1661
  292SOL    HW2  876   1.510   1.685   0.121 -0.6071 -1.7627  0.6731
  293SOL     OW  877   1.650   0.056   1.078 -0.0797  0.3553  0.0527
  293SOL    HW1  878   1.604   0.061   1.171 -2.5606  2.8857 -1.2275
  293SOL    HW2  879   1.583   0.084   1.009 -1.0286  0.7248 -0.5138
  294SOL     OW  880   2.171   1.045   0.453  0.0284 -0.9226  0.5263
  294SOL    HW1  881   2.259   0.991   0.450  2.4791  1.2867  0.2809
  294SOL    HW2  882   2.172   1.128   0.393  0.9835 -0.2416  0.9234
  295SOL     OW  883   1.944   2.014   2.664 -0.0400 -1.0937  0.4389
  295SOL    HW1  884   1.890   1.931   2.683 -0.9594 -2.2612  0.4420
  295SOL    HW2  885   1.927   2.048   2.569  1.2148 -1.1136  0.5771
  296SOL     OW  886   1.310   1.292   1.379  0.2860  0.0922  0.2965
  296SOL    HW1  887   1.256   1.375   1.351 -1.7418  2.6406 -0.7282
  296SOL    HW2  888   1.261   1.208   1.347  0.3692  1.0101 -0.5377
  297SOL     OW  889   0.054   0.806   2.526 -0.2502 -0.1602 -0.4886
  297SOL    HW1  890   0.152   0.775   2.536 -0.2496  0.9020  1.3871
  297SOL    HW2  891   0.006   0.832   2.615  2.9309 -0.8786  2.2689
  298SOL     OW  892   1.501   2.294   1.316 -0.2350 -0.2183  0.0729
  298SOL    HW1  893   1.437   2.217   1.341  1.1180 -2.0033  0.0392
  298SOL    HW2  894   1.562   2.322   1.395  1.1408 -1.5244 -0.1615
  299SOL     OW  895   1.071   0.619   2.628 -0.2377 -0.1221  0.2027
  299SOL    HW1  896   1.111   0.651   2.715  0.0219  0.7787 -1.9230
  299SOL    HW2  897   1.049   0.522   2.635 -1.3701 -1.4604  0.9240
  300SOL     OW  898   2.324   1.607   0.284 -0.2106 -0.3819 -0.2280
  300SOL    HW1  899   2.422   1.609   0.308 -1.5807 -2.0567 -0.8539
  300SOL    HW2  900   2.305   1.655   0.198  1.6096 -1.9491  2.5902
  301SOL     OW  901   2.146   0.250   2.842  0.3015 -0.0320 -0.0946
  301SOL    HW1  902   2.176   0.349   2.837  0.3970 -0.9500  1.4231
  301SOL    HW2  903   2.177   0.210   2.928 -0.7513 -1.0493 -2.1098
  302SOL     OW  904   2.697   1.953   2.593 -0.0291 -0.0122 -0.3721
  302SOL    HW1  905   2.799   1.937   2.607  2.0386  0.7283 -0.6031
  302SOL    HW2  906   2.691   2.040   2.538  0.7326  0.3707 -2.3645
  303SOL     OW  907   0.461   2.534   2.245 -0.2488 -0.4674  0.1669
  303SOL    HW1  908   0.547   2.577   2.283 -0.6309 -0.2388 -2.7270
  303SOL    HW2  909   0.459   2.432   2.251  0.3342 -2.7789  1.3088
  304SOL     OW  910   2.800   1.425   1.456  0.5275 -0.2841  0.4121
  304SOL    HW1  911   2.883   1.484   1.458 -1.4441 -1.3431  1.8087
  304SOL    HW2  912   2.790   1.372   1.367  0.7640 -3.4011  0.7361
  305SOL     OW  913   0.437   0.367   2.135  0.0094  0.3518 -0.3417
  305SOL    HW1  914   0.517   0.344   2.085 -2.3679 -1.8211  0.7635
  305SOL    HW2  915   0.398   0.284   2.176 -1.8145 -2.8091 -2.7794
  306SOL     OW  916   1.289   1.538   0.634  0.1363 -0.8203  0.0103
  306SOL    HW1  917   1.258   1.442   0.639 -0.1636  0.0596 -0.0358
  306SOL    HW2  918   1.362   1.550   0.563 -0.2759 -1.5093 -1.2917
  307SOL     OW  919   2.957   0.093   1.007 -0.2837 -0.1043  0.3525
  307SOL    HW1  920   2.908   0.117   0.919  3.3210 -5.1159 -1.4128
  307SOL    HW2  921   3.057   0.079   0.990 -0.1499 -2.9856 -1.7106
  308SOL     OW  922   3.027   1.315   2.617  0.3910 -0.2023  0.5918
  308SOL    HW1  923   2.936   1.364   2.640  0.6586  0.3644 -0.6608
  308SOL    HW2  924   3.001   1.241   2.548  1.0562 -1.2323  0.4185
  309SOL     OW  925   2.978   1.879   2.431 -0.0189 -0.1378 -0.2495
  309SOL    HW1  926   2.956   1.782   2.420 -0.9354  2.3188 -0.8991
  309SOL    HW2  927   2.967   1.910   2.527 -0.1384 -0.7671  0.9707
  310SOL     OW  928   2.213   0.431   0.144  0.2182 -0.5194 -0.2632
  310SOL    HW1  929   2.187   0.498   0.214  1.1557  1.0261 -3.7472
  310SOL    HW2  930   2.135   0.371   0.117  1.2058  3.0031  1.0178
  311SOL     OW  931   2.083   1.116   2.880  0.3613 -0.5613 -0.4082
  311SOL    HW1  932   2.108   1.215   2.890  0.3033  4.3419 -0.9616
  311SOL    HW2  933   2.001   1.094   2.937  1.3499  0.7030 -0.0678
  312SOL     OW  934   1.262   1.528   1.855  0.0179 -0.3409  0.2558
  312SOL    HW1  935   1.318   1.599   1.901 -1.5494 -1.5338  0.1724
  312SOL    HW2  936   1.212   1.466   1.923  1.3693  0.5627 -0.2762
  313SOL     OW  937   0.007   0.702   0.163 -0.0415 -0.2327  0.0442
  313SOL    HW1  938   0.082   0.698   0.090  0.0873  0.5578 -0.3259
  313SOL    HW2  939   3.019   0.666   0.131 -2.1466 -0.0568 -0.1422
  314SOL     OW  940   0.259   1.949   1.431  0.2594 -0.1093  0.9488
  314SOL    HW1  941   0.317   1.985   1.508  0.5092 -0.0287  2.9317
  314SOL    HW2  942   0.222   1.850   1.434 -2.0468 -2.1393 -1.1015
  315SOL     OW  943   1.142   1.534   1.355 -0.3862  0.4328 -0.5877
  315SOL    HW1  944   1.137   1.547   1.455 -0.8596  2.2155  0.5658
  315SOL    HW2  945   1.219   1.593   1.318  1.9499  3.5752  2.0212
  316SOL     OW  946   0.193   2.344   0.672 -0.9386 -0.6700 -0.4962
  316SOL    HW1  947   0.181   2.442   0.698 -3.1752  1.7167  1.7758
  316SOL    HW2  948   0.153   2.316   0.585 -1.0031  0.1431 -0.1096
  317SOL     OW  949   2.579   0.039   1.274 -0.4456  0.1701  0.1452
  317SOL    HW1  950   2.623   0.081   1.355 -0.7765  1.6741 -0.3030
  317SOL    HW2  951   2.646   3.082   1.224 -0.5885 -1.4185  1.3254
  318SOL     OW  952   1.271   2.892   0.142  0.4675 -0.3930  0.2949
  318SOL    HW1  953   1.319   2.859   0.057 -2.1812 -0.8340 -3.1716
  318SOL    HW2  954   1.188   2.953   0.124 -0.9935 -0.2985 -1.2431
  319SOL     OW  955   1.663   0.449   2.961  0.0919  0.0260  0.2740
  319SOL    HW1  956   1.698   0.480   2.868  1.4907 -0.9667 -0.6474
  319SOL    HW2  957   1.619   0.525   3.013 -0.8965 -1.0910 -1.9121
  320SOL     OW  958   2.921   2.056   1.758 -0.2709 -0.4148 -0.1990
  320SOL    HW1  959   2.874   1.991   1.823 -0.9354 -0.4702 -1.8611
  320SOL    HW2  960   2.999   2.010   1.704  2.2370  0.4344  0.4691
  321SOL     OW  961   0.336   2.447   2.889  0.1304  0.1207  0.0026
  321SOL    HW1  962   0.255   2.428   2.948 -0.3433 -3.1517 -1.4063
  321SOL    HW2  963   0.410   2.382   2.916  1.5718 -1.9706 -0.8901
  322SOL     OW  964   2.633   0.742   2.272 -0.3925 -0.8061  0.2746
  322SOL    HW1  965   2.567   0.799   2.225  2.5776  0.4454  2.3528
  322SOL    HW2  966   2.577   0.668   2.318 -0.1636  2.2200 -1.8058
  323SOL     OW  967   1.995   1.293   0.360  0.0972  0.0806  0.5213
  323SOL    HW1  968   1.976   1.214   0.300  0.0563 -1.1344  1.0415
  323SOL    HW2  969   1.946   1.288   0.449  1.7974 -0.9022 -0.5656
  324SOL     OW  970   0.107   0.290   1.523  0.2863  0.4289  0.0179
  324SOL    HW1  971   0.115   0.227   1.598  0.1473  0.4923 -3.9974
  324SOL    HW2  972   0.128   0.245   1.434 -0.2215  0.4892  0.1320
  325SOL     OW  973   2.823   2.998   1.528  0.0897 -1.0339  0.3084
  325SOL    HW1  974   2.903   3.041   1.477  4.0613  0.7743 -1.8733
  325SOL    HW2  975   2.758   3.074   1.553 -0.4731  1.8682 -1.1969
  326SOL     OW  976   1.621   2.715   0.358  0.1058  0.4956 -0.2099
  326SOL    HW1  977   1.536   2.656   0.372 -0.6332  1.6442  0.2925
  326SOL    HW2  978   1.671   2.711   0.449  1.1956  0.2140  0.1692
  327SOL     OW  979   1.746   2.179   0.354 -0.0098  0.1888  0.2469
  327SOL    HW1  980   1.821   2.156   0.421  0.1170  1.5696 -0.9230
  327SOL    HW2  981   1.734   2.104   0.288  0.1561  2.0530 -0.8514
  328SOL     OW  982   3.066   2.269   1.788 -0.1907 -0.0371 -0.2109
  328SOL    HW1  983   3.007   2.186   1.778  2.4822 -0.5997 -2.0809
  328SOL    HW2  984   3.023   2.334   1.853 -0.8812 -2.6106 -0.5351
  329SOL     OW  985   0.086   2.315   1.257 -0.2909  0.6603 -0.4459
  329SOL    HW1  986   0.016   2.346   1.327  0.3398  0.5014  2.7270
  329SOL    HW2  987   0.069   2.216   1.218  2.0050 -1.6922  1.7774
  330SOL     OW  988   2.264   0.662   2.550 -0.0467 -0.0225 -0.0444
  330SOL    HW1  989   2.167   0.673   2.521  1.1889  0.3117 -3.2298
  330SOL    HW2  990   2.309   0.752   2.543  1.6684 -0.3515  0.1003
  331SOL     OW  991   2.464   1.350   0.531  0.1359 -0.1117  0.3426
  331SOL    HW1  992   2.397   1.365   0.455  1.5589 -1.6998  0.0831
  331SOL    HW2  993   2.530   1.424   0.538 -0.3818 -0.9919 -1.8592
  332SOL     OW  994   0.165   2.765   1.239 -0.1549  0.0358 -0.2027
  332SOL    HW1  995   0.154   2.812   1.152 -3.8407  0.6422 -0.2902
  332SOL    HW2  996   0.237   2.817   1.289 -0.4995 -0.3545  1.3864
  333SOL     OW  997   0.077   1.853   2.244 -0.3227  0.5698 -0.7892
  333SOL    HW1  998   0.106   1.926   2.183 -1.3699  0.3051 -0.9145
  333SOL    HW2  999   0.010   1.880   2.318  0.0789  2.8562  0.6857
  334SOL     OW 1000   0.178   0.630   1.021 -0.1348 -0.4639 -0.2326
  334SOL    HW1 1001   0.154   0.553   0.964  1.0301  2.7883  0.1876
  334SOL    HW2 1002   0.183   0.608   1.121  0.9947  1.0376  2.4043
  335SOL     OW 1003   0.084   1.582   1.924  0.4048 -0.4404  0.1695
  335SOL    HW1 1004   0.050   1.667   1.972  1.5417  1.6305 -0.6496
  335SOL    HW2 1005   0.051   1.499   1.973  0.9432  0.4462 -0.1339
  336SOL     OW 1006   2.112   2.729   2.319  0.4483 -0.5868  0.4880
  336SOL    HW1 1007   2.115   2.650   2.383 -0.0891  0.3416  0.3344
  336SOL    HW2 1008   2.059   2.809   2.350  0.3826  1.6722 -0.1593
  337SOL     OW 1009   0.905   0.753   1.279  0.1983 -0.0394 -0.3921
  337SOL    HW1 1010   0.807   0.742   1.252 -0.6483 -1.8213 -0.8127
  337SOL    HW2 1011   0.935   0.850   1.253  1.3835  0.0988 -4.0042
  338SOL     OW 1012   1.549   2.211   1.056 -0.0076 -0.0414 -0.2062
  338SOL    HW1 1013   1.526   2.255   1.146  2.6981 -0.6933 -0.9625
  338SOL    HW2 1014   1.489   2.132   1.041  0.5559  1.0760  0.2137
  339SOL     OW 1015   0.064   2.027   1.259  0.4716  0.3363  0.3451
  339SOL    HW1 1016   0.147   2.006   1.316  0.2306  1.2387  0.4519
  339SOL    HW2 1017   3.086   2.031   1.321  1.7690  1.0732 -1.4696
  340SOL     OW 1018   0.769   0.256   2.257  0.2328  0.2591 -0.5307
  340SOL    HW1 1019   0.837   0.177   2.277  1.4993 -1.6551  2.0463
  340SOL    HW2 1020   0.723   0.281   2.343  2.5609  0.0194 -0.3865
  341SOL     OW 1021   1.909   1.527   0.611  0.2487 -0.1628  0.6574
  341SOL    HW1 1022   1.990   1.555   0.559 -0.6257  1.6442 -0.2185
  341SOL    HW2 1023   1.908   1.426   0.637  0.7855  1.6050  1.4417
  342SOL     OW 1024   1.673   1.488   0.485 -0.0232  0.1860  0.0601
  342SOL    HW1 1025   1.678   1.414   0.410  1.3328 -0.7430  0.7983
  342SOL    HW2 1026   1.762   1.513   0.527  0.1323 -0.7857 -0.9257
  343SOL     OW 1027   1.890   0.174   1.041 -0.4750 -0.1599 -0.5594
  343SOL    HW1 1028   1.909   0.240   1.119  1.0849  3.3368 -2.2736
  343SOL    HW2 1029   1.806   0.119   1.059  1.2721  0.8108 -0.4284
  344SOL     OW 1030   2.886   0.151   2.753  0.2491 -0.7844 -0.3518
  344SOL    HW1 1031   2.964   0.100   2.795 -1.0743 -1.3659  1.4609
  344SOL    HW2 1032   2.799   0.108   2.780 -0.2581  0.6550 -0.5228
  345SOL     OW 1033   1.458   2.699   1.465  0.2916 -0.4737  0.4538
  345SOL    HW1 1034   1.552   2.699   1.500 -1.0806  2.4585  1.7956
  345SOL    HW2 1035   1.393   2.669   1.538  2.7447  0.3304 -0.5517
  346SOL     OW 1036   2.261   2.153   1.259  0.2079  0.4148  0.4772
  346SOL    HW1 1037   2.187   2.124   1.196 -1.0286 -2.1365  1.3795
  346SOL    HW2 1038   2.242   2.114   1.350 -0.5678  1.4674  0.0956
  347SOL     OW 1039   1.993   2.892   1.007  1.0030  0.1474 -0.0487
  347SOL    HW1 1040   1.975   2.862   0.909 -0.3105 -0.4510 -2.9813
  347SOL    HW2 1041   2.051   2.976   1.005 -2.0037 -0.6231 -2.1423
  348SOL     OW 1042   0.600   1.028   1.405 -0.1229  0.2330 -0.6794
  348SOL    HW1 1043   0.610   1.016   1.306 -0.1554 -1.0621  1.7685
  348SOL    HW2 1044   0.559   0.944   1.449 -0.2924 -0.3314 -0.2433
  349SOL     OW 1045   2.269   0.157   3.069  0.2101  0.0943 -0.0736
  349SOL    HW1 1046   2.317   0.192   0.046 -2.2426  0.3854 -0.6966
  349SOL    HW2 1047   2.332   0.162   2.989 -0.9705 -1.5358 -1.8927
  350SOL     OW 1048   2.171   1.884   2.958 -0.0600  0.3485  0.2790
  350SOL    HW1 1049   2.245   1.829   2.999 -3.2571  0.1132 -0.9424
  350SOL    HW2 1050   2.174   1.970   3.015 -0.0762  0.6658 -1.1200
  351SOL     OW 1051   0.959   0.336   0.622 -0.1564  0.2292 -0.2033
  351SOL    HW1 1052   1.005   0.257   0.581 -2.0700  0.9712 -0.8129
  351SOL    HW2 1053   0.989   0.424   0.578 -2.7558  0.2567 -0.6759
  352SOL     OW 1054   1.925   2.105   2.399 -0.1259 -0.2889 -0.1820
  352SOL    HW1 1055   1.878   2.194   2.390 -1.1204  1.3422  2.9882
  352SOL    HW2 1056   2.025   2.131   2.393  2.1572  1.0512 -2.5250
  353SOL     OW 1057   0.228   0.701   0.007 -0.1440  0.1217 -0.7111
  353SOL    HW1 1058   0.271   0.612   3.079  2.4490  3.7984  0.2541
  353SOL    HW2 1059   0.234   0.769   3.037  2.8638 -0.8179  2.1848
  354SOL     OW 1060   1.246   2.339   0.055 -0.3992 -0.4330 -0.9188
  354SOL    HW1 1061   1.166   2.287   0.074  1.2178  1.0144  0.3458
  354SOL    HW2 1062   1.329   2.283   0.047  0.5339  0.3851 -0.7723
  355SOL     OW 1063   2.657   2.670   1.639 -0.2451  0.0212  0.5873
  355SOL    HW1 1064   2.699   2.747   1.691 -2.3553  1.6019 -0.4945
  355SOL    HW2 1065   2.554   2.680   1.627 -0.9068 -0.6287  1.2595
  356SOL     OW 1066   2.808   1.189   0.756  0.1652 -0.2631 -0.0323
  356SOL    HW1 1067   2.790   1.141   0.845  0.3736 -0.5533  2.0874
  356SOL    HW2 1068   2.822   1.289   0.778  1.4111 -0.2173 -2.6326
  357SOL     OW 1069   2.723   0.291   1.116  0.0031  0.4682 -0.9735
  357SOL    HW1 1070   2.644   0.220   1.109 -2.5857 -1.3533 -0.2091
  357SOL    HW2 1071   2.811   0.247   1.092  1.2810 -0.4680  1.5906
  358SOL     OW 1072   1.185   2.340   1.136  0.5424  0.4013  0.3424
  358SOL    HW1 1073   1.120   2.407   1.102  3.3409 -3.6826 -1.2846
  358SOL    HW2 1074   1.277   2.368   1.105 -2.8482  0.1797 -1.4322
  359SOL     OW 1075   0.192   2.752   2.651  0.7550 -0.0465  0.0950
  359SOL    HW1 1076   0.259   2.735   2.723 -1.8067  0.8149 -0.7881
  359SOL    HW2 1077   0.178   2.852   2.640 -0.5720 -1.9187  1.5814
  360SOL     OW 1078   0.749   1.038   1.839 -0.1654  0.4904  0.0111
  360SOL    HW1 1079   0.770   1.056   1.741 -0.4732 -0.5133  0.3699
  360SOL    HW2 1080   0.653   1.007   1.842  0.0267 -0.2444  0.9328
  361SOL     OW 1081   2.365   0.081   0.698  0.2329  0.1741  0.1538
  361SOL    HW1 1082   2.385   0.161   0.753 -0.8484 -2.6585 -1.0594
  361SOL    HW2 1083   2.452   0.033   0.668 -2.1353  0.2212  0.0974
  362SOL     OW 1084   0.110   0.094   0.954 -0.5052  0.5116  0.0764
  362SOL    HW1 1085   0.139   0.043   0.873 -1.6808  1.2572 -0.6405
  362SOL    HW2 1086   0.162   0.179   0.969  1.3165 -0.0678 -2.1920
  363SOL     OW 1087   0.704   1.261   0.506 -0.3725  0.0913 -0.4242
  363SOL    HW1 1088   0.713   1.167   0.468 -2.4542 -1.8461 -0.1290
  363SOL    HW2 1089   0.775   1.321   0.462 -0.7668 -3.6878 -0.4928
  364SOL     OW 1090   0.543   1.250   1.669 -0.2844 -0.2974  0.2466
  364SOL    HW1 1091   0.508   1.156   1.686 -1.5175  0.2021 -1.4297
  364SOL    HW2 1092   0.504   1.310   1.738 -0.2834 -3.4255 -0.7520
  365SOL     OW 1093   2.976   1.292   0.309  0.5327 -0.3231  0.1062
  365SOL    HW1 1094   2.982   1.226   0.385  0.2216  0.6661 -3.7267
  365SOL    HW2 1095   2.877   1.321   0.304  1.9949 -1.1525  0.0225
  366SOL     OW 1096   2.662   1.770   0.998 -0.1091 -0.1877  0.3315
  366SOL    HW1 1097   2.729   1.737   0.930  0.6987  0.4936  0.5314
  366SOL    HW2 1098   2.718   1.804   1.077  1.7191 -2.8565  2.2759
  367SOL     OW 1099   2.165   2.014   1.984 -0.1034 -0.0369  0.6057
  367SOL    HW1 1100   2.098   2.089   1.981 -0.6617  1.4302 -3.1447
  367SOL    HW2 1101   2.153   1.961   1.905 -1.4084  2.2202  2.5357
  368SOL     OW 1102   2.799   1.653   0.772 -0.2386 -0.3544 -0.0418
  368SOL    HW1 1103   2.864   1.729   0.801  2.1761  0.8487 -1.7146
  368SOL    HW2 1104   2.839   1.568   0.806 -0.0683  3.4096 -0.4281
  369SOL     OW 1105   2.289   2.345   0.082 -0.1833 -0.3400 -0.0625
  369SOL    HW1 1106   2.296   2.425   0.144 -0.3818 -0.5189 -1.5633
  369SOL    HW2 1107   2.271   2.381   3.090  1.6510 -1.1823  2.3807
  370SOL     OW 1108   3.007   0.043   1.404 -0.3727 -0.0628 -0.0881
  370SOL    HW1 1109   2.998   0.146   1.392 -0.7579 -1.4155 -0.2218
  370SOL    HW2 1110   3.044   0.004   1.320 -1.2326  0.4145  1.5480
  371SOL     OW 1111   0.779   1.574   3.048  0.7289 -0.0330 -0.1558
  371SOL    HW1 1112   0.868   1.562   3.091 -0.8639 -0.2245  0.1364
  371SOL    HW2 1113   0.752   1.673   3.045  3.3432 -1.3187 -3.4872
  372SOL     OW 1114   1.026   1.177   0.199 -0.1106 -0.3835 -0.6878
  372SOL    HW1 1115   0.938   1.218   0.181 -0.7755 -2.5176  2.0412
  372SOL    HW2 1116   1.053   1.120   0.114  3.7826 -2.3769 -2.3756
  373SOL     OW 1117   1.615   2.604   2.726  0.0548  1.1228 -0.9665
  373SOL    HW1 1118   1.689   2.535   2.747  1.1998 -0.3254  0.3245
  373SOL    HW2 1119   1.539   2.592   2.790  0.4726 -0.7730 -0.8017
  374SOL     OW 1120   0.235   2.226   0.185  0.8017  0.1550 -0.8916
  374SOL    HW1 1121   0.333   2.250   0.200 -0.9239  0.3875 -3.2339
  374SOL    HW2 1122   0.228   2.134   0.145 -0.4995 -0.8903  0.1538
  375SOL     OW 1123   0.767   1.376   1.666  0.2593  0.1361 -0.1074
  375SOL    HW1 1124   0.689   1.309   1.667  1.7395  1.0966  0.1572
  375SOL    HW2 1125   0.854   1.334   1.687  0.5523  2.7622 -0.5115
  376SOL     OW 1126   0.692   2.430   1.895 -0.4329 -0.2056 -0.0112
  376SOL    HW1 1127   0.665   2.491   1.818 -0.4126 -0.1442  1.7747
  376SOL    HW2 1128   0.628   2.352   1.899 -0.6134  1.4342  1.3709
  377SOL     OW 1129   2.711   1.416   2.070  0.2167  0.2299  0.2910
  377SOL    HW1 1130   2.716   1.507   2.115 -0.6890 -2.0500 -0.8756
  377SOL    HW2 1131   2.769   1.350   2.125  0.6996 -1.9476 -1.5474
  378SOL     OW 1132   0.904   2.998   3.011 -0.3357 -0.2889  0.0304
  378SOL    HW1 1133   0.976   2.958   2.950 -0.5146  0.2412 -1.3570
  378SOL    HW2 1134   0.948   3.033   3.099 -0.2949 -0.3137 -2.2504
  379SOL     OW 1135   1.981   0.408   0.677 -0.2167 -0.5361  0.7254
  379SOL    HW1 1136   2.040   0.392   0.593  1.8168  2.1070  0.4400
  379SOL    HW2 1137   2.002   0.330   0.742 -0.2598 -1.9960  0.5274
  380SOL     OW 1138   2.992   2.072   1.456  0.3867 -0.6732 -0.0665
  380SOL    HW1 1139   2.898   2.041   1.453  2.7474 -0.1470 -1.2662
  380SOL    HW2 1140   2.995   2.171   1.478 -2.5100  3.4609 -1.7684
  381SOL     OW 1141   1.854   2.001   1.707  0.3292 -0.2421 -0.5710
  381SOL    HW1 1142   1.773   2.047   1.750  0.9512 -1.1774  0.7884
  381SOL    HW2 1143   1.874   2.050   1.618  2.2542  0.5564  0.7185
  382SOL     OW 1144   3.039   0.351   2.652  0.1315  0.1826  0.1279
  382SOL    HW1 1145   3.066   0.343   2.553  1.4518 -0.1608  0.7741
  382SOL    HW2 1146   2.960   0.292   2.678 -4.1691 -0.0113 -0.2420
  383SOL     OW 1147   1.704   1.412   2.394 -0.6572  0.1336  0.6058
  383SOL    HW1 1148   1.618   1.386   2.443  0.5019  1.6141  1.0266
  383SOL    HW2 1149   1.769   1.338   2.422  1.4304 -2.2471  0.4751
  384SOL     OW 1150   1.107   2.067   1.184  0.5726 -0.0760 -0.3312
  384SOL    HW1 1151   1.120   2.168   1.195 -1.6156 -0.4030 -0.0931
  384SOL    HW2 1152   1.030   2.037   1.244 -2.4677  0.7125 -2.3247
  385SOL     OW 1153   1.810   2.436   0.747  0.3186  0.1256 -0.3406
  385SOL    HW1 1154   1.738   2.511   0.756 -1.2766  2.4191 -1.3196
  385SOL    HW2 1155   1.848   2.429   0.648 -1.2507  1.3213 -0.1526
  386SOL     OW 1156   2.044   1.868   0.799  0.8471 -0.0297  0.7772
  386SOL    HW1 1157   1.962   1.925   0.769  0.7560  2.2996 -2.9299
  386SOL    HW2 1158   2.119   1.921   0.839 -0.2908 -2.9299 -0.8909
  387SOL     OW 1159   0.409   2.294   1.516  0.4944 -0.2335 -0.2561
  387SOL    HW1 1160   0.410   2.279   1.416  1.1620 -0.1568 -0.2151
  387SOL    HW2 1161   0.380   2.205   1.566 -0.5518 -0.7176  0.7968
  388SOL     OW 1162   2.874   0.488   1.729 -0.2794 -0.3235  0.0921
  388SOL    HW1 1163   2.931   0.577   1.741 -0.5890  1.1327 -1.6162
  388SOL    HW2 1164   2.844   0.450   1.817  1.4919 -2.1057 -3.0417
  389SOL     OW 1165   1.864   1.266   0.629 -0.0707 -0.3574  0.6875
  389SOL    HW1 1166   1.783   1.293   0.689 -0.4552  1.2936  3.0815
  389SOL    HW2 1167   1.881   1.167   0.611  0.9243  1.4490 -0.7928
  390SOL     OW 1168   1.056   2.188   2.823  0.5754 -0.0919  0.2227
  390SOL    HW1 1169   1.025   2.084   2.821 -0.1683 -1.5698  1.3710
  390SOL    HW2 1170   1.151   2.200   2.790  0.5588 -0.0177  0.4367
  391SOL     OW 1171   0.864   2.311   2.985  0.4918  0.4782  0.2222
  391SOL    HW1 1172   0.955   2.285   2.939  3.0986 -1.0197 -0.6191
  391SOL    HW2 1173   0.785   2.270   2.933 -0.9351  1.6754  0.6732
  392SOL     OW 1174   3.013   2.846   1.898 -0.0695  0.4834  0.2304
  392SOL    HW1 1175   2.915   2.836   1.858 -0.6315 -0.8522 -0.9009
  392SOL    HW2 1176   3.014   2.926   1.966 -1.0525 -0.1391 -1.8271
  393SOL     OW 1177   1.867   2.385   0.164 -0.2279  0.0178  0.0300
  393SOL    HW1 1178   1.850   2.300   0.219 -1.2309  3.0540 -0.7160
  393SOL    HW2 1179   1.921   2.453   0.221 -0.3904  1.2259  1.8869
  394SOL     OW 1180   0.697   0.576   2.299 -0.1794  0.4281 -0.5338
  394SOL    HW1 1181   0.618   0.537   2.351 -0.8180  2.1748  0.8834
  394SOL    HW2 1182   0.742   0.510   2.237 -1.1377  0.4118  0.0056
  395SOL     OW 1183   0.356   1.192   1.159 -0.2018  0.4642  0.3192
  395SOL    HW1 1184   0.265   1.159   1.192 -2.5083 -0.7459  0.1530
  395SOL    HW2 1185   0.407   1.228   1.236 -2.7992 -0.3729  1.1075
  396SOL     OW 1186   1.752   1.384   2.127 -0.6172  0.4528  0.6179
  396SOL    HW1 1187   1.708   1.298   2.086 -1.1195 -3.0967 -1.2075
  396SOL    HW2 1188   1.755   1.395   2.229  0.3767  0.0992  2.5094
  397SOL     OW 1189   0.808   0.470   3.071  0.2322 -0.1212 -0.5890
  397SOL    HW1 1190   0.784   0.457   0.067 -0.0848  0.5285  2.0842
  397SOL    HW2 1191   0.738   0.420   3.015  0.2620  0.5522  1.4374
  398SOL     OW 1192   0.703   1.819   2.801  0.2905 -0.1034 -0.1414
  398SOL    HW1 1193   0.728   1.890   2.728 -0.1650  1.7681 -3.9516
  398SOL    HW2 1194   0.727   1.721   2.777  1.5042 -5.2601  0.8097
  399SOL     OW 1195   2.752   1.677   2.175  0.6579 -0.0074 -0.6293
  399SOL    HW1 1196   2.715   1.772   2.185  3.0262  1.2821 -0.3142
  399SOL    HW2 1197   2.822   1.660   2.244  1.3025  0.4317 -0.3812
  400SOL     OW 1198   2.444   0.912   1.884  0.2530  0.1645 -0.3461
  400SOL    HW1 1199   2.370   0.981   1.867 -1.8568 -0.6409  0.0108
  400SOL    HW2 1200   2.436   0.833   1.816  1.2820 -0.6892 -3.3304
  401SOL     OW 1201   1.111   1.731   0.735  0.6240  0.2028  0.3735
  401SOL    HW1 1202   1.079   1.753   0.830 -0.6597  3.1219 -1.0016
  401SOL    HW2 1203   1.187   1.666   0.731  0.0239  1.1935 -0.1479
  402SOL     OW 1204   0.117   2.754   2.028  0.3838  0.3200  0.2073
  402SOL    HW1 1205   0.044   2.798   1.972 -3.3732 -1.9612 -1.9820
  402SOL    HW2 1206   0.170   2.824   2.081 -0.8934  2.5556 -0.3799
  403SOL     OW 1207   0.458   1.531   2.396 -0.4486  0.7507  0.4167
  403SOL    HW1 1208   0.368   1.564   2.428 -1.8230  0.2050  1.3778
  403SOL    HW2 1209   0.444   1.444   2.342  0.9964  0.0530 -0.1334
  404SOL     OW 1210   1.795   2.094   1.454  0.3571 -1.1410 -0.3184
  404SOL    HW1 1211   1.889   2.111   1.473 -0.9660 -0.1808  1.2782
  404SOL    HW2 1212   1.777   2.010   1.401 -0.1127  0.4293 -1.1525
  405SOL     OW 1213   2.930   2.930   2.873  0.1780 -0.0994 -0.0015
  405SOL    HW1 1214   2.957   2.839   2.838 -1.1412  1.8773  0.5533
  405SOL    HW2 1215   3.020   2.978   2.879 -0.8175 -0.8375  1.3683
  406SOL     OW 1216   0.632   1.034   0.059 -0.3007  0.3865 -0.1705
  406SOL    HW1 1217   0.595   1.046   3.066  0.9134  0.7223 -0.8702
  406SOL    HW2 1218   0.728   1.070   0.072  2.4662 -0.3854 -0.4713
  407SOL     OW 1219   2.180   2.417   2.951  0.1109  0.9937  0.0125
  407SOL    HW1 1220   2.149   2.323   2.924 -1.6558 -0.7855 -1.7397
  407SOL    HW2 1221   2.245   2.454   2.882  0.3137  3.0644  2.0332
  408SOL     OW 1222   2.787   2.954   0.223  0.0071 -0.2515 -0.2323
  408SOL    HW1 1223   2.798   2.856   0.245 -0.4929  0.5215 -0.9742
  408SOL    HW2 1224   2.875   2.995   0.188 -0.7311  0.6936 -0.6818
  409SOL     OW 1225   2.282   1.489   0.868 -0.0234  0.2952 -0.2305
  409SOL    HW1 1226   2.266   1.562   0.804  1.5646 -3.9014  2.6263
  409SOL    HW2 1227   2.345   1.420   0.831 -1.0998  1.3220  0.2271
  410SOL     OW 1228   2.695   2.054   0.326  0.1931  0.3275 -0.1774
  410SOL    HW1 1229   2.622   2.100   0.275  0.0155  2.0965  0.9755
  410SOL    HW2 1230   2.770   2.117   0.355 -0.3795  0.3409  2.3972
  411SOL     OW 1231   0.184   1.574   0.903  0.1791 -0.0919  0.0304
  411SOL    HW1 1232   0.266   1.633   0.922 -1.5156 -1.2012  0.9742
  411SOL    HW2 1233   0.200   1.472   0.928  1.4399 -3.6403  4.3673
  412SOL     OW 1234   2.269   2.470   0.516 -0.0183  0.0956 -0.6200
  412SOL    HW1 1235   2.280   2.562   0.475  1.8720 -2.2705 -0.1375
  412SOL    HW2 1236   2.307   2.397   0.461 -0.7710  0.9635  0.4743
  413SOL     OW 1237   1.891   0.679   2.239 -0.6807 -0.3195  0.5246
  413SOL    HW1 1238   1.813   0.734   2.226  2.0967  0.7927 -0.1821
  413SOL    HW2 1239   1.975   0.716   2.188  3.2901  2.0271 -1.9437
  414SOL     OW 1240   2.620   0.053   0.409  0.1956 -0.1425  0.2404
  414SOL    HW1 1241   2.672   3.100   0.343  1.4408  0.2758 -0.9635
  414SOL    HW2 1242   2.576   0.004   0.485 -0.5797 -0.8500 -0.8204
  415SOL     OW 1243   0.918   1.960   1.340  0.2007  0.4550 -0.0128
  415SOL    HW1 1244   0.829   1.945   1.292  0.4359  0.6490  1.3016
  415SOL    HW2 1245   0.943   1.879   1.401  0.2713 -1.4235  2.6335
  416SOL     OW 1246   0.604   2.842   2.783  0.4041 -0.4582  0.0920
  416SOL    HW1 1247   0.612   2.817   2.683  1.3429 -0.4670  0.7432
  416SOL    HW2 1248   0.702   2.867   2.804  3.2975  3.0077 -0.2382
  417SOL     OW 1249   2.635   0.457   0.912 -0.5096 -0.0550  0.2872
  417SOL    HW1 1250   2.654   0.453   0.812  2.2143  1.3989 -2.3659
  417SOL    HW2 1251   2.689   0.385   0.960 -0.2967  0.6519 -2.2377
  418SOL     OW 1252   0.013   0.569   2.813 -0.0682  0.2948  0.0919
  418SOL    HW1 1253   3.024   0.584   2.854  0.1012  1.7828 -2.1226
  418SOL    HW2 1254   0.013   0.508   2.729  2.8676  0.5706  0.4079
  419SOL     OW 1255   0.160   1.140   1.660  0.1514 -0.2898 -0.0926
  419SOL    HW1 1256   0.201   1.059   1.608  1.5818 -2.3154 -1.0205
  419SOL    HW2 1257   0.174   1.229   1.613 -0.3752  1.2690 -0.4756
  420SOL     OW 1258   0.650   1.692   0.566 -0.2487  0.0553 -0.1603
  420SOL    HW1 1259   0.635   1.782   0.514 -1.4664  1.4464  4.1605
  420SOL    HW2 1260   0.750   1.668   0.554 -0.8124 -0.7640 -0.5687
  421SOL     OW 1261   2.549   2.377   2.751 -0.2608 -0.5444 -0.0164
  421SOL    HW1 1262   2.491   2.297   2.725 -1.1168  1.7083  2.3855
  421SOL    HW2 1263   2.633   2.394   2.692 -1.9821 -0.9028 -1.1499
  422SOL     OW 1264   2.806   0.613   2.911  0.1698 -0.4750 -0.0965
  422SOL    HW1 1265   2.796   0.594   2.814 -1.6670 -0.5024  1.3050
  422SOL    HW2 1266   2.772   0.542   2.976 -3.2793 -2.2501  0.4862
  423SOL     OW 1267   1.434   2.381   0.859  0.4031  0.1254 -0.4691
  423SOL    HW1 1268   1.516   2.341   0.900  0.0760 -2.8857 -2.5409
  423SOL    HW2 1269   1.359   2.309   0.852 -1.2693 -0.3280  0.6345
  424SOL     OW 1270   0.675   2.069   1.586  0.2350  0.6184 -0.5690
  424SOL    HW1 1271   0.689   2.151   1.528  2.1208 -0.9626  2.3134
  424SOL    HW2 1272   0.668   1.984   1.532  0.4666 -0.0934 -0.2105
  425SOL     OW 1273   0.269   2.713   2.364 -0.1301  0.1593  0.3275
  425SOL    HW1 1274   0.345   2.663   2.314  2.6086  0.1495 -0.8708
  425SOL    HW2 1275   0.222   2.656   2.432 -0.7743  1.6146 -0.8752
  426SOL     OW 1276   1.595   0.698   0.639  0.3499  0.2535 -0.4441
  426SOL    HW1 1277   1.651   0.624   0.686  0.7384 -2.1831  0.9927
  426SOL    HW2 1278   1.646   0.782   0.667  1.8803  0.8770  1.0990
  427SOL     OW 1279   0.415   1.221   0.168  0.3009 -0.2352  0.3290
  427SOL    HW1 1280   0.356   1.166   0.233  0.6815  0.4643  0.1254
  427SOL    HW2 1281   0.494   1.173   0.125  0.8745  0.0298 -0.4162
  428SOL     OW 1282   1.410   1.191   0.198 -0.0423 -0.2508 -0.1543
  428SOL    HW1 1283   1.394   1.093   0.218 -0.0007  1.1487  0.1192
  428SOL    HW2 1284   1.424   1.214   0.102 -1.9570  0.9287 -1.7733
  429SOL     OW 1285   2.956   2.641   0.736 -0.0655 -0.0136  0.0873
  429SOL    HW1 1286   2.922   2.735   0.757  2.0217 -0.7573  0.3993
  429SOL    HW2 1287   2.939   2.604   0.645  3.7562  1.5023  1.9744
  430SOL     OW 1288   0.702   2.574   2.381  0.1863 -0.3822  0.3008
  430SOL    HW1 1289   0.683   2.643   2.454 -2.0550 -1.3246  0.9192
  430SOL    HW2 1290   0.764   2.501   2.410 -1.0262  2.2534 -0.5570
  431SOL     OW 1291   2.969   1.150   0.553  0.1124 -0.1987 -0.3195
  431SOL    HW1 1292   2.902   1.164   0.631 -3.2044  1.8932 -1.1414
  431SOL    HW2 1293   3.021   1.069   0.566 -2.7595  3.1897  0.1743
  432SOL     OW 1294   2.045   2.342   2.137 -0.3507 -0.1800  0.0387
  432SOL    HW1 1295   2.061   2.291   2.222 -0.1865  3.4649 -0.1854
  432SOL    HW2 1296   1.990   2.287   2.071  0.2015  0.3277  1.1530
  433SOL     OW 1297   1.247   2.646   0.856 -0.1713  0.0220  0.7320
  433SOL    HW1 1298   1.289   2.555   0.839  3.7854 -0.4861  0.6857
  433SOL    HW2 1299   1.315   2.720   0.860 -2.1446 -0.4952  0.1484
  434SOL     OW 1300   0.850   2.026   2.012  0.3145 -0.0324 -0.3204
  434SOL    HW1 1301   0.844   2.130   1.996  1.3381 -3.4803  0.6656
  434SOL    HW2 1302   0.793   1.998   2.091 -1.0890  2.3873  2.9718
  435SOL     OW 1303   2.962   1.038   0.051  0.4215  0.2968  0.0647
  435SOL    HW1 1304   3.014   1.036   0.138 -3.0957  1.7433  0.6019
  435SOL    HW2 1305   2.921   0.945   0.034 -0.0547  0.6710  0.3233
  436SOL     OW 1306   0.471   2.748   2.043 -0.1439  0.1813  0.1999
  436SOL    HW1 1307   0.427   2.838   2.075 -2.6398  3.2250  1.7278
  436SOL    HW2 1308   0.444   2.660   2.094 -3.6945 -4.2220  0.8975
  437SOL     OW 1309   2.043   2.662   1.676  0.1274 -0.3193  0.4904
  437SOL    HW1 1310   2.003   2.639   1.586 -1.5616  1.8954  0.1824
  437SOL    HW2 1311   2.064   2.587   1.737  1.8515 -1.2199  0.2672
  438SOL     OW 1312   0.141   1.894   0.572  0.2641  0.6697  0.2725
  438SOL    HW1 1313   0.125   1.798   0.605 -0.1891  3.7630  1.4415
  438SOL    HW2 1314   0.142   1.964   0.647  0.2167 -2.2016  0.3212
  439SOL     OW 1315   0.155   0.397   0.865  0.4282  0.1854 -0.8711
  439SOL    HW1 1316   0.177   0.455   0.785 -2.0705 -4.1658 -1.0766
  439SOL    HW2 1317   0.238   0.340   0.875 -0.7808  0.2857 -0.3406
  440SOL     OW 1318   0.522   2.739   2.551 -0.5917 -0.4766  0.2180
  440SOL    HW1 1319   0.487   2.645   2.580 -0.2511 -0.8087 -1.5635
  440SOL    HW2 1320   0.448   2.791   2.507  0.2789  0.7944 -0.3973
  441SOL     OW 1321   0.018   0.943   0.602 -0.1244  0.0850  0.1074
  441SOL    HW1 1322   0.115   0.965   0.611  1.2994 -1.1531 -0.0872
  441SOL    HW2 1323   3.097   0.848   0.635  0.2017  0.7367 -1.6310
  442SOL     OW 1324   1.282   2.220   2.671  0.0086 -0.4344  0.0333
  442SOL    HW1 1325   1.334   2.171   2.597  0.0091 -1.2448 -0.7448
  442SOL    HW2 1326   1.269   2.327   2.654  1.0260  3.0841  1.0582
  443SOL     OW 1327   0.668   0.074   0.421 -0.3882 -0.0063 -0.0925
  443SOL    HW1 1328   0.743   0.007   0.424 -2.2283  0.0072 -0.4756
  443SOL    HW2 1329   0.665   0.143   0.498 -0.4943  2.1438 -1.9790
  444SOL     OW 1330   1.497   1.703   2.293 -0.4349  0.1298  0.0408
  444SOL    HW1 1331   1.572   1.689   2.363 -1.3634 -1.3814  0.4865
  444SOL    HW2 1332   1.537   1.750   2.211 -0.0757  0.8187 -2.7937
  445SOL     OW 1333   2.957   0.500   0.545 -1.0815 -0.1929 -1.2568
  445SOL    HW1 1334   3.021   0.429   0.577 -1.4660 -0.9219 -0.3434
  445SOL    HW2 1335   2.877   0.454   0.507  4.2420  1.0324  1.7678
  446SOL     OW 1336   1.927   1.004   0.873 -0.0428  0.5136  0.9094
  446SOL    HW1 1337   1.865   0.964   0.804 -0.5999  2.1364  1.0827
  446SOL    HW2 1338   1.967   0.927   0.927 -1.4992 -3.7476  0.8971
  447SOL     OW 1339   0.018   0.954   0.260  0.3447 -0.5508 -0.1465
  447SOL    HW1 1340   0.014   0.856   0.223 -2.1470 -0.4850 -2.6198
  447SOL    HW2 1341   3.094   0.955   0.356 -2.3464 -4.3195 -1.9685
  448SOL     OW 1342   1.828   1.836   1.341 -0.5380 -0.4537 -0.1092
  448SOL    HW1 1343   1.796   1.822   1.247  2.3602 -1.1059  0.9769
  448SOL    HW2 1344   1.930   1.863   1.341 -1.4848 -0.6955 -0.1697
  449SOL     OW 1345   0.919   1.424   0.416  0.2609  0.0160  0.2967
  449SOL    HW1 1346   1.003   1.396   0.363 -1.2144 -0.8347  1.8038
  449SOL    HW2 1347   0.916   1.521   0.449 -0.5214  1.6802 -0.8300
  450SOL     OW 1348   2.844   2.710   2.278 -0.6280 -0.4380  0.2407
  450SOL    HW1 1349   2.780   2.635   2.291  2.2507  2.4386  1.1056
  450SOL    HW2 1350   2.802   2.791   2.235 -1.3106 -1.1725  0.4709
  451SOL     OW 1351   2.233   0.904   2.842 -0.0019 -0.1613 -0.8557
  451SOL    HW1 1352   2.170   0.984   2.865  0.2908  1.9142  0.2375
  451SOL    HW2 1353   2.247   0.898   2.744 -0.7241 -0.0695  0.1795
  452SOL     OW 1354   1.560   1.015   0.973 -0.0417  0.2566  0.2063
  452SOL    HW1 1355   1.596   0.959   1.051 -2.5974 -0.3888  0.4419
  452SOL    HW2 1356   1.576   1.119   0.989  1.3363  2.2289  0.3442
  453SOL     OW 1357   1.841   0.582   1.494  0.4318  0.1598 -0.0564
  453SOL    HW1 1358   1.845   0.581   1.599  0.5292  0.8972  1.0057
  453SOL    HW2 1359   1.870   0.665   1.447 -1.5881 -2.3107 -0.8631
  454SOL     OW 1360   2.671   1.156   2.844 -0.1909  0.3164  0.0009
  454SOL    HW1 1361   2.673   1.058   2.811 -0.8122 -1.5014 -2.1255
  454SOL    HW2 1362   2.673   1.167   2.948  0.5186  1.7114 -1.2632
  455SOL     OW 1363   2.811   1.723   1.307  0.2394 -0.1159 -0.2489
  455SOL    HW1 1364   2.880   1.674   1.356 -0.5884  0.1430 -2.1583
  455SOL    HW2 1365   2.811   1.823   1.335  0.6959 -1.8640 -0.3946
  456SOL     OW 1366   1.352   2.996   1.748  0.5305 -0.0044  0.7670
  456SOL    HW1 1367   1.317   3.091   1.750  0.9077 -1.4759 -1.6740
  456SOL    HW2 1368   1.453   2.998   1.731 -0.2807  0.0356 -0.7846
  457SOL     OW 1369   1.539   2.927   1.092 -1.0137  0.0156  0.0140
  457SOL    HW1 1370   1.592   2.842   1.087 -1.3775  1.6875 -1.6425
  457SOL    HW2 1371   1.603   3.004   1.080  1.7319 -0.5156 -1.4676
  458SOL     OW 1372   2.871   2.885   0.782  0.1774 -0.1081 -0.0186
  458SOL    HW1 1373   2.909   2.960   0.720 -0.5694  3.9622 -0.2224
  458SOL    HW2 1374   2.788   2.921   0.829 -0.5400 -0.5650 -0.2702
  459SOL     OW 1375   1.721   0.971   0.181 -0.3073  0.1716  0.3576
  459SOL    HW1 1376   1.680   1.046   0.233  0.5983 -1.3054  0.0911
  459SOL    HW2 1377   1.702   0.884   0.225  1.4286  4.0936 -1.7810
  460SOL     OW 1378   0.424   2.500   2.637 -0.0092  0.0508 -0.2192
  460SOL    HW1 1379   0.378   2.482   2.726 -1.3326  1.0205  2.3300
  460SOL    HW2 1380   0.452   2.417   2.587 -2.4921 -0.6920 -0.4314
  461SOL     OW 1381   0.526   1.437   0.292 -0.2571  0.1099 -0.0052
  461SOL    HW1 1382   0.492   1.449   0.388 -0.0727  0.7371  1.5920
  461SOL    HW2 1383   0.493   1.354   0.244  0.4669 -1.0132  3.7085
  462SOL     OW 1384   1.922   2.029   0.519 -0.2321  0.2384  0.1906
  462SOL    HW1 1385   1.866   1.976   0.589  2.0603 -2.2150 -2.2644
  462SOL    HW2 1386   1.929   1.979   0.430 -0.6670 -1.0574 -0.1787
  463SOL     OW 1387   2.741   0.368   0.428 -0.1710 -0.2536  0.2386
  463SOL    HW1 1388   2.771   0.393   0.332  1.4830 -0.3346  1.2563
  463SOL    HW2 1389   2.696   0.276   0.430  2.3307  0.7740  0.4242
  464SOL     OW 1390   0.774   2.238   0.517  0.2143 -0.3848 -0.8374
  464SOL    HW1 1391   0.836   2.294   0.456 -1.2480  2.1222 -1.9328
  464SOL    HW2 1392   0.805   2.140   0.519 -0.0667  0.3483  0.1828
  465SOL     OW 1393   2.179   0.409   0.990 -0.0172 -0.1346 -0.3850
  465SOL    HW1 1394   2.084   0.394   0.953  0.5382  1.7179 -0.4461
  465SOL    HW2 1395   2.213   0.507   0.975  1.9621 -1.7822 -0.2114
  466SOL     OW 1396   2.127   3.092   0.581 -0.7686 -0.5095  0.0849
  466SOL    HW1 1397   2.222   0.018   0.598  1.5896  0.3610  0.3665
  466SOL    HW2 1398   2.102   3.004   0.630 -0.9938 -1.3043  1.7313
  467SOL     OW 1399   1.226   0.672   2.101  0.4264  0.4881 -0.5274
  467SOL    HW1 1400   1.291   0.740   2.136 -0.0108 -1.3144 -2.4763
  467SOL    HW2 1401   1.275   0.617   2.028  0.1181  0.4471 -1.7155
  468SOL     OW 1402   2.767   0.401   1.968 -0.0793  0.0923  0.3026
  468SOL    HW1 1403   2.722   0.494   1.975 -0.3212  1.1834 -0.2722
  468SOL    HW2 1404   2.802   0.375   2.060 -1.9262 -2.2504  1.0547
  469SOL     OW 1405   1.105   2.434   1.832  0.6945 -0.5730  0.0637
  469SOL    HW1 1406   1.203   2.428   1.804 -1.0739  0.4290  1.9964
  469SOL    HW2 1407   1.086   2.522   1.879 -1.1625 -1.1752  2.2875
  470SOL     OW 1408   1.987   1.151   1.939  0.1263 -0.3125 -0.0972
  470SOL    HW1 1409   1.961   1.079   2.007 -1.2956  0.7835 -1.6947
  470SOL    HW2 1410   2.005   1.240   1.988 -0.3392  1.0606  1.9926
  471SOL     OW 1411   2.998   1.383   2.988 -0.3433 -0.2994  0.3576
  471SOL    HW1 1412   2.970   1.337   2.904  0.9944  1.0465  1.4509
  471SOL    HW2 1413   3.052   1.321   3.053  0.8700  0.3120  1.3276
  472SOL     OW 1414   0.501   2.327   0.547 -0.5367  0.2819  0.1791
  472SOL    HW1 1415   0.481   2.232   0.514  0.1639 -2.1581  0.0939
  472SOL    HW2 1416   0.599   2.344   0.537 -0.6437  1.7090  0.4398
  473SOL     OW 1417   1.238   2.267   2.263 -0.0103 -0.1076  0.5520
  473SOL    HW1 1418   1.299   2.306   2.191  1.8730 -0.2803  3.3181
  473SOL    HW2 1419   1.298   2.250   2.344  0.4771  0.2383  1.2752
  474SOL     OW 1420   1.182   3.029   2.449 -0.0631  0.1664  0.4674
  474SOL    HW1 1421   1.118   2.962   2.406 -0.0720  0.2896  1.6910
  474SOL    HW2 1422   1.230   2.983   2.532 -0.9468  2.1785 -0.2081
  475SOL     OW 1423   0.920   2.337   0.324  0.1621 -0.0628 -0.3720
  475SOL    HW1 1424   0.999   2.354   0.380  0.3469 -1.9821  0.1418
  475SOL    HW2 1425   0.948   2.300   0.232 -0.7989  3.0185  1.4757
  476SOL     OW 1426   0.603   0.618   1.018  0.3671  0.5345  0.2327
  476SOL    HW1 1427   0.616   0.665   1.106  1.3115 -2.1126  2.0295
  476SOL    HW2 1428   0.689   0.613   0.964 -0.7230  0.4967 -0.1499
  477SOL     OW 1429   2.040   2.014   1.126 -0.3007  0.1146  0.1081
  477SOL    HW1 1430   2.086   2.029   1.038  1.2901  2.2425  3.1209
  477SOL    HW2 1431   1.967   2.082   1.145  1.4296 -0.7598  1.0218
  478SOL     OW 1432   2.831   0.811   3.089  0.7436  0.2596 -0.0579
  478SOL    HW1 1433   2.772   0.791   0.072 -2.0238 -0.6059  1.1934
  478SOL    HW2 1434   2.799   0.749   3.013 -1.2185 -0.5587 -0.8251
  479SOL     OW 1435   0.661   3.058   1.217  0.7638  0.1794 -0.2158
  479SOL    HW1 1436   0.592   3.039   1.291  1.1733  2.4193 -0.5541
  479SOL    HW2 1437   0.705   2.971   1.189 -1.4002  2.6593  0.3232
  480SOL     OW 1438   2.538   2.581   0.366 -0.3816  0.3091 -0.0917
  480SOL    HW1 1439   2.602   2.580   0.286  1.5074 -0.7840  1.5425
  480SOL    HW2 1440   2.533   2.492   0.416 -1.2376  1.7005  0.4636
  481SOL     OW 1441   2.736   0.467   1.346 -1.0405  0.4935 -0.1755
  481SOL    HW1 1442   2.708   0.401   1.272  1.0363 -0.6136 -2.2275
  481SOL    HW2 1443   2.813   0.431   1.408  2.1786  0.0707  0.4936
  482SOL     OW 1444   0.883   2.923   1.084  0.1035 -0.3904  0.1126
  482SOL    HW1 1445   0.895   3.012   1.036 -0.5954 -0.1366 -3.3834
  482SOL    HW2 1446   0.963   2.892   1.134  0.8273  0.6135 -3.8591
  483SOL     OW 1447   0.179   1.352   2.692 -0.0327  0.0312 -0.0889
  483SOL    HW1 1448   0.180   1.318   2.789  2.0180 -0.9520  0.9326
  483SOL    HW2 1449   0.088   1.328   2.650 -2.1533 -0.9656  0.5046
  484SOL     OW 1450   1.619   1.597   1.965 -0.2362  0.5263  0.1353
  484SOL    HW1 1451   1.642   1.587   1.868  0.7851 -3.6967 -1.0155
  484SOL    HW2 1452   1.653   1.515   2.012 -0.3705 -1.3770  0.3471
  485SOL     OW 1453   0.286   0.063   2.507 -0.7406  0.2899  0.3388
  485SOL    HW1 1454   0.300   0.136   2.580 -0.9892 -0.3339  1.5409
  485SOL    HW2 1455   0.212   3.100   2.541  1.2037  0.9137  2.5217
  486SOL     OW 1456   1.322   2.865   0.640 -0.0744 -0.0584 -0.2009
  486SOL    HW1 1457   1.393   2.849   0.711  2.8470 -2.2470  2.4672
  486SOL    HW2 1458   1.356   2.877   0.548  0.4756 -0.8763  0.2862
  487SOL     OW 1459   1.500   0.105   0.827 -0.6973  0.0759 -0.3122
  487SOL    HW1 1460   1.590   0.156   0.806  0.4888 -0.0526  0.4858
  487SOL    HW2 1461   1.447   0.094   0.740  0.2729  0.9910 -0.6610
  488SOL     OW 1462   2.293   0.811   0.715  0.0992 -0.0070  0.2262
  488SOL    HW1 1463   2.379   0.817   0.660 -0.9211  1.1496 -0.7913
  488SOL    HW2 1464   2.269   0.903   0.752  3.7026  1.4789 -0.5517
  489SOL     OW 1465   1.015   0.005   1.339 -0.6043  0.0557 -0.1595
  489SOL    HW1 1466   1.114   0.034   1.320  2.1900  1.0538 -0.4614
  489SOL    HW2 1467   0.946   0.065   1.305 -0.3717 -0.8702  1.4212
  490SOL     OW 1468   1.123   0.806   0.356 -0.2395 -0.4330 -0.2447
  490SOL    HW1 1469   1.042   0.745   0.333 -1.3450 -0.3583  0.2767
  490SOL    HW2 1470   1.101   0.903   0.387 -1.9246  0.4607 -1.3150
  491SOL     OW 1471   1.053   2.798   0.376 -0.4769 -0.0517  0.7308
  491SOL    HW1 1472   1.122   2.802   0.302  0.2131  0.8765 -1.5491
  491SOL    HW2 1473   1.034   2.700   0.402  0.9533  0.0310  0.2802
  492SOL     OW 1474   1.092   1.544   1.633 -0.5322  0.2559 -0.1291
  492SOL    HW1 1475   1.157   1.553   1.708 -2.5181 -1.4793 -2.4652
  492SOL    HW2 1476   1.018   1.478   1.658  1.5022 -1.1414 -0.2588
  493SOL     OW 1477   0.607   1.903   0.386  0.2299 -0.0815 -0.1748
  493SOL    HW1 1478   0.522   1.933   0.429  0.4308 -2.5574  0.7775
  493SOL    HW2 1479   0.575   1.831   0.322  1.2800  0.1054 -2.3408
  494SOL     OW 1480   1.972   1.747   0.299  0.5316  0.3833  0.3363
  494SOL    HW1 1481   2.004   1.704   0.387  1.4299 -1.3339 -1.8491
  494SOL    HW2 1482   1.874   1.779   0.302 -0.2954  1.3763  0.4340
  495SOL     OW 1483   0.319   1.157   2.529  0.6417  0.2924  0.1424
  495SOL    HW1 1484   0.292   1.224   2.597 -2.8963 -0.3475 -1.1144
  495SOL    HW2 1485   0.237   1.109   2.494  0.0781  1.0435 -0.0131
  496SOL     OW 1486   0.564   0.078   2.437  0.0041 -0.3072  0.0376
  496SOL    HW1 1487   0.464   0.069   2.441  2.2021  2.2089 -0.1638
  496SOL    HW2 1488   0.608   0.020   2.362  0.1640 -1.5792  1.6847
  497SOL     OW 1489   1.581   1.146   0.535 -0.6500 -0.1790 -0.1807
  497SOL    HW1 1490   1.617   1.191   0.448 -2.5702 -1.6378 -2.0545
  497SOL    HW2 1491   1.581   1.225   0.603  2.1647 -0.2500  1.8310
  498SOL     OW 1492   2.837   2.699   0.197 -0.3243  0.5903 -0.0629
  498SOL    HW1 1493   2.903   2.713   0.118 -0.2248  1.7510  2.1656
  498SOL    HW2 1494   2.783   2.614   0.178 -0.8263 -1.6117  0.3936
  499SOL     OW 1495   2.011   2.456   0.540 -0.0152  0.1848  0.6690
  499SOL    HW1 1496   1.986   2.505   0.452 -2.7924  3.6361 -0.3212
  499SOL    HW2 1497   2.111   2.441   0.539  0.6552 -1.6449 -0.6328
  500SOL     OW 1498   0.432   0.501   2.723 -0.1645 -0.0605 -0.4548
  500SOL    HW1 1499   0.438   0.601   2.731  0.6072  0.7871  0.6069
  500SOL    HW2 1500   0.523   0.449   2.712  0.8236 -0.9771 -4.1137
  501SOL     OW 1501   1.613   3.018   1.699 -0.3141  0.2281  0.1275
  501SOL    HW1 1502   1.674   2.955   1.751 -0.2551 -1.9556  2.4783
  501SOL    HW2 1503   1.640   3.009   1.601  0.2302 -1.4527  1.7657
  502SOL     OW 1504   0.197   0.216   2.278 -0.1826 -0.1780 -0.8780
  502SOL    HW1 1505   0.227   0.145   2.347  0.8461 -2.4943  1.4714
  502SOL    HW2 1506   0.172   0.178   2.189  1.4023  0.6964  0.5641
  503SOL     OW 1507   1.640   2.377   2.130  0.3040 -0.0053 -0.4430
  503SOL    HW1 1508   1.731   2.428   2.135  2.9168  0.7813 -2.2652
  503SOL    HW2 1509   1.672   2.281   2.131  0.4146  4.1971  1.8129
  504SOL     OW 1510   1.955   0.223   1.771 -0.5767 -0.0656 -0.1285
  504SOL    HW1 1511   1.987   0.280   1.691  1.3359 -0.6386 -0.8157
  504SOL    HW2 1512   1.858   0.195   1.761 -0.0450  1.3327  0.9011
  505SOL     OW 1513   2.511   1.784   1.554  0.0816  0.1004 -0.5978
  505SOL    HW1 1514   2.546   1.687   1.556 -2.9943  1.5833 -1.1029
  505SOL    HW2 1515   2.473   1.798   1.461 -1.4674 -0.3822  3.3333
  506SOL     OW 1516   0.013   1.411   2.159 -0.5233  0.3478 -0.0617
  506SOL    HW1 1517   0.032   1.481   2.231 -1.0903 -1.2873  0.4170
  506SOL    HW2 1518   3.032   1.363   2.181  1.3924  1.3940 -0.1349
  507SOL     OW 1519   0.281   2.962   1.398  0.3608 -0.7059 -0.1718
  507SOL    HW1 1520   0.363   3.020   1.391 -1.5396  0.3309  0.2033
  507SOL    HW2 1521   0.289   2.890   1.470  1.4901 -1.6386 -0.3614
  508SOL     OW 1522   0.913   0.755   1.564  0.2368 -0.7087  0.7433
  508SOL    HW1 1523   0.884   0.675   1.624 -0.0115 -0.3980  3.5854
  508SOL    HW2 1524   0.907   0.729   1.461  2.9138 -1.6904 -1.9256
  509SOL     OW 1525   1.635   2.517   1.749 -0.6968  0.3187  0.8347
  509SOL    HW1 1526   1.671   2.582   1.676  0.0933  2.2572 -0.8305
  509SOL    HW2 1527   1.555   2.557   1.795  2.0059 -0.9107 -0.3683
  510SOL     OW 1528   2.362   1.193   2.965 -0.0923  0.3613 -0.0218
  510SOL    HW1 1529   2.294   1.123   2.980 -0.5038  0.6556  3.0953
  510SOL    HW2 1530   2.374   1.212   2.865  0.0475 -1.4144 -1.3714
  511SOL     OW 1531   0.468   1.286   1.371  0.6767 -0.3706  0.4480
  511SOL    HW1 1532   0.524   1.367   1.336  3.1873 -2.5946  0.2586
  511SOL    HW2 1533   0.528   1.213   1.411 -2.3371 -0.5198 -1.0798
  512SOL     OW 1534   2.752   1.791   0.281  0.3203 -0.0542  0.1628
  512SOL    HW1 1535   2.728   1.891   0.302 -0.2273 -0.9425 -0.2504
  512SOL    HW2 1536   2.847   1.772   0.248 -0.9437 -0.2735  1.5608
  513SOL     OW 1537   0.740   1.923   2.242 -0.0620  0.2573  0.2258
  513SOL    HW1 1538   0.834   1.936   2.279 -0.8545 -0.3186  0.0775
  513SOL    HW2 1539   0.722   1.826   2.222 -0.8193 -1.9062 -0.8917
  514SOL     OW 1540   0.192   2.278   1.898 -0.3144  0.3626  0.0567
  514SOL    HW1 1541   0.176   2.231   1.986  0.2492  1.5369 -0.5940
  514SOL    HW2 1542   0.108   2.268   1.835 -2.0305 -1.3865  0.8692
  515SOL     OW 1543   1.898   1.186   1.681  0.0852  0.4090 -0.2043
  515SOL    HW1 1544   1.919   1.153   1.776 -0.4392  2.1482 -0.6234
  515SOL    HW2 1545   1.800   1.168   1.665  3.0562 -2.7854  0.7165
  516SOL     OW 1546   2.301   2.813   0.489  0.1386 -0.4865  0.4113
  516SOL    HW1 1547   2.284   2.897   0.431  0.9630  0.7411  0.8642
  516SOL    HW2 1548   2.400   2.804   0.513 -0.2846  0.5953 -0.0255
  517SOL     OW 1549   1.068   1.592   0.032  0.2209  0.0714 -0.5461
  517SOL    HW1 1550   1.066   1.627   3.042 -1.2874 -1.3983  0.2725
  517SOL    HW2 1551   1.151   1.530   0.050  1.1419  0.5514  0.2549
  518SOL     OW 1552   1.898   2.605   1.390  0.0992 -0.5563  0.3561
  518SOL    HW1 1553   1.883   2.658   1.308  0.4121 -1.5402  2.4256
  518SOL    HW2 1554   1.918   2.508   1.366 -0.5789 -3.1434  0.7977
  519SOL     OW 1555   2.030   2.597   1.087 -0.0274  0.0440  0.2896
  519SOL    HW1 1556   2.000   2.696   1.087 -1.8276 -0.3264 -0.1916
  519SOL    HW2 1557   2.132   2.586   1.081 -0.4999 -2.2378 -0.8446
  520SOL     OW 1558   3.018   2.227   2.127 -0.3661  0.0927 -0.1900
  520SOL    HW1 1559   2.943   2.158   2.132 -1.5922  0.0113 -0.0918
  520SOL    HW2 1560   2.995   2.299   2.055 -2.0186 -1.7394 -0.4948
  521SOL     OW 1561   2.689   0.897   2.710  0.1486  0.3100  0.2825
  521SOL    HW1 1562   2.625   0.894   2.791 -1.3713 -0.0380  2.2609
  521SOL    HW2 1563   2.695   0.804   2.661 -1.6792  2.2197 -1.2160
  522SOL     OW 1564   0.800   0.849   2.492  0.1393  0.4915 -0.8821
  522SOL    HW1 1565   0.894   0.854   2.530  0.3675 -0.9773 -1.3790
  522SOL    HW2 1566   0.791   0.763   2.436 -1.5092 -0.9795  0.2921
  523SOL     OW 1567   0.172   2.090   0.763 -0.1634 -0.0900 -0.0757
  523SOL    HW1 1568   0.251   2.048   0.813 -3.0543  0.3837  0.2922
  523SOL    HW2 1569   0.185   2.185   0.726  2.6496 -2.1972 -2.6436
  524SOL     OW 1570   2.071   2.664   2.993 -0.2153 -0.6761 -0.3384
  524SOL    HW1 1571   2.088   2.565   2.989  2.4330 -0.5914 -0.1518
  524SOL    HW2 1572   2.156   2.709   3.023 -0.7395 -2.2702  1.5492
  525SOL     OW 1573   2.265   0.646   1.451  0.5661  0.0881 -0.0701
  525SOL    HW1 1574   2.363   0.635   1.421 -0.4986  0.1248 -0.3501
  525SOL    HW2 1575   2.206   0.604   1.379  0.3536  2.4118  0.4325
  526SOL     OW 1576   0.917   2.588   0.545 -0.6547 -0.2809 -0.2159
  526SOL    HW1 1577   0.882   2.553   0.633  1.2075  1.5440 -0.8048
  526SOL    HW2 1578   0.846   2.571   0.472 -1.9163  1.7785 -0.0733
  527SOL     OW 1579   2.175   2.855   0.709 -0.0199  0.3824  0.1887
  527SOL    HW1 1580   2.108   2.784   0.746  0.7092  0.0720  1.8845
  527SOL    HW2 1581   2.232   2.817   0.630  0.5427  1.2847 -1.8810
  528SOL     OW 1582   1.553   0.658   0.003  0.0992 -0.4985 -0.7103
  528SOL    HW1 1583   1.619   0.661   0.085 -0.5743  0.0107  2.0800
  528SOL    HW2 1584   1.464   0.615   0.033 -1.6672  1.4116 -0.9287
  529SOL     OW 1585   1.259   1.556   2.274  0.1112 -0.2709  0.7978
  529SOL    HW1 1586   1.361   1.574   2.259  1.8938  0.6392 -0.9064
  529SOL    HW2 1587   1.233   1.551   2.372  0.1162  1.1273  2.8958
  530SOL     OW 1588   2.235   3.028   0.280  0.8479 -0.2220  0.3803
  530SOL    HW1 1589   2.158   3.095   0.297 -1.1772  1.0970 -1.0109
  530SOL    HW2 1590   2.217   2.966   0.205 -1.0883  2.3302  1.1389
  531SOL     OW 1591   1.865   1.010   3.021  0.1149  0.2561  0.6495
  531SOL    HW1 1592   1.824   1.006   0.007  0.3841  0.2235 -2.6341
  531SOL    HW2 1593   1.868   0.910   2.991 -0.8930 -0.0023  2.7735
  532SOL     OW 1594   1.565   0.423   0.672 -0.0783  0.1285  0.4753
  532SOL    HW1 1595   1.477   0.430   0.723 -1.5539 -2.2415 -1.1656
  532SOL    HW2 1596   1.650   0.441   0.728 -0.5729 -3.1007  2.1501
  533SOL     OW 1597   0.448   0.761   2.742 -0.7515 -0.0017  0.2185
  533SOL    HW1 1598   0.485   0.838   2.684  1.3297  0.2572  0.6826
  533SOL    HW2 1599   0.363   0.786   2.789 -0.0168 -2.7220 -1.5565
  534SOL     OW 1600   1.292   0.093   0.217  0.2403 -0.1211 -0.1325
  534SOL    HW1 1601   1.300   0.067   0.314 -2.5010  2.0127 -2.9661
  534SOL    HW2 1602   1.370   0.071   0.158 -3.2858 -0.6458 -0.0460
  535SOL     OW 1603   0.842   2.595   3.036 -0.0334 -0.1540 -0.1847
  535SOL    HW1 1604   0.758   2.604   3.097 -1.1934 -2.7533  1.6450
  535SOL    HW2 1605   0.859   2.494   3.024 -1.6664 -0.9736  2.6989
  536SOL     OW 1606   0.451   2.996   0.427 -0.3921 -0.3631 -0.6285
  536SOL    HW1 1607   0.518   3.072   0.436  0.2746 -1.2943  0.8203
  536SOL    HW2 1608   0.497   2.908   0.409  0.3587  0.7209 -0.7265
  537SOL     OW 1609   1.586   0.282   0.221 -0.0766 -0.5447 -0.3154
  537SOL    HW1 1610   1.555   0.304   0.125  1.5392  3.0730  2.4663
  537SOL    HW2 1611   1.535   0.326   0.289  0.0277 -2.2401 -2.3017
  538SOL     OW 1612   2.715   2.222   2.922 -0.1114 -0.3474  0.7819
  538SOL    HW1 1613   2.659   2.280   2.984 -0.2355 -0.8917  1.3457
  538SOL    HW2 1614   2.664   2.137   2.898 -2.9403 -0.9218 -2.4802
  539SOL     OW 1615   2.597   1.754   2.971  0.1627 -0.5036 -0.4038
  539SOL    HW1 1616   2.539   1.800   3.041 -0.1385 -2.2588 -1.6837
  539SOL    HW2 1617   2.654   1.687   3.020 -4.3009  2.6429 -0.0485
  540SOL     OW 1618   1.055   2.976   2.011 -0.3167  0.6423 -0.4828
  540SOL    HW1 1619   1.078   3.029   2.094  3.0188 -0.3021  0.7692
  540SOL    HW2 1620   1.095   2.880   2.014 -1.0640  1.5358  0.4866
  541SOL     OW 1621   2.666   0.054   2.312 -0.3604  0.6929 -0.3156
  541SOL    HW1 1622   2.617   0.125   2.257  0.9401  2.4310  0.5934
  541SOL    HW2 1623   2.646   3.066   2.270  1.1613  0.4949  1.3348
  542SOL     OW 1624   0.196   0.776   2.845 -0.4811 -0.1780 -0.0853
  542SOL    HW1 1625   0.139   0.864   2.848  0.3678 -0.4834 -1.7910
  542SOL    HW2 1626   0.136   0.698   2.823 -0.9971 -0.1035  3.0906
  543SOL     OW 1627   0.222   0.813   0.833 -0.6115 -0.4571 -0.2319
  543SOL    HW1 1628   0.239   0.766   0.920 -0.9377  0.6123 -2.1005
  543SOL    HW2 1629   0.136   0.771   0.796  0.5357 -1.0116  1.6470
  544SOL     OW 1630   2.525   0.632   1.356 -0.1609  0.0512 -0.0595
  544SOL    HW1 1631   2.603   0.567   1.377  2.4543 -0.4125  2.1062
  544SOL    HW2 1632   2.565   0.723   1.364 -1.5291 -1.4826 -0.8286
  545SOL     OW 1633   1.491   1.913   0.571  0.2646  0.2883 -0.2062
  545SOL    HW1 1634   1.571   1.943   0.625 -0.9990 -0.9420 -0.8156
  545SOL    HW2 1635   1.434   1.993   0.548  2.4351  1.8634 -0.4223
  546SOL     OW 1636   2.196   2.661   1.396 -0.0097 -0.5274  0.1355
  546SOL    HW1 1637   2.156   2.569   1.380  1.1130  1.2011 -0.3455
  546SOL    HW2 1638   2.272   2.685   1.324  3.0344  1.3405 -2.1450
  547SOL     OW 1639   0.817   2.326   2.418  0.3581  0.0177  0.1856
  547SOL    HW1 1640   0.732   2.290   2.375  2.8055  1.4956  1.2419
  547SOL    HW2 1641   0.886   2.325   2.342  0.5706  1.1252 -2.8186
  548SOL     OW 1642   1.156   0.744   2.873 -0.9061 -0.3677 -0.8008
  548SOL    HW1 1643   1.148   0.697   2.961  0.8389  1.2276 -0.3035
  548SOL    HW2 1644   1.075   0.800   2.846  1.3882  1.2598  2.5483
  549SOL     OW 1645   2.684   0.774   0.223  0.0696  0.4308 -0.0079
  549SOL    HW1 1646   2.588   0.740   0.256 -4.0448 -1.1045  2.1718
  549SOL    HW2 1647   2.714   0.845   0.284  0.0279 -4.1755  2.1470
  550SOL     OW 1648   2.263   1.340   0.331 -0.6806  0.3434 -0.1900
  550SOL    HW1 1649   2.286   1.437   0.303 -0.9124 -1.7044 -0.7456
  550SOL    HW2 1650   2.161   1.334   0.330  0.7754  2.0137 -1.1565
  551SOL     OW 1651   1.109   0.348   0.881  0.4200  0.0472 -0.4034
  551SOL    HW1 1652   1.060   0.414   0.942  0.3952  1.5145 -0.9476
  551SOL    HW2 1653   1.048   0.308   0.812 -1.5779 -1.1384 -0.7420
  552SOL     OW 1654   2.353   2.887   2.325  0.3926 -0.2734  0.0434
  552SOL    HW1 1655   2.270   2.824   2.319  0.6348  2.0595 -1.2927
  552SOL    HW2 1656   2.326   2.977   2.373 -0.7784  3.0169 -1.8377
  553SOL     OW 1657   0.628   3.049   2.196 -0.7164  0.2022  0.5495
  553SOL    HW1 1658   0.668   2.957   2.191 -1.2794  0.1897  0.5303
  553SOL    HW2 1659   0.528   3.043   2.167  2.4541 -1.1460  2.6044
  554SOL     OW 1660   0.507   3.091   1.446  0.4425 -0.3014 -0.1882
  554SOL    HW1 1661   0.517   0.090   1.439  0.5238  0.4791  1.9776
  554SOL    HW2 1662   0.513   3.058   1.542  1.3658  2.2649  0.0279
  555SOL     OW 1663   2.539   1.859   2.146 -0.4534 -0.4773 -0.2134
  555SOL    HW1 1664   2.528   1.771   2.087  0.3020 -1.5948 -1.7108
  555SOL    HW2 1665   2.472   1.931   2.114 -2.2594  2.2236  0.0210
  556SOL     OW 1666   1.063   0.375   3.100  0.2054  0.2065 -0.1928
  556SOL    HW1 1667   1.092   0.301   3.031  1.4899 -2.8430 -0.0125
  556SOL    HW2 1668   0.965   0.394   3.084  2.1579 -4.0508 -1.2907
  557SOL     OW 1669   0.324   2.003   2.570 -0.4489 -0.3017 -0.0994
  557SOL    HW1 1670   0.251   2.060   2.527 -0.0537  0.6617 -2.6303
  557SOL    HW2 1671   0.372   1.956   2.494 -0.4215  3.1824 -1.5834
  558SOL     OW 1672   2.042   0.547   2.985 -0.3822 -0.5290 -0.0604
  558SOL    HW1 1673   2.126   0.529   2.932  1.4001  2.3999  1.3282
  558SOL    HW2 1674   2.007   0.460   3.024 -0.1737  1.1815  0.2579
  559SOL     OW 1675   2.117   1.912   1.744 -0.2775 -0.2594 -0.2478
  559SOL    HW1 1676   2.127   1.810   1.751  0.7898  0.5420 -0.6409
  559SOL    HW2 1677   2.017   1.943   1.753 -2.5646  1.9271 -0.1198
  560SOL     OW 1678   2.124   0.785   2.073  0.1982  0.1330 -0.2137
  560SOL    HW1 1679   2.183   0.712   2.027  0.4235 -3.5874 -0.4008
  560SOL    HW2 1680   2.181   0.832   2.137 -0.5840 -1.9622 -2.8140
  561SOL     OW 1681   0.089   0.230   2.856 -0.3083 -0.1843  0.3320
  561SOL    HW1 1682   0.026   0.278   2.791  1.6276 -1.2718 -0.0118
  561SOL    HW2 1683   0.066   0.251   2.953  0.6848 -0.7507 -0.5468
  562SOL     OW 1684   0.832   1.508   1.427  0.1972  0.8518  0.4762
  562SOL    HW1 1685   0.900   1.579   1.450 -1.5440  1.5482  0.6880
  562SOL    HW2 1686   0.809   1.445   1.508 -1.5804 -0.5887 -0.0376
  563SOL     OW 1687   1.144   0.162   2.859  0.3626  0.1041  0.6232
  563SOL    HW1 1688   1.120   0.059   2.861 -2.0763 -1.5437  2.1063
  563SOL    HW2 1689   1.240   0.172   2.826 -0.6506  1.1059  1.4717
  564SOL     OW 1690   3.052   2.239   0.808 -0.0733  0.3463 -0.7327
  564SOL    HW1 1691   0.029   2.180   0.830 -2.7515  1.7190  1.5041
  564SOL    HW2 1692   3.089   2.328   0.775  0.9131  2.3224 -2.5313
  565SOL     OW 1693   0.423   2.031   1.224 -0.3167  0.2815 -0.6183
  565SOL    HW1 1694   0.342   1.993   1.276 -0.6888  1.9065  2.6985
  565SOL    HW2 1695   0.423   2.137   1.239 -1.1339  0.2714  0.7366
  566SOL     OW 1696   1.548   2.852   2.413 -0.0743 -0.1564 -0.0014
  566SOL    HW1 1697   1.532   2.948   2.440 -0.9579  2.5391 -1.3997
  566SOL    HW2 1698   1.586   2.845   2.316 -1.2271  1.1436  0.4797
  567SOL     OW 1699   2.371   2.941   0.903 -0.0916  0.0433 -0.6792
  567SOL    HW1 1700   2.324   3.026   0.939  0.4128  1.7455 -0.1568
  567SOL    HW2 1701   2.318   2.896   0.832  1.5431  1.8377 -2.6571
  568SOL     OW 1702   1.628   1.336   0.739 -0.1145 -0.8012  0.0865
  568SOL    HW1 1703   1.546   1.315   0.793  1.0785 -2.4776 -2.7080
  568SOL    HW2 1704   1.615   1.425   0.692  0.3231 -0.4315 -1.3041
  569SOL     OW 1705   2.730   1.356   2.687  0.1599  0.1976 -0.1014
  569SOL    HW1 1706   2.664   1.433   2.704  1.8258 -0.3064 -1.2811
  569SOL    HW2 1707   2.716   1.286   2.755 -0.4374  2.1007 -2.7740
  570SOL     OW 1708   2.980   0.045   1.806 -0.6035 -0.2837  0.1749
  570SOL    HW1 1709   3.048   0.041   1.731 -0.1588 -1.6081 -0.8061
  570SOL    HW2 1710   3.003   3.080   1.878  3.1523 -0.0146  0.1792
  571SOL     OW 1711   0.319   0.031   1.878  0.1548 -0.1970  0.0469
  571SOL    HW1 1712   0.365   0.122   1.888 -0.7443 -2.1090  0.4921
  571SOL    HW2 1713   0.381   3.077   1.823 -2.1503  0.6821  1.4909
  572SOL     OW 1714   2.900   2.455   1.290  0.2373  0.6925 -0.0894
  572SOL    HW1 1715   2.915   2.482   1.194  3.0514 -2.2758 -0.6656
  572SOL    HW2 1716   2.946   2.515   1.356 -0.3005 -2.2010 -1.1172
  573SOL     OW 1717   1.072   0.653   0.021 -0.1143  0.2698 -0.4359
  573SOL    HW1 1718   0.986   0.705   0.040  0.2827  0.2203  1.3088
  573SOL    HW2 1719   1.053   0.553   0.044  0.0834 -0.8790 -0.8946
  574SOL     OW 1720   2.485   2.768   2.735 -0.2592  0.2351 -0.0831
  574SOL    HW1 1721   2.573   2.740   2.686  3.9792 -2.0307  1.2168
  574SOL    HW2 1722   2.439   2.851   2.701  0.1521 -0.8542  0.9726
  575SOL     OW 1723   1.339   2.846   1.256 -0.2152  0.0388 -0.1522
  575SOL    HW1 1724   1.377   2.803   1.344  2.7553  1.5843 -0.5665
  575SOL    HW2 1725   1.412   2.870   1.190 -1.3403 -2.0044 -2.2226
  576SOL     OW 1726   0.969   0.068   0.979  0.3631  0.7881 -0.0761
  576SOL    HW1 1727   1.071   0.080   0.971 -1.8181 -0.5595  0.6461
  576SOL    HW2 1728   0.931   0.107   1.067 -3.6612  0.1555 -0.3719
  577SOL     OW 1729   2.413   1.263   0.791  0.0323 -0.2829  0.0263
  577SOL    HW1 1730   2.444   1.282   0.700  0.8855  1.5731  0.8655
  577SOL    HW2 1731   2.342   1.191   0.789 -1.1007 -1.5503  0.9141
  578SOL     OW 1732   1.771   0.564   0.805 -0.2757  0.1474  0.3018
  578SOL    HW1 1733   1.856   0.536   0.757  1.4130  0.5306 -0.1546
  578SOL    HW2 1734   1.792   0.624   0.887 -2.3243  0.1669  0.8400
  579SOL     OW 1735   1.845   0.737   2.951  0.1350 -0.0635  0.1299
  579SOL    HW1 1736   1.935   0.690   2.944  0.0300 -0.4813  0.9534
  579SOL    HW2 1737   1.788   0.669   3.000 -0.3331 -1.6084 -1.6469
  580SOL     OW 1738   1.612   0.776   2.170 -0.3606 -0.6594 -0.4474
  580SOL    HW1 1739   1.587   0.725   2.254 -0.9722 -0.2348  0.5222
  580SOL    HW2 1740   1.533   0.814   2.126  4.1922 -1.3352 -0.4014
  581SOL     OW 1741   0.205   0.540   0.644 -0.6865  0.2754 -0.1818
  581SOL    HW1 1742   0.292   0.572   0.685  0.2506 -1.1859  0.4408
  581SOL    HW2 1743   0.194   0.574   0.549  1.9489 -1.9983  3.9812
  582SOL     OW 1744   2.745   0.164   1.853 -0.1828 -0.2765  0.2485
  582SOL    HW1 1745   2.832   0.112   1.829  0.9305  1.0993 -3.0539
  582SOL    HW2 1746   2.754   0.264   1.888 -2.3890  1.8776  1.1983
  583SOL     OW 1747   0.298   0.694   2.503  0.6886  0.5334  0.2846
  583SOL    HW1 1748   0.364   0.727   2.574  0.2547 -0.4773  1.0420
  583SOL    HW2 1749   0.315   0.600   2.468  0.1985 -0.2629  3.3487
  584SOL     OW 1750   1.777   2.088   0.050  0.5952 -0.1141  0.0149
  584SOL    HW1 1751   1.863   2.055   0.098 -0.0065 -1.9067 -0.7943
  584SOL    HW2 1752   1.805   2.144   3.071  1.7271  1.7175 -0.8773
  585SOL     OW 1753   0.512   2.246   2.999  0.2363 -0.1656 -0.2710
  585SOL    HW1 1754   0.461   2.164   2.960 -0.0027  1.7027  0.4084
  585SOL    HW2 1755   0.494   2.267   3.097 -1.7698 -0.1118  0.4352
  586SOL     OW 1756   2.216   1.933   2.690  0.1997  0.1205 -0.1048
  586SOL    HW1 1757   2.228   1.909   2.791 -0.8192  2.8365  1.3037
  586SOL    HW2 1758   2.122   1.967   2.667  1.7481  0.7611  0.1270
  587SOL     OW 1759   2.594   1.992   2.836 -0.6071  0.3183 -0.4352
  587SOL    HW1 1760   2.590   1.898   2.873  1.0984  0.0915  1.0431
  587SOL    HW2 1761   2.647   1.996   2.748 -1.2243  0.0137 -0.1127
  588SOL     OW 1762   2.995   0.401   1.008  0.7671 -0.5597 -0.2093
  588SOL    HW1 1763   2.945   0.323   0.970  3.4284  1.5724  0.1724
  588SOL    HW2 1764   3.090   0.409   0.971 -0.6493 -1.0301 -0.2582
  589SOL     OW 1765   0.917   0.182   0.286  0.3998  0.3102 -0.1199
  589SOL    HW1 1766   1.000   0.228   0.258 -2.8988 -1.4968  2.1297
  589SOL    HW2 1767   0.834   0.242   0.290  2.4102 -2.2116  0.4578
  590SOL     OW 1768   2.319   2.239   0.382 -0.0346 -0.0990 -0.3944
  590SOL    HW1 1769   2.288   2.192   0.468 -1.8691 -2.8215 -3.8430
  590SOL    HW2 1770   2.362   2.174   0.324 -1.7142 -0.3958  1.9143
  591SOL     OW 1771   0.367   2.293   1.232  0.5510 -0.2096  0.0029
  591SOL    HW1 1772   0.265   2.302   1.242 -0.5186 -0.4867 -1.6670
  591SOL    HW2 1773   0.403   2.335   1.144  0.0633  3.0626 -0.6670
  592SOL     OW 1774   1.457   0.969   1.288  0.0823  0.0961 -0.1350
  592SOL    HW1 1775   1.505   1.043   1.343 -2.3539  1.8035 -1.1599
  592SOL    HW2 1776   1.359   0.997   1.257 -1.6609  0.9619  1.1178
  593SOL     OW 1777   0.962   2.189   1.436 -0.0311 -0.0482 -0.5511
  593SOL    HW1 1778   0.941   2.100   1.393  0.8173  1.9229  1.5790
  593SOL    HW2 1779   0.876   2.237   1.465 -0.9071  0.1748  0.2479
  594SOL     OW 1780   1.347   1.744   0.222 -0.3559  1.0807 -0.3220
  594SOL    HW1 1781   1.384   1.718   0.313 -0.5759  1.3658 -3.6106
  594SOL    HW2 1782   1.330   1.659   0.167  1.4748 -2.1382 -0.5657
  595SOL     OW 1783   1.598   0.810   1.539  0.4127 -0.0695 -0.8083
  595SOL    HW1 1784   1.593   0.741   1.464  0.4463  0.5707  0.3786
  595SOL    HW2 1785   1.692   0.851   1.552  1.2505  0.4178  2.5829
  596SOL     OW 1786   3.021   0.712   1.785  0.8736  0.2804  0.4912
  596SOL    HW1 1787   2.972   0.745   1.864  2.6876 -0.6924 -2.0444
  596SOL    HW2 1788   3.046   0.786   1.719  3.1893  0.5360  1.4153
  597SOL     OW 1789   1.117   2.702   2.040  0.5993 -0.6913  0.3270
  597SOL    HW1 1790   1.020   2.675   2.017 -2.3789  1.2651 -0.8425
  597SOL    HW2 1791   1.135   2.694   2.141  0.7426  1.0376  1.6546
  598SOL     OW 1792   2.255   1.291   1.667 -0.3952 -0.5292  0.4062
  598SOL    HW1 1793   2.191   1.259   1.593  1.8016 -0.6450  0.4813
  598SOL    HW2 1794   2.291   1.388   1.638  1.6056  2.2496 -1.4154
  599SOL     OW 1795   0.725   2.933   0.091  0.1055  0.4240 -0.0246
  599SOL    HW1 1796   0.685   3.024   0.114  0.9098 -0.0552 -1.5229
  599SOL    HW2 1797   0.774   2.934   3.100  2.0358 -1.1908 -1.6532
  600SOL     OW 1798   0.145   2.406   3.087 -0.1354 -0.5299  0.2578
  600SOL    HW1 1799   0.171   2.353   0.064  0.9560  0.8772  1.0997
  600SOL    HW2 1800   0.040   2.395   3.071 -3.1414  2.5612  0.1680
  601SOL     OW 1801   0.522   0.792   1.494 -0.0685 -0.1364 -0.0407
  601SOL    HW1 1802   0.420   0.778   1.490  1.1493  0.5626 -2.0184
  601SOL    HW2 1803   0.554   0.769   1.585 -1.7683  0.5987 -0.8395
  602SOL     OW 1804   0.537   0.040   0.971  0.3701  0.0177 -0.7368
  602SOL    HW1 1805   0.598   0.009   1.048  1.1307 -0.7299 -1.4911
  602SOL    HW2 1806   0.572   3.093   0.892 -0.5778  0.8022  0.7736
  603SOL     OW 1807   0.294   0.281   2.680 -0.0090 -0.4785  0.0205
  603SOL    HW1 1808   0.239   0.252   2.760  1.6510 -0.2373  0.1643
  603SOL    HW2 1809   0.348   0.362   2.697 -0.8420  0.1506  0.9138
  604SOL     OW 1810   1.234   2.598   1.580  0.4268  0.0482 -0.2412
  604SOL    HW1 1811   1.282   2.516   1.623 -0.2336  1.3670  0.2210
  604SOL    HW2 1812   1.148   2.573   1.531 -1.9029 -0.6902 -0.6590
  605SOL     OW 1813   1.434   1.215   1.829  0.4194 -0.4118 -1.1888
  605SOL    HW1 1814   1.414   1.292   1.764  2.3796  3.2209  1.5587
  605SOL    HW2 1815   1.345   1.182   1.871 -0.1869  0.2504 -1.0771
  606SOL     OW 1816   2.096   2.894   2.800 -0.0506 -0.2578  0.2570
  606SOL    HW1 1817   2.075   2.813   2.854  0.3856  4.5667  0.2508
  606SOL    HW2 1818   2.064   2.975   2.859 -0.8744  0.3675  1.4591
  607SOL     OW 1819   1.023   0.340   1.667 -0.2623 -0.5575 -0.1807
  607SOL    HW1 1820   1.106   0.360   1.617 -2.0970  0.0472  3.1767
  607SOL    HW2 1821   0.986   0.253   1.630  1.1356  0.1580 -1.2852
  608SOL     OW 1822   0.501   2.244   2.557  0.1971 -0.0431  0.0074
  608SOL    HW1 1823   0.457   2.154   2.536  0.8618 -0.8651 -3.6860
  608SOL    HW2 1824   0.551   2.245   2.645  0.0181  0.4223 -1.4200
  609SOL     OW 1825   1.192   1.330   0.344  0.1848  0.3271  0.4584
  609SOL    HW1 1826   1.125   1.265   0.299  0.6667  0.2385  0.1662
  609SOL    HW2 1827   1.271   1.366   0.291  0.4020  1.4969  2.0984
  610SOL     OW 1828   0.373   0.254   0.956  0.2886  0.4285 -0.5163
  610SOL    HW1 1829   0.434   0.173   0.969 -2.2252 -2.6095 -0.8645
  610SOL    HW2 1830   0.377   0.308   1.043 -1.0164  1.2741  0.6748
  611SOL     OW 1831   1.214   1.249   0.611  0.1338 -0.3761  0.1818
  611SOL    HW1 1832   1.196   1.302   0.526  0.0542 -1.0360 -0.8077
  611SOL    HW2 1833   1.249   1.156   0.581 -0.9608 -0.0746 -1.6335
  612SOL     OW 1834   2.016   1.591   0.068 -0.3809  0.3488 -0.1357
  612SOL    HW1 1835   2.003   1.646   0.152 -1.9471  4.7864 -1.5358
  612SOL    HW2 1836   1.963   1.504   0.073 -0.1487  2.0081 -0.2660
  613SOL     OW 1837   1.665   1.265   0.310 -0.1399  0.3697 -0.2315
  613SOL    HW1 1838   1.738   1.299   0.246  1.2235 -1.6739 -1.7516
  613SOL    HW2 1839   1.570   1.260   0.269 -3.9341  2.1278  0.0169
  614SOL     OW 1840   2.717   0.243   2.489  0.2868  0.5538 -0.3336
  614SOL    HW1 1841   2.685   0.186   2.411 -0.4729  1.2620  2.5788
  614SOL    HW2 1842   2.806   0.202   2.530  3.9667  0.3022  1.8653
  615SOL     OW 1843   0.912   1.708   0.519  0.0802  0.5057 -0.4150
  615SOL    HW1 1844   0.987   1.714   0.589  2.2785 -0.5090 -2.0749
  615SOL    HW2 1845   0.946   1.754   0.437 -0.2404 -0.1357  2.7827
  616SOL     OW 1846   1.594   0.870   2.687  0.8589  0.4485  0.3624
  616SOL    HW1 1847   1.689   0.902   2.721  0.2836 -2.0795 -1.4968
  616SOL    HW2 1848   1.543   0.814   2.753 -1.0703  3.3572  1.2494
  617SOL     OW 1849   1.351   0.171   0.495 -0.1790 -0.1137  0.1530
  617SOL    HW1 1850   1.368   0.272   0.474 -0.0154 -0.0005  1.8649
  617SOL    HW2 1851   1.252   0.150   0.513 -0.4225  0.8208 -1.3055
  618SOL     OW 1852   2.833   2.022   2.212 -0.2871 -0.2387  0.4466
  618SOL    HW1 1853   2.763   2.065   2.277 -0.3158 -2.0920 -2.0274
  618SOL    HW2 1854   2.888   1.953   2.261  0.3231 -0.8093 -1.2637
  619SOL     OW 1855   2.248   1.727   0.699 -0.2705  0.2335 -0.5279
  619SOL    HW1 1856   2.162   1.769   0.729  0.1291  0.3121 -0.4815
  619SOL    HW2 1857   2.307   1.796   0.653  2.1063 -2.2381 -0.4302
  620SOL     OW 1858   2.391   3.100   1.585  0.0295  0.4768  0.3816
  620SOL    HW1 1859   2.320   3.043   1.543 -0.9348  0.1767  2.4207
  620SOL    HW2 1860   2.469   3.034   1.594  1.6037 -1.5316 -2.8497
  621SOL     OW 1861   2.914   2.045   0.688  0.1185  0.4199  0.0193
  621SOL    HW1 1862   2.949   1.954   0.715  1.0613  2.8806 -1.8282
  621SOL    HW2 1863   2.959   2.121   0.734 -0.7275  2.4243  0.3764
  622SOL     OW 1864   0.622   1.651   2.220 -0.3802  1.0519  0.2152
  622SOL    HW1 1865   0.551   1.618   2.287  2.5255  0.0113  0.0206
  622SOL    HW2 1866   0.715   1.622   2.250  1.8398 -0.2563 -2.2181
  623SOL     OW 1867   2.734   2.741   2.640 -0.2702 -0.2025 -1.1749
  623SOL    HW1 1868   2.745   2.843   2.625 -0.5863  1.7512  1.7105
  623SOL    HW2 1869   2.811   2.704   2.699 -0.2969 -2.0504  0.6376
  624SOL     OW 1870   1.000   1.799   0.272  0.2401  0.4861 -0.1937
  624SOL    HW1 1871   1.088   1.776   0.230 -0.3079  1.4020  0.0474
  624SOL    HW2 1872   0.933   1.816   0.201 -1.3478  1.1548 -2.0680
  625SOL     OW 1873   0.469   1.960   2.343 -0.0607  0.5234  0.3357
  625SOL    HW1 1874   0.569   1.957   2.333 -0.9170 -2.6019  0.4832
  625SOL    HW2 1875   0.425   1.957   2.251  0.3366 -2.5019 -3.6234
  626SOL     OW 1876   0.133   2.556   0.416  0.2929  0.7612 -0.5141
  626SOL    HW1 1877   0.212   2.573   0.478 -0.1649 -0.7939  1.0365
  626SOL    HW2 1878   0.103   2.458   0.407 -1.0017 -0.5915  0.8551
  627SOL     OW 1879   1.004   1.663   2.858  0.2319  0.1539  0.1928
  627SOL    HW1 1880   0.926   1.617   2.807 -2.0584  1.7856 -0.5844
  627SOL    HW2 1881   1.007   1.766   2.849  3.2125 -1.5306 -2.9282
  628SOL     OW 1882   1.683   2.206   0.711 -0.1351  0.2107 -0.1754
  628SOL    HW1 1883   1.718   2.296   0.742  0.2254 -3.3621  1.1426
  628SOL    HW2 1884   1.662   2.207   0.607  1.1051 -0.1592 -3.3331
  629SOL     OW 1885   0.847   0.568   1.748  0.4636 -0.3951 -0.0587
  629SOL    HW1 1886   0.872   0.610   1.838  0.5976 -2.8494 -3.9398
  629SOL    HW2 1887   0.907   0.489   1.723 -2.0132  0.4648 -1.8908
  630SOL     OW 1888   2.490   0.186   1.887  0.2164  0.2841  0.0982
  630SOL    HW1 1889   2.436   0.212   1.801  0.1222  1.1281  0.5408
  630SOL    HW2 1890   2.591   0.178   1.875  0.3585 -1.5160  0.2053
  631SOL     OW 1891   1.339   0.492   0.812  0.3243 -0.0517  0.5541
  631SOL    HW1 1892   1.305   0.568   0.755 -0.7061  0.8388 -0.0650
  631SOL    HW2 1893   1.260   0.437   0.845  0.1260 -0.2144 -1.1158
  632SOL     OW 1894   2.625   0.631   1.949 -0.6640 -0.2860 -0.2654
  632SOL    HW1 1895   2.554   0.594   2.014  0.8971 -0.8802  2.1068
  632SOL    HW2 1896   2.591   0.655   1.857  4.0679  0.0358  1.6897
  633SOL     OW 1897   1.260   1.219   2.880  0.1910 -0.0114 -0.0200
  633SOL    HW1 1898   1.209   1.285   2.823 -0.3630 -0.4020  3.0316
  633SOL    HW2 1899   1.290   1.144   2.822 -0.7384 -0.1454  0.6147
  634SOL     OW 1900   0.509   2.281   0.150  0.1833  0.2826  0.1689
  634SOL    HW1 1901   0.522   2.369   0.203  1.2135 -0.5058  2.5303
  634SOL    HW2 1902   0.572   2.207   0.184  1.7043 -0.0158 -0.1871
  635SOL     OW 1903   2.639   1.480   1.811 -0.5802  0.1823  0.3618
  635SOL    HW1 1904   2.622   1.581   1.811 -0.5335  0.6289  0.7842
  635SOL    HW2 1905   2.668   1.447   1.902  0.4253 -0.2055  0.4785
  636SOL     OW 1906   0.362   1.907   0.069 -0.2135  0.0127  0.1491
  636SOL    HW1 1907   0.358   1.832   0.140 -0.8182 -3.9131  3.1855
  636SOL    HW2 1908   0.272   1.947   0.052  0.7522 -0.0557  0.0590
  637SOL     OW 1909   0.092   2.281   0.431  0.2817  0.2407  0.2979
  637SOL    HW1 1910   0.162   2.237   0.371  2.3089 -1.4334  1.7427
  637SOL    HW2 1911   3.101   2.244   0.415 -1.5397 -0.0349  0.3321
  638SOL     OW 1912   2.557   2.772   0.578  0.2579  0.2358 -0.0383
  638SOL    HW1 1913   2.576   2.755   0.676  1.0083 -1.6411 -2.7423
  638SOL    HW2 1914   2.565   2.690   0.521 -1.7402  1.9159 -0.9706
  639SOL     OW 1915   1.112   0.523   0.463  0.6458 -0.0783 -0.0101
  639SOL    HW1 1916   1.090   0.620   0.448  1.3820  1.3035 -2.9636
  639SOL    HW2 1917   1.115   0.471   0.381  3.6028  1.9703  2.4094
  640SOL     OW 1918   2.277   2.189   1.673 -0.4779 -0.6113  0.3434
  640SOL    HW1 1919   2.326   2.104   1.683 -0.3335  0.0903 -2.1744
  640SOL    HW2 1920   2.314   2.262   1.738  3.3122  2.0597  0.5163
  641SOL     OW 1921   2.796   3.025   1.143 -0.0255  0.2452 -0.3480
  641SOL    HW1 1922   2.858   3.099   1.106 -0.0304 -0.5299  0.0165
  641SOL    HW2 1923   2.842   2.936   1.167  0.7553 -0.1823  0.0154
  642SOL     OW 1924   1.408   0.795   1.750  0.2801  0.2512  0.2338
  642SOL    HW1 1925   1.482   0.789   1.675 -2.0035 -1.2145 -2.5409
  642SOL    HW2 1926   1.339   0.720   1.742  0.2319  1.7057  1.3344
  643SOL     OW 1927   1.096   1.775   2.196  0.0208  0.0399 -0.1416
  643SOL    HW1 1928   1.163   1.695   2.210  0.0265  0.1023 -0.2308
  643SOL    HW2 1929   1.018   1.732   2.149  0.5086 -2.0358  0.7072
  644SOL     OW 1930   1.578   0.210   2.065 -0.1560 -0.3735  0.2283
  644SOL    HW1 1931   1.529   0.123   2.084 -0.8386  0.5693 -0.2001
  644SOL    HW2 1932   1.657   0.220   2.130  1.6026  2.5993  2.3399
  645SOL     OW 1933   1.629   1.124   1.673 -0.5436 -0.5412  0.3448
  645SOL    HW1 1934   1.600   1.126   1.575 -2.1172 -1.8924  0.3247
  645SOL    HW2 1935   1.551   1.141   1.736 -1.3462  0.9613 -1.4200
  646SOL     OW 1936   1.554   2.300   2.917 -0.2234  0.2612 -0.1514
  646SOL    HW1 1937   1.483   2.227   2.919  2.3300 -1.5699 -1.3332
  646SOL    HW2 1938   1.529   2.387   2.959  1.8958  0.5032 -4.4158
  647SOL     OW 1939   1.623   2.670   1.090 -0.5687 -0.1091 -0.3151
  647SOL    HW1 1940   1.688   2.593   1.062  1.6474  1.9523  0.1315
  647SOL    HW2 1941   1.547   2.626   1.145 -0.3844 -1.5658  0.6869
  648SOL     OW 1942   3.057   2.321   1.516 -0.0258 -0.9384 -0.1787
  648SOL    HW1 1943   3.006   2.406   1.536  1.3681 -0.0139  1.8242
  648SOL    HW2 1944   3.086   2.272   1.603  1.6333 -0.9593  2.5676
  649SOL     OW 1945   1.297   2.524   2.688 -0.0100  0.5046  0.5298
  649SOL    HW1 1946   1.281   2.507   2.789 -1.4088 -1.2566  2.0069
  649SOL    HW2 1947   1.217   2.575   2.654  3.4912 -0.6683  1.8994
  650SOL     OW 1948   2.958   2.020   0.028 -0.1607  0.1436 -1.0591
  650SOL    HW1 1949   2.963   1.956   3.056  0.8987  1.4790  0.1154
  650SOL    HW2 1950   2.922   1.965   0.102  1.0926 -2.3145 -2.2240
  651SOL     OW 1951   2.475   2.203   2.226  0.0319 -0.1618  0.1684
  651SOL    HW1 1952   2.466   2.160   2.138 -2.3855  0.2613  2.9784
  651SOL    HW2 1953   2.438   2.298   2.230  0.5047  2.9661 -0.1490
  652SOL     OW 1954   2.308   2.532   0.777  0.0382  0.1197 -0.5042
  652SOL    HW1 1955   2.389   2.596   0.777  0.5659  1.2412 -1.9457
  652SOL    HW2 1956   2.296   2.488   0.690 -1.1451  1.5385  2.1422
  653SOL     OW 1957   3.014   1.629   1.460  0.0275 -0.3827  0.6686
  653SOL    HW1 1958   3.023   1.606   1.561 -0.4741 -0.9539 -1.9291
  653SOL    HW2 1959   0.003   1.656   1.426  1.2668 -1.6174  0.3220
  654SOL     OW 1960   0.905   0.897   2.849 -0.2803  0.5405  0.1722
  654SOL    HW1 1961   0.827   0.948   2.816  2.4526 -1.2989  1.4721
  654SOL    HW2 1962   0.882   0.853   2.938 -0.1850  1.6794  0.8884
  655SOL     OW 1963   0.951   0.996   1.170 -0.2805 -0.0487  0.2924
  655SOL    HW1 1964   0.912   1.085   1.206  1.0782  2.1422  0.4723
  655SOL    HW2 1965   0.982   1.002   1.074  2.3043 -3.0777 -1.3762
  656SOL     OW 1966   1.365   2.612   1.956 -0.2144  0.1616  0.2660
  656SOL    HW1 1967   1.379   2.517   1.977 -0.4557  3.6082 -0.6963
  656SOL    HW2 1968   1.264   2.637   1.966  0.0991 -1.8739 -0.5001
  657SOL     OW 1969   1.836   1.314   0.068 -0.4091 -0.0835  0.1756
  657SOL    HW1 1970   1.909   1.244   0.086  1.4121 -0.3613 -1.0451
  657SOL    HW2 1971   1.813   1.319   3.075  2.7173 -0.2116  2.5289
  658SOL     OW 1972   1.659   2.338   1.510  0.0913  0.5747  0.0513
  658SOL    HW1 1973   1.727   2.264   1.496  0.3442  0.0741 -0.2102
  658SOL    HW2 1974   1.663   2.378   1.601 -1.0996 -0.2362  0.0425
  659SOL     OW 1975   2.995   1.742   0.156 -0.1326 -0.0839  0.2761
  659SOL    HW1 1976   3.062   1.708   0.080  2.3688 -0.3800 -1.2170
  659SOL    HW2 1977   3.048   1.805   0.218  2.6075  0.2180  2.3097
  660SOL     OW 1978   0.732   0.198   0.656 -0.3222  0.5187  1.0456
  660SOL    HW1 1979   0.812   0.255   0.637 -0.2792 -1.9030  0.4517
  660SOL    HW2 1980   0.770   0.108   0.684  1.0618 -2.8577 -1.1473
  661SOL     OW 1981   1.993   0.308   0.034  0.1347 -0.3824 -0.0920
  661SOL    HW1 1982   1.941   0.331   0.122  1.7134 -0.9234  1.4698
  661SOL    HW2 1983   1.983   0.208   0.011 -2.2772  0.0062 -1.9482
  662SOL     OW 1984   0.381   0.313   0.425 -0.0997 -0.2837  0.1327
  662SOL    HW1 1985   0.325   0.229   0.427  0.5709  0.2955  1.1652
  662SOL    HW2 1986   0.407   0.332   0.521 -0.8005 -0.2750  0.6893
  663SOL     OW 1987   1.764   2.849   2.567  0.4279 -0.5399  0.6111
  663SOL    HW1 1988   1.720   2.936   2.594 -0.2047 -0.1422 -1.8270
  663SOL    HW2 1989   1.708   2.804   2.494 -1.4757 -0.4921  2.0041
  664SOL     OW 1990   0.594   2.610   1.690  0.4574  0.4017 -0.1352
  664SOL    HW1 1991   0.511   2.556   1.663 -0.2880 -1.1855 -0.6425
  664SOL    HW2 1992   0.648   2.628   1.608 -0.9739 -1.8889 -0.6325
  665SOL     OW 1993   1.407   2.541   1.214  0.2617  0.4316  0.4075
  665SOL    HW1 1994   1.393   2.605   1.292  0.0330  2.1177 -2.0983
  665SOL    HW2 1995   1.444   2.448   1.240  1.1824  1.1754  0.4220
  666SOL     OW 1996   1.004   2.863   2.353  0.1294  0.2028 -0.5749
  666SOL    HW1 1997   1.047   2.771   2.364  0.4507 -1.2606  0.5887
  666SOL    HW2 1998   0.913   2.841   2.312 -0.5928 -1.2965  0.5488
  667SOL     OW 1999   2.647   0.659   1.677  0.1380 -0.0794 -0.1893
  667SOL    HW1 2000   2.647   0.701   1.584 -1.4527  0.7324  1.0001
  667SOL    HW2 2001   2.721   0.590   1.692  2.0381 -0.1246 -2.4414
  668SOL     OW 2002   1.367   0.331   1.606 -0.0823 -0.2064 -0.3253
  668SOL    HW1 2003   1.465   0.320   1.577  1.0179 -0.5358 -0.3757
  668SOL    HW2 2004   1.313   0.399   1.554  2.0640 -2.5201  2.5569
  669SOL     OW 2005   2.381   2.344   1.116  0.1322 -0.3840 -0.0750
  669SOL    HW1 2006   2.324   2.301   1.186  1.4320  1.2959  0.8550
  669SOL    HW2 2007   2.477   2.315   1.136  2.4058 -0.8848  1.0133
  670SOL     OW 2008   1.671   2.144   2.711  0.5719 -0.7813  0.2704
  670SOL    HW1 2009   1.739   2.084   2.762  3.0460  0.8995  0.8548
  670SOL    HW2 2010   1.626   2.215   2.771 -0.4519 -0.5890 -0.4467
  671SOL     OW 2011   0.644   0.813   0.213  0.5118 -0.1298  0.3828
  671SOL    HW1 2012   0.647   0.893   0.152 -0.8710 -0.1559 -0.1943
  671SOL    HW2 2013   0.544   0.785   0.213 -0.0551 -0.4941 -0.2877
  672SOL     OW 2014   2.724   1.186   0.015 -0.0430  0.0732 -0.2120
  672SOL    HW1 2015   2.814   1.133   0.033  0.2879 -0.1732  0.5145
  672SOL    HW2 2016   2.691   1.244   0.085 -1.2534 -1.6525 -3.0240
  673SOL     OW 2017   0.045   1.932   1.661 -0.1489 -0.1509 -0.3606
  673SOL    HW1 2018   0.038   1.960   1.561  1.2336 -0.2395 -0.8416
  673SOL    HW2 2019   0.137   1.965   1.695 -1.5328  2.6875 -0.0677
  674SOL     OW 2020   1.352   2.123   1.656  0.2750 -0.3050  0.6515
  674SOL    HW1 2021   1.252   2.098   1.639 -1.5732 -1.5793  1.2807
  674SOL    HW2 2022   1.406   2.107   1.566  1.2698  2.6525 -1.3237
  675SOL     OW 2023   0.872   1.271   1.253 -0.5174  0.0029  0.3254
  675SOL    HW1 2024   0.895   1.344   1.321 -0.5830  0.6885 -1.2462
  675SOL    HW2 2025   0.875   1.308   1.158  0.4355  0.5194  1.1619
  676SOL     OW 2026   2.265   0.672   0.974 -0.0770 -0.4453  0.0873
  676SOL    HW1 2027   2.255   0.712   0.877 -1.7603  0.6555 -2.3752
  676SOL    HW2 2028   2.360   0.685   1.009  0.4504 -0.8463 -1.7485
  677SOL     OW 2029   2.475   0.439   0.275  0.2130  0.0250  0.0284
  677SOL    HW1 2030   2.434   0.353   0.308 -1.8427 -4.0887  0.7737
  677SOL    HW2 2031   2.456   0.441   0.174 -0.3151 -1.3250 -0.2167
  678SOL     OW 2032   2.802   1.272   1.144  0.0529  0.0937 -0.4789
  678SOL    HW1 2033   2.837   1.327   1.068 -0.9975 -1.0889 -0.9156
  678SOL    HW2 2034   2.729   1.207   1.119  1.5609  0.4808  1.5240
  679SOL     OW 2035   2.434   0.414   0.023 -0.0958  0.3334  0.7261
  679SOL    HW1 2036   2.437   0.439   3.028 -0.3965 -0.6772 -0.5266
  679SOL    HW2 2037   2.340   0.429   0.063  2.2191  1.0379  1.7624
  680SOL     OW 2038   0.423   1.274   2.306  0.5025  0.5576 -0.0643
  680SOL    HW1 2039   0.512   1.247   2.279 -4.0476  1.0937 -0.2168
  680SOL    HW2 2040   0.388   1.214   2.378 -0.1016  2.6789 -1.5096
  681SOL     OW 2041   2.690   2.211   1.674 -0.4804 -0.2987 -0.0634
  681SOL    HW1 2042   2.782   2.171   1.682  1.0181 -0.3460 -0.6098
  681SOL    HW2 2043   2.616   2.145   1.667 -2.6554  2.0536 -1.3246
  682SOL     OW 2044   0.610   1.834   3.058 -0.1763 -0.1071  0.1288
  682SOL    HW1 2045   0.634   1.838   2.955 -1.1978  0.7763 -0.2158
  682SOL    HW2 2046   0.517   1.869   3.078 -0.2147 -0.3704  1.0364
  683SOL     OW 2047   2.510   2.019   0.983  0.5232  0.3983  0.2795
  683SOL    HW1 2048   2.566   1.936   0.977 -2.4879  2.0954 -1.5348
  683SOL    HW2 2049   2.539   2.072   1.066 -1.2880 -0.6758  1.8141
  684SOL     OW 2050   2.724   1.041   1.854  0.0215  0.2134 -0.1445
  684SOL    HW1 2051   2.630   1.038   1.900 -2.0656 -4.8729 -0.1644
  684SOL    HW2 2052   2.791   1.084   1.919 -0.8243  0.0959  0.5998
  685SOL     OW 2053   1.035   0.950   0.911  0.4101 -0.4129  0.1147
  685SOL    HW1 2054   1.127   0.978   0.943 -4.5273  2.2615 -3.3777
  685SOL    HW2 2055   1.027   0.926   0.812  0.1142 -0.6686  1.6847
  686SOL     OW 2056   0.634   0.313   2.961 -0.2115 -0.6038 -0.3509
  686SOL    HW1 2057   0.682   0.224   2.949  1.3274  0.2115  2.0878
  686SOL    HW2 2058   0.553   0.286   3.013  1.0341  1.7153 -0.8464
  687SOL     OW 2059   0.462   2.268   2.303  0.4686  0.1142 -0.0152
  687SOL    HW1 2060   0.439   2.168   2.283  0.4334  1.3733  1.3580
  687SOL    HW2 2061   0.465   2.277   2.404 -1.7143  0.3087 -2.3623
  688SOL     OW 2062   2.061   0.331   1.535  0.0466  0.0162 -0.1710
  688SOL    HW1 2063   2.130   0.346   1.466 -2.0598 -0.0883  2.2899
  688SOL    HW2 2064   1.981   0.284   1.485 -3.3644 -2.4108 -1.7312
  689SOL     OW 2065   1.925   1.011   0.566  0.2228 -0.2430  0.5154
  689SOL    HW1 2066   1.903   0.912   0.575 -2.0059 -1.8725  1.4315
  689SOL    HW2 2067   2.016   1.024   0.528  0.2296 -1.6823 -0.1111
  690SOL     OW 2068   3.083   0.882   1.560 -0.5715 -0.6358 -0.6545
  690SOL    HW1 2069   3.024   0.961   1.586 -0.3379 -1.1996  1.7690
  690SOL    HW2 2070   3.044   0.834   1.479 -0.4776 -0.4096 -0.2009
  691SOL     OW 2071   0.046   1.008   1.890  0.2557  0.0666  0.2363
  691SOL    HW1 2072   0.105   1.034   1.813 -0.3473 -2.1618 -0.2796
  691SOL    HW2 2073   3.083   1.081   1.907 -1.1945  1.0431  0.7359
  692SOL     OW 2074   0.849   0.867   2.035 -0.4030 -0.0805 -0.0889
  692SOL    HW1 2075   0.890   0.772   2.016  0.0817  1.1240  0.4520
  692SOL    HW2 2076   0.818   0.913   1.954 -2.4137 -2.0053  2.2669
  693SOL     OW 2077   0.252   1.317   2.077 -0.7534 -0.0160  0.0818
  693SOL    HW1 2078   0.159   1.342   2.109 -0.7580 -0.4153 -3.0102
  693SOL    HW2 2079   0.314   1.326   2.157  3.8320  3.0238  2.0475
  694SOL     OW 2080   1.469   1.660   0.455 -0.4251  0.2729  0.2591
  694SOL    HW1 2081   1.558   1.608   0.464  2.2146  0.0525  0.7135
  694SOL    HW2 2082   1.476   1.750   0.504 -2.1660  0.8738 -3.4063
  695SOL     OW 2083   0.565   0.968   1.134 -0.3673 -0.1360  0.4581
  695SOL    HW1 2084   0.622   0.944   1.053 -0.8344 -1.6745 -0.3291
  695SOL    HW2 2085   0.487   1.028   1.106  1.8638  2.5777  0.3141
  696SOL     OW 2086   0.385   2.578   0.532 -0.2330  0.0112 -0.3577
  696SOL    HW1 2087   0.434   2.635   0.606  1.6698  0.6920  1.7189
  696SOL    HW2 2088   0.426   2.485   0.543  1.2829 -1.6126  0.9239
  697SOL     OW 2089   1.227   0.525   1.457  0.8335  0.7533  0.3656
  697SOL    HW1 2090   1.311   0.563   1.420 -1.8317 -0.1237  2.0955
  697SOL    HW2 2091   1.161   0.521   1.378 -0.3867  2.0477 -1.6621
  698SOL     OW 2092   1.659   1.561   1.697  0.5935 -0.1146 -0.3201
  698SOL    HW1 2093   1.567   1.526   1.667  1.2008  0.1336  0.7828
  698SOL    HW2 2094   1.685   1.649   1.649  1.7339 -3.0768  1.1379
  699SOL     OW 2095   3.049   0.587   2.408  0.1889  0.0638  0.6029
  699SOL    HW1 2096   3.007   0.635   2.328 -0.4654  0.7483  1.3470
  699SOL    HW2 2097   3.093   0.660   2.464 -0.6322  1.7401  2.1894
  700SOL     OW 2098   1.599   2.599   0.776 -0.1169  0.3525 -0.5823
  700SOL    HW1 2099   1.568   2.691   0.801 -1.4171  0.5415  3.2938
  700SOL    HW2 2100   1.530   2.529   0.803  1.0780  2.0133 -0.4077
  701SOL     OW 2101   0.248   1.586   2.572  0.4188 -0.3967  0.3548
  701SOL    HW1 2102   0.226   1.499   2.616 -1.2790  0.7035 -1.7021
  701SOL    HW2 2103   0.283   1.656   2.634  0.1684 -0.0241 -2.6711
  702SOL     OW 2104   0.377   0.287   3.103 -0.4053 -0.0331  1.1485
  702SOL    HW1 2105   0.372   0.189   3.067  0.6788 -0.1854 -0.2457
  702SOL    HW2 2106   0.340   0.354   3.036  0.1002 -0.7963  0.0038
  703SOL     OW 2107   1.630   3.075   2.651 -0.3486  0.0056  0.2710
  703SOL    HW1 2108   1.660   0.049   2.717  1.0341  1.5731  1.4802
  703SOL    HW2 2109   1.578   0.009   2.571 -1.0795 -0.0825  2.5999
  704SOL     OW 2110   2.665   2.018   0.618 -0.1802 -0.2314 -0.0788
  704SOL    HW1 2111   2.671   2.028   0.516  0.0596 -0.8959 -0.9909
  704SOL    HW2 2112   2.760   2.014   0.652  1.5630  0.7274 -0.6531
  705SOL     OW 2113   2.829   1.858   1.930 -0.3337 -0.1014  0.1293
  705SOL    HW1 2114   2.758   1.824   1.871  1.7148  0.3201  0.2986
  705SOL    HW2 2115   2.794   1.893   2.014 -0.7987  1.9830  0.8110
  706SOL     OW 2116   3.071   2.833   1.003 -0.5942 -0.3716 -0.0370
  706SOL    HW1 2117   3.009   2.867   0.927  1.0679  0.4634 -3.1803
  706SOL    HW2 2118   0.048   2.890   1.019  1.2421  1.7664  1.4648
  707SOL     OW 2119   0.837   2.953   0.348  0.7879 -0.3900 -0.4449
  707SOL    HW1 2120   0.914   2.890   0.363 -0.4775 -0.6837 -1.1045
  707SOL    HW2 2121   0.812   2.961   0.247  0.0495 -1.6490 -2.8371
  708SOL     OW 2122   0.675   2.259   1.415  0.4339  0.2001 -0.4128
  708SOL    HW1 2123   0.673   2.265   1.312 -0.9929 -1.7261 -1.1306
  708SOL    HW2 2124   0.582   2.253   1.461 -0.2903 -2.0018 -0.1794
  709SOL     OW 2125   1.481   0.018   2.434  0.4294 -0.1673 -0.3112
  709SOL    HW1 2126   1.416   0.092   2.461 -0.4744 -0.6437  2.9188
  709SOL    HW2 2127   1.446   3.085   2.344 -3.1152  0.6579 -3.0286
  710SOL     OW 2128   1.522   2.857   2.750  0.2368  0.2462 -0.4025
  710SOL    HW1 2129   1.589   2.784   2.750 -2.1071  3.4227 -0.8116
  710SOL    HW2 2130   1.562   2.943   2.717  1.4228 -1.0832 -0.7897
  711SOL     OW 2131   1.393   2.072   2.866 -0.2356 -0.8962 -0.0766
  711SOL    HW1 2132   1.322   2.020   2.925 -0.7496 -0.2174 -0.2524
  711SOL    HW2 2133   1.353   2.129   2.790  0.2111 -1.9566  3.2021
  712SOL     OW 2134   0.997   1.935   2.821  0.3879 -1.0041  0.1130
  712SOL    HW1 2135   1.041   1.905   2.734 -0.3441 -0.4155  0.8785
  712SOL    HW2 2136   0.903   1.966   2.802  3.2678 -0.6888  1.3808
  713SOL     OW 2137   1.081   0.861   1.809  0.0712  0.1942  0.6423
  713SOL    HW1 2138   0.997   0.864   1.751  4.3687  0.7549 -2.2579
  713SOL    HW2 2139   1.103   0.761   1.824  0.7239  1.1245 -0.1195
  714SOL     OW 2140   1.347   1.451   1.099 -0.1033 -0.1401 -0.4844
  714SOL    HW1 2141   1.338   1.498   1.007  0.2712  0.0813  1.6812
  714SOL    HW2 2142   1.377   1.508   1.172 -0.7066 -2.2934 -0.5616
  715SOL     OW 2143   2.423   0.288   0.949 -0.4066  0.0566 -0.0952
  715SOL    HW1 2144   2.478   0.372   0.946 -0.4925 -0.0025 -1.8855
  715SOL    HW2 2145   2.326   0.306   0.973 -0.8212  0.8865  0.9155
  716SOL     OW 2146   0.458   2.739   0.740 -0.2825  0.1608 -0.4716
  716SOL    HW1 2147   0.463   2.683   0.825 -1.5892  0.3570 -0.3908
  716SOL    HW2 2148   0.492   2.835   0.753 -0.4410  1.1572  0.4482
  717SOL     OW 2149   2.858   0.526   0.194  0.4073  0.5266  0.0536
  717SOL    HW1 2150   2.821   0.473   0.114  0.8785  2.8689  1.1205
  717SOL    HW2 2151   2.801   0.604   0.219 -0.4389 -1.4979  2.0728
  718SOL     OW 2152   1.704   1.842   1.106  0.0666 -0.3632  0.1895
  718SOL    HW1 2153   1.775   1.778   1.069 -0.5752  1.0282  0.7152
  718SOL    HW2 2154   1.707   1.927   1.046  0.4114 -2.7706 -1.7721
  719SOL     OW 2155   2.798   2.189   0.932  0.5877 -0.7374 -0.0237
  719SOL    HW1 2156   2.725   2.210   0.864 -0.0840 -1.0191  0.6907
  719SOL    HW2 2157   2.891   2.207   0.890  0.4132 -0.8485  1.4258
  720SOL     OW 2158   0.755   0.957   0.889 -0.3606 -0.2718  0.3075
  720SOL    HW1 2159   0.855   0.944   0.901  0.4456  1.2949 -0.2633
  720SOL    HW2 2160   0.739   1.057   0.867 -1.1868 -1.3023 -1.0530
  721SOL     OW 2161   1.314   0.672   1.063  0.0216  0.0473  0.0434
  721SOL    HW1 2162   1.377   0.629   1.000 -3.5693  1.5378  0.6415
  721SOL    HW2 2163   1.218   0.641   1.046  0.2702 -1.7956  0.5586
  722SOL     OW 2164   1.119   1.410   2.082  0.1272 -0.7829 -0.4347
  722SOL    HW1 2165   1.175   1.443   2.159 -0.5509  0.1859  1.6481
  722SOL    HW2 2166   1.031   1.372   2.123  0.2067  1.5568  1.3755
  723SOL     OW 2167   0.988   2.864   1.466  0.1789 -0.5679  0.0553
  723SOL    HW1 2168   0.989   2.962   1.438 -0.8501 -0.1010  0.2349
  723SOL    HW2 2169   1.055   2.854   1.538  1.3326  0.6901 -1.5115
  724SOL     OW 2170   2.111   2.054   1.469 -0.3045  0.1625  0.0904
  724SOL    HW1 2171   2.119   1.955   1.445 -0.5560  0.2685  3.8065
  724SOL    HW2 2172   2.149   2.068   1.561  0.7257 -1.8721 -2.3863
  725SOL     OW 2173   1.077   2.794   1.222 -0.2806  0.2985 -0.1147
  725SOL    HW1 2174   1.023   2.810   1.305  2.1413 -0.2757 -0.0265
  725SOL    HW2 2175   1.175   2.811   1.246 -3.1101  0.6808  0.4311
  726SOL     OW 2176   1.878   2.784   0.029 -0.2650  0.7624 -0.3695
  726SOL    HW1 2177   1.803   2.713   0.035  0.0967 -0.4854 -0.5746
  726SOL    HW2 2178   1.952   2.744   3.074 -1.3211  2.2417  3.5876
  727SOL     OW 2179   1.437   1.620   0.870 -0.0545  0.1797 -0.0817
  727SOL    HW1 2180   1.372   1.601   0.793  2.6229  1.7532 -2.0332
  727SOL    HW2 2181   1.533   1.623   0.840 -1.2238  0.2622  5.1090
  728SOL     OW 2182   2.099   2.941   2.129 -0.0401 -0.2020 -0.5888
  728SOL    HW1 2183   2.071   3.007   2.054  1.6744 -0.3019 -1.1297
  728SOL    HW2 2184   2.198   2.953   2.152 -1.4953 -1.4772 -2.1898
  729SOL     OW 2185   2.429   1.844   1.305 -0.1956 -0.7862  0.2738
  729SOL    HW1 2186   2.469   1.935   1.284 -1.5577  1.1964  1.2961
  729SOL    HW2 2187   2.403   1.793   1.224 -1.2743  1.4427 -0.2192
  730SOL     OW 2188   1.765   0.463   2.702  0.7155 -0.3811  0.4304
  730SOL    HW1 2189   1.840   0.397   2.679 -2.5635 -0.7210 -0.7630
  730SOL    HW2 2190   1.782   0.555   2.655  0.8101  1.1620 -0.4235
  731SOL     OW 2191   0.490   0.250   1.372 -0.2422  0.5029 -0.0478
  731SOL    HW1 2192   0.491   0.335   1.430  2.8251  1.4399 -0.3050
  731SOL    HW2 2193   0.499   0.270   1.272  1.4272 -0.9821 -1.0881
  732SOL     OW 2194   1.912   0.312   1.282  0.0655 -0.0712  0.5661
  732SOL    HW1 2195   1.820   0.364   1.284 -0.3821 -0.1835 -1.3066
  732SOL    HW2 2196   1.904   0.227   1.336 -0.0304 -0.0816  0.1106
  733SOL     OW 2197   0.835   1.031   1.570 -0.0941  0.0738  0.1590
  733SOL    HW1 2198   0.771   1.043   1.493  0.8693 -1.5279  0.0315
  733SOL    HW2 2199   0.888   0.945   1.568  1.6068  2.6427 -2.3440
  734SOL     OW 2200   2.509   1.849   0.089 -0.0224 -0.5471  0.0469
  734SOL    HW1 2201   2.424   1.796   0.103  0.9780 -0.3777  2.1839
  734SOL    HW2 2202   2.573   1.840   0.169  2.8444 -2.4022  1.2742
  735SOL     OW 2203   0.390   0.718   0.210 -0.5003  0.5297  0.6128
  735SOL    HW1 2204   0.342   0.721   0.121  0.0104 -1.7857  1.8036
  735SOL    HW2 2205   0.430   0.627   0.230  1.3432  0.5743 -0.7453
  736SOL     OW 2206   1.954   2.607   2.572 -0.7259 -0.0574 -0.2849
  736SOL    HW1 2207   1.924   2.565   2.660 -1.2567  0.4222 -0.7120
  736SOL    HW2 2208   1.943   2.707   2.581 -0.2968 -2.1766  3.5186
  737SOL     OW 2209   1.082   1.854   0.976  0.0088 -0.2585  0.0829
  737SOL    HW1 2210   1.098   1.770   1.030 -0.8704  2.6616 -1.7166
  737SOL    HW2 2211   1.097   1.930   1.046 -0.9561 -0.5513  2.4536
  738SOL     OW 2212   1.922   2.744   2.063 -0.0497  0.3089  0.1956
  738SOL    HW1 2213   1.992   2.808   2.104  0.1793  1.8852 -1.9006
  738SOL    HW2 2214   1.893   2.675   2.131  0.4377 -0.6267 -1.2523
  739SOL     OW 2215   1.437   2.175   2.437 -0.5257 -0.4710 -0.1947
  739SOL    HW1 2216   1.503   2.095   2.446  1.2415 -2.8230  0.5575
  739SOL    HW2 2217   1.489   2.262   2.414  0.2900  2.8053 -0.8785
  740SOL     OW 2218   1.859   2.383   1.815 -0.0875 -0.5258  0.1542
  740SOL    HW1 2219   1.936   2.440   1.861  0.3884  1.5798 -0.3144
  740SOL    HW2 2220   1.779   2.446   1.801  0.4183 -0.6360 -0.0986
  741SOL     OW 2221   2.373   1.640   2.554  0.2934 -0.5965 -0.4196
  741SOL    HW1 2222   2.336   1.561   2.495  1.0253 -0.6676 -0.3520
  741SOL    HW2 2223   2.442   1.694   2.505 -0.6172 -1.5959 -2.4098
  742SOL     OW 2224   0.713   1.311   3.001  0.1794  0.3216 -0.3774
  742SOL    HW1 2225   0.730   1.408   3.008  1.5535 -2.2628  0.9647
  742SOL    HW2 2226   0.657   1.287   2.918  3.4587  0.9813  0.0640
  743SOL     OW 2227   1.900   1.258   2.445 -0.1327  0.2824 -0.2607
  743SOL    HW1 2228   1.883   1.188   2.379  1.7053  0.5823  4.1412
  743SOL    HW2 2229   1.992   1.305   2.422 -0.4589  2.0234  1.3006
  744SOL     OW 2230   2.184   2.956   1.444 -0.1141  0.0220  0.0543
  744SOL    HW1 2231   2.232   2.997   1.367 -0.3737 -0.2494 -0.8945
  744SOL    HW2 2232   2.170   2.855   1.429 -1.6377  0.9751  2.0302
  745SOL     OW 2233   2.587   1.156   0.993  0.2394  0.2321 -0.4498
  745SOL    HW1 2234   2.513   1.133   1.063 -3.4236  0.3682  1.0761
  745SOL    HW2 2235   2.545   1.205   0.910 -1.9073 -0.1326 -0.2555
  746SOL     OW 2236   2.396   1.653   1.073 -0.4921  0.5660  0.1537
  746SOL    HW1 2237   2.349   1.625   0.987  2.4320 -2.1007  0.5530
  746SOL    HW2 2238   2.495   1.654   1.061 -0.6647  0.5870 -2.0271
  747SOL     OW 2239   2.007   2.596   0.298  0.3249 -0.5521  0.4699
  747SOL    HW1 2240   1.968   2.687   0.306 -0.9071 -3.4797 -0.4015
  747SOL    HW2 2241   2.098   2.599   0.247  1.5349  1.6848 -1.6461
  748SOL     OW 2242   1.005   2.212   0.092  0.3991 -0.3316  0.1057
  748SOL    HW1 2243   1.001   2.110   0.100 -2.8528 -0.4229  1.2803
  748SOL    HW2 2244   0.928   2.239   0.028 -1.0186  0.2410  1.2631
  749SOL     OW 2245   2.847   0.369   2.223 -0.2822 -0.5198  0.0812
  749SOL    HW1 2246   2.917   0.321   2.278 -0.2040  0.5948 -0.9434
  749SOL    HW2 2247   2.870   0.470   2.208 -0.8960  0.7016 -2.2226
  750SOL     OW 2248   1.186   0.602   1.735  0.4533  0.4278  0.5615
  750SOL    HW1 2249   1.254   0.534   1.777 -0.6294  0.2701  2.7798
  750SOL    HW2 2250   1.171   0.584   1.638 -1.5166 -0.2008 -1.1927
  751SOL     OW 2251   2.560   2.694   2.064  0.4767 -0.1724  0.1818
  751SOL    HW1 2252   2.611   2.650   1.988  0.3664  1.3795  0.3471
  751SOL    HW2 2253   2.461   2.670   2.067 -0.0815  1.8037 -1.2300
  752SOL     OW 2254   2.050   1.441   1.018  0.2054  0.3524 -0.2526
  752SOL    HW1 2255   1.978   1.374   1.002 -1.4642  3.1566  0.7352
  752SOL    HW2 2256   2.125   1.431   0.951 -0.6860 -2.3258  0.5980
  753SOL     OW 2257   1.525   1.144   2.256 -0.1255  0.3253  0.2545
  753SOL    HW1 2258   1.569   1.145   2.163  0.1477 -0.9401  1.8419
  753SOL    HW2 2259   1.427   1.108   2.262  0.4545 -0.9917  0.7578
  754SOL     OW 2260   0.103   2.530   1.111  0.0547  0.0401  0.1228
  754SOL    HW1 2261   0.148   2.606   1.160 -1.1469  1.1249  0.8834
  754SOL    HW2 2262   0.092   2.453   1.179  0.7394 -0.1538  0.7617
  755SOL     OW 2263   2.316   3.013   1.219 -0.2443  0.1225 -0.1827
  755SOL    HW1 2264   2.396   3.075   1.230 -2.9631 -0.1251  0.7855
  755SOL    HW2 2265   2.345   2.917   1.225  1.1376 -1.7134  0.9842
  756SOL     OW 2266   1.667   1.868   2.072  0.0200  0.2357 -0.0363
  756SOL    HW1 2267   1.666   1.782   2.017  0.9631  0.3581  0.9511
  756SOL    HW2 2268   1.747   1.854   2.138  1.7093 -2.5455  0.6490
  757SOL     OW 2269   3.035   3.052   2.070  0.2177  0.6029  0.1783
  757SOL    HW1 2270   2.981   3.083   2.149  1.0830 -0.5547 -2.0796
  757SOL    HW2 2271   0.002   0.015   2.052 -0.4380 -1.0425  0.8105
  758SOL     OW 2272   0.422   2.649   1.393 -1.0241 -0.3716  0.4340
  758SOL    HW1 2273   0.518   2.655   1.412  2.8620  1.4695 -2.9835
  758SOL    HW2 2274   0.365   2.608   1.469 -4.5921 -0.5658 -0.3537
  759SOL     OW 2275   2.127   1.220   1.182 -0.0221 -0.1565 -0.2856
  759SOL    HW1 2276   2.214   1.190   1.141 -2.9554  0.4122 -1.6119
  759SOL    HW2 2277   2.117   1.320   1.180  1.6137  0.2626  1.2756
  760SOL     OW 2278   1.611   0.288   1.510 -0.1756 -0.5462 -0.2209
  760SOL    HW1 2279   1.689   0.260   1.570  1.8535 -0.3146  0.0114
  760SOL    HW2 2280   1.643   0.343   1.432 -0.0599 -2.1262  0.5493
  761SOL     OW 2281   2.044   0.195   0.814 -0.3903  0.2583 -0.5433
  761SOL    HW1 2282   1.985   0.148   0.880  1.4075  0.9816  1.5335
  761SOL    HW2 2283   2.110   0.128   0.770  1.1681 -1.9140  3.0087
  762SOL     OW 2284   1.948   2.862   0.303  0.5792 -0.0848  0.0069
  762SOL    HW1 2285   1.987   2.954   0.326 -1.0283 -1.0514  1.1425
  762SOL    HW2 2286   1.914   2.846   0.207  0.3692  0.0706  0.2499
  763SOL     OW 2287   0.963   0.475   1.289 -0.0068  0.0252 -0.2678
  763SOL    HW1 2288   0.898   0.416   1.341  0.2446  1.2093  0.3030
  763SOL    HW2 2289   0.960   0.575   1.309 -0.4982  0.8483  1.0054
  764SOL     OW 2290   2.745   2.403   2.561  0.3842  0.3059  0.2610
  764SOL    HW1 2291   2.842   2.389   2.573 -2.4791  1.8092 -2.1795
  764SOL    HW2 2292   2.724   2.495   2.514  0.8212  0.3062  0.9302
  765SOL     OW 2293   2.927   1.087   2.481  0.2939 -0.0255 -0.5572
  765SOL    HW1 2294   2.932   1.076   2.380  0.7757  1.4678 -0.3439
  765SOL    HW2 2295   2.956   1.002   2.529 -0.6821  1.8633 -1.7303
  766SOL     OW 2296   2.746   1.402   2.419 -0.1445  0.8409  0.8635
  766SOL    HW1 2297   2.737   1.353   2.511 -0.9738 -0.2011  2.7612
  766SOL    HW2 2298   2.661   1.458   2.395 -2.0527  1.0293 -0.6138
  767SOL     OW 2299   0.405   2.024   1.656  0.2344 -0.3618 -0.2258
  767SOL    HW1 2300   0.502   2.058   1.652 -0.0234  0.7656 -0.3630
  767SOL    HW2 2301   0.400   1.952   1.727  0.5509  0.1436 -3.0207
  768SOL     OW 2302   0.808   0.738   3.075 -0.7757 -0.4399 -0.4527
  768SOL    HW1 2303   0.788   0.648   3.033 -0.5342 -2.5601  4.0529
  768SOL    HW2 2304   0.743   0.760   0.049  1.2668 -0.6342  0.9356
  769SOL     OW 2305   1.512   2.556   3.013 -0.2051 -0.4332  0.6186
  769SOL    HW1 2306   1.421   2.601   3.011  1.3748  0.3000  0.9674
  769SOL    HW2 2307   1.578   2.612   3.069 -1.5552  0.0699  0.0930
  770SOL     OW 2308   1.071   0.181   2.489 -0.2282  0.1586 -0.4069
  770SOL    HW1 2309   1.029   0.202   2.397 -0.4505 -1.5148 -0.1046
  770SOL    HW2 2310   1.109   0.090   2.484 -3.0725 -0.5180 -1.7829
  771SOL     OW 2311   0.627   2.525   0.915 -0.0833 -0.0260  0.5625
  771SOL    HW1 2312   0.693   2.482   0.848 -0.4520 -3.4606 -0.7574
  771SOL    HW2 2313   0.675   2.602   0.961 -0.0053  1.8950  0.6672
  772SOL     OW 2314   2.805   0.971   0.352  0.0315  0.5465 -0.3895
  772SOL    HW1 2315   2.739   1.019   0.418 -1.6902 -1.0654 -0.3584
  772SOL    HW2 2316   2.870   1.038   0.312 -0.9153  1.5906 -0.5784
  773SOL     OW 2317   1.772   0.942   1.819 -0.0531  0.3688  0.8223
  773SOL    HW1 2318   1.858   0.919   1.773 -0.0700 -0.4940 -0.1466
  773SOL    HW2 2319   1.716   1.016   1.768 -3.2645  1.7947 -1.2802
  774SOL     OW 2320   0.501   0.339   0.729  0.0947 -0.5815  0.0729
  774SOL    HW1 2321   0.585   0.287   0.709 -0.7833  0.7218 -0.0694
  774SOL    HW2 2322   0.460   0.308   0.816  0.2768  0.6995 -2.6167
  775SOL     OW 2323   1.530   3.092   0.538  0.1799  0.1262 -0.3137
  775SOL    HW1 2324   1.493   3.021   0.473 -1.3006 -2.6388  1.1567
  775SOL    HW2 2325   1.472   0.072   0.526  2.1853 -0.2881 -0.2742
  776SOL     OW 2326   2.343   0.417   2.437  0.1840 -0.4583 -0.0856
  776SOL    HW1 2327   2.293   0.506   2.466 -0.4676 -0.4634  1.1042
  776SOL    HW2 2328   2.287   0.357   2.379  0.4460 -1.2374  3.5752
  777SOL     OW 2329   1.456   1.282   3.044  0.0277 -0.0747  0.3425
  777SOL    HW1 2330   1.542   1.268   2.997 -0.4077 -0.5357  2.0845
  777SOL    HW2 2331   1.375   1.259   2.981 -1.4035 -1.5798 -1.7973
  778SOL     OW 2332   0.127   2.677   0.162 -0.0906 -0.3060  0.4018
  778SOL    HW1 2333   0.117   2.606   0.235 -0.0249  0.1764  2.2217
  778SOL    HW2 2334   0.129   2.772   0.203  2.2167 -0.4031  0.8474
  779SOL     OW 2335   0.256   1.652   0.254  0.1728 -0.3394 -0.0706
  779SOL    HW1 2336   0.229   1.564   0.303  0.2261 -0.2939 -0.6981
  779SOL    HW2 2337   0.357   1.651   0.247  0.9966 -2.1828 -0.2913
  780SOL     OW 2338   2.067   3.097   1.903 -0.2120 -0.7416 -0.3288
  780SOL    HW1 2339   2.069   3.025   1.827  0.2119 -0.2811  0.4002
  780SOL    HW2 2340   2.013   0.079   1.885 -0.0339  0.1873 -0.1370
  781SOL     OW 2341   1.564   1.190   1.430  0.1096 -0.3997 -0.4402
  781SOL    HW1 2342   1.476   1.244   1.417 -1.4808  3.6489 -2.1107
  781SOL    HW2 2343   1.634   1.245   1.382 -0.6501 -3.8600  0.4008
  782SOL     OW 2344   1.923   2.151   1.995  1.1179 -0.0506 -0.4469
  782SOL    HW1 2345   1.896   2.155   1.896 -0.7224 -1.2358 -1.6099
  782SOL    HW2 2346   1.838   2.134   2.052 -1.3201  0.1169 -0.8370
  783SOL     OW 2347   1.384   0.541   1.927 -0.1238  0.6173  0.3165
  783SOL    HW1 2348   1.478   0.582   1.916  1.8487  0.2837  0.9655
  783SOL    HW2 2349   1.386   0.440   1.931 -0.1527 -2.5042  3.0173
  784SOL     OW 2350   1.835   1.039   2.306  0.6451  0.2334  0.3003
  784SOL    HW1 2351   1.732   1.048   2.310  1.4140  0.2731  1.2923
  784SOL    HW2 2352   1.855   0.958   2.246 -1.4645  0.7116 -2.8754
  785SOL     OW 2353   1.888   0.391   0.266  0.2299 -0.3360  0.2872
  785SOL    HW1 2354   1.915   0.473   0.323  0.6915  2.1240  0.6865
  785SOL    HW2 2355   1.793   0.355   0.277 -0.3477  0.0875 -1.6735
  786SOL     OW 2356   0.067   1.658   0.678 -0.0277  0.1243  0.2088
  786SOL    HW1 2357   0.006   1.629   0.598 -1.2082 -1.6852 -1.2637
  786SOL    HW2 2358   0.091   1.584   0.739 -0.6148 -0.3452 -2.0101
  787SOL     OW 2359   1.721   1.835   0.309 -0.4850  0.2549  0.1341
  787SOL    HW1 2360   1.651   1.834   0.382  0.8249 -0.6590 -1.2969
  787SOL    HW2 2361   1.685   1.786   0.228  1.5477 -0.4546  2.0908
  788SOL     OW 2362   2.295   1.542   1.539 -0.0023  0.1780 -0.6614
  788SOL    HW1 2363   2.270   1.528   1.440  1.1801  1.3791 -1.8066
  788SOL    HW2 2364   2.396   1.554   1.545  1.2927 -1.4566  2.1607
  789SOL     OW 2365   2.926   1.627   2.409  0.4144 -0.3139 -0.2747
  789SOL    HW1 2366   3.020   1.607   2.381 -2.2478  0.1751  0.3200
  789SOL    HW2 2367   2.883   1.549   2.458  0.5727 -0.8532  1.7342
  790SOL     OW 2368   0.846   0.079   2.617  0.0297  0.8755  0.3262
  790SOL    HW1 2369   0.927   0.134   2.583 -0.7718 -0.4163  1.5033
  790SOL    HW2 2370   0.765   0.090   2.559  0.9906 -0.5833  0.3494
  791SOL     OW 2371   0.901   2.926   2.682 -0.7063  0.1906 -0.7515
  791SOL    HW1 2372   0.980   2.939   2.747  1.1986  0.5609 -0.7961
  791SOL    HW2 2373   0.876   3.012   2.640  1.3149 -0.1324  0.9419
  792SOL     OW 2374   1.652   0.247   2.324 -0.2706 -0.2771 -0.5905
  792SOL    HW1 2375   1.630   0.151   2.349  3.1462 -0.8509 -0.7191
  792SOL    HW2 2376   1.614   0.320   2.387  3.3646  2.5236 -1.9284
  793SOL     OW 2377   2.955   0.075   2.296  0.1946  0.0314  0.3259
  793SOL    HW1 2378   2.983   0.164   2.340  0.7713  0.4463 -1.7654
  793SOL    HW2 2379   2.853   0.073   2.286  0.0615 -0.0448  1.6221
  794SOL     OW 2380   0.466   0.980   1.765 -0.3103  0.0057  0.0382
  794SOL    HW1 2381   0.493   0.910   1.835  0.4650 -0.5386  2.8867
  794SOL    HW2 2382   0.383   0.949   1.711  0.3280  1.0995 -1.1910
  795SOL     OW 2383   2.960   1.569   0.490 -0.5752  0.0477  0.2657
  795SOL    HW1 2384   2.885   1.615   0.537 -1.5292 -0.8266  1.6247
  795SOL    HW2 2385   2.926   1.498   0.428  0.9931  0.1267  1.4020
  796SOL     OW 2386   2.973   2.678   2.800  0.0186  0.4362 -0.1588
  796SOL    HW1 2387   2.977   2.653   2.899  1.2659  1.1583  1.6944
  796SOL    HW2 2388   3.031   2.614   2.749  1.2028  1.5792 -0.3500
  797SOL     OW 2389   2.685   2.476   0.140 -0.2892 -0.7239 -0.5728
  797SOL    HW1 2390   2.736   2.390   0.166  0.9770  1.5297  0.7547
  797SOL    HW2 2391   2.651   2.473   0.044 -0.2716 -1.6846 -0.8034
  798SOL     OW 2392   0.246   0.870   1.620 -0.2119  0.1036  0.2687
  798SOL    HW1 2393   0.248   0.805   1.699 -0.6223  1.6151  1.6907
  798SOL    HW2 2394   0.144   0.873   1.592 -2.5334  3.2826 -1.1081
  799SOL     OW 2395   2.873   0.644   2.190 -0.7128  0.3884  0.4261
  799SOL    HW1 2396   2.784   0.681   2.219 -1.7075 -1.2101 -1.7488
  799SOL    HW2 2397   2.933   0.712   2.142  1.3265  0.0890 -0.4591
  800SOL     OW 2398   2.774   2.431   0.481 -0.2024  0.1740  0.1167
  800SOL    HW1 2399   2.722   2.449   0.568 -0.8395  0.7028 -0.2888
  800SOL    HW2 2400   2.843   2.505   0.479 -3.9582  2.2987 -1.8649
  801SOL     OW 2401   1.373   1.286   0.830 -0.0519 -0.4772 -0.6129
  801SOL    HW1 2402   1.315   1.271   0.749 -1.6225 -2.0428  0.7359
  801SOL    HW2 2403   1.322   1.257   0.915  0.8384  2.8293 -1.6008
  802SOL     OW 2404   1.445   1.781   1.073 -0.3497  0.9883  0.8462
  802SOL    HW1 2405   1.544   1.806   1.080  0.5560  0.6459  1.2307
  802SOL    HW2 2406   1.435   1.718   0.991  0.3591 -2.4113  3.8540
  803SOL     OW 2407   0.091   1.844   0.302  0.4202 -0.5613  0.9522
  803SOL    HW1 2408   0.156   1.768   0.280  0.1045 -0.8883  1.9571
  803SOL    HW2 2409   0.105   1.862   0.398 -3.0797 -1.1607 -1.3794
  804SOL     OW 2410   1.181   2.575   0.593  0.5004  0.3887  0.6495
  804SOL    HW1 2411   1.080   2.578   0.576  1.8625 -0.8204 -1.0375
  804SOL    HW2 2412   1.210   2.642   0.663 -0.5897  1.5001 -0.2297
  805SOL     OW 2413   1.638   2.028   2.466  0.4764  0.6597 -0.3246
  805SOL    HW1 2414   1.718   1.966   2.461  0.5413 -1.6701  1.9544
  805SOL    HW2 2415   1.637   2.080   2.555  0.3151 -1.4708 -0.9967
  806SOL     OW 2416   1.538   0.094   1.313 -0.0527  0.9567  0.1537
  806SOL    HW1 2417   1.529   0.185   1.363  0.4985  0.3860  1.7571
  806SOL    HW2 2418   1.445   0.050   1.303  2.0573  3.2041  1.4648
  807SOL     OW 2419   2.010   2.927   2.511 -0.0432  0.0631 -0.3822
  807SOL    HW1 2420   1.914   2.919   2.547  1.1052 -1.3380  0.5373
  807SOL    HW2 2421   2.074   2.918   2.589 -0.5303 -1.4568 -1.9199
  808SOL     OW 2422   0.535   1.693   0.210 -0.3522 -0.1055  0.3684
  808SOL    HW1 2423   0.539   1.592   0.242 -0.5508  0.0793  0.5244
  808SOL    HW2 2424   0.572   1.703   0.120 -3.3159  0.2826  0.0865
  809SOL     OW 2425   2.781   0.665   2.606  0.1486 -0.3711  0.5658
  809SOL    HW1 2426   2.878   0.666   2.578  3.4893  0.8038 -0.1225
  809SOL    HW2 2427   2.729   0.608   2.538 -1.9878 -0.0646  1.2486
  810SOL     OW 2428   3.064   0.316   2.370 -0.2541 -0.1140  0.4649
  810SOL    HW1 2429   3.061   0.418   2.381 -1.4784 -4.3526 -3.3192
  810SOL    HW2 2430   0.055   0.304   2.342  0.0375  0.3844 -1.2386
  811SOL     OW 2431   1.965   2.251   1.607  0.2134  0.4661  0.0917
  811SOL    HW1 2432   1.925   2.295   1.692 -0.6595 -1.2805 -0.8885
  811SOL    HW2 2433   2.053   2.211   1.632 -2.7369  0.3104  0.3337
  812SOL     OW 2434   1.327   0.556   0.098  0.0534  0.4446  0.2085
  812SOL    HW1 2435   1.325   0.547   0.198 -0.8580  0.2109  1.1602
  812SOL    HW2 2436   1.239   0.600   0.073  1.2821 -0.7749 -2.7583
  813SOL     OW 2437   1.875   0.371   2.212  0.0222 -0.0898 -0.5138
  813SOL    HW1 2438   1.793   0.331   2.262  0.2903 -0.8214  0.3704
  813SOL    HW2 2439   1.877   0.473   2.225  0.9550  1.0138  0.5037
  814SOL     OW 2440   1.895   1.059   1.253 -0.4205  0.0982 -0.5541
  814SOL    HW1 2441   1.984   1.057   1.201 -1.3128 -1.4546 -0.0954
  814SOL    HW2 2442   1.861   1.152   1.269  0.7962  0.5598  1.6159
  815SOL     OW 2443   0.713   0.983   0.457  0.0368  0.0645 -0.4094
  815SOL    HW1 2444   0.693   0.926   0.539  1.6715 -3.8967  0.6150
  815SOL    HW2 2445   0.671   0.947   0.374 -0.7923 -0.5729 -0.7732
  816SOL     OW 2446   2.109   2.198   2.837 -0.0953 -0.2942  0.2495
  816SOL    HW1 2447   2.152   2.204   2.746 -0.9694  0.7428 -0.6673
  816SOL    HW2 2448   2.010   2.172   2.826 -0.9307  1.0191  1.9642
  817SOL     OW 2449   2.907   2.786   1.224 -0.4121  0.0783 -0.6378
  817SOL    HW1 2450   2.972   2.794   1.144 -0.8239 -0.9923 -0.9527
  817SOL    HW2 2451   2.960   2.760   1.308 -2.3829 -1.9335  1.6115
  818SOL     OW 2452   1.140   0.325   0.248  0.0925 -0.6049  0.0896
  818SOL    HW1 2453   1.114   0.340   0.150 -0.1557  0.1247 -1.8301
  818SOL    HW2 2454   1.201   0.242   0.254  2.0784 -0.9038  0.2038
  819SOL     OW 2455   0.454   0.586   0.788 -0.6537 -0.1763  0.8222
  819SOL    HW1 2456   0.482   0.576   0.888 -1.0624 -0.3098  0.2098
  819SOL    HW2 2457   0.486   0.505   0.735 -0.0053  0.7778  0.9584
  820SOL     OW 2458   2.083   0.862   1.057 -0.3588  0.5111 -0.0471
  820SOL    HW1 2459   2.145   0.791   1.016  0.6716 -1.5665  0.8815
  820SOL    HW2 2460   2.077   0.858   1.158 -1.6438  1.7997 -0.9752
  821SOL     OW 2461   2.589   3.034   0.641  0.6952  0.0458  0.1584
  821SOL    HW1 2462   2.616   3.038   0.741  2.4681  1.0524 -0.4881
  821SOL    HW2 2463   2.583   2.940   0.604  0.4409  0.6618  0.1859
  822SOL     OW 2464   1.073   2.647   2.632 -0.8023  0.6894 -0.1184
  822SOL    HW1 2465   1.037   2.548   2.646  1.8082 -0.8971 -0.3811
  822SOL    HW2 2466   0.999   2.707   2.618 -0.2734 -4.1053  0.1702
  823SOL     OW 2467   2.875   1.344   1.753  0.0001 -0.2500  0.3772
  823SOL    HW1 2468   2.778   1.385   1.758 -3.9453  1.0970  2.7669
  823SOL    HW2 2469   2.898   1.313   1.660 -0.0687  1.2044 -1.3538
  824SOL     OW 2470   0.880   0.005   2.335 -0.5948  0.2371 -0.0190
  824SOL    HW1 2471   0.937   3.028   2.362  2.8179  1.6462 -1.8415
  824SOL    HW2 2472   0.820   3.083   2.260 -0.1918 -1.9282 -0.1343
  825SOL     OW 2473   1.306   1.693   2.946  0.2408  0.3313  0.0502
  825SOL    HW1 2474   1.294   1.794   2.963  0.5685 -1.5041 -2.2847
  825SOL    HW2 2475   1.370   1.673   2.868  1.7890 -1.5756  3.1849
  826SOL     OW 2476   1.235   2.513   2.948 -0.2177 -0.0857  0.0732
  826SOL    HW1 2477   1.236   2.438   3.016  0.2916  1.4325  0.8267
  826SOL    HW2 2478   1.171   2.587   2.977  2.1779 -2.6718  2.8658
  827SOL     OW 2479   0.365   1.796   1.808  0.0652 -0.3350  0.0274
  827SOL    HW1 2480   0.325   1.724   1.747 -1.9839  0.9358  2.1474
  827SOL    HW2 2481   0.432   1.743   1.873 -0.2639 -2.2765  0.7533
  828SOL     OW 2482   3.005   1.897   1.079 -0.3812 -1.0526 -0.4269
  828SOL    HW1 2483   3.083   1.934   1.130  0.4017 -1.9262 -0.9119
  828SOL    HW2 2484   2.921   1.947   1.107 -0.1345 -0.5946  2.7368
  829SOL     OW 2485   2.997   2.637   3.089  0.0306 -0.0986  0.0801
  829SOL    HW1 2486   3.077   2.667   0.039  0.3737  0.3093  0.5554
  829SOL    HW2 2487   2.974   2.533   3.094 -3.0163  0.5681  0.2933
  830SOL     OW 2488   1.066   0.864   0.651 -0.2371  0.0865  0.3584
  830SOL    HW1 2489   1.161   0.825   0.660  0.5156  0.8613 -2.8702
  830SOL    HW2 2490   1.062   0.920   0.564 -0.7721  0.1581 -0.7289
  831SOL     OW 2491   2.988   2.363   3.056 -0.1560  0.4738  0.3137
  831SOL    HW1 2492   3.002   2.303   2.976  0.7393  2.4208 -0.4995
  831SOL    HW2 2493   2.901   2.339   0.001  0.4047 -0.2308 -0.2732
  832SOL     OW 2494   1.513   2.304   0.435 -0.0084 -0.8074  0.2676
  832SOL    HW1 2495   1.600   2.264   0.398  0.9691 -2.1373  2.0050
  832SOL    HW2 2496   1.436   2.239   0.453 -0.0659  0.4866 -2.3946
  833SOL     OW 2497   0.540   0.943   2.566 -0.4010  0.1120  0.3000
  833SOL    HW1 2498   0.632   0.907   2.533 -0.8671  1.0380 -0.4948
  833SOL    HW2 2499   0.520   1.041   2.540 -1.0065  1.1048  1.0843
  834SOL     OW 2500   2.872   0.823   0.923  0.2886 -0.9974  0.3569
  834SOL    HW1 2501   2.884   0.755   0.995 -0.1499  1.1263 -3.0979
  834SOL    HW2 2502   2.775   0.852   0.910 -1.5617  1.7461 -0.1679
  835SOL     OW 2503   2.417   0.500   2.112 -0.0855 -0.1475 -0.0518
  835SOL    HW1 2504   2.354   0.564   2.059 -2.3200  0.3021  0.5467
  835SOL    HW2 2505   2.404   0.398   2.101  0.0488 -1.3987 -1.3831
  836SOL     OW 2506   0.885   2.002   0.474  0.2012  0.8154 -0.1719
  836SOL    HW1 2507   0.840   1.912   0.491  0.0323 -0.6573 -0.0861
  836SOL    HW2 2508   0.943   1.985   0.391 -1.5192  1.2946 -1.0500
  837SOL     OW 2509   2.390   1.638   2.038  0.2552  0.0053 -0.5300
  837SOL    HW1 2510   2.312   1.656   2.098  2.8445  1.1644  1.7460
  837SOL    HW2 2511   2.370   1.554   1.976  0.0807 -0.7892 -0.6039
  838SOL     OW 2512   0.115   1.028   2.381 -0.0080  0.7534  0.5625
  838SOL    HW1 2513   0.075   0.952   2.439 -1.0256 -0.8338 -3.6307
  838SOL    HW2 2514   0.131   1.006   2.283  2.2728 -0.1829 -0.9073
  839SOL     OW 2515   0.501   3.097   2.822  0.5752  0.3981  0.3025
  839SOL    HW1 2516   0.525   3.003   2.800 -0.3275  0.6384  1.7112
  839SOL    HW2 2517   0.584   0.045   2.838 -1.1869 -1.7940  0.6274
  840SOL     OW 2518   2.993   0.910   2.710 -0.0077  0.2779 -0.2407
  840SOL    HW1 2519   3.028   0.951   2.795 -1.8970 -1.3814 -1.0822
  840SOL    HW2 2520   2.895   0.897   2.706  1.2543 -1.8763 -2.3589
  841SOL     OW 2521   0.762   2.032   2.641  0.1489 -0.3738  0.4892
  841SOL    HW1 2522   0.714   2.111   2.683  0.2835  0.5682  0.5379
  841SOL    HW2 2523   0.800   2.059   2.553 -1.9887  3.3137 -1.3026
  842SOL     OW 2524   0.822   0.165   1.231  0.1504 -0.2919  0.8387
  842SOL    HW1 2525   0.763   0.081   1.226  0.7747  0.1263  1.6571
  842SOL    HW2 2526   0.793   0.233   1.307  0.0178  0.3097  0.1588
  843SOL     OW 2527   0.081   1.595   2.359  0.8704  0.4888 -0.1838
  843SOL    HW1 2528   0.094   1.676   2.296 -3.5774 -0.8498  1.0369
  843SOL    HW2 2529   0.147   1.594   2.440  0.4847 -0.2411  3.4032
  844SOL     OW 2530   1.693   2.127   2.156  0.0965  0.2794 -0.0756
  844SOL    HW1 2531   1.656   2.044   2.107  1.9821 -0.9911 -1.5227
  844SOL    HW2 2532   1.739   2.117   2.248 -0.0699  1.0489  0.4414
  845SOL     OW 2533   2.576   2.650   2.425  0.5585  0.0183  0.2321
  845SOL    HW1 2534   2.636   2.672   2.508  0.5511  0.3163  4.3331
  845SOL    HW2 2535   2.533   2.727   2.384  1.1697 -1.0507  1.4768
  846SOL     OW 2536   1.939   1.742   2.911  0.4789  0.0414  0.5361
  846SOL    HW1 2537   2.012   1.821   2.921  2.7929  5.1999  0.6694
  846SOL    HW2 2538   1.950   1.668   2.978  0.1230 -0.3844 -0.0832
  847SOL     OW 2539   2.462   0.165   2.871 -0.1985 -0.3376  0.4858
  847SOL    HW1 2540   2.405   0.183   2.786 -1.7331  2.5887  0.2266
  847SOL    HW2 2541   2.521   0.083   2.852 -1.0184  0.1592 -1.6020
  848SOL     OW 2542   2.469   0.688   0.378 -0.1832  0.4852  0.2646
  848SOL    HW1 2543   2.487   0.594   0.343 -0.0640 -0.5954 -1.3129
  848SOL    HW2 2544   2.507   0.699   0.470 -2.2083 -0.8659 -2.1023
  849SOL     OW 2545   1.429   0.176   2.782  0.2338  0.3175 -0.3015
  849SOL    HW1 2546   1.397   0.203   2.691 -2.6857  2.4127  1.8152
  849SOL    HW2 2547   1.531   0.182   2.785 -0.8548  1.3304  3.3151
  850SOL     OW 2548   2.800   0.728   0.538 -0.1282 -0.6093 -0.0886
  850SOL    HW1 2549   2.832   0.781   0.458  0.9631  1.3696  0.9576
  850SOL    HW2 2550   2.871   0.657   0.558  2.6751  0.6248 -2.1100
  851SOL     OW 2551   3.095   1.268   0.917 -0.1150  0.4710  0.5970
  851SOL    HW1 2552   0.080   1.293   0.966  0.0650 -1.0201 -1.0965
  851SOL    HW2 2553   3.088   1.165   0.909  1.4646 -0.8058 -0.8904
  852SOL     OW 2554   1.315   0.842   2.347  0.1725 -0.1125  0.0907
  852SOL    HW1 2555   1.234   0.808   2.400  2.8122  1.0347 -1.1988
  852SOL    HW2 2556   1.315   0.942   2.318  0.2802 -2.2259  0.4914
  853SOL     OW 2557   1.763   1.256   2.898 -0.5218 -0.5606 -0.0383
  853SOL    HW1 2558   1.823   1.315   2.839 -1.0783  0.5869  1.0597
  853SOL    HW2 2559   1.801   1.160   2.913 -2.1862 -1.1788 -1.2807
  854SOL     OW 2560   1.215   1.094   1.906  0.1834 -0.4184  0.1923
  854SOL    HW1 2561   1.195   1.002   1.857  1.2851 -1.3522 -0.7354
  854SOL    HW2 2562   1.147   1.108   1.986 -1.2202  1.6885  2.9557
  855SOL     OW 2563   0.529   2.207   1.904 -0.0907  0.5078  0.2999
  855SOL    HW1 2564   0.449   2.190   1.841 -2.4382 -0.8640  2.1320
  855SOL    HW2 2565   0.531   2.135   1.975  2.1705  0.0416 -2.2129
  856SOL     OW 2566   1.253   1.087   2.278 -0.0436  0.5809  0.0192
  856SOL    HW1 2567   1.229   1.148   2.356 -2.6316  1.2228 -1.0410
  856SOL    HW2 2568   1.175   1.078   2.213 -1.1349 -1.3391  1.2491
  857SOL     OW 2569   0.984   1.117   2.594  0.0540 -0.1460 -0.3475
  857SOL    HW1 2570   0.988   1.146   2.692 -0.1542 -0.6116  0.7790
  857SOL    HW2 2571   1.006   1.020   2.578 -0.0893  2.0880 -2.1287
  858SOL     OW 2572   0.198   0.667   1.799  0.3327 -0.3281 -0.0981
  858SOL    HW1 2573   0.096   0.658   1.810  0.6431 -2.0536 -2.0090
  858SOL    HW2 2574   0.252   0.635   1.877  0.6758  0.2709 -1.5905
  859SOL     OW 2575   2.173   3.094   1.023  0.2229 -0.3946 -0.2965
  859SOL    HW1 2576   2.216   3.061   1.112 -0.2803  0.5564  2.8589
  859SOL    HW2 2577   2.154   0.092   1.026 -0.4275  1.2182  0.6111
  860SOL     OW 2578   1.191   0.885   1.542  0.2508  0.4932 -0.1840
  860SOL    HW1 2579   1.097   0.854   1.549  1.0975  1.9768  1.5838
  860SOL    HW2 2580   1.244   0.851   1.622  0.2458  0.6727  1.4396
  861SOL     OW 2581   1.686   0.880   1.182 -0.1498 -0.0872  0.4641
  861SOL    HW1 2582   1.605   0.898   1.243 -2.2689 -0.2506  2.0854
  861SOL    HW2 2583   1.771   0.928   1.215 -0.1276 -1.7131  1.4282
  862SOL     OW 2584   1.053   0.287   2.208  0.3586  0.1793  0.0393
  862SOL    HW1 2585   1.015   0.307   2.118  2.3758 -1.8202 -1.0155
  862SOL    HW2 2586   1.070   0.378   2.251  0.7049  1.2792 -0.2651
  863SOL     OW 2587   2.681   0.143   1.552  0.1968  0.5146  0.1293
  863SOL    HW1 2588   2.597   0.176   1.592  1.7883 -0.1249 -0.3710
  863SOL    HW2 2589   2.751   0.213   1.559  0.0011 -0.8593  0.6293
  864SOL     OW 2590   2.978   2.931   2.432 -0.4981 -0.1209 -0.8117
  864SOL    HW1 2591   2.964   2.839   2.394 -1.5466  0.9112 -3.2146
  864SOL    HW2 2592   2.979   2.999   2.359  0.5483 -1.0560  0.6361
  865SOL     OW 2593   1.173   1.271   2.465 -0.0767  0.1829  0.7614
  865SOL    HW1 2594   1.091   1.222   2.501 -1.5212  0.3846 -3.5128
  865SOL    HW2 2595   1.161   1.371   2.464  0.3710  0.3006 -1.1123
  866SOL     OW 2596   2.665   2.615   1.074  0.4141  0.0542 -0.2431
  866SOL    HW1 2597   2.766   2.620   1.055  0.7878  1.6818 -1.5134
  866SOL    HW2 2598   2.654   2.625   1.174 -0.1268 -2.3213  1.1929
  867SOL     OW 2599   2.664   2.724   1.336  0.2995  0.2510 -0.5866
  867SOL    HW1 2600   2.749   2.755   1.291  0.6011 -3.7500  1.1330
  867SOL    HW2 2601   2.672   2.715   1.435  1.1106  1.2814  1.7029
  868SOL     OW 2602   3.052   1.274   1.360  0.0427 -0.1564  0.0298
  868SOL    HW1 2603   2.958   1.261   1.326 -0.1862 -2.7188  2.6095
  868SOL    HW2 2604   0.007   1.340   1.304  0.9186  2.3345 -0.8129
  869SOL     OW 2605   2.190   2.180   2.353 -0.0978  0.1622  0.3027
  869SOL    HW1 2606   2.250   2.261   2.328  0.8031 -0.0272 -2.1084
  869SOL    HW2 2607   2.251   2.096   2.354  1.6071 -1.1383  0.7572
  870SOL     OW 2608   1.674   0.939   0.726  0.6615 -0.2301 -0.2978
  870SOL    HW1 2609   1.639   0.954   0.820 -0.6521 -0.4982 -0.2604
  870SOL    HW2 2610   1.644   1.017   0.669  0.4665  1.9350 -2.0678
  871SOL     OW 2611   2.569   1.744   1.874  0.0088 -0.2602  0.4265
  871SOL    HW1 2612   2.500   1.716   1.939 -0.0286  0.8002 -2.1262
  871SOL    HW2 2613   2.524   1.777   1.792  2.6708  0.1776  0.0869
  872SOL     OW 2614   1.206   1.476   2.743  0.1972 -0.1778 -0.8818
  872SOL    HW1 2615   1.166   1.539   2.813  0.1644 -0.4665  0.2342
  872SOL    HW2 2616   1.304   1.493   2.710  0.5173  1.8464  2.3500
  873SOL     OW 2617   1.023   1.259   1.681 -0.1414  0.0397 -0.6278
  873SOL    HW1 2618   0.995   1.180   1.626  1.5256  1.1758  1.0578
  873SOL    HW2 2619   1.080   1.227   1.761  0.6831  0.3852  1.4982
  874SOL     OW 2620   1.198   1.059   1.305 -0.1826  0.3413 -0.0082
  874SOL    HW1 2621   1.229   1.012   1.392  0.1361  0.2898 -0.1215
  874SOL    HW2 2622   1.096   1.039   1.289 -2.9702  1.8728 -0.3357
  875SOL     OW 2623   2.648   3.093   2.806 -0.3278 -0.2555 -0.6531
  875SOL    HW1 2624   2.656   3.042   2.722  0.8506  1.7463  0.6649
  875SOL    HW2 2625   2.674   3.035   2.891 -1.2024 -1.5266  0.3322
  876SOL     OW 2626   0.982   1.036   0.422 -0.0789 -0.2492  0.6595
  876SOL    HW1 2627   0.884   1.013   0.440 -1.2321  0.9280 -1.8871
  876SOL    HW2 2628   0.992   1.079   0.329 -3.0067 -1.0860  0.0610
  877SOL     OW 2629   1.811   2.782   0.556  0.5766  0.0641 -0.1307
  877SOL    HW1 2630   1.844   2.823   0.469  1.4196 -1.7580 -0.1723
  877SOL    HW2 2631   1.768   2.848   0.623 -0.4197  1.6033 -0.6646
  878SOL     OW 2632   2.471   2.114   0.189  0.0465  0.3655 -0.4693
  878SOL    HW1 2633   2.462   2.041   0.116 -1.6302 -0.0713  2.5748
  878SOL    HW2 2634   2.408   2.196   0.175  1.5875 -1.4311 -0.6334
  879SOL     OW 2635   0.337   2.530   1.615 -0.1895 -0.2075 -0.2559
  879SOL    HW1 2636   0.269   2.520   1.691 -0.8277 -1.1640  1.2458
  879SOL    HW2 2637   0.361   2.440   1.576 -1.2702  0.1913  0.5708
  880SOL     OW 2638   0.397   1.726   0.945 -0.2022  0.1203  0.0208
  880SOL    HW1 2639   0.385   1.825   0.939  2.1002  0.1927 -1.3834
  880SOL    HW2 2640   0.480   1.691   0.898 -0.4127 -0.6791 -3.0811
  881SOL     OW 2641   1.351   0.242   2.518 -0.0242  0.1717  0.1386
  881SOL    HW1 2642   1.261   0.261   2.478  2.7923  0.5128  1.3901
  881SOL    HW2 2643   1.412   0.323   2.511 -0.1673  0.3990  1.5239
  882SOL     OW 2644   2.623   1.118   0.497  0.1656  0.5608  0.1471
  882SOL    HW1 2645   2.566   1.203   0.490  0.4568 -1.1423 -0.0738
  882SOL    HW2 2646   2.681   1.115   0.582  1.3647  0.6425  0.7707
  883SOL     OW 2647   1.542   0.735   2.446  0.0058 -0.0140 -0.2748
  883SOL    HW1 2648   1.566   0.786   2.533 -1.0641 -1.1159  0.7314
  883SOL    HW2 2649   1.453   0.773   2.419  0.8021  2.4899  0.8124
  884SOL     OW 2650   0.119   0.135   2.008 -0.2041 -0.0168 -0.0138
  884SOL    HW1 2651   0.058   0.197   1.958  0.9620 -0.4558  1.0622
  884SOL    HW2 2652   0.183   0.082   1.952 -0.7878  3.4716  1.2611
  885SOL     OW 2653   2.091   1.478   2.424  0.0656  0.1332  0.1208
  885SOL    HW1 2654   2.050   1.526   2.346 -0.1828  1.6651  1.4456
  885SOL    HW2 2655   2.092   1.534   2.507  0.8302 -0.2800 -1.2210
  886SOL     OW 2656   1.695   0.169   2.815 -0.3483 -0.1059  0.0650
  886SOL    HW1 2657   1.703   0.227   2.896  0.8728 -1.3586 -1.0598
  886SOL    HW2 2658   1.767   0.202   2.752  2.2847 -0.4551 -1.7089
  887SOL     OW 2659   1.148   2.823   1.683 -0.2478  0.5654  0.8642
  887SOL    HW1 2660   1.221   2.894   1.694 -0.2173 -0.5982  0.1688
  887SOL    HW2 2661   1.188   2.734   1.653  1.3837  1.4500  1.7377
  888SOL     OW 2662   2.537   1.123   1.424 -0.6237  1.0368  0.0286
  888SOL    HW1 2663   2.474   1.172   1.489  1.5229 -0.0893 -3.3833
  888SOL    HW2 2664   2.622   1.106   1.471 -1.3171  3.4907 -0.5608
  889SOL     OW 2665   2.071   2.374   1.361  0.7399 -0.1145  0.2832
  889SOL    HW1 2666   2.041   2.310   1.286 -2.3073 -0.4619  0.3531
  889SOL    HW2 2667   2.041   2.331   1.449 -1.4120  0.2315 -0.5009
  890SOL     OW 2668   0.988   2.280   0.899  0.2807  0.3868 -0.1673
  890SOL    HW1 2669   1.079   2.243   0.860 -1.1781 -0.2475 -0.1171
  890SOL    HW2 2670   1.001   2.366   0.960 -1.0524  2.5092 -0.5573
  891SOL     OW 2671   2.804   1.610   3.082 -0.2298 -0.2668 -0.5854
  891SOL    HW1 2672   2.858   1.662   0.048  0.4662 -0.6774  1.2599
  891SOL    HW2 2673   2.825   1.511   3.076  0.5297  0.1728  0.7330
  892SOL     OW 2674   2.564   1.800   2.416  0.2517  0.2118  0.3272
  892SOL    HW1 2675   2.622   1.845   2.489 -1.2197  0.2112  0.7942
  892SOL    HW2 2676   2.574   1.848   2.326 -1.9138  0.4228  0.4645
  893SOL     OW 2677   2.294   2.583   1.029  0.2429 -0.8088 -1.0738
  893SOL    HW1 2678   2.295   2.587   0.925 -0.1372  1.2257 -0.8100
  893SOL    HW2 2679   2.329   2.498   1.065 -0.0590  2.8174 -2.0188
  894SOL     OW 2680   3.089   0.711   0.747 -0.1218 -0.4573  0.6211
  894SOL    HW1 2681   2.989   0.712   0.766 -0.5044  2.0883  0.8011
  894SOL    HW2 2682   0.021   0.624   0.710 -0.0990 -0.6883  0.5759
  895SOL     OW 2683   3.007   2.339   2.600  0.0101  0.2802  0.0867
  895SOL    HW1 2684   3.025   2.336   2.499  3.0067  1.5066  0.7188
  895SOL    HW2 2685   3.063   2.413   2.643 -0.4782 -1.8866 -0.4118
  896SOL     OW 2686   2.214   2.543   2.498 -0.7031 -0.4689 -0.2504
  896SOL    HW1 2687   2.284   2.525   2.568  3.0082 -0.7946  1.4785
  896SOL    HW2 2688   2.124   2.581   2.532 -0.9807  0.4718 -1.9442
  897SOL     OW 2689   0.234   1.586   1.662 -0.4309 -0.4303  0.2274
  897SOL    HW1 2690   0.250   1.499   1.607 -0.7873 -0.6170  1.0634
  897SOL    HW2 2691   0.184   1.571   1.746  1.7737 -2.1221 -1.3920
  898SOL     OW 2692   0.127   2.054   2.063 -0.5302 -0.0616  0.0078
  898SOL    HW1 2693   0.095   1.990   1.991 -1.8663 -3.0256  0.6723
  898SOL    HW2 2694   0.049   2.112   2.098 -0.6288 -0.5122  0.4870
  899SOL     OW 2695   1.916   0.080   1.437 -0.5340 -0.5033  0.6666
  899SOL    HW1 2696   1.862   3.098   1.455 -0.4370  1.0724  1.2961
  899SOL    HW2 2697   2.012   0.050   1.414  0.0424  0.2210  3.5428
  900SOL     OW 2698   1.340   1.041   0.483  0.2882  0.4823  0.4781
  900SOL    HW1 2699   1.425   1.099   0.501 -1.0687  3.4072 -0.0257
  900SOL    HW2 2700   1.344   0.994   0.391 -1.0846 -0.8830 -1.9051
  901SOL     OW 2701   1.444   1.216   2.504 -0.1597 -0.4592 -0.2273
  901SOL    HW1 2702   1.477   1.187   2.410  3.2232  0.5895 -1.8699
  901SOL    HW2 2703   1.346   1.252   2.498 -3.0070  0.6213  1.1221
  902SOL     OW 2704   2.934   2.575   1.005 -0.2467 -0.2283  0.2759
  902SOL    HW1 2705   2.927   2.570   0.906 -0.4744  1.6516 -0.1542
  902SOL    HW2 2706   3.026   2.615   1.022 -1.0772 -1.5827  1.1785
  903SOL     OW 2707   2.957   1.194   1.958  0.1917  0.0818  0.5139
  903SOL    HW1 2708   2.985   1.255   2.033 -0.0474 -1.6452 -0.9142
  903SOL    HW2 2709   2.928   1.251   1.872  0.2806  1.1940 -1.5040
  904SOL     OW 2710   1.356   1.523   0.056  0.6433  0.4372  0.2814
  904SOL    HW1 2711   1.391   1.437   0.016  3.3390  0.9038 -0.2890
  904SOL    HW2 2712   1.326   1.586   3.084  2.6142  1.1017 -3.0417
  905SOL     OW 2713   2.353   2.428   1.800  0.2098  0.5068  0.4656
  905SOL    HW1 2714   2.278   2.479   1.837 -1.2499 -0.5744  1.8857
  905SOL    HW2 2715   2.404   2.491   1.742 -3.7467  1.7651  0.7114
  906SOL     OW 2716   1.864   2.512   2.812 -0.0573  0.4373 -0.1775
  906SOL    HW1 2717   1.866   2.429   2.873 -1.5233  1.6349  1.1857
  906SOL    HW2 2718   1.894   2.597   2.858 -0.3804 -1.4361 -1.5268
  907SOL     OW 2719   0.270   2.933   1.052 -0.3346 -0.3664  0.1241
  907SOL    HW1 2720   0.342   2.878   1.110 -0.8502 -4.0693  2.6417
  907SOL    HW2 2721   0.312   3.008   0.997  0.3432  0.1684 -1.2992
  908SOL     OW 2722   0.740   0.017   1.856  0.0506 -0.5236 -0.5476
  908SOL    HW1 2723   0.829   0.041   1.820  1.7298 -0.2872  2.2653
  908SOL    HW2 2724   0.708   3.028   1.841 -1.5522  2.2221  0.3494
  909SOL     OW 2725   1.669   0.469   1.310 -0.9388  0.1579 -0.2144
  909SOL    HW1 2726   1.737   0.525   1.371  3.0258  1.8724  0.1267
  909SOL    HW2 2727   1.595   0.532   1.280 -2.1914  2.2526  1.1125
  910SOL     OW 2728   0.752   0.429   0.223 -0.5850 -0.3495 -0.0380
  910SOL    HW1 2729   0.790   0.494   0.289  1.9146 -0.9710  0.0450
  910SOL    HW2 2730   0.647   0.425   0.226 -4.9509  0.8391 -3.1607
  911SOL     OW 2731   0.333   0.018   3.033 -0.5428  0.0188  0.0048
  911SOL    HW1 2732   0.287   3.036   3.061 -1.1424  0.1826 -0.2680
  911SOL    HW2 2733   0.390   0.005   2.951  0.7570  1.4815 -0.3676
  912SOL     OW 2734   0.076   2.518   2.694  0.1948  0.0234 -0.2097
  912SOL    HW1 2735   0.112   2.604   2.655 -0.4186 -2.7326  1.5571
  912SOL    HW2 2736   0.157   2.467   2.730 -1.2414 -0.3912 -0.2207
  913SOL     OW 2737   2.279   2.616   0.184 -0.2596  0.0445  0.4613
  913SOL    HW1 2738   2.270   2.700   0.126  0.0290  0.2745  0.4177
  913SOL    HW2 2739   2.348   2.623   0.255 -2.2382 -1.8237 -1.6080
  914SOL     OW 2740   1.404   1.751   1.945 -0.1521 -0.0425 -0.0955
  914SOL    HW1 2741   1.488   1.692   1.961  2.8230 -1.9593  1.3120
  914SOL    HW2 2742   1.400   1.824   2.015  2.1916 -3.1888 -0.9960
  915SOL     OW 2743   3.068   2.584   2.181  0.1564  0.1940 -0.2348
  915SOL    HW1 2744   0.024   2.651   2.126  0.6384  1.2505 -0.9111
  915SOL    HW2 2745   2.986   2.627   2.222 -1.0028  0.1532  1.4862
  916SOL     OW 2746   3.081   0.834   2.085  0.2905  0.3882  0.1609
  916SOL    HW1 2747   3.102   0.879   1.992  4.2219 -1.1765 -0.9913
  916SOL    HW2 2748   0.061   0.787   2.126  0.4352  0.3129 -0.9615
  917SOL     OW 2749   1.809   3.052   0.080  0.0043 -0.3191  0.0944
  917SOL    HW1 2750   1.774   3.078   0.172  1.3472  0.1217  3.1108
  917SOL    HW2 2751   1.806   2.953   0.060  0.6675  4.1792  0.0728
  918SOL     OW 2752   1.852   2.512   2.208 -0.2007 -0.0114 -0.0223
  918SOL    HW1 2753   1.829   2.529   2.304 -4.0428  1.8815 -0.5900
  918SOL    HW2 2754   1.942   2.457   2.195  2.5198  1.1170 -0.4218
  919SOL     OW 2755   1.661   2.157   1.809  0.3318 -0.1794  0.5110
  919SOL    HW1 2756   1.691   2.241   1.850 -0.0926 -0.2229  2.2691
  919SOL    HW2 2757   1.565   2.133   1.838  0.6919  1.4657 -0.8814
  920SOL     OW 2758   0.224   1.132   0.370 -0.7532 -0.8484 -0.1855
  920SOL    HW1 2759   0.142   1.090   0.322 -0.5936 -0.6769  0.4647
  920SOL    HW2 2760   0.260   1.086   0.451  2.8309 -2.0979  0.8153
  921SOL     OW 2761   2.440   1.273   2.676 -1.1159  0.3187 -0.2281
  921SOL    HW1 2762   2.438   1.342   2.601 -0.0768  1.1827  0.0416
  921SOL    HW2 2763   2.532   1.236   2.695 -0.8991 -0.3573 -0.8040
  922SOL     OW 2764   0.828   1.953   0.086  0.2676 -0.4454 -0.2686
  922SOL    HW1 2765   0.765   1.920   0.012 -2.2212  1.5430 -0.7549
  922SOL    HW2 2766   0.786   2.027   0.145  1.4681  2.3841 -1.1415
  923SOL     OW 2767   0.635   1.090   2.251 -0.0845  0.2736 -0.0556
  923SOL    HW1 2768   0.648   1.138   2.165  0.2333 -0.5176 -0.1281
  923SOL    HW2 2769   0.619   0.987   2.242 -1.2963 -0.8897  0.5160
  924SOL     OW 2770   0.779   2.507   2.762  0.1136 -0.3996 -0.5345
  924SOL    HW1 2771   0.873   2.488   2.716  1.4232 -1.1126  3.0341
  924SOL    HW2 2772   0.782   2.567   2.843  0.2554  1.7704 -0.1469
  925SOL     OW 2773   1.585   1.279   1.036 -0.0920  0.1137 -0.0722
  925SOL    HW1 2774   1.661   1.326   0.983 -1.0169 -1.1142 -2.8091
  925SOL    HW2 2775   1.497   1.334   1.028 -4.4009  0.2649  1.0987
  926SOL     OW 2776   1.573   0.444   2.507  0.0721 -0.2643 -0.1367
  926SOL    HW1 2777   1.573   0.547   2.483  1.6301  2.3597 -1.9580
  926SOL    HW2 2778   1.625   0.421   2.594  2.8021 -0.9973  2.9104
  927SOL     OW 2779   2.690   2.907   2.169  0.8920  0.2054  0.4721
  927SOL    HW1 2780   2.640   2.818   2.158 -3.5291  0.1062  0.5419
  927SOL    HW2 2781   2.683   2.960   2.082 -0.5899  1.0982 -0.3312
  928SOL     OW 2782   0.343   1.423   2.960  0.1065 -0.0996 -0.3112
  928SOL    HW1 2783   0.310   1.349   3.019  1.3300  1.4885 -2.2269
  928SOL    HW2 2784   0.319   1.513   2.999 -1.4080 -1.3595 -2.5171
  929SOL     OW 2785   3.071   0.263   0.646  0.0919  0.2993 -0.5237
  929SOL    HW1 2786   0.013   0.284   0.730 -0.4411  2.2861  2.0659
  929SOL    HW2 2787   0.032   0.244   0.574 -1.8242  0.4672  3.6676
  930SOL     OW 2788   2.239   0.119   2.055 -0.4572  0.7442  0.2526
  930SOL    HW1 2789   2.174   0.067   1.993 -0.8728 -0.7496  1.0172
  930SOL    HW2 2790   2.329   0.149   2.010  1.5095  1.0442 -1.6357
  931SOL     OW 2791   2.464   1.252   0.190  0.3857 -0.5471 -0.8670
  931SOL    HW1 2792   2.439   1.204   0.103 -1.1958  1.0254  1.8233
  931SOL    HW2 2793   2.382   1.278   0.246  2.8847 -2.0429  0.3453
  932SOL     OW 2794   2.571   1.533   1.562  0.2024  0.4881 -0.1661
  932SOL    HW1 2795   2.582   1.504   1.662  0.7920 -0.9232  0.1728
  932SOL    HW2 2796   2.650   1.496   1.509 -1.7385  0.0623  0.1416
  933SOL     OW 2797   2.899   2.527   1.616  0.3372  0.5219 -0.3720
  933SOL    HW1 2798   2.959   2.601   1.654 -1.1596  1.2390  0.1858
  933SOL    HW2 2799   2.804   2.558   1.618  1.8978 -2.5889  0.0033
  934SOL     OW 2800   0.450   2.730   1.155 -0.0214 -0.0293  0.3056
  934SOL    HW1 2801   0.547   2.721   1.120  0.2558 -1.9514 -0.1284
  934SOL    HW2 2802   0.434   2.679   1.242  0.2534  0.0041 -2.0530
  935SOL     OW 2803   2.454   1.093   2.307  0.2856 -0.3865  0.4486
  935SOL    HW1 2804   2.527   1.105   2.377  1.3345 -0.8339  1.8172
  935SOL    HW2 2805   2.436   1.182   2.261  0.1319  1.6447 -0.3106
  936SOL     OW 2806   2.418   0.891   2.150  0.3405  0.3925  0.4360
  936SOL    HW1 2807   2.441   0.904   2.052  0.6314  1.2668  0.4917
  936SOL    HW2 2808   2.422   0.976   2.207 -1.0672 -1.6858  1.6190
  937SOL     OW 2809   1.899   0.919   2.055 -0.0270  0.0132  0.3480
  937SOL    HW1 2810   1.842   0.916   1.969 -2.2196  0.5310  0.0219
  937SOL    HW2 2811   1.983   0.863   2.043  0.4700 -3.6550  1.2131
  938SOL     OW 2812   0.647   2.673   0.106  0.2626 -0.3751 -0.2919
  938SOL    HW1 2813   0.547   2.655   0.137 -3.7208 -1.5634 -0.8383
  938SOL    HW2 2814   0.671   2.773   0.092 -0.8283 -0.4023  1.7133
  939SOL     OW 2815   2.189   0.696   0.269 -0.5874 -0.1160  0.1513
  939SOL    HW1 2816   2.183   0.729   0.173 -1.1704  2.7897 -0.6152
  939SOL    HW2 2817   2.285   0.706   0.308 -0.7945 -0.9374  0.9329
  940SOL     OW 2818   1.216   2.178   0.806  0.1267  0.0195 -0.0075
  940SOL    HW1 2819   1.277   2.106   0.846 -0.2172 -0.2210 -0.8397
  940SOL    HW2 2820   1.180   2.143   0.717  1.0172  2.5932 -0.5407
  941SOL     OW 2821   1.101   2.038   1.609 -0.3739  0.5473 -0.2532
  941SOL    HW1 2822   1.057   2.108   1.549 -0.2518  0.3726 -0.0580
  941SOL    HW2 2823   1.101   1.940   1.573 -0.4372 -0.6485  0.3702
  942SOL     OW 2824   0.367   2.078   2.858  0.2255  0.0429 -0.1158
  942SOL    HW1 2825   0.386   2.020   2.776  2.2307 -0.6666 -2.2658
  942SOL    HW2 2826   0.274   2.111   2.871 -0.2748  0.5816  0.1755
  943SOL     OW 2827   2.044   2.933   1.696  0.0909 -0.1735 -0.6110
  943SOL    HW1 2828   2.075   2.838   1.697  1.8707 -0.1569  0.7981
  943SOL    HW2 2829   2.070   2.975   1.611  2.6308  1.4195  0.2724
  944SOL     OW 2830   1.577   1.869   2.790 -0.0905  0.3084 -0.7912
  944SOL    HW1 2831   1.628   1.874   2.880  0.6035  0.8696 -0.3199
  944SOL    HW2 2832   1.503   1.941   2.796 -0.7324 -0.3546 -2.7882
  945SOL     OW 2833   2.629   2.471   0.700  0.8078  0.0370 -0.2268
  945SOL    HW1 2834   2.594   2.386   0.750 -0.0569  0.6034  0.1433
  945SOL    HW2 2835   2.630   2.542   0.771  0.1533 -1.0413 -2.1237
  946SOL     OW 2836   1.054   1.538   2.547  1.1625  0.4573 -0.1388
  946SOL    HW1 2837   1.017   1.635   2.534  1.2823 -0.1170  0.6878
  946SOL    HW2 2838   1.118   1.525   2.628  2.0508  0.4301  1.0287
  947SOL     OW 2839   0.308   0.615   2.022 -0.3115  0.3486  0.0391
  947SOL    HW1 2840   0.248   0.661   2.095 -1.6666 -0.1829  0.1009
  947SOL    HW2 2841   0.335   0.525   2.072 -0.2580 -1.7328 -0.2323
  948SOL     OW 2842   0.048   1.321   0.644 -0.4700  0.5896  0.2969
  948SOL    HW1 2843   0.032   1.311   0.745  1.1629 -2.9712  1.8730
  948SOL    HW2 2844   3.085   1.267   0.589  1.0471  1.7986 -1.0587
  949SOL     OW 2845   0.617   0.814   2.180  0.4011  0.9823 -0.3753
  949SOL    HW1 2846   0.622   0.719   2.221 -0.4194 -1.8622  0.9267
  949SOL    HW2 2847   0.712   0.832   2.151 -1.9120 -0.4895 -0.0008
  950SOL     OW 2848   0.261   0.523   1.563  0.4147  0.2355  0.0486
  950SOL    HW1 2849   0.186   0.450   1.557 -0.5872 -1.1273  2.8553
  950SOL    HW2 2850   0.274   0.559   1.659 -1.7548  0.5842 -1.5113
  951SOL     OW 2851   0.508   1.269   2.806 -0.1923 -0.2762  0.3011
  951SOL    HW1 2852   0.559   1.305   2.724 -0.6517  0.1657 -0.1078
  951SOL    HW2 2853   0.436   1.333   2.834 -1.2166 -2.0892  0.7774
  952SOL     OW 2854   1.751   2.055   0.961 -0.0158  0.1127 -0.4493
  952SOL    HW1 2855   1.682   2.130   0.973  0.8716 -0.6911 -1.2070
  952SOL    HW2 2856   1.844   2.100   0.941  3.3934 -0.5393  0.4587
  953SOL     OW 2857   0.607   0.098   0.156 -0.1620  0.3771  0.0081
  953SOL    HW1 2858   0.646   0.093   0.247 -1.3359 -0.5446 -1.8320
  953SOL    HW2 2859   0.520   0.155   0.159  1.1564 -4.7744  2.1758
  954SOL     OW 2860   2.538   0.678   1.056 -0.6136  0.6852  0.0962
  954SOL    HW1 2861   2.529   0.652   1.159  1.1701 -1.6556  3.5086
  954SOL    HW2 2862   2.582   0.601   1.003  2.2038 -2.3051 -0.7359
  955SOL     OW 2863   1.555   1.323   2.727 -0.6350 -0.0615 -0.3677
  955SOL    HW1 2864   1.630   1.276   2.775 -2.7834  1.7444 -0.2033
  955SOL    HW2 2865   1.520   1.273   2.645 -1.3357 -2.4577 -0.7712
  956SOL     OW 2866   1.106   0.870   2.524  0.4314  0.0856 -0.7970
  956SOL    HW1 2867   1.193   0.884   2.575 -1.3694 -2.3875  1.2534
  956SOL    HW2 2868   1.073   0.774   2.527  0.3240 -1.1261 -1.9797
  957SOL     OW 2869   1.279   0.145   1.793  0.5376 -0.1706 -0.3275
  957SOL    HW1 2870   1.294   0.177   1.891  1.6026  0.6582  2.3401
  957SOL    HW2 2871   1.323   0.208   1.725  0.8397  1.0378  1.6836
  958SOL     OW 2872   0.354   2.055   0.438  0.2902  0.0259 -0.4014
  958SOL    HW1 2873   0.305   2.033   0.521  2.9774  0.2682 -2.3420
  958SOL    HW2 2874   0.295   2.021   0.364  0.1275 -2.1989 -0.0333
  959SOL     OW 2875   2.031   0.864   1.685  0.2974 -0.4257  0.1428
  959SOL    HW1 2876   2.107   0.915   1.731  0.4753  1.2217  0.0391
  959SOL    HW2 2877   2.050   0.768   1.675  0.3957  2.8824 -0.4151
  960SOL     OW 2878   0.261   1.698   2.969 -0.1355  0.4526  0.0331
  960SOL    HW1 2879   0.295   1.701   2.876 -0.3891  0.2743  0.6284
  960SOL    HW2 2880   0.298   1.780   3.019 -1.9788 -0.8438  0.5189
  961SOL     OW 2881   0.810   1.846   0.962  0.4870 -0.3239  0.0174
  961SOL    HW1 2882   0.782   1.932   0.920  3.0242  0.6139 -0.1029
  961SOL    HW2 2883   0.911   1.839   0.957 -0.6267  1.6744  0.2789
  962SOL     OW 2884   0.166   1.686   1.419  0.1499 -0.3996 -0.1599
  962SOL    HW1 2885   0.212   1.634   1.344 -1.2217  0.9315  1.8256
  962SOL    HW2 2886   0.199   1.659   1.514 -0.4623 -0.9999  1.4899
  963SOL     OW 2887   1.358   1.777   2.533  0.3725 -0.2279  0.2024
  963SOL    HW1 2888   1.389   1.744   2.442  0.5081 -2.1835  0.3136
  963SOL    HW2 2889   1.405   1.860   2.560 -2.1769 -0.6803  0.5112
  964SOL     OW 2890   0.171   2.949   2.290  0.0554  0.4834  0.0664
  964SOL    HW1 2891   0.207   2.863   2.332 -1.6046 -1.1468 -0.8654
  964SOL    HW2 2892   0.101   2.987   2.352 -1.6803  0.1549 -0.7548
  965SOL     OW 2893   0.113   2.121   2.804 -0.4160  0.2829  0.1205
  965SOL    HW1 2894   0.020   2.161   2.805 -0.3777  0.5269 -1.6496
  965SOL    HW2 2895   0.115   2.054   2.726 -0.7204  0.2532  1.4171
  966SOL     OW 2896   2.952   1.813   2.928 -0.5192  0.3804 -0.2641
  966SOL    HW1 2897   2.867   1.758   2.944 -0.3052  4.7161  2.7857
  966SOL    HW2 2898   3.027   1.755   2.957  1.4825 -0.2554 -1.3468
  967SOL     OW 2899   1.719   0.058   0.318 -0.0351  0.4991  0.2996
  967SOL    HW1 2900   1.674   0.143   0.284 -0.0676 -1.0919 -0.8517
  967SOL    HW2 2901   1.694   0.028   0.412 -0.4220  0.6022  0.5397
  968SOL     OW 2902   2.654   3.003   0.912 -0.0644 -0.1748  0.1785
  968SOL    HW1 2903   2.562   2.977   0.934  0.6665 -1.8109 -0.1260
  968SOL    HW2 2904   2.702   3.022   0.997 -1.5401  0.2592 -0.5354
  969SOL     OW 2905   0.207   1.043   2.098 -0.3570  0.2907  0.0936
  969SOL    HW1 2906   0.135   1.026   2.026  2.8233  3.1281  0.9819
  969SOL    HW2 2907   0.235   1.143   2.104  1.2783  1.2879 -0.6508
  970SOL     OW 2908   1.797   1.796   2.698  0.3566 -0.4224 -0.8227
  970SOL    HW1 2909   1.835   1.756   2.782 -0.2477 -0.2570  0.0200
  970SOL    HW2 2910   1.701   1.834   2.708 -0.8091  1.4953 -0.0749
  971SOL     OW 2911   2.355   0.247   1.635  0.2634  0.1813 -0.0750
  971SOL    HW1 2912   2.260   0.285   1.652 -3.0167  1.5047  1.9101
  971SOL    HW2 2913   2.356   0.149   1.607 -0.8610 -1.3059 -0.9661
  972SOL     OW 2914   2.838   0.203   0.786 -0.7018 -0.6633 -0.4206
  972SOL    HW1 2915   2.742   0.214   0.746 -0.6669  1.6554 -0.3293
  972SOL    HW2 2916   2.906   0.240   0.721 -1.4715 -1.9395 -0.4832
  973SOL     OW 2917   0.408   0.482   2.376  0.0406 -0.5363 -0.1227
  973SOL    HW1 2918   0.405   0.441   2.281  0.5489 -0.1723 -1.1990
  973SOL    HW2 2919   0.480   0.444   2.436  0.4025 -0.1897  0.6303
  974SOL     OW 2920   2.743   1.042   1.595  0.2241 -0.1718  0.2148
  974SOL    HW1 2921   2.722   1.022   1.694 -3.6766 -0.7567 -1.3599
  974SOL    HW2 2922   2.838   1.058   1.573 -1.2599 -1.2587  0.9569
  975SOL     OW 2923   1.456   2.856   1.958 -0.1303  0.1212  0.7126
  975SOL    HW1 2924   1.407   2.890   1.878  0.4124  0.6127  0.9414
  975SOL    HW2 2925   1.447   2.752   1.969  0.6399  1.1290 -1.5418
  976SOL     OW 2926   1.859   1.498   1.399 -0.3489 -0.2957  1.0180
  976SOL    HW1 2927   1.941   1.473   1.456  1.4583  0.4730  0.4195
  976SOL    HW2 2928   1.823   1.591   1.421 -0.2272 -0.8578  0.4738
  977SOL     OW 2929   0.367   2.752   2.873 -0.1873  1.2482 -0.1633
  977SOL    HW1 2930   0.462   2.772   2.843 -3.3510 -0.3308  1.0999
  977SOL    HW2 2931   0.365   2.654   2.895  2.0576 -1.0506  2.9183
  978SOL     OW 2932   2.002   1.450   1.986 -0.5262  0.1654  0.5973
  978SOL    HW1 2933   1.976   1.482   1.892  0.7128 -1.9312 -0.3076
  978SOL    HW2 2934   1.919   1.437   2.049 -0.3395  2.2469 -0.7384
  979SOL     OW 2935   1.436   0.911   1.982  0.2228  0.1495 -0.4680
  979SOL    HW1 2936   1.365   0.989   1.986 -1.9331  2.9954  0.8956
  979SOL    HW2 2937   1.434   0.863   1.893  1.0876  0.5812  4.9089
  980SOL     OW 2938   1.886   1.858   2.211  0.9543  0.3652  0.7290
  980SOL    HW1 2939   1.927   1.918   2.282 -1.9218 -1.8714  0.2720
  980SOL    HW2 2940   1.947   1.772   2.194  0.1272  0.1528  0.1138
  981SOL     OW 2941   1.661   0.689   1.913  0.2261  0.3649 -0.3333
  981SOL    HW1 2942   1.649   0.767   1.848  1.3986 -0.5040  2.5958
  981SOL    HW2 2943   1.667   0.721   2.008  0.7126 -0.6872  0.4598
  982SOL     OW 2944   0.462   0.457   0.218  0.5754 -0.0922 -0.7472
  982SOL    HW1 2945   0.439   0.406   0.303 -1.5688 -0.8117 -1.0652
  982SOL    HW2 2946   0.427   0.402   0.142 -0.4873 -0.4738  1.3484
  983SOL     OW 2947   2.181   0.780   3.080  0.1408 -0.4516  0.0409
  983SOL    HW1 2948   2.227   0.833   3.006  3.1089  0.5206 -1.3459
  983SOL    HW2 2949   2.125   0.698   3.049  0.8440 -0.3666  1.2364
  984SOL     OW 2950   1.010   0.353   2.689  0.1716  0.1945  0.0705
  984SOL    HW1 2951   1.026   0.295   2.604  2.4561  0.5881 -0.2643
  984SOL    HW2 2952   1.032   0.298   2.774  0.4253 -2.3163 -0.3095
  985SOL     OW 2953   1.381   2.352   2.059  0.1847  0.0277  0.3945
  985SOL    HW1 2954   1.363   2.269   2.005  1.6995  0.6455 -0.1121
  985SOL    HW2 2955   1.479   2.356   2.094  1.9748 -2.0048 -1.9314
  986SOL     OW 2956   2.256   2.779   1.877 -0.8619 -0.4519 -0.3563
  986SOL    HW1 2957   2.292   2.818   1.964 -1.2086  0.4480  0.5693
  986SOL    HW2 2958   2.188   2.707   1.896  1.6737  1.4791  0.1882
  987SOL     OW 2959   1.857   1.229   0.997 -0.0031 -0.9239 -0.1787
  987SOL    HW1 2960   1.867   1.143   0.949 -1.5121  3.1496 -0.2951
  987SOL    HW2 2961   1.859   1.206   1.095  0.6051 -0.2966  1.6307
  988SOL     OW 2962   2.214   1.063   1.792  0.6162 -0.4502  0.2952
  988SOL    HW1 2963   2.144   1.096   1.862  1.0452  3.3151  0.8217
  988SOL    HW2 2964   2.225   1.138   1.728 -0.8094 -1.8281 -0.6223
  989SOL     OW 2965   1.513   2.234   0.147  0.6749 -0.7360  0.0814
  989SOL    HW1 2966   1.608   2.228   0.121 -2.9175 -1.2312  0.5723
  989SOL    HW2 2967   1.496   2.297   0.228  0.4491  1.6340 -1.9935
  990SOL     OW 2968   1.875   0.752   2.680 -0.1165  0.2357  0.1756
  990SOL    HW1 2969   1.860   0.848   2.641 -2.3486  0.2982 -1.0080
  990SOL    HW2 2970   1.856   0.756   2.781 -0.7039 -0.5664  0.3803
  991SOL     OW 2971   0.878   0.679   0.607  0.0919 -0.1193 -0.0818
  991SOL    HW1 2972   0.797   0.730   0.635  0.6693 -1.1440 -0.5930
  991SOL    HW2 2973   0.961   0.728   0.645  0.1154  0.5742 -0.9456
  992SOL     OW 2974   2.960   0.803   1.336  0.1865 -0.1717  0.3581
  992SOL    HW1 2975   2.961   0.894   1.287  0.8499 -0.7750 -1.8583
  992SOL    HW2 2976   2.942   0.729   1.267 -1.0617  1.4546  0.1188
  993SOL     OW 2977   2.238   0.591   1.916  0.0574  0.4057 -0.4393
  993SOL    HW1 2978   2.163   0.525   1.889 -0.6907 -0.5925 -1.6274
  993SOL    HW2 2979   2.296   0.620   1.835  2.0836  4.8242 -2.7173
  994SOL     OW 2980   1.228   1.792   1.720 -0.3529 -0.2543  0.6747
  994SOL    HW1 2981   1.296   1.756   1.786 -1.6519  2.0194  0.1596
  994SOL    HW2 2982   1.151   1.842   1.767 -0.2030 -1.5280 -0.2950
  995SOL     OW 2983   2.090   1.611   2.674 -0.0137 -0.3262 -0.2410
  995SOL    HW1 2984   2.186   1.630   2.658  1.1739  0.2776 -0.7077
  995SOL    HW2 2985   2.049   1.695   2.716 -2.7696  2.8187 -0.2511
  996SOL     OW 2986   2.128   1.628   0.493  0.3464 -0.2461 -0.5356
  996SOL    HW1 2987   2.171   1.677   0.572 -1.5105 -1.5929 -1.5544
  996SOL    HW2 2988   2.185   1.618   0.410 -2.4807  2.9290 -1.0364
  997SOL     OW 2989   2.006   0.413   1.943  0.2806  0.0416 -0.1691
  997SOL    HW1 2990   1.967   0.411   2.037 -0.9873 -0.7990  0.9050
  997SOL    HW2 2991   1.977   0.328   1.889 -2.7128  2.7322 -1.8620
  998SOL     OW 2992   2.555   0.796   0.640 -0.8916 -0.2845  0.0594
  998SOL    HW1 2993   2.554   0.819   0.738 -2.0110  0.9443  2.5205
  998SOL    HW2 2994   2.653   0.782   0.608  0.9473  1.0648  0.6390
  999SOL     OW 2995   2.587   1.612   0.362 -0.0042  0.4615 -0.1243
  999SOL    HW1 2996   2.653   1.685   0.336 -1.8707 -1.8956 -0.2461
  999SOL    HW2 2997   2.573   1.614   0.462 -0.5866 -2.5592 -0.5596
 1000SOL     OW 2998   0.708   1.264   2.000  0.1131 -0.5384 -0.2841
 1000SOL    HW1 2999   0.650   1.333   1.948  1.1362 -2.2796 -0.5760
 1000SOL    HW2 3000   0.716   1.180   1.943 -3.3397  0.8185 -0.1641
   3.10396   3.10396   3.10396
