1000 SPC/Fw water molecules t= 415.00000 step= 415000
 3000
    1SOL     OW    1   0.013   3.064   1.354 -0.0422  0.2367 -0.0193
    1SOL    HW1    2   3.079   0.052   1.388  0.8505 -0.5593  1.2905
    1SOL    HW2    3   3.067   2.988   1.397 -1.0379  0.7027  2.8365
    2SOL     OW    4   2.592   2.994   0.283  0.0918  0.0582  0.1758
    2SOL    HW1    5   2.553   2.911   0.235  0.7280  2.5815  0.8917
    2SOL    HW2    6   2.652   3.041   0.216  0.6285  1.2133  1.5783
    3SOL     OW    7   1.426   2.551   3.067  0.2186 -0.0955 -0.1558
    3SOL    HW1    8   1.519   2.589   3.036  1.8202 -2.2418  0.3038
    3SOL    HW2    9   1.357   2.625   3.081 -1.3422  2.5646  0.4488
    4SOL     OW   10   0.899   3.032   2.171 -0.5755  0.2448 -0.3564
    4SOL    HW1   11   0.871   3.057   2.265 -2.3095  0.2696 -1.3483
    4SOL    HW2   12   0.853   2.953   2.134  1.6652  1.6010  1.1240
    5SOL     OW   13   2.292   0.299   1.575 -0.1333 -0.0451  0.5371
    5SOL    HW1   14   2.277   0.384   1.528  3.1610 -1.9887  0.8594
    5SOL    HW2   15   2.377   0.294   1.625 -1.5390  1.3849 -1.2481
    6SOL     OW   16   2.487   1.783   1.246 -0.5838  0.4614 -0.1232
    6SOL    HW1   17   2.544   1.797   1.164 -0.9792  0.1904 -0.6179
    6SOL    HW2   18   2.392   1.754   1.212  1.6543 -0.5704 -0.2187
    7SOL     OW   19   2.093   1.143   0.729 -0.5812  0.1958 -0.0088
    7SOL    HW1   20   2.057   1.240   0.737 -0.9934 -0.7347  0.3387
    7SOL    HW2   21   2.194   1.150   0.725  1.7827 -2.5631 -0.2310
    8SOL     OW   22   0.578   1.655   1.076 -0.2726 -0.4620 -0.2991
    8SOL    HW1   23   0.675   1.663   1.047  3.1273 -0.8749  0.0138
    8SOL    HW2   24   0.575   1.626   1.175 -0.9062  1.7847 -0.2669
    9SOL     OW   25   0.135   2.703   1.368 -0.1966  0.1173 -0.3721
    9SOL    HW1   26   0.036   2.685   1.375 -0.9926 -0.1357 -2.0275
    9SOL    HW2   27   0.181   2.663   1.284 -2.3573 -1.4901 -1.6725
   10SOL     OW   28   1.219   2.494   0.501 -0.7231 -0.0825 -0.2835
   10SOL    HW1   29   1.289   2.533   0.434 -0.8213 -0.5606 -1.5585
   10SOL    HW2   30   1.123   2.512   0.477 -0.1861 -0.0967 -0.1912
   11SOL     OW   31   1.574   1.990   1.093 -0.7566 -0.0691 -0.0957
   11SOL    HW1   32   1.579   1.921   1.014 -3.6474  0.3276 -2.2173
   11SOL    HW2   33   1.659   2.039   1.100 -1.3716 -0.9822 -0.7261
   12SOL     OW   34   0.013   0.726   2.287  0.0067 -0.2004  0.3988
   12SOL    HW1   35   3.078   0.810   2.240 -1.1500  1.1153  0.6778
   12SOL    HW2   36   0.003   0.641   2.227  0.3436 -0.9599 -0.2046
   13SOL     OW   37   2.480   2.789   0.158  0.1040 -0.0994  0.0947
   13SOL    HW1   38   2.462   2.804   0.061 -1.2262  0.4285 -1.2093
   13SOL    HW2   39   2.527   2.697   0.171 -0.0320 -1.5448 -0.6638
   14SOL     OW   40   1.433   1.718   3.015  0.0136 -0.1310  0.0069
   14SOL    HW1   41   1.367   1.691   3.090 -3.7423  0.2958 -1.2333
   14SOL    HW2   42   1.521   1.676   3.038  0.7839  2.3833 -0.9381
   15SOL     OW   43   2.877   2.744   1.889  0.9608 -0.3269 -0.2820
   15SOL    HW1   44   2.951   2.671   1.881  0.7743 -2.7003  0.1515
   15SOL    HW2   45   2.909   2.816   1.825  0.0943  0.1117 -1.3858
   16SOL     OW   46   2.892   0.350   0.827 -0.1759  0.3212 -0.3271
   16SOL    HW1   47   2.969   0.416   0.805  0.7275  1.8758 -0.6445
   16SOL    HW2   48   2.853   0.309   0.743 -2.1929 -0.8058  1.5892
   17SOL     OW   49   1.347   0.172   0.802 -0.5132 -0.1427 -0.2591
   17SOL    HW1   50   1.260   0.219   0.810 -1.1286 -1.8072  0.1159
   17SOL    HW2   51   1.422   0.217   0.861  1.3830  1.9272  1.9069
   18SOL     OW   52   1.496   0.267   1.000 -0.2618  0.4877  0.0184
   18SOL    HW1   53   1.596   0.264   0.987  0.7563  2.5255  0.6431
   18SOL    HW2   54   1.462   0.358   1.034  0.3697  1.7785 -1.1097
   19SOL     OW   55   2.412   0.995   0.591  0.2250 -0.3058 -0.2907
   19SOL    HW1   56   2.407   1.095   0.621 -0.6022  4.2644 -1.1533
   19SOL    HW2   57   2.328   0.972   0.541  0.3361 -2.0413 -0.4183
   20SOL     OW   58   2.431   1.636   2.574 -0.3871  0.4374  0.3933
   20SOL    HW1   59   2.514   1.603   2.528 -1.0595  0.7418  1.1778
   20SOL    HW2   60   2.450   1.728   2.606 -0.2579  0.2565 -0.3315
   21SOL     OW   61   1.440   0.042   0.130 -0.1554 -0.2537  0.2933
   21SOL    HW1   62   1.392   0.035   0.221 -0.6172 -1.2071  2.6488
   21SOL    HW2   63   1.387   0.102   0.068 -1.1589 -1.9461  1.9626
   22SOL     OW   64   2.892   1.070   0.846  0.8021  0.6291 -0.1217
   22SOL    HW1   65   2.886   1.017   0.933  0.8862 -0.7256  2.0114
   22SOL    HW2   66   2.834   1.021   0.779 -0.5168 -0.1237  1.3058
   23SOL     OW   67   0.596   0.047   1.835  0.2036 -0.0855 -0.0828
   23SOL    HW1   68   0.661   0.066   1.912  2.3685  2.8681  1.0663
   23SOL    HW2   69   0.565   0.134   1.792  3.1110 -0.6849 -0.6098
   24SOL     OW   70   2.513   2.121   0.867  0.0887  0.3293  0.1611
   24SOL    HW1   71   2.436   2.182   0.835 -0.7067 -0.8772 -1.0350
   24SOL    HW2   72   2.472   2.038   0.914  2.9377 -0.1529  0.0397
   25SOL     OW   73   1.697   0.031   2.510  0.1426 -0.2105  0.1065
   25SOL    HW1   74   1.658   0.126   2.509 -0.2373  2.9649 -2.7637
   25SOL    HW2   75   1.629   3.061   2.530 -2.0079  3.6315 -0.8134
   26SOL     OW   76   1.459   2.355   0.167 -0.7232  0.4618 -0.5070
   26SOL    HW1   77   1.557   2.360   0.207  3.5722  2.7096  4.1792
   26SOL    HW2   78   1.461   2.403   0.075  0.8418  0.0528 -2.5849
   27SOL     OW   79   1.636   0.649   1.533  0.4196 -0.6183  0.4719
   27SOL    HW1   80   1.666   0.648   1.435 -2.7242 -1.6132 -2.4636
   27SOL    HW2   81   1.708   0.675   1.602  0.9458 -1.5759  3.2705
   28SOL     OW   82   0.944   1.516   0.558  0.6250 -0.2455  0.3871
   28SOL    HW1   83   0.865   1.466   0.601  0.1091 -2.2492  1.3631
   28SOL    HW2   84   1.030   1.517   0.613  0.1429 -0.5693 -1.5016
   29SOL     OW   85   2.575   0.373   1.476 -0.3914 -0.2090  0.5335
   29SOL    HW1   86   2.597   0.280   1.441  0.4266  0.4998 -0.4559
   29SOL    HW2   87   2.489   0.412   1.439 -1.2016  0.7109 -0.1929
   30SOL     OW   88   1.256   2.523   1.523 -0.1112  0.0367  0.1682
   30SOL    HW1   89   1.320   2.595   1.556  0.0432 -0.0231 -0.0248
   30SOL    HW2   90   1.268   2.501   1.425 -1.2139  0.4075 -0.8995
   31SOL     OW   91   1.869   2.729   1.348 -0.1582  0.3425  0.1941
   31SOL    HW1   92   1.925   2.784   1.417  3.4899  2.2750  2.6155
   31SOL    HW2   93   1.912   2.733   1.256  3.8604  0.4917 -1.6912
   32SOL     OW   94   2.032   1.344   2.559  0.2217 -0.1331 -0.0045
   32SOL    HW1   95   1.975   1.330   2.481  0.2582  0.1445  3.9023
   32SOL    HW2   96   2.128   1.367   2.523  1.2624  1.0563  0.0539
   33SOL     OW   97   2.363   0.508   2.935  0.7511 -0.2222  0.4229
   33SOL    HW1   98   2.329   0.554   3.020  0.3161  0.2226 -0.4210
   33SOL    HW2   99   2.328   0.548   2.850 -0.8822 -4.2944  0.7569
   34SOL     OW  100   1.931   0.158   0.329 -0.3206  0.3753 -0.1980
   34SOL    HW1  101   1.835   0.151   0.368  1.3098 -0.4024 -0.3361
   34SOL    HW2  102   2.002   0.116   0.390  0.2623 -0.2726  1.5872
   35SOL     OW  103   0.027   1.951   1.839  0.2260 -0.1386 -0.0111
   35SOL    HW1  104   3.060   1.985   1.776 -1.4123 -1.4866 -2.0072
   35SOL    HW2  105   3.090   1.928   1.927 -0.2247 -0.2245 -0.4246
   36SOL     OW  106   2.404   1.768   2.927 -0.5642  0.5313  0.0649
   36SOL    HW1  107   2.326   1.797   2.870  1.5122 -1.7347 -1.3584
   36SOL    HW2  108   2.494   1.803   2.894  0.9781  0.3975 -0.7336
   37SOL     OW  109   1.651   3.056   1.762 -0.0240  0.0424 -0.0819
   37SOL    HW1  110   1.686   2.960   1.745  1.1738  0.1435 -1.5900
   37SOL    HW2  111   1.573   3.047   1.826 -0.4630 -0.8238  1.5841
   38SOL     OW  112   0.305   0.518   2.400 -0.3173  0.3039  0.1683
   38SOL    HW1  113   0.306   0.609   2.357  2.0899 -0.7603  1.2994
   38SOL    HW2  114   0.399   0.473   2.398  4.6857 -0.9727 -0.7480
   39SOL     OW  115   2.245   0.826   1.274  0.2996 -0.2101 -0.1965
   39SOL    HW1  116   2.164   0.813   1.335  1.1753 -0.8642 -1.3958
   39SOL    HW2  117   2.209   0.827   1.178 -2.1698  0.5795 -0.5788
   40SOL     OW  118   1.110   2.414   0.761  0.0218  0.3340  0.1434
   40SOL    HW1  119   1.055   2.329   0.774  1.0402  1.4475 -0.7693
   40SOL    HW2  120   1.155   2.417   0.667  0.6435 -2.0899  0.1006
   41SOL     OW  121   1.918   1.984   0.916 -0.1235  0.0223 -0.0330
   41SOL    HW1  122   1.858   2.021   0.844  0.3656 -1.3839  1.4901
   41SOL    HW2  123   1.889   2.027   1.002  1.6396 -2.2655 -1.5673
   42SOL     OW  124   2.503   0.553   0.854 -0.0150 -0.0925  0.3722
   42SOL    HW1  125   2.596   0.560   0.890 -0.3288 -0.9754  0.0268
   42SOL    HW2  126   2.471   0.645   0.822 -1.6048  1.0185 -2.5175
   43SOL     OW  127   0.657   1.255   2.471  0.0794  0.5581  0.1765
   43SOL    HW1  128   0.746   1.254   2.419 -1.0152 -1.1147  1.7477
   43SOL    HW2  129   0.605   1.340   2.462 -0.6580 -3.1745  0.6973
   44SOL     OW  130   1.614   2.775   1.253  0.4161  0.3938  0.6585
   44SOL    HW1  131   1.538   2.768   1.318  0.6168 -0.3676 -2.1059
   44SOL    HW2  132   1.707   2.736   1.285 -0.3303  1.3317  1.3295
   45SOL     OW  133   0.961   3.022   2.540  0.0598 -0.5373  0.0375
   45SOL    HW1  134   1.009   2.942   2.497  2.3490 -0.9541 -0.8421
   45SOL    HW2  135   0.878   2.995   2.595 -1.7628 -0.4725  0.3088
   46SOL     OW  136   0.807   2.545   2.123  0.0150  0.2030 -0.4698
   46SOL    HW1  137   0.853   2.461   2.083  1.4864  1.8257  0.4377
   46SOL    HW2  138   0.856   2.631   2.092  0.3486  0.7006 -1.5034
   47SOL     OW  139   0.992   2.175   0.728  0.5347  0.4078  0.3784
   47SOL    HW1  140   0.979   2.170   0.626  0.7323  1.6681 -0.4979
   47SOL    HW2  141   0.950   2.102   0.782 -1.3407  0.1679  0.0918
   48SOL     OW  142   0.800   2.365   1.329  0.3986 -0.1589  0.1238
   48SOL    HW1  143   0.815   2.398   1.232 -1.3978  2.1535  0.7067
   48SOL    HW2  144   0.867   2.405   1.393 -2.3244  0.0390 -0.4287
   49SOL     OW  145   2.766   3.087   2.944 -0.2111  0.1933  0.4561
   49SOL    HW1  146   2.725   0.073   2.959 -1.7088 -0.1075 -0.5362
   49SOL    HW2  147   2.792   3.069   2.847 -0.1656  0.6629 -2.3455
   50SOL     OW  148   1.768   0.885   0.395 -0.1582  0.3697 -0.1260
   50SOL    HW1  149   1.815   0.795   0.420 -0.3882 -0.5000 -1.0312
   50SOL    HW2  150   1.667   0.874   0.406  0.3659  0.1625 -0.1898
   51SOL     OW  151   2.242   0.144   0.864  0.5840 -0.0521 -0.4220
   51SOL    HW1  152   2.210   0.166   0.770  2.6328 -0.3365 -0.1646
   51SOL    HW2  153   2.211   0.055   0.897  0.1725  2.5567  1.3468
   52SOL     OW  154   0.892   1.531   0.095  0.4003  0.4620  0.1303
   52SOL    HW1  155   0.927   1.530   0.000  1.4000 -1.9799  0.1268
   52SOL    HW2  156   0.844   1.618   0.119  0.7579 -1.1851 -0.5092
   53SOL     OW  157   0.188   1.117   2.875 -0.1657 -0.1686 -1.2089
   53SOL    HW1  158   0.232   1.032   2.912 -1.0374 -0.0645 -0.9474
   53SOL    HW2  159   0.256   1.170   2.822 -3.3536  0.2853  1.4684
   54SOL     OW  160   2.161   1.774   2.784  0.2898 -0.0325 -0.5849
   54SOL    HW1  161   2.146   1.809   2.685 -0.2000  2.4703 -2.4980
   54SOL    HW2  162   2.074   1.775   2.839  2.2882 -0.0893  0.9866
   55SOL     OW  163   2.174   2.135   1.320  0.6258  0.0989  0.0325
   55SOL    HW1  164   2.267   2.109   1.357 -1.1915  1.7025 -3.6714
   55SOL    HW2  165   2.157   2.093   1.227 -0.9348  2.5137  0.8731
   56SOL     OW  166   1.916   3.055   1.054 -0.0828 -0.1451 -0.0000
   56SOL    HW1  167   1.921   2.956   1.077 -1.2518  2.9937 -1.2654
   56SOL    HW2  168   1.822   3.087   1.025 -1.0575  0.3148 -0.3037
   57SOL     OW  169   1.721   1.306   0.777 -0.5894 -0.5690 -0.1081
   57SOL    HW1  170   1.745   1.403   0.790  2.1458 -1.3779  1.7324
   57SOL    HW2  171   1.772   1.262   0.704  0.0885  0.3029 -0.2897
   58SOL     OW  172   2.417   3.094   1.584 -0.0261  0.2465 -0.5218
   58SOL    HW1  173   2.479   0.038   1.519  0.2291 -1.3409 -0.6189
   58SOL    HW2  174   2.394   0.044   1.672  1.5911  0.5446  0.3072
   59SOL     OW  175   1.066   2.795   2.383 -0.7642 -0.1036 -0.1863
   59SOL    HW1  176   1.167   2.766   2.393 -0.8563 -1.3411  0.3372
   59SOL    HW2  177   1.040   2.818   2.287 -0.2218 -1.6208 -1.3161
   60SOL     OW  178   0.026   3.076   2.847 -0.3081 -0.2073  0.2182
   60SOL    HW1  179   0.123   3.038   2.839  0.3877 -1.0458  1.4204
   60SOL    HW2  180   3.065   3.001   2.872  1.4852  0.3659 -0.6458
   61SOL     OW  181   0.797   2.334   0.839 -0.1744 -0.2171 -0.1964
   61SOL    HW1  182   0.866   2.275   0.792  0.9815 -2.0781 -1.2592
   61SOL    HW2  183   0.701   2.298   0.828  0.7651  1.7064  3.9572
   62SOL     OW  184   1.049   2.142   2.263  1.1246  0.0723 -0.4702
   62SOL    HW1  185   1.030   2.238   2.269 -1.6234 -2.4050 -1.1091
   62SOL    HW2  186   1.141   2.128   2.215 -4.4859 -2.0864 -2.4022
   63SOL     OW  187   1.608   1.856   0.623  0.0005 -0.1826 -0.5781
   63SOL    HW1  188   1.654   1.869   0.534  0.9162 -1.3186 -0.7878
   63SOL    HW2  189   1.568   1.762   0.626 -0.1844  0.5394 -0.9390
   64SOL     OW  190   1.718   1.432   0.467  0.0637  0.3832 -0.3935
   64SOL    HW1  191   1.675   1.422   0.377 -0.2293 -5.3129  0.2929
   64SOL    HW2  192   1.754   1.340   0.498 -0.0644 -1.4550  1.9106
   65SOL     OW  193   1.639   2.167   2.339  0.1738 -0.0109  0.0329
   65SOL    HW1  194   1.590   2.080   2.357 -1.8631 -0.0291 -0.5829
   65SOL    HW2  195   1.705   2.192   2.413  1.7516  1.0559  1.2223
   66SOL     OW  196   0.591   0.819   1.287 -0.1345 -0.4172  0.0278
   66SOL    HW1  197   0.559   0.725   1.308 -3.5503  0.8653  0.4737
   66SOL    HW2  198   0.594   0.837   1.188  0.3085 -0.2799  2.5014
   67SOL     OW  199   2.233   2.553   0.365  0.3710 -0.0996  0.2163
   67SOL    HW1  200   2.265   2.647   0.362 -0.5264 -1.2339 -0.4175
   67SOL    HW2  201   2.288   2.493   0.424 -4.7045  2.0121 -0.5580
   68SOL     OW  202   2.059   2.333   1.471  0.0100  0.3941  0.5866
   68SOL    HW1  203   2.114   2.282   1.399  0.6478 -1.2714 -0.8345
   68SOL    HW2  204   2.019   2.273   1.541 -0.2794 -0.7799 -0.0196
   69SOL     OW  205   2.475   2.129   2.828 -0.1372 -0.3982 -0.0976
   69SOL    HW1  206   2.469   2.227   2.867 -1.2547  1.7787 -2.0241
   69SOL    HW2  207   2.570   2.090   2.823  0.7894  0.0626  2.4179
   70SOL     OW  208   0.215   1.165   2.470  0.0510  0.4327  0.4423
   70SOL    HW1  209   0.152   1.242   2.495  1.6042  1.3710  0.7537
   70SOL    HW2  210   0.159   1.081   2.489  3.1743  0.4908  0.5855
   71SOL     OW  211   0.589   0.999   2.433  0.2246 -0.0209  0.1706
   71SOL    HW1  212   0.614   1.100   2.424  0.3677  0.6826  3.9978
   71SOL    HW2  213   0.665   0.951   2.477  1.3428  3.0346  1.9320
   72SOL     OW  214   2.335   1.575   2.121 -0.2259 -0.0335 -0.2611
   72SOL    HW1  215   2.355   1.502   2.051  1.2660 -2.5028  0.7331
   72SOL    HW2  216   2.408   1.645   2.123 -2.3759  2.2437  0.1308
   73SOL     OW  217   1.122   1.932   2.951  0.4644  0.0176  0.2859
   73SOL    HW1  218   1.033   1.898   2.921 -0.8955 -0.7065  1.7794
   73SOL    HW2  219   1.184   1.907   2.872  1.7025  0.0461  1.6989
   74SOL     OW  220   1.765   3.001   2.295  0.0311 -0.0701  0.3885
   74SOL    HW1  221   1.853   2.968   2.254 -0.0103 -1.4434 -0.2445
   74SOL    HW2  222   1.784   3.043   2.385  0.0144 -1.6862 -0.2228
   75SOL     OW  223   1.311   2.844   0.538 -0.2389  0.2098  0.0365
   75SOL    HW1  224   1.341   2.789   0.462 -1.2192  0.1422  4.1053
   75SOL    HW2  225   1.299   2.789   0.621  1.5978 -1.6926  0.3413
   76SOL     OW  226   3.004   2.039   2.743  0.1081 -0.0279 -0.6936
   76SOL    HW1  227   3.024   1.945   2.777  1.0698 -2.4588 -0.2465
   76SOL    HW2  228   3.054   2.060   2.658 -2.2790  0.0683  0.4775
   77SOL     OW  229   0.008   2.365   1.403 -0.1441  0.2761  0.4756
   77SOL    HW1  230   0.063   2.320   1.325 -0.1305 -0.8667 -0.2785
   77SOL    HW2  231   0.037   2.329   1.495 -0.5354 -1.5617  0.2544
   78SOL     OW  232   2.664   1.030   0.042 -0.0405 -0.3601  0.1782
   78SOL    HW1  233   2.639   1.131   0.065 -0.8779  1.6602  2.4920
   78SOL    HW2  234   2.584   0.972   0.024 -1.2365  1.3138  1.3733
   79SOL     OW  235   0.249   1.828   2.780  0.0313 -0.0958 -0.2643
   79SOL    HW1  236   0.282   1.732   2.769  2.4483  0.7600 -0.5177
   79SOL    HW2  237   0.231   1.858   2.875  0.8939  0.1344 -1.6660
   80SOL     OW  238   1.660   1.479   1.726 -0.0330  0.1293 -0.4088
   80SOL    HW1  239   1.753   1.512   1.710  0.1210 -0.0235  0.8872
   80SOL    HW2  240   1.605   1.557   1.770 -2.0652  1.3088 -1.1676
   81SOL     OW  241   2.109   1.206   2.251 -0.0054 -0.4809 -0.4233
   81SOL    HW1  242   2.015   1.200   2.275  1.6225 -0.8045 -0.8037
   81SOL    HW2  243   2.139   1.299   2.278  1.1425 -0.2399  1.0224
   82SOL     OW  244   1.508   1.292   1.629  0.0382 -0.0168  0.1876
   82SOL    HW1  245   1.553   1.374   1.672 -0.8481  0.2906  0.0558
   82SOL    HW2  246   1.440   1.259   1.699 -1.4548 -0.0592 -1.6467
   83SOL     OW  247   2.925   0.287   3.055  0.3254  0.5302  0.1263
   83SOL    HW1  248   2.966   0.226   0.023 -0.2404  0.3056 -1.2784
   83SOL    HW2  249   2.933   0.245   2.965  1.0626  2.1794 -3.5981
   84SOL     OW  250   0.060   1.142   0.179 -0.5761  0.5306 -0.1698
   84SOL    HW1  251   0.032   1.127   0.085 -0.0357 -2.1153 -0.6860
   84SOL    HW2  252   0.045   1.235   0.211  0.4342 -0.4790 -1.7691
   85SOL     OW  253   2.117   1.681   2.030 -0.2782 -0.5744 -0.0510
   85SOL    HW1  254   2.197   1.630   2.062  0.1762  3.1999  1.3810
   85SOL    HW2  255   2.066   1.718   2.107  0.0305  0.3098 -1.9492
   86SOL     OW  256   0.720   0.845   1.027 -0.5758 -0.5988 -0.0678
   86SOL    HW1  257   0.712   0.944   1.000 -0.8376 -1.1035 -0.9002
   86SOL    HW2  258   0.647   0.786   0.988  0.9990 -1.0823 -0.3109
   87SOL     OW  259   2.641   2.118   2.176  0.4405 -0.3534 -0.4398
   87SOL    HW1  260   2.621   2.130   2.080  1.4504 -1.9429 -1.0995
   87SOL    HW2  261   2.731   2.154   2.205 -1.5394  0.9045  0.6571
   88SOL     OW  262   0.309   2.384   0.015 -0.2309  0.4768 -0.0046
   88SOL    HW1  263   0.380   2.448   3.085  1.2261  1.1812 -0.4556
   88SOL    HW2  264   0.315   2.365   0.116  1.5468  1.0966 -0.0370
   89SOL     OW  265   1.526   0.509   0.271 -1.0835  0.2441 -0.1806
   89SOL    HW1  266   1.430   0.511   0.235  0.7301  0.1203  0.2566
   89SOL    HW2  267   1.595   0.518   0.196  0.0902  0.5554 -0.8686
   90SOL     OW  268   3.068   1.561   2.333 -0.3611  0.3890  0.1482
   90SOL    HW1  269   3.003   1.566   2.252 -0.5512 -1.0613 -0.9594
   90SOL    HW2  270   0.017   1.647   2.344 -0.0998  1.8820 -1.4630
   91SOL     OW  271   2.274   3.038   1.345  0.0274 -0.1810 -1.1979
   91SOL    HW1  272   2.319   3.092   1.417  2.9785  1.6449  0.6688
   91SOL    HW2  273   2.202   3.096   1.303  2.3806  0.4929  1.6452
   92SOL     OW  274   2.326   1.424   1.127  0.3410 -0.1528  0.4020
   92SOL    HW1  275   2.304   1.519   1.163  1.6587  2.5126  1.3618
   92SOL    HW2  276   2.241   1.367   1.114 -2.8423  0.1319  0.7453
   93SOL     OW  277   3.102   1.390   0.284 -0.6733  0.2697  0.4368
   93SOL    HW1  278   3.039   1.439   0.350  0.1427  0.2144  1.7142
   93SOL    HW2  279   0.090   1.441   0.269  1.0892  0.9243  1.1466
   94SOL     OW  280   1.112   2.545   1.772  0.3716 -0.2014 -0.3364
   94SOL    HW1  281   1.026   2.596   1.773  0.8294 -0.0251  1.6021
   94SOL    HW2  282   1.176   2.576   1.703  0.1650 -0.7009  2.7945
   95SOL     OW  283   0.066   0.601   1.058  0.2874 -0.6071 -0.3129
   95SOL    HW1  284   0.150   0.645   1.095 -0.5451 -1.9891 -1.9793
   95SOL    HW2  285   0.036   0.518   1.105  0.3377  1.8116  0.8921
   96SOL     OW  286   3.074   2.626   1.708  0.0643  0.0044  0.2839
   96SOL    HW1  287   3.049   2.725   1.696  0.7836  1.8676  1.4978
   96SOL    HW2  288   0.002   2.590   1.622  0.0835 -0.4861 -0.6294
   97SOL     OW  289   2.335   0.505   1.390  0.3003  0.3393  0.5610
   97SOL    HW1  290   2.348   0.589   1.445 -2.9153 -0.6834  0.1329
   97SOL    HW2  291   2.359   0.517   1.287  0.1682  1.0663  0.1821
   98SOL     OW  292   2.593   2.295   1.515  0.2600 -0.1647  0.2035
   98SOL    HW1  293   2.608   2.355   1.429  2.4513 -1.2644 -1.7992
   98SOL    HW2  294   2.567   2.201   1.483  2.9898  0.3910 -0.8873
   99SOL     OW  295   0.188   0.149   1.594  0.3921  0.0489  0.3920
   99SOL    HW1  296   0.184   0.220   1.670 -0.9547  0.8740 -0.3868
   99SOL    HW2  297   0.102   0.159   1.541  0.7903 -0.3386  1.0061
  100SOL     OW  298   2.270   0.251   2.591  0.2615 -0.5296 -0.7180
  100SOL    HW1  299   2.196   0.314   2.623  0.9064 -0.7764 -0.3396
  100SOL    HW2  300   2.271   0.168   2.647  0.3704 -1.7900 -2.1754
  101SOL     OW  301   0.092   0.289   2.222  0.0348 -0.0288  0.4125
  101SOL    HW1  302   0.147   0.232   2.158  3.2218  0.1190 -0.9842
  101SOL    HW2  303   0.150   0.324   2.297  0.0515  3.1927  0.5343
  102SOL     OW  304   0.589   0.293   1.736 -0.1537 -0.1512  0.2358
  102SOL    HW1  305   0.559   0.271   1.639 -1.1090 -0.1482  0.8411
  102SOL    HW2  306   0.688   0.320   1.737 -0.0642  0.4507 -2.0365
  103SOL     OW  307   1.113   0.752   2.564  0.2076  0.8370  0.2676
  103SOL    HW1  308   1.105   0.846   2.600  2.0574  1.0837  2.6229
  103SOL    HW2  309   1.148   0.689   2.636  1.7801 -2.2203 -2.2622
  104SOL     OW  310   0.182   0.556   1.924 -0.0576 -0.4903 -0.3565
  104SOL    HW1  311   0.134   0.635   1.871  1.2780 -0.8311 -2.4852
  104SOL    HW2  312   0.271   0.596   1.955 -0.5211  2.2469  2.1544
  105SOL     OW  313   2.366   1.898   1.714  0.4955 -0.2035  0.1081
  105SOL    HW1  314   2.353   1.943   1.804 -0.9389 -1.3583 -0.9312
  105SOL    HW2  315   2.282   1.842   1.695  1.7307  0.9152  0.4507
  106SOL     OW  316   1.696   0.137   0.459  0.2473  0.6730 -0.1271
  106SOL    HW1  317   1.744   0.112   0.543 -1.4329 -3.6340 -0.8399
  106SOL    HW2  318   1.617   0.204   0.467 -0.2343  4.1774 -0.4526
  107SOL     OW  319   2.181   2.017   1.088  0.0736 -0.0040  0.1905
  107SOL    HW1  320   2.102   2.019   1.021 -0.6144  0.6892  0.1369
  107SOL    HW2  321   2.261   1.992   1.034  1.0196 -1.8295  0.5066
  108SOL     OW  322   0.170   2.236   1.211 -0.2508  0.0844 -0.1892
  108SOL    HW1  323   0.183   2.276   1.117 -1.6918 -0.5492  0.2887
  108SOL    HW2  324   0.225   2.149   1.219  0.0423 -1.1177 -0.5131
  109SOL     OW  325   1.637   2.594   1.037  0.1590 -0.4142 -0.2829
  109SOL    HW1  326   1.581   2.623   0.956 -1.3523  0.8216  1.1730
  109SOL    HW2  327   1.614   2.659   1.106  1.1806 -1.2327 -2.3021
  110SOL     OW  328   1.797   1.698   1.211 -0.3117 -0.3421 -0.2910
  110SOL    HW1  329   1.864   1.775   1.204 -0.5943  2.5220 -1.9028
  110SOL    HW2  330   1.827   1.614   1.165  0.2602  0.6395  0.7390
  111SOL     OW  331   1.402   2.280   1.840  0.0966 -0.0489  0.0982
  111SOL    HW1  332   1.461   2.244   1.768 -2.1314  1.3849  2.5864
  111SOL    HW2  333   1.428   2.374   1.871 -0.1832 -0.5604 -1.6682
  112SOL     OW  334   1.962   2.151   3.020 -0.3384  0.3278 -0.5208
  112SOL    HW1  335   1.931   2.058   3.042 -0.6504 -2.0702 -0.9916
  112SOL    HW2  336   2.041   2.138   2.959  1.4087  1.6569 -1.7153
  113SOL     OW  337   1.985   1.783   1.817  0.2644 -0.4556  0.1055
  113SOL    HW1  338   1.938   1.863   1.855 -0.1778 -1.1932 -1.5375
  113SOL    HW2  339   2.045   1.739   1.886  1.6671 -0.6258 -0.7535
  114SOL     OW  340   0.029   1.318   1.813 -0.5948 -0.4312 -0.0158
  114SOL    HW1  341   3.064   1.391   1.784  0.9826 -1.4754  0.1622
  114SOL    HW2  342   3.093   1.224   1.798 -2.5412 -1.4977 -0.4001
  115SOL     OW  343   3.031   0.743   2.999  0.3030 -0.0510 -0.4465
  115SOL    HW1  344   2.998   0.645   2.995 -2.1216 -3.9746 -0.9952
  115SOL    HW2  345   0.005   0.755   3.062 -0.7323  0.9361 -0.8213
  116SOL     OW  346   2.389   0.930   0.004  0.0158 -0.0493 -0.2543
  116SOL    HW1  347   2.340   0.982   3.034  0.4904 -0.5527 -1.9721
  116SOL    HW2  348   2.360   0.834   3.102 -0.7255 -0.3170  0.3894
  117SOL     OW  349   2.650   2.353   0.045  0.1273  0.7398  0.1353
  117SOL    HW1  350   2.746   2.352   0.010 -1.3768 -0.0705 -0.9122
  117SOL    HW2  351   2.590   2.395   3.078  1.1618 -1.1573 -1.6888
  118SOL     OW  352   0.571   2.343   2.759 -0.4270  0.4263  0.4698
  118SOL    HW1  353   0.654   2.342   2.820  0.8806  1.0839 -2.1766
  118SOL    HW2  354   0.508   2.260   2.771 -0.4277  1.0749 -2.2958
  119SOL     OW  355   0.570   2.782   0.440 -0.7023  0.2671 -0.5328
  119SOL    HW1  356   0.553   2.804   0.536 -1.5371  2.2630  0.9765
  119SOL    HW2  357   0.500   2.721   0.410  0.9745  3.9406  1.4397
  120SOL     OW  358   1.311   0.845   0.262  0.4225  0.3903 -0.0874
  120SOL    HW1  359   1.223   0.797   0.268  0.2703 -0.0682 -1.0600
  120SOL    HW2  360   1.313   0.943   0.290  0.9105  0.4846  1.9882
  121SOL     OW  361   1.430   2.718   0.867 -0.6168 -0.2915 -0.4669
  121SOL    HW1  362   1.438   2.816   0.832  0.9289  1.7249 -1.4377
  121SOL    HW2  363   1.447   2.652   0.790  0.8181 -1.3698  2.2774
  122SOL     OW  364   2.567   1.584   2.332 -0.2861  0.1140 -0.3454
  122SOL    HW1  365   2.605   1.676   2.302  0.0402  0.5477 -0.9505
  122SOL    HW2  366   2.643   1.525   2.359 -0.8511 -1.8147  0.4338
  123SOL     OW  367   1.162   1.351   1.151  0.5339 -0.5274 -0.1605
  123SOL    HW1  368   1.162   1.323   1.251 -0.4810  0.5018  0.9440
  123SOL    HW2  369   1.151   1.262   1.099  0.5638 -1.8394  0.4875
  124SOL     OW  370   0.503   0.479   3.101 -0.0355 -0.0304  0.0929
  124SOL    HW1  371   0.458   0.403   3.044 -1.1213  0.7461 -1.9569
  124SOL    HW2  372   0.589   0.509   3.054 -1.0437  2.2315  0.7369
  125SOL     OW  373   0.641   0.256   0.378  0.1813  0.0511 -0.1416
  125SOL    HW1  374   0.632   0.160   0.346  0.3770 -0.7317 -0.2876
  125SOL    HW2  375   0.545   0.295   0.390  0.7619  0.8013  0.3600
  126SOL     OW  376   0.306   1.738   0.452 -0.1667  0.5591  0.4418
  126SOL    HW1  377   0.405   1.719   0.437  2.0901 -0.2972 -2.6729
  126SOL    HW2  378   0.261   1.695   0.533 -2.6446  1.9819  2.2144
  127SOL     OW  379   0.888   2.689   1.753 -0.2217 -0.3355 -0.3810
  127SOL    HW1  380   0.802   2.680   1.702  0.9835  0.7256 -4.3368
  127SOL    HW2  381   0.895   2.775   1.808  0.6421 -0.6918 -0.2106
  128SOL     OW  382   1.293   1.602   0.136  0.1683 -0.1410  0.0821
  128SOL    HW1  383   1.209   1.596   0.197 -1.9084 -1.0991  2.4124
  128SOL    HW2  384   1.312   1.513   0.088 -0.0642 -1.3403  0.1261
  129SOL     OW  385   1.742   1.747   2.042 -0.3615  0.6200 -0.1850
  129SOL    HW1  386   1.662   1.728   1.980 -0.5261  0.6757 -2.9208
  129SOL    HW2  387   1.796   1.660   2.060  0.1717 -0.0152  0.8204
  130SOL     OW  388   1.581   2.222   1.615 -1.0032 -0.5082  0.6970
  130SOL    HW1  389   1.597   2.137   1.565 -2.9903 -1.3807  0.9831
  130SOL    HW2  390   1.590   2.298   1.550 -2.0798 -1.3424  3.1205
  131SOL     OW  391   0.147   2.289   1.993 -0.3196  0.3512  0.1473
  131SOL    HW1  392   0.149   2.271   1.894 -2.5543  0.6951  2.7641
  131SOL    HW2  393   0.059   2.340   1.998  1.7446 -0.1848 -2.7932
  132SOL     OW  394   3.010   1.689   0.972 -0.1520  0.2453 -0.1075
  132SOL    HW1  395   3.086   1.741   0.931  4.0717 -2.1171 -0.8382
  132SOL    HW2  396   2.952   1.751   1.028 -0.7408 -3.0104 -0.3731
  133SOL     OW  397   0.523   0.542   1.602  0.0016  0.0389  0.1639
  133SOL    HW1  398   0.589   0.539   1.526 -2.7374 -0.3007 -0.1768
  133SOL    HW2  399   0.562   0.534   1.692  2.1889  1.2439 -0.8295
  134SOL     OW  400   2.547   1.614   0.193 -0.4515 -0.2290 -0.4119
  134SOL    HW1  401   2.476   1.668   0.246 -2.7864 -1.7325 -2.1926
  134SOL    HW2  402   2.522   1.591   0.096  1.2914  2.6585 -0.3322
  135SOL     OW  403   1.761   0.895   2.719  0.0739  0.0973  0.7537
  135SOL    HW1  404   1.841   0.831   2.710 -0.8928  2.1944  0.1266
  135SOL    HW2  405   1.719   0.915   2.629  0.6640  1.6792 -2.6970
  136SOL     OW  406   2.687   1.853   1.412  0.0645  0.0409 -0.1789
  136SOL    HW1  407   2.603   1.814   1.370 -1.6646 -1.9080 -0.1233
  136SOL    HW2  408   2.659   1.894   1.499 -1.1079  0.4017 -0.6122
  137SOL     OW  409   2.404   1.833   0.598 -0.4091  0.0172 -0.1982
  137SOL    HW1  410   2.406   1.765   0.675 -1.7388  0.0109 -2.7404
  137SOL    HW2  411   2.492   1.880   0.600 -0.0674 -2.9712  0.9390
  138SOL     OW  412   2.923   0.769   0.765  0.2478  0.1038 -0.5541
  138SOL    HW1  413   2.821   0.771   0.736 -1.1332  0.3777  1.5266
  138SOL    HW2  414   2.954   0.676   0.748 -0.8354  0.9979  1.1765
  139SOL     OW  415   2.853   2.855   0.307 -0.3489  0.1233 -0.9648
  139SOL    HW1  416   2.769   2.893   0.268  1.4876  0.5575  2.7956
  139SOL    HW2  417   2.909   2.931   0.343  1.3091  0.8996  2.7638
  140SOL     OW  418   0.818   1.278   1.357  0.0602 -0.2590 -0.1388
  140SOL    HW1  419   0.745   1.316   1.416 -0.7891 -3.3636  1.5544
  140SOL    HW2  420   0.813   1.176   1.341 -1.3821  1.8144 -2.4648
  141SOL     OW  421   1.321   1.496   0.947  0.3891 -0.3730 -0.6224
  141SOL    HW1  422   1.325   1.601   0.970 -0.4268  4.0315  0.8775
  141SOL    HW2  423   1.268   1.437   1.010 -0.5316 -1.1199  1.9826
  142SOL     OW  424   1.108   0.534   1.116  0.0633  0.4831  0.2243
  142SOL    HW1  425   1.149   0.584   1.192 -1.9507  1.5647  0.8500
  142SOL    HW2  426   1.052   0.456   1.151 -0.9232  0.4993  0.0362
  143SOL     OW  427   0.370   1.009   2.283 -0.2916  0.1376  0.5791
  143SOL    HW1  428   0.313   1.061   2.351 -1.4982 -0.3120  0.9277
  143SOL    HW2  429   0.462   0.983   2.321 -2.0119  2.0300 -0.3825
  144SOL     OW  430   2.413   3.013   0.591  0.2211 -0.5669 -0.2683
  144SOL    HW1  431   2.458   2.936   0.639 -0.8748  1.6798 -1.3231
  144SOL    HW2  432   2.404   3.096   0.651 -0.9165  0.9390  0.1149
  145SOL     OW  433   2.287   0.068   2.802  0.4650  0.1557 -0.2698
  145SOL    HW1  434   2.367   0.034   2.849 -2.5225  1.3230  1.6107
  145SOL    HW2  435   2.247   0.146   2.849 -0.5665 -0.4747 -0.0818
  146SOL     OW  436   2.950   2.931   0.673 -0.4760  0.3445  0.3672
  146SOL    HW1  437   2.939   2.840   0.724  0.1992 -0.5467  1.7652
  146SOL    HW2  438   2.931   3.007   0.735  0.5226 -1.4767 -1.3685
  147SOL     OW  439   1.023   1.246   2.571  1.3563  0.0778  0.0850
  147SOL    HW1  440   0.999   1.288   2.487  3.3910 -0.5018  4.6564
  147SOL    HW2  441   1.109   1.193   2.550 -0.2423  0.5652 -1.6617
  148SOL     OW  442   1.565   3.094   2.945 -0.3419  0.8529 -0.4152
  148SOL    HW1  443   1.626   3.016   2.962 -1.7182  2.3695  1.1772
  148SOL    HW2  444   1.533   0.032   3.035 -1.0488  1.5392 -0.4075
  149SOL     OW  445   1.405   0.155   2.070 -0.0965 -0.9918 -0.6230
  149SOL    HW1  446   1.316   0.166   2.115  2.4028  1.2688 -1.4263
  149SOL    HW2  447   1.427   0.247   2.030 -1.7698  1.3990 -2.2692
  150SOL     OW  448   2.089   2.804   3.017 -0.1091  0.1972 -0.8570
  150SOL    HW1  449   2.171   2.744   2.995  1.4185 -1.2331 -1.4227
  150SOL    HW2  450   2.021   2.750   3.069  1.3627  1.9113 -1.3449
  151SOL     OW  451   0.701   1.661   2.902 -0.0400 -0.5154  0.8489
  151SOL    HW1  452   0.601   1.641   2.910 -1.9448 -1.0092  1.8060
  151SOL    HW2  453   0.753   1.584   2.937 -0.8513 -1.1490 -0.4736
  152SOL     OW  454   0.318   3.048   1.252  0.0218  0.0561 -0.2538
  152SOL    HW1  455   0.226   3.038   1.294 -1.1569 -1.9762 -0.0828
  152SOL    HW2  456   0.384   3.047   1.333 -0.6930  0.2022  3.4696
  153SOL     OW  457   2.597   2.780   1.841  0.5230  0.1948 -0.1691
  153SOL    HW1  458   2.696   2.751   1.855  1.4377  0.7466 -1.7240
  153SOL    HW2  459   2.576   2.866   1.892 -0.6909 -0.1708  1.7182
  154SOL     OW  460   2.303   2.932   2.379  0.2930 -0.3306 -0.3895
  154SOL    HW1  461   2.260   3.020   2.397  0.7839 -0.2628 -0.6637
  154SOL    HW2  462   2.331   2.916   2.284 -0.9114 -0.0023  1.1990
  155SOL     OW  463   0.241   1.291   0.613  0.2326 -0.3515 -0.5335
  155SOL    HW1  464   0.160   1.351   0.594  0.6084 -0.7305 -0.8890
  155SOL    HW2  465   0.317   1.335   0.661  2.5030 -2.7243 -0.5854
  156SOL     OW  466   2.815   1.606   0.805  0.3265 -0.9437 -0.3652
  156SOL    HW1  467   2.887   1.636   0.870 -2.8655  2.7340 -1.8244
  156SOL    HW2  468   2.810   1.676   0.731  1.6754 -1.2214  0.8783
  157SOL     OW  469   0.875   0.700   0.452  0.2470  0.0071 -0.1256
  157SOL    HW1  470   0.788   0.740   0.490 -2.4388 -1.0746  1.8669
  157SOL    HW2  471   0.922   0.655   0.527  0.8960  1.2866 -1.0169
  158SOL     OW  472   1.788   0.987   1.023  0.2815 -0.1813 -0.8354
  158SOL    HW1  473   1.716   0.950   0.964  0.8256  0.3534  1.4228
  158SOL    HW2  474   1.769   1.088   1.032 -1.6788 -0.3646  1.0922
  159SOL     OW  475   3.049   0.549   0.152  0.1143 -0.3045 -0.3708
  159SOL    HW1  476   3.090   0.643   0.147  0.6499 -2.8987 -1.6258
  159SOL    HW2  477   0.002   0.479   0.107 -1.2740  0.2079 -0.4073
  160SOL     OW  478   2.102   2.126   1.921  0.7135 -0.5355 -0.1174
  160SOL    HW1  479   2.029   2.082   1.980 -0.5935  1.3180  0.8073
  160SOL    HW2  480   2.152   2.203   1.967 -0.0165 -0.9849  1.6593
  161SOL     OW  481   0.335   0.908   2.963 -0.6373 -0.0062 -0.0092
  161SOL    HW1  482   0.407   0.905   2.889  0.5405 -0.6420 -1.3218
  161SOL    HW2  483   0.334   0.815   3.005  0.5095 -0.8573  2.3161
  162SOL     OW  484   0.729   0.389   2.018 -0.5605 -0.1132  0.2350
  162SOL    HW1  485   0.760   0.292   2.029  0.9173  3.7889  2.0685
  162SOL    HW2  486   0.629   0.382   2.015  2.3526  2.1087 -0.7286
  163SOL     OW  487   2.844   3.023   2.642  0.1474  0.2161 -0.5833
  163SOL    HW1  488   2.777   3.091   2.611  0.7962 -1.0069 -0.7504
  163SOL    HW2  489   2.937   3.022   2.605  0.2912 -0.3304 -0.2693
  164SOL     OW  490   2.064   2.093   0.315 -0.0797  0.3505 -0.5366
  164SOL    HW1  491   2.116   2.141   0.242 -0.2070 -0.0032  0.4617
  164SOL    HW2  492   2.106   2.118   0.405  0.5402 -1.2674  1.0250
  165SOL     OW  493   0.449   0.127   1.108 -0.1770  0.1586  0.2879
  165SOL    HW1  494   0.509   0.077   1.044 -1.0681  0.0554  4.0090
  165SOL    HW2  495   0.399   0.064   1.170 -1.1492  0.6188  0.9509
  166SOL     OW  496   2.417   0.501   0.313 -0.0386  0.0572 -0.0677
  166SOL    HW1  497   2.485   0.446   0.258 -2.9238  0.6759 -1.2993
  166SOL    HW2  498   2.352   0.445   0.359  2.5700  1.6012  0.4839
  167SOL     OW  499   2.340   0.959   0.302 -0.2058 -0.0721 -0.4910
  167SOL    HW1  500   2.399   0.879   0.326 -0.1853 -0.7907  1.3921
  167SOL    HW2  501   2.352   0.981   0.204  0.8919 -1.4835 -0.8561
  168SOL     OW  502   1.470   2.968   2.281 -0.7849 -0.2056  0.1422
  168SOL    HW1  503   1.442   2.874   2.317 -0.2044  0.6791  0.6322
  168SOL    HW2  504   1.567   2.983   2.307 -0.7002  1.1123  1.7729
  169SOL     OW  505   0.676   1.946   0.614  0.0137  0.2148  0.1890
  169SOL    HW1  506   0.605   2.003   0.570  1.3425 -0.2319  0.1549
  169SOL    HW2  507   0.696   1.983   0.707 -0.5121 -2.0735  0.6078
  170SOL     OW  508   3.027   1.047   1.442 -0.6136 -0.0379 -0.0773
  170SOL    HW1  509   0.010   1.090   1.409 -0.6459  1.7593  3.4488
  170SOL    HW2  510   3.042   0.945   1.436 -0.4952  0.3237  1.7440
  171SOL     OW  511   2.765   1.398   2.434 -0.6897 -0.1919 -0.0917
  171SOL    HW1  512   2.792   1.344   2.513  1.0070  2.4142  1.0255
  171SOL    HW2  513   2.767   1.340   2.350  3.5582 -1.3779  2.9034
  172SOL     OW  514   0.894   1.866   1.251 -0.3339 -0.0620 -0.5728
  172SOL    HW1  515   0.902   1.918   1.343 -0.5157  1.1093  0.5914
  172SOL    HW2  516   0.897   1.766   1.255 -0.2372  2.4420 -0.6448
  173SOL     OW  517   1.931   1.876   3.093  0.5032 -0.0301 -0.1363
  173SOL    HW1  518   1.866   1.871   0.067 -0.9441 -1.4622 -2.8634
  173SOL    HW2  519   2.029   1.855   0.014  1.7472 -0.2378  1.6976
  174SOL     OW  520   1.963   0.714   2.689 -0.4890  0.2178  0.5319
  174SOL    HW1  521   1.969   0.688   2.592 -0.2297  1.6752  1.8796
  174SOL    HW2  522   1.947   0.636   2.746  1.1248  3.0485 -4.4250
  175SOL     OW  523   1.081   1.606   1.162  0.0624  0.6260 -0.3970
  175SOL    HW1  524   1.112   1.508   1.147  1.4362  0.7846  0.1499
  175SOL    HW2  525   1.144   1.656   1.222  1.2476  0.7981  1.7631
  176SOL     OW  526   1.045   0.147   3.094  0.1021 -0.0610 -0.6033
  176SOL    HW1  527   0.995   0.236   0.001  0.3038 -0.9275 -0.4550
  176SOL    HW2  528   1.144   0.170   3.077  1.6257  2.0207 -0.5971
  177SOL     OW  529   0.234   1.555   0.254  0.1923  0.1608  0.0604
  177SOL    HW1  530   0.251   1.619   0.332 -3.3106  1.6634 -1.8382
  177SOL    HW2  531   0.314   1.490   0.246  0.6581 -0.4207 -2.0065
  178SOL     OW  532   2.996   2.433   2.457  0.1573  0.2353 -0.0097
  178SOL    HW1  533   2.972   2.474   2.548 -1.5805 -1.8533 -0.4325
  178SOL    HW2  534   3.083   2.466   2.428 -3.4030 -1.6110  0.6001
  179SOL     OW  535   2.608   2.806   2.632  0.4854 -0.0712 -0.1862
  179SOL    HW1  536   2.626   2.783   2.535 -0.0901  0.8736 -2.4117
  179SOL    HW2  537   2.642   2.900   2.655  0.5579 -1.1461 -1.5699
  180SOL     OW  538   2.436   0.547   1.141  0.2463  0.3715 -0.4879
  180SOL    HW1  539   2.477   0.637   1.161 -1.5597  1.7678  1.9848
  180SOL    HW2  540   2.417   0.536   1.040  2.6817 -0.7085 -0.1745
  181SOL     OW  541   2.442   0.365   2.417 -0.3450  0.0449 -0.1387
  181SOL    HW1  542   2.540   0.351   2.443 -1.4533 -0.4223 -0.1660
  181SOL    HW2  543   2.375   0.323   2.480 -0.2036  0.9449 -0.7331
  182SOL     OW  544   2.513   2.363   2.477  0.3192 -0.5367  0.4088
  182SOL    HW1  545   2.446   2.382   2.550  4.0972  0.0079  1.2416
  182SOL    HW2  546   2.506   2.419   2.395  1.5916 -1.4263  0.3731
  183SOL     OW  547   2.233   0.807   2.017  0.0907 -0.7940 -0.2343
  183SOL    HW1  548   2.319   0.759   1.985  0.6579  0.4791  0.6178
  183SOL    HW2  549   2.251   0.905   2.036 -0.0572 -1.1905 -1.9522
  184SOL     OW  550   0.368   1.703   0.893  0.5857  0.1362  0.1388
  184SOL    HW1  551   0.429   1.662   0.959 -2.0688  1.5116 -0.3648
  184SOL    HW2  552   0.285   1.734   0.942  1.0987 -0.3843 -0.3433
  185SOL     OW  553   2.880   0.198   0.603  0.0385 -0.0334  0.0156
  185SOL    HW1  554   2.985   0.191   0.584  2.5693 -2.7082 -1.2624
  185SOL    HW2  555   2.833   0.108   0.600 -2.5509  0.0590  0.5976
  186SOL     OW  556   2.322   2.488   2.649  0.0440  0.1504  0.3204
  186SOL    HW1  557   2.254   2.417   2.678  0.3887  0.5259 -0.4126
  186SOL    HW2  558   2.281   2.579   2.633  2.1484  2.8692 -1.0780
  187SOL     OW  559   0.600   1.690   0.642 -0.3686  0.4060  0.5515
  187SOL    HW1  560   0.663   1.682   0.723 -1.5525  1.9329 -2.5123
  187SOL    HW2  561   0.600   1.792   0.630  0.1223  1.9564  0.3203
  188SOL     OW  562   2.058   1.412   0.712  0.1373  0.4393 -0.2522
  188SOL    HW1  563   2.142   1.456   0.732 -0.0593 -3.7107  1.5964
  188SOL    HW2  564   2.008   1.448   0.631 -0.5730 -2.5433 -2.2638
  189SOL     OW  565   2.955   1.522   2.808 -0.1554  0.3375  0.4103
  189SOL    HW1  566   3.053   1.488   2.817  0.0152 -0.5936  0.7443
  189SOL    HW2  567   2.901   1.441   2.829 -0.4874 -0.4432  0.8409
  190SOL     OW  568   2.362   0.353   2.142 -0.4136  0.8572 -0.0157
  190SOL    HW1  569   2.411   0.363   2.230 -0.9520 -2.4057  1.0712
  190SOL    HW2  570   2.264   0.383   2.157 -1.1850  1.8597  1.0872
  191SOL     OW  571   1.015   0.346   2.212  0.0612 -0.0826 -0.3192
  191SOL    HW1  572   1.069   0.259   2.207 -1.4304 -1.3162  0.4886
  191SOL    HW2  573   0.998   0.381   2.308  3.0224 -1.6413 -2.3697
  192SOL     OW  574   1.048   1.607   1.801 -0.4142 -0.4012 -0.1157
  192SOL    HW1  575   1.049   1.567   1.710  1.9077  0.0133 -1.2730
  192SOL    HW2  576   1.084   1.703   1.793 -0.3453  0.9608 -0.2228
  193SOL     OW  577   1.074   3.008   0.829 -0.3776 -0.2822  0.0251
  193SOL    HW1  578   1.136   3.029   0.904 -2.8905  2.0611  2.4375
  193SOL    HW2  579   1.101   2.917   0.793 -0.1327  3.1077  0.6448
  194SOL     OW  580   0.800   1.733   2.193  0.2186  0.0103 -0.1660
  194SOL    HW1  581   0.826   1.758   2.290 -0.8850  2.6329  1.2956
  194SOL    HW2  582   0.856   1.789   2.126 -0.2320 -1.4191 -0.8680
  195SOL     OW  583   2.218   0.357   0.469 -0.1580 -0.6237 -0.0544
  195SOL    HW1  584   2.151   0.366   0.396  1.3544 -0.6666  0.8897
  195SOL    HW2  585   2.218   0.436   0.533  0.8908 -4.0435  0.4987
  196SOL     OW  586   1.166   1.383   2.139 -0.5923  0.0180  0.4152
  196SOL    HW1  587   1.143   1.444   2.222 -5.0208  1.3717  2.8624
  196SOL    HW2  588   1.088   1.361   2.076 -1.1134  2.8451 -3.2775
  197SOL     OW  589   0.177   0.282   1.820 -0.0922 -0.2389  0.1956
  197SOL    HW1  590   0.188   0.223   1.903 -1.4561  1.0265  1.4422
  197SOL    HW2  591   0.176   0.385   1.839  0.5128  2.7986  0.7291
  198SOL     OW  592   0.399   0.959   1.050  0.0215  0.0425  0.0683
  198SOL    HW1  593   0.414   0.902   0.966  0.3366 -2.3557  0.2237
  198SOL    HW2  594   0.357   1.045   1.024  0.2589 -2.3971  2.3856
  199SOL     OW  595   0.250   2.369   0.977  0.2834  0.1745 -0.1867
  199SOL    HW1  596   0.180   2.401   0.913 -0.1675 -0.2305  2.2662
  199SOL    HW2  597   0.311   2.447   0.998  1.6380  0.3282 -2.0197
  200SOL     OW  598   1.764   1.581   2.700  0.1343  0.3071  0.4872
  200SOL    HW1  599   1.812   1.659   2.746  0.6778  0.9228  2.5788
  200SOL    HW2  600   1.780   1.493   2.752  1.1527  0.2643 -0.5492
  201SOL     OW  601   0.530   2.382   1.744 -0.0139 -0.5215  0.0807
  201SOL    HW1  602   0.599   2.397   1.669  1.0038  1.6869  1.1850
  201SOL    HW2  603   0.493   2.286   1.747  1.7740  0.4689  2.4239
  202SOL     OW  604   0.940   3.007   2.910 -0.3490 -0.0681  0.4239
  202SOL    HW1  605   0.891   2.996   2.823  2.4054  0.6820 -0.5722
  202SOL    HW2  606   0.955   0.004   2.915 -0.2410  2.1965 -2.1833
  203SOL     OW  607   1.598   0.417   2.244 -0.5059  0.4556  0.4423
  203SOL    HW1  608   1.581   0.409   2.143 -2.0405 -1.0165 -0.2397
  203SOL    HW2  609   1.696   0.430   2.262  2.2868 -0.6362 -2.1002
  204SOL     OW  610   0.788   1.014   1.368  0.2095  0.0322 -0.3175
  204SOL    HW1  611   0.756   1.017   1.468 -1.1854 -1.1578  0.7325
  204SOL    HW2  612   0.719   0.955   1.318 -1.9757 -2.2740  0.3523
  205SOL     OW  613   2.109   0.943   2.698 -0.7685 -1.0326  0.3066
  205SOL    HW1  614   2.057   0.855   2.694  0.9996  3.8656 -2.1753
  205SOL    HW2  615   2.153   0.964   2.609 -1.4614 -0.4579  1.4608
  206SOL     OW  616   0.651   2.006   3.038  0.2040  0.0732  0.2760
  206SOL    HW1  617   0.560   1.979   3.075 -1.2645 -0.8859 -1.1085
  206SOL    HW2  618   0.639   2.030   2.937  0.4923 -2.5095 -1.5284
  207SOL     OW  619   0.461   0.390   1.967 -0.2911  0.4200 -0.8325
  207SOL    HW1  620   0.440   0.489   1.979  0.4678  1.1160 -0.8395
  207SOL    HW2  621   0.484   0.368   1.873  0.4214 -0.2586  4.0597
  208SOL     OW  622   0.581   2.459   1.476  0.6595 -0.0322  0.0158
  208SOL    HW1  623   0.502   2.415   1.432  0.9108 -1.3793  0.2502
  208SOL    HW2  624   0.664   2.454   1.419  1.4308  0.2651 -0.6367
  209SOL     OW  625   1.264   2.752   3.099 -0.3793 -0.0092  0.7189
  209SOL    HW1  626   1.207   2.722   0.078 -2.9568 -1.8459 -0.0049
  209SOL    HW2  627   1.212   2.762   3.014  0.4840  0.2837  1.6673
  210SOL     OW  628   2.686   1.448   1.784  0.1609  1.1232 -0.3058
  210SOL    HW1  629   2.779   1.489   1.794 -1.1291 -0.2665 -2.6812
  210SOL    HW2  630   2.611   1.517   1.770 -0.4680 -0.5937  1.3167
  211SOL     OW  631   1.375   0.266   1.658  0.0407 -0.0306 -0.6196
  211SOL    HW1  632   1.321   0.334   1.719 -1.5337  1.1259  2.5448
  211SOL    HW2  633   1.405   0.313   1.577 -3.1485 -0.1203  0.9057
  212SOL     OW  634   1.045   2.103   1.755  0.4707  0.6436 -0.0633
  212SOL    HW1  635   0.947   2.145   1.758 -2.8713  4.1379 -0.5185
  212SOL    HW2  636   1.105   2.171   1.713 -0.5376 -2.0990 -1.7575
  213SOL     OW  637   2.537   0.421   1.945  0.1663 -0.5917  0.4261
  213SOL    HW1  638   2.531   0.520   1.922  0.3769  1.8758 -0.8142
  213SOL    HW2  639   2.482   0.402   2.030 -0.6707  0.2386  1.2858
  214SOL     OW  640   0.967   1.851   2.031 -0.3424  0.2599  0.4007
  214SOL    HW1  641   1.011   1.835   1.937  2.2016 -0.0474 -1.8203
  214SOL    HW2  642   0.964   1.950   2.056 -2.6880 -0.2949  2.1886
  215SOL     OW  643   2.895   1.865   1.153  0.1214 -0.7902 -0.1391
  215SOL    HW1  644   2.972   1.835   1.210  0.9287  2.7192 -1.8819
  215SOL    HW2  645   2.837   1.932   1.202 -1.8529 -0.2873 -1.2119
  216SOL     OW  646   3.010   0.766   1.386 -0.4673 -0.1836 -0.2345
  216SOL    HW1  647   2.972   0.715   1.302 -2.1998 -0.9775 -1.1745
  216SOL    HW2  648   3.070   0.710   1.442 -2.2342  0.2272  1.7932
  217SOL     OW  649   2.560   0.116   1.371 -0.4673  0.4122 -0.3341
  217SOL    HW1  650   2.523   0.153   1.281 -0.6299 -0.5818  1.1958
  217SOL    HW2  651   2.648   0.068   1.348  0.1157  1.0865 -0.9503
  218SOL     OW  652   1.349   2.242   1.096 -0.1390  0.0532  0.4207
  218SOL    HW1  653   1.421   2.194   1.150  1.2492  0.2162  1.4368
  218SOL    HW2  654   1.333   2.193   1.006 -1.8749  0.6146 -0.4801
  219SOL     OW  655   1.701   2.212   0.420  0.5788 -0.8019  0.6218
  219SOL    HW1  656   1.782   2.240   0.473 -2.3267 -1.0576 -0.2901
  219SOL    HW2  657   1.694   2.274   0.339  0.8214 -1.7683  2.4750
  220SOL     OW  658   1.723   2.431   0.204 -0.2824  0.1356 -0.1128
  220SOL    HW1  659   1.675   2.520   0.202 -0.2254  1.0585  0.8567
  220SOL    HW2  660   1.812   2.436   0.256 -1.8110  0.1799  1.6904
  221SOL     OW  661   3.011   2.248   1.068  0.2769  0.5132  0.0238
  221SOL    HW1  662   3.063   2.172   1.117  1.5052  0.5350 -0.7928
  221SOL    HW2  663   2.917   2.215   1.034 -1.3887  1.6421 -0.4339
  222SOL     OW  664   1.595   2.301   0.942 -0.0844 -0.0142 -0.4387
  222SOL    HW1  665   1.609   2.392   0.985  1.0244 -1.5106  0.3919
  222SOL    HW2  666   1.504   2.305   0.902 -0.6863  1.0274  1.3261
  223SOL     OW  667   0.650   2.848   2.455 -0.2175 -0.1827 -0.4213
  223SOL    HW1  668   0.614   2.892   2.373 -2.7419  0.9760  2.0063
  223SOL    HW2  669   0.632   2.749   2.453 -2.2032 -0.9622 -1.1769
  224SOL     OW  670   3.093   1.714   1.299  0.4881 -0.7278 -0.1036
  224SOL    HW1  671   3.013   1.688   1.362 -1.5410 -1.3330  0.7421
  224SOL    HW2  672   0.057   1.776   1.341  2.2906  1.2655  1.2459
  225SOL     OW  673   2.183   1.740   0.895  0.1470 -0.0607 -0.5591
  225SOL    HW1  674   2.247   1.667   0.862  2.1665 -0.8093  0.1465
  225SOL    HW2  675   2.091   1.743   0.844 -1.8759 -0.1288  0.9799
  226SOL     OW  676   1.382   2.686   0.328  0.7007 -0.1075 -0.3688
  226SOL    HW1  677   1.462   2.661   0.271  1.4992  0.2101 -0.2224
  226SOL    HW2  678   1.295   2.686   0.272 -0.0464 -0.0466  0.8881
  227SOL     OW  679   1.654   0.930   1.297  0.2220 -0.1994 -0.0055
  227SOL    HW1  680   1.580   0.988   1.325 -0.0441 -2.0326 -0.3421
  227SOL    HW2  681   1.726   0.983   1.250 -1.7404  0.5511  0.4947
  228SOL     OW  682   1.458   0.637   1.949 -0.2508  0.5912 -0.3300
  228SOL    HW1  683   1.526   0.701   1.988  0.5149 -1.5834  1.6627
  228SOL    HW2  684   1.402   0.682   1.876  2.5117 -2.3330  1.1764
  229SOL     OW  685   2.915   0.586   2.719  0.0039  0.0017  0.3249
  229SOL    HW1  686   2.901   0.554   2.818 -0.4008 -0.8155 -0.7039
  229SOL    HW2  687   2.990   0.653   2.721 -0.7426  0.6089  0.7231
  230SOL     OW  688   0.920   1.280   0.860 -0.3739  0.4716  0.0199
  230SOL    HW1  689   1.017   1.252   0.848  1.6818  0.6743 -2.0516
  230SOL    HW2  690   0.899   1.317   0.957 -2.5500  3.6970 -0.3874
  231SOL     OW  691   2.559   3.005   2.002 -0.1646 -0.5985  0.4130
  231SOL    HW1  692   2.642   3.040   1.949  1.0491  0.9738 -1.3044
  231SOL    HW2  693   2.488   3.078   1.991  0.0417 -1.4312  1.7771
  232SOL     OW  694   0.443   2.065   0.315 -0.1421  0.1123  0.2065
  232SOL    HW1  695   0.420   1.990   0.381 -1.4829  0.0915 -0.9171
  232SOL    HW2  696   0.514   2.132   0.344  0.9230 -0.7496 -3.0611
  233SOL     OW  697   1.163   2.454   2.521 -0.1614  0.1986 -0.2674
  233SOL    HW1  698   1.243   2.393   2.537  1.2240  2.9117  1.5542
  233SOL    HW2  699   1.198   2.548   2.545 -1.0926 -0.1549  0.2081
  234SOL     OW  700   0.863   1.299   1.682 -0.2477 -0.1230  0.1453
  234SOL    HW1  701   0.881   1.296   1.780 -1.2849 -0.0084 -0.8051
  234SOL    HW2  702   0.938   1.348   1.635 -0.2188 -1.0546 -0.1364
  235SOL     OW  703   0.782   1.685   1.845  0.5853 -0.2688  0.8188
  235SOL    HW1  704   0.884   1.677   1.841  0.1982 -0.6952 -0.4308
  235SOL    HW2  705   0.757   1.749   1.923  4.7151 -1.5075 -0.7512
  236SOL     OW  706   1.711   2.501   2.504  0.3052 -0.2216 -0.0401
  236SOL    HW1  707   1.639   2.456   2.445 -2.1411 -0.3229 -0.0607
  236SOL    HW2  708   1.737   2.595   2.469  1.4185 -1.9743 -0.3441
  237SOL     OW  709   1.345   3.074   0.375 -0.2743  0.0956 -0.1604
  237SOL    HW1  710   1.294   0.050   0.418 -0.7496  1.4043 -0.6695
  237SOL    HW2  711   1.315   2.986   0.416 -0.6196  0.8744 -2.9891
  238SOL     OW  712   1.210   0.609   2.784  0.3214  0.2765 -0.2585
  238SOL    HW1  713   1.311   0.620   2.791 -0.6188  0.8825  1.1961
  238SOL    HW2  714   1.169   0.598   2.879 -1.0967  1.6200  0.6244
  239SOL     OW  715   0.396   0.663   2.020 -0.1569  0.2638 -0.7626
  239SOL    HW1  716   0.472   0.720   1.982 -0.2691  2.6717 -3.4958
  239SOL    HW2  717   0.365   0.697   2.107  2.6721  0.1143 -2.7410
  240SOL     OW  718   2.278   2.545   0.763  0.3186 -0.3050 -0.0237
  240SOL    HW1  719   2.215   2.620   0.729 -0.5369 -2.6238 -1.1691
  240SOL    HW2  720   2.359   2.579   0.819 -0.2928  0.7412  2.0964
  241SOL     OW  721   1.385   1.314   1.392  0.2743  0.0889  0.6549
  241SOL    HW1  722   1.290   1.271   1.395 -2.0173 -2.0953 -2.5390
  241SOL    HW2  723   1.433   1.317   1.483 -1.5493  1.7928  3.3694
  242SOL     OW  724   0.304   0.896   0.683  0.1899  0.4495  0.4272
  242SOL    HW1  725   0.210   0.879   0.652 -0.5909 -0.4126  0.7393
  242SOL    HW2  726   0.360   0.962   0.631  0.4506  0.9247 -0.0311
  243SOL     OW  727   0.455   0.597   1.298  0.6799 -0.4306 -0.0634
  243SOL    HW1  728   0.372   0.578   1.355 -1.8003  0.4285 -1.1569
  243SOL    HW2  729   0.511   0.514   1.290 -0.9838  1.3969  0.0713
  244SOL     OW  730   1.079   0.603   3.048  0.0157 -0.0737 -0.0451
  244SOL    HW1  731   0.999   0.661   3.069  1.6692 -0.7718 -1.7849
  244SOL    HW2  732   1.053   0.507   3.064 -1.0853  0.0043  1.2558
  245SOL     OW  733   2.039   0.935   0.017 -0.2528  0.3781  0.4397
  245SOL    HW1  734   2.082   1.008   3.071 -1.4827 -0.3882  3.5119
  245SOL    HW2  735   1.982   0.970   0.097 -0.5111  0.6616  2.5706
  246SOL     OW  736   3.069   0.923   2.102  0.3177 -0.1927  0.1314
  246SOL    HW1  737   2.991   0.970   2.054 -1.3366 -1.7907  0.9307
  246SOL    HW2  738   0.057   0.963   2.072 -1.0361  2.9882  0.2326
  247SOL     OW  739   0.426   3.067   2.042 -0.3207  0.6180 -0.3645
  247SOL    HW1  740   0.341   3.017   2.012 -2.0813  0.3660 -3.3291
  247SOL    HW2  741   0.494   3.088   1.969 -1.5404 -1.9336  1.0399
  248SOL     OW  742   0.506   1.463   2.317  0.5211 -0.2426 -0.3725
  248SOL    HW1  743   0.540   1.554   2.298 -2.0916 -2.8475 -1.2668
  248SOL    HW2  744   0.503   1.400   2.238  1.0936  0.1375 -0.2593
  249SOL     OW  745   0.398   0.189   2.678  0.5158 -0.3870  0.1717
  249SOL    HW1  746   0.348   0.108   2.637  0.9209 -0.1373 -0.0928
  249SOL    HW2  747   0.342   0.270   2.664  2.0816  0.1405 -0.5354
  250SOL     OW  748   2.956   0.180   2.795 -0.4650  0.0893 -0.0924
  250SOL    HW1  749   3.021   0.111   2.825 -3.5616  1.2418 -0.5780
  250SOL    HW2  750   2.966   0.196   2.696  2.1435  1.6037 -2.1926
  251SOL     OW  751   0.222   1.646   0.682 -0.8479 -0.0489 -0.2216
  251SOL    HW1  752   0.146   1.583   0.714  0.7701 -0.1656  2.5392
  251SOL    HW2  753   0.291   1.659   0.756 -1.5453 -2.7588  1.3455
  252SOL     OW  754   1.615   2.615   2.122  0.0760  0.4853  0.3376
  252SOL    HW1  755   1.711   2.643   2.121 -1.0791  0.0357  0.5168
  252SOL    HW2  756   1.585   2.544   2.190 -1.5740 -1.6177 -2.2732
  253SOL     OW  757   1.660   1.937   2.670 -0.2163  0.5758 -0.9219
  253SOL    HW1  758   1.638   1.856   2.608  1.5260 -1.4191 -0.2721
  253SOL    HW2  759   1.584   1.959   2.743 -2.6453  0.7674  0.7226
  254SOL     OW  760   0.561   1.619   1.722 -0.3215 -0.0681 -0.0242
  254SOL    HW1  761   0.575   1.521   1.701 -0.9499  1.1059 -0.2618
  254SOL    HW2  762   0.653   1.653   1.759  1.1125  3.7389  3.2998
  255SOL     OW  763   0.921   3.065   1.523 -0.1115 -0.0364  0.4422
  255SOL    HW1  764   1.000   2.995   1.525  0.5998 -1.6505 -1.7794
  255SOL    HW2  765   0.902   3.091   1.617  1.0617 -1.5990  0.8627
  256SOL     OW  766   2.871   2.456   1.173  0.2692 -0.6334  0.1934
  256SOL    HW1  767   2.931   2.536   1.183 -1.3359 -0.8263  0.0392
  256SOL    HW2  768   2.925   2.370   1.158 -2.1096 -0.4140 -0.8162
  257SOL     OW  769   0.133   2.684   3.045 -0.1169  0.0967 -0.1004
  257SOL    HW1  770   0.217   2.730   3.082 -1.6425  0.9766 -0.2380
  257SOL    HW2  771   0.053   2.739   3.067 -0.7239 -1.3768 -0.0585
  258SOL     OW  772   1.034   2.345   1.998  0.0818 -0.3128 -0.0350
  258SOL    HW1  773   1.078   2.260   2.022 -1.8044  3.0638  1.0498
  258SOL    HW2  774   1.076   2.425   2.047  1.5790  3.3133 -0.9351
  259SOL     OW  775   1.008   1.825   2.675  0.0688 -0.6334  0.2450
  259SOL    HW1  776   1.102   1.854   2.686 -3.8497 -1.8250  0.4887
  259SOL    HW2  777   0.955   1.831   2.760 -0.6714 -4.1666  0.8929
  260SOL     OW  778   2.341   0.795   2.340  0.2438 -0.1983 -0.4757
  260SOL    HW1  779   2.383   0.733   2.411 -2.3038  1.1458  1.1740
  260SOL    HW2  780   2.283   0.753   2.272 -2.9107  2.9450  0.2264
  261SOL     OW  781   1.382   0.725   1.007  0.1875 -0.0511  0.4861
  261SOL    HW1  782   1.341   0.660   0.942  3.4628 -0.8933 -2.1133
  261SOL    HW2  783   1.476   0.742   0.975 -1.6651 -1.2822  1.6939
  262SOL     OW  784   2.136   2.293   2.686  0.1223  0.0915 -0.2910
  262SOL    HW1  785   2.168   2.220   2.748  0.4360 -0.5438 -0.1004
  262SOL    HW2  786   2.078   2.258   2.611  1.3622 -0.7382 -0.4983
  263SOL     OW  787   0.464   2.345   0.591  0.0145 -0.1972  0.0957
  263SOL    HW1  788   0.465   2.442   0.602 -0.7923 -0.1681 -1.5294
  263SOL    HW2  789   0.521   2.321   0.506  2.3036  0.6118  0.4981
  264SOL     OW  790   2.951   2.276   0.653 -0.1009  0.0465  0.7423
  264SOL    HW1  791   3.004   2.185   0.648  1.1265 -4.4284 -0.2996
  264SOL    HW2  792   2.937   2.314   0.555 -2.4583  0.4584  2.4340
  265SOL     OW  793   0.587   1.292   0.016 -0.1698  0.2174  0.3141
  265SOL    HW1  794   0.544   1.202   3.097 -0.2207  0.6550 -0.0749
  265SOL    HW2  795   0.659   1.283   0.087 -2.0429 -0.3502 -0.4252
  266SOL     OW  796   0.790   2.095   2.554  0.5162 -0.7140  0.4847
  266SOL    HW1  797   0.809   2.051   2.466 -0.4613 -1.0249  0.2509
  266SOL    HW2  798   0.872   2.130   2.596 -0.8532  2.2186  0.8355
  267SOL     OW  799   1.783   0.737   2.288  0.8586 -0.8267  0.6128
  267SOL    HW1  800   1.707   0.722   2.352  0.1569  1.5963 -1.0532
  267SOL    HW2  801   1.859   0.772   2.344  0.6237  0.9478 -0.3370
  268SOL     OW  802   0.796   0.998   0.124 -0.2365  0.3491  0.0143
  268SOL    HW1  803   0.816   1.091   0.148 -0.5773 -1.7733  2.0985
  268SOL    HW2  804   0.721   0.959   0.182 -0.4550  2.1726 -1.7717
  269SOL     OW  805   2.351   1.847   2.359  0.3419  0.3250 -0.1137
  269SOL    HW1  806   2.389   1.756   2.353  0.8445  2.1784 -0.3790
  269SOL    HW2  807   2.424   1.920   2.347  1.4257 -2.3860 -2.7259
  270SOL     OW  808   1.479   1.952   2.899 -0.2473 -0.0372 -0.3132
  270SOL    HW1  809   1.498   2.031   2.957  0.9290 -2.0983  0.8237
  270SOL    HW2  810   1.488   1.862   2.950  2.0657 -0.3319 -1.7280
  271SOL     OW  811   0.078   0.398   3.061 -0.5108  0.1960  0.0977
  271SOL    HW1  812   0.145   0.455   3.008  2.5407 -1.5541  0.0364
  271SOL    HW2  813   3.089   0.384   3.015  0.5383  3.4396  1.7439
  272SOL     OW  814   2.923   0.542   0.529 -0.5517 -0.2266  0.4133
  272SOL    HW1  815   2.938   0.472   0.459  1.8560  2.0681  3.6899
  272SOL    HW2  816   2.951   0.636   0.493 -1.0667  1.7874 -0.1934
  273SOL     OW  817   0.546   2.905   1.684 -0.4533 -0.0890 -0.5715
  273SOL    HW1  818   0.590   2.985   1.732 -2.5969  0.3314  0.6442
  273SOL    HW2  819   0.444   2.897   1.705 -1.1930  0.2689  0.3711
  274SOL     OW  820   2.813   0.493   1.468  0.6885 -0.7128 -0.0474
  274SOL    HW1  821   2.852   0.514   1.556 -1.9586  0.2039 -2.7974
  274SOL    HW2  822   2.717   0.456   1.481 -3.2759 -1.5052  0.7797
  275SOL     OW  823   0.906   1.760   0.767  0.1300  0.4295 -0.1792
  275SOL    HW1  824   0.848   1.744   0.683  1.3560  1.5405  0.6964
  275SOL    HW2  825   1.001   1.772   0.740 -2.4011  0.2055  0.4457
  276SOL     OW  826   0.673   0.973   2.081 -0.4188  0.3360 -0.5082
  276SOL    HW1  827   0.615   0.950   2.005 -0.5924 -2.4470  3.1899
  276SOL    HW2  828   0.653   0.902   2.149 -1.8492  0.0657 -1.7499
  277SOL     OW  829   1.194   2.612   2.036  0.0097 -0.3637 -0.6815
  277SOL    HW1  830   1.258   2.690   2.038 -1.1310 -0.8604 -1.1105
  277SOL    HW2  831   1.200   2.583   1.941  1.6963 -0.1579  2.2900
  278SOL     OW  832   1.923   2.939   1.934  0.1886 -0.1750  0.1589
  278SOL    HW1  833   1.854   2.919   1.858 -5.5435  2.4473  1.2471
  278SOL    HW2  834   1.945   3.037   1.944  0.5781  0.7049 -0.8203
  279SOL     OW  835   1.569   1.439   0.215 -0.3435  0.0084 -0.6303
  279SOL    HW1  836   1.602   1.525   0.172 -1.2888 -2.0390  0.5942
  279SOL    HW2  837   1.468   1.438   0.220  3.1081  0.7390 -0.6108
  280SOL     OW  838   1.513   1.090   0.119  0.0902 -0.3126 -0.1132
  280SOL    HW1  839   1.511   1.082   0.225  1.5001  1.6976  2.4358
  280SOL    HW2  840   1.602   1.122   0.086 -2.3522  0.5990  0.1499
  281SOL     OW  841   0.456   0.186   1.518 -0.5854  0.3867 -0.0017
  281SOL    HW1  842   0.478   0.222   1.425  1.1279  2.4451 -3.2775
  281SOL    HW2  843   0.358   0.194   1.550  1.7312  1.4829  1.3386
  282SOL     OW  844   0.156   2.707   0.650 -0.4969  0.1257  0.1855
  282SOL    HW1  845   0.078   2.681   0.590  1.6617 -3.3889 -0.1021
  282SOL    HW2  846   0.128   2.700   0.752 -0.7662 -3.3830 -0.1913
  283SOL     OW  847   1.265   2.140   2.057 -0.0943  0.1855 -0.2761
  283SOL    HW1  848   1.317   2.060   2.092  2.3301  0.1316 -0.4385
  283SOL    HW2  849   1.320   2.192   1.993 -0.7793  1.3812  2.4309
  284SOL     OW  850   2.976   2.767   1.087  0.0636  0.3450 -0.0901
  284SOL    HW1  851   2.874   2.770   1.091  1.3499 -1.1514  1.9960
  284SOL    HW2  852   3.021   2.756   1.175  1.6484  0.3138  0.4612
  285SOL     OW  853   0.225   2.089   3.033  0.1330 -0.0426 -0.6236
  285SOL    HW1  854   0.128   2.054   3.042 -1.6079  0.0033  0.5868
  285SOL    HW2  855   0.232   2.170   2.966  1.1599  0.4447 -3.1824
  286SOL     OW  856   0.289   2.790   1.095  0.0857  0.2595  0.7168
  286SOL    HW1  857   0.284   2.867   1.163  1.2270  0.7210  0.1420
  286SOL    HW2  858   0.314   2.837   1.006  3.2105  0.2993 -2.7086
  287SOL     OW  859   0.551   1.170   0.342 -0.1583 -0.3399  0.5523
  287SOL    HW1  860   0.638   1.178   0.393 -2.7034  1.1297  2.4011
  287SOL    HW2  861   0.513   1.262   0.318  1.3223  1.7537 -0.4454
  288SOL     OW  862   1.867   1.802   2.825 -1.3693  0.2894 -0.1278
  288SOL    HW1  863   1.865   1.828   2.923  0.4903 -1.4333 -1.6479
  288SOL    HW2  864   1.790   1.842   2.768 -0.6554 -0.3198 -0.1289
  289SOL     OW  865   0.022   2.204   0.250 -0.6380 -0.0161  0.1243
  289SOL    HW1  866   3.060   2.171   0.182  2.7778 -0.0382  0.7584
  289SOL    HW2  867   0.054   2.123   0.300 -0.6539 -0.2877  1.4480
  290SOL     OW  868   1.427   1.581   1.442  0.1280  0.2495 -0.4708
  290SOL    HW1  869   1.471   1.620   1.360 -1.2250  0.5501 -0.3625
  290SOL    HW2  870   1.391   1.487   1.424  1.0612  1.9513 -0.8485
  291SOL     OW  871   1.101   1.178   3.084  0.4015  1.1149 -0.3827
  291SOL    HW1  872   0.998   1.165   3.090  0.5982 -1.1715  2.1995
  291SOL    HW2  873   1.141   1.114   3.015  2.5041  0.3332  0.1656
  292SOL     OW  874   1.073   1.524   0.302  0.7300  0.2990  0.0148
  292SOL    HW1  875   1.028   1.529   0.393 -1.2731  0.3447  2.4370
  292SOL    HW2  876   1.001   1.517   0.230  2.1323  0.1220 -0.6017
  293SOL     OW  877   1.442   3.002   0.748  0.0255 -0.6637 -0.2550
  293SOL    HW1  878   1.399   2.962   0.664 -2.5344  1.4766  1.3175
  293SOL    HW2  879   1.404   3.098   0.762 -0.0927  1.8522 -0.2398
  294SOL     OW  880   1.850   1.228   2.359 -0.4457  0.1816 -0.2930
  294SOL    HW1  881   1.811   1.162   2.426 -1.1026  1.3044  2.0400
  294SOL    HW2  882   1.778   1.257   2.299  0.8057  2.7915  0.4398
  295SOL     OW  883   1.673   1.900   0.131  0.2770 -0.4055  0.2643
  295SOL    HW1  884   1.610   1.977   0.104 -0.9955  0.0443 -3.1060
  295SOL    HW2  885   1.699   1.901   0.228  0.0485 -0.1455 -2.7004
  296SOL     OW  886   1.323   0.747   1.748  0.3505  0.5061  0.1390
  296SOL    HW1  887   1.364   0.753   1.658  1.3450 -0.4733  1.6198
  296SOL    HW2  888   1.232   0.798   1.755  0.4823  1.7309  0.0171
  297SOL     OW  889   3.003   0.837   1.811 -0.2882 -0.0098  0.0453
  297SOL    HW1  890   2.956   0.780   1.883  0.2922 -3.5862  1.5026
  297SOL    HW2  891   0.003   0.828   1.825  0.5316  0.8018 -2.4544
  298SOL     OW  892   1.178   1.709   1.431  0.2478 -0.6144  0.3366
  298SOL    HW1  893   1.198   1.804   1.463  0.3218 -1.2092 -0.7605
  298SOL    HW2  894   1.268   1.667   1.430  0.3421 -1.7791  1.5596
  299SOL     OW  895   1.194   0.005   2.639  0.1536 -0.2913  0.2377
  299SOL    HW1  896   1.243   0.027   2.553 -0.0020 -3.1160 -0.7059
  299SOL    HW2  897   1.101   3.075   2.616  1.5026  1.2185  2.9584
  300SOL     OW  898   2.885   1.316   0.052  0.1015 -0.5167  0.2419
  300SOL    HW1  899   2.908   1.404   0.093  1.6459 -3.0648 -3.0374
  300SOL    HW2  900   2.967   1.279   0.001 -2.4625 -0.6754 -2.2352
  301SOL     OW  901   2.015   0.770   2.433  0.5551 -0.4637 -0.2486
  301SOL    HW1  902   2.075   0.726   2.363 -1.0854 -1.2136 -0.8964
  301SOL    HW2  903   2.040   0.868   2.439 -0.9129  2.1483 -0.9171
  302SOL     OW  904   2.497   1.929   2.642 -0.2584  0.2176 -0.3557
  302SOL    HW1  905   2.474   1.951   2.545  2.2891 -1.4241  1.7524
  302SOL    HW2  906   2.473   2.009   2.701  4.7484  0.9039  0.0624
  303SOL     OW  907   0.225   2.310   2.870  0.1965  0.2699 -0.7331
  303SOL    HW1  908   0.275   2.334   2.955  1.8200 -1.0286 -1.2896
  303SOL    HW2  909   0.183   2.395   2.835 -2.3008  0.5289  1.3863
  304SOL     OW  910   0.506   1.847   1.432 -0.0597 -0.7554  0.1858
  304SOL    HW1  911   0.454   1.783   1.490 -1.0584 -0.3202 -1.5633
  304SOL    HW2  912   0.573   1.894   1.490  2.1245 -0.5093  0.0127
  305SOL     OW  913   2.489   0.711   1.965  0.4770  0.0896 -0.4162
  305SOL    HW1  914   2.546   0.763   2.032 -0.8804 -0.8800  0.8196
  305SOL    HW2  915   2.531   0.720   1.873 -2.2952 -0.7697  3.2218
  306SOL     OW  916   1.889   1.415   1.212 -0.2437  0.3312 -0.0731
  306SOL    HW1  917   1.832   1.348   1.161  0.8642  0.4677  1.9060
  306SOL    HW2  918   1.852   1.411   1.311 -2.3357  1.5137  0.3642
  307SOL     OW  919   3.103   0.508   0.806  0.1537 -0.1182  0.3584
  307SOL    HW1  920   0.051   0.527   0.718  0.5659 -1.8377  0.0619
  307SOL    HW2  921   0.043   0.552   0.884  1.8718 -1.4717 -0.0252
  308SOL     OW  922   0.267   1.300   1.654  0.3417 -0.5403  0.3313
  308SOL    HW1  923   0.291   1.361   1.578  0.4249  1.4513 -0.7801
  308SOL    HW2  924   0.181   1.322   1.703 -2.4666 -1.0600  0.5743
  309SOL     OW  925   2.583   2.185   1.928  0.1379  0.2425  0.3474
  309SOL    HW1  926   2.640   2.186   1.844 -1.2250  1.2172 -0.8936
  309SOL    HW2  927   2.592   2.273   1.981 -1.1052  0.8980  2.3163
  310SOL     OW  928   2.395   1.343   2.508  0.1148 -0.6307 -0.0103
  310SOL    HW1  929   2.386   1.420   2.569  1.1343  0.1786 -2.7076
  310SOL    HW2  930   2.436   1.262   2.553  0.9004  0.6266  0.2536
  311SOL     OW  931   1.559   1.326   2.922  0.6131 -0.5531 -0.5657
  311SOL    HW1  932   1.475   1.374   2.955  1.3097  1.2252 -0.8488
  311SOL    HW2  933   1.551   1.225   2.934 -1.6990  1.3877 -2.2841
  312SOL     OW  934   1.234   2.025   2.490  1.2103  0.1030 -0.0252
  312SOL    HW1  935   1.168   2.098   2.524  0.0016  0.2062  2.5557
  312SOL    HW2  936   1.187   1.952   2.433 -1.0347 -2.0567 -0.5549
  313SOL     OW  937   0.403   0.439   0.841 -0.1598 -0.6524  0.5232
  313SOL    HW1  938   0.411   0.538   0.848 -1.4978 -0.0862 -0.6065
  313SOL    HW2  939   0.333   0.403   0.906 -1.4898 -0.6809  0.7638
  314SOL     OW  940   0.671   1.989   1.093 -0.1133  0.0974 -0.1396
  314SOL    HW1  941   0.651   2.068   1.150  0.3949  1.5922 -0.6184
  314SOL    HW2  942   0.726   1.925   1.147  0.6217  0.9221 -0.0683
  315SOL     OW  943   0.576   2.126   2.132  0.1077 -0.2760  0.7160
  315SOL    HW1  944   0.509   2.192   2.085  0.4981  2.5454  0.1724
  315SOL    HW2  945   0.529   2.068   2.197 -0.7716  1.3583 -1.3179
  316SOL     OW  946   0.436   2.605   0.688 -0.4941  0.1164 -0.3552
  316SOL    HW1  947   0.340   2.625   0.697 -1.4323  0.8993  0.8404
  316SOL    HW2  948   0.489   2.689   0.712  1.2906  0.5403  2.0830
  317SOL     OW  949   2.786   3.077   1.247  0.1412 -0.2382  0.4202
  317SOL    HW1  950   2.853   0.051   1.212  1.7610  3.1981 -0.6903
  317SOL    HW2  951   2.782   2.995   1.185 -0.0200 -1.2937  1.1987
  318SOL     OW  952   2.195   2.486   0.102  0.1064  0.0303  0.0755
  318SOL    HW1  953   2.246   2.530   0.031 -1.5326  0.0176  1.1074
  318SOL    HW2  954   2.219   2.508   0.199  0.2015  2.1132  0.2616
  319SOL     OW  955   1.633   0.978   2.484  0.1104 -0.2125  0.1466
  319SOL    HW1  956   1.586   1.030   2.558 -1.9812  0.6380  2.5982
  319SOL    HW2  957   1.586   0.888   2.463  0.1943  0.5198  1.8431
  320SOL     OW  958   0.164   2.083   2.202 -0.2980 -0.9480 -0.4123
  320SOL    HW1  959   0.176   2.156   2.135 -0.5878 -0.3534 -0.7330
  320SOL    HW2  960   0.166   1.995   2.154 -1.3942  3.0980 -1.4782
  321SOL     OW  961   0.668   2.406   0.157  0.1603  0.9455  0.0732
  321SOL    HW1  962   0.684   2.504   0.190  1.7976  0.5708 -1.5963
  321SOL    HW2  963   0.616   2.418   0.072  3.8773  1.7813  2.1641
  322SOL     OW  964   2.708   0.744   2.615 -0.1021  0.3086 -0.5479
  322SOL    HW1  965   2.778   0.672   2.629 -1.2226 -0.8533 -1.2432
  322SOL    HW2  966   2.631   0.693   2.577  0.6728  1.6628  0.3107
  323SOL     OW  967   2.561   1.186   0.911  0.5903  0.3251  0.3936
  323SOL    HW1  968   2.619   1.213   0.985 -0.1945 -0.4645 -3.7721
  323SOL    HW2  969   2.613   1.128   0.850  0.4006  1.8804  1.5577
  324SOL     OW  970   0.145   0.397   1.256 -0.1637  0.3005  0.3283
  324SOL    HW1  971   0.205   0.437   1.330  1.2504 -0.4817 -0.1932
  324SOL    HW2  972   0.049   0.395   1.283  0.4006 -1.0013 -0.4169
  325SOL     OW  973   3.000   2.891   1.708 -0.1662 -0.2982 -0.1480
  325SOL    HW1  974   2.930   2.930   1.651 -0.8420 -1.1082  0.2971
  325SOL    HW2  975   3.094   2.927   1.691 -0.2882 -1.5434  0.7958
  326SOL     OW  976   2.105   2.897   0.326  0.0214 -0.0282  0.3827
  326SOL    HW1  977   2.198   2.860   0.354  0.3561 -0.3961  1.4795
  326SOL    HW2  978   2.118   2.937   0.232 -0.3257  2.7928  0.4329
  327SOL     OW  979   1.950   1.565   0.470 -0.3353  0.1732 -0.3995
  327SOL    HW1  980   1.942   1.666   0.460  0.3442  0.4295  1.5825
  327SOL    HW2  981   1.863   1.513   0.469  0.2902  1.5277 -0.7687
  328SOL     OW  982   0.077   2.052   2.468  0.1632  0.4826 -0.1285
  328SOL    HW1  983   0.142   2.093   2.530 -0.1946 -0.6293 -1.1788
  328SOL    HW2  984   0.093   2.086   2.377 -0.7783  0.3139  1.4307
  329SOL     OW  985   0.315   2.148   1.514  0.0306 -0.2573 -0.1247
  329SOL    HW1  986   0.368   2.108   1.437 -0.5901  0.2474 -1.1743
  329SOL    HW2  987   0.371   2.144   1.600  2.5205  3.0196  0.3123
  330SOL     OW  988   2.487   1.149   2.677 -0.3044 -0.1129 -0.3241
  330SOL    HW1  989   2.571   1.090   2.691  0.9990 -1.6586  1.0860
  330SOL    HW2  990   2.410   1.118   2.738  1.8473 -1.1115 -0.7669
  331SOL     OW  991   2.751   2.127   1.010  0.2208 -0.1374 -0.2473
  331SOL    HW1  992   2.731   2.110   1.108 -1.1494  3.4364  2.0340
  331SOL    HW2  993   2.665   2.124   0.959  1.4729 -0.1376  0.7819
  332SOL     OW  994   0.559   2.853   0.690  0.0502 -0.0399 -0.6214
  332SOL    HW1  995   0.487   2.925   0.696  0.2226  0.9569 -3.1501
  332SOL    HW2  996   0.632   2.871   0.758 -0.7484 -0.7356  1.6465
  333SOL     OW  997   2.138   1.901   2.551 -0.1363  0.8534 -0.1648
  333SOL    HW1  998   2.083   1.981   2.522 -1.4895 -0.6861 -1.6027
  333SOL    HW2  999   2.220   1.889   2.485  0.3159 -1.3861  0.9612
  334SOL     OW 1000   0.447   1.429   0.729 -0.0456 -0.5382  0.6587
  334SOL    HW1 1001   0.425   1.420   0.826  1.9459  1.1643 -0.2464
  334SOL    HW2 1002   0.446   1.525   0.691  0.5729 -1.6025  1.5076
  335SOL     OW 1003   2.932   2.001   2.373  0.0753  0.6601  0.2064
  335SOL    HW1 1004   3.023   2.018   2.413  0.7553  2.4105 -0.0253
  335SOL    HW2 1005   2.866   1.951   2.433  1.4107 -0.5153  0.0989
  336SOL     OW 1006   2.414   2.855   2.154  0.1286  0.1496  0.2076
  336SOL    HW1 1007   2.369   2.792   2.090  0.8477 -3.1560  0.9563
  336SOL    HW2 1008   2.485   2.907   2.100 -1.6132 -1.5949 -0.7750
  337SOL     OW 1009   0.686   0.941   0.594 -0.1258  0.3831  0.4014
  337SOL    HW1 1010   0.783   0.955   0.573  0.8843 -2.4493 -0.3269
  337SOL    HW2 1011   0.637   1.025   0.631 -1.4795  1.5860 -1.4069
  338SOL     OW 1012   1.350   1.785   1.006  0.5684  0.0800 -0.0452
  338SOL    HW1 1013   1.274   1.842   1.047 -2.0853 -0.6775  2.7897
  338SOL    HW2 1014   1.382   1.824   0.919 -3.7257  2.4830  2.2528
  339SOL     OW 1015   0.339   1.719   1.604  0.2429 -0.4553 -0.0317
  339SOL    HW1 1016   0.286   1.792   1.648 -0.2275 -2.9895  1.2832
  339SOL    HW2 1017   0.426   1.697   1.658  0.5513  2.1224  1.5168
  340SOL     OW 1018   1.267   0.021   1.735 -0.5188  0.3740  0.2412
  340SOL    HW1 1019   1.293   0.098   1.674  2.4523 -3.4619 -3.2153
  340SOL    HW2 1020   1.351   0.001   1.793 -0.8782 -0.6835  2.8156
  341SOL     OW 1021   1.533   1.673   1.185 -0.0211 -0.4638 -0.1472
  341SOL    HW1 1022   1.480   1.717   1.108  2.8894 -1.6451  1.5593
  341SOL    HW2 1023   1.633   1.708   1.184  1.3227  0.0695 -2.3665
  342SOL     OW 1024   2.571   1.530   1.029 -0.4037 -0.0828 -0.9071
  342SOL    HW1 1025   2.625   1.439   1.036  1.8153  0.0480 -2.1981
  342SOL    HW2 1026   2.472   1.513   1.033 -2.8170  0.7716 -1.3726
  343SOL     OW 1027   2.181   0.347   1.115  0.4803  0.1780  0.1269
  343SOL    HW1 1028   2.233   0.430   1.138  1.4175 -1.5846 -1.1386
  343SOL    HW2 1029   2.190   0.317   1.016  1.8791  0.4374 -2.0540
  344SOL     OW 1030   2.387   0.180   0.603  0.1463  0.2022 -0.0076
  344SOL    HW1 1031   2.309   0.239   0.572 -0.9345  2.5557  1.1023
  344SOL    HW2 1032   2.460   0.247   0.633  0.4233 -0.1171  0.3863
  345SOL     OW 1033   0.901   2.949   1.854  0.1311  0.5889  0.5531
  345SOL    HW1 1034   0.832   2.955   1.932  0.9599 -0.6109  1.0794
  345SOL    HW2 1035   0.937   3.042   1.837 -0.1604  0.3928 -1.1176
  346SOL     OW 1036   2.634   2.009   0.626  1.0410 -0.4082 -0.0825
  346SOL    HW1 1037   2.727   1.964   0.649  2.1495 -0.3151  0.9233
  346SOL    HW2 1038   2.606   2.074   0.698  0.8692 -0.7636 -0.7718
  347SOL     OW 1039   2.474   2.829   1.312 -1.0506  0.1079 -0.3343
  347SOL    HW1 1040   2.466   2.780   1.402 -1.3658  1.3840  1.2260
  347SOL    HW2 1041   2.434   2.923   1.317  2.6018 -3.5557 -2.3931
  348SOL     OW 1042   1.115   0.968   1.467 -0.3807 -0.1624  0.2816
  348SOL    HW1 1043   1.205   0.936   1.433 -2.1422  1.3287 -1.4637
  348SOL    HW2 1044   1.040   0.948   1.398 -3.5545 -3.6121 -2.7671
  349SOL     OW 1045   2.459   0.622   2.514  0.4298 -0.6208 -0.1739
  349SOL    HW1 1046   2.462   0.535   2.465 -3.8811  3.3242  1.2185
  349SOL    HW2 1047   2.384   0.620   2.584  0.3497 -2.0996 -1.1502
  350SOL     OW 1048   1.957   2.488   0.369 -0.2279 -0.0715 -0.3270
  350SOL    HW1 1049   1.967   2.411   0.438 -0.2371  2.0923  0.8543
  350SOL    HW2 1050   2.045   2.540   0.363  0.3356  2.0249 -1.6794
  351SOL     OW 1051   1.239   0.492   0.249 -0.1921  0.1162 -0.1298
  351SOL    HW1 1052   1.206   0.401   0.218  0.6115 -0.8468  1.1781
  351SOL    HW2 1053   1.169   0.570   0.248 -0.8447  1.9081 -0.1701
  352SOL     OW 1054   1.965   2.615   2.273  0.5985  0.2103 -0.1276
  352SOL    HW1 1055   1.913   2.678   2.336  1.2513  2.4791 -2.2721
  352SOL    HW2 1056   1.925   2.626   2.179 -0.4191 -2.0683 -2.0357
  353SOL     OW 1057   0.462   1.150   2.644 -0.2616 -0.0036 -0.1749
  353SOL    HW1 1058   0.377   1.177   2.593  0.6709  1.3892  1.5193
  353SOL    HW2 1059   0.542   1.182   2.588 -0.6695  1.8101 -0.7197
  354SOL     OW 1060   0.438   2.905   2.648 -0.3440 -0.1554  0.3541
  354SOL    HW1 1061   0.507   2.905   2.573 -0.5619  1.2930 -1.1363
  354SOL    HW2 1062   0.469   2.844   2.726 -1.3486 -1.8605 -2.3984
  355SOL     OW 1063   2.354   2.608   1.443  0.1670  0.2755 -0.6333
  355SOL    HW1 1064   2.423   2.650   1.507 -0.1899 -1.4688 -0.0722
  355SOL    HW2 1065   2.267   2.597   1.490  0.8489 -0.1117 -1.8894
  356SOL     OW 1066   0.047   0.814   0.610  0.8863  0.0207  0.6117
  356SOL    HW1 1067   0.002   0.847   0.527  1.5784 -3.8033  1.9391
  356SOL    HW2 1068   3.083   0.816   0.685 -1.0276 -1.7758 -1.7821
  357SOL     OW 1069   3.029   0.166   1.483 -0.0282  0.1404  0.5866
  357SOL    HW1 1070   2.965   0.178   1.560  0.1054  2.5904 -1.2674
  357SOL    HW2 1071   3.003   0.210   1.396 -1.7939 -1.1426 -2.4652
  358SOL     OW 1072   2.850   1.621   1.432  0.1357 -0.1546  0.0230
  358SOL    HW1 1073   2.789   1.542   1.444 -1.0448 -2.4420 -0.9857
  358SOL    HW2 1074   2.789   1.705   1.409 -2.2874  0.3196  0.1956
  359SOL     OW 1075   2.377   2.789   2.772 -0.1271 -0.2340 -0.7234
  359SOL    HW1 1076   2.463   2.786   2.714 -1.6003  1.5635 -0.8980
  359SOL    HW2 1077   2.298   2.777   2.711  1.0661  2.7329  0.5857
  360SOL     OW 1078   1.257   0.589   1.362  0.4079 -0.1366 -0.2559
  360SOL    HW1 1079   1.217   0.506   1.402 -0.4638  0.9772 -0.1722
  360SOL    HW2 1080   1.297   0.654   1.426 -0.4311 -2.3245 -2.6315
  361SOL     OW 1081   2.627   2.449   1.293 -0.1832 -0.0944 -0.3894
  361SOL    HW1 1082   2.721   2.438   1.260 -2.9054 -1.1991  1.7556
  361SOL    HW2 1083   2.564   2.488   1.216 -0.9800 -1.2113 -3.3633
  362SOL     OW 1084   1.246   0.202   0.516  0.4678 -1.1314 -0.7572
  362SOL    HW1 1085   1.179   0.278   0.495 -1.5786 -1.0518  3.0055
  362SOL    HW2 1086   1.255   0.207   0.615 -3.5197 -0.5291 -0.3278
  363SOL     OW 1087   1.725   1.247   1.058  0.3406  0.0701 -0.3426
  363SOL    HW1 1088   1.656   1.302   1.115 -0.9689  1.3024 -1.3320
  363SOL    HW2 1089   1.726   1.281   0.961 -0.5549  1.3714 -0.7956
  364SOL     OW 1090   0.359   0.800   1.645  0.1576 -0.1436 -0.3286
  364SOL    HW1 1091   0.390   0.700   1.626 -0.9202 -1.9241  1.8159
  364SOL    HW2 1092   0.350   0.849   1.558  1.4455  1.9911 -0.3470
  365SOL     OW 1093   2.742   0.545   0.960 -0.0295  0.7058  0.1459
  365SOL    HW1 1094   2.794   0.467   0.914  1.5301 -1.9091 -0.4800
  365SOL    HW2 1095   2.786   0.592   1.039  1.0493 -0.3601 -0.2198
  366SOL     OW 1096   2.749   1.330   0.762  0.1140  0.3010  0.0291
  366SOL    HW1 1097   2.764   1.429   0.777 -2.4727  1.7218 -0.1423
  366SOL    HW2 1098   2.791   1.277   0.839  0.8677  2.0156  2.6085
  367SOL     OW 1099   2.128   1.950   2.187 -0.0610  0.3172  0.4097
  367SOL    HW1 1100   2.162   2.044   2.174  0.0095 -0.2815 -0.1302
  367SOL    HW2 1101   2.200   1.893   2.234 -1.9809 -1.4064 -2.7622
  368SOL     OW 1102   2.418   2.001   1.401 -0.4054 -0.0232  0.2337
  368SOL    HW1 1103   2.390   1.961   1.490 -0.0607  0.3928  3.4627
  368SOL    HW2 1104   2.455   1.929   1.338 -1.4275  0.8417 -1.3470
  369SOL     OW 1105   2.014   3.019   2.860  0.5131  0.2008 -0.0800
  369SOL    HW1 1106   2.101   3.061   2.832 -1.5400 -0.4284  1.4681
  369SOL    HW2 1107   2.033   2.943   2.934  0.8902 -2.3592 -2.6803
  370SOL     OW 1108   0.728   0.371   1.073 -0.5385  0.3260 -0.2552
  370SOL    HW1 1109   0.708   0.320   0.985 -0.8933 -2.7164 -0.0055
  370SOL    HW2 1110   0.804   0.328   1.125 -2.7229 -0.7098  2.1738
  371SOL     OW 1111   0.574   1.642   0.364  0.0646  0.4310  0.5978
  371SOL    HW1 1112   0.644   1.691   0.306 -0.6314 -1.6922 -0.9723
  371SOL    HW2 1113   0.612   1.625   0.458  3.2049  0.3793  1.4613
  372SOL     OW 1114   0.477   0.891   2.735  0.0587 -0.0190  0.2498
  372SOL    HW1 1115   0.492   0.832   2.653 -1.1977 -1.3419 -0.4388
  372SOL    HW2 1116   0.470   0.986   2.705 -1.8214 -4.1511  3.6036
  373SOL     OW 1117   1.138   2.803   2.854 -0.4963 -1.1186 -0.2076
  373SOL    HW1 1118   1.052   2.851   2.888  0.0189  0.1281 -1.0127
  373SOL    HW2 1119   1.215   2.868   2.838 -0.5262  0.1289 -2.5291
  374SOL     OW 1120   1.044   1.824   0.425 -0.3050 -0.0699  0.6038
  374SOL    HW1 1121   1.079   1.804   0.517 -0.6415 -1.7504 -0.7366
  374SOL    HW2 1122   1.120   1.857   0.365 -0.5969  0.0555  0.1236
  375SOL     OW 1123   0.702   0.610   1.809 -0.1993  0.4311 -0.0694
  375SOL    HW1 1124   0.712   0.578   1.909  0.0448 -2.4106  1.4881
  375SOL    HW2 1125   0.782   0.673   1.788 -2.0197  0.1369 -2.5643
  376SOL     OW 1126   0.130   2.311   1.632  0.4940 -0.1879 -0.4736
  376SOL    HW1 1127   0.202   2.247   1.592 -0.8513 -1.8079 -0.3251
  376SOL    HW2 1128   0.171   2.406   1.636  1.5677  3.6326 -1.2953
  377SOL     OW 1129   2.909   1.738   2.976  0.7227 -0.4943 -0.3465
  377SOL    HW1 1130   2.811   1.766   2.985 -0.8925 -0.2465 -1.4539
  377SOL    HW2 1131   2.919   1.658   2.914  1.1822  1.2486  1.0830
  378SOL     OW 1132   1.773   2.899   3.036  0.0228 -0.1406 -0.0025
  378SOL    HW1 1133   1.724   2.885   0.022 -1.3750 -0.1390  2.3589
  378SOL    HW2 1134   1.862   2.944   3.042  0.7659 -1.5894 -1.0123
  379SOL     OW 1135   1.967   0.454   0.707  0.3529 -0.1805 -0.1072
  379SOL    HW1 1136   1.947   0.363   0.664  1.3094 -0.1463  1.3947
  379SOL    HW2 1137   2.068   0.475   0.701  4.1083 -0.2533 -0.1618
  380SOL     OW 1138   2.800   1.896   1.901 -0.2975 -0.0120  0.3728
  380SOL    HW1 1139   2.854   1.841   1.836  0.3966  0.9205  0.4997
  380SOL    HW2 1140   2.857   1.914   1.982 -0.1381  0.7062 -0.7889
  381SOL     OW 1141   2.225   1.474   2.342  0.0102  0.1828 -0.0890
  381SOL    HW1 1142   2.255   1.510   2.253 -0.1931 -1.9059  2.5167
  381SOL    HW2 1143   2.308   1.422   2.371  0.3070  1.8685 -1.1511
  382SOL     OW 1144   2.962   2.805   2.798 -0.3213  0.4476 -0.4390
  382SOL    HW1 1145   2.903   2.810   2.880  0.2670 -1.3979  0.6319
  382SOL    HW2 1146   2.932   2.862   2.720  1.5746 -1.3330  1.3420
  383SOL     OW 1147   1.162   1.234   0.239 -0.3628  0.0758 -0.3912
  383SOL    HW1 1148   1.147   1.215   0.141  0.9486  0.9064  3.9031
  383SOL    HW2 1149   1.130   1.325   0.267 -0.8988 -2.0721  0.4774
  384SOL     OW 1150   1.290   1.961   1.534  0.0700 -0.2077 -0.0839
  384SOL    HW1 1151   1.278   2.043   1.592  3.0978 -0.5695  0.0883
  384SOL    HW2 1152   1.336   1.996   1.451 -1.2317 -1.8252 -0.4861
  385SOL     OW 1153   1.873   2.523   0.930 -0.0728 -0.1863 -0.4752
  385SOL    HW1 1154   1.867   2.590   0.852  0.2781  0.3287  0.1318
  385SOL    HW2 1155   1.783   2.525   0.986 -0.8509  0.2611  1.2607
  386SOL     OW 1156   1.744   1.589   0.758  0.1623 -0.8062  0.0151
  386SOL    HW1 1157   1.663   1.591   0.700  1.1696  1.6981 -1.6154
  386SOL    HW2 1158   1.818   1.658   0.740 -0.2312 -0.2205  2.1126
  387SOL     OW 1159   2.775   2.086   1.290  0.4865 -0.5023 -0.0612
  387SOL    HW1 1160   2.873   2.093   1.327  2.6384 -3.0425  2.6825
  387SOL    HW2 1161   2.717   2.018   1.339  0.8158  0.6232  0.4544
  388SOL     OW 1162   2.985   1.096   1.712 -0.0743  0.1571 -0.1290
  388SOL    HW1 1163   2.991   1.074   1.609 -0.3364 -1.2670 -0.6115
  388SOL    HW2 1164   2.980   1.006   1.765 -1.2585 -0.0738 -0.9924
  389SOL     OW 1165   2.154   0.404   0.087  0.0213 -0.4377  0.2448
  389SOL    HW1 1166   2.079   0.406   0.162 -0.3705 -0.1885  2.5675
  389SOL    HW2 1167   2.243   0.361   0.117  0.2363 -0.9314 -0.0897
  390SOL     OW 1168   1.226   1.591   2.848  0.1683  0.1734  0.1644
  390SOL    HW1 1169   1.291   1.668   2.861  0.2801 -1.3748 -1.6485
  390SOL    HW2 1170   1.244   1.538   2.762  1.2965 -1.3106 -0.5928
  391SOL     OW 1171   1.158   2.292   2.859  0.0123  0.4895  0.0887
  391SOL    HW1 1172   1.136   2.243   2.947 -0.4374 -0.3023  2.0243
  391SOL    HW2 1173   1.089   2.367   2.842 -0.8675  0.9233  1.1373
  392SOL     OW 1174   0.301   2.540   1.727 -0.4585 -0.3721 -0.0371
  392SOL    HW1 1175   0.305   2.575   1.821  2.0807 -1.1108  0.0191
  392SOL    HW2 1176   0.393   2.499   1.707 -3.2191 -0.0650 -3.9397
  393SOL     OW 1177   1.178   2.395   0.141 -0.0101 -0.3312 -0.2716
  393SOL    HW1 1178   1.164   2.310   0.088 -0.0169  0.6958  1.8549
  393SOL    HW2 1179   1.273   2.400   0.173 -0.7551 -0.7774  0.6898
  394SOL     OW 1180   0.580   0.711   2.567  0.1495 -0.0303 -0.4215
  394SOL    HW1 1181   0.674   0.730   2.591 -1.9670 -2.9270 -1.8113
  394SOL    HW2 1182   0.565   0.612   2.536  0.8633 -0.6861  2.9066
  395SOL     OW 1183   0.487   1.315   1.189  0.3585 -0.2786 -0.4247
  395SOL    HW1 1184   0.442   1.340   1.101  1.8076  0.0855  2.1584
  395SOL    HW2 1185   0.438   1.247   1.242  0.6291  4.3409 -1.1971
  396SOL     OW 1186   1.592   1.230   2.021 -0.4052 -0.1503 -0.0561
  396SOL    HW1 1187   1.560   1.147   2.070 -0.8530  0.5841 -3.0127
  396SOL    HW2 1188   1.633   1.297   2.092  0.8941  0.8812  2.3608
  397SOL     OW 1189   0.855   0.484   0.252 -0.0433  0.2270  0.2450
  397SOL    HW1 1190   0.764   0.437   0.265  0.6619  0.6375 -3.9546
  397SOL    HW2 1191   0.858   0.571   0.301 -1.3252 -2.3064 -0.7327
  398SOL     OW 1192   0.785   2.353   2.947 -0.1005 -0.3882  0.5667
  398SOL    HW1 1193   0.860   2.423   2.949  0.0500  3.2652  0.6007
  398SOL    HW2 1194   0.811   2.288   3.022  3.3304  0.5966  1.9907
  399SOL     OW 1195   1.490   1.964   2.411 -0.1360  0.3339 -0.1976
  399SOL    HW1 1196   1.397   1.994   2.444 -2.1651 -0.7053  2.0354
  399SOL    HW2 1197   1.545   1.910   2.475  0.6681  0.1226 -1.9776
  400SOL     OW 1198   2.102   1.496   1.455  0.1432  0.4321 -0.5093
  400SOL    HW1 1199   2.120   1.511   1.356 -0.7000  1.1421 -0.7021
  400SOL    HW2 1200   2.106   1.397   1.477  0.4117 -0.9190 -0.4435
  401SOL     OW 1201   1.217   1.153   0.955  0.8986  0.0207  0.1072
  401SOL    HW1 1202   1.313   1.185   0.943 -3.2173  0.0653  0.3220
  401SOL    HW2 1203   1.213   1.065   1.004  1.6135 -2.4297 -0.3605
  402SOL     OW 1204   3.029   2.489   1.951 -0.9408  0.2922  0.5518
  402SOL    HW1 1205   3.058   2.527   1.861  0.4222  0.2640  3.2276
  402SOL    HW2 1206   3.078   2.539   2.025  1.4663 -0.5969 -0.3952
  403SOL     OW 1207   2.960   1.750   1.678  0.6507 -0.4481  0.5040
  403SOL    HW1 1208   2.974   1.851   1.662 -1.8658  0.1771  0.9595
  403SOL    HW2 1209   2.900   1.718   1.605  2.2440 -0.6109  0.5302
  404SOL     OW 1210   2.007   1.876   1.235 -0.2997  0.3024  0.4031
  404SOL    HW1 1211   1.971   1.939   1.309  0.7099 -0.2708 -2.3221
  404SOL    HW2 1212   2.081   1.924   1.178  3.1319  0.7457 -3.8686
  405SOL     OW 1213   2.638   0.214   2.963  0.0514  0.6287  0.0699
  405SOL    HW1 1214   2.654   0.258   3.052 -0.5952  1.7676  0.5524
  405SOL    HW2 1215   2.591   0.285   2.912  0.3263 -0.5381  2.0838
  406SOL     OW 1216   0.951   1.597   2.565 -0.2572 -0.4300  0.1592
  406SOL    HW1 1217   0.979   1.678   2.621 -1.1357 -1.3811  1.3988
  406SOL    HW2 1218   0.901   1.528   2.615  1.9857  2.2987  0.7356
  407SOL     OW 1219   1.930   2.656   0.069 -0.5800  0.0620  0.1872
  407SOL    HW1 1220   1.980   2.570   0.086 -1.2500  1.1303  1.1058
  407SOL    HW2 1221   1.833   2.664   0.101  1.9103 -2.4538  1.1235
  408SOL     OW 1222   0.380   3.047   0.742  0.0635  0.4474  0.1934
  408SOL    HW1 1223   0.369   0.042   0.718  0.6710  1.1591  0.1180
  408SOL    HW2 1224   0.292   3.009   0.772  1.7076  1.1597 -1.6572
  409SOL     OW 1225   2.396   1.893   0.927  0.4264  0.2249  0.1267
  409SOL    HW1 1226   2.319   1.825   0.917 -2.8468 -2.3946 -0.2299
  409SOL    HW2 1227   2.481   1.837   0.954  0.0787 -2.2922 -1.9258
  410SOL     OW 1228   2.210   2.078   2.863  0.0608  0.1716 -0.2541
  410SOL    HW1 1229   2.309   2.099   2.877  0.1181  0.1629 -0.1229
  410SOL    HW2 1230   2.183   1.982   2.854 -2.4659  1.4939  0.5780
  411SOL     OW 1231   0.148   0.554   0.595 -0.3411 -0.0889  0.2307
  411SOL    HW1 1232   0.117   0.650   0.584  2.1018 -0.2451  0.5270
  411SOL    HW2 1233   0.242   0.542   0.566 -3.1664  0.3294 -0.0060
  412SOL     OW 1234   1.668   2.698   0.204 -0.2392 -0.2856  0.5707
  412SOL    HW1 1235   1.742   2.736   0.264  0.8470  2.0985  1.1743
  412SOL    HW2 1236   1.600   2.774   0.184 -1.3730  1.0796  1.3258
  413SOL     OW 1237   2.091   0.390   2.143  0.1099 -0.1101  0.4104
  413SOL    HW1 1238   2.075   0.413   2.043  2.0853  0.9144 -1.6644
  413SOL    HW2 1239   2.070   0.294   2.160 -0.5981  3.5009  0.1176
  414SOL     OW 1240   0.039   0.168   0.497  0.1211  0.2200  0.4947
  414SOL    HW1 1241   0.041   0.254   0.446 -1.6869 -2.1249  0.5728
  414SOL    HW2 1242   0.117   0.150   0.559  0.6123 -0.4301 -1.7837
  415SOL     OW 1243   0.797   1.649   1.487  0.1285  0.4915  0.4599
  415SOL    HW1 1244   0.777   1.738   1.528 -1.3077 -1.2415  1.7077
  415SOL    HW2 1245   0.728   1.615   1.421 -1.4199 -1.8180 -0.3606
  416SOL     OW 1246   0.310   2.824   0.095  0.0698 -0.3651 -0.6876
  416SOL    HW1 1247   0.287   2.917   0.135 -2.1846  0.6357  3.0214
  416SOL    HW2 1248   0.333   2.764   0.177  2.0178 -0.3942 -0.3383
  417SOL     OW 1249   2.697   2.833   1.121 -0.0518  0.3159 -0.0010
  417SOL    HW1 1250   2.629   2.845   1.195 -2.5003 -1.2570  1.7169
  417SOL    HW2 1251   2.685   2.883   1.032  1.4281  0.0107 -1.2674
  418SOL     OW 1252   0.684   0.227   2.584  0.6817  0.1188  0.2454
  418SOL    HW1 1253   0.587   0.217   2.620 -3.1361 -3.3418  1.8079
  418SOL    HW2 1254   0.739   0.275   2.654 -0.2126 -1.5107 -2.6750
  419SOL     OW 1255   0.337   1.393   0.979  0.2520 -0.1200 -0.0214
  419SOL    HW1 1256   0.290   1.304   0.981 -1.2977  0.6872  1.0011
  419SOL    HW2 1257   0.271   1.473   0.991 -1.2178  2.8550 -0.2952
  420SOL     OW 1258   1.654   1.804   0.914 -0.4273 -0.1627  0.6216
  420SOL    HW1 1259   1.703   1.720   0.912  1.0902  0.7552 -0.1489
  420SOL    HW2 1260   1.678   1.863   0.833 -1.3855 -1.1713 -2.4178
  421SOL     OW 1261   1.905   1.966   2.048  0.2558 -0.6531  0.0132
  421SOL    HW1 1262   1.845   1.879   2.045 -2.2134  0.6772 -1.6817
  421SOL    HW2 1263   1.990   1.958   2.105  0.9916 -1.0580  3.4697
  422SOL     OW 1264   2.836   0.530   2.962  0.1123 -0.2458  0.2036
  422SOL    HW1 1265   2.861   0.449   3.018  1.9127  0.4787 -1.4338
  422SOL    HW2 1266   2.787   0.598   3.023  0.2322 -1.6350  2.2401
  423SOL     OW 1267   1.332   2.235   0.796  0.1326  0.4022  0.6287
  423SOL    HW1 1268   1.388   2.252   0.714  0.2918 -0.0923 -0.6915
  423SOL    HW2 1269   1.271   2.312   0.822  1.5660 -1.4978 -0.0191
  424SOL     OW 1270   0.634   1.374   1.557  0.1846 -0.7323  0.1169
  424SOL    HW1 1271   0.558   1.307   1.583 -1.0928 -0.5394  3.2828
  424SOL    HW2 1272   0.723   1.342   1.596 -1.0761  1.2528  0.3078
  425SOL     OW 1273   2.775   2.707   2.144 -0.0404 -0.5508 -0.1281
  425SOL    HW1 1274   2.801   2.721   2.043 -0.8864  1.6283 -1.2582
  425SOL    HW2 1275   2.784   2.608   2.166  3.9861  1.0651 -4.1403
  426SOL     OW 1276   2.123   2.764   0.706  0.2439 -0.1660 -0.0880
  426SOL    HW1 1277   2.022   2.742   0.723 -0.8727 -0.7507 -1.6194
  426SOL    HW2 1278   2.147   2.861   0.717  0.7698  1.8262 -3.3376
  427SOL     OW 1279   0.717   0.808   2.857  0.5747  0.3208 -0.3756
  427SOL    HW1 1280   0.626   0.830   2.812 -0.2700  0.8914  3.3596
  427SOL    HW2 1281   0.764   0.892   2.886  0.5996 -0.6260  1.6127
  428SOL     OW 1282   2.062   1.308   0.185 -0.6732  0.2659  0.2343
  428SOL    HW1 1283   2.013   1.234   0.238 -1.9230 -1.7210  0.0490
  428SOL    HW2 1284   1.998   1.389   0.163 -3.7899  2.5930 -0.3571
  429SOL     OW 1285   3.094   2.994   0.427 -0.0086  0.3672 -0.6649
  429SOL    HW1 1286   0.026   3.091   0.415 -0.5390  3.1873 -2.1019
  429SOL    HW2 1287   3.046   2.985   0.519 -1.5186 -1.2687  2.5801
  430SOL     OW 1288   0.582   3.003   2.243  0.1233 -0.0663  0.4741
  430SOL    HW1 1289   0.606   3.087   2.305  0.2266  4.2378 -0.1771
  430SOL    HW2 1290   0.506   3.025   2.175  1.3171  0.8262  1.5947
  431SOL     OW 1291   2.826   1.183   1.299 -0.1552  0.2650 -0.7876
  431SOL    HW1 1292   2.791   1.251   1.359  0.3671  0.5077 -1.0530
  431SOL    HW2 1293   2.911   1.141   1.334  0.0178  1.7295 -2.8443
  432SOL     OW 1294   1.840   2.535   1.769  0.0155 -0.3865 -0.3562
  432SOL    HW1 1295   1.929   2.547   1.718  3.5041 -1.2384 -1.3493
  432SOL    HW2 1296   1.825   2.439   1.794 -0.5076  1.9977 -0.0632
  433SOL     OW 1297   1.091   1.816   0.111  0.2841  0.0330  0.6282
  433SOL    HW1 1298   1.059   1.719   0.114 -1.0771 -1.1826  0.7317
  433SOL    HW2 1299   1.099   1.850   0.019 -0.9776 -1.3524 -0.6510
  434SOL     OW 1300   0.288   2.214   2.596  0.2195  0.4064 -0.1661
  434SOL    HW1 1301   0.305   2.278   2.522  1.4082 -0.3457  1.2961
  434SOL    HW2 1302   0.261   2.256   2.686 -0.9039 -1.6992  0.2198
  435SOL     OW 1303   0.375   0.717   0.309  0.4969 -0.0685 -0.5428
  435SOL    HW1 1304   0.355   0.663   0.224  1.4363  0.7398 -1.2051
  435SOL    HW2 1305   0.294   0.780   0.331 -0.3735  0.9889  2.9784
  436SOL     OW 1306   0.269   2.792   1.577  0.3226  0.3488  0.2519
  436SOL    HW1 1307   0.279   2.704   1.634  3.6150  0.9475  1.0988
  436SOL    HW2 1308   0.220   2.780   1.491 -1.4880  3.6815 -1.6303
  437SOL     OW 1309   1.002   2.073   1.435  0.2966 -0.4405 -0.7937
  437SOL    HW1 1310   1.067   2.081   1.511 -0.1110  0.5297 -2.4585
  437SOL    HW2 1311   1.020   2.142   1.366  3.3501 -4.4535 -0.1896
  438SOL     OW 1312   0.098   1.860   0.879  0.2423 -0.2345 -0.4126
  438SOL    HW1 1313   0.132   1.940   0.925  0.3977 -1.6464 -1.2425
  438SOL    HW2 1314   0.111   1.874   0.780 -1.0695 -0.0684  1.3394
  439SOL     OW 1315   0.287   0.323   1.040  0.2566  0.6438 -0.0862
  439SOL    HW1 1316   0.243   0.354   1.131  0.8834  0.1782  2.6949
  439SOL    HW2 1317   0.352   0.246   1.064 -0.2854 -1.1246 -1.2465
  440SOL     OW 1318   2.978   2.885   2.171 -0.5390 -0.2869 -0.2986
  440SOL    HW1 1319   2.913   2.952   2.214 -0.2071 -0.5619 -0.0024
  440SOL    HW2 1320   2.923   2.802   2.154 -0.4015 -0.0792 -1.2850
  441SOL     OW 1321   0.074   0.657   1.607 -0.4066 -0.4270 -0.2961
  441SOL    HW1 1322   0.068   0.742   1.656 -3.0226  0.3443 -1.4896
  441SOL    HW2 1323   0.004   0.595   1.640  2.3187  0.6144  0.0473
  442SOL     OW 1324   1.794   2.360   3.053 -0.8438 -0.5135  0.0257
  442SOL    HW1 1325   1.851   2.276   3.028 -0.0456 -1.7341 -1.5979
  442SOL    HW2 1326   1.773   2.357   0.050  1.8645  0.4024  2.5552
  443SOL     OW 1327   0.515   1.031   3.095  0.2886 -0.3524  0.4046
  443SOL    HW1 1328   0.423   0.995   3.068 -1.3278 -0.0176 -0.0235
  443SOL    HW2 1329   0.541   0.991   0.082  0.2184 -0.8576 -1.6869
  444SOL     OW 1330   1.278   1.517   1.932  0.2765 -0.2310 -0.1519
  444SOL    HW1 1331   1.197   1.561   1.890 -0.7182 -0.3575  2.4004
  444SOL    HW2 1332   1.240   1.471   2.016 -3.7390 -1.5691  0.5811
  445SOL     OW 1333   0.040   3.095   1.075 -0.6987  0.4167 -0.3190
  445SOL    HW1 1334   0.033   0.087   1.054 -1.0273 -4.3098 -0.4310
  445SOL    HW2 1335   0.033   3.073   1.174 -1.6231  0.7524 -0.7339
  446SOL     OW 1336   2.537   0.792   1.224  0.2598 -0.0113  0.2052
  446SOL    HW1 1337   2.574   0.870   1.284  0.1140 -1.6066  0.2152
  446SOL    HW2 1338   2.439   0.815   1.206 -2.4361  1.6117 -0.4315
  447SOL     OW 1339   0.299   0.671   3.070  0.3609 -0.1134 -0.6991
  447SOL    HW1 1340   0.373   0.599   3.079  1.4406 -0.7595  1.5857
  447SOL    HW2 1341   0.230   0.634   3.000 -2.6651  0.6690 -0.8206
  448SOL     OW 1342   1.224   2.250   1.622 -0.1006  0.1373  0.5362
  448SOL    HW1 1343   1.273   2.253   1.711  0.0060 -0.8535 -2.0387
  448SOL    HW2 1344   1.220   2.345   1.581  0.1298  0.0515 -2.4440
  449SOL     OW 1345   1.297   1.209   0.675  0.2294  0.1769 -0.4624
  449SOL    HW1 1346   1.375   1.231   0.742 -1.4271  1.7528  1.3652
  449SOL    HW2 1347   1.253   1.122   0.699 -0.7232  1.7975  0.5799
  450SOL     OW 1348   2.492   1.780   1.992  0.5657 -0.2725 -0.8083
  450SOL    HW1 1349   2.588   1.809   1.999 -0.9370 -2.8599 -0.1028
  450SOL    HW2 1350   2.431   1.861   1.994 -0.3225  2.8154  0.8093
  451SOL     OW 1351   2.801   1.305   2.884  0.2069  0.0448 -0.6283
  451SOL    HW1 1352   2.706   1.337   2.884  2.5150 -0.4081  0.0706
  451SOL    HW2 1353   2.840   1.293   2.977  0.6662 -0.0968  0.8584
  452SOL     OW 1354   1.691   0.668   1.261 -0.2099 -0.5660 -0.1204
  452SOL    HW1 1355   1.612   0.622   1.213  1.7968 -1.1931  0.7532
  452SOL    HW2 1356   1.673   0.768   1.271 -1.1115 -0.7855 -1.6520
  453SOL     OW 1357   2.051   1.077   1.042  0.3522  0.1745 -0.2309
  453SOL    HW1 1358   1.955   1.044   1.028  0.2718 -0.2588  0.6867
  453SOL    HW2 1359   2.063   1.179   1.030 -1.1533 -0.6098  0.7381
  454SOL     OW 1360   2.775   0.846   0.288  0.1384  0.4484  0.3111
  454SOL    HW1 1361   2.855   0.892   0.327  0.1842 -2.2739 -2.0555
  454SOL    HW2 1362   2.726   0.914   0.236 -1.0594 -0.6978  3.4453
  455SOL     OW 1363   2.637   1.798   1.030  0.4796 -0.4987  0.4202
  455SOL    HW1 1364   2.623   1.698   1.004  2.2666  0.6197 -0.6287
  455SOL    HW2 1365   2.737   1.808   1.035 -2.1362  1.6359 -0.6587
  456SOL     OW 1366   0.761   3.022   1.322  0.2956  0.0511  0.3337
  456SOL    HW1 1367   0.675   3.063   1.346  2.4073  0.6004  0.7549
  456SOL    HW2 1368   0.820   3.014   1.401 -0.4061  1.1466 -2.0980
  457SOL     OW 1369   1.837   2.743   0.776  0.5268  0.0716  0.1259
  457SOL    HW1 1370   1.807   2.709   0.686 -1.6430 -2.0004  2.3129
  457SOL    HW2 1371   1.809   2.840   0.794 -0.2902  2.2388  0.5047
  458SOL     OW 1372   2.583   0.344   0.713  0.1574 -0.3162 -0.4273
  458SOL    HW1 1373   2.576   0.265   0.777  0.2209  0.5852 -0.7786
  458SOL    HW2 1374   2.550   0.432   0.757  1.5357  0.5311 -0.2150
  459SOL     OW 1375   2.088   0.724   2.965 -0.1255  0.3398  0.5709
  459SOL    HW1 1376   2.074   0.814   3.003  1.4100 -1.5801 -1.8332
  459SOL    HW2 1377   2.170   0.681   3.004  0.5767 -1.2452 -0.0899
  460SOL     OW 1378   2.987   2.523   2.724  0.2526  0.2220  0.1874
  460SOL    HW1 1379   2.972   2.615   2.761  0.2322 -1.1902  0.4463
  460SOL    HW2 1380   2.933   2.456   2.780 -0.6791 -0.0191  0.5600
  461SOL     OW 1381   0.766   1.761   0.115  0.1354 -0.1188 -0.2487
  461SOL    HW1 1382   0.770   1.848   0.162  3.5966  0.5879 -1.6068
  461SOL    HW2 1383   0.709   1.777   0.032  0.4105 -0.0819  0.8386
  462SOL     OW 1384   2.283   2.293   0.847  0.2642 -0.0138  0.3097
  462SOL    HW1 1385   2.265   2.387   0.820 -0.8351  2.0486 -0.7070
  462SOL    HW2 1386   2.269   2.277   0.944  1.1458 -1.3399 -3.8671
  463SOL     OW 1387   0.036   0.411   0.370 -0.0305 -0.2153 -0.7235
  463SOL    HW1 1388   0.083   0.463   0.447  0.9366  0.1725  1.4306
  463SOL    HW2 1389   3.090   0.469   0.300 -2.6925 -1.3051 -1.8142
  464SOL     OW 1390   0.957   2.603   0.523 -0.8317 -0.0157 -0.3223
  464SOL    HW1 1391   0.886   2.573   0.589 -0.1580  0.9181  0.9463
  464SOL    HW2 1392   0.923   2.671   0.459  0.0953 -1.7492  0.7942
  465SOL     OW 1393   2.447   0.838   0.811 -0.1628  0.1697  0.5919
  465SOL    HW1 1394   2.371   0.871   0.875  0.8819 -1.0374 -1.1731
  465SOL    HW2 1395   2.430   0.871   0.716 -0.5597 -2.8782  0.5344
  466SOL     OW 1396   2.182   3.004   0.082  0.0046  0.1075 -0.0643
  466SOL    HW1 1397   2.274   3.043   0.068 -1.9519 -2.4555  0.5362
  466SOL    HW2 1398   2.157   2.938   0.009 -1.2680 -0.6116  0.1738
  467SOL     OW 1399   1.222   0.472   1.786 -0.1598 -0.4898  1.0278
  467SOL    HW1 1400   1.160   0.444   1.862  2.7610 -1.8433 -0.3768
  467SOL    HW2 1401   1.244   0.569   1.776  1.7056  1.8256  0.4606
  468SOL     OW 1402   0.002   0.522   2.101  0.3940  0.3647  0.5399
  468SOL    HW1 1403   0.016   0.438   2.152 -0.2957  1.5525 -2.9302
  468SOL    HW2 1404   0.079   0.534   2.033 -0.3614  2.2941 -1.2557
  469SOL     OW 1405   0.754   3.054   2.724  0.4108  0.1895 -0.0317
  469SOL    HW1 1406   0.697   3.000   2.787  0.0083  2.0552 -2.2341
  469SOL    HW2 1407   0.700   0.031   2.696  1.2001 -1.3643  1.5009
  470SOL     OW 1408   1.660   1.392   2.220 -0.1793 -0.2494 -0.1713
  470SOL    HW1 1409   1.592   1.456   2.266  2.1647  2.0683 -1.0610
  470SOL    HW2 1410   1.744   1.443   2.205 -0.8133 -1.1463 -1.3975
  471SOL     OW 1411   2.883   0.960   2.989  0.2056  0.2153 -0.2167
  471SOL    HW1 1412   2.930   0.870   3.000 -1.0419 -0.8536  1.2231
  471SOL    HW2 1413   2.796   0.959   3.044  0.0711  3.3081  0.0776
  472SOL     OW 1414   0.359   2.656   0.309 -0.5027  0.1030 -0.5987
  472SOL    HW1 1415   0.317   2.738   0.352 -1.9396 -2.0053 -1.3874
  472SOL    HW2 1416   0.286   2.587   0.310 -1.1766 -1.9116 -3.4551
  473SOL     OW 1417   0.713   0.172   2.979 -0.1564 -0.7240 -0.0967
  473SOL    HW1 1418   0.726   0.088   3.036  0.7592 -0.8395 -2.0695
  473SOL    HW2 1419   0.620   0.206   2.979  0.5674  0.2040 -1.2276
  474SOL     OW 1420   1.705   0.128   2.132 -0.6109 -0.4906 -0.5900
  474SOL    HW1 1421   1.614   0.166   2.109  1.7919 -0.9362 -0.7649
  474SOL    HW2 1422   1.693   0.039   2.169  0.6646  2.2298 -2.0998
  475SOL     OW 1423   0.727   2.672   0.249  0.5632 -0.3871  0.6600
  475SOL    HW1 1424   0.814   2.725   0.266  1.5835  1.7878  1.0935
  475SOL    HW2 1425   0.667   2.697   0.326 -0.1961 -1.0849 -0.1983
  476SOL     OW 1426   0.448   0.722   0.862 -0.2330 -0.1938 -1.0430
  476SOL    HW1 1427   0.384   0.774   0.806  0.1159  1.0234  0.2166
  476SOL    HW2 1428   0.535   0.717   0.811  0.5575  0.1034 -1.6055
  477SOL     OW 1429   1.877   2.050   1.409 -0.5135 -0.4890  0.0782
  477SOL    HW1 1430   1.774   2.045   1.426 -1.4367 -0.3861  0.3170
  477SOL    HW2 1431   1.925   2.082   1.491 -4.2129 -0.4476  0.5599
  478SOL     OW 1432   0.502   1.297   2.108  0.0331 -0.0074  0.0662
  478SOL    HW1 1433   0.537   1.200   2.115  1.4497 -2.7596  0.3830
  478SOL    HW2 1434   0.412   1.301   2.057 -0.3450  0.7314  0.9437
  479SOL     OW 1435   0.594   0.038   0.906  0.0653 -0.1759  0.6850
  479SOL    HW1 1436   0.627   0.134   0.885 -0.6767 -0.7244  0.4709
  479SOL    HW2 1437   0.516   0.003   0.848 -1.7473  2.5275  2.6559
  480SOL     OW 1438   2.299   2.618   2.971  0.1599  0.1224 -0.0216
  480SOL    HW1 1439   2.225   2.556   2.935  2.2493  0.9151 -2.3702
  480SOL    HW2 1440   2.337   2.672   2.895 -0.6331 -1.1304  3.5670
  481SOL     OW 1441   2.777   0.645   1.215 -0.0559 -0.1749 -0.0929
  481SOL    HW1 1442   2.681   0.679   1.205  1.5885  1.9443  0.9718
  481SOL    HW2 1443   2.789   0.604   1.309  1.8815  0.9901  2.3933
  482SOL     OW 1444   1.453   2.551   1.894 -0.1422 -0.1314  0.5103
  482SOL    HW1 1445   1.501   2.567   1.802  0.2813  0.6031  2.8155
  482SOL    HW2 1446   1.519   2.555   1.972 -3.0617  0.9213 -2.4034
  483SOL     OW 1447   0.294   1.564   2.728 -0.5800  0.4699  0.2502
  483SOL    HW1 1448   0.320   1.556   2.627 -2.2022 -0.3270 -0.5290
  483SOL    HW2 1449   0.211   1.503   2.749 -1.9622 -1.4060 -2.5576
  484SOL     OW 1450   1.141   1.821   2.232  0.7191  0.2876  0.0295
  484SOL    HW1 1451   1.237   1.849   2.208  2.0262  3.2152 -2.0841
  484SOL    HW2 1452   1.077   1.820   2.153 -3.0275  2.8945  1.6680
  485SOL     OW 1453   2.958   0.234   2.513 -0.8971  0.1751 -0.0134
  485SOL    HW1 1454   2.996   0.328   2.496 -1.4962  0.9830  0.3547
  485SOL    HW2 1455   3.011   0.167   2.460 -0.4189 -2.5444  0.8854
  486SOL     OW 1456   1.695   3.055   0.257  0.7425 -0.2754  0.2873
  486SOL    HW1 1457   1.696   0.005   0.345  0.2396 -3.5631  0.0875
  486SOL    HW2 1458   1.616   3.076   0.195  0.0472  0.8873 -0.7929
  487SOL     OW 1459   1.277   2.683   1.117  0.2249  0.2412  1.1925
  487SOL    HW1 1460   1.342   2.719   1.046  2.2868  0.5058  0.2144
  487SOL    HW2 1461   1.229   2.759   1.162 -2.1853 -1.4402  0.4782
  488SOL     OW 1462   2.038   0.870   0.689  0.6845 -0.2816  0.2676
  488SOL    HW1 1463   2.059   0.855   0.588  0.6432  0.5292 -0.4223
  488SOL    HW2 1464   2.054   0.968   0.713  0.4501 -1.0418  1.7248
  489SOL     OW 1465   1.112   2.871   1.301  0.0514  0.7204  0.4436
  489SOL    HW1 1466   1.034   2.812   1.327  1.6618  0.2684 -1.6325
  489SOL    HW2 1467   1.169   2.887   1.383  0.6503 -0.1315  0.8101
  490SOL     OW 1468   0.959   0.965   0.518 -0.4659  0.4489  0.2374
  490SOL    HW1 1469   1.032   0.948   0.588 -0.9802  0.9760 -0.2015
  490SOL    HW2 1470   0.950   0.888   0.445 -0.3869  0.9047 -3.9103
  491SOL     OW 1471   1.488   2.872   0.118  0.7027 -0.2706 -0.1901
  491SOL    HW1 1472   1.482   2.972   0.138 -0.5163  0.3366  1.3854
  491SOL    HW2 1473   1.397   2.838   0.095  0.5230  3.1200  1.9884
  492SOL     OW 1474   1.289   1.119   2.227  0.3767  0.5399  0.1481
  492SOL    HW1 1475   1.257   1.209   2.191 -0.0782 -1.3733  1.4237
  492SOL    HW2 1476   1.229   1.041   2.203  1.3594 -1.4639  3.4695
  493SOL     OW 1477   0.101   1.937   0.410 -0.7367 -0.9667 -0.2050
  493SOL    HW1 1478   0.025   1.873   0.398  2.6269 -0.0840 -0.7859
  493SOL    HW2 1479   0.181   1.879   0.390 -1.4325  0.5926 -0.3046
  494SOL     OW 1480   2.193   1.480   0.373  0.3754 -0.0595 -0.3922
  494SOL    HW1 1481   2.099   1.515   0.396 -0.6199 -0.3193 -1.0338
  494SOL    HW2 1482   2.182   1.424   0.287 -0.2047  0.3391  0.4215
  495SOL     OW 1483   0.026   0.782   2.734  0.0209  0.4830 -0.4618
  495SOL    HW1 1484   0.029   0.837   2.648  0.6851  1.1372  1.5501
  495SOL    HW2 1485   3.082   0.825   2.811  2.1790 -1.1284 -2.5478
  496SOL     OW 1486   2.793   3.041   2.310  0.7470  0.0261 -0.1752
  496SOL    HW1 1487   2.737   0.021   2.282 -1.8104 -0.8596 -0.2344
  496SOL    HW2 1488   2.740   2.963   2.348  1.3966  0.8535  0.7981
  497SOL     OW 1489   2.643   0.997   0.732  0.2039 -0.2060  0.4640
  497SOL    HW1 1490   2.615   0.918   0.786  0.9224  0.9999  1.5156
  497SOL    HW2 1491   2.584   1.018   0.652 -0.9951  2.0096 -2.5102
  498SOL     OW 1492   0.034   2.438   0.047  0.0644 -0.1433  0.2596
  498SOL    HW1 1493   0.124   2.391   0.031  0.1405 -0.9283  1.4098
  498SOL    HW2 1494   0.042   2.536   0.020 -1.2859  1.8264  0.8381
  499SOL     OW 1495   1.073   2.625   0.941  0.2283 -0.6708 -0.1761
  499SOL    HW1 1496   1.147   2.638   1.009  0.4183  1.7522  0.1876
  499SOL    HW2 1497   1.099   2.561   0.868 -0.6689  0.4012 -0.3436
  500SOL     OW 1498   0.928   0.392   2.480 -0.0193 -0.1134 -0.2992
  500SOL    HW1 1499   0.862   0.353   2.548 -1.1285 -1.4829  2.1308
  500SOL    HW2 1500   1.013   0.417   2.524 -0.0468  1.7542  0.2683
  501SOL     OW 1501   1.107   0.154   1.419 -0.4982 -0.4835  0.1524
  501SOL    HW1 1502   1.190   0.105   1.391 -2.4583  0.8717  1.6024
  501SOL    HW2 1503   1.034   0.085   1.445 -2.2228  0.5589 -0.5575
  502SOL     OW 1504   3.019   0.232   2.029  0.0183  0.3203 -0.0958
  502SOL    HW1 1505   3.054   0.139   2.010 -0.2016  1.9165  0.9005
  502SOL    HW2 1506   3.067   0.265   2.115 -1.0116  2.9458 -0.6711
  503SOL     OW 1507   1.772   2.225   2.113 -0.6775  0.4088  0.2856
  503SOL    HW1 1508   1.710   2.214   2.195  0.0570  1.3859 -0.2731
  503SOL    HW2 1509   1.821   2.139   2.081 -0.4973 -2.1019 -0.5157
  504SOL     OW 1510   2.116   3.060   1.655  0.5538 -0.3570 -0.0500
  504SOL    HW1 1511   2.131   0.007   1.742  0.5466 -0.9607 -0.6193
  504SOL    HW2 1512   2.094   0.019   1.578 -0.3537  0.1295 -1.2150
  505SOL     OW 1513   2.750   1.180   1.785 -0.0992  0.1023  0.8027
  505SOL    HW1 1514   2.845   1.152   1.763 -1.3729  0.6959  0.8079
  505SOL    HW2 1515   2.743   1.287   1.787  0.9369  3.1861  1.4927
  506SOL     OW 1516   0.301   1.508   2.472  0.5481 -0.3841 -0.2669
  506SOL    HW1 1517   0.227   1.474   2.412  1.6552  0.9059  1.8554
  506SOL    HW2 1518   0.392   1.482   2.432 -0.9330  2.4506  0.5279
  507SOL     OW 1519   0.158   2.986   1.695 -0.1419 -1.2801 -0.2698
  507SOL    HW1 1520   0.186   3.080   1.655  2.4809  3.1059 -1.7072
  507SOL    HW2 1521   0.220   2.915   1.657  0.1950  0.1447  1.0161
  508SOL     OW 1522   1.415   0.802   1.501 -0.5053  0.0631  0.1700
  508SOL    HW1 1523   1.414   0.882   1.439  1.7447  1.4943  0.8997
  508SOL    HW2 1524   1.505   0.756   1.491  1.2309 -1.9254 -4.4157
  509SOL     OW 1525   1.138   1.938   1.147  0.1397  0.2715 -0.4723
  509SOL    HW1 1526   1.109   2.036   1.150  0.1859  0.9937 -3.2127
  509SOL    HW2 1527   1.054   1.882   1.174 -2.6103  0.5334  0.1991
  510SOL     OW 1528   2.735   0.984   2.733  0.2967  0.1630 -0.3297
  510SOL    HW1 1529   2.701   0.898   2.687  0.2829  1.3334 -3.7960
  510SOL    HW2 1530   2.764   0.970   2.831  1.5591  1.6828  0.0365
  511SOL     OW 1531   0.572   1.528   1.329  0.4135 -0.2155 -0.3528
  511SOL    HW1 1532   0.593   1.479   1.416 -1.5468 -1.0217 -1.6129
  511SOL    HW2 1533   0.514   1.462   1.279 -2.7198  1.5056  1.4375
  512SOL     OW 1534   2.628   2.455   0.530 -0.7714  0.4506  0.1618
  512SOL    HW1 1535   2.649   2.387   0.605  0.2845  2.0545  0.7440
  512SOL    HW2 1536   2.641   2.406   0.441  1.4987 -0.6858 -0.7816
  513SOL     OW 1537   0.426   1.557   2.954  0.3758 -0.1997 -0.2539
  513SOL    HW1 1538   0.353   1.538   3.021  2.0600 -0.0377  0.5969
  513SOL    HW2 1539   0.391   1.550   2.860  1.1101 -0.9069  1.9409
  514SOL     OW 1540   0.129   2.564   2.787 -0.0209  0.1296  0.4003
  514SOL    HW1 1541   0.036   2.537   2.751  2.5028 -0.2261 -0.2325
  514SOL    HW2 1542   0.132   2.603   2.883  0.1471  1.6062  1.0064
  515SOL     OW 1543   1.541   1.033   2.218 -0.2272 -0.5558 -0.3277
  515SOL    HW1 1544   1.446   1.055   2.233  2.9253 -3.3783 -0.5636
  515SOL    HW2 1545   1.588   1.010   2.307 -3.2935  0.5050  2.3753
  516SOL     OW 1546   2.112   2.190   0.633  0.2903 -0.2485  0.3511
  516SOL    HW1 1547   2.108   2.089   0.624  0.4668 -0.0964  0.9587
  516SOL    HW2 1548   2.184   2.221   0.701  3.6709 -0.7636  0.9007
  517SOL     OW 1549   1.221   1.491   0.676 -0.2962 -0.1200  0.4811
  517SOL    HW1 1550   1.248   1.468   0.773 -0.8581  1.8696 -2.0656
  517SOL    HW2 1551   1.224   1.408   0.616 -0.0538  2.7951 -0.1766
  518SOL     OW 1552   2.211   2.484   2.224 -0.5440 -0.0093 -0.1572
  518SOL    HW1 1553   2.126   2.538   2.244  1.8223 -1.6808  0.5364
  518SOL    HW2 1554   2.289   2.510   2.288 -0.2637  0.1703 -0.8030
  519SOL     OW 1555   1.835   2.114   1.128  0.0449 -0.3543 -0.0999
  519SOL    HW1 1556   1.836   2.077   1.222  0.8856  0.5963 -1.6887
  519SOL    HW2 1557   1.893   2.200   1.130  2.9797  0.9897 -2.3620
  520SOL     OW 1558   2.746   2.345   2.620 -0.2285  0.1170  0.1065
  520SOL    HW1 1559   2.827   2.368   2.561 -1.0478  2.4884 -1.1749
  520SOL    HW2 1560   2.659   2.356   2.567 -1.6872  1.2113  1.1868
  521SOL     OW 1561   0.229   1.290   1.997  0.1463  0.1889 -0.2809
  521SOL    HW1 1562   0.169   1.310   1.917 -0.9755 -2.3094 -0.9689
  521SOL    HW2 1563   0.180   1.322   2.082 -0.8801  0.0488  0.9299
  522SOL     OW 1564   0.761   0.513   2.266  0.4430  0.0978  0.0738
  522SOL    HW1 1565   0.793   0.475   2.176  1.5373  0.2098 -2.7377
  522SOL    HW2 1566   0.833   0.498   2.335 -1.2404 -2.9295  0.5869
  523SOL     OW 1567   0.566   2.209   0.826  0.0275  0.0729  0.0535
  523SOL    HW1 1568   0.539   2.117   0.859  1.4309 -0.5082 -1.5492
  523SOL    HW2 1569   0.512   2.248   0.748  2.7457 -3.3436 -0.0014
  524SOL     OW 1570   1.837   2.857   0.371  0.7315 -0.2384 -0.5640
  524SOL    HW1 1571   1.935   2.876   0.350  0.4714 -1.3117 -2.0155
  524SOL    HW2 1572   1.776   2.938   0.339 -0.8720  1.1610  0.6517
  525SOL     OW 1573   2.374   0.776   1.506 -0.4951  0.6670 -0.1489
  525SOL    HW1 1574   2.336   0.792   1.415 -1.7257 -1.3280  2.9982
  525SOL    HW2 1575   2.355   0.859   1.566 -1.2535 -0.7242  0.6142
  526SOL     OW 1576   1.079   2.774   0.712  0.8086 -0.4371  0.0603
  526SOL    HW1 1577   1.076   2.706   0.787 -0.0701 -0.5808 -0.1349
  526SOL    HW2 1578   1.037   2.734   0.627 -1.9376 -1.3810 -2.1058
  527SOL     OW 1579   2.697   2.310   0.310  0.0510  0.1776  0.1322
  527SOL    HW1 1580   2.698   2.208   0.317 -0.5971 -2.5688  1.7361
  527SOL    HW2 1581   2.674   2.343   0.214  0.8072  1.9339 -1.9232
  528SOL     OW 1582   2.504   0.139   0.375  0.2071 -0.3928  0.7813
  528SOL    HW1 1583   2.536   0.047   0.350  0.5350  0.2905  0.5559
  528SOL    HW2 1584   2.459   0.148   0.465 -0.8802  3.5006  0.5238
  529SOL     OW 1585   1.462   1.531   2.384 -0.4557  0.8600 -0.2310
  529SOL    HW1 1586   1.478   1.619   2.432 -1.7766  1.6679 -1.7825
  529SOL    HW2 1587   1.366   1.495   2.404 -1.9015  0.3816  0.5647
  530SOL     OW 1588   2.279   0.657   0.056  0.1809  0.2901 -0.1505
  530SOL    HW1 1589   2.214   0.579   0.073 -0.1179 -2.7554 -1.6433
  530SOL    HW2 1590   2.353   0.653   0.123 -2.0723  1.0810 -1.6999
  531SOL     OW 1591   1.457   1.086   2.965 -0.2055  0.2149  0.3321
  531SOL    HW1 1592   1.462   1.077   3.065 -2.6599 -2.4827 -2.5862
  531SOL    HW2 1593   1.363   1.063   2.930  1.3308 -1.0142 -1.9490
  532SOL     OW 1594   1.655   0.443   0.729  0.3876 -0.1351 -0.0152
  532SOL    HW1 1595   1.712   0.527   0.718 -1.0733  0.1627  0.8963
  532SOL    HW2 1596   1.636   0.398   0.637 -0.6827 -2.5937 -1.2664
  533SOL     OW 1597   0.864   0.692   2.032  0.0916  0.5832  0.3906
  533SOL    HW1 1598   0.882   0.718   2.127  0.0780  1.6732  0.1626
  533SOL    HW2 1599   0.851   0.778   1.975  0.3626  1.1681 -0.3873
  534SOL     OW 1600   1.700   0.434   2.658 -0.0743  0.7478  0.2142
  534SOL    HW1 1601   1.734   0.338   2.674  4.0058  0.1961  0.9642
  534SOL    HW2 1602   1.719   0.492   2.737 -1.2271 -0.1709 -0.1511
  535SOL     OW 1603   0.387   0.306   0.458 -0.3185  0.5331 -0.2627
  535SOL    HW1 1604   0.336   0.240   0.521 -0.7424 -0.3868  0.9917
  535SOL    HW2 1605   0.362   0.304   0.361  0.5747  2.7293  0.1232
  536SOL     OW 1606   0.802   0.345   0.616  0.7129  0.1572  0.3803
  536SOL    HW1 1607   0.763   0.332   0.525 -1.1234  0.3687  2.5458
  536SOL    HW2 1608   0.856   0.424   0.617 -1.3791 -1.5130  2.6408
  537SOL     OW 1609   1.832   0.696   0.765  0.3918 -0.2717  0.3437
  537SOL    HW1 1610   1.891   0.778   0.748 -2.5459  0.1323 -1.0574
  537SOL    HW2 1611   1.897   0.617   0.782 -1.0042 -2.4220  1.6393
  538SOL     OW 1612   2.922   2.062   0.046 -0.0586 -0.0458  0.7393
  538SOL    HW1 1613   2.827   2.028   0.068  0.7188 -0.7770  0.7596
  538SOL    HW2 1614   2.977   1.984   0.003 -0.1823 -0.1769 -1.4836
  539SOL     OW 1615   2.151   1.740   0.086  0.2181 -0.1890 -0.3464
  539SOL    HW1 1616   2.238   1.776   0.132  4.5014 -0.0833 -0.4368
  539SOL    HW2 1617   2.171   1.650   0.038 -0.6597 -1.1331 -0.5242
  540SOL     OW 1618   0.405   2.371   1.284 -0.2798 -0.1543  0.3106
  540SOL    HW1 1619   0.317   2.319   1.285  0.2899  0.8288 -0.6063
  540SOL    HW2 1620   0.415   2.434   1.203  0.7139  0.9374 -1.3383
  541SOL     OW 1621   1.975   0.133   2.082  0.2546  0.2353  0.4033
  541SOL    HW1 1622   1.993   0.047   2.139  1.1351 -1.0548 -1.5073
  541SOL    HW2 1623   1.875   0.152   2.078 -1.5670 -1.2718  0.9480
  542SOL     OW 1624   2.603   0.452   2.787  0.4197  0.1706  0.3306
  542SOL    HW1 1625   2.689   0.495   2.818 -0.3658  0.9718 -1.8151
  542SOL    HW2 1626   2.519   0.477   2.839  1.5872  0.1137 -2.8546
  543SOL     OW 1627   0.182   1.142   0.995 -0.2002 -0.4014  0.3580
  543SOL    HW1 1628   0.115   1.199   0.944 -1.5530  0.2762 -0.6152
  543SOL    HW2 1629   0.134   1.063   1.029  0.1002  0.8536 -4.3132
  544SOL     OW 1630   2.853   0.223   1.118 -0.1781  0.6015  0.5548
  544SOL    HW1 1631   2.754   0.231   1.133  0.7324  3.5299  0.1028
  544SOL    HW2 1632   2.867   0.231   1.020 -0.5680 -1.0674 -0.4544
  545SOL     OW 1633   1.510   2.554   0.668 -0.7053 -0.2365 -0.4976
  545SOL    HW1 1634   1.600   2.573   0.622  1.4798 -1.3857 -0.9663
  545SOL    HW2 1635   1.449   2.496   0.612 -0.7491 -1.9891  0.4863
  546SOL     OW 1636   1.986   2.843   1.581 -0.0490 -0.2354 -0.0499
  546SOL    HW1 1637   2.039   2.755   1.591 -0.2005 -0.7899 -0.5175
  546SOL    HW2 1638   2.043   2.924   1.601  1.2942  2.3933  0.9246
  547SOL     OW 1639   0.304   0.202   2.087 -0.9205  0.0566 -0.0156
  547SOL    HW1 1640   0.365   0.122   2.078  0.5577  0.1493 -1.2222
  547SOL    HW2 1641   0.343   0.284   2.038 -0.5434 -1.2541 -1.0462
  548SOL     OW 1642   1.820   1.371   2.880 -0.1714 -0.7494 -0.1795
  548SOL    HW1 1643   1.720   1.351   2.886  1.6303  0.4757  1.7084
  548SOL    HW2 1644   1.868   1.295   2.831  0.1283  2.5328  0.6729
  549SOL     OW 1645   2.967   1.006   0.426 -0.1208  0.1551 -0.7318
  549SOL    HW1 1646   2.914   1.083   0.468  0.3077 -0.2167 -2.3067
  549SOL    HW2 1647   3.034   1.054   0.370 -0.9558 -0.1101  1.4076
  550SOL     OW 1648   1.695   2.090   0.808 -0.0285 -0.0585 -0.3979
  550SOL    HW1 1649   1.621   2.080   0.732 -5.6532 -1.0029  1.4755
  550SOL    HW2 1650   1.671   2.173   0.871 -2.0373 -0.5492  0.4172
  551SOL     OW 1651   1.404   0.537   0.781  0.2331  0.1545 -0.0574
  551SOL    HW1 1652   1.348   0.456   0.810 -2.9795  0.8702  0.6918
  551SOL    HW2 1653   1.488   0.509   0.731 -0.2615  2.1856 -0.1495
  552SOL     OW 1654   2.632   2.808   2.356  0.0754 -0.1586  0.6077
  552SOL    HW1 1655   2.694   2.777   2.276  4.0041  0.8404 -5.5121
  552SOL    HW2 1656   2.552   2.854   2.316  1.5940  1.8909  0.8823
  553SOL     OW 1657   3.076   3.099   2.340 -0.4830  0.0563  0.4572
  553SOL    HW1 1658   0.019   3.096   2.248 -1.2223 -2.0547 -0.5996
  553SOL    HW2 1659   2.973   3.078   2.337 -0.7539 -0.3081 -0.1069
  554SOL     OW 1660   1.127   3.037   1.097  0.5437  0.0323  0.0189
  554SOL    HW1 1661   1.036   3.055   1.059  2.8977  1.8219  0.5666
  554SOL    HW2 1662   1.120   2.963   1.166  1.7969  0.0277  0.6393
  555SOL     OW 1663   2.495   2.558   2.297 -0.1882  0.5637 -0.3743
  555SOL    HW1 1664   2.512   2.660   2.302 -1.3930 -2.0205  1.5396
  555SOL    HW2 1665   2.563   2.502   2.248  0.0135 -0.4334 -0.6483
  556SOL     OW 1666   1.149   0.242   2.791  0.3396  0.1330  0.2960
  556SOL    HW1 1667   1.165   0.308   2.715  3.7920  1.5084  0.1205
  556SOL    HW2 1668   1.172   0.151   2.756 -1.5758  2.4480  0.9030
  557SOL     OW 1669   0.179   1.744   2.380  0.2587  0.6024 -0.1122
  557SOL    HW1 1670   0.196   1.825   2.433  1.0343 -2.3332 -2.8643
  557SOL    HW2 1671   0.228   1.661   2.413 -0.4887 -1.6616 -0.6003
  558SOL     OW 1672   2.187   1.005   2.437 -0.6287 -0.7881  0.0716
  558SOL    HW1 1673   2.251   0.947   2.386 -1.0443  1.8723 -1.4451
  558SOL    HW2 1674   2.161   1.091   2.392  3.6728  0.6861  0.9745
  559SOL     OW 1675   2.463   2.093   2.379  0.3586 -0.0295  0.1386
  559SOL    HW1 1676   2.475   2.179   2.434 -1.0045  1.4252  1.8282
  559SOL    HW2 1677   2.520   2.097   2.296 -0.8476  0.3429 -0.7794
  560SOL     OW 1678   2.558   0.945   2.279 -0.1388  0.2335  0.1764
  560SOL    HW1 1679   2.502   0.882   2.339 -0.8164 -1.0763  1.6512
  560SOL    HW2 1680   2.505   0.975   2.198 -1.3217 -0.5518  1.2908
  561SOL     OW 1681   0.331   0.371   0.181 -0.6187 -0.3027 -0.4863
  561SOL    HW1 1682   0.289   0.301   0.120  0.9806  3.0697  1.2704
  561SOL    HW2 1683   0.412   0.416   0.140  0.5696  0.1970 -2.8468
  562SOL     OW 1684   1.122   1.257   1.415  0.3623  1.1064  0.0353
  562SOL    HW1 1685   1.046   1.319   1.424  3.1456  2.6607  1.2156
  562SOL    HW2 1686   1.098   1.173   1.458 -1.5709  0.8801 -1.4896
  563SOL     OW 1687   1.517   2.904   2.603 -0.6577  0.1567 -0.3084
  563SOL    HW1 1688   1.455   2.919   2.686  0.8728 -0.3526  2.6041
  563SOL    HW2 1689   1.571   2.816   2.613  0.1617 -1.0294 -2.5412
  564SOL     OW 1690   0.220   2.100   0.947  0.7655 -0.1496 -0.4914
  564SOL    HW1 1691   0.215   2.202   0.922  0.7889  2.8268 -0.1836
  564SOL    HW2 1692   0.313   2.066   0.930 -2.4911  0.6533  0.3704
  565SOL     OW 1693   0.645   2.571   2.379  0.0093 -0.6114  0.4551
  565SOL    HW1 1694   0.706   2.578   2.302 -2.9483 -0.1304 -0.4466
  565SOL    HW2 1695   0.636   2.482   2.427 -1.5586  1.1955 -0.8392
  566SOL     OW 1696   1.294   2.477   2.264  0.0439 -0.4268 -0.1675
  566SOL    HW1 1697   1.226   2.453   2.333 -0.1158 -1.6291 -2.7833
  566SOL    HW2 1698   1.252   2.508   2.179  0.5721 -0.2458  3.1813
  567SOL     OW 1699   2.226   2.347   1.141 -0.3710  0.8114 -0.1674
  567SOL    HW1 1700   2.133   2.378   1.119 -0.3981  0.0856  0.0117
  567SOL    HW2 1701   2.221   2.272   1.213  5.1202 -3.9058  3.2461
  568SOL     OW 1702   1.956   0.653   0.466  0.3834 -0.4341 -0.1732
  568SOL    HW1 1703   2.029   0.725   0.439  1.3445 -0.2999 -1.5401
  568SOL    HW2 1704   1.944   0.643   0.565  0.7686 -1.4743 -2.2901
  569SOL     OW 1705   2.810   1.618   2.603  0.0800 -0.4796  0.0662
  569SOL    HW1 1706   2.760   1.541   2.551 -1.5954 -1.3557  2.0265
  569SOL    HW2 1707   2.878   1.592   2.673 -0.0318  0.3522 -1.0795
  570SOL     OW 1708   0.052   0.224   0.897 -0.1447  0.3389 -0.4332
  570SOL    HW1 1709   0.143   0.263   0.931  3.3289  1.6630  1.5493
  570SOL    HW2 1710   3.096   0.304   0.876 -0.2337  0.8697 -0.1803
  571SOL     OW 1711   2.951   0.515   1.729 -0.0972  0.1170  0.0093
  571SOL    HW1 1712   2.915   0.535   1.825 -1.0942  1.2414  2.5458
  571SOL    HW2 1713   2.951   0.416   1.713  0.5450  0.3813  0.2681
  572SOL     OW 1714   2.699   2.318   0.748 -0.1191  0.0899 -0.0165
  572SOL    HW1 1715   2.695   2.379   0.830  0.3099 -1.4514 -1.8813
  572SOL    HW2 1716   2.792   2.280   0.744  2.1082 -0.8834  1.3501
  573SOL     OW 1717   0.884   0.743   0.030  0.0354  0.2132 -0.0406
  573SOL    HW1 1718   0.825   0.743   3.050  1.1867  2.0152  1.6505
  573SOL    HW2 1719   0.879   0.834   0.073  0.9884 -0.1683  1.2417
  574SOL     OW 1720   2.978   2.741   0.046  0.5275 -0.2558  0.1676
  574SOL    HW1 1721   2.916   2.711   3.072  2.9627 -1.9359 -1.5536
  574SOL    HW2 1722   2.938   2.744   0.137 -0.4043  1.5793  0.7814
  575SOL     OW 1723   1.099   2.252   1.231  0.2285  0.1946  0.1215
  575SOL    HW1 1724   1.045   2.327   1.191  0.2568 -1.7092  0.2053
  575SOL    HW2 1725   1.193   2.253   1.193  0.2000  0.6837  0.3474
  576SOL     OW 1726   0.692   2.665   1.025  0.0954 -0.2621  0.0527
  576SOL    HW1 1727   0.716   2.697   1.120  1.2778  4.0147  1.4317
  576SOL    HW2 1728   0.727   2.732   0.954  1.0221 -0.8837 -0.4190
  577SOL     OW 1729   2.243   1.684   1.174 -0.2591  0.2088  0.6010
  577SOL    HW1 1730   2.189   1.707   1.254  1.6348  0.6289 -3.1578
  577SOL    HW2 1731   2.189   1.707   1.085 -0.9877 -0.4722 -4.7650
  578SOL     OW 1732   1.494   0.340   0.498 -0.1409 -0.6224  0.4208
  578SOL    HW1 1733   1.507   0.365   0.400 -1.6145 -1.3646  0.1266
  578SOL    HW2 1734   1.412   0.277   0.502  1.4422 -1.6330 -0.5574
  579SOL     OW 1735   2.543   1.423   2.817 -0.0574  0.2214 -0.2490
  579SOL    HW1 1736   2.515   1.508   2.769 -1.7178 -0.3021 -3.1971
  579SOL    HW2 1737   2.504   1.343   2.763 -0.7967 -2.8299 -3.3193
  580SOL     OW 1738   1.867   0.692   1.687  0.1257 -0.1805  0.0949
  580SOL    HW1 1739   1.839   0.772   1.741  3.1117  0.0374  1.3988
  580SOL    HW2 1740   1.831   0.608   1.733 -1.1361 -2.3405 -0.2571
  581SOL     OW 1741   0.715   1.121   0.967 -0.2988  0.4063 -0.9270
  581SOL    HW1 1742   0.695   1.193   1.037  0.4081  0.9800 -0.5626
  581SOL    HW2 1743   0.810   1.139   0.930  1.2944  0.7358 -1.0813
  582SOL     OW 1744   2.599   0.111   2.244  0.5606  0.1187  0.0241
  582SOL    HW1 1745   2.517   0.088   2.191 -0.3335  1.5316 -0.9412
  582SOL    HW2 1746   2.652   0.183   2.197 -1.6875  3.1921  0.6462
  583SOL     OW 1747   2.719   0.739   2.172  0.0864 -0.5161  0.2194
  583SOL    HW1 1748   2.718   0.649   2.226  0.6096 -0.1457  3.4877
  583SOL    HW2 1749   2.698   0.816   2.235 -0.3052  2.3320  0.8505
  584SOL     OW 1750   1.275   1.886   2.723 -0.1983 -0.4602  0.6771
  584SOL    HW1 1751   1.345   1.902   2.795 -2.5796 -0.7735  1.4330
  584SOL    HW2 1752   1.269   1.964   2.660  0.1158  0.5791 -2.1687
  585SOL     OW 1753   0.244   3.086   0.153  0.1126  0.0577 -0.8162
  585SOL    HW1 1754   0.155   0.014   0.108  0.0954 -0.7395 -1.1370
  585SOL    HW2 1755   0.261   0.029   0.245 -1.6528 -0.5325 -1.3354
  586SOL     OW 1756   1.773   2.180   2.575  0.3923  0.4589 -0.2385
  586SOL    HW1 1757   1.768   2.244   2.655  0.0916 -0.3735 -2.8833
  586SOL    HW2 1758   1.735   2.089   2.601  0.8836  2.0063  4.0771
  587SOL     OW 1759   2.371   2.394   0.551 -0.0867 -0.3395 -0.3650
  587SOL    HW1 1760   2.318   2.429   0.634  0.2167 -1.0434  2.7950
  587SOL    HW2 1761   2.471   2.407   0.571  2.9138  0.0891  1.3615
  588SOL     OW 1762   2.576   0.268   1.113  0.0968 -0.3563 -0.0815
  588SOL    HW1 1763   2.545   0.211   1.032 -0.2316 -1.9145 -1.8174
  588SOL    HW2 1764   2.539   0.363   1.104 -3.2741 -0.0140 -0.5726
  589SOL     OW 1765   0.626   0.695   0.665  0.7120 -0.0801  0.0214
  589SOL    HW1 1766   0.632   0.787   0.628  0.2643 -0.6140 -2.1998
  589SOL    HW2 1767   0.547   0.647   0.624  1.6118 -0.6813 -0.0692
  590SOL     OW 1768   2.126   1.890   0.566 -0.3862 -0.0101  0.5193
  590SOL    HW1 1769   2.225   1.886   0.586 -2.9953 -0.3088 -0.6039
  590SOL    HW2 1770   2.107   1.859   0.470 -2.4967  1.4294  2.0334
  591SOL     OW 1771   0.602   2.269   1.100  0.2036  0.4577  0.7110
  591SOL    HW1 1772   0.603   2.268   0.998  0.6860 -2.2342 -1.7690
  591SOL    HW2 1773   0.566   2.358   1.136  2.2290  1.5296  0.5104
  592SOL     OW 1774   0.968   0.835   1.262  0.5969  0.9008  0.3075
  592SOL    HW1 1775   0.901   0.906   1.291  0.1633  0.3186  2.0780
  592SOL    HW2 1776   0.915   0.752   1.239 -0.1518  0.4502  0.8567
  593SOL     OW 1777   0.843   1.371   1.114 -0.5034  0.5218  0.6371
  593SOL    HW1 1778   0.807   1.459   1.082  0.7861 -1.5570  2.1091
  593SOL    HW2 1779   0.852   1.359   1.213 -2.2118  2.9743 -0.2878
  594SOL     OW 1780   0.959   2.162   0.459 -0.0115  0.8743  0.6888
  594SOL    HW1 1781   0.967   2.247   0.405 -0.9397 -0.4525 -0.1530
  594SOL    HW2 1782   0.919   2.078   0.412 -0.6606 -2.6964  0.7029
  595SOL     OW 1783   1.680   0.329   1.286  0.1943 -0.5802  0.0444
  595SOL    HW1 1784   1.771   0.352   1.249 -0.6149 -1.4810  0.2777
  595SOL    HW2 1785   1.601   0.391   1.259 -1.6654 -1.0284 -0.0676
  596SOL     OW 1786   0.185   1.635   1.121  0.1114 -0.4149 -0.4041
  596SOL    HW1 1787   0.262   1.693   1.158  1.2752  2.5541 -0.1316
  596SOL    HW2 1788   0.096   1.660   1.169 -1.5441 -0.7746  1.6720
  597SOL     OW 1789   0.161   2.522   2.378 -0.8355  0.0778  0.3928
  597SOL    HW1 1790   0.219   2.438   2.360 -0.0774 -3.4067  0.9864
  597SOL    HW2 1791   0.203   2.588   2.445 -1.5854 -1.4411  0.2070
  598SOL     OW 1792   2.765   2.421   1.894 -0.3209 -0.5815 -0.3462
  598SOL    HW1 1793   2.859   2.466   1.899  2.9371 -1.4057 -2.2921
  598SOL    HW2 1794   2.773   2.338   1.831  1.5710  0.4373  1.8715
  599SOL     OW 1795   0.929   0.391   0.012  0.0374 -0.3121 -0.2896
  599SOL    HW1 1796   0.925   0.444   0.098 -0.5170  1.2386 -1.2885
  599SOL    HW2 1797   0.836   0.355   3.092 -1.1937 -1.5606  2.3076
  600SOL     OW 1798   0.508   2.518   3.009  0.6344  0.0052  0.0765
  600SOL    HW1 1799   0.534   2.605   3.061  0.8332  4.0277  2.9527
  600SOL    HW2 1800   0.505   2.533   2.908 -1.3975 -2.5161  0.1809
  601SOL     OW 1801   0.730   0.530   1.405 -0.1132  0.0852  0.2307
  601SOL    HW1 1802   0.797   0.550   1.480 -0.0915  2.0899 -3.4190
  601SOL    HW2 1803   0.744   0.562   1.310 -2.8005 -0.2210  1.4741
  602SOL     OW 1804   0.796   2.866   0.841 -0.0294 -0.5594  0.0983
  602SOL    HW1 1805   0.876   2.803   0.816 -2.2091  0.0307 -3.1030
  602SOL    HW2 1806   0.822   2.936   0.909 -0.7629  1.2236 -0.9521
  603SOL     OW 1807   0.581   0.442   2.465  0.3097  0.7557  0.5852
  603SOL    HW1 1808   0.637   0.469   2.383 -1.4947  0.3809  1.0835
  603SOL    HW2 1809   0.606   0.346   2.499  0.4024 -3.0007 -1.0791
  604SOL     OW 1810   0.680   2.694   1.574 -0.2360  0.7179 -0.3173
  604SOL    HW1 1811   0.627   2.778   1.611  0.9170  0.9767 -0.1483
  604SOL    HW2 1812   0.621   2.614   1.544 -0.3801 -0.0472  2.2099
  605SOL     OW 1813   1.807   0.907   1.834 -0.3418  0.1809 -0.4572
  605SOL    HW1 1814   1.754   0.988   1.805  0.7394  0.5139  2.6406
  605SOL    HW2 1815   1.761   0.884   1.926  0.1575  1.2219  0.6552
  606SOL     OW 1816   2.500   2.851   3.013  0.1498 -0.4168 -0.0799
  606SOL    HW1 1817   2.444   2.822   2.936  0.3839 -1.0007  4.4131
  606SOL    HW2 1818   2.499   2.952   3.015  0.5260 -2.7614 -1.5151
  607SOL     OW 1819   0.815   0.629   1.144  0.1947 -0.0350  0.0569
  607SOL    HW1 1820   0.777   0.542   1.102  0.3322 -2.0966 -2.1437
  607SOL    HW2 1821   0.772   0.708   1.095  2.0681 -1.8392 -2.4011
  608SOL     OW 1822   0.327   1.946   2.556 -0.2175  0.0162  0.0298
  608SOL    HW1 1823   0.313   2.044   2.583  2.6101 -1.5262  1.3979
  608SOL    HW2 1824   0.283   1.887   2.630 -0.8621 -1.4504  0.9599
  609SOL     OW 1825   1.354   1.110   0.406  0.0612 -0.1513 -0.1805
  609SOL    HW1 1826   1.334   1.147   0.501  0.4698  0.8093  0.6661
  609SOL    HW2 1827   1.286   1.144   0.340  0.8515  1.4742  0.6601
  610SOL     OW 1828   0.545   0.290   1.290  1.1462  0.8607  0.1574
  610SOL    HW1 1829   0.619   0.349   1.250  0.0191  2.7686 -0.4309
  610SOL    HW2 1830   0.513   0.223   1.219  1.6252  0.7360  1.1004
  611SOL     OW 1831   1.608   0.832   0.866  0.6496  0.0987 -0.1103
  611SOL    HW1 1832   1.539   0.846   0.792  0.7869 -0.2495 -0.0956
  611SOL    HW2 1833   1.675   0.758   0.836 -1.7680  1.7309  0.8107
  612SOL     OW 1834   1.889   1.047   0.229  0.1094 -0.1681 -0.3766
  612SOL    HW1 1835   1.844   0.975   0.287  0.1099 -0.9868  0.5626
  612SOL    HW2 1836   1.822   1.093   0.165 -0.2623  2.5202 -3.3974
  613SOL     OW 1837   2.007   0.420   0.313  0.5220 -0.8561 -0.2982
  613SOL    HW1 1838   1.962   0.333   0.330  0.4083  1.7907  1.3664
  613SOL    HW2 1839   1.968   0.494   0.373 -0.4428  0.9154  0.2185
  614SOL     OW 1840   2.608   0.050   2.551 -0.3462  0.2167  0.3983
  614SOL    HW1 1841   2.564   0.017   2.465  1.4820  2.1492 -1.0591
  614SOL    HW2 1842   2.568   0.136   2.584 -1.0027 -1.0073 -0.6725
  615SOL     OW 1843   0.836   2.003   0.871 -0.2332 -0.4140 -0.5427
  615SOL    HW1 1844   0.867   1.906   0.855 -0.4447  0.0529 -0.6133
  615SOL    HW2 1845   0.773   2.016   0.947  3.6118  0.5273 -0.6386
  616SOL     OW 1846   1.507   1.125   2.676 -0.8341 -0.1811  0.1974
  616SOL    HW1 1847   1.561   1.211   2.657 -2.7498  0.2468  2.0305
  616SOL    HW2 1848   1.471   1.123   2.771  0.0965  0.3159  0.2462
  617SOL     OW 1849   1.430   0.466   3.063 -0.2074  0.3784  0.1709
  617SOL    HW1 1850   1.372   0.546   3.090  0.8642  1.3792  2.2478
  617SOL    HW2 1851   1.525   0.491   3.081 -3.3933  0.4039 -1.7663
  618SOL     OW 1852   1.408   2.336   2.563 -0.1652  0.4115 -0.4697
  618SOL    HW1 1853   1.496   2.333   2.511  2.8296 -1.8316 -1.0354
  618SOL    HW2 1854   1.435   2.350   2.660  0.4045  1.1543  0.1772
  619SOL     OW 1855   2.424   1.617   0.797 -0.3918 -0.3551 -0.5191
  619SOL    HW1 1856   2.509   1.616   0.854 -1.0721 -0.9156  1.7049
  619SOL    HW2 1857   2.443   1.589   0.704 -0.5612 -1.5134  2.7030
  620SOL     OW 1858   2.178   2.760   1.983 -0.0137  0.3420 -0.0199
  620SOL    HW1 1859   2.145   2.851   1.946 -2.6360  2.7945  1.4017
  620SOL    HW2 1860   2.101   2.708   2.024  0.4856 -2.0201  0.0328
  621SOL     OW 1861   3.053   1.302   0.901  0.1620  0.0871 -0.0422
  621SOL    HW1 1862   2.992   1.227   0.870  0.8435  0.9884  0.4357
  621SOL    HW2 1863   3.020   1.344   0.986  2.1608 -2.0567 -0.2625
  622SOL     OW 1864   1.605   1.353   2.557  0.7053  0.3254 -0.2250
  622SOL    HW1 1865   1.555   1.386   2.479 -0.8710 -0.0925  0.6278
  622SOL    HW2 1866   1.646   1.431   2.609 -0.5956 -1.3021  0.9464
  623SOL     OW 1867   0.072   2.677   2.148 -0.1384 -0.1638 -0.3769
  623SOL    HW1 1868   0.089   2.632   2.236  0.9261 -0.5104 -1.4596
  623SOL    HW2 1869   0.009   2.760   2.156  1.6486  1.7040 -0.3335
  624SOL     OW 1870   0.597   2.846   2.882  0.1664 -0.1591  0.3903
  624SOL    HW1 1871   0.660   2.787   2.832  0.6257  0.7217 -1.3575
  624SOL    HW2 1872   0.605   2.835   2.984  1.4366 -0.8253 -3.5908
  625SOL     OW 1873   0.399   2.349   2.072  0.3646 -0.6158  0.0069
  625SOL    HW1 1874   0.439   2.410   2.004 -2.7024 -2.2234 -0.7018
  625SOL    HW2 1875   0.301   2.326   2.046 -0.6934 -0.4520 -1.2198
  626SOL     OW 1876   0.057   0.093   3.091  0.5511  0.0200  0.4893
  626SOL    HW1 1877   0.094   0.190   3.081  1.5048 -1.7060  0.4997
  626SOL    HW2 1878   0.051   0.048   3.002 -2.2475 -1.9907  0.0748
  627SOL     OW 1879   1.966   1.504   3.093 -0.1607 -0.4846  0.0304
  627SOL    HW1 1880   2.063   1.517   3.057  1.6805 -0.8437 -1.2179
  627SOL    HW2 1881   1.913   1.476   3.015  1.1630  0.4274  1.7120
  628SOL     OW 1882   1.331   1.900   0.215 -0.1162 -0.5094  0.1070
  628SOL    HW1 1883   1.373   1.814   0.244 -0.7748  2.8882  0.6667
  628SOL    HW2 1884   1.242   1.884   0.167 -1.2510 -0.0858  2.9462
  629SOL     OW 1885   3.013   0.229   1.752 -0.2096  0.0367 -0.9774
  629SOL    HW1 1886   0.007   0.208   1.746 -1.9172  4.1073 -0.3673
  629SOL    HW2 1887   2.985   0.241   1.850 -0.3482  0.8850  1.7832
  630SOL     OW 1888   2.102   0.916   1.791  0.7499  0.5937 -0.2439
  630SOL    HW1 1889   2.000   0.913   1.804 -1.4448 -1.7558 -1.0911
  630SOL    HW2 1890   2.143   0.872   1.875 -1.7776 -1.2732 -1.7374
  631SOL     OW 1891   1.765   0.088   0.732 -0.0438  0.0649  0.6542
  631SOL    HW1 1892   1.739   0.168   0.790  1.5641  1.8098 -1.3599
  631SOL    HW2 1893   1.745   3.091   0.760  0.5120 -0.4788  0.3684
  632SOL     OW 1894   2.840   1.032   2.035  0.4103 -0.2709 -0.2980
  632SOL    HW1 1895   2.792   1.081   1.960 -0.1472 -1.0882 -0.0846
  632SOL    HW2 1896   2.780   0.968   2.085  1.3180  0.7430 -0.7698
  633SOL     OW 1897   0.842   0.826   2.568  0.1433 -0.8544 -0.3522
  633SOL    HW1 1898   0.923   0.766   2.553 -1.1429  1.0530 -1.0142
  633SOL    HW2 1899   0.848   0.882   2.652 -2.0812  2.2563 -0.7726
  634SOL     OW 1900   0.279   3.022   2.859 -0.3018  0.6418 -0.3059
  634SOL    HW1 1901   0.334   3.071   2.930 -0.3003  0.2098 -0.6981
  634SOL    HW2 1902   0.336   2.987   2.782 -0.2216  1.2476  1.2996
  635SOL     OW 1903   0.094   1.409   1.242  0.0457 -0.1161 -0.3957
  635SOL    HW1 1904   0.118   1.494   1.196  1.4473  0.6871  1.5291
  635SOL    HW2 1905   0.136   1.408   1.335  0.8887 -1.3281 -0.6198
  636SOL     OW 1906   0.223   1.746   0.033 -0.0817 -0.4406  0.5033
  636SOL    HW1 1907   0.212   1.686   0.115  2.1720  3.5342 -1.6298
  636SOL    HW2 1908   0.304   1.807   0.046 -0.1926 -1.6052  1.1772
  637SOL     OW 1909   0.059   2.523   0.316 -0.8024 -0.0113  0.1235
  637SOL    HW1 1910   0.054   2.508   0.213 -1.1772  1.3781 -4.9070
  637SOL    HW2 1911   3.093   2.463   0.365 -1.6324  2.0380  0.8977
  638SOL     OW 1912   2.794   2.649   0.665  0.5701 -0.5299  0.5788
  638SOL    HW1 1913   2.871   2.659   0.601 -1.7673 -0.9354  0.2338
  638SOL    HW2 1914   2.720   2.590   0.630  0.4424 -0.3809 -0.7993
  639SOL     OW 1915   1.323   0.735   3.089 -0.5579  0.2445 -0.1185
  639SOL    HW1 1916   1.227   0.703   3.090  0.7241  0.1540 -1.0946
  639SOL    HW2 1917   1.338   0.796   0.067  0.3255  0.0410 -0.3716
  640SOL     OW 1918   1.766   2.272   1.838 -0.2927 -0.0394  0.6728
  640SOL    HW1 1919   1.689   2.243   1.773  1.6613 -1.2195 -1.9852
  640SOL    HW2 1920   1.760   2.250   1.935  0.5447  0.3247 -1.3659
  641SOL     OW 1921   2.925   0.010   0.856 -0.1284 -0.3385 -0.4085
  641SOL    HW1 1922   2.968   0.095   0.821  0.9632  1.1383  1.6038
  641SOL    HW2 1923   2.982   3.086   0.933  1.8288 -0.6807 -0.7404
  642SOL     OW 1924   1.094   0.895   1.719  0.3088  0.0653  0.1590
  642SOL    HW1 1925   1.120   0.975   1.778 -3.9591 -1.8382 -1.1067
  642SOL    HW2 1926   1.087   0.925   1.618 -0.3240  0.4792  1.4119
  643SOL     OW 1927   0.858   1.872   2.890  0.2694  0.2195  0.5669
  643SOL    HW1 1928   0.792   1.794   2.887  0.0578  0.0141 -0.5832
  643SOL    HW2 1929   0.805   1.952   2.915 -1.7429 -2.5956 -3.7650
  644SOL     OW 1930   1.319   2.680   2.631 -0.2316  0.5300 -0.1752
  644SOL    HW1 1931   1.412   2.654   2.656 -0.8368 -1.7795  0.8278
  644SOL    HW2 1932   1.280   2.753   2.690  0.6885  0.5842 -0.7502
  645SOL     OW 1933   1.723   1.115   1.669  0.4748 -0.4678  0.2065
  645SOL    HW1 1934   1.638   1.166   1.657  0.3848  0.9356  2.2477
  645SOL    HW2 1935   1.777   1.117   1.585 -0.8152 -1.7660 -2.8859
  646SOL     OW 1936   1.019   2.532   2.855  0.1208  0.3710  0.6087
  646SOL    HW1 1937   0.970   2.574   2.775 -0.4895 -0.9193  1.6307
  646SOL    HW2 1938   1.095   2.590   2.885 -3.8144 -1.5945 -3.1436
  647SOL     OW 1939   0.990   2.944   0.502  0.4614  0.3571 -0.0246
  647SOL    HW1 1940   1.080   2.948   0.540  1.1053  0.2072 -0.4779
  647SOL    HW2 1941   0.932   3.016   0.539 -0.4089 -3.0089  3.0347
  648SOL     OW 1942   2.725   2.627   1.481 -0.5883  0.4220  0.4257
  648SOL    HW1 1943   2.697   2.559   1.411 -1.3336 -0.5507 -0.9919
  648SOL    HW2 1944   2.651   2.673   1.525  1.4293  1.8446  1.8895
  649SOL     OW 1945   0.509   2.628   2.689 -0.1442  0.0184 -0.0542
  649SOL    HW1 1946   0.524   2.530   2.697  3.3050  2.6201 -2.7006
  649SOL    HW2 1947   0.423   2.654   2.636 -1.7757  1.3825  0.2091
  650SOL     OW 1948   2.694   1.823   2.248 -0.0979  0.0990 -0.1281
  650SOL    HW1 1949   2.707   1.844   2.346  2.4803 -1.1753 -2.5329
  650SOL    HW2 1950   2.651   1.905   2.203 -1.6570  0.7860  1.2939
  651SOL     OW 1951   2.710   2.427   2.160  0.3451 -0.1619 -0.0905
  651SOL    HW1 1952   2.724   2.422   2.061  0.6855 -0.0002  1.9431
  651SOL    HW2 1953   2.765   2.349   2.194 -0.5778  1.3426 -2.3710
  652SOL     OW 1954   2.620   2.060   0.362 -0.2009  0.0905 -0.3722
  652SOL    HW1 1955   2.642   2.027   0.459 -1.5887  0.2646  0.5668
  652SOL    HW2 1956   2.528   2.108   0.367 -0.9590 -0.7861  1.0251
  653SOL     OW 1957   2.923   0.806   1.039 -0.4458  0.2081 -0.0641
  653SOL    HW1 1958   2.914   0.769   0.942 -2.7646 -0.5762 -0.7001
  653SOL    HW2 1959   2.841   0.780   1.094  0.4590  0.2545 -1.4559
  654SOL     OW 1960   0.860   0.305   2.801  0.1925 -0.4507  0.1486
  654SOL    HW1 1961   0.960   0.295   2.815  0.2899 -1.0944 -0.9990
  654SOL    HW2 1962   0.813   0.264   2.881  1.1359 -1.0493  1.2977
  655SOL     OW 1963   1.011   0.283   1.193 -0.1269  0.2445  0.3914
  655SOL    HW1 1964   1.028   0.261   1.289 -0.3341 -0.1221  0.2593
  655SOL    HW2 1965   1.060   0.222   1.128  0.7333  0.8756 -0.9864
  656SOL     OW 1966   0.557   2.559   1.971  0.0432  0.0043  0.1830
  656SOL    HW1 1967   0.567   2.492   1.894  2.5469 -0.9605  1.6011
  656SOL    HW2 1968   0.629   2.546   2.046 -0.0948  0.2182  3.1907
  657SOL     OW 1969   2.503   0.756   0.368  0.2471 -0.2073  0.2456
  657SOL    HW1 1970   2.479   0.662   0.337 -0.3045  0.2811 -1.7274
  657SOL    HW2 1971   2.602   0.783   0.355 -0.6320  0.6557  2.9719
  658SOL     OW 1972   1.965   1.779   0.755 -0.0533  0.2717  0.1762
  658SOL    HW1 1973   1.949   1.853   0.824  0.8534 -1.6767 -3.2716
  658SOL    HW2 1974   1.994   1.830   0.671 -0.3485  1.5344  2.5423
  659SOL     OW 1975   2.684   1.881   2.970 -0.3157 -0.0624 -0.0125
  659SOL    HW1 1976   2.707   1.953   2.899  2.1975  1.6696 -0.1592
  659SOL    HW2 1977   2.654   1.922   3.059 -2.0998  0.0301 -2.9087
  660SOL     OW 1978   1.217   0.562   0.527 -0.0515 -0.4326 -0.3726
  660SOL    HW1 1979   1.286   0.593   0.590 -2.7225 -2.3448 -2.6847
  660SOL    HW2 1980   1.262   0.535   0.440  2.0085  0.4148 -2.4442
  661SOL     OW 1981   1.943   0.084   0.065 -0.6049  0.1201 -0.4296
  661SOL    HW1 1982   1.918   0.117   0.157  1.2289 -2.5921  0.7405
  661SOL    HW2 1983   2.028   0.026   0.060 -0.1120 -0.1563  0.2883
  662SOL     OW 1984   0.782   0.022   0.635  0.7780 -0.0114 -0.4813
  662SOL    HW1 1985   0.719   0.097   0.615  0.8459 -0.2823  1.2011
  662SOL    HW2 1986   0.773   3.091   0.735  0.9377 -0.2077 -0.7711
  663SOL     OW 1987   1.535   0.263   2.474  0.0587  0.0130 -0.1362
  663SOL    HW1 1988   1.544   0.306   2.384 -1.0417 -0.7261  2.3850
  663SOL    HW2 1989   1.561   0.330   2.539 -0.4472 -1.1976 -0.3644
  664SOL     OW 1990   0.775   2.771   1.267  0.0754  0.2512 -0.4329
  664SOL    HW1 1991   0.731   2.703   1.335 -0.1235 -0.8308 -0.3168
  664SOL    HW2 1992   0.758   2.872   1.297  3.2770  1.3358 -0.0290
  665SOL     OW 1993   0.896   2.342   1.773  0.6482 -0.0502  0.2385
  665SOL    HW1 1994   0.917   2.414   1.702 -0.5076  1.9418 -0.9437
  665SOL    HW2 1995   0.966   2.337   1.851 -1.5889 -0.0396  0.5167
  666SOL     OW 1996   0.165   0.026   2.556 -0.5704  0.5652 -0.2169
  666SOL    HW1 1997   0.101   0.016   2.635 -2.6395  1.2426  0.6226
  666SOL    HW2 1998   0.117   0.027   2.465 -1.2077 -1.2871  1.9087
  667SOL     OW 1999   1.700   1.751   1.451 -0.0152  0.6107 -0.4727
  667SOL    HW1 2000   1.746   1.738   1.358  0.5208 -0.2797 -2.9734
  667SOL    HW2 2001   1.757   1.707   1.516 -2.3182 -0.1220 -2.2402
  668SOL     OW 2002   1.627   0.237   1.764  0.2076  0.3442 -0.0649
  668SOL    HW1 2003   1.664   0.142   1.756 -1.0061 -0.2074  2.0643
  668SOL    HW2 2004   1.536   0.239   1.716  3.2517 -2.1696  3.4478
  669SOL     OW 2005   2.763   2.504   0.922  0.5005  0.1268  0.4319
  669SOL    HW1 2006   2.835   2.531   0.854  0.7137 -2.7673 -2.6022
  669SOL    HW2 2007   2.813   2.471   1.000  4.0464 -0.0810  0.6171
  670SOL     OW 2008   1.409   2.368   2.831  0.3412  0.2415 -0.3115
  670SOL    HW1 2009   1.319   2.315   2.831 -0.3730  0.7529  0.3525
  670SOL    HW2 2010   1.410   2.429   2.912  0.2097 -0.8452 -0.8898
  671SOL     OW 2011   0.867   1.206   0.415  0.1787  0.8324 -0.6951
  671SOL    HW1 2012   0.863   1.247   0.512 -1.7940  0.7487 -2.9938
  671SOL    HW2 2013   0.911   1.112   0.425 -0.9517  0.2008  1.3522
  672SOL     OW 2014   2.871   1.237   2.622  0.0509  0.2398 -0.1504
  672SOL    HW1 2015   2.846   1.237   2.721  0.3134 -1.0381 -2.8745
  672SOL    HW2 2016   2.826   1.157   2.579  0.8821  0.9210  0.1759
  673SOL     OW 2017   2.632   1.939   1.684 -0.3082 -0.5984 -0.1991
  673SOL    HW1 2018   2.700   1.913   1.756  0.8863  1.8580 -0.8761
  673SOL    HW2 2019   2.536   1.905   1.702 -0.4538  0.5732 -0.6109
  674SOL     OW 2020   0.368   2.344   2.361  0.0283  0.4773  0.0963
  674SOL    HW1 2021   0.460   2.345   2.402 -2.7186 -0.4734 -0.5190
  674SOL    HW2 2022   0.384   2.346   2.257  1.2954 -2.3490 -2.3587
  675SOL     OW 2023   0.950   0.581   1.611 -0.4325  0.0240 -0.1805
  675SOL    HW1 2024   0.975   0.675   1.639 -0.2043  1.4353 -0.1801
  675SOL    HW2 2025   1.029   0.523   1.574 -1.6320 -1.4314  0.2998
  676SOL     OW 2026   2.105   0.098   1.217  0.0159 -0.0692  0.0222
  676SOL    HW1 2027   2.052   0.053   1.144  2.9297  1.5304 -0.5247
  676SOL    HW2 2028   2.130   0.192   1.191  2.0988 -4.6737  2.3252
  677SOL     OW 2029   2.216   1.524   3.025 -0.5586 -0.2654 -0.4469
  677SOL    HW1 2030   2.277   1.457   3.068  1.8534 -0.1027 -0.6808
  677SOL    HW2 2031   2.220   1.516   2.922 -3.5897  0.1343 -3.7470
  678SOL     OW 2032   2.738   1.306   1.071 -0.3701 -0.3836 -0.0285
  678SOL    HW1 2033   2.738   1.246   1.154 -0.5751 -0.3226 -1.3154
  678SOL    HW2 2034   2.816   1.373   1.085  0.4552 -0.9082  0.7205
  679SOL     OW 2035   2.641   0.379   0.101 -0.2368  0.0328  0.1238
  679SOL    HW1 2036   2.652   0.338   0.191  0.9031  0.8168 -2.8667
  679SOL    HW2 2037   2.687   0.470   0.097 -0.4646  0.8583  0.4298
  680SOL     OW 2038   0.282   1.925   1.772 -0.7332 -0.4057 -0.3028
  680SOL    HW1 2039   0.184   1.935   1.778  1.2205  0.5793 -0.4783
  680SOL    HW2 2040   0.316   1.859   1.840 -0.1166  0.1465 -3.5191
  681SOL     OW 2041   1.954   2.150   1.651  0.1212  0.2222  0.3117
  681SOL    HW1 2042   2.030   2.116   1.711 -2.1204 -0.9656  1.5322
  681SOL    HW2 2043   1.874   2.172   1.715  1.2693 -1.6489 -0.4424
  682SOL     OW 2044   0.411   1.957   0.054  0.1352 -0.7202  0.1156
  682SOL    HW1 2045   0.350   2.015   3.096 -2.4768 -1.0113 -1.9584
  682SOL    HW2 2046   0.424   1.992   0.150  2.1941  2.5819 -1.6180
  683SOL     OW 2047   0.180   1.926   1.361 -0.1823 -0.2425 -0.1404
  683SOL    HW1 2048   0.233   1.980   1.425 -0.4412 -1.8299 -0.9120
  683SOL    HW2 2049   0.242   1.873   1.299 -0.2290 -2.1316  2.4692
  684SOL     OW 2050   2.824   1.253   2.217  0.4060  0.2246  0.0261
  684SOL    HW1 2051   2.806   1.343   2.173  3.9092 -0.8356 -0.6502
  684SOL    HW2 2052   2.825   1.174   2.150  1.6438 -2.0875  1.8713
  685SOL     OW 2053   1.391   0.789   0.679 -0.2180  0.2095 -0.7446
  685SOL    HW1 2054   1.397   0.697   0.724  0.8876  1.0912  2.0515
  685SOL    HW2 2055   1.445   0.796   0.591  2.7170  2.2211  0.7775
  686SOL     OW 2056   0.663   0.288   0.829  0.2977  0.0533 -0.3419
  686SOL    HW1 2057   0.571   0.326   0.809  0.0141  0.7266 -0.1365
  686SOL    HW2 2058   0.724   0.324   0.749  1.0590  0.7762 -1.4416
  687SOL     OW 2059   1.048   2.192   2.602  0.6886  0.5640 -0.1503
  687SOL    HW1 2060   1.091   2.227   2.689 -0.1163  0.6005 -0.2021
  687SOL    HW2 2061   1.022   2.269   2.544  0.1087 -0.9022  1.8113
  688SOL     OW 2062   2.009   0.800   1.432 -0.2986  0.3183  0.1110
  688SOL    HW1 2063   2.013   0.698   1.416  1.9284 -0.4127  0.0506
  688SOL    HW2 2064   1.971   0.808   1.525  1.5872 -1.6021 -1.4575
  689SOL     OW 2065   1.754   0.293   0.939 -0.0463  0.2285 -0.2624
  689SOL    HW1 2066   1.816   0.334   1.008  2.2198  1.4749 -1.6407
  689SOL    HW2 2067   1.732   0.353   0.855 -3.5940 -1.1050 -1.0935
  690SOL     OW 2068   2.953   1.458   1.100  0.1667 -0.1042  0.4766
  690SOL    HW1 2069   3.040   1.439   1.153  0.6444 -1.6296 -0.1936
  690SOL    HW2 2070   2.960   1.548   1.053 -0.4895 -1.3531  1.0342
  691SOL     OW 2071   0.454   2.106   1.280  0.4565  0.3263  0.2145
  691SOL    HW1 2072   0.479   2.203   1.261  0.2152 -0.5097 -1.5378
  691SOL    HW2 2073   0.544   2.057   1.302  0.7149 -2.2555 -2.1827
  692SOL     OW 2074   1.533   3.027   1.530  0.1851 -0.2824  0.2389
  692SOL    HW1 2075   1.579   3.040   1.623  0.4537 -2.0849 -0.2877
  692SOL    HW2 2076   1.578   3.092   1.465 -2.6687 -1.8978  2.3205
  693SOL     OW 2077   0.529   1.727   2.201  0.1844  0.3972 -0.2413
  693SOL    HW1 2078   0.627   1.743   2.185 -2.7298  2.6681 -0.7048
  693SOL    HW2 2079   0.484   1.814   2.221  0.7753  0.6595 -1.2850
  694SOL     OW 2080   2.100   1.323   1.022  0.3150  0.1271  0.3406
  694SOL    HW1 2081   2.103   1.360   0.925  3.2285  1.6280 -1.5206
  694SOL    HW2 2082   2.024   1.369   1.083  0.4477 -0.8248  0.7233
  695SOL     OW 2083   1.237   0.920   1.133  0.1867 -0.2695  0.1767
  695SOL    HW1 2084   1.284   0.840   1.092 -0.1275  0.9781  1.7317
  695SOL    HW2 2085   1.165   0.892   1.200  2.9793 -0.9489  0.6955
  696SOL     OW 2086   0.331   0.011   0.427 -0.1795  0.0153  0.2620
  696SOL    HW1 2087   0.297   3.017   0.433  1.5970  1.3166 -3.9699
  696SOL    HW2 2088   0.422   0.016   0.383 -0.7479  1.0618  0.1128
  697SOL     OW 2089   2.156   0.653   0.910 -0.2188 -0.3461  0.3847
  697SOL    HW1 2090   2.214   0.738   0.921  0.6660 -1.0161  1.1446
  697SOL    HW2 2091   2.086   0.653   0.986 -0.9858 -1.4376  1.2017
  698SOL     OW 2092   1.374   1.275   1.855  0.2023 -0.4140 -0.1022
  698SOL    HW1 2093   1.334   1.368   1.882 -1.7765  1.3276  1.0223
  698SOL    HW2 2094   1.450   1.246   1.915 -0.0828  2.7588 -0.4894
  699SOL     OW 2095   2.891   0.630   1.966 -0.1552  0.0341 -0.5076
  699SOL    HW1 2096   2.825   0.651   2.042 -1.8696 -1.7282 -0.7441
  699SOL    HW2 2097   2.978   0.596   2.000 -2.9778  0.0629  1.1785
  700SOL     OW 2098   1.772   2.639   0.529 -0.1938 -0.1862 -0.3738
  700SOL    HW1 2099   1.807   2.719   0.477 -1.1988 -2.2778 -0.6335
  700SOL    HW2 2100   1.831   2.558   0.504 -1.1690  2.6175  0.0405
  701SOL     OW 2101   2.727   1.857   2.514 -0.3094  0.1387  0.5065
  701SOL    HW1 2102   2.764   1.772   2.558 -1.1033 -1.5542  0.3556
  701SOL    HW2 2103   2.663   1.905   2.577  0.0067  1.4037  0.3012
  702SOL     OW 2104   0.649   3.041   0.399  0.2084  0.2184 -0.0266
  702SOL    HW1 2105   0.713   3.079   0.470 -1.1899 -0.9268  2.3660
  702SOL    HW2 2106   0.633   2.942   0.407 -3.2427 -0.0085 -2.1427
  703SOL     OW 2107   1.813   2.755   2.438  0.1604 -0.0684  0.6662
  703SOL    HW1 2108   1.861   2.787   2.525  0.9705 -0.3885  0.5760
  703SOL    HW2 2109   1.753   2.821   2.387 -1.1158  2.6148  0.5703
  704SOL     OW 2110   2.605   2.032   0.077  0.0949 -0.1619 -0.4424
  704SOL    HW1 2111   2.604   2.130   0.049 -1.2377  0.5105  1.8977
  704SOL    HW2 2112   2.613   2.016   0.180 -0.2015  0.0234  0.8537
  705SOL     OW 2113   2.872   2.257   2.278 -0.4123  0.7124  0.1100
  705SOL    HW1 2114   2.880   2.172   2.328  0.3439 -0.2432 -0.3321
  705SOL    HW2 2115   2.922   2.328   2.323 -0.4635 -1.9225 -1.1764
  706SOL     OW 2116   2.776   3.071   0.537 -0.2563 -0.2300  0.5652
  706SOL    HW1 2117   2.714   3.021   0.479  0.5063  2.4624  1.0443
  706SOL    HW2 2118   2.847   3.011   0.580 -0.0453 -1.7984 -3.4962
  707SOL     OW 2119   1.305   0.232   3.027  0.1305  0.3777 -0.0200
  707SOL    HW1 2120   1.258   0.227   2.934  0.4862 -0.3362  3.5710
  707SOL    HW2 2121   1.368   0.310   3.048  0.4941 -1.9916  2.3001
  708SOL     OW 2122   0.462   2.128   1.734  0.5215 -0.0577  0.4566
  708SOL    HW1 2123   0.395   2.056   1.762  0.3976  1.6602 -0.3628
  708SOL    HW2 2124   0.552   2.105   1.766 -2.3392  0.6177  0.5520
  709SOL     OW 2125   1.458   3.031   1.928 -0.2332 -0.0147 -0.0497
  709SOL    HW1 2126   1.442   0.010   1.988 -2.9627  0.2572  2.8192
  709SOL    HW2 2127   1.440   2.950   1.989  1.5371  2.6815 -1.7168
  710SOL     OW 2128   1.585   2.640   2.704  0.2117 -0.1930  0.5126
  710SOL    HW1 2129   1.662   2.600   2.653 -1.2268 -2.0712 -1.9847
  710SOL    HW2 2130   1.597   2.627   2.799 -1.2872  1.6142 -0.9838
  711SOL     OW 2131   0.769   2.695   2.698 -0.5944 -0.3038  0.1377
  711SOL    HW1 2132   0.791   2.745   2.613 -1.0530 -1.1132  0.4714
  711SOL    HW2 2133   0.675   2.664   2.692  1.0352  1.6446 -1.6552
  712SOL     OW 2134   1.060   2.155   0.009 -0.6153  0.0130 -0.3585
  712SOL    HW1 2135   1.060   2.061   3.070  0.8091 -0.6001 -1.1653
  712SOL    HW2 2136   0.963   2.168   0.037 -1.5696 -0.2172  0.5545
  713SOL     OW 2137   1.984   1.228   1.501 -0.2989  0.3070  0.1802
  713SOL    HW1 2138   2.007   1.154   1.432  0.7071  0.3139 -0.2902
  713SOL    HW2 2139   1.917   1.293   1.468 -0.5458 -1.8285  0.6228
  714SOL     OW 2140   0.926   1.082   2.115  0.0570  0.7450  0.2293
  714SOL    HW1 2141   1.002   1.014   2.132 -0.0090  0.8044 -1.4572
  714SOL    HW2 2142   0.836   1.037   2.101  2.3071  2.0527 -1.4132
  715SOL     OW 2143   2.723   0.288   0.379  0.1946  0.3623  0.4749
  715SOL    HW1 2144   2.760   0.273   0.470 -0.7127  0.1680 -4.8602
  715SOL    HW2 2145   2.652   0.221   0.365  0.8979  1.3530  1.3522
  716SOL     OW 2146   0.416   2.552   1.085 -0.6453 -0.2344 -0.1895
  716SOL    HW1 2147   0.512   2.573   1.060 -2.3270  1.0140 -0.3595
  716SOL    HW2 2148   0.361   2.640   1.089  2.0011  0.3658 -1.1083
  717SOL     OW 2149   2.666   0.729   0.634 -0.3311  0.4654 -0.0372
  717SOL    HW1 2150   2.732   0.657   0.603  1.2934  0.7798 -0.7363
  717SOL    HW2 2151   2.587   0.746   0.569  2.0901 -0.1563 -2.5412
  718SOL     OW 2152   1.770   1.421   1.453 -0.0068  0.5246  0.4052
  718SOL    HW1 2153   1.819   1.488   1.504  0.8829 -1.2169 -0.3700
  718SOL    HW2 2154   1.669   1.427   1.456  0.3095  2.1648 -0.5972
  719SOL     OW 2155   2.755   2.751   2.965 -0.3781  0.2708  1.1178
  719SOL    HW1 2156   2.677   2.816   2.970  3.0973  0.0615  0.2523
  719SOL    HW2 2157   2.731   2.669   2.911 -2.1451  2.4661  1.5721
  720SOL     OW 2158   1.186   0.390   0.908 -0.3274  0.2119  0.5955
  720SOL    HW1 2159   1.173   0.452   0.989 -0.6780 -1.2163  1.4564
  720SOL    HW2 2160   1.105   0.355   0.859 -0.2082  3.6009 -0.2779
  721SOL     OW 2161   1.903   0.400   1.145  0.0239 -0.2684 -0.4424
  721SOL    HW1 2162   1.995   0.365   1.180  4.0950 -0.8194  0.6787
  721SOL    HW2 2163   1.909   0.497   1.116 -1.5548  0.4585 -0.4712
  722SOL     OW 2164   0.724   2.132   1.814  0.1014  0.2131 -0.1741
  722SOL    HW1 2165   0.769   2.120   1.905  1.2468  1.3993  1.9330
  722SOL    HW2 2166   0.764   2.215   1.769 -0.5535 -0.6618  0.5608
  723SOL     OW 2167   1.338   0.004   1.363 -0.0310 -0.0649  0.2506
  723SOL    HW1 2168   1.358   0.008   1.262 -1.8726 -1.5054 -1.2776
  723SOL    HW2 2169   1.418   3.081   1.420  0.5123 -2.2193  3.1214
  724SOL     OW 2170   1.621   2.010   1.466 -0.3829  0.0843  0.3528
  724SOL    HW1 2171   1.558   2.021   1.388 -0.4314  2.1837  2.8098
  724SOL    HW2 2172   1.658   1.917   1.474 -0.4590  1.2735  2.7783
  725SOL     OW 2173   1.375   2.474   1.252 -0.0523  0.1299  0.3944
  725SOL    HW1 2174   1.352   2.391   1.194  3.0919 -2.5727  1.4297
  725SOL    HW2 2175   1.346   2.556   1.197  1.2029  0.8082  1.8563
  726SOL     OW 2176   1.824   0.263   3.026 -0.3184  0.0067  0.7261
  726SOL    HW1 2177   1.872   0.192   3.087  1.6281 -0.6168  1.4377
  726SOL    HW2 2178   1.791   0.219   2.941  0.7704 -0.1752 -2.0987
  727SOL     OW 2179   1.273   2.109   0.406  0.4382 -0.1367 -0.1581
  727SOL    HW1 2180   1.304   2.027   0.356 -0.4612 -1.9789  1.4762
  727SOL    HW2 2181   1.171   2.113   0.412  0.4173 -1.6325 -0.7900
  728SOL     OW 2182   1.900   2.680   2.014 -0.1956 -0.2684 -0.0952
  728SOL    HW1 2183   1.866   2.636   1.928 -2.7263  0.4546  5.0539
  728SOL    HW2 2184   1.894   2.782   2.008 -1.3707  0.5460  2.0577
  729SOL     OW 2185   2.073   2.574   1.606 -0.6597 -0.3812  0.6728
  729SOL    HW1 2186   2.065   2.490   1.554  0.1464  2.2353 -1.5268
  729SOL    HW2 2187   2.139   2.574   1.686 -0.7451  0.1434 -1.3084
  730SOL     OW 2188   1.590   0.688   2.493  0.0529  0.6077 -0.7783
  730SOL    HW1 2189   1.631   0.663   2.584  2.1734  1.5606  2.6461
  730SOL    HW2 2190   1.509   0.629   2.470  0.9160 -0.5361 -0.2219
  731SOL     OW 2191   0.838   3.065   1.042 -0.1753 -0.0671  0.1617
  731SOL    HW1 2192   0.744   3.092   1.006 -3.4323  0.4788 -0.3139
  731SOL    HW2 2193   0.839   3.022   1.133  0.2263  2.1932 -4.0619
  732SOL     OW 2194   1.609   3.011   1.101  0.8037 -0.5340 -0.3973
  732SOL    HW1 2195   1.620   2.944   1.176 -0.7385  1.1463 -1.7850
  732SOL    HW2 2196   1.519   3.059   1.097  0.9614 -0.1862  1.4557
  733SOL     OW 2197   1.398   1.028   1.353 -0.0815  0.6571  0.5048
  733SOL    HW1 2198   1.343   1.013   1.267 -1.1261 -0.0389 -0.9316
  733SOL    HW2 2199   1.395   1.127   1.372 -2.3503  2.1495 -2.4211
  734SOL     OW 2200   2.348   2.172   0.386 -0.8571 -0.4999  0.1643
  734SOL    HW1 2201   2.318   2.199   0.296  2.5813 -1.6702  1.3478
  734SOL    HW2 2202   2.358   2.249   0.451  0.0844 -1.4159  0.7185
  735SOL     OW 2203   0.403   0.568   0.538 -0.4679  0.0049  0.1305
  735SOL    HW1 2204   0.385   0.615   0.446  3.1262 -3.1358 -2.3498
  735SOL    HW2 2205   0.399   0.469   0.522 -0.7782  1.0968 -1.5168
  736SOL     OW 2206   2.005   2.121   2.459 -0.0752 -0.0804 -0.2639
  736SOL    HW1 2207   1.912   2.158   2.491 -1.6843  0.5192  2.1563
  736SOL    HW2 2208   2.027   2.143   2.363 -3.2704 -0.5292  0.8159
  737SOL     OW 2209   0.933   2.413   1.085 -0.7151  0.2625  0.2196
  737SOL    HW1 2210   0.958   2.498   1.038  2.5854 -0.7703 -0.4688
  737SOL    HW2 2211   0.857   2.370   1.039  1.6739  0.6066 -0.0358
  738SOL     OW 2212   1.429   2.810   2.073 -0.1380  0.4053 -0.0397
  738SOL    HW1 2213   1.423   2.878   2.144 -1.3328 -3.8797 -1.6755
  738SOL    HW2 2214   1.489   2.728   2.097 -0.0020 -1.3185 -0.1615
  739SOL     OW 2215   0.855   2.104   2.078  0.3355  0.1801  0.2457
  739SOL    HW1 2216   0.909   2.130   2.163  1.1788  1.4876 -1.7365
  739SOL    HW2 2217   0.754   2.114   2.101  1.9228 -0.4859  1.0523
  740SOL     OW 2218   1.577   2.415   1.429  0.2035 -0.0549  0.4370
  740SOL    HW1 2219   1.667   2.436   1.381  1.5550 -1.1073  0.4559
  740SOL    HW2 2220   1.502   2.429   1.367  2.1506  0.9476  0.1140
  741SOL     OW 2221   2.518   1.555   3.046 -0.0271  0.0214 -0.1642
  741SOL    HW1 2222   2.526   1.494   2.964 -0.8396 -0.1484  0.0538
  741SOL    HW2 2223   2.478   1.647   3.024  0.8006 -4.1237  0.7519
  742SOL     OW 2224   0.753   1.461   2.099 -0.1772 -0.2073 -0.3610
  742SOL    HW1 2225   0.731   1.546   2.149  2.1846  1.0339 -0.2506
  742SOL    HW2 2226   0.666   1.438   2.050  0.8972  4.2040  1.2291
  743SOL     OW 2227   3.066   1.102   2.326 -0.0572 -0.3359  0.1017
  743SOL    HW1 2228   3.067   1.036   2.249 -0.3964  0.8144 -1.4082
  743SOL    HW2 2229   2.968   1.138   2.343  3.1947  0.3601 -0.2961
  744SOL     OW 2230   2.249   2.343   1.985  0.1268  0.1436 -0.2213
  744SOL    HW1 2231   2.237   2.397   2.069 -1.4082 -3.6324 -0.8241
  744SOL    HW2 2232   2.232   2.399   1.901 -0.3645  0.4831 -0.6408
  745SOL     OW 2233   2.304   1.640   1.530  0.3509 -0.2274 -0.0942
  745SOL    HW1 2234   2.213   1.599   1.521  0.4764 -0.2032  0.7570
  745SOL    HW2 2235   2.359   1.609   1.449 -1.2952  0.6459 -0.4657
  746SOL     OW 2236   2.803   1.196   0.535  0.0120 -0.1718 -0.3288
  746SOL    HW1 2237   2.725   1.150   0.487 -2.9246 -0.7729  0.5626
  746SOL    HW2 2238   2.758   1.240   0.615 -0.7656  0.8916 -0.9431
  747SOL     OW 2239   1.896   2.328   0.588 -0.6046  0.1450 -0.6919
  747SOL    HW1 2240   1.979   2.280   0.616 -2.4365  1.2930 -2.3848
  747SOL    HW2 2241   1.840   2.358   0.669 -1.6596  4.0400  3.9427
  748SOL     OW 2242   0.953   2.389   0.316  0.1237 -0.1021  0.2337
  748SOL    HW1 2243   1.026   2.352   0.256 -3.1883 -1.0952  0.9991
  748SOL    HW2 2244   0.904   2.469   0.278 -0.1137 -1.1750  0.1536
  749SOL     OW 2245   2.702   0.472   2.290  0.0187 -0.4367 -0.2740
  749SOL    HW1 2246   2.693   0.443   2.385  0.5274 -1.4781  0.3456
  749SOL    HW2 2247   2.745   0.406   2.225 -0.2286 -1.6991 -1.7004
  750SOL     OW 2248   1.688   0.072   1.342 -0.1129  0.2533  0.2926
  750SOL    HW1 2249   1.707   0.170   1.330  0.8717 -2.8066  0.2066
  750SOL    HW2 2250   1.686   0.020   1.255  0.7193  1.1644 -0.8063
  751SOL     OW 2251   1.677   2.347   2.784  0.0998 -0.1470 -0.2591
  751SOL    HW1 2252   1.580   2.370   2.783  1.4378  1.8651 -2.2952
  751SOL    HW2 2253   1.727   2.365   2.872  1.9502  0.9297 -1.8469
  752SOL     OW 2254   1.753   1.931   0.401 -0.0290 -0.1510 -0.6594
  752SOL    HW1 2255   1.744   2.033   0.404  0.8169  1.9165 -1.3002
  752SOL    HW2 2256   1.846   1.894   0.394 -1.9083 -0.2941  0.2224
  753SOL     OW 2257   1.651   0.824   2.055  0.7385 -0.0803 -0.2316
  753SOL    HW1 2258   1.717   0.804   2.134 -0.1063 -1.2823 -0.0217
  753SOL    HW2 2259   1.595   0.904   2.080  1.1752  1.2963 -1.3208
  754SOL     OW 2260   0.155   2.954   0.880  0.1235  0.1133  0.4876
  754SOL    HW1 2261   0.117   3.012   0.957  0.9453  1.0432  1.9897
  754SOL    HW2 2262   0.124   2.859   0.866  2.9726 -3.1434  3.5555
  755SOL     OW 2263   1.958   0.119   1.438 -0.7808 -0.0144 -0.2180
  755SOL    HW1 2264   2.016   0.113   1.351 -0.7432  0.7605 -1.2987
  755SOL    HW2 2265   1.872   0.066   1.431  0.9784  1.0952 -0.7658
  756SOL     OW 2266   1.250   1.124   2.527  0.4475  0.2364 -0.1773
  756SOL    HW1 2267   1.325   1.112   2.596  0.0071 -0.2030 -0.5682
  756SOL    HW2 2268   1.280   1.112   2.432  0.8529  1.9416  0.6000
  757SOL     OW 2269   2.984   2.638   1.388  0.0415 -0.3822  0.1549
  757SOL    HW1 2270   3.006   2.542   1.416 -2.1500  0.5719 -0.9479
  757SOL    HW2 2271   2.891   2.667   1.420 -1.8495 -2.4001  0.5683
  758SOL     OW 2272   0.517   3.047   1.462 -0.4532  0.3861 -0.1279
  758SOL    HW1 2273   0.538   2.986   1.543 -0.0097  1.7006  1.6454
  758SOL    HW2 2274   0.493   0.038   1.499 -0.9141  0.9356  1.1180
  759SOL     OW 2275   2.391   1.234   0.707 -0.3732 -0.0137  0.2713
  759SOL    HW1 2276   2.367   1.323   0.663  2.9217  0.8016  0.8216
  759SOL    HW2 2277   2.454   1.243   0.785 -1.4296 -0.7702 -0.1445
  760SOL     OW 2278   2.056   0.545   1.390  0.0635  0.1993  0.3227
  760SOL    HW1 2279   2.001   0.466   1.425 -1.9943 -3.0178  0.1818
  760SOL    HW2 2280   2.156   0.530   1.405 -1.3786  1.9529  0.1786
  761SOL     OW 2281   2.133   0.008   0.485  0.1537  0.5774 -0.0754
  761SOL    HW1 2282   2.223   0.020   0.527 -1.1347 -0.4840 -0.1763
  761SOL    HW2 2283   2.119   3.015   0.451  1.4479 -0.3787 -2.0543
  762SOL     OW 2284   2.232   2.191   0.127 -0.0737 -0.1206 -0.1841
  762SOL    HW1 2285   2.251   2.147   0.039  0.4949 -0.5586  2.6251
  762SOL    HW2 2286   2.239   2.292   0.114  1.3040 -2.5528 -1.1549
  763SOL     OW 2287   0.546   1.134   0.748 -0.2263 -0.1646  0.0839
  763SOL    HW1 2288   0.471   1.205   0.743 -2.8034  3.1063 -3.6845
  763SOL    HW2 2289   0.576   1.112   0.840  0.1480 -0.4749 -1.2387
  764SOL     OW 2290   2.485   2.404   2.930  0.3290 -0.0935  0.1642
  764SOL    HW1 2291   2.533   2.458   2.859 -2.7283  0.2405  1.2305
  764SOL    HW2 2292   2.407   2.459   2.962  0.2378 -0.8475 -1.5166
  765SOL     OW 2293   0.696   0.773   2.282 -0.0228  0.0051 -0.3278
  765SOL    HW1 2294   0.633   0.778   2.360  1.8735 -2.4770 -0.3437
  765SOL    HW2 2295   0.735   0.678   2.270 -1.8338 -0.9574  0.3649
  766SOL     OW 2296   3.103   1.367   2.505 -0.2548  0.4228 -0.0961
  766SOL    HW1 2297   3.019   1.321   2.529 -0.0203 -0.1456 -1.0674
  766SOL    HW2 2298   3.089   1.439   2.435  0.9813  2.3788 -2.6015
  767SOL     OW 2299   0.176   1.836   2.121 -0.6884 -0.3685 -0.2530
  767SOL    HW1 2300   0.233   1.771   2.066 -0.7864 -0.7341  0.3997
  767SOL    HW2 2301   0.207   1.834   2.213 -2.2588 -2.6329  0.2626
  768SOL     OW 2302   0.973   1.024   2.727  0.6077  0.0895 -0.0149
  768SOL    HW1 2303   0.919   1.052   2.811 -1.4286  2.4941  0.3480
  768SOL    HW2 2304   0.991   1.104   2.669 -0.3880 -6.0488  2.9470
  769SOL     OW 2305   1.656   2.623   2.976  0.4022 -0.1246 -0.1493
  769SOL    HW1 2306   1.720   2.550   2.994 -0.1165 -0.4915 -1.9644
  769SOL    HW2 2307   1.712   2.707   2.964  0.8739  0.7275 -0.4165
  770SOL     OW 2308   3.055   0.501   2.486 -0.5945  0.1935 -0.0015
  770SOL    HW1 2309   0.004   0.581   2.450  0.3166  2.3007  0.9450
  770SOL    HW2 2310   2.992   0.528   2.558  0.9121 -0.4867  0.3344
  771SOL     OW 2311   0.728   2.108   1.387  0.3146  0.0301 -0.0913
  771SOL    HW1 2312   0.823   2.075   1.406  0.1441  0.8842  1.4549
  771SOL    HW2 2313   0.730   2.208   1.368 -0.4991 -1.0651  0.6577
  772SOL     OW 2314   0.743   0.539   2.954  0.0032  0.5690 -0.1936
  772SOL    HW1 2315   0.762   0.484   2.872  0.4948  3.9790  2.0005
  772SOL    HW2 2316   0.720   0.636   2.923  0.1362  3.0725 -2.5149
  773SOL     OW 2317   2.298   0.989   1.642  0.6145  0.1495 -0.4870
  773SOL    HW1 2318   2.376   1.012   1.699 -4.3536 -1.9177 -4.7298
  773SOL    HW2 2319   2.212   0.968   1.696 -2.3852  0.5287  0.6551
  774SOL     OW 2320   1.144   0.877   0.713 -0.1107 -0.6012  0.4071
  774SOL    HW1 2321   1.087   0.812   0.766 -0.6758  3.9206 -0.3766
  774SOL    HW2 2322   1.244   0.853   0.713 -0.9400  1.0102  2.7423
  775SOL     OW 2323   1.932   2.859   2.671  0.7269  0.0590  0.6857
  775SOL    HW1 2324   1.963   2.913   2.749  0.0261 -0.2476 -1.1052
  775SOL    HW2 2325   1.925   2.762   2.699 -1.4605  0.6651  2.1255
  776SOL     OW 2326   2.073   3.022   2.205  0.3398  0.4557 -0.5003
  776SOL    HW1 2327   2.055   3.014   2.307 -0.2541 -0.0355  0.9614
  776SOL    HW2 2328   2.130   2.946   2.178 -2.0728  2.0924 -0.9388
  777SOL     OW 2329   0.635   1.233   2.863 -0.2009 -0.3048  0.0125
  777SOL    HW1 2330   0.555   1.218   2.802 -0.9302  1.0360  2.0141
  777SOL    HW2 2331   0.605   1.271   2.951  2.9223 -2.7406 -3.0237
  778SOL     OW 2332   0.714   3.079   0.115  0.1880  0.1044 -0.2205
  778SOL    HW1 2333   0.815   3.062   0.111  0.5074  1.4737  0.2461
  778SOL    HW2 2334   0.669   3.047   0.202 -3.2381  1.3947 -0.9946
  779SOL     OW 2335   3.067   1.167   3.002 -0.3490  0.2203  0.5248
  779SOL    HW1 2336   2.993   1.097   2.989  0.3755 -0.6038 -0.7704
  779SOL    HW2 2337   0.048   1.153   2.940 -0.9623  0.4691  0.6615
  780SOL     OW 2338   2.068   0.420   2.634 -0.1420 -0.5341 -0.4326
  780SOL    HW1 2339   2.014   0.440   2.716  0.6074 -3.7767 -1.5576
  780SOL    HW2 2340   2.017   0.378   2.563  0.5458 -0.2146 -0.0982
  781SOL     OW 2341   2.204   1.107   2.043 -0.0175 -0.6772  0.3465
  781SOL    HW1 2342   2.155   1.141   2.124  1.0625 -2.8084 -0.4079
  781SOL    HW2 2343   2.168   1.132   1.953  1.5312 -0.8709  5.1248
  782SOL     OW 2344   1.164   1.566   2.379  0.3624 -0.2643  0.0268
  782SOL    HW1 2345   1.151   1.637   2.306  0.4868 -4.3106 -0.0804
  782SOL    HW2 2346   1.096   1.587   2.450  2.8146 -0.6447 -0.0873
  783SOL     OW 2347   1.381   0.039   1.103 -0.1074  0.2173  0.2503
  783SOL    HW1 2348   1.407   0.125   1.062 -0.6130 -0.1124  0.9807
  783SOL    HW2 2349   1.283   0.018   1.103  1.8972 -1.1585 -0.5749
  784SOL     OW 2350   1.476   0.697   2.849 -0.0757  0.0815 -0.3874
  784SOL    HW1 2351   1.567   0.744   2.847 -0.5109  2.5567 -0.8984
  784SOL    HW2 2352   1.433   0.700   2.944 -0.9001  1.2226  0.9558
  785SOL     OW 2353   1.971   0.499   2.875  0.6963 -0.0898  0.1390
  785SOL    HW1 2354   2.011   0.577   2.925 -3.5559 -0.8110 -1.0920
  785SOL    HW2 2355   1.980   0.418   2.934  0.4020  0.6147  0.9461
  786SOL     OW 2356   0.003   1.457   0.694 -0.2597  0.1861  0.2877
  786SOL    HW1 2357   3.013   1.488   0.659 -0.1509 -3.3773  0.9232
  786SOL    HW2 2358   3.100   1.385   0.768  1.2299  0.0142 -0.9154
  787SOL     OW 2359   1.678   1.648   0.062 -0.5016 -0.3080  0.1081
  787SOL    HW1 2360   1.669   1.750   0.074  4.0978  1.1652  3.1942
  787SOL    HW2 2361   1.770   1.623   0.025  2.9725  1.0503  0.4659
  788SOL     OW 2362   1.378   2.008   1.272  0.6758 -0.3226  0.2561
  788SOL    HW1 2363   1.453   1.969   1.209 -0.8786 -1.4413  0.2130
  788SOL    HW2 2364   1.285   1.991   1.231 -0.0119  0.3909  0.6238
  789SOL     OW 2365   0.118   1.344   2.244  0.1996  0.4965  0.2816
  789SOL    HW1 2366   0.094   1.256   2.291 -1.6132 -2.2814 -0.9699
  789SOL    HW2 2367   0.055   1.423   2.259  1.9098  0.1624 -0.6638
  790SOL     OW 2368   0.437   0.020   3.084 -0.5777  0.4452  0.0683
  790SOL    HW1 2369   0.357   3.101   0.041  1.1070  1.0170 -2.6932
  790SOL    HW2 2370   0.505   3.048   3.083  0.8525 -0.1350 -3.3808
  791SOL     OW 2371   0.817   0.085   2.397  0.4942  0.1369  0.4040
  791SOL    HW1 2372   0.774   0.145   2.468 -2.7427  0.9145 -1.1835
  791SOL    HW2 2373   0.895   0.031   2.439  0.1894 -1.8754 -0.1244
  792SOL     OW 2374   1.855   0.484   2.265 -0.2048 -0.2407 -0.2979
  792SOL    HW1 2375   1.821   0.580   2.254  1.3304 -1.5143 -4.3080
  792SOL    HW2 2376   1.931   0.465   2.198  2.7102  1.3566 -1.8196
  793SOL     OW 2377   2.815   0.837   1.575  0.0732 -0.0388 -0.3418
  793SOL    HW1 2378   2.837   0.821   1.676 -0.0070  0.2300  2.0372
  793SOL    HW2 2379   2.889   0.817   1.506  0.6166 -0.1212  0.0322
  794SOL     OW 2380   0.264   0.486   1.477  0.1682 -0.4610 -0.4645
  794SOL    HW1 2381   0.212   0.559   1.521 -1.3344  1.2022  1.3093
  794SOL    HW2 2382   0.349   0.471   1.529 -2.8943 -1.5052 -3.5227
  795SOL     OW 2383   2.879   1.452   0.483  0.1062  0.2790  0.1906
  795SOL    HW1 2384   2.796   1.499   0.511  1.9338 -0.6630  0.3200
  795SOL    HW2 2385   2.863   1.351   0.471 -2.5187 -2.0977 -1.2735
  796SOL     OW 2386   3.012   2.699   0.474 -0.0432 -0.1731  0.5866
  796SOL    HW1 2387   2.937   2.744   0.428 -1.5770  0.1072  1.4922
  796SOL    HW2 2388   3.084   2.665   0.411  1.5079 -0.7011  0.1461
  797SOL     OW 2389   1.931   2.588   2.678 -0.2709  0.3653  0.1860
  797SOL    HW1 2390   1.994   2.538   2.740  0.6939  0.9586  1.1210
  797SOL    HW2 2391   1.858   2.528   2.634  1.5521 -1.8131  2.3941
  798SOL     OW 2392   0.167   1.119   1.314  0.1283  0.1016  0.3135
  798SOL    HW1 2393   0.143   1.050   1.241  1.6898 -1.7250 -0.7599
  798SOL    HW2 2394   0.158   1.213   1.285 -1.9481  0.4492  1.3469
  799SOL     OW 2395   0.195   0.566   2.854  0.0258 -0.1783  0.3714
  799SOL    HW1 2396   0.222   0.513   2.772  0.3637  0.8239 -1.0233
  799SOL    HW2 2397   0.158   0.655   2.826 -0.6286  0.7825 -0.2044
  800SOL     OW 2398   2.818   1.802   0.638 -0.0060  0.2463  0.2436
  800SOL    HW1 2399   2.850   1.875   0.703  0.1624 -0.2107 -0.2201
  800SOL    HW2 2400   2.885   1.781   0.567 -0.2780  0.2342  2.7821
  801SOL     OW 2401   1.549   1.380   1.199  0.1907  0.3743 -0.0798
  801SOL    HW1 2402   1.558   1.479   1.184 -2.9383 -1.6949 -0.6831
  801SOL    HW2 2403   1.469   1.365   1.263 -0.7549  0.8428 -0.1460
  802SOL     OW 2404   1.135   1.865   1.822 -0.3991 -0.3873  0.4899
  802SOL    HW1 2405   1.216   1.832   1.772 -1.6146 -1.8406 -1.7385
  802SOL    HW2 2406   1.103   1.960   1.792  0.6960  2.7155  1.6844
  803SOL     OW 2407   0.378   2.017   0.612 -0.3238 -0.0298  0.5327
  803SOL    HW1 2408   0.316   1.940   0.637 -4.1372 -1.8594  0.5331
  803SOL    HW2 2409   0.334   2.109   0.600 -2.2688  0.3432 -0.3816
  804SOL     OW 2410   0.924   2.505   1.520  0.7487 -0.1764  0.1732
  804SOL    HW1 2411   1.021   2.502   1.528 -0.6983  1.8185  0.0287
  804SOL    HW2 2412   0.882   2.570   1.586  1.1306 -0.3186  0.4916
  805SOL     OW 2413   1.755   1.201   0.050  0.3530  0.1453 -0.7438
  805SOL    HW1 2414   1.794   1.201   3.056  2.6197  2.3901 -1.0166
  805SOL    HW2 2415   1.713   1.295   0.072 -0.7703  4.3018  1.3275
  806SOL     OW 2416   1.696   2.967   0.840 -0.3016  0.3049  0.0991
  806SOL    HW1 2417   1.613   2.976   0.783  1.0307 -1.6692  1.3589
  806SOL    HW2 2418   1.658   2.943   0.934  0.7891 -1.8160  0.7004
  807SOL     OW 2419   2.440   0.043   3.078  0.0667  0.3233  0.3603
  807SOL    HW1 2420   2.407   0.092   0.054  1.2969 -1.9611 -1.0788
  807SOL    HW2 2421   2.494   0.110   3.023  0.9031 -0.3337 -1.2576
  808SOL     OW 2422   0.180   0.943   0.320  0.4702  0.2596  0.0987
  808SOL    HW1 2423   0.232   0.982   0.402 -0.0659  1.3875  1.6386
  808SOL    HW2 2424   0.138   1.019   0.267  1.1352 -0.4558  2.0055
  809SOL     OW 2425   2.787   1.022   2.455  0.0549 -0.2499 -0.2978
  809SOL    HW1 2426   2.774   0.985   2.550 -0.9255 -1.9996 -1.1535
  809SOL    HW2 2427   2.705   0.998   2.403 -0.9355  2.7149 -0.7609
  810SOL     OW 2428   1.814   0.424   1.769 -0.1738 -0.3895 -0.5867
  810SOL    HW1 2429   1.848   0.423   1.678 -0.7130  0.7043  2.5859
  810SOL    HW2 2430   1.746   0.353   1.782  4.1838  2.5532 -0.7267
  811SOL     OW 2431   2.255   2.567   1.802 -0.6776 -0.7960 -0.1055
  811SOL    HW1 2432   2.256   2.641   1.876 -0.0773  1.9540  1.6055
  811SOL    HW2 2433   2.349   2.534   1.778 -2.3585 -0.8163 -1.2071
  812SOL     OW 2434   1.717   0.161   2.783  0.1798 -0.2909  0.9379
  812SOL    HW1 2435   1.648   0.122   2.848 -0.1342  0.3462 -0.9977
  812SOL    HW2 2436   1.742   0.096   2.708 -0.0122  0.2214 -1.5380
  813SOL     OW 2437   2.072   0.440   1.892  0.1602  0.0243 -0.1873
  813SOL    HW1 2438   1.974   0.441   1.861 -1.1029  0.2548 -2.7404
  813SOL    HW2 2439   2.130   0.501   1.831 -0.2601  0.0582 -1.0581
  814SOL     OW 2440   1.850   1.227   1.906 -0.7529  0.0885  0.3625
  814SOL    HW1 2441   1.759   1.240   1.950 -2.2315 -0.1618  0.0537
  814SOL    HW2 2442   1.837   1.209   1.805  0.2267  0.5227 -0.8857
  815SOL     OW 2443   0.559   0.906   0.244 -0.0734 -0.2427  0.4858
  815SOL    HW1 2444   0.559   0.974   0.322 -1.3746 -0.0864  1.6709
  815SOL    HW2 2445   0.490   0.832   0.261 -0.1929 -2.4961 -2.4227
  816SOL     OW 2446   2.204   1.487   2.763  0.2304  0.3977  0.2137
  816SOL    HW1 2447   2.131   1.433   2.722 -0.8530 -0.4584  2.0036
  816SOL    HW2 2448   2.197   1.587   2.737  1.5553  2.7995 -1.1187
  817SOL     OW 2449   0.232   2.877   0.422  0.0673  0.5708 -0.5419
  817SOL    HW1 2450   0.204   2.812   0.497  2.4006  0.8102  0.0535
  817SOL    HW2 2451   0.151   2.933   0.398  2.1667  0.5585  0.0930
  818SOL     OW 2452   1.886   0.301   2.437 -0.3620 -0.5623  0.0668
  818SOL    HW1 2453   1.891   0.372   2.363  0.5466 -0.3333 -0.0488
  818SOL    HW2 2454   1.828   0.220   2.416  1.0288 -0.1557  0.7792
  819SOL     OW 2455   1.511   0.758   0.433 -0.3053  0.0730  0.4641
  819SOL    HW1 2456   1.433   0.793   0.377 -0.4195 -0.6376  3.3211
  819SOL    HW2 2457   1.544   0.674   0.384  2.0509 -1.9609 -0.8781
  820SOL     OW 2458   2.260   0.513   0.689 -0.3411  0.3892 -0.4643
  820SOL    HW1 2459   2.361   0.503   0.715  0.8870 -0.4917  0.7401
  820SOL    HW2 2460   2.218   0.574   0.760  0.0811 -0.1979 -0.7456
  821SOL     OW 2461   2.364   2.795   0.411 -0.0307  0.3832 -0.1427
  821SOL    HW1 2462   2.417   2.838   0.483 -2.5651 -2.6607  0.1951
  821SOL    HW2 2463   2.401   2.818   0.321 -1.5112  1.8283  1.1196
  822SOL     OW 2464   3.089   3.084   2.010 -0.1792  0.6333  0.0635
  822SOL    HW1 2465   0.059   3.035   1.960 -4.0303  0.3064 -2.6833
  822SOL    HW2 2466   3.033   3.019   2.066  0.3012  1.5166 -4.4855
  823SOL     OW 2467   2.764   2.203   1.722  0.7016 -1.0034  0.2072
  823SOL    HW1 2468   2.737   2.260   1.641  1.3214 -0.4960  0.8321
  823SOL    HW2 2469   2.729   2.109   1.714  1.1857  2.2210  1.6885
  824SOL     OW 2470   0.698   2.898   2.024  0.4793  0.5485  0.2886
  824SOL    HW1 2471   0.641   2.822   1.993 -0.9396  0.5390 -0.7195
  824SOL    HW2 2472   0.652   2.936   2.107  0.3397 -0.8333  0.4968
  825SOL     OW 2473   1.535   1.589   0.580  0.3693  0.4753 -0.6437
  825SOL    HW1 2474   1.593   1.536   0.518  3.0840  0.3546  0.3490
  825SOL    HW2 2475   1.445   1.546   0.595  0.4948  2.3237  0.8018
  826SOL     OW 2476   1.691   0.515   0.061  0.2464  0.2680 -0.3773
  826SOL    HW1 2477   1.754   0.440   0.034  1.2201 -1.7025 -1.0006
  826SOL    HW2 2478   1.733   0.605   0.044  0.1875 -0.4165  0.1541
  827SOL     OW 2479   0.303   1.487   1.449  0.1956  0.3014 -0.4337
  827SOL    HW1 2480   0.285   1.546   1.531 -1.1758  0.9463  2.5922
  827SOL    HW2 2481   0.394   1.512   1.414 -0.5570 -1.4100  3.6330
  828SOL     OW 2482   2.111   1.248   1.813  0.3158  0.0391 -0.1493
  828SOL    HW1 2483   2.128   1.226   1.717 -1.3441  1.0474  3.1147
  828SOL    HW2 2484   2.015   1.236   1.844  0.1498 -1.8454  1.6652
  829SOL     OW 2485   0.287   2.325   0.278 -0.6295  0.2302 -0.3882
  829SOL    HW1 2486   0.186   2.330   0.287  0.0980  1.3611  1.5818
  829SOL    HW2 2487   0.326   2.237   0.317 -0.6912 -0.0715  0.1140
  830SOL     OW 2488   0.968   0.744   0.898  0.1805  0.0352 -0.3049
  830SOL    HW1 2489   0.884   0.783   0.937  0.1111 -0.5530 -0.0044
  830SOL    HW2 2490   1.019   0.695   0.973 -0.5079 -0.7193 -0.1748
  831SOL     OW 2491   2.831   1.748   0.140  0.2207  0.0358  0.2128
  831SOL    HW1 2492   2.883   1.765   0.056 -0.5891 -0.4604  1.7579
  831SOL    HW2 2493   2.739   1.715   0.116  0.1751  0.8845  3.4411
  832SOL     OW 2494   0.925   2.835   0.283 -0.0639  0.0704  0.1883
  832SOL    HW1 2495   0.934   2.886   0.198 -0.0985 -2.2026  2.1732
  832SOL    HW2 2496   0.944   2.889   0.368  0.0280  0.0544  0.7058
  833SOL     OW 2497   1.035   0.496   1.995 -0.2890 -0.5836  0.7922
  833SOL    HW1 2498   0.999   0.431   2.064 -2.2593 -0.4420 -0.0032
  833SOL    HW2 2499   0.976   0.580   2.001 -0.9938  2.3587 -1.2824
  834SOL     OW 2500   0.251   0.747   1.145 -0.8334 -0.5051 -0.1456
  834SOL    HW1 2501   0.315   0.826   1.126 -0.4699  0.9164  0.2245
  834SOL    HW2 2502   0.303   0.667   1.179  0.9918 -0.9314 -0.9265
  835SOL     OW 2503   2.612   0.263   1.730 -0.7532 -0.1955  0.2452
  835SOL    HW1 2504   2.577   0.309   1.812  3.1176  1.0781 -2.1974
  835SOL    HW2 2505   2.614   0.334   1.653  0.4364 -0.2493 -0.4844
  836SOL     OW 2506   0.223   2.266   0.644  0.2135 -0.0384  0.6299
  836SOL    HW1 2507   0.312   2.313   0.624 -0.6797  0.6149 -0.4420
  836SOL    HW2 2508   0.147   2.330   0.668 -1.0767 -0.6102  1.7553
  837SOL     OW 2509   2.041   1.677   2.302  0.0280 -0.2288  0.5503
  837SOL    HW1 2510   2.084   1.588   2.325 -0.0104 -2.5776  0.6224
  837SOL    HW2 2511   2.035   1.740   2.386 -2.5997  0.6647 -0.8514
  838SOL     OW 2512   0.337   0.952   1.427  0.2271 -0.1624  0.6671
  838SOL    HW1 2513   0.404   0.927   1.356  0.5121  1.8299  0.2411
  838SOL    HW2 2514   0.280   1.030   1.393  0.5807 -1.4600 -1.0752
  839SOL     OW 2515   0.287   0.202   0.698 -0.7957  0.2474  0.2235
  839SOL    HW1 2516   0.352   0.274   0.733  1.1085  0.5143 -2.5213
  839SOL    HW2 2517   0.207   0.194   0.762 -3.2725  0.3112  0.3414
  840SOL     OW 2518   2.684   0.338   2.533  0.2961  0.0795  0.1643
  840SOL    HW1 2519   2.783   0.319   2.542  0.2295  1.8373 -0.8998
  840SOL    HW2 2520   2.640   0.374   2.622 -0.7113 -0.0936  1.5205
  841SOL     OW 2521   0.591   2.791   0.030 -0.3258 -0.5180  0.0215
  841SOL    HW1 2522   0.508   2.823   0.072  4.9186 -2.9225  0.5630
  841SOL    HW2 2523   0.649   2.742   0.100 -0.5404  1.3800 -1.1873
  842SOL     OW 2524   1.033   0.198   0.763  0.1334  0.1349 -0.1729
  842SOL    HW1 2525   0.958   0.247   0.715  0.3101  2.5260  0.8491
  842SOL    HW2 2526   1.018   0.100   0.758  1.3147  1.4647 -1.1995
  843SOL     OW 2527   0.091   1.383   2.776  0.3852 -0.2861  0.0268
  843SOL    HW1 2528   0.082   1.310   2.844  0.2089 -0.2950  0.9346
  843SOL    HW2 2529   0.055   1.362   2.685  1.0335  1.3385 -0.4045
  844SOL     OW 2530   0.990   2.428   2.317 -0.5738  0.4264  0.1627
  844SOL    HW1 2531   1.029   2.445   2.407 -1.0134  0.7705 -1.8368
  844SOL    HW2 2532   0.927   2.503   2.300  0.9418  1.5170  1.3649
  845SOL     OW 2533   2.213   2.735   2.572  0.1554 -0.2498 -0.2659
  845SOL    HW1 2534   2.265   2.759   2.487  0.0614  0.0130  1.8590
  845SOL    HW2 2535   2.129   2.786   2.590  3.1125  0.7167  2.9868
  846SOL     OW 2536   1.601   1.730   2.533  0.3743  0.7099 -0.3612
  846SOL    HW1 2537   1.642   1.673   2.604 -1.4123  0.0684 -2.6940
  846SOL    HW2 2538   1.655   1.717   2.452 -0.5593  1.6696  3.5823
  847SOL     OW 2539   2.759   3.089   0.118  0.4474 -0.0312  0.0597
  847SOL    HW1 2540   2.782   3.080   0.018 -0.9022 -0.6701  0.5701
  847SOL    HW2 2541   2.833   0.034   0.169  0.5438 -0.3272 -0.1500
  848SOL     OW 2542   0.113   0.774   0.112 -0.1925 -0.1953  0.4756
  848SOL    HW1 2543   0.137   0.836   0.188 -0.1905  1.7473  0.4209
  848SOL    HW2 2544   0.200   0.738   0.071  1.7880  0.2757  3.9621
  849SOL     OW 2545   1.148   0.092   2.197  0.1258  0.4235 -0.4788
  849SOL    HW1 2546   1.079   0.013   2.183  0.4127  4.3311 -1.0791
  849SOL    HW2 2547   1.219   0.063   2.262 -2.6611  0.1254  2.8020
  850SOL     OW 2548   0.345   1.091   0.483 -0.4886 -0.3593  0.0643
  850SOL    HW1 2549   0.434   1.137   0.455  1.0067 -0.6119 -0.5102
  850SOL    HW2 2550   0.291   1.156   0.543 -0.6550 -3.8155  0.1045
  851SOL     OW 2551   0.486   1.419   0.222 -0.2312  0.3206 -0.2180
  851SOL    HW1 2552   0.516   1.501   0.277 -0.5312 -1.5853 -0.4677
  851SOL    HW2 2553   0.537   1.402   0.134  2.9873 -0.9510 -0.0899
  852SOL     OW 2554   1.202   1.063   1.877  0.1142 -0.2368 -0.3063
  852SOL    HW1 2555   1.271   1.138   1.858  2.1215  0.9916 -0.3854
  852SOL    HW2 2556   1.156   1.082   1.966 -0.6277 -2.3822 -0.9375
  853SOL     OW 2557   2.631   1.598   0.502  0.4398 -0.5451  0.1952
  853SOL    HW1 2558   2.681   1.675   0.542 -1.5048  2.5386 -1.9626
  853SOL    HW2 2559   2.636   1.601   0.397 -0.9438  1.4820 -1.2844
  854SOL     OW 2560   1.152   0.896   2.146  0.5359 -0.4403  0.7611
  854SOL    HW1 2561   1.077   0.838   2.183  1.1586 -0.9403 -2.2508
  854SOL    HW2 2562   1.233   0.838   2.137  2.1102  1.1912 -0.1375
  855SOL     OW 2563   0.250   2.687   2.582  0.5087 -0.6351  0.2818
  855SOL    HW1 2564   0.261   2.784   2.601  2.8089  0.1622  3.1608
  855SOL    HW2 2565   0.194   2.648   2.661  0.1025  0.3681  0.2292
  856SOL     OW 2566   1.266   0.600   2.144 -0.0515 -0.2592  0.2589
  856SOL    HW1 2567   1.340   0.607   2.076 -0.7950  0.7338  3.2895
  856SOL    HW2 2568   1.177   0.556   2.114 -2.0265 -1.2307 -1.0728
  857SOL     OW 2569   1.397   0.538   2.372 -0.5123  0.1401 -0.0542
  857SOL    HW1 2570   1.482   0.490   2.334 -0.0125  0.6912 -0.3755
  857SOL    HW2 2571   1.340   0.554   2.287  0.0167 -1.3289 -2.6936
  858SOL     OW 2572   0.155   0.813   1.843  0.1453  0.1605  0.1743
  858SOL    HW1 2573   0.185   0.876   1.917 -0.0840 -0.5650 -0.3375
  858SOL    HW2 2574   0.232   0.788   1.779 -1.8632  0.2443  1.5817
  859SOL     OW 2575   2.683   2.993   0.908 -0.5325 -0.4419  0.1567
  859SOL    HW1 2576   2.769   3.047   0.876 -0.5542  2.0198  0.6052
  859SOL    HW2 2577   2.645   2.931   0.831  0.9036 -2.2837 -2.8718
  860SOL     OW 2578   1.989   0.192   0.609 -0.3209 -1.1844 -0.1892
  860SOL    HW1 2579   1.925   0.133   0.660 -0.2485 -1.4867  1.3894
  860SOL    HW2 2580   2.066   0.137   0.575 -1.0204  1.2705 -0.2226
  861SOL     OW 2581   1.461   0.526   1.191 -0.7373 -0.1010 -0.6844
  861SOL    HW1 2582   1.392   0.520   1.268 -3.5004 -0.4127  3.8273
  861SOL    HW2 2583   1.440   0.608   1.138 -0.9052  0.2718  2.9653
  862SOL     OW 2584   1.350   0.049   2.426 -0.6085  0.3318 -0.1109
  862SOL    HW1 2585   1.405   3.082   2.379  0.0619  1.1823  3.4088
  862SOL    HW2 2586   1.413   0.124   2.438  1.5278  0.1421 -2.3108
  863SOL     OW 2587   0.031   2.692   0.886  0.0384  0.2777 -0.0127
  863SOL    HW1 2588   3.094   2.739   0.969  0.3985  0.3212 -1.0985
  863SOL    HW2 2589   0.003   2.594   0.883 -1.4921 -0.1660 -0.2364
  864SOL     OW 2590   2.387   0.105   2.048  0.7908  0.0772  0.4637
  864SOL    HW1 2591   2.313   0.121   1.975 -2.9598  1.0730 -2.9539
  864SOL    HW2 2592   2.390   0.186   2.106 -0.8270 -3.8229 -2.3872
  865SOL     OW 2593   0.957   1.313   1.980 -0.3427  0.0260 -0.3115
  865SOL    HW1 2594   0.952   1.223   2.027  0.1657  0.8657  4.0915
  865SOL    HW2 2595   0.885   1.369   2.022 -0.4731 -2.6317  1.0154
  866SOL     OW 2596   1.961   2.750   1.083 -0.2919  0.3092  0.0609
  866SOL    HW1 2597   1.942   2.684   1.007 -0.8006  1.7547  0.2361
  866SOL    HW2 2598   2.063   2.770   1.088  0.5481 -1.0812 -1.1980
  867SOL     OW 2599   2.173   2.984   0.916 -0.1315  0.5829  0.2374
  867SOL    HW1 2600   2.208   2.943   1.004  1.0958  1.7233  1.5629
  867SOL    HW2 2601   2.077   3.015   0.927 -0.8814  1.0353 -0.4968
  868SOL     OW 2602   2.951   2.025   1.628  0.0769 -0.0141 -0.0429
  868SOL    HW1 2603   2.972   2.032   1.527  1.2792 -0.7285 -1.1358
  868SOL    HW2 2604   2.905   2.111   1.665 -1.3564  3.3308  1.0105
  869SOL     OW 2605   2.062   2.235   2.200 -0.1586  0.3037 -0.1423
  869SOL    HW1 2606   1.970   2.264   2.171  0.1962 -0.5713  0.3859
  869SOL    HW2 2607   2.120   2.320   2.206  1.0834  4.0759  0.3789
  870SOL     OW 2608   1.472   1.276   0.847 -1.0857  0.5385  0.1453
  870SOL    HW1 2609   1.563   1.264   0.811 -3.5530  3.0059  1.5416
  870SOL    HW2 2610   1.454   1.372   0.872 -0.2912  1.6202  1.3797
  871SOL     OW 2611   3.008   1.888   2.126 -0.2293  0.2289 -0.0772
  871SOL    HW1 2612   2.968   1.922   2.216  1.4850  3.0411  0.7512
  871SOL    HW2 2613   3.102   1.844   2.137  2.1133 -0.3000  2.2858
  872SOL     OW 2614   1.224   1.424   2.621 -0.1934  0.0358  0.4938
  872SOL    HW1 2615   1.214   1.485   2.540  0.6267  0.8883 -2.6985
  872SOL    HW2 2616   1.156   1.346   2.614  0.6738  1.9011 -0.8085
  873SOL     OW 2617   0.729   1.055   1.624  0.0769  0.4984  0.2868
  873SOL    HW1 2618   0.780   1.128   1.669 -0.0531 -0.6873  0.2453
  873SOL    HW2 2619   0.626   1.075   1.632 -1.3609  0.9716 -0.1350
  874SOL     OW 2620   2.002   1.050   1.309 -0.3396 -0.1223  1.0284
  874SOL    HW1 2621   2.013   1.036   1.208  4.6224 -2.6956  0.9342
  874SOL    HW2 2622   2.013   0.959   1.351  2.0417  1.1506  0.1208
  875SOL     OW 2623   2.938   0.162   0.261  0.1482  0.9849 -0.0645
  875SOL    HW1 2624   3.024   0.194   0.300 -2.6287  2.6377  1.1748
  875SOL    HW2 2625   2.860   0.221   0.298  0.2768  1.0551  0.7562
  876SOL     OW 2626   0.820   1.288   0.169  0.3305 -0.3667 -0.3005
  876SOL    HW1 2627   0.845   1.264   0.266 -1.6473 -0.6549  0.0513
  876SOL    HW2 2628   0.841   1.386   0.156  0.1472 -0.2381  0.5200
  877SOL     OW 2629   2.498   2.605   0.917 -0.5252  0.5302 -0.4610
  877SOL    HW1 2630   2.462   2.630   1.009  0.3145 -1.4561  0.6084
  877SOL    HW2 2631   2.591   2.568   0.929 -2.5305  1.6277 -0.1534
  878SOL     OW 2632   2.019   1.839   0.325 -0.0326  0.5050 -0.0314
  878SOL    HW1 2633   2.029   1.938   0.314 -1.2704 -2.8313  0.6606
  878SOL    HW2 2634   2.051   1.793   0.240 -0.4475 -2.3677 -1.7009
  879SOL     OW 2635   2.943   1.547   1.834  0.4099  0.1541 -0.3118
  879SOL    HW1 2636   2.960   1.626   1.776 -1.3758 -1.2428 -1.5442
  879SOL    HW2 2637   2.967   1.567   1.935  1.7475 -0.3905  2.5992
  880SOL     OW 2638   0.471   1.963   0.910  0.3742  0.5379  0.8558
  880SOL    HW1 2639   0.540   1.967   0.983  1.4539  1.2194  0.2855
  880SOL    HW2 2640   0.448   1.869   0.881  0.2914  2.5517  1.8066
  881SOL     OW 2641   0.988   0.095   1.794  0.5434  0.1603  0.2382
  881SOL    HW1 2642   1.090   0.093   1.780  3.9559  2.3473 -1.9697
  881SOL    HW2 2643   0.948   0.183   1.766  0.2515 -0.0149  0.4281
  882SOL     OW 2644   2.400   1.098   1.122 -0.0162 -0.2305 -0.1139
  882SOL    HW1 2645   2.434   1.173   1.066  0.9888 -0.6625 -2.2802
  882SOL    HW2 2646   2.393   1.134   1.220 -1.1876  1.5206  1.3932
  883SOL     OW 2647   1.512   0.422   1.490 -0.5675  0.0331  0.7681
  883SOL    HW1 2648   1.572   0.371   1.428 -0.7121 -0.5906  1.5134
  883SOL    HW2 2649   1.551   0.515   1.514 -0.0233 -1.1921 -0.3796
  884SOL     OW 2650   2.741   0.282   2.083  0.3592 -0.1563 -0.0868
  884SOL    HW1 2651   2.838   0.280   2.046 -3.3154 -1.2603 -0.0159
  884SOL    HW2 2652   2.680   0.328   2.018  1.8944  1.1269  3.0260
  885SOL     OW 2653   1.294   1.396   3.041  0.3189 -0.2455  0.0047
  885SOL    HW1 2654   1.269   1.456   2.960 -0.1022  2.3124 -0.5866
  885SOL    HW2 2655   1.217   1.334   3.074 -0.8508 -1.2888  1.3402
  886SOL     OW 2656   2.190   0.282   2.931 -0.5428 -0.4111  0.4489
  886SOL    HW1 2657   2.150   0.270   3.025 -1.7782  0.5370  1.7319
  886SOL    HW2 2658   2.249   0.367   2.922 -2.1983  1.6909 -2.0214
  887SOL     OW 2659   1.156   2.919   1.560  0.1118  0.0273 -0.0862
  887SOL    HW1 2660   1.231   2.852   1.546  0.6031  0.8117 -0.7252
  887SOL    HW2 2661   1.188   3.001   1.610 -0.5787 -1.0664  0.7625
  888SOL     OW 2662   1.760   1.665   2.325  0.0993 -0.5070  0.0035
  888SOL    HW1 2663   1.730   1.727   2.252  1.0737  0.8952  1.7265
  888SOL    HW2 2664   1.856   1.642   2.320 -1.6619  2.9347 -0.9253
  889SOL     OW 2665   1.972   2.383   1.124  0.3611 -0.1655 -0.1940
  889SOL    HW1 2666   1.916   2.413   1.202 -2.5567 -0.4784  0.5390
  889SOL    HW2 2667   1.943   2.437   1.043 -0.8535  1.5498 -0.5978
  890SOL     OW 2668   1.382   1.927   0.768 -0.1985  0.0165  0.1135
  890SOL    HW1 2669   1.329   2.021   0.768 -1.0182  0.0858 -1.2470
  890SOL    HW2 2670   1.445   1.925   0.690  0.7556  0.7133  3.3359
  891SOL     OW 2671   2.634   1.293   0.168  0.0192 -0.2608 -0.0182
  891SOL    HW1 2672   2.731   1.294   0.135 -1.4234  1.3261 -0.2027
  891SOL    HW2 2673   2.602   1.387   0.186  0.1850  0.5069 -1.0546
  892SOL     OW 2674   2.119   1.181   2.998  0.1269 -0.0482  0.0752
  892SOL    HW1 2675   2.081   1.256   3.055  0.0285  4.5862 -0.7038
  892SOL    HW2 2676   2.072   1.175   2.906 -1.9447  0.8072 -0.6930
  893SOL     OW 2677   1.840   2.441   1.359 -0.6259 -0.1105 -0.4377
  893SOL    HW1 2678   1.853   2.545   1.371 -3.8004  0.4432  0.6488
  893SOL    HW2 2679   1.920   2.390   1.401 -3.7902 -1.7127  0.4000
  894SOL     OW 2680   2.569   2.788   0.718 -0.2502 -0.2575 -0.3296
  894SOL    HW1 2681   2.653   2.738   0.691 -2.6665  2.3359  0.7440
  894SOL    HW2 2682   2.518   2.732   0.790 -0.3965  2.2679 -1.8031
  895SOL     OW 2683   2.668   2.575   2.791  0.3402 -0.5650 -0.5799
  895SOL    HW1 2684   2.656   2.647   2.723  0.8250 -1.9786  2.2318
  895SOL    HW2 2685   2.707   2.494   2.737  2.5951 -0.6114  0.3294
  896SOL     OW 2686   2.006   3.028   2.463  0.3096 -0.1155  0.5597
  896SOL    HW1 2687   1.980   0.021   2.486  0.2024  0.8545  0.0275
  896SOL    HW2 2688   1.981   2.963   2.537 -1.1503 -0.8192 -3.3937
  897SOL     OW 2689   0.407   1.757   1.968  0.1390  0.6119 -0.4451
  897SOL    HW1 2690   0.441   1.713   1.885 -2.6883 -1.7377 -1.2172
  897SOL    HW2 2691   0.468   1.742   2.044 -1.2756 -0.1717 -3.6137
  898SOL     OW 2692   2.485   1.612   1.739  0.3502 -0.2384 -0.1868
  898SOL    HW1 2693   2.466   1.679   1.816  0.1880 -0.3347 -0.5798
  898SOL    HW2 2694   2.438   1.643   1.654  1.6371 -1.3366  2.7584
  899SOL     OW 2695   1.435   2.766   1.538 -0.2318 -0.4958 -0.2396
  899SOL    HW1 2696   1.505   2.693   1.558 -0.6774 -3.0765  1.1291
  899SOL    HW2 2697   1.478   2.857   1.530  2.4050  0.7071  1.9615
  900SOL     OW 2698   1.200   1.002   2.896  0.4151 -0.5219 -0.4301
  900SOL    HW1 2699   1.133   1.008   2.824  1.1590 -0.8620  5.4384
  900SOL    HW2 2700   1.209   0.902   2.919  1.1498 -1.0194 -2.6225
  901SOL     OW 2701   0.867   1.279   2.301  0.1445  0.6669  0.2544
  901SOL    HW1 2702   0.907   1.221   2.225  1.3113  0.6250 -0.8797
  901SOL    HW2 2703   0.842   1.368   2.264  0.6977  0.2612 -1.0628
  902SOL     OW 2704   2.961   2.357   0.400 -0.4216  0.0653 -0.2895
  902SOL    HW1 2705   3.022   2.295   0.354 -2.3541  0.1595 -0.8257
  902SOL    HW2 2706   2.877   2.365   0.343  0.3132 -1.3977  2.2474
  903SOL     OW 2707   2.515   1.043   1.815 -0.4818 -0.4358  0.3937
  903SOL    HW1 2708   2.608   1.080   1.796 -1.0510 -0.5257 -1.5235
  903SOL    HW2 2709   2.498   1.059   1.913  1.8371 -0.5205 -2.0777
  904SOL     OW 2710   1.838   0.741   0.056  0.2362  0.4521 -0.2631
  904SOL    HW1 2711   1.774   0.802   0.003  0.2960 -1.5170  1.8246
  904SOL    HW2 2712   1.929   0.784   0.069  0.1843  0.3707  1.4404
  905SOL     OW 2713   2.365   2.572   1.173 -0.4666 -0.5289 -0.4868
  905SOL    HW1 2714   2.375   2.601   1.273  2.0512  0.7338  1.5271
  905SOL    HW2 2715   2.335   2.476   1.164 -0.4196  1.9717 -3.3469
  906SOL     OW 2716   1.487   2.079   0.087  0.1711 -0.4267  0.1318
  906SOL    HW1 2717   1.463   2.177   0.096  0.5590 -0.7244 -1.8749
  906SOL    HW2 2718   1.417   2.027   0.139  0.0230  3.7450  1.0705
  907SOL     OW 2719   0.745   2.565   0.704 -0.1071 -0.4088  0.3724
  907SOL    HW1 2720   0.647   2.591   0.713 -0.0030  2.0859  0.3868
  907SOL    HW2 2721   0.782   2.490   0.758  0.9019  0.1391 -1.4521
  908SOL     OW 2722   0.995   2.774   2.067 -0.1698 -0.1246 -0.0828
  908SOL    HW1 2723   0.988   2.829   1.980  1.2916 -1.0705 -0.6478
  908SOL    HW2 2724   1.077   2.714   2.052  1.8931 -1.5974 -0.5831
  909SOL     OW 2725   1.861   0.353   1.495  0.1499 -0.2808 -1.0472
  909SOL    HW1 2726   1.783   0.369   1.431  2.9838 -1.5921 -0.6860
  909SOL    HW2 2727   1.896   0.258   1.486  0.4619  1.8732  2.3067
  910SOL     OW 2728   1.196   0.418   2.573 -0.3877  0.1654  0.0816
  910SOL    HW1 2729   1.198   0.488   2.643 -3.2928  0.2786  0.9181
  910SOL    HW2 2730   1.266   0.429   2.499  0.5579  0.3232  1.8253
  911SOL     OW 2731   2.770   0.611   0.141 -0.4736 -0.3413  0.0875
  911SOL    HW1 2732   2.755   0.703   0.183 -1.2920 -0.6051  1.2817
  911SOL    HW2 2733   2.864   0.570   0.156  0.6438 -2.3665  0.3920
  912SOL     OW 2734   2.917   2.344   3.012 -0.6254 -0.2955 -0.0053
  912SOL    HW1 2735   2.926   2.239   3.008  1.6959  1.6110  2.8209
  912SOL    HW2 2736   2.987   2.378   3.083 -3.6140 -1.3552 -0.0194
  913SOL     OW 2737   2.745   2.085   2.789  0.2449 -0.0304  0.0529
  913SOL    HW1 2738   2.712   2.174   2.756 -1.9479 -1.2927 -3.0344
  913SOL    HW2 2739   2.845   2.084   2.777 -0.7903 -0.6582 -0.5104
  914SOL     OW 2740   1.458   1.787   1.665  0.3951  0.4776  0.2031
  914SOL    HW1 2741   1.483   1.714   1.595  0.9157 -0.3663 -2.1852
  914SOL    HW2 2742   1.406   1.863   1.623 -0.3066  1.4777 -0.4543
  915SOL     OW 2743   0.313   2.660   1.974 -0.1131 -0.5544 -0.0542
  915SOL    HW1 2744   0.241   2.646   2.048  1.4732  1.8445 -1.5474
  915SOL    HW2 2745   0.402   2.627   2.006  0.1747 -0.7106  0.5692
  916SOL     OW 2746   0.472   1.113   1.622 -0.1400 -0.3024  0.0194
  916SOL    HW1 2747   0.424   1.051   1.562  1.1079  1.0350  1.1710
  916SOL    HW2 2748   0.410   1.179   1.668  0.5054 -1.2561 -4.3812
  917SOL     OW 2749   2.401   0.254   0.160  0.1356 -0.1367  0.0894
  917SOL    HW1 2750   2.439   0.208   0.242  0.2432  2.6679 -0.4002
  917SOL    HW2 2751   2.473   0.294   0.104  0.9175 -2.1984  4.2469
  918SOL     OW 2752   1.533   2.407   2.284 -0.2682  0.4634 -0.5455
  918SOL    HW1 2753   1.539   2.308   2.286 -0.2587  1.8227  0.4172
  918SOL    HW2 2754   1.435   2.438   2.276  3.7391 -0.3205 -0.0398
  919SOL     OW 2755   1.613   2.595   1.649 -0.4763  0.6125  0.3863
  919SOL    HW1 2756   1.602   2.521   1.581 -0.9040  0.4242  2.5262
  919SOL    HW2 2757   1.698   2.576   1.704  0.9373 -0.0157  1.9958
  920SOL     OW 2758   0.806   1.041   2.953 -0.0982 -0.8828 -0.1001
  920SOL    HW1 2759   0.741   1.103   2.906  2.5261  2.2328  4.1547
  920SOL    HW2 2760   0.787   1.038   3.056 -1.6843 -0.6017  0.2879
  921SOL     OW 2761   0.064   0.906   2.493 -0.5139 -0.3439  0.0775
  921SOL    HW1 2762   0.025   0.980   2.438 -0.2095  0.4961 -0.2976
  921SOL    HW2 2763   0.065   0.818   2.445  0.0615  1.8504  2.5381
  922SOL     OW 2764   0.775   1.878   0.374  0.3051 -0.1230 -0.4495
  922SOL    HW1 2765   0.871   1.837   0.370  0.7502 -2.2171 -2.5861
  922SOL    HW2 2766   0.759   1.910   0.468  3.1809 -0.6817 -0.2084
  923SOL     OW 2767   0.531   0.835   1.848  0.2069 -0.1814 -0.4230
  923SOL    HW1 2768   0.467   0.860   1.770  0.6896 -0.1735 -1.4609
  923SOL    HW2 2769   0.600   0.763   1.823  1.1414  0.2952  0.0473
  924SOL     OW 2770   1.350   2.964   2.811  0.1225  0.1744 -0.4039
  924SOL    HW1 2771   1.292   3.031   2.763 -0.8607  0.4202  0.1124
  924SOL    HW2 2772   1.424   2.997   2.873  1.2509 -0.9141  0.3754
  925SOL     OW 2773   2.705   1.397   1.497 -0.1052 -0.1209  0.2148
  925SOL    HW1 2774   2.617   1.408   1.447  3.1515  0.3096  1.0000
  925SOL    HW2 2775   2.684   1.389   1.596 -0.3763 -0.0067 -0.5440
  926SOL     OW 2776   2.266   0.579   1.731  0.0613 -0.0224  0.2815
  926SOL    HW1 2777   2.333   0.629   1.787 -3.1270  2.1462 -0.5135
  926SOL    HW2 2778   2.234   0.637   1.656  0.4108 -2.2222  1.8650
  927SOL     OW 2779   2.509   2.492   1.733 -0.5114  0.2232 -0.0364
  927SOL    HW1 2780   2.590   2.507   1.793  4.0398  1.9103  0.2156
  927SOL    HW2 2781   2.528   2.425   1.658 -0.3601 -3.4644 -1.5206
  928SOL     OW 2782   0.281   0.746   2.256  0.0247 -0.3238  0.2565
  928SOL    HW1 2783   0.179   0.749   2.268 -2.3496  1.9192 -0.4301
  928SOL    HW2 2784   0.325   0.836   2.267 -1.9473  1.8621  0.5781
  929SOL     OW 2785   2.519   0.140   0.889 -0.2741  0.3432 -0.3736
  929SOL    HW1 2786   2.559   0.046   0.888  1.0130  1.5273 -1.8237
  929SOL    HW2 2787   2.417   0.133   0.869 -1.8157 -1.6312 -0.4326
  930SOL     OW 2788   2.820   2.971   1.508  0.3118 -0.0350 -0.1290
  930SOL    HW1 2789   2.744   2.902   1.525 -1.6625 -2.4817  1.0190
  930SOL    HW2 2790   2.800   3.024   1.418 -2.3579  1.4314 -4.2106
  931SOL     OW 2791   2.096   0.911   0.416  0.0534 -0.1465  0.1867
  931SOL    HW1 2792   2.030   0.979   0.376 -1.1766  2.3988 -1.3814
  931SOL    HW2 2793   2.189   0.907   0.369 -0.0967 -2.0970 -0.5979
  932SOL     OW 2794   2.315   1.397   1.914  0.0320  0.1914  0.2522
  932SOL    HW1 2795   2.351   1.435   1.831  0.5324 -2.0379 -2.0643
  932SOL    HW2 2796   2.248   1.325   1.895  2.7256 -0.4762 -0.2491
  933SOL     OW 2797   3.029   2.080   1.378 -0.0012 -0.0967 -0.4492
  933SOL    HW1 2798   3.052   2.177   1.407  2.5400  0.9940  1.5710
  933SOL    HW2 2799   0.013   2.046   1.336  1.2608  0.9737 -0.6477
  934SOL     OW 2800   0.721   1.921   1.605  0.4215 -0.4295 -0.1807
  934SOL    HW1 2801   0.736   1.984   1.526  2.5997 -1.7828 -2.2148
  934SOL    HW2 2802   0.738   1.968   1.694 -0.2220  2.7716 -0.5821
  935SOL     OW 2803   2.874   1.604   2.148  0.2154 -0.3580  0.0389
  935SOL    HW1 2804   2.806   1.539   2.107  0.4407 -1.1752  0.6379
  935SOL    HW2 2805   2.825   1.686   2.178  0.5611 -2.5615  0.5552
  936SOL     OW 2806   2.692   1.428   2.055  0.8078  0.2254 -0.2034
  936SOL    HW1 2807   2.623   1.375   2.114  0.2460 -1.7843  0.7315
  936SOL    HW2 2808   2.661   1.439   1.959  0.6733 -2.0179  0.2175
  937SOL     OW 2809   1.877   1.502   2.024  0.2928  0.2817  0.0984
  937SOL    HW1 2810   1.910   1.414   1.985 -0.8229 -0.8291 -1.1036
  937SOL    HW2 2811   1.950   1.570   2.004  1.3808 -0.3398  3.3476
  938SOL     OW 2812   0.628   2.320   2.498 -0.4063  0.4225  0.3008
  938SOL    HW1 2813   0.604   2.338   2.595 -0.7898  1.9016 -1.0518
  938SOL    HW2 2814   0.684   2.232   2.501  2.2273  0.0307 -0.1346
  939SOL     OW 2815   2.304   1.061   2.854  0.4144  0.1645  0.3798
  939SOL    HW1 2816   2.247   1.001   2.794 -0.5758  0.7777 -0.2171
  939SOL    HW2 2817   2.246   1.129   2.903 -1.1728 -2.6673  2.4183
  940SOL     OW 2818   1.167   1.765   0.662 -0.4331  0.0422 -0.2325
  940SOL    HW1 2819   1.193   1.668   0.644 -0.6359  1.0027 -1.5243
  940SOL    HW2 2820   1.238   1.816   0.719 -1.1096 -3.0977  0.0670
  941SOL     OW 2821   1.383   2.726   2.375 -0.2617  0.0842  0.8648
  941SOL    HW1 2822   1.374   2.723   2.478  0.3503 -0.2325  2.3908
  941SOL    HW2 2823   1.367   2.633   2.336 -0.3577 -1.6654 -0.8403
  942SOL     OW 2824   0.629   2.278   0.393  0.0370 -0.2022  0.3406
  942SOL    HW1 2825   0.640   2.329   0.302  1.0607  0.9057 -1.5083
  942SOL    HW2 2826   0.718   2.256   0.432 -4.2253 -0.7949 -0.2974
  943SOL     OW 2827   1.770   2.822   1.730  0.2935  0.1107 -0.0920
  943SOL    HW1 2828   1.702   2.750   1.707 -0.6485  2.4363 -1.6798
  943SOL    HW2 2829   1.840   2.837   1.659 -1.8135 -0.0691  1.6563
  944SOL     OW 2830   0.983   1.539   2.935 -0.2929 -0.3886  0.1802
  944SOL    HW1 2831   1.071   1.557   2.893 -3.6895 -0.5090 -0.1265
  944SOL    HW2 2832   0.926   1.481   2.877  0.1680  0.2069  2.4399
  945SOL     OW 2833   3.049   2.431   0.856 -0.9130  0.3470  0.2103
  945SOL    HW1 2834   3.049   2.364   0.933  1.7392 -1.4372  0.9776
  945SOL    HW2 2835   2.985   2.390   0.788 -0.2144 -0.2811 -1.1832
  946SOL     OW 2836   0.825   1.398   2.735  0.0634  0.0602  0.0861
  946SOL    HW1 2837   0.747   1.353   2.775  1.6175  4.0047 -2.2631
  946SOL    HW2 2838   0.892   1.332   2.698 -1.3183  2.3600  1.2699
  947SOL     OW 2839   2.728   0.038   1.835  0.8554  0.5078  0.0806
  947SOL    HW1 2840   2.825   0.048   1.819 -2.0803 -1.7082 -1.8518
  947SOL    HW2 2841   2.679   0.115   1.794 -0.7168 -3.3207  0.2378
  948SOL     OW 2842   0.372   1.818   1.185  0.5357 -0.4743 -0.2757
  948SOL    HW1 2843   0.412   1.864   1.101 -1.2908 -0.8734 -0.5434
  948SOL    HW2 2844   0.444   1.823   1.260  0.5154  1.7875  3.1994
  949SOL     OW 2845   0.842   0.878   1.805 -0.7380  0.2011  0.4269
  949SOL    HW1 2846   0.942   0.878   1.778  0.2759  0.9237  0.0150
  949SOL    HW2 2847   0.782   0.922   1.739  1.6260  1.3901  1.0761
  950SOL     OW 2848   0.062   0.936   1.130 -0.0679 -0.0712 -0.2094
  950SOL    HW1 2849   0.125   0.854   1.146  0.1486  2.4219 -0.0313
  950SOL    HW2 2850   3.071   0.906   1.119  1.1852  0.9750 -0.6454
  951SOL     OW 2851   0.414   1.976   2.308  0.3020  0.7189  0.7840
  951SOL    HW1 2852   0.349   2.047   2.285  0.5203  0.8568  1.8803
  951SOL    HW2 2853   0.405   1.947   2.404 -2.0519  0.9808 -2.0114
  952SOL     OW 2854   1.476   2.241   0.569  0.9158 -0.2780 -0.0258
  952SOL    HW1 2855   1.569   2.223   0.529  1.1502  2.1013  1.9527
  952SOL    HW2 2856   1.400   2.224   0.504 -0.8544  0.3734  0.3082
  953SOL     OW 2857   1.067   0.705   0.259 -0.4956 -0.2447 -0.2854
  953SOL    HW1 2858   1.016   0.714   0.350  1.0009 -1.2088  1.6981
  953SOL    HW2 2859   1.007   0.719   0.183  0.7711 -3.2752  2.7978
  954SOL     OW 2860   2.247   0.889   0.994 -0.0932  0.1015  0.7994
  954SOL    HW1 2861   2.321   0.944   1.034 -1.6521 -0.9693  0.1376
  954SOL    HW2 2862   2.161   0.939   1.003 -0.3251  0.9935 -1.1981
  955SOL     OW 2863   2.375   1.465   0.558 -0.5425 -0.0224  0.1266
  955SOL    HW1 2864   2.309   1.464   0.482  1.9894  0.2271 -1.4581
  955SOL    HW2 2865   2.469   1.484   0.523  0.1270  1.8487 -0.7628
  956SOL     OW 2866   0.866   0.348   1.770 -0.0566  0.0565  0.2196
  956SOL    HW1 2867   0.876   0.375   1.871 -0.0616 -1.4291 -1.5121
  956SOL    HW2 2868   0.898   0.426   1.715 -0.9323  0.2261  2.7995
  957SOL     OW 2869   1.862   0.697   1.065  0.0907 -0.1960  0.1427
  957SOL    HW1 2870   1.796   0.706   1.141  0.2352 -1.3351 -0.7891
  957SOL    HW2 2871   1.850   0.760   0.990 -2.0227  1.6695  1.8105
  958SOL     OW 2872   0.023   2.041   0.639  0.3354 -0.4571  0.4893
  958SOL    HW1 2873   0.044   1.986   0.552 -1.7560 -0.2407 -0.8257
  958SOL    HW2 2874   0.100   2.106   0.664  1.3055  1.7539  1.0259
  959SOL     OW 2875   1.898   1.636   1.625 -0.1032  0.0440  0.0451
  959SOL    HW1 2876   1.941   1.693   1.699 -1.1221 -0.2668 -2.2668
  959SOL    HW2 2877   1.974   1.591   1.569 -0.2510  0.6397  2.4286
  960SOL     OW 2878   0.009   1.895   3.047 -0.0627 -0.3849  0.4492
  960SOL    HW1 2879   0.089   1.838   3.070 -1.5767  0.7760 -1.6486
  960SOL    HW2 2880   3.039   1.834   3.008 -3.7753 -0.9391  1.3656
  961SOL     OW 2881   0.842   1.672   1.009  0.3630  0.1367 -0.4198
  961SOL    HW1 2882   0.927   1.658   1.066 -0.2728  1.3336  3.5093
  961SOL    HW2 2883   0.863   1.726   0.923 -0.9594  0.5538 -3.5391
  962SOL     OW 2884   0.750   1.306   0.651  0.5457  0.6102 -0.5843
  962SOL    HW1 2885   0.646   1.302   0.665 -0.5954 -3.9418  0.1864
  962SOL    HW2 2886   0.798   1.279   0.735  2.4626 -1.5018  1.4972
  963SOL     OW 2887   0.901   1.886   2.409  0.5318 -0.1113  0.3099
  963SOL    HW1 2888   0.905   1.866   2.502 -0.1332  0.0161 -3.3642
  963SOL    HW2 2889   0.993   1.894   2.369 -2.9588  1.2519  0.5472
  964SOL     OW 2890   0.224   2.925   1.937  0.4368  0.0585  0.0356
  964SOL    HW1 2891   0.194   2.929   1.838  0.6214 -1.0672 -1.1323
  964SOL    HW2 2892   0.244   2.832   1.965 -0.9800 -0.7836 -1.7563
  965SOL     OW 2893   0.796   2.171   0.064 -0.1125  0.2531  0.2601
  965SOL    HW1 2894   0.735   2.232   0.122 -1.1613 -1.8755 -3.5346
  965SOL    HW2 2895   0.738   2.105   0.007 -0.2988 -0.9872  0.4355
  966SOL     OW 2896   2.972   1.753   0.398 -0.1604 -0.2210  0.3561
  966SOL    HW1 2897   2.966   1.654   0.401  0.3205  1.6956  0.6289
  966SOL    HW2 2898   2.922   1.790   0.319 -1.2730  1.0199 -1.8572
  967SOL     OW 2899   2.107   2.458   2.890 -0.0756 -0.3248 -0.0848
  967SOL    HW1 2900   2.089   2.391   2.816  0.5873  3.5131 -1.3167
  967SOL    HW2 2901   2.059   2.421   2.978 -2.5333 -0.4861  3.1144
  968SOL     OW 2902   2.233   2.847   1.129  0.0146 -0.2309 -0.5332
  968SOL    HW1 2903   2.220   2.892   1.221  1.0813 -1.8368  1.2238
  968SOL    HW2 2904   2.304   2.778   1.161  0.4119  0.0616 -0.0996
  969SOL     OW 2905   0.218   1.020   2.043 -0.3253  0.4505 -0.0489
  969SOL    HW1 2906   0.279   0.998   2.124  0.5365 -0.2869  1.8908
  969SOL    HW2 2907   0.236   1.116   2.012 -1.4647  1.4564  0.4908
  970SOL     OW 2908   1.834   1.148   0.560 -0.1090  0.5801 -0.1970
  970SOL    HW1 2909   1.913   1.116   0.609 -0.7153  3.5236  2.2759
  970SOL    HW2 2910   1.789   1.070   0.509 -0.2377  0.6552 -1.7371
  971SOL     OW 2911   2.483   2.803   1.603 -0.4199 -0.4723 -0.6412
  971SOL    HW1 2912   2.517   2.780   1.693 -1.5276 -0.9150 -0.3490
  971SOL    HW2 2913   2.452   2.900   1.601  3.9528 -1.1809 -0.5009
  972SOL     OW 2914   2.976   0.370   1.289  0.4822  0.3106 -0.5404
  972SOL    HW1 2915   2.935   0.305   1.220 -1.6821  0.9745 -1.0396
  972SOL    HW2 2916   2.905   0.426   1.338 -0.9942  0.9512  0.4314
  973SOL     OW 2917   0.213   0.417   2.622 -0.7664  0.4113 -0.2314
  973SOL    HW1 2918   0.250   0.450   2.539 -3.6768 -1.8845  2.2280
  973SOL    HW2 2919   0.112   0.426   2.625  1.1936  1.1037  2.4254
  974SOL     OW 2920   2.460   1.110   2.073  0.0357  0.0128  0.3641
  974SOL    HW1 2921   2.361   1.096   2.064  2.1414 -0.7784  2.1747
  974SOL    HW2 2922   2.472   1.201   2.112  2.8292  0.8737  1.2233
  975SOL     OW 2923   1.133   0.389   1.516  0.2228  0.4032  0.5508
  975SOL    HW1 2924   1.123   0.292   1.481  1.8827  1.3641  3.3977
  975SOL    HW2 2925   1.166   0.386   1.614 -0.5198 -2.8125  3.3603
  976SOL     OW 2926   1.025   1.526   1.543  0.1067  0.0079 -0.0815
  976SOL    HW1 2927   1.098   1.575   1.488  2.4811 -1.5074 -0.9095
  976SOL    HW2 2928   0.935   1.562   1.524  1.7737 -0.9303  1.6415
  977SOL     OW 2929   0.982   3.013   0.078  0.3270 -0.1201 -0.2466
  977SOL    HW1 2930   0.961   2.978   3.084  2.4671  1.4410 -1.3998
  977SOL    HW2 2931   1.016   0.003   0.061 -0.5745 -1.5124 -0.3848
  978SOL     OW 2932   2.494   1.357   2.232 -0.0499  0.3482 -0.2299
  978SOL    HW1 2933   2.489   1.457   2.248  0.3244 -1.1225  1.1884
  978SOL    HW2 2934   2.471   1.309   2.324 -1.8855 -0.4330  0.5430
  979SOL     OW 2935   1.542   0.365   1.976  0.3725 -0.0534  0.0564
  979SOL    HW1 2936   1.523   0.463   1.954 -1.8505  1.2982 -0.2045
  979SOL    HW2 2937   1.598   0.322   1.902 -0.4769  2.0605 -1.5010
  980SOL     OW 2938   1.482   1.710   1.922 -0.3238 -0.2906  0.4522
  980SOL    HW1 2939   1.479   1.740   1.826  0.7096  1.2228  2.5374
  980SOL    HW2 2940   1.407   1.645   1.942  1.9055  2.0334 -0.1617
  981SOL     OW 2941   2.399   1.125   1.393 -0.2076 -0.2704  0.2306
  981SOL    HW1 2942   2.494   1.082   1.393  1.5770 -1.3351 -0.0318
  981SOL    HW2 2943   2.339   1.069   1.455 -2.1725 -2.0483 -0.7338
  982SOL     OW 2944   0.437   0.260   2.957  0.1561 -0.5304 -0.6294
  982SOL    HW1 2945   0.411   0.249   2.859  1.6040 -2.6933  0.1579
  982SOL    HW2 2946   0.441   0.173   3.006  3.4168  0.9284  0.8339
  983SOL     OW 2947   2.257   0.617   2.711 -1.0520  0.4439  0.3519
  983SOL    HW1 2948   2.203   0.541   2.670  3.1461  0.7319  1.9415
  983SOL    HW2 2949   2.198   0.698   2.728  4.0748  2.2744  1.1740
  984SOL     OW 2950   0.822   0.108   2.002 -0.1696 -0.4204  0.1659
  984SOL    HW1 2951   0.865   0.060   2.081 -1.5009  1.8850 -1.0515
  984SOL    HW2 2952   0.882   0.099   1.921 -0.5194  0.3115  4.8140
  985SOL     OW 2953   1.403   1.919   2.135  0.0870 -0.3519 -0.3233
  985SOL    HW1 2954   1.459   1.862   2.072  0.7071 -0.9995 -0.5732
  985SOL    HW2 2955   1.459   1.946   2.214  0.1623 -2.0131  0.6802
  986SOL     OW 2956   2.221   0.188   1.832  0.6705  0.2656  0.4188
  986SOL    HW1 2957   2.155   0.248   1.879  0.7333  2.6866 -1.7496
  986SOL    HW2 2958   2.250   0.230   1.744  0.9573  1.6007 -0.5755
  987SOL     OW 2959   2.454   1.391   1.377  0.5825 -0.0979  0.4880
  987SOL    HW1 2960   2.452   1.431   1.284 -0.1586 -1.2115  3.2674
  987SOL    HW2 2961   2.420   1.297   1.386  1.3996  1.3234  1.5890
  988SOL     OW 2962   2.365   2.023   1.930  0.2937 -0.8323  0.6996
  988SOL    HW1 2963   2.431   2.098   1.922 -1.0879  0.7727  1.2566
  988SOL    HW2 2964   2.269   2.060   1.925  0.1746 -1.3048  1.6345
  989SOL     OW 2965   1.133   2.663   0.214  0.0159  0.2321 -0.4019
  989SOL    HW1 2966   1.051   2.723   0.238  1.0505  1.2300 -1.1955
  989SOL    HW2 2967   1.101   2.572   0.185  2.1004  1.9376 -0.6645
  990SOL     OW 2968   1.689   0.893   2.986 -0.2507  0.0838  0.0334
  990SOL    HW1 2969   1.738   0.908   2.895  1.6473  1.3876 -0.4560
  990SOL    HW2 2970   1.604   0.944   3.003  1.7791  0.9770  0.1707
  991SOL     OW 2971   0.967   0.558   0.637 -0.2386 -0.1974  0.0179
  991SOL    HW1 2972   0.984   0.587   0.734  1.7115 -2.0155  2.0798
  991SOL    HW2 2973   1.056   0.552   0.584  0.2662 -2.0778 -0.7230
  992SOL     OW 2974   2.656   0.972   1.386 -0.1899  0.0101  0.0066
  992SOL    HW1 2975   2.697   0.906   1.450  0.6334 -1.5070 -0.2274
  992SOL    HW2 2976   2.725   1.036   1.346 -1.5394  0.1360 -4.0033
  993SOL     OW 2977   2.558   0.721   1.690 -0.2878 -0.2134 -0.1006
  993SOL    HW1 2978   2.493   0.733   1.615 -2.7063 -0.8926 -0.1605
  993SOL    HW2 2979   2.640   0.778   1.669 -0.2100 -1.9762  1.0320
  994SOL     OW 2980   0.598   2.013   2.746  0.0545 -0.4479 -0.0545
  994SOL    HW1 2981   0.676   2.046   2.678  2.4502  3.9912 -0.2113
  994SOL    HW2 2982   0.531   1.950   2.700  2.4536 -0.1427 -1.9888
  995SOL     OW 2983   1.971   1.183   2.758  0.5248 -0.0284  0.2633
  995SOL    HW1 2984   1.996   1.245   2.679 -1.0065 -0.3165 -0.5572
  995SOL    HW2 2985   2.006   1.091   2.744 -2.4205 -1.9202 -0.0124
  996SOL     OW 2986   2.362   1.738   0.348  0.0382 -0.9451 -0.6288
  996SOL    HW1 2987   2.292   1.667   0.368  0.4113  0.6237  1.3792
  996SOL    HW2 2988   2.395   1.787   0.433  2.1898  0.6742  0.4451
  997SOL     OW 2989   2.112   0.652   2.210  0.2811  0.5241  0.1663
  997SOL    HW1 2990   2.155   0.701   2.131 -0.1699  2.2882 -1.0071
  997SOL    HW2 2991   2.090   0.558   2.186  1.0574  2.6831  1.4445
  998SOL     OW 2992   2.606   1.085   0.359  0.6615 -0.0162  0.0507
  998SOL    HW1 2993   2.611   1.162   0.292 -1.1812  1.6583  0.6011
  998SOL    HW2 2994   2.517   1.076   0.409 -1.3584  0.0322  2.3577
  999SOL     OW 2995   2.900   1.994   0.802  0.5651 -0.0929  0.0597
  999SOL    HW1 2996   2.852   2.028   0.888  1.2152 -1.1690 -0.7348
  999SOL    HW2 2997   3.001   2.012   0.798  0.2571  0.0915  0.0279
 1000SOL     OW 2998   0.960   0.782   2.307  0.3388  0.0475 -0.4707
 1000SOL    HW1 2999   1.015   0.753   2.387 -2.1396  0.7290 -1.4017
 1000SOL    HW2 3000   0.870   0.826   2.334 -4.5544  1.6505  0.3652
   3.10284   3.10284   3.10284
