1000 SPC/Fw water molecules t= 174.00000 step= 174000
 3000
    1SOL     OW    1   2.700   2.892   0.887  0.1834 -0.0016  0.2679
    1SOL    HW1    2   2.629   2.968   0.862  0.0437  3.1183 -2.0165
    1SOL    HW2    3   2.738   2.853   0.797 -0.1454  1.1290 -1.4783
    2SOL     OW    4   1.680   1.708   2.055 -0.2122 -0.1051 -0.2670
    2SOL    HW1    5   1.602   1.653   2.020  1.8483  0.3130  0.1382
    2SOL    HW2    6   1.721   1.659   2.139  0.0271  0.4295  0.8948
    3SOL     OW    7   1.818   2.606   2.262 -0.5268 -0.0426 -0.4440
    3SOL    HW1    8   1.898   2.660   2.225 -1.8253 -0.7688 -0.0046
    3SOL    HW2    9   1.736   2.664   2.287  1.3334  0.2432  1.1336
    4SOL     OW   10   1.904   2.038   1.994  0.6958  0.1693  0.1503
    4SOL    HW1   11   1.949   2.019   2.085 -0.4856 -0.7264  1.7860
    4SOL    HW2   12   1.856   2.125   1.989  2.5523 -3.0870 -0.9663
    5SOL     OW   13   1.056   0.615   1.936 -0.7947  0.3300 -0.0009
    5SOL    HW1   14   1.132   0.602   1.873 -0.1750  1.0864 -1.5576
    5SOL    HW2   15   0.989   0.682   1.908  2.8033 -1.9112 -1.6908
    6SOL     OW   16   2.497   0.948   3.073  0.0373  0.2740  0.3954
    6SOL    HW1   17   2.483   0.856   3.030  1.5236 -0.0385  2.0238
    6SOL    HW2   18   2.443   1.021   3.024 -1.7267  1.9138 -1.8873
    7SOL     OW   19   1.241   0.887   1.521  0.3558 -0.0613 -0.3532
    7SOL    HW1   20   1.262   0.785   1.540  0.4663 -4.7182 -0.3562
    7SOL    HW2   21   1.143   0.905   1.532  1.5205  0.1637  1.8044
    8SOL     OW   22   1.110   3.060   1.147  0.9038  0.3831 -0.0755
    8SOL    HW1   23   1.105   0.008   1.200 -1.6409 -3.2820 -1.3043
    8SOL    HW2   24   1.124   2.977   1.206 -0.8165  3.2238  1.3627
    9SOL     OW   25   0.861   0.936   0.076 -0.9120  0.2543 -0.2978
    9SOL    HW1   26   0.811   1.022   0.089 -0.0496  0.3273 -0.5041
    9SOL    HW2   27   0.916   0.916   0.160 -1.5005 -0.6458 -0.0249
   10SOL     OW   28   0.421   2.930   0.155  0.0277  0.2756  0.5574
   10SOL    HW1   29   0.414   2.857   0.226 -2.4214 -0.5067  2.7611
   10SOL    HW2   30   0.372   2.908   0.067 -0.1838  0.8557 -1.0624
   11SOL     OW   31   0.281   1.360   3.102  0.1712 -0.0468 -0.3999
   11SOL    HW1   32   0.341   1.392   3.029  0.9965  0.5560 -1.4039
   11SOL    HW2   33   0.199   1.415   3.100  0.9968 -0.7238 -0.9437
   12SOL     OW   34   0.695   3.075   1.400  0.3106  0.3015  0.0464
   12SOL    HW1   35   0.633   0.014   1.427  0.8983  2.3170  0.6250
   12SOL    HW2   36   0.668   2.982   1.431  1.8621 -0.5391  1.1970
   13SOL     OW   37   0.860   2.876   0.425 -0.2664  0.2422 -0.3452
   13SOL    HW1   38   0.927   2.931   0.477 -1.8053 -3.0093  2.1828
   13SOL    HW2   39   0.801   2.929   0.361 -0.5490 -1.6075  0.3422
   14SOL     OW   40   1.054   2.173   1.264 -0.2850  0.6249 -0.0712
   14SOL    HW1   41   1.004   2.135   1.348 -2.0831 -1.3452  3.4730
   14SOL    HW2   42   1.131   2.111   1.236  1.5365  1.8938  0.4596
   15SOL     OW   43   2.754   0.863   2.450  0.3064 -0.3868  0.2908
   15SOL    HW1   44   2.674   0.923   2.482 -2.4967  2.7797 -1.7364
   15SOL    HW2   45   2.725   0.767   2.458  0.5332  0.8868  0.6999
   16SOL     OW   46   1.261   2.892   2.722  0.2803 -0.3883  0.5978
   16SOL    HW1   47   1.324   2.847   2.655 -0.1758  2.0183  3.3384
   16SOL    HW2   48   1.269   2.854   2.820 -0.5855 -0.8493  1.9326
   17SOL     OW   49   0.944   2.975   1.600 -0.1937  0.5961  0.2090
   17SOL    HW1   50   0.884   2.977   1.683  0.0337  0.3935  2.3814
   17SOL    HW2   51   0.964   3.070   1.567  1.0397  0.2921  0.2931
   18SOL     OW   52   1.311   0.757   0.204  0.7019  0.1290  0.3279
   18SOL    HW1   53   1.311   0.731   0.103  0.2982 -1.4720  0.5688
   18SOL    HW2   54   1.286   0.679   0.267 -1.8036 -0.2390 -1.4419
   19SOL     OW   55   2.168   1.653   2.841  0.2590  0.1984  0.0325
   19SOL    HW1   56   2.104   1.654   2.920 -0.3001 -2.6347 -1.3777
   19SOL    HW2   57   2.193   1.753   2.810  1.7068 -0.0573 -1.5741
   20SOL     OW   58   2.142   1.918   1.884 -0.0924  0.4797 -0.1101
   20SOL    HW1   59   2.209   1.877   1.949  0.3665 -3.2995  0.4281
   20SOL    HW2   60   2.056   1.946   1.924  2.2125  2.9193  2.7479
   21SOL     OW   61   0.508   1.431   2.913 -0.1645 -0.0202 -0.1495
   21SOL    HW1   62   0.595   1.375   2.927  1.0310  0.7366  1.1924
   21SOL    HW2   63   0.450   1.405   2.834 -1.2702  0.7835 -0.8066
   22SOL     OW   64   2.683   3.010   1.483  0.2526  0.0638  0.0574
   22SOL    HW1   65   2.611   2.940   1.460 -0.7077 -0.7157  1.0827
   22SOL    HW2   66   2.670   3.094   1.426  0.8910 -0.7054  0.5021
   23SOL     OW   67   2.964   0.878   1.832  0.7071 -0.4343  0.2773
   23SOL    HW1   68   2.886   0.943   1.820  0.5722  1.2121 -1.5946
   23SOL    HW2   69   3.000   0.842   1.743 -1.1238  0.1258 -0.0537
   24SOL     OW   70   2.596   2.018   1.376 -0.7430  0.2008 -0.4364
   24SOL    HW1   71   2.676   2.081   1.389 -0.7039  0.3440  0.4708
   24SOL    HW2   72   2.542   2.003   1.463  0.3053 -2.0089  0.8579
   25SOL     OW   73   2.023   2.896   2.593  0.2715 -0.0774 -0.4671
   25SOL    HW1   74   2.056   2.926   2.499 -1.4001  1.7139 -0.8381
   25SOL    HW2   75   2.005   2.796   2.602  1.9789  3.1672  0.1171
   26SOL     OW   76   1.212   0.098   2.995  0.0116 -0.6286  0.4998
   26SOL    HW1   77   1.262   0.046   3.070  0.0860  0.5033 -1.1658
   26SOL    HW2   78   1.238   0.073   2.895  3.7650 -1.1479 -1.6366
   27SOL     OW   79   0.668   2.152   2.971  0.2231  0.2939  0.5660
   27SOL    HW1   80   0.684   2.230   3.039  2.5102  2.6928  2.4221
   27SOL    HW2   81   0.618   2.188   2.891 -2.0231  0.2141 -2.0570
   28SOL     OW   82   3.064   1.593   1.265  0.3611  0.0168 -0.1200
   28SOL    HW1   83   3.004   1.537   1.200  0.3708 -0.8024 -1.5043
   28SOL    HW2   84   0.024   1.599   1.243 -0.3532 -0.8442  0.4616
   29SOL     OW   85   2.699   2.041   2.185  0.4235 -0.1534  0.0461
   29SOL    HW1   86   2.694   1.966   2.258 -0.2602 -1.6235  0.9492
   29SOL    HW2   87   2.793   2.067   2.148 -1.4157  1.6281 -1.2119
   30SOL     OW   88   1.211   2.934   0.923 -0.3370 -0.4078 -0.3013
   30SOL    HW1   89   1.154   2.856   0.896  1.0422  1.7961  1.0929
   30SOL    HW2   90   1.177   2.977   1.012  1.1580  1.8076  0.4246
   31SOL     OW   91   0.111   2.350   2.161  0.0249 -0.2560 -0.1666
   31SOL    HW1   92   0.085   2.401   2.074 -1.0441  2.0479 -0.2496
   31SOL    HW2   93   0.153   2.260   2.135 -1.2980 -0.6637 -4.4225
   32SOL     OW   94   1.499   1.043   1.778 -0.2543  0.1615  0.4657
   32SOL    HW1   95   1.462   1.089   1.691 -0.3760  0.4292 -2.4796
   32SOL    HW2   96   1.462   1.086   1.860  0.8689 -1.9154 -0.5347
   33SOL     OW   97   0.357   2.736   2.412 -0.1707  0.7752 -0.2292
   33SOL    HW1   98   0.407   2.762   2.328 -0.9505  1.6448  3.1501
   33SOL    HW2   99   0.408   2.783   2.488  1.1685  2.3978 -0.2506
   34SOL     OW  100   1.878   0.128   1.073  0.5899  0.2231 -0.7783
   34SOL    HW1  101   1.811   0.085   1.009  1.9409  0.6999 -0.2451
   34SOL    HW2  102   1.901   0.220   1.034 -2.6209  0.5448  0.0317
   35SOL     OW  103   2.309   0.791   1.592  0.2963 -0.4356 -0.0310
   35SOL    HW1  104   2.261   0.852   1.523 -1.1718 -2.1153  0.0671
   35SOL    HW2  105   2.410   0.806   1.586 -2.4872  1.1505  1.4132
   36SOL     OW  106   2.492   2.457   2.166  0.1138 -0.1462 -0.1076
   36SOL    HW1  107   2.546   2.403   2.230 -1.7340 -3.0813 -1.4014
   36SOL    HW2  108   2.408   2.419   2.128 -0.3316  0.0406  2.4508
   37SOL     OW  109   0.915   2.381   2.404  0.1815  0.0987 -0.7567
   37SOL    HW1  110   1.017   2.378   2.421 -1.3585  0.5726  0.3589
   37SOL    HW2  111   0.873   2.355   2.493  3.2812 -1.8787  0.6253
   38SOL     OW  112   2.510   0.356   0.047  0.3399  0.7115 -0.2411
   38SOL    HW1  113   2.522   0.253   0.064 -0.1547  0.0540 -0.8832
   38SOL    HW2  114   2.484   0.368   3.088  1.3580 -1.1524 -0.3816
   39SOL     OW  115   2.277   1.634   2.143 -0.2022 -0.3404  0.0904
   39SOL    HW1  116   2.376   1.614   2.113  2.1778 -0.8624  0.7929
   39SOL    HW2  117   2.224   1.549   2.153 -1.3943  2.8355  0.4322
   40SOL     OW  118   3.043   2.994   2.639  0.0292  0.5765  0.3567
   40SOL    HW1  119   2.974   2.931   2.686 -0.5863  0.5288  0.2011
   40SOL    HW2  120   3.118   2.935   2.601 -0.1005  0.8316 -0.0644
   41SOL     OW  121   1.945   0.535   1.281 -0.0930  0.3863 -0.0189
   41SOL    HW1  122   1.933   0.531   1.181  0.9761  0.1375  0.9124
   41SOL    HW2  123   1.999   0.462   1.316  1.0201  4.1501  0.8986
   42SOL     OW  124   1.033   0.303   1.736 -0.2284  0.6067 -0.2769
   42SOL    HW1  125   1.025   0.407   1.734 -1.0388  1.2511  0.4690
   42SOL    HW2  126   0.951   0.269   1.791 -0.2800 -0.3171 -1.4126
   43SOL     OW  127   2.090   0.814   1.870  0.8579 -0.0969 -0.4629
   43SOL    HW1  128   2.162   0.878   1.847 -1.3954  0.2827  0.9654
   43SOL    HW2  129   2.013   0.831   1.804  3.4990 -3.6331  0.0086
   44SOL     OW  130   0.008   2.929   3.129 -0.3690  0.1688 -0.1330
   44SOL    HW1  131   3.063   2.869   0.006 -2.5886 -0.0641 -1.1188
   44SOL    HW2  132   3.118   3.014   3.077 -1.4283 -0.7073  2.4272
   45SOL     OW  133   0.206   2.379   1.771 -0.0130  0.3798  0.8664
   45SOL    HW1  134   0.137   2.418   1.833  1.6690  0.1367 -3.4611
   45SOL    HW2  135   0.263   2.460   1.741 -1.0782  4.3478  0.8081
   46SOL     OW  136   2.123   2.271   2.306 -0.5166 -0.5174 -0.0520
   46SOL    HW1  137   2.203   2.276   2.370 -1.3320  1.5818 -0.7914
   46SOL    HW2  138   2.137   2.334   2.231  1.0621 -1.4457 -0.7295
   47SOL     OW  139   1.521   2.125   1.535  0.5028  0.8415  0.1410
   47SOL    HW1  140   1.581   2.207   1.539  0.2010 -1.2162 -3.5351
   47SOL    HW2  141   1.425   2.149   1.512  1.1619  0.1765 -1.3111
   48SOL     OW  142   0.466   1.538   0.576 -0.0063 -0.0898 -0.3666
   48SOL    HW1  143   0.552   1.587   0.567 -0.4772 -1.0785  1.8783
   48SOL    HW2  144   0.445   1.569   0.667 -0.5872  1.0762 -0.6586
   49SOL     OW  145   2.668   0.484   2.691  0.1995  0.0500 -0.0129
   49SOL    HW1  146   2.678   0.569   2.747  0.5851 -0.5281 -0.4649
   49SOL    HW2  147   2.683   0.502   2.594  0.4548 -1.7940 -0.8792
   50SOL     OW  148   1.947   0.739   0.920 -0.5748  0.2427  0.1066
   50SOL    HW1  149   1.907   0.824   0.962 -0.8978 -1.0989  0.3083
   50SOL    HW2  150   2.034   0.762   0.877 -1.4825  0.5861  0.9762
   51SOL     OW  151   1.361   0.548   0.919  0.0822 -0.0714  0.1692
   51SOL    HW1  152   1.308   0.465   0.946 -0.9172  0.3850 -0.3901
   51SOL    HW2  153   1.329   0.574   0.822 -2.1310 -0.1479 -2.7098
   52SOL     OW  154   1.421   1.290   3.101 -0.1841  0.3697  0.0142
   52SOL    HW1  155   1.377   1.261   0.058  0.2705 -0.1047 -0.2794
   52SOL    HW2  156   1.459   1.383   3.104 -1.1004 -1.5408  0.9479
   53SOL     OW  157   1.088   1.992   2.702  0.3481 -0.4568  0.1170
   53SOL    HW1  158   1.026   2.024   2.777  0.5046 -0.6804 -0.9912
   53SOL    HW2  159   1.160   2.060   2.680  0.0145  1.2853  1.9552
   54SOL     OW  160   2.135   0.325   1.305  0.2728 -0.6322  0.1188
   54SOL    HW1  161   2.215   0.312   1.366 -0.2564 -0.5488  1.1711
   54SOL    HW2  162   2.078   0.243   1.307 -3.6329 -0.5810 -2.4903
   55SOL     OW  163   2.271   2.697   0.650 -0.0028 -0.0851 -0.0465
   55SOL    HW1  164   2.365   2.715   0.612  0.8252  2.0158 -2.9162
   55SOL    HW2  165   2.215   2.639   0.583 -0.8850 -1.5587 -1.7122
   56SOL     OW  166   0.651   2.811   1.513  0.7910  0.0352  0.6271
   56SOL    HW1  167   0.727   2.750   1.479  1.4305 -1.4737 -1.8116
   56SOL    HW2  168   0.652   2.825   1.617  1.0507 -2.3691  1.2077
   57SOL     OW  169   1.689   1.406   0.481  0.5969 -0.5974  0.0883
   57SOL    HW1  170   1.649   1.335   0.420  0.5615  1.3940 -0.9780
   57SOL    HW2  171   1.762   1.450   0.430  1.9888 -0.0897  0.4578
   58SOL     OW  172   0.219   1.025   2.172 -0.6259 -0.3966 -0.2202
   58SOL    HW1  173   0.149   1.068   2.111  0.2713 -0.6169 -0.1365
   58SOL    HW2  174   0.175   0.953   2.227 -2.9946  3.0322 -0.2706
   59SOL     OW  175   1.046   2.876   2.336 -0.6244 -0.1265  0.6377
   59SOL    HW1  176   1.125   2.867   2.399 -0.2833  0.8210  1.4955
   59SOL    HW2  177   1.001   2.969   2.340  0.4985  1.1224  0.1370
   60SOL     OW  178   2.408   2.561   1.094  0.1822  0.4344 -0.3039
   60SOL    HW1  179   2.339   2.554   1.020 -0.8149  1.5127 -0.0014
   60SOL    HW2  180   2.369   2.571   1.186 -0.3552 -1.5741 -1.6232
   61SOL     OW  181   1.081   2.068   0.931  0.2888 -0.1290  0.6307
   61SOL    HW1  182   1.016   2.071   0.855  0.9453 -0.1937  0.1736
   61SOL    HW2  183   1.162   2.126   0.913 -0.5614 -0.0809  0.7494
   62SOL     OW  184   2.186   2.717   2.822 -0.2300  0.9077  0.0856
   62SOL    HW1  185   2.142   2.679   2.907 -0.1547  0.3930  0.9947
   62SOL    HW2  186   2.199   2.816   2.836  0.5587  1.7286 -1.4125
   63SOL     OW  187   2.286   0.631   0.097 -0.5954  0.0452  0.5372
   63SOL    HW1  188   2.198   0.596   0.061  2.1964  1.4948  0.4317
   63SOL    HW2  189   2.300   0.601   0.194  2.3187 -2.3452 -0.5280
   64SOL     OW  190   1.062   0.966   3.027  0.3372  0.2065  0.4195
   64SOL    HW1  191   1.077   1.066   3.011  1.3153 -1.7437 -0.3882
   64SOL    HW2  192   0.992   0.955   3.106 -3.4941 -1.5692  2.3759
   65SOL     OW  193   1.117   2.358   0.379  0.4503  0.0351  0.4396
   65SOL    HW1  194   1.140   2.446   0.413  2.3384 -3.8059  0.8685
   65SOL    HW2  195   1.058   2.314   0.453 -0.9271  1.7358  3.5635
   66SOL     OW  196   0.902   1.189   1.633 -0.1101  0.6852  0.1425
   66SOL    HW1  197   0.948   1.095   1.613  1.5343 -0.3258 -1.7819
   66SOL    HW2  198   0.895   1.203   1.734 -0.8425 -0.4978 -2.2722
   67SOL     OW  199   2.352   3.020   2.437  0.3485  0.2746 -0.7687
   67SOL    HW1  200   2.285   2.947   2.422 -0.6992  1.4843  0.5081
   67SOL    HW2  201   2.369   3.069   2.350  0.9005 -1.1294 -1.7808
   68SOL     OW  202   0.685   1.432   1.184 -0.0364  0.1183  0.1298
   68SOL    HW1  203   0.777   1.465   1.193 -3.0784  2.3105 -0.6582
   68SOL    HW2  204   0.685   1.331   1.161 -2.1243  0.3567  0.4629
   69SOL     OW  205   1.543   2.308   0.258  0.3952  0.4617  0.1016
   69SOL    HW1  206   1.513   2.407   0.243 -1.9728 -1.3621  0.9881
   69SOL    HW2  207   1.629   2.299   0.317  2.1938 -1.3768  0.9683
   70SOL     OW  208   0.015   1.091   2.527 -0.4725 -0.1253  0.3194
   70SOL    HW1  209   3.093   1.166   2.563  1.8214  1.5473  1.4868
   70SOL    HW2  210   3.114   1.000   2.500  1.1390  0.8975 -1.3737
   71SOL     OW  211   0.075   1.815   2.680 -0.0631  0.1637 -0.2211
   71SOL    HW1  212   0.077   1.738   2.612  0.9591 -3.2205  0.3440
   71SOL    HW2  213   0.119   1.790   2.773  1.1535  0.4703  0.8319
   72SOL     OW  214   2.880   2.338   0.417 -0.2674 -0.4464  0.0283
   72SOL    HW1  215   2.907   2.292   0.506 -1.7125  1.6909  2.3720
   72SOL    HW2  216   2.855   2.273   0.340  0.1365 -0.1752  1.3944
   73SOL     OW  217   0.673   1.695   0.496 -0.2391 -0.2954  0.4632
   73SOL    HW1  218   0.621   1.776   0.455  1.7136 -1.1471  0.1622
   73SOL    HW2  219   0.743   1.659   0.433 -2.3018 -2.0391  1.7897
   74SOL     OW  220   0.071   1.600   2.522  0.7404 -0.1221  0.5656
   74SOL    HW1  221   0.151   1.636   2.468  1.7076 -2.0634 -0.3189
   74SOL    HW2  222   0.069   1.497   2.509  0.7291  1.6320  0.7959
   75SOL     OW  223   1.840   1.592   1.565 -0.4491  0.4542  0.8597
   75SOL    HW1  224   1.841   1.693   1.554 -1.9590  1.6498 -0.5209
   75SOL    HW2  225   1.756   1.567   1.617  1.3025 -0.7157 -1.5962
   76SOL     OW  226   1.882   2.568   1.403 -0.0892 -0.3644  0.0633
   76SOL    HW1  227   1.972   2.591   1.359  1.2981 -1.2844 -2.5022
   76SOL    HW2  228   1.829   2.523   1.328  1.2174 -0.5278  0.3763
   77SOL     OW  229   2.670   0.999   1.193 -0.1975 -0.2369  0.0346
   77SOL    HW1  230   2.771   1.000   1.201 -0.2478  0.9907  0.2599
   77SOL    HW2  231   2.649   0.905   1.152  0.5091 -1.0551  1.8278
   78SOL     OW  232   1.381   0.971   0.593  0.1450 -0.3583  0.4017
   78SOL    HW1  233   1.409   1.050   0.655 -1.5705  2.4450  1.0338
   78SOL    HW2  234   1.459   0.913   0.568 -2.8231  2.2686  0.7621
   79SOL     OW  235   0.110   1.645   1.722 -0.0487  0.0960  0.3136
   79SOL    HW1  236   0.152   1.711   1.654 -0.1250  1.3148  0.4812
   79SOL    HW2  237   0.006   1.656   1.715 -2.0358 -1.4017 -0.1779
   80SOL     OW  238   1.589   0.818   1.417 -0.3302  0.0857 -0.1810
   80SOL    HW1  239   1.569   0.720   1.411 -0.9438  3.3052  2.3224
   80SOL    HW2  240   1.511   0.861   1.365 -0.1680  1.9617 -1.9901
   81SOL     OW  241   0.757   0.154   0.890 -0.6212 -0.3349 -0.1840
   81SOL    HW1  242   0.756   0.126   0.791  0.7287  0.5557  0.7043
   81SOL    HW2  243   0.664   0.137   0.939 -5.0770  1.4427  1.9368
   82SOL     OW  244   1.478   2.832   1.531 -0.2199 -0.2104 -0.4753
   82SOL    HW1  245   1.433   2.827   1.442  4.4228 -0.6907  0.5836
   82SOL    HW2  246   1.563   2.775   1.531 -1.8154 -1.7565 -0.6053
   83SOL     OW  247   0.840   2.253   1.092  0.6088  0.2539  0.0053
   83SOL    HW1  248   0.771   2.177   1.071 -1.5286  0.2103 -0.9167
   83SOL    HW2  249   0.926   2.215   1.134 -0.5583 -1.0352  0.9170
   84SOL     OW  250   0.361   1.415   2.673 -0.3067 -0.1243 -0.3620
   84SOL    HW1  251   0.258   1.414   2.643 -3.9628  0.0586  1.2259
   84SOL    HW2  252   0.408   1.492   2.623  2.5749 -0.7547 -1.5604
   85SOL     OW  253   0.113   2.385   1.392  0.3860 -0.5035  0.5750
   85SOL    HW1  254   0.030   2.348   1.445 -0.9503  1.4834  1.5175
   85SOL    HW2  255   0.110   2.490   1.386  0.7223  4.2894 -0.5663
   86SOL     OW  256   2.391   2.200   1.301 -0.0321  0.5184  0.1400
   86SOL    HW1  257   2.473   2.151   1.330 -1.6923  1.1792 -1.1213
   86SOL    HW2  258   2.399   2.290   1.335  1.2075 -1.8839 -0.4675
   87SOL     OW  259   2.758   2.215   0.202  0.4269 -0.4997  0.4626
   87SOL    HW1  260   2.665   2.171   0.213 -1.0398 -2.4335  0.8384
   87SOL    HW2  261   2.826   2.152   0.156  1.6543 -0.5760  0.1092
   88SOL     OW  262   0.409   1.507   1.098  0.1295  0.1178  0.1351
   88SOL    HW1  263   0.355   1.573   1.159 -0.6568  0.0371 -3.1235
   88SOL    HW2  264   0.500   1.490   1.145 -0.5241  0.7272 -1.5884
   89SOL     OW  265   1.235   3.026   1.940 -0.5021 -0.6151  0.3044
   89SOL    HW1  266   1.267   2.963   1.865 -2.9924 -2.0929 -0.0731
   89SOL    HW2  267   1.222   3.125   1.909 -1.6139  2.0674  0.2406
   90SOL     OW  268   3.101   1.870   1.322  0.2429  0.2477 -0.3300
   90SOL    HW1  269   3.057   1.882   1.416  2.6129  2.2393  0.8732
   90SOL    HW2  270   3.063   1.788   1.273 -1.6852 -1.1461  0.1960
   91SOL     OW  271   1.422   2.028   1.131 -0.2353 -0.4735  0.0152
   91SOL    HW1  272   1.352   1.951   1.130 -0.0606  1.6206 -1.4447
   91SOL    HW2  273   1.472   2.019   1.217  0.0901 -0.2475 -1.6920
   92SOL     OW  274   2.425   2.444   1.387 -0.5004 -0.2999  0.4572
   92SOL    HW1  275   2.435   2.517   1.459 -1.3220  0.5291 -0.1380
   92SOL    HW2  276   2.503   2.450   1.323 -0.3517  1.1624  0.6044
   93SOL     OW  277   2.763   1.586   2.734  0.7186  0.1023  0.4251
   93SOL    HW1  278   2.724   1.617   2.645  0.0499 -0.5810  1.4777
   93SOL    HW2  279   2.864   1.566   2.730 -2.5636  0.2264  0.8082
   94SOL     OW  280   2.791   2.892   2.010  0.1396  0.2118 -0.0011
   94SOL    HW1  281   2.701   2.887   1.961 -0.5616 -0.3876 -0.8878
   94SOL    HW2  282   2.862   2.829   1.974  2.3751 -0.7998 -0.2955
   95SOL     OW  283   1.635   0.170   1.753  0.1145  0.4744  0.1131
   95SOL    HW1  284   1.709   0.186   1.822  1.9293  1.3359  1.1058
   95SOL    HW2  285   1.617   0.070   1.741  2.6409  0.8771  3.2160
   96SOL     OW  286   0.014   2.891   1.540  0.1926 -0.6873 -0.5343
   96SOL    HW1  287   3.060   2.912   1.585 -0.8409 -1.0187 -0.4810
   96SOL    HW2  288   0.020   2.806   1.490  2.5586  1.8353  0.5308
   97SOL     OW  289   2.295   0.234   1.516  0.0161 -0.4209  0.0868
   97SOL    HW1  290   2.212   0.248   1.572  0.2378 -1.6382  0.4203
   97SOL    HW2  291   2.382   0.234   1.569 -2.8547 -2.1949 -0.3754
   98SOL     OW  292   1.364   2.415   1.720 -0.3448 -0.0765 -0.1794
   98SOL    HW1  293   1.300   2.440   1.653  1.9546 -1.3310  0.2058
   98SOL    HW2  294   1.332   2.329   1.764  0.2584 -0.0083 -0.6411
   99SOL     OW  295   0.120   0.009   1.890  0.1732 -0.2397 -0.2312
   99SOL    HW1  296   0.145   3.079   1.824 -2.4443  4.2073 -3.0728
   99SOL    HW2  297   0.122   3.114   1.986 -0.5253 -1.9183  1.6919
  100SOL     OW  298   3.040   1.189   2.279  0.3596  0.3113  0.1960
  100SOL    HW1  299   2.991   1.278   2.286 -0.6585 -2.3199  1.1493
  100SOL    HW2  300   3.119   1.180   2.346  2.1113 -0.3049 -0.4371
  101SOL     OW  301   1.544   0.513   0.169 -0.1453 -0.0883 -0.2168
  101SOL    HW1  302   1.545   0.503   0.269 -0.4173  3.2901  0.1832
  101SOL    HW2  303   1.608   0.587   0.137  1.1004  0.0985 -1.5603
  102SOL     OW  304   0.047   0.653   1.394  0.6102  0.3629  0.1792
  102SOL    HW1  305   3.122   0.605   1.333  1.9271  1.0309  0.7837
  102SOL    HW2  306   0.107   0.717   1.338  2.1535 -1.2642 -1.2469
  103SOL     OW  307   2.306   0.702   2.982  0.3559  0.1217  0.5284
  103SOL    HW1  308   2.290   0.669   3.080  1.9830 -2.5476 -0.0696
  103SOL    HW2  309   2.248   0.785   2.967 -0.5174 -1.6870 -1.0140
  104SOL     OW  310   3.069   0.166   2.196 -0.0274  0.2649 -0.2888
  104SOL    HW1  311   2.988   0.125   2.154  1.4748 -0.6337 -0.0920
  104SOL    HW2  312   3.055   0.200   2.291  1.5550 -0.0441  0.4399
  105SOL     OW  313   2.263   1.187   1.622 -0.1706  0.7217 -0.2028
  105SOL    HW1  314   2.212   1.141   1.538  1.5601 -3.8822 -1.2215
  105SOL    HW2  315   2.217   1.272   1.655  0.1978 -2.4070 -0.7084
  106SOL     OW  316   1.251   3.073   0.666 -0.2733  0.2319 -0.3988
  106SOL    HW1  317   1.194   0.015   0.638  2.0257  0.1363 -2.0910
  106SOL    HW2  318   1.235   3.037   0.757 -0.5136 -0.4645 -0.5444
  107SOL     OW  319   0.052   1.370   0.967  0.2746  0.0307 -0.8235
  107SOL    HW1  320   3.133   1.284   0.962 -0.2181 -0.0468 -1.9545
  107SOL    HW2  321   3.136   1.446   1.008 -0.4609 -0.1544  0.1835
  108SOL     OW  322   3.067   0.272   2.457  0.6426  0.3477  0.2103
  108SOL    HW1  323   2.998   0.229   2.520  0.3386 -1.1333 -2.1639
  108SOL    HW2  324   0.021   0.260   2.488  0.7900 -1.3262  0.5797
  109SOL     OW  325   2.646   0.168   0.453  0.2386 -0.6365  0.3469
  109SOL    HW1  326   2.590   0.240   0.408  2.3089  0.9619 -1.0241
  109SOL    HW2  327   2.744   0.188   0.434 -0.9692  1.0835  2.1354
  110SOL     OW  328   0.339   2.482   2.800 -0.0369  0.2576  0.0687
  110SOL    HW1  329   0.292   2.414   2.735  1.7779  1.0121 -1.1339
  110SOL    HW2  330   0.424   2.518   2.758  0.9759  0.7498  0.6944
  111SOL     OW  331   1.816   2.980   2.003  0.0665 -0.4630  0.1632
  111SOL    HW1  332   1.885   2.992   1.927 -0.5679 -1.5199 -0.7035
  111SOL    HW2  333   1.820   3.050   2.077  1.5234  0.1166  0.0829
  112SOL     OW  334   2.037   2.667   3.068 -0.3524  0.4019 -0.1746
  112SOL    HW1  335   1.994   2.581   3.088 -0.3634  0.5466  1.1264
  112SOL    HW2  336   1.973   2.744   3.094 -0.5504  0.8943 -0.3158
  113SOL     OW  337   2.642   2.038   1.870  0.2132  0.0402 -0.3437
  113SOL    HW1  338   2.582   2.044   1.959 -1.0245 -0.9443 -0.0306
  113SOL    HW2  339   2.720   2.100   1.868 -1.3469 -0.6107 -1.1453
  114SOL     OW  340   2.586   0.783   1.080 -0.6452  0.5102  0.3354
  114SOL    HW1  341   2.487   0.779   1.057 -1.2375 -0.2591  4.4115
  114SOL    HW2  342   2.648   0.743   1.007 -0.0158 -2.1178 -2.3187
  115SOL     OW  343   0.178   1.730   2.919 -0.0779 -0.4119 -0.6604
  115SOL    HW1  344   0.274   1.695   2.932 -0.4690  0.8296  0.2793
  115SOL    HW2  345   0.178   1.827   2.945  1.7895 -0.9273 -2.3709
  116SOL     OW  346   0.186   1.492   1.919  0.1254  0.2066  0.1794
  116SOL    HW1  347   0.283   1.467   1.912  0.5922 -0.9698 -0.8070
  116SOL    HW2  348   0.159   1.549   1.839 -0.0181  1.3824 -0.3260
  117SOL     OW  349   2.464   3.072   0.836 -0.0354  0.6710 -0.2349
  117SOL    HW1  350   2.370   3.033   0.830  2.0940  1.7794  0.0265
  117SOL    HW2  351   2.468   0.015   0.776 -0.2522 -1.0716 -0.8598
  118SOL     OW  352   0.570   2.169   1.635  0.5173 -0.1104 -0.2354
  118SOL    HW1  353   0.561   2.148   1.535 -0.2153 -1.3092  1.4903
  118SOL    HW2  354   0.625   2.091   1.667 -3.0235 -2.4377  0.3454
  119SOL     OW  355   1.666   2.139   0.572  0.0025 -0.0133  0.1111
  119SOL    HW1  356   1.758   2.184   0.587  0.8368 -0.3809  0.1010
  119SOL    HW2  357   1.685   2.044   0.540  3.0683 -1.5589 -0.3480
  120SOL     OW  358   0.456   1.659   2.595  0.2599  0.3333 -0.0128
  120SOL    HW1  359   0.434   1.738   2.657  0.1015 -1.4004  0.8199
  120SOL    HW2  360   0.482   1.696   2.502  0.1654 -0.8105  1.0829
  121SOL     OW  361   2.139   2.134   1.469 -0.1215 -0.1942 -0.3294
  121SOL    HW1  362   2.091   2.045   1.450 -1.7677 -0.6664  1.0256
  121SOL    HW2  363   2.218   2.158   1.407  0.9057  0.5363  0.0885
  122SOL     OW  364   2.200   1.857   2.267  0.0361  0.5415 -0.3296
  122SOL    HW1  365   2.242   1.885   2.356  1.2989  1.8826  1.1512
  122SOL    HW2  366   2.233   1.767   2.231  1.2297  0.3652 -0.5671
  123SOL     OW  367   0.013   2.893   0.662  0.2749  0.3523  0.5530
  123SOL    HW1  368   3.101   2.804   0.670  0.4408 -1.6574  0.7957
  123SOL    HW2  369   0.017   2.936   0.755 -1.7081 -1.4910  1.3852
  124SOL     OW  370   1.701   0.749   2.317  0.5245  0.2851  0.0554
  124SOL    HW1  371   1.656   0.789   2.237  0.7430 -4.4662  4.4070
  124SOL    HW2  372   1.797   0.783   2.335  1.5751 -1.9834  2.4599
  125SOL     OW  373   0.364   1.364   0.222 -0.4287 -1.0982  0.1992
  125SOL    HW1  374   0.350   1.339   0.127 -0.5500  0.7012  2.4144
  125SOL    HW2  375   0.422   1.300   0.277  1.6942 -1.4246 -0.5685
  126SOL     OW  376   2.539   1.979   0.477  0.0560  0.8785  0.1186
  126SOL    HW1  377   2.541   2.052   0.411 -1.0732 -2.6240  1.5365
  126SOL    HW2  378   2.577   2.012   0.569  1.8319 -0.1509  2.3557
  127SOL     OW  379   0.197   1.682   1.224 -0.1746  0.1849  0.2254
  127SOL    HW1  380   0.178   1.711   1.127 -0.3976  0.5452 -0.3400
  127SOL    HW2  381   0.229   1.763   1.281  0.4852  1.4295  1.9839
  128SOL     OW  382   0.651   0.741   3.124 -0.4962 -0.5868 -0.2598
  128SOL    HW1  383   0.676   0.650   3.083 -1.7985  0.5138 -0.0349
  128SOL    HW2  384   0.731   0.802   0.002 -1.7362 -0.0878 -0.5051
  129SOL     OW  385   2.296   1.435   0.734 -0.1831 -0.1638 -0.2541
  129SOL    HW1  386   2.319   1.415   0.638 -0.7399  0.3207  2.6111
  129SOL    HW2  387   2.198   1.401   0.751 -1.5728 -2.4032 -3.4356
  130SOL     OW  388   2.196   1.701   1.126  0.1792  0.4716  0.3273
  130SOL    HW1  389   2.268   1.754   1.075  1.7511 -1.3680  0.7586
  130SOL    HW2  390   2.112   1.721   1.076 -1.1752 -2.3180  0.9527
  131SOL     OW  391   2.802   1.231   2.978 -0.2130  0.1160 -0.3212
  131SOL    HW1  392   2.823   1.133   2.959  0.0418 -0.5639  1.0237
  131SOL    HW2  393   2.883   1.285   2.997 -0.6469 -2.3350 -0.1882
  132SOL     OW  394   2.998   1.707   1.793  0.4633 -0.4089 -0.1448
  132SOL    HW1  395   2.984   1.788   1.856 -2.2687  2.8419 -2.2555
  132SOL    HW2  396   2.966   1.619   1.833 -3.7382 -1.7236 -2.8736
  133SOL     OW  397   3.005   0.820   0.638  0.3261  0.0475  0.0303
  133SOL    HW1  398   3.083   0.760   0.654 -1.5114  0.9647 -0.3532
  133SOL    HW2  399   2.916   0.764   0.639 -2.7231 -1.1880 -2.6809
  134SOL     OW  400   0.332   0.967   0.255 -0.6188 -0.1788 -0.1958
  134SOL    HW1  401   0.252   0.912   0.293 -2.5169 -1.2606  1.5478
  134SOL    HW2  402   0.319   0.997   0.158  0.3062  1.8757 -0.5850
  135SOL     OW  403   2.014   1.662   0.710 -0.0958  0.4764  0.1384
  135SOL    HW1  404   2.027   1.562   0.690  1.0349 -1.0647 -0.3863
  135SOL    HW2  405   1.979   1.705   0.620  0.0978 -0.1822 -2.6729
  136SOL     OW  406   1.984   1.450   0.998  0.2481  0.4638  0.5372
  136SOL    HW1  407   2.062   1.424   1.062  0.3034 -0.2027 -0.2257
  136SOL    HW2  408   1.981   1.553   1.000  0.6957  1.1462  1.6143
  137SOL     OW  409   2.574   1.566   0.698 -0.0781  0.4024 -0.2474
  137SOL    HW1  410   2.501   1.513   0.741  1.6752  2.7772 -1.0592
  137SOL    HW2  411   2.607   1.652   0.747  4.2264  2.1595  0.2261
  138SOL     OW  412   1.563   0.534   1.998 -0.2676 -0.6125 -0.1837
  138SOL    HW1  413   1.616   0.613   2.035  2.1416  0.3549 -2.3119
  138SOL    HW2  414   1.569   0.527   1.892  0.8259 -0.4795 -3.6055
  139SOL     OW  415   1.974   0.164   3.060 -0.2759 -0.5258 -0.0534
  139SOL    HW1  416   2.018   0.218   2.982  0.7183  2.3380 -4.0244
  139SOL    HW2  417   2.005   0.181   0.018 -0.8466 -3.9908 -0.7640
  140SOL     OW  418   1.384   2.166   2.397  0.0944  0.0345  0.0765
  140SOL    HW1  419   1.363   2.074   2.353 -2.6209  3.8058  0.4128
  140SOL    HW2  420   1.431   2.219   2.328 -0.1241 -1.7656 -1.5888
  141SOL     OW  421   1.351   1.371   1.650 -0.1174  0.3556  0.0696
  141SOL    HW1  422   1.366   1.302   1.579 -1.2427  0.9118 -0.3123
  141SOL    HW2  423   1.249   1.397   1.652 -0.1785  1.9403 -0.2161
  142SOL     OW  424   2.560   0.097   0.112  0.1226  0.3042 -0.4217
  142SOL    HW1  425   2.512   0.011   0.146  1.6128 -0.6983  2.3173
  142SOL    HW2  426   2.636   0.079   0.047 -2.9895  1.4306  1.3925
  143SOL     OW  427   0.770   2.436   2.860 -0.6817 -0.4923  0.7451
  143SOL    HW1  428   0.710   2.428   2.940  1.0630  3.0441 -0.1593
  143SOL    HW2  429   0.854   2.487   2.885  1.0031  0.2057  1.2682
  144SOL     OW  430   1.006   2.890   2.051 -0.5829  0.0999  0.3305
  144SOL    HW1  431   1.039   2.885   2.146 -0.1849  1.0595 -0.5267
  144SOL    HW2  432   1.078   2.926   1.987  0.9902 -0.4352 -3.3133
  145SOL     OW  433   2.538   1.508   0.309  0.7858  0.6636 -0.1403
  145SOL    HW1  434   2.541   1.411   0.320  0.3914  4.3254  3.1643
  145SOL    HW2  435   2.621   1.548   0.349  0.2037  0.3738 -1.9966
  146SOL     OW  436   2.594   2.936   2.819  0.1369  0.1144 -0.2455
  146SOL    HW1  437   2.581   3.039   2.829 -2.0855  2.3605 -1.1393
  146SOL    HW2  438   2.564   2.886   2.904 -1.5338 -0.4287 -1.2200
  147SOL     OW  439   2.530   2.312   1.019 -0.3147 -0.0275  0.1636
  147SOL    HW1  440   2.618   2.354   1.057  0.7589 -1.5705 -0.9273
  147SOL    HW2  441   2.455   2.379   1.037  1.0047 -1.3303 -0.0675
  148SOL     OW  442   1.711   0.181   3.057  0.1659 -0.2632  0.4831
  148SOL    HW1  443   1.665   0.184   0.010 -0.2774 -1.4610 -0.6742
  148SOL    HW2  444   1.812   0.169   3.061 -3.4869  3.3848  0.6557
  149SOL     OW  445   1.021   1.296   2.765 -0.0764 -0.3468  0.1889
  149SOL    HW1  446   1.069   1.276   2.851 -2.4078  0.8115 -2.4157
  149SOL    HW2  447   1.088   1.310   2.689  1.3174 -1.0802  2.7604
  150SOL     OW  448   0.973   2.693   0.622  0.1711  0.0034  0.1808
  150SOL    HW1  449   0.952   2.777   0.562 -2.6995  1.8833  0.5899
  150SOL    HW2  450   0.894   2.629   0.611  0.4268 -1.0404  0.6039
  151SOL     OW  451   0.492   2.046   0.054 -0.4284  0.4141  0.0078
  151SOL    HW1  452   0.471   1.947   0.050 -0.0605 -0.3229  0.6097
  151SOL    HW2  453   0.563   2.072   3.127 -0.8643 -0.2107 -1.2102
  152SOL     OW  454   0.056   1.019   0.714 -0.0279  0.1120 -0.4727
  152SOL    HW1  455   0.014   1.071   0.792  0.4134 -0.0271  0.2070
  152SOL    HW2  456   3.123   0.958   0.665 -2.1129 -0.5072 -2.1702
  153SOL     OW  457   2.561   2.515   3.107  0.1905 -0.1798 -0.2131
  153SOL    HW1  458   2.622   2.509   0.049 -1.4659  0.3241  1.5197
  153SOL    HW2  459   2.623   2.507   3.027  2.9983 -0.2230  1.6944
  154SOL     OW  460   0.534   0.146   1.052 -0.5811  0.5302 -0.1262
  154SOL    HW1  461   0.526   0.045   1.045  1.0689 -2.5649  0.5151
  154SOL    HW2  462   0.523   0.179   1.150 -0.5295  1.3005  1.4326
  155SOL     OW  463   0.220   1.967   1.076 -0.4635  0.3979 -0.2483
  155SOL    HW1  464   0.226   1.951   0.976 -0.6088 -0.6551 -0.2331
  155SOL    HW2  465   0.126   1.998   1.104 -1.1338  1.5095  1.5886
  156SOL     OW  466   2.422   2.274   3.093 -0.0920 -0.2850 -0.0217
  156SOL    HW1  467   2.487   2.212   3.046 -0.5941 -0.7333  1.3076
  156SOL    HW2  468   2.463   2.362   3.112  1.5868 -1.2048  0.0229
  157SOL     OW  469   0.822   2.581   1.063  0.0823  0.2168 -0.5048
  157SOL    HW1  470   0.767   2.500   1.092  0.9697  1.1669  1.8138
  157SOL    HW2  471   0.853   2.629   1.147  2.4256 -1.0879  2.1871
  158SOL     OW  472   1.856   0.789   2.885  0.0642  0.0407  0.3815
  158SOL    HW1  473   1.775   0.817   2.938  2.8628 -2.0130  3.8044
  158SOL    HW2  474   1.843   0.789   2.782  0.8727 -0.6631 -0.1169
  159SOL     OW  475   0.819   0.289   2.478  0.7324  0.5804  0.5814
  159SOL    HW1  476   0.831   0.239   2.567 -2.0367 -0.1037 -1.0345
  159SOL    HW2  477   0.892   0.358   2.463  0.5283  0.5789 -0.9555
  160SOL     OW  478   1.039   1.844   0.636 -0.1891 -0.5625  0.4058
  160SOL    HW1  479   0.982   1.865   0.720  1.2776  0.2384  1.6452
  160SOL    HW2  480   1.052   1.745   0.616  1.7279 -1.0819  1.2280
  161SOL     OW  481   0.072   2.052   0.023  0.4358 -0.5453 -0.4678
  161SOL    HW1  482   0.051   1.956   0.057 -1.2773 -2.2396 -1.3204
  161SOL    HW2  483   0.144   2.097   0.083  0.8836  2.3163  0.6250
  162SOL     OW  484   0.660   2.696   0.876 -0.5565 -0.0502  0.5561
  162SOL    HW1  485   0.682   2.795   0.873 -0.7503 -0.6309  0.2105
  162SOL    HW2  486   0.720   2.647   0.941  0.9527  0.1010  0.3685
  163SOL     OW  487   2.382   0.868   0.195 -0.2213 -0.8483 -0.1968
  163SOL    HW1  488   2.471   0.883   0.165 -1.8090 -0.4083  0.9998
  163SOL    HW2  489   2.352   0.781   0.154  1.2832  1.9992 -0.4019
  164SOL     OW  490   0.030   2.871   0.265  0.2607  0.3329  0.1094
  164SOL    HW1  491   0.062   2.773   0.269  0.2502  0.9856 -0.0783
  164SOL    HW2  492   0.038   2.900   0.168 -1.4475  0.1718  3.3881
  165SOL     OW  493   2.579   0.487   1.452 -0.3808 -0.3669 -0.2500
  165SOL    HW1  494   2.566   0.386   1.473 -1.4239 -1.6352 -0.2524
  165SOL    HW2  495   2.637   0.540   1.519  0.9467 -1.6391  0.1784
  166SOL     OW  496   2.086   0.362   1.030  0.0465 -0.5615  0.4200
  166SOL    HW1  497   2.160   0.313   0.978 -0.8454 -0.7804 -0.5638
  166SOL    HW2  498   2.099   0.356   1.134  0.2001  0.6055 -0.5004
  167SOL     OW  499   0.374   0.774   1.591  0.0917  0.1449  0.3328
  167SOL    HW1  500   0.299   0.752   1.660 -0.4770  0.5998 -3.5603
  167SOL    HW2  501   0.360   0.866   1.538  0.0118  1.9837  0.0656
  168SOL     OW  502   2.865   0.029   2.053 -0.3473 -0.1141 -0.3834
  168SOL    HW1  503   2.800   0.066   2.129 -0.1373  1.7969  1.1926
  168SOL    HW2  504   2.843   3.072   2.025 -0.7990 -1.5791  1.1544
  169SOL     OW  505   2.982   1.501   0.513  0.4670  0.0758 -0.2171
  169SOL    HW1  506   3.073   1.454   0.510  0.2251 -2.6164 -2.6660
  169SOL    HW2  507   2.974   1.561   0.597  1.1674 -0.8558  1.1962
  170SOL     OW  508   3.042   0.737   1.621 -0.4145 -0.3610  0.0215
  170SOL    HW1  509   3.108   0.718   1.544 -1.1649 -0.8202 -0.5595
  170SOL    HW2  510   3.019   0.653   1.673  0.6204  0.3356 -2.8728
  171SOL     OW  511   1.298   2.187   1.841  0.5138 -0.1770  0.0585
  171SOL    HW1  512   1.376   2.126   1.825 -2.2856 -0.0533  1.0193
  171SOL    HW2  513   1.266   2.185   1.937 -1.7353  2.8238  1.3404
  172SOL     OW  514   0.608   2.406   1.120  0.0875 -0.0637 -0.1712
  172SOL    HW1  515   0.688   2.347   1.139 -0.3457 -2.3734  1.9213
  172SOL    HW2  516   0.533   2.345   1.089 -0.9582 -0.0160 -2.0975
  173SOL     OW  517   1.062   0.129   0.186 -0.4067  0.3645  0.5885
  173SOL    HW1  518   0.970   0.162   0.210  0.6945 -0.3352  2.1186
  173SOL    HW2  519   1.070   0.130   0.083  0.4477  0.1334  0.2233
  174SOL     OW  520   0.798   2.842   2.684  0.2409 -0.1517  0.0147
  174SOL    HW1  521   0.780   2.808   2.777 -1.6493 -1.4728 -1.9094
  174SOL    HW2  522   0.887   2.890   2.679 -1.6862 -1.1771 -0.4590
  175SOL     OW  523   1.069   0.690   3.036 -0.0602 -0.2506  0.7476
  175SOL    HW1  524   1.165   0.652   3.036 -2.2964 -1.9446 -3.1040
  175SOL    HW2  525   1.073   0.792   3.030 -0.7940  1.6689 -1.0908
  176SOL     OW  526   1.295   0.525   0.396 -0.1719 -0.1585  0.4636
  176SOL    HW1  527   1.210   0.476   0.366 -3.2584  0.9703 -1.1856
  176SOL    HW2  528   1.356   0.468   0.451 -1.3962  0.3815 -1.1089
  177SOL     OW  529   1.384   0.857   0.985  0.1999 -0.1633  0.3599
  177SOL    HW1  530   1.361   0.758   0.992  0.0743  0.1579  0.1930
  177SOL    HW2  531   1.305   0.915   0.950 -2.4755  1.1308 -1.1342
  178SOL     OW  532   2.557   1.867   2.655  0.2135  0.2640  0.2934
  178SOL    HW1  533   2.561   1.793   2.723 -0.1728  1.1011 -0.8069
  178SOL    HW2  534   2.510   1.952   2.690  1.8717  1.8901  1.5683
  179SOL     OW  535   0.541   2.862   2.589  0.3237 -0.5904  0.0248
  179SOL    HW1  536   0.639   2.864   2.629  0.3657  3.2168  1.6911
  179SOL    HW2  537   0.525   2.944   2.529  0.7996 -0.5833 -0.5577
  180SOL     OW  538   1.789   1.875   1.603 -0.1425  0.7570  0.0040
  180SOL    HW1  539   1.714   1.902   1.540 -1.6996  0.7656 -0.0271
  180SOL    HW2  540   1.768   1.892   1.705 -3.9203  1.2813  3.0427
  181SOL     OW  541   1.631   1.390   2.377  0.2710  0.1915  0.3984
  181SOL    HW1  542   1.614   1.413   2.475 -0.4804 -0.5252  1.1787
  181SOL    HW2  543   1.635   1.290   2.361  0.6571  2.1839  0.1030
  182SOL     OW  544   2.984   0.672   2.709  1.0755  0.1313 -0.3208
  182SOL    HW1  545   2.900   0.675   2.772 -2.5996 -1.9742  1.0829
  182SOL    HW2  546   2.974   0.593   2.647  1.6615  0.2353  1.1343
  183SOL     OW  547   1.544   0.139   2.635 -0.1993 -0.5954 -0.0333
  183SOL    HW1  548   1.583   0.142   2.543 -0.0788 -1.2857  1.7262
  183SOL    HW2  549   1.581   0.212   2.692 -0.3231  1.1357 -0.9947
  184SOL     OW  550   0.832   0.405   1.536 -0.0709  0.1499  0.2911
  184SOL    HW1  551   0.846   0.331   1.601  0.0390  0.8694  0.1958
  184SOL    HW2  552   0.760   0.471   1.558  1.3636  1.0514 -0.5648
  185SOL     OW  553   2.784   1.247   0.901  0.6868  0.2714 -0.0139
  185SOL    HW1  554   2.752   1.254   0.808  0.0699 -0.0234 -0.4498
  185SOL    HW2  555   2.705   1.263   0.966 -4.1066  1.4066  3.3125
  186SOL     OW  556   0.601   1.927   2.844  0.1427  0.3884 -0.5220
  186SOL    HW1  557   0.626   1.979   2.923 -1.8251  0.0839 -3.1996
  186SOL    HW2  558   0.495   1.927   2.826 -4.9164  0.3016 -2.0483
  187SOL     OW  559   2.557   1.240   0.354  0.1381 -0.1688 -0.5067
  187SOL    HW1  560   2.657   1.252   0.374  1.8960  1.3412  0.7108
  187SOL    HW2  561   2.536   1.165   0.287 -0.0127 -4.1428 -1.7691
  188SOL     OW  562   0.246   2.208   0.712  0.0646 -0.0717  0.4229
  188SOL    HW1  563   0.338   2.175   0.742  0.6181 -0.1785  1.7853
  188SOL    HW2  564   0.256   2.283   0.647 -0.8329 -0.0462 -1.1968
  189SOL     OW  565   2.669   0.932   0.372 -0.7829 -0.6735 -0.1228
  189SOL    HW1  566   2.665   0.979   0.282  1.0661  1.4777  1.7026
  189SOL    HW2  567   2.626   0.990   0.443  1.2043 -1.8268  0.4798
  190SOL     OW  568   1.376   1.456   2.224  0.1306 -0.1062  0.1219
  190SOL    HW1  569   1.469   1.430   2.262  1.7276  0.7217 -0.5461
  190SOL    HW2  570   1.338   1.541   2.258  0.8990 -0.5156 -0.6397
  191SOL     OW  571   2.517   0.321   1.664 -0.4380  0.5555  0.2901
  191SOL    HW1  572   2.613   0.298   1.685  0.7489 -0.3401  0.6149
  191SOL    HW2  573   2.469   0.361   1.743  0.2435  2.4910 -1.6408
  192SOL     OW  574   2.079   0.253   1.946  0.1151 -0.2037 -0.1731
  192SOL    HW1  575   2.125   0.166   1.932 -0.5933  1.9337 -2.1895
  192SOL    HW2  576   2.103   0.305   2.030 -1.2083 -1.9157 -1.3014
  193SOL     OW  577   0.856   0.708   0.335 -0.1897 -0.3952 -0.4277
  193SOL    HW1  578   0.861   0.657   0.424  1.4282 -1.1396  0.5758
  193SOL    HW2  579   0.802   0.796   0.346 -1.6030  0.2349  1.3776
  194SOL     OW  580   1.064   2.874   1.357 -0.5097 -0.8750  0.3798
  194SOL    HW1  581   1.163   2.885   1.344 -1.2079 -0.1792 -1.3800
  194SOL    HW2  582   1.037   2.922   1.440  1.1201  2.6226 -0.9500
  195SOL     OW  583   2.311   0.737   1.082 -0.0387  0.1336  0.2721
  195SOL    HW1  584   2.266   0.785   1.003 -1.4448  0.2707 -2.1600
  195SOL    HW2  585   2.289   0.788   1.163 -0.9135 -0.9174 -2.1329
  196SOL     OW  586   1.774   2.265   1.989 -0.2300  0.1313  0.2335
  196SOL    HW1  587   1.694   2.306   1.942  0.5204  3.2785  1.5071
  196SOL    HW2  588   1.743   2.238   2.085 -0.9644 -1.3044 -0.1139
  197SOL     OW  589   0.072   0.136   0.085 -0.1716 -0.1509 -0.1050
  197SOL    HW1  590   0.110   0.067   0.152  0.4102 -0.6030  0.0770
  197SOL    HW2  591   0.063   0.108   3.125  1.2697 -0.6746  2.5341
  198SOL     OW  592   1.347   1.280   0.753 -0.2040  0.4604 -0.0542
  198SOL    HW1  593   1.315   1.370   0.780  1.4085 -1.3210  0.3289
  198SOL    HW2  594   1.292   1.199   0.786  1.0136  0.1050 -1.1086
  199SOL     OW  595   2.871   0.970   2.200  0.3558  0.1138  0.0883
  199SOL    HW1  596   2.825   0.927   2.285 -2.5773 -0.1927  2.6290
  199SOL    HW2  597   2.913   1.060   2.220 -0.9134  1.2036 -0.0772
  200SOL     OW  598   2.935   2.223   2.662 -0.2086  0.3217 -0.0368
  200SOL    HW1  599   2.911   2.298   2.592 -0.0870 -1.4717 -1.6737
  200SOL    HW2  600   2.884   2.242   2.751 -0.7265 -1.2709  4.9489
  201SOL     OW  601   2.673   0.138   1.396 -0.3066 -0.0561  0.5392
  201SOL    HW1  602   2.753   0.191   1.355  0.3495 -1.1417  0.4593
  201SOL    HW2  603   2.591   0.147   1.338  3.4354 -2.4384  0.9047
  202SOL     OW  604   1.963   0.457   0.489  0.1619  0.5210 -0.0635
  202SOL    HW1  605   1.910   0.437   0.406 -0.6575  0.9227 -0.9965
  202SOL    HW2  606   1.988   0.557   0.496  2.7006  1.0973 -0.7279
  203SOL     OW  607   1.721   1.939   2.211 -0.2573  0.0128 -0.4610
  203SOL    HW1  608   1.689   1.858   2.161 -1.2738 -1.0724  0.2487
  203SOL    HW2  609   1.815   1.933   2.244 -1.8505  0.5461 -1.5635
  204SOL     OW  610   1.011   1.643   2.141 -0.1018  0.6266 -0.0400
  204SOL    HW1  611   0.973   1.730   2.107  3.2766 -0.3536  0.9264
  204SOL    HW2  612   1.096   1.666   2.195 -0.5810 -0.4592  0.1487
  205SOL     OW  613   0.969   1.728   1.578 -0.2011  0.2133 -0.0527
  205SOL    HW1  614   0.936   1.747   1.485  1.6096  0.4538  1.2708
  205SOL    HW2  615   1.066   1.716   1.567  1.3077  0.5898 -2.4641
  206SOL     OW  616   2.951   0.523   3.067  0.1505 -0.3623  0.1514
  206SOL    HW1  617   2.959   0.438   3.119  1.8841 -0.1890  3.3640
  206SOL    HW2  618   2.855   0.560   3.065  0.2655  0.0330  0.2011
  207SOL     OW  619   1.965   2.758   2.113 -0.4778 -0.1169 -0.4917
  207SOL    HW1  620   1.931   2.850   2.101 -1.4275  0.9016 -0.4882
  207SOL    HW2  621   2.019   2.714   2.042 -1.1922  0.8812 -0.0722
  208SOL     OW  622   0.547   2.112   1.361  0.1210 -0.3090  0.4204
  208SOL    HW1  623   0.543   2.023   1.316 -0.1557 -1.0015  1.3325
  208SOL    HW2  624   0.456   2.157   1.344 -2.2164 -1.2881 -1.1901
  209SOL     OW  625   1.649   1.146   2.279 -0.4306 -0.1257  0.2593
  209SOL    HW1  626   1.567   1.088   2.289  0.5590  0.6105 -1.3211
  209SOL    HW2  627   1.652   1.176   2.181 -0.4646  0.8642  1.1444
  210SOL     OW  628   2.028   0.956   1.258 -0.5040 -0.7445 -0.1797
  210SOL    HW1  629   2.029   0.975   1.159  0.8998 -1.8865  0.0932
  210SOL    HW2  630   1.941   0.908   1.282 -0.6346  0.0681 -0.3368
  211SOL     OW  631   0.404   0.114   0.602 -0.0606  0.5878  0.0141
  211SOL    HW1  632   0.303   0.130   0.594 -2.5874  1.3361 -0.2815
  211SOL    HW2  633   0.451   0.205   0.586  0.6842 -0.4600 -0.7042
  212SOL     OW  634   1.789   1.608   0.133 -0.3565  0.8405 -0.7288
  212SOL    HW1  635   1.824   1.571   0.224  0.9931 -0.0368  3.6748
  212SOL    HW2  636   1.797   1.708   0.116 -1.7875 -0.8089 -0.6168
  213SOL     OW  637   1.650   0.429   2.493  0.1696  0.0647 -0.0113
  213SOL    HW1  638   1.718   0.457   2.564  2.1666 -0.6189 -1.0345
  213SOL    HW2  639   1.588   0.507   2.481  1.7086 -1.5345  0.6898
  214SOL     OW  640   1.767   1.600   2.294 -0.0511  0.1143  0.5498
  214SOL    HW1  641   1.785   1.656   2.376  0.5745 -2.2289  0.5051
  214SOL    HW2  642   1.721   1.513   2.317  3.3558  2.4305  1.1676
  215SOL     OW  643   0.520   1.887   0.375  0.1823 -0.2139 -0.2146
  215SOL    HW1  644   0.445   1.831   0.330  0.3719  0.1959 -0.3910
  215SOL    HW2  645   0.504   1.987   0.351  0.1164  0.0998 -0.3715
  216SOL     OW  646   0.539   2.824   2.243  0.4128  0.4404  0.3806
  216SOL    HW1  647   0.548   2.910   2.188 -1.0603  1.6754 -2.4942
  216SOL    HW2  648   0.616   2.811   2.310  0.6075 -3.7110 -1.7634
  217SOL     OW  649   2.326   0.901   0.624  0.7369 -0.0068  0.1218
  217SOL    HW1  650   2.404   0.968   0.617  4.0329  0.8891  0.9049
  217SOL    HW2  651   2.264   0.910   0.542 -1.0427  1.6684 -0.7870
  218SOL     OW  652   1.725   1.901   1.872 -0.0069  0.0550  0.0734
  218SOL    HW1  653   1.792   1.958   1.913 -3.6881 -3.0738 -1.6768
  218SOL    HW2  654   1.720   1.812   1.928  1.2783 -2.8536 -0.5045
  219SOL     OW  655   1.998   1.343   3.094  0.1720  0.0243 -0.5563
  219SOL    HW1  656   2.073   1.364   3.018  3.8157  1.7599 -1.5970
  219SOL    HW2  657   1.909   1.386   3.066 -0.8094  1.5412  0.2876
  220SOL     OW  658   1.342   1.677   1.038  0.1421 -0.6219  0.0344
  220SOL    HW1  659   1.335   1.593   1.100 -2.5438 -0.6805 -1.2842
  220SOL    HW2  660   1.428   1.671   0.987 -0.3868  1.1598  1.8247
  221SOL     OW  661   0.658   0.527   2.938  0.5246  0.7770  0.6515
  221SOL    HW1  662   0.591   0.570   2.870 -1.6206  0.4185 -0.8122
  221SOL    HW2  663   0.622   0.439   2.980 -1.2016  0.9956  1.9970
  222SOL     OW  664   0.944   1.619   1.241 -0.2866  0.4816  0.0872
  222SOL    HW1  665   1.012   1.592   1.314  1.7409  0.6835  2.9576
  222SOL    HW2  666   0.901   1.711   1.269  0.5008  1.2983 -1.2567
  223SOL     OW  667   1.350   0.024   2.793 -0.1590 -0.4469  0.2394
  223SOL    HW1  668   1.328   3.067   2.751  0.3188 -1.5648 -1.1588
  223SOL    HW2  669   1.425   0.066   2.740  0.3899 -2.9818  2.3969
  224SOL     OW  670   2.728   0.582   1.239  0.4668  0.4000 -0.2000
  224SOL    HW1  671   2.660   0.526   1.292 -1.0011  0.4981  0.7894
  224SOL    HW2  672   2.684   0.643   1.168 -1.4824 -0.9088  0.4018
  225SOL     OW  673   1.018   0.559   1.374  0.7043 -0.1460  0.6971
  225SOL    HW1  674   0.995   0.644   1.321 -2.2635 -1.6961 -1.9382
  225SOL    HW2  675   0.935   0.520   1.416  1.4314  0.1886 -0.1749
  226SOL     OW  676   1.697   1.891   2.897 -0.3128 -0.0343 -0.2351
  226SOL    HW1  677   1.613   1.893   2.839 -0.6647  4.0136  0.0198
  226SOL    HW2  678   1.708   1.978   2.944  2.4900 -0.3733  0.0021
  227SOL     OW  679   1.170   1.919   1.422  0.1368  0.0038 -0.3460
  227SOL    HW1  680   1.169   1.891   1.322  1.0548 -0.2239  1.8872
  227SOL    HW2  681   1.192   1.841   1.482 -0.1058  2.1947 -1.2228
  228SOL     OW  682   0.410   1.591   0.850  0.2642 -0.2851 -0.3171
  228SOL    HW1  683   0.509   1.568   0.844 -0.5594 -0.0684 -1.6865
  228SOL    HW2  684   0.372   1.559   0.940  2.1502  0.6573  1.6436
  229SOL     OW  685   1.303   0.599   3.105  0.1514 -0.4891  0.2257
  229SOL    HW1  686   1.315   0.515   0.016 -0.3284  1.3367 -2.6677
  229SOL    HW2  687   1.382   0.620   3.041 -1.3810 -0.6607 -0.9642
  230SOL     OW  688   1.251   0.572   2.366  0.1203  0.4828  0.0253
  230SOL    HW1  689   1.273   0.572   2.267 -0.6050 -0.6141 -1.7413
  230SOL    HW2  690   1.257   0.482   2.413 -2.5481 -0.2670  0.3496
  231SOL     OW  691   1.195   1.695   2.360  0.0603  0.1319  0.3686
  231SOL    HW1  692   1.241   1.657   2.441 -1.0055 -3.1888  2.4509
  231SOL    HW2  693   1.123   1.760   2.390 -1.2229  2.4403  1.0332
  232SOL     OW  694   2.369   1.836   0.960 -0.1777 -0.1470 -0.3006
  232SOL    HW1  695   2.310   1.860   0.883  1.5165 -2.7685  1.3433
  232SOL    HW2  696   2.449   1.778   0.932  0.2134  0.4485  4.6705
  233SOL     OW  697   1.893   2.872   0.034  0.1308  0.1354 -0.0297
  233SOL    HW1  698   1.798   2.847   0.015  2.9509  1.6175  0.0906
  233SOL    HW2  699   1.928   2.940   3.102 -1.2387 -0.7355  1.6557
  234SOL     OW  700   0.619   0.008   2.752 -0.2491  0.7434 -0.0593
  234SOL    HW1  701   0.635   3.050   2.774  1.1500  1.8762 -0.2201
  234SOL    HW2  702   0.541   0.010   2.689 -3.1472  4.5669  2.1498
  235SOL     OW  703   2.326   3.132   2.690  0.2824  0.1448  0.2857
  235SOL    HW1  704   2.407   0.009   2.742 -0.0661 -2.3668 -2.2185
  235SOL    HW2  705   2.345   3.096   2.593 -1.2485 -0.6686 -1.4038
  236SOL     OW  706   2.621   2.262   2.318  0.2346  0.3945 -0.1352
  236SOL    HW1  707   2.687   2.280   2.393  0.2745  1.7762  0.0299
  236SOL    HW2  708   2.648   2.176   2.267 -1.8530 -1.1882  0.5953
  237SOL     OW  709   1.007   1.439   1.966 -0.2471 -0.3308 -0.3173
  237SOL    HW1  710   1.065   1.363   2.001 -1.7349  1.6920 -0.9840
  237SOL    HW2  711   1.002   1.516   2.035 -1.5875 -1.5191  0.1427
  238SOL     OW  712   1.929   0.123   2.418  0.3804  0.4823  0.2305
  238SOL    HW1  713   1.940   0.099   2.517  0.1458 -0.6870 -0.5973
  238SOL    HW2  714   2.020   0.144   2.381  0.2692 -1.2596  1.5141
  239SOL     OW  715   0.457   1.795   1.992 -0.4333  0.3708  0.3215
  239SOL    HW1  716   0.515   1.712   1.981  0.8366 -0.9187  1.0898
  239SOL    HW2  717   0.367   1.783   1.952  4.6509 -0.9901 -0.0721
  240SOL     OW  718   2.826   2.801   0.614 -0.0862  0.0386  0.1118
  240SOL    HW1  719   2.860   2.719   0.567 -1.6701 -0.7495 -1.2866
  240SOL    HW2  720   2.870   2.882   0.575 -0.8562 -1.2696 -0.6747
  241SOL     OW  721   1.942   1.785   0.487 -0.0041 -0.6091  0.2601
  241SOL    HW1  722   2.018   1.823   0.425  0.1500  1.0667 -2.0896
  241SOL    HW2  723   1.858   1.837   0.474  3.9262  1.7168  0.3225
  242SOL     OW  724   1.482   1.879   2.705  0.0594 -0.4254 -0.5699
  242SOL    HW1  725   1.524   1.869   2.612 -0.4698 -0.3391 -0.6249
  242SOL    HW2  726   1.390   1.847   2.696  1.9951  1.3113 -1.4426
  243SOL     OW  727   0.731   2.542   2.287 -0.0912 -0.3807  0.1554
  243SOL    HW1  728   0.747   2.637   2.323 -1.0557 -2.8471  0.0469
  243SOL    HW2  729   0.797   2.473   2.320 -1.6420 -0.5262  0.9893
  244SOL     OW  730   2.182   0.226   2.672  0.1776 -0.4945 -0.0632
  244SOL    HW1  731   2.190   0.268   2.764 -2.1617 -0.6232 -0.5743
  244SOL    HW2  732   2.250   0.148   2.655  3.2947 -3.2925 -0.8552
  245SOL     OW  733   1.238   2.885   0.457 -0.4261 -0.2713 -0.2004
  245SOL    HW1  734   1.260   2.934   0.547  0.4309 -1.7820 -0.6351
  245SOL    HW2  735   1.201   2.940   0.377 -4.2081  0.5392 -1.7488
  246SOL     OW  736   1.176   2.653   0.342  0.2269 -0.2409 -0.3839
  246SOL    HW1  737   1.259   2.614   0.310 -0.7153 -0.1368  1.2338
  246SOL    HW2  738   1.187   2.748   0.381 -0.7408 -0.2591  1.0607
  247SOL     OW  739   0.779   0.648   2.378  0.7209 -0.3188 -0.1148
  247SOL    HW1  740   0.820   0.584   2.312 -3.0381  0.2997  0.0702
  247SOL    HW2  741   0.691   0.691   2.335  0.0286  0.2665 -3.0843
  248SOL     OW  742   1.060   1.347   2.344 -0.2151 -0.0594  0.1248
  248SOL    HW1  743   0.969   1.312   2.312 -1.2696  0.5332 -1.1746
  248SOL    HW2  744   1.075   1.444   2.304  1.8450 -0.7070 -1.3955
  249SOL     OW  745   2.229   0.287   0.383  0.0517  0.2406 -0.2446
  249SOL    HW1  746   2.326   0.255   0.363  0.5139 -0.2910  0.0553
  249SOL    HW2  747   2.205   0.275   0.478  1.6220 -0.6899 -1.9480
  250SOL     OW  748   0.736   0.210   0.513 -0.0872  0.2594  0.0509
  250SOL    HW1  749   0.743   0.118   0.566  2.0388 -1.7043  0.7366
  250SOL    HW2  750   0.653   0.261   0.545  1.4501 -3.2358  1.2498
  251SOL     OW  751   1.659   0.288   2.814 -0.5236  0.2653 -0.2159
  251SOL    HW1  752   1.710   0.362   2.767  1.2507 -1.7443 -1.5601
  251SOL    HW2  753   1.687   0.261   2.906 -0.7487 -1.1525 -0.0940
  252SOL     OW  754   1.947   1.519   1.819 -0.2080 -0.8969 -0.1183
  252SOL    HW1  755   1.897   1.473   1.899  1.2195 -1.2582  2.2741
  252SOL    HW2  756   1.887   1.516   1.736 -2.0872 -0.7374 -0.2479
  253SOL     OW  757   2.815   2.259   1.863  0.2905 -0.3233  0.6882
  253SOL    HW1  758   2.754   2.336   1.893 -0.6164  0.3342 -0.1748
  253SOL    HW2  759   2.896   2.308   1.825 -0.8375  3.3400 -0.4972
  254SOL     OW  760   0.277   1.305   1.265  0.2956 -0.0442  0.0775
  254SOL    HW1  761   0.369   1.257   1.280  1.9838 -0.6809 -1.2341
  254SOL    HW2  762   0.289   1.382   1.198 -1.7678  0.4011 -1.1277
  255SOL     OW  763   0.895   0.746   1.235 -0.4032  0.3426  0.2998
  255SOL    HW1  764   0.802   0.757   1.191 -0.0296  1.4429 -0.3141
  255SOL    HW2  765   0.966   0.806   1.191  0.2036 -1.9029 -0.0164
  256SOL     OW  766   1.922   2.704   1.795 -0.3892  0.1121 -0.9548
  256SOL    HW1  767   1.866   2.629   1.841 -1.1329 -1.2525  1.4351
  256SOL    HW2  768   2.012   2.672   1.766  0.4147  0.1956  0.1688
  257SOL     OW  769   0.281   2.846   3.078 -0.1298 -0.2294 -0.3176
  257SOL    HW1  770   0.319   2.891   2.992  1.3872 -2.0432  0.6224
  257SOL    HW2  771   0.183   2.877   3.091  2.8538 -2.3811 -1.0805
  258SOL     OW  772   0.801   2.788   2.406 -0.1658 -0.0938 -0.4956
  258SOL    HW1  773   0.902   2.809   2.398 -1.1839 -1.1961  0.3202
  258SOL    HW2  774   0.787   2.785   2.509 -0.5370  0.9237  1.8331
  259SOL     OW  775   1.217   0.039   2.180  0.3524 -0.2101 -0.5429
  259SOL    HW1  776   1.215   3.119   2.092 -0.1400 -1.0857  0.0420
  259SOL    HW2  777   1.310   0.047   2.218  0.1497 -2.3865  3.4185
  260SOL     OW  778   1.840   0.474   0.974 -0.5248  0.0951 -0.1876
  260SOL    HW1  779   1.927   0.422   0.981  0.7732  1.7328 -3.3219
  260SOL    HW2  780   1.861   0.574   0.961  1.0700  2.2008  0.8102
  261SOL     OW  781   0.408   0.335   2.571 -0.2831 -0.2329 -0.2477
  261SOL    HW1  782   0.358   0.418   2.600  0.3481 -0.8631 -0.0721
  261SOL    HW2  783   0.451   0.298   2.660  3.1953 -1.2232  0.2463
  262SOL     OW  784   2.913   2.559   2.103  0.3320 -0.1763 -0.5374
  262SOL    HW1  785   2.919   2.580   2.204  0.7062 -1.0347 -2.0095
  262SOL    HW2  786   3.002   2.557   2.060 -2.2544 -0.5606  1.9093
  263SOL     OW  787   3.002   1.697   2.335  0.1317  0.2677 -0.3210
  263SOL    HW1  788   3.049   1.763   2.269 -0.3031 -1.1936 -1.9298
  263SOL    HW2  789   3.078   1.661   2.397  3.1251 -2.0581  0.4682
  264SOL     OW  790   0.541   0.776   0.849  0.0837  0.4795  0.8399
  264SOL    HW1  791   0.454   0.830   0.839 -1.2991 -2.0013  0.8483
  264SOL    HW2  792   0.510   0.682   0.837  0.8575  1.4816  0.2924
  265SOL     OW  793   0.994   2.195   0.620  0.0835 -0.1799 -0.0746
  265SOL    HW1  794   1.094   2.168   0.625  1.7155  1.9465 -0.5912
  265SOL    HW2  795   0.968   2.262   0.692  0.0086  3.7367 -0.6191
  266SOL     OW  796   1.572   0.475   1.113 -0.4004 -0.0590  0.3413
  266SOL    HW1  797   1.667   0.467   1.078  0.6410  0.4054  0.9549
  266SOL    HW2  798   1.506   0.508   1.051  2.9580 -1.8551  4.0464
  267SOL     OW  799   2.629   1.051   0.135 -0.8085  0.1783  0.3654
  267SOL    HW1  800   2.715   1.102   0.128 -0.7064 -0.6891  1.7544
  267SOL    HW2  801   2.601   1.002   0.049  2.9750 -1.4038  2.3262
  268SOL     OW  802   1.847   0.351   0.128  0.1987  0.0749  0.1895
  268SOL    HW1  803   1.916   0.290   0.174  0.2487  0.6578 -2.1131
  268SOL    HW2  804   1.752   0.320   0.152  1.4533  3.4636 -0.4411
  269SOL     OW  805   2.107   0.907   2.926  0.7635  0.3477  0.0642
  269SOL    HW1  806   2.030   0.843   2.935  2.4274 -0.1105 -0.3889
  269SOL    HW2  807   2.098   0.979   2.991 -0.1834  1.0699 -0.6498
  270SOL     OW  808   0.059   1.001   2.988  0.3496 -0.0224  0.3412
  270SOL    HW1  809   0.095   1.007   2.894  2.9213  0.6937  0.5270
  270SOL    HW2  810   0.004   0.917   3.001 -2.3096  1.1977  1.0811
  271SOL     OW  811   2.922   0.813   0.373 -0.1892 -0.5441  0.1256
  271SOL    HW1  812   2.844   0.875   0.400 -0.0045 -0.8166  3.1281
  271SOL    HW2  813   2.988   0.808   0.448  1.3433 -0.3291 -1.9464
  272SOL     OW  814   0.153   2.006   2.887  0.2874 -0.7543 -0.2506
  272SOL    HW1  815   0.110   2.066   2.818 -0.5672 -5.2328  0.0602
  272SOL    HW2  816   0.125   2.035   2.978  1.3978 -0.3492 -1.4647
  273SOL     OW  817   2.582   3.031   0.429  0.3120 -0.7314 -0.3924
  273SOL    HW1  818   2.591   3.133   0.444  0.6950  1.2928 -0.7985
  273SOL    HW2  819   2.511   3.020   0.358 -0.4603 -1.6478  0.3840
  274SOL     OW  820   0.511   2.195   0.830  0.0536  0.0780 -0.0472
  274SOL    HW1  821   0.522   2.292   0.807 -3.8243 -2.1727  2.0058
  274SOL    HW2  822   0.565   2.130   0.774  1.7055 -2.3082  0.6686
  275SOL     OW  823   2.752   1.593   0.447 -0.2548 -0.1721  0.3313
  275SOL    HW1  824   2.700   1.599   0.534  1.3817  1.5825  1.6885
  275SOL    HW2  825   2.848   1.566   0.457 -2.8690  1.1705 -1.3603
  276SOL     OW  826   0.003   1.111   2.023 -0.0270  0.0564  0.5480
  276SOL    HW1  827   3.084   1.119   2.106 -0.6030 -2.7921 -2.1063
  276SOL    HW2  828   3.092   1.044   1.960 -0.2112 -1.7570  1.0877
  277SOL     OW  829   1.845   2.852   1.193  0.5271 -0.2124 -0.5645
  277SOL    HW1  830   1.884   2.884   1.102 -1.5877  2.1414 -0.9575
  277SOL    HW2  831   1.901   2.872   1.275  0.0600  1.3407 -3.7207
  278SOL     OW  832   1.332   2.563   2.235 -0.0689 -0.1097  0.3095
  278SOL    HW1  833   1.390   2.488   2.207  1.3941  0.2419 -0.6479
  278SOL    HW2  834   1.243   2.522   2.261 -1.6424 -3.7788 -1.4696
  279SOL     OW  835   1.437   2.108   0.723 -0.0601  0.1758  0.1914
  279SOL    HW1  836   1.499   2.139   0.648  0.9281  0.7273  0.0017
  279SOL    HW2  837   1.350   2.068   0.689  1.1471 -1.2520 -0.1003
  280SOL     OW  838   0.026   1.752   0.996  0.4375 -0.1962 -0.2833
  280SOL    HW1  839   0.077   1.787   0.915 -1.4028  0.7028 -3.1086
  280SOL    HW2  840   3.067   1.756   0.972  2.2998 -0.9796 -1.5549
  281SOL     OW  841   3.024   0.842   2.487 -0.1824 -0.2067 -0.3485
  281SOL    HW1  842   2.921   0.837   2.474 -0.7928  1.9033  1.5500
  281SOL    HW2  843   3.056   0.776   2.562  1.3625  2.0277  1.8900
  282SOL     OW  844   0.796   1.361   0.803  0.6886 -0.1058  0.5217
  282SOL    HW1  845   0.710   1.308   0.820 -1.4086  0.5032 -0.8363
  282SOL    HW2  846   0.775   1.455   0.767  0.3844  0.3601  0.1045
  283SOL     OW  847   1.946   2.224   0.332 -0.4192  0.1486  0.2917
  283SOL    HW1  848   1.905   2.270   0.412 -0.3277 -2.0340  2.4196
  283SOL    HW2  849   2.022   2.164   0.364  0.3462  1.5088  0.6924
  284SOL     OW  850   0.911   0.554   0.114 -0.3140 -0.1136  0.5532
  284SOL    HW1  851   0.886   0.629   0.175  1.2392 -0.2057 -0.6289
  284SOL    HW2  852   0.955   0.600   0.034 -1.7812 -0.4157  2.3072
  285SOL     OW  853   2.344   1.142   2.920 -0.3171 -0.1577 -0.3719
  285SOL    HW1  854   2.261   1.168   2.863  1.9790 -2.5964 -1.0384
  285SOL    HW2  855   2.342   1.197   3.007 -0.5776  0.0608 -0.7767
  286SOL     OW  856   1.643   2.506   1.267 -0.3627  0.0948  0.1988
  286SOL    HW1  857   1.553   2.484   1.304  3.2829 -1.3282  0.4193
  286SOL    HW2  858   1.636   2.582   1.201  0.5619 -3.8717  2.5324
  287SOL     OW  859   0.952   1.085   0.721 -0.3043 -0.3064 -0.1962
  287SOL    HW1  860   0.864   1.043   0.743 -0.7518 -1.6138  1.1864
  287SOL    HW2  861   0.957   1.185   0.742  1.5021 -0.7416 -3.1310
  288SOL     OW  862   1.122   2.365   0.109  0.0189  0.1346 -1.0105
  288SOL    HW1  863   1.201   2.409   0.058 -0.3346 -0.0972  1.0213
  288SOL    HW2  864   1.142   2.377   0.207 -0.1894 -1.3745  0.8582
  289SOL     OW  865   0.194   1.461   1.486 -0.4758 -0.0125  0.5617
  289SOL    HW1  866   0.203   1.560   1.482 -3.8326 -1.6013 -1.1275
  289SOL    HW2  867   0.241   1.408   1.410  1.3978  0.2285  1.0581
  290SOL     OW  868   1.592   2.406   0.814 -0.1574  0.5250  0.2587
  290SOL    HW1  869   1.552   2.343   0.886 -0.9560 -2.0798  0.7543
  290SOL    HW2  870   1.683   2.440   0.848  2.9362 -1.4450  1.2137
  291SOL     OW  871   1.932   3.046   2.962  0.0599 -0.8773  0.2845
  291SOL    HW1  872   1.937   0.008   2.991  2.4239  1.1958 -0.0997
  291SOL    HW2  873   1.838   3.028   2.923 -4.7880 -1.2539 -2.0278
  292SOL     OW  874   0.923   0.496   2.173  0.0256  0.2986 -0.0627
  292SOL    HW1  875   0.956   0.556   2.097 -0.3931 -1.4954  0.7114
  292SOL    HW2  876   0.995   0.424   2.194  1.3352 -1.9056 -0.4482
  293SOL     OW  877   2.257   2.248   0.857  0.0199  0.3289 -0.4997
  293SOL    HW1  878   2.240   2.197   0.770  1.3426  1.7198 -0.3653
  293SOL    HW2  879   2.260   2.182   0.937 -0.6710 -1.4443 -1.1277
  294SOL     OW  880   0.563   0.768   2.261  0.1087 -0.3645  0.0122
  294SOL    HW1  881   0.508   0.685   2.268  1.9364  1.8924 -0.7671
  294SOL    HW2  882   0.509   0.849   2.292  0.6746 -0.1517 -2.0768
  295SOL     OW  883   1.575   1.628   0.919  0.3929  0.3337 -0.1373
  295SOL    HW1  884   1.618   1.540   0.956 -0.6619  0.7448  2.1261
  295SOL    HW2  885   1.633   1.706   0.951 -1.0853 -1.2867  0.2065
  296SOL     OW  886   2.769   1.876   0.350 -0.3308  0.4474 -0.1738
  296SOL    HW1  887   2.693   1.920   0.398 -0.1540  0.1004 -2.1145
  296SOL    HW2  888   2.794   1.786   0.392  1.0635  1.6730 -1.3872
  297SOL     OW  889   2.137   3.065   0.317 -0.0794  0.4217  0.1276
  297SOL    HW1  890   2.160   3.099   0.408 -0.6748  0.1099 -1.0777
  297SOL    HW2  891   2.218   3.051   0.261 -1.6783  2.0564  2.1121
  298SOL     OW  892   1.006   2.578   2.883 -0.2234  0.1307  0.3197
  298SOL    HW1  893   1.036   2.551   2.789  0.5712 -0.4437  0.7838
  298SOL    HW2  894   1.073   2.643   2.931  1.3088  1.7383  0.8468
  299SOL     OW  895   1.238   2.233   2.106  0.0690 -0.7632  0.7221
  299SOL    HW1  896   1.335   2.271   2.113  1.9582 -1.0607  0.7838
  299SOL    HW2  897   1.164   2.306   2.096 -1.2597  0.7520 -1.9525
  300SOL     OW  898   2.551   0.086   2.829  0.4745  0.3376  0.4269
  300SOL    HW1  899   2.591   0.125   2.913 -1.1835 -1.9936 -1.4776
  300SOL    HW2  900   2.549   0.159   2.758 -1.4362 -0.1583  2.9695
  301SOL     OW  901   1.393   0.809   2.125  0.3178 -0.4217  0.4404
  301SOL    HW1  902   1.348   0.723   2.091 -0.2591 -0.7285 -3.0746
  301SOL    HW2  903   1.481   0.827   2.074 -3.3013  0.0900  0.5186
  302SOL     OW  904   2.684   2.898   0.146 -0.2806 -0.0249  0.2509
  302SOL    HW1  905   2.602   2.887   0.206 -1.5130 -1.0840 -0.9263
  302SOL    HW2  906   2.771   2.935   0.191  2.0285 -0.3878 -0.1719
  303SOL     OW  907   2.687   2.502   1.984  0.7351 -0.6523  0.2529
  303SOL    HW1  908   2.615   2.498   2.060  2.1650 -2.1101 -1.3318
  303SOL    HW2  909   2.766   2.546   2.029  0.1517 -1.6039 -0.3539
  304SOL     OW  910   2.928   0.738   2.055  0.1857 -0.1282  0.1881
  304SOL    HW1  911   2.935   0.785   1.965  1.2460 -1.6863 -1.6701
  304SOL    HW2  912   2.926   0.807   2.130  0.3687 -0.3966 -1.1898
  305SOL     OW  913   0.578   1.657   1.330  0.4923  0.3037 -0.1815
  305SOL    HW1  914   0.617   1.583   1.278 -1.2466 -0.3287  3.6029
  305SOL    HW2  915   0.546   1.620   1.419  1.5706  1.2981  1.1415
  306SOL     OW  916   0.107   1.254   1.832  0.0545 -0.1261 -0.1574
  306SOL    HW1  917   0.145   1.348   1.844  1.6016 -0.8852  0.9310
  306SOL    HW2  918   0.078   1.207   1.918  0.3053  0.0642 -0.0805
  307SOL     OW  919   1.281   0.589   1.781  0.1042  0.0779  0.5736
  307SOL    HW1  920   1.274   0.574   1.681  1.0687 -0.1613  2.4230
  307SOL    HW2  921   1.371   0.637   1.799 -0.2442  2.5009  0.7954
  308SOL     OW  922   2.942   0.920   1.263  0.3865  0.6150  0.8953
  308SOL    HW1  923   2.995   0.986   1.318 -3.4872 -2.8292 -1.6953
  308SOL    HW2  924   2.904   0.849   1.324  2.9559 -1.3198 -0.2343
  309SOL     OW  925   2.172   1.172   0.969  0.5921 -0.0011  0.2841
  309SOL    HW1  926   2.152   1.254   0.910  2.1055  2.9292  0.6114
  309SOL    HW2  927   2.255   1.188   1.023 -3.6831 -0.6838 -0.8980
  310SOL     OW  928   0.086   2.088   2.622  0.3487  0.2661  0.3053
  310SOL    HW1  929   0.083   1.988   2.638  1.2602  0.3308  3.8290
  310SOL    HW2  930   0.009   2.121   2.556 -0.5351  0.9996 -0.8022
  311SOL     OW  931   2.838   2.834   2.736  0.2396  0.0579 -0.2218
  311SOL    HW1  932   2.748   2.867   2.770 -0.2612 -0.9860  1.3957
  311SOL    HW2  933   2.879   2.750   2.773 -0.4783 -0.3263  0.9269
  312SOL     OW  934   2.301   1.965   0.145 -0.1322  0.2729 -0.4900
  312SOL    HW1  935   2.331   1.873   0.117 -1.9215 -2.3252  0.8776
  312SOL    HW2  936   2.214   1.990   0.094 -1.6215  1.0252  0.7483
  313SOL     OW  937   2.529   2.775   0.567  0.4789  0.4075 -0.5204
  313SOL    HW1  938   2.618   2.752   0.617 -0.9799 -0.9655  0.5663
  313SOL    HW2  939   2.519   2.875   0.552  1.6285 -0.1072 -0.7264
  314SOL     OW  940   1.690   1.218   0.257 -0.0495 -0.2828 -0.2370
  314SOL    HW1  941   1.605   1.169   0.250  1.3119  1.1438 -2.9967
  314SOL    HW2  942   1.711   1.282   0.182  1.6282  0.0135 -3.0774
  315SOL     OW  943   1.379   2.715   1.985  0.4270 -0.2231 -0.0678
  315SOL    HW1  944   1.339   2.655   2.055 -0.0271 -0.6803  1.8107
  315SOL    HW2  945   1.409   2.802   2.033 -0.4762  1.5948  1.7674
  316SOL     OW  946   2.954   0.929   0.117 -0.0463 -0.3662 -0.2703
  316SOL    HW1  947   3.014   0.878   0.053 -0.4298  0.6896  1.0003
  316SOL    HW2  948   2.927   0.874   0.198 -0.1021 -2.4070 -0.8598
  317SOL     OW  949   0.287   3.122   0.293  1.0705 -0.4788 -0.0901
  317SOL    HW1  950   0.217   3.074   0.347  2.0373 -1.0292 -1.3584
  317SOL    HW2  951   0.346   3.057   0.250 -1.5100  3.3787  2.8940
  318SOL     OW  952   2.233   2.537   0.888  0.8648 -0.4054 -0.0818
  318SOL    HW1  953   2.239   2.437   0.872  0.3240 -0.0309  2.6836
  318SOL    HW2  954   2.225   2.599   0.806  0.5981  1.3133  0.1626
  319SOL     OW  955   1.144   1.677   3.012  0.0861  0.2941 -0.0281
  319SOL    HW1  956   1.078   1.747   3.044  0.8606  0.1301 -1.0334
  319SOL    HW2  957   1.115   1.628   2.928 -0.1412  0.8035  4.6698
  320SOL     OW  958   0.521   2.429   1.940  0.6811  0.1262  0.1246
  320SOL    HW1  959   0.454   2.504   1.965 -0.5888 -1.2110  1.0899
  320SOL    HW2  960   0.470   2.342   1.917 -0.9904  0.8366 -0.0786
  321SOL     OW  961   1.731   2.986   2.769 -0.2219 -0.2444  0.3941
  321SOL    HW1  962   1.658   3.040   2.810  0.5715 -0.0069 -1.1669
  321SOL    HW2  963   1.795   3.049   2.714  2.1490  0.3056 -1.3823
  322SOL     OW  964   2.977   1.445   2.163 -0.2543 -0.5748  0.2559
  322SOL    HW1  965   3.077   1.429   2.160 -0.1636 -1.7885  1.5214
  322SOL    HW2  966   2.960   1.539   2.199 -0.1054  1.3829  0.9299
  323SOL     OW  967   2.061   1.339   0.759 -0.1841 -0.2109  0.3953
  323SOL    HW1  968   2.009   1.261   0.722 -0.5570 -4.6990  2.3629
  323SOL    HW2  969   2.015   1.382   0.840 -0.9998  2.3032  0.1222
  324SOL     OW  970   2.898   0.072   2.558  0.9805 -0.0009  0.2915
  324SOL    HW1  971   2.853   0.085   2.644  2.8419 -0.4975 -5.9459
  324SOL    HW2  972   2.960   3.128   2.565 -0.0582 -0.5671  1.0462
  325SOL     OW  973   1.369   0.762   2.690  0.2635  0.1563  0.5475
  325SOL    HW1  974   1.405   0.714   2.606  1.4782  0.5122  0.1031
  325SOL    HW2  975   1.273   0.798   2.676 -0.1844  0.5315 -4.6950
  326SOL     OW  976   2.260   2.710   1.966  0.4061  0.2330  0.1377
  326SOL    HW1  977   2.236   2.675   1.874 -0.9359  0.4315 -1.5777
  326SOL    HW2  978   2.226   2.649   2.038 -1.3342  2.4112 -2.3018
  327SOL     OW  979   2.039   0.196   0.222  0.4260 -0.3556 -0.2897
  327SOL    HW1  980   2.055   0.096   0.241  1.9171  0.8468 -0.1443
  327SOL    HW2  981   2.108   0.248   0.278 -1.7712 -0.3469  0.0478
  328SOL     OW  982   0.137   1.338   2.482 -0.1857  0.0109 -0.7180
  328SOL    HW1  983   0.120   1.356   2.382  0.7212  2.0234 -1.2082
  328SOL    HW2  984   0.142   1.238   2.508 -0.5052 -1.4420 -0.0855
  329SOL     OW  985   2.154   3.119   1.923  0.6080 -0.3298 -0.6862
  329SOL    HW1  986   2.097   3.063   1.869  1.5873  2.4423  0.3692
  329SOL    HW2  987   2.247   3.126   1.884 -2.3843 -0.6839  1.3519
  330SOL     OW  988   2.947   1.378   1.127  0.5133  0.0737  0.5261
  330SOL    HW1  989   2.858   1.325   1.145 -1.9935 -1.3695 -1.1770
  330SOL    HW2  990   3.024   1.331   1.180 -1.5679 -0.0316  1.6383
  331SOL     OW  991   0.506   1.734   2.342  0.2715  0.0199 -0.1936
  331SOL    HW1  992   0.499   1.824   2.290 -1.1929  1.7702  0.1426
  331SOL    HW2  993   0.595   1.695   2.313  0.1046 -0.4493 -0.9031
  332SOL     OW  994   0.207   2.956   1.717  0.0102  0.6137  0.4589
  332SOL    HW1  995   0.286   2.962   1.651 -2.6104  0.9076  0.9947
  332SOL    HW2  996   0.122   2.938   1.661 -3.7177  1.6829  0.4467
  333SOL     OW  997   2.139   2.945   1.022 -0.6265 -0.1160 -0.4375
  333SOL    HW1  998   2.053   2.904   0.983 -1.6272  0.3969 -0.5081
  333SOL    HW2  999   2.142   3.043   1.032  1.8726 -0.7083  0.0521
  334SOL     OW 1000   0.686   1.627   0.784  0.3330 -0.3762 -0.5027
  334SOL    HW1 1001   0.688   1.675   0.695 -2.3783 -0.4918  1.2482
  334SOL    HW2 1002   0.747   1.682   0.844  1.2140 -1.5398 -0.9563
  335SOL     OW 1003   0.301   2.581   3.066  0.2034 -0.7622  0.1066
  335SOL    HW1 1004   0.288   2.550   2.971 -0.0480  1.1789 -3.6876
  335SOL    HW2 1005   0.296   2.681   3.079  3.3989 -2.4878  0.3507
  336SOL     OW 1006   0.235   3.046   2.416  0.5521  0.4204 -0.5523
  336SOL    HW1 1007   0.178   2.987   2.475  0.9700  2.4826  1.3476
  336SOL    HW2 1008   0.192   3.052   2.326  1.5614  1.2202 -1.3293
  337SOL     OW 1009   2.283   2.292   2.683  0.3795  0.1068 -0.3513
  337SOL    HW1 1010   2.236   2.294   2.776  2.1812 -0.5724 -1.0885
  337SOL    HW2 1011   2.318   2.383   2.660 -1.6991 -3.5780 -2.4278
  338SOL     OW 1012   1.110   1.199   1.111 -0.2700 -0.0041 -0.1816
  338SOL    HW1 1013   1.087   1.270   1.041 -1.0311  0.3158 -1.6459
  338SOL    HW2 1014   1.096   1.240   1.202 -2.5587 -1.9456 -1.3316
  339SOL     OW 1015   0.061   0.744   2.019 -0.0535  0.3796 -0.4786
  339SOL    HW1 1016   0.097   0.745   2.114  0.6076  1.2205 -0.3398
  339SOL    HW2 1017   3.100   0.770   2.020 -0.4899 -0.3807  0.5813
  340SOL     OW 1018   1.480   2.557   0.211 -0.0698  0.2939  0.4270
  340SOL    HW1 1019   1.477   2.639   0.271 -4.0266 -1.2127 -0.9171
  340SOL    HW2 1020   1.442   2.584   0.119  2.1877 -0.7933 -2.4284
  341SOL     OW 1021   1.947   0.994   0.998  0.2454  0.2777  0.4553
  341SOL    HW1 1022   1.863   1.050   0.986  1.9485  1.1901 -2.1311
  341SOL    HW2 1023   2.031   1.050   0.971 -0.9255  0.9488  0.7243
  342SOL     OW 1024   2.347   3.020   3.073  0.4677  0.4017  0.1668
  342SOL    HW1 1025   2.271   3.012   3.000  1.8927  0.4740  0.0312
  342SOL    HW2 1026   2.424   2.956   3.062 -1.5682  1.9150  0.5113
  343SOL     OW 1027   1.251   2.190   1.481  0.0737 -0.5696  0.5232
  343SOL    HW1 1028   1.242   2.197   1.582  0.8641  0.5888 -2.4521
  343SOL    HW2 1029   1.226   2.099   1.443  1.8194  1.4233  2.2079
  344SOL     OW 1030   2.019   2.532   1.056  0.2804  0.1512  0.3043
  344SOL    HW1 1031   2.097   2.545   0.989 -0.1833  1.8630  0.5761
  344SOL    HW2 1032   2.054   2.512   1.150 -1.9633 -2.6677 -1.3028
  345SOL     OW 1033   2.737   2.480   0.171 -0.0679 -0.1083 -0.1787
  345SOL    HW1 1034   2.734   2.380   0.180  3.0115  1.0645  0.3888
  345SOL    HW2 1035   2.703   2.525   0.257 -1.7292 -1.9927  0.2204
  346SOL     OW 1036   2.677   1.305   0.644 -0.0661  0.3633 -0.3245
  346SOL    HW1 1037   2.724   1.334   0.558 -1.2348  1.3404 -0.4962
  346SOL    HW2 1038   2.647   1.388   0.698 -1.8047  0.3228 -0.9220
  347SOL     OW 1039   1.999   2.426   1.616  0.7367 -0.2647  0.2386
  347SOL    HW1 1040   1.953   2.474   1.539 -0.7128 -1.9415  0.5175
  347SOL    HW2 1041   2.035   2.336   1.589 -0.3957  1.6090  1.0511
  348SOL     OW 1042   0.936   1.841   3.082 -0.5068 -0.6227  0.0026
  348SOL    HW1 1043   0.963   1.937   3.087  1.2183  0.2526 -1.7584
  348SOL    HW2 1044   0.880   1.813   0.025  0.4549  0.3612 -1.7167
  349SOL     OW 1045   2.627   1.532   1.755 -0.3766  0.1560  0.1084
  349SOL    HW1 1046   2.606   1.631   1.777  2.4322 -0.6590  0.9982
  349SOL    HW2 1047   2.692   1.532   1.671  2.8051 -0.3293 -1.4726
  350SOL     OW 1048   2.938   2.648   1.082  1.0361 -0.3464 -0.5549
  350SOL    HW1 1049   2.859   2.710   1.096 -2.1929 -0.0565 -0.7443
  350SOL    HW2 1050   3.024   2.679   1.127  1.8508 -0.1938 -0.8619
  351SOL     OW 1051   0.426   0.498   2.242  0.5368 -0.0660 -0.3533
  351SOL    HW1 1052   0.381   0.479   2.148 -0.2350 -1.4332 -1.6370
  351SOL    HW2 1053   0.475   0.415   2.279 -2.3696 -1.2651  0.5837
  352SOL     OW 1054   0.472   1.895   1.189  0.2683 -0.5343 -0.0478
  352SOL    HW1 1055   0.490   1.805   1.224 -0.9200 -1.6654  1.0390
  352SOL    HW2 1056   0.379   1.905   1.150  1.2684 -0.9063  0.5433
  353SOL     OW 1057   1.612   1.862   2.483  0.0009  0.1012 -0.6985
  353SOL    HW1 1058   1.580   1.874   2.386 -0.2076  2.3790  1.5317
  353SOL    HW2 1059   1.714   1.835   2.490  1.4566  2.0737  3.1024
  354SOL     OW 1060   1.025   0.564   0.996  0.1262 -0.4299  0.3638
  354SOL    HW1 1061   0.940   0.509   1.024 -0.6067  2.1336 -0.1048
  354SOL    HW2 1062   1.112   0.512   0.985 -2.9857 -2.4155  1.4217
  355SOL     OW 1063   2.496   0.761   0.778 -0.4387  0.0040  0.2457
  355SOL    HW1 1064   2.576   0.825   0.793  1.0939  0.4493 -0.1125
  355SOL    HW2 1065   2.424   0.803   0.717  0.2092  0.5985  1.2333
  356SOL     OW 1066   2.633   1.849   2.367 -0.4021  0.0109 -0.3914
  356SOL    HW1 1067   2.635   1.868   2.468 -0.9293  1.6821 -0.4824
  356SOL    HW2 1068   2.656   1.749   2.358  0.3011 -1.4235  0.8019
  357SOL     OW 1069   0.552   2.637   1.262  0.0294  0.2939  0.0854
  357SOL    HW1 1070   0.641   2.676   1.294 -1.2640 -2.0421 -1.8641
  357SOL    HW2 1071   0.556   2.550   1.211 -1.1554 -1.8196  1.0198
  358SOL     OW 1072   2.557   0.863   1.882 -0.4494 -0.1595  0.3146
  358SOL    HW1 1073   2.536   0.845   1.782 -0.6093  0.1308 -1.9816
  358SOL    HW2 1074   2.612   0.949   1.879 -1.1033 -1.1810 -1.3856
  359SOL     OW 1075   2.670   2.520   2.859 -0.2862 -0.0302 -0.4718
  359SOL    HW1 1076   2.617   2.553   2.775 -1.8636  0.0743  0.3025
  359SOL    HW2 1077   2.737   2.447   2.832 -1.3677 -0.7182 -1.4882
  360SOL     OW 1078   1.665   0.215   0.492  0.3267  0.2275  0.3651
  360SOL    HW1 1079   1.620   0.209   0.401  0.7358  0.1831 -0.1661
  360SOL    HW2 1080   1.645   0.298   0.546  0.9821 -2.4727 -1.1570
  361SOL     OW 1081   2.291   0.031   1.303  0.6025  1.0681 -0.3286
  361SOL    HW1 1082   2.316   0.071   1.391  0.0010 -0.5460  0.2681
  361SOL    HW2 1083   2.189   0.033   1.289  0.7453  0.7504  1.1646
  362SOL     OW 1084   1.242   1.316   0.476  0.0091  0.0595 -0.4700
  362SOL    HW1 1085   1.254   1.314   0.577 -0.3339  0.0105 -3.3265
  362SOL    HW2 1086   1.214   1.408   0.445 -0.9558 -0.6325  2.0701
  363SOL     OW 1087   2.661   1.651   3.007  0.0683 -0.0128  0.2730
  363SOL    HW1 1088   2.640   1.557   3.043  0.9099  0.6812  3.0185
  363SOL    HW2 1089   2.716   1.640   2.920  0.2416 -1.2086  0.6961
  364SOL     OW 1090   0.738   0.280   1.277 -0.0710 -0.7312 -0.0704
  364SOL    HW1 1091   0.784   0.327   1.358 -1.7370  2.2276 -1.3048
  364SOL    HW2 1092   0.644   0.243   1.299  2.8253  0.8416 -1.1016
  365SOL     OW 1093   0.090   3.039   0.463 -0.0763 -0.0499 -0.2367
  365SOL    HW1 1094   0.055   2.997   0.378 -2.0155 -1.2002  0.7893
  365SOL    HW2 1095   0.061   2.986   0.545  0.7755  1.0932  0.0654
  366SOL     OW 1096   2.833   1.565   0.162  0.5204  0.0038 -0.1421
  366SOL    HW1 1097   2.932   1.549   0.159 -4.0039 -0.3766 -3.5935
  366SOL    HW2 1098   2.790   1.572   0.255  0.2078  0.0938 -1.5664
  367SOL     OW 1099   2.981   2.677   2.904  0.0430 -0.0400 -0.4351
  367SOL    HW1 1100   2.952   2.601   2.968 -0.1746  0.1780 -0.4289
  367SOL    HW2 1101   2.951   2.765   2.947 -0.7307  0.7251 -1.2106
  368SOL     OW 1102   0.181   1.900   0.784 -0.2771  0.0538 -0.2821
  368SOL    HW1 1103   0.128   1.950   0.721  1.0752  0.7496  1.1614
  368SOL    HW2 1104   0.279   1.902   0.758 -2.7778 -0.3650  0.7366
  369SOL     OW 1105   0.668   3.018   0.260  0.5334 -0.0836 -0.1827
  369SOL    HW1 1106   0.610   2.972   0.191 -1.1642 -1.6797  1.4787
  369SOL    HW2 1107   0.612   3.031   0.348 -1.8611  0.8775  0.2202
  370SOL     OW 1108   0.288   0.869   0.813  0.1182 -0.1691  0.1507
  370SOL    HW1 1109   0.242   0.827   0.899  0.2375 -0.2343  0.4660
  370SOL    HW2 1110   0.220   0.917   0.759  0.3699 -0.1262 -1.8132
  371SOL     OW 1111   1.663   2.990   0.444  0.2477 -0.3791 -0.2425
  371SOL    HW1 1112   1.630   3.015   0.539 -0.4406  0.2501 -0.7083
  371SOL    HW2 1113   1.767   2.978   0.434  3.2492 -1.2675  1.1883
  372SOL     OW 1114   0.152   0.976   2.738  0.3060  0.0957 -0.9173
  372SOL    HW1 1115   0.083   1.017   2.677  0.6121  1.3455 -2.1569
  372SOL    HW2 1116   0.243   1.008   2.704 -2.3871  0.3363 -1.1898
  373SOL     OW 1117   2.902   1.627   0.725 -0.4246 -0.4962 -0.2104
  373SOL    HW1 1118   2.815   1.681   0.724 -2.5145  0.5704  1.2019
  373SOL    HW2 1119   2.915   1.603   0.820  0.3900 -1.6105 -1.4526
  374SOL     OW 1120   0.475   2.540   0.376 -0.7758 -0.0720  0.1826
  374SOL    HW1 1121   0.462   2.506   0.278  1.8625 -0.7845  1.3559
  374SOL    HW2 1122   0.550   2.483   0.415  0.4742 -1.4892  1.7640
  375SOL     OW 1123   0.184   0.645   0.127  0.0141 -0.4631  0.0110
  375SOL    HW1 1124   0.277   0.684   0.144 -1.0215  0.6491 -0.5494
  375SOL    HW2 1125   0.194   0.560   0.070  1.4936 -0.9539 -1.3559
  376SOL     OW 1126   0.392   2.657   1.990  0.3262  0.7809 -0.1040
  376SOL    HW1 1127   0.490   2.682   2.002 -1.2566  0.4667 -1.9061
  376SOL    HW2 1128   0.338   2.727   2.035  1.0544 -1.7148 -1.2730
  377SOL     OW 1129   1.162   2.351   2.462 -0.3617  0.5559 -0.0144
  377SOL    HW1 1130   1.199   2.421   2.528 -0.5025  0.2351 -2.9279
  377SOL    HW2 1131   1.222   2.272   2.445  0.5904 -0.0598  0.8844
  378SOL     OW 1132   1.105   0.872   0.649  0.0262 -0.0871 -0.1635
  378SOL    HW1 1133   1.040   0.947   0.659  2.3859  0.3124 -2.6464
  378SOL    HW2 1134   1.189   0.910   0.616 -0.9141 -2.8441 -0.7090
  379SOL     OW 1135   0.856   1.610   0.292 -0.8507  0.0958 -0.0854
  379SOL    HW1 1136   0.922   1.605   0.211  0.6470  0.1739 -2.6906
  379SOL    HW2 1137   0.826   1.520   0.330 -0.0900  3.5909  0.5618
  380SOL     OW 1138   0.190   2.005   1.392 -0.0068 -0.5013 -0.0939
  380SOL    HW1 1139   0.113   1.966   1.344  2.1098  1.8357  0.2208
  380SOL    HW2 1140   0.252   2.060   1.330  0.2955 -1.4144 -2.1126
  381SOL     OW 1141   0.237   1.079   1.668 -0.1140 -0.3755 -0.5104
  381SOL    HW1 1142   0.201   1.152   1.729  1.0334 -0.0094 -0.0374
  381SOL    HW2 1143   0.229   0.984   1.706 -0.5646 -0.2926 -0.1861
  382SOL     OW 1144   2.666   2.149   0.679 -0.4846 -0.0476  0.1059
  382SOL    HW1 1145   2.598   2.229   0.671 -1.3741  2.7496  0.5470
  382SOL    HW2 1146   2.645   2.083   0.753  0.8791 -0.0518 -1.2612
  383SOL     OW 1147   2.354   1.935   2.491  0.4924 -0.2213  0.2302
  383SOL    HW1 1148   2.437   1.902   2.539  0.4522 -1.3497 -0.5838
  383SOL    HW2 1149   2.364   2.035   2.464 -0.4524  1.3801 -0.2944
  384SOL     OW 1150   0.517   2.019   2.255 -0.3361  0.2157  0.0968
  384SOL    HW1 1151   0.581   2.083   2.301 -0.5769  0.9136  0.5023
  384SOL    HW2 1152   0.510   2.037   2.155 -0.5572 -0.2174  1.8040
  385SOL     OW 1153   2.920   2.411   0.897 -0.3312 -0.1595  0.3578
  385SOL    HW1 1154   2.899   2.501   0.938  0.8177  0.3360 -0.4206
  385SOL    HW2 1155   3.015   2.382   0.924  0.1420 -0.7089 -0.5269
  386SOL     OW 1156   1.586   0.819   0.249 -0.4814 -0.0728 -0.0266
  386SOL    HW1 1157   1.486   0.795   0.256 -1.7396  2.5714 -3.1388
  386SOL    HW2 1158   1.612   0.843   0.159 -0.3321  2.4907  1.3868
  387SOL     OW 1159   0.231   0.856   1.833  0.2575  0.2091  0.0369
  387SOL    HW1 1160   0.152   0.827   1.891  1.7724  0.0697 -1.4774
  387SOL    HW2 1161   0.320   0.863   1.887 -0.1317 -0.2564  1.4565
  388SOL     OW 1162   2.273   1.046   2.420 -0.6566  0.2562  0.3906
  388SOL    HW1 1163   2.264   1.147   2.429 -0.0771  0.4985 -2.0223
  388SOL    HW2 1164   2.251   1.002   2.510  0.6340  2.8641  0.4972
  389SOL     OW 1165   1.659   1.228   2.004  0.1963 -0.7036 -0.2758
  389SOL    HW1 1166   1.723   1.307   2.020 -1.0378  2.4531  0.3950
  389SOL    HW2 1167   1.570   1.253   1.957 -1.0889 -2.0661  0.0583
  390SOL     OW 1168   1.976   2.675   0.238 -0.8991  0.2882 -0.0541
  390SOL    HW1 1169   1.979   2.598   0.175 -0.7242  1.2644 -1.3281
  390SOL    HW2 1170   1.950   2.761   0.187 -1.6953  3.4349 -0.4726
  391SOL     OW 1171   1.836   2.333   1.169  0.1521 -0.1922 -0.1428
  391SOL    HW1 1172   1.869   2.397   1.097 -1.2535 -1.1730 -0.2372
  391SOL    HW2 1173   1.744   2.360   1.202 -0.0115  1.6292  0.0246
  392SOL     OW 1174   2.961   2.367   1.515  0.3263  0.4854 -0.0432
  392SOL    HW1 1175   2.961   2.463   1.484  1.7413  0.4158 -0.5006
  392SOL    HW2 1176   2.902   2.310   1.452 -4.4901 -1.0345  1.2287
  393SOL     OW 1177   2.032   1.941   0.052 -0.1692  0.4055  0.5666
  393SOL    HW1 1178   2.041   1.842   0.042 -1.5192  0.6280  1.8867
  393SOL    HW2 1179   2.015   1.984   3.099 -2.0812 -1.4484  1.4169
  394SOL     OW 1180   3.104   3.132   2.990 -0.2320 -0.2480 -0.2636
  394SOL    HW1 1181   3.005   3.126   2.972  1.2166 -0.1092 -0.7086
  394SOL    HW2 1182   0.010   0.032   2.907  3.0512  2.0963  0.7374
  395SOL     OW 1183   1.451   1.175   1.252 -0.4666 -0.4075 -0.6056
  395SOL    HW1 1184   1.545   1.169   1.207 -0.7625  1.9186 -0.6433
  395SOL    HW2 1185   1.402   1.086   1.259 -1.4245 -0.5966  2.0023
  396SOL     OW 1186   1.697   0.856   3.085 -0.1632  0.5143  0.3527
  396SOL    HW1 1187   1.674   0.955   3.092 -0.4444  1.9271  2.4739
  396SOL    HW2 1188   1.622   0.800   3.047 -0.6932 -0.4074  0.1193
  397SOL     OW 1189   0.088   0.723   2.791 -0.2236  0.1863  0.3450
  397SOL    HW1 1190   3.127   0.701   2.773  4.3813  0.0145  2.4732
  397SOL    HW2 1191   0.122   0.818   2.769  0.1258  0.1742  3.3002
  398SOL     OW 1192   0.880   0.218   3.014 -0.6027 -0.6173 -0.1927
  398SOL    HW1 1193   0.807   0.243   3.083 -5.3832  1.3582  0.8963
  398SOL    HW2 1194   0.969   0.271   3.022  1.4309 -0.6999 -0.0630
  399SOL     OW 1195   2.580   2.995   1.732  0.1677 -0.6415 -0.3645
  399SOL    HW1 1196   2.629   3.019   1.645  2.2701  1.2109 -0.1563
  399SOL    HW2 1197   2.596   2.898   1.747 -2.3543 -1.4346 -1.4413
  400SOL     OW 1198   0.252   1.649   2.329  0.4843 -0.0484  0.3134
  400SOL    HW1 1199   0.351   1.667   2.338 -1.4900 -0.6115  0.3508
  400SOL    HW2 1200   0.200   1.727   2.289  1.2747  0.6284 -4.0342
  401SOL     OW 1201   0.477   0.229   2.822 -0.8381 -0.4707 -0.1180
  401SOL    HW1 1202   0.468   0.277   2.906 -0.4128 -2.5003 -2.6282
  401SOL    HW2 1203   0.559   0.173   2.806 -2.1441  1.7113 -1.0387
  402SOL     OW 1204   0.381   2.186   1.844  0.2244 -0.1679 -0.1199
  402SOL    HW1 1205   0.451   2.163   1.774 -0.3547  0.3382 -3.1617
  402SOL    HW2 1206   0.303   2.239   1.803  1.3741 -1.5641 -2.4315
  403SOL     OW 1207   0.698   1.106   1.475  0.0315 -0.2653  0.1319
  403SOL    HW1 1208   0.711   1.006   1.473  0.9840  0.2431  0.9774
  403SOL    HW2 1209   0.755   1.155   1.543  0.0936  0.9080 -0.0021
  404SOL     OW 1210   2.968   2.487   1.761 -0.1864  0.4306  0.0403
  404SOL    HW1 1211   2.941   2.584   1.756  2.4392 -1.7253 -0.3208
  404SOL    HW2 1212   2.984   2.443   1.668  0.1311  0.4241 -1.5161
  405SOL     OW 1213   3.116   0.219   1.805 -0.2239 -0.3115 -0.1624
  405SOL    HW1 1214   0.043   0.145   1.838  2.3125 -2.1341  2.6318
  405SOL    HW2 1215   3.085   0.276   1.885  1.3046  0.9468  1.3098
  406SOL     OW 1216   1.601   2.602   2.967  0.0475 -0.1040 -0.0264
  406SOL    HW1 1217   1.683   2.547   2.954  0.5369  1.7254 -0.7600
  406SOL    HW2 1218   1.598   2.670   2.897 -2.9580  0.3153  0.8768
  407SOL     OW 1219   1.977   1.406   1.395 -0.0075  0.0939 -0.0477
  407SOL    HW1 1220   1.951   1.312   1.419  0.9718  1.2310  0.3463
  407SOL    HW2 1221   1.929   1.474   1.449 -0.2885 -1.8762 -0.6499
  408SOL     OW 1222   0.701   0.073   2.226 -0.0432  0.2383 -0.5307
  408SOL    HW1 1223   0.653   0.151   2.264  2.5668  1.9188 -1.4700
  408SOL    HW2 1224   0.796   0.063   2.267  3.0223 -1.3191  1.6379
  409SOL     OW 1225   2.953   2.597   0.469 -0.1605  0.0463  0.1750
  409SOL    HW1 1226   2.915   2.499   0.454  0.0978 -0.4988  0.4594
  409SOL    HW2 1227   2.956   2.638   0.375 -2.7347 -2.1515  1.6239
  410SOL     OW 1228   2.381   1.760   0.498 -0.1082 -0.1825  0.0606
  410SOL    HW1 1229   2.419   1.666   0.495 -1.6344  0.9888  1.8577
  410SOL    HW2 1230   2.450   1.835   0.474 -0.2631  1.8432 -0.6052
  411SOL     OW 1231   0.009   0.537   0.977  0.4036  0.7345  0.2028
  411SOL    HW1 1232   0.010   0.501   0.884  0.8022  0.3852  3.8024
  411SOL    HW2 1233   0.102   0.573   1.000  0.4150  1.2825 -2.3676
  412SOL     OW 1234   1.649   0.445   0.670 -0.3966  0.3421 -0.2372
  412SOL    HW1 1235   1.696   0.430   0.760  0.3723 -0.8791 -0.4691
  412SOL    HW2 1236   1.597   0.530   0.675  1.0623  0.5755 -1.1101
  413SOL     OW 1237   0.800   0.385   1.033  0.2048  0.3433 -0.1503
  413SOL    HW1 1238   0.786   0.308   0.970 -1.2316 -0.9554  0.6773
  413SOL    HW2 1239   0.782   0.355   1.131 -0.5669 -0.8172  0.8758
  414SOL     OW 1240   0.475   1.780   0.084  0.2329  0.0976 -0.4131
  414SOL    HW1 1241   0.476   1.722   0.000  0.8252 -1.4361 -0.3249
  414SOL    HW2 1242   0.426   1.732   0.169 -1.8357 -1.3319  2.7957
  415SOL     OW 1243   0.427   2.434   0.125  0.3983 -0.3217  0.1032
  415SOL    HW1 1244   0.370   2.351   0.149  0.3073 -2.2768  0.1932
  415SOL    HW2 1245   0.379   2.480   0.052 -1.4675 -1.3198  2.9652
  416SOL     OW 1246   1.580   0.812   0.531  0.0084  0.0095 -0.4831
  416SOL    HW1 1247   1.624   0.818   0.438  2.9810 -1.0505 -2.2650
  416SOL    HW2 1248   1.644   0.789   0.611  0.2901  0.1510  1.0988
  417SOL     OW 1249   0.420   0.925   0.551  0.3140 -0.2664 -0.4867
  417SOL    HW1 1250   0.348   0.955   0.488  0.6638  1.4424  1.8265
  417SOL    HW2 1251   0.391   0.935   0.649 -1.7441 -2.3435  0.2898
  418SOL     OW 1252   2.738   1.240   2.526 -0.4387 -0.2502  0.1990
  418SOL    HW1 1253   2.675   1.228   2.447  2.1908 -2.1628  0.4641
  418SOL    HW2 1254   2.694   1.252   2.616  1.7170 -0.1255  1.5279
  419SOL     OW 1255   0.208   0.402   0.020  0.6326 -0.3470  0.2277
  419SOL    HW1 1256   0.161   0.312   0.046 -1.6225  0.2379 -2.8417
  419SOL    HW2 1257   0.168   0.441   3.072  1.4979 -2.7291  1.6670
  420SOL     OW 1258   0.327   1.268   0.950 -0.0760 -0.1716  0.0148
  420SOL    HW1 1259   0.392   1.333   0.995  0.7545 -1.2182 -1.7978
  420SOL    HW2 1260   0.241   1.308   0.917  1.9401  1.2845 -0.3042
  421SOL     OW 1261   0.678   2.036   0.689 -0.1979  0.4955 -0.1461
  421SOL    HW1 1262   0.696   2.039   0.592 -1.4871 -0.9660 -2.0522
  421SOL    HW2 1263   0.747   1.984   0.743  0.3622 -1.1568 -3.1138
  422SOL     OW 1264   2.822   0.757   1.454  0.0111  0.1650 -0.3654
  422SOL    HW1 1265   2.908   0.736   1.507  2.0050 -2.0726 -1.9556
  422SOL    HW2 1266   2.797   0.680   1.392  0.0402 -0.0618  0.2958
  423SOL     OW 1267   1.656   1.598   1.217  0.1125  0.0671 -0.5874
  423SOL    HW1 1268   1.735   1.541   1.196  0.8543 -0.0497  1.7978
  423SOL    HW2 1269   1.658   1.687   1.173  0.7687 -0.9657 -1.8037
  424SOL     OW 1270   1.926   1.131   0.423  0.3260  0.3061  0.3658
  424SOL    HW1 1271   1.964   1.222   0.397  1.9194 -0.8997  0.4543
  424SOL    HW2 1272   1.829   1.120   0.399 -0.1298 -0.0075 -0.8491
  425SOL     OW 1273   0.066   3.039   2.168  0.6830  0.3526  0.1898
  425SOL    HW1 1274   0.047   3.129   2.210  0.7804 -2.8307 -0.6195
  425SOL    HW2 1275   3.119   2.981   2.186  0.3971 -1.7466  1.6097
  426SOL     OW 1276   2.529   2.838   2.574  0.7336 -0.2822 -0.2986
  426SOL    HW1 1277   2.547   2.859   2.675 -1.4155 -0.2943  0.7603
  426SOL    HW2 1278   2.458   2.902   2.541  2.5508  3.0587 -0.8659
  427SOL     OW 1279   1.049   0.743   2.386 -0.3086  0.2584  0.3686
  427SOL    HW1 1280   0.958   0.705   2.388  0.8158 -0.7901 -0.2502
  427SOL    HW2 1281   1.122   0.672   2.379  0.3365 -0.2064 -0.0933
  428SOL     OW 1282   2.187   0.874   2.223  0.1791 -0.0712  0.2050
  428SOL    HW1 1283   2.213   0.939   2.294  0.8210 -1.3206  2.7984
  428SOL    HW2 1284   2.134   0.915   2.147  1.0857 -0.8576 -3.1003
  429SOL     OW 1285   2.514   0.198   0.701 -0.2791 -0.3282  0.3024
  429SOL    HW1 1286   2.571   0.184   0.616 -1.0254 -2.8416 -2.2280
  429SOL    HW2 1287   2.561   0.259   0.770 -0.6769  1.0583 -0.9114
  430SOL     OW 1288   2.114   1.373   2.157  0.0249  0.4173 -0.0560
  430SOL    HW1 1289   2.074   1.393   2.252 -1.5418  0.6310  3.4684
  430SOL    HW2 1290   2.115   1.269   2.147 -1.6784  3.1684  0.3578
  431SOL     OW 1291   3.103   2.038   1.097 -0.1137 -0.3888 -0.6190
  431SOL    HW1 1292   3.017   2.091   1.082 -0.1320  0.7074  1.0935
  431SOL    HW2 1293   3.089   1.976   1.180  0.8927 -0.2169  3.4690
  432SOL     OW 1294   1.579   2.950   2.127 -0.5646 -0.3502  0.4392
  432SOL    HW1 1295   1.534   3.042   2.130  1.0401 -1.7636  2.1135
  432SOL    HW2 1296   1.658   2.949   2.065 -1.1127 -1.9838 -0.7055
  433SOL     OW 1297   1.579   3.017   1.786  0.0608 -0.0595 -0.4439
  433SOL    HW1 1298   1.641   2.989   1.860 -2.2860  0.5277  0.6250
  433SOL    HW2 1299   1.615   2.992   1.693  0.4423  0.0047 -0.7526
  434SOL     OW 1300   0.254   2.464   2.389  0.2919  0.2139  0.4350
  434SOL    HW1 1301   0.223   2.441   2.295  1.4368 -2.5778 -1.3716
  434SOL    HW2 1302   0.270   2.565   2.400 -0.6150  2.0213  1.8669
  435SOL     OW 1303   0.199   2.115   0.262 -0.1535 -0.3857 -0.2472
  435SOL    HW1 1304   0.298   2.126   0.290  3.4686  0.2375  0.8237
  435SOL    HW2 1305   0.150   2.039   0.319  0.4495  0.0172  1.9548
  436SOL     OW 1306   0.971   0.920   1.634  0.2600  0.1134 -0.0791
  436SOL    HW1 1307   0.927   0.925   1.725 -1.4912  0.7062 -1.1008
  436SOL    HW2 1308   0.913   0.872   1.567  0.0906  1.6515  1.1053
  437SOL     OW 1309   0.561   0.284   2.349  0.1178  0.1924  0.4870
  437SOL    HW1 1310   0.657   0.294   2.388  1.3120  0.9453 -0.2998
  437SOL    HW2 1311   0.501   0.300   2.434 -2.9707  0.5854  4.2070
  438SOL     OW 1312   0.479   1.748   1.683 -0.4633  0.0269 -0.7634
  438SOL    HW1 1313   0.544   1.828   1.695 -0.1315  0.0380  1.3044
  438SOL    HW2 1314   0.530   1.667   1.654 -0.4213 -0.3956  0.5844
  439SOL     OW 1315   1.916   0.785   0.094  0.5044  0.5307 -0.1816
  439SOL    HW1 1316   1.817   0.792   0.061 -0.7050  0.0316  0.7728
  439SOL    HW2 1317   1.972   0.873   0.077  2.6267  0.9126 -0.8338
  440SOL     OW 1318   0.989   0.943   0.320 -0.4027  0.6342 -0.3585
  440SOL    HW1 1319   1.089   0.940   0.331 -2.5874  0.2137  1.6649
  440SOL    HW2 1320   0.944   0.871   0.375  2.4656  0.8560 -0.0804
  441SOL     OW 1321   0.606   2.442   1.644 -0.5500 -0.0085  0.5325
  441SOL    HW1 1322   0.671   2.431   1.725  0.8103  0.5836  0.3589
  441SOL    HW2 1323   0.594   2.352   1.596  0.9442 -0.1047 -0.1096
  442SOL     OW 1324   2.921   2.247   0.670 -0.5629  0.2205  0.0824
  442SOL    HW1 1325   2.944   2.319   0.740  1.0239  0.4731  3.1421
  442SOL    HW2 1326   2.829   2.206   0.682  1.6903 -0.7217 -0.9614
  443SOL     OW 1327   2.972   1.942   2.771  0.4122  0.5457  0.3295
  443SOL    HW1 1328   2.960   2.031   2.725 -0.7618 -0.6257  2.1413
  443SOL    HW2 1329   3.044   1.888   2.729 -0.2709 -1.2940  0.7077
  444SOL     OW 1330   1.326   1.214   0.216 -0.1635  0.2879 -0.3504
  444SOL    HW1 1331   1.305   1.120   0.251  0.2424  1.7460  0.3108
  444SOL    HW2 1332   1.329   1.285   0.288  0.5426  0.1413  0.2430
  445SOL     OW 1333   2.646   2.650   1.773  0.0850  0.0355  0.0653
  445SOL    HW1 1334   2.729   2.626   1.720  0.2806  0.3681  0.9034
  445SOL    HW2 1335   2.651   2.589   1.851  0.5885  0.8333  1.6028
  446SOL     OW 1336   2.823   1.302   0.393 -0.5166 -0.1897 -0.0447
  446SOL    HW1 1337   2.881   1.377   0.426 -2.0422 -0.8232 -0.2091
  446SOL    HW2 1338   2.861   1.263   0.306 -1.2900 -2.2736  0.4956
  447SOL     OW 1339   1.230   2.566   1.515  0.1315  0.1431  0.1337
  447SOL    HW1 1340   1.177   2.618   1.579  0.5677  2.5088 -3.3576
  447SOL    HW2 1341   1.170   2.546   1.432 -0.9183  1.1443  1.9480
  448SOL     OW 1342   1.609   1.528   1.680 -0.3006 -0.1801  0.1254
  448SOL    HW1 1343   1.601   1.555   1.778  0.1612  1.3586 -2.1738
  448SOL    HW2 1344   1.522   1.490   1.646  0.6025 -0.7822  1.7549
  449SOL     OW 1345   3.111   2.243   2.372 -0.4067  0.2098  0.3546
  449SOL    HW1 1346   3.074   2.291   2.451 -1.2423  2.9244  0.0081
  449SOL    HW2 1347   3.136   2.307   2.297 -1.1502 -4.0858  1.4190
  450SOL     OW 1348   0.097   1.840   2.211  0.0819 -0.4220  0.1106
  450SOL    HW1 1349   0.106   1.933   2.250  1.0791  1.6953  1.3035
  450SOL    HW2 1350   0.118   1.826   2.113  0.7478  1.8313 -0.7861
  451SOL     OW 1351   2.166   0.593   1.710 -0.6859 -0.3681 -0.7007
  451SOL    HW1 1352   2.225   0.658   1.655  0.1828 -0.1201 -0.4526
  451SOL    HW2 1353   2.123   0.652   1.781 -0.8247  0.0709  1.3181
  452SOL     OW 1354   1.058   1.329   0.888 -0.6348 -0.4710 -0.2703
  452SOL    HW1 1355   1.122   1.411   0.871  3.8470  1.6379 -3.2897
  452SOL    HW2 1356   0.956   1.355   0.867 -0.1101  0.1588  1.5793
  453SOL     OW 1357   1.266   2.268   0.858 -0.2309  0.0005  0.0536
  453SOL    HW1 1358   1.348   2.225   0.813 -1.2687 -0.9010  1.8208
  453SOL    HW2 1359   1.291   2.332   0.933 -0.2751 -0.6006  0.2343
  454SOL     OW 1360   0.102   1.434   0.327 -0.1475 -0.0921 -0.1948
  454SOL    HW1 1361   0.077   1.370   0.398  0.5285  0.5751 -1.6251
  454SOL    HW2 1362   0.190   1.403   0.281  1.3567 -1.4554 -0.0195
  455SOL     OW 1363   1.008   1.220   0.371  0.2479 -0.0140  0.3185
  455SOL    HW1 1364   0.965   1.127   0.360 -1.0923  2.8026 -1.5843
  455SOL    HW2 1365   1.106   1.219   0.407  0.2880  1.9357  0.6950
  456SOL     OW 1366   1.893   2.811   0.666 -0.2161 -0.0379 -0.1618
  456SOL    HW1 1367   1.917   2.869   0.586  3.0237  0.0117  0.7676
  456SOL    HW2 1368   1.886   2.710   0.640 -1.2903 -0.7883 -0.4598
  457SOL     OW 1369   1.572   3.106   2.938 -0.4936  0.0062 -0.3498
  457SOL    HW1 1370   1.609   0.052   2.982 -2.3087 -3.3400 -0.0253
  457SOL    HW2 1371   1.478   3.126   2.906  0.7269  2.4056  2.3605
  458SOL     OW 1372   2.571   0.666   0.452  0.8102  0.0249 -0.2440
  458SOL    HW1 1373   2.478   0.630   0.441  1.5941 -0.5121 -1.2557
  458SOL    HW2 1374   2.577   0.765   0.417 -0.3149  1.2180 -0.1361
  459SOL     OW 1375   2.167   0.228   2.333 -0.2528  0.1877 -0.5052
  459SOL    HW1 1376   2.140   0.305   2.272 -2.1766 -1.9611  0.7377
  459SOL    HW2 1377   2.268   0.224   2.356  1.4516 -0.3059  3.2020
  460SOL     OW 1378   2.764   0.722   2.857  0.3088 -0.1120 -0.5031
  460SOL    HW1 1379   2.755   0.707   2.958  0.1712 -1.1946  0.6907
  460SOL    HW2 1380   2.677   0.763   2.817 -0.4689  1.4011 -2.4947
  461SOL     OW 1381   0.061   2.348   0.898  0.5988  0.2923  0.7398
  461SOL    HW1 1382   0.111   2.309   0.977 -0.8246  0.4289 -0.3966
  461SOL    HW2 1383   0.097   2.320   0.806  2.9481 -0.2991 -1.3736
  462SOL     OW 1384   2.913   2.624   1.434 -0.4931  0.3770  0.5130
  462SOL    HW1 1385   2.858   2.688   1.371 -1.3956 -0.3594 -1.0497
  462SOL    HW2 1386   3.005   2.654   1.448 -2.1641 -2.6398  0.6345
  463SOL     OW 1387   2.464   1.809   3.107  0.3309  0.0494  0.4388
  463SOL    HW1 1388   2.464   1.905   3.086  0.8525  0.6301  0.8451
  463SOL    HW2 1389   2.549   1.763   3.075 -2.3303  0.4182  1.2435
  464SOL     OW 1390   0.858   2.558   1.587  0.1235  0.0719  0.4165
  464SOL    HW1 1391   0.774   2.512   1.609  1.5173  2.8682  0.1390
  464SOL    HW2 1392   0.898   2.618   1.657  1.7804 -1.8631  0.0466
  465SOL     OW 1393   1.044   0.083   1.558  0.0631 -0.5528  0.1716
  465SOL    HW1 1394   1.135   0.041   1.553  1.4553  0.8647 -1.8753
  465SOL    HW2 1395   1.037   0.158   1.628 -1.1642  1.1849 -0.2323
  466SOL     OW 1396   1.657   2.634   1.976  0.2106  0.2587 -0.0090
  466SOL    HW1 1397   1.711   2.668   2.053  0.1215  0.3515 -1.8110
  466SOL    HW2 1398   1.568   2.683   1.960  0.2223  0.1302  1.1575
  467SOL     OW 1399   0.836   2.096   1.411  0.1064 -0.4225  0.3771
  467SOL    HW1 1400   0.747   2.113   1.367  0.5048  0.4022  0.8225
  467SOL    HW2 1401   0.845   2.134   1.503 -1.5702 -1.3933 -4.1049
  468SOL     OW 1402   2.730   1.591   2.308  0.0730 -0.1778 -0.0580
  468SOL    HW1 1403   2.826   1.631   2.307 -1.3711 -2.6041  1.6755
  468SOL    HW2 1404   2.730   1.489   2.307  0.2883  2.2445 -0.0269
  469SOL     OW 1405   0.860   1.898   0.870 -0.0667  0.3756 -0.5026
  469SOL    HW1 1406   0.818   1.958   0.943 -0.7134  0.5511  1.3111
  469SOL    HW2 1407   0.912   1.824   0.913 -1.6139  0.3473 -1.5068
  470SOL     OW 1408   1.838   1.420   2.087  0.4015 -0.2229  0.3885
  470SOL    HW1 1409   1.937   1.394   2.107  2.3577  1.0286  0.7914
  470SOL    HW2 1410   1.814   1.514   2.128 -1.5527  4.7452 -1.4851
  471SOL     OW 1411   0.680   2.412   0.010 -0.4982  0.0729  0.2707
  471SOL    HW1 1412   0.595   2.428   0.058  5.0234  1.3767 -1.3835
  471SOL    HW2 1413   0.753   2.377   0.077 -1.5019 -3.1520  1.4027
  472SOL     OW 1414   0.115   2.823   1.938 -0.2223  0.5130 -0.0998
  472SOL    HW1 1415   0.113   2.882   2.020 -0.8031  0.5844 -1.2431
  472SOL    HW2 1416   0.155   2.874   1.856 -1.4549  1.3851  0.1295
  473SOL     OW 1417   0.792   2.694   3.122  0.1654 -0.2648  0.3165
  473SOL    HW1 1418   0.807   2.713   0.084 -0.9462  2.0839  1.2505
  473SOL    HW2 1419   0.763   2.600   3.113 -1.7752  2.8581  1.9292
  474SOL     OW 1420   2.626   2.730   1.099  0.4573 -0.4695  0.1126
  474SOL    HW1 1421   2.537   2.680   1.084 -1.7400  0.0229 -0.4565
  474SOL    HW2 1422   2.654   2.786   1.016 -0.8495  2.6472  0.2478
  475SOL     OW 1423   1.960   2.967   1.758 -0.3548 -0.1818  0.2482
  475SOL    HW1 1424   1.947   2.866   1.776 -0.6925 -0.6433  0.1632
  475SOL    HW2 1425   1.889   3.000   1.692  1.7387  1.7447  0.5659
  476SOL     OW 1426   0.579   1.217   0.853  0.0602  0.1964 -0.1955
  476SOL    HW1 1427   0.492   1.219   0.900  2.0182 -0.9342  0.6229
  476SOL    HW2 1428   0.636   1.138   0.880 -0.7367 -1.6967 -1.9076
  477SOL     OW 1429   0.436   1.895   0.671 -0.0410  0.6284  0.2295
  477SOL    HW1 1430   0.531   1.918   0.703  2.8725 -3.2801 -1.2197
  477SOL    HW2 1431   0.457   1.851   0.580  2.0591  3.1624 -0.6142
  478SOL     OW 1432   2.971   2.610   2.384 -0.3291  0.0860  0.1108
  478SOL    HW1 1433   2.922   2.698   2.407  0.2194 -0.2899  1.4694
  478SOL    HW2 1434   3.073   2.621   2.400  2.2630 -1.0332  0.3616
  479SOL     OW 1435   0.036   0.249   1.533  0.2791 -0.2199 -0.3265
  479SOL    HW1 1436   3.134   0.236   1.626  0.8505  0.0670  1.0937
  479SOL    HW2 1437   0.078   0.343   1.524  0.6139  1.3815 -0.4200
  480SOL     OW 1438   2.921   2.455   3.112  0.2291 -0.0318 -0.7085
  480SOL    HW1 1439   2.911   2.363   3.073  0.9759  0.1861  0.9551
  480SOL    HW2 1440   2.876   2.459   0.068 -1.8431  1.8045  0.4873
  481SOL     OW 1441   2.246   2.121   1.726  0.4853  0.3174 -0.2473
  481SOL    HW1 1442   2.195   2.055   1.780 -0.4484  1.3027 -2.0461
  481SOL    HW2 1443   2.192   2.140   1.640  0.0808  2.0332 -0.1924
  482SOL     OW 1444   1.894   2.358   2.653  0.2741  0.1515 -0.1954
  482SOL    HW1 1445   1.896   2.255   2.663  2.6024  0.5598  0.5756
  482SOL    HW2 1446   1.903   2.379   2.554 -0.0894  0.3117 -0.2348
  483SOL     OW 1447   0.717   1.599   2.277  0.6119  0.1301 -0.9072
  483SOL    HW1 1448   0.733   1.503   2.285 -0.6893  1.2477  1.6633
  483SOL    HW2 1449   0.807   1.645   2.275 -1.1795 -0.0539  1.2206
  484SOL     OW 1450   0.195   0.471   1.526 -0.0025  0.9673  0.0916
  484SOL    HW1 1451   0.162   0.545   1.466  0.2120 -2.9877  1.9875
  484SOL    HW2 1452   0.206   0.498   1.629  0.5828 -1.9031 -0.5293
  485SOL     OW 1453   2.150   0.973   0.407  0.2155  0.0081  0.3959
  485SOL    HW1 1454   2.181   1.014   0.320 -0.9258  2.5688 -3.3120
  485SOL    HW2 1455   2.080   1.030   0.450  4.9449  0.4775  1.4545
  486SOL     OW 1456   1.503   0.124   2.198  0.0352  0.0756  0.1876
  486SOL    HW1 1457   1.501   0.188   2.117  1.2249  2.3134 -2.3150
  486SOL    HW2 1458   1.569   0.157   2.268  0.8525 -0.9090 -1.8682
  487SOL     OW 1459   0.806   1.812   1.370  0.6059  0.1974 -0.6457
  487SOL    HW1 1460   0.803   1.906   1.401  0.1936  2.0025  4.1974
  487SOL    HW2 1461   0.715   1.768   1.361 -1.8644  0.5616 -1.5316
  488SOL     OW 1462   2.377   1.327   0.052  0.1527 -0.2433 -0.0058
  488SOL    HW1 1463   2.478   1.339   0.043 -1.2989  2.6874 -1.5378
  488SOL    HW2 1464   2.341   1.408   0.098  0.5211 -1.9355  2.3750
  489SOL     OW 1465   2.208   0.018   0.581 -0.2805 -0.0370 -0.1138
  489SOL    HW1 1466   2.198   3.077   0.645  1.6597  1.2133  0.0463
  489SOL    HW2 1467   2.155   0.102   0.612 -3.1235  2.7656  0.1309
  490SOL     OW 1468   1.219   2.754   2.969 -1.0311 -0.2333  0.1146
  490SOL    HW1 1469   1.247   2.666   3.006 -1.4057  1.4211  1.7361
  490SOL    HW2 1470   1.169   2.805   3.037  0.2189  0.2635 -0.4253
  491SOL     OW 1471   1.202   1.070   0.870 -0.5837 -0.3158  0.1174
  491SOL    HW1 1472   1.166   1.116   0.958  1.8828 -0.5310  3.9053
  491SOL    HW2 1473   1.127   1.045   0.808 -2.3575 -2.0853 -3.1367
  492SOL     OW 1474   1.335   0.441   2.654  0.4522 -0.3872 -0.0922
  492SOL    HW1 1475   1.356   0.358   2.706  0.2081  0.1781 -1.3201
  492SOL    HW2 1476   1.398   0.509   2.689  1.9295 -1.4211  0.9396
  493SOL     OW 1477   1.821   2.100   0.139 -0.0615  0.0275  0.3668
  493SOL    HW1 1478   1.858   2.159   0.214 -1.1240 -0.9213  0.0892
  493SOL    HW2 1479   1.901   2.052   0.101 -0.8180  1.4784 -1.0620
  494SOL     OW 1480   0.546   1.276   0.584 -0.6506  0.4112  0.4137
  494SOL    HW1 1481   0.517   1.376   0.587 -3.8738  1.8714  0.2624
  494SOL    HW2 1482   0.569   1.239   0.674 -0.8650  2.1368 -1.5021
  495SOL     OW 1483   3.092   2.634   0.742  0.0220 -0.0429 -0.6327
  495SOL    HW1 1484   3.061   2.567   0.811 -1.2541  1.5911 -0.6370
  495SOL    HW2 1485   3.053   2.618   0.656  1.5995 -0.6606  2.4964
  496SOL     OW 1486   2.772   0.269   1.661 -0.3999  0.5356 -0.3808
  496SOL    HW1 1487   2.760   0.246   1.559 -1.7822 -1.8061  1.1105
  496SOL    HW2 1488   2.808   0.186   1.705 -0.9396  0.4937  0.7675
  497SOL     OW 1489   2.229   1.331   2.476 -0.1501 -0.2186 -0.4528
  497SOL    HW1 1490   2.261   1.404   2.539  0.0803 -1.4945 -2.0031
  497SOL    HW2 1491   2.128   1.341   2.453  0.2978  1.2396  1.4512
  498SOL     OW 1492   0.658   2.066   1.016 -0.0217 -0.0134 -0.3911
  498SOL    HW1 1493   0.594   2.093   0.942 -0.2607 -1.6235  1.3347
  498SOL    HW2 1494   0.614   2.006   1.087  3.6650  1.4693 -2.3412
  499SOL     OW 1495   0.911   2.259   1.630  0.2168  0.6008 -0.0792
  499SOL    HW1 1496   0.860   2.302   1.706  0.2929  0.2953 -0.6140
  499SOL    HW2 1497   0.974   2.321   1.577 -0.7440 -1.9089  2.3440
  500SOL     OW 1498   1.241   1.926   0.186 -0.3890  0.0799  0.0338
  500SOL    HW1 1499   1.284   1.988   0.255  2.4526  0.2096  5.0697
  500SOL    HW2 1500   1.299   1.910   0.104  0.0023  2.6011 -2.9982
  501SOL     OW 1501   2.521   2.825   1.355 -0.0403 -0.1756 -0.3429
  501SOL    HW1 1502   2.429   2.838   1.322  0.4620  0.1001  0.0076
  501SOL    HW2 1503   2.581   2.823   1.274 -0.1624  2.6272  0.2582
  502SOL     OW 1504   2.953   0.483   1.719  0.1125 -0.2756  0.0372
  502SOL    HW1 1505   3.034   0.433   1.751 -2.0572  1.5963  0.2906
  502SOL    HW2 1506   2.882   0.418   1.694  0.1038 -0.3908  2.2537
  503SOL     OW 1507   2.743   1.058   1.893  0.1193 -0.0976 -0.0117
  503SOL    HW1 1508   2.762   1.064   1.993 -0.6759  0.7041  1.1424
  503SOL    HW2 1509   2.740   1.150   1.849  0.1593 -1.1374  1.1520
  504SOL     OW 1510   1.507   0.765   1.781 -0.2428 -0.2229  0.1811
  504SOL    HW1 1511   1.583   0.751   1.716 -4.6622  2.0217 -1.9726
  504SOL    HW2 1512   1.488   0.864   1.793 -1.4326  1.6922 -3.0499
  505SOL     OW 1513   0.746   2.989   2.094 -0.8813  0.3050 -0.1510
  505SOL    HW1 1514   0.839   2.944   2.119  2.7456  1.5204  1.4307
  505SOL    HW2 1515   0.735   3.082   2.138 -1.6308  0.8987 -1.0167
  506SOL     OW 1516   0.141   0.227   0.855 -0.1463  0.4829  0.2243
  506SOL    HW1 1517   0.089   0.292   0.802  1.1773  0.3355  0.1396
  506SOL    HW2 1518   0.109   0.134   0.837  0.0030  0.0654 -1.2836
  507SOL     OW 1519   1.485   0.443   2.951  0.1020 -0.0957 -0.0565
  507SOL    HW1 1520   1.554   0.380   2.906 -1.8386  1.1241 -1.6773
  507SOL    HW2 1521   1.441   0.398   3.030 -1.3432 -1.5497  1.5068
  508SOL     OW 1522   1.664   0.166   2.418 -0.1809  0.2402 -0.1869
  508SOL    HW1 1523   1.651   0.267   2.445 -1.5464 -0.7833  1.8593
  508SOL    HW2 1524   1.763   0.143   2.411  1.5441 -0.7290  2.5447
  509SOL     OW 1525   0.853   1.205   1.942  0.0258  0.0768  0.3927
  509SOL    HW1 1526   0.934   1.267   1.934  1.8470  1.1653 -2.2612
  509SOL    HW2 1527   0.853   1.142   2.022  3.0230 -2.7377 -0.8176
  510SOL     OW 1528   3.044   1.131   0.914 -0.2904 -0.2687 -0.1820
  510SOL    HW1 1529   3.062   1.069   0.994 -1.1557  0.8079 -2.2460
  510SOL    HW2 1530   2.944   1.147   0.909 -0.7101  1.6009 -2.2040
  511SOL     OW 1531   1.986   2.134   1.075 -0.2684 -0.1241 -0.0028
  511SOL    HW1 1532   1.949   2.215   1.120 -0.2988 -3.0534  0.4599
  511SOL    HW2 1533   2.087   2.126   1.081  1.4212  0.1101  0.2270
  512SOL     OW 1534   0.138   1.645   0.512  0.4340  0.1670 -0.0245
  512SOL    HW1 1535   0.142   1.582   0.436 -0.6786  2.2193 -0.3301
  512SOL    HW2 1536   0.152   1.606   0.602  1.8873 -1.1937  0.6974
  513SOL     OW 1537   0.076   2.345   0.369  0.1369 -0.2248 -0.4958
  513SOL    HW1 1538   0.129   2.265   0.331  2.1687 -0.5982  2.0223
  513SOL    HW2 1539   3.111   2.334   0.362 -3.0069 -0.0099  0.2769
  514SOL     OW 1540   2.369   2.058   2.774 -0.0503  0.2456  0.3414
  514SOL    HW1 1541   2.352   2.150   2.728  0.1946 -0.5569  0.2650
  514SOL    HW2 1542   2.293   1.994   2.771  0.3962  2.4806 -0.4121
  515SOL     OW 1543   2.108   1.332   0.354 -0.3014 -0.4315 -0.4113
  515SOL    HW1 1544   2.131   1.297   0.262 -2.2202 -1.9333 -1.6009
  515SOL    HW2 1545   2.185   1.322   0.425  0.2964  0.2745  0.6257
  516SOL     OW 1546   1.941   2.996   0.482 -0.0444  0.0915 -0.6507
  516SOL    HW1 1547   1.921   3.083   0.536 -0.9167  0.7136  3.2119
  516SOL    HW2 1548   2.021   3.011   0.420  3.6307  1.7784  0.0892
  517SOL     OW 1549   0.950   2.135   2.903 -0.3384  0.3990 -0.1725
  517SOL    HW1 1550   1.009   2.122   2.983 -0.4631  1.8200  2.3607
  517SOL    HW2 1551   0.855   2.134   2.939  0.6887  0.5323 -2.2552
  518SOL     OW 1552   0.643   0.532   1.876  0.0314  0.0531 -0.4236
  518SOL    HW1 1553   0.689   0.477   1.950 -0.0972  0.9676 -2.5632
  518SOL    HW2 1554   0.637   0.627   1.908  0.7167  1.8135 -0.8656
  519SOL     OW 1555   2.866   1.181   0.143  0.1054  0.6881  0.2358
  519SOL    HW1 1556   2.922   1.232   0.073 -0.4731  0.7611 -1.0711
  519SOL    HW2 1557   2.902   1.086   0.135  0.8830 -0.8716  0.9624
  520SOL     OW 1558   2.509   2.003   1.630 -0.0881 -0.2240 -0.6928
  520SOL    HW1 1559   2.418   2.035   1.663 -3.7028 -1.3863  0.0213
  520SOL    HW2 1560   2.580   2.021   1.702 -1.3521  0.0279  1.7419
  521SOL     OW 1561   0.662   2.637   2.024  0.0306 -0.2377 -0.1237
  521SOL    HW1 1562   0.694   2.615   2.117  0.9599  2.3282  1.0174
  521SOL    HW2 1563   0.649   2.551   1.964 -0.9603 -1.9818 -2.2751
  522SOL     OW 1564   1.809   0.030   2.168 -0.7999 -0.0310  0.0627
  522SOL    HW1 1565   1.909   0.028   2.190 -0.7598  3.6289 -1.1311
  522SOL    HW2 1566   1.756   0.045   2.249  0.1838  0.6957 -2.2186
  523SOL     OW 1567   1.851   1.988   1.283 -0.6487 -0.2141 -0.0445
  523SOL    HW1 1568   1.916   1.946   1.348 -1.5774  1.9615  0.0535
  523SOL    HW2 1569   1.884   2.075   1.249  1.6676  2.5325  2.7455
  524SOL     OW 1570   0.932   2.717   0.203  0.2952  0.4344  0.4242
  524SOL    HW1 1571   0.890   2.775   0.274 -0.6416  2.2160 -1.3345
  524SOL    HW2 1572   1.015   2.666   0.240 -0.8118  0.5607  1.5868
  525SOL     OW 1573   2.891   0.369   0.330  0.2948  0.5628 -0.0115
  525SOL    HW1 1574   2.835   0.448   0.298  0.6507 -0.2150 -1.0737
  525SOL    HW2 1575   2.990   0.373   0.309 -1.2112 -0.5789 -1.1129
  526SOL     OW 1576   0.769   3.113   0.642  0.0779 -0.1697  0.1604
  526SOL    HW1 1577   0.826   3.066   0.712  2.2364  1.3773 -3.3512
  526SOL    HW2 1578   0.682   3.068   0.613 -0.4167 -1.8720 -0.7390
  527SOL     OW 1579   2.679   1.774   0.852  0.4359  0.0871  0.1402
  527SOL    HW1 1580   2.715   1.745   0.938  1.4643  0.6150  1.2957
  527SOL    HW2 1581   2.655   1.871   0.854 -1.0681 -1.4492 -1.6150
  528SOL     OW 1582   2.776   0.559   2.450 -0.3130 -0.3631 -0.5570
  528SOL    HW1 1583   2.882   0.563   2.457  2.5508 -1.8535  0.9774
  528SOL    HW2 1584   2.746   0.498   2.378  0.9371  4.1329 -2.8237
  529SOL     OW 1585   1.340   1.576   2.570 -0.3744 -0.0672  0.2928
  529SOL    HW1 1586   1.432   1.544   2.599 -1.5280 -0.8684  0.1768
  529SOL    HW2 1587   1.298   1.648   2.622 -0.3067 -0.1931 -0.1114
  530SOL     OW 1588   1.952   1.150   2.506  0.1160 -0.0997 -0.7796
  530SOL    HW1 1589   1.920   1.101   2.423 -1.0366  1.3723  1.9126
  530SOL    HW2 1590   2.024   1.091   2.557  1.8085  0.9623  1.3777
  531SOL     OW 1591   0.809   1.754   2.560 -0.0640  0.1404 -0.2527
  531SOL    HW1 1592   0.757   1.690   2.504  4.6086  2.0422  1.9092
  531SOL    HW2 1593   0.809   1.729   2.658  0.9678 -2.0243 -1.2354
  532SOL     OW 1594   1.905   1.548   0.368  0.1142  0.5576 -0.0509
  532SOL    HW1 1595   1.988   1.490   0.388  4.2179  2.0780  0.7265
  532SOL    HW2 1596   1.916   1.646   0.401 -1.2516 -1.0659 -3.0693
  533SOL     OW 1597   0.346   0.164   1.864 -0.7111 -0.2577  0.3642
  533SOL    HW1 1598   0.417   0.144   1.794 -0.0877 -1.2488 -0.5127
  533SOL    HW2 1599   0.272   0.096   1.867 -0.4272 -0.0287  0.9040
  534SOL     OW 1600   0.698   2.879   2.943  0.6855  0.4354 -0.2911
  534SOL    HW1 1601   0.733   2.807   3.007  1.2214  0.0208 -0.5503
  534SOL    HW2 1602   0.720   2.969   2.977 -0.2549  0.3630 -3.0011
  535SOL     OW 1603   0.136   0.159   0.546 -0.6332 -0.5427  0.4484
  535SOL    HW1 1604   0.189   0.205   0.466  0.3511  1.2491 -2.0682
  535SOL    HW2 1605   0.113   0.058   0.531  0.0401 -1.4729 -1.9951
  536SOL     OW 1606   0.390   1.319   1.626 -0.2235 -0.4656  0.6860
  536SOL    HW1 1607   0.367   1.220   1.620 -2.5741  0.0751 -1.2706
  536SOL    HW2 1608   0.311   1.372   1.588 -0.9708 -0.1752 -0.7442
  537SOL     OW 1609   1.073   2.760   1.705 -0.4082  0.4326 -0.6877
  537SOL    HW1 1610   1.029   2.837   1.652 -0.3550  1.2802 -0.3070
  537SOL    HW2 1611   1.166   2.786   1.730 -3.6120 -1.7549  0.8560
  538SOL     OW 1612   0.076   1.915   0.421 -0.7147  0.3344 -0.2334
  538SOL    HW1 1613   0.098   1.814   0.452  0.4266 -2.5018  2.9504
  538SOL    HW2 1614   0.032   1.969   0.493  1.9717  0.7909  1.3471
  539SOL     OW 1615   2.975   1.292   2.641 -0.1923 -0.0617 -0.0020
  539SOL    HW1 1616   2.973   1.383   2.693  0.1817  0.1132  0.0455
  539SOL    HW2 1617   2.880   1.262   2.607 -0.6178  0.4527 -2.0132
  540SOL     OW 1618   1.884   1.186   1.852  0.7393 -0.4576 -0.6549
  540SOL    HW1 1619   1.894   1.181   1.755 -0.1533 -0.6418  1.5133
  540SOL    HW2 1620   1.787   1.179   1.882  0.5598  0.2332 -0.5518
  541SOL     OW 1621   0.884   0.831   1.890 -0.0521 -0.0229 -0.0341
  541SOL    HW1 1622   0.785   0.819   1.908  1.2379  1.1034 -0.7223
  541SOL    HW2 1623   0.923   0.862   1.977 -1.6430  2.7079 -0.4535
  542SOL     OW 1624   2.118   0.346   2.933  0.0899  0.2879  0.2239
  542SOL    HW1 1625   2.081   0.413   3.001 -0.4933  0.0702 -1.4183
  542SOL    HW2 1626   2.217   0.372   2.915 -2.4627  0.2919  2.4996
  543SOL     OW 1627   0.936   3.087   2.983 -0.3314 -0.4425 -0.0696
  543SOL    HW1 1628   0.902   0.045   3.002  0.7424 -0.4361  0.9286
  543SOL    HW2 1629   0.999   3.083   2.898  1.5165 -0.6714  0.6985
  544SOL     OW 1630   2.935   1.474   1.896  0.6228 -0.0993 -0.1952
  544SOL    HW1 1631   2.927   1.466   2.000 -3.6282 -2.3365 -0.9144
  544SOL    HW2 1632   2.870   1.402   1.855 -0.7994 -0.0346  0.5405
  545SOL     OW 1633   1.956   2.433   1.885  0.3583 -0.6214  0.5482
  545SOL    HW1 1634   1.870   2.386   1.919  1.9943  2.6050 -0.8022
  545SOL    HW2 1635   1.963   2.429   1.782 -0.2639  1.1361 -2.8990
  546SOL     OW 1636   0.025   0.088   2.738  0.7275 -0.1149  0.3093
  546SOL    HW1 1637   3.108   0.007   2.696 -1.5378 -2.2732 -1.4750
  546SOL    HW2 1638   0.125   0.068   2.750  0.8450 -0.6344  1.7372
  547SOL     OW 1639   1.696   1.134   0.958  0.6208  0.0936  0.5248
  547SOL    HW1 1640   1.672   1.167   0.864 -1.1053  3.8113 -0.5021
  547SOL    HW2 1641   1.678   1.032   0.971 -0.3182 -4.2507  0.3144
  548SOL     OW 1642   2.058   1.981   2.522  0.9462  0.4170 -0.7703
  548SOL    HW1 1643   2.017   2.003   2.434  1.2586  1.0089 -1.0475
  548SOL    HW2 1644   2.159   1.974   2.524  1.0325  0.8963 -0.2556
  549SOL     OW 1645   2.088   0.272   0.640  0.1929  0.2647  0.2643
  549SOL    HW1 1646   2.046   0.358   0.593 -0.5665  4.1012 -4.3302
  549SOL    HW2 1647   2.144   0.295   0.722 -0.3390  0.8390  0.7486
  550SOL     OW 1648   2.228   1.838   0.702 -0.1597 -0.4805  0.4748
  550SOL    HW1 1649   2.279   1.800   0.620  2.3180  0.1933 -1.2085
  550SOL    HW2 1650   2.144   1.791   0.721  2.2319  3.1737  1.6309
  551SOL     OW 1651   0.967   2.609   1.962 -0.2080  0.1417 -0.5164
  551SOL    HW1 1652   1.028   2.633   1.884  0.8670  1.7998  0.3594
  551SOL    HW2 1653   0.954   2.701   2.013 -1.9256  4.3129  2.2728
  552SOL     OW 1654   0.198   2.335   2.649 -0.6248 -1.0322 -0.3439
  552SOL    HW1 1655   0.161   2.242   2.648  0.0614  3.0665 -0.6027
  552SOL    HW2 1656   0.206   2.372   2.554 -2.2423 -1.5693  0.5261
  553SOL     OW 1657   0.076   3.091   0.874  0.4985 -0.3273  0.4434
  553SOL    HW1 1658   0.173   3.091   0.847 -2.6525 -2.7977 -1.5779
  553SOL    HW2 1659   0.055   3.069   0.973  1.4873  1.9743  1.5820
  554SOL     OW 1660   2.329   2.230   2.017 -0.2148  0.5557  0.0790
  554SOL    HW1 1661   2.281   2.216   1.928  4.3077  0.2073 -0.1262
  554SOL    HW2 1662   2.375   2.143   2.046  1.6990 -0.4844 -0.1701
  555SOL     OW 1663   1.572   2.403   1.886  0.2509 -0.1469 -0.2953
  555SOL    HW1 1664   1.498   2.395   1.818  3.7966 -0.6250  0.7548
  555SOL    HW2 1665   1.599   2.499   1.904 -0.6004 -2.9382  1.3641
  556SOL     OW 1666   1.261   1.694   1.551 -0.4235 -0.2681  0.2156
  556SOL    HW1 1667   1.301   1.689   1.643 -1.4232 -0.0372 -1.2788
  556SOL    HW2 1668   1.341   1.725   1.490  0.1923  1.0428  0.2559
  557SOL     OW 1669   1.864   2.351   2.376 -0.5324  0.2071 -0.5347
  557SOL    HW1 1670   1.959   2.333   2.346 -0.0875  1.0434 -0.9908
  557SOL    HW2 1671   1.838   2.448   2.341 -1.8830  1.1130 -0.3502
  558SOL     OW 1672   0.694   2.789   1.801  0.2040 -0.1999 -0.3597
  558SOL    HW1 1673   0.694   2.718   1.878 -0.2394 -4.5958  1.6247
  558SOL    HW2 1674   0.725   2.880   1.828 -0.5643  0.7751  0.4041
  559SOL     OW 1675   2.230   2.944   0.759  0.1187 -0.5018  0.2047
  559SOL    HW1 1676   2.241   2.849   0.721 -0.7171  0.7328  0.3341
  559SOL    HW2 1677   2.201   2.941   0.857  2.2919  0.5357 -1.4742
  560SOL     OW 1678   1.904   2.540   0.674 -0.4022 -0.2758  0.1675
  560SOL    HW1 1679   1.856   2.517   0.761  0.8948  1.0080  1.3089
  560SOL    HW2 1680   1.947   2.452   0.643  3.4073  0.2765  0.4555
  561SOL     OW 1681   0.944   0.380   0.537  0.0206  0.1042 -0.6781
  561SOL    HW1 1682   0.992   0.382   0.445 -0.4810 -0.7471 -0.1997
  561SOL    HW2 1683   0.868   0.312   0.536  0.0590 -0.8003  1.0469
  562SOL     OW 1684   0.805   0.732   2.637  0.6607 -0.4225  0.7724
  562SOL    HW1 1685   0.849   0.672   2.706 -0.7474  0.8562 -1.1840
  562SOL    HW2 1686   0.790   0.680   2.551  0.2874 -3.4961 -0.8668
  563SOL     OW 1687   1.808   1.653   2.964 -0.6813 -0.0790 -0.1518
  563SOL    HW1 1688   1.747   1.733   2.927 -0.6026  4.7033  0.2250
  563SOL    HW2 1689   1.799   1.644   3.065  0.6312  0.4899  2.8677
  564SOL     OW 1690   2.471   1.082   1.336  0.5310  0.3145  0.1528
  564SOL    HW1 1691   2.492   1.109   1.433  0.9366  0.0011 -1.2063
  564SOL    HW2 1692   2.548   1.032   1.296  0.6817  0.4802  0.6014
  565SOL     OW 1693   0.894   0.576   2.856 -0.1954 -0.1146 -0.3794
  565SOL    HW1 1694   0.962   0.596   2.925  1.0813  0.3825 -2.2919
  565SOL    HW2 1695   0.806   0.551   2.897  1.1487 -0.8640 -1.2687
  566SOL     OW 1696   2.004   0.417   2.552  0.1598 -0.0485  0.0062
  566SOL    HW1 1697   1.952   0.403   2.469  0.3140  1.1887 -0.1974
  566SOL    HW2 1698   2.077   0.346   2.567  0.5256 -3.0038 -1.3832
  567SOL     OW 1699   2.162   1.853   0.348 -0.4237 -0.2419 -0.0768
  567SOL    HW1 1700   2.235   1.812   0.402  2.4378  0.2089 -0.4800
  567SOL    HW2 1701   2.187   1.872   0.252 -0.3264 -1.5660  0.3029
  568SOL     OW 1702   1.677   1.869   0.173 -0.2129 -0.0201 -0.3314
  568SOL    HW1 1703   1.728   1.960   0.174  0.3217  2.6488 -0.2153
  568SOL    HW2 1704   1.579   1.890   0.140 -5.0034  0.8425 -1.5435
  569SOL     OW 1705   2.036   1.057   0.029  0.2379 -0.0638 -0.2570
  569SOL    HW1 1706   1.990   1.147   0.002 -0.9186 -0.1377 -1.7465
  569SOL    HW2 1707   2.096   1.066   0.111 -0.4250  0.6781  1.5465
  570SOL     OW 1708   0.374   2.589   1.722 -0.1351 -0.0359  0.2138
  570SOL    HW1 1709   0.376   2.652   1.799  1.7775 -1.1438 -0.4726
  570SOL    HW2 1710   0.470   2.551   1.706  0.7245  1.0241 -2.2459
  571SOL     OW 1711   0.432   0.945   2.027 -0.6337  0.5120  0.4032
  571SOL    HW1 1712   0.469   1.037   1.996 -2.2644 -1.9507  0.1694
  571SOL    HW2 1713   0.348   0.967   2.084 -2.0733  0.0910 -0.1399
  572SOL     OW 1714   1.036   1.586   0.556 -0.0825  0.0356  0.4239
  572SOL    HW1 1715   0.952   1.551   0.502 -0.5415 -1.1706 -3.4876
  572SOL    HW2 1716   1.110   1.576   0.492 -2.0611 -0.2110  0.6555
  573SOL     OW 1717   1.730   2.169   3.032  0.0287  0.1488  0.0641
  573SOL    HW1 1718   1.631   2.186   3.052 -0.2291 -2.1661 -0.3751
  573SOL    HW2 1719   1.784   2.147   3.115 -0.9681  0.4665 -0.2077
  574SOL     OW 1720   1.020   0.146   0.897  0.2230 -0.5320  0.2400
  574SOL    HW1 1721   1.048   0.060   0.949  1.2001  0.7087  0.5111
  574SOL    HW2 1722   0.920   0.153   0.910 -1.9038 -0.9933  0.4956
  575SOL     OW 1723   0.307   0.980   1.431 -0.4164  0.0118 -0.0748
  575SOL    HW1 1724   0.273   1.027   1.517 -0.4701 -1.9895  0.2076
  575SOL    HW2 1725   0.357   1.053   1.384 -0.1895 -0.2941 -0.1616
  576SOL     OW 1726   2.205   2.800   1.258 -0.0117 -0.5347  0.6334
  576SOL    HW1 1727   2.145   2.854   1.322  0.4710  0.1432 -2.1580
  576SOL    HW2 1728   2.191   2.829   1.161  0.0211  1.4889 -0.2792
  577SOL     OW 1729   1.042   0.833   2.125  0.0945  0.0703  0.0263
  577SOL    HW1 1730   1.098   0.785   2.056  1.4528  0.3750 -2.2318
  577SOL    HW2 1731   1.066   0.792   2.217 -1.0251  0.8320 -0.8269
  578SOL     OW 1732   1.776   0.766   2.629 -0.4739  0.1817 -0.3504
  578SOL    HW1 1733   1.832   0.769   2.540  2.2602  1.9694 -0.4615
  578SOL    HW2 1734   1.689   0.815   2.616 -0.8202  1.5350 -1.6961
  579SOL     OW 1735   2.189   2.625   1.711 -0.1668  0.1291  0.1461
  579SOL    HW1 1736   2.139   2.543   1.681  0.1753 -3.1325 -0.4432
  579SOL    HW2 1737   2.276   2.639   1.655  0.2656  2.3854  0.7990
  580SOL     OW 1738   1.865   1.750   2.502  0.0429 -0.4259  0.0711
  580SOL    HW1 1739   1.954   1.801   2.497 -0.4624  0.5779  0.8698
  580SOL    HW2 1740   1.864   1.674   2.570 -0.1896 -1.0604 -0.0439
  581SOL     OW 1741   1.578   1.484   2.639 -0.4811  0.3732 -0.1404
  581SOL    HW1 1742   1.670   1.530   2.658  0.8568  1.4198  1.2208
  581SOL    HW2 1743   1.549   1.417   2.712  0.0413  1.7320  1.1698
  582SOL     OW 1744   0.843   1.557   1.769 -0.4024 -0.0838 -0.2883
  582SOL    HW1 1745   0.911   1.520   1.836  0.9808 -1.7518  0.8693
  582SOL    HW2 1746   0.889   1.633   1.712 -1.7609  0.5145 -0.9043
  583SOL     OW 1747   1.716   1.011   1.560  0.1874  0.3445  0.0034
  583SOL    HW1 1748   1.680   0.922   1.525 -2.2944 -0.1484  2.8246
  583SOL    HW2 1749   1.666   1.047   1.643  0.2797 -1.1490 -0.9755
  584SOL     OW 1750   2.158   2.589   0.415  0.3080  0.1376 -0.4000
  584SOL    HW1 1751   2.076   2.639   0.373 -0.5807 -1.3150 -2.2150
  584SOL    HW2 1752   2.182   2.512   0.354 -1.4608  1.4583  1.6117
  585SOL     OW 1753   1.981   0.025   2.653  0.4948  0.6662  0.4262
  585SOL    HW1 1754   2.004   3.062   2.659  1.8436 -1.5257  0.6594
  585SOL    HW2 1755   2.057   0.089   2.673  0.3008  1.3527 -0.7700
  586SOL     OW 1756   2.849   2.163   1.362  0.0376  0.1476  0.4024
  586SOL    HW1 1757   2.897   2.103   1.428 -0.7796 -2.3605 -0.4952
  586SOL    HW2 1758   2.878   2.153   1.268  0.8709  1.1700  2.9285
  587SOL     OW 1759   1.462   1.919   0.019  0.4043 -0.1765 -0.3543
  587SOL    HW1 1760   1.487   2.014   3.127 -0.8648  1.7861 -0.0978
  587SOL    HW2 1761   1.461   1.858   3.077 -0.9791  1.9911  1.8867
  588SOL     OW 1762   0.363   0.326   0.969 -0.3261 -0.0604 -0.2155
  588SOL    HW1 1763   0.425   0.251   1.007 -1.4176 -3.1777  2.5791
  588SOL    HW2 1764   0.273   0.288   0.932  0.7194 -1.2066 -2.1452
  589SOL     OW 1765   1.069   0.386   0.298 -0.2634 -0.3053  0.0974
  589SOL    HW1 1766   1.003   0.444   0.245 -0.0900 -1.6154  0.2037
  589SOL    HW2 1767   1.098   0.302   0.252  1.7514 -0.1501  0.4721
  590SOL     OW 1768   1.509   0.706   2.922  0.4680 -0.7906  0.3641
  590SOL    HW1 1769   1.465   0.741   2.840  2.0951  1.0355  3.4986
  590SOL    HW2 1770   1.512   0.604   2.926 -0.5102  0.6424  1.9064
  591SOL     OW 1771   2.962   2.083   2.100 -0.1459 -0.7510 -0.0468
  591SOL    HW1 1772   2.967   2.108   2.003 -1.0748 -3.4929 -0.0116
  591SOL    HW2 1773   3.013   2.141   2.162 -0.0911 -0.3142 -1.3648
  592SOL     OW 1774   2.536   1.581   2.066 -0.1366 -0.5909  0.6725
  592SOL    HW1 1775   2.590   1.526   2.003 -0.7972  1.5835  2.8667
  592SOL    HW2 1776   2.594   1.615   2.144 -0.8119 -0.1339 -3.1319
  593SOL     OW 1777   1.409   1.127   1.520 -0.5100 -0.2082  0.6937
  593SOL    HW1 1778   1.441   1.147   1.424  2.0841 -1.5186 -0.3221
  593SOL    HW2 1779   1.355   1.040   1.520  1.2137  0.9831 -0.3905
  594SOL     OW 1780   2.647   1.409   0.009 -0.2679  0.4233 -0.2343
  594SOL    HW1 1781   2.716   1.457   0.072 -0.6745  0.2075  2.0744
  594SOL    HW2 1782   2.692   1.344   3.080  1.4696  1.2905  0.7165
  595SOL     OW 1783   0.360   0.645   0.593 -0.3601 -0.4149  0.1199
  595SOL    HW1 1784   0.387   0.741   0.569  2.1974 -0.1010  2.6086
  595SOL    HW2 1785   0.403   0.599   0.675  0.7415 -0.5125  1.0123
  596SOL     OW 1786   0.038   1.218   1.207 -1.2850 -0.6516  0.1476
  596SOL    HW1 1787   0.009   1.158   1.284  0.4617  0.2653  0.6417
  596SOL    HW2 1788   0.130   1.260   1.229  2.2404 -0.7923 -0.4829
  597SOL     OW 1789   1.176   1.876   1.124 -0.6185  0.4824  0.1135
  597SOL    HW1 1790   1.194   1.781   1.082 -0.1583  0.3483 -2.6234
  597SOL    HW2 1791   1.122   1.937   1.059  0.7838 -2.5739 -1.0913
  598SOL     OW 1792   0.511   3.129   1.716 -0.1746  0.0639  0.4227
  598SOL    HW1 1793   0.582   3.082   1.772  1.3788  2.1289  0.6922
  598SOL    HW2 1794   0.463   3.055   1.652 -1.3108 -3.4254 -1.0227
  599SOL     OW 1795   0.435   1.690   2.969  0.1962  0.0061 -0.9167
  599SOL    HW1 1796   0.467   1.596   2.969  0.4161  0.4779  0.9962
  599SOL    HW2 1797   0.487   1.747   2.899  0.8827  2.4470 -0.8718
  600SOL     OW 1798   0.307   1.087   3.126 -0.0322 -0.2103  0.1613
  600SOL    HW1 1799   0.305   1.186   0.001  2.0034 -0.8425 -0.8102
  600SOL    HW2 1800   0.235   1.052   3.058 -0.3639  0.6457 -0.6979
  601SOL     OW 1801   0.661   0.714   1.103 -0.4350 -0.0343 -0.2184
  601SOL    HW1 1802   0.601   0.742   1.026  5.1932 -0.1669 -0.4457
  601SOL    HW2 1803   0.629   0.627   1.135  0.8058  0.1817 -1.5896
  602SOL     OW 1804   0.790   0.128   0.265 -0.2297 -0.0726  0.1765
  602SOL    HW1 1805   0.764   0.171   0.357  0.7955 -0.7186  2.4045
  602SOL    HW2 1806   0.755   0.031   0.261 -0.1826 -1.4159  0.6094
  603SOL     OW 1807   1.686   2.197   2.242 -0.2124 -0.3197  0.3688
  603SOL    HW1 1808   1.701   2.097   2.248 -0.8308 -1.1537  0.8988
  603SOL    HW2 1809   1.737   2.253   2.314  0.3527  0.5650  1.2770
  604SOL     OW 1810   0.430   2.887   2.837 -0.1690 -0.4589  0.5522
  604SOL    HW1 1811   0.458   2.863   2.739  0.3817 -1.0984 -1.7840
  604SOL    HW2 1812   0.514   2.879   2.894 -0.2085 -0.7482  2.6322
  605SOL     OW 1813   2.528   1.150   1.604  0.3327 -0.1400 -0.0421
  605SOL    HW1 1814   2.570   1.185   1.693  0.8795 -0.1250  1.8609
  605SOL    HW2 1815   2.423   1.146   1.611  1.0860  0.6183 -0.7872
  606SOL     OW 1816   1.021   1.589   2.791  0.7780 -0.2711 -0.4495
  606SOL    HW1 1817   1.016   1.487   2.772  1.5697 -1.8330  0.6616
  606SOL    HW2 1818   0.928   1.631   2.810 -0.8088 -1.6648 -1.6469
  607SOL     OW 1819   0.503   0.356   0.578 -0.0741  0.2411 -0.2876
  607SOL    HW1 1820   0.470   0.406   0.497 -1.7838 -0.1870  1.1767
  607SOL    HW2 1821   0.491   0.408   0.669  2.7847  0.0770  0.0451
  608SOL     OW 1822   2.973   1.850   1.551 -0.0942  0.3895  0.0904
  608SOL    HW1 1823   2.944   1.934   1.591 -0.2130 -0.7990 -1.7518
  608SOL    HW2 1824   3.007   1.788   1.620 -0.8020  0.7553 -1.9339
  609SOL     OW 1825   2.607   0.339   0.927  0.1090 -0.3117 -0.6101
  609SOL    HW1 1826   2.615   0.260   0.989 -1.2621  2.1413 -2.3727
  609SOL    HW2 1827   2.535   0.408   0.960 -0.9152  1.8047  1.3519
  610SOL     OW 1828   0.318   2.640   1.451  0.1330  0.2486 -0.0109
  610SOL    HW1 1829   0.335   2.626   1.552 -2.1532 -0.4320 -0.3510
  610SOL    HW2 1830   0.403   2.633   1.395  0.4440  0.2814  0.2666
  611SOL     OW 1831   1.451   1.645   0.200 -0.1971 -0.1511  0.0691
  611SOL    HW1 1832   1.472   1.667   0.297  1.2264  0.7607  1.1485
  611SOL    HW2 1833   1.421   1.727   0.143 -0.9520  1.8585 -2.6615
  612SOL     OW 1834   0.784   3.065   1.824 -0.4253  0.0409 -0.4328
  612SOL    HW1 1835   0.791   3.040   1.925  0.2282 -1.5938  0.0874
  612SOL    HW2 1836   0.835   0.016   1.802  5.9040  1.8528 -1.3359
  613SOL     OW 1837   0.520   2.469   0.742  0.2448  0.0942 -0.1380
  613SOL    HW1 1838   0.452   2.467   0.670 -0.3226 -0.0667  3.0137
  613SOL    HW2 1839   0.518   2.554   0.797 -2.5674  1.5905  1.7807
  614SOL     OW 1840   2.081   3.134   2.186  0.2783  0.2176  0.1080
  614SOL    HW1 1841   2.123   0.070   2.243  3.0157 -0.6757  1.9121
  614SOL    HW2 1842   2.122   3.134   2.096 -1.4163 -3.0178  0.2325
  615SOL     OW 1843   1.234   1.570   0.390  0.6049  0.3649  0.3111
  615SOL    HW1 1844   1.213   1.621   0.302 -3.1540  1.3209 -0.5411
  615SOL    HW2 1845   1.334   1.571   0.409  0.3836 -0.8622 -0.3751
  616SOL     OW 1846   1.510   1.637   0.474  0.8781 -0.0683  0.2208
  616SOL    HW1 1847   1.562   1.554   0.492 -0.6325 -0.1613  1.0678
  616SOL    HW2 1848   1.453   1.666   0.560 -2.4269  1.3938 -0.3963
  617SOL     OW 1849   1.420   1.320   2.811  0.1763  0.0449  0.1812
  617SOL    HW1 1850   1.353   1.248   2.790  2.8808  2.2272  0.5189
  617SOL    HW2 1851   1.449   1.332   2.905  0.5137  3.4698 -1.1041
  618SOL     OW 1852   0.720   0.370   2.062 -0.5233 -0.3463 -0.4892
  618SOL    HW1 1853   0.804   0.417   2.095 -1.7014 -3.2562  1.1219
  618SOL    HW2 1854   0.694   0.299   2.134  0.4623 -0.3366 -1.9376
  619SOL     OW 1855   3.067   1.508   1.530  0.1351 -0.0933  0.6416
  619SOL    HW1 1856   3.046   1.552   1.436  0.8597  2.5613 -2.6106
  619SOL    HW2 1857   0.030   1.489   1.540  0.1677 -1.9666  0.3527
  620SOL     OW 1858   2.533   0.258   2.620  0.1385 -0.4711  0.0928
  620SOL    HW1 1859   2.592   0.343   2.632  0.8371 -1.9166 -0.0547
  620SOL    HW2 1860   2.503   0.248   2.525 -0.6784  0.4868 -0.2180
  621SOL     OW 1861   2.008   2.069   2.958  0.6015 -0.4951 -0.1254
  621SOL    HW1 1862   2.085   2.136   2.957 -0.7920 -3.8334  0.7454
  621SOL    HW2 1863   1.938   2.099   2.892  0.1367  0.4868  0.0137
  622SOL     OW 1864   1.101   0.864   2.754  0.5933 -0.3743 -0.1844
  622SOL    HW1 1865   1.005   0.826   2.742 -0.4869  2.1905  1.0988
  622SOL    HW2 1866   1.100   0.917   2.841 -1.3864 -1.0499 -0.9028
  623SOL     OW 1867   0.833   1.016   2.136  0.2485  0.4591  0.5082
  623SOL    HW1 1868   0.892   0.943   2.174 -1.1618  1.2758 -2.4310
  623SOL    HW2 1869   0.745   1.019   2.186  0.1682 -2.9192  2.7013
  624SOL     OW 1870   2.869   0.386   0.602 -0.3667  0.0089  0.3985
  624SOL    HW1 1871   2.870   0.369   0.501  0.5623  1.6028 -2.0245
  624SOL    HW2 1872   2.842   0.481   0.617 -0.3664 -1.8144 -0.6685
  625SOL     OW 1873   0.790   2.502   0.669 -0.3113 -0.2489  0.0960
  625SOL    HW1 1874   0.698   2.478   0.704  1.6595 -0.5026  0.5491
  625SOL    HW2 1875   0.868   2.467   0.729 -2.7330  0.5506  1.2760
  626SOL     OW 1876   2.160   1.016   2.670 -0.2178 -0.0781  0.2876
  626SOL    HW1 1877   2.135   0.949   2.747  2.2037 -1.5415 -0.2980
  626SOL    HW2 1878   2.147   1.107   2.712 -1.6601 -0.0859 -1.2138
  627SOL     OW 1879   1.354   2.109   2.671 -0.0559 -0.1732 -0.1686
  627SOL    HW1 1880   1.362   2.143   2.577 -1.3657 -2.2859  0.3258
  627SOL    HW2 1881   1.411   2.030   2.680 -3.0548  1.8091 -0.2680
  628SOL     OW 1882   2.826   2.834   2.453 -0.3976  0.0892 -0.3063
  628SOL    HW1 1883   2.744   2.868   2.402  0.9802  0.2513 -1.7133
  628SOL    HW2 1884   2.807   2.824   2.552  0.7131 -0.3824 -0.5311
  629SOL     OW 1885   1.453   2.742   2.566  0.1731  0.6747  0.1427
  629SOL    HW1 1886   1.484   2.745   2.467 -2.4566 -0.7989 -5.0911
  629SOL    HW2 1887   1.528   2.733   2.635  0.5555 -1.0832  0.6023
  630SOL     OW 1888   0.974   0.042   2.301 -0.1791  0.8563  0.1117
  630SOL    HW1 1889   0.997   0.072   2.389 -0.1338 -0.1202 -3.0222
  630SOL    HW2 1890   1.057   0.039   2.238  3.6779 -0.8027 -0.8217
  631SOL     OW 1891   1.922   1.112   0.689 -0.4421  0.3739  0.3943
  631SOL    HW1 1892   1.857   1.043   0.723  0.4687  0.8165  0.7814
  631SOL    HW2 1893   1.925   1.125   0.585  1.3391 -0.1063  0.0459
  632SOL     OW 1894   2.494   0.238   1.978  0.5414 -0.8163  0.5765
  632SOL    HW1 1895   2.453   0.318   1.926  2.6216  1.4409 -2.4218
  632SOL    HW2 1896   2.579   0.279   2.020 -2.5078 -0.7704 -0.8971
  633SOL     OW 1897   1.072   1.565   0.121  0.3239 -0.3152  0.5276
  633SOL    HW1 1898   1.114   1.591   0.029 -1.2944  2.2859  0.5918
  633SOL    HW2 1899   1.035   1.469   0.117 -0.5599 -0.4731 -0.0256
  634SOL     OW 1900   2.931   2.969   1.658  0.1233 -0.0218  0.0508
  634SOL    HW1 1901   2.926   3.057   1.708 -1.4283 -1.6841  0.2022
  634SOL    HW2 1902   2.836   2.948   1.624  1.2351 -2.0824  1.8989
  635SOL     OW 1903   1.477   0.232   1.054  0.1313  0.3251  0.3322
  635SOL    HW1 1904   1.538   0.312   1.063  1.3085  0.0091  0.3805
  635SOL    HW2 1905   1.387   0.247   1.007 -0.0419 -0.0188  1.5494
  636SOL     OW 1906   0.715   1.202   0.099 -0.0924  0.1665 -0.0444
  636SOL    HW1 1907   0.640   1.184   0.170  0.1435 -1.9810 -1.9156
  636SOL    HW2 1908   0.673   1.218   0.007 -0.4468  1.0324 -1.0395
  637SOL     OW 1909   2.955   2.166   3.090  0.0499  0.2499 -0.2575
  637SOL    HW1 1910   2.886   2.100   3.052  0.5430 -2.2238 -0.1960
  637SOL    HW2 1911   3.040   2.115   3.122  3.7360 -2.7842 -0.5298
  638SOL     OW 1912   1.299   2.521   2.612  0.0205 -0.2449 -0.1848
  638SOL    HW1 1913   1.364   2.598   2.583  2.1119  1.8311 -2.4131
  638SOL    HW2 1914   1.313   2.475   2.702 -1.0926  0.1104 -0.3228
  639SOL     OW 1915   1.571   1.961   0.907 -0.0551 -0.1202  0.5461
  639SOL    HW1 1916   1.506   1.986   0.980 -1.2254 -1.0432 -1.4874
  639SOL    HW2 1917   1.532   1.991   0.818  0.1788 -1.1905  0.0294
  640SOL     OW 1918   2.359   2.723   0.231 -0.1945 -0.1835  0.1878
  640SOL    HW1 1919   2.323   2.657   0.159  0.7959 -0.4063  0.1391
  640SOL    HW2 1920   2.306   2.725   0.313  2.9484 -2.0606 -1.0115
  641SOL     OW 1921   2.700   0.617   3.134 -0.0228 -0.5674 -0.0295
  641SOL    HW1 1922   2.748   0.619   0.089 -1.5721 -0.8856 -0.1973
  641SOL    HW2 1923   2.604   0.601   0.015 -0.8970  1.5503  0.9432
  642SOL     OW 1924   0.468   0.505   1.147 -0.1303 -0.0540 -0.1723
  642SOL    HW1 1925   0.446   0.491   1.244 -0.2678 -0.9739  2.0305
  642SOL    HW2 1926   0.413   0.442   1.088 -1.2758  1.7692 -1.8447
  643SOL     OW 1927   0.783   1.333   2.230 -0.1958 -0.0765  0.0501
  643SOL    HW1 1928   0.788   1.285   2.141  1.5238  3.0949 -1.8805
  643SOL    HW2 1929   0.756   1.262   2.301 -0.0015 -2.5086  1.3718
  644SOL     OW 1930   1.949   2.239   0.617  0.4000  0.0223  0.0118
  644SOL    HW1 1931   2.051   2.225   0.605 -1.6613 -0.8514 -1.7567
  644SOL    HW2 1932   1.918   2.197   0.704  0.9472  1.1047 -0.4548
  645SOL     OW 1933   1.445   2.456   0.585 -0.7910  0.5108 -0.1094
  645SOL    HW1 1934   1.494   2.433   0.671  0.1989  2.0786 -1.2221
  645SOL    HW2 1935   1.499   2.441   0.502 -0.8116 -0.5225  1.1874
  646SOL     OW 1936   0.500   2.232   2.779 -0.3148 -0.3435  0.1887
  646SOL    HW1 1937   0.436   2.305   2.807  0.2908  0.2733  0.5074
  646SOL    HW2 1938   0.511   2.231   2.677 -1.3156  0.4451 -0.4540
  647SOL     OW 1939   1.316   2.885   1.283 -0.1640 -0.9832  0.3323
  647SOL    HW1 1940   1.320   2.794   1.236  2.5367  2.4691  0.5825
  647SOL    HW2 1941   1.376   2.947   1.233 -3.0096 -2.7018 -2.1194
  648SOL     OW 1942   1.229   0.337   1.017  0.0903 -0.2478 -0.1512
  648SOL    HW1 1943   1.203   0.330   1.117 -0.0223  0.8018 -0.8500
  648SOL    HW2 1944   1.156   0.288   0.966 -1.4901  1.1578 -1.8621
  649SOL     OW 1945   1.295   2.166   0.342  0.2853  0.0425 -0.6009
  649SOL    HW1 1946   1.224   2.243   0.358 -1.7674  1.1753 -1.5327
  649SOL    HW2 1947   1.390   2.204   0.349  1.5774  0.2083 -0.3048
  650SOL     OW 1948   2.327   1.643   1.579 -0.2575 -0.0378  0.1268
  650SOL    HW1 1949   2.397   1.679   1.642  0.4242 -1.7078 -0.8528
  650SOL    HW2 1950   2.240   1.696   1.593  2.2866 -1.4133 -0.3522
  651SOL     OW 1951   1.613   2.853   3.090 -0.0041 -0.0052 -0.5442
  651SOL    HW1 1952   1.572   2.922   3.025 -2.9049  0.5117 -0.5396
  651SOL    HW2 1953   1.586   2.757   3.065 -0.2225  1.6464  1.8633
  652SOL     OW 1954   3.133   1.843   0.171  0.2793  0.3238  0.0498
  652SOL    HW1 1955   3.035   1.849   0.163  3.1969  0.9309  2.6237
  652SOL    HW2 1956   0.022   1.890   0.264  0.8752  3.5078  0.2230
  653SOL     OW 1957   2.853   3.033   1.068 -0.1624 -0.0231 -0.1209
  653SOL    HW1 1958   2.800   3.118   1.050  2.4385  1.6779 -1.8702
  653SOL    HW2 1959   2.809   2.960   1.013  2.7378 -0.1084  1.1773
  654SOL     OW 1960   2.996   2.772   1.834  0.3779 -0.3888 -0.1021
  654SOL    HW1 1961   3.088   2.803   1.862 -0.6335  0.1390 -2.1066
  654SOL    HW2 1962   2.964   2.844   1.764 -2.3152  2.0674  0.6465
  655SOL     OW 1963   0.307   2.244   1.042  0.3207  0.2528  0.3179
  655SOL    HW1 1964   0.362   2.244   0.956  1.9613  0.2281 -0.9348
  655SOL    HW2 1965   0.279   2.151   1.073 -0.2402 -0.1958  2.9009
  656SOL     OW 1966   2.762   0.095   2.314 -0.3211  0.3876 -0.0851
  656SOL    HW1 1967   2.816   0.112   2.397 -3.5204  1.3980 -0.7171
  656SOL    HW2 1968   2.727   0.001   2.317  1.6238  0.8944  3.4612
  657SOL     OW 1969   3.019   1.552   2.743  0.0233 -0.4624  0.5489
  657SOL    HW1 1970   3.091   1.572   2.674 -1.3608 -0.5709 -0.2975
  657SOL    HW2 1971   3.049   1.554   2.839 -2.6964 -2.1009 -0.7863
  658SOL     OW 1972   2.650   1.663   1.160 -0.2053  0.2716  0.1257
  658SOL    HW1 1973   2.701   1.700   1.243  1.5340 -0.2099  1.1986
  658SOL    HW2 1974   2.577   1.600   1.189  2.8053  2.1213 -2.6479
  659SOL     OW 1975   1.340   3.080   0.033  0.2423  0.0829  0.1447
  659SOL    HW1 1976   1.259   3.038   0.079 -0.2457  1.2753 -1.7241
  659SOL    HW2 1977   1.421   3.025   0.053  1.7735  0.0660  0.2236
  660SOL     OW 1978   1.739   1.380   3.015 -0.2797 -0.4128  0.0573
  660SOL    HW1 1979   1.691   1.466   3.024  0.7082  0.1074  0.9711
  660SOL    HW2 1980   1.742   1.353   2.918  1.0865 -2.4394 -1.7165
  661SOL     OW 1981   0.323   2.249   1.307 -0.1684 -0.3947 -0.1139
  661SOL    HW1 1982   0.320   2.271   1.209 -1.2307 -1.7832  0.5368
  661SOL    HW2 1983   0.248   2.297   1.357 -3.1697  1.3257 -1.0746
  662SOL     OW 1984   3.120   0.771   3.093  0.0785  0.1292  0.0994
  662SOL    HW1 1985   3.051   0.708   3.058  0.3646 -0.4414 -1.3627
  662SOL    HW2 1986   0.054   0.722   0.009 -0.5762  1.2568  1.1095
  663SOL     OW 1987   1.961   1.704   0.982 -0.1230 -0.5991  0.4955
  663SOL    HW1 1988   1.954   1.706   0.880  0.4601  0.8143 -1.1609
  663SOL    HW2 1989   1.880   1.751   1.020 -0.0620 -1.7359  2.3779
  664SOL     OW 1990   1.173   1.508   1.376  0.2193 -0.1851  0.0234
  664SOL    HW1 1991   1.245   1.474   1.312  0.2025  2.6025  0.8940
  664SOL    HW2 1992   1.215   1.565   1.445 -0.9131 -2.7257 -1.4477
  665SOL     OW 1993   2.292   2.574   2.352 -0.1404  0.0091  0.6729
  665SOL    HW1 1994   2.256   2.657   2.305 -0.4342 -0.9254 -1.5775
  665SOL    HW2 1995   2.370   2.538   2.297 -2.9382  1.9444  0.7871
  666SOL     OW 1996   2.839   3.069   2.967  0.3473  0.3511 -0.5124
  666SOL    HW1 1997   2.804   3.042   2.875  1.3469  0.3421 -0.7189
  666SOL    HW2 1998   2.778   0.003   3.006 -0.3243  0.0891 -0.7678
  667SOL     OW 1999   2.480   1.205   2.157 -0.1139  0.1291 -0.0053
  667SOL    HW1 2000   2.481   1.108   2.135  2.9911  1.2055  0.9256
  667SOL    HW2 2001   2.445   1.259   2.079  1.3625 -2.1434  1.2359
  668SOL     OW 2002   0.451   1.019   2.340 -0.0066 -0.1838  0.3153
  668SOL    HW1 2003   0.420   1.037   2.436 -1.0066 -0.8722  0.4611
  668SOL    HW2 2004   0.383   1.059   2.272 -3.1711  2.0024 -0.0462
  669SOL     OW 2005   2.365   2.204   2.426 -0.2034 -0.5799 -0.0739
  669SOL    HW1 2006   2.451   2.244   2.387  2.5368 -2.6965 -1.7916
  669SOL    HW2 2007   2.343   2.242   2.520 -2.7717 -0.6665  2.5496
  670SOL     OW 2008   2.481   1.338   1.864 -0.2553  0.3723  0.1034
  670SOL    HW1 2009   2.527   1.409   1.804  1.4106  1.5216 -1.3389
  670SOL    HW2 2010   2.379   1.339   1.846  0.7059  1.1323 -0.6962
  671SOL     OW 2011   2.567   1.061   0.601  0.4119 -0.2103  0.0669
  671SOL    HW1 2012   2.644   1.027   0.664  1.6583  0.6883  1.3668
  671SOL    HW2 2013   2.586   1.160   0.583  0.5224 -2.3140  0.2187
  672SOL     OW 2014   2.309   0.517   2.434 -0.4075 -0.7498  0.6186
  672SOL    HW1 2015   2.325   0.553   2.341 -1.8524  0.5776  2.7779
  672SOL    HW2 2016   2.243   0.571   2.487  1.8550  1.3524 -1.8757
  673SOL     OW 2017   2.896   0.080   1.783 -0.1286  0.4539  0.2334
  673SOL    HW1 2018   2.972   0.148   1.784 -0.7852  3.4804 -1.6798
  673SOL    HW2 2019   2.868   0.065   1.883  0.3746 -0.5131  3.2987
  674SOL     OW 2020   1.600   1.969   1.339  0.0012  0.2074  0.4659
  674SOL    HW1 2021   1.701   1.979   1.325 -1.2339 -2.6335  2.5315
  674SOL    HW2 2022   1.568   2.003   1.429 -0.7732 -1.1128 -0.6143
  675SOL     OW 2023   0.816   0.617   0.599  0.7669 -0.5761  0.2778
  675SOL    HW1 2024   0.789   0.628   0.695  0.9998 -0.1070 -3.9811
  675SOL    HW2 2025   0.874   0.537   0.587 -0.8986 -0.9211 -2.2947
  676SOL     OW 2026   1.663   0.881   1.009 -0.0200  0.2454 -0.2839
  676SOL    HW1 2027   1.566   0.851   1.017  1.5137 -1.6733  1.2523
  676SOL    HW2 2028   1.719   0.838   1.084 -0.2814  0.4019  2.0783
  677SOL     OW 2029   2.491   1.296   2.401  0.1644  0.4764 -0.0483
  677SOL    HW1 2030   2.493   1.259   2.304  0.0618 -0.8966 -3.4639
  677SOL    HW2 2031   2.395   1.298   2.431  1.3219 -2.8316  0.7125
  678SOL     OW 2032   2.865   1.613   1.016  0.2980  0.0852 -0.4976
  678SOL    HW1 2033   2.889   1.518   1.028 -1.2559  2.1386  1.3679
  678SOL    HW2 2034   2.776   1.625   1.071 -1.4044 -0.7300  0.2414
  679SOL     OW 2035   2.273   2.543   0.034 -0.0269 -0.5277 -0.0954
  679SOL    HW1 2036   2.198   2.593   3.131  2.0970 -0.6854  0.6216
  679SOL    HW2 2037   2.339   2.531   3.096 -1.2839  1.5472 -2.2370
  680SOL     OW 2038   0.195   2.112   2.049  0.0427 -0.9691  0.3515
  680SOL    HW1 2039   0.219   2.093   2.147 -0.9626  0.3110  0.9612
  680SOL    HW2 2040   0.278   2.121   1.990 -1.5281  2.3933 -2.9975
  681SOL     OW 2041   0.497   1.164   1.312  0.1887 -0.4435 -0.0500
  681SOL    HW1 2042   0.551   1.160   1.227 -1.4018 -1.1445  0.7946
  681SOL    HW2 2043   0.564   1.148   1.389  0.8878 -0.3587 -2.1665
  682SOL     OW 2044   1.232   2.604   0.733 -0.2235 -0.1076 -0.0069
  682SOL    HW1 2045   1.308   2.550   0.689  2.0121 -1.0275 -0.7197
  682SOL    HW2 2046   1.153   2.629   0.674  3.7185  1.2996  2.1110
  683SOL     OW 2047   2.324   1.284   0.499 -0.2400  0.3063 -0.0085
  683SOL    HW1 2048   2.326   1.221   0.578 -0.7048 -0.7466 -0.1925
  683SOL    HW2 2049   2.407   1.272   0.438 -0.7519  0.1244 -1.1529
  684SOL     OW 2050   0.652   1.975   1.972  0.3776  0.3177  0.2679
  684SOL    HW1 2051   0.645   2.073   2.015 -0.1716  1.9417 -0.1640
  684SOL    HW2 2052   0.577   1.909   1.991 -1.4034  2.3768  0.2316
  685SOL     OW 2053   2.070   1.666   0.038 -0.1325 -0.2005 -0.0827
  685SOL    HW1 2054   2.159   1.658   0.087 -2.7175  0.0563 -2.6560
  685SOL    HW2 2055   1.999   1.602   0.076  0.6413  1.0183 -2.3056
  686SOL     OW 2056   0.264   0.638   1.013  0.4946 -0.4028  0.2242
  686SOL    HW1 2057   0.254   0.694   1.098  0.7710  0.7944 -0.7462
  686SOL    HW2 2058   0.348   0.583   1.017 -0.5225  0.0554 -0.5462
  687SOL     OW 2059   1.063   2.307   2.738  0.1543 -0.1692  0.1380
  687SOL    HW1 2060   1.022   2.237   2.798  2.2127  3.2520 -1.7717
  687SOL    HW2 2061   1.024   2.306   2.642 -0.0275  0.0387  1.6207
  688SOL     OW 2062   2.555   1.758   1.829 -0.6559  0.3033  0.3593
  688SOL    HW1 2063   2.568   1.856   1.822 -1.4486  1.8326  0.1231
  688SOL    HW2 2064   2.549   1.718   1.922 -0.4356 -0.3101  0.8138
  689SOL     OW 2065   2.295   0.622   2.172 -0.0194  0.0154  0.6321
  689SOL    HW1 2066   2.366   0.631   2.099  3.1613 -2.3359  0.9635
  689SOL    HW2 2067   2.263   0.715   2.197 -0.9127 -0.2296  3.8285
  690SOL     OW 2068   2.230   0.986   1.430 -0.0951 -0.2295  0.3133
  690SOL    HW1 2069   2.158   0.981   1.355 -0.9177  1.1447 -0.3093
  690SOL    HW2 2070   2.320   1.018   1.394  0.0095  0.9170  0.8783
  691SOL     OW 2071   0.697   1.921   1.710 -0.1199 -0.7078 -0.5172
  691SOL    HW1 2072   0.680   1.937   1.809  0.2043 -0.8745  1.1882
  691SOL    HW2 2073   0.795   1.913   1.694 -2.1202  1.3660 -0.2785
  692SOL     OW 2074   1.984   0.071   1.309 -0.4463  0.0851 -0.0116
  692SOL    HW1 2075   1.938   0.131   1.377  1.6618 -1.3395  0.4292
  692SOL    HW2 2076   1.937   0.070   1.218  0.3308  0.9288 -2.3741
  693SOL     OW 2077   0.691   1.113   2.383 -0.0224  0.1982  0.4021
  693SOL    HW1 2078   0.739   1.105   2.474 -1.0132  1.3919  0.1239
  693SOL    HW2 2079   0.605   1.056   2.378  4.0731 -2.0024 -0.9849
  694SOL     OW 2080   1.895   2.914   0.917  0.0410 -0.0336  0.1149
  694SOL    HW1 2081   1.890   2.845   0.841  0.5831 -1.4939 -0.3991
  694SOL    HW2 2082   1.839   2.994   0.891  2.3138  0.4826  1.3401
  695SOL     OW 2083   1.403   1.266   1.900  0.5500  0.3347  0.1421
  695SOL    HW1 2084   1.317   1.279   1.955  1.6806  0.9576  1.8566
  695SOL    HW2 2085   1.406   1.317   1.811  1.4183 -0.0937  0.4589
  696SOL     OW 2086   1.515   0.035   0.678 -0.5882  0.3140 -0.3305
  696SOL    HW1 2087   1.427   3.123   0.664  1.4859 -1.5312 -1.3707
  696SOL    HW2 2088   1.550   0.073   0.586 -0.1118 -0.3712 -2.4393
  697SOL     OW 2089   1.116   0.209   0.672  0.4318  0.3738 -0.2196
  697SOL    HW1 2090   1.082   0.192   0.770  1.6673  0.4742 -0.4781
  697SOL    HW2 2091   1.053   0.272   0.621 -0.2736 -0.0177 -2.6510
  698SOL     OW 2092   1.888   1.007   2.259  0.1854  0.3016  0.2219
  698SOL    HW1 2093   1.940   1.029   2.177 -0.6251  0.8454  1.9334
  698SOL    HW2 2094   1.789   1.038   2.255  1.6218  1.8539 -0.5123
  699SOL     OW 2095   1.384   1.460   1.184  0.0443  0.3171 -0.5891
  699SOL    HW1 2096   1.392   1.362   1.184 -0.4728  2.1696  1.4350
  699SOL    HW2 2097   1.475   1.506   1.193 -0.1326 -2.4814  2.3168
  700SOL     OW 2098   1.347   0.178   0.263 -0.4164 -0.4643  0.1117
  700SOL    HW1 2099   1.306   0.092   0.226 -0.2722  0.2790 -1.4883
  700SOL    HW2 2100   1.314   0.199   0.362  1.8110  0.0134 -2.0921
  701SOL     OW 2101   0.629   0.219   1.641  0.0888  0.6720 -0.1080
  701SOL    HW1 2102   0.581   0.283   1.577 -0.1297 -0.1005 -1.4098
  701SOL    HW2 2103   0.588   0.128   1.664 -0.2303 -0.9772 -0.5152
  702SOL     OW 2104   1.148   3.037   0.249 -0.3515  0.4910  0.2471
  702SOL    HW1 2105   1.133   3.134   0.219 -1.0851 -0.3140  0.2427
  702SOL    HW2 2106   1.062   2.985   0.234  0.9102 -0.9103 -2.5040
  703SOL     OW 2107   2.639   2.989   2.277 -0.1352 -0.1089 -0.4964
  703SOL    HW1 2108   2.541   3.009   2.300 -1.0410  3.2218 -0.5075
  703SOL    HW2 2109   2.641   2.926   2.198  0.0121 -0.9614  0.1196
  704SOL     OW 2110   0.952   2.383   0.852  0.1445 -0.2238 -0.2618
  704SOL    HW1 2111   0.896   2.350   0.930 -0.2235  0.1558 -0.0214
  704SOL    HW2 2112   1.041   2.409   0.889 -0.2548 -0.9748  0.8238
  705SOL     OW 2113   0.093   0.823   2.291 -0.2577 -0.0372  0.2985
  705SOL    HW1 2114   0.148   0.757   2.339 -1.8716  2.8796 -2.8677
  705SOL    HW2 2115   0.002   0.835   2.336  0.4537 -0.0330 -2.7679
  706SOL     OW 2116   1.634   0.187   0.196 -0.3480  0.3995  0.4702
  706SOL    HW1 2117   1.645   0.083   0.190  0.6199 -2.6288  1.3212
  706SOL    HW2 2118   1.537   0.207   0.218  0.5980 -0.9375  0.2010
  707SOL     OW 2119   1.395   1.925   2.283  0.0926 -0.1459  0.3686
  707SOL    HW1 2120   1.327   1.854   2.311  0.5938 -1.1823 -0.6008
  707SOL    HW2 2121   1.391   1.928   2.183 -1.3050  2.7881  0.7931
  708SOL     OW 2122   2.939   2.097   1.614 -0.1125  0.3620  0.5113
  708SOL    HW1 2123   2.878   2.157   1.661  1.0732 -0.8245  0.2986
  708SOL    HW2 2124   3.030   2.140   1.603  3.4915  1.2775 -1.9893
  709SOL     OW 2125   2.050   0.344   1.687  0.3670 -0.4286 -0.4404
  709SOL    HW1 2126   2.069   0.310   1.779  1.8019  0.8877 -1.4713
  709SOL    HW2 2127   2.111   0.424   1.672 -1.1747 -0.1014 -0.3987
  710SOL     OW 2128   2.825   2.856   1.294 -0.1711 -0.4551 -0.2664
  710SOL    HW1 2129   2.798   2.913   1.375 -2.2021  2.6790  2.5935
  710SOL    HW2 2130   2.839   2.920   1.215  2.5937  0.6491 -0.4339
  711SOL     OW 2131   0.285   2.429   0.547 -0.1531  0.4643  0.4251
  711SOL    HW1 2132   0.325   2.500   0.490 -2.4091 -0.7412 -1.3534
  711SOL    HW2 2133   0.188   2.419   0.509 -2.3249  2.0285 -2.5342
  712SOL     OW 2134   0.676   2.216   2.342 -0.0801 -0.0113  0.3692
  712SOL    HW1 2135   0.623   2.292   2.385  0.6083  1.0469  1.0390
  712SOL    HW2 2136   0.742   2.173   2.404 -1.4549  2.3092 -0.0767
  713SOL     OW 2137   2.016   0.528   3.131 -0.1503  0.2844  0.1698
  713SOL    HW1 2138   1.949   0.462   0.031  2.9765  1.2730 -2.4513
  713SOL    HW2 2139   1.984   0.623   0.023  3.6486  5.1351  1.0079
  714SOL     OW 2140   1.233   2.036   0.562 -0.3386 -0.1234  0.2704
  714SOL    HW1 2141   1.161   1.967   0.579  3.0556  1.1645  1.5286
  714SOL    HW2 2142   1.237   2.074   0.464 -3.6292  0.8308 -1.5759
  715SOL     OW 2143   1.887   0.104   0.595  0.4193 -0.1938 -0.0765
  715SOL    HW1 2144   1.816   0.154   0.548 -0.4028 -2.2922  0.6298
  715SOL    HW2 2145   1.972   0.165   0.613  3.3435 -1.3515 -0.5418
  716SOL     OW 2146   0.648   0.783   2.003  0.5901 -0.2796  0.1639
  716SOL    HW1 2147   0.656   0.791   2.102  1.6985 -1.1780 -4.0105
  716SOL    HW2 2148   0.561   0.837   1.972 -1.9226  2.0127 -1.7365
  717SOL     OW 2149   0.060   0.510   2.959  0.5252  0.1973 -1.0492
  717SOL    HW1 2150   0.087   0.584   2.898 -0.5026 -1.3594 -0.1554
  717SOL    HW2 2151   3.102   0.529   2.998  0.5529 -0.6254  2.9254
  718SOL     OW 2152   1.251   0.971   0.357 -0.3236  0.3758 -0.2291
  718SOL    HW1 2153   1.310   0.959   0.446  1.5038 -0.6153  0.6302
  718SOL    HW2 2154   1.269   0.895   0.295  1.5700  1.4481 -2.5897
  719SOL     OW 2155   2.803   1.948   2.993 -0.2117  0.1906  0.2580
  719SOL    HW1 2156   2.829   1.894   3.079  0.9403 -0.5786  1.0099
  719SOL    HW2 2157   2.871   1.926   2.914 -0.9176  0.9658  0.0665
  720SOL     OW 2158   1.383   0.907   1.252 -0.3765 -0.0567 -0.1816
  720SOL    HW1 2159   1.388   0.909   1.152 -0.2523 -2.2208  1.3001
  720SOL    HW2 2160   1.290   0.883   1.278 -0.4348  2.3234 -3.5946
  721SOL     OW 2161   2.786   0.658   0.635 -0.5341  0.1085  0.2034
  721SOL    HW1 2162   2.692   0.664   0.598  3.6425  0.3585  1.7953
  721SOL    HW2 2163   2.784   0.651   0.736 -2.1907  0.6507  1.1975
  722SOL     OW 2164   1.216   1.765   2.725 -0.4766 -0.1163  0.3866
  722SOL    HW1 2165   1.168   1.857   2.704  0.6799  0.1367  0.7941
  722SOL    HW2 2166   1.144   1.692   2.747 -3.2050 -0.7988 -0.3330
  723SOL     OW 2167   0.680   0.913   0.359 -0.1728 -0.1403 -0.0284
  723SOL    HW1 2168   0.631   0.988   0.315  1.5751 -2.9615  1.8485
  723SOL    HW2 2169   0.621   0.857   0.422  0.4216  0.8894 -3.9256
  724SOL     OW 2170   1.160   1.898   1.890  0.1234  0.1304 -0.4073
  724SOL    HW1 2171   1.179   1.962   1.822  0.5556 -1.0928  1.2937
  724SOL    HW2 2172   1.091   1.926   1.959 -0.9863 -1.6798 -0.8558
  725SOL     OW 2173   3.105   1.066   1.423 -0.1522  0.0459  0.3227
  725SOL    HW1 2174   0.024   0.986   1.464 -0.7619 -2.2564  2.1527
  725SOL    HW2 2175   3.091   1.142   1.489 -0.5645  0.6896 -1.1712
  726SOL     OW 2176   1.602   3.029   0.159  0.3428  0.1537 -0.1827
  726SOL    HW1 2177   1.614   3.000   0.257  2.4503 -0.8689 -1.4137
  726SOL    HW2 2178   1.601   2.958   0.099 -0.8992  3.1510  3.0841
  727SOL     OW 2179   1.434   0.993   2.338  0.6243 -0.0170  0.4829
  727SOL    HW1 2180   1.340   1.005   2.382 -2.1699 -0.6452 -0.0494
  727SOL    HW2 2181   1.427   0.934   2.255  0.8738  0.2248 -1.2964
  728SOL     OW 2182   1.368   2.654   1.161 -0.3057  0.0826  0.6609
  728SOL    HW1 2183   1.288   2.609   1.116 -0.8954 -1.1401  0.2275
  728SOL    HW2 2184   1.452   2.633   1.105 -0.2599 -2.1100 -3.6739
  729SOL     OW 2185   1.512   0.555   1.395  0.4055  0.8978 -0.2627
  729SOL    HW1 2186   1.548   0.486   1.457 -1.2245 -1.8643 -1.9786
  729SOL    HW2 2187   1.529   0.525   1.300 -1.7559  1.2952  0.1660
  730SOL     OW 2188   0.894   1.884   2.062 -0.6541  0.7383  0.0279
  730SOL    HW1 2189   0.893   1.954   2.138 -1.0307  1.1665  0.7891
  730SOL    HW2 2190   0.836   1.917   1.987  2.1823 -0.9767  0.2762
  731SOL     OW 2191   0.238   0.269   0.327  0.3536  0.5555  0.0629
  731SOL    HW1 2192   0.309   0.338   0.329  0.8717  2.4600  0.8464
  731SOL    HW2 2193   0.276   0.187   0.283  2.7908 -0.0658  0.9446
  732SOL     OW 2194   0.503   0.355   3.066  0.2592  0.1510  0.4417
  732SOL    HW1 2195   0.572   0.332   0.001 -1.0366 -1.9552 -1.0424
  732SOL    HW2 2196   0.408   0.361   3.105 -0.8319 -1.5822 -1.5771
  733SOL     OW 2197   1.386   2.424   1.358 -0.0474  0.2483 -0.2465
  733SOL    HW1 2198   1.348   2.335   1.386  2.0205  0.1795 -0.8146
  733SOL    HW2 2199   1.344   2.499   1.419  0.1189  0.9636  0.0286
  734SOL     OW 2200   0.037   2.605   2.658 -0.1585  0.5046  0.1230
  734SOL    HW1 2201   0.073   2.509   2.668 -1.9132 -0.4686  1.7181
  734SOL    HW2 2202   3.126   2.633   2.744  1.2769 -0.4214 -2.5659
  735SOL     OW 2203   0.831   2.950   0.862  0.5774  0.6736  0.1994
  735SOL    HW1 2204   0.816   2.997   0.953  0.7847 -0.1567  2.6732
  735SOL    HW2 2205   0.897   2.871   0.871  2.5447  0.1132 -2.2102
  736SOL     OW 2206   1.677   1.120   2.797 -0.1192 -0.0892  0.6486
  736SOL    HW1 2207   1.630   1.071   2.722  0.0414 -0.3284 -0.0733
  736SOL    HW2 2208   1.641   1.099   2.888  2.2426 -0.8820 -2.3982
  737SOL     OW 2209   0.010   0.388   0.687 -0.0162 -0.2713  0.3084
  737SOL    HW1 2210   0.035   0.302   0.639  1.7008 -1.1070 -1.1154
  737SOL    HW2 2211   3.050   0.408   0.670 -0.2016 -0.5090 -2.8429
  738SOL     OW 2212   2.681   2.500   1.260  0.0811 -0.2566 -0.6113
  738SOL    HW1 2213   2.775   2.518   1.297  0.3456  0.5064  0.1435
  738SOL    HW2 2214   2.646   2.574   1.195  0.5529  0.2401 -1.2798
  739SOL     OW 2215   1.474   2.781   0.361 -0.4357 -0.3215 -0.0178
  739SOL    HW1 2216   1.391   2.824   0.402 -0.5536  0.3728  2.7127
  739SOL    HW2 2217   1.554   2.840   0.375  1.5764  0.2607 -1.8895
  740SOL     OW 2218   1.467   3.108   1.160  0.1557  0.2050  0.1372
  740SOL    HW1 2219   1.513   3.047   1.088 -0.6973 -0.1441 -2.1794
  740SOL    HW2 2220   1.461   0.066   1.118  0.8326  0.1891 -0.0861
  741SOL     OW 2221   2.282   0.301   0.850 -0.5085 -0.4649  0.8004
  741SOL    HW1 2222   2.347   0.240   0.801 -0.3465  0.6811  0.4440
  741SOL    HW2 2223   2.324   0.391   0.869 -2.5349  2.4828  0.3536
  742SOL     OW 2224   1.476   2.355   2.150  0.0921 -0.2394  0.0361
  742SOL    HW1 2225   1.556   2.309   2.193 -1.9610 -1.5578  1.3551
  742SOL    HW2 2226   1.499   2.391   2.057 -2.5110  0.1336 -1.7294
  743SOL     OW 2227   2.389   0.450   1.860  0.1677 -0.4283  0.0401
  743SOL    HW1 2228   2.443   0.519   1.916  0.9918  0.0086 -2.1423
  743SOL    HW2 2229   2.308   0.488   1.811 -0.3211 -3.4597 -0.3902
  744SOL     OW 2230   2.431   0.437   1.236 -0.5619 -0.3003  0.6869
  744SOL    HW1 2231   2.469   0.457   1.330  2.4612  1.0761 -0.9672
  744SOL    HW2 2232   2.340   0.478   1.218  3.6943  0.4897  0.0718
  745SOL     OW 2233   2.240   1.433   1.732 -0.4563  0.1669  0.2092
  745SOL    HW1 2234   2.169   1.480   1.783  4.1096  0.5723  0.1926
  745SOL    HW2 2235   2.302   1.495   1.676 -0.4403  0.0084 -0.0479
  746SOL     OW 2236   1.175   1.558   0.806  0.2925  0.2146  0.1507
  746SOL    HW1 2237   1.252   1.621   0.793 -0.7947  2.1292 -0.9015
  746SOL    HW2 2238   1.103   1.579   0.737  1.9597  1.2282 -1.3032
  747SOL     OW 2239   1.719   1.406   0.989 -0.4503 -0.5522 -0.1646
  747SOL    HW1 2240   1.707   1.306   0.987  1.3350 -2.1569 -0.0865
  747SOL    HW2 2241   1.816   1.431   0.998 -1.0501  1.6310  0.4228
  748SOL     OW 2242   2.869   3.067   0.510 -0.0977  0.3338 -0.2371
  748SOL    HW1 2243   2.777   3.065   0.553  1.5330 -0.3643  3.5336
  748SOL    HW2 2244   2.937   3.118   0.565  0.5954 -0.7508  0.0932
  749SOL     OW 2245   3.047   0.368   2.016 -0.1252 -0.0310 -0.0038
  749SOL    HW1 2246   3.072   0.292   2.084  0.7952 -0.2066  0.3784
  749SOL    HW2 2247   3.084   0.459   2.042  1.3243  0.2592 -0.9736
  750SOL     OW 2248   1.785   2.993   1.575  0.3102 -0.0745  0.1215
  750SOL    HW1 2249   1.736   3.057   1.511  1.1990 -0.2035 -1.2160
  750SOL    HW2 2250   1.761   2.900   1.533 -0.7570 -1.5378 -0.5889
  751SOL     OW 2251   2.849   0.237   0.842  0.3560  0.1947  0.0825
  751SOL    HW1 2252   2.868   0.287   0.754  0.4122  1.7124  2.4866
  751SOL    HW2 2253   2.750   0.261   0.874 -4.2222 -3.7021 -1.7125
  752SOL     OW 2254   0.359   2.829   1.149  0.7876 -0.1685  0.2213
  752SOL    HW1 2255   0.410   2.784   1.223 -4.3088 -1.4140 -0.2652
  752SOL    HW2 2256   0.329   2.756   1.086  0.5923  0.3602  1.4847
  753SOL     OW 2257   1.276   0.549   2.092  0.3736  0.7380 -0.0291
  753SOL    HW1 2258   1.186   0.559   2.045 -0.8114  0.7826  0.1204
  753SOL    HW2 2259   1.356   0.538   2.032 -1.3571  1.1017 -0.7135
  754SOL     OW 2260   1.329   2.840   1.758  0.1947  0.2368  0.3947
  754SOL    HW1 2261   1.402   2.854   1.692  0.0384  0.4520  0.8746
  754SOL    HW2 2262   1.371   2.800   1.837 -1.3855 -0.8087 -0.2762
  755SOL     OW 2263   2.757   0.968   0.752  0.3899  0.3391 -0.6868
  755SOL    HW1 2264   2.800   1.044   0.801 -0.5435 -1.7765  2.4537
  755SOL    HW2 2265   2.826   0.905   0.706 -2.1184  0.0374 -1.8941
  756SOL     OW 2266   2.143   1.909   2.776  0.9745 -0.3107  0.8679
  756SOL    HW1 2267   2.089   1.942   2.691 -0.2427  1.0081 -2.7253
  756SOL    HW2 2268   2.089   1.948   2.853 -0.5766 -3.7605 -3.1625
  757SOL     OW 2269   1.765   0.031   0.806  0.5158 -0.3942 -0.6785
  757SOL    HW1 2270   1.830   0.055   0.736 -0.8985 -0.2754  0.9860
  757SOL    HW2 2271   1.668   0.042   0.768 -4.8064  2.5689 -1.9623
  758SOL     OW 2272   0.972   2.716   0.905  0.0210  0.1714 -0.2260
  758SOL    HW1 2273   0.908   2.665   0.962  0.7235  4.2864  0.2545
  758SOL    HW2 2274   0.981   2.682   0.807 -0.1566  0.2598 -0.4727
  759SOL     OW 2275   3.005   0.505   1.209  0.1366 -0.0204 -0.3086
  759SOL    HW1 2276   3.055   0.485   1.119 -0.1478 -0.6905 -3.1634
  759SOL    HW2 2277   2.911   0.539   1.190 -1.1886 -1.1978 -1.3870
  760SOL     OW 2278   2.365   1.243   1.137 -0.1891 -0.0057 -0.1779
  760SOL    HW1 2279   2.408   1.184   1.214 -0.4460 -0.6115  0.5503
  760SOL    HW2 2280   2.288   1.299   1.176  1.5961  0.0270 -0.0893
  761SOL     OW 2281   0.725   0.992   0.905  0.4631  0.1348 -0.3107
  761SOL    HW1 2282   0.651   0.924   0.881 -0.6533  2.7100  0.1958
  761SOL    HW2 2283   0.813   0.940   0.904  0.8724 -1.0790  1.4589
  762SOL     OW 2284   2.044   1.870   1.444  0.3321 -0.0469 -0.0021
  762SOL    HW1 2285   2.076   1.804   1.375  1.4905 -0.2510  0.9039
  762SOL    HW2 2286   2.049   1.826   1.535 -0.7691 -3.2564  1.8958
  763SOL     OW 2287   1.498   1.556   1.923 -0.2678 -0.2777 -0.1150
  763SOL    HW1 2288   1.443   1.484   1.971  0.1731 -1.8833  0.6205
  763SOL    HW2 2289   1.434   1.619   1.879 -1.1447 -1.3663 -0.5368
  764SOL     OW 2290   0.172   2.069   2.326 -0.1296 -0.1903 -0.6141
  764SOL    HW1 2291   0.092   2.116   2.373  0.9899  0.8379 -1.0851
  764SOL    HW2 2292   0.260   2.081   2.374  1.5224  0.5619  0.6154
  765SOL     OW 2293   0.856   2.690   1.331 -0.5726  0.3394  0.2055
  765SOL    HW1 2294   0.914   2.770   1.322 -0.5255 -3.9069  1.6439
  765SOL    HW2 2295   0.896   2.624   1.392  0.2859  1.8890 -1.2324
  766SOL     OW 2296   0.788   2.279   2.619 -0.3898 -0.6764 -0.3916
  766SOL    HW1 2297   0.764   2.180   2.629  2.8928 -1.5302 -0.2151
  766SOL    HW2 2298   0.789   2.331   2.710  1.2186  2.0476  0.6076
  767SOL     OW 2299   1.560   0.953   2.598  0.2083 -0.4547 -0.3326
  767SOL    HW1 2300   1.485   0.893   2.626 -1.0837 -1.6756  0.8807
  767SOL    HW2 2301   1.538   0.990   2.506  0.4997 -1.2855 -1.8055
  768SOL     OW 2302   1.331   2.507   3.043 -0.2188 -0.2877 -0.5832
  768SOL    HW1 2303   1.423   2.549   3.032 -0.0701 -2.3872  0.4638
  768SOL    HW2 2304   1.307   2.445   2.967 -2.0831  0.9300  3.0669
  769SOL     OW 2305   0.067   2.678   1.398  0.2012 -0.1905 -0.4061
  769SOL    HW1 2306   0.045   2.696   1.299 -0.0249 -0.8400 -1.2469
  769SOL    HW2 2307   0.166   2.665   1.413 -1.0409 -1.9904  1.4350
  770SOL     OW 2308   0.895   0.146   2.739 -0.0394 -0.5059  0.3345
  770SOL    HW1 2309   0.832   0.067   2.746  1.7632 -3.3033  0.4238
  770SOL    HW2 2310   0.898   0.207   2.819  1.3130  0.7195 -2.1046
  771SOL     OW 2311   0.482   0.002   2.484 -0.4483 -0.6080 -0.4513
  771SOL    HW1 2312   0.388   3.106   2.461  2.4733 -1.5427  0.9151
  771SOL    HW2 2313   0.502   0.088   2.430 -0.2997 -1.5786 -2.9155
  772SOL     OW 2314   2.416   0.006   1.883  0.0273  0.2788  0.0278
  772SOL    HW1 2315   2.458   0.099   1.905 -1.3345  0.1366 -1.5899
  772SOL    HW2 2316   2.464   3.094   1.811 -0.1950 -0.6541  0.4354
  773SOL     OW 2317   0.797   2.410   1.844  0.1195  0.1794  0.6362
  773SOL    HW1 2318   0.830   2.491   1.898  0.8302  1.4670 -0.1960
  773SOL    HW2 2319   0.733   2.356   1.900  0.8024  0.6231 -0.1766
  774SOL     OW 2320   1.123   0.326   2.211  0.3823 -0.5557  0.5358
  774SOL    HW1 2321   1.138   0.224   2.212 -1.0972  1.1356 -5.4722
  774SOL    HW2 2322   1.198   0.374   2.166 -0.7080  0.3460 -1.6548
  775SOL     OW 2323   2.181   2.985   2.863 -0.4816  0.0587  0.3160
  775SOL    HW1 2324   2.084   3.018   2.885 -1.1523 -1.6246  1.6704
  775SOL    HW2 2325   2.214   3.047   2.791 -1.0668  2.5832 -1.8840
  776SOL     OW 2326   1.877   0.509   2.282  0.3557  0.1869  0.0061
  776SOL    HW1 2327   1.906   0.601   2.318  1.1816 -0.6355 -0.0745
  776SOL    HW2 2328   1.812   0.460   2.345 -0.9450 -0.1801  2.2639
  777SOL     OW 2329   2.510   1.003   2.609  0.0074 -0.0535  0.0564
  777SOL    HW1 2330   2.551   1.069   2.674  0.3316 -2.0352 -0.4384
  777SOL    HW2 2331   2.465   1.054   2.531 -2.0957  1.1064 -0.5599
  778SOL     OW 2332   1.981   0.755   2.416 -0.1287 -0.1986  0.2711
  778SOL    HW1 2333   2.016   0.822   2.347  0.9242 -0.4859 -0.1807
  778SOL    HW2 2334   2.048   0.740   2.491  0.8812 -0.5421  1.6559
  779SOL     OW 2335   2.930   0.254   0.077 -0.0113  0.0956 -0.0583
  779SOL    HW1 2336   2.899   0.290   0.169 -0.7813  2.3003  3.3293
  779SOL    HW2 2337   3.014   0.200   0.087 -0.4450  2.5474 -0.9033
  780SOL     OW 2338   2.382   0.438   2.911 -0.2128  0.3690  0.5372
  780SOL    HW1 2339   2.450   0.438   2.829  1.0615 -1.6471  0.5131
  780SOL    HW2 2340   2.351   0.531   2.935  0.0819 -1.4106  0.7906
  781SOL     OW 2341   0.418   2.966   1.516 -0.7291 -0.2794  0.2882
  781SOL    HW1 2342   0.363   3.009   1.438  0.1097  0.1178 -2.4592
  781SOL    HW2 2343   0.457   2.876   1.495 -0.4930  1.1242  1.1789
  782SOL     OW 2344   1.733   2.448   0.439 -0.7637  0.2069  0.2298
  782SOL    HW1 2345   1.797   2.478   0.512 -0.9029 -1.0365  1.5636
  782SOL    HW2 2346   1.730   2.508   0.356  0.1945 -1.0650  1.2172
  783SOL     OW 2347   0.581   1.508   1.578 -0.5746  0.0241 -0.0477
  783SOL    HW1 2348   0.676   1.467   1.566  1.1095 -0.1157  0.4769
  783SOL    HW2 2349   0.511   1.438   1.590 -0.4132  2.5137 -1.3821
  784SOL     OW 2350   1.672   0.902   2.061 -0.2871  0.0150 -0.1273
  784SOL    HW1 2351   1.676   0.951   1.969 -0.6340  0.4874  1.6618
  784SOL    HW2 2352   1.748   0.838   2.076 -0.5072  3.7831 -0.2874
  785SOL     OW 2353   2.636   0.063   1.020 -0.0190  0.0089 -0.0126
  785SOL    HW1 2354   2.569   0.099   1.087  1.5938  0.1630 -2.2848
  785SOL    HW2 2355   2.586   0.011   0.951  2.0929  1.5443  0.6895
  786SOL     OW 2356   1.654   3.136   1.381  0.2310 -0.5889 -0.0988
  786SOL    HW1 2357   1.597   3.117   1.304 -0.1738  0.1874 -0.6093
  786SOL    HW2 2358   1.688   0.093   1.358 -1.4157 -1.1511 -1.2321
  787SOL     OW 2359   1.357   0.186   1.385  0.3028 -0.1486 -0.6341
  787SOL    HW1 2360   1.287   0.254   1.359  0.1497 -1.6796 -1.9933
  787SOL    HW2 2361   1.397   0.142   1.303 -1.2354  0.5422  1.6740
  788SOL     OW 2362   0.170   0.786   0.352  0.4455 -0.4847 -0.1123
  788SOL    HW1 2363   0.154   0.729   0.267  1.1759  3.6097 -0.8513
  788SOL    HW2 2364   0.122   0.755   0.441 -2.1250  0.5959  0.4622
  789SOL     OW 2365   0.558   1.165   1.996 -0.9315 -0.4347  0.1719
  789SOL    HW1 2366   0.649   1.191   1.956 -3.1818 -0.0569 -2.2221
  789SOL    HW2 2367   0.498   1.239   1.987  1.8153 -0.2823  3.7229
  790SOL     OW 2368   0.298   0.591   2.645 -0.4441  0.1466 -0.4343
  790SOL    HW1 2369   0.380   0.641   2.681  1.5600  0.8832 -0.6234
  790SOL    HW2 2370   0.214   0.630   2.692 -1.2701 -1.0926 -1.4569
  791SOL     OW 2371   2.286   0.556   0.375  0.0874  0.4887 -0.1716
  791SOL    HW1 2372   2.211   0.625   0.377 -0.2406 -2.8715  1.6111
  791SOL    HW2 2373   2.248   0.461   0.373 -0.3679 -1.1337  0.0098
  792SOL     OW 2374   1.003   0.143   1.295  0.5340 -0.5441 -0.3571
  792SOL    HW1 2375   0.905   0.167   1.276  1.2272  2.7797  0.1154
  792SOL    HW2 2376   1.015   0.117   1.394 -1.7220 -0.7594  0.4043
  793SOL     OW 2377   0.314   3.066   1.285 -0.1907 -0.7845  0.2105
  793SOL    HW1 2378   0.325   2.978   1.228  0.1536 -1.6345 -2.6896
  793SOL    HW2 2379   0.225   3.108   1.286  0.7687  1.7984  1.8804
  794SOL     OW 2380   0.221   0.614   2.399 -0.4972 -0.0919  0.0065
  794SOL    HW1 2381   0.245   0.603   2.497 -1.7438  1.1731 -2.0984
  794SOL    HW2 2382   0.278   0.557   2.336  1.9876 -3.4427  0.3827
  795SOL     OW 2383   0.564   2.571   2.641 -0.0433  0.2185 -0.1133
  795SOL    HW1 2384   0.542   2.669   2.629  0.3894 -0.9035 -0.7890
  795SOL    HW2 2385   0.630   2.553   2.717 -1.3184 -1.9459  1.5683
  796SOL     OW 2386   2.144   0.643   2.626  0.2507 -0.3072  0.1430
  796SOL    HW1 2387   2.165   0.660   2.723 -1.7393  0.9945  0.6343
  796SOL    HW2 2388   2.096   0.553   2.608 -2.3384 -0.3365 -2.6736
  797SOL     OW 2389   2.793   2.262   2.901  0.7585 -0.0611  0.2412
  797SOL    HW1 2390   2.860   2.227   2.973  1.5558 -1.8874 -1.0305
  797SOL    HW2 2391   2.711   2.201   2.898  0.0321  1.8097  2.9983
  798SOL     OW 2392   0.202   0.557   1.778 -0.4574 -0.0319  0.0361
  798SOL    HW1 2393   0.260   0.496   1.842  1.9398 -1.5090  1.6151
  798SOL    HW2 2394   0.162   0.639   1.831  1.2913  1.4746  1.8486
  799SOL     OW 2395   0.824   0.219   1.854 -0.0071 -0.2176 -1.0574
  799SOL    HW1 2396   0.764   0.273   1.918 -1.3188  1.2081 -0.3133
  799SOL    HW2 2397   0.763   0.204   1.776  1.1309 -2.0021  1.1141
  800SOL     OW 2398   0.100   2.618   0.298 -0.1337 -0.4180 -0.0601
  800SOL    HW1 2399   0.093   2.605   0.192 -0.5796  0.0314 -2.6890
  800SOL    HW2 2400   0.093   2.521   0.342  0.3132 -0.5888  1.5196
  801SOL     OW 2401   1.737   1.844   1.075 -0.1197  0.1572 -0.5853
  801SOL    HW1 2402   1.692   1.912   1.016  0.8008  0.6567  1.9867
  801SOL    HW2 2403   1.769   1.886   1.163  1.0767  0.9759  2.4910
  802SOL     OW 2404   0.400   0.493   0.336  0.8119 -0.0676  0.2376
  802SOL    HW1 2405   0.374   0.570   0.392  1.7612  0.4339  0.6115
  802SOL    HW2 2406   0.458   0.526   0.261 -1.3281 -0.4482 -0.3477
  803SOL     OW 2407   1.172   1.218   2.077  0.3638 -0.2287 -0.0726
  803SOL    HW1 2408   1.182   1.262   2.166  2.0914 -1.2370 -0.2052
  803SOL    HW2 2409   1.167   1.115   2.083  2.0584 -3.5820  0.8333
  804SOL     OW 2410   1.837   2.130   0.835  0.0218 -0.0276 -0.4662
  804SOL    HW1 2411   1.893   2.134   0.923 -1.1202 -1.4293 -0.1892
  804SOL    HW2 2412   1.744   2.085   0.852  0.0328  0.7624 -1.8436
  805SOL     OW 2413   0.359   1.924   2.727  0.1110 -0.4388 -0.8750
  805SOL    HW1 2414   0.266   1.944   2.761  0.4277 -0.3126  0.5003
  805SOL    HW2 2415   0.382   1.978   2.641 -0.7695  2.5400  0.5296
  806SOL     OW 2416   0.700   2.348   0.452  0.0629 -0.0456 -0.4237
  806SOL    HW1 2417   0.735   2.404   0.534 -0.1223  1.8733 -0.6909
  806SOL    HW2 2418   0.774   2.344   0.385 -1.3511  2.7464 -0.0528
  807SOL     OW 2419   2.603   1.190   2.793  0.0868  0.0190 -0.2881
  807SOL    HW1 2420   2.680   1.216   2.850 -1.8782  1.5505 -3.9638
  807SOL    HW2 2421   2.513   1.193   2.838  0.9839  1.5393 -2.4061
  808SOL     OW 2422   1.440   2.299   1.089 -0.0119 -0.2065 -0.0557
  808SOL    HW1 2423   1.437   2.200   1.117 -1.1093 -2.7250 -2.1072
  808SOL    HW2 2424   1.439   2.354   1.169 -1.8444 -3.3526 -1.5457
  809SOL     OW 2425   0.081   0.666   0.618 -0.4171  0.0417  0.4312
  809SOL    HW1 2426   0.184   0.679   0.624 -0.4204 -2.7591  1.4165
  809SOL    HW2 2427   0.065   0.569   0.609  0.9969  1.4634 -0.6504
  810SOL     OW 2428   1.527   1.539   3.098  0.5639  0.1641  0.0263
  810SOL    HW1 2429   1.493   1.612   3.039  1.6365  0.9241  2.0399
  810SOL    HW2 2430   1.517   1.565   0.061 -2.8469  1.5797  2.6812
  811SOL     OW 2431   1.620   2.724   1.095  0.2506  0.0415 -0.0469
  811SOL    HW1 2432   1.693   2.768   1.152  0.3001 -1.6962 -1.9372
  811SOL    HW2 2433   1.564   2.799   1.051 -1.6900  0.4909  2.0244
  812SOL     OW 2434   1.492   2.934   0.958  0.5677 -0.0565 -0.0844
  812SOL    HW1 2435   1.554   2.933   0.877  0.4495  1.7080  1.1103
  812SOL    HW2 2436   1.392   2.923   0.941  0.8987  1.9516  0.5398
  813SOL     OW 2437   1.226   0.146   1.882 -0.1110 -0.8966 -0.2339
  813SOL    HW1 2438   1.190   0.215   1.818  1.8404 -1.8440  0.6564
  813SOL    HW2 2439   1.308   0.178   1.937 -2.3212  0.5624  1.9962
  814SOL     OW 2440   1.060   2.436   2.142 -0.6028 -0.3266  0.1168
  814SOL    HW1 2441   1.018   2.499   2.077  0.4026  0.1550 -2.3595
  814SOL    HW2 2442   1.018   2.433   2.233  1.3268  2.1804 -2.5691
  815SOL     OW 2443   0.290   0.041   2.797  0.0092 -0.0566  0.3466
  815SOL    HW1 2444   0.318   3.079   2.808  1.5345 -1.7045 -2.4421
  815SOL    HW2 2445   0.366   0.104   2.800 -1.6539 -1.2046 -0.8964
  816SOL     OW 2446   2.256   1.100   0.187 -0.1923 -0.1609  0.5728
  816SOL    HW1 2447   2.295   1.169   0.122  1.1971 -1.3087  1.9842
  816SOL    HW2 2448   2.302   1.008   0.182  1.1503  1.6315 -0.0846
  817SOL     OW 2449   2.826   2.397   2.470  0.0170  0.2762  0.0892
  817SOL    HW1 2450   2.746   2.441   2.517  0.3215 -0.9345  1.5306
  817SOL    HW2 2451   2.868   2.464   2.406 -1.1924  0.2925  3.1322
  818SOL     OW 2452   0.791   1.388   0.445 -0.2627 -0.0490 -0.1930
  818SOL    HW1 2453   0.706   1.354   0.488 -0.3910  3.3008 -0.6048
  818SOL    HW2 2454   0.855   1.311   0.422  3.0694  1.1152  1.7244
  819SOL     OW 2455   1.855   1.304   2.698  0.4175  0.0873 -0.3225
  819SOL    HW1 2456   1.883   1.248   2.615 -0.8854 -0.6292  1.2036
  819SOL    HW2 2457   1.781   1.251   2.742  1.0536  0.4705 -1.1881
  820SOL     OW 2458   0.524   1.152   0.324 -0.9373  0.1371  0.0970
  820SOL    HW1 2459   0.532   1.202   0.412 -1.9090  0.2660 -1.5651
  820SOL    HW2 2460   0.450   1.086   0.323  1.3273  1.7191  0.0231
  821SOL     OW 2461   0.528   3.000   0.990 -0.1117 -0.0103  0.1303
  821SOL    HW1 2462   0.609   2.988   1.052  0.4928 -2.5713  1.0720
  821SOL    HW2 2463   0.453   2.942   1.031  1.3351  2.3994  1.6073
  822SOL     OW 2464   2.190   2.292   2.936  0.2538  0.2768  0.1702
  822SOL    HW1 2465   2.276   2.291   2.990 -1.7934 -2.3584  0.2059
  822SOL    HW2 2466   2.128   2.369   2.961 -1.3680 -1.6120 -0.0838
  823SOL     OW 2467   1.066   0.450   2.675 -0.2113 -0.1864 -0.3167
  823SOL    HW1 2468   1.170   0.468   2.668  2.1216  1.4832 -0.4775
  823SOL    HW2 2469   1.029   0.496   2.756  1.6882  1.4410 -1.5383
  824SOL     OW 2470   2.430   2.651   1.561 -0.0372 -0.3987  0.3312
  824SOL    HW1 2471   2.493   2.644   1.640 -3.1046 -1.0552 -3.4431
  824SOL    HW2 2472   2.441   2.743   1.515  0.2354  0.2856  0.5946
  825SOL     OW 2473   0.408   2.063   2.493 -0.3628  0.1802 -0.2837
  825SOL    HW1 2474   0.446   2.006   2.420 -1.3963  0.5172 -0.3993
  825SOL    HW2 2475   0.422   2.163   2.480 -0.8111 -0.5213 -0.7529
  826SOL     OW 2476   1.366   0.345   0.068 -0.4877 -0.0331  0.6361
  826SOL    HW1 2477   1.442   0.408   0.098  0.2466  0.4199 -1.9416
  826SOL    HW2 2478   1.347   0.276   0.144 -1.5768 -0.9857 -1.4655
  827SOL     OW 2479   0.137   1.807   1.951  0.0627  0.7776  0.7916
  827SOL    HW1 2480   0.121   1.719   1.899 -1.4229 -0.7046 -3.0227
  827SOL    HW2 2481   0.107   1.888   1.900 -1.1001 -1.0525  0.4643
  828SOL     OW 2482   0.086   0.025   1.396 -0.0859  0.0670 -0.1786
  828SOL    HW1 2483   0.068   0.117   1.432  0.2601 -0.8042 -3.7742
  828SOL    HW2 2484   0.073   3.089   1.464  1.4548  0.7891 -1.2043
  829SOL     OW 2485   0.986   1.863   2.384  0.2738  0.2836  0.0814
  829SOL    HW1 2486   0.979   1.959   2.349  0.9941  0.7540  3.8978
  829SOL    HW2 2487   0.937   1.855   2.473  0.2400 -1.0308 -1.3851
  830SOL     OW 2488   0.751   0.823   1.493 -0.3722  0.2540 -0.0905
  830SOL    HW1 2489   0.794   0.758   1.423  0.7865 -0.3736 -1.4304
  830SOL    HW2 2490   0.674   0.778   1.540 -1.2863 -1.4698 -0.1746
  831SOL     OW 2491   2.862   1.820   0.102 -0.0622  0.1508  0.0007
  831SOL    HW1 2492   2.836   1.724   0.076  0.6392 -1.3806 -0.8295
  831SOL    HW2 2493   2.818   1.849   0.188 -3.1469 -2.2087 -0.4291
  832SOL     OW 2494   1.312   2.335   2.821  0.3297  0.2291 -0.3740
  832SOL    HW1 2495   1.210   2.338   2.809  1.2827  1.7146 -0.8035
  832SOL    HW2 2496   1.345   2.244   2.784  0.8344 -0.1963  1.2868
  833SOL     OW 2497   0.388   0.400   1.970 -0.2002 -0.5314 -0.1772
  833SOL    HW1 2498   0.477   0.432   1.938  2.3009  0.1518 -0.4344
  833SOL    HW2 2499   0.377   0.300   1.946  0.5535 -2.6736 -1.9510
  834SOL     OW 2500   0.191   0.829   1.238 -0.3489  0.1560  0.1286
  834SOL    HW1 2501   0.258   0.849   1.312 -1.9413 -1.5433 -0.8829
  834SOL    HW2 2502   0.199   0.894   1.159 -0.2227  0.1408 -2.8398
  835SOL     OW 2503   2.498   0.358   0.315  0.2316  0.0293  0.4709
  835SOL    HW1 2504   2.499   0.352   0.214 -0.4566 -0.3919  1.1057
  835SOL    HW2 2505   2.435   0.432   0.348 -1.3798  0.4382 -1.2525
  836SOL     OW 2506   0.850   1.996   0.478  0.2918 -0.1030 -0.5547
  836SOL    HW1 2507   0.900   1.911   0.502  0.8920 -0.9317 -2.9424
  836SOL    HW2 2508   0.882   2.078   0.539  2.6011  1.0843  3.1643
  837SOL     OW 2509   1.684   1.879   0.451  0.3140  0.4332  0.2165
  837SOL    HW1 2510   1.654   1.864   0.353  0.0305  1.1738  0.8283
  837SOL    HW2 2511   1.638   1.802   0.499 -0.8908  4.5664 -0.4880
  838SOL     OW 2512   2.066   1.121   2.037 -0.6176 -0.0875  0.0823
  838SOL    HW1 2513   2.148   1.075   2.006 -2.3294  2.1247  0.0967
  838SOL    HW2 2514   2.016   1.159   1.959  0.8306 -0.0859  0.5427
  839SOL     OW 2515   1.193   1.314   2.570  0.2367 -0.0006  0.3420
  839SOL    HW1 2516   1.146   1.314   2.479 -0.2691 -0.5603 -1.8066
  839SOL    HW2 2517   1.253   1.393   2.572 -1.5154 -1.3359 -1.6979
  840SOL     OW 2518   0.960   1.324   0.116  0.1343  0.1758 -0.0056
  840SOL    HW1 2519   1.021   1.276   0.179  1.0923  1.4501 -1.6441
  840SOL    HW2 2520   0.865   1.291   0.123  1.9029  0.3663 -0.3565
  841SOL     OW 2521   1.500   2.238   3.130  0.1347  0.2483  0.0710
  841SOL    HW1 2522   1.518   2.261   0.094 -0.5953 -2.5188  0.1978
  841SOL    HW2 2523   1.466   2.321   3.078 -0.9921 -0.0828 -1.0332
  842SOL     OW 2524   0.020   0.457   0.288 -0.4270 -0.2292  0.3261
  842SOL    HW1 2525   0.089   0.386   0.309 -0.5330  0.3970  0.1293
  842SOL    HW2 2526   0.054   0.523   0.220  1.2276  2.0269  0.3049
  843SOL     OW 2527   0.481   0.521   0.820  0.3429  0.5990 -0.1049
  843SOL    HW1 2528   0.585   0.525   0.828  0.0815  0.3761 -0.2104
  843SOL    HW2 2529   0.439   0.442   0.882 -2.9591 -2.9498  0.4042
  844SOL     OW 2530   2.305   2.564   2.641  0.4140 -0.4926  0.0491
  844SOL    HW1 2531   2.259   2.578   2.553 -0.5037  0.5427 -3.0340
  844SOL    HW2 2532   2.262   2.633   2.709 -5.1839  1.3327 -0.1076
  845SOL     OW 2533   0.048   2.518   1.935  0.0397  0.4975  0.2263
  845SOL    HW1 2534   0.091   2.613   1.931  1.1899  1.2983  1.8373
  845SOL    HW2 2535   3.109   2.510   1.869  0.1295 -0.0502  0.5037
  846SOL     OW 2536   1.996   1.423   2.409  0.3223  0.6088 -0.1179
  846SOL    HW1 2537   1.979   1.511   2.464  2.7823  0.4002  0.6151
  846SOL    HW2 2538   1.923   1.354   2.419  2.3518  0.9765 -0.0887
  847SOL     OW 2539   2.784   0.495   2.064 -0.1341  0.3887 -0.2021
  847SOL    HW1 2540   2.827   0.584   2.069 -0.2662 -0.9327 -0.5849
  847SOL    HW2 2541   2.848   0.426   2.019 -0.1690  0.9972 -1.1987
  848SOL     OW 2542   2.552   2.804   3.057 -0.0655  0.2805  0.0548
  848SOL    HW1 2543   2.610   2.846   3.129 -3.4484 -1.2107 -1.1192
  848SOL    HW2 2544   2.529   2.705   3.068  0.6583  0.7847 -0.8322
  849SOL     OW 2545   0.265   2.807   0.708 -1.1337  0.2061 -0.5660
  849SOL    HW1 2546   0.299   2.881   0.761 -0.5704 -0.4773 -1.8315
  849SOL    HW2 2547   0.176   2.833   0.666  0.3233 -2.4967  0.6197
  850SOL     OW 2548   0.851   2.314   0.190 -0.5250 -0.3331 -0.0095
  850SOL    HW1 2549   0.953   2.325   0.163  2.7760  1.0232  0.0785
  850SOL    HW2 2550   0.833   2.213   0.202  2.5753  2.0468  0.5349
  851SOL     OW 2551   1.784   0.487   2.718  0.7964 -0.4905 -0.2725
  851SOL    HW1 2552   1.760   0.588   2.716 -0.1707 -0.3272 -0.4950
  851SOL    HW2 2553   1.884   0.466   2.711 -0.7512  0.9514 -0.7328
  852SOL     OW 2554   1.674   2.727   2.730  0.3690  0.4348 -0.4528
  852SOL    HW1 2555   1.763   2.683   2.719 -0.6906  0.9847 -0.2053
  852SOL    HW2 2556   1.684   2.830   2.712 -1.1762  2.0032 -1.2813
  853SOL     OW 2557   0.032   2.554   0.060  0.2534  0.0945  0.2208
  853SOL    HW1 2558   0.102   2.550   3.123  1.1667 -0.1286 -0.6520
  853SOL    HW2 2559   3.077   2.528   0.028  2.2944 -3.4405  0.4664
  854SOL     OW 2560   1.486   0.662   2.464 -0.1450 -0.5039 -0.1392
  854SOL    HW1 2561   1.405   0.637   2.406  0.0333 -0.0186 -1.0057
  854SOL    HW2 2562   1.566   0.682   2.407 -0.7810  1.2420 -0.4045
  855SOL     OW 2563   0.420   2.797   0.478 -0.0898 -0.2670  0.0939
  855SOL    HW1 2564   0.449   2.705   0.431  2.8761 -2.0509 -0.3182
  855SOL    HW2 2565   0.357   2.772   0.551  1.7934 -0.5375 -0.3977
  856SOL     OW 2566   0.090   2.819   2.520 -0.2493  0.6256 -0.4048
  856SOL    HW1 2567   0.167   2.793   2.463  1.0373  0.7751  2.9252
  856SOL    HW2 2568   0.078   2.746   2.596 -0.6386  1.0689 -0.6309
  857SOL     OW 2569   1.276   3.086   1.556  0.3540 -0.2777 -0.5344
  857SOL    HW1 2570   1.324   3.130   1.477 -1.4187 -1.3047 -0.3450
  857SOL    HW2 2571   1.308   2.991   1.574 -2.4853  0.5728  0.4854
  858SOL     OW 2572   0.069   2.163   1.579  0.5681  0.0715  0.1170
  858SOL    HW1 2573   0.143   2.227   1.611  3.6182 -1.2528 -0.5517
  858SOL    HW2 2574   0.098   2.108   1.499  0.4504  1.4917 -1.2956
  859SOL     OW 2575   2.179   2.454   2.053  0.5800 -0.2871  0.4473
  859SOL    HW1 2576   2.098   2.451   1.987  0.5516 -1.4762 -0.1009
  859SOL    HW2 2577   2.239   2.372   2.042 -1.2792 -2.6903 -0.0176
  860SOL     OW 2578   1.347   0.242   0.541 -0.4453  0.1972 -0.2142
  860SOL    HW1 2579   1.406   0.192   0.607  0.0682 -0.8334  0.6361
  860SOL    HW2 2580   1.256   0.253   0.580  0.1279 -0.5453  0.2260
  861SOL     OW 2581   2.779   0.637   0.909  0.6210 -0.1106 -0.2454
  861SOL    HW1 2582   2.772   0.548   0.956  1.7800  2.1988  1.1588
  861SOL    HW2 2583   2.858   0.689   0.942 -0.1898 -1.9642 -1.0391
  862SOL     OW 2584   1.885   0.725   2.049 -0.5362 -0.1139 -0.1070
  862SOL    HW1 2585   1.904   0.645   2.116 -0.1877 -0.8038  3.7689
  862SOL    HW2 2586   1.965   0.755   1.996 -1.5907  0.2920 -0.5476
  863SOL     OW 2587   0.745   0.572   0.856 -0.0150  0.4295 -0.0950
  863SOL    HW1 2588   0.760   0.667   0.878 -0.4489 -4.1070 -1.7416
  863SOL    HW2 2589   0.760   0.519   0.942 -0.9926  0.2595  1.6135
  864SOL     OW 2590   2.975   2.913   2.243 -0.3631  0.0996 -0.1544
  864SOL    HW1 2591   2.916   2.889   2.162  1.3485  1.1444 -2.0208
  864SOL    HW2 2592   2.924   2.909   2.332  0.3623 -0.4220 -0.4006
  865SOL     OW 2593   1.177   0.964   2.459  0.7653 -1.2058 -0.7640
  865SOL    HW1 2594   1.114   0.886   2.442 -1.2556  3.3494 -0.7757
  865SOL    HW2 2595   1.186   0.985   2.560 -0.4047  0.6856  2.3710
  866SOL     OW 2596   2.897   2.931   0.288 -0.1608 -0.5118  0.2852
  866SOL    HW1 2597   2.892   2.990   0.369  1.6728  1.2617 -0.9057
  866SOL    HW2 2598   2.991   2.893   0.284 -1.4327  2.0526 -0.7485
  867SOL     OW 2599   2.883   2.840   3.094 -0.0482  0.7301 -0.1522
  867SOL    HW1 2600   2.827   2.842   0.046 -0.6649 -2.1613 -0.0178
  867SOL    HW2 2601   2.862   2.923   3.039 -0.2234 -3.6305  0.6103
  868SOL     OW 2602   1.619   1.122   3.070 -0.3514  0.7398 -0.0399
  868SOL    HW1 2603   1.698   1.188   3.079 -0.4802  1.2718  0.3072
  868SOL    HW2 2604   1.525   1.161   3.090 -2.6485 -1.0746 -0.9339
  869SOL     OW 2605   0.012   2.083   0.634 -0.6476  0.3655  0.9021
  869SOL    HW1 2606   3.070   2.140   0.666 -1.1808  1.1121  0.2844
  869SOL    HW2 2607   0.099   2.128   0.657 -0.1888 -0.4782  1.1715
  870SOL     OW 2608   2.238   2.108   0.640 -0.3108  0.3699  0.0669
  870SOL    HW1 2609   2.247   2.011   0.660  1.0294  0.8661  0.3391
  870SOL    HW2 2610   2.232   2.125   0.541 -0.1333  0.9235  0.3461
  871SOL     OW 2611   0.743   1.190   1.138  0.4800  0.4409  0.4815
  871SOL    HW1 2612   0.750   1.146   1.045 -1.5724 -0.9505 -2.6042
  871SOL    HW2 2613   0.828   1.177   1.193  2.2814  1.8494 -0.6837
  872SOL     OW 2614   1.362   1.749   1.820 -0.4934  0.1871 -0.0308
  872SOL    HW1 2615   1.277   1.803   1.849  2.3335 -0.6722 -3.3349
  872SOL    HW2 2616   1.432   1.815   1.797 -2.2141 -2.2785  0.1965
  873SOL     OW 2617   0.654   2.257   2.073 -0.1680  0.0961 -1.0164
  873SOL    HW1 2618   0.679   2.252   2.174  0.4219  0.7276  2.4782
  873SOL    HW2 2619   0.606   2.342   2.054 -0.9363 -0.1668  0.3340
  874SOL     OW 2620   0.805   3.052   1.147 -0.4686  0.2381 -0.5005
  874SOL    HW1 2621   0.770   3.072   1.241  2.9497 -0.9106 -1.6830
  874SOL    HW2 2622   0.906   3.058   1.152 -2.5986  1.2518 -0.0572
  875SOL     OW 2623   2.906   0.287   1.362  0.4117  0.1673 -0.1751
  875SOL    HW1 2624   2.931   0.362   1.294  2.3664  1.2245  0.9843
  875SOL    HW2 2625   2.993   0.262   1.410  1.0511 -1.3206  3.4210
  876SOL     OW 2626   0.453   0.725   0.180  0.0956 -0.0576 -0.3335
  876SOL    HW1 2627   0.438   0.811   0.232 -0.2419 -0.7763  1.1799
  876SOL    HW2 2628   0.539   0.731   0.126 -0.6084 -0.2760 -2.2975
  877SOL     OW 2629   0.443   0.388   1.477 -1.2401  0.1904  0.1225
  877SOL    HW1 2630   0.346   0.393   1.511  1.0964 -0.2233  1.5063
  877SOL    HW2 2631   0.495   0.471   1.509 -1.7151 -1.8476  0.3652
  878SOL     OW 2632   2.564   2.544   0.410  0.1147  0.0876  0.2051
  878SOL    HW1 2633   2.533   2.635   0.440  2.5056  0.2931 -2.5802
  878SOL    HW2 2634   2.556   2.478   0.487 -1.9267  0.3429 -2.3160
  879SOL     OW 2635   2.538   1.405   1.368 -0.0419 -0.6541 -0.0113
  879SOL    HW1 2636   2.549   1.372   1.460 -1.9196  0.4196 -3.0682
  879SOL    HW2 2637   2.459   1.467   1.351  0.9038 -0.9776 -0.6249
  880SOL     OW 2638   1.622   2.857   0.713  0.1458 -0.3528 -0.5102
  880SOL    HW1 2639   1.720   2.836   0.705 -2.3029  0.9104 -0.3505
  880SOL    HW2 2640   1.566   2.802   0.645  0.6298 -0.8773  0.5313
  881SOL     OW 2641   1.070   2.092   3.136  0.2980  0.3347 -0.3870
  881SOL    HW1 2642   1.087   2.187   0.028  2.5352 -2.2288  0.4757
  881SOL    HW2 2643   1.118   2.031   0.065  0.4496  1.0664 -1.3916
  882SOL     OW 2644   1.794   0.785   1.234 -0.5619  0.3013  0.2014
  882SOL    HW1 2645   1.858   0.713   1.258 -1.6217  0.2814 -1.2907
  882SOL    HW2 2646   1.724   0.792   1.309  2.0754  0.2122  2.4979
  883SOL     OW 2647   1.623   0.496   1.715 -0.1910 -0.2245  0.3468
  883SOL    HW1 2648   1.709   0.497   1.654  0.2622  0.4656  3.1065
  883SOL    HW2 2649   1.589   0.402   1.711  0.9982  0.5722 -1.6277
  884SOL     OW 2650   2.759   0.617   0.258  0.4248  0.9138 -0.0674
  884SOL    HW1 2651   2.690   0.610   0.338 -2.7681  1.0001  2.5507
  884SOL    HW2 2652   2.835   0.678   0.289 -1.3114  1.0390  1.7572
  885SOL     OW 2653   1.399   1.729   2.964 -0.1176 -0.0846  0.1235
  885SOL    HW1 2654   1.303   1.706   2.986 -1.2049 -0.9879  0.5092
  885SOL    HW2 2655   1.405   1.763   2.868  0.7025 -0.9984  2.1982
  886SOL     OW 2656   1.848   1.573   2.691  0.6864 -0.6107  0.2895
  886SOL    HW1 2657   1.841   1.612   2.789 -1.3966 -0.5536 -0.3325
  886SOL    HW2 2658   1.865   1.469   2.695  0.2161 -0.0267  1.9465
  887SOL     OW 2659   1.600   0.294   1.511  0.2059  0.2437 -0.5463
  887SOL    HW1 2660   1.519   0.254   1.466 -0.4797  1.5656 -0.8146
  887SOL    HW2 2661   1.618   0.247   1.601  1.6679 -2.0045 -0.4791
  888SOL     OW 2662   2.543   0.632   2.002 -0.0756 -0.0819  0.4554
  888SOL    HW1 2663   2.632   0.590   2.021  0.1483  0.6922 -1.0211
  888SOL    HW2 2664   2.558   0.727   1.961 -1.8057 -1.2209 -2.1551
  889SOL     OW 2665   0.207   2.649   0.964  0.6659 -0.5439  0.1580
  889SOL    HW1 2666   0.157   2.556   0.961 -2.7679 -1.1518 -2.7511
  889SOL    HW2 2667   0.239   2.678   0.871 -0.3633  0.1352  0.3865
  890SOL     OW 2668   2.338   2.389   0.244 -1.0691  0.0436 -0.5948
  890SOL    HW1 2669   2.315   2.414   0.148  1.4655 -0.5266  0.2449
  890SOL    HW2 2670   2.401   2.465   0.281  2.9522  2.9644  0.3618
  891SOL     OW 2671   0.739   1.270   2.909 -0.0562  0.4960  0.2746
  891SOL    HW1 2672   0.830   1.269   2.865 -1.4469 -0.5570 -2.7294
  891SOL    HW2 2673   0.671   1.218   2.857  3.3300  2.2421 -0.6894
  892SOL     OW 2674   3.118   3.021   1.114  0.5708  0.0457 -0.0538
  892SOL    HW1 2675   0.010   3.073   1.194  0.7945 -1.7907 -0.2222
  892SOL    HW2 2676   3.021   3.034   1.095  0.5226  1.4833 -0.8647
  893SOL     OW 2677   1.168   0.358   1.292  0.0836 -0.0746  0.7214
  893SOL    HW1 2678   1.113   0.438   1.323  2.5539 -1.0413  1.5863
  893SOL    HW2 2679   1.111   0.279   1.306  1.0022  1.3276 -1.1506
  894SOL     OW 2680   2.401   0.531   0.915  0.4530  0.1791 -0.2663
  894SOL    HW1 2681   2.373   0.592   0.998 -0.9968  0.3686 -0.3749
  894SOL    HW2 2682   2.437   0.590   0.838  1.1761 -0.0979 -3.7343
  895SOL     OW 2683   1.999   2.041   2.245 -0.0755 -0.1842 -0.4761
  895SOL    HW1 2684   2.058   2.124   2.259  0.6671  0.5069  0.7726
  895SOL    HW2 2685   2.057   1.962   2.233  0.9529 -0.8350 -0.4801
  896SOL     OW 2686   1.479   0.274   1.969  0.3178  0.0641  0.2837
  896SOL    HW1 2687   1.524   0.359   1.998  1.0414  1.5072  2.7435
  896SOL    HW2 2688   1.527   0.235   1.886  0.7284  0.5178 -0.3670
  897SOL     OW 2689   0.651   1.563   1.977 -0.1372 -0.3370  0.3216
  897SOL    HW1 2690   0.687   1.591   2.073  0.5784 -0.1291  2.4327
  897SOL    HW2 2691   0.715   1.570   1.901 -0.0944 -0.3379  5.2265
  898SOL     OW 2692   2.480   2.876   1.990 -0.0879 -0.0292 -0.2959
  898SOL    HW1 2693   2.454   2.973   1.993  0.4901 -1.8483  1.0521
  898SOL    HW2 2694   2.392   2.822   1.971 -0.5522 -0.4705  0.0812
  899SOL     OW 2695   1.077   0.929   1.125 -0.1127  0.0347 -0.5988
  899SOL    HW1 2696   1.087   1.030   1.144 -2.6474  1.1704  2.4811
  899SOL    HW2 2697   1.032   0.914   1.036  0.9546  1.7392  2.2082
  900SOL     OW 2698   1.866   2.393   2.937 -0.2419  0.2551  0.5087
  900SOL    HW1 2699   1.798   2.318   2.951  0.2865 -2.4559  0.2379
  900SOL    HW2 2700   1.880   2.400   2.835 -0.2672 -1.1503 -0.6079
  901SOL     OW 2701   0.691   2.008   2.588 -0.2810  0.0598  0.1432
  901SOL    HW1 2702   0.640   1.987   2.675  0.9267  0.0082 -0.9219
  901SOL    HW2 2703   0.741   1.922   2.559  0.2676 -1.0039 -0.2360
  902SOL     OW 2704   2.328   1.660   0.150  0.1534  0.3590 -0.0127
  902SOL    HW1 2705   2.388   1.673   0.069  0.9214  0.3370 -0.2792
  902SOL    HW2 2706   2.382   1.611   0.222 -1.0286  0.9111 -2.1623
  903SOL     OW 2707   2.087   0.723   0.328 -0.4818  0.1677 -0.5059
  903SOL    HW1 2708   2.118   0.809   0.362 -0.6258 -5.7154 -2.3258
  903SOL    HW2 2709   2.036   0.736   0.241  1.7405 -1.4159  0.4552
  904SOL     OW 2710   0.472   0.907   3.003 -0.5208  0.2605  0.1898
  904SOL    HW1 2711   0.540   0.856   3.056 -1.2445 -1.9228 -1.3236
  904SOL    HW2 2712   0.411   0.964   3.058  1.5445  0.8225 -3.2640
  905SOL     OW 2713   2.454   0.191   1.161  0.6909  0.7048  0.7823
  905SOL    HW1 2714   2.375   0.136   1.204 -2.8517 -0.4323  2.1119
  905SOL    HW2 2715   2.440   0.292   1.170 -0.0166  0.8529 -1.0855
  906SOL     OW 2716   2.854   2.184   1.078  0.0880  0.6520 -0.6739
  906SOL    HW1 2717   2.758   2.145   1.065 -1.0441 -0.0195 -1.7956
  906SOL    HW2 2718   2.875   2.263   1.022 -1.0500 -0.0555  0.8845
  907SOL     OW 2719   1.310   0.670   0.678 -0.1181  0.2458  0.1839
  907SOL    HW1 2720   1.360   0.673   0.592 -2.6190  0.3371  1.9668
  907SOL    HW2 2721   1.220   0.716   0.663  1.5225 -1.4333 -3.1161
  908SOL     OW 2722   2.000   2.938   1.396 -0.2015  0.0820  0.4676
  908SOL    HW1 2723   1.953   2.920   1.485 -3.1301  0.8760 -1.5841
  908SOL    HW2 2724   1.985   3.036   1.377  2.6750  1.7434  2.7708
  909SOL     OW 2725   2.591   0.880   1.601  0.5942 -0.2914  0.6842
  909SOL    HW1 2726   2.669   0.841   1.553  1.1938 -1.8780 -3.6298
  909SOL    HW2 2727   2.597   0.981   1.607  0.4983  0.1334  0.3632
  910SOL     OW 2728   1.567   2.733   2.306 -0.3043  0.3077  0.0511
  910SOL    HW1 2729   1.489   2.670   2.289 -1.0069  0.2379  1.8499
  910SOL    HW2 2730   1.568   2.810   2.241 -2.4370  1.6052 -0.1322
  911SOL     OW 2731   2.109   0.435   2.154  0.6629 -0.3038 -0.2541
  911SOL    HW1 2732   2.012   0.461   2.187  0.2187  0.5287 -0.5873
  911SOL    HW2 2733   2.176   0.509   2.157 -2.2291 -0.0225 -0.0916
  912SOL     OW 2734   2.768   1.522   1.547 -0.2079  0.4746 -0.1386
  912SOL    HW1 2735   2.869   1.520   1.545  2.5780  0.3273  1.7087
  912SOL    HW2 2736   2.737   1.596   1.483 -1.4506 -2.3483  0.2724
  913SOL     OW 2737   2.757   1.770   1.393 -0.4991 -0.0194  0.1571
  913SOL    HW1 2738   2.682   1.839   1.390  0.7017  0.4370  0.7840
  913SOL    HW2 2739   2.841   1.813   1.430  1.4195  1.9989  1.0561
  914SOL     OW 2740   2.175   1.415   1.192 -0.2845  0.1458  0.5199
  914SOL    HW1 2741   2.211   1.504   1.170  2.3044 -4.3891 -0.6830
  914SOL    HW2 2742   2.116   1.415   1.277  0.2366  1.5625 -1.4729
  915SOL     OW 2743   1.015   1.275   1.364  0.1368  0.2450  0.0517
  915SOL    HW1 2744   0.973   1.223   1.440  0.3638 -0.3021 -1.3068
  915SOL    HW2 2745   1.057   1.363   1.395  0.0122 -0.3474 -1.2824
  916SOL     OW 2746   2.136   2.543   1.294 -0.2735  0.2343 -0.2689
  916SOL    HW1 2747   2.205   2.482   1.338 -0.5987 -1.3578 -0.9894
  916SOL    HW2 2748   2.169   2.640   1.294  0.5533 -0.1361 -0.3923
  917SOL     OW 2749   2.493   2.151   0.235  0.1023 -0.1171  0.0651
  917SOL    HW1 2750   2.426   2.084   0.198  0.1459  1.8392  1.2492
  917SOL    HW2 2751   2.459   2.244   0.240  1.8371 -2.2496  0.1551
  918SOL     OW 2752   1.930   2.628   2.681 -0.5896  0.0560 -0.2424
  918SOL    HW1 2753   1.922   2.529   2.674 -1.4640  1.1339 -1.5412
  918SOL    HW2 2754   2.012   2.666   2.731  0.4509  0.4539 -1.6012
  919SOL     OW 2755   1.499   2.013   1.776 -0.6574  0.4525 -0.1529
  919SOL    HW1 2756   1.585   1.991   1.826 -2.3227  2.1256  0.7500
  919SOL    HW2 2757   1.524   2.054   1.686  0.4524  2.9102  1.0732
  920SOL     OW 2758   2.803   0.275   2.769 -0.2651  0.0306  0.3242
  920SOL    HW1 2759   2.906   0.304   2.773  1.4084  0.5453 -0.0032
  920SOL    HW2 2760   2.752   0.357   2.740 -2.2696 -1.5263 -0.9484
  921SOL     OW 2761   2.683   0.357   2.266 -0.2212 -0.1399 -0.2178
  921SOL    HW1 2762   2.730   0.268   2.272 -2.2236  0.7877 -1.2427
  921SOL    HW2 2763   2.707   0.405   2.176  1.2997 -0.6745 -1.5207
  922SOL     OW 2764   2.223   2.141   0.368 -0.0414  0.2820  0.6458
  922SOL    HW1 2765   2.266   2.222   0.319  1.8382  3.2421 -0.0162
  922SOL    HW2 2766   2.239   2.048   0.324  1.0572 -3.7249  0.4757
  923SOL     OW 2767   0.482   2.150   0.300 -0.0603  0.2115  0.5288
  923SOL    HW1 2768   0.496   2.105   0.210  0.7922  0.9455  1.8566
  923SOL    HW2 2769   0.567   2.201   0.317 -4.5007  1.1312 -1.1130
  924SOL     OW 2770   0.720   0.337   0.074  0.6417  0.6614 -0.3485
  924SOL    HW1 2771   0.733   0.270   0.154  0.9785 -1.0681 -0.6802
  924SOL    HW2 2772   0.766   0.428   0.092  0.5575 -3.9120  1.2628
  925SOL     OW 2773   2.219   0.904   0.888 -0.0699 -0.0858 -1.0413
  925SOL    HW1 2774   2.269   0.892   0.800 -0.7473  1.7124  4.8665
  925SOL    HW2 2775   2.221   1.000   0.913  1.5603  1.4850 -0.7816
  926SOL     OW 2776   2.996   0.760   1.012  0.2840 -0.2407  0.5536
  926SOL    HW1 2777   2.995   0.825   1.094  0.7275 -2.2200 -0.4043
  926SOL    HW2 2778   3.076   0.694   1.001 -0.9304  0.9767 -1.1557
  927SOL     OW 2779   3.051   1.269   3.106  0.2552  0.0882  0.1048
  927SOL    HW1 2780   3.100   1.193   3.069 -2.4047  0.3032  0.8177
  927SOL    HW2 2781   3.094   1.359   3.085 -1.9079 -0.7278  1.2126
  928SOL     OW 2782   3.056   0.535   2.471  0.1190 -0.2033  0.1823
  928SOL    HW1 2783   0.005   0.582   2.450 -2.6052  2.2817  1.9754
  928SOL    HW2 2784   3.061   0.433   2.471  0.6532 -2.8904  0.9531
  929SOL     OW 2785   0.044   2.731   1.148  0.5237 -0.0277  0.4783
  929SOL    HW1 2786   0.059   2.830   1.136 -1.4205 -0.4682 -1.1128
  929SOL    HW2 2787   0.103   2.683   1.080 -1.8524  1.5062 -2.3333
  930SOL     OW 2788   2.094   1.745   1.675 -0.1858 -0.2412 -0.4336
  930SOL    HW1 2789   2.120   1.814   1.748  3.2213 -0.9272 -0.9226
  930SOL    HW2 2790   2.034   1.667   1.707 -2.3159 -0.6640  0.8815
  931SOL     OW 2791   1.403   1.742   0.721  0.0452  0.5693 -0.1256
  931SOL    HW1 2792   1.458   1.694   0.794 -3.1832 -1.4667  1.0836
  931SOL    HW2 2793   1.403   1.846   0.731 -0.8361  1.6240  0.1086
  932SOL     OW 2794   2.707   1.269   1.194  0.1133  0.6115 -0.1386
  932SOL    HW1 2795   2.685   1.171   1.208  2.2741 -4.6011 -2.4685
  932SOL    HW2 2796   2.632   1.328   1.230 -0.1001  1.4251  4.8343
  933SOL     OW 2797   2.378   1.602   1.303 -0.0514  0.0523  0.3201
  933SOL    HW1 2798   2.316   1.648   1.237 -2.3047  0.5910  0.7325
  933SOL    HW2 2799   2.348   1.617   1.401 -0.9915 -0.4359  1.5376
  934SOL     OW 2800   1.752   2.728   1.560  0.4536  0.4136  0.1358
  934SOL    HW1 2801   1.799   2.711   1.649  1.7803 -0.7649 -1.4871
  934SOL    HW2 2802   1.803   2.672   1.488 -0.3750 -3.1351  0.8314
  935SOL     OW 2803   0.164   1.481   0.734  0.4104  0.2530  0.8030
  935SOL    HW1 2804   0.111   1.438   0.809 -2.3058 -1.5847  0.2026
  935SOL    HW2 2805   0.239   1.539   0.760 -4.2098 -0.6606 -0.2275
  936SOL     OW 2806   0.039   1.313   0.570 -0.1187 -0.3227 -0.8127
  936SOL    HW1 2807   0.079   1.224   0.584 -2.3154  1.5781 -0.8064
  936SOL    HW2 2808   0.061   1.375   0.646 -0.0521 -1.6359 -1.1452
  937SOL     OW 2809   1.797   2.545   0.916 -0.5919  0.3597  0.0499
  937SOL    HW1 2810   1.719   2.590   0.961 -0.3848 -0.9258 -1.3494
  937SOL    HW2 2811   1.888   2.566   0.961 -0.9801  0.9149  1.2006
  938SOL     OW 2812   2.575   2.029   0.922  0.0812  0.2521  0.4356
  938SOL    HW1 2813   2.518   1.978   0.994 -0.4847 -0.6920 -0.4893
  938SOL    HW2 2814   2.550   2.128   0.925  1.2132 -1.7692 -1.4350
  939SOL     OW 2815   0.785   2.055   0.233 -0.2352 -0.6008  0.7659
  939SOL    HW1 2816   0.817   2.043   0.326 -2.2426 -2.1513 -2.7530
  939SOL    HW2 2817   0.754   1.965   0.206 -2.2683 -1.0387  0.8943
  940SOL     OW 2818   2.732   0.172   3.028  0.5263 -0.2607 -0.0867
  940SOL    HW1 2819   2.784   0.220   3.103  0.4429  0.4954  1.8727
  940SOL    HW2 2820   2.749   0.216   2.936 -0.6355  2.1363 -3.6431
  941SOL     OW 2821   1.134   0.348   3.013  0.3744 -0.3534  0.2429
  941SOL    HW1 2822   1.175   0.254   3.004 -1.5178  2.1668 -1.3167
  941SOL    HW2 2823   1.204   0.417   2.997  0.3610 -1.3026 -1.9067
  942SOL     OW 2824   1.070   1.389   1.640  0.0026 -0.0976 -0.2962
  942SOL    HW1 2825   0.999   1.316   1.639  0.4772 -0.5579 -1.1871
  942SOL    HW2 2826   1.031   1.480   1.667  0.2364 -2.3853  0.8386
  943SOL     OW 2827   1.908   1.145   1.423  0.0259  0.1981 -0.5055
  943SOL    HW1 2828   1.825   1.093   1.460  0.6782 -2.0273  2.9232
  943SOL    HW2 2829   1.961   1.081   1.364  1.0715  1.2580 -0.6692
  944SOL     OW 2830   1.848   0.542   1.567  0.0031 -0.0107  0.1221
  944SOL    HW1 2831   1.882   0.541   1.472  0.6289 -1.4490  1.9118
  944SOL    HW2 2832   1.902   0.479   1.626  0.4479 -0.4065 -0.9803
  945SOL     OW 2833   2.991   0.013   0.746 -0.3931 -0.4798  0.7372
  945SOL    HW1 2834   2.923   0.083   0.785  0.0362 -0.5354  1.6072
  945SOL    HW2 2835   3.066   0.001   0.818  1.5191 -0.2410  0.6796
  946SOL     OW 2836   0.574   0.591   1.597 -0.2517 -0.2278  0.3342
  946SOL    HW1 2837   0.585   0.569   1.694 -1.6850  1.5500  1.0835
  946SOL    HW2 2838   0.492   0.652   1.591 -0.6845  0.7581 -1.6983
  947SOL     OW 2839   0.547   3.045   0.505  0.0047  0.1566  0.1293
  947SOL    HW1 2840   0.497   2.956   0.502 -0.1281  0.9555 -0.6417
  947SOL    HW2 2841   0.493   3.128   0.525  1.3714  1.1800  1.8488
  948SOL     OW 2842   2.811   1.269   1.732  0.6133 -0.1268  0.1835
  948SOL    HW1 2843   2.774   1.334   1.664 -1.2724  0.3002  0.9905
  948SOL    HW2 2844   2.905   1.245   1.709 -3.3088  0.2157 -1.9950
  949SOL     OW 2845   0.585   1.062   2.796 -0.0845 -0.0576 -0.9826
  949SOL    HW1 2846   0.551   1.000   2.870  0.2119 -0.8555 -0.0132
  949SOL    HW2 2847   0.664   1.021   2.746 -1.0596 -0.8975 -0.7718
  950SOL     OW 2848   0.968   0.811   0.887  0.5277  0.2247  0.0852
  950SOL    HW1 2849   0.980   0.725   0.931 -1.6355  0.6488  0.3870
  950SOL    HW2 2850   1.014   0.818   0.797 -1.8620  1.6577  0.3048
  951SOL     OW 2851   0.988   2.126   2.220 -0.6404 -0.1768  0.6727
  951SOL    HW1 2852   1.074   2.159   2.178  0.0041 -0.2947  0.9718
  951SOL    HW2 2853   0.921   2.200   2.239 -1.6199 -1.5782  2.1701
  952SOL     OW 2854   0.753   1.801   0.136  0.5755  0.4818  0.0252
  952SOL    HW1 2855   0.792   1.734   0.197 -1.5426  1.1345 -1.3572
  952SOL    HW2 2856   0.654   1.783   0.120 -2.1603 -0.1915  0.5179
  953SOL     OW 2857   2.141   2.881   2.303  0.3290 -0.0292 -0.0248
  953SOL    HW1 2858   2.133   2.973   2.256  0.0001  1.5765 -0.6044
  953SOL    HW2 2859   2.067   2.819   2.265 -0.2589  0.7142  1.2285
  954SOL     OW 2860   1.618   1.252   0.709  0.7416  0.1122  0.3683
  954SOL    HW1 2861   1.676   1.305   0.639  0.6440 -0.2958  1.2674
  954SOL    HW2 2862   1.518   1.271   0.712 -0.2528  1.2230  2.4445
  955SOL     OW 2863   0.495   2.341   2.508 -0.3730 -0.1995 -0.6794
  955SOL    HW1 2864   0.437   2.388   2.442  1.1945  0.2237  1.5436
  955SOL    HW2 2865   0.549   2.416   2.558  0.1296  3.6803 -2.3509
  956SOL     OW 2866   1.880   0.242   1.497  0.2638  0.3324 -0.6147
  956SOL    HW1 2867   1.934   0.262   1.579 -1.9870  0.0029 -1.4846
  956SOL    HW2 2868   1.785   0.275   1.501  0.5127  3.2956 -2.3551
  957SOL     OW 2869   1.857   2.080   2.718 -0.5060 -0.3047  0.3227
  957SOL    HW1 2870   1.890   2.042   2.632 -0.8645  2.4205  2.1548
  957SOL    HW2 2871   1.779   2.028   2.751  1.1434  2.2927 -0.6141
  958SOL     OW 2872   1.085   2.459   1.283 -0.2833  0.1563 -0.2553
  958SOL    HW1 2873   1.083   2.358   1.289 -0.6497 -0.0314 -0.9651
  958SOL    HW2 2874   1.104   2.486   1.186 -0.7345  0.0149  1.3088
  959SOL     OW 2875   1.933   2.444   0.065  0.3634  0.3471 -0.0660
  959SOL    HW1 2876   1.922   2.380   0.140 -2.1228  2.6349  1.8602
  959SOL    HW2 2877   1.890   2.407   3.119  1.0191  0.6591  1.8240
  960SOL     OW 2878   3.062   0.328   2.771  0.1414  0.4354  0.4537
  960SOL    HW1 2879   3.114   0.239   2.747 -0.3866 -5.7032  1.2683
  960SOL    HW2 2880   3.114   0.384   2.837  0.6095 -0.9606 -0.8203
  961SOL     OW 2881   0.810   1.034   2.632 -0.7636 -0.2322 -0.1028
  961SOL    HW1 2882   0.905   1.066   2.618  0.0085 -0.8763  0.0608
  961SOL    HW2 2883   0.803   0.932   2.635  1.5960 -1.7504 -1.7283
  962SOL     OW 2884   1.165   1.245   3.006  0.3171 -0.1774 -0.2514
  962SOL    HW1 2885   1.266   1.259   3.017  0.5378  3.2864  1.5411
  962SOL    HW2 2886   1.119   1.299   3.077 -1.0927 -0.9009 -1.3597
  963SOL     OW 2887   2.576   2.094   2.950  0.6751 -0.2731 -0.0278
  963SOL    HW1 2888   2.656   2.039   2.931 -1.7867 -0.3645 -0.2768
  963SOL    HW2 2889   2.504   2.073   2.876 -1.2115  1.5384 -2.2805
  964SOL     OW 2890   1.159   2.547   1.007 -0.0407  0.5258  0.0972
  964SOL    HW1 2891   1.229   2.540   0.939  0.0242 -1.1666 -0.9623
  964SOL    HW2 2892   1.095   2.622   0.980 -0.9492 -0.3494 -2.2022
  965SOL     OW 2893   0.979   1.659   0.972 -0.0582  0.8540  0.5678
  965SOL    HW1 2894   0.971   1.656   1.072  0.2176 -2.2427  0.4806
  965SOL    HW2 2895   1.053   1.600   0.939 -3.1984 -1.3946  1.0276
  966SOL     OW 2896   3.137   1.543   2.987  0.0828 -0.5846  0.1207
  966SOL    HW1 2897   0.071   1.610   2.960  1.0169  0.4343  1.2276
  966SOL    HW2 2898   3.109   1.575   3.080  1.2288  0.6337  1.4139
  967SOL     OW 2899   1.818   0.166   1.942 -0.2284  0.9024 -0.0825
  967SOL    HW1 2900   1.812   0.122   2.034 -0.8020  0.8608 -0.4821
  967SOL    HW2 2901   1.912   0.194   1.930 -4.3612 -1.6139  1.1990
  968SOL     OW 2902   1.721   0.773   0.754  0.1229  0.1218 -0.7453
  968SOL    HW1 2903   1.815   0.748   0.789 -0.9001 -0.5290  0.0178
  968SOL    HW2 2904   1.670   0.824   0.829  0.4650  1.0376 -0.3393
  969SOL     OW 2905   0.120   1.443   2.208 -0.4461  0.2834  0.2436
  969SOL    HW1 2906   0.166   1.436   2.119 -0.3365  2.7708  0.4129
  969SOL    HW2 2907   0.162   1.517   2.264  3.3983  1.7375  2.5295
  970SOL     OW 2908   2.503   1.383   0.917 -0.1689  0.0638 -0.2254
  970SOL    HW1 2909   2.463   1.345   1.005  1.5505 -0.7360 -0.8118
  970SOL    HW2 2910   2.426   1.397   0.859 -0.1538 -0.8858  3.2342
  971SOL     OW 2911   0.473   0.171   1.311  0.1913 -0.2796 -0.4376
  971SOL    HW1 2912   0.438   0.237   1.383  1.5768  0.5766 -1.7566
  971SOL    HW2 2913   0.416   0.085   1.322 -1.5805  2.0111  2.9596
  972SOL     OW 2914   0.536   0.715   2.740  0.2625 -0.4515 -0.1542
  972SOL    HW1 2915   0.537   0.782   2.822  1.2149  0.7504  1.0419
  972SOL    HW2 2916   0.629   0.716   2.703 -0.2406 -1.7129  0.0512
  973SOL     OW 2917   0.171   1.024   1.057  0.2433 -0.3230  0.4631
  973SOL    HW1 2918   0.109   1.090   1.099  0.8206  1.6131 -1.4988
  973SOL    HW2 2919   0.225   1.061   0.977  3.6889  2.2907 -0.0118
  974SOL     OW 2920   2.301   1.009   1.871 -0.2553 -0.2834  0.1969
  974SOL    HW1 2921   2.292   1.090   1.810 -1.0462  3.3225  2.0176
  974SOL    HW2 2922   2.398   0.983   1.877  1.6498 -0.4748  1.3478
  975SOL     OW 2923   2.398   3.000   0.200 -0.7172  0.1183  0.4640
  975SOL    HW1 2924   2.365   3.037   0.108 -0.8921  1.5661  2.1991
  975SOL    HW2 2925   2.393   2.896   0.201 -1.3178 -1.1937  1.8241
  976SOL     OW 2926   3.071   1.256   1.619  0.1620  0.2939  0.0706
  976SOL    HW1 2927   3.056   1.354   1.595  0.9763  1.7135  1.3565
  976SOL    HW2 2928   3.136   1.250   1.697 -1.8710 -1.1840  1.0666
  977SOL     OW 2929   1.047   2.899   0.013  0.4617  0.0710 -0.4108
  977SOL    HW1 2930   1.009   2.986   3.112  1.5285 -0.1606 -1.7815
  977SOL    HW2 2931   0.973   2.831   0.035  0.3646  0.8555  1.1572
  978SOL     OW 2932   0.371   1.630   0.311  0.2402  0.0304 -0.5827
  978SOL    HW1 2933   0.363   1.546   0.260  0.5849 -0.2991  1.2005
  978SOL    HW2 2934   0.392   1.616   0.412  1.3131  1.0257  1.1660
  979SOL     OW 2935   1.477   1.734   1.393  0.5982  0.1838 -0.4272
  979SOL    HW1 2936   1.519   1.821   1.371 -3.0626 -1.0612  2.0281
  979SOL    HW2 2937   1.546   1.662   1.377 -0.6789  0.1999  1.1026
  980SOL     OW 2938   0.444   1.397   1.907  0.3447 -0.4961 -0.0708
  980SOL    HW1 2939   0.511   1.470   1.936 -2.8366 -2.4041  0.3895
  980SOL    HW2 2940   0.465   1.358   1.814 -1.8001 -0.0088  2.2799
  981SOL     OW 2941   3.129   1.594   0.126 -0.4595 -0.3380  0.2580
  981SOL    HW1 2942   0.001   1.695   0.142 -0.0758 -0.0440 -1.9480
  981SOL    HW2 2943   0.031   1.540   0.206  1.3139  1.7040  2.5122
  982SOL     OW 2944   2.584   2.566   2.604  0.0485 -0.0224  0.1743
  982SOL    HW1 2945   2.487   2.547   2.618  0.4715  1.1369  0.0967
  982SOL    HW2 2946   2.597   2.668   2.593  2.9938  0.0016  1.0261
  983SOL     OW 2947   1.260   0.606   1.503  0.0223 -0.0152  0.6268
  983SOL    HW1 2948   1.343   0.581   1.454 -1.7198  3.1770  0.6450
  983SOL    HW2 2949   1.180   0.580   1.452  1.3640  0.4905 -0.0345
  984SOL     OW 2950   1.071   0.099   2.540 -0.3099  0.3485  0.1543
  984SOL    HW1 2951   1.163   0.136   2.546 -1.2222 -1.0227 -1.6247
  984SOL    HW2 2952   1.016   0.130   2.617  0.5217 -1.1607  0.1488
  985SOL     OW 2953   1.600   2.376   1.569 -0.3320  0.2027 -0.2729
  985SOL    HW1 2954   1.518   2.416   1.614 -1.8098 -1.7482 -0.3362
  985SOL    HW2 2955   1.649   2.450   1.514  2.0912  1.0237  0.2880
  986SOL     OW 2956   2.405   0.047   2.220  0.6354 -0.0724 -0.4758
  986SOL    HW1 2957   2.421   0.125   2.285  0.2296 -0.2934 -0.1597
  986SOL    HW2 2958   2.407   0.072   2.121 -0.7929 -2.0989  1.2977
  987SOL     OW 2959   2.442   0.293   2.364  0.0160  0.3588 -0.2212
  987SOL    HW1 2960   2.541   0.322   2.344 -2.9265  0.3036 -1.8207
  987SOL    HW2 2961   2.390   0.369   2.411 -1.1679 -1.1965 -2.0948
  988SOL     OW 2962   2.514   0.785   2.783 -0.1257  0.6361 -0.1551
  988SOL    HW1 2963   2.422   0.774   2.827  0.1419 -0.1383 -1.4411
  988SOL    HW2 2964   2.503   0.844   2.700 -2.2649  1.0296  0.2544
  989SOL     OW 2965   2.429   1.994   2.127 -0.3784 -0.4513  0.3948
  989SOL    HW1 2966   2.358   1.939   2.176 -0.1736  0.1599 -0.0267
  989SOL    HW2 2967   2.522   1.974   2.164  1.3930  0.5249 -0.4818
  990SOL     OW 2968   0.398   1.107   2.594  0.2832 -0.1330 -0.3424
  990SOL    HW1 2969   0.409   1.203   2.559  1.2520  0.0967 -0.5247
  990SOL    HW2 2970   0.456   1.094   2.676  0.6429 -0.4918  0.0216
  991SOL     OW 2971   0.814   1.750   2.864 -0.2323 -0.3989 -0.3341
  991SOL    HW1 2972   0.738   1.814   2.844  0.3919  1.5503 -1.6579
  991SOL    HW2 2973   0.855   1.774   2.955  0.3196 -3.2436 -0.0697
  992SOL     OW 2974   0.072   2.031   1.814 -0.2114  0.1061 -0.3266
  992SOL    HW1 2975   0.125   2.063   1.897  1.2650  0.8974  0.8933
  992SOL    HW2 2976   0.079   2.091   1.731  0.8282 -0.2592  2.0767
  993SOL     OW 2977   0.346   3.072   0.810 -0.6961 -0.4471  0.0077
  993SOL    HW1 2978   0.428   3.034   0.853 -0.3290 -0.5857 -1.3094
  993SOL    HW2 2979   0.367   0.015   0.753 -3.2475 -2.1249  1.8928
  994SOL     OW 2980   0.251   1.767   1.533 -0.4093  0.0612 -0.7092
  994SOL    HW1 2981   0.335   1.762   1.590 -1.2123 -1.0281  0.1837
  994SOL    HW2 2982   0.236   1.863   1.512 -0.2945 -2.0763 -0.4731
  995SOL     OW 2983   2.279   1.483   2.687 -0.5352 -0.0362  0.2761
  995SOL    HW1 2984   2.238   1.563   2.743 -3.7402  0.6092 -0.0021
  995SOL    HW2 2985   2.381   1.491   2.691 -0.4701  0.2104  1.9836
  996SOL     OW 2986   2.103   1.269   2.801 -0.8042 -0.1285  0.3371
  996SOL    HW1 2987   2.155   1.352   2.776 -0.7047 -0.1005  0.3572
  996SOL    HW2 2988   2.007   1.277   2.768  2.7347  0.7957  1.6828
  997SOL     OW 2989   1.896   0.805   1.670  0.1528 -0.0204 -0.4135
  997SOL    HW1 2990   1.875   0.705   1.645 -1.6544 -0.8647 -0.7858
  997SOL    HW2 2991   1.853   0.871   1.606  0.0308 -0.5458  1.2776
  998SOL     OW 2992   2.251   2.108   1.089 -0.0270 -0.4249  1.2105
  998SOL    HW1 2993   2.287   2.016   1.075  0.6134  1.0377  1.2670
  998SOL    HW2 2994   2.298   2.151   1.169  1.3018  2.5189  2.3128
  999SOL     OW 2995   2.458   2.324   0.663 -0.1573  0.2611 -0.3343
  999SOL    HW1 2996   2.453   2.352   0.760  1.3691  0.6255 -0.2965
  999SOL    HW2 2997   2.386   2.249   0.649 -2.4970 -1.7355  0.7501
 1000SOL     OW 2998   1.020   2.999   2.666 -0.5847 -0.6876 -0.0181
 1000SOL    HW1 2999   1.042   3.096   2.642  2.1015  0.0985  0.1330
 1000SOL    HW2 3000   1.100   2.942   2.698  0.2607 -1.5173  0.0728
   3.13710   3.13710   3.13710
