1000 SPC/Fw water molecules t=  56.00000 step= 56000
 3000
    1SOL     OW    1   2.055   2.636   0.825 -0.3781  0.3307  0.0695
    1SOL    HW1    2   1.993   2.628   0.745  1.5160 -1.0545  2.9865
    1SOL    HW2    3   2.094   2.727   0.833 -0.8026  1.3403 -0.8878
    2SOL     OW    4   1.073   1.000   2.544 -0.2972  0.2988  0.4328
    2SOL    HW1    5   0.997   1.056   2.510  2.4448 -1.6396  1.0871
    2SOL    HW2    6   1.135   1.059   2.601 -1.1569 -1.8037 -1.3884
    3SOL     OW    7   1.120   2.810   2.720  0.5764  0.5655 -0.6474
    3SOL    HW1    8   1.201   2.861   2.749 -0.1115 -1.5947 -2.5057
    3SOL    HW2    9   1.140   2.712   2.702  1.5344  3.2830 -0.7033
    4SOL     OW   10   1.351   1.568   2.915 -0.3846  0.1636  1.2262
    4SOL    HW1   11   1.398   1.495   2.965 -0.1026  0.7187 -1.1012
    4SOL    HW2   12   1.417   1.601   2.844  0.6201  0.0828 -0.0107
    5SOL     OW   13   0.936   0.793   1.899  0.1187 -0.0803  0.1758
    5SOL    HW1   14   0.995   0.721   1.928 -2.3517  1.1882  1.0199
    5SOL    HW2   15   0.833   0.768   1.914 -1.7302 -2.9138  0.5250
    6SOL     OW   16   1.962   0.687   2.425 -0.9440  0.0695  0.0543
    6SOL    HW1   17   1.994   0.617   2.358  1.4526  1.5537  2.1729
    6SOL    HW2   18   1.953   0.634   2.514 -0.9737 -2.9017  0.7343
    7SOL     OW   19   0.313   0.696   1.652 -0.0212 -0.9423  0.3083
    7SOL    HW1   20   0.305   0.631   1.573  1.0453 -0.0169 -1.6680
    7SOL    HW2   21   0.254   0.662   1.728  0.4667 -0.6882  1.7600
    8SOL     OW   22   1.971   3.004   1.925 -0.2663 -0.1926  0.5579
    8SOL    HW1   23   1.895   2.937   1.923  0.6646  1.7305  0.4460
    8SOL    HW2   24   1.927   0.020   1.926 -4.1519  2.7194 -0.3546
    9SOL     OW   25   0.262   3.059   0.502  0.2271  0.3698  0.0047
    9SOL    HW1   26   0.169   3.029   0.462 -0.4946  4.1399 -0.0784
    9SOL    HW2   27   0.343   3.052   0.438  1.2627  1.8005 -0.2558
   10SOL     OW   28   0.342   2.259   2.181  0.3341 -0.0828 -0.0116
   10SOL    HW1   29   0.384   2.291   2.271 -0.7274 -0.9156  3.5021
   10SOL    HW2   30   0.413   2.263   2.108  0.8900  1.2727  0.6452
   11SOL     OW   31   0.829   1.727   0.027 -0.1708 -0.3300 -0.1337
   11SOL    HW1   32   0.765   1.669   3.056  2.5148 -1.6789  1.4185
   11SOL    HW2   33   0.865   1.679   0.103 -0.5277  1.9362 -1.1135
   12SOL     OW   34   2.607   2.424   1.379 -0.2037  0.3920  0.3070
   12SOL    HW1   35   2.516   2.400   1.409  2.1432 -0.2885  0.8055
   12SOL    HW2   36   2.679   2.412   1.453  2.6113 -2.0597 -0.4561
   13SOL     OW   37   0.472   2.875   0.056  0.1308 -0.4196 -0.1702
   13SOL    HW1   38   0.435   2.921   0.139 -1.5707  0.4655  0.6406
   13SOL    HW2   39   0.533   2.799   0.085  1.8482  0.3288  1.8042
   14SOL     OW   40   1.383   1.681   1.376 -0.1343  0.0415  0.4440
   14SOL    HW1   41   1.335   1.669   1.468  0.8712 -2.9740 -1.0339
   14SOL    HW2   42   1.485   1.676   1.382  0.5367 -1.1439 -1.0854
   15SOL     OW   43   0.359   1.737   2.420 -0.6327  0.3758 -0.0658
   15SOL    HW1   44   0.455   1.705   2.421 -2.5161  1.5239 -0.2410
   15SOL    HW2   45   0.354   1.820   2.363 -0.6109  2.1712 -0.4987
   16SOL     OW   46   1.672   0.514   2.830  0.0166  0.0425  1.0410
   16SOL    HW1   47   1.587   0.452   2.817 -1.9914  0.4250 -2.4015
   16SOL    HW2   48   1.650   0.608   2.795 -2.0628  1.6313  3.6202
   17SOL     OW   49   2.934   2.642   2.481 -0.0093  0.2028  0.0237
   17SOL    HW1   50   2.906   2.549   2.514 -0.1230 -2.1406  0.9989
   17SOL    HW2   51   2.898   2.665   2.390 -0.2477  1.5535  0.6503
   18SOL     OW   52   1.142   1.099   0.799 -0.3733  0.1799 -0.4019
   18SOL    HW1   53   1.140   1.201   0.820  0.2368  1.1228 -0.8841
   18SOL    HW2   54   1.054   1.059   0.834  2.4418  1.2486 -0.2316
   19SOL     OW   55   2.627   1.862   2.260 -0.5893 -0.9463  0.5553
   19SOL    HW1   56   2.722   1.884   2.288 -1.5552  0.0509 -0.7704
   19SOL    HW2   57   2.596   1.948   2.214  0.4844 -0.8619 -0.0888
   20SOL     OW   58   2.352   2.316   2.521 -0.2306  0.4699  0.2583
   20SOL    HW1   59   2.328   2.358   2.427 -2.7911  2.4064 -1.6256
   20SOL    HW2   60   2.293   2.358   2.592  4.3348  0.0083 -1.8196
   21SOL     OW   61   1.625   1.739   0.491  0.3332  0.9296  0.2529
   21SOL    HW1   62   1.692   1.680   0.539 -0.5848 -1.6014  1.0728
   21SOL    HW2   63   1.626   1.828   0.531  1.0805 -0.8046  1.9196
   22SOL     OW   64   2.321   2.087   1.348  0.1402  0.3011  0.2485
   22SOL    HW1   65   2.389   2.015   1.312  0.8620 -1.7484 -1.4682
   22SOL    HW2   66   2.227   2.054   1.325 -0.0543 -0.7066  0.1492
   23SOL     OW   67   0.065   1.317   1.384  0.1673 -0.1756 -0.0193
   23SOL    HW1   68   0.075   1.379   1.301  0.4673 -1.5747 -2.4721
   23SOL    HW2   69   3.049   1.309   1.416  0.5118 -1.4648 -0.3088
   24SOL     OW   70   2.291   1.309   1.946  0.1088  0.5183  0.3355
   24SOL    HW1   71   2.377   1.316   1.897  1.4296  1.2955 -0.6942
   24SOL    HW2   72   2.308   1.328   2.045 -0.3394  0.0751 -0.1972
   25SOL     OW   73   1.942   0.212   2.295  0.3378 -0.1410 -1.0932
   25SOL    HW1   74   1.901   0.186   2.387  0.2907 -3.3628  0.9433
   25SOL    HW2   75   2.025   0.156   2.277 -1.6677 -0.6497  2.9577
   26SOL     OW   76   0.824   0.232   0.225  0.1809 -0.7645  0.6961
   26SOL    HW1   77   0.730   0.195   0.228 -2.2292 -1.0047  0.5185
   26SOL    HW2   78   0.831   0.308   0.158  0.3042  0.9545  1.1561
   27SOL     OW   79   0.757   1.740   0.888 -0.0831 -0.0676  0.0364
   27SOL    HW1   80   0.712   1.689   0.813  2.0047 -1.1616  2.2238
   27SOL    HW2   81   0.710   1.717   0.972  1.7758  2.2685 -0.1710
   28SOL     OW   82   2.377   2.339   1.040  0.0195 -0.2683 -0.3072
   28SOL    HW1   83   2.343   2.298   1.127  0.0761 -2.4257  3.5436
   28SOL    HW2   84   2.346   2.435   1.029 -1.4442 -2.1577 -1.3873
   29SOL     OW   85   2.187   0.102   1.877 -0.0266 -0.1895  0.5035
   29SOL    HW1   86   2.114   0.034   1.903 -0.1906  0.7221  0.3885
   29SOL    HW2   87   2.273   0.046   1.874 -3.0046 -1.1584 -1.2923
   30SOL     OW   88   0.585   2.928   1.301  0.6010 -0.2304 -0.0589
   30SOL    HW1   89   0.536   2.938   1.387  1.2022 -1.0935 -4.6852
   30SOL    HW2   90   0.546   2.988   1.227 -1.2580 -1.7122 -1.1358
   31SOL     OW   91   0.109   1.998   2.118  0.4359  0.6848  0.0368
   31SOL    HW1   92   0.133   1.981   2.020  2.0884 -0.5936 -1.7515
   31SOL    HW2   93   0.191   1.986   2.181 -2.5828 -0.8322  1.1696
   32SOL     OW   94   1.536   1.889   2.270  0.3641  0.6117  0.0777
   32SOL    HW1   95   1.625   1.933   2.271 -0.2723 -3.0761  2.1235
   32SOL    HW2   96   1.540   1.790   2.243 -0.1108 -0.9723 -0.1257
   33SOL     OW   97   0.351   0.123   2.949  0.4045 -0.1693 -0.0023
   33SOL    HW1   98   0.419   0.152   2.876  0.6090  1.6449  0.4632
   33SOL    HW2   99   0.325   0.023   2.930  1.2002 -0.5352  0.8231
   34SOL     OW  100   2.472   3.049   0.458 -0.1848  0.5582  0.0270
   34SOL    HW1  101   2.493   0.065   0.486  0.1800 -1.5270 -1.2218
   34SOL    HW2  102   2.455   2.992   0.535 -1.2674  0.4414  0.0706
   35SOL     OW  103   2.722   0.306   1.663 -0.1633 -0.2753 -0.1655
   35SOL    HW1  104   2.692   0.400   1.696  1.1891 -0.4662 -1.0141
   35SOL    HW2  105   2.816   0.311   1.617  0.5971  0.6157 -0.3105
   36SOL     OW  106   2.581   2.827   2.302  0.0561 -0.1215  0.8220
   36SOL    HW1  107   2.585   2.755   2.369 -1.2085  3.3347 -0.9408
   36SOL    HW2  108   2.573   2.916   2.348 -1.3084 -2.3172  0.2805
   37SOL     OW  109   1.504   2.792   0.018  0.0886 -0.3487 -0.4980
   37SOL    HW1  110   1.547   2.872   0.061  1.5194 -2.7111 -1.1459
   37SOL    HW2  111   1.407   2.783   0.036  2.8953 -1.3871 -2.2146
   38SOL     OW  112   0.056   0.793   2.961  0.1044 -0.4830 -0.1114
   38SOL    HW1  113   3.051   0.743   2.937  2.0594 -0.9667 -0.8961
   38SOL    HW2  114   0.116   0.814   2.880  0.7900  0.2517  0.6854
   39SOL     OW  115   1.531   1.801   1.924 -0.0604  0.6139  0.2809
   39SOL    HW1  116   1.519   1.892   1.885  0.1314 -3.9167  0.3864
   39SOL    HW2  117   1.444   1.764   1.972  0.2442 -0.1744 -0.8202
   40SOL     OW  118   0.348   0.486   2.552 -0.1685 -0.3612 -0.0799
   40SOL    HW1  119   0.449   0.484   2.544 -1.3827  0.6055 -1.7837
   40SOL    HW2  120   0.303   0.466   2.463  1.3846 -0.7129 -0.4009
   41SOL     OW  121   1.429   1.092   2.167  0.0663  0.2295  0.5532
   41SOL    HW1  122   1.486   1.007   2.164 -0.3376  1.2509  1.0276
   41SOL    HW2  123   1.448   1.147   2.253 -1.1389 -0.0321 -1.5721
   42SOL     OW  124   2.964   0.390   1.544 -0.1708  0.4569 -0.0111
   42SOL    HW1  125   2.943   0.491   1.544 -0.0867  0.2465  1.7103
   42SOL    HW2  126   3.028   0.360   1.620 -0.0966 -2.9642  2.2793
   43SOL     OW  127   1.269   1.238   1.540  0.2085 -0.1535 -0.8141
   43SOL    HW1  128   1.316   1.311   1.597  0.7147  0.8441 -2.5863
   43SOL    HW2  129   1.205   1.189   1.602 -2.6352  0.0387 -1.0389
   44SOL     OW  130   3.056   0.338   2.740 -0.1816  0.2550  0.2541
   44SOL    HW1  131   0.045   0.334   2.819  1.0992 -1.2552  1.5861
   44SOL    HW2  132   2.992   0.261   2.743  2.3096 -0.8414 -0.0802
   45SOL     OW  133   0.335   2.112   1.361 -0.0031  0.2912  0.1125
   45SOL    HW1  134   0.246   2.154   1.342 -1.8954 -0.3196 -0.7844
   45SOL    HW2  135   0.382   2.088   1.273  0.2399  0.6310  0.3124
   46SOL     OW  136   2.369   2.979   1.896 -0.3610  0.3007 -0.0265
   46SOL    HW1  137   2.444   3.029   1.947  0.1218 -2.6370 -1.1683
   46SOL    HW2  138   2.388   2.962   1.795  1.0969  2.2072 -3.5066
   47SOL     OW  139   0.354   1.943   0.993  0.5717  0.8161 -0.0090
   47SOL    HW1  140   0.411   1.913   0.912  3.2604 -0.3158 -2.5019
   47SOL    HW2  141   0.281   1.875   1.017 -0.0016 -2.1781 -0.2974
   48SOL     OW  142   0.581   2.654   0.193 -0.1238  0.7347 -0.0224
   48SOL    HW1  143   0.586   2.677   0.295  2.5967 -0.2572  3.7785
   48SOL    HW2  144   0.493   2.609   0.170  0.2077 -0.6773  0.3368
   49SOL     OW  145   3.035   1.658   1.698 -0.0064 -0.3144 -0.0720
   49SOL    HW1  146   0.004   1.657   1.790  0.8915  0.2198 -1.9511
   49SOL    HW2  147   2.956   1.595   1.682  0.0873 -2.2778  0.5345
   50SOL     OW  148   1.520   0.052   0.616 -0.0380 -0.2968 -0.1631
   50SOL    HW1  149   1.588   0.061   0.537 -2.0502  2.4980 -0.8024
   50SOL    HW2  150   1.441   0.107   0.594 -1.6029 -2.2645  2.7999
   51SOL     OW  151   1.112   0.192   1.102  0.2654  0.3335 -0.1872
   51SOL    HW1  152   1.026   0.162   1.148 -1.4901  2.0272  1.5207
   51SOL    HW2  153   1.109   0.292   1.089  0.7605 -1.8429  0.2139
   52SOL     OW  154   0.728   1.362   0.317  0.2789 -0.3311 -0.6252
   52SOL    HW1  155   0.647   1.318   0.274  2.1694 -2.0876 -0.2448
   52SOL    HW2  156   0.818   1.322   0.292  2.3491 -1.4720  0.2863
   53SOL     OW  157   1.360   2.864   2.477  0.3936  0.2590 -0.3875
   53SOL    HW1  158   1.453   2.868   2.439 -0.9054  0.1328  2.1309
   53SOL    HW2  159   1.360   2.824   2.568  0.5729  0.2480 -2.6581
   54SOL     OW  160   1.709   0.641   1.799  0.9178 -0.4027  0.5789
   54SOL    HW1  161   1.748   0.715   1.742  0.3824 -0.3724 -0.1937
   54SOL    HW2  162   1.779   0.567   1.812  1.0011 -0.0452 -1.1496
   55SOL     OW  163   2.895   2.482   0.473 -0.4422  0.1548  0.1158
   55SOL    HW1  164   2.924   2.576   0.501  0.4803 -0.1473 -0.4004
   55SOL    HW2  165   2.980   2.429   0.451  0.8443 -0.4247  2.5282
   56SOL     OW  166   0.989   2.790   1.726 -0.3155 -0.0426  0.1207
   56SOL    HW1  167   0.976   2.816   1.627  2.6428 -2.5273  4.1188
   56SOL    HW2  168   1.063   2.718   1.739  0.2794 -1.2418  2.0018
   57SOL     OW  169   1.679   0.701   2.444 -0.4075 -0.1365 -0.1085
   57SOL    HW1  170   1.778   0.714   2.417  1.6056  1.8632  1.1981
   57SOL    HW2  171   1.617   0.760   2.383 -0.9866 -1.5553  0.2829
   58SOL     OW  172   0.630   1.193   2.046  0.1492 -0.0285  0.4051
   58SOL    HW1  173   0.639   1.277   1.990 -0.8777 -0.4255 -2.9807
   58SOL    HW2  174   0.599   1.106   1.996 -0.4377 -0.6531 -2.1027
   59SOL     OW  175   0.638   2.511   2.029 -0.3114 -0.2142  0.3424
   59SOL    HW1  176   0.614   2.408   2.024 -1.1468  0.2281  0.3906
   59SOL    HW2  177   0.676   2.549   1.939 -0.2916  0.9671  1.0235
   60SOL     OW  178   2.461   2.481   0.223  0.1121  0.4188  0.4045
   60SOL    HW1  179   2.544   2.453   0.273 -1.3654  0.6405 -1.0585
   60SOL    HW2  180   2.483   2.559   0.159  0.2655 -0.6370 -1.6466
   61SOL     OW  181   1.137   2.645   0.736 -0.2746 -0.7326  0.1351
   61SOL    HW1  182   1.187   2.632   0.827  0.0834  2.0464 -1.4130
   61SOL    HW2  183   1.174   2.588   0.662  0.4845  1.5234  3.5794
   62SOL     OW  184   1.582   2.624   2.897 -0.0411  0.5780 -0.5660
   62SOL    HW1  185   1.558   2.691   2.967 -1.2778 -0.5146 -2.5984
   62SOL    HW2  186   1.546   2.528   2.914 -3.1700 -2.2931  1.0740
   63SOL     OW  187   2.310   0.581   3.012  0.6507  0.4168  0.0460
   63SOL    HW1  188   2.289   0.679   3.043  0.4379 -1.7189  3.3053
   63SOL    HW2  189   2.401   0.549   3.050  2.4822  1.6211  0.2633
   64SOL     OW  190   1.282   1.127   0.097 -0.5214 -0.6244  0.1852
   64SOL    HW1  191   1.239   1.218   0.092  1.1312  0.2832 -0.6393
   64SOL    HW2  192   1.377   1.118   0.129 -3.8256 -0.4824  0.0215
   65SOL     OW  193   0.924   2.892   1.492 -0.3426 -0.2844 -0.2180
   65SOL    HW1  194   0.961   2.833   1.423  0.0195 -0.6160 -0.2320
   65SOL    HW2  195   0.982   2.980   1.503  1.2119  1.8260 -0.0712
   66SOL     OW  196   0.813   1.271   1.308 -0.7073  0.1517  0.1092
   66SOL    HW1  197   0.787   1.199   1.375  1.0034  1.2942 -0.7977
   66SOL    HW2  198   0.883   1.243   1.244 -0.8922  2.2957  2.3304
   67SOL     OW  199   2.345   2.306   1.863  0.2660 -0.3115  0.1405
   67SOL    HW1  200   2.422   2.310   1.928 -1.5498 -1.1892 -1.0746
   67SOL    HW2  201   2.378   2.273   1.774  1.3544 -0.5399  0.8529
   68SOL     OW  202   1.031   1.263   1.858 -0.5839  0.3351  0.1234
   68SOL    HW1  203   0.953   1.315   1.815  1.8492 -1.0737 -0.1410
   68SOL    HW2  204   1.045   1.176   1.811  1.6329  1.2437 -1.3675
   69SOL     OW  205   2.751   2.640   0.166  0.2385 -0.3635 -0.3269
   69SOL    HW1  206   2.733   2.664   0.266  0.9214  2.0020  0.5176
   69SOL    HW2  207   2.675   2.694   0.114 -1.6799  2.6097  0.2746
   70SOL     OW  208   2.451   0.839   2.488  0.0269  0.3512  0.4397
   70SOL    HW1  209   2.418   0.848   2.584  1.8896  0.5779 -1.3198
   70SOL    HW2  210   2.484   0.747   2.463 -3.3003  0.1936 -2.2581
   71SOL     OW  211   0.235   1.840   0.693 -0.0334 -0.1633 -0.3294
   71SOL    HW1  212   0.222   1.752   0.644 -0.4083 -3.5817 -1.5407
   71SOL    HW2  213   0.145   1.871   0.735 -1.1634 -1.5202  0.5491
   72SOL     OW  214   2.614   1.795   0.422  0.0372 -0.1721 -0.0416
   72SOL    HW1  215   2.548   1.872   0.405 -0.0053  0.5017 -2.2014
   72SOL    HW2  216   2.567   1.700   0.414 -0.6950  1.4138  1.9865
   73SOL     OW  217   1.055   0.369   0.556 -0.0534 -0.0248 -0.1736
   73SOL    HW1  218   1.057   0.469   0.526  1.7629  4.6667 -1.8889
   73SOL    HW2  219   1.033   0.374   0.653 -0.3521  1.6102  0.2961
   74SOL     OW  220   2.534   2.344   2.036 -0.1547 -0.7711 -0.7555
   74SOL    HW1  221   2.624   2.356   1.986 -0.1393  0.0828 -2.1846
   74SOL    HW2  222   2.492   2.432   2.069 -2.2230  0.0722  0.0605
   75SOL     OW  223   1.692   1.627   1.786 -0.2711 -0.2906 -0.0537
   75SOL    HW1  224   1.633   1.674   1.854  0.5961 -1.0214  1.1049
   75SOL    HW2  225   1.699   1.527   1.799 -1.3386 -0.0594  0.1334
   76SOL     OW  226   1.089   1.865   1.131 -0.0139 -0.0240  0.0362
   76SOL    HW1  227   1.191   1.854   1.109  0.8575  0.1179  0.5065
   76SOL    HW2  228   1.043   1.778   1.108  0.0805  1.7929 -1.7639
   77SOL     OW  229   2.734   1.554   1.953  0.3443 -0.3170 -0.1916
   77SOL    HW1  230   2.765   1.600   2.037  3.0677 -0.2956 -2.1662
   77SOL    HW2  231   2.761   1.456   1.958  0.3533  4.2661 -2.1348
   78SOL     OW  232   1.872   0.658   0.689 -0.4359  0.0451 -0.8937
   78SOL    HW1  233   1.840   0.662   0.789  0.4656 -0.3041  3.3096
   78SOL    HW2  234   1.827   0.727   0.627 -0.1415  1.8037 -1.3633
   79SOL     OW  235   1.587   1.240   2.017  0.4431 -0.3061 -0.6570
   79SOL    HW1  236   1.686   1.238   2.038  1.1410 -0.2911  0.4098
   79SOL    HW2  237   1.540   1.174   2.082 -1.2329 -0.2641  2.3003
   80SOL     OW  238   1.062   0.512   1.658 -0.7801 -0.3298  0.4457
   80SOL    HW1  239   1.138   0.513   1.585  0.4431  0.0520 -1.7005
   80SOL    HW2  240   1.087   0.561   1.743 -0.5361 -0.2548  1.4829
   81SOL     OW  241   0.844   2.638   0.733  0.6668 -0.0694 -0.2501
   81SOL    HW1  242   0.805   2.720   0.688  1.4187 -1.1475 -1.9669
   81SOL    HW2  243   0.946   2.632   0.728 -0.1909 -0.7340 -0.4259
   82SOL     OW  244   1.310   0.398   1.930 -0.4871 -0.3189 -0.0221
   82SOL    HW1  245   1.384   0.404   1.858 -0.5410  2.7409 -2.1972
   82SOL    HW2  246   1.313   0.313   1.985  0.8827  2.9503 -1.4104
   83SOL     OW  247   0.175   2.338   0.690 -0.4746 -0.4127 -0.6383
   83SOL    HW1  248   0.232   2.259   0.679 -4.5993  1.9668 -0.4739
   83SOL    HW2  249   0.198   2.391   0.773 -2.3169  1.3016  1.8851
   84SOL     OW  250   2.574   1.426   3.050  0.0165  0.5259  0.4184
   84SOL    HW1  251   2.636   1.377   2.987  1.3892  1.1868 -1.5702
   84SOL    HW2  252   2.592   1.524   3.041 -0.8498 -0.8711 -0.8473
   85SOL     OW  253   2.648   2.262   1.727 -0.1333  0.1497  0.1949
   85SOL    HW1  254   2.568   2.228   1.671 -1.1586  1.0820  1.3231
   85SOL    HW2  255   2.678   2.195   1.794 -0.8733  0.3558 -0.5185
   86SOL     OW  256   1.726   2.597   1.202  0.3950 -0.1493  0.3584
   86SOL    HW1  257   1.816   2.627   1.245  2.9288 -0.0503 -0.4221
   86SOL    HW2  258   1.708   2.645   1.114  0.9213  0.8106 -0.6795
   87SOL     OW  259   2.454   1.555   0.407  0.5989 -0.3658 -0.1354
   87SOL    HW1  260   2.360   1.600   0.422 -1.7534  1.3757  0.1096
   87SOL    HW2  261   2.453   1.491   0.327 -1.8142  1.9232 -1.5388
   88SOL     OW  262   1.030   0.301   0.819 -0.6084  0.0519  0.4851
   88SOL    HW1  263   1.026   0.199   0.825 -0.3298  0.5310 -1.6526
   88SOL    HW2  264   0.965   0.345   0.887 -2.1832 -1.1704  0.8664
   89SOL     OW  265   0.743   3.056   1.827  0.3226  0.3799 -0.2542
   89SOL    HW1  266   0.766   0.076   1.847  0.5571 -1.4441 -2.1506
   89SOL    HW2  267   0.807   2.999   1.876 -0.7142 -0.9974 -2.1404
   90SOL     OW  268   2.877   1.790   0.766  0.2224  0.0767  0.0154
   90SOL    HW1  269   2.787   1.832   0.742 -3.6883 -0.6072  0.3219
   90SOL    HW2  270   2.890   1.723   0.695 -1.2958  4.5055  2.0010
   91SOL     OW  271   0.943   1.624   1.181  0.0433  0.2109  0.0373
   91SOL    HW1  272   0.889   1.692   1.236 -0.9754 -1.2794  0.2252
   91SOL    HW2  273   1.026   1.598   1.233 -0.2030  0.8490 -2.0217
   92SOL     OW  274   2.550   3.054   1.580 -0.2900  0.6378  0.4223
   92SOL    HW1  275   2.523   0.071   1.601 -0.2556  0.2695 -2.1779
   92SOL    HW2  276   2.650   3.033   1.596  1.6690 -3.0306  1.4691
   93SOL     OW  277   0.421   0.943   2.627 -0.7232  0.2835  0.6574
   93SOL    HW1  278   0.455   0.993   2.710 -2.5653  2.7802 -1.5433
   93SOL    HW2  279   0.404   1.016   2.558  0.0463  1.2526  0.0193
   94SOL     OW  280   2.573   0.039   2.030  0.0632 -0.1259  0.3804
   94SOL    HW1  281   2.545   0.109   2.097  0.6127  0.0370  3.0846
   94SOL    HW2  282   2.630   0.089   1.955  2.2213  2.7916 -0.8671
   95SOL     OW  283   1.527   0.830   2.270 -0.6809  0.1856 -0.5199
   95SOL    HW1  284   1.435   0.803   2.309 -4.5366 -0.5858 -1.2368
   95SOL    HW2  285   1.545   0.780   2.184 -0.2491 -0.9196 -2.1488
   96SOL     OW  286   2.789   0.681   1.775  0.3161  0.1388 -0.0104
   96SOL    HW1  287   2.702   0.629   1.804  2.6920 -1.7753  2.3480
   96SOL    HW2  288   2.787   0.775   1.821  0.5829 -1.4696  2.9389
   97SOL     OW  289   2.057   2.874   1.688  1.1822  0.5406  0.1107
   97SOL    HW1  290   2.154   2.889   1.661 -1.0003  1.5872 -2.2970
   97SOL    HW2  291   2.040   2.923   1.774 -3.7693 -0.5386 -3.3532
   98SOL     OW  292   2.185   2.487   1.751  0.5132 -0.1398 -0.2393
   98SOL    HW1  293   2.262   2.436   1.798  1.7727  1.3466  1.0474
   98SOL    HW2  294   2.130   2.522   1.830 -0.5716 -0.0534 -2.3947
   99SOL     OW  295   2.755   0.544   1.312  0.6767 -0.2408  0.2800
   99SOL    HW1  296   2.731   0.450   1.295  2.2949  1.5412  0.5408
   99SOL    HW2  297   2.796   0.557   1.401 -2.3309 -0.6720  1.0244
  100SOL     OW  298   2.454   1.871   1.867  0.6688  0.1166 -0.0465
  100SOL    HW1  299   2.383   1.936   1.900  2.2554  0.2460 -2.5875
  100SOL    HW2  300   2.543   1.907   1.886 -2.5920  0.7283  0.7260
  101SOL     OW  301   2.194   3.046   0.231 -0.4358  0.2497  0.4247
  101SOL    HW1  302   2.179   2.976   0.159 -1.5391  0.8877  0.8071
  101SOL    HW2  303   2.216   0.060   0.198  2.4277 -1.0685 -0.5222
  102SOL     OW  304   0.606   0.438   1.135  0.1282  0.4504 -0.5691
  102SOL    HW1  305   0.642   0.398   1.221  1.4113  0.0432 -0.0023
  102SOL    HW2  306   0.558   0.373   1.073  0.8908  1.2801  0.0778
  103SOL     OW  307   2.888   0.053   2.302 -0.2677 -0.5075  0.0179
  103SOL    HW1  308   2.834   3.077   2.233 -1.7064  2.0431  0.3594
  103SOL    HW2  309   2.979   0.085   2.266  0.0929  2.4031 -0.5153
  104SOL     OW  310   0.325   2.652   1.441 -0.3554 -0.1138  0.5187
  104SOL    HW1  311   0.374   2.730   1.479 -0.9316 -1.6359  0.7957
  104SOL    HW2  312   0.353   2.571   1.489  2.8245  1.5596 -3.5038
  105SOL     OW  313   1.212   1.503   1.892  0.3560 -0.7265  0.4883
  105SOL    HW1  314   1.174   1.412   1.864  0.8482 -0.4111  0.3753
  105SOL    HW2  315   1.156   1.576   1.854  1.9245 -3.7458 -1.1851
  106SOL     OW  316   1.966   0.406   0.775 -0.2546 -0.3361 -0.4596
  106SOL    HW1  317   2.049   0.408   0.825 -2.6713  3.4406  0.3453
  106SOL    HW2  318   1.949   0.493   0.725  2.6538 -2.8470 -2.7879
  107SOL     OW  319   0.657   0.910   1.304  0.2928 -0.1155  0.3014
  107SOL    HW1  320   0.595   0.833   1.284  1.7495 -1.3282  2.1569
  107SOL    HW2  321   0.667   0.968   1.222  0.4839 -0.6795  1.3467
  108SOL     OW  322   2.897   0.634   2.108  0.5364  0.1213 -0.2378
  108SOL    HW1  323   2.923   0.580   2.027 -1.0488  0.0751  0.5633
  108SOL    HW2  324   2.800   0.617   2.121 -0.8146  0.8043 -2.6782
  109SOL     OW  325   1.774   2.956   2.598  0.3361 -0.4083  0.3249
  109SOL    HW1  326   1.723   2.870   2.616 -1.4191 -1.2710  0.0640
  109SOL    HW2  327   1.857   2.937   2.540 -0.5040 -1.5459 -0.0325
  110SOL     OW  328   3.074   1.837   2.704  0.1361 -0.1550 -0.5525
  110SOL    HW1  329   2.978   1.857   2.707  0.7826  1.2003  0.4934
  110SOL    HW2  330   0.037   1.818   2.801 -1.8705 -1.6271  1.9352
  111SOL     OW  331   2.624   0.656   2.154  0.4617  0.5740 -0.5155
  111SOL    HW1  332   2.603   0.644   2.257 -0.4460  2.2787  2.7648
  111SOL    HW2  333   2.596   0.566   2.113  0.6473  1.0382 -0.3220
  112SOL     OW  334   2.647   2.690   1.310 -0.2286  0.1279  0.4727
  112SOL    HW1  335   2.627   2.594   1.332  0.2268  0.5092 -1.0466
  112SOL    HW2  336   2.704   2.693   1.226 -0.1516  0.9643  0.0264
  113SOL     OW  337   2.212   2.158   2.241  0.4979  0.1548 -0.2355
  113SOL    HW1  338   2.262   2.245   2.236  1.3679  1.8935  0.7449
  113SOL    HW2  339   2.116   2.181   2.268 -1.3648  0.8503  2.4017
  114SOL     OW  340   0.167   0.329   0.119 -0.9622 -0.4467  0.3117
  114SOL    HW1  341   0.080   0.332   0.174 -1.6886  3.2599  1.5805
  114SOL    HW2  342   0.252   0.341   0.178  0.1580 -3.3690 -1.2410
  115SOL     OW  343   2.688   1.685   3.008  0.8040 -0.0609 -0.3244
  115SOL    HW1  344   2.769   1.673   3.067 -0.7209 -0.8528  1.2564
  115SOL    HW2  345   2.726   1.715   2.915  4.4397 -0.0770 -0.6481
  116SOL     OW  346   2.996   1.306   1.750 -0.4458 -0.3496  0.3301
  116SOL    HW1  347   0.016   1.326   1.740 -2.4367  1.8267  0.5527
  116SOL    HW2  348   2.940   1.385   1.719 -1.1651 -3.3577 -1.1897
  117SOL     OW  349   2.210   0.036   1.262  0.3707 -0.0587  0.1069
  117SOL    HW1  350   2.114   0.054   1.226 -1.2591  0.5722  3.5668
  117SOL    HW2  351   2.208   0.070   1.358 -2.4586 -0.0083  2.2805
  118SOL     OW  352   2.804   2.434   1.982  1.0728  0.2766 -0.0320
  118SOL    HW1  353   2.838   2.513   1.924 -1.0745 -1.0985  2.2550
  118SOL    HW2  354   2.879   2.368   1.997 -2.3763  0.7027  0.0840
  119SOL     OW  355   0.782   1.781   1.321  0.2358 -0.2372 -0.1221
  119SOL    HW1  356   0.784   1.884   1.327 -0.3615 -1.3262 -0.5616
  119SOL    HW2  357   0.725   1.749   1.400  2.2632 -0.2199  0.1248
  120SOL     OW  358   0.051   1.737   1.289 -0.0497 -0.3040 -0.6367
  120SOL    HW1  359   0.116   1.713   1.364  0.7931 -0.7366  1.2769
  120SOL    HW2  360   3.072   1.814   1.314  1.9759 -0.9753 -0.0958
  121SOL     OW  361   1.923   1.358   1.029 -0.2862 -0.2926 -0.4654
  121SOL    HW1  362   1.829   1.396   1.041 -1.1705 -0.5619  0.3130
  121SOL    HW2  363   1.926   1.259   1.059  1.5796 -0.5751 -2.2844
  122SOL     OW  364   1.758   2.088   2.531  0.8946  0.2219 -0.1992
  122SOL    HW1  365   1.815   2.063   2.453 -0.0452 -0.1409  0.3349
  122SOL    HW2  366   1.812   2.121   2.611  0.9296  0.7298  1.9544
  123SOL     OW  367   2.951   0.069   0.112  0.4742  0.3825  0.0904
  123SOL    HW1  368   3.039   0.012   0.091  1.0415 -1.2718 -2.0317
  123SOL    HW2  369   2.914   0.051   0.207 -2.6918  1.1109  0.0887
  124SOL     OW  370   0.982   1.242   0.492  0.0464 -0.3366  0.0134
  124SOL    HW1  371   0.923   1.227   0.573 -0.6569  1.1400 -3.4370
  124SOL    HW2  372   1.080   1.244   0.518 -1.6500  2.3050  1.2208
  125SOL     OW  373   0.111   1.256   2.019 -0.0077 -0.1599  0.0775
  125SOL    HW1  374   0.152   1.278   1.928  1.1804  0.5811  0.9209
  125SOL    HW2  375   0.049   1.327   2.055 -0.5600  0.6233 -0.3792
  126SOL     OW  376   0.038   2.418   0.198 -0.3992  0.2184 -0.1584
  126SOL    HW1  377   0.086   2.420   0.285 -0.4388 -1.8265 -1.8937
  126SOL    HW2  378   0.002   2.513   0.187  1.1602 -0.0274 -0.8212
  127SOL     OW  379   2.862   1.865   0.373 -0.4826  0.7096  0.1517
  127SOL    HW1  380   2.847   1.908   0.280  3.4467 -1.5988  0.3234
  127SOL    HW2  381   2.770   1.829   0.409 -1.0623 -1.4180  1.1868
  128SOL     OW  382   1.391   0.952   0.797 -0.0925  0.1835  0.2697
  128SOL    HW1  383   1.295   0.983   0.812  2.4779 -0.9641 -1.0347
  128SOL    HW2  384   1.439   0.925   0.881 -1.8679 -1.5647 -1.4336
  129SOL     OW  385   2.446   1.936   1.009 -0.1141 -0.2597  0.1299
  129SOL    HW1  386   2.450   1.927   1.115 -0.5404  2.1860  4.0474
  129SOL    HW2  387   2.485   2.027   0.982  2.0710  2.3719 -2.1006
  130SOL     OW  388   2.288   0.895   0.932  0.5907 -0.3069  0.1661
  130SOL    HW1  389   2.367   0.921   0.995  2.6342  0.4439 -0.2974
  130SOL    HW2  390   2.238   0.978   0.910  0.9455 -0.2296  0.6055
  131SOL     OW  391   2.814   1.234   2.462  0.8889  0.2936  0.0507
  131SOL    HW1  392   2.733   1.167   2.453  0.0798  1.1802 -2.2109
  131SOL    HW2  393   2.900   1.188   2.439 -1.8670 -0.2376  0.6335
  132SOL     OW  394   1.387   1.411   2.110  0.1696 -0.0759 -0.0413
  132SOL    HW1  395   1.293   1.370   2.098  0.6831 -1.7891  0.0436
  132SOL    HW2  396   1.453   1.362   2.050  1.2397  0.0753  0.4131
  133SOL     OW  397   0.191   1.088   0.370  0.2573  0.1944 -0.1681
  133SOL    HW1  398   0.130   1.147   0.420  2.1822  0.4058  1.4583
  133SOL    HW2  399   0.212   1.128   0.281 -2.6199  0.6705  4.7405
  134SOL     OW  400   2.823   1.136   0.270  0.7985  0.3640  0.1894
  134SOL    HW1  401   2.888   1.090   0.207 -1.9010  0.3591  1.7057
  134SOL    HW2  402   2.726   1.130   0.243  0.8513  0.3407  0.9686
  135SOL     OW  403   1.519   0.715   0.098 -0.3290 -0.1807 -0.4794
  135SOL    HW1  404   1.488   0.747   0.006  0.0916  1.8180  1.1191
  135SOL    HW2  405   1.482   0.770   0.173  2.3509 -0.1429 -1.3675
  136SOL     OW  406   1.899   1.806   1.742 -0.3571 -0.1081 -0.1805
  136SOL    HW1  407   1.830   1.732   1.748  2.1512 -1.9348  0.0172
  136SOL    HW2  408   1.858   1.901   1.713 -2.6259  0.5423  1.1084
  137SOL     OW  409   2.363   2.418   0.633  0.6649 -0.1509  0.2369
  137SOL    HW1  410   2.430   2.344   0.617 -0.8151  3.2246  1.4347
  137SOL    HW2  411   2.313   2.438   0.552 -2.0036 -1.7236  0.6851
  138SOL     OW  412   2.526   0.356   1.160 -0.1633  0.4163  0.6338
  138SOL    HW1  413   2.467   0.298   1.100 -1.9060  2.7708 -5.0308
  138SOL    HW2  414   2.553   0.442   1.111 -1.5552 -0.2906  0.0836
  139SOL     OW  415   2.589   0.328   2.800 -0.5788  0.1971 -0.6271
  139SOL    HW1  416   2.606   0.395   2.877  2.2425  2.4201  2.5055
  139SOL    HW2  417   2.598   0.230   2.824  0.1348  2.2561  1.1489
  140SOL     OW  418   1.174   1.962   2.296  0.1444  0.3645 -0.1282
  140SOL    HW1  419   1.147   2.053   2.340  0.4720  1.4536 -0.1305
  140SOL    HW2  420   1.149   1.965   2.198  3.3631  0.3631 -3.1703
  141SOL     OW  421   0.881   0.699   2.331  0.1423 -0.4961 -0.4226
  141SOL    HW1  422   0.886   0.718   2.430 -0.6552 -0.1633  1.6540
  141SOL    HW2  423   0.933   0.767   2.276 -1.0113 -4.2818  0.9355
  142SOL     OW  424   2.548   2.748   2.859  0.8679 -0.0817  0.1689
  142SOL    HW1  425   2.538   2.788   2.767  1.9139  0.0805 -0.3096
  142SOL    HW2  426   2.490   2.663   2.866  0.8120 -1.9608  1.7701
  143SOL     OW  427   1.107   1.903   0.467 -0.4160 -0.0677  0.4309
  143SOL    HW1  428   1.191   1.945   0.436 -0.9480 -1.8727 -0.6435
  143SOL    HW2  429   1.057   1.966   0.525  2.1463  0.4248  2.6523
  144SOL     OW  430   1.233   2.727   0.041 -0.2425  0.5982  0.8078
  144SOL    HW1  431   1.202   2.646   3.066 -0.8263 -4.5768 -1.6283
  144SOL    HW2  432   1.149   2.784   0.055 -2.6970 -2.4198  0.1047
  145SOL     OW  433   1.546   2.252   2.436 -0.0605  0.6347  0.3253
  145SOL    HW1  434   1.616   2.185   2.461 -3.3646 -0.5802 -3.1723
  145SOL    HW2  435   1.506   2.234   2.348  2.1629  1.1825  2.7878
  146SOL     OW  436   2.329   3.044   2.906 -0.0410 -0.3617 -0.4941
  146SOL    HW1  437   2.428   3.079   2.891  2.7628  3.2868 -1.3044
  146SOL    HW2  438   2.270   0.034   2.860 -0.0356 -1.6361  0.3052
  147SOL     OW  439   2.812   1.047   1.169 -0.4559  0.0621 -0.2102
  147SOL    HW1  440   2.721   1.050   1.219  0.2886 -2.0792 -1.1094
  147SOL    HW2  441   2.829   1.140   1.127  1.1945  0.9921  1.6036
  148SOL     OW  442   2.199   2.683   0.138 -0.5211  0.6154  0.4762
  148SOL    HW1  443   2.169   2.676   0.237 -0.6569  2.9821  1.8103
  148SOL    HW2  444   2.162   2.763   0.086  0.5323  2.1965 -1.1596
  149SOL     OW  445   0.538   1.836   2.828  0.0631  0.5586 -0.3448
  149SOL    HW1  446   0.577   1.751   2.789  1.2132 -1.5566 -0.5858
  149SOL    HW2  447   0.478   1.881   2.759  1.6652 -2.4874  1.1143
  150SOL     OW  448   0.441   2.490   0.565 -0.9145 -0.4404 -0.3591
  150SOL    HW1  449   0.453   2.410   0.503 -0.3571 -1.8023 -1.5600
  150SOL    HW2  450   0.443   2.468   0.666  0.3761 -0.2322  3.6358
  151SOL     OW  451   0.266   1.149   0.106  0.1345 -0.0012 -0.8686
  151SOL    HW1  452   0.325   1.067   0.099 -0.6549 -0.1453 -0.1458
  151SOL    HW2  453   0.253   1.204   0.021 -0.4732 -0.5979 -0.3948
  152SOL     OW  454   2.808   2.184   0.600 -0.5175  0.5339 -0.3912
  152SOL    HW1  455   2.809   2.241   0.685 -0.8935 -0.6993  0.0362
  152SOL    HW2  456   2.724   2.203   0.547  1.4821 -0.6812  0.6643
  153SOL     OW  457   1.719   2.154   0.791  0.3189  0.2938 -0.7120
  153SOL    HW1  458   1.738   2.163   0.890 -1.6813 -0.3898  0.2774
  153SOL    HW2  459   1.641   2.215   0.775  1.7838 -1.9985  1.6481
  154SOL     OW  460   0.778   2.752   1.243 -0.1243 -0.5591  0.1824
  154SOL    HW1  461   0.714   2.822   1.277 -1.1397 -1.2432  0.0926
  154SOL    HW2  462   0.872   2.794   1.228  3.5922 -0.4155  1.6130
  155SOL     OW  463   2.656   1.919   0.681  0.1797  0.5300 -0.8689
  155SOL    HW1  464   2.673   2.017   0.677  0.2365  2.3037  1.2417
  155SOL    HW2  465   2.630   1.876   0.593 -0.3070  0.3334  1.6979
  156SOL     OW  466   2.589   2.315   2.895 -0.2223  0.7052 -0.8352
  156SOL    HW1  467   2.672   2.351   2.948  0.5806  0.4433  1.0537
  156SOL    HW2  468   2.567   2.222   2.939 -0.6706 -2.9487  2.0994
  157SOL     OW  469   0.476   2.218   1.596 -0.0964  0.3873  0.0284
  157SOL    HW1  470   0.407   2.292   1.584 -1.0309 -0.9033 -1.7636
  157SOL    HW2  471   0.432   2.135   1.547  1.4005 -0.5797 -2.0577
  158SOL     OW  472   1.531   0.394   0.635  0.0299 -0.2368  0.5066
  158SOL    HW1  473   1.454   0.328   0.648  1.2822 -0.8321  2.1156
  158SOL    HW2  474   1.587   0.397   0.723 -0.1308 -0.4758 -0.9730
  159SOL     OW  475   1.762   0.627   0.184  0.4941  0.0864 -0.2619
  159SOL    HW1  476   1.773   0.578   0.274  0.8482  2.0908 -2.7332
  159SOL    HW2  477   1.668   0.665   0.163  0.9314 -1.2194 -0.4054
  160SOL     OW  478   0.720   1.418   0.579  0.3352 -0.3405  0.1625
  160SOL    HW1  479   0.746   1.336   0.636 -0.1518  0.4637  0.3980
  160SOL    HW2  480   0.727   1.389   0.483 -0.5541  2.2347  1.0460
  161SOL     OW  481   2.867   2.402   2.606  0.5784 -0.1751  0.0273
  161SOL    HW1  482   2.767   2.384   2.625 -2.1068 -2.8990  0.5027
  161SOL    HW2  483   2.926   2.328   2.633 -1.2251  0.6411  2.6557
  162SOL     OW  484   0.083   2.181   1.239  0.0910 -0.4160 -0.9992
  162SOL    HW1  485   0.035   2.276   1.247  0.0416  2.4172  0.3600
  162SOL    HW2  486   0.080   2.153   1.142 -1.7231  0.3768 -2.0840
  163SOL     OW  487   0.347   0.458   2.836  0.6580  0.1788 -0.0530
  163SOL    HW1  488   0.273   0.399   2.874 -1.0351  1.1833  0.1544
  163SOL    HW2  489   0.342   0.475   2.734 -0.5269 -1.0990  0.1563
  164SOL     OW  490   0.324   2.720   2.443 -0.1119  0.1181  0.3368
  164SOL    HW1  491   0.413   2.732   2.492 -1.3671  0.4830  2.5656
  164SOL    HW2  492   0.254   2.689   2.508  2.1744  0.2280  2.5321
  165SOL     OW  493   2.565   0.952   1.716  0.0312 -0.3045 -0.3157
  165SOL    HW1  494   2.583   0.877   1.656 -0.9636  2.4086  1.8687
  165SOL    HW2  495   2.532   0.920   1.805 -2.1725  0.0890  2.2593
  166SOL     OW  496   2.042   1.947   1.290  0.5504  0.0267 -0.6425
  166SOL    HW1  497   2.049   1.935   1.187 -0.0646 -3.0094 -0.8853
  166SOL    HW2  498   2.009   1.862   1.327  0.6335  0.4979  1.1554
  167SOL     OW  499   0.688   0.942   2.347 -0.2242  0.4108 -0.1579
  167SOL    HW1  500   0.606   0.882   2.365 -3.3667 -2.4347 -3.4033
  167SOL    HW2  501   0.772   0.880   2.329  0.8644 -2.7377 -0.7019
  168SOL     OW  502   2.199   0.298   2.084 -0.1287  0.3703 -0.1578
  168SOL    HW1  503   2.200   0.223   2.151  0.8400 -3.0046  0.7266
  168SOL    HW2  504   2.214   0.268   1.991 -0.1235  2.9208  0.8981
  169SOL     OW  505   0.430   0.939   0.090 -0.3834  0.0833  0.4643
  169SOL    HW1  506   0.525   0.913   0.121 -2.7365 -0.4730  3.4915
  169SOL    HW2  507   0.369   0.855   0.095 -0.1937  0.4216 -1.3056
  170SOL     OW  508   0.576   1.470   1.645  0.6883 -0.8011  0.3597
  170SOL    HW1  509   0.526   1.410   1.582  0.8184  0.9129  1.4051
  170SOL    HW2  510   0.671   1.440   1.638 -0.7082  0.4393 -0.5735
  171SOL     OW  511   0.971   2.391   1.834  0.1068  0.5546  0.1690
  171SOL    HW1  512   0.962   2.338   1.749  0.8442  2.5304 -0.0412
  171SOL    HW2  513   0.898   2.468   1.826 -1.2859  0.3088  0.3432
  172SOL     OW  514   1.286   2.831   1.845  0.4431  0.0042 -0.1729
  172SOL    HW1  515   1.267   2.837   1.942  1.6005  3.2592 -0.1076
  172SOL    HW2  516   1.256   2.745   1.804  0.5312 -0.3290  1.7806
  173SOL     OW  517   1.494   2.319   0.739  0.3774 -0.8383 -0.1399
  173SOL    HW1  518   1.447   2.252   0.680  2.4671  1.3721  0.1781
  173SOL    HW2  519   1.436   2.333   0.818  0.9851 -0.2589 -2.6156
  174SOL     OW  520   2.204   2.866   0.452 -0.4171 -0.1079 -0.7881
  174SOL    HW1  521   2.269   2.874   0.531 -2.4008  0.2059 -0.4204
  174SOL    HW2  522   2.233   2.929   0.380 -2.6778  0.2499  0.7899
  175SOL     OW  523   1.199   1.389   0.725  0.2884 -0.1522  0.3175
  175SOL    HW1  524   1.261   1.414   0.649 -1.8952  0.4542  1.6752
  175SOL    HW2  525   1.128   1.461   0.737  0.2866 -0.4865  0.6388
  176SOL     OW  526   0.608   1.639   0.676 -0.1256  0.2090  0.4480
  176SOL    HW1  527   0.606   1.708   0.598 -0.3536 -1.5548 -0.7626
  176SOL    HW2  528   0.658   1.554   0.647 -2.2639 -0.4372  0.2024
  177SOL     OW  529   1.275   1.277   1.135 -0.6969  0.2336  0.8301
  177SOL    HW1  530   1.341   1.266   1.214 -1.1836 -1.2730 -1.5303
  177SOL    HW2  531   1.318   1.290   1.042  0.4387  0.9343  1.3617
  178SOL     OW  532   2.261   1.821   0.128  0.2907  0.1204 -0.3520
  178SOL    HW1  533   2.210   1.878   0.198  0.4803  2.0792  0.0679
  178SOL    HW2  534   2.220   1.731   0.107  0.4216  0.1557  1.2537
  179SOL     OW  535   1.119   2.505   2.970 -0.4657 -0.1073 -0.2064
  179SOL    HW1  536   1.063   2.539   2.892 -2.0423 -1.0184  1.0123
  179SOL    HW2  537   1.203   2.454   2.941  1.9513 -1.6334  0.6157
  180SOL     OW  538   2.020   1.385   1.897  0.2261  0.3971  0.6411
  180SOL    HW1  539   2.120   1.356   1.908 -0.4278 -1.5709  0.3965
  180SOL    HW2  540   2.012   1.487   1.900  0.0199  2.2317 -2.5822
  181SOL     OW  541   0.908   0.786   2.590  0.8042  0.5483 -0.4142
  181SOL    HW1  542   0.973   0.865   2.585 -3.3031 -0.2610  1.1132
  181SOL    HW2  543   0.940   0.706   2.646  2.7957  0.4934  0.2607
  182SOL     OW  544   2.867   1.390   2.212 -0.3686 -0.0515  0.1410
  182SOL    HW1  545   2.854   1.331   2.290  0.1968  2.9895 -2.0095
  182SOL    HW2  546   2.844   1.347   2.123  0.3877 -0.3776  0.5544
  183SOL     OW  547   1.202   0.440   2.420 -0.3718 -0.0840  0.0771
  183SOL    HW1  548   1.253   0.366   2.469  0.0736  0.4444 -0.8837
  183SOL    HW2  549   1.236   0.454   2.326 -0.8901  4.4396  1.3766
  184SOL     OW  550   0.319   0.522   1.456  0.0850  0.4333  0.7127
  184SOL    HW1  551   0.346   0.449   1.522 -0.7625  1.5243  0.4908
  184SOL    HW2  552   0.247   0.481   1.391 -0.9066 -1.0972  1.0988
  185SOL     OW  553   2.206   1.647   0.472 -0.5725  0.4031  0.0149
  185SOL    HW1  554   2.178   1.549   0.484  0.0286 -1.1873  1.9392
  185SOL    HW2  555   2.201   1.696   0.561  0.0321 -0.0164 -0.6399
  186SOL     OW  556   0.193   1.877   0.322 -0.4716 -0.0875 -0.4780
  186SOL    HW1  557   0.284   1.852   0.282 -1.8508 -0.0725  1.3455
  186SOL    HW2  558   0.190   1.843   0.418  1.3402  0.6937 -0.2996
  187SOL     OW  559   1.983   2.355   0.176 -0.0777 -0.2285 -0.1270
  187SOL    HW1  560   1.944   2.308   0.260  2.0370 -1.2309  1.3165
  187SOL    HW2  561   2.031   2.287   0.117  1.4336  0.6521 -0.2888
  188SOL     OW  562   0.891   2.060   1.042 -0.4487  0.1882 -0.0263
  188SOL    HW1  563   0.831   2.065   1.125 -0.4138 -1.3029 -0.9910
  188SOL    HW2  564   0.963   1.986   1.058  1.6410 -1.9987  0.0793
  189SOL     OW  565   2.063   1.375   2.611  0.3671  0.5782  0.3285
  189SOL    HW1  566   1.972   1.420   2.616 -1.2139  2.3127 -0.1915
  189SOL    HW2  567   2.134   1.446   2.630  0.6944  0.6722  0.1068
  190SOL     OW  568   0.832   2.487   2.233  0.0095 -0.6228 -0.5730
  190SOL    HW1  569   0.751   2.519   2.185 -0.1381  0.4521  0.4313
  190SOL    HW2  570   0.806   2.441   2.323  0.9192 -1.8638  1.7897
  191SOL     OW  571   2.600   0.777   1.490 -0.0975 -0.0622 -0.4449
  191SOL    HW1  572   2.520   0.814   1.446  1.8606 -1.8301  0.8239
  191SOL    HW2  573   2.674   0.767   1.424 -1.9961  0.0543 -0.8578
  192SOL     OW  574   2.494   0.542   1.594 -0.5153 -0.2748 -0.2279
  192SOL    HW1  575   2.521   0.627   1.547 -1.7636 -1.6539 -1.0231
  192SOL    HW2  576   2.436   0.482   1.532 -1.9013  0.1989  0.2001
  193SOL     OW  577   0.556   0.282   0.478  0.5009  0.0252  0.1973
  193SOL    HW1  578   0.477   0.308   0.534 -2.2202  0.4191  0.5347
  193SOL    HW2  579   0.615   0.362   0.454 -1.8786  2.4463 -0.0383
  194SOL     OW  580   1.147   2.328   1.381 -0.1191 -0.3930  0.6112
  194SOL    HW1  581   1.172   2.243   1.334 -1.2642  2.1515  1.4887
  194SOL    HW2  582   1.221   2.370   1.434  0.2744 -5.5311 -2.1075
  195SOL     OW  583   2.428   1.036   0.436  0.1575  0.5155 -0.6377
  195SOL    HW1  584   2.428   0.936   0.420 -1.3737  0.8350  0.8714
  195SOL    HW2  585   2.476   1.087   0.362 -2.1341  0.0059  0.4769
  196SOL     OW  586   0.735   2.267   1.495  0.2327 -0.2126  0.2200
  196SOL    HW1  587   0.740   2.355   1.444 -1.1944 -3.3623  0.3172
  196SOL    HW2  588   0.642   2.256   1.537 -1.4054  0.7349 -0.4597
  197SOL     OW  589   0.289   0.773   2.238 -0.3957 -0.0368  0.2542
  197SOL    HW1  590   0.263   0.834   2.160 -1.3013  0.1551  0.0147
  197SOL    HW2  591   0.215   0.701   2.261 -0.0818 -0.4476 -1.9076
  198SOL     OW  592   1.797   0.869   0.525  0.8651 -0.1477 -0.1419
  198SOL    HW1  593   1.695   0.844   0.534 -1.2211 -1.9824  0.4764
  198SOL    HW2  594   1.805   0.956   0.478  3.0409  1.6064  1.5734
  199SOL     OW  595   2.591   0.512   1.834 -0.1248 -0.0915  0.4884
  199SOL    HW1  596   2.516   0.527   1.903  0.3780  0.0712 -0.9824
  199SOL    HW2  597   2.559   0.525   1.740 -1.1231 -0.3541  1.8041
  200SOL     OW  598   2.135   0.128   2.758  0.0320 -0.3108  0.1609
  200SOL    HW1  599   2.197   0.201   2.726  1.1747  0.4632 -2.2125
  200SOL    HW2  600   2.057   0.176   2.804  2.8996  0.8555 -2.0177
  201SOL     OW  601   2.557   0.072   1.287 -0.4395 -0.2226 -0.0397
  201SOL    HW1  602   2.550   0.039   1.380  1.1052  0.1684  0.6459
  201SOL    HW2  603   2.500   0.155   1.278 -0.7708 -1.3807 -0.1404
  202SOL     OW  604   3.016   2.689   0.206  0.0684 -0.3729  0.4998
  202SOL    HW1  605   3.035   2.697   0.308  0.1992  1.7299  0.9243
  202SOL    HW2  606   2.922   2.654   0.193  1.5751 -0.9123  0.5312
  203SOL     OW  607   1.136   1.940   2.789 -0.7315 -0.1002 -0.2006
  203SOL    HW1  608   1.101   1.871   2.859  0.3560  1.4639  2.7761
  203SOL    HW2  609   1.130   1.902   2.694 -0.4159 -2.0855 -2.1976
  204SOL     OW  610   0.362   1.979   2.694 -0.3283  0.7940 -0.1718
  204SOL    HW1  611   0.276   1.938   2.660 -1.1730  0.0344  1.3655
  204SOL    HW2  612   0.366   2.076   2.673 -1.0031  0.0135  0.1169
  205SOL     OW  613   1.081   0.777   1.060  0.1139 -0.1277  0.2773
  205SOL    HW1  614   1.027   0.715   1.118  1.9058  3.2370 -2.4237
  205SOL    HW2  615   1.182   0.771   1.083 -1.3271  0.8496  1.8303
  206SOL     OW  616   0.172   0.864   2.716  0.4522 -0.1956 -0.0283
  206SOL    HW1  617   0.272   0.882   2.695  1.5521  1.1323 -0.6432
  206SOL    HW2  618   0.125   0.811   2.642 -0.5030 -3.0305  3.0048
  207SOL     OW  619   1.562   2.407   1.711 -0.2301  0.0478  0.4440
  207SOL    HW1  620   1.659   2.439   1.717  1.7502  1.4317 -1.9276
  207SOL    HW2  621   1.532   2.371   1.802 -2.2944  0.8082 -0.0416
  208SOL     OW  622   0.326   2.992   0.958 -0.0388 -0.0976  0.2683
  208SOL    HW1  623   0.281   2.920   1.018  0.8616 -0.6609  0.9598
  208SOL    HW2  624   0.342   2.957   0.863 -1.5081 -1.3400 -2.7892
  209SOL     OW  625   1.822   1.147   0.714  0.4706 -0.5430  0.1587
  209SOL    HW1  626   1.810   1.066   0.771  1.9821  0.0753  0.7220
  209SOL    HW2  627   1.809   1.131   0.614  1.6240  3.1657  3.1014
  210SOL     OW  628   2.563   0.463   0.801 -0.0697  0.3170 -0.3745
  210SOL    HW1  629   2.475   0.470   0.754  0.9293 -3.0585 -0.4688
  210SOL    HW2  630   2.640   0.449   0.732  1.8082  0.7235 -0.7893
  211SOL     OW  631   1.368   2.888   0.325  0.4290 -0.3277 -0.5045
  211SOL    HW1  632   1.345   2.794   0.290  2.5693 -4.0993 -3.0670
  211SOL    HW2  633   1.446   2.928   0.273  0.7963 -0.7137  3.4065
  212SOL     OW  634   1.940   2.256   0.666  0.2721  0.4204  0.3969
  212SOL    HW1  635   1.982   2.305   0.746  1.3170 -1.5148  1.2690
  212SOL    HW2  636   1.852   2.221   0.692  4.0060  1.1173 -1.6344
  213SOL     OW  637   2.021   0.586   2.681  0.1400  0.5324 -0.1856
  213SOL    HW1  638   2.117   0.612   2.697 -0.0968 -0.3359 -0.4513
  213SOL    HW2  639   2.018   0.488   2.653 -0.2055  1.1224  0.8695
  214SOL     OW  640   1.293   1.713   2.055 -0.0772  0.0161 -0.1753
  214SOL    HW1  641   1.311   1.727   2.155 -2.8440 -1.6218 -1.2591
  214SOL    HW2  642   1.279   1.622   2.030  1.6164  2.3431  1.8819
  215SOL     OW  643   0.176   1.289   0.994 -0.3241  0.3633 -0.7487
  215SOL    HW1  644   0.118   1.350   1.050 -0.7264 -1.2913 -0.3249
  215SOL    HW2  645   0.264   1.266   1.044  0.7612 -0.3272  1.3613
  216SOL     OW  646   0.166   2.219   2.680 -0.5751  0.5787 -0.0204
  216SOL    HW1  647   0.225   2.292   2.644 -2.8788  0.3845  0.6920
  216SOL    HW2  648   0.196   2.188   2.773  2.9471 -1.5826  3.7823
  217SOL     OW  649   2.614   1.071   1.382  0.2491  0.3140 -0.1385
  217SOL    HW1  650   2.533   1.011   1.368  2.0860 -0.4945  0.1435
  217SOL    HW2  651   2.598   1.170   1.411  0.6827 -0.7488  1.3039
  218SOL     OW  652   0.581   2.244   2.044 -0.3387 -0.5764 -0.0454
  218SOL    HW1  653   0.607   2.213   1.949  0.0780 -1.8481  0.3561
  218SOL    HW2  654   0.615   2.183   2.116  2.8027  1.5439 -1.1235
  219SOL     OW  655   2.053   1.382   0.246 -0.5081 -0.1266 -0.0041
  219SOL    HW1  656   2.086   1.466   0.192  0.0306  1.7006  0.0833
  219SOL    HW2  657   2.085   1.395   0.345  0.1387 -0.1823  1.8878
  220SOL     OW  658   2.237   0.752   0.708  0.5188  0.0018  0.2221
  220SOL    HW1  659   2.270   0.786   0.800  2.3357 -0.5179 -1.1032
  220SOL    HW2  660   2.157   0.811   0.683 -1.0840  1.1532  1.9134
  221SOL     OW  661   2.846   0.789   0.135 -0.3959 -0.0481 -0.1998
  221SOL    HW1  662   2.903   0.867   0.098 -1.6035  1.0603 -3.1320
  221SOL    HW2  663   2.885   0.697   0.107 -0.5500  0.4042 -0.0988
  222SOL     OW  664   1.612   1.312   0.712  0.4241 -0.2139 -0.2772
  222SOL    HW1  665   1.690   1.249   0.735  1.6627 -1.0704 -2.8693
  222SOL    HW2  666   1.531   1.313   0.775  0.3833 -0.9531  1.3239
  223SOL     OW  667   0.827   3.073   2.830 -0.3570  0.2560 -0.0418
  223SOL    HW1  668   0.784   0.077   2.881 -1.4248  1.5763 -1.0717
  223SOL    HW2  669   0.826   0.009   2.729 -0.5731 -2.1260  1.6271
  224SOL     OW  670   1.198   3.037   1.205  0.2093  0.1931 -0.3769
  224SOL    HW1  671   1.188   0.054   1.170  3.0604  2.6119  0.4467
  224SOL    HW2  672   1.230   3.048   1.305 -0.4062 -1.2105 -0.6940
  225SOL     OW  673   0.261   2.482   1.860 -0.6186  0.0373  0.2448
  225SOL    HW1  674   0.264   2.544   1.941 -0.7591  0.7712 -3.3718
  225SOL    HW2  675   0.200   2.408   1.885  0.0740  2.0198  0.1419
  226SOL     OW  676   1.477   1.235   0.454  0.8191 -0.3763 -0.2278
  226SOL    HW1  677   1.507   1.234   0.547 -4.4428  1.8534  2.4214
  226SOL    HW2  678   1.441   1.328   0.427  1.1987  1.5813 -0.8492
  227SOL     OW  679   0.407   1.522   0.876 -0.5493  0.0568  0.2773
  227SOL    HW1  680   0.460   1.589   0.819 -0.4618  0.8274  0.2318
  227SOL    HW2  681   0.376   1.445   0.820  0.1442  0.2111  1.6886
  228SOL     OW  682   2.942   1.569   0.621  0.0704 -0.3498  0.2808
  228SOL    HW1  683   2.917   1.473   0.602 -0.9367 -0.1482  0.0118
  228SOL    HW2  684   2.956   1.618   0.532  0.8606  3.1977  0.9064
  229SOL     OW  685   2.548   0.490   3.061  0.3938 -0.0499  0.4010
  229SOL    HW1  686   2.569   0.570   3.002  1.0846  2.8215  2.6806
  229SOL    HW2  687   2.626   0.458   0.039  1.6233  0.5848  0.2445
  230SOL     OW  688   2.006   1.105   1.093  0.1610 -0.1900 -0.2827
  230SOL    HW1  689   2.090   1.164   1.085 -0.6754 -4.0722 -1.4307
  230SOL    HW2  690   1.996   1.074   1.186  1.0431  2.7648 -1.9406
  231SOL     OW  691   1.521   1.350   2.942 -0.1432 -0.1040  0.2340
  231SOL    HW1  692   1.531   1.330   2.841  0.3867 -0.1524 -0.8003
  231SOL    HW2  693   1.607   1.356   3.001 -0.6408  1.6309  1.1690
  232SOL     OW  694   2.513   2.180   0.865  0.3255 -0.1625 -0.1071
  232SOL    HW1  695   2.610   2.186   0.884 -2.5892 -1.1291 -1.5086
  232SOL    HW2  696   2.457   2.253   0.916  4.1779 -0.1417 -2.4823
  233SOL     OW  697   0.701   2.545   0.943  0.4329  0.1819  0.2188
  233SOL    HW1  698   0.654   2.627   0.989 -1.9865  1.7644  0.1288
  233SOL    HW2  699   0.752   2.575   0.857  0.8397  1.3127 -0.5895
  234SOL     OW  700   0.657   0.554   2.493  0.2506 -0.2972 -0.5128
  234SOL    HW1  701   0.601   0.642   2.481 -1.3909  4.5054 -0.2499
  234SOL    HW2  702   0.684   0.539   2.590 -1.7702  1.8829  1.5405
  235SOL     OW  703   2.780   0.881   2.236 -0.3508  0.4533  0.4436
  235SOL    HW1  704   2.714   0.809   2.201 -0.8064 -2.8900  0.2193
  235SOL    HW2  705   2.873   0.862   2.197 -1.8745  1.1389 -0.0726
  236SOL     OW  706   1.457   2.839   1.431 -0.2230 -0.0463  0.7512
  236SOL    HW1  707   1.418   2.779   1.357  0.4244 -0.2610 -0.1605
  236SOL    HW2  708   1.497   2.778   1.500  2.1337 -0.8381  2.2237
  237SOL     OW  709   0.947   1.486   2.383 -0.5800 -0.4411 -0.0350
  237SOL    HW1  710   0.860   1.441   2.412 -0.5358  0.2908  1.1363
  237SOL    HW2  711   0.987   1.540   2.463 -0.5014  3.5898  0.2989
  238SOL     OW  712   0.969   0.307   2.385  0.1749  0.0231 -0.6326
  238SOL    HW1  713   1.013   0.399   2.381 -1.3248 -1.5912 -0.1982
  238SOL    HW2  714   0.866   0.318   2.364 -2.1078 -1.4548  1.4091
  239SOL     OW  715   0.166   2.252   1.971 -0.3829 -0.0427  0.0504
  239SOL    HW1  716   0.220   2.273   2.050 -1.9894  0.4491 -1.3142
  239SOL    HW2  717   0.185   2.162   1.931 -0.8416  0.2652  0.1944
  240SOL     OW  718   2.382   2.878   0.654 -0.3427 -0.1745 -0.0152
  240SOL    HW1  719   2.389   2.776   0.678  1.4095 -2.0328 -0.9003
  240SOL    HW2  720   2.347   2.930   0.735 -1.8797  1.0109  3.4150
  241SOL     OW  721   2.855   1.325   0.510  0.1276 -0.0287 -0.2419
  241SOL    HW1  722   2.769   1.366   0.551  1.7674  1.6522  2.0918
  241SOL    HW2  723   2.831   1.253   0.443 -1.6267  2.1535 -0.1068
  242SOL     OW  724   1.816   2.500   1.767 -0.2277 -0.5120  0.5277
  242SOL    HW1  725   1.880   2.420   1.763 -1.8262 -1.5809 -1.5064
  242SOL    HW2  726   1.856   2.576   1.711  1.0130 -0.0445 -0.2666
  243SOL     OW  727   0.366   2.582   2.110  0.2698  0.2604  0.2380
  243SOL    HW1  728   0.427   2.657   2.073  0.3943  1.6822 -1.2206
  243SOL    HW2  729   0.418   2.497   2.122  1.7111  1.6385 -1.7321
  244SOL     OW  730   2.551   0.581   2.411  0.5249 -0.4024 -0.7600
  244SOL    HW1  731   2.627   0.523   2.447 -0.2369 -0.7502  1.0424
  244SOL    HW2  732   2.467   0.521   2.412  0.1023 -0.6815 -1.1692
  245SOL     OW  733   1.250   0.048   0.899  0.2825  0.2247 -0.0941
  245SOL    HW1  734   1.240   0.120   0.970  1.7148 -1.5515 -0.9354
  245SOL    HW2  735   1.340   3.077   0.918  1.3357  1.2997  1.7161
  246SOL     OW  736   1.676   2.582   0.121  0.2216  0.2054 -0.1916
  246SOL    HW1  737   1.770   2.595   0.078  0.4629  1.3224 -1.0607
  246SOL    HW2  738   1.616   2.661   0.091  0.2241  0.9498 -0.0590
  247SOL     OW  739   1.262   0.895   2.388 -0.0907 -0.0604  0.1533
  247SOL    HW1  740   1.184   0.938   2.436  0.1482  1.8812 -3.1674
  247SOL    HW2  741   1.285   0.802   2.424  0.4253  0.9805 -1.0404
  248SOL     OW  742   0.099   2.216   1.619 -0.0564 -0.3026 -0.1400
  248SOL    HW1  743   0.154   2.133   1.608  0.5960  4.3424 -0.1865
  248SOL    HW2  744   0.023   2.218   1.686 -0.5535  0.0431 -0.8022
  249SOL     OW  745   2.962   0.569   0.051  0.1523  0.2074  0.0230
  249SOL    HW1  746   3.024   0.577   0.130  0.2482  1.5981  0.0022
  249SOL    HW2  747   2.931   0.472   0.043 -0.7854 -2.6075  1.3251
  250SOL     OW  748   2.803   3.076   2.562 -0.2268 -0.6082 -0.3285
  250SOL    HW1  749   2.851   0.022   2.475 -0.7611 -0.2998  1.0132
  250SOL    HW2  750   2.854   3.000   2.610 -1.8895 -0.2586 -1.7410
  251SOL     OW  751   1.314   0.486   0.132  0.4369  0.3064 -0.1110
  251SOL    HW1  752   1.358   0.426   0.200 -1.8732 -0.2335  1.2910
  251SOL    HW2  753   1.379   0.557   0.097 -0.6612 -2.0433 -1.3978
  252SOL     OW  754   1.469   2.244   1.908 -0.1323 -0.6547 -0.3060
  252SOL    HW1  755   1.373   2.233   1.944  0.0716 -1.0589 -3.2536
  252SOL    HW2  756   1.528   2.284   1.982  1.3468 -0.9577 -2.4081
  253SOL     OW  757   2.309   2.613   1.029  0.0435 -0.7628  0.3325
  253SOL    HW1  758   2.340   2.696   1.076  0.0379  0.9614 -2.1546
  253SOL    HW2  759   2.209   2.605   1.047  1.7164  0.6538 -0.8250
  254SOL     OW  760   2.441   1.202   0.684  0.3607 -0.0341  0.5733
  254SOL    HW1  761   2.476   1.120   0.632  1.1056  0.7150 -1.9837
  254SOL    HW2  762   2.375   1.175   0.755 -1.6821  1.2347  0.6146
  255SOL     OW  763   1.048   2.811   1.257 -0.0419 -0.4625 -0.8341
  255SOL    HW1  764   1.110   2.885   1.218 -1.5173 -0.6309 -2.6755
  255SOL    HW2  765   1.079   2.716   1.231  1.9288 -2.3520 -0.5287
  256SOL     OW  766   2.023   2.171   1.441 -0.1549  0.0178  0.1564
  256SOL    HW1  767   2.034   2.087   1.385  0.4472  2.0339 -0.7299
  256SOL    HW2  768   1.936   2.221   1.427  1.9022 -2.2362 -0.0778
  257SOL     OW  769   0.533   2.491   2.540 -0.2157 -0.3121 -0.0471
  257SOL    HW1  770   0.584   2.530   2.466  0.9633 -1.4835  3.6353
  257SOL    HW2  771   0.586   2.474   2.622  0.5149  0.4789 -2.6574
  258SOL     OW  772   0.837   2.495   0.490  0.0893 -0.3025 -0.4328
  258SOL    HW1  773   0.879   2.556   0.428 -0.8129 -1.6245  2.8970
  258SOL    HW2  774   0.843   2.526   0.589  1.1091 -0.0635  0.2435
  259SOL     OW  775   1.470   0.326   2.800 -0.0852 -0.3791 -0.1467
  259SOL    HW1  776   1.508   0.234   2.816 -0.5090  0.0340  3.9520
  259SOL    HW2  777   1.403   0.348   2.871  0.4925 -0.6698 -0.7087
  260SOL     OW  778   2.689   0.788   1.194  0.2982  0.4739 -0.2684
  260SOL    HW1  779   2.764   0.852   1.200  0.5880  0.5682  0.3994
  260SOL    HW2  780   2.713   0.687   1.221  4.1418 -2.1452 -0.5039
  261SOL     OW  781   0.699   0.331   2.359  0.5134  0.1173  0.1404
  261SOL    HW1  782   0.677   0.413   2.416 -2.1871 -1.5761  1.6180
  261SOL    HW2  783   0.650   0.249   2.387 -1.8248  0.7492 -1.6320
  262SOL     OW  784   0.928   2.268   2.066  0.0794 -0.4061  0.0285
  262SOL    HW1  785   0.886   2.328   2.135 -1.1517 -2.1756 -1.3952
  262SOL    HW2  786   0.928   2.307   1.971  1.0979  0.9773 -1.2822
  263SOL     OW  787   0.360   1.906   3.022 -0.7308 -0.2397 -0.1092
  263SOL    HW1  788   0.428   1.956   0.004  0.8527  1.2418  0.3274
  263SOL    HW2  789   0.414   1.872   2.940  3.0451  1.0754 -1.3675
  264SOL     OW  790   0.903   1.464   0.984 -0.2716  0.3260 -0.4465
  264SOL    HW1  791   0.929   1.514   0.895 -1.0652 -0.6391 -2.7521
  264SOL    HW2  792   0.925   1.516   1.071  1.7974  0.9992 -1.0981
  265SOL     OW  793   1.132   2.267   0.649 -0.2528  0.4322  0.0447
  265SOL    HW1  794   1.219   2.207   0.648  2.1304 -2.0812 -0.0245
  265SOL    HW2  795   1.148   2.353   0.601 -0.7442 -2.6243  0.6282
  266SOL     OW  796   2.158   0.506   0.969  0.1462  0.2858  0.0927
  266SOL    HW1  797   2.158   0.441   1.048  1.1256 -0.1834  1.7104
  266SOL    HW2  798   2.149   0.604   1.003  0.7263  3.6870  1.3296
  267SOL     OW  799   2.987   1.384   2.593 -0.1839  0.6891 -0.3173
  267SOL    HW1  800   3.002   1.374   2.694  1.1192  1.2514 -1.4000
  267SOL    HW2  801   2.911   1.320   2.565 -1.9646 -2.1628 -1.0402
  268SOL     OW  802   1.629   2.968   0.216 -0.4155 -0.2745  0.3644
  268SOL    HW1  803   1.727   2.956   0.231 -0.7756 -1.9475 -1.3824
  268SOL    HW2  804   1.599   3.068   0.216  0.0887  1.2094 -0.6569
  269SOL     OW  805   2.955   0.935   2.597 -0.3778 -0.1671  0.3317
  269SOL    HW1  806   2.969   1.001   2.519 -1.5006  0.2857 -0.2821
  269SOL    HW2  807   2.984   0.845   2.566  0.3246  0.1818 -0.7032
  270SOL     OW  808   0.048   1.444   0.026 -0.0883  0.6636  0.0930
  270SOL    HW1  809   3.065   1.397   0.092 -0.6695 -1.9944  1.4923
  270SOL    HW2  810   0.094   1.371   3.048 -1.9261  1.8845  0.0833
  271SOL     OW  811   2.594   1.457   2.598 -0.6630  0.3152 -0.9961
  271SOL    HW1  812   2.533   1.535   2.584 -1.2318 -1.0584  0.2382
  271SOL    HW2  813   2.565   1.372   2.548  1.7845 -1.5613  1.5827
  272SOL     OW  814   2.442   2.575   2.131 -0.3287  0.6400  0.5997
  272SOL    HW1  815   2.364   2.643   2.134 -3.4796 -0.3143  1.2623
  272SOL    HW2  816   2.528   2.616   2.100  0.9249  1.3847  1.4573
  273SOL     OW  817   0.340   2.543   0.166  0.4188  0.3210 -0.5506
  273SOL    HW1  818   0.369   2.459   0.213 -2.5042 -0.2509  2.2611
  273SOL    HW2  819   0.307   2.523   0.072  0.0769 -0.0230 -2.9800
  274SOL     OW  820   1.018   2.261   0.916 -0.1596 -0.9125  0.0765
  274SOL    HW1  821   1.019   2.234   0.818  3.2115 -0.0525  2.0552
  274SOL    HW2  822   0.966   2.190   0.971  4.1689 -0.0997 -0.2739
  275SOL     OW  823   2.143   1.581   0.038 -0.1563  0.0328 -0.0962
  275SOL    HW1  824   2.052   1.603   0.005 -1.0165 -1.0316 -0.9043
  275SOL    HW2  825   2.189   1.528   3.041  1.6030  1.0399 -1.1408
  276SOL     OW  826   2.507   1.656   1.211 -0.2051 -0.4335 -0.3188
  276SOL    HW1  827   2.481   1.601   1.292 -2.3307 -0.0633  0.0975
  276SOL    HW2  828   2.595   1.620   1.168  1.8660 -0.1675  2.0573
  277SOL     OW  829   2.383   3.027   0.897  0.0862  0.0157 -0.1509
  277SOL    HW1  830   2.290   2.980   0.909 -0.8876 -0.5535 -0.8620
  277SOL    HW2  831   2.450   2.997   0.969 -1.0476 -2.7533  0.9302
  278SOL     OW  832   1.578   0.219   2.398 -0.2827 -0.0049  0.2206
  278SOL    HW1  833   1.501   0.229   2.460 -1.0122  0.3216  0.5995
  278SOL    HW2  834   1.656   0.170   2.447 -1.3714 -0.2335  2.0925
  279SOL     OW  835   1.459   2.587   1.272 -0.1436  0.2798  0.0646
  279SOL    HW1  836   1.562   2.576   1.254  0.1206  0.1528 -0.1892
  279SOL    HW2  837   1.418   2.614   1.182  0.8646 -0.6248  1.5603
  280SOL     OW  838   1.239   1.134   0.530  0.1349  0.1359  0.1449
  280SOL    HW1  839   1.215   1.127   0.627  0.1525  0.3661 -2.1629
  280SOL    HW2  840   1.335   1.160   0.510  0.4421 -2.2687 -0.6852
  281SOL     OW  841   2.220   1.598   2.700  0.3061 -0.1342  0.5727
  281SOL    HW1  842   2.289   1.636   2.640 -2.3349 -0.3889  1.7884
  281SOL    HW2  843   2.156   1.664   2.738  0.4125 -1.6201  4.8034
  282SOL     OW  844   3.008   1.351   2.857  0.0566  0.1882  0.1924
  282SOL    HW1  845   3.070   1.268   2.838  3.9802 -3.2321 -0.1917
  282SOL    HW2  846   3.041   1.413   2.929 -2.0878  1.4678  1.4717
  283SOL     OW  847   1.692   2.703   2.660  0.3437 -0.8538  0.6912
  283SOL    HW1  848   1.655   2.658   2.576  2.7444  0.4050  1.9171
  283SOL    HW2  849   1.656   2.664   2.745  0.2847  0.3979  0.1851
  284SOL     OW  850   0.726   0.197   2.997 -0.3663 -0.2430 -0.3592
  284SOL    HW1  851   0.777   0.281   3.033 -0.4364 -1.1731  1.0217
  284SOL    HW2  852   0.670   0.164   3.076  0.8058 -1.9517 -1.6924
  285SOL     OW  853   1.996   1.832   2.491 -0.3831  0.0932 -0.3708
  285SOL    HW1  854   2.076   1.880   2.445  0.7951  0.8355 -2.7278
  285SOL    HW2  855   1.908   1.867   2.446 -0.8544 -0.9013  2.2482
  286SOL     OW  856   1.289   1.896   0.784 -0.1332  0.1189  0.2060
  286SOL    HW1  857   1.190   1.888   0.803 -0.9267 -1.6708 -1.4800
  286SOL    HW2  858   1.336   1.937   0.866 -0.1817 -2.1200 -3.6658
  287SOL     OW  859   1.683   0.316   1.366 -0.4631 -0.4220  0.1330
  287SOL    HW1  860   1.660   0.330   1.465 -0.2553 -1.2965  0.1250
  287SOL    HW2  861   1.761   0.374   1.345 -2.1879 -2.0963  2.8972
  288SOL     OW  862   0.688   2.671   2.410 -0.2810  0.3056 -0.5842
  288SOL    HW1  863   0.781   2.682   2.458  2.6387 -1.1005  1.1138
  288SOL    HW2  864   0.691   2.722   2.321  0.7000  1.4634  0.0889
  289SOL     OW  865   0.129   1.141   0.767  0.1800  0.4481 -0.0724
  289SOL    HW1  866   0.127   1.195   0.856 -1.8280  0.7896  1.8847
  289SOL    HW2  867   0.041   1.092   0.756 -1.4077  1.0467  0.0737
  290SOL     OW  868   1.213   2.109   1.242  0.3219  0.0559 -0.5353
  290SOL    HW1  869   1.287   2.162   1.198 -2.0286 -1.1306 -1.4401
  290SOL    HW2  870   1.168   2.036   1.186 -1.0376  0.5862  1.2374
  291SOL     OW  871   1.870   2.646   0.594  0.1156  0.3146  0.1125
  291SOL    HW1  872   1.856   2.743   0.622 -0.6334  1.2490 -0.4202
  291SOL    HW2  873   1.787   2.595   0.615 -1.1311 -0.5366 -0.6355
  292SOL     OW  874   0.474   0.039   1.855 -0.0245 -0.2511 -0.0918
  292SOL    HW1  875   0.415   3.037   1.842  0.1516 -0.6325 -1.8603
  292SOL    HW2  876   0.571   0.004   1.857  0.5974 -0.4107 -0.6511
  293SOL     OW  877   2.265   1.775   0.697 -0.0404 -0.9109  0.8783
  293SOL    HW1  878   2.343   1.742   0.754 -2.0580 -2.6947  0.2200
  293SOL    HW2  879   2.293   1.870   0.662  3.4733  1.4889 -1.3737
  294SOL     OW  880   0.903   0.088   2.153 -0.7031 -0.1905 -0.1015
  294SOL    HW1  881   0.999   0.108   2.182 -1.8656 -1.1644  2.8453
  294SOL    HW2  882   0.845   0.056   2.232 -2.0639  0.5749  0.2608
  295SOL     OW  883   0.829   1.201   0.698 -0.2231 -0.2025 -0.5114
  295SOL    HW1  884   0.788   1.235   0.784 -0.1625  1.5953  0.6549
  295SOL    HW2  885   0.794   1.104   0.689 -0.6583  2.7536  0.9789
  296SOL     OW  886   2.143   2.129   0.878 -0.0172 -0.5012  0.0959
  296SOL    HW1  887   2.226   2.079   0.853 -0.7369  2.3527  0.2893
  296SOL    HW2  888   2.156   2.231   0.853  2.3810  1.3132 -0.0877
  297SOL     OW  889   1.871   0.292   2.835 -0.2447 -0.2170 -0.2931
  297SOL    HW1  890   1.788   0.349   2.842  1.0158  0.8221 -0.4434
  297SOL    HW2  891   1.945   0.345   2.884 -0.3698  1.3904  0.2330
  298SOL     OW  892   1.218   0.017   2.530 -0.0929  0.6219  0.4364
  298SOL    HW1  893   1.262   3.010   2.494 -2.5876 -0.0636  3.8582
  298SOL    HW2  894   1.219   0.019   2.632  0.8519 -3.5132 -1.2409
  299SOL     OW  895   1.146   2.916   2.130 -0.0574 -0.4840  0.3426
  299SOL    HW1  896   1.132   3.015   2.160 -1.9952  1.0920  0.7715
  299SOL    HW2  897   1.155   2.853   2.208 -0.5862  1.7755 -0.9003
  300SOL     OW  898   2.481   0.211   1.678  0.2091  0.3454  0.1883
  300SOL    HW1  899   2.571   0.265   1.671 -1.4584  2.2411 -1.5406
  300SOL    HW2  900   2.418   0.253   1.747  0.1114  0.6254  0.0568
  301SOL     OW  901   2.289   0.374   1.798 -0.3534 -0.6527  0.0240
  301SOL    HW1  902   2.291   0.455   1.859  0.3436 -0.0950 -1.5498
  301SOL    HW2  903   2.209   0.387   1.738 -0.1948  3.7560  0.1232
  302SOL     OW  904   0.748   2.391   3.000 -0.1457 -0.2462  0.0864
  302SOL    HW1  905   0.832   2.342   3.032 -0.1236  2.4119 -0.4061
  302SOL    HW2  906   0.665   2.353   3.044  3.4079 -0.2540 -0.4811
  303SOL     OW  907   1.664   1.949   1.441  0.0518 -0.4461  0.0771
  303SOL    HW1  908   1.572   1.987   1.453  1.7995 -0.5184  1.1595
  303SOL    HW2  909   1.692   1.936   1.343 -1.8722 -2.0608  0.3417
  304SOL     OW  910   0.642   0.822   0.946 -0.2828  0.4259  0.3816
  304SOL    HW1  911   0.732   0.775   0.960  2.1726  0.0232  1.5042
  304SOL    HW2  912   0.575   0.755   0.900 -2.8229  0.6787 -0.1512
  305SOL     OW  913   0.996   0.639   0.821  0.7585 -0.2141 -0.2989
  305SOL    HW1  914   1.008   0.727   0.872  0.2219  3.8599 -1.9900
  305SOL    HW2  915   1.053   0.637   0.729  1.8573  0.8395 -0.7292
  306SOL     OW  916   0.531   1.078   2.854 -0.1292 -0.6548  0.4811
  306SOL    HW1  917   0.624   1.052   2.833 -3.3750  1.6140  3.6922
  306SOL    HW2  918   0.504   1.056   2.945  0.7347  0.7330 -3.2547
  307SOL     OW  919   1.051   0.219   1.746 -0.3366  0.2277  0.1303
  307SOL    HW1  920   1.051   0.318   1.745 -1.5677 -1.2721  3.2969
  307SOL    HW2  921   0.994   0.195   1.826 -0.4792  0.0183  0.6065
  308SOL     OW  922   0.859   0.462   0.973  0.0016  0.3663  0.0728
  308SOL    HW1  923   0.826   0.475   1.069  0.5760 -2.7848 -0.7810
  308SOL    HW2  924   0.912   0.539   0.936 -1.9068 -0.4831  3.0156
  309SOL     OW  925   2.417   0.771   0.483  0.3064 -0.2324 -0.8458
  309SOL    HW1  926   2.344   0.774   0.554 -2.3678  0.5475  0.0630
  309SOL    HW2  927   2.509   0.746   0.516  0.9640 -0.5057  1.1538
  310SOL     OW  928   1.162   1.371   0.080  0.2056  0.6982  0.3309
  310SOL    HW1  929   1.165   1.468   0.110  1.1530  0.0406 -1.2861
  310SOL    HW2  930   1.123   1.356   3.066  0.9485  1.9020 -0.6971
  311SOL     OW  931   2.042   2.504   2.234  0.0125  0.9062  0.3085
  311SOL    HW1  932   2.050   2.543   2.139  0.1804 -1.2505  2.1407
  311SOL    HW2  933   2.032   2.589   2.286 -1.5429  0.0744 -1.4094
  312SOL     OW  934   2.252   2.419   0.016 -0.3711  0.3096 -0.1709
  312SOL    HW1  935   2.203   2.328   0.026 -1.7447 -1.2231 -1.8150
  312SOL    HW2  936   2.211   2.500   0.062 -1.1494  1.0104 -3.5569
  313SOL     OW  937   0.482   0.231   0.091 -0.7663 -0.8472  0.2683
  313SOL    HW1  938   0.472   0.325   0.132 -0.6421  3.1545  1.5144
  313SOL    HW2  939   0.427   0.216   0.008 -0.2485 -2.1190 -0.5271
  314SOL     OW  940   2.286   1.447   2.909  0.3578 -0.6578  0.7098
  314SOL    HW1  941   2.387   1.446   2.917 -1.1726 -0.1107 -1.7606
  314SOL    HW2  942   2.258   1.479   2.813  0.0040  0.3023 -3.0827
  315SOL     OW  943   1.603   0.479   2.267 -0.6339  0.4828  0.0355
  315SOL    HW1  944   1.605   0.385   2.306  2.2995 -1.5277 -1.4200
  315SOL    HW2  945   1.611   0.550   2.338  0.1991 -0.0165  0.7023
  316SOL     OW  946   2.955   0.960   0.660  0.0501  0.2878  0.7017
  316SOL    HW1  947   2.892   0.932   0.734  2.3478  0.7120 -0.5321
  316SOL    HW2  948   2.928   0.919   0.572  1.0098 -1.3583 -1.7548
  317SOL     OW  949   0.834   2.649   0.081 -0.0131 -0.0183 -0.0855
  317SOL    HW1  950   0.741   2.664   0.114 -0.1643  1.1374 -0.4234
  317SOL    HW2  951   0.837   2.588   0.004 -1.2096  2.1130  2.5961
  318SOL     OW  952   1.872   2.688   1.586 -0.2969 -0.6178  0.3519
  318SOL    HW1  953   1.937   2.758   1.627  3.6635 -0.3396 -1.0278
  318SOL    HW2  954   1.890   2.686   1.488 -0.1608  3.2506 -0.3004
  319SOL     OW  955   1.126   1.726   2.953  0.2743 -1.1272 -0.1308
  319SOL    HW1  956   1.104   1.724   3.055 -0.8403  1.3515  0.6931
  319SOL    HW2  957   1.211   1.675   2.923  3.8721 -1.3931  0.5898
  320SOL     OW  958   0.498   1.865   0.778  0.0151  0.2859  0.8605
  320SOL    HW1  959   0.396   1.848   0.769 -1.7131  0.7686  1.7157
  320SOL    HW2  960   0.549   1.782   0.751 -2.2250 -1.8418  1.1114
  321SOL     OW  961   2.090   2.633   1.982 -0.6138 -0.3093 -0.4768
  321SOL    HW1  962   2.173   2.679   2.020  0.6144  0.8846 -0.3846
  321SOL    HW2  963   2.009   2.693   1.978  0.7887  0.1934 -1.7131
  322SOL     OW  964   2.235   1.935   2.368 -0.5205  0.0098 -0.3437
  322SOL    HW1  965   2.229   2.017   2.305 -0.4043 -0.0554 -0.1107
  322SOL    HW2  966   2.295   1.870   2.316  0.7716  1.3379  0.1308
  323SOL     OW  967   2.607   0.070   0.764  0.1668  0.1553 -0.1052
  323SOL    HW1  968   2.533   0.025   0.821  1.7858 -0.1888  0.5234
  323SOL    HW2  969   2.571   0.139   0.700 -0.9351 -0.9554  4.4104
  324SOL     OW  970   2.791   2.539   2.243 -0.1728 -0.2723 -0.7412
  324SOL    HW1  971   2.892   2.529   2.257  0.7537 -0.7016 -0.9193
  324SOL    HW2  972   2.759   2.508   2.148  0.9138 -0.3215 -1.7740
  325SOL     OW  973   1.031   0.585   2.739  0.4676  0.4579 -0.3162
  325SOL    HW1  974   1.131   0.605   2.754  0.6278 -0.2338 -2.4515
  325SOL    HW2  975   1.014   0.490   2.714 -1.3084  3.5185  1.2143
  326SOL     OW  976   2.689   2.441   1.101 -0.5444  0.1557  0.1378
  326SOL    HW1  977   2.657   2.432   1.200 -0.9261 -1.3239  2.3202
  326SOL    HW2  978   2.680   2.534   1.062 -0.8280  3.0152  1.1156
  327SOL     OW  979   2.567   3.013   0.189  0.8892  0.2111  0.3373
  327SOL    HW1  980   2.546   3.032   0.286 -2.1935  0.3739  0.0293
  327SOL    HW2  981   2.564   2.917   0.163  0.3766  0.4589 -3.3184
  328SOL     OW  982   0.522   0.658   1.281 -0.6479  0.0949  0.5248
  328SOL    HW1  983   0.559   0.584   1.219 -1.2316 -1.0113 -3.2615
  328SOL    HW2  984   0.463   0.617   1.353 -1.4902  0.1061 -0.8516
  329SOL     OW  985   1.979   0.533   1.604 -0.0456  0.4769  0.0622
  329SOL    HW1  986   1.979   0.437   1.639  2.7621 -1.9390  2.5710
  329SOL    HW2  987   2.071   0.568   1.622 -0.6394 -0.9111 -2.6665
  330SOL     OW  988   0.656   0.317   0.809  0.3410  0.2977  0.4111
  330SOL    HW1  989   0.585   0.308   0.884 -0.3320 -0.9078  1.1170
  330SOL    HW2  990   0.750   0.330   0.846 -1.0158  1.1466 -0.9791
  331SOL     OW  991   0.807   1.829   1.935 -0.1146 -0.1381  0.1611
  331SOL    HW1  992   0.845   1.733   1.922 -0.3975 -1.2581 -1.7102
  331SOL    HW2  993   0.777   1.863   1.846  0.3831  2.9095  0.2269
  332SOL     OW  994   2.568   2.508   1.769  0.1568 -0.2010  0.1476
  332SOL    HW1  995   2.578   2.551   1.861 -0.9008 -0.9799  0.4961
  332SOL    HW2  996   2.607   2.414   1.764  1.6025  2.1295 -1.9305
  333SOL     OW  997   3.009   3.019   0.801 -0.2883  0.0013  0.0807
  333SOL    HW1  998   3.001   0.044   0.818  2.0072  0.2231 -1.4582
  333SOL    HW2  999   2.950   2.984   0.722 -0.2215 -1.6386 -0.7330
  334SOL     OW 1000   0.047   1.269   0.521 -0.2318  0.3191 -0.0928
  334SOL    HW1 1001   3.029   1.280   0.535  0.9155 -0.5914 -0.2356
  334SOL    HW2 1002   0.082   1.232   0.608 -2.7072  0.8401 -0.4745
  335SOL     OW 1003   0.645   2.503   2.802 -0.6006  0.1946 -0.1636
  335SOL    HW1 1004   0.674   2.455   2.888 -0.9349 -0.0654 -1.2611
  335SOL    HW2 1005   0.614   2.597   2.817 -0.5876 -1.6032  1.4845
  336SOL     OW 1006   2.944   2.928   1.918 -0.1252  0.2146 -0.4601
  336SOL    HW1 1007   2.885   2.942   1.999  0.2782 -0.9877  1.1927
  336SOL    HW2 1008   3.036   2.964   1.927 -3.0176  0.3316 -1.1488
  337SOL     OW 1009   1.327   1.947   1.711 -0.0234  0.6519 -0.2210
  337SOL    HW1 1010   1.236   1.957   1.749  1.3528 -3.0856  0.0717
  337SOL    HW2 1011   1.404   1.989   1.759 -0.6395 -3.9886  2.1269
  338SOL     OW 1012   0.878   0.067   2.579 -0.3230 -0.0903  0.3812
  338SOL    HW1 1013   0.819   0.064   2.494 -0.0167 -0.4406  0.7389
  338SOL    HW2 1014   0.972   0.089   2.558 -1.0627 -0.1937  0.1737
  339SOL     OW 1015   0.562   1.180   2.313 -0.5741  0.2178 -0.1828
  339SOL    HW1 1016   0.553   1.192   2.211  0.6956 -1.1212 -0.2065
  339SOL    HW2 1017   0.612   1.092   2.326 -0.0836  2.1213  2.6390
  340SOL     OW 1018   2.144   0.358   1.193 -0.1398  0.4965  0.0489
  340SOL    HW1 1019   2.179   0.276   1.141  1.9184  1.7593 -0.5765
  340SOL    HW2 1020   2.223   0.390   1.250  1.1418 -0.9177 -0.2105
  341SOL     OW 1021   2.255   1.147   0.873 -0.7342 -0.3104 -0.2860
  341SOL    HW1 1022   2.191   1.200   0.817  1.6119 -1.6041 -0.8990
  341SOL    HW2 1023   2.257   1.187   0.967  1.9985  2.0716  1.1771
  342SOL     OW 1024   2.046   2.650   2.883  0.1490  0.1469 -0.0868
  342SOL    HW1 1025   1.998   2.566   2.911  0.2775  3.3190 -0.7100
  342SOL    HW2 1026   2.027   2.725   2.948 -0.1997 -1.6878 -2.1251
  343SOL     OW 1027   0.080   2.651   1.307 -0.2078  0.8454 -0.1357
  343SOL    HW1 1028   0.043   2.560   1.302  0.3337  2.7748 -0.6312
  343SOL    HW2 1029   0.165   2.646   1.364 -0.6797 -0.6518  1.5737
  344SOL     OW 1030   2.347   2.737   1.376  0.2337 -0.6774  0.3676
  344SOL    HW1 1031   2.447   2.727   1.355  0.0891 -1.0940  0.5293
  344SOL    HW2 1032   2.336   2.705   1.473  3.8613  0.7614 -1.3390
  345SOL     OW 1033   2.434   2.201   0.190  0.2098  0.1530 -0.2101
  345SOL    HW1 1034   2.468   2.172   0.100 -0.8050 -3.0934 -0.4974
  345SOL    HW2 1035   2.426   2.302   0.194  0.0205  1.7185  0.7774
  346SOL     OW 1036   1.629   2.256   1.485  0.1687  0.2168  0.6098
  346SOL    HW1 1037   1.571   2.173   1.465 -0.1103 -1.1258 -0.3678
  346SOL    HW2 1038   1.623   2.288   1.582 -0.4687  1.1545 -1.2167
  347SOL     OW 1039   1.079   1.873   1.449  0.0660  0.3646  0.8121
  347SOL    HW1 1040   1.153   1.806   1.437 -0.8334 -1.3356  2.3948
  347SOL    HW2 1041   1.018   1.876   1.361 -2.1962  1.4176 -1.2985
  348SOL     OW 1042   0.218   2.011   1.868 -0.2787 -0.2600  0.1375
  348SOL    HW1 1043   0.210   2.004   1.766  4.0033  0.6076 -1.8179
  348SOL    HW2 1044   0.318   1.997   1.885  1.8077  0.9903 -2.4616
  349SOL     OW 1045   1.676   1.680   1.500 -0.4744  0.1814 -0.2871
  349SOL    HW1 1046   1.696   1.639   1.593  1.1161  0.2259  3.1357
  349SOL    HW2 1047   1.689   1.778   1.501 -1.6193 -0.4823  0.9128
  350SOL     OW 1048   2.145   2.189   0.507  0.1687  0.0659  0.6269
  350SOL    HW1 1049   2.071   2.214   0.571 -2.1462 -3.0286  0.7468
  350SOL    HW2 1050   2.169   2.278   0.458 -0.6447  2.1514 -0.3876
  351SOL     OW 1051   0.689   2.893   1.614  0.5339 -0.0938  0.1307
  351SOL    HW1 1052   0.702   2.960   1.694  2.6437  2.8283  4.7734
  351SOL    HW2 1053   0.777   2.898   1.559 -0.9837  0.0885  0.7933
  352SOL     OW 1054   0.727   0.952   0.719  0.0326 -0.1626 -0.7728
  352SOL    HW1 1055   0.709   0.928   0.818  0.2069 -1.6859  3.7075
  352SOL    HW2 1056   0.768   0.870   0.674  1.4950 -1.9749 -0.1900
  353SOL     OW 1057   1.141   1.827   2.534 -0.0339  0.0006  0.4919
  353SOL    HW1 1058   1.121   1.859   2.440 -1.0815 -1.0677  1.6671
  353SOL    HW2 1059   1.091   1.743   2.556  0.0084  0.0999 -1.1812
  354SOL     OW 1060   1.839   2.760   2.053  0.0431  0.1523 -0.3398
  354SOL    HW1 1061   1.859   2.798   2.145 -0.3383  1.3641  1.1668
  354SOL    HW2 1062   1.743   2.724   2.043 -1.1481 -0.0130 -2.5397
  355SOL     OW 1063   2.027   1.133   0.288 -0.1420 -0.4699 -0.1579
  355SOL    HW1 1064   2.043   1.234   0.271  0.0542  0.1427 -0.3598
  355SOL    HW2 1065   1.998   1.086   0.200  0.1977 -3.7175 -1.9214
  356SOL     OW 1066   2.795   1.803   1.293  0.4604  0.1217  0.1768
  356SOL    HW1 1067   2.820   1.788   1.194  0.1293  0.4926 -2.5150
  356SOL    HW2 1068   2.842   1.884   1.328  0.7482 -2.2745 -1.1847
  357SOL     OW 1069   0.191   2.845   1.145  0.4882 -0.6447 -0.6463
  357SOL    HW1 1070   0.161   2.762   1.195  1.0504  1.1085 -0.3384
  357SOL    HW2 1071   0.127   2.921   1.163 -1.6361 -0.8084  2.0108
  358SOL     OW 1072   2.518   1.928   1.277  0.0019 -0.3039  0.1362
  358SOL    HW1 1073   2.605   1.987   1.290 -0.3203  0.4780  0.0138
  358SOL    HW2 1074   2.544   1.827   1.264 -0.8016  0.5466 -0.1807
  359SOL     OW 1075   2.081   3.063   2.535  0.2382  0.1638  0.4365
  359SOL    HW1 1076   2.092   0.043   2.622  2.4083  0.2923  1.7650
  359SOL    HW2 1077   2.146   2.981   2.535  0.5726 -1.5608  2.6233
  360SOL     OW 1078   1.076   2.924   0.601 -0.4548 -0.2950  0.2172
  360SOL    HW1 1079   1.175   2.936   0.591  1.8410  0.9149  0.0049
  360SOL    HW2 1080   1.047   2.868   0.684  2.2565 -3.2465 -1.3709
  361SOL     OW 1081   2.090   0.091   0.458 -0.0744 -0.4571 -0.2217
  361SOL    HW1 1082   2.130   0.053   0.371 -0.8091  0.4080 -2.5316
  361SOL    HW2 1083   2.167   0.134   0.503  0.7283 -1.7284 -0.5811
  362SOL     OW 1084   1.549   0.886   1.005  0.3758  0.2210  0.0364
  362SOL    HW1 1085   1.620   0.818   0.966  0.1544 -1.2528 -2.9998
  362SOL    HW2 1086   1.598   0.978   1.015 -0.3127  0.5918 -0.5357
  363SOL     OW 1087   2.229   1.155   2.508 -0.4042 -0.7337  0.0053
  363SOL    HW1 1088   2.158   1.216   2.550  1.8705  2.6869  1.9741
  363SOL    HW2 1089   2.183   1.086   2.450  1.3817  2.2125  1.8024
  364SOL     OW 1090   0.278   0.707   1.159  0.4792 -0.1134  0.0899
  364SOL    HW1 1091   0.364   0.683   1.208 -2.5699  1.7707 -0.7363
  364SOL    HW2 1092   0.270   0.807   1.144  0.9989 -1.1765 -0.7514
  365SOL     OW 1093   0.554   0.135   2.492  0.1605 -0.6332 -0.2478
  365SOL    HW1 1094   0.469   0.102   2.533 -2.3539 -0.3617  1.0204
  365SOL    HW2 1095   0.594   0.065   2.437 -0.7092  1.4300  0.6896
  366SOL     OW 1096   2.304   2.058   2.608  0.1860  0.7689 -0.1590
  366SOL    HW1 1097   2.300   1.999   2.525  0.2882 -0.3427 -2.7556
  366SOL    HW2 1098   2.309   2.154   2.575 -0.8985 -2.7402  1.8560
  367SOL     OW 1099   2.806   2.438   3.053 -0.1173  1.0343  0.3915
  367SOL    HW1 1100   2.786   2.499   0.056 -1.6151  0.0328  1.3564
  367SOL    HW2 1101   2.854   2.500   2.987 -1.2921 -0.5164 -0.0431
  368SOL     OW 1102   2.667   1.367   1.267  0.1269  0.2645  0.5600
  368SOL    HW1 1103   2.613   1.404   1.343  0.8631 -1.2864  0.1336
  368SOL    HW2 1104   2.710   1.437   1.207 -1.4641 -3.6820  2.8353
  369SOL     OW 1105   0.901   2.823   2.501 -0.3260 -0.1686  0.2295
  369SOL    HW1 1106   0.990   2.792   2.461  1.2119 -1.0383 -0.2784
  369SOL    HW2 1107   0.908   2.857   2.593 -1.6499  1.2196  0.0480
  370SOL     OW 1108   2.833   0.261   0.387  0.3894  0.1628 -0.5373
  370SOL    HW1 1109   2.929   0.298   0.382 -2.6927  1.0562  2.1660
  370SOL    HW2 1110   2.759   0.319   0.349  2.4084  0.3601 -0.8740
  371SOL     OW 1111   1.431   2.233   1.136  0.0952  0.3230  0.5737
  371SOL    HW1 1112   1.516   2.279   1.163  0.9828 -0.6797 -0.0120
  371SOL    HW2 1113   1.380   2.280   1.058 -1.7778  0.1161 -0.6039
  372SOL     OW 1114   0.008   0.688   2.535 -0.0848  0.3787 -0.0552
  372SOL    HW1 1115   0.036   0.602   2.586  0.0565 -1.9696 -0.4405
  372SOL    HW2 1116   0.039   0.680   2.434  2.5850  0.1667 -1.2095
  373SOL     OW 1117   2.498   1.734   0.835  0.2349  0.1465  0.1207
  373SOL    HW1 1118   2.548   1.784   0.758 -0.8749 -0.9866  0.1979
  373SOL    HW2 1119   2.470   1.803   0.907 -0.8963  0.9666 -0.4149
  374SOL     OW 1120   0.526   2.819   2.561  0.0562 -0.0951  0.1198
  374SOL    HW1 1121   0.550   2.809   2.661 -2.9978 -1.0267 -2.3118
  374SOL    HW2 1122   0.591   2.769   2.502  0.5578 -0.1798  3.4916
  375SOL     OW 1123   0.378   3.025   2.647  0.3823  0.2944 -0.2234
  375SOL    HW1 1124   0.423   2.959   2.581 -0.9275  0.5645 -1.8374
  375SOL    HW2 1125   0.375   2.979   2.740 -0.0824 -1.7903  0.8808
  376SOL     OW 1126   2.975   2.187   1.773 -0.4400  0.0389 -0.0639
  376SOL    HW1 1127   2.956   2.085   1.773 -0.4861 -4.0884  1.2770
  376SOL    HW2 1128   2.940   2.232   1.855  1.1343 -1.4870  0.2060
  377SOL     OW 1129   1.859   2.423   2.850  0.1265  0.4591 -0.3590
  377SOL    HW1 1130   1.851   2.387   2.752 -1.0237  0.3039 -0.7982
  377SOL    HW2 1131   1.784   2.484   2.872  2.0972  1.7395 -0.6583
  378SOL     OW 1132   0.180   0.396   2.334 -0.2622  0.5295  0.0740
  378SOL    HW1 1133   0.242   0.321   2.296 -0.2957 -0.7891  0.8392
  378SOL    HW2 1134   0.115   0.353   2.400  0.4400 -1.7618 -0.6094
  379SOL     OW 1135   0.448   0.762   0.591 -0.5430  0.0527  0.0686
  379SOL    HW1 1136   0.469   0.738   0.689  1.8079 -1.1158  0.1653
  379SOL    HW2 1137   0.380   0.835   0.587  6.6667 -0.2529 -0.4003
  380SOL     OW 1138   0.342   1.579   1.729  0.0204 -0.1706  0.5788
  380SOL    HW1 1139   0.436   1.540   1.721 -2.7346  1.1644 -1.2247
  380SOL    HW2 1140   0.337   1.640   1.811 -1.2398  3.0169  0.7895
  381SOL     OW 1141   0.502   0.986   1.903 -0.5034 -0.0952 -0.3155
  381SOL    HW1 1142   0.417   1.016   1.947 -0.2004 -0.7177  0.2852
  381SOL    HW2 1143   0.515   1.022   1.806  0.8137  1.1589 -2.6580
  382SOL     OW 1144   2.418   1.994   0.352 -0.1989  0.2719  0.3682
  382SOL    HW1 1145   2.426   2.068   0.279 -1.4583 -1.3153 -1.5354
  382SOL    HW2 1146   2.338   1.941   0.324  1.0761  3.0327  1.9554
  383SOL     OW 1147   0.122   1.830   2.951 -0.1184 -0.0963 -0.7176
  383SOL    HW1 1148   0.076   1.812   3.042  2.4944  1.6457  3.3986
  383SOL    HW2 1149   0.221   1.850   2.968  1.9018  0.9268  1.2431
  384SOL     OW 1150   0.698   2.076   2.928  0.3592 -0.0378 -0.3481
  384SOL    HW1 1151   0.626   2.148   2.924  0.8364  2.0563  0.7614
  384SOL    HW2 1152   0.652   1.991   2.894 -0.8619  0.8116  1.7605
  385SOL     OW 1153   2.349   2.027   0.669 -0.0034 -0.6129 -0.4184
  385SOL    HW1 1154   2.415   2.079   0.726  1.0138 -0.3921  1.2931
  385SOL    HW2 1155   2.318   2.084   0.597  1.8142 -1.0694  1.7062
  386SOL     OW 1156   2.285   0.977   1.687 -0.6018  0.4204 -0.5994
  386SOL    HW1 1157   2.383   1.008   1.679  1.7499  1.2848 -0.5330
  386SOL    HW2 1158   2.245   1.011   1.776 -3.0851 -2.0329  1.0649
  387SOL     OW 1159   2.788   1.652   2.177  0.6010 -0.1551 -0.1577
  387SOL    HW1 1160   2.794   1.558   2.218  1.0214  0.1744 -4.7200
  387SOL    HW2 1161   2.726   1.717   2.229 -0.5786 -0.6237  1.9560
  388SOL     OW 1162   0.358   1.697   2.006 -0.0439 -0.1682 -0.1066
  388SOL    HW1 1163   0.391   1.613   2.054  1.7007 -1.3356 -2.6250
  388SOL    HW2 1164   0.406   1.783   2.036 -0.4854  0.6234 -1.3857
  389SOL     OW 1165   1.096   1.036   1.725  0.4579  0.5977  0.1511
  389SOL    HW1 1166   1.025   0.973   1.694  2.4715  0.6977  2.6980
  389SOL    HW2 1167   1.157   0.987   1.789  1.0861 -0.6696 -0.9484
  390SOL     OW 1168   1.956   3.064   0.920  0.4566  0.0040  0.2333
  390SOL    HW1 1169   1.940   0.002   1.022 -2.4175  0.5709  1.9397
  390SOL    HW2 1170   1.901   0.051   0.860 -0.8148  0.4864  0.8979
  391SOL     OW 1171   1.856   1.714   1.226 -0.1574  0.1335 -0.2413
  391SOL    HW1 1172   1.910   1.697   1.141 -2.2755 -1.1521 -2.1641
  391SOL    HW2 1173   1.908   1.706   1.311  0.1202 -0.0533  0.4395
  392SOL     OW 1174   2.683   2.732   0.460  0.2781 -0.0889 -0.5923
  392SOL    HW1 1175   2.742   2.716   0.539 -0.2458 -1.6766 -1.7381
  392SOL    HW2 1176   2.640   2.824   0.465  2.9208 -1.7849  0.0870
  393SOL     OW 1177   2.011   2.193   2.681  0.3419 -0.1164  0.0173
  393SOL    HW1 1178   2.017   2.190   2.783  3.8730 -1.1194 -0.3805
  393SOL    HW2 1179   2.104   2.206   2.644 -0.4165  0.5053 -1.3994
  394SOL     OW 1180   0.119   2.644   2.612  0.1757 -0.2403  0.4785
  394SOL    HW1 1181   0.118   2.650   2.713 -1.0893  1.7695 -4.7209
  394SOL    HW2 1182   0.026   2.669   2.579 -1.4165 -1.0958 -0.0425
  395SOL     OW 1183   0.484   0.089   0.738 -0.1299  0.5140 -0.4872
  395SOL    HW1 1184   0.432   0.106   0.651  0.4119 -1.6808 -0.2281
  395SOL    HW2 1185   0.542   0.167   0.763  3.5673  0.8757  1.6962
  396SOL     OW 1186   2.026   0.927   0.678  0.1380  0.3548  0.4105
  396SOL    HW1 1187   1.948   0.887   0.619 -0.9851  1.8459 -0.9783
  396SOL    HW2 1188   2.086   0.991   0.628  0.2807 -0.5547  2.3370
  397SOL     OW 1189   0.651   0.644   2.213 -0.6963 -0.3655 -0.3697
  397SOL    HW1 1190   0.739   0.648   2.265  0.6625  0.8020  0.9977
  397SOL    HW2 1191   0.575   0.638   2.282 -0.9982 -2.4337  0.4027
  398SOL     OW 1192   0.935   2.935   0.364 -0.5046  0.2906  0.3197
  398SOL    HW1 1193   0.954   3.026   0.330  0.2348  1.1667  1.8700
  398SOL    HW2 1194   0.981   2.933   0.457 -0.0932  0.1248 -0.4803
  399SOL     OW 1195   2.330   2.904   1.638  0.7892 -0.2829 -0.1601
  399SOL    HW1 1196   2.345   2.802   1.614 -0.0644 -0.6327 -0.5442
  399SOL    HW2 1197   2.400   2.964   1.593  0.8114 -1.2693 -1.0857
  400SOL     OW 1198   0.840   1.817   2.311  0.2980  0.3447 -0.1598
  400SOL    HW1 1199   0.849   1.889   2.238 -0.8070  1.8305 -0.7987
  400SOL    HW2 1200   0.822   1.853   2.403  0.4311 -1.3732  1.0138
  401SOL     OW 1201   0.880   1.171   2.446  0.3664 -0.0183 -0.2155
  401SOL    HW1 1202   0.865   1.143   2.350  0.4611 -0.2656  1.3223
  401SOL    HW2 1203   0.794   1.206   2.483 -2.5508 -1.0716 -0.4739
  402SOL     OW 1204   0.030   2.012   0.760 -0.0219  0.1421 -0.1344
  402SOL    HW1 1205   0.028   2.041   0.664  1.9991  1.2741 -2.5233
  402SOL    HW2 1206   3.038   1.945   0.782 -0.0248 -1.5094  1.9487
  403SOL     OW 1207   3.050   0.997   2.122  0.0195 -0.8965  0.5116
  403SOL    HW1 1208   0.023   0.919   2.075  0.0170  0.3530  0.0364
  403SOL    HW2 1209   0.010   1.090   2.093 -0.1947  2.3800  1.9619
  404SOL     OW 1210   3.058   2.515   2.264  0.0247  0.2996  0.5773
  404SOL    HW1 1211   0.031   2.450   2.320  1.0327  1.1872  0.0863
  404SOL    HW2 1212   0.041   2.590   2.220  2.5681  0.8421  1.9796
  405SOL     OW 1213   0.080   0.293   1.712  0.5346 -0.2069  0.1897
  405SOL    HW1 1214   0.177   0.323   1.696 -1.7939  2.9825 -0.7958
  405SOL    HW2 1215   0.031   0.351   1.784 -0.9996  4.1223  0.9139
  406SOL     OW 1216   1.502   1.458   2.505  0.2940 -0.0798 -0.1865
  406SOL    HW1 1217   1.512   1.521   2.581 -2.2688  1.4582  1.0715
  406SOL    HW2 1218   1.510   1.494   2.409 -2.4326  0.5267 -2.6216
  407SOL     OW 1219   1.670   0.775   2.742 -0.2676  0.0229  0.7964
  407SOL    HW1 1220   1.759   0.804   2.785 -0.4248 -1.0577  0.7788
  407SOL    HW2 1221   1.682   0.783   2.639  0.8363  0.0481  0.1138
  408SOL     OW 1222   0.767   3.022   2.359  0.1461  0.3813 -0.4671
  408SOL    HW1 1223   0.821   2.967   2.427  0.1400  1.1378  0.0107
  408SOL    HW2 1224   0.719   2.963   2.294  0.6589 -0.8951  0.8713
  409SOL     OW 1225   0.173   2.163   0.964  0.5141  0.1450  0.5618
  409SOL    HW1 1226   0.127   2.103   0.892  0.1285 -2.0504 -3.0573
  409SOL    HW2 1227   0.266   2.121   0.977  0.2247  0.6828 -0.4495
  410SOL     OW 1228   2.401   1.379   0.177 -0.6319 -0.3999  0.4957
  410SOL    HW1 1229   2.328   1.320   0.136 -0.3337 -0.6708 -2.3112
  410SOL    HW2 1230   2.468   1.412   0.107  3.4926  1.1103 -1.3849
  411SOL     OW 1231   0.191   0.141   1.066 -0.5431 -0.4736 -1.0172
  411SOL    HW1 1232   0.159   0.119   1.160 -3.2932  1.2317  0.8693
  411SOL    HW2 1233   0.233   0.055   1.029 -0.6639 -0.4559  1.6479
  412SOL     OW 1234   1.884   0.775   1.585 -0.3790  0.3229  0.0863
  412SOL    HW1 1235   1.929   0.687   1.609 -1.6905 -0.8933 -1.8567
  412SOL    HW2 1236   1.803   0.759   1.528  1.0027 -0.0898  0.4512
  413SOL     OW 1237   0.819   0.221   1.922  0.2471 -0.5181 -0.1528
  413SOL    HW1 1238   0.852   0.161   2.000 -1.1874 -0.2479 -3.0503
  413SOL    HW2 1239   0.756   0.291   1.963  1.1236 -2.5249  0.1923
  414SOL     OW 1240   2.829   1.601   2.576 -0.5139  0.9431  0.0145
  414SOL    HW1 1241   2.905   1.534   2.567  1.9802  0.6143 -1.7306
  414SOL    HW2 1242   2.738   1.552   2.582 -3.0103  1.2899 -0.0253
  415SOL     OW 1243   0.776   2.159   0.170 -0.0586  0.2273  0.3217
  415SOL    HW1 1244   0.859   2.191   0.120  0.0046 -0.7849  0.1004
  415SOL    HW2 1245   0.773   2.204   0.262  0.3940 -2.9375  2.8070
  416SOL     OW 1246   1.824   0.037   2.947  0.4066  0.0872  0.6198
  416SOL    HW1 1247   1.836   0.049   3.045  0.9515 -0.4391 -3.4304
  416SOL    HW2 1248   1.848   0.125   2.893  0.0110  2.0499  1.0844
  417SOL     OW 1249   0.315   0.375   0.594  0.0662 -0.1192 -0.2425
  417SOL    HW1 1250   0.315   0.447   0.660 -1.5164 -1.5717 -4.5258
  417SOL    HW2 1251   0.222   0.330   0.596 -1.7939  0.8331 -0.7758
  418SOL     OW 1252   2.561   2.962   1.093  0.2546  0.1285 -0.5408
  418SOL    HW1 1253   2.555   3.010   1.180 -2.1958  1.5962 -2.0566
  418SOL    HW2 1254   2.661   2.949   1.065  2.0008 -2.2456  0.9800
  419SOL     OW 1255   0.004   2.703   0.480  0.3703  0.1538  0.2959
  419SOL    HW1 1256   3.058   2.748   0.568 -0.3016 -0.0552  0.8614
  419SOL    HW2 1257   0.104   2.682   0.472 -1.6709 -0.2521 -0.4457
  420SOL     OW 1258   0.187   1.333   1.740 -1.1988  0.2395 -0.3303
  420SOL    HW1 1259   0.232   1.422   1.735 -0.7002 -1.0067 -0.0304
  420SOL    HW2 1260   0.213   1.275   1.661 -0.0872  0.6842  1.4561
  421SOL     OW 1261   1.446   2.698   0.775 -0.1191  0.0569  0.6608
  421SOL    HW1 1262   1.434   2.769   0.710  0.4540  0.5746  0.5738
  421SOL    HW2 1263   1.358   2.653   0.798  1.4220  0.3308  1.6767
  422SOL     OW 1264   0.676   0.330   1.365 -0.8398  0.3346  0.1334
  422SOL    HW1 1265   0.725   0.389   1.435  1.0905 -1.6512  1.2442
  422SOL    HW2 1266   0.578   0.312   1.382 -0.5730  1.6998  0.4848
  423SOL     OW 1267   0.833   1.311   1.659 -0.2640 -0.2066  0.0395
  423SOL    HW1 1268   0.861   1.366   1.579  0.0846  0.9996 -0.7525
  423SOL    HW2 1269   0.788   1.225   1.634 -0.4353  1.2007 -0.1575
  424SOL     OW 1270   1.868   2.005   0.230  0.4433  0.2624  0.0417
  424SOL    HW1 1271   1.837   2.089   0.278 -1.9306  1.5201 -0.7612
  424SOL    HW2 1272   1.800   1.932   0.224 -1.5911  1.0312 -2.2597
  425SOL     OW 1273   2.909   0.244   1.990  0.3512  0.3959  0.1311
  425SOL    HW1 1274   2.987   0.210   2.054  2.0572 -2.8912 -0.9115
  425SOL    HW2 1275   2.875   0.170   1.923  0.8194  0.7942 -1.0515
  426SOL     OW 1276   0.141   2.647   2.894 -0.6374 -0.5183  0.2054
  426SOL    HW1 1277   0.111   2.707   2.973  0.7103  3.3993  2.2164
  426SOL    HW2 1278   0.195   2.568   2.934  3.8222  1.4119  0.9893
  427SOL     OW 1279   1.260   0.407   2.954  0.0242 -0.1318  0.0593
  427SOL    HW1 1280   1.258   0.442   3.051 -0.2765  0.8200 -1.1154
  427SOL    HW2 1281   1.171   0.358   2.939  2.0430  3.4294  1.0820
  428SOL     OW 1282   2.846   0.951   1.805 -0.2331  0.0388 -0.2058
  428SOL    HW1 1283   2.786   0.971   1.884 -1.1551 -1.0287 -2.0100
  428SOL    HW2 1284   2.822   1.006   1.719  1.4460 -0.1086 -1.0924
  429SOL     OW 1285   1.941   2.905   1.408  0.0739 -0.6466  0.0578
  429SOL    HW1 1286   1.989   2.918   1.497  0.0189  0.4228  0.7307
  429SOL    HW2 1287   1.967   2.813   1.364  1.9345 -0.3637 -3.3089
  430SOL     OW 1288   1.051   1.596   2.596 -0.1282 -0.2228 -0.4820
  430SOL    HW1 1289   1.021   1.621   2.689  2.7613  1.4311  0.2190
  430SOL    HW2 1290   1.129   1.535   2.608 -3.6425  2.0861  0.6653
  431SOL     OW 1291   2.681   1.687   1.523  0.1377  0.2140 -0.3690
  431SOL    HW1 1292   2.605   1.754   1.534  3.3588 -0.2905  0.7815
  431SOL    HW2 1293   2.728   1.698   1.434 -1.3372 -2.0234 -2.8658
  432SOL     OW 1294   1.102   2.453   2.316 -0.3725 -0.3283 -0.1131
  432SOL    HW1 1295   1.104   2.362   2.364 -0.0668  3.3312 -1.4101
  432SOL    HW2 1296   1.009   2.495   2.308  0.4616 -2.4097 -0.7706
  433SOL     OW 1297   1.797   0.362   2.112 -0.0309 -0.3092  0.0822
  433SOL    HW1 1298   1.861   0.332   2.185  0.5728 -0.0116 -0.5398
  433SOL    HW2 1299   1.715   0.416   2.148  0.0186 -0.4696 -0.0643
  434SOL     OW 1300   0.450   2.261   2.427  0.0501 -0.0695  0.2624
  434SOL    HW1 1301   0.491   2.333   2.487 -1.2759  0.3384 -1.9475
  434SOL    HW2 1302   0.525   2.204   2.380 -1.2197 -0.1670 -0.8783
  435SOL     OW 1303   0.225   3.058   0.113 -0.1250  0.1851 -0.0676
  435SOL    HW1 1304   0.259   0.072   0.076 -1.8721  2.3974  1.3439
  435SOL    HW2 1305   0.249   3.033   0.205 -0.6095  1.9859 -2.9156
  436SOL     OW 1306   0.663   0.765   1.937 -0.1169  0.4570  0.7344
  436SOL    HW1 1307   0.602   0.845   1.922  0.2121 -2.5708  1.9344
  436SOL    HW2 1308   0.647   0.733   2.030 -0.5789  2.5520 -2.6131
  437SOL     OW 1309   0.473   2.263   2.824 -0.4476 -0.0154 -0.4932
  437SOL    HW1 1310   0.413   2.330   2.781 -0.4033  0.5410  2.1379
  437SOL    HW2 1311   0.466   2.278   2.926 -0.9515  0.7221 -0.2324
  438SOL     OW 1312   1.002   1.236   1.121 -0.5722  0.2703  0.1359
  438SOL    HW1 1313   0.958   1.318   1.079 -0.0631  0.4909  2.9395
  438SOL    HW2 1314   1.106   1.232   1.102  1.3282 -0.1535 -0.0267
  439SOL     OW 1315   2.486   1.242   2.455  0.3437 -0.0785  0.2032
  439SOL    HW1 1316   2.542   1.157   2.431  2.0620 -0.5744 -0.7631
  439SOL    HW2 1317   2.394   1.217   2.491 -0.8740  2.6194 -0.9550
  440SOL     OW 1318   0.232   0.737   0.079  0.4337  0.2748  0.0723
  440SOL    HW1 1319   0.309   0.685   0.048 -1.2157 -0.6037  0.8348
  440SOL    HW2 1320   0.172   0.762   0.001 -0.7421  0.4106  1.7152
  441SOL     OW 1321   1.047   2.019   1.698 -0.0019 -0.2877 -0.7070
  441SOL    HW1 1322   1.048   2.117   1.673 -0.9163  0.3923  1.5238
  441SOL    HW2 1323   1.069   1.969   1.610  0.0383  1.5984  0.2871
  442SOL     OW 1324   2.005   1.740   0.794 -0.3721 -0.5192  0.6848
  442SOL    HW1 1325   2.016   1.689   0.882  2.0153  1.1097 -0.8042
  442SOL    HW2 1326   2.098   1.774   0.765 -1.9795 -1.9723 -3.0886
  443SOL     OW 1327   2.541   1.934   2.651 -0.9254 -0.2350 -0.2203
  443SOL    HW1 1328   2.609   1.984   2.588  4.1500 -0.3329 -0.8821
  443SOL    HW2 1329   2.450   1.981   2.650 -0.3721 -2.6432  1.4990
  444SOL     OW 1330   1.898   1.538   2.912  0.4486 -0.2685 -0.4368
  444SOL    HW1 1331   1.818   1.597   2.943  3.4604 -1.8190 -0.7537
  444SOL    HW2 1332   1.961   1.602   2.866  1.4841  1.3157 -0.8837
  445SOL     OW 1333   2.654   2.687   2.001  0.0618 -0.1279 -0.5917
  445SOL    HW1 1334   2.641   2.781   2.025  3.9220  1.3305  0.9082
  445SOL    HW2 1335   2.747   2.674   1.964 -1.6311  2.3912 -1.6458
  446SOL     OW 1336   0.915   0.860   1.609  0.2343  0.1277  0.4493
  446SOL    HW1 1337   0.939   0.814   1.522  1.3480  0.3046  0.7493
  446SOL    HW2 1338   0.882   0.790   1.675 -0.6416  1.9839 -0.7325
  447SOL     OW 1339   0.959   0.993   0.948  0.1729  0.1131  0.5271
  447SOL    HW1 1340   1.024   0.929   0.994  0.8509  0.4909 -0.5259
  447SOL    HW2 1341   0.909   1.042   1.020  4.5599 -0.4885 -0.2850
  448SOL     OW 1342   1.159   1.284   2.347  0.0071 -0.0706 -0.6815
  448SOL    HW1 1343   1.079   1.342   2.366  0.0143 -0.8986 -0.6249
  448SOL    HW2 1344   1.169   1.266   2.246 -0.9336 -0.1990  0.9035
  449SOL     OW 1345   3.048   2.161   2.288  0.1938 -0.0114  0.1469
  449SOL    HW1 1346   3.059   2.098   2.365 -0.7227 -0.4179 -1.7236
  449SOL    HW2 1347   0.015   2.116   2.207  1.3021 -0.0951 -0.8141
  450SOL     OW 1348   2.070   1.658   1.892  0.2650 -0.4275 -0.1216
  450SOL    HW1 1349   2.090   1.703   1.982 -2.2073  3.4523  3.0293
  450SOL    HW2 1350   2.016   1.719   1.830 -0.0000 -1.2725  0.1288
  451SOL     OW 1351   2.506   1.499   1.459 -0.1854 -0.0754  0.3363
  451SOL    HW1 1352   2.582   1.551   1.498 -0.6664 -0.6234 -0.7516
  451SOL    HW2 1353   2.445   1.469   1.531  2.1598  0.2385 -3.1292
  452SOL     OW 1354   0.490   1.307   1.465  0.3023  0.5157  0.2529
  452SOL    HW1 1355   0.416   1.239   1.488  0.1882 -2.2459  0.1934
  452SOL    HW2 1356   0.498   1.339   1.368 -0.2696 -0.7737 -0.6735
  453SOL     OW 1357   0.539   1.097   0.580  0.3647  0.0195  0.3021
  453SOL    HW1 1358   0.454   1.045   0.571 -2.0417  0.4170 -0.5177
  453SOL    HW2 1359   0.601   1.036   0.631 -2.5336  1.8314 -0.4897
  454SOL     OW 1360   0.877   1.618   0.336  0.0898 -0.5173 -0.2890
  454SOL    HW1 1361   0.808   1.541   0.339 -0.5647  0.9461  3.7070
  454SOL    HW2 1362   0.828   1.706   0.350  1.1403  2.3523  2.8384
  455SOL     OW 1363   1.820   0.645   1.196  0.4756 -0.2602 -0.2664
  455SOL    HW1 1364   1.777   0.709   1.266  0.6128  0.4366  1.3877
  455SOL    HW2 1365   1.864   0.568   1.245  0.5738  3.8207 -0.5718
  456SOL     OW 1366   1.613   2.774   0.976 -0.6476 -0.1444  0.4981
  456SOL    HW1 1367   1.544   2.739   0.908 -1.0431 -0.2510 -0.6531
  456SOL    HW2 1368   1.655   2.859   0.941 -1.4101  2.2651  0.5630
  457SOL     OW 1369   1.995   0.371   2.512  0.3681 -0.1767  0.3334
  457SOL    HW1 1370   1.902   0.412   2.527  1.2315  0.6083  1.5665
  457SOL    HW2 1371   2.011   0.342   2.419  0.5221  0.5532 -0.0672
  458SOL     OW 1372   2.572   0.772   2.932  0.4463 -0.5491 -0.0673
  458SOL    HW1 1373   2.487   0.794   2.880  1.3458 -0.8952 -3.4166
  458SOL    HW2 1374   2.653   0.825   2.902  0.5437  1.4546  1.5051
  459SOL     OW 1375   0.099   1.651   1.926 -0.0027 -0.4613 -0.4488
  459SOL    HW1 1376   0.193   1.677   1.960 -2.1105  3.2391 -0.8988
  459SOL    HW2 1377   0.059   1.587   1.995 -2.1136 -1.3685  4.5072
  460SOL     OW 1378   0.461   0.633   3.033 -0.2704 -0.2660 -0.0598
  460SOL    HW1 1379   0.419   0.580   2.957  1.8463 -1.1698 -3.1020
  460SOL    HW2 1380   0.549   0.680   3.005  0.1879  3.1906 -0.0338
  461SOL     OW 1381   0.059   2.312   0.446 -0.0676  0.4500 -0.2893
  461SOL    HW1 1382   0.006   2.227   0.453 -1.3166 -0.0311  2.3634
  461SOL    HW2 1383   0.116   2.326   0.530  1.5091  2.2707 -0.8481
  462SOL     OW 1384   0.112   2.813   1.573 -0.4938  0.2337  0.1850
  462SOL    HW1 1385   0.212   2.792   1.590  1.4749 -2.2922  1.0542
  462SOL    HW2 1386   0.096   2.829   1.475 -0.9941 -2.7177  1.9041
  463SOL     OW 1387   1.796   2.043   1.659  0.0978 -0.1259 -0.4631
  463SOL    HW1 1388   1.760   2.009   1.570  0.2975  0.5977 -0.3283
  463SOL    HW2 1389   1.857   2.127   1.652  2.4961 -1.0417 -0.0261
  464SOL     OW 1390   0.070   2.803   0.731  0.1862 -0.3519 -0.2549
  464SOL    HW1 1391   0.024   2.886   0.762  1.7172  0.0896 -1.4622
  464SOL    HW2 1392   0.168   2.826   0.708 -2.3297 -0.5959 -1.7295
  465SOL     OW 1393   0.349   0.078   1.491 -0.2510  0.4137  0.2786
  465SOL    HW1 1394   0.356   0.109   1.585  1.7872 -1.0983 -4.2853
  465SOL    HW2 1395   0.367   0.151   1.424  0.8122 -1.0575 -2.6305
  466SOL     OW 1396   1.108   2.209   2.437 -0.5926 -0.0542 -0.3779
  466SOL    HW1 1397   1.181   2.242   2.505 -2.5856  1.7012  0.7409
  466SOL    HW2 1398   1.012   2.226   2.472 -1.0285  1.7203 -1.1950
  467SOL     OW 1399   2.940   1.292   1.072 -0.1134 -0.4225 -0.4551
  467SOL    HW1 1400   2.955   1.387   1.107 -0.5746  3.2716 -0.6219
  467SOL    HW2 1401   2.900   1.292   0.976  0.6037 -1.7198  2.0847
  468SOL     OW 1402   2.257   1.999   2.902 -0.5663 -0.0195 -0.0422
  468SOL    HW1 1403   2.270   2.021   2.805 -0.9475 -0.8703  4.3125
  468SOL    HW2 1404   2.168   1.951   2.919 -0.6592  0.2499 -0.2436
  469SOL     OW 1405   1.344   2.109   0.611 -0.6157 -0.2260  0.5027
  469SOL    HW1 1406   1.330   2.112   0.512  1.3203 -1.2101 -0.4403
  469SOL    HW2 1407   1.328   2.016   0.647  0.2817  1.1240  2.5426
  470SOL     OW 1408   2.003   1.707   1.450  0.0726  0.2292  0.0369
  470SOL    HW1 1409   2.086   1.756   1.480 -1.6677 -0.7477 -3.1226
  470SOL    HW2 1410   1.944   1.691   1.531  0.2806 -0.0353 -0.4559
  471SOL     OW 1411   0.451   2.325   0.279  0.4145  0.1643 -0.0138
  471SOL    HW1 1412   0.533   2.322   0.333 -4.0246  3.5694 -1.8603
  471SOL    HW2 1413   0.389   2.248   0.309  2.1744 -0.7394  1.6168
  472SOL     OW 1414   2.384   1.770   2.229 -0.4998 -0.2580 -0.0142
  472SOL    HW1 1415   2.482   1.797   2.245 -0.6821  0.5650  1.8303
  472SOL    HW2 1416   2.375   1.691   2.160  1.4219  1.1306  0.0658
  473SOL     OW 1417   1.286   2.363   0.942  0.1490 -0.3479 -0.2413
  473SOL    HW1 1418   1.188   2.328   0.926  0.9394 -1.8126  0.5355
  473SOL    HW2 1419   1.281   2.459   0.970  0.4016 -3.1179 -0.7789
  474SOL     OW 1420   3.014   0.244   1.328  0.3247  0.1386  0.4258
  474SOL    HW1 1421   2.991   0.289   1.416 -0.1900 -1.5041  0.6111
  474SOL    HW2 1422   2.942   0.236   1.253 -0.5358 -0.7479 -0.0540
  475SOL     OW 1423   2.290   2.807   2.091  0.5297  0.0462 -0.3146
  475SOL    HW1 1424   2.320   2.856   2.173 -2.1196 -1.1164 -0.7509
  475SOL    HW2 1425   2.293   2.879   2.015 -1.0558  2.3735 -0.7284
  476SOL     OW 1426   0.511   0.621   0.821  0.0738  0.4587  0.6649
  476SOL    HW1 1427   0.574   0.540   0.804  0.7891 -0.9477 -0.1228
  476SOL    HW2 1428   0.414   0.593   0.814  4.0144  0.7139  1.4117
  477SOL     OW 1429   0.661   2.050   0.892  0.4155  0.4896 -0.0598
  477SOL    HW1 1430   0.750   2.046   0.945  6.0352  0.9372 -0.8390
  477SOL    HW2 1431   0.606   1.964   0.879 -1.1807  0.9600  0.6533
  478SOL     OW 1432   0.929   2.441   2.738  0.7164 -0.2063  0.3864
  478SOL    HW1 1433   0.937   2.340   2.732  1.6176  2.2050 -1.0955
  478SOL    HW2 1434   0.838   2.467   2.773  1.7631 -0.6256  1.8987
  479SOL     OW 1435   2.817   1.293   1.957  0.0402 -0.2107  0.2163
  479SOL    HW1 1436   2.780   1.208   1.996  0.8573 -2.9310 -0.3001
  479SOL    HW2 1437   2.900   1.279   1.904  1.0513 -1.1600 -0.2257
  480SOL     OW 1438   0.201   2.415   3.041  0.0607  0.3038  0.3887
  480SOL    HW1 1439   0.119   2.399   0.024  0.5565 -1.4680  1.2197
  480SOL    HW2 1440   0.240   2.322   3.023  1.7556 -0.8493  2.7357
  481SOL     OW 1441   1.578   2.868   2.295 -0.5934 -0.2223  0.2566
  481SOL    HW1 1442   1.675   2.864   2.328 -0.9287  0.5521 -0.9947
  481SOL    HW2 1443   1.569   2.959   2.250  2.3642  1.5198  2.1916
  482SOL     OW 1444   1.619   1.983   2.958  0.4693 -0.5883  0.7503
  482SOL    HW1 1445   1.691   2.058   2.966  0.1449  3.1142 -1.3869
  482SOL    HW2 1446   1.587   1.968   2.860  2.2465 -0.0803 -1.1978
  483SOL     OW 1447   1.153   2.554   2.668 -0.1023 -0.3861 -0.1933
  483SOL    HW1 1448   1.220   2.480   2.638 -1.0212  0.5648 -0.1189
  483SOL    HW2 1449   1.058   2.519   2.680 -1.2785  2.3417 -0.1351
  484SOL     OW 1450   0.573   2.761   1.045 -0.1730  0.0207  0.2317
  484SOL    HW1 1451   0.576   2.833   0.973 -0.4447 -1.7518  0.9889
  484SOL    HW2 1452   0.641   2.772   1.120 -0.6809  2.3437 -2.9769
  485SOL     OW 1453   2.260   0.490   0.724  0.1338 -0.3342  0.1523
  485SOL    HW1 1454   2.234   0.582   0.692  0.8163 -1.8804  1.6805
  485SOL    HW2 1455   2.249   0.487   0.826  0.2046  0.8152  0.7700
  486SOL     OW 1456   2.078   2.735   2.363  0.3042  0.3255  0.4702
  486SOL    HW1 1457   2.048   2.709   2.454  2.0684  0.2643 -2.4419
  486SOL    HW2 1458   2.160   2.797   2.368 -0.7027  0.0287  3.5754
  487SOL     OW 1459   0.981   1.564   0.724 -0.1374 -0.5206  0.0667
  487SOL    HW1 1460   0.951   1.531   0.632  3.3214  0.8267 -1.6442
  487SOL    HW2 1461   1.012   1.661   0.714  2.2537  0.0684  1.3882
  488SOL     OW 1462   2.246   0.223   0.101 -0.0685  0.2172  0.1371
  488SOL    HW1 1463   2.275   0.296   0.169 -0.5899  0.2272 -1.2074
  488SOL    HW2 1464   2.177   0.261   0.042 -0.6344 -0.5457  0.4494
  489SOL     OW 1465   1.886   2.969   0.452  0.1244 -0.3491  0.1712
  489SOL    HW1 1466   1.830   2.968   0.538  0.8539  2.9304 -0.9999
  489SOL    HW2 1467   1.958   3.037   0.457 -2.2340 -0.2331 -0.4177
  490SOL     OW 1468   1.543   0.065   2.908  0.1794 -0.1319 -0.0909
  490SOL    HW1 1469   1.521   0.079   3.007  0.9114  1.2942  0.7393
  490SOL    HW2 1470   1.641   0.035   2.907  2.4401 -0.1462  0.1643
  491SOL     OW 1471   0.771   0.024   1.022  0.1168  0.0128 -0.3772
  491SOL    HW1 1472   0.787   0.020   1.124  0.6997  1.4142 -2.0497
  491SOL    HW2 1473   0.863   0.030   0.971  3.3940  0.8397  0.0349
  492SOL     OW 1474   1.896   2.862   0.205 -0.2910 -0.0119  0.0506
  492SOL    HW1 1475   1.909   2.889   0.305 -1.7524  1.6851  1.9974
  492SOL    HW2 1476   1.899   2.764   0.197 -0.7845  2.1792  0.1826
  493SOL     OW 1477   1.331   2.126   2.804 -0.3437 -0.4066 -0.1087
  493SOL    HW1 1478   1.259   2.056   2.803  0.2370 -1.1398 -1.6274
  493SOL    HW2 1479   1.423   2.088   2.781 -1.4772 -1.8065 -0.0130
  494SOL     OW 1480   0.415   1.222   1.114  0.3716 -0.1225  0.4173
  494SOL    HW1 1481   0.463   1.296   1.157 -0.1321  0.0103 -2.2271
  494SOL    HW2 1482   0.484   1.152   1.093 -0.6473  0.4303 -0.8614
  495SOL     OW 1483   2.900   0.656   1.522 -0.4667 -0.1890 -0.4175
  495SOL    HW1 1484   2.956   0.727   1.476  1.0292 -0.0295 -1.3548
  495SOL    HW2 1485   2.843   0.689   1.600 -0.6501  0.1512 -2.5349
  496SOL     OW 1486   2.288   2.433   2.287  0.3434 -0.2193 -0.3114
  496SOL    HW1 1487   2.349   2.487   2.229 -2.3067 -1.2883  1.2914
  496SOL    HW2 1488   2.189   2.456   2.276 -0.2476  1.1520 -1.1666
  497SOL     OW 1489   1.554   1.271   2.700  0.0982 -0.2480  0.8329
  497SOL    HW1 1490   1.620   1.192   2.693  0.0358  0.0590 -2.0480
  497SOL    HW2 1491   1.517   1.302   2.612  0.3056  2.5543 -0.5460
  498SOL     OW 1492   0.922   2.078   0.649 -0.5013 -0.1523  0.0524
  498SOL    HW1 1493   0.979   2.158   0.615 -1.3800  0.8190 -2.1133
  498SOL    HW2 1494   0.826   2.104   0.659 -2.8718 -1.0866  0.9916
  499SOL     OW 1495   0.014   1.568   0.844 -0.2547  0.0687  0.5264
  499SOL    HW1 1496   3.032   1.578   0.759  0.8036  0.1155 -0.3710
  499SOL    HW2 1497   0.088   1.507   0.821  1.8669  0.1362  2.3653
  500SOL     OW 1498   1.273   2.479   0.535  0.0558 -0.1526  0.6742
  500SOL    HW1 1499   1.260   2.522   0.442 -0.9450  3.1907  1.8397
  500SOL    HW2 1500   1.364   2.446   0.542 -0.0895  0.2915 -1.7555
  501SOL     OW 1501   2.056   2.569   1.087 -0.1190 -0.0680 -0.6944
  501SOL    HW1 1502   2.045   2.469   1.092 -0.0555  1.1468 -0.1229
  501SOL    HW2 1503   2.043   2.611   0.996  2.8709 -0.3954 -1.9542
  502SOL     OW 1504   0.160   0.400   1.282 -0.0077  0.2901 -0.6337
  502SOL    HW1 1505   0.081   0.338   1.278  1.8494 -0.3215 -0.6582
  502SOL    HW2 1506   0.129   0.492   1.251 -0.4726  1.8373  1.2930
  503SOL     OW 1507   2.037   0.290   1.708  0.4900 -0.6863 -0.6575
  503SOL    HW1 1508   1.956   0.228   1.682 -2.5852  0.1715  0.4208
  503SOL    HW2 1509   2.104   0.236   1.768 -0.2696  0.4757  0.4378
  504SOL     OW 1510   1.994   0.782   1.867  0.3297 -0.3165  0.7786
  504SOL    HW1 1511   1.953   0.687   1.879 -0.6119 -1.4402 -0.2255
  504SOL    HW2 1512   2.062   0.791   1.787  1.6999 -1.5344 -2.1875
  505SOL     OW 1513   1.147   2.750   2.342  0.6037  0.2221  0.2625
  505SOL    HW1 1514   1.132   2.653   2.348  2.4885 -1.7469  0.2031
  505SOL    HW2 1515   1.240   2.772   2.380  0.1471  4.0995 -0.8880
  506SOL     OW 1516   0.351   0.389   1.720 -0.5632 -0.4080 -0.4383
  506SOL    HW1 1517   0.316   0.352   1.811 -1.3472  2.0813  3.3707
  506SOL    HW2 1518   0.439   0.439   1.735  1.5553  0.5384  0.1252
  507SOL     OW 1519   1.493   0.119   0.092  0.0377 -0.5931 -0.3999
  507SOL    HW1 1520   1.410   0.116   0.151  0.4775 -0.8790 -0.9950
  507SOL    HW2 1521   1.552   0.204   0.120 -0.0085  3.5708 -0.3242
  508SOL     OW 1522   2.081   0.502   2.261 -0.3289 -0.0319 -0.1116
  508SOL    HW1 1523   2.132   0.566   2.202 -2.1372 -2.6941  0.0873
  508SOL    HW2 1524   2.059   0.420   2.210  0.8312 -2.8555 -1.2228
  509SOL     OW 1525   0.625   1.627   2.351  0.3386  0.1735  0.6465
  509SOL    HW1 1526   0.643   1.536   2.392  0.9596 -2.5992 -1.7326
  509SOL    HW2 1527   0.709   1.692   2.360 -0.2295  1.0038  0.7666
  510SOL     OW 1528   2.915   0.567   0.801 -0.4758 -0.5282 -0.4002
  510SOL    HW1 1529   3.008   0.612   0.785 -1.6895  1.5315  1.5810
  510SOL    HW2 1530   2.914   0.549   0.902  0.8139 -1.4002  2.9096
  511SOL     OW 1531   1.663   1.487   1.317 -0.1847  0.2756 -0.5707
  511SOL    HW1 1532   1.680   1.581   1.363  2.1864  2.9062 -0.7702
  511SOL    HW2 1533   1.733   1.418   1.353  0.8305  0.7077  0.0832
  512SOL     OW 1534   0.398   1.482   0.528  0.5003 -0.2043 -0.0697
  512SOL    HW1 1535   0.499   1.501   0.529  1.4722 -1.5866 -0.0667
  512SOL    HW2 1536   0.379   1.408   0.596  0.6631  1.7123  1.5508
  513SOL     OW 1537   0.534   2.118   1.156  0.1057  0.3212 -0.9544
  513SOL    HW1 1538   0.509   2.064   1.073  1.0288 -0.8059  0.6205
  513SOL    HW2 1539   0.554   2.217   1.137  1.3335  1.2077  1.9662
  514SOL     OW 1540   0.261   2.146   0.330  0.1195 -0.3431 -0.1677
  514SOL    HW1 1541   0.173   2.201   0.324  0.2168 -1.3730  0.9711
  514SOL    HW2 1542   0.249   2.051   0.299  1.3751  2.0198  0.2415
  515SOL     OW 1543   2.812   3.020   2.996  0.3497 -0.7376  0.0526
  515SOL    HW1 1544   2.838   2.927   2.979  1.9629  4.9841  2.6201
  515SOL    HW2 1545   2.855   3.063   0.000 -2.2687  1.7634 -0.3866
  516SOL     OW 1546   1.928   3.063   1.185 -0.1008  0.5174 -0.6935
  516SOL    HW1 1547   1.841   0.027   1.212  0.0729  1.2012  1.4057
  516SOL    HW2 1548   1.947   2.977   1.240 -0.8177 -0.5962 -0.3022
  517SOL     OW 1549   1.791   1.425   0.533 -0.8587  0.0560  0.1750
  517SOL    HW1 1550   1.867   1.456   0.593 -0.6591 -1.2135 -2.0659
  517SOL    HW2 1551   1.707   1.406   0.590  0.7416 -2.7230 -0.7612
  518SOL     OW 1552   1.469   0.349   1.016 -0.2887  0.3403 -0.6508
  518SOL    HW1 1553   1.392   0.400   0.978  0.6331  0.1607  0.4633
  518SOL    HW2 1554   1.557   0.392   0.986  1.1433 -1.5558 -0.0409
  519SOL     OW 1555   2.681   2.370   0.320  0.3953  0.1507 -0.3084
  519SOL    HW1 1556   2.762   2.409   0.377  0.2456 -0.5046 -0.5341
  519SOL    HW2 1557   2.729   2.309   0.251 -0.3541  0.1783  1.9037
  520SOL     OW 1558   1.889   2.148   1.972 -0.1623  0.1486  0.3176
  520SOL    HW1 1559   1.826   2.197   2.034  1.3975  0.3542 -0.2330
  520SOL    HW2 1560   1.889   2.045   1.985  1.4737  2.9606 -0.3017
  521SOL     OW 1561   1.551   2.676   2.104  0.0759 -0.1077 -0.1736
  521SOL    HW1 1562   1.466   2.622   2.112  0.8415  3.6115 -1.5709
  521SOL    HW2 1563   1.554   2.751   2.175  0.2454 -1.3462  0.8656
  522SOL     OW 1564   2.775   0.102   1.834  0.3621 -0.3182  0.0984
  522SOL    HW1 1565   2.741   0.171   1.765 -0.5132 -1.0229  0.2288
  522SOL    HW2 1566   2.809   0.018   1.782  1.2087  0.2397 -0.4072
  523SOL     OW 1567   0.984   2.248   1.574  0.1348  0.3293 -0.0962
  523SOL    HW1 1568   0.886   2.254   1.549  2.9839 -1.4383  0.4992
  523SOL    HW2 1569   1.046   2.279   1.495  0.0050  3.3285  0.6002
  524SOL     OW 1570   2.128   2.164   0.030  0.8199  0.7456 -0.1378
  524SOL    HW1 1571   2.186   2.115   3.046  0.0093  1.6943  3.5690
  524SOL    HW2 1572   2.133   2.115   0.121 -2.6392  1.7882 -1.9764
  525SOL     OW 1573   2.980   1.021   0.099  0.3504 -0.1321  0.2412
  525SOL    HW1 1574   3.073   1.022   0.059 -0.2788  0.0755 -1.5335
  525SOL    HW2 1575   2.917   1.065   0.030  2.0705 -0.5888  0.3223
  526SOL     OW 1576   0.733   2.855   0.600 -0.4448  0.0486 -0.0282
  526SOL    HW1 1577   0.782   2.911   0.533 -2.1073 -0.1976 -0.7752
  526SOL    HW2 1578   0.723   2.905   0.695  0.8091  2.7515  0.9555
  527SOL     OW 1579   2.595   1.418   0.590 -0.4994 -0.4523 -0.0761
  527SOL    HW1 1580   2.521   1.359   0.631  0.8766  2.8169 -2.4369
  527SOL    HW2 1581   2.557   1.475   0.521  1.9243 -1.7854  0.5430
  528SOL     OW 1582   0.486   0.767   2.428 -0.1286 -0.3363  0.1311
  528SOL    HW1 1583   0.456   0.814   2.515 -1.5713  1.7010  0.5433
  528SOL    HW2 1584   0.407   0.776   2.364  2.0052  2.3925 -0.4203
  529SOL     OW 1585   0.652   1.568   2.960  0.0762  0.5472 -0.1887
  529SOL    HW1 1586   0.567   1.624   2.962 -0.2947 -0.6278  1.9821
  529SOL    HW2 1587   0.637   1.475   2.991  2.7854  1.1646 -1.1532
  530SOL     OW 1588   1.216   0.947   2.061  0.0523  0.0131  0.3957
  530SOL    HW1 1589   1.304   0.990   2.101  1.3085 -1.0861 -0.3146
  530SOL    HW2 1590   1.153   0.920   2.136 -1.0431 -0.6527  1.3728
  531SOL     OW 1591   1.166   2.062   0.014  0.1481 -0.2675 -0.4921
  531SOL    HW1 1592   1.216   2.039   3.012  1.9516 -1.1925  3.1453
  531SOL    HW2 1593   1.075   2.016   0.018  0.0402  0.7524 -0.5034
  532SOL     OW 1594   2.142   0.964   2.802 -0.2148 -0.1226 -0.1342
  532SOL    HW1 1595   2.075   0.901   2.846  1.7130  2.4990 -1.2376
  532SOL    HW2 1596   2.115   1.061   2.807 -1.4580 -1.0114  2.4384
  533SOL     OW 1597   2.959   0.476   1.851  0.3012 -0.5655  0.2489
  533SOL    HW1 1598   2.918   0.397   1.904 -0.2309  0.8108  0.5474
  533SOL    HW2 1599   2.893   0.537   1.804  1.5236 -1.3607  0.8098
  534SOL     OW 1600   1.892   0.069   0.141 -0.5285 -0.5399  0.2362
  534SOL    HW1 1601   1.923   3.050   0.154 -1.2795 -0.4599  1.6354
  534SOL    HW2 1602   1.907   0.121   0.227 -0.8076 -0.7588 -1.1608
  535SOL     OW 1603   0.554   0.182   2.786 -0.0865  0.2873 -0.4315
  535SOL    HW1 1604   0.566   0.170   2.682 -0.2896 -0.1128 -2.0348
  535SOL    HW2 1605   0.639   0.203   2.841 -2.0672  2.3556  0.6276
  536SOL     OW 1606   0.784   1.917   1.690 -0.1075 -0.1714 -0.2302
  536SOL    HW1 1607   0.722   1.856   1.641 -1.0148 -1.3449  0.4767
  536SOL    HW2 1608   0.872   1.926   1.641 -0.6143  0.9211 -1.0072
  537SOL     OW 1609   2.979   2.598   1.580  0.1066 -0.3021 -0.4665
  537SOL    HW1 1610   3.075   2.645   1.582  1.5577 -1.4077  2.4894
  537SOL    HW2 1611   2.917   2.671   1.550  0.4106 -2.5512 -1.9201
  538SOL     OW 1612   3.005   2.074   0.483 -0.0788  0.1339 -0.0008
  538SOL    HW1 1613   2.921   2.116   0.535 -0.3899  1.1638 -0.7157
  538SOL    HW2 1614   2.970   1.987   0.434 -2.1219  0.0928 -0.2057
  539SOL     OW 1615   2.383   0.877   2.771 -0.5525 -0.4190 -0.1283
  539SOL    HW1 1616   2.281   0.905   2.772 -0.8458 -2.1582 -2.5698
  539SOL    HW2 1617   2.448   0.955   2.791 -0.4043 -1.1503  1.3677
  540SOL     OW 1618   2.009   0.743   0.124  0.0874 -0.0121  0.4816
  540SOL    HW1 1619   1.991   0.841   0.097 -1.3438  2.1250  0.8721
  540SOL    HW2 1620   1.932   0.685   0.154  2.2643  0.1953  0.5326
  541SOL     OW 1621   0.965   0.544   2.099 -0.1366  0.5528 -0.1062
  541SOL    HW1 1622   0.962   0.611   2.174 -0.6738  3.0927 -4.4301
  541SOL    HW2 1623   0.875   0.500   2.086  0.4934  1.0589  0.5574
  542SOL     OW 1624   1.683   2.435   1.991 -0.5746  0.0153 -0.3909
  542SOL    HW1 1625   1.637   2.510   2.037 -0.7998 -0.5459 -1.6386
  542SOL    HW2 1626   1.737   2.466   1.908  1.0817  0.3039 -1.5846
  543SOL     OW 1627   0.989   2.672   0.319 -0.4220 -0.0141  0.1082
  543SOL    HW1 1628   0.961   2.767   0.337  3.0866  0.0931 -0.2704
  543SOL    HW2 1629   0.935   2.631   0.242  2.0873  0.0585 -1.4089
  544SOL     OW 1630   2.924   1.911   2.041  0.1802 -0.0844  0.4615
  544SOL    HW1 1631   3.011   1.954   2.079 -0.3235  0.7468 -0.4713
  544SOL    HW2 1632   2.887   1.840   2.103  2.0778  1.3089  1.4890
  545SOL     OW 1633   1.419   2.078   1.491 -0.0399  0.3343 -0.0303
  545SOL    HW1 1634   1.379   2.017   1.563 -1.9705 -0.1854  0.8672
  545SOL    HW2 1635   1.344   2.121   1.441 -0.3604  0.1172 -0.9112
  546SOL     OW 1636   0.307   0.157   2.244 -0.3030  0.4363 -0.1669
  546SOL    HW1 1637   0.391   0.163   2.188 -1.3386 -3.1107 -0.2173
  546SOL    HW2 1638   0.286   0.064   2.272 -0.2411  0.4335 -4.4300
  547SOL     OW 1639   1.027   0.141   0.380 -0.4926 -0.5651  0.1500
  547SOL    HW1 1640   0.961   0.169   0.308  0.9475 -0.5711 -2.1293
  547SOL    HW2 1641   1.027   0.208   0.454  4.4222  0.9896  0.4796
  548SOL     OW 1642   1.514   1.973   0.150  0.1543  0.1715 -0.0102
  548SOL    HW1 1643   1.544   2.069   0.175 -2.3885 -1.2367  0.7726
  548SOL    HW2 1644   1.533   1.951   0.051 -0.5404  1.5480 -0.1945
  549SOL     OW 1645   2.180   1.083   0.505 -0.7408  0.3689 -0.0937
  549SOL    HW1 1646   2.139   1.102   0.413  0.2159 -2.2970  0.7259
  549SOL    HW2 1647   2.282   1.067   0.491  1.5163  1.3323  0.2303
  550SOL     OW 1648   2.516   2.228   0.508 -0.4447 -0.4258  0.3839
  550SOL    HW1 1649   2.485   2.146   0.457 -1.1432  0.6681  1.6602
  550SOL    HW2 1650   2.549   2.306   0.450  0.9323  0.4210  1.4438
  551SOL     OW 1651   1.183   0.425   1.402  0.6492  0.0991  0.2633
  551SOL    HW1 1652   1.260   0.396   1.348 -1.7409 -2.4279  0.6140
  551SOL    HW2 1653   1.144   0.349   1.454  0.7757  0.8958 -0.8476
  552SOL     OW 1654   2.982   2.005   2.934  0.4105 -0.2792  0.6089
  552SOL    HW1 1655   3.049   1.937   2.910 -0.0479  2.0462  1.6378
  552SOL    HW2 1656   2.910   1.979   2.999  0.2449  1.8709 -0.0460
  553SOL     OW 1657   2.744   2.687   0.746 -0.1772 -0.1652  0.0622
  553SOL    HW1 1658   2.718   2.722   0.838 -1.5766  2.0110 -2.1675
  553SOL    HW2 1659   2.788   2.592   0.745  1.7651 -2.0191  1.4973
  554SOL     OW 1660   1.912   1.222   1.705 -0.1330 -0.6845 -0.3899
  554SOL    HW1 1661   1.973   1.147   1.676  0.2187 -0.2195  1.4070
  554SOL    HW2 1662   1.958   1.283   1.770  0.8015 -0.3362  1.8215
  555SOL     OW 1663   1.211   2.205   2.033 -0.3824  0.4819 -0.1744
  555SOL    HW1 1664   1.121   2.253   2.049 -1.0513 -2.7532  0.7039
  555SOL    HW2 1665   1.197   2.108   1.997 -0.4655 -0.4922 -2.7904
  556SOL     OW 1666   1.413   1.433   1.709  0.2581 -0.1499 -0.0564
  556SOL    HW1 1667   1.406   1.461   1.811  2.6235 -0.6875  4.0906
  556SOL    HW2 1668   1.510   1.406   1.696  0.2066  0.3677  0.3837
  557SOL     OW 1669   1.553   0.097   1.770  0.0843  0.1636 -0.3923
  557SOL    HW1 1670   1.570   3.077   1.757 -0.7571  0.9062 -0.5462
  557SOL    HW2 1671   1.454   0.105   1.801 -4.4445 -2.9138 -1.9344
  558SOL     OW 1672   0.437   2.853   2.094  0.1820 -0.0115 -0.6269
  558SOL    HW1 1673   0.386   2.889   2.011  0.7470 -2.3344 -0.7086
  558SOL    HW2 1674   0.398   2.878   2.180 -1.1955 -2.7031 -0.3207
  559SOL     OW 1675   1.627   2.450   0.348 -0.4395 -0.4572 -0.1234
  559SOL    HW1 1676   1.641   2.510   0.269  2.8878 -1.6883 -1.4841
  559SOL    HW2 1677   1.626   2.508   0.432  1.5653 -1.0684  0.0747
  560SOL     OW 1678   1.305   2.045   0.334  0.3397 -0.3154 -0.3219
  560SOL    HW1 1679   1.386   2.010   0.287 -1.5650  2.8980  2.1556
  560SOL    HW2 1680   1.280   2.134   0.285 -2.6449 -0.3502  0.9201
  561SOL     OW 1681   1.403   0.342   0.368  0.0207 -0.0997  0.1155
  561SOL    HW1 1682   1.485   0.309   0.414 -3.8442 -0.1728 -0.0877
  561SOL    HW2 1683   1.347   0.262   0.347 -2.7649  1.0052  1.9190
  562SOL     OW 1684   0.634   1.435   1.919 -0.1991  0.5753 -0.0755
  562SOL    HW1 1685   0.716   1.490   1.924 -2.2624  0.1769 -1.0268
  562SOL    HW2 1686   0.603   1.437   1.827 -1.2138 -0.7446  1.4378
  563SOL     OW 1687   1.578   1.951   2.698 -0.2892  0.4874  0.1273
  563SOL    HW1 1688   1.532   1.892   2.628  0.0504  1.6226 -1.0277
  563SOL    HW2 1689   1.664   1.994   2.655  1.1317 -0.0404 -1.8097
  564SOL     OW 1690   2.803   0.971   0.881  0.0034 -0.1130 -0.4016
  564SOL    HW1 1691   2.749   0.883   0.858 -1.5076  0.5746 -2.6433
  564SOL    HW2 1692   2.832   0.981   0.977 -3.5120  0.4721 -0.9636
  565SOL     OW 1693   0.615   1.298   3.027 -0.0407  0.3853 -0.5636
  565SOL    HW1 1694   0.577   1.247   2.946  0.5567 -0.5673 -1.8684
  565SOL    HW2 1695   0.699   1.255   3.062 -0.4575  0.9547  1.9527
  566SOL     OW 1696   2.239   2.833   2.782 -0.0564 -0.3814 -0.4264
  566SOL    HW1 1697   2.296   2.900   2.844 -1.1340  0.7711  2.7775
  566SOL    HW2 1698   2.182   2.770   2.838  1.0769  0.5245 -1.5370
  567SOL     OW 1699   1.454   1.255   1.330 -0.0283  0.1687 -0.6204
  567SOL    HW1 1700   1.522   1.333   1.331 -1.2073 -0.1087  0.3497
  567SOL    HW2 1701   1.385   1.258   1.408  1.6520 -2.5914 -1.8545
  568SOL     OW 1702   1.404   1.108   2.954  0.3668 -0.6893 -0.0146
  568SOL    HW1 1703   1.347   1.112   3.040  1.1504 -1.2189  1.8172
  568SOL    HW2 1704   1.457   1.197   2.937  0.6501 -1.0668 -1.5013
  569SOL     OW 1705   2.140   2.003   0.290 -0.4085  0.3615 -0.2107
  569SOL    HW1 1706   2.043   1.991   0.267 -0.0670  1.3835 -1.0304
  569SOL    HW2 1707   2.151   2.074   0.363 -2.6259  1.5933  3.5549
  570SOL     OW 1708   2.801   2.248   2.327 -0.0682 -0.3303 -0.4082
  570SOL    HW1 1709   2.794   2.350   2.327  3.1499  3.7643 -1.5713
  570SOL    HW2 1710   2.895   2.218   2.302  1.2250  0.2073 -0.4774
  571SOL     OW 1711   2.950   1.930   1.762  0.0281  0.3011  0.0857
  571SOL    HW1 1712   3.000   1.856   1.708  1.1961 -1.4371 -1.5151
  571SOL    HW2 1713   2.942   1.897   1.858 -1.5070 -0.9728  1.1096
  572SOL     OW 1714   1.557   2.217   0.232  0.2581 -0.0583 -0.3742
  572SOL    HW1 1715   1.459   2.241   0.241  0.3707 -2.6249  1.6161
  572SOL    HW2 1716   1.608   2.292   0.280  0.8180  1.5971  2.7925
  573SOL     OW 1717   1.442   1.686   0.682  0.1310 -0.1931 -0.7738
  573SOL    HW1 1718   1.508   1.701   0.611 -1.3110 -0.6874  0.5297
  573SOL    HW2 1719   1.379   1.766   0.698 -1.0891  1.0612 -1.0845
  574SOL     OW 1720   1.294   3.069   1.459 -0.6465 -0.1706 -0.3940
  574SOL    HW1 1721   1.362   3.002   1.426 -1.0926 -0.0440  0.7165
  574SOL    HW2 1722   1.301   3.077   1.560  1.7768 -0.9638 -5.7798
  575SOL     OW 1723   0.824   0.697   1.370 -0.3425 -0.6990 -0.3682
  575SOL    HW1 1724   0.750   0.769   1.364  1.1471 -0.7969 -1.0079
  575SOL    HW2 1725   0.805   0.621   1.434 -1.5964 -0.5642 -0.3891
  576SOL     OW 1726   2.818   0.177   1.145 -0.3057 -0.6635 -0.1254
  576SOL    HW1 1727   2.821   0.208   1.051  2.5648  0.2186  3.7374
  576SOL    HW2 1728   2.727   0.132   1.163 -2.3979  1.0830  0.2287
  577SOL     OW 1729   1.759   0.476   2.568 -0.3561 -0.0344 -0.2912
  577SOL    HW1 1730   1.738   0.479   2.669 -0.6013 -0.7809  3.0297
  577SOL    HW2 1731   1.711   0.557   2.525  1.6696  2.0718 -2.0378
  578SOL     OW 1732   1.919   1.568   2.454  0.0025 -0.4268  0.2112
  578SOL    HW1 1733   1.869   1.537   2.538  0.9205 -2.0576 -0.2480
  578SOL    HW2 1734   1.948   1.665   2.454 -1.2585 -0.9085  1.1283
  579SOL     OW 1735   0.347   1.607   1.137  0.2550  0.3183 -0.4280
  579SOL    HW1 1736   0.251   1.635   1.124 -1.2275  0.8929  3.0417
  579SOL    HW2 1737   0.377   1.543   1.063 -0.1495 -2.2139 -1.3936
  580SOL     OW 1738   1.337   2.362   2.927  0.6083 -0.2022  0.1024
  580SOL    HW1 1739   1.415   2.367   2.987 -1.7623 -1.1466 -3.7544
  580SOL    HW2 1740   1.340   2.276   2.871  0.1964 -0.0619 -0.9557
  581SOL     OW 1741   0.946   0.895   2.152  0.1089 -0.1661  0.5445
  581SOL    HW1 1742   0.932   0.994   2.154 -0.2436 -2.1519  1.5724
  581SOL    HW2 1743   0.982   0.864   2.062  0.6926  1.6383 -1.0816
  582SOL     OW 1744   0.617   1.059   1.043 -0.1161 -0.3070  0.2626
  582SOL    HW1 1745   0.626   0.969   0.998  1.3879  2.8704  0.4910
  582SOL    HW2 1746   0.671   1.131   0.999  0.3329 -2.8523 -2.3935
  583SOL     OW 1747   0.881   1.575   1.898 -0.2176  0.4560 -0.2521
  583SOL    HW1 1748   0.942   1.559   1.821  0.0848 -0.2426 -1.0872
  583SOL    HW2 1749   0.932   1.577   1.985  2.7230  0.9245 -0.7884
  584SOL     OW 1750   2.057   2.647   0.387  0.1009 -0.7862  0.4378
  584SOL    HW1 1751   1.977   2.632   0.450 -2.2437 -0.6106  2.8143
  584SOL    HW2 1752   2.119   2.723   0.411  1.8919  0.2725 -1.6349
  585SOL     OW 1753   1.864   0.557   3.019 -0.7159 -0.1824 -0.2053
  585SOL    HW1 1754   1.826   0.591   0.030 -1.3595 -0.2782 -0.2334
  585SOL    HW2 1755   1.790   0.556   2.944 -0.9937 -0.9754 -4.0056
  586SOL     OW 1756   0.183   1.649   0.515 -0.1838  0.1158 -0.1546
  586SOL    HW1 1757   0.108   1.596   0.473 -1.3664 -0.3455  0.9457
  586SOL    HW2 1758   0.264   1.585   0.509  1.9668  1.2591 -0.0165
  587SOL     OW 1759   1.706   1.897   0.897  0.6602 -0.3850 -0.0805
  587SOL    HW1 1760   1.702   1.984   0.849  2.2396  0.6510  2.0304
  587SOL    HW2 1761   1.717   1.816   0.832  0.4539  0.5307 -1.2153
  588SOL     OW 1762   0.466   0.241   0.985  0.1482  0.3267  0.0457
  588SOL    HW1 1763   0.370   0.242   0.961  1.9133 -0.0433 -0.0159
  588SOL    HW2 1764   0.495   0.153   1.025 -0.8749  0.2971 -0.4442
  589SOL     OW 1765   1.235   0.467   0.926 -0.1569 -0.1494 -0.0349
  589SOL    HW1 1766   1.182   0.405   0.864 -0.2872  1.7892 -1.0807
  589SOL    HW2 1767   1.176   0.533   0.965  1.9049 -0.5707 -1.1258
  590SOL     OW 1768   1.430   0.840   0.306  0.0290  0.7026 -0.4825
  590SOL    HW1 1769   1.330   0.856   0.314  2.4992  0.7525  0.1265
  590SOL    HW2 1770   1.466   0.816   0.397 -0.8731 -2.0345  0.4739
  591SOL     OW 1771   2.620   2.617   2.460 -0.3536  0.0248  0.4392
  591SOL    HW1 1772   2.588   2.535   2.515 -0.3851  0.8194 -0.6561
  591SOL    HW2 1773   2.678   2.582   2.381  1.1816 -3.4494  0.0502
  592SOL     OW 1774   1.419   2.015   0.973  0.2760 -0.3590 -0.8598
  592SOL    HW1 1775   1.520   2.032   0.951  0.7154 -0.2365 -1.0670
  592SOL    HW2 1776   1.394   2.084   1.045 -0.9416  0.5939  2.2109
  593SOL     OW 1777   0.970   0.027   0.799  0.0009  0.4000  0.2807
  593SOL    HW1 1778   0.932   0.024   0.706 -0.5880  1.3389  0.5056
  593SOL    HW2 1779   1.069   0.001   0.793  0.5030  1.4826 -0.5262
  594SOL     OW 1780   0.292   1.051   2.030  0.1577  0.2966  0.4781
  594SOL    HW1 1781   0.241   1.139   2.053  0.8447  0.7978 -2.2216
  594SOL    HW2 1782   0.229   0.978   1.998  1.2825 -0.5640 -0.6414
  595SOL     OW 1783   0.378   2.572   1.181  0.0662  0.0233 -0.3854
  595SOL    HW1 1784   0.357   2.596   1.278 -1.2401  0.8094 -0.7802
  595SOL    HW2 1785   0.433   2.647   1.139 -0.5026  0.8545  0.7886
  596SOL     OW 1786   0.153   0.903   1.585  0.0912  0.5969 -0.0981
  596SOL    HW1 1787   0.232   0.838   1.606  1.5137 -0.8763 -0.5685
  596SOL    HW2 1788   0.120   0.942   1.673  3.0505  1.2712  1.1356
  597SOL     OW 1789   1.962   1.731   0.363  0.1466  0.9284  0.8917
  597SOL    HW1 1790   1.954   1.791   0.445  0.6415 -0.5432 -0.0105
  597SOL    HW2 1791   2.057   1.692   0.356 -1.1393  0.3886  1.0709
  598SOL     OW 1792   0.437   2.681   1.755 -0.2587 -0.2282 -0.2489
  598SOL    HW1 1793   0.517   2.646   1.704  1.2022  1.5495 -0.1331
  598SOL    HW2 1794   0.401   2.604   1.804  1.7437  1.2641 -1.8784
  599SOL     OW 1795   2.498   2.076   3.013  0.5005  0.3065  0.3319
  599SOL    HW1 1796   2.411   2.039   2.971 -2.1407 -1.0198 -3.8404
  599SOL    HW2 1797   2.534   2.007   0.003  0.0131 -3.4603  1.4819
  600SOL     OW 1798   0.691   0.908   0.157  1.0615 -0.3192 -0.4306
  600SOL    HW1 1799   0.747   0.977   0.104  0.8787  0.5561 -1.2849
  600SOL    HW2 1800   0.688   0.934   0.254  3.8758  1.7647  1.8484
  601SOL     OW 1801   1.047   0.941   0.438 -0.0463  0.1907 -0.3959
  601SOL    HW1 1802   1.087   1.030   0.470 -0.2447  0.9714 -0.3910
  601SOL    HW2 1803   0.956   0.927   0.474  1.4228 -2.0122  0.4162
  602SOL     OW 1804   1.372   2.806   1.113 -0.1247 -0.8518  0.6538
  602SOL    HW1 1805   1.312   2.888   1.131 -1.6356 -1.7071 -0.2813
  602SOL    HW2 1806   1.471   2.836   1.105  3.8051  2.0805  0.8739
  603SOL     OW 1807   0.713   2.813   2.181  0.2185 -0.8725 -0.6107
  603SOL    HW1 1808   0.623   2.815   2.135 -1.1880 -1.2390  1.0435
  603SOL    HW2 1809   0.781   2.797   2.110 -0.1833 -0.7497  1.8708
  604SOL     OW 1810   0.037   0.135   2.136 -0.6672 -0.2756  0.0109
  604SOL    HW1 1811   0.067   0.065   2.064 -0.4519  0.3698 -0.8365
  604SOL    HW2 1812   0.114   0.152   2.200  1.0659  1.6605 -3.6234
  605SOL     OW 1813   2.718   2.106   1.312 -0.5422  0.3118 -0.6087
  605SOL    HW1 1814   2.682   2.201   1.307 -0.8104  0.0181  0.6285
  605SOL    HW2 1815   2.751   2.087   1.408 -0.6916 -0.5120  1.7303
  606SOL     OW 1816   0.325   1.497   2.837 -0.0517 -0.1550 -0.3316
  606SOL    HW1 1817   0.306   1.540   2.932 -0.6171 -1.3599 -0.5492
  606SOL    HW2 1818   0.280   1.557   2.769  1.7090 -0.6488  1.0539
  607SOL     OW 1819   0.872   0.392   0.021  0.0537  0.0628 -0.1438
  607SOL    HW1 1820   0.879   0.495   0.033  0.2629  0.8904 -0.0440
  607SOL    HW2 1821   0.937   0.367   3.022  0.2215 -0.2810 -1.0176
  608SOL     OW 1822   1.673   1.075   2.424 -0.9371  0.0624  0.1518
  608SOL    HW1 1823   1.575   1.086   2.448  1.9007  0.0354  0.0159
  608SOL    HW2 1824   1.732   1.120   2.497 -1.6307  0.2421 -1.3919
  609SOL     OW 1825   3.009   0.220   0.815 -0.1811  0.5220  0.0052
  609SOL    HW1 1826   0.005   0.284   0.847  2.4236  0.0338 -0.4008
  609SOL    HW2 1827   2.916   0.244   0.847  2.2677 -0.4668  0.7431
  610SOL     OW 1828   0.516   2.254   0.025 -0.3641 -0.1515 -0.1167
  610SOL    HW1 1829   0.534   2.154   0.036 -0.7864 -0.6799 -3.1065
  610SOL    HW2 1830   0.487   2.295   0.113 -0.7986 -0.5173 -0.9975
  611SOL     OW 1831   1.796   1.137   0.455  0.1268 -0.1737  0.2169
  611SOL    HW1 1832   1.869   1.143   0.387 -2.1205 -0.3366 -0.1168
  611SOL    HW2 1833   1.758   1.229   0.479 -1.8124  0.4248  0.4926
  612SOL     OW 1834   0.818   2.335   2.476 -0.6075  0.3670 -0.2707
  612SOL    HW1 1835   0.784   2.249   2.518 -2.0035  1.3058 -1.4503
  612SOL    HW2 1836   0.826   2.409   2.545  0.6715 -0.0474  0.7827
  613SOL     OW 1837   0.973   2.169   2.785 -0.1049  0.7429 -0.3826
  613SOL    HW1 1838   1.021   2.077   2.780 -1.0743 -0.6676 -1.0049
  613SOL    HW2 1839   0.916   2.169   2.869  1.7042  1.2075 -1.2594
  614SOL     OW 1840   2.832   2.806   1.478  0.3667  0.2110  0.0590
  614SOL    HW1 1841   2.873   2.879   1.415 -0.6945 -0.7072  0.6142
  614SOL    HW2 1842   2.750   2.765   1.427 -0.2082 -2.1955 -2.2587
  615SOL     OW 1843   2.214   1.271   0.029 -0.3765  0.1413 -0.2743
  615SOL    HW1 1844   2.110   1.274   0.028  1.1894 -0.8009 -1.1373
  615SOL    HW2 1845   2.247   1.319   3.024  0.1634  0.1574 -0.3469
  616SOL     OW 1846   1.659   0.171   0.420  0.3821 -0.0698 -0.6007
  616SOL    HW1 1847   1.671   0.209   0.325  0.4909 -1.6941 -0.5625
  616SOL    HW2 1848   1.731   0.217   0.474  0.3492 -0.4888 -0.5407
  617SOL     OW 1849   0.812   1.126   0.022  0.6596 -0.2735 -0.1813
  617SOL    HW1 1850   0.883   1.088   3.036  2.7441  2.3373  0.3970
  617SOL    HW2 1851   0.856   1.194   0.076 -0.5347 -2.2081 -2.0001
  618SOL     OW 1852   0.554   0.602   1.714 -0.0376  0.5454  0.2274
  618SOL    HW1 1853   0.468   0.658   1.687 -2.6737  2.9289  1.9484
  618SOL    HW2 1854   0.612   0.654   1.779  3.0344  0.4969  0.0402
  619SOL     OW 1855   0.263   1.162   1.518  0.0098 -0.5206  0.1990
  619SOL    HW1 1856   0.202   1.216   1.463  0.0175  2.1872  1.4197
  619SOL    HW2 1857   0.232   1.066   1.511  0.8107 -0.9507 -1.8066
  620SOL     OW 1858   1.918   1.013   0.085  0.6161 -0.9544 -0.0662
  620SOL    HW1 1859   1.837   1.078   0.099 -1.7003  0.3275  0.6266
  620SOL    HW2 1860   1.960   1.015   3.067 -0.0815  0.7996 -1.8783
  621SOL     OW 1861   2.179   2.846   1.197 -0.5310  0.2713  0.4543
  621SOL    HW1 1862   2.207   2.940   1.224  2.0724 -0.4053 -1.7052
  621SOL    HW2 1863   2.223   2.780   1.264  1.0427  1.4091  1.2266
  622SOL     OW 1864   1.334   0.669   2.531  0.1083 -0.1614 -0.2675
  622SOL    HW1 1865   1.334   0.691   2.629 -0.8543 -1.1698 -1.3796
  622SOL    HW2 1866   1.286   0.583   2.510  3.1022 -0.8597  0.0460
  623SOL     OW 1867   1.051   0.250   2.910  0.3087 -0.3834 -0.2133
  623SOL    HW1 1868   1.056   0.278   2.810 -1.7705 -0.4086 -1.0202
  623SOL    HW2 1869   1.073   0.156   2.923 -1.0975  2.9780 -2.8722
  624SOL     OW 1870   1.706   0.493   0.428  0.5187  0.2725 -0.2159
  624SOL    HW1 1871   1.622   0.493   0.486 -0.9443  1.2871  2.0069
  624SOL    HW2 1872   1.782   0.447   0.481  1.8528 -1.8687  1.6859
  625SOL     OW 1873   0.692   1.302   0.918  0.3207 -0.0363 -0.3249
  625SOL    HW1 1874   0.772   1.350   0.953 -2.7664 -0.5667  1.9000
  625SOL    HW2 1875   0.617   1.363   0.895  4.9369 -1.4866 -1.0360
  626SOL     OW 1876   1.514   1.089   0.221  0.2171  0.5084 -0.5167
  626SOL    HW1 1877   1.506   1.149   0.302  1.4521  0.7816  0.7914
  626SOL    HW2 1878   1.481   0.999   0.252 -0.4550  0.7677 -1.2190
  627SOL     OW 1879   0.906   2.872   1.981 -0.1602  0.0706  0.0135
  627SOL    HW1 1880   0.957   2.847   1.895 -1.0370  0.7701 -0.2648
  627SOL    HW2 1881   0.966   2.887   2.063 -0.1073  0.0409 -1.6208
  628SOL     OW 1882   2.485   0.229   2.231  0.4507 -0.5901 -0.4603
  628SOL    HW1 1883   2.572   0.283   2.210 -0.3064  1.3974 -0.3400
  628SOL    HW2 1884   2.438   0.282   2.308 -2.5708 -1.0850  3.2756
  629SOL     OW 1885   1.005   1.376   2.908 -0.5304  0.0589  0.1042
  629SOL    HW1 1886   1.077   1.332   2.848  3.1875 -1.6489 -3.6262
  629SOL    HW2 1887   0.965   1.457   2.861  0.0853 -1.7223 -0.8984
  630SOL     OW 1888   1.150   0.121   2.276 -0.2278 -0.0858 -0.4276
  630SOL    HW1 1889   1.088   0.202   2.289 -0.1224 -0.5518 -1.3031
  630SOL    HW2 1890   1.183   0.086   2.366 -1.8877  0.9551 -3.8846
  631SOL     OW 1891   2.664   0.670   0.553  0.1582 -0.5800 -0.4024
  631SOL    HW1 1892   2.694   0.573   0.546 -1.1418  3.6930  0.5530
  631SOL    HW2 1893   2.743   0.725   0.528 -0.7132  0.1177  0.6046
  632SOL     OW 1894   2.398   0.889   1.366  0.0236  0.5828  0.1968
  632SOL    HW1 1895   2.318   0.831   1.385  0.3884  0.6430 -2.3906
  632SOL    HW2 1896   2.399   0.907   1.267 -0.4074  0.2105  0.4276
  633SOL     OW 1897   1.736   0.689   0.941  0.4536 -0.1751  0.1447
  633SOL    HW1 1898   1.763   0.782   0.917  0.1032 -1.6987  0.6948
  633SOL    HW2 1899   1.788   0.663   1.023  3.2647  0.5343  0.6611
  634SOL     OW 1900   1.827   2.908   0.711 -0.1269  0.7965 -0.1178
  634SOL    HW1 1901   1.904   2.904   0.777  2.0871  0.6061  1.8459
  634SOL    HW2 1902   1.747   2.952   0.755  0.3899  0.5453  1.5542
  635SOL     OW 1903   1.681   0.774   1.402  0.2618  0.6823  0.8620
  635SOL    HW1 1904   1.596   0.711   1.408 -2.5044 -0.1730 -1.0007
  635SOL    HW2 1905   1.654   0.863   1.363 -2.7913  2.7327 -0.4754
  636SOL     OW 1906   0.830   0.726   0.593 -0.3711 -0.0607  0.6970
  636SOL    HW1 1907   0.777   0.655   0.540  0.6252 -2.2440 -0.7874
  636SOL    HW2 1908   0.877   0.684   0.672 -0.1691 -0.7933  0.5775
  637SOL     OW 1909   1.834   2.260   0.389  0.1680  0.2280 -0.5791
  637SOL    HW1 1910   1.767   2.339   0.393 -1.3978  0.6851  1.1865
  637SOL    HW2 1911   1.864   2.234   0.483 -0.7727 -0.2685  0.5352
  638SOL     OW 1912   1.389   2.809   2.810  0.1201 -0.6695  0.4151
  638SOL    HW1 1913   1.450   2.873   2.855 -2.1360  1.8337 -3.0859
  638SOL    HW2 1914   1.423   2.718   2.831  0.5723  0.9496  0.2738
  639SOL     OW 1915   0.760   2.068   1.280 -0.0241 -0.4233  0.2449
  639SOL    HW1 1916   0.668   2.074   1.238 -1.1270  1.2767  1.6712
  639SOL    HW2 1917   0.776   2.146   1.340 -0.6353 -3.1995  0.9318
  640SOL     OW 1918   0.095   2.812   0.009 -0.1370  0.3731 -0.0398
  640SOL    HW1 1919   0.022   2.776   0.077  0.9597 -0.5404 -0.4981
  640SOL    HW2 1920   0.129   2.902   0.032  0.6205 -2.1947  0.0606
  641SOL     OW 1921   0.148   0.313   2.941  0.0965  0.6583  0.4570
  641SOL    HW1 1922   0.143   0.344   3.035  0.2607  0.1372 -3.5444
  641SOL    HW2 1923   0.203   0.229   2.933 -1.0388  0.1366  0.5733
  642SOL     OW 1924   0.016   1.070   1.261 -0.3315  0.3143 -0.0863
  642SOL    HW1 1925   3.018   1.100   1.206 -1.4901 -1.9621 -0.0041
  642SOL    HW2 1926   0.073   1.150   1.281 -5.0301 -3.3454  0.3913
  643SOL     OW 1927   0.570   1.804   2.147  0.1738  0.0694  0.2981
  643SOL    HW1 1928   0.560   1.744   2.231 -1.2483 -0.8977 -1.5284
  643SOL    HW2 1929   0.656   1.780   2.101 -1.3920 -1.4446  4.1005
  644SOL     OW 1930   1.626   2.545   0.610 -0.0383 -0.3097  0.1929
  644SOL    HW1 1931   1.600   2.462   0.658 -0.1108 -0.8021  0.4321
  644SOL    HW2 1932   1.577   2.623   0.656  0.2836 -0.1852  1.4684
  645SOL     OW 1933   1.657   2.335   1.241  0.1505  0.4076 -0.5099
  645SOL    HW1 1934   1.638   2.297   1.337 -0.0388  0.4381  2.5279
  645SOL    HW2 1935   1.702   2.426   1.247 -1.2384 -4.3143  0.2864
  646SOL     OW 1936   1.250   2.584   0.285  0.1087 -0.7661 -0.1911
  646SOL    HW1 1937   1.247   2.605   0.185 -1.8045  0.4207 -0.8890
  646SOL    HW2 1938   1.163   2.617   0.329 -0.3963 -0.3443 -2.0550
  647SOL     OW 1939   0.320   2.912   1.833 -0.0304  0.1759 -0.1181
  647SOL    HW1 1940   0.262   2.974   1.776 -1.0483  0.1570  0.4758
  647SOL    HW2 1941   0.363   2.830   1.785  2.1155  1.7666 -1.7086
  648SOL     OW 1942   2.091   0.719   1.125  0.5501 -0.2474 -0.1834
  648SOL    HW1 1943   1.990   0.709   1.137  0.2279  0.3418  1.1265
  648SOL    HW2 1944   2.116   0.809   1.089 -1.2281  0.7053  2.4612
  649SOL     OW 1945   1.853   2.169   2.986  0.0105  0.5909  0.9669
  649SOL    HW1 1946   1.868   2.210   3.077  3.5155 -0.9438  1.1568
  649SOL    HW2 1947   1.867   2.235   2.905  0.3178  1.8104  1.5927
  650SOL     OW 1948   2.496   1.872   1.569 -0.3122 -0.1364  0.8270
  650SOL    HW1 1949   2.491   1.960   1.518 -2.2961  1.0400  1.0720
  650SOL    HW2 1950   2.490   1.885   1.670  0.0285  0.4200 -1.5457
  651SOL     OW 1951   1.545   1.617   2.730  0.4459 -0.1039  0.3256
  651SOL    HW1 1952   1.597   1.640   2.813  1.3032  0.7622 -2.0677
  651SOL    HW2 1953   1.531   1.703   2.678 -2.0357 -0.5636  0.8243
  652SOL     OW 1954   0.879   2.816   2.841  0.2327  0.4004 -0.4166
  652SOL    HW1 1955   0.981   2.820   2.829  0.5042  0.1371  1.1100
  652SOL    HW2 1956   0.845   2.913   2.837 -0.5725  0.7582 -0.0215
  653SOL     OW 1957   2.000   2.295   1.069 -0.0010  0.1259  0.6926
  653SOL    HW1 1958   1.911   2.250   1.089 -3.5971  0.8836 -1.3904
  653SOL    HW2 1959   2.048   2.239   1.005  0.6872 -0.8517 -1.5413
  654SOL     OW 1960   2.753   2.954   2.121 -0.0091 -0.2106  0.2309
  654SOL    HW1 1961   2.714   2.887   2.185  0.8587 -2.3555 -1.8189
  654SOL    HW2 1962   2.680   3.025   2.088  0.1510  2.1550 -0.5684
  655SOL     OW 1963   2.895   2.037   1.087  0.0781  0.2290 -0.2673
  655SOL    HW1 1964   2.858   2.096   1.014 -0.4556 -1.3113  0.0708
  655SOL    HW2 1965   2.866   2.074   1.171  0.5202  0.6605 -0.6910
  656SOL     OW 1966   2.978   2.163   2.735  0.1802 -1.0908 -0.3236
  656SOL    HW1 1967   3.076   2.182   2.720  2.5145  0.5181  1.4909
  656SOL    HW2 1968   2.969   2.107   2.816  2.1703 -0.1660 -4.3621
  657SOL     OW 1969   2.919   0.801   0.436 -0.5771  0.0358  0.1874
  657SOL    HW1 1970   2.874   0.783   0.346 -0.9673  0.6124 -0.9605
  657SOL    HW2 1971   3.022   0.808   0.424  3.3877 -1.2001 -2.7155
  658SOL     OW 1972   1.350   1.801   1.131 -0.2685  0.4393  0.2292
  658SOL    HW1 1973   1.373   1.761   1.221 -0.3466  0.9397 -1.4001
  658SOL    HW2 1974   1.417   1.871   1.102 -2.8191  0.9940  1.9135
  659SOL     OW 1975   1.436   0.349   1.290 -0.1574  0.2283 -0.1649
  659SOL    HW1 1976   1.522   0.326   1.330 -1.3447  1.4969 -0.0801
  659SOL    HW2 1977   1.443   0.342   1.189  0.0823 -1.0649  0.6526
  660SOL     OW 1978   2.029   1.306   0.778 -0.0114 -0.7587  0.4273
  660SOL    HW1 1979   1.972   1.234   0.734 -2.8991 -0.8435  2.5266
  660SOL    HW2 1980   1.994   1.337   0.864  1.0472 -2.2799 -0.8482
  661SOL     OW 1981   0.390   1.559   0.278  0.7196 -0.0448  0.6109
  661SOL    HW1 1982   0.405   1.482   0.215 -0.4360 -0.7147 -0.0253
  661SOL    HW2 1983   0.375   1.521   0.373  2.5166  0.5325  2.1242
  662SOL     OW 1984   2.693   1.070   2.034  0.2150  0.1264  0.2529
  662SOL    HW1 1985   2.720   1.017   2.114  1.5593 -0.6352 -0.8290
  662SOL    HW2 1986   2.595   1.098   2.049 -1.9280  0.8769  1.5723
  663SOL     OW 1987   2.167   1.423   1.357 -0.0861 -0.2114  0.2103
  663SOL    HW1 1988   2.160   1.508   1.306  0.7347  0.6742  1.0475
  663SOL    HW2 1989   2.193   1.448   1.450 -0.8257  1.0663 -0.0855
  664SOL     OW 1990   0.518   0.027   1.112 -0.3243  0.0515 -0.1499
  664SOL    HW1 1991   0.447   3.068   1.049 -2.2788  0.3658 -0.3511
  664SOL    HW2 1992   0.611   0.038   1.064 -0.8059  1.2452  1.8774
  665SOL     OW 1993   1.268   0.037   2.804 -0.0227 -0.3265 -0.2938
  665SOL    HW1 1994   1.364   0.048   2.829  2.5470 -1.8440 -0.9817
  665SOL    HW2 1995   1.208   0.035   2.886 -2.0322  2.7350  1.5896
  666SOL     OW 1996   0.720   0.404   2.093 -0.0080  0.2598  0.5197
  666SOL    HW1 1997   0.693   0.499   2.116  1.8447 -1.4207 -0.3752
  666SOL    HW2 1998   0.722   0.341   2.174 -1.1736  0.2532 -0.2860
  667SOL     OW 1999   1.855   1.305   2.111 -0.5596  0.2124 -0.5774
  667SOL    HW1 2000   1.924   1.329   2.038  1.9362 -0.7047  0.5631
  667SOL    HW2 2001   1.871   1.210   2.154  2.5592 -1.0334  4.5120
  668SOL     OW 2002   0.116   1.314   2.425  0.4888  0.3279  0.4536
  668SOL    HW1 2003   0.036   1.344   2.487 -0.0802  0.7438 -1.0931
  668SOL    HW2 2004   0.172   1.393   2.390  0.1193 -1.7506 -1.8780
  669SOL     OW 2005   2.558   3.060   2.443  0.0242 -0.0787  0.2291
  669SOL    HW1 2006   2.633   3.059   2.512 -2.7771  1.6521 -0.9641
  669SOL    HW2 2007   2.592   0.052   2.373  2.1102  0.9702 -3.2547
  670SOL     OW 2008   2.628   1.031   2.423  0.1106 -0.2571  0.8108
  670SOL    HW1 2009   2.700   0.983   2.366 -0.1196 -0.3867  2.0106
  670SOL    HW2 2010   2.563   0.965   2.468 -1.8193 -1.0488  1.5096
  671SOL     OW 2011   2.566   1.854   0.106 -0.0878 -0.5435  0.1322
  671SOL    HW1 2012   2.594   1.784   0.037  1.0796 -0.2857  0.6856
  671SOL    HW2 2013   2.477   1.823   0.147 -0.6220 -1.3907  1.1859
  672SOL     OW 2014   2.090   1.754   2.155  0.5663  0.5451  0.0253
  672SOL    HW1 2015   2.061   1.674   2.211  0.3698 -0.1617  0.1072
  672SOL    HW2 2016   2.185   1.785   2.182  1.3067 -1.2841 -0.4471
  673SOL     OW 2017   2.733   1.568   1.090  0.5807  0.5169  0.2990
  673SOL    HW1 2018   2.686   1.541   1.006 -0.0374 -0.3638  1.1947
  673SOL    HW2 2019   2.796   1.647   1.072  1.4041  0.4972 -2.6265
  674SOL     OW 2020   1.170   1.948   1.994  0.2314 -0.2183  0.2432
  674SOL    HW1 2021   1.201   1.854   2.008 -1.1290 -1.0146 -0.6058
  674SOL    HW2 2022   1.109   1.953   1.911  1.3635  0.4761 -0.3989
  675SOL     OW 2023   2.922   0.512   1.076  0.0294 -0.4666  0.9651
  675SOL    HW1 2024   2.970   0.558   1.151  2.6666  0.1839 -1.2685
  675SOL    HW2 2025   2.823   0.497   1.097 -2.4427 -1.3864 -0.2119
  676SOL     OW 2026   2.828   1.259   0.832 -0.5043 -0.1163 -0.0426
  676SOL    HW1 2027   2.738   1.291   0.806  1.1035 -0.6629  1.3578
  676SOL    HW2 2028   2.851   1.170   0.785  0.5890 -1.0248 -0.1975
  677SOL     OW 2029   1.526   1.617   2.264 -0.5645 -0.4589  0.3078
  677SOL    HW1 2030   1.626   1.618   2.252 -0.9659 -2.3362 -2.4342
  677SOL    HW2 2031   1.480   1.549   2.205  0.5525 -2.8630  1.6925
  678SOL     OW 2032   2.532   1.265   1.055 -0.1266 -0.1715 -0.0495
  678SOL    HW1 2033   2.526   1.319   0.969  2.4413  1.6368  1.7241
  678SOL    HW2 2034   2.594   1.309   1.118  0.9209 -3.1424 -2.9766
  679SOL     OW 2035   0.478   2.401   0.811 -0.0676  0.3091  0.0570
  679SOL    HW1 2036   0.563   2.442   0.838  1.0595 -1.4115  0.6184
  679SOL    HW2 2037   0.410   2.444   0.870  0.1600  3.3091 -0.0729
  680SOL     OW 2038   2.901   1.769   1.035 -0.4952  0.1873 -0.2246
  680SOL    HW1 2039   2.912   1.754   0.935  0.6975  1.1583 -4.0771
  680SOL    HW2 2040   2.911   1.870   1.051  0.0204  0.7900 -0.1585
  681SOL     OW 2041   0.993   0.560   1.217  0.2099  0.3279  0.0183
  681SOL    HW1 2042   0.930   0.620   1.272  2.8313  0.3951 -0.9312
  681SOL    HW2 2043   1.050   0.511   1.288  0.4216  0.2582 -1.6944
  682SOL     OW 2044   1.617   3.035   0.844  0.1724 -0.3766  0.0703
  682SOL    HW1 2045   1.571   3.074   0.930 -1.4962  1.0447 -0.1370
  682SOL    HW2 2046   1.586   0.018   0.769 -1.4956 -0.3610  0.6660
  683SOL     OW 2047   2.367   1.407   1.652  0.6153 -0.3085 -0.6449
  683SOL    HW1 2048   2.342   1.480   1.718 -0.1151 -0.8638  0.4346
  683SOL    HW2 2049   2.435   1.338   1.695  1.8265 -0.6916  1.7239
  684SOL     OW 2050   0.159   1.718   1.535 -0.0157 -0.2660  0.0391
  684SOL    HW1 2051   0.074   1.699   1.594  0.5212 -1.2052  3.4336
  684SOL    HW2 2052   0.239   1.685   1.595 -1.4428 -1.5534 -0.4306
  685SOL     OW 2053   1.899   1.758   0.089  0.4095  0.0469 -0.0994
  685SOL    HW1 2054   1.929   1.751   0.182 -1.2616  0.8434 -0.1403
  685SOL    HW2 2055   1.807   1.712   0.081  0.5526  0.5679 -2.2606
  686SOL     OW 2056   2.756   0.258   0.898  0.0816  0.1025  0.0852
  686SOL    HW1 2057   2.704   0.344   0.903  2.6933 -1.0734 -1.1930
  686SOL    HW2 2058   2.697   0.179   0.869 -1.2687  1.8885 -0.4182
  687SOL     OW 2059   1.775   0.150   2.559  0.2559  0.4582  0.4273
  687SOL    HW1 2060   1.787   0.048   2.581  1.5340 -1.3306  0.8071
  687SOL    HW2 2061   1.797   0.207   2.636 -1.1399 -1.1490 -3.2232
  688SOL     OW 2062   1.452   2.137   2.212  0.1868  0.4420 -0.3405
  688SOL    HW1 2063   1.465   2.035   2.239  2.3194 -1.9650  1.2416
  688SOL    HW2 2064   1.360   2.158   2.169  0.1016  0.0155  0.0540
  689SOL     OW 2065   2.474   1.544   2.024  0.0567 -0.1923  0.2661
  689SOL    HW1 2066   2.417   1.576   1.944 -2.0273  1.8522  0.6289
  689SOL    HW2 2067   2.572   1.535   1.996  3.5674  0.0753  0.3921
  690SOL     OW 2068   1.712   1.926   1.167  0.3761 -0.1791  0.3083
  690SOL    HW1 2069   1.706   1.931   1.068  0.6077 -0.3443  2.4060
  690SOL    HW2 2070   1.765   1.843   1.190 -0.1034  1.1345 -1.2890
  691SOL     OW 2071   0.367   1.294   0.706  0.2163  0.2157  0.8363
  691SOL    HW1 2072   0.435   1.234   0.664 -1.0689  1.1644 -0.2030
  691SOL    HW2 2073   0.299   1.240   0.754  1.6820  2.4849 -1.4016
  692SOL     OW 2074   2.304   2.941   2.365 -0.2615  0.3302 -0.4836
  692SOL    HW1 2075   2.337   2.867   2.436  1.7343 -1.4800  2.5536
  692SOL    HW2 2076   2.376   3.014   2.365  0.5275 -0.5331  0.0896
  693SOL     OW 2077   0.018   1.484   2.118  0.0364  0.1314 -0.3188
  693SOL    HW1 2078   3.001   1.475   2.154  0.6242  0.5124 -0.0343
  693SOL    HW2 2079   0.084   1.518   2.189  1.8521 -1.4081  1.3647
  694SOL     OW 2080   2.235   0.161   1.510 -0.0453 -0.1377  0.2883
  694SOL    HW1 2081   2.145   0.181   1.550 -0.1659 -1.2036 -0.4501
  694SOL    HW2 2082   2.303   0.174   1.582 -1.4751 -0.0097  0.1776
  695SOL     OW 2083   1.024   1.037   2.892 -0.8178 -0.2341  0.7164
  695SOL    HW1 2084   1.070   0.961   2.943 -2.9399  0.8181  0.3767
  695SOL    HW2 2085   1.089   1.078   2.826 -1.5280 -1.1261 -1.2447
  696SOL     OW 2086   1.795   0.131   1.939  0.2026  0.4765 -0.6198
  696SOL    HW1 2087   1.802   0.207   2.003  1.1289  0.1165 -0.6152
  696SOL    HW2 2088   1.715   0.134   1.877 -1.7798  0.3938 -0.5170
  697SOL     OW 2089   1.568   0.041   2.202  0.8987 -0.5952 -0.3107
  697SOL    HW1 2090   1.549   0.120   2.265  0.3176  2.6667 -3.2956
  697SOL    HW2 2091   1.632   0.072   2.129  0.4617 -3.2656  0.5256
  698SOL     OW 2092   1.797   1.568   2.198  0.2663 -0.1226 -0.0079
  698SOL    HW1 2093   1.830   1.553   2.296  1.3565  1.1841  1.4416
  698SOL    HW2 2094   1.799   1.478   2.160 -0.0592  2.2818  1.6317
  699SOL     OW 2095   2.007   0.607   0.429  0.6235 -0.0888  0.1500
  699SOL    HW1 2096   1.983   0.692   0.384  0.9030 -1.5943  1.0113
  699SOL    HW2 2097   1.976   0.608   0.529  0.3290  0.4201  0.4379
  700SOL     OW 2098   1.285   0.085   0.285 -0.0899 -0.8256 -0.3614
  700SOL    HW1 2099   1.209   0.127   0.340  0.3773  2.0842  0.7377
  700SOL    HW2 2100   1.281   3.064   0.297  0.4733 -4.1016  1.1407
  701SOL     OW 2101   0.249   0.557   0.800  0.1551 -0.3918 -0.3319
  701SOL    HW1 2102   0.201   0.485   0.853 -1.5040 -0.8615  0.6289
  701SOL    HW2 2103   0.191   0.641   0.797  2.7261 -2.2889 -2.5695
  702SOL     OW 2104   1.827   0.127   1.605 -0.3090 -0.4199  0.5014
  702SOL    HW1 2105   1.762   0.205   1.596 -0.3578 -0.2317  0.7639
  702SOL    HW2 2106   1.787   0.041   1.568  1.8938  1.3923  0.0286
  703SOL     OW 2107   2.833   1.051   1.536  0.1659 -0.0996  0.4353
  703SOL    HW1 2108   2.906   0.988   1.493  1.9414 -1.4367 -1.5101
  703SOL    HW2 2109   2.746   1.054   1.480  2.1858  2.8435 -0.5425
  704SOL     OW 2110   0.743   2.493   1.344 -0.1088 -0.3718 -0.0614
  704SOL    HW1 2111   0.782   2.585   1.310 -1.8056  1.5789  0.7577
  704SOL    HW2 2112   0.690   2.437   1.273 -0.5831 -1.1294 -0.1312
  705SOL     OW 2113   0.240   1.519   2.293 -0.9463  0.0532  0.5637
  705SOL    HW1 2114   0.310   1.495   2.220 -2.4386 -1.4489 -2.9671
  705SOL    HW2 2115   0.264   1.596   2.345  0.9426 -1.4719 -1.5722
  706SOL     OW 2116   2.871   0.300   3.065  0.4046  0.3226  0.2152
  706SOL    HW1 2117   2.903   0.222   0.047 -1.8738 -1.2890 -0.0654
  706SOL    HW2 2118   2.852   0.280   2.971  1.2405 -0.7904  2.1409
  707SOL     OW 2119   1.608   2.527   2.468  0.1516 -0.0491 -0.5314
  707SOL    HW1 2120   1.616   2.579   2.384 -0.4021  0.6700  1.9545
  707SOL    HW2 2121   1.592   2.429   2.457 -2.8720 -0.5873  0.3247
  708SOL     OW 2122   0.288   2.414   1.604  0.2284 -0.5026 -0.0954
  708SOL    HW1 2123   0.296   2.453   1.699 -0.1870 -0.8370 -1.5313
  708SOL    HW2 2124   0.212   2.346   1.592 -1.3115 -0.8903 -0.5844
  709SOL     OW 2125   0.118   0.835   1.970 -0.8642 -0.2872  0.0027
  709SOL    HW1 2126   0.073   0.904   1.906  0.5742 -0.4738 -0.1663
  709SOL    HW2 2127   0.132   0.739   1.926 -1.0264 -3.2559 -2.3914
  710SOL     OW 2128   0.032   0.654   1.221  0.8120  0.5013  0.0482
  710SOL    HW1 2129   0.126   0.678   1.195 -0.4235 -0.2443  0.5526
  710SOL    HW2 2130   0.005   0.728   1.285  2.1533 -1.0049 -1.2402
  711SOL     OW 2131   2.921   2.714   1.100 -0.4014  0.2208  0.2882
  711SOL    HW1 2132   2.974   2.713   1.187  1.1218  0.4941 -0.6314
  711SOL    HW2 2133   2.972   2.658   1.032  3.6838 -0.7790 -2.6080
  712SOL     OW 2134   0.268   2.981   2.327  0.7159 -0.3131 -0.2108
  712SOL    HW1 2135   0.192   3.000   2.398 -0.8758  0.5468 -0.2839
  712SOL    HW2 2136   0.308   2.889   2.340 -1.6889  1.1976  1.2376
  713SOL     OW 2137   2.530   0.229   0.536  0.4020 -0.6054  0.0638
  713SOL    HW1 2138   2.432   0.249   0.553  1.7191 -2.3638 -1.0082
  713SOL    HW2 2139   2.570   0.278   0.457 -0.2041  1.9854  1.3531
  714SOL     OW 2140   1.652   1.618   0.141  0.6174  0.5059 -0.5173
  714SOL    HW1 2141   1.580   1.664   0.202 -0.8267  0.1652 -2.5839
  714SOL    HW2 2142   1.700   1.540   0.191  1.1670 -0.3330 -1.0050
  715SOL     OW 2143   0.069   0.191   0.539  0.2684  0.2884 -0.2272
  715SOL    HW1 2144   0.134   0.107   0.521  1.2080 -3.2378 -1.1188
  715SOL    HW2 2145   0.002   0.165   0.618 -2.3138  0.2515 -0.5781
  716SOL     OW 2146   1.128   0.587   1.912 -0.2398  0.1589  0.8141
  716SOL    HW1 2147   1.211   0.524   1.914  2.0775 -0.5469 -0.7502
  716SOL    HW2 2148   1.065   0.567   1.989  1.1550 -0.0015 -3.0341
  717SOL     OW 2149   0.669   0.451   2.744 -0.1144  0.1113  0.5750
  717SOL    HW1 2150   0.587   0.397   2.774  3.3160  0.3762 -1.1413
  717SOL    HW2 2151   0.680   0.530   2.809 -0.8109 -0.3518  2.9999
  718SOL     OW 2152   1.065   0.630   0.183  0.0372 -0.1144 -0.3017
  718SOL    HW1 2153   1.104   0.724   0.183  0.5931 -0.8344  1.3540
  718SOL    HW2 2154   1.140   0.563   0.161 -0.3718 -1.7833 -1.4914
  719SOL     OW 2155   2.580   2.396   2.623  0.0180 -0.0412 -0.5135
  719SOL    HW1 2156   2.567   2.356   2.716 -2.5156 -0.5797  0.0593
  719SOL    HW2 2157   2.499   2.369   2.571  2.4474  0.4442 -1.7071
  720SOL     OW 2158   1.466   0.620   1.374 -0.1698  0.7251  0.1876
  720SOL    HW1 2159   1.419   0.646   1.460 -2.0976 -1.6153 -1.2246
  720SOL    HW2 2160   1.458   0.520   1.353 -0.6528 -0.3248 -0.3517
  721SOL     OW 2161   2.820   2.943   1.025 -0.4704 -0.0519  0.2513
  721SOL    HW1 2162   2.898   2.987   0.972  0.2885  2.0075 -2.0357
  721SOL    HW2 2163   2.843   2.846   1.048 -1.5733  2.2108 -0.7009
  722SOL     OW 2164   0.887   1.613   2.826  0.1704 -0.3218  0.3544
  722SOL    HW1 2165   0.799   1.575   2.863  0.3334  0.6324  0.8579
  722SOL    HW2 2166   0.937   1.673   2.894  1.3663  2.2850  1.8616
  723SOL     OW 2167   2.306   0.169   1.053  0.2911  0.1129 -0.1616
  723SOL    HW1 2168   2.299   0.107   1.135  2.5812  0.9513 -0.0504
  723SOL    HW2 2169   2.329   0.111   0.972 -0.7106  1.3308  0.4240
  724SOL     OW 2170   0.562   2.008   0.105 -0.7000 -0.6828  0.1407
  724SOL    HW1 2171   0.547   1.917   0.148  2.6661 -1.6206  0.1219
  724SOL    HW2 2172   0.655   2.047   0.123 -2.2194  2.0136 -1.0927
  725SOL     OW 2173   0.236   0.969   1.158 -0.5402  0.1946 -0.5030
  725SOL    HW1 2174   0.138   0.990   1.175  1.1380  0.9770  1.9346
  725SOL    HW2 2175   0.292   1.055   1.143  0.9230  1.6582 -1.5559
  726SOL     OW 2176   2.461   0.593   0.278 -0.3794 -0.0288  0.3208
  726SOL    HW1 2177   2.438   0.645   0.359  0.5874 -1.9625 -2.7555
  726SOL    HW2 2178   2.521   0.654   0.217  2.6998  0.8967 -3.1174
  727SOL     OW 2179   1.779   1.110   2.702 -0.5345 -0.1941  0.9540
  727SOL    HW1 2180   1.850   1.145   2.760  0.4137 -3.8708 -3.7068
  727SOL    HW2 2181   1.802   1.013   2.682  0.6334 -0.0940 -1.0128
  728SOL     OW 2182   1.694   2.984   1.472 -0.1303  0.2749 -0.3299
  728SOL    HW1 2183   1.778   2.926   1.473 -1.3738 -0.4637  0.7302
  728SOL    HW2 2184   1.614   2.924   1.479  2.5267 -1.9733 -0.7252
  729SOL     OW 2185   2.316   0.928   2.257 -0.5560  0.3710 -0.2803
  729SOL    HW1 2186   2.389   0.924   2.330  1.6454  3.1593  1.0985
  729SOL    HW2 2187   2.220   0.901   2.287 -0.8844 -0.7568  1.2759
  730SOL     OW 2188   1.224   0.825   1.400  0.2009 -0.0783 -0.0215
  730SOL    HW1 2189   1.260   0.787   1.312 -1.6637  0.8114  2.1628
  730SOL    HW2 2190   1.179   0.916   1.382 -0.5106  0.0737  2.1932
  731SOL     OW 2191   0.542   0.522   0.192 -0.0670 -0.3914  0.8178
  731SOL    HW1 2192   0.641   0.549   0.180 -3.0862 -3.2984  0.0023
  731SOL    HW2 2193   0.490   0.543   0.108 -0.2772  1.0462  1.3278
  732SOL     OW 2194   0.324   0.454   0.335  0.5682 -0.1160 -0.3323
  732SOL    HW1 2195   0.407   0.503   0.294  2.0007  0.6528  0.2050
  732SOL    HW2 2196   0.347   0.420   0.428 -2.2287  0.7293  0.4859
  733SOL     OW 2197   1.795   1.477   2.669  0.0544 -0.2072 -0.4824
  733SOL    HW1 2198   1.727   1.401   2.670  0.2859 -1.5491 -0.8104
  733SOL    HW2 2199   1.817   1.510   2.764  1.1704 -0.0119  1.0722
  734SOL     OW 2200   0.118   2.014   2.509  0.1114  0.1568  0.3361
  734SOL    HW1 2201   0.057   1.941   2.549  0.6669 -1.4558 -0.3688
  734SOL    HW2 2202   0.131   2.093   2.577 -1.8031  2.5111  2.7358
  735SOL     OW 2203   1.912   0.455   1.344 -0.0694 -0.2968  0.1166
  735SOL    HW1 2204   1.990   0.403   1.302 -2.0974  1.9207 -1.1295
  735SOL    HW2 2205   1.937   0.520   1.416 -2.6563 -0.5035 -0.7851
  736SOL     OW 2206   1.684   1.713   2.958 -0.1742 -0.3716 -0.5219
  736SOL    HW1 2207   1.634   1.677   3.043  2.5320 -0.1659  1.4794
  736SOL    HW2 2208   1.687   1.816   2.952  0.9345  0.7011 -2.8520
  737SOL     OW 2209   3.079   0.377   0.363 -0.5666  0.1889  0.7480
  737SOL    HW1 2210   0.048   0.466   0.388  0.6301 -0.2860  0.9498
  737SOL    HW2 2211   0.029   0.303   0.429 -0.2214  0.2627  2.2185
  738SOL     OW 2212   0.654   2.131   1.794 -0.1312  0.4093 -0.0587
  738SOL    HW1 2213   0.606   2.174   1.710 -1.3367  0.9035  2.0473
  738SOL    HW2 2214   0.719   2.056   1.761  0.7442  0.1654 -0.1788
  739SOL     OW 2215   1.318   2.532   2.113  0.0571  0.0762 -0.1177
  739SOL    HW1 2216   1.292   2.478   2.036 -0.9200  1.8082  1.0870
  739SOL    HW2 2217   1.258   2.511   2.188  1.3558 -2.4726 -0.1586
  740SOL     OW 2218   2.096   2.462   1.502 -0.2409  0.0441 -0.5150
  740SOL    HW1 2219   2.075   2.362   1.481  2.4264  0.2093 -0.1345
  740SOL    HW2 2220   2.111   2.471   1.601 -0.5501 -4.4454  0.2634
  741SOL     OW 2221   2.224   0.462   0.299 -0.1535  0.1396 -0.3460
  741SOL    HW1 2222   2.310   0.519   0.308 -1.6736  2.0395 -3.2656
  741SOL    HW2 2223   2.141   0.515   0.322 -0.8420  1.4850 -2.7469
  742SOL     OW 2224   0.980   2.279   3.069 -0.0718  0.5769  0.0398
  742SOL    HW1 2225   1.035   2.198   3.062 -0.8808  3.7136  0.0836
  742SOL    HW2 2226   1.029   2.366   3.043  1.3055 -0.8395  0.9522
  743SOL     OW 2227   2.455   1.114   2.137 -0.3772  0.0703 -0.0218
  743SOL    HW1 2228   2.380   1.049   2.167 -0.5444 -0.5842 -1.3503
  743SOL    HW2 2229   2.435   1.207   2.178 -0.6055  1.1169 -0.9355
  744SOL     OW 2230   2.750   0.429   0.618  0.0413 -0.1675  0.2671
  744SOL    HW1 2231   2.765   0.339   0.574 -0.4195  1.3993  1.0840
  744SOL    HW2 2232   2.827   0.457   0.679  0.6648 -0.0992  0.0365
  745SOL     OW 2233   2.533   1.243   1.815 -0.1563 -0.3652  0.0042
  745SOL    HW1 2234   2.549   1.146   1.786 -1.4634 -2.5875 -1.0828
  745SOL    HW2 2235   2.609   1.279   1.868 -4.8146  1.8600  2.6854
  746SOL     OW 2236   1.388   1.307   0.902  0.0569  0.3031  0.3827
  746SOL    HW1 2237   1.397   1.406   0.933 -0.3203  3.1762  0.7255
  746SOL    HW2 2238   1.313   1.300   0.832 -1.5442  0.0282  0.9952
  747SOL     OW 2239   1.281   1.682   1.626  0.0689 -0.1657 -0.0194
  747SOL    HW1 2240   1.318   1.775   1.648  1.9356 -0.7213 -0.0254
  747SOL    HW2 2241   1.343   1.600   1.653  1.6196 -2.4542 -0.4758
  748SOL     OW 2242   0.336   2.921   2.911  0.0387  0.9684 -0.0495
  748SOL    HW1 2243   0.376   2.913   3.005  0.2442  0.9178  0.2380
  748SOL    HW2 2244   0.245   2.878   2.905 -0.5024 -0.4509 -0.0101
  749SOL     OW 2245   0.342   1.176   2.473  0.0298  0.7423  0.1800
  749SOL    HW1 2246   0.416   1.178   2.402  0.9636  0.4550  0.4395
  749SOL    HW2 2247   0.254   1.220   2.443  3.8301 -0.3927  0.1125
  750SOL     OW 2248   1.800   0.951   1.956  0.4082  0.0280 -0.1398
  750SOL    HW1 2249   1.878   0.903   1.921 -0.9731  3.2308  1.7687
  750SOL    HW2 2250   1.724   0.944   1.889  2.5230  0.9954 -3.4359
  751SOL     OW 2251   2.593   0.365   0.311  0.2568 -0.0113 -0.0794
  751SOL    HW1 2252   2.561   0.301   0.237  0.4384 -1.3654 -1.6618
  751SOL    HW2 2253   2.547   0.456   0.309  0.2470 -2.0387  1.0134
  752SOL     OW 2254   0.168   2.443   0.978 -0.1144 -0.8459 -0.1235
  752SOL    HW1 2255   0.140   2.345   0.979 -1.1640 -0.1204 -2.2324
  752SOL    HW2 2256   0.212   2.469   1.066 -0.0348 -1.7080 -0.1611
  753SOL     OW 2257   0.947   2.492   1.040 -0.5868 -0.7883 -0.1668
  753SOL    HW1 2258   0.974   2.402   1.003  0.2317  2.6176  1.2981
  753SOL    HW2 2259   0.859   2.521   1.002  1.2100 -1.5815  1.1880
  754SOL     OW 2260   0.115   3.057   1.732  0.2551 -0.4605 -0.3388
  754SOL    HW1 2261   0.100   0.073   1.692  1.1517 -0.7459  2.8544
  754SOL    HW2 2262   0.063   2.992   1.676  0.2606  0.8799  1.5409
  755SOL     OW 2263   2.270   0.297   0.528 -0.5861 -0.3041  0.1191
  755SOL    HW1 2264   2.253   0.329   0.430 -1.5603  0.2236 -1.0373
  755SOL    HW2 2265   2.253   0.368   0.600 -1.3068 -1.0717  2.0556
  756SOL     OW 2266   2.232   2.446   2.704  0.0404  0.2810  0.1361
  756SOL    HW1 2267   2.293   2.489   2.769  2.2504  0.2973 -1.2793
  756SOL    HW2 2268   2.143   2.495   2.688 -0.9162 -1.3339  3.3444
  757SOL     OW 2269   1.872   0.285   0.557 -0.8207  0.1033 -0.1238
  757SOL    HW1 2270   1.948   0.222   0.538  1.1247 -1.8642 -0.0260
  757SOL    HW2 2271   1.896   0.329   0.652  1.0647 -1.5862  2.2578
  758SOL     OW 2272   2.341   0.419   1.385  0.7182 -0.4781  0.5068
  758SOL    HW1 2273   2.412   0.407   1.317 -0.0024  0.6227 -0.2177
  758SOL    HW2 2274   2.324   0.329   1.433  1.4913 -0.5228 -0.7665
  759SOL     OW 2275   2.635   0.560   1.028  0.7918  0.0773 -0.1500
  759SOL    HW1 2276   2.648   0.659   1.038 -2.4394 -0.9119 -1.3770
  759SOL    HW2 2277   2.610   0.537   0.928  1.2091 -1.1548 -3.2747
  760SOL     OW 2278   2.266   1.273   1.123  0.1337 -0.1364  0.2023
  760SOL    HW1 2279   2.243   1.303   1.217 -0.3671 -1.1858 -0.3199
  760SOL    HW2 2280   2.368   1.285   1.102  0.7330  2.8917 -2.5927
  761SOL     OW 2281   0.635   0.586   0.456 -0.2112  0.2487 -0.0247
  761SOL    HW1 2282   0.618   0.578   0.357 -0.2209 -0.4069  0.1175
  761SOL    HW2 2283   0.562   0.640   0.501  0.0320 -0.5542  2.7940
  762SOL     OW 2284   0.990   1.856   0.793 -0.2274 -0.4807  0.1280
  762SOL    HW1 2285   0.910   1.824   0.850 -1.8951 -1.7804  1.3620
  762SOL    HW2 2286   0.968   1.945   0.741 -2.9483  3.5286  0.6201
  763SOL     OW 2287   1.124   1.071   1.324  0.5462 -0.0484  0.3177
  763SOL    HW1 2288   1.050   1.124   1.279 -0.0136 -1.5564 -0.8164
  763SOL    HW2 2289   1.176   1.129   1.391  2.3495 -0.2234  2.7838
  764SOL     OW 2290   0.211   1.655   2.644 -0.2490 -0.1387  0.2860
  764SOL    HW1 2291   0.257   1.725   2.582 -0.2362  1.1094 -0.9935
  764SOL    HW2 2292   0.116   1.677   2.663  1.5886  2.0425 -4.0885
  765SOL     OW 2293   0.649   2.622   1.576 -0.0243  0.3955  0.0123
  765SOL    HW1 2294   0.675   2.596   1.481 -1.1161 -0.6392  0.0675
  765SOL    HW2 2295   0.662   2.722   1.590 -0.9940  0.2051 -0.5439
  766SOL     OW 2296   2.597   2.139   2.176  0.0335  0.9263  0.1914
  766SOL    HW1 2297   2.533   2.213   2.136 -0.3499  1.5506 -1.1202
  766SOL    HW2 2298   2.679   2.179   2.221 -2.4034  1.8745  1.6790
  767SOL     OW 2299   1.404   1.123   2.445 -0.4646 -0.1456  0.0207
  767SOL    HW1 2300   1.386   1.027   2.419  4.7910  1.8472  1.1069
  767SOL    HW2 2301   1.340   1.197   2.415  0.3523  0.7917  0.8684
  768SOL     OW 2302   1.460   1.736   0.267 -0.8678 -0.3440  0.3552
  768SOL    HW1 2303   1.505   1.745   0.356  1.8347  0.5534 -2.7324
  768SOL    HW2 2304   1.465   1.825   0.215  1.6657  0.5859  1.3374
  769SOL     OW 2305   0.444   1.784   1.324 -0.1224 -0.2640 -0.2221
  769SOL    HW1 2306   0.431   1.878   1.291 -1.5438 -2.4163  1.7146
  769SOL    HW2 2307   0.399   1.720   1.258 -0.3467  1.9939  0.4656
  770SOL     OW 2308   1.468   0.815   2.935  0.0169 -0.2975  0.3162
  770SOL    HW1 2309   1.442   0.914   2.946  0.4004  1.6083  0.2031
  770SOL    HW2 2310   1.541   0.809   2.866  0.0051  0.3038 -0.6120
  771SOL     OW 2311   0.140   2.974   2.038 -0.0605  0.1322 -0.1129
  771SOL    HW1 2312   0.155   2.907   2.116 -0.6544  0.9688  2.7994
  771SOL    HW2 2313   0.161   2.930   1.949  0.9074  0.1168 -0.8254
  772SOL     OW 2314   2.129   2.010   1.721  0.0522 -0.4614  0.1702
  772SOL    HW1 2315   2.194   2.001   1.805  1.7262  0.7236  2.1718
  772SOL    HW2 2316   2.031   1.995   1.745  0.7167 -0.0261 -0.5090
  773SOL     OW 2317   0.606   1.744   1.565  0.0666  0.7422  0.7809
  773SOL    HW1 2318   0.591   1.642   1.587  1.8485 -1.8369  0.2595
  773SOL    HW2 2319   0.530   1.778   1.508  0.2151  0.4524  2.2948
  774SOL     OW 2320   1.289   0.632   2.828 -0.0306  0.1686 -0.0410
  774SOL    HW1 2321   1.370   0.690   2.854  0.3030 -0.4545  0.4910
  774SOL    HW2 2322   1.291   0.540   2.875 -0.8493  0.2761 -0.3259
  775SOL     OW 2323   1.865   2.851   2.925 -0.3354 -0.0322  0.1943
  775SOL    HW1 2324   1.848   2.947   2.947  1.5077  1.1875  0.7032
  775SOL    HW2 2325   1.803   2.814   2.852 -3.5371 -1.9361  0.5075
  776SOL     OW 2326   0.130   0.583   1.864 -0.2270 -0.3376  0.4724
  776SOL    HW1 2327   0.030   0.569   1.877 -0.3850  3.7357 -0.1683
  776SOL    HW2 2328   0.188   0.508   1.903 -0.9252 -1.2420 -2.3762
  777SOL     OW 2329   2.278   2.062   1.943  0.3366 -0.5963 -0.4918
  777SOL    HW1 2330   2.262   2.052   2.043 -1.4319 -0.9447 -1.8019
  777SOL    HW2 2331   2.267   2.160   1.920  2.0420 -2.2277  0.8589
  778SOL     OW 2332   1.865   1.061   2.212  0.4053 -0.0411  0.1519
  778SOL    HW1 2333   1.789   1.061   2.287  0.5321 -1.5790  1.6668
  778SOL    HW2 2334   1.834   1.010   2.133  1.0360 -1.1297  0.6012
  779SOL     OW 2335   2.532   1.140   0.222  0.0071  0.3526  0.2210
  779SOL    HW1 2336   2.503   1.236   0.233  1.1588  0.6682 -1.7723
  779SOL    HW2 2337   2.485   1.100   0.136 -2.1087  0.0577 -3.0051
  780SOL     OW 2338   2.743   0.485   2.643  0.3674 -0.0670 -0.7086
  780SOL    HW1 2339   2.799   0.548   2.700  1.9335  2.0335 -0.5829
  780SOL    HW2 2340   2.676   0.430   2.697  3.8109 -0.5786  1.9732
  781SOL     OW 2341   0.221   1.980   1.579 -0.3297  0.1960  0.0066
  781SOL    HW1 2342   0.264   2.029   1.502 -0.7983  0.0127  1.1224
  781SOL    HW2 2343   0.197   1.890   1.544  2.3538 -0.2870  0.5337
  782SOL     OW 2344   2.418   2.521   2.923  0.5400 -0.7008  0.3731
  782SOL    HW1 2345   2.348   2.480   2.993  1.0515 -0.2630 -0.4051
  782SOL    HW2 2346   2.486   2.450   2.896 -0.4972 -0.6030 -0.4511
  783SOL     OW 2347   0.594   1.408   1.224 -0.1387  0.3378  0.5339
  783SOL    HW1 2348   0.673   1.353   1.256  0.7308  1.1597 -0.1036
  783SOL    HW2 2349   0.624   1.490   1.178  1.0721 -1.9784 -2.2884
  784SOL     OW 2350   1.926   0.792   2.882 -0.0202 -0.0709 -0.2684
  784SOL    HW1 2351   1.961   0.730   2.802  2.2295 -0.2837 -0.6592
  784SOL    HW2 2352   1.926   0.735   2.967 -0.9977  0.1885 -0.6549
  785SOL     OW 2353   2.361   2.653   0.780  0.1179 -0.0306  0.0876
  785SOL    HW1 2354   2.373   2.573   0.718  1.5659  0.4667 -0.5613
  785SOL    HW2 2355   2.327   2.628   0.872 -0.4066 -0.9666 -0.5178
  786SOL     OW 2356   0.610   2.104   2.269 -0.3876 -0.2373  0.3452
  786SOL    HW1 2357   0.540   2.030   2.265 -0.6726  0.6430 -0.6642
  786SOL    HW2 2358   0.700   2.070   2.229 -0.1474  1.0114  1.7434
  787SOL     OW 2359   1.338   0.717   1.128  0.5399  0.3315 -0.0397
  787SOL    HW1 2360   1.377   0.670   1.211 -0.3927  0.0658 -1.6019
  787SOL    HW2 2361   1.413   0.758   1.069 -1.8046  0.4823  1.4130
  788SOL     OW 2362   0.140   0.595   0.450  0.0030 -0.1016 -0.1609
  788SOL    HW1 2363   0.209   0.540   0.405 -2.8750  1.6792 -0.3560
  788SOL    HW2 2364   0.121   0.679   0.392 -0.0669  1.0704 -1.2667
  789SOL     OW 2365   3.048   1.991   1.388  0.7869 -0.5307 -0.0389
  789SOL    HW1 2366   3.040   2.020   1.482 -0.7151  0.5369 -1.6695
  789SOL    HW2 2367   3.064   2.078   1.332  1.5353  2.4907 -2.5089
  790SOL     OW 2368   1.312   0.803   1.873  0.6761  0.1520  0.1524
  790SOL    HW1 2369   1.252   0.720   1.888 -0.7172 -0.7422  1.3982
  790SOL    HW2 2370   1.286   0.868   1.948  2.6597  0.4279  1.7312
  791SOL     OW 2371   1.397   0.585   0.492  0.6615  0.0378 -0.6491
  791SOL    HW1 2372   1.385   0.521   0.416 -2.3561 -0.8163  0.2756
  791SOL    HW2 2373   1.443   0.533   0.568  0.5340  0.9026 -3.5524
  792SOL     OW 2374   1.576   2.901   1.767 -0.3572  0.3950  0.0832
  792SOL    HW1 2375   1.498   2.853   1.805  1.7104  0.2283 -1.0188
  792SOL    HW2 2376   1.615   2.855   1.684  0.7106 -3.2489 -2.8637
  793SOL     OW 2377   0.797   0.063   0.556  0.5726  0.6550 -0.2276
  793SOL    HW1 2378   0.861   0.089   0.484 -1.5486  1.6025  0.4254
  793SOL    HW2 2379   0.722   0.131   0.556  0.5939 -1.8464 -1.0230
  794SOL     OW 2380   0.879   1.162   2.156  0.5315  0.0102  1.1773
  794SOL    HW1 2381   0.785   1.207   2.134 -1.7533  1.2528  1.9592
  794SOL    HW2 2382   0.949   1.209   2.101 -1.0773 -1.2530 -0.5309
  795SOL     OW 2383   0.304   2.012   2.308  0.4926 -0.0538 -0.5171
  795SOL    HW1 2384   0.310   2.104   2.264  0.8160  1.4485  0.1859
  795SOL    HW2 2385   0.247   2.009   2.390  2.8649 -0.8983  0.7495
  796SOL     OW 2386   2.396   1.364   2.214  0.2796 -0.7002 -0.4374
  796SOL    HW1 2387   2.452   1.353   2.301  0.4334 -0.1732  0.6926
  796SOL    HW2 2388   2.425   1.453   2.164  0.7515  3.2655  0.4531
  797SOL     OW 2389   2.967   2.528   2.836  0.5312 -0.1610 -0.0217
  797SOL    HW1 2390   3.065   2.541   2.842 -0.7161 -1.6136  1.8720
  797SOL    HW2 2391   2.937   2.493   2.744  1.6464 -0.5893  3.4834
  798SOL     OW 2392   2.998   2.255   2.038  0.9089 -0.1673  0.1019
  798SOL    HW1 2393   0.017   2.234   2.002 -0.6765  0.0887  0.0632
  798SOL    HW2 2394   3.000   2.266   2.141 -1.9338  0.9234 -0.7260
  799SOL     OW 2395   0.181   2.133   2.940  0.6861 -0.4365 -0.0529
  799SOL    HW1 2396   0.092   2.102   2.973  2.0289  0.5600  0.3618
  799SOL    HW2 2397   0.260   2.077   2.975 -1.3066  1.3422 -0.2127
  800SOL     OW 2398   1.204   1.663   0.158 -0.3743 -0.3114 -0.5054
  800SOL    HW1 2399   1.179   1.646   0.254 -2.1234 -1.1211  1.1393
  800SOL    HW2 2400   1.301   1.698   0.160  3.0130 -1.3105 -1.6751
  801SOL     OW 2401   1.880   1.346   1.439 -0.2497  0.0716 -0.2831
  801SOL    HW1 2402   1.902   1.259   1.490 -1.4729  0.6054 -0.5438
  801SOL    HW2 2403   1.958   1.407   1.432 -1.1517 -1.4630 -2.9684
  802SOL     OW 2404   3.014   1.336   0.265 -0.2005  0.2045  0.5592
  802SOL    HW1 2405   3.069   1.330   0.348 -1.4706  0.1044 -1.1255
  802SOL    HW2 2406   2.949   1.259   0.271 -0.1974 -1.0856 -0.5623
  803SOL     OW 2407   1.435   1.785   2.527  0.2681  0.2708  0.3390
  803SOL    HW1 2408   1.471   1.769   2.433  0.5297  1.6318  1.0895
  803SOL    HW2 2409   1.336   1.809   2.534 -0.4042 -1.4516  0.3953
  804SOL     OW 2410   1.788   1.418   0.254  0.0196 -0.0370 -0.3985
  804SOL    HW1 2411   1.749   1.435   0.348  0.8288  1.5548 -0.4370
  804SOL    HW2 2412   1.886   1.397   0.258 -0.4564  1.0383 -1.5916
  805SOL     OW 2413   2.442   1.690   2.533 -0.2237 -0.0739 -0.4111
  805SOL    HW1 2414   2.393   1.740   2.461  1.1455 -0.8142  1.4726
  805SOL    HW2 2415   2.499   1.763   2.580 -0.3528  3.3796  0.9476
  806SOL     OW 2416   0.447   2.951   0.339 -0.0633  0.3842  0.0776
  806SOL    HW1 2417   0.529   3.001   0.306  0.2854 -2.3231 -1.1480
  806SOL    HW2 2418   0.476   2.864   0.381  0.6330 -1.9255  1.2802
  807SOL     OW 2419   1.957   1.306   3.050  0.4659 -0.2550 -0.2634
  807SOL    HW1 2420   1.947   1.398   3.007 -1.6373  0.5669 -0.4449
  807SOL    HW2 2421   1.863   1.277   0.000 -2.3853  1.5102  1.8430
  808SOL     OW 2422   3.007   1.623   0.356 -0.2583  0.5476 -0.4346
  808SOL    HW1 2423   2.975   1.548   0.301  1.0023  2.1082  0.1473
  808SOL    HW2 2424   2.949   1.704   0.333  1.3947 -0.8402 -1.4253
  809SOL     OW 2425   2.392   1.062   0.011  0.3906 -0.1862  0.3748
  809SOL    HW1 2426   2.342   0.974   0.003 -0.8505 -1.0776 -0.4854
  809SOL    HW2 2427   2.328   1.147   0.011  0.2938  0.4184  0.0802
  810SOL     OW 2428   0.482   1.315   0.187 -0.8703  0.4090  0.3113
  810SOL    HW1 2429   0.512   1.333   0.091 -1.1849  0.2581  0.4870
  810SOL    HW2 2430   0.400   1.255   0.202 -1.0855  0.3275  1.4289
  811SOL     OW 2431   1.347   2.466   1.481 -0.3447  0.2721  0.6212
  811SOL    HW1 2432   1.396   2.524   1.408  0.4252  0.3245  1.9790
  811SOL    HW2 2433   1.411   2.447   1.553  1.3810  0.1308 -0.1001
  812SOL     OW 2434   0.775   2.617   1.819 -0.3675  0.6339 -0.1760
  812SOL    HW1 2435   0.744   2.605   1.725  0.0323 -0.0394  3.8396
  812SOL    HW2 2436   0.803   2.714   1.838 -4.0521  0.8036 -0.1247
  813SOL     OW 2437   1.345   0.173   2.102 -0.1817  0.3722 -0.3083
  813SOL    HW1 2438   1.405   0.093   2.121  0.8054 -1.7110 -2.0588
  813SOL    HW2 2439   1.257   0.180   2.152  0.2811  1.7509  0.5881
  814SOL     OW 2440   1.307   2.332   2.594 -0.1286 -0.5639 -0.1044
  814SOL    HW1 2441   1.401   2.330   2.553  2.1271 -0.1256 -0.9136
  814SOL    HW2 2442   1.309   2.260   2.666  3.0772 -2.4417 -2.5508
  815SOL     OW 2443   0.486   0.258   2.024 -0.1318 -0.1802  0.2363
  815SOL    HW1 2444   0.572   0.309   2.055  1.6575 -0.1042 -0.4196
  815SOL    HW2 2445   0.507   0.168   1.976 -0.2973 -1.3955 -0.5645
  816SOL     OW 2446   2.090   0.423   3.011  0.0722 -0.1987  0.3226
  816SOL    HW1 2447   2.173   0.478   3.004 -2.1404 -1.7247 -0.6746
  816SOL    HW2 2448   2.009   0.483   3.028  2.6679 -1.7993  1.0255
  817SOL     OW 2449   2.335   0.401   2.410 -0.0456 -0.4255 -0.2452
  817SOL    HW1 2450   2.326   0.358   2.499 -0.6139 -0.3824  1.4984
  817SOL    HW2 2451   2.244   0.444   2.382 -2.7608  1.6624 -1.3966
  818SOL     OW 2452   1.666   0.308   0.175 -0.3391 -0.1264 -0.1756
  818SOL    HW1 2453   1.652   0.406   0.207 -1.2095  2.1612 -2.5482
  818SOL    HW2 2454   1.736   0.309   0.101  2.2195 -0.3530 -1.7690
  819SOL     OW 2455   2.004   1.733   2.778  0.0115 -0.3578 -0.0287
  819SOL    HW1 2456   1.983   1.758   2.684  2.9767 -0.3356  1.8855
  819SOL    HW2 2457   1.974   1.810   2.839  2.3817  2.2945 -0.7497
  820SOL     OW 2458   3.077   1.854   0.126 -0.0999 -0.5755 -0.1167
  820SOL    HW1 2459   3.006   1.922   0.149  1.9565 -2.9366 -2.5542
  820SOL    HW2 2460   0.078   1.860   0.193 -0.8653  0.7703 -0.2588
  821SOL     OW 2461   0.347   2.886   0.713 -0.3148  0.3932 -0.1743
  821SOL    HW1 2462   0.443   2.861   0.697  1.3703 -1.4627  0.5499
  821SOL    HW2 2463   0.311   2.954   0.647  0.7210 -1.0443  3.6816
  822SOL     OW 2464   2.817   2.759   2.915 -0.0215  0.6431 -0.4229
  822SOL    HW1 2465   2.714   2.747   2.907 -2.8991 -0.5631 -0.3845
  822SOL    HW2 2466   2.871   2.683   2.873  1.5054 -1.8935  0.3348
  823SOL     OW 2467   1.334   0.269   2.567  0.1512  0.0906  0.0760
  823SOL    HW1 2468   1.301   0.175   2.565  2.7586  1.1149  3.6559
  823SOL    HW2 2469   1.386   0.288   2.651  0.5708  1.3696  2.2911
  824SOL     OW 2470   2.707   2.073   1.909 -0.6931 -0.0622 -0.3236
  824SOL    HW1 2471   2.801   2.032   1.921  0.3401 -1.5016 -1.7348
  824SOL    HW2 2472   2.661   2.081   2.004 -0.4147  0.5248  0.0167
  825SOL     OW 2473   2.778   2.081   2.546 -0.2347  0.5216  1.1344
  825SOL    HW1 2474   2.851   2.115   2.610 -0.6019 -0.7228 -3.8141
  825SOL    HW2 2475   2.754   2.151   2.472 -0.3887  1.7431 -1.8844
  826SOL     OW 2476   2.151   1.517   2.307 -0.4633  0.4474 -0.1056
  826SOL    HW1 2477   2.200   1.432   2.292 -0.3004  1.7943 -0.0787
  826SOL    HW2 2478   2.074   1.506   2.376 -1.5463 -1.9487 -0.4576
  827SOL     OW 2479   2.333   2.365   1.400 -0.1328  0.3707  0.2386
  827SOL    HW1 2480   2.232   2.387   1.410 -0.0913 -0.0959 -2.6054
  827SOL    HW2 2481   2.341   2.269   1.365 -0.0733  0.9682 -2.9876
  828SOL     OW 2482   0.119   0.054   1.315  0.6303  0.4503 -0.2044
  828SOL    HW1 2483   0.057   0.124   1.360  0.1717  3.9631 -0.7431
  828SOL    HW2 2484   0.207   0.043   1.361 -1.6002 -0.8077  3.8149
  829SOL     OW 2485   1.712   2.228   2.175  0.1472  0.0188  0.3710
  829SOL    HW1 2486   1.616   2.195   2.185  1.8080 -0.7517 -0.1583
  829SOL    HW2 2487   1.713   2.318   2.124 -1.1469  0.3824  0.3226
  830SOL     OW 2488   1.112   0.657   0.582  0.3497  0.1962  0.1037
  830SOL    HW1 2489   1.203   0.655   0.541 -0.3651 -0.9898 -1.8504
  830SOL    HW2 2490   1.048   0.713   0.525  1.6474  1.0839  0.4749
  831SOL     OW 2491   2.743   1.342   2.814 -0.3763  0.0751 -0.0269
  831SOL    HW1 2492   2.842   1.339   2.821 -2.7525 -0.7370  2.2789
  831SOL    HW2 2493   2.710   1.387   2.726  0.5839  0.8965  0.8522
  832SOL     OW 2494   1.574   2.036   1.803 -0.4501 -0.0602 -0.7292
  832SOL    HW1 2495   1.556   2.117   1.862  0.8046 -2.9191 -0.9912
  832SOL    HW2 2496   1.665   2.045   1.761  1.8424 -1.1726 -0.0344
  833SOL     OW 2497   0.199   0.335   2.002  0.3711 -0.1033  0.1454
  833SOL    HW1 2498   0.289   0.300   2.033  3.0688  0.6048  0.9951
  833SOL    HW2 2499   0.121   0.306   2.061 -0.7665 -0.0714  1.0051
  834SOL     OW 2500   0.764   1.083   1.517 -0.3565 -0.0321  0.4648
  834SOL    HW1 2501   0.707   1.025   1.456 -1.4729 -0.7710 -0.9865
  834SOL    HW2 2502   0.843   1.026   1.557  0.9734 -1.4393  0.5160
  835SOL     OW 2503   2.837   1.091   2.957 -0.3889 -0.0851 -0.0972
  835SOL    HW1 2504   2.791   1.153   2.888 -2.0032  2.3777 -1.8675
  835SOL    HW2 2505   2.825   0.995   2.918  0.4862  0.2401 -1.9612
  836SOL     OW 2506   1.325   1.493   0.505  0.6663  0.1938 -0.0828
  836SOL    HW1 2507   1.260   1.559   0.461  0.9980 -1.3138 -3.1183
  836SOL    HW2 2508   1.398   1.544   0.553 -1.8766 -2.0407  0.7399
  837SOL     OW 2509   1.662   1.456   1.036 -0.5209 -0.3941  0.3977
  837SOL    HW1 2510   1.655   1.464   1.136 -1.8617 -2.2665  1.4261
  837SOL    HW2 2511   1.588   1.507   0.993 -1.2881  0.7952  2.4712
  838SOL     OW 2512   0.970   1.638   2.142  0.1584  0.1316 -0.0940
  838SOL    HW1 2513   0.981   1.564   2.212  3.4213  1.6106  0.1579
  838SOL    HW2 2514   0.929   1.720   2.186 -2.4267  0.3607 -1.2359
  839SOL     OW 2515   0.686   2.161   2.640 -0.4803  0.2558  1.0323
  839SOL    HW1 2516   0.714   2.101   2.710  0.2973  1.4625 -2.3433
  839SOL    HW2 2517   0.599   2.208   2.662 -2.6122  2.2911 -1.0668
  840SOL     OW 2518   0.691   2.291   0.405  0.0847  0.4434  0.3293
  840SOL    HW1 2519   0.761   2.364   0.436  1.8665  2.3045  0.2790
  840SOL    HW2 2520   0.666   2.237   0.487 -0.5759  2.8944 -1.2303
  841SOL     OW 2521   1.945   2.580   0.063  0.0565 -0.1595  0.4724
  841SOL    HW1 2522   1.936   2.494   0.121 -1.4132  0.1115 -0.2419
  841SOL    HW2 2523   2.039   2.616   0.082  1.6299 -0.9152  1.7125
  842SOL     OW 2524   0.701   0.715   2.905  0.6188 -0.2030  0.6151
  842SOL    HW1 2525   0.691   0.804   2.856  0.2451  1.7190 -0.1112
  842SOL    HW2 2526   0.796   0.693   2.930 -3.3057 -0.5188 -4.4597
  843SOL     OW 2527   1.296   0.248   0.688 -0.5559  0.3222 -0.0148
  843SOL    HW1 2528   1.267   0.162   0.735  1.1136 -0.6463 -1.2543
  843SOL    HW2 2529   1.212   0.297   0.658 -0.9295 -1.3880  2.2544
  844SOL     OW 2530   2.930   2.866   2.659 -0.3364  0.2731  0.3128
  844SOL    HW1 2531   2.933   2.783   2.597  0.0302 -2.3532  0.0456
  844SOL    HW2 2532   2.888   2.849   2.747  0.1964 -0.3656  0.6286
  845SOL     OW 2533   2.783   2.226   0.935  0.1767 -0.7374  0.1845
  845SOL    HW1 2534   2.837   2.276   0.868  0.6919  0.4485  2.2459
  845SOL    HW2 2535   2.756   2.291   1.001  0.4389 -1.1507 -1.7744
  846SOL     OW 2536   2.859   1.849   2.398 -0.0421 -0.6257  0.0341
  846SOL    HW1 2537   2.850   1.770   2.454  1.1136  3.1218 -3.4024
  846SOL    HW2 2538   2.849   1.939   2.456 -3.3645  3.7166  1.0631
  847SOL     OW 2539   1.323   0.718   1.618 -0.0219 -0.2111 -0.0091
  847SOL    HW1 2540   1.294   0.768   1.533  0.4990  0.4792  0.8834
  847SOL    HW2 2541   1.312   0.783   1.695 -1.7254 -1.6863 -0.5964
  848SOL     OW 2542   2.606   0.074   2.909  0.0123  1.2785  0.3799
  848SOL    HW1 2543   2.565   0.102   3.000 -0.3640  0.8389  0.1353
  848SOL    HW2 2544   2.687   0.012   2.931  3.1030 -2.4337  0.9126
  849SOL     OW 2545   0.590   2.770   2.838  0.1840 -0.9175  0.2175
  849SOL    HW1 2546   0.526   2.830   2.889 -0.7788  1.3380  1.2028
  849SOL    HW2 2547   0.686   2.800   2.855  0.9745 -0.4232 -1.9709
  850SOL     OW 2548   1.244   2.623   0.986 -0.4793  0.4690 -0.3650
  850SOL    HW1 2549   1.182   2.582   1.053  0.5570 -1.8301 -0.6379
  850SOL    HW2 2550   1.294   2.701   1.023 -1.9217 -2.4836  0.9693
  851SOL     OW 2551   2.727   0.334   2.160  0.2200 -0.5138 -0.1325
  851SOL    HW1 2552   2.790   0.362   2.238 -0.5671 -5.5755 -1.3070
  851SOL    HW2 2553   2.781   0.292   2.086 -0.6416 -1.7386  0.5216
  852SOL     OW 2554   2.059   0.940   2.356  0.2268  0.1919 -0.1330
  852SOL    HW1 2555   1.991   0.987   2.299 -1.1505  0.2703  0.4547
  852SOL    HW2 2556   2.017   0.843   2.356  0.8065 -1.0193 -1.9678
  853SOL     OW 2557   2.837   0.001   0.405 -0.1224  0.0158  0.1633
  853SOL    HW1 2558   2.825   0.101   0.397  0.3105  0.2265 -1.1974
  853SOL    HW2 2559   2.783   3.035   0.480 -1.6032 -2.2632  1.9403
  854SOL     OW 2560   2.158   1.047   1.932 -0.0861  0.1956  0.3400
  854SOL    HW1 2561   2.061   1.032   1.955 -1.0072 -1.1616  0.5619
  854SOL    HW2 2562   2.181   1.146   1.939  1.0250 -0.4360 -0.8319
  855SOL     OW 2563   1.262   2.303   0.241 -0.1752  0.2360 -0.6447
  855SOL    HW1 2564   1.217   2.280   0.154 -2.3128 -0.2697 -1.0211
  855SOL    HW2 2565   1.266   2.403   0.251  2.8493 -0.8552 -2.3971
  856SOL     OW 2566   0.010   0.233   2.488  0.3572 -0.3171  0.2383
  856SOL    HW1 2567   0.035   0.139   2.504  0.2922  0.0994 -1.5303
  856SOL    HW2 2568   0.014   0.281   2.577  0.5291  0.4269  0.0228
  857SOL     OW 2569   1.259   0.016   1.731  0.1286  0.0145 -0.5081
  857SOL    HW1 2570   1.165   0.061   1.736 -0.4604  2.2844 -1.0448
  857SOL    HW2 2571   1.271   3.010   1.786  3.4206  1.5711  2.1611
  858SOL     OW 2572   2.393   2.179   1.612  0.8392 -0.1721 -0.1852
  858SOL    HW1 2573   2.396   2.253   1.536 -0.3734 -0.0277 -0.0460
  858SOL    HW2 2574   2.313   2.114   1.594 -0.2681 -2.3832  0.5426
  859SOL     OW 2575   1.138   2.554   1.217  0.5500  0.4357 -0.0159
  859SOL    HW1 2576   1.064   2.496   1.177  2.3105 -2.9118  2.1475
  859SOL    HW2 2577   1.197   2.498   1.277  2.7476  2.6886 -1.5942
  860SOL     OW 2578   2.477   2.775   0.065  0.5223  0.0921  0.0720
  860SOL    HW1 2579   2.493   2.788   3.043  0.1132  0.6527 -0.4992
  860SOL    HW2 2580   2.378   2.761   0.077  2.0461 -1.6023  1.3673
  861SOL     OW 2581   2.143   2.896   0.909  0.3486  0.2396  0.5061
  861SOL    HW1 2582   2.065   2.966   0.898 -4.5071 -0.3458 -1.7976
  861SOL    HW2 2583   2.154   2.879   1.009  2.1323 -0.2844  0.6641
  862SOL     OW 2584   1.853   2.874   2.322 -0.3335  0.1418  0.1298
  862SOL    HW1 2585   1.928   2.808   2.332  0.3767 -1.1655 -1.3502
  862SOL    HW2 2586   1.886   2.970   2.317 -2.1061  0.4046  0.0461
  863SOL     OW 2587   0.058   0.730   0.683 -0.1055  0.7768  0.5231
  863SOL    HW1 2588   3.076   0.813   0.683 -3.0451  0.2119  0.4559
  863SOL    HW2 2589   0.094   0.692   0.594  1.9621 -3.4189 -0.0512
  864SOL     OW 2590   0.149   2.723   2.186 -0.4439  0.0896 -0.0754
  864SOL    HW1 2591   0.226   2.670   2.139  1.3556 -0.5996 -1.2238
  864SOL    HW2 2592   0.180   2.743   2.281 -0.9379  0.3306  2.0953
  865SOL     OW 2593   0.479   1.382   2.648  0.0499  0.6530 -0.9152
  865SOL    HW1 2594   0.419   1.416   2.724 -1.1711  0.0266  1.0494
  865SOL    HW2 2595   0.438   1.302   2.605 -2.0543  3.7932  0.3465
  866SOL     OW 2596   2.829   0.843   2.814 -0.5652  0.2732 -0.6990
  866SOL    HW1 2597   2.854   0.887   2.723 -2.0411 -1.5897 -0.3725
  866SOL    HW2 2598   2.861   0.744   2.805 -0.0226 -1.7946 -0.9953
  867SOL     OW 2599   0.090   3.025   2.518 -0.5060 -0.3031  0.2513
  867SOL    HW1 2600   0.166   3.007   2.585  0.5874 -0.6580  2.0329
  867SOL    HW2 2601   0.004   2.982   2.555 -1.4748 -0.3812  0.8847
  868SOL     OW 2602   1.358   2.893   0.596 -0.3644  0.7022 -0.6834
  868SOL    HW1 2603   1.397   2.980   0.629 -1.2633  0.3595 -2.2539
  868SOL    HW2 2604   1.347   2.894   0.494  0.7082  1.6106  2.0398
  869SOL     OW 2605   1.415   1.593   0.932  0.2457 -0.5374  0.5603
  869SOL    HW1 2606   1.422   1.627   0.835 -0.5265  2.6322 -1.3357
  869SOL    HW2 2607   1.363   1.658   0.991 -0.6894 -0.6297 -0.2967
  870SOL     OW 2608   2.036   1.920   1.028 -0.0165  0.2719 -0.4788
  870SOL    HW1 2609   2.064   2.005   0.976  2.3109  1.8842 -3.5634
  870SOL    HW2 2610   1.978   1.864   0.970 -0.4490  0.6050 -2.4648
  871SOL     OW 2611   1.028   1.560   1.686  0.5540  0.2067 -0.1801
  871SOL    HW1 2612   1.108   1.621   1.658 -1.3309  2.8382 -2.2292
  871SOL    HW2 2613   0.980   1.516   1.604  0.7296 -1.4719  0.9026
  872SOL     OW 2614   0.935   1.464   1.456  0.2761 -0.2744 -0.1889
  872SOL    HW1 2615   1.008   1.507   1.403  0.4421 -4.4226 -0.1358
  872SOL    HW2 2616   0.879   1.404   1.393 -2.1103 -1.0591  1.5135
  873SOL     OW 2617   1.227   1.124   2.728  0.0711  0.2245 -0.0318
  873SOL    HW1 2618   1.249   1.216   2.689 -0.9070 -1.1288  3.3290
  873SOL    HW2 2619   1.307   1.093   2.785  0.1863 -0.7019  1.4663
  874SOL     OW 2620   0.057   1.513   1.146  0.0096  0.0729  0.3968
  874SOL    HW1 2621   0.038   1.561   1.057  3.0370  1.6065  0.4179
  874SOL    HW2 2622   0.059   1.576   1.222  0.0537 -1.3412 -1.6413
  875SOL     OW 2623   2.790   2.945   0.657  0.0125  0.2257 -0.0429
  875SOL    HW1 2624   2.738   3.022   0.699  2.9196  2.0875 -1.0905
  875SOL    HW2 2625   2.752   2.854   0.687  0.4361 -2.5428 -0.3037
  876SOL     OW 2626   0.957   0.673   2.978 -0.2176 -0.0217 -0.1813
  876SOL    HW1 2627   0.988   0.625   2.893  0.7005  0.7487 -0.8485
  876SOL    HW2 2628   1.016   0.654   3.055  1.3127 -1.2502 -1.0308
  877SOL     OW 2629   0.102   0.396   0.949 -0.7425  0.1278  0.0359
  877SOL    HW1 2630   0.033   0.438   1.010  0.4702  0.2216  1.3013
  877SOL    HW2 2631   0.147   0.319   0.996 -0.2784  3.1483  0.2765
  878SOL     OW 2632   1.549   2.367   0.005 -0.6501 -0.2101  0.3310
  878SOL    HW1 2633   1.579   2.445   0.062 -1.2444 -2.6839 -0.4579
  878SOL    HW2 2634   1.572   2.277   0.054  0.6197 -3.2473  1.6545
  879SOL     OW 2635   2.225   1.810   1.532  0.4195  0.0312  0.2569
  879SOL    HW1 2636   2.324   1.780   1.549  0.7771  1.5668 -0.8061
  879SOL    HW2 2637   2.193   1.897   1.569 -0.1568 -0.8517  0.8441
  880SOL     OW 2638   0.779   0.504   1.556  0.3126 -0.5868 -0.0292
  880SOL    HW1 2639   0.874   0.512   1.593 -0.9570  1.6448 -3.0170
  880SOL    HW2 2640   0.713   0.530   1.625  1.5850 -1.3913 -3.0714
  881SOL     OW 2641   0.916   1.980   3.034 -0.4611  0.0142  0.1431
  881SOL    HW1 2642   0.896   1.881   3.057 -0.0748 -1.4886  1.0664
  881SOL    HW2 2643   0.831   2.025   3.004  2.8949  1.8869  0.2295
  882SOL     OW 2644   2.213   0.692   1.652 -0.3640  0.5960 -0.0424
  882SOL    HW1 2645   2.259   0.767   1.695 -1.9189 -2.9144 -1.0135
  882SOL    HW2 2646   2.230   0.685   1.550 -0.5221 -2.2703 -0.7056
  883SOL     OW 2647   1.317   0.519   2.173  0.0879 -0.1531  0.5701
  883SOL    HW1 2648   1.413   0.511   2.201  2.9991 -1.5450 -0.4884
  883SOL    HW2 2649   1.299   0.476   2.082  0.8359  3.2241 -0.2668
  884SOL     OW 2650   2.527   0.178   0.088 -0.2487 -0.4611 -0.6280
  884SOL    HW1 2651   2.427   0.186   0.095 -0.3441 -1.2057 -0.2292
  884SOL    HW2 2652   2.559   0.093   0.137  0.9145 -1.1012 -0.7871
  885SOL     OW 2653   0.365   2.068   0.586 -0.7730  0.1409  0.0109
  885SOL    HW1 2654   0.318   2.090   0.498  2.3221 -1.4152  2.1586
  885SOL    HW2 2655   0.329   1.980   0.622  0.7821 -0.5228 -2.9753
  886SOL     OW 2656   1.732   1.228   0.089 -0.2334  0.7621  0.1980
  886SOL    HW1 2657   1.654   1.162   0.120 -1.9978 -3.2378  0.2183
  886SOL    HW2 2658   1.753   1.297   0.158  0.5954 -2.1584 -0.1801
  887SOL     OW 2659   1.471   0.536   1.745 -0.1746 -0.0122 -0.4107
  887SOL    HW1 2660   1.549   0.597   1.770 -0.6958  1.3016  2.1310
  887SOL    HW2 2661   1.396   0.591   1.702 -2.6829 -1.6044 -1.0006
  888SOL     OW 2662   2.885   1.306   1.431 -0.4128  0.2096  0.3171
  888SOL    HW1 2663   2.874   1.222   1.483  0.3690 -0.8611  1.9888
  888SOL    HW2 2664   2.809   1.308   1.357  4.2222  0.1058  2.0402
  889SOL     OW 2665   3.046   2.566   0.856 -0.0534  0.2566 -0.0666
  889SOL    HW1 2666   3.068   2.649   0.803  0.9150 -0.0483 -0.0874
  889SOL    HW2 2667   0.053   2.531   0.900  1.5324  2.0879 -1.1194
  890SOL     OW 2668   0.308   2.455   2.670  0.5388  0.1419  0.4161
  890SOL    HW1 2669   0.392   2.483   2.621 -0.2498  2.3331  0.2820
  890SOL    HW2 2670   0.228   2.511   2.644  2.2678 -0.4123  0.8464
  891SOL     OW 2671   0.459   1.817   0.283 -0.9412 -0.1971  0.0359
  891SOL    HW1 2672   0.528   1.835   0.360  1.8151 -0.3958  0.2252
  891SOL    HW2 2673   0.433   1.718   0.281 -0.0284  4.2584 -0.7026
  892SOL     OW 2674   2.994   2.394   1.227  0.4123  0.2463 -0.1899
  892SOL    HW1 2675   2.954   2.399   1.324 -1.0613  0.0450 -0.9444
  892SOL    HW2 2676   2.922   2.402   1.155  0.1361 -1.4335 -1.7917
  893SOL     OW 2677   0.411   2.902   1.544 -0.4170 -0.0720  0.1075
  893SOL    HW1 2678   0.496   2.906   1.603  0.7919  2.1334  0.9749
  893SOL    HW2 2679   0.383   2.999   1.524 -0.2338 -0.1508 -2.8588
  894SOL     OW 2680   2.573   1.488   0.868  0.0677 -0.3253 -0.5072
  894SOL    HW1 2681   2.544   1.584   0.856 -0.6307 -3.0163  0.1593
  894SOL    HW2 2682   2.612   1.466   0.779 -1.4631  1.0919  2.3028
  895SOL     OW 2683   2.358   2.632   1.631 -0.3905  0.1874 -0.2611
  895SOL    HW1 2684   2.283   2.579   1.679  4.1285 -0.1457  1.4735
  895SOL    HW2 2685   2.448   2.592   1.665  0.0644 -0.4177  2.2530
  896SOL     OW 2686   0.891   0.086   1.268 -0.1562 -0.1294 -0.0999
  896SOL    HW1 2687   0.801   0.132   1.290 -0.6942 -0.9297  1.4665
  896SOL    HW2 2688   0.931   0.067   1.360  0.4434  1.3092 -0.3923
  897SOL     OW 2689   0.622   1.658   1.121  0.4603  0.0501 -0.0543
  897SOL    HW1 2690   0.525   1.659   1.144  0.0897  1.0720  1.3815
  897SOL    HW2 2691   0.677   1.697   1.199  1.5671  2.0644  3.1130
  898SOL     OW 2692   1.606   2.664   1.579 -0.2717 -0.4440 -0.5638
  898SOL    HW1 2693   1.557   2.595   1.631 -1.7152  0.1246 -3.5252
  898SOL    HW2 2694   1.704   2.661   1.595 -3.5638  0.8131 -1.4396
  899SOL     OW 2695   1.054   0.334   2.641  0.5511 -0.1958  0.3757
  899SOL    HW1 2696   1.139   0.351   2.589 -3.2095 -2.5365  1.2489
  899SOL    HW2 2697   0.972   0.317   2.579 -1.4440  0.4817 -0.1569
  900SOL     OW 2698   1.174   2.588   1.777  0.0098 -0.2618  0.0861
  900SOL    HW1 2699   1.126   2.510   1.823  1.5208  1.2761 -2.5459
  900SOL    HW2 2700   1.191   2.558   1.676 -0.2995 -0.3669 -0.7663
  901SOL     OW 2701   0.851   1.909   0.325 -0.1554  0.3715  0.4797
  901SOL    HW1 2702   0.952   1.888   0.340  1.1191 -0.0228 -2.8999
  901SOL    HW2 2703   0.843   1.959   0.240 -0.6228 -0.0800  1.3691
  902SOL     OW 2704   1.621   1.149   1.030 -0.0398  0.2191 -0.0459
  902SOL    HW1 2705   1.677   1.233   1.021  0.8393 -1.2094  1.2733
  902SOL    HW2 2706   1.524   1.174   1.026 -0.2462 -1.5754  1.3043
  903SOL     OW 2707   2.550   1.079   2.839 -0.4004  0.3189  0.4166
  903SOL    HW1 2708   2.585   1.171   2.810  0.0884 -0.8241  0.6131
  903SOL    HW2 2709   2.517   1.076   2.932  0.9604  1.1553 -1.6238
  904SOL     OW 2710   0.949   1.261   0.228  0.0459  0.3418 -0.2252
  904SOL    HW1 2711   1.042   1.273   0.177  2.6366 -0.2112 -1.0676
  904SOL    HW2 2712   0.963   1.266   0.329 -0.4591  2.2739 -2.3349
  905SOL     OW 2713   1.657   0.072   1.264 -0.5852  0.6087  0.8249
  905SOL    HW1 2714   1.661   0.167   1.303 -0.4281 -0.4329  0.5019
  905SOL    HW2 2715   1.646   3.074   1.334  0.6978 -2.0854  2.0945
  906SOL     OW 2716   2.609   2.706   0.983  0.5420  0.3976 -0.0083
  906SOL    HW1 2717   2.564   2.785   1.035 -0.6233  0.7648 -0.0379
  906SOL    HW2 2718   2.549   2.669   0.914 -1.8706  1.2122  0.2339
  907SOL     OW 2719   1.501   0.826   0.578 -0.1269  0.4832 -0.1095
  907SOL    HW1 2720   1.446   0.740   0.570 -2.2850  1.4055  0.2736
  907SOL    HW2 2721   1.469   0.882   0.662  2.6348 -1.9722 -0.7143
  908SOL     OW 2722   1.494   0.062   1.063 -0.0019 -0.9749 -0.4168
  908SOL    HW1 2723   1.477   0.166   1.045 -0.6829  3.2797 -0.7181
  908SOL    HW2 2724   1.555   0.057   1.147 -1.3525 -1.6028 -1.0883
  909SOL     OW 2725   2.239   0.673   1.380  0.1488 -0.1296  0.2470
  909SOL    HW1 2726   2.178   0.713   1.308 -1.8950  2.1912 -1.6738
  909SOL    HW2 2727   2.280   0.579   1.357  0.5379 -1.7393 -3.3390
  910SOL     OW 2728   2.180   0.707   2.120  0.2308 -0.0123  0.0240
  910SOL    HW1 2729   2.100   0.730   2.059 -0.9865 -0.6079 -0.1350
  910SOL    HW2 2730   2.238   0.787   2.153 -0.0219  1.8596 -0.2889
  911SOL     OW 2731   2.285   0.617   2.758 -0.3697  0.5636  0.2919
  911SOL    HW1 2732   2.336   0.702   2.739  0.0088  1.5810 -2.4573
  911SOL    HW2 2733   2.294   0.581   2.856 -1.7023  0.4263  0.5827
  912SOL     OW 2734   0.496   1.063   1.638 -0.5092 -0.5807 -0.2875
  912SOL    HW1 2735   0.582   1.086   1.594 -1.9197 -0.7707  2.4185
  912SOL    HW2 2736   0.412   1.076   1.585 -0.1484 -0.1822  1.3343
  913SOL     OW 2737   2.873   2.349   1.499  0.1673 -0.6172 -0.2653
  913SOL    HW1 2738   2.909   2.264   1.541 -2.6494 -0.1899  1.3308
  913SOL    HW2 2739   2.918   2.431   1.540  0.7486  0.7781 -0.6566
  914SOL     OW 2740   1.537   0.733   2.017 -0.1340  0.0092  0.0512
  914SOL    HW1 2741   1.450   0.744   1.968 -1.0726  2.0846  0.2489
  914SOL    HW2 2742   1.610   0.687   1.967  0.8868 -0.1344 -3.7691
  915SOL     OW 2743   2.500   0.947   1.101 -0.2322  0.0496  0.9341
  915SOL    HW1 2744   2.574   0.883   1.126 -1.1902 -0.3314  0.3888
  915SOL    HW2 2745   2.539   1.038   1.075  2.4820  1.0271  1.2438
  916SOL     OW 2746   1.735   2.171   1.054  0.1598 -0.4146 -0.1243
  916SOL    HW1 2747   1.704   2.242   1.120 -0.7234  0.6106  0.8560
  916SOL    HW2 2748   1.725   2.088   1.113 -1.3077  1.1793  1.8881
  917SOL     OW 2749   1.941   2.252   2.325 -0.5964  0.1179 -0.2045
  917SOL    HW1 2750   1.860   2.240   2.267  1.1290 -0.0939  1.2296
  917SOL    HW2 2751   1.973   2.348   2.307 -0.6226  1.7644 -1.5564
  918SOL     OW 2752   1.847   2.424   2.565 -0.1251 -0.3893 -0.0124
  918SOL    HW1 2753   1.749   2.450   2.551 -1.7872  0.1059  1.6622
  918SOL    HW2 2754   1.880   2.341   2.513 -1.2577 -2.3849 -4.3538
  919SOL     OW 2755   1.020   0.055   1.514  0.1032  0.4969 -0.2442
  919SOL    HW1 2756   1.114   0.018   1.500 -0.6029 -0.6030  1.4333
  919SOL    HW2 2757   1.025   0.114   1.597 -0.4447 -0.4543  1.8709
  920SOL     OW 2758   2.895   0.395   2.385 -0.1781  0.3601  0.3147
  920SOL    HW1 2759   2.948   0.331   2.443  0.9048  0.4784  1.5604
  920SOL    HW2 2760   2.853   0.467   2.441  1.2909  0.7912  0.9896
  921SOL     OW 2761   0.044   1.014   1.793  0.2824 -0.1886 -0.1731
  921SOL    HW1 2762   0.065   1.111   1.812 -1.7117  0.4894  2.8220
  921SOL    HW2 2763   3.026   1.006   1.768  0.9894 -1.0867 -0.1241
  922SOL     OW 2764   2.225   2.436   0.388 -0.2167  0.4203 -0.4064
  922SOL    HW1 2765   2.156   2.513   0.382  0.2094  1.4677  2.4732
  922SOL    HW2 2766   2.298   2.455   0.321 -0.3658  1.9205 -1.9344
  923SOL     OW 2767   0.622   2.157   0.637 -0.2661  0.3894  0.0919
  923SOL    HW1 2768   0.630   2.131   0.738 -0.1371  0.1563  2.2925
  923SOL    HW2 2769   0.534   2.126   0.608  3.1765  2.7333 -0.9861
  924SOL     OW 2770   1.181   0.901   0.201 -0.5654 -0.2668  0.2945
  924SOL    HW1 2771   1.219   0.977   0.146  0.2167 -4.3669  2.0809
  924SOL    HW2 2772   1.124   0.944   0.273  1.1302  0.0794  2.9933
  925SOL     OW 2773   2.696   0.747   0.806  0.0631 -0.5291 -0.5263
  925SOL    HW1 2774   2.771   0.673   0.802  1.5729 -1.5757  0.3387
  925SOL    HW2 2775   2.633   0.732   0.728  1.8894 -1.1284 -0.0734
  926SOL     OW 2776   0.398   0.275   1.312  0.0251  0.0349 -0.0042
  926SOL    HW1 2777   0.452   0.256   1.227  2.1006 -0.5601 -0.7538
  926SOL    HW2 2778   0.320   0.335   1.294  2.7944 -0.6190  0.0905
  927SOL     OW 2779   0.673   1.394   2.465 -0.0871  0.7170  0.3281
  927SOL    HW1 2780   0.617   1.370   2.546  0.0969 -2.3433 -1.1026
  927SOL    HW2 2781   0.647   1.329   2.391  0.4182 -0.5055 -1.9962
  928SOL     OW 2782   0.054   0.665   2.272 -0.5014 -0.2909 -0.2067
  928SOL    HW1 2783   3.057   0.654   2.205  0.2742 -0.2694  3.1738
  928SOL    HW2 2784   0.082   0.572   2.299  4.2530  1.0882 -0.7806
  929SOL     OW 2785   2.940   2.986   1.300  0.4688 -0.3436 -0.2520
  929SOL    HW1 2786   2.881   2.986   1.220  1.4994 -2.4301  2.5980
  929SOL    HW2 2787   3.011   3.057   1.289  1.3171  1.1068  0.0518
  930SOL     OW 2788   1.939   0.526   1.904  0.2888  0.3643 -0.2707
  930SOL    HW1 2789   2.016   0.469   1.871  2.1396 -0.2185 -1.0707
  930SOL    HW2 2790   1.892   0.473   1.984 -1.7568  0.4577  3.1224
  931SOL     OW 2791   2.289   0.822   0.081  0.3542 -0.5252 -0.0650
  931SOL    HW1 2792   2.201   0.797   0.126 -0.4047 -0.9690 -0.9572
  931SOL    HW2 2793   2.370   0.786   0.132  0.4040 -1.4142 -0.2751
  932SOL     OW 2794   2.152   1.389   0.497 -0.2391  0.0410 -0.2397
  932SOL    HW1 2795   2.241   1.337   0.514 -1.1066  0.2525 -0.5701
  932SOL    HW2 2796   2.096   1.361   0.579  0.6436 -0.4863  2.4372
  933SOL     OW 2797   2.033   1.608   1.021 -0.2960 -0.8161 -0.7856
  933SOL    HW1 2798   2.112   1.622   1.092  2.0467  2.9862  0.7981
  933SOL    HW2 2799   2.008   1.508   1.016 -0.7576  0.8461  0.4618
  934SOL     OW 2800   1.916   0.875   2.625  0.1085  0.3797  0.6817
  934SOL    HW1 2801   2.009   0.892   2.662  3.6335  1.0578  1.1037
  934SOL    HW2 2802   1.913   0.807   2.548  1.4975  0.5236  2.0759
  935SOL     OW 2803   0.290   0.986   0.586  0.4512  0.7631 -0.3992
  935SOL    HW1 2804   0.241   1.020   0.500 -0.8848 -2.1582 -0.8193
  935SOL    HW2 2805   0.253   1.033   0.671  2.5516  2.3050  1.7990
  936SOL     OW 2806   0.622   2.958   0.838  0.0262  0.6810 -0.6859
  936SOL    HW1 2807   0.676   3.008   0.904 -0.1575 -1.0840 -1.9549
  936SOL    HW2 2808   0.554   3.029   0.792  1.0040 -0.8753  3.1485
  937SOL     OW 2809   2.797   2.965   1.684 -0.2347  0.4137 -0.3480
  937SOL    HW1 2810   2.801   2.904   1.600  1.3039 -0.3110 -0.7440
  937SOL    HW2 2811   2.843   2.923   1.765  1.1061 -0.6032  3.9211
  938SOL     OW 2812   2.869   2.247   0.151 -0.0708 -0.4341 -0.3493
  938SOL    HW1 2813   2.827   2.313   0.085 -0.5995  2.1341 -0.6623
  938SOL    HW2 2814   2.953   2.285   0.191 -4.7640 -2.0501 -2.2321
  939SOL     OW 2815   1.165   1.526   1.288 -0.2839  0.0394 -0.2346
  939SOL    HW1 2816   1.209   1.454   1.226  2.3967 -1.6755 -1.8901
  939SOL    HW2 2817   1.233   1.592   1.320 -1.9662 -0.2625  1.5193
  940SOL     OW 2818   2.924   0.594   2.839  0.3368  0.2828 -0.5016
  940SOL    HW1 2819   2.967   0.512   2.792  0.7193  1.9998 -1.0845
  940SOL    HW2 2820   2.943   0.593   2.937  1.3141  0.1360 -0.9408
  941SOL     OW 2821   2.295   0.343   2.676 -0.1317  0.0839  0.1543
  941SOL    HW1 2822   2.385   0.309   2.714 -1.1926 -1.1603  1.0445
  941SOL    HW2 2823   2.282   0.442   2.689 -0.6316 -0.0590 -1.5767
  942SOL     OW 2824   1.685   0.442   0.861  0.2219 -0.5141  0.3146
  942SOL    HW1 2825   1.778   0.407   0.845  1.7118  0.5045 -2.9700
  942SOL    HW2 2826   1.697   0.541   0.897  0.8321  4.7880 -0.3347
  943SOL     OW 2827   1.160   1.240   2.078 -0.4327 -0.1947  0.5141
  943SOL    HW1 2828   1.202   1.149   2.064  1.3861  1.3499  1.9471
  943SOL    HW2 2829   1.108   1.266   1.990 -1.0243 -0.7246 -0.8733
  944SOL     OW 2830   2.022   1.008   1.586 -0.3432 -0.4004  0.4481
  944SOL    HW1 2831   1.982   0.920   1.612 -1.8062  0.0725 -2.2882
  944SOL    HW2 2832   2.126   1.004   1.575 -1.9640 -0.0717 -0.5804
  945SOL     OW 2833   2.902   0.128   2.775 -0.1284 -0.0804 -0.2904
  945SOL    HW1 2834   2.866   0.095   2.682 -2.4225 -1.6979 -2.1608
  945SOL    HW2 2835   2.876   0.064   2.851  2.0781  1.3311 -2.9357
  946SOL     OW 2836   2.836   1.486   1.660 -0.2263 -0.2153 -0.1259
  946SOL    HW1 2837   2.824   1.455   1.562 -0.2440 -2.9823  1.8107
  946SOL    HW2 2838   2.768   1.556   1.679 -0.0788 -2.5451 -2.1236
  947SOL     OW 2839   0.982   2.876   0.090 -0.6866  0.1633 -0.6681
  947SOL    HW1 2840   0.936   2.800   0.044  2.9132 -1.8269  0.5243
  947SOL    HW2 2841   0.960   2.882   0.188  1.7449  0.2415 -1.3527
  948SOL     OW 2842   2.222   1.675   1.196 -0.3317  0.2009 -0.0593
  948SOL    HW1 2843   2.197   1.775   1.188  0.8636 -1.2692  2.4036
  948SOL    HW2 2844   2.318   1.657   1.164  2.5328 -1.0014 -0.4754
  949SOL     OW 2845   0.227   1.266   2.946  0.4362 -0.2490  0.9107
  949SOL    HW1 2846   0.189   1.207   2.876  2.6949  0.6864  2.0352
  949SOL    HW2 2847   0.275   1.342   2.898  1.0370  1.1972 -3.4295
  950SOL     OW 2848   0.581   2.391   1.141  1.2934 -0.1390 -0.1100
  950SOL    HW1 2849   0.494   2.421   1.182  0.6711 -0.3910  0.1104
  950SOL    HW2 2850   0.618   2.453   1.073 -2.0311 -3.7007  4.2484
  951SOL     OW 2851   0.613   1.632   2.648 -0.4045 -0.1968  0.0159
  951SOL    HW1 2852   0.713   1.624   2.659  1.6377 -1.5875  1.3854
  951SOL    HW2 2853   0.569   1.540   2.645 -2.6390 -0.7690 -0.2848
  952SOL     OW 2854   0.760   1.058   0.413 -0.2301  0.2016  0.6655
  952SOL    HW1 2855   0.678   1.094   0.459 -0.4545  1.3733 -0.6215
  952SOL    HW2 2856   0.844   1.118   0.432  0.8125  1.2057  1.2514
  953SOL     OW 2857   2.361   2.757   2.543  0.2371  0.4591  0.4750
  953SOL    HW1 2858   2.436   2.696   2.559 -0.6491 -0.9526  1.2567
  953SOL    HW2 2859   2.293   2.766   2.620 -2.3377  2.6875  2.5792
  954SOL     OW 2860   1.861   0.933   0.903  0.1232 -0.1089  0.1473
  954SOL    HW1 2861   1.885   0.988   0.984  1.2458 -0.0118  0.0754
  954SOL    HW2 2862   1.937   0.925   0.837 -1.1424  0.9329 -0.3079
  955SOL     OW 2863   0.636   1.844   0.488 -0.1468  0.1180  0.0373
  955SOL    HW1 2864   0.715   1.893   0.446 -0.2847 -0.1397  0.9688
  955SOL    HW2 2865   0.607   1.905   0.565 -2.0700  0.9705 -2.3089
  956SOL     OW 2866   2.370   0.539   2.016 -0.1617 -0.0271  0.4373
  956SOL    HW1 2867   2.307   0.617   2.047 -0.9049 -0.0992 -0.0352
  956SOL    HW2 2868   2.349   0.447   2.047 -0.4197 -0.8943 -0.7857
  957SOL     OW 2869   1.963   2.272   1.734 -0.5738  0.2232  0.3166
  957SOL    HW1 2870   2.060   2.246   1.709  4.5116  0.6417 -2.6870
  957SOL    HW2 2871   1.943   2.232   1.825  0.4918  3.5433 -4.5440
  958SOL     OW 2872   1.674   1.042   1.334 -0.4348 -0.3532  0.3204
  958SOL    HW1 2873   1.703   1.125   1.393  1.4259  0.9166 -0.2189
  958SOL    HW2 2874   1.599   1.064   1.274  3.6192 -2.3065  1.3432
  959SOL     OW 2875   1.795   1.826   2.065  0.0805  0.0032  0.3000
  959SOL    HW1 2876   1.813   1.726   2.074  0.5708 -0.6346  0.0391
  959SOL    HW2 2877   1.708   1.839   2.013  0.4446  1.7862 -2.8892
  960SOL     OW 2878   0.786   0.988   2.766  0.1859 -0.1977 -0.5002
  960SOL    HW1 2879   0.821   0.947   2.680  1.3482  1.2321 -0.5421
  960SOL    HW2 2880   0.863   1.021   2.822 -2.0984 -2.6428  0.4363
  961SOL     OW 2881   0.128   1.145   2.736  0.3348  0.4401 -0.0017
  961SOL    HW1 2882   0.122   1.046   2.735  1.2725 -0.9102 -1.5228
  961SOL    HW2 2883   0.157   1.186   2.647  0.9202 -0.4796  0.4025
  962SOL     OW 2884   0.717   1.878   2.546  0.1672  0.4916 -0.3971
  962SOL    HW1 2885   0.652   1.806   2.569  4.3372  0.2219 -1.1623
  962SOL    HW2 2886   0.676   1.970   2.548 -1.0917 -2.8742 -0.5975
  963SOL     OW 2887   2.801   1.985   0.137  0.2111 -0.9730 -0.3522
  963SOL    HW1 2888   2.709   1.948   0.108  0.8826  0.7800  0.4053
  963SOL    HW2 2889   2.808   2.087   0.122 -0.6480 -1.1067  0.6979
  964SOL     OW 2890   0.831   2.021   2.136  0.5379  0.4443 -0.2809
  964SOL    HW1 2891   0.869   2.116   2.117 -0.0648 -0.3973 -0.2025
  964SOL    HW2 2892   0.820   1.963   2.056  0.8918  3.8751  0.3663
  965SOL     OW 2893   1.947   1.883   0.574 -0.8899 -0.0102 -0.4304
  965SOL    HW1 2894   2.003   1.969   0.578  0.1027  1.6811 -3.1857
  965SOL    HW2 2895   1.934   1.848   0.669  1.7845  1.9857  0.2268
  966SOL     OW 2896   2.941   1.647   0.046 -0.0374  0.8789  0.0389
  966SOL    HW1 2897   2.985   1.730   0.084  0.8328  2.1682 -0.4662
  966SOL    HW2 2898   3.007   1.568   0.049  1.3985 -0.4276  0.7586
  967SOL     OW 2899   2.129   0.024   2.211 -0.5068 -0.0979 -0.1309
  967SOL    HW1 2900   2.178   3.051   2.280  0.2640  0.8489 -1.2263
  967SOL    HW2 2901   2.094   3.043   2.142 -1.3135  0.9601  1.6493
  968SOL     OW 2902   0.771   0.642   0.140 -0.7061 -0.1009  0.0990
  968SOL    HW1 2903   0.736   0.736   0.130 -1.4081  0.9650  0.8783
  968SOL    HW2 2904   0.865   0.640   0.178  0.4067 -0.0114  1.9484
  969SOL     OW 2905   0.470   1.497   2.148 -0.6275  0.2508 -0.7081
  969SOL    HW1 2906   0.528   1.542   2.223  0.0002  1.4038  2.5271
  969SOL    HW2 2907   0.533   1.452   2.084 -1.1890 -0.6356 -0.6923
  970SOL     OW 2908   1.971   2.644   1.331 -0.0118 -0.5580 -0.2026
  970SOL    HW1 2909   2.018   2.630   1.243  0.5559 -0.2154  0.9555
  970SOL    HW2 2910   2.009   2.571   1.397 -0.8870  1.8083 -1.5337
  971SOL     OW 2911   2.160   2.384   0.793 -0.4017 -0.0053  0.2327
  971SOL    HW1 2912   2.121   2.472   0.822  0.3986 -1.6673 -0.0310
  971SOL    HW2 2913   2.247   2.394   0.736 -1.9972  2.0891 -2.6445
  972SOL     OW 2914   3.035   1.090   2.368 -0.0897  0.1135  0.0490
  972SOL    HW1 2915   3.043   1.037   2.280  1.5090 -0.3398 -0.5087
  972SOL    HW2 2916   0.035   1.145   2.363  0.1765  0.3434  1.9663
  973SOL     OW 2917   0.597   0.092   0.301 -0.1552  0.5404  0.0840
  973SOL    HW1 2918   0.598   0.158   0.377 -0.2885 -1.4468 -0.1834
  973SOL    HW2 2919   0.541   0.127   0.225 -1.0239 -0.7208  0.9448
  974SOL     OW 2920   2.470   0.844   1.947 -0.2368  0.1476  0.0540
  974SOL    HW1 2921   2.501   0.770   2.008  0.7327 -0.2710  0.1523
  974SOL    HW2 2922   2.423   0.916   1.999  0.9323  0.0184 -1.1841
  975SOL     OW 2923   0.010   3.002   0.424 -0.1107 -0.4595 -0.1048
  975SOL    HW1 2924   2.992   3.037   0.413 -0.7978 -1.2911 -0.1179
  975SOL    HW2 2925   0.020   2.903   0.445  3.0776 -2.3875 -0.8186
  976SOL     OW 2926   0.133   1.786   1.017  0.0841  0.0779 -0.0725
  976SOL    HW1 2927   0.082   1.779   1.105  3.0885  1.0196 -0.1662
  976SOL    HW2 2928   0.076   1.731   0.952 -1.2159  0.1919 -1.4360
  977SOL     OW 2929   1.130   1.647   0.422 -0.1461 -0.1355 -0.0333
  977SOL    HW1 2930   1.040   1.612   0.392 -1.0280  1.2210  1.9950
  977SOL    HW2 2931   1.118   1.745   0.437  0.9602 -1.7753 -1.9845
  978SOL     OW 2932   0.101   0.823   0.323  0.0237 -0.3493 -0.0821
  978SOL    HW1 2933   0.116   0.798   0.227 -2.1755 -1.1279  0.2847
  978SOL    HW2 2934   0.124   0.921   0.346  0.4580  1.8589 -0.2637
  979SOL     OW 2935   1.758   1.654   0.741  0.1422 -0.5663 -0.3537
  979SOL    HW1 2936   1.859   1.672   0.763  0.5371 -2.5889 -0.3307
  979SOL    HW2 2937   1.719   1.596   0.816 -0.5988 -0.7460 -1.5425
  980SOL     OW 2938   0.465   1.969   1.967  0.6627  0.1899 -0.0182
  980SOL    HW1 2939   0.529   1.953   2.047 -0.0219 -1.9925  0.6030
  980SOL    HW2 2940   0.524   2.002   1.886  0.8575  0.4556 -0.8093
  981SOL     OW 2941   2.027   1.200   2.803  0.2808 -0.2098 -0.0332
  981SOL    HW1 2942   2.017   1.241   2.896 -0.0642  0.9148  0.5358
  981SOL    HW2 2943   2.055   1.268   2.731 -1.1412 -0.1228 -0.7489
  982SOL     OW 2944   2.908   2.639   1.865 -0.3669  0.3908  0.4413
  982SOL    HW1 2945   2.944   2.730   1.893 -3.4671 -3.1947  1.1021
  982SOL    HW2 2946   2.933   2.611   1.768 -0.8270 -1.2160 -1.4304
  983SOL     OW 2947   1.595   0.331   1.629  0.4986 -0.1986 -0.1205
  983SOL    HW1 2948   1.539   0.413   1.662 -1.5619  0.3877  2.7370
  983SOL    HW2 2949   1.578   0.248   1.689  0.4404 -1.0112 -1.9150
  984SOL     OW 2950   2.125   2.903   3.078 -0.0928 -0.0303 -0.2659
  984SOL    HW1 2951   2.203   2.958   3.036 -0.0461 -0.5835 -0.3035
  984SOL    HW2 2952   2.032   2.918   3.031  2.7608  1.7401 -0.1669
  985SOL     OW 2953   1.665   1.366   1.786  0.1378  0.1766 -0.2692
  985SOL    HW1 2954   1.742   1.308   1.755  1.5527 -1.6125 -0.4060
  985SOL    HW2 2955   1.620   1.323   1.872  1.6233  1.9689  3.3385
  986SOL     OW 2956   2.026   2.632   2.610  0.4283 -0.4189 -0.1655
  986SOL    HW1 2957   2.040   2.650   2.708 -0.3131  2.8480 -0.4300
  986SOL    HW2 2958   1.950   2.561   2.602  1.4308  1.4171  2.1685
  987SOL     OW 2959   2.783   1.785   2.766 -0.4661  0.3294  0.1368
  987SOL    HW1 2960   2.800   1.701   2.707 -0.4585  0.1678 -1.2195
  987SOL    HW2 2961   2.707   1.843   2.734 -0.2327  1.8400  1.1088
  988SOL     OW 2962   3.037   0.853   1.390 -0.2136 -0.6138  0.5075
  988SOL    HW1 2963   0.025   0.852   1.464  0.5280 -1.9236  1.0523
  988SOL    HW2 2964   3.046   0.942   1.333  1.3093  0.6412  0.4627
  989SOL     OW 2965   1.934   0.933   1.312 -0.4604 -0.0061 -0.3288
  989SOL    HW1 2966   1.956   0.912   1.410 -1.6601  2.0990 -0.5976
  989SOL    HW2 2967   1.841   0.969   1.302  1.0341  1.1932  1.0359
  990SOL     OW 2968   2.584   0.783   0.118  0.4598  0.2117  0.0803
  990SOL    HW1 2969   2.569   0.793   0.018  3.1193 -0.2100  1.8198
  990SOL    HW2 2970   2.676   0.807   0.148 -1.8762  0.3957 -1.2097
  991SOL     OW 2971   0.279   1.573   0.018  0.1910 -0.2485 -0.4215
  991SOL    HW1 2972   0.193   1.520   0.032  0.6637 -0.8804 -0.2908
  991SOL    HW2 2973   0.304   1.606   0.113 -1.8592  0.1869  2.1951
  992SOL     OW 2974   2.328   1.628   1.815  0.4531  0.3942 -0.5951
  992SOL    HW1 2975   2.231   1.651   1.832  0.5063  0.7565 -3.0204
  992SOL    HW2 2976   2.385   1.712   1.826  0.3927 -1.5667  0.5444
  993SOL     OW 2977   0.546   2.708   0.461  0.5522 -0.5105  0.5067
  993SOL    HW1 2978   0.506   2.625   0.503 -1.0773  1.7186 -0.9079
  993SOL    HW2 2979   0.611   2.754   0.526  1.0423 -2.8584 -3.5895
  994SOL     OW 2980   2.804   2.088   1.563  0.7688 -0.1517  0.4784
  994SOL    HW1 2981   2.762   2.160   1.622  0.7915  1.4004  0.8931
  994SOL    HW2 2982   2.831   2.010   1.618 -1.3252  3.5490 -0.5405
  995SOL     OW 2983   1.858   1.962   2.296  0.4020  0.3677  0.0918
  995SOL    HW1 2984   1.900   2.049   2.266 -1.1650 -1.2521 -3.0054
  995SOL    HW2 2985   1.852   1.886   2.224  2.8277  0.1186  0.6477
  996SOL     OW 2986   1.943   1.918   2.955  0.2197 -0.0578  0.2316
  996SOL    HW1 2987   1.915   2.015   2.976 -1.2127 -0.3258 -0.1409
  996SOL    HW2 2988   1.929   1.867   3.041  0.7648  2.0222 -0.7537
  997SOL     OW 2989   1.243   1.396   2.602 -0.2452  0.4530  0.0256
  997SOL    HW1 2990   1.205   1.379   2.514  0.1096 -0.5803 -0.6522
  997SOL    HW2 2991   1.345   1.419   2.589  2.5863 -1.1947  0.0414
  998SOL     OW 2992   2.845   2.438   0.747 -0.0937  0.4648  0.5888
  998SOL    HW1 2993   2.865   2.426   0.647  0.5756 -1.2668 -0.9841
  998SOL    HW2 2994   2.927   2.481   0.794 -1.4928  2.7458  2.1967
  999SOL     OW 2995   0.253   2.640   0.414 -0.3434  0.1964  0.2275
  999SOL    HW1 2996   0.326   2.615   0.474 -0.4785  1.4985  0.2641
  999SOL    HW2 2997   0.279   2.630   0.319  0.6229 -3.1336  2.3069
 1000SOL     OW 2998   1.053   3.069   2.991  0.2348  0.7550  0.3991
 1000SOL    HW1 2999   1.056   3.010   3.074  0.2741 -0.4061  0.3396
 1000SOL    HW2 3000   0.959   0.004   2.957 -1.1246  0.3403  1.1156
   3.07905   3.07905   3.07905
