1000 SPC/Fw water molecules t= 257.00000 step= 257000
 3000
    1SOL     OW    1   2.828   2.502   1.006 -0.2292 -0.1027 -0.1664
    1SOL    HW1    2   2.895   2.425   0.994  1.0964 -0.9500 -1.1731
    1SOL    HW2    3   2.778   2.525   0.918  0.7784  0.8178 -5.4498
    2SOL     OW    4   1.823   2.202   1.319  0.1756 -0.7027  0.0569
    2SOL    HW1    5   1.776   2.167   1.404 -0.6566 -0.2825  2.9679
    2SOL    HW2    6   1.791   2.160   1.232 -1.0698  2.0185  1.0135
    3SOL     OW    7   0.976   2.646   2.839 -0.1838  0.3401 -0.3876
    3SOL    HW1    8   1.047   2.719   2.848  0.6537 -1.3355  0.7471
    3SOL    HW2    9   0.963   2.602   2.931  0.5572  1.3792  1.7610
    4SOL     OW   10   2.025   2.052   1.612 -0.4888 -0.4151  0.7168
    4SOL    HW1   11   2.112   2.019   1.658  1.0841  1.8633 -1.4047
    4SOL    HW2   12   1.969   2.119   1.667 -0.0651  1.4796  1.9504
    5SOL     OW   13   1.392   1.104   1.448  0.0207 -0.4751  0.2099
    5SOL    HW1   14   1.396   1.203   1.473 -1.5496  0.4590 -0.4607
    5SOL    HW2   15   1.482   1.081   1.406  2.6062  0.2576 -1.7989
    6SOL     OW   16   2.505   3.068   0.109 -0.1743  0.4722  0.2509
    6SOL    HW1   17   2.502   0.061   0.102  1.1324 -0.6262 -1.9051
    6SOL    HW2   18   2.485   3.026   0.020  1.4525  0.7601 -3.5037
    7SOL     OW   19   2.849   1.441   1.319 -0.6412 -0.4703 -0.1388
    7SOL    HW1   20   2.830   1.470   1.221 -0.5139 -1.7213  1.4479
    7SOL    HW2   21   2.933   1.478   1.358 -0.5392 -0.4619 -1.5208
    8SOL     OW   22   1.253   0.044   0.878 -0.4821  0.3756 -0.3683
    8SOL    HW1   23   1.199   3.070   0.916  1.2999 -2.6098 -0.1923
    8SOL    HW2   24   1.350   0.013   0.851  0.7080  1.6017 -2.8071
    9SOL     OW   25   1.395   0.101   2.315 -0.1627 -0.2398  0.0417
    9SOL    HW1   26   1.417   0.177   2.253 -0.9599 -1.4371  0.3668
    9SOL    HW2   27   1.453   0.112   2.396 -0.1186 -1.7776  0.6563
   10SOL     OW   28   0.820   2.229   0.567  0.5630  0.1434  0.0550
   10SOL    HW1   29   0.727   2.217   0.609 -0.6391 -0.5322 -0.4466
   10SOL    HW2   30   0.845   2.137   0.535  0.7520 -0.7917 -1.1630
   11SOL     OW   31   1.382   1.282   0.450  1.0570  0.3763  0.5883
   11SOL    HW1   32   1.476   1.296   0.488  0.2964 -1.5147  4.0567
   11SOL    HW2   33   1.359   1.363   0.393 -1.0938 -0.3388 -0.1076
   12SOL     OW   34   2.787   3.083   1.841 -0.0651 -0.2192  0.1477
   12SOL    HW1   35   2.760   3.104   1.936  0.8991  0.6440 -1.6323
   12SOL    HW2   36   2.711   3.103   1.778  0.7863 -0.8622  0.1332
   13SOL     OW   37   1.718   0.155   0.548  0.2410 -0.0916 -0.4994
   13SOL    HW1   38   1.653   0.230   0.517  2.5400  0.9114  0.6278
   13SOL    HW2   39   1.814   0.192   0.557 -0.9384  0.4388  1.1843
   14SOL     OW   40   1.338   2.339   1.112  0.4693 -0.1074 -0.8808
   14SOL    HW1   41   1.300   2.422   1.064 -1.3162  2.6407 -0.8545
   14SOL    HW2   42   1.438   2.344   1.098  1.8185  1.1985 -1.9400
   15SOL     OW   43   2.659   1.478   1.506  0.4663 -0.0663  0.4455
   15SOL    HW1   44   2.724   1.461   1.431 -0.2871  0.3400 -0.2329
   15SOL    HW2   45   2.673   1.411   1.580  0.1036  2.6275 -2.1039
   16SOL     OW   46   2.068   2.515   0.283  0.8052 -0.2808  0.1235
   16SOL    HW1   47   1.969   2.538   0.280  0.7054  0.4180 -0.1647
   16SOL    HW2   48   2.106   2.436   0.225  2.0718 -0.9830 -0.7949
   17SOL     OW   49   0.854   0.057   1.323  1.1009  0.2575  0.5238
   17SOL    HW1   50   0.877   0.138   1.263 -1.3706  1.5633 -1.7758
   17SOL    HW2   51   0.775   0.004   1.283  2.0103 -0.2506  0.6082
   18SOL     OW   52   1.665   0.700   2.765 -0.5519  0.4384 -0.3131
   18SOL    HW1   53   1.627   0.740   2.850 -2.4356 -0.5627 -0.9546
   18SOL    HW2   54   1.757   0.741   2.745  1.7123 -0.8808  0.9124
   19SOL     OW   55   1.844   1.882   0.038 -0.0099  0.2745 -0.3543
   19SOL    HW1   56   1.919   1.866   3.080  0.9005 -0.8295 -0.2888
   19SOL    HW2   57   1.817   1.983   0.041  1.0575  1.0510 -0.8546
   20SOL     OW   58   2.250   1.942   1.737  0.2208 -0.1581  0.0617
   20SOL    HW1   59   2.334   1.994   1.714 -2.4489  0.0321 -2.6180
   20SOL    HW2   60   2.266   1.840   1.721 -1.5948 -1.7788  1.3542
   21SOL     OW   61   1.042   1.643   0.150 -0.5334  0.2608 -0.4380
   21SOL    HW1   62   1.034   1.561   0.217 -0.0385 -2.9923  2.6663
   21SOL    HW2   63   0.964   1.713   0.166 -3.0235  2.3496  2.5804
   22SOL     OW   64   2.055   0.179   1.596  0.0505 -0.4244 -0.0904
   22SOL    HW1   65   2.105   0.179   1.509 -2.3994 -1.3626 -0.5708
   22SOL    HW2   66   2.056   0.271   1.642 -2.2006  2.4442 -1.2112
   23SOL     OW   67   2.839   0.936   1.911 -0.3248  0.0265 -0.5253
   23SOL    HW1   68   2.783   0.994   1.853  0.7701 -0.9233  1.1981
   23SOL    HW2   69   2.805   0.937   2.010  0.7818  2.4869 -2.6392
   24SOL     OW   70   2.201   2.758   0.367  0.3470 -0.1352 -0.4570
   24SOL    HW1   71   2.299   2.751   0.333 -1.4495  3.2333  1.5597
   24SOL    HW2   72   2.158   2.669   0.354  1.8068  1.4391  0.3279
   25SOL     OW   73   0.930   2.856   2.546  0.0372 -0.4147 -0.6624
   25SOL    HW1   74   0.936   2.908   2.637 -0.9402  0.1878  1.0385
   25SOL    HW2   75   1.012   2.807   2.523  2.2929  2.3399 -1.3112
   26SOL     OW   76   1.776   2.562   3.072  0.0483 -0.0042 -0.3750
   26SOL    HW1   77   1.683   2.606   3.054  0.0263 -0.1048 -0.2642
   26SOL    HW2   78   1.785   2.545   0.065  2.8038  1.5296 -1.9963
   27SOL     OW   79   2.993   1.989   2.988  0.2391  0.0461 -0.5655
   27SOL    HW1   80   2.918   2.017   2.924 -0.2628 -1.4240  2.0904
   27SOL    HW2   81   3.065   1.946   2.935 -1.0650 -0.3725  0.6244
   28SOL     OW   82   3.102   1.186   1.659  0.0637 -0.2362 -0.2089
   28SOL    HW1   83   3.025   1.131   1.621 -0.6246  0.8643 -0.4679
   28SOL    HW2   84   0.052   1.233   1.589 -3.0768  0.4050  2.6631
   29SOL     OW   85   2.444   2.424   1.133  0.0570  0.2001  0.1034
   29SOL    HW1   86   2.415   2.497   1.202 -1.4397 -0.3067  1.7343
   29SOL    HW2   87   2.531   2.377   1.163  2.2079 -1.2204  0.1631
   30SOL     OW   88   1.500   0.519   0.208 -0.0388 -0.0992 -0.0963
   30SOL    HW1   89   1.551   0.562   0.284 -0.6741 -0.5168 -0.9495
   30SOL    HW2   90   1.560   0.442   0.171 -1.8945 -3.6367 -0.4268
   31SOL     OW   91   2.777   2.826   1.532  0.7983  0.4815 -0.2124
   31SOL    HW1   92   2.680   2.795   1.543 -1.5483  0.7002 -1.3748
   31SOL    HW2   93   2.845   2.755   1.531 -0.6382 -0.0063 -2.9773
   32SOL     OW   94   0.819   1.817   1.339 -0.0322  0.2719  0.4241
   32SOL    HW1   95   0.892   1.804   1.266 -0.2599  1.5550 -0.8270
   32SOL    HW2   96   0.834   1.898   1.397  1.9056 -1.3108 -0.5149
   33SOL     OW   97   0.492   2.677   2.501 -0.0070  0.0402 -0.1822
   33SOL    HW1   98   0.572   2.661   2.563 -2.7161 -1.0144  0.3644
   33SOL    HW2   99   0.439   2.761   2.533  0.5867 -0.3742  4.1196
   34SOL     OW  100   1.485   3.084   0.774 -0.0236 -0.1322 -0.3437
   34SOL    HW1  101   1.546   3.062   0.853 -3.5320 -0.1774  1.7145
   34SOL    HW2  102   1.494   3.012   0.705  2.5058 -0.3051  1.1906
   35SOL     OW  103   2.086   3.036   1.270  0.1706  0.0522  0.0670
   35SOL    HW1  104   1.989   3.073   1.281 -2.5302 -2.5765 -1.4518
   35SOL    HW2  105   2.154   3.079   1.334  1.5235 -1.1958  0.0791
   36SOL     OW  106   1.800   2.768   2.249 -0.7344 -0.7551  0.3158
   36SOL    HW1  107   1.741   2.849   2.267 -0.2348 -0.7397  2.8538
   36SOL    HW2  108   1.749   2.681   2.268  0.2054 -0.7390  4.0644
   37SOL     OW  109   0.593   3.027   2.140  0.2262 -0.3729 -0.1084
   37SOL    HW1  110   0.603   3.048   2.042  0.0404  1.9127  1.1540
   37SOL    HW2  111   0.678   3.014   2.192 -0.5293 -1.1943 -0.7284
   38SOL     OW  112   0.156   2.537   2.633  0.0298  0.1981 -0.1156
   38SOL    HW1  113   0.223   2.479   2.684  2.0503 -0.3863  1.3669
   38SOL    HW2  114   0.181   2.558   2.537 -2.6804  1.7014 -0.6254
   39SOL     OW  115   2.356   1.354   1.847 -0.1758 -0.3710  0.4241
   39SOL    HW1  116   2.351   1.377   1.749  1.2610  0.9388  0.7382
   39SOL    HW2  117   2.259   1.364   1.890 -2.1095 -0.5534  2.2954
   40SOL     OW  118   0.750   2.918   3.060 -0.6857  0.0601  0.1855
   40SOL    HW1  119   0.851   2.923   3.079 -0.2319 -0.8922  0.5976
   40SOL    HW2  120   0.704   2.995   3.104 -3.7109 -0.8234 -3.6803
   41SOL     OW  121   2.258   0.919   0.976 -0.8249  0.3111 -0.1286
   41SOL    HW1  122   2.326   0.957   1.041 -2.0195  0.6797  0.0009
   41SOL    HW2  123   2.233   0.987   0.905 -0.9737 -0.9584  0.7420
   42SOL     OW  124   0.624   0.467   1.100 -0.2632  0.0461 -0.0582
   42SOL    HW1  125   0.579   0.556   1.112  3.0895 -2.7170  0.1747
   42SOL    HW2  126   0.626   0.436   1.004 -2.2027  3.2269  0.3126
   43SOL     OW  127   2.209   1.536   2.694  0.1341  0.2157  0.1373
   43SOL    HW1  128   2.127   1.492   2.737  2.5960 -0.2674 -0.6291
   43SOL    HW2  129   2.209   1.524   2.596 -1.9786  0.3003  3.5234
   44SOL     OW  130   3.043   2.989   1.352  0.1024  0.1987  0.5075
   44SOL    HW1  131   0.037   3.017   1.351  0.1382  0.1695 -0.4244
   44SOL    HW2  132   3.000   3.024   1.435 -1.8369 -0.0436  0.3168
   45SOL     OW  133   0.342   2.621   0.995  0.2440  0.1763 -0.1646
   45SOL    HW1  134   0.352   2.679   0.915 -2.1570 -1.5989  3.2334
   45SOL    HW2  135   0.248   2.626   1.036 -1.5580 -0.9541  1.0497
   46SOL     OW  136   2.246   2.958   2.589 -0.1103  0.2721 -0.3779
   46SOL    HW1  137   2.212   2.897   2.518 -0.8023  1.6810  1.1279
   46SOL    HW2  138   2.348   2.963   2.603  1.7609  0.3148 -0.0652
   47SOL     OW  139   2.005   1.915   0.891  0.1222 -0.5454 -0.1108
   47SOL    HW1  140   2.023   1.834   0.946 -0.4936  4.3337  2.6771
   47SOL    HW2  141   1.980   1.884   0.796  1.4005 -1.1051 -1.2324
   48SOL     OW  142   0.659   1.747   0.422  0.0983 -0.0344 -0.0715
   48SOL    HW1  143   0.714   1.766   0.341 -3.8433 -0.6354  0.7082
   48SOL    HW2  144   0.605   1.659   0.417 -0.1123 -0.4550  3.5485
   49SOL     OW  145   2.881   0.289   2.571 -0.2878  0.4901  0.6059
   49SOL    HW1  146   2.960   0.350   2.589 -2.8250 -0.5165  0.6306
   49SOL    HW2  147   2.883   0.250   2.475 -3.5799 -2.4961  0.7116
   50SOL     OW  148   2.030   0.623   0.400 -0.5036 -0.5130  0.2830
   50SOL    HW1  149   1.997   0.698   0.343 -0.9543  0.6696  0.4620
   50SOL    HW2  150   1.957   0.599   0.468  0.3376 -2.6330 -0.5298
   51SOL     OW  151   2.360   0.685   0.886  0.0984 -0.5056  0.1006
   51SOL    HW1  152   2.319   0.764   0.939 -0.1352 -1.6957 -3.3065
   51SOL    HW2  153   2.326   0.695   0.788 -1.1443  1.1892 -1.0564
   52SOL     OW  154   1.486   1.616   2.258  0.1457 -0.4434  0.1134
   52SOL    HW1  155   1.565   1.637   2.198  0.7397  0.7728 -1.4873
   52SOL    HW2  156   1.437   1.534   2.230 -1.3812 -0.1787  0.0867
   53SOL     OW  157   0.654   1.773   2.160  0.3077  0.3931  0.7650
   53SOL    HW1  158   0.729   1.707   2.145 -1.0367 -2.6932 -0.4697
   53SOL    HW2  159   0.695   1.866   2.169 -0.6234  0.3911  1.2177
   54SOL     OW  160   2.160   0.355   1.356 -0.1304 -0.1409  0.3394
   54SOL    HW1  161   2.194   0.304   1.273  0.0402 -0.5562 -2.2666
   54SOL    HW2  162   2.196   0.450   1.343  1.5879  0.1789  1.4939
   55SOL     OW  163   2.529   2.234   0.828  0.0289  0.4837  0.4872
   55SOL    HW1  164   2.586   2.209   0.908  0.5143 -0.4090  3.5412
   55SOL    HW2  165   2.444   2.181   0.818  0.2457  0.8203 -3.3251
   56SOL     OW  166   1.041   0.084   1.712  0.4245  0.5984 -0.2026
   56SOL    HW1  167   1.086   0.010   1.763 -3.5867  1.2289 -0.5555
   56SOL    HW2  168   1.069   0.178   1.728  1.9748  0.1791 -1.8141
   57SOL     OW  169   1.644   1.552   0.299 -0.1409 -0.2168 -0.2993
   57SOL    HW1  170   1.602   1.589   0.382  1.7531 -1.7983 -0.2078
   57SOL    HW2  171   1.627   1.611   0.220  0.9840 -1.7703  0.1641
   58SOL     OW  172   0.037   0.975   2.446 -0.0585  0.2535 -0.0981
   58SOL    HW1  173   0.126   0.929   2.463 -1.0930 -2.6769 -1.3944
   58SOL    HW2  174   0.043   1.013   2.349  2.4655  0.0327 -2.4751
   59SOL     OW  175   0.754   3.056   2.365 -0.1085 -0.9551 -0.4324
   59SOL    HW1  176   0.683   0.022   2.367 -0.0631 -1.2873  0.0990
   59SOL    HW2  177   0.793   3.039   2.457  3.6869 -0.8058 -0.8400
   60SOL     OW  178   2.660   2.278   0.380 -0.0412  0.1251  0.1938
   60SOL    HW1  179   2.687   2.215   0.305  2.2412 -1.8337 -0.1416
   60SOL    HW2  180   2.667   2.230   0.472 -2.0985 -1.6250  0.6407
   61SOL     OW  181   1.347   2.025   0.529  0.2464  0.2066  0.4372
   61SOL    HW1  182   1.419   2.095   0.512  1.1055  0.3937  1.3467
   61SOL    HW2  183   1.265   2.065   0.566 -0.4296 -0.0960  1.7878
   62SOL     OW  184   2.005   2.140   2.351  0.2171 -0.1537 -0.3047
   62SOL    HW1  185   2.028   2.046   2.387  0.9969 -1.2890 -0.5621
   62SOL    HW2  186   1.998   2.132   2.250  0.9626  0.5645 -0.1340
   63SOL     OW  187   2.137   2.306   0.089 -0.3949  0.0193 -0.6274
   63SOL    HW1  188   2.142   2.205   0.115  1.7853 -0.0339  0.7444
   63SOL    HW2  189   2.135   2.323   3.097 -3.1648 -1.2894  3.0590
   64SOL     OW  190   1.528   1.120   2.469 -0.7308 -0.6047  0.3927
   64SOL    HW1  191   1.576   1.180   2.398  2.4815  1.7084 -0.7021
   64SOL    HW2  192   1.599   1.081   2.536  1.5132 -2.1338  3.1629
   65SOL     OW  193   1.294   2.299   3.035 -0.1966  0.0924  0.3705
   65SOL    HW1  194   1.303   2.320   2.936 -0.1772 -0.5340  0.0680
   65SOL    HW2  195   1.315   2.378   3.095 -1.6537 -0.8867  0.1947
   66SOL     OW  196   0.211   1.614   2.009 -0.1825  0.7502  0.0652
   66SOL    HW1  197   0.277   1.643   2.084  0.0590  2.9058  1.1144
   66SOL    HW2  198   0.218   1.516   1.990  1.5397 -1.9973 -0.1648
   67SOL     OW  199   2.898   2.768   2.829  0.2320 -0.1784  0.0762
   67SOL    HW1  200   2.831   2.696   2.813  0.1857  2.3002 -2.1423
   67SOL    HW2  201   2.866   2.867   2.809 -2.7401  1.6439  0.2502
   68SOL     OW  202   1.077   2.483   1.294 -0.1542 -0.1005 -1.0581
   68SOL    HW1  203   1.064   2.568   1.349  1.0257  1.3888  2.2705
   68SOL    HW2  204   1.147   2.500   1.224 -1.5620  1.3485  1.5535
   69SOL     OW  205   0.699   2.453   0.479  0.0601  0.4199  0.3672
   69SOL    HW1  206   0.663   2.497   0.563  0.6569 -0.5582 -0.6692
   69SOL    HW2  207   0.764   2.375   0.504  2.4916 -0.8542 -1.4615
   70SOL     OW  208   2.616   0.993   2.640 -0.4595  0.0690  0.3536
   70SOL    HW1  209   2.688   0.918   2.631  0.8145 -1.8949 -1.3283
   70SOL    HW2  210   2.550   0.970   2.715 -0.1177  1.6088 -1.5707
   71SOL     OW  211   0.627   1.138   2.337 -0.3425  0.1318  0.1259
   71SOL    HW1  212   0.592   1.043   2.323 -1.2067  0.2091 -0.7847
   71SOL    HW2  213   0.572   1.190   2.409 -1.6261 -0.5503 -1.9099
   72SOL     OW  214   0.321   2.067   0.591 -0.2211  0.2458  0.1320
   72SOL    HW1  215   0.357   1.974   0.594  0.8970  2.6672 -1.1678
   72SOL    HW2  216   0.231   2.078   0.632  2.7460 -0.9848  1.3954
   73SOL     OW  217   0.964   1.488   0.350 -0.4969  0.4852  0.0460
   73SOL    HW1  218   0.891   1.428   0.312  0.8332 -0.5510  0.6777
   73SOL    HW2  219   0.997   1.454   0.441 -2.0356 -0.2615  1.2089
   74SOL     OW  220   2.642   2.838   0.252  0.2777  0.3082  0.3939
   74SOL    HW1  221   2.562   2.773   0.233  0.7439 -0.4489  0.6624
   74SOL    HW2  222   2.603   2.917   0.304 -3.6182 -3.0802  2.6150
   75SOL     OW  223   2.264   1.639   2.006  0.3266  0.1408  0.4673
   75SOL    HW1  224   2.220   1.548   1.992 -0.3305  1.9390  0.2271
   75SOL    HW2  225   2.285   1.684   1.918  1.9377  0.0558 -2.6759
   76SOL     OW  226   1.971   2.552   2.020  0.1427  0.1521  0.5091
   76SOL    HW1  227   1.987   2.522   2.117  2.0886  2.3589  0.6460
   76SOL    HW2  228   2.003   2.651   2.013  0.1252  5.6797  2.0475
   77SOL     OW  229   2.629   0.345   1.702 -0.0371 -0.0303 -0.1663
   77SOL    HW1  230   2.564   0.315   1.778 -2.8203 -1.0217  1.2282
   77SOL    HW2  231   2.712   0.389   1.743  1.6297  1.5696 -2.3743
   78SOL     OW  232   1.850   0.924   2.793 -0.3289  0.2072 -0.0155
   78SOL    HW1  233   1.918   0.855   2.825  0.7902  0.7258 -0.0965
   78SOL    HW2  234   1.851   1.002   2.857  1.5925  0.5134  2.2870
   79SOL     OW  235   0.011   1.689   2.198  0.3965  0.0376  0.0894
   79SOL    HW1  236   0.083   1.657   2.143 -5.1809  2.9443  3.0885
   79SOL    HW2  237   3.027   1.644   2.183  1.6104 -0.4796 -0.1880
   80SOL     OW  238   2.063   1.121   1.143 -0.1027  0.4261  0.3190
   80SOL    HW1  239   1.993   1.142   1.074  1.5568 -2.0652  1.4950
   80SOL    HW2  240   2.141   1.079   1.095  0.4722  0.0530  0.6368
   81SOL     OW  241   1.294   0.542   1.664 -0.9044  0.6029  0.1292
   81SOL    HW1  242   1.302   0.589   1.575 -0.9424 -0.5171  0.5214
   81SOL    HW2  243   1.379   0.499   1.698 -0.0138  2.4563 -0.1476
   82SOL     OW  244   1.493   2.440   1.543 -0.2101 -0.4170  0.6582
   82SOL    HW1  245   1.527   2.513   1.482 -0.5752 -3.2908 -1.1994
   82SOL    HW2  246   1.435   2.477   1.620  1.3064  1.7337 -1.4386
   83SOL     OW  247   0.322   0.101   0.621 -0.4097 -0.0810 -0.1215
   83SOL    HW1  248   0.351   0.023   0.680  1.6406 -4.2806 -1.4926
   83SOL    HW2  249   0.403   0.142   0.571  4.5142 -0.4538 -0.5659
   84SOL     OW  250   0.160   0.820   2.822  0.0551 -0.1529  0.2846
   84SOL    HW1  251   0.125   0.726   2.825 -0.3239 -2.8122  0.4748
   84SOL    HW2  252   0.096   0.887   2.861  2.3277 -1.5198 -0.8663
   85SOL     OW  253   2.856   2.136   1.674  0.9225  0.0644  0.1871
   85SOL    HW1  254   2.799   2.059   1.685  2.0757  2.6550 -0.8978
   85SOL    HW2  255   2.828   2.197   1.594  0.8204 -1.1334 -0.4509
   86SOL     OW  256   2.807   2.324   1.478 -0.3957  0.0050 -0.1972
   86SOL    HW1  257   2.904   2.331   1.436  3.5873 -2.0340 -1.6697
   86SOL    HW2  258   2.750   2.402   1.452  0.3759 -1.3139  0.6129
   87SOL     OW  259   0.397   3.002   3.017  0.4739 -0.2651 -0.0738
   87SOL    HW1  260   0.456   2.927   2.980 -0.3640 -0.9979  1.6891
   87SOL    HW2  261   0.424   3.094   2.981 -1.6416  0.0904 -1.0415
   88SOL     OW  262   0.412   1.977   1.046  0.1168 -0.4203 -0.1791
   88SOL    HW1  263   0.480   1.965   0.973 -1.9813  1.9736  0.7022
   88SOL    HW2  264   0.437   1.924   1.131 -1.3555 -2.3530  2.1627
   89SOL     OW  265   0.912   0.716   1.691 -0.9207  0.2935  0.0898
   89SOL    HW1  266   0.941   0.720   1.594 -0.2333 -1.5517  1.7553
   89SOL    HW2  267   0.902   0.622   1.731 -0.6965 -2.3096  0.8089
   90SOL     OW  268   2.351   1.830   1.449  0.4677 -0.3463 -0.1926
   90SOL    HW1  269   2.445   1.850   1.412 -0.4335 -0.9709 -0.4358
   90SOL    HW2  270   2.279   1.895   1.408 -3.0908  0.7966 -1.2716
   91SOL     OW  271   1.477   1.452   0.823  0.2845 -0.0040  0.0921
   91SOL    HW1  272   1.388   1.496   0.860 -1.1116  3.1929 -2.0851
   91SOL    HW2  273   1.473   1.351   0.828  0.4989 -1.4489  0.0805
   92SOL     OW  274   2.159   0.596   1.090 -0.6059  0.5254  0.2149
   92SOL    HW1  275   2.184   0.654   1.012 -2.1543  0.0630 -1.5235
   92SOL    HW2  276   2.230   0.583   1.167 -0.3522  0.7071 -0.4153
   93SOL     OW  277   2.149   1.311   0.090 -0.4476  0.4522 -0.7107
   93SOL    HW1  278   2.143   1.226   0.149 -0.1033 -2.4848 -0.1823
   93SOL    HW2  279   2.065   1.369   0.105 -2.5191  1.1405 -0.2945
   94SOL     OW  280   2.404   2.219   2.405 -0.8065  0.0776 -0.2420
   94SOL    HW1  281   2.423   2.296   2.349  0.8887 -2.6350 -0.9652
   94SOL    HW2  282   2.387   2.135   2.346  1.2410 -0.1693 -2.5311
   95SOL     OW  283   2.005   0.391   0.989 -0.2143 -0.4537 -0.4645
   95SOL    HW1  284   2.066   0.466   1.025  2.4355  0.8047  0.0555
   95SOL    HW2  285   2.044   0.353   0.905  1.1547  1.0618  0.1324
   96SOL     OW  286   2.914   3.054   1.586  0.0891 -0.0482  0.6601
   96SOL    HW1  287   2.856   2.978   1.548  1.3874 -1.3032 -1.6879
   96SOL    HW2  288   2.914   3.061   1.688  2.1103  2.8663  1.6660
   97SOL     OW  289   2.279   0.252   1.133 -0.2202 -0.0758 -0.4958
   97SOL    HW1  290   2.303   0.325   1.070  0.0493 -1.6459 -0.2875
   97SOL    HW2  291   2.231   0.177   1.091  0.6022  1.9217 -0.8697
   98SOL     OW  292   1.634   2.282   1.693 -0.2021 -0.2315 -0.2156
   98SOL    HW1  293   1.707   2.348   1.724 -0.8037 -0.2541 -0.0710
   98SOL    HW2  294   1.577   2.332   1.630  1.3991 -1.2047  1.6410
   99SOL     OW  295   2.674   2.564   1.697  0.4339  0.2340  0.6085
   99SOL    HW1  296   2.593   2.618   1.728 -1.3635  1.1410 -1.1056
   99SOL    HW2  297   2.687   2.561   1.594 -0.1750 -1.3065 -4.0952
  100SOL     OW  298   0.330   0.944   2.970  0.6115 -0.2263 -0.2962
  100SOL    HW1  299   0.343   1.038   2.930 -3.6044 -0.4370 -0.0470
  100SOL    HW2  300   0.275   0.892   2.900  1.7928  3.5024 -3.5829
  101SOL     OW  301   1.852   0.506   2.964 -0.0897 -0.5421  0.5930
  101SOL    HW1  302   1.879   0.595   2.921 -0.0201 -0.7858 -1.8508
  101SOL    HW2  303   1.931   0.452   3.008  2.6350 -0.6589  2.3702
  102SOL     OW  304   0.212   0.722   1.802 -0.0146 -0.1736 -0.6140
  102SOL    HW1  305   0.234   0.815   1.762  2.5186 -0.7360  0.1246
  102SOL    HW2  306   0.226   0.656   1.726 -0.2743  1.5290  0.8177
  103SOL     OW  307   2.773   1.130   2.376 -0.1152 -0.2030  0.5639
  103SOL    HW1  308   2.730   1.223   2.388 -0.1523 -0.0383 -1.8777
  103SOL    HW2  309   2.757   1.067   2.458  0.9368 -0.4722  2.4409
  104SOL     OW  310   0.576   0.222   2.435  0.1625  0.8094 -0.4987
  104SOL    HW1  311   0.548   0.218   2.533  0.5135 -0.2629  0.9484
  104SOL    HW2  312   0.651   0.291   2.415  0.6046  2.3574  0.0100
  105SOL     OW  313   1.863   1.799   1.278  0.1531 -0.3698  0.2599
  105SOL    HW1  314   1.867   1.803   1.383 -0.4178 -0.4568  1.9431
  105SOL    HW2  315   1.789   1.741   1.242  0.5707  0.7138  1.4908
  106SOL     OW  316   2.211   0.178   0.452 -0.1133 -0.5133  0.3211
  106SOL    HW1  317   2.218   0.105   0.382 -0.1881  0.6571  1.6616
  106SOL    HW2  318   2.128   0.168   0.509 -0.5749  3.8001  0.1342
  107SOL     OW  319   0.055   1.613   1.328  0.0415 -0.0879 -0.1480
  107SOL    HW1  320   0.155   1.611   1.320 -1.9778 -0.0744  1.8763
  107SOL    HW2  321   0.010   1.680   1.271  2.5471 -1.2987 -0.8406
  108SOL     OW  322   2.780   2.615   1.932 -0.2395  0.2435  0.1244
  108SOL    HW1  323   2.873   2.579   1.913 -2.6523 -1.0083 -0.2748
  108SOL    HW2  324   2.716   2.605   1.855  0.0736 -1.3670 -1.9700
  109SOL     OW  325   1.978   0.168   0.633 -0.2288  0.3817  0.1632
  109SOL    HW1  326   2.005   0.204   0.725 -2.1752  1.0098 -1.0441
  109SOL    HW2  327   1.974   0.063   0.627  2.0091 -3.2657 -1.6930
  110SOL     OW  328   0.355   2.155   2.324  0.4017 -0.3494 -0.1520
  110SOL    HW1  329   0.321   2.194   2.413 -0.5292  0.0947  0.6903
  110SOL    HW2  330   0.288   2.079   2.295 -1.6578 -0.8140  1.9144
  111SOL     OW  331   1.674   2.489   2.030 -0.1228  0.1393 -0.3886
  111SOL    HW1  332   1.776   2.507   2.021 -1.2477  2.2543  0.9158
  111SOL    HW2  333   1.659   2.389   2.025 -0.7051  3.6943  1.7106
  112SOL     OW  334   1.534   2.672   3.084 -0.4605  0.2459  0.0815
  112SOL    HW1  335   1.511   2.593   0.038  0.6935  0.9916  2.2392
  112SOL    HW2  336   1.465   2.677   3.004 -0.2592  2.2000 -0.6319
  113SOL     OW  337   2.075   2.701   1.513  0.5970  0.1245 -0.0767
  113SOL    HW1  338   2.033   2.760   1.585  1.3765  1.0682  0.3953
  113SOL    HW2  339   2.130   2.755   1.449 -1.9087 -1.4888 -0.2895
  114SOL     OW  340   3.069   1.076   0.555  0.0011 -0.2382  0.6041
  114SOL    HW1  341   3.038   1.112   0.645  0.7508  0.6136  1.8679
  114SOL    HW2  342   3.075   1.155   0.489  0.3936 -0.4256  0.0158
  115SOL     OW  343   0.754   0.987   3.005 -0.2900  0.1639 -0.8966
  115SOL    HW1  344   0.743   1.059   2.933 -0.1622 -0.5238  0.5971
  115SOL    HW2  345   0.671   0.976   3.067 -0.0508 -0.4284 -0.0659
  116SOL     OW  346   2.701   1.652   2.052  0.4182 -0.5637 -0.2593
  116SOL    HW1  347   2.754   1.706   1.983  0.5194 -0.1026 -0.1791
  116SOL    HW2  348   2.761   1.573   2.082 -0.2976 -1.0174 -1.5237
  117SOL     OW  349   2.721   2.790   0.780  0.3102  0.0127  0.5470
  117SOL    HW1  350   2.742   2.817   0.684 -0.4607 -1.5743 -3.0061
  117SOL    HW2  351   2.647   2.848   0.815 -1.3242  0.2074 -1.4718
  118SOL     OW  352   1.286   2.138   1.605  0.1497 -0.2559 -0.6664
  118SOL    HW1  353   1.338   2.167   1.684 -2.1538 -0.5966 -2.1206
  118SOL    HW2  354   1.314   2.177   1.518  0.9429  1.9530 -0.4866
  119SOL     OW  355   0.573   1.987   2.926  0.5181  0.3666  0.1593
  119SOL    HW1  356   0.495   2.049   2.901  0.1809  0.0655 -0.0970
  119SOL    HW2  357   0.578   1.981   3.028 -1.2241 -2.1728 -0.9220
  120SOL     OW  358   0.812   0.726   3.010 -0.0717  0.0762 -0.5342
  120SOL    HW1  359   0.829   0.678   2.923 -0.7849  0.1398  1.4523
  120SOL    HW2  360   0.792   0.829   2.998  3.5044  2.5972  0.1153
  121SOL     OW  361   1.619   2.678   0.928  0.0383 -0.6894  0.6699
  121SOL    HW1  362   1.579   2.596   0.980 -0.6099  0.1462 -1.3035
  121SOL    HW2  363   1.556   2.722   0.856  0.4287 -1.6725 -0.6668
  122SOL     OW  364   2.266   2.528   1.621 -0.1945 -0.2617 -0.1244
  122SOL    HW1  365   2.235   2.490   1.711 -1.7469  1.7725  0.0418
  122SOL    HW2  366   2.192   2.591   1.582 -0.4073 -2.1277  0.6003
  123SOL     OW  367   0.431   3.010   0.792  0.1025 -0.2778 -0.0704
  123SOL    HW1  368   0.526   2.977   0.773 -1.3922  1.2743 -0.3743
  123SOL    HW2  369   0.370   2.935   0.813 -0.5592 -0.6227  0.9949
  124SOL     OW  370   2.208   1.225   2.943 -0.0117 -0.1258  0.1451
  124SOL    HW1  371   2.142   1.237   2.865  1.5310 -0.1865  0.2696
  124SOL    HW2  372   2.178   1.272   3.028  1.0281 -1.0974  1.8250
  125SOL     OW  373   0.700   0.943   0.465  0.1153 -0.0610  0.3438
  125SOL    HW1  374   0.683   0.982   0.559  0.9713  2.1189  0.5394
  125SOL    HW2  375   0.789   0.987   0.433 -1.4838 -1.7101  0.5272
  126SOL     OW  376   2.682   1.445   0.842  0.1634  0.5290  0.5775
  126SOL    HW1  377   2.728   1.433   0.754  0.5866  1.6471  0.9621
  126SOL    HW2  378   2.586   1.408   0.827 -1.3635 -4.1275 -2.5209
  127SOL     OW  379   0.066   1.854   1.851  0.3465  0.4984  0.4241
  127SOL    HW1  380   0.135   1.782   1.837  0.2267  1.6541 -3.7033
  127SOL    HW2  381   0.106   1.929   1.902  0.7680 -1.1488 -0.5189
  128SOL     OW  382   1.189   1.063   3.040 -0.4756 -0.4068 -0.4915
  128SOL    HW1  383   1.227   1.043   0.026  1.0856  1.0442 -0.9264
  128SOL    HW2  384   1.254   1.106   2.973  0.2398 -1.4138 -1.9734
  129SOL     OW  385   2.657   1.128   0.725 -0.1230 -0.4622  0.4900
  129SOL    HW1  386   2.598   1.170   0.795 -1.5298  1.7429 -0.6062
  129SOL    HW2  387   2.607   1.055   0.668  0.8229 -0.4979 -1.4878
  130SOL     OW  388   2.389   0.821   1.347  0.3160  0.0043 -0.1745
  130SOL    HW1  389   2.492   0.828   1.358 -2.4461 -1.1003 -2.5597
  130SOL    HW2  390   2.361   0.888   1.277  1.3470  2.3156 -1.0326
  131SOL     OW  391   3.003   2.845   3.073 -0.0469  0.6210 -0.3715
  131SOL    HW1  392   2.980   2.822   2.974  1.4804 -2.7450 -2.0968
  131SOL    HW2  393   3.103   2.834   3.085 -3.0718 -1.0052  0.3333
  132SOL     OW  394   3.021   1.925   1.607 -0.6518  0.2061 -0.1519
  132SOL    HW1  395   2.977   2.010   1.641  1.4681  0.7328 -1.3130
  132SOL    HW2  396   3.083   1.890   1.681 -0.0774 -1.9283  0.0628
  133SOL     OW  397   1.279   0.168   1.301  0.1106  0.1928 -0.6727
  133SOL    HW1  398   1.364   0.157   1.357 -1.7477 -2.5227 -0.3720
  133SOL    HW2  399   1.223   0.252   1.325 -3.6387 -0.2888  3.6822
  134SOL     OW  400   0.023   1.310   0.192 -0.1459 -0.1054 -0.0764
  134SOL    HW1  401   3.035   1.288   0.161  0.5698 -0.5420  0.8305
  134SOL    HW2  402   0.065   1.373   0.121  0.3460 -0.0517 -2.5802
  135SOL     OW  403   2.570   1.180   1.478 -0.3287  0.2686  0.2960
  135SOL    HW1  404   2.587   1.131   1.564  0.4311 -0.9854 -1.7793
  135SOL    HW2  405   2.656   1.192   1.423 -3.1819  0.3257  0.8684
  136SOL     OW  406   0.173   0.942   0.478  0.2283  0.1228  0.1872
  136SOL    HW1  407   0.101   0.994   0.525 -0.4609 -0.1490  0.7178
  136SOL    HW2  408   0.187   0.981   0.383 -0.6374  0.2444 -0.9482
  137SOL     OW  409   2.797   1.187   1.339  0.4410 -0.3405 -0.3450
  137SOL    HW1  410   2.827   1.137   1.257  0.1788  1.2289  2.4699
  137SOL    HW2  411   2.823   1.285   1.325  3.7617 -3.2841 -2.1914
  138SOL     OW  412   1.638   1.028   1.335 -0.2459 -0.4576 -0.1477
  138SOL    HW1  413   1.675   0.952   1.275  1.2395 -1.0069  0.3822
  138SOL    HW2  414   1.714   1.082   1.378  0.2183 -0.5474 -0.5094
  139SOL     OW  415   1.786   0.005   0.064 -0.0967 -0.2140 -0.5470
  139SOL    HW1  416   1.857   3.043   0.083 -0.8150  0.0783 -1.3477
  139SOL    HW2  417   1.738   0.020   0.153  0.6762 -4.5138  0.3267
  140SOL     OW  418   1.627   1.798   1.668  0.3000  0.4144  0.3621
  140SOL    HW1  419   1.623   1.732   1.589  0.1153 -1.4131 -1.5992
  140SOL    HW2  420   1.564   1.757   1.738  0.6756 -0.4042 -1.4426
  141SOL     OW  421   1.824   2.461   0.656  0.4260  0.1053 -0.2148
  141SOL    HW1  422   1.890   2.538   0.664 -0.7536 -2.0475  0.6308
  141SOL    HW2  423   1.851   2.394   0.584  1.1206  2.0814  0.8560
  142SOL     OW  424   0.530   0.938   0.054  0.3587 -0.2301 -0.6801
  142SOL    HW1  425   0.524   0.875   0.136 -0.4631 -0.1855 -1.7646
  142SOL    HW2  426   0.443   0.945   3.101 -0.2517 -1.0091 -2.8842
  143SOL     OW  427   0.362   2.174   2.945 -0.0725  0.6089 -0.0974
  143SOL    HW1  428   0.342   2.274   2.970  0.0696  4.5354  0.2817
  143SOL    HW2  429   0.291   2.137   2.888  4.0823  1.8378 -0.5078
  144SOL     OW  430   1.493   3.043   1.190 -0.1325  0.1583  0.0876
  144SOL    HW1  431   1.497   0.037   1.196  0.4930  1.5678  0.0690
  144SOL    HW2  432   1.545   3.024   1.102 -0.6315  0.6217 -0.1676
  145SOL     OW  433   2.451   1.353   0.608  1.0071 -0.0456  0.2007
  145SOL    HW1  434   2.451   1.387   0.514  0.6285  0.4599  1.2558
  145SOL    HW2  435   2.550   1.322   0.628  0.2018 -0.0823 -0.9261
  146SOL     OW  436   2.732   2.045   0.205 -0.1358  0.2736  0.0746
  146SOL    HW1  437   2.674   2.069   0.126  0.6252 -2.7368 -0.0286
  146SOL    HW2  438   2.828   2.040   0.191 -2.8189  1.8642  2.5828
  147SOL     OW  439   2.332   2.884   1.622 -0.3125  0.1092  0.3693
  147SOL    HW1  440   2.250   2.947   1.630 -2.8967  0.4484  2.7315
  147SOL    HW2  441   2.379   2.898   1.533 -0.9593 -0.6407  0.4791
  148SOL     OW  442   1.213   2.701   1.875 -0.8542 -0.0070  0.2779
  148SOL    HW1  443   1.290   2.635   1.902  0.3971 -0.6992 -0.2855
  148SOL    HW2  444   1.137   2.650   1.832 -1.8934  2.2649  1.1420
  149SOL     OW  445   1.664   0.548   2.460 -0.3610 -0.0690  0.5076
  149SOL    HW1  446   1.628   0.642   2.455  0.4472 -0.3326  2.2017
  149SOL    HW2  447   1.657   0.510   2.554  0.6082  2.4359 -2.2048
  150SOL     OW  448   0.560   2.902   0.418 -0.3793  0.1926  0.4673
  150SOL    HW1  449   0.587   2.883   0.514  2.4742 -2.0650  1.9211
  150SOL    HW2  450   0.472   2.858   0.386 -0.8409 -0.5280 -2.1585
  151SOL     OW  451   0.069   1.515   0.006  0.6019 -0.0352  0.2245
  151SOL    HW1  452   3.106   1.587   0.033  0.4755  0.0860 -0.9727
  151SOL    HW2  453   0.057   1.499   3.013 -2.5783  0.8277  1.7177
  152SOL     OW  454   2.815   0.080   0.571  0.0723  0.1850 -0.2431
  152SOL    HW1  455   2.841   0.063   0.669 -0.0923 -0.1735  1.8365
  152SOL    HW2  456   2.858   0.166   0.537 -0.9308  1.0348 -0.1342
  153SOL     OW  457   2.178   0.006   1.022  0.1220 -0.0757 -0.2709
  153SOL    HW1  458   2.142   3.074   1.111 -1.0915 -1.4836 -0.0022
  153SOL    HW2  459   2.202   3.031   0.968  0.9483 -0.2087  2.7230
  154SOL     OW  460   0.896   0.487   1.876 -0.6558  0.6420  0.4605
  154SOL    HW1  461   0.987   0.446   1.850 -0.3159 -0.9901  1.4521
  154SOL    HW2  462   0.863   0.422   1.946 -0.8727  0.1284 -2.3038
  155SOL     OW  463   2.887   1.010   1.129  0.2451 -0.0600 -0.3985
  155SOL    HW1  464   2.951   0.937   1.160 -3.1744  2.5936 -1.5958
  155SOL    HW2  465   2.939   1.087   1.087 -1.3638  1.4405 -1.0383
  156SOL     OW  466   3.013   2.059   0.134 -0.2608  0.4365  0.3855
  156SOL    HW1  467   3.043   2.154   0.146 -0.3824 -3.5721  1.1257
  156SOL    HW2  468   3.007   2.044   0.035  1.1418  1.4006 -0.0680
  157SOL     OW  469   0.907   0.375   0.341  0.7523 -0.2727 -0.4312
  157SOL    HW1  470   0.948   0.292   0.302  3.7726  1.7338  2.1642
  157SOL    HW2  471   0.817   0.398   0.298 -1.9392 -1.1185 -1.4466
  158SOL     OW  472   2.667   0.141   2.907  0.0181  0.1740 -0.0246
  158SOL    HW1  473   2.681   0.224   2.847  0.0302  0.2804  0.3264
  158SOL    HW2  474   2.706   0.058   2.869 -0.7454 -0.3047  0.2121
  159SOL     OW  475   0.525   0.121   2.986 -0.1311 -0.2213  0.3059
  159SOL    HW1  476   0.606   0.081   3.042  1.7563 -2.1484  0.0417
  159SOL    HW2  477   0.516   0.222   3.000 -2.2391  0.2692  0.0391
  160SOL     OW  478   1.166   1.818   3.096  0.1538  0.3017 -0.1369
  160SOL    HW1  479   1.092   1.854   3.038  2.4628 -1.7914  0.0578
  160SOL    HW2  480   1.126   1.760   0.065  0.5902 -3.5842  0.0816
  161SOL     OW  481   3.063   1.653   2.704  0.2168 -0.9859  0.3146
  161SOL    HW1  482   2.968   1.660   2.738 -0.1381  0.4756 -0.2440
  161SOL    HW2  483   3.060   1.664   2.602  1.5628  0.2649  0.5575
  162SOL     OW  484   0.396   2.571   1.247 -0.3870  0.5732  0.3532
  162SOL    HW1  485   0.492   2.536   1.260  2.0527  0.3657  0.6082
  162SOL    HW2  486   0.396   2.587   1.142  0.3353  1.5866 -4.0993
  163SOL     OW  487   2.096   0.316   2.743  0.3134 -0.2865  0.7907
  163SOL    HW1  488   2.007   0.290   2.784 -0.2655  2.4798  0.8728
  163SOL    HW2  489   2.142   0.239   2.689  0.3317 -0.9682 -3.2457
  164SOL     OW  490   2.821   1.414   0.620  0.5576 -0.3616 -0.1209
  164SOL    HW1  491   2.809   1.421   0.518  0.4069 -1.7003 -2.3755
  164SOL    HW2  492   2.865   1.320   0.641  2.0543 -1.9068 -1.1507
  165SOL     OW  493   0.164   0.004   1.882  0.4802 -0.1836  0.0949
  165SOL    HW1  494   0.155   3.020   1.836 -2.0615  1.0745 -1.5359
  165SOL    HW2  495   0.131   0.076   1.822 -0.5853 -0.7812 -0.2820
  166SOL     OW  496   2.243   0.776   0.660 -0.4013 -0.1398 -0.1895
  166SOL    HW1  497   2.259   0.734   0.566  1.5610 -0.4742  1.0875
  166SOL    HW2  498   2.154   0.818   0.657  0.7450  0.0806 -0.3837
  167SOL     OW  499   0.471   0.529   0.394  0.4154  0.3673  0.3099
  167SOL    HW1  500   0.507   0.625   0.382  0.8513 -1.1035 -0.4248
  167SOL    HW2  501   0.375   0.527   0.431 -2.8026  0.5027  3.3083
  168SOL     OW  502   1.963   3.038   1.980 -0.3386  0.4197 -0.2936
  168SOL    HW1  503   1.932   0.018   2.028 -1.9667 -1.2892 -0.9966
  168SOL    HW2  504   2.060   3.048   1.952  0.5255  0.2845 -1.8358
  169SOL     OW  505   1.008   1.144   0.738 -0.3026  0.7512 -0.0053
  169SOL    HW1  506   1.025   1.046   0.718  0.9106  0.7374  0.1195
  169SOL    HW2  507   1.040   1.157   0.831  0.8972  0.9030 -0.8649
  170SOL     OW  508   3.048   0.257   1.308  0.2544  0.3126  0.0691
  170SOL    HW1  509   3.096   0.214   1.386 -0.2318  0.3584 -3.3645
  170SOL    HW2  510   2.976   0.324   1.335 -0.0028 -0.0541 -2.6813
  171SOL     OW  511   0.834   2.649   1.923 -0.1027 -0.3878 -0.0211
  171SOL    HW1  512   0.762   2.577   1.934 -0.1515  0.3815 -1.1382
  171SOL    HW2  513   0.908   2.613   1.865  1.9228 -1.7949  0.3005
  172SOL     OW  514   0.583   2.208   1.360  0.0876 -0.0298  0.7629
  172SOL    HW1  515   0.601   2.269   1.274 -0.0710  2.2945 -0.4550
  172SOL    HW2  516   0.485   2.187   1.376  1.2547  0.0167 -1.2730
  173SOL     OW  517   1.379   0.867   2.744  0.0958  0.3429  0.5639
  173SOL    HW1  518   1.345   0.849   2.647  1.1283 -1.4457  1.0750
  173SOL    HW2  519   1.421   0.788   2.787  0.0484  2.3130 -3.1853
  174SOL     OW  520   1.697   0.038   2.881 -0.6412 -0.4103 -0.9403
  174SOL    HW1  521   1.703   0.055   2.989  0.0630 -0.3193  2.2813
  174SOL    HW2  522   1.757   0.101   2.827  1.3224  0.7555 -1.1758
  175SOL     OW  523   1.743   2.491   0.254  0.3343  0.2029 -0.0541
  175SOL    HW1  524   1.679   2.549   0.314 -4.3373 -0.6357  0.7517
  175SOL    HW2  525   1.692   2.405   0.227  0.5741  0.1028  2.8679
  176SOL     OW  526   1.444   0.071   2.793  0.6793 -0.0899  0.1030
  176SOL    HW1  527   1.418   0.169   2.816  1.0308  0.9944 -0.4405
  176SOL    HW2  528   1.534   0.050   2.836  1.6943 -0.7185 -0.5327
  177SOL     OW  529   1.283   1.641   0.605  0.5753 -0.3445  0.2531
  177SOL    HW1  530   1.309   1.697   0.684  0.2592 -1.1011  0.4718
  177SOL    HW2  531   1.186   1.605   0.609 -1.2418  0.6841 -0.3986
  178SOL     OW  532   2.994   2.109   2.636  0.0292  0.1966  0.3565
  178SOL    HW1  533   3.019   2.207   2.647 -1.5390  1.0492  0.4139
  178SOL    HW2  534   3.056   2.072   2.558 -0.9341 -2.3204 -0.9240
  179SOL     OW  535   0.403   2.423   2.750  0.3257 -0.0358 -0.4241
  179SOL    HW1  536   0.501   2.418   2.739 -3.6462 -1.4172 -0.7930
  179SOL    HW2  537   0.371   2.412   2.844  2.3351  0.1676  1.1449
  180SOL     OW  538   1.693   1.600   0.911  0.5654 -0.1230  0.7477
  180SOL    HW1  539   1.705   1.692   0.873 -1.4805 -1.2277 -0.4831
  180SOL    HW2  540   1.619   1.548   0.865 -0.7720 -0.2596  0.3565
  181SOL     OW  541   2.086   1.045   2.071  0.4384  0.2677  0.0834
  181SOL    HW1  542   2.029   0.980   2.125 -0.2739 -0.3083 -1.3620
  181SOL    HW2  543   2.187   1.033   2.084 -0.3416 -2.6493 -0.6326
  182SOL     OW  544   2.832   3.030   2.781 -0.0274  0.5122  0.0426
  182SOL    HW1  545   2.781   3.053   2.696 -0.0199  2.2737  1.3497
  182SOL    HW2  546   2.926   3.067   2.792 -2.1449 -0.3541  1.5279
  183SOL     OW  547   1.300   0.618   2.309  0.0453  0.1833  0.1063
  183SOL    HW1  548   1.263   0.524   2.325  1.4140 -1.3210  2.8783
  183SOL    HW2  549   1.303   0.639   2.210 -0.7101 -0.3614 -0.2823
  184SOL     OW  550   0.643   0.617   1.875 -0.4111 -0.2168  0.2947
  184SOL    HW1  551   0.653   0.714   1.902  0.1291  0.4940  0.4346
  184SOL    HW2  552   0.740   0.579   1.868  0.3336 -0.6597 -0.4647
  185SOL     OW  553   2.033   1.049   0.527 -0.0331 -0.0451  0.2715
  185SOL    HW1  554   1.976   1.113   0.471  1.3801 -1.2980  0.2143
  185SOL    HW2  555   2.130   1.085   0.541  3.1074 -0.0980 -3.4200
  186SOL     OW  556   0.168   2.083   2.747  0.4782 -0.4624  0.6816
  186SOL    HW1  557   0.127   1.998   2.791  0.1494 -1.5315  2.2073
  186SOL    HW2  558   0.097   2.158   2.746  2.2553  0.8881 -1.5159
  187SOL     OW  559   2.498   1.463   0.360  0.3587  0.5475 -0.2750
  187SOL    HW1  560   2.502   1.563   0.358  1.9386  1.0635 -0.4100
  187SOL    HW2  561   2.442   1.427   0.281 -1.9687 -1.5177 -0.1075
  188SOL     OW  562   0.288   1.707   1.007 -0.6035  0.3122  0.4356
  188SOL    HW1  563   0.345   1.653   0.942  0.3378  1.4293  1.2351
  188SOL    HW2  564   0.246   1.792   0.967 -1.2115  0.7968 -1.9231
  189SOL     OW  565   2.377   0.412   0.435  0.2927 -0.3922  0.5344
  189SOL    HW1  566   2.305   0.341   0.440 -0.7736 -2.9793  1.0485
  189SOL    HW2  567   2.464   0.374   0.401 -2.5354  2.5212  2.7205
  190SOL     OW  568   1.146   1.580   2.068  0.2508  0.1796 -0.2000
  190SOL    HW1  569   1.211   1.519   2.107 -2.9228  3.2775 -0.1255
  190SOL    HW2  570   1.055   1.576   2.120 -1.6900  0.1961 -0.9025
  191SOL     OW  571   2.906   0.467   1.755  0.2955  0.4066  0.1306
  191SOL    HW1  572   2.945   0.376   1.775  0.5366 -0.3940  0.6543
  191SOL    HW2  573   2.954   0.537   1.811 -0.4149 -0.3526  2.3252
  192SOL     OW  574   1.763   1.393   1.481  0.1885 -0.2361  0.3064
  192SOL    HW1  575   1.800   1.303   1.446 -1.0781  1.5456 -1.1251
  192SOL    HW2  576   1.838   1.441   1.530 -1.1628 -2.5125 -0.9216
  193SOL     OW  577   1.104   0.884   0.688  0.8271  0.0248 -0.1687
  193SOL    HW1  578   1.019   0.835   0.657 -1.7158 -0.4769  0.1340
  193SOL    HW2  579   1.132   0.842   0.781 -2.0261  0.4277  2.1322
  194SOL     OW  580   1.394   2.668   1.380 -0.4539 -0.0601  0.2974
  194SOL    HW1  581   1.345   2.710   1.304  1.2276 -0.2599 -1.6802
  194SOL    HW2  582   1.486   2.718   1.378 -0.1032 -2.6279 -0.5281
  195SOL     OW  583   2.218   0.461   2.924 -0.3293 -0.0086 -0.5693
  195SOL    HW1  584   2.225   0.385   2.991  1.1299  0.9789 -0.6482
  195SOL    HW2  585   2.185   0.430   2.834  1.6120  0.6266  0.5304
  196SOL     OW  586   0.988   2.421   1.543  0.2582  0.1002 -0.2330
  196SOL    HW1  587   1.013   2.331   1.581  1.7507  3.8002 -0.1501
  196SOL    HW2  588   1.007   2.430   1.442 -0.6835 -1.1459 -0.9009
  197SOL     OW  589   0.841   2.672   0.698  0.2916  0.0710 -0.3936
  197SOL    HW1  590   0.764   2.603   0.705 -1.8846 -0.6121 -0.7864
  197SOL    HW2  591   0.856   2.705   0.601  1.4051 -0.5111 -0.7220
  198SOL     OW  592   0.851   0.738   0.640 -0.0541 -0.2679 -0.1078
  198SOL    HW1  593   0.782   0.740   0.721 -0.1604  1.1533  0.6218
  198SOL    HW2  594   0.798   0.744   0.554  0.8280  1.5306 -0.9776
  199SOL     OW  595   0.145   2.812   1.528 -0.3094  0.1739  0.6865
  199SOL    HW1  596   0.182   2.862   1.449  1.8413 -1.3574  0.6949
  199SOL    HW2  597   0.143   2.712   1.502  1.5347 -0.0627  0.4224
  200SOL     OW  598   2.308   1.836   2.629  0.1929  0.5694 -0.2263
  200SOL    HW1  599   2.343   1.765   2.566  3.8183  1.1793 -0.3301
  200SOL    HW2  600   2.279   1.812   2.721 -1.4495  2.7664 -0.3525
  201SOL     OW  601   2.862   2.147   1.248  0.2215  0.8140  0.0930
  201SOL    HW1  602   2.945   2.105   1.215 -0.7766  0.6683  1.1657
  201SOL    HW2  603   2.841   2.101   1.337 -0.6733  1.5048  1.0590
  202SOL     OW  604   2.619   3.103   0.389  0.2846  0.0655 -0.0934
  202SOL    HW1  605   2.699   0.004   0.455  0.0928  0.9846  0.2103
  202SOL    HW2  606   2.652   0.012   0.293 -1.2667 -2.3628 -1.1619
  203SOL     OW  607   1.270   2.253   2.071  0.3428 -0.0649 -0.8644
  203SOL    HW1  608   1.298   2.177   2.132  0.1334 -0.6329  1.8235
  203SOL    HW2  609   1.258   2.344   2.118  4.6525  2.2913  3.3696
  204SOL     OW  610   1.246   1.862   1.641 -0.0290 -0.8365 -0.5179
  204SOL    HW1  611   1.262   1.963   1.622 -0.1999 -0.1683  1.4577
  204SOL    HW2  612   1.206   1.849   1.734  0.5863  2.7455 -0.8425
  205SOL     OW  613   1.026   2.152   1.631 -0.1705  0.1704 -0.7877
  205SOL    HW1  614   1.126   2.134   1.617 -0.0256  2.9771  0.2300
  205SOL    HW2  615   1.012   2.180   1.730  1.5153  2.0232  1.9571
  206SOL     OW  616   0.219   0.460   2.757  0.4291 -0.2814  0.6411
  206SOL    HW1  617   0.298   0.495   2.701  0.3779 -0.2151  1.5804
  206SOL    HW2  618   0.131   0.462   2.699 -1.8044 -1.0988 -2.5717
  207SOL     OW  619   1.378   0.112   1.816  0.2073 -0.3700  0.2974
  207SOL    HW1  620   1.331   0.021   1.810 -0.8617  0.1507 -1.5613
  207SOL    HW2  621   1.330   0.174   1.880  1.3171 -1.5148  1.5085
  208SOL     OW  622   0.647   2.449   1.969  0.2336 -0.1320  0.1983
  208SOL    HW1  623   0.624   2.503   2.052  3.1430 -0.0080 -0.9998
  208SOL    HW2  624   0.600   2.478   1.885  2.2194 -2.2395 -0.5190
  209SOL     OW  625   1.784   0.733   0.031 -0.1049  0.3864  0.5594
  209SOL    HW1  626   1.813   0.648   3.089  0.3250  0.7647 -2.8336
  209SOL    HW2  627   1.702   0.772   3.089 -1.9959  0.0270 -1.0002
  210SOL     OW  628   0.050   0.448   0.846  0.6058  0.6003  0.0334
  210SOL    HW1  629   3.074   0.495   0.811  4.0415 -2.0875 -0.1230
  210SOL    HW2  630   0.102   0.513   0.903 -0.2437 -0.1770 -0.7443
  211SOL     OW  631   0.839   0.778   1.238  0.3869 -0.2305  0.4259
  211SOL    HW1  632   0.774   0.852   1.261  2.6807 -0.7270 -1.3711
  211SOL    HW2  633   0.879   0.743   1.320 -0.9070  1.4047  0.6059
  212SOL     OW  634   1.415   2.071   0.915 -0.2792  0.3027 -0.3609
  212SOL    HW1  635   1.340   2.105   0.972  1.0598 -0.8895 -0.6045
  212SOL    HW2  636   1.496   2.045   0.975  2.4551 -2.7113  1.4616
  213SOL     OW  637   2.151   0.297   1.956 -0.4474  0.0020 -0.2467
  213SOL    HW1  638   2.087   0.338   1.890 -1.3806  0.4518  2.5424
  213SOL    HW2  639   2.196   0.214   1.919  2.4494  2.1085  2.1895
  214SOL     OW  640   1.108   2.502   2.652  0.0454 -0.2828 -0.1550
  214SOL    HW1  641   1.062   2.545   2.734  1.4985 -1.5494  1.7650
  214SOL    HW2  642   1.109   2.570   2.574 -0.8854  0.1165 -1.1172
  215SOL     OW  643   2.988   1.746   1.162 -0.7395  0.5925  0.8446
  215SOL    HW1  644   2.936   1.791   1.237 -0.7346  1.7499 -2.4943
  215SOL    HW2  645   2.923   1.676   1.118 -0.6982 -0.6838  0.5001
  216SOL     OW  646   0.249   0.250   2.192 -0.0406  0.1444 -0.3554
  216SOL    HW1  647   0.274   0.176   2.263  2.0737 -2.5711  0.0813
  216SOL    HW2  648   0.334   0.294   2.157  1.4487  1.5247  0.1868
  217SOL     OW  649   2.686   0.372   0.127 -0.2418 -0.7989 -0.5401
  217SOL    HW1  650   2.703   0.466   0.094 -0.3634  2.0508 -3.1462
  217SOL    HW2  651   2.758   0.310   0.087 -1.6939  2.5029 -0.7448
  218SOL     OW  652   1.820   1.841   2.135 -0.1033 -0.2871  0.3358
  218SOL    HW1  653   1.911   1.797   2.137  0.2095 -0.7021 -0.0206
  218SOL    HW2  654   1.769   1.833   2.224 -2.5874  0.8123 -0.0496
  219SOL     OW  655   1.839   0.893   0.232 -0.0413 -0.3112  0.4065
  219SOL    HW1  656   1.816   0.834   0.151  4.0782  2.9615 -0.1452
  219SOL    HW2  657   1.779   0.867   0.309  0.5122  1.5311 -2.5877
  220SOL     OW  658   1.580   1.999   1.108  0.0766 -0.1728 -0.2152
  220SOL    HW1  659   1.534   2.013   1.196 -0.3695  1.7288 -0.8106
  220SOL    HW2  660   1.681   2.011   1.114 -3.6353 -0.5023 -1.6974
  221SOL     OW  661   0.322   0.661   0.073  0.5358  0.0413  0.2316
  221SOL    HW1  662   0.330   0.636   0.169 -0.7005 -1.0414 -1.5108
  221SOL    HW2  663   0.264   0.745   0.070  0.1664  0.9406 -0.7424
  222SOL     OW  664   1.028   2.774   1.357 -1.0568 -0.2405 -0.2137
  222SOL    HW1  665   0.983   2.820   1.440 -1.0409  2.4506  3.8053
  222SOL    HW2  666   1.093   2.839   1.312  2.0565  0.5929 -1.3440
  223SOL     OW  667   1.580   0.439   2.691  0.4572  0.3318  0.2923
  223SOL    HW1  668   1.517   0.399   2.761  0.4147 -1.4564  0.8163
  223SOL    HW2  669   1.593   0.537   2.710  2.3150 -0.5215 -1.1320
  224SOL     OW  670   3.062   0.828   1.239  0.0031 -0.1536  0.4271
  224SOL    HW1  671   3.050   0.727   1.217 -2.2420 -3.3105  0.5253
  224SOL    HW2  672   3.078   0.838   1.341  0.7311 -1.2780  2.4430
  225SOL     OW  673   0.942   1.271   1.376 -0.3762 -0.3003 -0.5661
  225SOL    HW1  674   0.880   1.284   1.294  1.0469  1.5473 -3.4637
  225SOL    HW2  675   0.916   1.342   1.450  1.8220  1.0699  1.5236
  226SOL     OW  676   0.947   0.106   0.240 -0.2791 -0.1633  0.2057
  226SOL    HW1  677   1.016   0.129   0.169  0.8011  1.5469  1.5844
  226SOL    HW2  678   0.980   0.038   0.307 -1.5905  2.3536  0.1617
  227SOL     OW  679   0.649   1.615   1.449 -0.0981 -0.7811  0.4117
  227SOL    HW1  680   0.707   1.697   1.426  0.8097 -1.1342 -0.0852
  227SOL    HW2  681   0.614   1.572   1.361 -1.5575 -2.5038 -3.2744
  228SOL     OW  682   0.512   2.809   1.443 -0.2721  0.6206  0.2641
  228SOL    HW1  683   0.493   2.712   1.406 -0.8014 -2.3692  0.7534
  228SOL    HW2  684   0.513   2.815   1.544  1.2135  0.0198 -3.5332
  229SOL     OW  685   2.411   0.922   0.406 -0.0735  0.6943 -0.1929
  229SOL    HW1  686   2.382   0.825   0.428  1.4879  2.1027  1.5550
  229SOL    HW2  687   2.453   0.927   0.314 -2.0834 -1.2457  0.8852
  230SOL     OW  688   0.388   1.201   1.891 -0.2656 -0.7284 -0.2208
  230SOL    HW1  689   0.411   1.106   1.865  0.8325 -0.2827 -1.8858
  230SOL    HW2  690   0.427   1.222   1.983 -2.5755 -1.4595 -0.9609
  231SOL     OW  691   1.331   2.271   1.374  0.5283 -0.0808 -0.8069
  231SOL    HW1  692   1.377   2.338   1.435  1.1233  2.9950  0.2406
  231SOL    HW2  693   1.318   2.299   1.279  1.3842 -4.0248 -0.0963
  232SOL     OW  694   2.233   2.429   0.488 -0.1089 -0.5548  0.6850
  232SOL    HW1  695   2.204   2.450   0.586  0.9752  0.5960  1.9484
  232SOL    HW2  696   2.164   2.451   0.418 -0.7119  1.6984 -0.7968
  233SOL     OW  697   0.921   2.485   3.045  0.4303 -0.0911 -0.4509
  233SOL    HW1  698   0.917   2.505   0.040 -2.4447 -1.2836 -1.9909
  233SOL    HW2  699   0.982   2.408   3.020 -0.8218 -2.8364 -1.5522
  234SOL     OW  700   1.177   0.359   2.363  0.6966 -0.6607  0.4053
  234SOL    HW1  701   1.270   0.351   2.404 -2.0912  1.4576 -1.4335
  234SOL    HW2  702   1.147   0.286   2.294 -0.7792  0.7066 -3.3750
  235SOL     OW  703   0.247   2.417   0.280 -0.0167  0.0732  0.0782
  235SOL    HW1  704   0.159   2.459   0.315 -0.7991  1.6518  1.2117
  235SOL    HW2  705   0.246   2.315   0.290  1.0820 -0.5692 -0.5398
  236SOL     OW  706   1.892   2.775   2.511 -0.3454 -0.8050  0.2458
  236SOL    HW1  707   1.842   2.777   2.423  0.2328  2.6348  1.8914
  236SOL    HW2  708   1.988   2.749   2.500  0.9847 -1.4362  1.3028
  237SOL     OW  709   2.026   1.191   1.645 -0.9849  0.5405 -0.4396
  237SOL    HW1  710   2.121   1.169   1.610 -0.0553 -0.4578 -0.5106
  237SOL    HW2  711   1.998   1.127   1.725 -0.4082  1.6899  3.5532
  238SOL     OW  712   2.048   0.045   2.384 -0.2336 -0.3143 -0.0702
  238SOL    HW1  713   2.012   0.091   2.300 -1.8070 -1.2713  0.4305
  238SOL    HW2  714   1.977   3.098   2.425  0.0733  3.2621 -1.6400
  239SOL     OW  715   0.355   1.860   1.655 -0.6516 -0.1790  0.3163
  239SOL    HW1  716   0.371   1.881   1.556 -0.3522 -1.2056 -1.7857
  239SOL    HW2  717   0.432   1.801   1.689  0.9619 -1.9287 -3.2380
  240SOL     OW  718   0.127   2.460   0.641  0.2637 -0.4906  0.5529
  240SOL    HW1  719   0.036   2.512   0.642 -1.2618 -1.6212  3.0035
  240SOL    HW2  720   0.104   2.361   0.629 -0.4417  1.9292 -0.4582
  241SOL     OW  721   1.524   2.302   0.257 -0.2580  0.0156  0.1848
  241SOL    HW1  722   1.552   2.268   0.353 -1.0929  1.9200  0.7836
  241SOL    HW2  723   1.514   2.224   0.194 -0.0553 -0.6478 -0.1234
  242SOL     OW  724   1.912   1.219   0.357  0.3312 -0.2417 -0.0408
  242SOL    HW1  725   1.982   1.196   0.285  2.2782 -0.1248 -1.3111
  242SOL    HW2  726   1.814   1.208   0.327  0.4855 -1.0487  0.7172
  243SOL     OW  727   0.828   3.096   1.582  0.4079  0.1828  0.6003
  243SOL    HW1  728   0.821   0.005   1.481 -2.0132  0.4529 -0.7546
  243SOL    HW2  729   0.925   0.015   1.621  2.1390  1.7045  2.9272
  244SOL     OW  730   1.766   2.876   2.763 -0.1119  0.3500 -0.7236
  244SOL    HW1  731   1.721   2.955   2.815  0.6259  0.9714 -1.3603
  244SOL    HW2  732   1.702   2.832   2.701 -0.3774 -1.2055  1.0200
  245SOL     OW  733   1.289   2.996   3.057 -0.6190 -0.2618 -0.3042
  245SOL    HW1  734   1.274   2.931   2.981  2.7611  0.3701  1.3022
  245SOL    HW2  735   1.383   2.976   3.096 -1.2573 -1.0919 -0.4316
  246SOL     OW  736   1.109   1.194   2.130 -0.5298 -0.9158 -0.1200
  246SOL    HW1  737   1.185   1.134   2.138 -2.1874  1.4912  3.6551
  246SOL    HW2  738   1.028   1.160   2.175 -0.8057 -1.6483 -0.5585
  247SOL     OW  739   0.005   0.603   2.129  0.3128 -0.4622  0.3684
  247SOL    HW1  740   0.064   0.670   2.179  0.7677  0.6447  3.1413
  247SOL    HW2  741   3.073   0.642   2.045  0.7084  0.8281  2.5839
  248SOL     OW  742   0.550   0.851   2.009  0.0804  0.4790 -0.4116
  248SOL    HW1  743   0.625   0.918   2.031  0.9441 -1.8753  1.2156
  248SOL    HW2  744   0.493   0.880   1.927 -1.0362 -1.5698 -1.0240
  249SOL     OW  745   2.114   0.598   0.126  0.8243  0.1506 -0.4514
  249SOL    HW1  746   2.102   0.511   0.072  0.3080 -1.5359 -0.0288
  249SOL    HW2  747   2.104   0.583   0.228  0.2319 -0.8356 -2.8535
  250SOL     OW  748   2.988   0.307   0.495  0.7974 -0.7201 -0.1021
  250SOL    HW1  749   2.988   0.351   0.405 -0.3379 -0.7614  1.9922
  250SOL    HW2  750   3.079   0.295   0.526 -3.9979 -0.3231 -0.5121
  251SOL     OW  751   0.982   0.594   2.365 -0.4037  0.1045 -0.3672
  251SOL    HW1  752   1.043   0.527   2.319  1.0518  0.2271 -1.6838
  251SOL    HW2  753   0.930   0.646   2.298  2.9641 -1.8754  0.3433
  252SOL     OW  754   1.467   1.673   1.819  0.3303  0.2236  0.5992
  252SOL    HW1  755   1.388   1.739   1.821 -1.2226  4.5415  2.0565
  252SOL    HW2  756   1.424   1.580   1.808 -0.2510  0.7222  0.2129
  253SOL     OW  757   1.408   2.523   1.900 -0.3557  0.0673  0.1300
  253SOL    HW1  758   1.368   2.428   1.881 -2.7157  1.8300  0.8358
  253SOL    HW2  759   1.503   2.516   1.937  0.7045 -1.1931 -0.3120
  254SOL     OW  760   0.771   2.009   2.196 -0.4173 -0.1136  0.2687
  254SOL    HW1  761   0.869   2.007   2.226 -3.2365 -0.8661  0.4980
  254SOL    HW2  762   0.752   2.086   2.133  0.8655 -1.0467 -1.8803
  255SOL     OW  763   1.339   0.560   0.523  0.3070 -0.1995 -0.3024
  255SOL    HW1  764   1.305   0.523   0.615 -1.2344  0.2908  3.3536
  255SOL    HW2  765   1.263   0.554   0.450 -0.2943  3.2860 -2.2253
  256SOL     OW  766   1.879   2.414   1.478  0.3468 -0.0752 -0.9075
  256SOL    HW1  767   1.949   2.457   1.413  1.5027  0.6441 -0.7229
  256SOL    HW2  768   1.853   2.324   1.446  2.0037 -0.1592  1.4448
  257SOL     OW  769   0.333   2.212   2.591  0.1091 -0.1844  0.1630
  257SOL    HW1  770   0.354   2.291   2.649 -2.2588 -3.0669 -0.1877
  257SOL    HW2  771   0.263   2.155   2.632  1.8878  1.7890  0.5947
  258SOL     OW  772   0.673   0.484   2.204  0.1236  0.0703  0.2664
  258SOL    HW1  773   0.669   0.580   2.180 -2.5744  0.3835 -1.9720
  258SOL    HW2  774   0.714   0.463   2.294  1.5838  2.1123 -0.5486
  259SOL     OW  775   1.263   0.832   2.485 -0.5935 -0.2939 -0.3522
  259SOL    HW1  776   1.168   0.814   2.518  1.2334 -0.2066  2.5050
  259SOL    HW2  777   1.278   0.769   2.405  0.2265  0.1129  0.4181
  260SOL     OW  778   1.691   0.782   0.721  0.7092  0.3327  0.2683
  260SOL    HW1  779   1.603   0.791   0.773  1.1468 -1.9741 -0.6606
  260SOL    HW2  780   1.736   0.692   0.746 -0.6061  1.4948 -1.4416
  261SOL     OW  781   0.709   0.322   2.861  0.6587  0.1415 -0.3459
  261SOL    HW1  782   0.808   0.299   2.884  0.7083  0.0403  0.8930
  261SOL    HW2  783   0.678   0.273   2.777 -2.5864 -0.6605 -1.0405
  262SOL     OW  784   2.499   2.926   2.952  0.1787  0.1646  0.3004
  262SOL    HW1  785   2.581   2.890   3.003 -1.1270  2.0275  0.2942
  262SOL    HW2  786   2.521   2.988   2.876 -1.2033 -0.6622  2.2390
  263SOL     OW  787   0.546   2.071   0.320  0.3778 -0.7534  0.1379
  263SOL    HW1  788   0.562   2.017   0.407  0.1952 -1.4509 -0.1790
  263SOL    HW2  789   0.534   2.174   0.329 -2.2097  0.5568  2.1098
  264SOL     OW  790   0.399   1.412   1.678  0.0931 -0.5093 -0.4200
  264SOL    HW1  791   0.415   1.351   1.760  1.0767  0.4767  0.5839
  264SOL    HW2  792   0.331   1.485   1.711 -0.4181 -1.9009  2.9225
  265SOL     OW  793   0.552   1.282   0.364 -0.2345  0.6877  0.6737
  265SOL    HW1  794   0.493   1.233   0.295 -1.3301 -1.4066 -0.4897
  265SOL    HW2  795   0.639   1.307   0.319 -1.9684 -1.2146  3.5915
  266SOL     OW  796   2.030   1.580   0.619  0.1842  0.0372 -0.0629
  266SOL    HW1  797   1.978   1.654   0.664  2.3705  0.3621 -1.5906
  266SOL    HW2  798   2.118   1.564   0.665 -1.5843  0.6897  2.0023
  267SOL     OW  799   2.863   0.194   3.098 -0.2361 -0.2910  0.1152
  267SOL    HW1  800   2.955   0.229   3.056  1.2741  2.3334 -0.2687
  267SOL    HW2  801   2.799   0.165   3.026 -1.0558  1.4062 -1.7050
  268SOL     OW  802   0.503   0.178   2.688  0.5679  0.3893  0.0882
  268SOL    HW1  803   0.523   0.109   2.763 -0.4024  1.0059 -0.2273
  268SOL    HW2  804   0.400   0.181   2.669 -0.8063 -0.9683  0.6832
  269SOL     OW  805   1.836   0.256   2.756 -1.1143 -0.3364  0.2810
  269SOL    HW1  806   1.884   0.289   2.673 -3.4946  1.8964 -0.5587
  269SOL    HW2  807   1.766   0.320   2.793  1.2981  1.6852 -0.5406
  270SOL     OW  808   0.953   1.045   2.569 -0.4217  0.0024  0.4113
  270SOL    HW1  809   0.953   0.954   2.527 -0.3357 -1.7145  1.2421
  270SOL    HW2  810   0.948   1.039   2.669  0.0069  1.8000  0.9442
  271SOL     OW  811   2.512   0.961   0.143  0.1407  0.4978  0.4963
  271SOL    HW1  812   2.476   0.867   0.131  0.6970 -3.1171  1.3332
  271SOL    HW2  813   2.473   1.030   0.078  3.1835  3.1983  2.8123
  272SOL     OW  814   2.809   2.031   2.795  0.5611  0.1096 -0.2786
  272SOL    HW1  815   2.867   2.049   2.717  1.6997 -0.6848  2.0164
  272SOL    HW2  816   2.727   2.092   2.791  2.2789  0.3696 -0.7363
  273SOL     OW  817   2.430   0.613   2.885  0.1878 -0.4737  0.1671
  273SOL    HW1  818   2.352   0.548   2.902  2.3080 -0.1906  0.6227
  273SOL    HW2  819   2.500   0.569   2.825  0.9764 -2.5712  1.0219
  274SOL     OW  820   0.221   2.962   1.287 -0.0711  0.0643  0.2466
  274SOL    HW1  821   0.252   3.054   1.256 -2.9743 -0.6632 -2.8458
  274SOL    HW2  822   0.193   2.896   1.213 -0.6599 -3.2619 -1.2017
  275SOL     OW  823   2.179   1.502   0.936  0.1339  0.1550  0.3239
  275SOL    HW1  824   2.139   1.409   0.909  0.3028 -2.0267 -0.1933
  275SOL    HW2  825   2.243   1.536   0.864  1.3890  2.3259  0.6382
  276SOL     OW  826   0.257   1.181   2.800  0.3564 -0.5933  0.0301
  276SOL    HW1  827   0.345   1.152   2.766 -0.9945  1.8771  1.8582
  276SOL    HW2  828   0.183   1.182   2.731  2.1102 -2.0443 -0.4222
  277SOL     OW  829   1.747   2.811   1.939 -0.3151  0.1922  0.2234
  277SOL    HW1  830   1.735   2.864   2.026  1.9077 -1.1898  0.0957
  277SOL    HW2  831   1.727   2.715   1.949 -1.6245  1.6216  0.1285
  278SOL     OW  832   1.562   0.469   1.697 -0.2186 -0.2453  0.5743
  278SOL    HW1  833   1.533   0.375   1.661 -0.2957  0.6194 -1.2926
  278SOL    HW2  834   1.643   0.506   1.640 -1.0663  0.0053  0.6851
  279SOL     OW  835   1.931   1.458   0.137  0.2647 -0.6791 -0.1254
  279SOL    HW1  836   1.848   1.409   0.180 -1.8518 -1.7454  0.2021
  279SOL    HW2  837   1.959   1.539   0.191 -0.2617  1.6911  1.3125
  280SOL     OW  838   0.820   1.452   0.951  0.2055 -0.5118 -0.1995
  280SOL    HW1  839   0.900   1.501   0.983 -1.3325  0.9610 -0.6751
  280SOL    HW2  840   0.827   1.435   0.851  1.5856  0.7798 -0.2932
  281SOL     OW  841   0.226   0.099   2.622 -0.3533  0.5418 -0.6226
  281SOL    HW1  842   0.253   0.098   2.526  2.9825 -0.3599 -0.2297
  281SOL    HW2  843   0.225   0.009   2.668  0.7605 -0.0405  0.1595
  282SOL     OW  844   0.301   0.590   1.364 -0.4088  0.0677  0.2549
  282SOL    HW1  845   0.314   0.564   1.267 -1.3367 -0.6948  0.7384
  282SOL    HW2  846   0.204   0.616   1.371  2.3477  1.8760  2.4756
  283SOL     OW  847   1.740   2.129   0.030  0.0596 -0.6936 -0.5374
  283SOL    HW1  848   1.768   2.182   3.051  0.3598  0.8825  0.5768
  283SOL    HW2  849   1.639   2.127   0.040  2.3071 -0.1454  0.0403
  284SOL     OW  850   1.908   1.346   0.577 -0.5895  0.1298  0.0523
  284SOL    HW1  851   1.960   1.436   0.588 -2.8898  2.0574  1.9490
  284SOL    HW2  852   1.926   1.310   0.480  1.4982 -2.4777 -1.6080
  285SOL     OW  853   3.097   0.276   2.966  0.6045 -0.2330  0.3352
  285SOL    HW1  854   0.090   0.307   2.981  0.3808  2.4909 -2.2793
  285SOL    HW2  855   3.098   0.197   2.900  0.4051 -0.7270  0.0960
  286SOL     OW  856   1.826   0.128   1.749 -0.0290 -0.7838 -0.3475
  286SOL    HW1  857   1.800   0.030   1.742  0.8753 -1.3406 -0.1412
  286SOL    HW2  858   1.905   0.152   1.690  1.5907 -0.1869 -1.2744
  287SOL     OW  859   0.911   1.100   1.071 -0.2160  0.3554  0.4300
  287SOL    HW1  860   0.861   1.033   1.132  1.1744 -2.0516 -1.8500
  287SOL    HW2  861   0.879   1.192   1.093  0.6727 -0.9419  2.4815
  288SOL     OW  862   1.386   2.956   0.269 -0.4567  0.1096  0.3407
  288SOL    HW1  863   1.442   2.960   0.179  0.8546 -0.8821  2.5153
  288SOL    HW2  864   1.339   3.042   0.301 -1.7109  2.1096 -0.6501
  289SOL     OW  865   0.104   1.482   2.836  0.0084 -0.1708 -0.0022
  289SOL    HW1  866   0.040   1.544   2.780 -0.5488  3.1160 -1.7336
  289SOL    HW2  867   0.196   1.478   2.787  3.0337 -0.7733 -2.6446
  290SOL     OW  868   1.155   2.623   0.491  0.1550  0.3716 -0.3777
  290SOL    HW1  869   1.062   2.664   0.485 -0.3269 -1.5910 -0.8551
  290SOL    HW2  870   1.183   2.634   0.593  1.4609  0.0516  2.1749
  291SOL     OW  871   2.144   2.541   2.783 -0.6192 -0.4752 -0.1132
  291SOL    HW1  872   2.207   2.618   2.791 -0.4972  0.0247  0.9868
  291SOL    HW2  873   2.047   2.574   2.772 -0.0725 -0.8556  0.3277
  292SOL     OW  874   0.771   1.200   1.885  0.7704  0.3234 -0.1475
  292SOL    HW1  875   0.870   1.207   1.895 -4.2861 -1.0724  0.4993
  292SOL    HW2  876   0.748   1.205   1.785 -3.4114  3.4672 -1.1446
  293SOL     OW  877   2.180   2.769   1.234  0.4474  0.4525 -0.0084
  293SOL    HW1  878   2.153   2.866   1.246 -2.0064 -1.9598  0.6910
  293SOL    HW2  879   2.252   2.770   1.161 -0.8041 -0.8743  1.1667
  294SOL     OW  880   0.007   0.464   2.593 -0.4408  0.2203 -0.0291
  294SOL    HW1  881   3.036   0.533   2.586  0.9524  1.3758 -0.4372
  294SOL    HW2  882   0.046   0.446   2.502 -1.6842 -0.1398  2.2937
  295SOL     OW  883   1.252   1.819   0.400  0.5130 -0.4770 -0.1269
  295SOL    HW1  884   1.295   1.902   0.442 -0.2003 -0.7673  0.1326
  295SOL    HW2  885   1.251   1.730   0.457 -1.6972 -0.3146  2.0117
  296SOL     OW  886   2.098   1.817   2.982  0.1873  0.3504  0.1066
  296SOL    HW1  887   2.113   1.910   2.946 -1.8718 -0.4446  2.2498
  296SOL    HW2  888   2.188   1.769   2.995 -0.3385 -1.3748  2.8490
  297SOL     OW  889   2.395   0.696   0.067 -0.2854 -0.1140 -0.2665
  297SOL    HW1  890   2.361   0.674   3.079 -0.2521  2.8356  1.1809
  297SOL    HW2  891   2.322   0.675   0.139  1.3735 -1.6564 -0.3745
  298SOL     OW  892   0.989   2.086   2.674 -0.2494  0.0838 -0.1412
  298SOL    HW1  893   1.036   2.141   2.604 -0.3310  0.4148  1.1066
  298SOL    HW2  894   0.892   2.104   2.670  1.3766 -0.1698  1.3620
  299SOL     OW  895   1.109   2.662   2.420 -0.1620 -0.4155 -0.2259
  299SOL    HW1  896   1.049   2.637   2.345 -1.8475  1.0964 -0.5725
  299SOL    HW2  897   1.208   2.654   2.392 -2.0774 -2.4395  1.7339
  300SOL     OW  898   2.509   0.219   0.017  0.1329  0.5277 -0.5594
  300SOL    HW1  899   2.564   0.291   0.063  0.0538  0.9883  0.1567
  300SOL    HW2  900   2.551   0.181   3.035 -2.6899  0.3322 -0.7068
  301SOL     OW  901   1.124   1.051   1.429 -0.7370 -0.4067 -0.4065
  301SOL    HW1  902   1.219   1.091   1.422 -0.6199 -0.9224 -1.1382
  301SOL    HW2  903   1.056   1.111   1.383  0.8798 -2.0236 -1.9459
  302SOL     OW  904   3.067   2.319   0.153  0.0758 -0.0181 -0.3699
  302SOL    HW1  905   3.054   2.394   0.223 -2.5772  0.9389 -2.3782
  302SOL    HW2  906   2.975   2.294   0.115  0.3066 -2.0173  0.1208
  303SOL     OW  907   3.010   2.619   2.593 -0.3608  0.6625  0.0655
  303SOL    HW1  908   2.974   2.644   2.686  0.7429 -0.8149 -2.6547
  303SOL    HW2  909   0.007   2.588   2.605  1.7845 -2.9809 -0.1931
  304SOL     OW  910   2.869   0.736   2.298 -0.2649 -0.4298  0.1445
  304SOL    HW1  911   2.837   0.797   2.223  1.6195 -1.3105 -0.4746
  304SOL    HW2  912   2.859   0.636   2.279 -1.1587  1.2620 -1.2275
  305SOL     OW  913   0.387   2.378   2.193 -0.2963 -0.1131  0.9058
  305SOL    HW1  914   0.485   2.412   2.187 -0.1832  0.2249  0.2352
  305SOL    HW2  915   0.377   2.294   2.249 -2.6918  1.3038 -1.9737
  306SOL     OW  916   2.663   1.036   1.723  0.3899  0.1450  0.1042
  306SOL    HW1  917   2.627   1.104   1.790  2.0292 -2.0729 -1.2605
  306SOL    HW2  918   2.617   0.945   1.725  1.5431  0.0475 -0.7894
  307SOL     OW  919   1.699   0.772   1.511 -0.2816  0.2477  0.2890
  307SOL    HW1  920   1.778   0.814   1.465 -1.1739  1.4255  0.5317
  307SOL    HW2  921   1.632   0.743   1.446  1.0079 -0.2123  0.4012
  308SOL     OW  922   2.509   1.873   1.092  0.3186 -0.1904  0.5862
  308SOL    HW1  923   2.411   1.877   1.101  2.6001 -1.0160 -0.2953
  308SOL    HW2  924   2.541   1.802   1.028  2.9188  1.5378 -0.0015
  309SOL     OW  925   1.995   1.580   1.596  0.1059 -0.2043  0.2985
  309SOL    HW1  926   1.950   1.666   1.568  0.8367  0.0182  2.6641
  309SOL    HW2  927   2.074   1.567   1.538  1.3291 -0.9120  1.1820
  310SOL     OW  928   2.792   1.747   2.731 -0.2126  0.1361  0.5718
  310SOL    HW1  929   2.808   1.846   2.743 -0.3071 -1.4460 -1.1381
  310SOL    HW2  930   2.708   1.729   2.674  1.2588  4.4180 -0.2902
  311SOL     OW  931   2.493   2.047   2.678  0.0637 -0.2065  0.4096
  311SOL    HW1  932   2.435   1.962   2.674  1.3913  1.1035 -0.2465
  311SOL    HW2  933   2.528   2.071   2.585  0.0858 -0.1407 -2.2272
  312SOL     OW  934   2.169   2.002   1.348  0.7455  0.0621 -0.0085
  312SOL    HW1  935   2.100   2.015   1.423 -0.3137 -2.0190 -0.2495
  312SOL    HW2  936   2.215   2.089   1.323 -1.1852 -1.7258  2.4778
  313SOL     OW  937   2.326   2.793   1.020 -0.3384  0.3636  0.1088
  313SOL    HW1  938   2.414   2.846   1.029  0.9679  3.1203 -1.1468
  313SOL    HW2  939   2.337   2.711   0.957  1.7774 -1.1130 -2.8048
  314SOL     OW  940   0.987   1.945   0.455 -0.1357 -0.2410  0.1948
  314SOL    HW1  941   1.049   1.880   0.403 -1.7922 -1.9410  0.7823
  314SOL    HW2  942   0.993   1.940   0.559 -1.8718 -2.0712  2.2803
  315SOL     OW  943   0.663   2.383   2.655  0.4617 -0.5558  0.1705
  315SOL    HW1  944   0.668   2.282   2.663 -3.8045  3.4315 -0.7100
  315SOL    HW2  945   0.709   2.420   2.573 -0.2342 -0.8060 -0.9255
  316SOL     OW  946   0.066   0.712   0.625 -0.1865  0.0663  0.0767
  316SOL    HW1  947   0.112   0.766   0.549  1.3766  1.3087 -1.2785
  316SOL    HW2  948   3.078   0.684   0.594 -0.9858 -0.8474 -0.4087
  317SOL     OW  949   1.263   0.409   0.733  0.3090 -0.0024  0.5127
  317SOL    HW1  950   1.285   0.421   0.828 -2.0197 -1.4951  0.0869
  317SOL    HW2  951   1.162   0.427   0.719 -0.5067  0.4278 -2.3333
  318SOL     OW  952   2.965   2.464   0.605  0.1878 -0.2075 -0.1751
  318SOL    HW1  953   2.893   2.530   0.584 -1.1667  0.3981 -1.2877
  318SOL    HW2  954   2.932   2.377   0.646 -0.6580 -0.0084 -1.8179
  319SOL     OW  955   0.346   1.670   2.475  0.2947 -0.3717 -1.1172
  319SOL    HW1  956   0.447   1.691   2.470  0.9250  0.8451 -0.5099
  319SOL    HW2  957   0.304   1.759   2.497  1.0227 -0.4225 -0.8491
  320SOL     OW  958   0.568   2.609   2.171  0.5128  0.0623 -0.0108
  320SOL    HW1  959   0.507   2.675   2.122 -0.3899  0.5268 -2.1023
  320SOL    HW2  960   0.643   2.665   2.218 -1.5799  1.1804  1.5618
  321SOL     OW  961   0.984   2.694   0.132 -0.0304 -0.0005  0.4039
  321SOL    HW1  962   1.063   2.684   0.193 -0.6417  0.5154 -3.0156
  321SOL    HW2  963   0.894   2.707   0.184 -2.2335 -2.0426  1.7904
  322SOL     OW  964   2.514   1.274   2.172  0.1045  0.2463  0.6351
  322SOL    HW1  965   2.487   1.366   2.134 -1.4025  0.8869  1.4639
  322SOL    HW2  966   2.463   1.257   2.260 -2.5502 -0.6125  0.5582
  323SOL     OW  967   2.285   0.652   0.405  0.0327  0.5203  0.2385
  323SOL    HW1  968   2.185   0.638   0.417  2.7105 -0.4999  0.6804
  323SOL    HW2  969   2.331   0.565   0.428 -0.5590  1.3928 -0.3655
  324SOL     OW  970   0.554   2.585   3.072  0.5670 -0.6444 -0.2507
  324SOL    HW1  971   0.623   2.519   3.048  0.9942  1.4031  0.1552
  324SOL    HW2  972   0.553   2.653   2.999  3.4546 -0.8491  0.2312
  325SOL     OW  973   1.596   0.111   2.543  0.7375 -0.4948  0.4593
  325SOL    HW1  974   1.553   0.109   2.631  0.0355 -0.5443 -3.3713
  325SOL    HW2  975   1.666   0.040   2.541 -1.2913 -0.8154  1.6498
  326SOL     OW  976   2.391   2.595   1.348  0.1536 -0.1625 -0.2774
  326SOL    HW1  977   2.372   2.560   1.440 -1.7085  0.6333  0.4078
  326SOL    HW2  978   2.312   2.647   1.321  1.5464 -3.4538  1.8334
  327SOL     OW  979   1.384   0.358   2.885 -0.3653 -0.0716  0.1090
  327SOL    HW1  980   1.288   0.377   2.915  0.6243  0.7162  0.3410
  327SOL    HW2  981   1.455   0.388   2.953  4.5579  0.5166 -1.6386
  328SOL     OW  982   2.638   1.414   2.420 -0.1916  0.2358  0.5006
  328SOL    HW1  983   2.595   1.419   2.327 -2.5280  1.2010  0.3972
  328SOL    HW2  984   2.568   1.394   2.495  2.1328  2.1771  0.4910
  329SOL     OW  985   1.744   0.154   2.035 -0.4004  0.0406 -0.1194
  329SOL    HW1  986   1.762   0.163   1.935  0.7683  0.0642  0.8075
  329SOL    HW2  987   1.649   0.185   2.057 -1.0950  0.9343  1.3644
  330SOL     OW  988   2.395   1.428   1.570 -0.0533  0.2703  0.0669
  330SOL    HW1  989   2.327   1.424   1.496  0.5737  0.4233  0.5623
  330SOL    HW2  990   2.484   1.449   1.540  0.2929 -0.5935 -1.6088
  331SOL     OW  991   0.384   1.294   1.427 -0.5101  0.0035 -0.3333
  331SOL    HW1  992   0.433   1.325   1.346 -3.4571 -0.8320  3.9075
  331SOL    HW2  993   0.401   1.353   1.511 -0.3503 -0.7306  2.3952
  332SOL     OW  994   0.946   0.258   1.181 -0.3390 -0.0489 -0.5359
  332SOL    HW1  995   0.953   0.274   1.080 -0.9615  1.0717  0.4946
  332SOL    HW2  996   1.033   0.287   1.226 -2.1830 -0.1994 -2.0135
  333SOL     OW  997   2.194   2.460   1.869 -0.0910 -0.2029 -0.9648
  333SOL    HW1  998   2.259   2.395   1.911  2.3403 -3.7008  2.1460
  333SOL    HW2  999   2.110   2.462   1.925 -0.3370  0.2957 -2.4740
  334SOL     OW 1000   1.188   1.457   1.360 -0.2785  0.2007  0.1394
  334SOL    HW1 1001   1.216   1.371   1.403 -1.5350 -1.0561 -0.5195
  334SOL    HW2 1002   1.236   1.536   1.399 -0.2019 -0.6123  0.3351
  335SOL     OW 1003   0.586   2.821   2.876  0.0149 -0.4284 -0.4199
  335SOL    HW1 1004   0.660   2.852   2.945  4.1736  2.3524 -0.0154
  335SOL    HW2 1005   0.622   2.775   2.793  0.9869 -2.6987 -0.2456
  336SOL     OW 1006   2.936   2.852   1.884  0.5214 -0.3157  0.0988
  336SOL    HW1 1007   2.886   2.941   1.888  0.3012  0.3291 -1.9528
  336SOL    HW2 1008   2.868   2.773   1.880  1.0579 -2.5620 -1.4006
  337SOL     OW 1009   2.640   1.830   0.640 -0.3547 -0.2478  0.5079
  337SOL    HW1 1010   2.541   1.831   0.634  1.5940 -0.1459  3.0819
  337SOL    HW2 1011   2.689   1.831   0.546  0.9439 -0.1490 -2.2431
  338SOL     OW 1012   1.070   2.063   1.332 -0.1603  0.0274 -0.1179
  338SOL    HW1 1013   1.057   1.971   1.293 -2.0327  1.8710 -0.7594
  338SOL    HW2 1014   1.053   2.073   1.434 -0.0010 -3.9169 -0.1906
  339SOL     OW 1015   2.919   0.652   2.556 -0.0591 -0.0503  0.7257
  339SOL    HW1 1016   2.908   0.664   2.453  1.3042  0.9519 -4.4720
  339SOL    HW2 1017   2.938   0.745   2.596 -0.0718 -1.6110  2.0953
  340SOL     OW 1018   1.637   2.981   0.987 -0.0782 -0.4602  0.0395
  340SOL    HW1 1019   1.726   3.025   0.963 -1.4527  1.1490 -1.5669
  340SOL    HW2 1020   1.634   2.881   0.978 -1.1020  0.9892  0.0658
  341SOL     OW 1021   1.848   2.026   1.113 -0.2411  0.4314 -0.2423
  341SOL    HW1 1022   1.918   2.014   1.041 -3.6402 -0.2479  0.2929
  341SOL    HW2 1023   1.865   1.954   1.186 -1.6619 -3.5589  3.5972
  342SOL     OW 1024   0.525   1.384   0.966 -0.5200  0.0857  0.0735
  342SOL    HW1 1025   0.484   1.421   0.882 -1.3613  0.1648 -4.6903
  342SOL    HW2 1026   0.584   1.300   0.953  1.1019  0.6886  1.7248
  343SOL     OW 1027   2.505   0.523   1.528  0.1592 -0.1945 -0.0152
  343SOL    HW1 1028   2.554   0.437   1.552 -3.7416  2.9995 -2.0109
  343SOL    HW2 1029   2.546   0.605   1.574 -0.0070 -0.5091  2.9457
  344SOL     OW 1030   2.181   2.399   0.774 -0.3822  0.2580  0.2240
  344SOL    HW1 1031   2.157   2.320   0.831  2.2410 -1.0680 -1.9056
  344SOL    HW2 1032   2.260   2.452   0.809 -0.7808  0.0863 -1.1117
  345SOL     OW 1033   2.819   2.416   2.856  0.1790  0.2061 -1.0033
  345SOL    HW1 1034   2.765   2.503   2.868  2.8927  0.1812 -1.5014
  345SOL    HW2 1035   2.753   2.339   2.832 -0.7341  0.5861 -1.5388
  346SOL     OW 1036   0.177   1.308   0.712  0.0515 -0.3098 -0.5856
  346SOL    HW1 1037   0.157   1.373   0.784  1.6313  1.0373 -0.7591
  346SOL    HW2 1038   0.120   1.327   0.629 -4.2841  4.3713  0.6468
  347SOL     OW 1039   1.998   2.830   1.026 -0.0362 -0.4231 -0.0330
  347SOL    HW1 1040   1.976   2.730   1.011  0.8504 -1.4508 -0.2391
  347SOL    HW2 1041   2.074   2.820   1.095  2.3167  0.3557 -0.0215
  348SOL     OW 1042   1.372   1.310   2.629 -0.0281  0.1368 -0.0938
  348SOL    HW1 1043   1.413   1.233   2.580 -0.8957  2.0874 -0.8070
  348SOL    HW2 1044   1.407   1.398   2.596 -0.6122  0.1144  0.1255
  349SOL     OW 1045   2.324   1.176   2.346 -0.5312 -0.1602 -0.2691
  349SOL    HW1 1046   2.224   1.193   2.364 -1.5145  2.7461  1.3543
  349SOL    HW2 1047   2.343   1.090   2.400 -1.0422  1.9444 -0.2283
  350SOL     OW 1048   3.097   2.043   1.110  0.1440  0.0091 -0.0172
  350SOL    HW1 1049   3.088   1.951   1.154  2.9675 -1.3427  2.0753
  350SOL    HW2 1050   0.083   2.073   1.101 -1.3216  0.9800  0.4966
  351SOL     OW 1051   0.795   0.390   2.433  0.1342  0.1710  0.6165
  351SOL    HW1 1052   0.810   0.322   2.506  0.7484 -1.1180  0.1992
  351SOL    HW2 1053   0.870   0.459   2.437  0.4442 -0.1635  1.8544
  352SOL     OW 1054   0.774   2.593   1.587  0.1021 -0.2592  0.1322
  352SOL    HW1 1055   0.798   2.689   1.607 -0.2449 -1.0529  1.8137
  352SOL    HW2 1056   0.858   2.536   1.584 -0.8454 -1.4671  0.5906
  353SOL     OW 1057   0.431   1.420   2.108 -0.2750  0.5788 -0.1113
  353SOL    HW1 1058   0.362   1.352   2.146  3.0067  1.8409 -1.8744
  353SOL    HW2 1059   0.428   1.511   2.156  1.4380  0.2545 -1.0860
  354SOL     OW 1060   1.995   1.295   0.849 -0.3022  0.4500 -0.0908
  354SOL    HW1 1061   1.924   1.331   0.914 -0.8402  0.3065  1.5626
  354SOL    HW2 1062   1.957   1.270   0.756 -0.1102 -1.0601  1.2928
  355SOL     OW 1063   2.411   0.286   0.727 -0.1171  0.6239  0.1097
  355SOL    HW1 1064   2.395   0.338   0.640  1.4623 -0.9664 -0.2482
  355SOL    HW2 1065   2.466   0.205   0.699  0.5522 -0.5796  0.7955
  356SOL     OW 1066   0.058   1.206   2.613  0.5602  0.8993  0.2072
  356SOL    HW1 1067   0.042   1.277   2.533  1.3042  0.3365 -0.7153
  356SOL    HW2 1068   0.039   1.111   2.577 -0.8073  2.0457 -2.2960
  357SOL     OW 1069   0.369   2.733   1.671 -0.0328  0.2959  0.3532
  357SOL    HW1 1070   0.286   2.717   1.614 -0.7566 -0.1606  3.9077
  357SOL    HW2 1071   0.361   2.810   1.735  1.8847  0.2176 -2.6281
  358SOL     OW 1072   2.944   1.299   2.744  0.0599 -0.5404 -0.0731
  358SOL    HW1 1073   3.036   1.269   2.721 -4.9249  0.8717  0.5198
  358SOL    HW2 1074   2.910   1.365   2.673 -1.9779  0.5003 -1.3248
  359SOL     OW 1075   2.666   2.624   2.878 -0.0187  0.2888 -0.8396
  359SOL    HW1 1076   2.652   2.718   2.914  0.2110  0.0952  0.0739
  359SOL    HW2 1077   2.578   2.577   2.874  0.5136  2.0968 -3.1847
  360SOL     OW 1078   1.517   1.450   1.236  0.4105  0.1075 -0.5166
  360SOL    HW1 1079   1.565   1.372   1.195 -1.4840  0.9306 -0.7337
  360SOL    HW2 1080   1.515   1.531   1.178  0.5072  1.2814  1.7351
  361SOL     OW 1081   1.989   2.546   1.268 -0.3238  0.0197  0.6309
  361SOL    HW1 1082   2.054   2.622   1.274 -0.2778 -0.4547 -1.5725
  361SOL    HW2 1083   2.014   2.480   1.192 -2.6454 -0.4208  0.8680
  362SOL     OW 1084   1.617   1.709   1.161 -0.0994  0.3310 -0.0857
  362SOL    HW1 1085   1.597   1.809   1.147  0.3829  4.3286 -1.4622
  362SOL    HW2 1086   1.655   1.670   1.070  2.2448 -0.7133  1.0097
  363SOL     OW 1087   2.622   2.168   3.093  0.5154 -0.0375 -0.0125
  363SOL    HW1 1088   2.616   2.150   2.994 -1.0904 -1.1629 -0.0213
  363SOL    HW2 1089   2.689   2.241   0.006  0.8517 -1.7737  0.8918
  364SOL     OW 1090   2.303   0.482   1.702  0.1843  0.2481 -0.9093
  364SOL    HW1 1091   2.379   0.454   1.636  0.5763  0.8621 -0.1589
  364SOL    HW2 1092   2.315   0.437   1.794  1.6538 -2.1933 -2.5392
  365SOL     OW 1093   2.799   2.687   1.222  0.1858 -0.1514 -0.2359
  365SOL    HW1 1094   2.885   2.716   1.268 -0.8132  1.2776  2.1301
  365SOL    HW2 1095   2.810   2.620   1.148 -2.5325  0.6943 -0.0264
  366SOL     OW 1096   2.864   1.258   0.152 -0.2061  0.5435 -0.0564
  366SOL    HW1 1097   2.875   1.300   0.059 -2.6102 -1.8619 -0.4908
  366SOL    HW2 1098   2.837   1.159   0.149 -2.2370 -2.6432  0.5301
  367SOL     OW 1099   2.449   2.487   2.942  0.1094  0.1122  0.3975
  367SOL    HW1 1100   2.363   2.537   2.919  0.3832 -3.8283  0.6771
  367SOL    HW2 1101   2.440   2.451   3.037 -0.3626  0.1096  1.5596
  368SOL     OW 1102   2.614   1.912   1.354 -0.6064  0.0507 -0.0174
  368SOL    HW1 1103   2.596   2.008   1.337 -1.0529 -1.9230 -0.4440
  368SOL    HW2 1104   2.588   1.865   1.271  0.1658 -2.2374 -1.3948
  369SOL     OW 1105   0.534   0.115   0.904 -0.0035 -0.3606 -0.5791
  369SOL    HW1 1106   0.526   0.122   1.005 -0.1216 -1.8922  1.6620
  369SOL    HW2 1107   0.483   0.042   0.860  0.6036  0.6622 -0.4655
  370SOL     OW 1108   0.915   0.689   0.987 -0.0047 -0.0190 -0.9902
  370SOL    HW1 1109   0.858   0.708   1.068  3.9521 -0.7478  2.4340
  370SOL    HW2 1110   0.870   0.610   0.944 -1.5160  0.5203  0.5464
  371SOL     OW 1111   2.493   1.729   0.277  0.0703 -0.3240  0.0386
  371SOL    HW1 1112   2.583   1.783   0.294  3.9583  2.1003 -0.5692
  371SOL    HW2 1113   2.470   1.737   0.176  0.9483  1.9761 -1.8138
  372SOL     OW 1114   0.257   0.888   2.569 -0.1182 -0.3781  0.5638
  372SOL    HW1 1115   0.208   0.852   2.649 -0.0156  1.1935  0.3776
  372SOL    HW2 1116   0.337   0.945   2.600  1.9817 -1.1548 -1.1049
  373SOL     OW 1117   2.850   0.928   0.457  0.0714  0.0699 -0.2269
  373SOL    HW1 1118   2.915   0.995   0.503 -1.7680  2.7855  0.8215
  373SOL    HW2 1119   2.896   0.839   0.449 -0.1635  1.4545 -2.8929
  374SOL     OW 1120   0.573   2.236   0.052  0.2149  0.2040 -0.3411
  374SOL    HW1 1121   0.537   2.291   0.128  3.7817 -0.5937  0.5962
  374SOL    HW2 1122   0.602   2.297   3.083 -1.4068  0.1216 -1.7418
  375SOL     OW 1123   1.090   0.658   0.000  0.0763 -0.4289 -0.2770
  375SOL    HW1 1124   1.091   0.674   3.004  0.3818 -0.0156  0.4535
  375SOL    HW2 1125   0.996   0.662   0.042  0.2016 -0.6968  2.9076
  376SOL     OW 1126   0.073   2.882   1.773  0.0260  0.1705  0.2423
  376SOL    HW1 1127   3.080   2.869   1.801 -0.0995 -1.4623  1.3732
  376SOL    HW2 1128   0.080   2.862   1.672 -0.4066 -2.8973 -2.6333
  377SOL     OW 1129   0.005   2.026   2.390  0.4613 -0.0488  0.2404
  377SOL    HW1 1130   3.017   2.043   2.355 -2.1482  0.0972  0.1620
  377SOL    HW2 1131   0.078   2.013   2.316 -0.9345  0.8601 -0.2218
  378SOL     OW 1132   1.656   0.882   0.465 -0.2687  0.0406  0.2322
  378SOL    HW1 1133   1.561   0.921   0.445 -1.5835  1.2208 -1.2696
  378SOL    HW2 1134   1.670   0.856   0.563 -0.2821  0.7266  0.1760
  379SOL     OW 1135   1.321   1.485   0.279 -0.2543  0.5794  0.3493
  379SOL    HW1 1136   1.265   1.408   0.241 -0.4981 -0.1189  1.3367
  379SOL    HW2 1137   1.284   1.577   0.253  0.5039  1.3824 -1.1889
  380SOL     OW 1138   2.398   2.296   1.986  0.4252 -0.0061 -0.7864
  380SOL    HW1 1139   2.473   2.302   1.917  1.0725  1.0711  1.0956
  380SOL    HW2 1140   2.352   2.202   1.994  0.5725 -0.7168 -0.6295
  381SOL     OW 1141   0.104   1.025   2.175  0.5073  0.2582 -0.3459
  381SOL    HW1 1142   0.060   1.030   2.087  0.1046  1.4766  1.7288
  381SOL    HW2 1143   0.130   0.931   2.193 -2.7729 -0.2554 -0.9720
  382SOL     OW 1144   2.830   2.349   0.028  0.1309 -0.3017  0.0531
  382SOL    HW1 1145   2.855   2.391   3.045  1.1236  0.9673 -0.2990
  382SOL    HW2 1146   2.803   2.419   0.097  0.4216  0.8392 -3.2658
  383SOL     OW 1147   1.611   1.263   2.238 -0.3295  0.3653  0.4306
  383SOL    HW1 1148   1.647   1.171   2.219 -0.1746  1.1098 -0.3590
  383SOL    HW2 1149   1.604   1.320   2.151 -1.4632  2.1829 -1.6810
  384SOL     OW 1150   0.603   2.078   2.413 -0.0876  0.3112  0.1929
  384SOL    HW1 1151   0.670   2.048   2.341 -0.6908 -2.8236 -1.5833
  384SOL    HW2 1152   0.514   2.118   2.378 -0.4429 -2.0458 -0.7198
  385SOL     OW 1153   2.658   2.142   0.618 -0.3344  0.2688 -0.2256
  385SOL    HW1 1154   2.654   2.040   0.609 -1.6964 -3.7142 -0.7025
  385SOL    HW2 1155   2.615   2.176   0.705 -1.2440 -0.2392  1.1401
  386SOL     OW 1156   1.564   0.853   2.990  0.4432 -0.3233 -0.1293
  386SOL    HW1 1157   1.520   0.944   2.968 -0.1496  0.6949  1.4654
  386SOL    HW2 1158   1.504   0.791   3.052  0.1361  1.1631  1.2131
  387SOL     OW 1159   0.262   0.523   1.628 -0.0626 -0.1024 -0.4942
  387SOL    HW1 1160   0.251   0.528   1.528 -3.6087  0.2396  1.6825
  387SOL    HW2 1161   0.216   0.436   1.664 -2.5362 -3.9889 -0.4728
  388SOL     OW 1162   3.077   0.852   1.514  0.2719 -0.6115 -0.0827
  388SOL    HW1 1163   0.057   0.883   1.555 -1.2282 -1.9949  1.0683
  388SOL    HW2 1164   2.991   0.905   1.532 -1.2174 -0.7000 -0.9605
  389SOL     OW 1165   1.842   1.273   2.589  0.3291  0.5469  0.7594
  389SOL    HW1 1166   1.799   1.179   2.581  0.0269  1.5923  2.3620
  389SOL    HW2 1167   1.797   1.349   2.531 -1.4253 -1.3951 -0.3403
  390SOL     OW 1168   1.856   2.230   0.508 -0.0081 -0.4431 -0.4505
  390SOL    HW1 1169   1.858   2.237   0.405 -0.2860  0.8615 -1.7389
  390SOL    HW2 1170   1.930   2.172   0.533 -0.3132 -0.0157 -0.1760
  391SOL     OW 1171   1.203   2.605   1.066 -0.1117 -0.2352 -0.7048
  391SOL    HW1 1172   1.266   2.683   1.082 -2.4088  0.5170 -2.1529
  391SOL    HW2 1173   1.113   2.641   1.027  1.1504 -1.0576 -0.0213
  392SOL     OW 1174   2.640   2.582   1.427 -0.4474 -0.0134 -0.1044
  392SOL    HW1 1175   2.695   2.617   1.350 -1.8667 -0.2428  1.0233
  392SOL    HW2 1176   2.544   2.590   1.395 -1.1126  1.4513 -1.0392
  393SOL     OW 1177   1.840   2.514   2.570 -0.0376  0.0199  0.1821
  393SOL    HW1 1178   1.869   2.510   2.669 -1.3384 -1.3231  2.7043
  393SOL    HW2 1179   1.860   2.611   2.531  0.3027  1.5609  1.7942
  394SOL     OW 1180   0.429   2.934   2.631 -0.6865 -0.2870 -0.0741
  394SOL    HW1 1181   0.362   2.999   2.674 -1.4551 -2.0721  0.2892
  394SOL    HW2 1182   0.434   2.945   2.528 -0.8318  2.6661 -2.3539
  395SOL     OW 1183   0.740   1.018   1.278  0.2678  0.1513  0.2197
  395SOL    HW1 1184   0.749   1.020   1.382  2.0083 -0.5742  4.1884
  395SOL    HW2 1185   0.660   1.070   1.244  0.7467 -0.7816  0.3866
  396SOL     OW 1186   2.056   1.208   2.378 -0.2107 -0.5984  0.1647
  396SOL    HW1 1187   2.008   1.237   2.291 -2.3245 -0.4782 -0.9900
  396SOL    HW2 1188   2.011   1.255   2.451  3.7503 -1.7463  0.4893
  397SOL     OW 1189   2.705   0.366   2.758 -0.4598 -0.1005  0.4567
  397SOL    HW1 1190   2.739   0.449   2.807  0.8443  0.9928  2.5860
  397SOL    HW2 1191   2.767   0.340   2.683  0.3061  1.6313  0.3422
  398SOL     OW 1192   1.726   0.157   0.829  0.3441 -0.3150 -0.0755
  398SOL    HW1 1193   1.794   0.089   0.863  1.4130 -1.2413  1.3461
  398SOL    HW2 1194   1.707   0.135   0.733  0.2645  1.2230  2.5628
  399SOL     OW 1195   2.454   2.699   1.776  0.0335 -0.0844 -0.1724
  399SOL    HW1 1196   2.417   2.786   1.737 -0.5782  0.3296 -0.1000
  399SOL    HW2 1197   2.396   2.621   1.744 -0.5357  0.1712  0.9614
  400SOL     OW 1198   3.022   2.531   1.834  0.1145  0.2386  0.1804
  400SOL    HW1 1199   2.991   2.436   1.828 -0.5545  1.5460 -0.3554
  400SOL    HW2 1200   0.005   2.545   1.879 -0.4131 -1.1225 -0.0257
  401SOL     OW 1201   0.503   0.227   0.458 -0.4213  0.1443  0.3167
  401SOL    HW1 1202   0.529   0.179   0.373  1.0310  0.3147 -0.8114
  401SOL    HW2 1203   0.488   0.331   0.446  1.8696  1.2977  0.1981
  402SOL     OW 1204   0.569   2.496   1.728  0.2843  0.1818 -0.4927
  402SOL    HW1 1205   0.634   2.517   1.654  0.2656 -0.8881  1.4159
  402SOL    HW2 1206   0.492   2.557   1.713  4.9326  0.3562  0.7030
  403SOL     OW 1207   0.162   1.345   1.946 -0.0689  0.5225  0.0120
  403SOL    HW1 1208   0.243   1.293   1.917 -2.4382  0.1279  1.7353
  403SOL    HW2 1209   0.151   1.328   2.045 -3.3885 -0.0612  1.5377
  404SOL     OW 1210   2.773   2.538   2.218  0.4912 -0.0133 -0.3985
  404SOL    HW1 1211   2.754   2.592   2.135 -0.0627  2.0197  2.3559
  404SOL    HW2 1212   2.855   2.485   2.204 -2.9163  0.6507  1.8852
  405SOL     OW 1213   2.455   0.364   2.603 -0.6785 -0.5935  0.2443
  405SOL    HW1 1214   2.403   0.276   2.606 -0.6823  0.4017  1.6787
  405SOL    HW2 1215   2.546   0.358   2.651 -0.1478 -1.0089 -1.9312
  406SOL     OW 1216   1.565   2.646   0.402  0.0453  0.3751 -0.4217
  406SOL    HW1 1217   1.482   2.688   0.363  1.4124  0.3884 -0.5004
  406SOL    HW2 1218   1.550   2.583   0.482  0.5198 -0.5673  0.1680
  407SOL     OW 1219   1.924   1.632   0.361  0.1689 -0.7442  0.0125
  407SOL    HW1 1220   1.964   1.614   0.453 -1.7292 -0.2510 -1.0283
  407SOL    HW2 1221   1.826   1.609   0.359  1.3680 -0.1789  1.1726
  408SOL     OW 1222   0.214   0.780   2.205 -0.5163  0.1707 -0.0079
  408SOL    HW1 1223   0.264   0.752   2.291 -0.7887 -1.1489  3.7202
  408SOL    HW2 1224   0.268   0.765   2.120 -2.4828 -1.1696 -0.0801
  409SOL     OW 1225   2.902   1.346   3.011 -0.3861 -0.1454  0.1189
  409SOL    HW1 1226   2.890   1.449   3.013 -1.0221  0.1260 -1.0351
  409SOL    HW2 1227   2.924   1.312   2.916 -0.5589 -1.1213 -3.9549
  410SOL     OW 1228   2.459   1.298   1.202 -0.2774  0.8011 -0.2368
  410SOL    HW1 1229   2.395   1.374   1.183  4.8797 -3.7627  2.2331
  410SOL    HW2 1230   2.490   1.308   1.297  2.4072  0.7589  2.4598
  411SOL     OW 1231   2.956   0.665   0.447  0.3442 -0.0960 -0.3256
  411SOL    HW1 1232   2.932   0.636   0.351 -2.4361  0.1862 -0.2016
  411SOL    HW2 1233   2.887   0.623   0.507 -0.8548  2.3715 -0.1651
  412SOL     OW 1234   1.683   0.302   0.184 -0.2728 -0.0898  0.2852
  412SOL    HW1 1235   1.646   0.211   0.202 -1.1291  3.3595  1.1175
  412SOL    HW2 1236   1.781   0.315   0.207 -0.1770 -2.1291 -1.1492
  413SOL     OW 1237   1.109   0.330   1.772 -0.3517 -0.4961  0.1929
  413SOL    HW1 1238   1.160   0.314   1.856 -0.6345  0.2376 -3.5217
  413SOL    HW2 1239   1.163   0.381   1.701  2.3634 -2.9321 -0.1902
  414SOL     OW 1240   0.417   1.181   0.130 -0.0817  0.0856  0.1150
  414SOL    HW1 1241   0.487   1.128   0.078 -1.3152  3.8746  1.4727
  414SOL    HW2 1242   0.359   1.238   0.067  0.9190  1.1273 -0.1661
  415SOL     OW 1243   0.025   1.337   0.451 -0.8237 -0.0930 -0.2530
  415SOL    HW1 1244   3.087   1.420   0.484  1.4386 -3.0872  2.0093
  415SOL    HW2 1245   0.039   1.346   0.352 -1.8736  0.6042  5.0239
  416SOL     OW 1246   2.178   1.073   0.228  0.5492 -0.1253  0.1469
  416SOL    HW1 1247   2.141   0.982   0.196 -1.0343 -0.7965 -0.6924
  416SOL    HW2 1248   2.232   1.065   0.312 -0.1438  0.6833 -0.1828
  417SOL     OW 1249   2.731   2.851   3.097  0.0513 -0.0470  0.2408
  417SOL    HW1 1250   2.833   2.859   3.093 -0.9131  0.2439 -0.8122
  417SOL    HW2 1251   2.704   2.836   0.089  1.5538 -0.8137  1.7589
  418SOL     OW 1252   2.669   0.654   0.072 -0.8123  0.0954 -0.3779
  418SOL    HW1 1253   2.673   0.704   3.090 -1.0348 -1.6335 -1.2917
  418SOL    HW2 1254   2.576   0.664   0.108  1.6942 -2.4718 -1.0937
  419SOL     OW 1255   0.876   0.317   0.589 -0.4566 -0.3533  0.5931
  419SOL    HW1 1256   0.786   0.288   0.617  4.4028 -0.7790 -2.5496
  419SOL    HW2 1257   0.884   0.354   0.492  0.7727  1.1185 -0.1708
  420SOL     OW 1258   0.599   1.002   0.718 -0.5162  0.4507 -0.7428
  420SOL    HW1 1259   0.507   0.970   0.702  1.6010  0.3213 -1.3327
  420SOL    HW2 1260   0.641   0.963   0.805  1.2899 -1.8109  1.9323
  421SOL     OW 1261   0.444   1.816   0.559  0.3053 -0.2394  0.1042
  421SOL    HW1 1262   0.524   1.784   0.509 -0.3718  1.0976  1.0113
  421SOL    HW2 1263   0.362   1.789   0.510  1.8894 -0.4646  2.3707
  422SOL     OW 1264   2.921   0.440   1.469  0.0281  0.4263 -0.3616
  422SOL    HW1 1265   2.852   0.492   1.423 -1.4679 -2.8970 -2.5273
  422SOL    HW2 1266   2.906   0.448   1.568  0.8759  1.4046 -2.1274
  423SOL     OW 1267   2.023   1.993   0.504 -0.1182  0.6849 -0.2649
  423SOL    HW1 1268   2.108   2.046   0.525  0.7862 -1.0461 -0.1461
  423SOL    HW2 1269   2.026   1.959   0.408  0.5943 -3.1516  0.5971
  424SOL     OW 1270   1.650   1.632   2.916 -0.0732  0.2580 -0.1280
  424SOL    HW1 1271   1.643   1.661   3.017  0.1858 -0.4579  2.8232
  424SOL    HW2 1272   1.741   1.661   2.879  0.8646  0.9337 -0.7917
  425SOL     OW 1273   0.437   2.795   2.032  0.2027  0.2279 -0.1453
  425SOL    HW1 1274   0.396   2.840   2.115  1.2153 -0.8136 -0.5471
  425SOL    HW2 1275   0.450   2.864   1.957 -1.2587  0.5609 -1.0867
  426SOL     OW 1276   2.254   3.061   3.001 -0.1346 -0.0907 -0.5070
  426SOL    HW1 1277   2.331   2.999   2.979  0.5068  0.4469  0.3544
  426SOL    HW2 1278   2.175   3.040   2.942  0.3341 -0.2856 -0.5211
  427SOL     OW 1279   0.384   1.671   2.194  0.1836  0.7582  0.5920
  427SOL    HW1 1280   0.462   1.733   2.165  1.5759  0.3180  1.4874
  427SOL    HW2 1281   0.355   1.689   2.287  2.2621  0.0150 -0.7588
  428SOL     OW 1282   2.251   1.448   2.434 -0.4079 -0.2148  0.2934
  428SOL    HW1 1283   2.163   1.480   2.388  0.9655 -0.2042 -2.6739
  428SOL    HW2 1284   2.281   1.360   2.393  0.9318  2.9804 -1.3032
  429SOL     OW 1285   2.459   0.025   0.615 -0.1585  0.0152 -0.0651
  429SOL    HW1 1286   2.504   0.018   0.522  2.4539 -1.7266 -3.5034
  429SOL    HW2 1287   2.380   3.070   0.617 -0.1829  0.1685 -0.1945
  430SOL     OW 1288   1.984   2.078   2.092 -0.4736  0.1841 -0.2603
  430SOL    HW1 1289   1.967   2.112   2.000  2.1168 -1.3215 -0.5321
  430SOL    HW2 1290   1.944   1.986   2.104  2.7048  1.4103 -1.9963
  431SOL     OW 1291   2.814   1.683   1.647  0.5086 -0.4731 -0.9933
  431SOL    HW1 1292   2.909   1.640   1.634  0.2899  0.1752  1.0204
  431SOL    HW2 1293   2.749   1.619   1.602  0.8163  0.9977  1.2910
  432SOL     OW 1294   1.020   2.276   1.937 -0.1763 -0.0522 -0.1751
  432SOL    HW1 1295   1.104   2.263   1.997  2.2123  1.0325 -1.0628
  432SOL    HW2 1296   0.937   2.277   1.999 -0.1510  0.9413  2.3886
  433SOL     OW 1297   1.031   0.001   0.688 -0.0212 -0.3232  0.3251
  433SOL    HW1 1298   1.123   0.034   0.713 -2.3673 -1.8865  0.5415
  433SOL    HW2 1299   0.953   0.039   0.750 -0.2584 -0.5877  2.0972
  434SOL     OW 1300   0.154   2.382   2.022 -0.0158 -0.3002  0.5344
  434SOL    HW1 1301   0.197   2.448   1.956  1.0106 -0.0054 -0.9324
  434SOL    HW2 1302   0.227   2.331   2.074  1.0035  1.5494 -0.4411
  435SOL     OW 1303   0.651   1.254   0.614  0.5678  0.0994  0.0064
  435SOL    HW1 1304   0.629   1.172   0.670  1.7635 -1.2756 -0.9544
  435SOL    HW2 1305   0.616   1.250   0.519  1.9884 -0.9060  1.8906
  436SOL     OW 1306   0.244   1.625   1.742  0.1953 -0.2119  0.4135
  436SOL    HW1 1307   0.288   1.709   1.701  3.0319  5.9779 -0.0624
  436SOL    HW2 1308   0.247   1.619   1.848  0.2320  0.6976  2.5701
  437SOL     OW 1309   1.125   0.530   0.369  0.1769 -0.3234 -0.2331
  437SOL    HW1 1310   1.058   0.458   0.393 -0.4961  1.7404 -1.0325
  437SOL    HW2 1311   1.077   0.619   0.346 -2.2043  2.5435 -0.5954
  438SOL     OW 1312   1.037   1.820   1.165  0.2663  0.4258  0.2180
  438SOL    HW1 1313   1.009   1.797   1.065 -1.7244 -0.3505 -0.1629
  438SOL    HW2 1314   1.125   1.781   1.194 -2.1481  0.5483 -2.2381
  439SOL     OW 1315   1.341   1.920   2.435  0.0055 -0.2973  0.1072
  439SOL    HW1 1316   1.261   1.888   2.486 -1.7197  0.0173  1.0850
  439SOL    HW2 1317   1.420   1.937   2.491 -3.1403  0.0343 -2.8179
  440SOL     OW 1318   1.588   0.198   1.357  0.0096  0.6934  0.7430
  440SOL    HW1 1319   1.568   0.226   1.451 -0.4962 -0.2303  1.3201
  440SOL    HW2 1320   1.667   0.130   1.358  0.2491  1.3405 -0.5474
  441SOL     OW 1321   0.624   3.004   1.248 -0.0222 -0.0146 -0.6618
  441SOL    HW1 1322   0.583   3.092   1.286 -3.1273  0.8037  2.5590
  441SOL    HW2 1323   0.602   2.934   1.317 -0.9689  0.5097  1.0733
  442SOL     OW 1324   2.310   2.052   0.781  0.2953 -0.0516  0.5072
  442SOL    HW1 1325   2.234   2.067   0.848 -2.1596 -1.3282 -1.5781
  442SOL    HW2 1326   2.280   2.092   0.689 -1.8812  0.1176 -1.5700
  443SOL     OW 1327   2.809   0.464   2.249  0.4881  0.7645 -0.0533
  443SOL    HW1 1328   2.708   0.474   2.258 -0.4526  1.7703  2.0635
  443SOL    HW2 1329   2.835   0.366   2.265  2.0127 -0.5230 -0.8250
  444SOL     OW 1330   1.959   1.266   2.138  0.1692 -0.0855 -0.0040
  444SOL    HW1 1331   1.864   1.277   2.097  0.0738  0.6206  1.4542
  444SOL    HW2 1332   1.995   1.174   2.122 -1.2253 -3.5409  2.8148
  445SOL     OW 1333   2.574   2.173   1.343 -0.4285 -0.6939 -0.4944
  445SOL    HW1 1334   2.636   2.243   1.296  1.9594  2.1108  2.0461
  445SOL    HW2 1335   2.516   2.212   1.415 -1.0973  1.0604 -1.4551
  446SOL     OW 1336   0.339   0.939   0.691 -0.5473  0.0422 -0.5718
  446SOL    HW1 1337   0.304   0.919   0.602  0.6115  0.8092 -1.1029
  446SOL    HW2 1338   0.275   0.991   0.753 -2.3482  0.8446  1.9030
  447SOL     OW 1339   0.935   1.744   0.920  0.2043 -0.9011 -0.1044
  447SOL    HW1 1340   0.980   1.750   0.831 -0.6684  0.9315 -2.0855
  447SOL    HW2 1341   0.842   1.698   0.913 -2.6757 -0.4386 -3.3616
  448SOL     OW 1342   1.144   1.011   1.714 -0.2911  0.2323  0.7757
  448SOL    HW1 1343   1.146   1.026   1.615  1.2353 -1.7101  1.2285
  448SOL    HW2 1344   1.136   0.909   1.736 -0.4296 -1.2150 -2.0032
  449SOL     OW 1345   0.211   1.744   3.083 -0.5508  0.8256  0.1366
  449SOL    HW1 1346   0.167   1.659   0.009  1.7613  0.5837 -0.7104
  449SOL    HW2 1347   0.208   1.801   0.060  1.2460 -0.6087  0.5222
  450SOL     OW 1348   2.495   2.456   2.202  0.1942  0.4410 -0.6733
  450SOL    HW1 1349   2.470   2.400   2.120 -1.7009 -1.4543  0.5765
  450SOL    HW2 1350   2.596   2.467   2.213  2.7042 -1.8153  0.7903
  451SOL     OW 1351   2.121   0.531   2.132 -0.5354  0.5547  0.6768
  451SOL    HW1 1352   2.143   0.454   2.075  0.6494  2.5880  2.4167
  451SOL    HW2 1353   2.103   0.607   2.068  0.4161 -1.8170  3.4187
  452SOL     OW 1354   0.831   2.720   1.176  0.3483  0.1121  0.0823
  452SOL    HW1 1355   0.785   2.809   1.150  2.0161 -0.0740  0.3340
  452SOL    HW2 1356   0.897   2.737   1.254  0.0950  2.5641 -0.4546
  453SOL     OW 1357   1.149   1.186   0.986 -0.0618 -0.4158 -0.2944
  453SOL    HW1 1358   1.168   1.277   1.033  1.3481  0.2150  2.0125
  453SOL    HW2 1359   1.055   1.155   1.014 -1.9087 -0.5603 -0.9933
  454SOL     OW 1360   0.187   1.066   0.858  0.2516  0.4359  0.2482
  454SOL    HW1 1361   0.190   1.078   0.962 -2.0667  3.1758  1.6906
  454SOL    HW2 1362   0.170   1.151   0.805  1.8896 -0.2051  2.2670
  455SOL     OW 1363   0.129   2.960   0.285 -0.2642 -0.5463  0.2915
  455SOL    HW1 1364   0.182   3.025   0.228  0.2084 -0.5156 -0.9564
  455SOL    HW2 1365   0.039   3.006   0.308 -1.5779  0.9374  0.1360
  456SOL     OW 1366   2.629   2.484   0.772 -0.2384  0.0826 -0.0518
  456SOL    HW1 1367   2.612   2.383   0.758 -0.3988 -3.3070  0.2679
  456SOL    HW2 1368   2.699   2.526   0.706  2.6156  1.1463 -0.4876
  457SOL     OW 1369   0.978   3.038   2.833 -0.5339 -0.6974  0.4497
  457SOL    HW1 1370   0.990   2.959   2.897  0.5535 -0.8986 -0.7470
  457SOL    HW2 1371   1.063   3.058   2.783 -2.0202  4.3009 -0.1638
  458SOL     OW 1372   3.001   2.636   0.136 -0.1387 -0.1460  0.0802
  458SOL    HW1 1373   2.905   2.612   0.151  2.6188 -1.7915 -4.0078
  458SOL    HW2 1374   3.009   2.712   0.072 -0.6533 -2.7681  2.1625
  459SOL     OW 1375   2.542   0.405   2.249  0.0192 -0.0023 -0.4153
  459SOL    HW1 1376   2.480   0.411   2.331  2.9674  1.7270 -1.9565
  459SOL    HW2 1377   2.530   0.319   2.190 -1.6224 -1.1558 -2.3112
  460SOL     OW 1378   2.922   0.610   0.184  0.2800  0.1387  0.3573
  460SOL    HW1 1379   2.972   0.592   0.096 -1.5661  0.4279  1.2435
  460SOL    HW2 1380   2.822   0.623   0.158 -1.8586 -1.8264 -1.3447
  461SOL     OW 1381   0.585   1.835   1.218  0.0544  0.1569  0.1093
  461SOL    HW1 1382   0.600   1.784   1.130 -0.6896  1.0963 -1.1151
  461SOL    HW2 1383   0.672   1.834   1.270  1.8884 -0.8375 -0.8548
  462SOL     OW 1384   3.047   2.705   1.343  0.0774 -0.3783  0.2409
  462SOL    HW1 1385   3.062   2.805   1.339 -2.3767 -1.8735  3.8599
  462SOL    HW2 1386   3.028   2.669   1.439  0.1599 -0.0725  0.5476
  463SOL     OW 1387   2.501   1.231   3.002 -0.0585  0.2597 -0.3071
  463SOL    HW1 1388   2.431   1.252   2.935  2.7145 -0.1188  1.0974
  463SOL    HW2 1389   2.590   1.207   2.954  1.1570  1.2828  0.6779
  464SOL     OW 1390   0.662   2.288   1.078  0.1986 -0.5150 -0.0230
  464SOL    HW1 1391   0.664   2.188   1.071 -3.5901 -0.5888  1.1831
  464SOL    HW2 1392   0.756   2.329   1.069  0.4911 -1.1789 -1.0624
  465SOL     OW 1393   0.689   0.517   0.798  0.6611 -0.5801 -0.3141
  465SOL    HW1 1394   0.719   0.452   0.728 -0.6089  0.7636  1.2517
  465SOL    HW2 1395   0.593   0.550   0.785  2.6157 -1.6648  0.9080
  466SOL     OW 1396   1.206   2.834   2.098  0.1662 -0.4061 -0.1620
  466SOL    HW1 1397   1.233   2.786   2.006 -0.7305 -1.3661 -3.7044
  466SOL    HW2 1398   1.128   2.900   2.092  0.6558 -1.5744 -0.2815
  467SOL     OW 1399   0.841   0.282   2.093  0.0737 -0.0736 -0.4072
  467SOL    HW1 1400   0.750   0.251   2.055 -0.7086 -5.3525  1.6872
  467SOL    HW2 1401   0.833   0.321   2.183  0.0899  0.2409  0.8004
  468SOL     OW 1402   0.238   1.254   2.208  0.0819 -0.2712 -0.1644
  468SOL    HW1 1403   0.196   1.160   2.220 -0.3474  2.1435  2.2854
  468SOL    HW2 1404   0.261   1.295   2.301 -0.4630 -1.0062  0.7955
  469SOL     OW 1405   0.434   1.652   0.780  0.5463 -0.1623 -0.2924
  469SOL    HW1 1406   0.422   1.730   0.714 -1.0565  2.7178 -0.2439
  469SOL    HW2 1407   0.456   1.564   0.737 -0.9367 -0.6470 -0.2257
  470SOL     OW 1408   2.618   1.815   2.252  0.3091 -0.5913 -0.6566
  470SOL    HW1 1409   2.637   1.749   2.177  0.5054  0.2145 -0.9261
  470SOL    HW2 1410   2.711   1.857   2.279 -0.7090 -0.8006  0.1151
  471SOL     OW 1411   1.399   0.328   2.508 -0.4301  0.9037 -0.1902
  471SOL    HW1 1412   1.425   0.235   2.549 -0.3437  0.3749 -2.0420
  471SOL    HW2 1413   1.482   0.387   2.511 -1.7766  0.3519 -0.0817
  472SOL     OW 1414   0.522   2.227   1.769 -0.0991 -0.4708 -0.6250
  472SOL    HW1 1415   0.598   2.177   1.732 -1.8019  1.1270  2.3579
  472SOL    HW2 1416   0.528   2.330   1.758  2.1843  2.6476  0.8323
  473SOL     OW 1417   0.358   0.093   2.368 -0.2972  0.3470  0.1254
  473SOL    HW1 1418   0.446   0.145   2.383  1.1273  0.8807 -3.7152
  473SOL    HW2 1419   0.374   3.104   2.335  0.0950 -0.8787 -2.2708
  474SOL     OW 1420   1.849   0.119   1.340 -0.1844  0.5796 -0.0526
  474SOL    HW1 1421   1.857   0.213   1.385  0.8040  1.2239  0.5881
  474SOL    HW2 1422   1.890   0.133   1.251 -0.1300 -1.9868  0.4055
  475SOL     OW 1423   1.946   0.728   1.205  0.0064 -0.4738 -0.6421
  475SOL    HW1 1424   2.008   0.648   1.190  1.2423  1.8977 -1.6678
  475SOL    HW2 1425   1.950   0.788   1.124  3.7999 -1.2674 -1.5461
  476SOL     OW 1426   0.686   0.849   0.928  0.0379  0.0660 -0.2924
  476SOL    HW1 1427   0.649   0.843   1.021  0.1462  0.1002  0.3914
  476SOL    HW2 1428   0.786   0.835   0.932  0.0352  2.4167 -1.0032
  477SOL     OW 1429   1.404   2.285   0.739  0.6654 -0.1914 -0.0472
  477SOL    HW1 1430   1.425   2.200   0.794  0.2643 -0.2185 -1.0554
  477SOL    HW2 1431   1.322   2.264   0.686  0.2811  2.8750  1.2962
  478SOL     OW 1432   0.020   2.628   2.258 -0.0395  0.0504  0.2995
  478SOL    HW1 1433   0.114   2.601   2.297 -0.9547 -0.1034  0.7115
  478SOL    HW2 1434   0.018   2.596   2.165  2.0644  1.6595  1.2602
  479SOL     OW 1435   2.539   0.235   1.211  0.5103  0.3685 -0.4701
  479SOL    HW1 1436   2.584   0.323   1.185 -0.9703 -0.8390 -0.7555
  479SOL    HW2 1437   2.441   0.231   1.201  2.9130 -2.6138  1.0075
  480SOL     OW 1438   0.348   2.629   0.593  0.5378  0.0321 -0.2404
  480SOL    HW1 1439   0.280   2.556   0.606  0.0265  1.8714  0.2789
  480SOL    HW2 1440   0.337   2.675   0.506  0.1856  3.2072  1.1974
  481SOL     OW 1441   2.382   2.267   1.524  0.0210  0.1475  0.4128
  481SOL    HW1 1442   2.354   2.364   1.538 -0.6794  1.2754  0.2704
  481SOL    HW2 1443   2.380   2.215   1.614 -1.5719  2.1046  0.0493
  482SOL     OW 1444   1.167   2.821   2.817 -0.0267  0.2451  0.4021
  482SOL    HW1 1445   1.189   2.903   2.761 -1.5341 -2.8019  0.0213
  482SOL    HW2 1446   1.248   2.758   2.829 -1.0780 -0.0245 -2.3197
  483SOL     OW 1447   0.725   2.028   1.818  0.0108  0.1216 -0.0121
  483SOL    HW1 1448   0.806   1.984   1.861 -1.4765 -0.3369  0.4444
  483SOL    HW2 1449   0.677   1.973   1.751  2.8660  1.2852 -1.0614
  484SOL     OW 1450   1.128   0.372   1.373  0.4445 -0.3087 -0.0087
  484SOL    HW1 1451   1.051   0.383   1.440 -0.9864  0.4340  0.9652
  484SOL    HW2 1452   1.141   0.464   1.327 -0.6138  2.2750  1.2069
  485SOL     OW 1453   1.835   1.132   3.033 -0.0912 -0.1662  0.2027
  485SOL    HW1 1454   1.823   1.228   3.008 -3.1161 -3.1827  0.8752
  485SOL    HW2 1455   1.796   1.114   0.019  2.3316 -1.9420 -0.4114
  486SOL     OW 1456   2.263   0.078   1.417 -0.2085  0.1267  0.2479
  486SOL    HW1 1457   2.304   0.170   1.402  1.9537  0.8062 -0.7178
  486SOL    HW2 1458   2.313   0.029   1.493 -0.8361  0.8158  0.6383
  487SOL     OW 1459   0.783   2.049   1.032 -0.6951 -0.2066 -0.5138
  487SOL    HW1 1460   0.863   2.092   0.985  1.4829 -1.0235 -0.6650
  487SOL    HW2 1461   0.812   1.994   1.113  0.3503  1.2498  0.0989
  488SOL     OW 1462   2.402   2.008   3.082  0.2820 -0.6530  0.5253
  488SOL    HW1 1463   2.338   2.032   3.004  0.4107 -0.9022 -0.0098
  488SOL    HW2 1464   2.485   2.068   3.092 -0.0686 -0.2500  3.6362
  489SOL     OW 1465   1.956   3.005   0.640  0.7434 -0.3626  0.4572
  489SOL    HW1 1466   2.049   2.977   0.615 -1.7296 -0.7565 -0.8674
  489SOL    HW2 1467   1.887   2.938   0.615  1.2620  1.4452  3.2373
  490SOL     OW 1468   1.026   1.974   2.916 -0.0466 -0.0753 -0.7024
  490SOL    HW1 1469   1.023   2.003   2.816 -0.8092  2.8975 -3.1874
  490SOL    HW2 1470   1.033   2.059   2.972 -0.0944  1.9208  0.6965
  491SOL     OW 1471   0.256   2.090   1.724 -1.1268 -1.3762  0.0829
  491SOL    HW1 1472   0.281   1.996   1.728 -2.8443  2.4179  0.6434
  491SOL    HW2 1473   0.343   2.142   1.743 -0.8809  1.9113 -0.0679
  492SOL     OW 1474   0.778   1.599   1.842 -0.6989  0.2248 -0.0962
  492SOL    HW1 1475   0.855   1.543   1.811 -0.3131 -0.6867  0.6812
  492SOL    HW2 1476   0.714   1.543   1.902  1.0053 -0.7851 -3.7848
  493SOL     OW 1477   2.575   1.711   0.904  0.2624 -0.5107  0.6694
  493SOL    HW1 1478   2.563   1.777   0.828 -1.5277 -0.3209  0.9399
  493SOL    HW2 1479   2.601   1.613   0.875 -2.3313 -2.0301 -0.8395
  494SOL     OW 1480   2.988   1.555   0.781  0.6636  0.3177 -0.2524
  494SOL    HW1 1481   2.912   1.506   0.735  1.7625 -1.3325  1.6659
  494SOL    HW2 1482   2.990   1.651   0.749  1.1220  0.8306  0.4660
  495SOL     OW 1483   2.232   2.985   0.552 -0.1147  0.7169  0.0548
  495SOL    HW1 1484   2.247   3.025   0.461  3.5177 -0.3035 -0.3703
  495SOL    HW2 1485   2.228   2.881   0.539 -1.3615 -2.4631 -0.7895
  496SOL     OW 1486   2.600   0.088   1.649  0.2815  0.2170  0.2300
  496SOL    HW1 1487   2.595   0.066   1.551  0.8077 -0.4647 -1.2968
  496SOL    HW2 1488   2.627   0.185   1.667  2.5434 -0.1127 -0.5342
  497SOL     OW 1489   2.529   1.364   2.656 -0.1589  0.3950  0.0906
  497SOL    HW1 1490   2.439   1.320   2.671 -1.2224  0.2745 -0.0504
  497SOL    HW2 1491   2.595   1.326   2.723 -0.7697 -2.2126 -1.7533
  498SOL     OW 1492   2.891   1.867   1.373 -0.2812  0.0748 -0.0271
  498SOL    HW1 1493   2.960   1.882   1.446 -0.6626 -2.1897 -0.8539
  498SOL    HW2 1494   2.799   1.900   1.395 -0.6115  0.9081 -1.0055
  499SOL     OW 1495   1.086   2.260   2.506 -0.3431  0.5128 -0.3411
  499SOL    HW1 1496   1.092   2.342   2.568  0.6646 -0.3068 -1.0800
  499SOL    HW2 1497   1.057   2.287   2.410  1.0890 -1.4474  2.0604
  500SOL     OW 1498   1.624   1.331   0.596 -0.8945  0.1578 -0.1444
  500SOL    HW1 1499   1.724   1.318   0.577  2.7114  1.4858 -2.8137
  500SOL    HW2 1500   1.603   1.327   0.697 -0.8702  1.9918 -0.5041
  501SOL     OW 1501   1.567   0.214   1.620 -0.2799 -0.0219  0.1999
  501SOL    HW1 1502   1.506   0.160   1.682 -1.5294  0.3885  0.3861
  501SOL    HW2 1503   1.661   0.208   1.662 -0.1627  1.8520 -0.2326
  502SOL     OW 1504   2.699   0.681   1.641  0.2012  0.2226  0.4259
  502SOL    HW1 1505   2.754   0.599   1.662  0.5097  0.2604 -1.7690
  502SOL    HW2 1506   2.658   0.725   1.723 -1.3398 -1.8900  0.5757
  503SOL     OW 1507   2.451   1.541   2.162 -0.5006 -0.2737  0.0365
  503SOL    HW1 1508   2.372   1.573   2.108 -0.7416  0.8498 -0.1218
  503SOL    HW2 1509   2.533   1.596   2.136  0.1421 -1.4563  0.2363
  504SOL     OW 1510   1.029   1.215   1.872 -0.1596  0.4952 -0.2078
  504SOL    HW1 1511   1.070   1.216   1.970 -3.8733 -0.5573  0.7249
  504SOL    HW2 1512   1.079   1.161   1.799 -0.6127  0.4560 -2.5168
  505SOL     OW 1513   0.401   0.248   1.619  0.5698  0.0317 -0.4683
  505SOL    HW1 1514   0.469   0.322   1.623 -0.1578 -1.7770 -0.4045
  505SOL    HW2 1515   0.325   0.263   1.688  0.1892  2.0544 -0.8989
  506SOL     OW 1516   0.191   0.245   0.136  0.4150  0.6230  0.1621
  506SOL    HW1 1517   0.134   0.291   0.203 -0.6621 -0.3408 -1.0783
  506SOL    HW2 1518   0.176   0.291   0.047  2.1709  0.5277  1.2267
  507SOL     OW 1519   0.324   2.439   3.012  0.0746  0.5376  0.0568
  507SOL    HW1 1520   0.230   2.472   3.036 -1.2282 -1.5362  0.0434
  507SOL    HW2 1521   0.399   2.498   3.032 -0.7909 -3.9370  0.3234
  508SOL     OW 1522   1.073   0.188   2.185 -0.4728 -0.1667  0.1504
  508SOL    HW1 1523   0.995   0.237   2.143 -0.4055  0.3957  0.6788
  508SOL    HW2 1524   1.063   0.092   2.153  2.2651  0.4760 -0.7067
  509SOL     OW 1525   1.467   2.022   1.356 -0.0864  0.3024  0.3153
  509SOL    HW1 1526   1.541   2.033   1.426  1.9869  1.1521 -0.2964
  509SOL    HW2 1527   1.422   2.113   1.347  1.1641 -2.6323  2.9285
  510SOL     OW 1528   2.878   1.069   1.553  0.1363  0.5486  0.7430
  510SOL    HW1 1529   2.804   1.079   1.622 -0.5675 -2.1708 -0.7421
  510SOL    HW2 1530   2.854   1.115   1.462  1.5050 -1.9730  1.6417
  511SOL     OW 1531   1.294   1.772   1.273  0.0096  0.2909  0.8731
  511SOL    HW1 1532   1.323   1.871   1.295 -0.2973  0.1175  0.4440
  511SOL    HW2 1533   1.305   1.711   1.354  0.5873 -3.7468  0.2411
  512SOL     OW 1534   0.230   1.754   0.399  0.0436 -0.2349 -0.3334
  512SOL    HW1 1535   0.154   1.695   0.434 -0.2885 -2.4677 -0.7203
  512SOL    HW2 1536   0.191   1.821   0.332 -0.1648  0.0925 -2.1768
  513SOL     OW 1537   0.281   1.327   3.057  0.5502  0.0170  0.5754
  513SOL    HW1 1538   0.268   1.293   2.958  1.0087  0.9213 -0.5511
  513SOL    HW2 1539   0.242   1.424   3.064 -1.6745 -1.2949  0.7574
  514SOL     OW 1540   2.141   2.369   2.457 -0.0129 -0.0130  0.7883
  514SOL    HW1 1541   2.085   2.288   2.429  1.7613 -0.9765  0.5059
  514SOL    HW2 1542   2.235   2.358   2.427 -0.6216  0.4164  1.5290
  515SOL     OW 1543   2.623   0.892   0.597 -0.7124  0.2062 -0.0883
  515SOL    HW1 1544   2.545   0.879   0.536  1.1869 -1.9742  0.5010
  515SOL    HW2 1545   2.705   0.903   0.538  0.8494  0.3639 -1.0941
  516SOL     OW 1546   2.446   2.643   0.237 -0.4600 -0.3451 -0.2600
  516SOL    HW1 1547   2.420   2.573   0.170 -3.2954  1.9412  2.6607
  516SOL    HW2 1548   2.479   2.588   0.316 -2.9841 -0.8979  0.4005
  517SOL     OW 1549   0.650   1.620   2.996  0.1936  0.4947 -0.5484
  517SOL    HW1 1550   0.678   1.702   2.939  0.8084  0.2960  0.9423
  517SOL    HW2 1551   0.589   1.648   3.073  1.5802 -2.3238 -2.0394
  518SOL     OW 1552   2.925   0.236   1.883  0.0335  0.6534 -0.4211
  518SOL    HW1 1553   2.879   0.148   1.921 -0.6781 -0.7633  1.3473
  518SOL    HW2 1554   2.979   0.276   1.957 -1.4883  0.5422 -0.8934
  519SOL     OW 1555   1.707   1.292   0.165 -0.0544  0.4779  0.2617
  519SOL    HW1 1556   1.637   1.272   0.097 -0.2347  2.2110  1.9546
  519SOL    HW2 1557   1.680   1.367   0.228  0.3393  1.7065 -0.1129
  520SOL     OW 1558   2.651   2.827   2.212  0.3031 -0.5479 -0.1758
  520SOL    HW1 1559   2.751   2.820   2.218 -2.2739 -2.9069  0.4097
  520SOL    HW2 1560   2.613   2.795   2.297 -0.3637  0.6044  2.7249
  521SOL     OW 1561   0.033   2.079   2.027  0.2370  0.2669 -0.5324
  521SOL    HW1 1562   0.066   2.160   1.973  2.4639  3.0197 -1.2191
  521SOL    HW2 1563   0.109   2.039   2.083  1.0161 -0.7199  2.0110
  522SOL     OW 1564   1.231   2.974   1.780  0.4145  0.6509  0.1097
  522SOL    HW1 1565   1.237   2.878   1.817 -2.0519 -0.9500 -1.7064
  522SOL    HW2 1566   1.252   2.979   1.680  0.8906  2.2152  0.8447
  523SOL     OW 1567   2.031   2.299   1.167 -0.1523 -0.2501 -0.5192
  523SOL    HW1 1568   1.949   2.291   1.226  1.3489 -3.0362  2.0857
  523SOL    HW2 1569   2.116   2.292   1.225  1.9482  1.5621  2.7166
  524SOL     OW 1570   1.013   2.167   0.899 -0.0739  0.1547  0.9014
  524SOL    HW1 1571   1.093   2.150   0.962 -0.2514  0.8743  2.7601
  524SOL    HW2 1572   0.981   2.265   0.910  0.7835  2.1791  0.6991
  525SOL     OW 1573   2.921   0.691   0.745  0.0131 -0.4039  0.1617
  525SOL    HW1 1574   2.828   0.727   0.758 -0.0930 -1.6400 -0.2459
  525SOL    HW2 1575   2.993   0.760   0.773  1.8477  0.9308  0.2191
  526SOL     OW 1576   1.262   0.315   0.191  0.2308 -0.0674  0.2262
  526SOL    HW1 1577   1.204   0.384   0.246  0.3614  2.7259  2.2554
  526SOL    HW2 1578   1.347   0.360   0.162 -2.3435  0.1670  1.2707
  527SOL     OW 1579   1.985   1.363   1.212 -0.1576  0.6221  0.2162
  527SOL    HW1 1580   1.908   1.382   1.145 -2.1292 -1.1715 -2.2988
  527SOL    HW2 1581   2.012   1.266   1.208 -1.3600  0.2054  3.6629
  528SOL     OW 1582   2.749   2.597   2.484  0.5204  0.1973  0.2271
  528SOL    HW1 1583   2.841   2.617   2.531  2.5908  0.6844 -2.8719
  528SOL    HW2 1584   2.761   2.561   2.389 -1.3251  0.8778  0.0853
  529SOL     OW 1585   0.891   1.123   2.296  0.2227  0.0921  0.0789
  529SOL    HW1 1586   0.923   1.111   2.393  1.4198 -0.1813 -0.5351
  529SOL    HW2 1587   0.788   1.147   2.303 -1.8642  1.5086  0.8273
  530SOL     OW 1588   1.734   1.025   2.589  0.4216  0.1527  0.1868
  530SOL    HW1 1589   1.794   0.975   2.524  1.7543 -2.7574 -0.3353
  530SOL    HW2 1590   1.761   0.999   2.684  0.3848  0.8179  1.9063
  531SOL     OW 1591   0.102   0.834   0.115  0.0142  0.1445  0.5993
  531SOL    HW1 1592   0.009   0.853   0.088  1.9863 -1.2826  2.9973
  531SOL    HW2 1593   0.141   0.920   0.158 -4.5365 -1.0867 -0.3944
  532SOL     OW 1594   1.799   1.382   1.018  0.3250 -0.9026  0.1394
  532SOL    HW1 1595   1.717   1.329   1.054 -1.9898 -3.5006  1.5748
  532SOL    HW2 1596   1.768   1.474   0.986 -1.0288  0.8606 -1.9149
  533SOL     OW 1597   0.313   0.676   2.430  0.5287 -0.3199  0.5175
  533SOL    HW1 1598   0.284   0.761   2.473  1.5121 -0.7617 -1.7368
  533SOL    HW2 1599   0.376   0.621   2.488 -2.9574 -1.3849 -1.6247
  534SOL     OW 1600   0.862   0.172   2.582  0.5405  0.6231 -0.3139
  534SOL    HW1 1601   0.917   0.199   2.661 -0.6197 -1.7695 -2.7835
  534SOL    HW2 1602   0.780   0.116   2.599  1.6607  0.4583  0.2432
  535SOL     OW 1603   0.537   0.406   3.052  0.0650 -0.2487  0.0175
  535SOL    HW1 1604   0.506   0.499   3.023 -1.2288 -0.0401 -0.4932
  535SOL    HW2 1605   0.625   0.383   3.002  1.5800 -2.0591  1.2857
  536SOL     OW 1606   0.544   0.803   2.305 -0.0163 -0.2958 -0.4696
  536SOL    HW1 1607   0.555   0.811   2.200  1.7777  0.3212 -1.8274
  536SOL    HW2 1608   0.475   0.730   2.336 -1.3653 -0.4804 -0.4364
  537SOL     OW 1609   1.518   2.917   1.441  0.0335 -0.1431 -0.0029
  537SOL    HW1 1610   1.528   2.974   1.362  2.2935  0.4868  1.5585
  537SOL    HW2 1611   1.423   2.905   1.475  0.3244  2.0189 -0.5056
  538SOL     OW 1612   0.706   1.994   0.076 -0.0554 -0.2508  0.0762
  538SOL    HW1 1613   0.685   2.092   0.052  0.8470  0.4559  0.0395
  538SOL    HW2 1614   0.642   1.974   0.153 -1.7925  1.1535 -1.4463
  539SOL     OW 1615   2.581   1.237   1.886 -0.2864  0.1004 -0.0581
  539SOL    HW1 1616   2.503   1.296   1.864 -2.2952  0.2235  1.3086
  539SOL    HW2 1617   2.595   1.215   1.985  1.7964 -0.1121 -0.7314
  540SOL     OW 1618   1.883   1.827   1.547  0.2606  0.3047  0.4429
  540SOL    HW1 1619   1.806   1.820   1.612  1.3177  1.5155 -1.9666
  540SOL    HW2 1620   1.959   1.882   1.583 -0.5771  0.5560  0.7539
  541SOL     OW 1621   0.606   1.746   1.697  0.3889  0.7999  0.2253
  541SOL    HW1 1622   0.665   1.712   1.773 -2.9398  1.9176 -0.0109
  541SOL    HW2 1623   0.593   1.672   1.631 -0.4894  0.6770 -1.5098
  542SOL     OW 1624   1.715   1.029   2.150 -0.3366 -0.4613 -0.0859
  542SOL    HW1 1625   1.623   1.006   2.113  0.1441  0.5180 -0.0828
  542SOL    HW2 1626   1.780   0.951   2.139  1.2878 -2.8209  1.1143
  543SOL     OW 1627   1.002   0.519   0.721 -0.1421  0.0033 -0.1532
  543SOL    HW1 1628   0.946   0.602   0.695 -1.3180  0.4574  0.0997
  543SOL    HW2 1629   0.955   0.439   0.677 -0.4304 -0.6090 -2.7532
  544SOL     OW 1630   2.074   1.879   2.452 -0.3468 -0.2166 -0.4047
  544SOL    HW1 1631   2.102   1.838   2.359 -0.9160 -1.2742  0.4896
  544SOL    HW2 1632   2.154   1.865   2.522  2.6830 -2.1054  1.0482
  545SOL     OW 1633   1.612   1.632   1.453 -0.6474  0.6553  0.1501
  545SOL    HW1 1634   1.613   1.655   1.352 -0.6341  3.1476  0.8755
  545SOL    HW2 1635   1.660   1.542   1.473 -0.3360  0.8011  0.4139
  546SOL     OW 1636   0.244   0.384   3.002  0.1396  0.4409 -0.4356
  546SOL    HW1 1637   0.240   0.406   2.900  1.4763 -2.0700 -1.2908
  546SOL    HW2 1638   0.343   0.385   3.028  1.2593 -2.1279  0.3465
  547SOL     OW 1639   2.072   0.867   0.093  0.1435  0.0123 -0.3173
  547SOL    HW1 1640   1.993   0.903   0.153 -1.3137  1.0522  1.0014
  547SOL    HW2 1641   2.073   0.766   0.089  1.7700 -1.2930 -0.8457
  548SOL     OW 1642   2.368   2.004   2.246  0.9918 -0.6838  0.1631
  548SOL    HW1 1643   2.328   2.005   2.152 -1.5703  0.2456 -3.3871
  548SOL    HW2 1644   2.445   1.940   2.263 -1.9301 -1.1854  1.2188
  549SOL     OW 1645   2.160   0.210   0.854  0.5802 -0.3486 -0.6072
  549SOL    HW1 1646   2.146   0.141   0.929 -3.3701 -1.2463  2.2768
  549SOL    HW2 1647   2.255   0.216   0.815 -0.6968  0.3317 -0.2031
  550SOL     OW 1648   2.296   1.871   0.407  0.0585  0.2932 -0.0173
  550SOL    HW1 1649   2.209   1.870   0.363  4.7017 -1.7513  0.1639
  550SOL    HW2 1650   2.358   1.811   0.355 -0.9902  1.4221  2.5417
  551SOL     OW 1651   1.247   0.268   1.996  0.0102 -0.4072  0.1550
  551SOL    HW1 1652   1.331   0.307   2.041 -0.1523 -0.5175  0.0243
  551SOL    HW2 1653   1.185   0.228   2.070  2.2854 -0.2867  1.7843
  552SOL     OW 1654   2.982   2.393   2.354 -0.2756  0.5088 -0.3928
  552SOL    HW1 1655   2.989   2.367   2.255 -0.6912 -0.0885 -1.1361
  552SOL    HW2 1656   3.028   2.477   2.381 -0.5129 -1.4035 -0.8049
  553SOL     OW 1657   0.712   0.077   0.089  0.4685  0.1910  0.4003
  553SOL    HW1 1658   0.801   0.101   0.132 -0.5908 -1.0727 -0.4134
  553SOL    HW2 1659   0.641   0.075   0.163 -1.3510 -2.8617 -2.0066
  554SOL     OW 1660   1.878   2.452   1.745 -0.2959 -0.0031  0.0172
  554SOL    HW1 1661   1.882   2.473   1.646  2.6346 -2.8400  0.4995
  554SOL    HW2 1662   1.941   2.508   1.805  0.9936 -1.0085  0.5654
  555SOL     OW 1663   1.390   2.268   1.813 -0.3563 -0.3758  0.2338
  555SOL    HW1 1664   1.487   2.254   1.782  0.7592 -1.8967  0.0307
  555SOL    HW2 1665   1.368   2.225   1.902  0.3903  1.3391  0.1150
  556SOL     OW 1666   1.595   1.810   0.656  0.3142 -0.2189 -0.0487
  556SOL    HW1 1667   1.568   1.713   0.639  0.0913 -2.6961 -1.6056
  556SOL    HW2 1668   1.525   1.878   0.629 -2.1053 -0.3118  1.7158
  557SOL     OW 1669   1.613   2.232   2.027  0.3642  0.0247 -0.2454
  557SOL    HW1 1670   1.616   2.138   1.989 -0.2248  0.6804 -0.7599
  557SOL    HW2 1671   1.577   2.219   2.118 -0.3724 -1.1326 -2.6779
  558SOL     OW 1672   0.161   0.316   1.766 -0.1706 -0.1444  0.1275
  558SOL    HW1 1673   0.116   0.350   1.853  0.2068 -1.7249 -2.3282
  558SOL    HW2 1674   0.105   0.238   1.734  1.1641  2.1209  2.6866
  559SOL     OW 1675   2.467   2.921   1.404  0.4847 -0.2104  0.2720
  559SOL    HW1 1676   2.453   2.875   1.314  1.1712  1.4466 -0.1565
  559SOL    HW2 1677   2.552   2.977   1.407 -0.0340  0.4638 -2.8585
  560SOL     OW 1678   0.873   2.397   0.197 -0.1159  0.3569 -0.2530
  560SOL    HW1 1679   0.846   2.300   0.183  0.5262 -1.5261  2.3778
  560SOL    HW2 1680   0.807   2.447   0.250 -0.5387 -0.9301 -1.9682
  561SOL     OW 1681   1.012   0.763   0.309  0.2195  0.5998  0.3349
  561SOL    HW1 1682   0.921   0.762   0.262  2.2846  1.3491  1.4810
  561SOL    HW2 1683   1.036   0.848   0.355  0.2821 -3.1919 -0.1684
  562SOL     OW 1684   0.860   0.732   2.590  0.1045 -0.4105 -0.2020
  562SOL    HW1 1685   0.921   0.701   2.514  0.6131 -0.3042  1.4620
  562SOL    HW2 1686   0.878   0.679   2.676 -3.1240 -0.4879 -1.2781
  563SOL     OW 1687   1.774   2.263   2.468  0.5189 -0.1032  0.2845
  563SOL    HW1 1688   1.841   2.190   2.437 -2.3974 -0.7609  1.0272
  563SOL    HW2 1689   1.824   2.344   2.492  1.0240  1.1993 -2.6012
  564SOL     OW 1690   0.199   1.064   0.249 -0.2722 -0.1053  0.1442
  564SOL    HW1 1691   0.278   1.112   0.208  0.5118  1.3936  0.8998
  564SOL    HW2 1692   0.133   1.137   0.275  1.7914  1.1567  0.3253
  565SOL     OW 1693   1.222   3.039   2.713 -0.2171 -0.0681  0.0434
  565SOL    HW1 1694   1.182   3.090   2.630 -1.4967  0.8040 -0.3173
  565SOL    HW2 1695   1.306   3.081   2.743 -0.8887 -1.7028  2.2924
  566SOL     OW 1696   1.798   3.031   2.494 -0.5007 -0.0764 -0.2456
  566SOL    HW1 1697   1.838   2.937   2.520 -0.1419 -0.7724 -0.3578
  566SOL    HW2 1698   1.730   3.018   2.422  1.1083 -1.0708  1.1030
  567SOL     OW 1699   2.498   1.242   0.906  0.0832 -0.6142 -0.5423
  567SOL    HW1 1700   2.520   1.271   1.002  1.6708  0.8771 -1.1996
  567SOL    HW2 1701   2.397   1.231   0.881 -2.0875  0.1958 -3.3212
  568SOL     OW 1702   2.009   1.873   0.255 -0.0244  0.6759 -0.0891
  568SOL    HW1 1703   1.940   1.876   0.179 -3.4785 -1.0959 -2.8953
  568SOL    HW2 1704   2.008   1.785   0.306  2.9607 -0.3821 -2.8014
  569SOL     OW 1705   2.326   1.698   2.872  0.3475  0.1655  0.6038
  569SOL    HW1 1706   2.416   1.716   2.825 -1.4791  1.1917 -2.3121
  569SOL    HW2 1707   2.277   1.612   2.826 -2.3264 -5.0197 -1.7272
  570SOL     OW 1708   3.010   2.578   1.559 -0.2718  0.1924 -0.3301
  570SOL    HW1 1709   3.011   2.565   1.657 -1.7758 -0.2572 -2.2973
  570SOL    HW2 1710   3.035   2.491   1.516  2.6301  1.1028  0.4262
  571SOL     OW 1711   0.036   0.399   2.317  0.4004 -0.5690  0.2662
  571SOL    HW1 1712   0.111   0.342   2.284 -0.9099  0.6022  0.8764
  571SOL    HW2 1713   0.016   0.479   2.255 -2.6191  0.2959 -0.2087
  572SOL     OW 1714   1.213   1.433   1.074  0.3930  0.1619  0.4337
  572SOL    HW1 1715   1.231   1.527   1.046 -2.1208 -1.1672  0.4628
  572SOL    HW2 1716   1.215   1.422   1.171 -1.1591  1.8220 -4.2956
  573SOL     OW 1717   0.965   0.206   2.861  0.0871  0.5503  0.2929
  573SOL    HW1 1718   0.964   0.103   2.879  1.4075  1.5662 -2.4447
  573SOL    HW2 1719   1.046   0.255   2.900 -0.8165 -0.1522 -1.8399
  574SOL     OW 1720   0.648   0.208   0.680 -0.3917  0.1793  0.3117
  574SOL    HW1 1721   0.595   0.208   0.592 -0.9496  0.5666 -0.8624
  574SOL    HW2 1722   0.586   0.186   0.759  0.4924 -0.8352 -3.6217
  575SOL     OW 1723   0.099   1.301   1.435 -0.5985  0.4028 -0.0923
  575SOL    HW1 1724   0.048   1.354   1.361 -4.8137  0.6875  0.5566
  575SOL    HW2 1725   0.206   1.301   1.425  3.2258 -1.8880  0.6640
  576SOL     OW 1726   2.432   0.374   1.931 -0.1662 -0.5877 -0.0543
  576SOL    HW1 1727   2.469   0.453   1.981 -1.2683 -0.5813  0.6497
  576SOL    HW2 1728   2.397   0.307   2.002  0.7374  0.5070  1.8084
  577SOL     OW 1729   2.891   1.457   2.100 -0.3664 -0.6869 -0.0204
  577SOL    HW1 1730   2.924   1.387   2.164  0.5834 -0.7524  4.9663
  577SOL    HW2 1731   2.954   1.461   2.018 -1.2380  1.1055  2.4769
  578SOL     OW 1732   1.523   2.810   2.366 -0.4225 -0.2810  0.0780
  578SOL    HW1 1733   1.518   2.722   2.315 -0.4587  4.4684 -0.1130
  578SOL    HW2 1734   1.492   2.890   2.305  0.9684  1.8222 -2.2813
  579SOL     OW 1735   2.246   2.067   1.993 -0.1105 -0.2884  0.2253
  579SOL    HW1 1736   2.151   2.081   2.018  1.7548 -1.2460 -1.5126
  579SOL    HW2 1737   2.261   2.017   1.903  1.8509 -3.4759 -1.2497
  580SOL     OW 1738   1.750   1.378   1.983  0.1967  0.5124  0.3326
  580SOL    HW1 1739   1.719   1.469   2.010  1.6539 -1.5102 -0.7015
  580SOL    HW2 1740   1.792   1.378   1.890 -0.4422  0.1716  0.9921
  581SOL     OW 1741   1.313   1.050   2.321 -0.5390  0.3434 -0.4002
  581SOL    HW1 1742   1.373   1.097   2.390 -0.5682 -1.0828  1.4035
  581SOL    HW2 1743   1.283   0.959   2.367 -0.7189  0.3261  0.8679
  582SOL     OW 1744   0.017   2.233   1.710  0.0566 -0.8781  0.0586
  582SOL    HW1 1745   0.083   2.155   1.688 -1.7811 -2.1093  1.7599
  582SOL    HW2 1746   3.031   2.205   1.748 -1.3034  0.8607 -1.6395
  583SOL     OW 1747   1.594   1.229   1.107 -0.5601 -0.2173 -0.1153
  583SOL    HW1 1748   1.518   1.212   1.038 -2.2607 -3.2543 -0.2310
  583SOL    HW2 1749   1.607   1.143   1.162 -1.2547 -1.9643 -1.1866
  584SOL     OW 1750   1.132   2.202   0.605 -0.2964 -0.5837 -0.4293
  584SOL    HW1 1751   1.137   2.262   0.523 -0.2040  0.9442  2.3747
  584SOL    HW2 1752   1.045   2.217   0.651  1.1355  0.6037  1.4040
  585SOL     OW 1753   0.062   2.513   3.065  0.2203 -0.1196  0.3401
  585SOL    HW1 1754   0.053   2.426   0.007  0.0781  1.1743  0.2922
  585SOL    HW2 1755   0.038   2.589   0.026 -0.6692 -0.4656 -1.2681
  586SOL     OW 1756   2.760   1.404   0.371 -0.1650 -0.6577  0.4352
  586SOL    HW1 1757   2.793   1.356   0.284  1.8454  1.1471 -1.8071
  586SOL    HW2 1758   2.663   1.420   0.369  1.4452  2.4161 -2.5070
  587SOL     OW 1759   0.944   1.419   2.854 -0.4315 -0.7550  0.0075
  587SOL    HW1 1760   1.043   1.389   2.860 -0.4976  0.6718 -0.7525
  587SOL    HW2 1761   0.891   1.431   2.940 -0.7646  1.1141 -0.4209
  588SOL     OW 1762   0.133   0.308   0.626  0.1584  0.3185  0.0869
  588SOL    HW1 1763   0.214   0.245   0.632 -1.9720 -0.7867 -0.6643
  588SOL    HW2 1764   0.109   0.353   0.716  0.1858  0.7093 -1.4766
  589SOL     OW 1765   1.528   0.316   0.467  0.0533 -0.4297 -0.3975
  589SOL    HW1 1766   1.499   0.404   0.430  1.0374 -1.4089 -0.0319
  589SOL    HW2 1767   1.447   0.281   0.521 -0.9142  1.7939 -2.1782
  590SOL     OW 1768   2.500   2.470   0.431 -0.1742  0.1706 -0.0412
  590SOL    HW1 1769   2.563   2.390   0.401  2.2648 -1.4658 -3.2541
  590SOL    HW2 1770   2.411   2.437   0.472 -3.9137  1.1443 -1.2189
  591SOL     OW 1771   0.141   2.652   1.905 -0.3243 -0.3648 -0.5146
  591SOL    HW1 1772   0.229   2.658   1.960  0.5421 -2.0045 -0.2625
  591SOL    HW2 1773   0.121   2.732   1.846 -1.1289 -0.4027 -2.0403
  592SOL     OW 1774   2.878   2.000   2.048 -0.0256  0.2859 -0.2752
  592SOL    HW1 1775   2.854   1.920   1.987 -3.2984 -0.5247  1.4381
  592SOL    HW2 1776   2.977   2.023   2.037 -0.3255 -0.2749  0.6505
  593SOL     OW 1777   1.481   1.369   1.505 -0.7602 -0.0923  0.4396
  593SOL    HW1 1778   1.583   1.366   1.531  1.8144  1.0206  0.9576
  593SOL    HW2 1779   1.466   1.391   1.408 -1.3602  0.0448  3.1440
  594SOL     OW 1780   0.753   1.199   2.856 -0.1862 -0.0734  0.1026
  594SOL    HW1 1781   0.655   1.233   2.863  1.9461 -1.4674  0.3577
  594SOL    HW2 1782   0.817   1.274   2.829 -0.8545 -1.8457  0.3341
  595SOL     OW 1783   1.442   0.731   0.835  0.5413  0.5411  0.7663
  595SOL    HW1 1784   1.371   0.696   0.897  0.0468 -0.5929  0.1152
  595SOL    HW2 1785   1.406   0.799   0.766 -0.3180  2.7724 -2.7081
  596SOL     OW 1786   0.127   1.035   1.145  0.4368  0.5392  0.1383
  596SOL    HW1 1787   0.098   0.940   1.146 -0.8470 -1.1568 -3.3664
  596SOL    HW2 1788   0.166   1.064   1.233  0.3567 -1.6286  0.6130
  597SOL     OW 1789   0.762   2.216   2.025  0.2061  0.0732 -0.2851
  597SOL    HW1 1790   0.712   2.304   2.000 -2.2959  0.5936 -0.2756
  597SOL    HW2 1791   0.745   2.138   1.958 -1.0722  3.0070  1.8457
  598SOL     OW 1792   1.965   2.444   2.271 -0.2261  0.0901  0.1438
  598SOL    HW1 1793   1.874   2.450   2.312  2.4131 -1.0061  1.5818
  598SOL    HW2 1794   2.035   2.437   2.347  1.8736  1.7836 -1.9071
  599SOL     OW 1795   0.925   1.060   0.381 -0.0033 -0.1531 -0.1677
  599SOL    HW1 1796   1.008   1.110   0.420  0.7546 -1.2962 -0.7738
  599SOL    HW2 1797   0.928   1.081   0.277 -1.2181  0.6644 -1.0807
  600SOL     OW 1798   1.372   0.699   0.043  0.1724  0.0365 -0.2512
  600SOL    HW1 1799   1.279   0.660   0.020  2.2237 -0.6077 -2.0067
  600SOL    HW2 1800   1.422   0.634   0.105  1.3313  0.5394  0.5042
  601SOL     OW 1801   0.911   0.350   1.560 -0.0983 -0.4963 -1.1012
  601SOL    HW1 1802   0.873   0.323   1.650 -1.1729 -0.1754  3.1946
  601SOL    HW2 1803   0.837   0.354   1.492 -1.6023  0.2391  1.8997
  602SOL     OW 1804   0.547   2.197   0.712  0.1230  0.6885 -0.0858
  602SOL    HW1 1805   0.464   2.174   0.664  1.7758 -2.0529  1.0884
  602SOL    HW2 1806   0.523   2.262   0.791  0.6194  1.4901 -0.9973
  603SOL     OW 1807   0.936   2.341   2.299  0.0122 -0.0484 -0.2860
  603SOL    HW1 1808   0.969   2.421   2.251 -1.7475 -1.0755 -2.4366
  603SOL    HW2 1809   0.839   2.345   2.318  1.4321 -1.4521 -0.7978
  604SOL     OW 1810   0.235   2.154   0.351  0.0756  0.2231 -0.3569
  604SOL    HW1 1811   0.284   2.114   0.429  1.2226 -0.1548 -1.5692
  604SOL    HW2 1812   0.219   2.087   0.276 -0.8185 -1.5055 -2.3210
  605SOL     OW 1813   1.889   1.414   1.764 -0.3122  0.5030 -0.5037
  605SOL    HW1 1814   1.915   1.326   1.716 -0.2790 -1.9993 -2.2281
  605SOL    HW2 1815   1.916   1.489   1.707 -3.2953 -0.7851  1.1510
  606SOL     OW 1816   0.990   1.060   2.848 -0.0878  0.0856  0.6401
  606SOL    HW1 1817   0.897   1.104   2.863  1.3488 -0.3005 -0.3825
  606SOL    HW2 1818   1.046   1.070   2.934 -2.1954 -3.6977  1.1285
  607SOL     OW 1819   1.315   0.994   1.124 -0.1809 -0.3181 -0.2815
  607SOL    HW1 1820   1.320   1.016   1.224  1.2360  0.3263 -0.5676
  607SOL    HW2 1821   1.254   1.064   1.073 -1.3592  1.4355  0.0148
  608SOL     OW 1822   2.847   2.249   1.919  0.1827  0.0632 -0.0058
  608SOL    HW1 1823   2.837   2.207   1.825 -1.0598  1.1409  1.0769
  608SOL    HW2 1824   2.849   2.177   1.990  1.6253  1.7371  0.0079
  609SOL     OW 1825   2.258   3.054   0.280  0.3815 -0.0658  0.4199
  609SOL    HW1 1826   2.344   3.058   0.223 -0.8250  5.1514 -3.0475
  609SOL    HW2 1827   2.185   2.992   0.242 -2.8327  0.9298 -1.0765
  610SOL     OW 1828   0.198   2.309   1.312 -0.1959  0.5479  0.0435
  610SOL    HW1 1829   0.213   2.412   1.303 -0.0161  0.6004 -2.9748
  610SOL    HW2 1830   0.222   2.266   1.223 -1.4218  0.5162 -0.5067
  611SOL     OW 1831   1.560   2.200   0.512 -0.4152  0.4172  0.1494
  611SOL    HW1 1832   1.655   2.172   0.525 -2.5014  0.0925  0.0034
  611SOL    HW2 1833   1.519   2.231   0.599  1.4523  0.4780 -0.7304
  612SOL     OW 1834   0.654   0.008   1.783 -0.7319  0.5354 -0.1625
  612SOL    HW1 1835   0.707   0.006   1.694  0.6158 -3.5830 -1.1293
  612SOL    HW2 1836   0.659   0.098   1.824  1.6240 -1.4061 -2.1840
  613SOL     OW 1837   3.071   1.615   0.482  0.2276  0.3076  0.1384
  613SOL    HW1 1838   3.039   1.687   0.544  0.1100 -0.1442 -0.9941
  613SOL    HW2 1839   3.016   1.621   0.393  2.7593 -1.7049  0.1440
  614SOL     OW 1840   1.792   0.602   2.018 -0.0988  0.0873 -0.6778
  614SOL    HW1 1841   1.785   0.697   2.058 -0.1777 -1.4167 -1.5974
  614SOL    HW2 1842   1.874   0.598   1.964 -0.8319  2.2539  1.9020
  615SOL     OW 1843   0.771   1.308   1.183 -0.6374 -0.6332  0.7504
  615SOL    HW1 1844   0.681   1.325   1.219  0.6326  1.3143 -2.2692
  615SOL    HW2 1845   0.786   1.371   1.098 -1.1486 -0.5773 -0.9567
  616SOL     OW 1846   1.605   1.736   0.093  0.2716 -0.7038 -0.3545
  616SOL    HW1 1847   1.532   1.802   0.110  2.4659  0.4147 -0.6568
  616SOL    HW2 1848   1.684   1.791   0.060  1.1758 -0.1590 -2.2736
  617SOL     OW 1849   2.053   2.884   0.171 -0.2991 -0.2056  0.2387
  617SOL    HW1 1850   2.038   2.838   0.081 -2.4301  1.7724  3.0094
  617SOL    HW2 1851   2.078   2.814   0.243  0.1070  0.1147  0.9070
  618SOL     OW 1852   0.613   0.832   2.573  0.0190 -0.3969  0.1390
  618SOL    HW1 1853   0.568   0.819   2.483  1.6318 -1.1349  1.3916
  618SOL    HW2 1854   0.709   0.789   2.577 -1.0419 -0.3234  1.3324
  619SOL     OW 1855   2.855   1.530   1.037  0.2040 -0.2577 -0.2449
  619SOL    HW1 1856   2.924   1.563   0.970 -0.1163  1.7868 -0.2896
  619SOL    HW2 1857   2.771   1.506   0.994  1.9501  0.5956 -0.2232
  620SOL     OW 1858   2.031   2.927   2.797  0.0527  0.0110 -0.6191
  620SOL    HW1 1859   2.094   2.945   2.721  0.5929  0.5492  0.9912
  620SOL    HW2 1860   1.935   2.914   2.770 -1.1323 -2.6924  0.0939
  621SOL     OW 1861   2.580   1.501   3.024 -0.3044 -0.1913 -0.1336
  621SOL    HW1 1862   2.578   1.405   2.986 -2.7388 -0.9156  1.6981
  621SOL    HW2 1863   2.513   1.512   3.102 -0.5268 -0.7546 -1.1847
  622SOL     OW 1864   1.690   3.030   2.210 -0.2491 -0.2427 -0.2855
  622SOL    HW1 1865   1.731   0.005   2.167  1.0185  1.1119 -1.4104
  622SOL    HW2 1866   1.589   3.020   2.191  1.4901 -0.5968 -0.9192
  623SOL     OW 1867   1.248   1.851   0.793  0.6835  0.5564  0.1090
  623SOL    HW1 1868   1.153   1.897   0.779 -5.0739  2.7270  2.2977
  623SOL    HW2 1869   1.315   1.928   0.810  1.5721 -0.3021 -1.1403
  624SOL     OW 1870   0.272   3.099   0.122 -0.1964  0.8843 -0.0206
  624SOL    HW1 1871   0.324   3.056   0.043 -0.7290 -1.5156 -1.2883
  624SOL    HW2 1872   0.240   0.089   0.107  0.1200  2.2848 -0.4311
  625SOL     OW 1873   1.022   1.600   0.620  0.4381  0.1331 -0.1398
  625SOL    HW1 1874   0.958   1.528   0.654 -2.6116  0.8696  2.1641
  625SOL    HW2 1875   0.973   1.633   0.535 -1.3008 -1.1985 -0.1981
  626SOL     OW 1876   0.123   2.774   0.096 -0.5211 -0.4360 -0.1842
  626SOL    HW1 1877   0.123   2.859   0.160 -1.8171  2.3118  1.9767
  626SOL    HW2 1878   0.211   2.726   0.111  0.8914 -3.4984  1.4272
  627SOL     OW 1879   1.291   1.799   2.832 -0.3631  0.0870 -0.5571
  627SOL    HW1 1880   1.228   1.828   2.759  3.1411 -0.4049  1.8217
  627SOL    HW2 1881   1.246   1.811   2.925  0.8038  2.3732  0.8170
  628SOL     OW 1882   0.193   2.984   2.778 -0.1132  0.5973 -0.3602
  628SOL    HW1 1883   0.237   3.008   2.868  0.2119 -1.4274 -2.6369
  628SOL    HW2 1884   0.198   2.882   2.763 -1.3451  1.7420 -3.4144
  629SOL     OW 1885   0.431   2.957   2.330 -0.5600  0.1499 -0.1513
  629SOL    HW1 1886   0.486   2.989   2.252 -0.6999 -2.0225 -0.9137
  629SOL    HW2 1887   0.361   2.885   2.303 -0.0705  1.3316 -1.8157
  630SOL     OW 1888   1.405   1.151   1.850  0.4922  0.3278  0.1722
  630SOL    HW1 1889   1.484   1.127   1.791  1.8723 -0.5967 -0.2176
  630SOL    HW2 1890   1.325   1.108   1.803  0.8591  0.5696 -2.1846
  631SOL     OW 1891   2.294   1.118   0.548  0.5637 -0.2884  0.2152
  631SOL    HW1 1892   2.337   1.207   0.561 -0.7247  0.1518  2.3840
  631SOL    HW2 1893   2.352   1.044   0.513 -1.3777  0.5342 -0.7384
  632SOL     OW 1894   2.535   0.642   2.060  0.0774  0.2973 -0.3300
  632SOL    HW1 1895   2.518   0.715   2.131  0.6755 -1.3549 -1.5275
  632SOL    HW2 1896   2.545   0.550   2.112 -0.0456 -1.2194  2.6528
  633SOL     OW 1897   0.858   1.822   0.246  0.2947 -0.2084 -0.6639
  633SOL    HW1 1898   0.810   1.895   0.189  0.3521 -0.0660  1.4241
  633SOL    HW2 1899   0.907   1.868   0.326  1.0803 -0.9173 -1.9251
  634SOL     OW 1900   1.577   2.715   2.630 -0.2287 -0.2569 -0.7548
  634SOL    HW1 1901   1.569   2.780   2.554  0.9157  1.0162  1.1492
  634SOL    HW2 1902   1.642   2.640   2.608 -0.4445  2.1513 -0.2699
  635SOL     OW 1903   2.000   0.334   0.036  0.8564  0.1116 -0.5296
  635SOL    HW1 1904   2.082   0.271   0.036  0.0566 -0.5702  1.5798
  635SOL    HW2 1905   1.966   0.338   0.131  2.4269  0.2300  2.3461
  636SOL     OW 1906   0.862   1.392   0.691  0.3161 -0.6330  0.0320
  636SOL    HW1 1907   0.769   1.373   0.658 -0.5687  0.0805 -0.1807
  636SOL    HW2 1908   0.921   1.314   0.708 -1.5070  3.3228  0.8935
  637SOL     OW 1909   0.053   2.190   0.568 -0.7723 -0.4647  0.6092
  637SOL    HW1 1910   0.048   2.210   0.472  2.1832  0.4766  1.9467
  637SOL    HW2 1911   3.066   2.210   0.611 -1.5903  0.2528  2.6253
  638SOL     OW 1912   0.722   2.682   2.654  0.0131  0.5797  0.5453
  638SOL    HW1 1913   0.769   2.615   2.716  0.9098 -1.2653  2.2110
  638SOL    HW2 1914   0.788   2.743   2.605 -2.6154  1.3938 -0.3623
  639SOL     OW 1915   1.362   1.908   0.139  0.3781 -0.1606 -0.5116
  639SOL    HW1 1916   1.294   1.892   0.067 -2.3419 -2.5916  3.6403
  639SOL    HW2 1917   1.329   1.867   0.224 -0.2033  0.2977 -0.6626
  640SOL     OW 1918   1.896   3.042   0.898 -0.4665 -0.0064  0.4655
  640SOL    HW1 1919   1.936   3.047   0.803 -1.4310 -1.4943  2.5582
  640SOL    HW2 1920   1.948   2.967   0.950  3.0906  0.6775 -0.7946
  641SOL     OW 1921   3.092   2.802   0.465  0.2144  0.6965 -0.0886
  641SOL    HW1 1922   3.106   2.703   0.440  0.3419 -0.5870  0.4645
  641SOL    HW2 1923   0.034   2.863   0.400 -0.6173 -1.0396  2.2521
  642SOL     OW 1924   1.123   3.079   1.348 -0.0964 -0.2117  0.2320
  642SOL    HW1 1925   1.027   0.010   1.355 -0.8331  3.4986  0.8584
  642SOL    HW2 1926   1.187   0.048   1.321  2.0646  4.3274 -1.9502
  643SOL     OW 1927   0.364   1.924   1.963  0.2038  0.3474 -0.1518
  643SOL    HW1 1928   0.429   1.881   1.900 -0.3846  1.0938 -0.5675
  643SOL    HW2 1929   0.372   2.028   1.974  0.1825  1.2105  2.7354
  644SOL     OW 1930   0.734   2.800   0.251  0.0315  0.3113 -0.1018
  644SOL    HW1 1931   0.668   2.855   0.307  0.2179 -3.3413 -1.5540
  644SOL    HW2 1932   0.730   2.831   0.155 -0.2317 -1.2178  0.2194
  645SOL     OW 1933   1.458   2.141   0.058 -0.0942 -0.0361 -0.2428
  645SOL    HW1 1934   1.387   2.188   0.002 -2.5297 -0.7150 -0.8220
  645SOL    HW2 1935   1.423   2.053   0.091  0.0139  0.2195 -0.9362
  646SOL     OW 1936   0.550   1.351   2.958  0.5012  0.4008  0.1525
  646SOL    HW1 1937   0.456   1.359   2.998 -1.5352  2.0916 -1.2227
  646SOL    HW2 1938   0.605   1.422   3.003 -0.5422 -1.5355  0.3390
  647SOL     OW 1939   0.857   0.124   0.848  0.0989  0.3721  0.1794
  647SOL    HW1 1940   0.787   0.165   0.794  0.0759 -2.7903 -1.5988
  647SOL    HW2 1941   0.918   0.197   0.885  1.2884 -0.3492  0.5184
  648SOL     OW 1942   2.033   0.418   1.745  0.2441  0.5645  0.5405
  648SOL    HW1 1943   1.942   0.456   1.718  0.2168 -2.9128 -1.9667
  648SOL    HW2 1944   2.106   0.487   1.720 -0.8096 -2.2262 -1.7224
  649SOL     OW 1945   1.129   1.865   2.601  0.2447 -0.0482  0.5488
  649SOL    HW1 1946   1.055   1.936   2.598  0.7149 -2.0675 -1.4086
  649SOL    HW2 1947   1.094   1.784   2.547  0.6718  0.8198  1.5814
  650SOL     OW 1948   2.655   1.907   1.627  0.1997 -0.3046  0.4757
  650SOL    HW1 1949   2.616   1.897   1.534 -0.6423 -1.9377  1.4202
  650SOL    HW2 1950   2.713   1.827   1.657 -0.5765 -2.9600 -0.9414
  651SOL     OW 1951   1.135   0.143   0.040  0.0893  0.3587  0.2249
  651SOL    HW1 1952   1.181   0.074   3.087 -1.9075  1.8381 -3.9516
  651SOL    HW2 1953   1.193   0.203   0.099 -2.2082  0.8619  1.4046
  652SOL     OW 1954   2.977   1.697   0.008  0.1877  0.0440 -0.3464
  652SOL    HW1 1955   2.904   1.664   3.050 -3.2988 -2.4094  0.9304
  652SOL    HW2 1956   2.998   1.796   3.098 -1.4531 -0.7635 -0.3884
  653SOL     OW 1957   0.034   0.214   0.989 -0.1254  0.0459  0.0570
  653SOL    HW1 1958   3.051   0.201   1.041  1.2862 -0.7129  2.0660
  653SOL    HW2 1959   0.041   0.307   0.948  0.6288  1.2220  2.8657
  654SOL     OW 1960   2.231   0.143   2.600 -0.3096  0.0524 -0.0229
  654SOL    HW1 1961   2.185   0.140   2.509  1.5750  0.2778 -3.5952
  654SOL    HW2 1962   2.271   0.055   2.621  1.4655  2.5413  1.1365
  655SOL     OW 1963   0.470   2.385   0.911 -0.3392 -0.4258  0.2361
  655SOL    HW1 1964   0.430   2.477   0.936 -1.3013  1.0551  0.3748
  655SOL    HW2 1965   0.534   2.351   0.983  0.2752  0.2674 -1.0578
  656SOL     OW 1966   0.206   2.855   2.234 -0.2929  0.0301  0.1087
  656SOL    HW1 1967   0.162   2.942   2.204 -0.9177  0.8433  0.4557
  656SOL    HW2 1968   0.141   2.779   2.222  0.6242  0.0025 -0.1602
  657SOL     OW 1969   2.292   0.548   2.510  0.2851  0.3213 -0.8133
  657SOL    HW1 1970   2.215   0.484   2.475 -0.4489  0.7269 -0.3215
  657SOL    HW2 1971   2.363   0.487   2.553  0.5756  0.1625 -2.0511
  658SOL     OW 1972   2.245   1.889   1.117  0.6254  0.1218 -0.0181
  658SOL    HW1 1973   2.166   1.824   1.100 -2.5331 -1.9865 -2.4913
  658SOL    HW2 1974   2.222   1.946   1.201 -1.9072 -0.5439 -0.2437
  659SOL     OW 1975   2.243   0.207   3.093  0.3635 -0.0296  0.2263
  659SOL    HW1 1976   2.340   0.231   3.103 -0.7830 -2.4805  2.2752
  659SOL    HW2 1977   2.239   0.112   3.051  0.6890  0.6805 -1.9956
  660SOL     OW 1978   1.375   1.508   2.983  0.0417 -0.3216  0.4118
  660SOL    HW1 1979   1.341   1.585   3.040  0.6669  1.7209 -3.9693
  660SOL    HW2 1980   1.441   1.535   2.912  2.1954 -1.0842 -0.5158
  661SOL     OW 1981   2.378   2.550   0.899  0.7921 -0.1696  0.1113
  661SOL    HW1 1982   2.453   2.545   0.835  1.4260  0.9180 -0.3414
  661SOL    HW2 1983   2.402   2.492   0.982  2.8977 -0.4731 -0.7220
  662SOL     OW 1984   0.540   0.764   0.289 -0.3967 -0.3670  0.2454
  662SOL    HW1 1985   0.615   0.741   0.226 -2.9377 -3.0082 -1.9716
  662SOL    HW2 1986   0.572   0.835   0.357  2.9860  2.2049 -1.7744
  663SOL     OW 1987   1.909   2.201   0.236 -0.0768  1.4426 -0.1362
  663SOL    HW1 1988   1.841   2.155   0.169 -1.4836  0.9506 -0.8920
  663SOL    HW2 1989   1.973   2.256   0.191 -2.4645 -1.3829  0.3285
  664SOL     OW 1990   0.783   2.052   1.471 -0.7580 -0.4067 -0.2315
  664SOL    HW1 1991   0.712   2.120   1.446  2.0653 -2.4062 -0.1580
  664SOL    HW2 1992   0.848   2.085   1.545  1.2181 -3.0323 -2.5321
  665SOL     OW 1993   1.881   2.209   1.831 -0.3787  0.4830 -0.1339
  665SOL    HW1 1994   1.885   2.305   1.795 -1.4463  0.7621  1.7657
  665SOL    HW2 1995   1.785   2.184   1.864  0.6480 -0.5394 -0.8147
  666SOL     OW 1996   0.520   2.348   0.321  0.1711  0.4066 -0.3125
  666SOL    HW1 1997   0.578   2.398   0.391  0.1391  2.6266  1.4750
  666SOL    HW2 1998   0.432   2.389   0.318  2.7150 -0.8013  0.9713
  667SOL     OW 1999   2.112   1.407   1.937  0.4669 -0.9188 -0.8231
  667SOL    HW1 2000   2.080   1.365   2.021  0.0036  0.4823 -0.7453
  667SOL    HW2 2001   2.038   1.412   1.871  1.9286 -1.6769  0.5386
  668SOL     OW 2002   0.469   0.591   2.661  0.1276 -0.7983 -1.0110
  668SOL    HW1 2003   0.544   0.655   2.633 -1.0831 -0.2551 -3.2184
  668SOL    HW2 2004   0.478   0.556   2.757 -0.6364 -2.4208 -0.5652
  669SOL     OW 2005   1.655   2.221   2.704  0.3483  0.4532  0.7845
  669SOL    HW1 2006   1.553   2.248   2.704 -0.4496  3.5755 -1.3700
  669SOL    HW2 2007   1.699   2.253   2.617  0.9684 -1.4355  2.0194
  670SOL     OW 2008   2.547   2.257   2.828  0.0812  0.3938  0.6165
  670SOL    HW1 2009   2.483   2.336   2.851 -0.4229  0.6534  0.4282
  670SOL    HW2 2010   2.504   2.180   2.774 -1.6055  0.6901 -0.8362
  671SOL     OW 2011   0.562   0.757   1.161 -0.4154  0.2116  0.1535
  671SOL    HW1 2012   0.475   0.726   1.115  2.3811 -0.8412  3.2799
  671SOL    HW2 2013   0.562   0.763   1.262  0.1602 -2.8526  1.1654
  672SOL     OW 2014   2.457   0.880   2.197 -0.0068 -0.3732 -0.0051
  672SOL    HW1 2015   2.425   0.945   2.121 -0.8499  0.7319 -0.0114
  672SOL    HW2 2016   2.409   0.906   2.285  2.5604  0.2275  0.6119
  673SOL     OW 2017   2.535   2.892   1.972  0.2149  0.3182 -0.4904
  673SOL    HW1 2018   2.568   2.865   2.066  1.5875  0.0991  2.6243
  673SOL    HW2 2019   2.508   2.816   1.905 -1.3761 -0.6752 -0.5523
  674SOL     OW 2020   1.214   2.513   2.194  0.1706 -0.1947 -0.2650
  674SOL    HW1 2021   1.114   2.525   2.171 -3.2018  0.5133 -0.2272
  674SOL    HW2 2022   1.270   2.589   2.149 -1.5666  1.7584 -0.4381
  675SOL     OW 2023   0.688   0.833   1.612  0.2443  0.0075 -0.1900
  675SOL    HW1 2024   0.764   0.773   1.646  1.7312 -0.7119  2.2087
  675SOL    HW2 2025   0.722   0.928   1.592  0.3865 -0.3250 -1.5784
  676SOL     OW 2026   1.960   0.852   0.676  0.8718 -0.1374 -0.1622
  676SOL    HW1 2027   1.858   0.832   0.681 -1.0634  0.6237  0.8238
  676SOL    HW2 2028   1.975   0.936   0.618  1.3436 -0.3162  0.5777
  677SOL     OW 2029   2.865   1.474   2.511  0.0980  0.4297 -0.6307
  677SOL    HW1 2030   2.765   1.451   2.496 -1.1259 -1.3261 -2.3445
  677SOL    HW2 2031   2.874   1.571   2.499  1.0387 -2.5435  1.1488
  678SOL     OW 2032   2.682   2.120   1.017 -0.3982 -0.1318  0.0361
  678SOL    HW1 2033   2.725   2.174   1.096  1.0175  0.5395  1.3275
  678SOL    HW2 2034   2.623   2.044   1.053 -1.1183  0.0148 -1.5606
  679SOL     OW 2035   1.465   2.761   0.727  0.6516  0.6552  0.5449
  679SOL    HW1 2036   1.497   2.671   0.695 -0.8372  0.5252 -1.3780
  679SOL    HW2 2037   1.505   2.829   0.662 -1.7838 -0.7309  1.4423
  680SOL     OW 2038   0.270   2.560   2.363  0.3173  0.0046 -0.1707
  680SOL    HW1 2039   0.359   2.589   2.393  0.7682  1.0211  0.0208
  680SOL    HW2 2040   0.284   2.496   2.287  0.7178 -1.1925  2.0224
  681SOL     OW 2041   2.796   1.341   1.721 -0.6022 -0.1961  0.6934
  681SOL    HW1 2042   2.881   1.374   1.768  2.5786  1.5288 -0.7666
  681SOL    HW2 2043   2.721   1.316   1.786  2.1318  1.0868 -2.2904
  682SOL     OW 2044   0.377   1.856   1.376  0.3592 -0.2592  0.3739
  682SOL    HW1 2045   0.350   1.957   1.374 -0.8560  2.9605 -0.0413
  682SOL    HW2 2046   0.462   1.845   1.324 -2.3020  1.5208 -0.9353
  683SOL     OW 2047   2.203   1.427   1.364 -0.1438 -0.1194  0.2191
  683SOL    HW1 2048   2.260   1.500   1.311  3.0168  2.5349 -7.0610
  683SOL    HW2 2049   2.114   1.400   1.316 -1.1010 -1.3698  0.6110
  684SOL     OW 2050   2.815   1.587   2.943  0.1121  0.1060 -0.0216
  684SOL    HW1 2051   2.811   1.638   2.857 -2.5356  1.1825  1.9242
  684SOL    HW2 2052   2.721   1.561   2.971  2.4985 -2.4166  0.0215
  685SOL     OW 2053   1.520   1.291   3.050 -0.3590 -0.4422 -0.0572
  685SOL    HW1 2054   1.459   1.375   3.040 -1.3926 -0.4291 -2.6810
  685SOL    HW2 2055   1.490   1.211   2.995  0.3569 -1.6717 -1.2830
  686SOL     OW 2056   0.572   0.148   1.433  0.1399 -0.2282  0.3661
  686SOL    HW1 2057   0.652   0.213   1.425 -2.2135 -0.6847 -0.8601
  686SOL    HW2 2058   0.513   0.168   1.517 -1.6568 -0.2539 -1.1412
  687SOL     OW 2059   1.028   1.852   2.236 -0.0264  0.1950 -0.2077
  687SOL    HW1 2060   1.129   1.871   2.240  3.2312 -1.4344 -0.2462
  687SOL    HW2 2061   1.007   1.773   2.299 -1.2136  0.7834 -0.1327
  688SOL     OW 2062   0.335   1.615   1.263  0.5111  0.6192  0.6904
  688SOL    HW1 2063   0.354   1.690   1.328 -1.2004  2.5370 -1.3164
  688SOL    HW2 2064   0.304   1.656   1.174 -0.6337  0.7033  0.6116
  689SOL     OW 2065   1.449   0.894   1.611  0.2648  0.5727 -0.4537
  689SOL    HW1 2066   1.438   0.981   1.563 -0.9077  1.7722 -2.2588
  689SOL    HW2 2067   1.548   0.867   1.629  1.8332  0.5058  0.9987
  690SOL     OW 2068   2.647   0.918   1.033  0.5558  0.5665 -0.7086
  690SOL    HW1 2069   2.662   0.874   0.947  0.6149  2.9908  1.8617
  690SOL    HW2 2070   2.734   0.963   1.065 -0.5969  0.1126 -1.2301
  691SOL     OW 2071   0.378   2.188   2.008  0.0628  0.2007  0.3859
  691SOL    HW1 2072   0.406   2.261   2.082  0.8815  2.7541  2.0129
  691SOL    HW2 2073   0.425   2.211   1.918 -0.1649 -0.4188 -1.0215
  692SOL     OW 2074   1.927   0.146   1.090  0.4754 -0.5961  0.1829
  692SOL    HW1 2075   1.952   0.065   1.032 -2.2898  2.4205  0.4639
  692SOL    HW2 2076   1.972   0.233   1.063 -0.6482  2.1980  1.3796
  693SOL     OW 2077   0.267   1.421   2.438 -0.4126  0.9204  0.8235
  693SOL    HW1 2078   0.289   1.518   2.464 -1.2078  0.8400 -0.9795
  693SOL    HW2 2079   0.166   1.416   2.442  0.4847 -0.8450  0.7361
  694SOL     OW 2080   2.327   0.569   1.312 -0.2731  0.1519  0.0251
  694SOL    HW1 2081   2.392   0.521   1.377  0.9587  0.1733  0.0610
  694SOL    HW2 2082   2.350   0.671   1.318 -2.8564  2.4543 -1.8872
  695SOL     OW 2083   1.015   1.473   1.783  0.3036 -0.0128 -0.3695
  695SOL    HW1 2084   1.044   1.542   1.855  1.0267  0.6930  2.7719
  695SOL    HW2 2085   1.025   1.379   1.813  0.3898  3.1887 -0.9448
  696SOL     OW 2086   1.029   2.922   3.091 -0.2742 -0.1574 -0.1380
  696SOL    HW1 2087   1.029   2.845   0.053 -2.8208  1.5596 -1.7086
  696SOL    HW2 2088   1.126   2.956   3.085 -0.2870 -1.1788 -1.0125
  697SOL     OW 2089   1.023   0.355   0.945  0.1565  0.3241  0.2475
  697SOL    HW1 2090   1.021   0.432   0.880  0.3466 -1.6258  0.4489
  697SOL    HW2 2091   1.102   0.360   1.005  1.4594 -0.7929  1.7972
  698SOL     OW 2092   1.304   1.387   2.244 -0.4186  0.2212 -0.7760
  698SOL    HW1 2093   1.263   1.430   2.328 -1.3186  0.5526  1.0300
  698SOL    HW2 2094   1.248   1.305   2.212 -2.0903  0.3645 -0.8865
  699SOL     OW 2095   1.533   0.844   1.103  0.0312  0.3991 -0.4910
  699SOL    HW1 2096   1.446   0.903   1.108 -0.7965 -1.0035  0.4493
  699SOL    HW2 2097   1.545   0.810   1.011 -0.6649  0.3202  1.6545
  700SOL     OW 2098   0.930   2.806   0.424  0.2467 -0.3586  0.3265
  700SOL    HW1 2099   0.851   2.808   0.359  2.9788  1.1966 -0.0491
  700SOL    HW2 2100   0.980   2.895   0.430 -0.0055 -0.5848  0.3522
  701SOL     OW 2101   2.515   2.956   2.662 -0.4159 -0.0885 -0.2586
  701SOL    HW1 2102   2.512   2.856   2.644  2.5331 -1.3765 -2.4591
  701SOL    HW2 2103   2.583   3.007   2.606 -0.4412 -1.6124  0.3454
  702SOL     OW 2104   1.143   0.395   3.024 -0.1185 -0.3974 -0.3428
  702SOL    HW1 2105   1.112   0.313   3.077  0.4740 -2.1887 -0.4278
  702SOL    HW2 2106   1.123   0.485   3.071  3.1058  1.9685 -1.2902
  703SOL     OW 2107   2.574   3.066   2.343 -0.1694 -0.1822  0.2223
  703SOL    HW1 2108   2.480   3.092   2.325  2.4389  0.4784 -2.5920
  703SOL    HW2 2109   2.606   2.996   2.276  1.2627  0.0809 -2.8723
  704SOL     OW 2110   2.941   1.816   0.716 -0.3999  0.4214 -0.0728
  704SOL    HW1 2111   2.842   1.808   0.699 -1.6015 -1.4651 -1.3136
  704SOL    HW2 2112   2.959   1.901   0.765 -0.8788 -3.4361 -1.7980
  705SOL     OW 2113   2.986   3.092   2.220  0.4482 -0.2126 -0.2192
  705SOL    HW1 2114   3.081   3.092   2.186 -0.8066 -1.4381  1.7916
  705SOL    HW2 2115   2.962   2.991   2.213 -1.3125  0.7126 -0.0969
  706SOL     OW 2116   1.793   2.809   0.599 -0.3806 -0.0525  0.1078
  706SOL    HW1 2117   1.856   2.795   0.677 -1.1652  0.3378 -2.2136
  706SOL    HW2 2118   1.790   2.722   0.544  3.5412 -2.1028  1.5902
  707SOL     OW 2119   0.903   1.867   1.970 -0.3159 -0.6261 -0.0644
  707SOL    HW1 2120   0.937   1.870   2.065  0.2787 -1.6277  1.3722
  707SOL    HW2 2121   0.878   1.773   1.948 -2.0304  1.8757  2.1871
  708SOL     OW 2122   3.068   2.314   1.453 -0.3058 -0.1549  0.3473
  708SOL    HW1 2123   0.043   2.309   1.387 -0.5671  0.9415 -0.8541
  708SOL    HW2 2124   3.105   2.298   1.546 -2.4841 -1.2510 -1.8272
  709SOL     OW 2125   2.207   0.015   1.882  0.0244 -0.0887  0.4806
  709SOL    HW1 2126   2.182   3.069   1.797  1.7891  1.3452 -0.2327
  709SOL    HW2 2127   2.309   0.022   1.888  0.2045 -1.4391  0.2989
  710SOL     OW 2128   1.984   0.941   2.433 -0.8627  0.3491 -0.1804
  710SOL    HW1 2129   2.011   1.037   2.450 -0.9421  0.2509 -1.0837
  710SOL    HW2 2130   2.060   0.875   2.456 -1.4886 -2.1236  3.5592
  711SOL     OW 2131   1.041   2.177   0.011  0.0631 -0.0777  0.2227
  711SOL    HW1 2132   1.027   2.122   0.093  0.2678  0.3285 -1.1238
  711SOL    HW2 2133   1.134   2.205   3.101 -3.0488 -1.1164  2.0897
  712SOL     OW 2134   0.666   2.429   2.376  0.6246  0.0113  0.1287
  712SOL    HW1 2135   0.586   2.372   2.407 -1.8440 -1.3615 -0.0033
  712SOL    HW2 2136   0.637   2.522   2.341  0.9823  1.1571  1.5687
  713SOL     OW 2137   1.830   1.388   3.000 -0.6570 -0.1116 -0.1815
  713SOL    HW1 2138   1.739   1.430   2.988  0.2056 -0.7255  0.8646
  713SOL    HW2 2139   1.861   1.405   3.097  1.3888  0.0837 -1.1345
  714SOL     OW 2140   0.851   1.444   1.574  0.5842  0.1980  0.3501
  714SOL    HW1 2141   0.921   1.479   1.639 -0.3504 -0.6894  0.4012
  714SOL    HW2 2142   0.792   1.513   1.520  0.5407 -2.1120  0.3723
  715SOL     OW 2143   1.619   0.337   3.031 -0.4433 -0.2475 -0.2766
  715SOL    HW1 2144   1.708   0.376   2.989 -0.5359  1.1204  0.1541
  715SOL    HW2 2145   1.632   0.310   0.024  1.8615 -1.4967  2.0932
  716SOL     OW 2146   2.938   2.822   2.160  0.0753 -0.5261 -0.2219
  716SOL    HW1 2147   2.939   2.825   2.059  0.5326  0.4650 -1.0543
  716SOL    HW2 2148   2.999   2.747   2.197  0.1390 -0.7651  1.1724
  717SOL     OW 2149   0.088   0.653   1.073  0.3767  0.1926 -0.0047
  717SOL    HW1 2150   0.075   0.736   1.019  1.8140  0.1488 -1.2385
  717SOL    HW2 2151   0.003   0.599   1.085  1.2002 -1.0685 -0.6013
  718SOL     OW 2152   0.517   1.301   2.506  0.0128  0.7293  0.4118
  718SOL    HW1 2153   0.583   1.363   2.556  2.8831 -0.7872  1.2709
  718SOL    HW2 2154   0.428   1.350   2.498 -0.4305 -3.0344 -1.9014
  719SOL     OW 2155   2.393   1.367   0.134  0.0522  0.6036  0.3044
  719SOL    HW1 2156   2.292   1.352   0.125 -0.3205 -0.0309  0.2327
  719SOL    HW2 2157   2.442   1.317   0.062 -2.5646  3.3773  0.5658
  720SOL     OW 2158   1.174   0.817   0.946 -0.0587 -0.1797  0.1985
  720SOL    HW1 2159   1.089   0.767   0.950  0.8460  2.2859 -0.3960
  720SOL    HW2 2160   1.202   0.870   1.027 -0.1525  0.4322 -2.5361
  721SOL     OW 2161   2.598   0.269   0.381 -0.5071 -0.0245  0.0436
  721SOL    HW1 2162   2.617   0.295   0.286  0.7681 -0.7340  1.2561
  721SOL    HW2 2163   2.591   0.171   0.383 -0.6334  3.0470 -0.5562
  722SOL     OW 2164   2.030   0.712   2.863 -1.0484  0.8259 -0.0094
  722SOL    HW1 2165   2.091   0.693   2.938 -0.4074  3.5351  1.9916
  722SOL    HW2 2166   2.032   0.641   2.793 -1.4739  1.2744  3.7799
  723SOL     OW 2167   2.711   0.518   0.531  0.2375 -0.4957 -0.6485
  723SOL    HW1 2168   2.694   0.427   0.493 -2.9282 -0.1026  1.3623
  723SOL    HW2 2169   2.680   0.524   0.629 -0.6475 -2.8298  1.2386
  724SOL     OW 2170   0.847   1.564   2.157 -0.2025 -0.0556  0.2214
  724SOL    HW1 2171   0.849   1.512   2.242 -0.5647  1.1170  0.3760
  724SOL    HW2 2172   0.805   1.509   2.080  0.4489 -1.4646 -0.3895
  725SOL     OW 2173   1.813   0.543   1.592  0.1550  0.2245  0.3235
  725SOL    HW1 2174   1.796   0.633   1.546  2.2725  1.8986 -1.6781
  725SOL    HW2 2175   1.846   0.474   1.521  2.0204 -0.2261  1.3642
  726SOL     OW 2176   1.571   2.946   0.539  0.2208 -0.3045  0.3566
  726SOL    HW1 2177   1.660   2.894   0.548  3.2423 -1.2671  0.9500
  726SOL    HW2 2178   1.543   2.969   0.446 -0.7635 -0.8485  0.7990
  727SOL     OW 2179   1.678   1.789   2.348 -0.0137  0.2085  0.6124
  727SOL    HW1 2180   1.719   1.787   2.443  1.3109 -0.3152 -0.8478
  727SOL    HW2 2181   1.580   1.768   2.336  0.6250  0.0869  1.4511
  728SOL     OW 2182   2.102   3.023   1.651  0.1809  0.0860  0.2617
  728SOL    HW1 2183   2.073   0.015   1.623 -0.3173  0.3403  0.3624
  728SOL    HW2 2184   2.022   2.967   1.673  0.0946 -0.9993  0.1954
  729SOL     OW 2185   2.224   1.143   0.838 -0.4189 -0.0378 -0.4487
  729SOL    HW1 2186   2.138   1.193   0.856 -1.5737  0.4259  2.4086
  729SOL    HW2 2187   2.245   1.138   0.742 -1.6384 -1.7292  0.4781
  730SOL     OW 2188   0.475   1.072   2.661  0.4453  0.0671 -0.0563
  730SOL    HW1 2189   0.531   0.988   2.637  1.5121  2.5557 -1.7776
  730SOL    HW2 2190   0.513   1.154   2.612 -0.3207  0.6038  0.2970
  731SOL     OW 2191   0.024   0.082   0.764  0.2277  0.1977  0.1442
  731SOL    HW1 2192   0.094   0.123   0.701  1.0209  1.3166  1.0483
  731SOL    HW2 2193   0.039   0.131   0.854 -1.1650 -0.3847 -0.7099
  732SOL     OW 2194   1.294   0.942   0.178  0.3192 -0.2998 -0.1070
  732SOL    HW1 2195   1.196   0.930   0.202 -1.6925 -0.3315 -0.2458
  732SOL    HW2 2196   1.324   0.857   0.133 -0.0256 -0.3598 -0.9178
  733SOL     OW 2197   0.633   1.652   0.997 -0.2005  0.0099  0.3851
  733SOL    HW1 2198   0.669   1.559   0.984  3.0949 -2.6152 -0.8763
  733SOL    HW2 2199   0.562   1.674   0.932  2.1667 -3.7499  1.7848
  734SOL     OW 2200   3.090   2.507   0.345  1.0146 -0.1005  0.4755
  734SOL    HW1 2201   3.042   2.570   0.279  0.9646  0.9745 -2.0386
  734SOL    HW2 2202   3.048   2.492   0.435  0.3326 -0.7675 -0.5088
  735SOL     OW 2203   1.347   0.548   1.049  0.3191  0.0504 -0.2692
  735SOL    HW1 2204   1.300   0.464   1.030  3.8708  2.2862 -0.4894
  735SOL    HW2 2205   1.434   0.521   1.104  4.3500  0.9151 -0.0706
  736SOL     OW 2206   2.398   2.421   0.098  0.1618 -0.2161  0.1092
  736SOL    HW1 2207   2.301   2.396   0.087  1.6593  3.0273  1.9450
  736SOL    HW2 2208   2.453   2.340   0.122 -0.9167 -2.6007  1.0448
  737SOL     OW 2209   0.028   0.830   0.860  0.3736 -0.3668  0.4937
  737SOL    HW1 2210   0.071   0.924   0.855  1.1102  0.8634 -0.9051
  737SOL    HW2 2211   0.051   0.774   0.778  0.2792  1.5916 -0.9910
  738SOL     OW 2212   2.911   0.126   1.124 -0.1492  0.1258  0.4669
  738SOL    HW1 2213   2.956   0.176   1.197 -2.3620  0.7301  2.4493
  738SOL    HW2 2214   2.874   0.041   1.167 -0.2204  2.0508 -0.7597
  739SOL     OW 2215   1.369   2.478   0.104  0.1994 -0.2649  0.5443
  739SOL    HW1 2216   1.423   2.415   0.164  0.8049 -1.3020 -1.5198
  739SOL    HW2 2217   1.315   2.551   0.156 -1.9886  3.1704  1.8093
  740SOL     OW 2218   1.627   0.405   1.168 -0.4513  0.2602 -0.6485
  740SOL    HW1 2219   1.594   0.324   1.224 -0.4894 -0.3364 -1.4914
  740SOL    HW2 2220   1.640   0.383   1.071 -1.3328 -0.0654 -0.1879
  741SOL     OW 2221   2.926   1.185   0.763 -0.3363 -0.3230  0.1903
  741SOL    HW1 2222   2.968   1.200   0.851 -0.1545 -1.0896 -1.6808
  741SOL    HW2 2223   2.826   1.155   0.764  1.0280 -1.4160  0.6876
  742SOL     OW 2224   0.681   1.526   2.562  0.5667 -0.2869 -0.0460
  742SOL    HW1 2225   0.760   1.569   2.610 -0.5783 -0.9209  0.0855
  742SOL    HW2 2226   0.610   1.599   2.545  0.9722 -0.5357 -0.2992
  743SOL     OW 2227   1.329   0.598   2.042  0.7074 -0.6744  0.0871
  743SOL    HW1 2228   1.293   0.664   1.975 -0.4521 -1.7337  1.6628
  743SOL    HW2 2229   1.404   0.542   2.008 -0.4578 -1.6564  1.3457
  744SOL     OW 2230   2.208   0.887   1.545  0.3421 -0.1944  0.0942
  744SOL    HW1 2231   2.260   0.834   1.475  1.6811 -2.3920  4.4026
  744SOL    HW2 2232   2.242   0.986   1.548 -0.2528 -2.3094  1.5538
  745SOL     OW 2233   1.407   1.412   1.780  0.1839  0.1287 -1.1469
  745SOL    HW1 2234   1.408   1.394   1.681  1.2398 -0.4739 -0.2030
  745SOL    HW2 2235   1.420   1.322   1.831  2.4921 -0.0792  2.1837
  746SOL     OW 2236   2.044   1.715   1.054 -0.5295 -0.1885  0.4286
  746SOL    HW1 2237   2.005   1.696   1.145  0.0353  1.2665  1.8338
  746SOL    HW2 2238   2.097   1.635   1.019 -1.2539 -0.1324 -4.2808
  747SOL     OW 2239   2.341   1.575   1.156 -0.0561 -0.2653 -0.1416
  747SOL    HW1 2240   2.394   1.660   1.141  0.8122  2.5798 -0.3800
  747SOL    HW2 2241   2.265   1.558   1.089 -3.3211 -1.0510 -0.3208
  748SOL     OW 2242   0.599   1.952   0.846  0.4916  0.0435  0.1269
  748SOL    HW1 2243   0.572   2.031   0.794  2.7693 -0.9380  1.8878
  748SOL    HW2 2244   0.675   1.977   0.911  0.5585 -2.4800  0.6594
  749SOL     OW 2245   2.297   2.879   2.143  0.3768  0.1660  0.5430
  749SOL    HW1 2246   2.201   2.863   2.111 -1.8458 -0.6547  3.4656
  749SOL    HW2 2247   2.365   2.904   2.073  1.3037 -0.2444  1.4668
  750SOL     OW 2248   2.381   0.436   0.962 -0.0571 -0.0206  0.4775
  750SOL    HW1 2249   2.418   0.393   0.876  1.8376  1.3004  0.8699
  750SOL    HW2 2250   2.361   0.534   0.931 -1.5094 -0.0204 -1.3618
  751SOL     OW 2251   2.802   2.826   0.495 -0.0217 -0.7460  0.6018
  751SOL    HW1 2252   2.900   2.848   0.496  0.2249 -0.4207 -1.1169
  751SOL    HW2 2253   2.765   2.827   0.399  0.9632  3.1364 -0.0282
  752SOL     OW 2254   0.040   2.923   0.711  0.0595 -0.1433 -0.3750
  752SOL    HW1 2255   0.010   2.904   0.614 -0.8713 -0.9580 -0.5851
  752SOL    HW2 2256   0.042   3.023   0.726 -2.1496 -1.0800 -1.7806
  753SOL     OW 2257   1.548   0.812   2.371  0.2517 -0.3721 -0.9099
  753SOL    HW1 2258   1.532   0.912   2.387  0.3878 -1.6977 -1.9497
  753SOL    HW2 2259   1.481   0.776   2.312  2.1834 -0.4874 -0.4962
  754SOL     OW 2260   1.664   1.987   1.891 -0.2495  0.5553 -0.4636
  754SOL    HW1 2261   1.676   1.911   1.824  0.3097  0.5086  2.3821
  754SOL    HW2 2262   1.713   1.957   1.976  0.1043 -1.3761 -1.1690
  755SOL     OW 2263   2.657   0.745   0.808 -0.3242 -0.2418  0.1037
  755SOL    HW1 2264   2.570   0.739   0.861  2.2735  1.1258  0.2920
  755SOL    HW2 2265   2.644   0.807   0.721  0.7414  1.1422 -2.0351
  756SOL     OW 2266   0.903   1.655   2.703 -0.1595 -0.8006  0.2650
  756SOL    HW1 2267   0.916   1.580   2.773  3.4363  0.9914 -0.3206
  756SOL    HW2 2268   0.877   1.738   2.752  0.9479  0.6818  1.6706
  757SOL     OW 2269   1.068   3.050   0.427  0.1918  0.5241 -0.3696
  757SOL    HW1 2270   1.044   3.066   0.525  1.1024 -0.2878  0.2070
  757SOL    HW2 2271   1.151   3.101   0.408 -3.9477 -0.0039 -1.2103
  758SOL     OW 2272   1.274   2.862   1.156  0.7221 -0.1912  0.5428
  758SOL    HW1 2273   1.218   2.889   1.073 -0.7624  2.9549 -0.1658
  758SOL    HW2 2274   1.346   2.933   1.161 -1.5636  1.3864  0.0266
  759SOL     OW 2275   0.190   0.518   0.474  0.3526 -0.0103 -0.5419
  759SOL    HW1 2276   0.156   0.436   0.526  2.8222  1.5340 -0.9958
  759SOL    HW2 2277   0.173   0.599   0.537 -0.8769  0.9800  0.8724
  760SOL     OW 2278   2.422   1.029   1.167  0.1718 -0.1477  0.3439
  760SOL    HW1 2279   2.499   0.979   1.126 -2.4626  0.9970  2.7874
  760SOL    HW2 2280   2.438   1.134   1.171 -2.3831 -0.8564 -2.3522
  761SOL     OW 2281   1.796   0.514   0.822  0.6382  0.3389  0.3696
  761SOL    HW1 2282   1.712   0.464   0.856 -3.5630 -2.1324  1.3984
  761SOL    HW2 2283   1.877   0.471   0.870 -1.9546  2.1823  0.0493
  762SOL     OW 2284   2.269   2.135   0.542 -0.1616 -0.2517  0.0953
  762SOL    HW1 2285   2.309   2.072   0.468 -0.7424  0.1293 -0.6618
  762SOL    HW2 2286   2.274   2.233   0.514  0.9700  0.8515  0.6121
  763SOL     OW 2287   0.642   1.297   1.656  0.2366  0.3391 -0.3841
  763SOL    HW1 2288   0.556   1.352   1.657  0.0965 -0.4542 -2.6119
  763SOL    HW2 2289   0.722   1.357   1.631 -1.3370  0.1316  1.2508
  764SOL     OW 2290   2.655   2.129   2.444 -0.0430  0.1055  0.0908
  764SOL    HW1 2291   2.558   2.149   2.432  1.3559  0.8159  0.3987
  764SOL    HW2 2292   2.691   2.209   2.499 -0.7647  1.0672  1.4783
  765SOL     OW 2293   0.974   2.645   0.940 -0.4834  0.5322  0.3686
  765SOL    HW1 2294   0.931   2.641   0.846  1.4559 -0.5694 -1.6643
  765SOL    HW2 2295   0.922   2.710   1.001  1.4628 -2.3841  1.0268
  766SOL     OW 2296   2.963   1.741   2.443 -0.0065  0.0417  0.3801
  766SOL    HW1 2297   3.037   1.739   2.374 -2.5969 -1.3729  0.6577
  766SOL    HW2 2298   2.908   1.827   2.425  0.8574  1.7821 -1.1200
  767SOL     OW 2299   2.208   0.797   2.576 -0.4176 -0.2417 -0.8257
  767SOL    HW1 2300   2.169   0.811   2.672 -1.3424  0.6436 -0.1683
  767SOL    HW2 2301   2.232   0.701   2.555  0.5070  2.0340  1.2307
  768SOL     OW 2302   1.118   0.082   2.533  0.3379  0.8999  0.2651
  768SOL    HW1 2303   1.024   0.120   2.519  1.7720  0.2227 -1.2297
  768SOL    HW2 2304   1.181   0.119   2.463  1.1105 -0.8878  2.1595
  769SOL     OW 2305   0.152   2.379   0.899  0.3281 -0.0989 -0.2326
  769SOL    HW1 2306   0.164   2.431   0.813 -1.5165 -0.4848 -0.4684
  769SOL    HW2 2307   0.145   2.441   0.976  1.1172 -0.1916 -1.3255
  770SOL     OW 2308   0.649   0.404   0.218 -0.6109 -0.1528  0.0325
  770SOL    HW1 2309   0.613   0.377   0.128 -0.3785  1.2207  0.3176
  770SOL    HW2 2310   0.583   0.456   0.271 -0.8840 -0.8898 -1.6236
  771SOL     OW 2311   1.179   1.454   2.475 -0.2514  0.6765  0.7115
  771SOL    HW1 2312   1.100   1.402   2.510 -0.6646  0.7733  1.4177
  771SOL    HW2 2313   1.256   1.428   2.537  0.5802 -2.8844 -0.8435
  772SOL     OW 2314   2.304   3.106   2.270 -0.0997  0.0834 -0.1570
  772SOL    HW1 2315   2.299   3.014   2.227 -0.8919  2.9786 -0.2572
  772SOL    HW2 2316   2.226   0.019   2.335  1.4714 -0.7820 -2.7544
  773SOL     OW 2317   1.575   0.791   1.985 -0.2388 -0.2268 -0.5362
  773SOL    HW1 2318   1.512   0.869   2.011  0.2778  0.6632 -0.2125
  773SOL    HW2 2319   1.527   0.700   1.993 -0.6344 -3.1743  2.2451
  774SOL     OW 2320   1.353   0.691   1.438 -0.1245  0.0276 -0.0254
  774SOL    HW1 2321   1.347   0.781   1.480  0.7609 -3.7481 -1.4278
  774SOL    HW2 2322   1.443   0.685   1.389 -1.4925 -0.1172 -1.4164
  775SOL     OW 2323   1.991   2.769   3.047 -0.1794  0.3257 -0.1507
  775SOL    HW1 2324   1.944   2.688   3.012  0.4588 -2.0749 -1.3725
  775SOL    HW2 2325   2.010   2.829   2.970 -1.9785 -0.1625  3.5260
  776SOL     OW 2326   1.920   1.045   1.864 -0.4071 -0.1872  0.0803
  776SOL    HW1 2327   1.865   0.963   1.850 -2.7970  3.5728  0.1865
  776SOL    HW2 2328   1.986   1.033   1.943  1.2871  0.0217  1.2714
  777SOL     OW 2329   3.098   1.356   2.401  0.4261 -0.0591 -0.2272
  777SOL    HW1 2330   3.083   1.303   2.318  1.2775  0.8760  0.7137
  777SOL    HW2 2331   3.014   1.399   2.441  0.8817 -2.0137  0.1394
  778SOL     OW 2332   2.413   0.946   2.453  0.3780  0.3397  0.3586
  778SOL    HW1 2333   2.340   0.890   2.495 -2.3548 -1.5707 -0.1863
  778SOL    HW2 2334   2.490   0.968   2.516 -2.6065  0.3023 -1.1921
  779SOL     OW 2335   2.920   0.543   2.863 -0.1302 -0.4894  0.4865
  779SOL    HW1 2336   2.991   0.567   2.930 -1.3073 -0.4589 -1.9902
  779SOL    HW2 2337   2.952   0.474   2.797 -1.1612  0.5103 -0.5070
  780SOL     OW 2338   2.398   2.687   2.314 -0.0855  0.1252 -0.4725
  780SOL    HW1 2339   2.364   2.760   2.250 -1.9046  0.7348  0.7909
  780SOL    HW2 2340   2.422   2.605   2.260 -0.2624  0.1325 -0.7080
  781SOL     OW 2341   3.044   1.102   1.949 -0.2445  0.5110  0.7097
  781SOL    HW1 2342   2.972   1.034   1.915 -1.4801 -0.5553 -2.7304
  781SOL    HW2 2343   3.097   1.147   1.875  0.0967 -0.2609 -0.2521
  782SOL     OW 2344   1.822   2.257   2.905  0.3089 -0.6904  0.1322
  782SOL    HW1 2345   1.785   2.249   2.809  0.1656 -1.2489 -2.6564
  782SOL    HW2 2346   1.781   2.339   2.949  2.0265 -3.1782  0.7951
  783SOL     OW 2347   0.914   2.386   1.034  0.0917 -0.0177  0.2669
  783SOL    HW1 2348   0.937   2.381   1.131  0.5629  2.2607 -3.7109
  783SOL    HW2 2349   0.950   2.475   0.998 -0.2771  0.5346 -0.0743
  784SOL     OW 2350   2.085   0.420   2.374 -0.7122 -0.1898 -0.7564
  784SOL    HW1 2351   2.059   0.318   2.357  0.1601 -3.4521 -1.8990
  784SOL    HW2 2352   2.084   0.466   2.284  3.0035  0.4408 -0.5961
  785SOL     OW 2353   0.181   0.186   1.440  0.1367  0.7480  0.3288
  785SOL    HW1 2354   0.220   0.161   1.347 -0.6859 -0.5571  0.8336
  785SOL    HW2 2355   0.258   0.227   1.500  0.5141  1.1210 -0.2364
  786SOL     OW 2356   1.241   2.726   0.266 -0.5235  0.5873 -0.3638
  786SOL    HW1 2357   1.205   2.690   0.356 -2.8853  0.3559  0.7434
  786SOL    HW2 2358   1.277   2.822   0.280 -0.2521  4.1757 -1.6765
  787SOL     OW 2359   1.345   0.184   0.613 -0.2311  0.0514  0.3159
  787SOL    HW1 2360   1.297   0.257   0.663  1.2340 -1.1764 -1.9225
  787SOL    HW2 2361   1.394   0.113   0.671  0.4255 -1.2897  0.8522
  788SOL     OW 2362   3.062   1.224   1.006  0.6237 -0.0158 -0.0409
  788SOL    HW1 2363   3.095   1.323   0.998  2.7834  1.6932 -0.8721
  788SOL    HW2 2364   0.020   1.161   1.055 -0.1191  0.7663 -0.8354
  789SOL     OW 2365   2.722   0.960   2.143 -0.8651 -0.0016  0.7284
  789SOL    HW1 2366   2.627   0.924   2.157 -0.7443  1.5640 -0.1521
  789SOL    HW2 2367   2.729   1.044   2.195  0.0675 -2.5355 -2.3846
  790SOL     OW 2368   1.119   0.766   2.831  0.1480 -0.4950  0.2102
  790SOL    HW1 2369   1.218   0.788   2.822  0.7174 -1.3136  0.1612
  790SOL    HW2 2370   1.069   0.839   2.877  2.7656 -2.3737  1.7343
  791SOL     OW 2371   0.350   2.639   0.139  0.1097  0.7585 -0.1563
  791SOL    HW1 2372   0.317   2.543   0.156  1.6170  0.0849  1.5479
  791SOL    HW2 2373   0.446   2.636   0.109 -2.5382  0.9030  3.0240
  792SOL     OW 2374   1.010   0.783   1.935 -0.0499  0.3948  0.0808
  792SOL    HW1 2375   1.106   0.785   1.900  1.6980  0.6463  0.2902
  792SOL    HW2 2376   0.949   0.763   1.854 -1.2308  1.9035 -0.2721
  793SOL     OW 2377   2.947   0.564   1.133 -0.1997 -0.6503  0.6316
  793SOL    HW1 2378   2.885   0.607   1.203 -0.9121 -0.8681  0.1928
  793SOL    HW2 2379   2.889   0.489   1.085 -3.7528 -0.5981  1.1141
  794SOL     OW 2380   2.909   0.219   2.322  0.3435  0.4806 -0.3084
  794SOL    HW1 2381   2.916   0.118   2.296 -0.9672 -0.7365 -1.4565
  794SOL    HW2 2382   2.997   0.271   2.310  1.4403  0.3351 -0.4378
  795SOL     OW 2383   0.451   1.665   0.082  0.2834  0.6189 -0.2714
  795SOL    HW1 2384   0.425   1.630   0.176 -1.3262 -0.7452  2.7604
  795SOL    HW2 2385   0.373   1.696   0.026  1.1975  0.7314 -1.2900
  796SOL     OW 2386   2.721   0.744   2.946  0.3100 -0.1617  0.0996
  796SOL    HW1 2387   2.756   0.656   2.904 -1.2960 -2.6525  1.1182
  796SOL    HW2 2388   2.652   0.786   2.885  1.1633 -0.1613 -1.9802
  797SOL     OW 2389   2.154   2.692   2.480 -0.0393  0.6729  0.0694
  797SOL    HW1 2390   2.164   2.598   2.525 -1.0898  1.4574 -1.5338
  797SOL    HW2 2391   2.222   2.716   2.406 -0.7235  3.1254 -3.2347
  798SOL     OW 2392   2.858   0.063   0.832 -0.2548  0.3287  0.0339
  798SOL    HW1 2393   2.954   0.067   0.805 -0.6593  4.6492 -2.4172
  798SOL    HW2 2394   2.852   0.082   0.931 -0.7635 -0.2807 -4.4336
  799SOL     OW 2395   3.047   0.679   1.880  0.6211 -0.4999  0.3221
  799SOL    HW1 2396   0.030   0.725   1.864 -1.3847 -1.1311 -0.0652
  799SOL    HW2 2397   2.966   0.742   1.880  1.2289 -1.4976  0.6707
  800SOL     OW 2398   0.442   1.560   0.378  0.2722 -0.0665 -0.4712
  800SOL    HW1 2399   0.420   1.468   0.405  0.2946  1.9027 -0.5838
  800SOL    HW2 2400   0.360   1.619   0.371  1.4331 -0.5834 -0.5854
  801SOL     OW 2401   1.874   1.842   0.668  0.3187 -0.4111 -0.0923
  801SOL    HW1 2402   1.904   1.878   0.579  0.7573 -1.7342 -0.1327
  801SOL    HW2 2403   1.774   1.827   0.667 -0.1866 -0.8811 -0.9239
  802SOL     OW 2404   1.421   1.110   2.862  0.2504  0.0618  0.0454
  802SOL    HW1 2405   1.388   1.190   2.807  0.8294  0.1504  0.1624
  802SOL    HW2 2406   1.412   1.032   2.805  2.2057  0.9854 -0.1028
  803SOL     OW 2407   1.207   1.802   1.915  0.1683  0.0313  0.1614
  803SOL    HW1 2408   1.197   1.727   1.983 -0.5888  1.6534  0.6646
  803SOL    HW2 2409   1.138   1.878   1.935 -1.0052  0.2010 -0.9740
  804SOL     OW 2410   1.555   2.497   0.642  0.3953  0.2851  0.1839
  804SOL    HW1 2411   1.647   2.458   0.646 -2.3229 -0.6314  3.5638
  804SOL    HW2 2412   1.487   2.434   0.687  0.1253 -1.8123  0.3906
  805SOL     OW 2413   3.010   2.378   2.091 -0.2317 -0.1931 -0.1144
  805SOL    HW1 2414   2.958   2.324   2.016 -0.7773 -0.1457 -0.2681
  805SOL    HW2 2415   0.001   2.379   2.066  0.0105 -2.9397  1.1356
  806SOL     OW 2416   3.013   3.090   0.356  0.2892 -0.0572  0.1170
  806SOL    HW1 2417   2.962   0.009   0.444 -0.8010 -0.2272  0.6689
  806SOL    HW2 2418   2.956   0.013   0.274 -0.8101  2.7542 -2.7074
  807SOL     OW 2419   2.442   0.885   2.818  0.5074 -1.0662  0.4420
  807SOL    HW1 2420   2.439   0.783   2.829  1.5273  1.1450  1.2006
  807SOL    HW2 2421   2.378   0.922   2.884  2.1307  0.4707  0.2928
  808SOL     OW 2422   1.186   2.698   0.744  0.3936 -0.0544 -0.4829
  808SOL    HW1 2423   1.161   2.646   0.825 -0.6322  1.1651 -0.3852
  808SOL    HW2 2424   1.280   2.741   0.759  1.3881 -1.4124 -1.5320
  809SOL     OW 2425   2.803   3.105   0.168  0.1307  0.3820  0.0537
  809SOL    HW1 2426   2.748   3.034   0.124 -0.5907  1.3932  2.3745
  809SOL    HW2 2427   2.841   0.068   0.101 -0.1057 -0.2867 -0.0380
  810SOL     OW 2428   1.424   1.170   0.884  0.5283 -0.1537  0.3413
  810SOL    HW1 2429   1.322   1.177   0.877  1.6430  1.0069  0.4023
  810SOL    HW2 2430   1.459   1.076   0.860  1.1172 -0.5149  2.2659
  811SOL     OW 2431   1.912   2.843   1.698  0.3044 -0.1624 -0.5637
  811SOL    HW1 2432   1.841   2.877   1.630 -0.7780  0.0738  1.5874
  811SOL    HW2 2433   1.866   2.829   1.791 -0.1439  0.8364  3.8146
  812SOL     OW 2434   1.646   0.041   0.302  0.0072 -0.3511 -0.1611
  812SOL    HW1 2435   1.682   0.055   0.400 -1.5318  3.0375 -0.3142
  812SOL    HW2 2436   1.546   0.027   0.305 -0.8547  0.7777  1.3367
  813SOL     OW 2437   0.987   3.024   2.109 -0.4133  0.3105 -0.0438
  813SOL    HW1 2438   0.931   3.001   2.024  1.0590 -0.5555  1.3245
  813SOL    HW2 2439   0.950   2.980   2.192 -3.8436 -0.5970 -3.6795
  814SOL     OW 2440   0.279   0.111   1.207  0.0632  0.5562 -0.3647
  814SOL    HW1 2441   0.376   0.132   1.194 -1.8932  0.7089  2.9007
  814SOL    HW2 2442   0.228   0.172   1.143 -3.2789 -0.4108  2.0770
  815SOL     OW 2443   0.263   2.800   0.793  0.2697 -0.0155  0.0363
  815SOL    HW1 2444   0.167   2.831   0.769 -0.5059 -1.6110 -1.0916
  815SOL    HW2 2445   0.308   2.746   0.715  1.7016 -2.1145 -3.2516
  816SOL     OW 2446   2.521   1.630   2.690 -0.1397 -0.1934  0.2463
  816SOL    HW1 2447   2.535   1.528   2.714  2.0552 -0.9432  2.2328
  816SOL    HW2 2448   2.479   1.633   2.597 -1.2968  1.8317 -0.3987
  817SOL     OW 2449   1.390   2.655   2.846  0.0796  0.1225 -0.3858
  817SOL    HW1 2450   1.372   2.558   2.825 -2.0364  0.9743  0.9255
  817SOL    HW2 2451   1.455   2.692   2.777 -2.1563 -1.0357  0.7022
  818SOL     OW 2452   1.424   1.016   0.406 -0.2160 -0.0110 -0.1811
  818SOL    HW1 2453   1.406   1.115   0.416  0.1406  1.1117 -3.1915
  818SOL    HW2 2454   1.376   0.977   0.328 -1.3536 -0.9562  0.8531
  819SOL     OW 2455   2.134   2.304   2.927 -0.2303 -0.3993  0.4788
  819SOL    HW1 2456   2.037   2.280   2.937  1.3456 -0.2644 -0.4914
  819SOL    HW2 2457   2.144   2.382   2.861 -1.7466 -1.7159 -2.0798
  820SOL     OW 2458   0.786   0.668   0.162  0.3480  0.1868  0.1017
  820SOL    HW1 2459   0.792   0.695   0.063 -2.7268  2.3939 -1.4168
  820SOL    HW2 2460   0.765   0.567   0.173 -0.9074 -2.6145  0.0471
  821SOL     OW 2461   0.765   0.390   1.338  0.5820  0.4360 -0.4359
  821SOL    HW1 2462   0.842   0.348   1.288 -0.2832  1.4646  1.7227
  821SOL    HW2 2463   0.709   0.445   1.273  0.5947 -0.5244  0.4518
  822SOL     OW 2464   1.431   2.437   2.364 -0.7385 -0.0702  0.2474
  822SOL    HW1 2465   1.438   2.342   2.389  0.8100  1.7553 -1.3604
  822SOL    HW2 2466   1.344   2.459   2.322  2.0366 -1.9550  2.2965
  823SOL     OW 2467   0.739   1.029   2.071  0.6210 -0.0541  0.2972
  823SOL    HW1 2468   0.757   1.083   1.985  0.9497  2.0470 -3.1693
  823SOL    HW2 2469   0.776   1.067   2.154 -1.0261 -0.2829  1.0664
  824SOL     OW 2470   2.467   0.022   1.868  0.3771  0.0750  0.1177
  824SOL    HW1 2471   2.514   3.046   1.908  1.8266 -0.3699  1.3095
  824SOL    HW2 2472   2.502   0.045   1.772 -0.0828  0.6992 -2.9636
  825SOL     OW 2473   0.791   1.317   0.218  0.1007 -0.2585 -0.1881
  825SOL    HW1 2474   0.839   1.230   0.204  0.9786  0.2257  0.0095
  825SOL    HW2 2475   0.808   1.379   0.138  1.2478  3.3616 -2.2036
  826SOL     OW 2476   1.991   0.537   2.609  0.4069 -0.2945  0.0689
  826SOL    HW1 2477   1.959   0.531   2.516  0.5430  1.5730 -0.0325
  826SOL    HW2 2478   2.046   0.456   2.632 -1.0263  1.7530 -0.7636
  827SOL     OW 2479   0.699   2.121   2.676 -0.2056 -0.2782 -0.4624
  827SOL    HW1 2480   0.650   2.093   2.596  1.4893  1.7183  1.2672
  827SOL    HW2 2481   0.671   2.073   2.762  1.2110  1.6732  2.4342
  828SOL     OW 2482   2.646   0.042   1.372 -0.4393 -0.2628 -0.3539
  828SOL    HW1 2483   2.613   0.116   1.310  0.8712 -0.4006  1.0217
  828SOL    HW2 2484   2.711   3.084   1.327  0.8092 -0.4464  0.8636
  829SOL     OW 2485   1.332   1.647   1.499  0.2798  0.5061 -0.4471
  829SOL    HW1 2486   1.432   1.632   1.495  0.6193 -1.2813  1.1378
  829SOL    HW2 2487   1.314   1.739   1.541 -2.1375  0.7480 -0.0745
  830SOL     OW 2488   0.475   0.932   1.749 -0.1101 -0.3716 -0.0831
  830SOL    HW1 2489   0.539   0.880   1.683  0.8745 -1.0094 -0.1129
  830SOL    HW2 2490   0.402   0.978   1.702 -0.7008 -2.2730 -0.4484
  831SOL     OW 2491   0.126   1.894   0.183  0.1595  0.5222 -0.2956
  831SOL    HW1 2492   0.029   1.937   0.188 -1.0354 -1.0579  1.0280
  831SOL    HW2 2493   0.188   1.953   0.126  1.0381  2.0507  1.6503
  832SOL     OW 2494   0.739   3.039   2.682  0.4911 -0.3418 -0.1470
  832SOL    HW1 2495   0.815   3.041   2.749  2.1148  0.1002 -2.5043
  832SOL    HW2 2496   0.654   2.993   2.721 -0.1150 -0.3004  3.4390
  833SOL     OW 2497   0.031   0.357   2.008 -0.7465 -0.1219  0.1578
  833SOL    HW1 2498   0.112   0.310   2.052  2.4333  1.2405 -0.3308
  833SOL    HW2 2499   0.014   0.449   2.048 -0.9763 -0.8379  1.7795
  834SOL     OW 2500   0.358   0.644   1.048 -0.4635 -0.6514 -0.5996
  834SOL    HW1 2501   0.387   0.643   0.951 -3.1815  0.1030 -0.9053
  834SOL    HW2 2502   0.259   0.639   1.055  1.9277  1.5674 -4.4598
  835SOL     OW 2503   2.551   2.958   1.087  0.1567 -0.1481  0.1487
  835SOL    HW1 2504   2.559   3.012   0.999  0.3556 -0.4128 -1.1677
  835SOL    HW2 2505   2.631   2.982   1.148  3.5304 -1.3967  2.6862
  836SOL     OW 2506   0.796   1.839   2.886  0.1674  0.5582  0.3228
  836SOL    HW1 2507   0.724   1.907   2.905  3.0951 -0.4951  0.9036
  836SOL    HW2 2508   0.883   1.884   2.906 -1.3644 -1.8727  2.3228
  837SOL     OW 2509   2.243   2.053   2.862  0.1288  0.3718  0.2630
  837SOL    HW1 2510   2.206   2.147   2.865 -3.1970 -2.0883 -0.7675
  837SOL    HW2 2511   2.275   2.036   2.767  2.0708  1.0765 -2.4848
  838SOL     OW 2512   2.976   1.214   2.203  0.0548  0.0342  0.3099
  838SOL    HW1 2513   2.921   1.144   2.246  1.6374 -0.3545 -3.3317
  838SOL    HW2 2514   2.982   1.198   2.096  2.3841 -0.0221 -2.5733
  839SOL     OW 2515   0.947   1.067   0.104 -0.6761 -0.0399 -0.1600
  839SOL    HW1 2516   0.888   1.022   0.035  0.7762 -1.5067 -1.8188
  839SOL    HW2 2517   1.035   1.088   0.059 -3.0147  2.5186 -2.5162
  840SOL     OW 2518   1.575   0.621   0.427 -0.1343  0.7012 -0.5500
  840SOL    HW1 2519   1.589   0.723   0.437  0.3533 -1.0904  0.2341
  840SOL    HW2 2520   1.488   0.591   0.474  3.1973 -0.8365  1.0905
  841SOL     OW 2521   0.684   2.908   0.715 -0.1503 -0.4864 -0.3759
  841SOL    HW1 2522   0.719   2.816   0.741 -0.3472 -0.2332  0.6337
  841SOL    HW2 2523   0.761   2.973   0.705  0.5669  0.1193  0.4135
  842SOL     OW 2524   0.008   0.448   0.302 -0.6780  0.0801 -0.0157
  842SOL    HW1 2525   3.067   0.510   0.238 -1.0578  0.7773  0.1873
  842SOL    HW2 2526   0.085   0.493   0.351  0.3793  2.0869 -0.7401
  843SOL     OW 2527   0.511   0.462   1.708  0.1781  0.2160 -0.3934
  843SOL    HW1 2528   0.561   0.526   1.770 -1.8636 -0.5411  1.4171
  843SOL    HW2 2529   0.419   0.495   1.685 -1.5239 -0.5655 -1.0011
  844SOL     OW 2530   1.886   2.611   2.825  0.5991  0.1922  0.2709
  844SOL    HW1 2531   1.842   2.699   2.803 -0.2104 -1.5029  1.6120
  844SOL    HW2 2532   1.847   2.577   2.911  1.5962  2.0029  1.3400
  845SOL     OW 2533   2.755   0.034   2.113 -0.3893  0.1416 -0.1731
  845SOL    HW1 2534   2.843   0.019   2.164 -2.2385  0.3744  4.8241
  845SOL    HW2 2535   2.682   0.050   2.184 -0.2626  1.1165 -2.6017
  846SOL     OW 2536   1.855   1.771   2.572 -0.0868  0.3633 -0.1349
  846SOL    HW1 2537   1.875   1.761   2.676  0.1548  1.3235  1.6322
  846SOL    HW2 2538   1.929   1.819   2.523  1.1666 -0.4473  2.0680
  847SOL     OW 2539   2.025   2.804   2.090 -0.1459 -0.1420  0.5208
  847SOL    HW1 2540   1.987   2.876   2.025  2.1139  3.9673 -0.3899
  847SOL    HW2 2541   1.961   2.786   2.165  0.2507  3.3019  3.1977
  848SOL     OW 2542   0.320   2.786   0.370  0.1760  0.4871  0.1385
  848SOL    HW1 2543   0.253   2.857   0.348  2.4904  0.2110 -0.6841
  848SOL    HW2 2544   0.334   2.732   0.288  0.0976 -3.4572 -2.0025
  849SOL     OW 2545   0.682   2.531   1.297 -0.3100 -0.2774  0.1487
  849SOL    HW1 2546   0.735   2.493   1.379  3.2342 -0.0121  1.6270
  849SOL    HW2 2547   0.735   2.609   1.252  3.3572  4.1257 -3.8293
  850SOL     OW 2548   0.084   1.476   0.935  0.3832  0.4079 -0.8147
  850SOL    HW1 2549   0.015   1.509   0.870  0.3416 -1.4830  1.8679
  850SOL    HW2 2550   0.123   1.558   0.986  0.2489 -1.4890 -1.2229
  851SOL     OW 2551   3.103   0.619   3.063  0.5264  0.5210 -0.0890
  851SOL    HW1 2552   3.101   0.709   0.000 -1.7835  1.8259 -1.3246
  851SOL    HW2 2553   0.090   0.580   3.056 -0.0055 -1.8788 -0.7737
  852SOL     OW 2554   1.593   2.166   2.309  0.0534 -0.5261  0.1967
  852SOL    HW1 2555   1.595   2.069   2.335  1.1506  0.1485  0.8291
  852SOL    HW2 2556   1.659   2.220   2.363 -0.4927  2.0055 -0.8652
  853SOL     OW 2557   0.736   1.759   0.697  0.0208 -0.9590 -0.3889
  853SOL    HW1 2558   0.674   1.817   0.753 -0.0856 -0.8251  0.6968
  853SOL    HW2 2559   0.709   1.758   0.599  0.6267  0.5519 -0.0874
  854SOL     OW 2560   1.636   1.175   1.721 -0.4122 -0.3476 -0.1519
  854SOL    HW1 2561   1.652   1.221   1.808  1.4473 -0.1987  0.2381
  854SOL    HW2 2562   1.720   1.134   1.679  1.4820  0.1232  2.0438
  855SOL     OW 2563   0.354   2.030   0.098  0.0248  0.2096 -0.2411
  855SOL    HW1 2564   0.416   2.063   0.168 -1.1345  1.2624 -0.0443
  855SOL    HW2 2565   0.362   2.095   0.017  1.9851  0.4808  1.0924
  856SOL     OW 2566   0.043   0.100   1.656 -0.1333 -0.1154  0.3231
  856SOL    HW1 2567   0.110   0.115   1.578 -1.9206 -1.0548  1.0837
  856SOL    HW2 2568   3.064   0.053   1.626  0.2703  0.2993  3.0740
  857SOL     OW 2569   0.612   0.250   1.900 -0.4281  0.5900 -0.0098
  857SOL    HW1 2570   0.556   0.258   1.984 -0.8555  1.6806 -1.7565
  857SOL    HW2 2571   0.589   0.327   1.840 -0.1163 -1.5131  1.5123
  858SOL     OW 2572   2.831   1.964   2.318 -0.3592  0.5826 -0.3946
  858SOL    HW1 2573   2.845   2.001   2.220  0.1164  2.0254 -1.4551
  858SOL    HW2 2574   2.771   2.016   2.381 -1.1970 -1.0055  0.7104
  859SOL     OW 2575   2.041   2.624   0.727 -0.2430 -0.3423 -0.0192
  859SOL    HW1 2576   2.108   2.551   0.742 -0.9630  0.3534  1.2860
  859SOL    HW2 2577   1.988   2.632   0.818  0.6150 -0.0107 -0.3753
  860SOL     OW 2578   1.802   0.515   0.555  0.1344 -0.3255  0.0628
  860SOL    HW1 2579   1.794   0.508   0.654 -1.6059  2.0486 -2.0458
  860SOL    HW2 2580   1.707   0.534   0.518 -0.2849 -0.0049 -0.3155
  861SOL     OW 2581   0.522   0.214   1.180  0.5958  0.5845  0.5206
  861SOL    HW1 2582   0.566   0.299   1.152  2.2019 -0.1775 -1.4218
  861SOL    HW2 2583   0.536   0.197   1.280  1.0788 -0.9685  0.1298
  862SOL     OW 2584   2.252   0.753   1.764  0.8604  0.4277 -0.0615
  862SOL    HW1 2585   2.291   0.671   1.722 -0.6661  2.1271 -0.5557
  862SOL    HW2 2586   2.213   0.816   1.691 -0.1424  2.3807 -3.1151
  863SOL     OW 2587   0.520   1.414   1.228 -0.3280  0.6920 -0.4492
  863SOL    HW1 2588   0.540   1.397   1.128 -1.6586  0.0246  0.4191
  863SOL    HW2 2589   0.456   1.491   1.251  0.4285  0.6822 -1.5678
  864SOL     OW 2590   2.440   0.170   2.104  0.0362 -0.2807 -0.0280
  864SOL    HW1 2591   2.467   0.113   2.021  0.7499  2.9937  0.9102
  864SOL    HW2 2592   2.372   0.121   2.159 -1.9286  3.5311 -1.7920
  865SOL     OW 2593   1.557   0.502   1.967 -0.2581  0.1133 -0.6372
  865SOL    HW1 2594   1.568   0.459   1.879  1.0460  2.9570 -0.8775
  865SOL    HW2 2595   1.647   0.536   1.993 -0.7764 -1.6843  2.9798
  866SOL     OW 2596   2.610   3.045   0.834  0.5461 -0.8110  0.4707
  866SOL    HW1 2597   2.699   3.095   0.836  0.8964 -3.2541  1.0266
  866SOL    HW2 2598   2.543   3.083   0.763  0.7930 -0.9742 -0.9883
  867SOL     OW 2599   2.725   2.558   0.531 -0.4932  0.5546 -0.2330
  867SOL    HW1 2600   2.728   2.656   0.521 -2.6423 -2.2407 -0.2894
  867SOL    HW2 2601   2.635   2.525   0.497  2.6467  0.7079  1.1015
  868SOL     OW 2602   1.509   1.756   2.697 -0.1414 -0.3826  0.7173
  868SOL    HW1 2603   1.416   1.772   2.736  0.6830  1.5762 -0.7335
  868SOL    HW2 2604   1.569   1.719   2.772  1.8626  2.0922 -1.0516
  869SOL     OW 2605   2.353   1.814   0.655  0.0575  0.7203 -0.4453
  869SOL    HW1 2606   2.315   1.825   0.562  1.3269  0.9358  0.1881
  869SOL    HW2 2607   2.307   1.877   0.718  1.3164 -0.1535 -2.3617
  870SOL     OW 2608   2.730   1.848   0.392  0.0652  0.2220 -0.1696
  870SOL    HW1 2609   2.805   1.787   0.375 -0.4657  3.2945 -2.5463
  870SOL    HW2 2610   2.732   1.922   0.330  0.3253 -1.4008 -0.8362
  871SOL     OW 2611   0.210   0.966   1.649 -0.1040 -0.6195  0.7529
  871SOL    HW1 2612   0.235   0.971   1.550  2.1085 -0.0362 -2.3048
  871SOL    HW2 2613   0.178   1.060   1.678 -0.9483 -0.4311 -2.2594
  872SOL     OW 2614   0.196   1.946   2.195  0.1946 -0.0316  0.2798
  872SOL    HW1 2615   0.130   1.870   2.185 -0.3253  0.4835  0.2155
  872SOL    HW2 2616   0.274   1.929   2.135  0.5577  1.7062 -2.6585
  873SOL     OW 2617   0.236   2.560   1.469  0.4208  0.1796  0.0986
  873SOL    HW1 2618   0.296   2.582   1.389 -2.5531 -0.3547 -2.5120
  873SOL    HW2 2619   0.267   2.483   1.531  0.6059  1.2105 -0.0881
  874SOL     OW 2620   0.883   0.799   2.183 -0.1973  0.1899 -0.0809
  874SOL    HW1 2621   0.828   0.884   2.167  1.8922  0.8759  0.0201
  874SOL    HW2 2622   0.932   0.787   2.096  0.7625 -0.8098  1.3622
  875SOL     OW 2623   2.808   2.982   1.207 -0.4345  0.2576 -0.3401
  875SOL    HW1 2624   2.787   2.890   1.182 -2.3512  1.8388 -1.4796
  875SOL    HW2 2625   2.893   2.978   1.268 -0.2903  0.6448  1.8817
  876SOL     OW 2626   1.129   1.215   0.490 -0.0287 -0.6131 -0.7723
  876SOL    HW1 2627   1.111   1.198   0.592 -1.6588  0.7808 -0.9240
  876SOL    HW2 2628   1.224   1.246   0.475 -2.0261  1.3496  0.5759
  877SOL     OW 2629   1.112   0.588   1.179 -0.0257 -0.3934  0.4002
  877SOL    HW1 2630   1.047   0.642   1.119 -1.3102  1.4113 -3.7269
  877SOL    HW2 2631   1.200   0.619   1.140 -4.6035 -1.0014  1.4441
  878SOL     OW 2632   2.411   1.754   0.038  0.1832 -0.2211 -0.6906
  878SOL    HW1 2633   2.376   1.708   3.059  1.5389 -3.8671  1.8109
  878SOL    HW2 2634   2.415   1.856   0.022 -3.3462  1.1027  0.1825
  879SOL     OW 2635   2.492   2.096   1.769 -0.3971 -0.3327  0.4396
  879SOL    HW1 2636   2.544   2.019   1.727 -1.7692  0.8020  0.4592
  879SOL    HW2 2637   2.543   2.184   1.753 -0.0318  0.1070  0.2310
  880SOL     OW 2638   1.199   2.103   1.092 -0.3300  0.4170  0.5386
  880SOL    HW1 2639   1.251   2.187   1.111 -1.3080  0.7481 -0.3033
  880SOL    HW2 2640   1.131   2.087   1.164  1.0534  0.3206 -0.4549
  881SOL     OW 2641   0.992   1.960   0.737 -0.2762  1.0532 -0.3031
  881SOL    HW1 2642   1.007   2.041   0.799 -0.1522 -0.1257  1.0169
  881SOL    HW2 2643   0.912   1.907   0.758  0.6553 -1.0714  2.5915
  882SOL     OW 2644   1.901   1.677   2.826  0.5517 -0.1527 -0.1209
  882SOL    HW1 2645   1.924   1.581   2.801 -0.3375  1.0748 -0.8611
  882SOL    HW2 2646   1.966   1.718   2.888 -2.4384 -2.7747  0.6112
  883SOL     OW 2647   1.571   0.655   1.284 -0.1852 -0.6049 -0.1594
  883SOL    HW1 2648   1.565   0.718   1.205  0.5510 -0.6733 -0.4419
  883SOL    HW2 2649   1.601   0.562   1.252 -2.9816  0.8027 -1.8538
  884SOL     OW 2650   2.994   2.741   0.879 -0.3002  1.0288 -0.0614
  884SOL    HW1 2651   2.894   2.761   0.869  0.7268  0.3125 -3.8368
  884SOL    HW2 2652   3.052   2.818   0.838  3.3105  2.3773 -0.4877
  885SOL     OW 2653   0.675   1.430   2.000 -0.0376 -0.3101 -0.2907
  885SOL    HW1 2654   0.584   1.413   2.047  0.1768 -0.8076 -0.8837
  885SOL    HW2 2655   0.721   1.344   1.965  0.6287 -0.1215 -0.0604
  886SOL     OW 2656   0.990   1.304   2.600 -0.2895  0.0204 -0.7193
  886SOL    HW1 2657   0.967   1.344   2.696 -2.9136 -0.7292  0.9931
  886SOL    HW2 2658   0.979   1.202   2.596 -1.9797  1.0164  1.1173
  887SOL     OW 2659   1.569   0.353   0.903 -0.7675 -0.2666 -0.1148
  887SOL    HW1 2660   1.619   0.266   0.880  0.5435  0.7389  1.3964
  887SOL    HW2 2661   1.477   0.357   0.857  0.0039  1.6964 -0.1833
  888SOL     OW 2662   1.935   0.838   2.193 -0.1227 -0.0941 -0.4531
  888SOL    HW1 2663   1.935   0.868   2.292 -2.2862  1.6695  0.0185
  888SOL    HW2 2664   1.984   0.746   2.193  0.8813 -0.0835  1.4220
  889SOL     OW 2665   2.932   2.026   0.892  0.3865  0.0803  0.0681
  889SOL    HW1 2666   2.996   2.023   0.974  2.1166  1.0834 -2.3991
  889SOL    HW2 2667   2.832   2.041   0.924 -0.5408 -2.4955  0.4132
  890SOL     OW 2668   1.004   2.131   0.297  0.4206 -0.2787 -0.2132
  890SOL    HW1 2669   1.049   2.216   0.326 -0.7093  0.1281  4.6221
  890SOL    HW2 2670   0.999   2.061   0.369  0.9731  1.4852 -2.9943
  891SOL     OW 2671   2.671   0.659   2.679  0.1786 -0.0385  0.6156
  891SOL    HW1 2672   2.766   0.670   2.655 -2.2393  0.1368 -0.2510
  891SOL    HW2 2673   2.613   0.652   2.594  1.4837 -1.6775 -3.0431
  892SOL     OW 2674   3.018   2.299   1.022  0.0573  0.2437 -0.1778
  892SOL    HW1 2675   3.092   2.321   0.961 -0.1019  0.8445  1.2797
  892SOL    HW2 2676   3.038   2.206   1.068 -0.4674 -2.3189  2.0604
  893SOL     OW 2677   1.295   0.271   1.053  0.7552 -0.3102  0.1445
  893SOL    HW1 2678   1.293   0.192   0.990 -1.4271  0.4327 -1.4683
  893SOL    HW2 2679   1.304   0.240   1.152  0.4741 -0.5269  1.1322
  894SOL     OW 2680   2.801   0.392   1.007 -0.8652 -0.1313  0.2304
  894SOL    HW1 2681   2.812   0.411   0.906  0.4703  0.2268 -0.5038
  894SOL    HW2 2682   2.831   0.301   1.035  1.5879 -0.4137 -0.2378
  895SOL     OW 2683   1.559   1.998   2.574 -0.6835 -0.1741 -0.5574
  895SOL    HW1 2684   1.609   2.063   2.640 -0.5088 -1.9466 -0.8196
  895SOL    HW2 2685   1.554   1.908   2.626 -1.3042 -0.7692 -1.5537
  896SOL     OW 2686   1.946   0.873   1.444 -0.0954 -0.1500  0.7542
  896SOL    HW1 2687   2.037   0.883   1.489  0.8374  0.9746  2.3591
  896SOL    HW2 2688   1.954   0.807   1.361 -3.1814 -4.1737 -3.9687
  897SOL     OW 2689   0.306   1.022   1.379 -0.6137  0.4176  0.7798
  897SOL    HW1 2690   0.350   1.112   1.404  1.4205 -0.5846 -2.3083
  897SOL    HW2 2691   0.377   0.945   1.357  1.5184  0.5210 -0.0151
  898SOL     OW 2692   1.653   2.546   2.281  0.4094  0.1129  0.3079
  898SOL    HW1 2693   1.592   2.491   2.343  1.4960 -3.7857  1.9571
  898SOL    HW2 2694   1.637   2.529   2.181  0.8834 -0.4502 -0.5189
  899SOL     OW 2695   1.292   1.685   1.020  0.3033 -0.5101  0.0767
  899SOL    HW1 2696   1.328   1.734   1.103  0.2848 -1.7194  1.5581
  899SOL    HW2 2697   1.267   1.753   0.947 -1.0818 -0.0284 -0.8394
  900SOL     OW 2698   0.724   2.737   2.340 -0.0907 -0.0266 -0.6090
  900SOL    HW1 2699   0.651   2.719   2.411 -1.5932 -2.1933 -0.0843
  900SOL    HW2 2700   0.768   2.825   2.353  0.2899 -1.0238 -2.8165
  901SOL     OW 2701   0.851   1.407   2.375  0.3027  0.8202 -0.6403
  901SOL    HW1 2702   0.790   1.447   2.444  0.4196 -2.3091 -1.4436
  901SOL    HW2 2703   0.902   1.324   2.410  3.0617  0.7875 -0.2497
  902SOL     OW 2704   2.248   0.956   3.001 -0.0513 -0.2657  0.2026
  902SOL    HW1 2705   2.237   1.051   2.969 -1.9754  0.2838  0.0655
  902SOL    HW2 2706   2.188   0.946   3.083  1.5516 -0.2131 -2.7314
  903SOL     OW 2707   1.965   1.427   2.760 -0.0775 -0.1223  0.5162
  903SOL    HW1 2708   1.936   1.391   2.851  0.9227  1.5603 -2.3077
  903SOL    HW2 2709   1.925   1.365   2.686 -0.5225  0.6889 -0.6041
  904SOL     OW 2710   1.426   1.006   2.062  0.2303 -0.0556 -0.5330
  904SOL    HW1 2711   1.423   1.071   1.986 -1.8681 -2.2964 -0.7557
  904SOL    HW2 2712   1.377   1.032   2.145  3.1305 -0.9542 -1.4225
  905SOL     OW 2713   2.572   0.503   1.157  0.2064  0.2688  0.6438
  905SOL    HW1 2714   2.654   0.506   1.102 -1.7265  1.8290 -0.3951
  905SOL    HW2 2715   2.496   0.471   1.100  0.2379  0.6048 -2.3722
  906SOL     OW 2716   0.447   1.407   0.692 -0.0618  0.1439 -0.1789
  906SOL    HW1 2717   0.535   1.366   0.658  3.4239  0.2720  3.6049
  906SOL    HW2 2718   0.359   1.349   0.680 -2.7174  1.0864 -0.6219
  907SOL     OW 2719   1.294   0.088   0.354  0.3012 -0.4358 -0.4806
  907SOL    HW1 2720   1.286   0.182   0.314  3.2659  0.1662  2.4002
  907SOL    HW2 2721   1.322   0.093   0.449  0.0298  0.8671 -2.2083
  908SOL     OW 2722   1.262   2.894   1.510 -0.0172  0.2889 -0.3732
  908SOL    HW1 2723   1.223   2.817   1.452  0.8713 -0.2261  0.2413
  908SOL    HW2 2724   1.213   2.980   1.483  1.4207  0.4396 -1.5577
  909SOL     OW 2725   2.516   0.826   1.810  0.4182  0.3406  0.0822
  909SOL    HW1 2726   2.534   0.776   1.894 -0.6970  2.7795  0.0912
  909SOL    HW2 2727   2.415   0.828   1.798 -2.1855 -1.4223 -1.1615
  910SOL     OW 2728   1.427   2.976   2.185 -0.1874 -0.4183  0.8149
  910SOL    HW1 2729   1.413   3.073   2.221 -0.0615 -1.2151 -1.0586
  910SOL    HW2 2730   1.352   2.940   2.128  1.1346 -1.3511 -2.3950
  911SOL     OW 2731   2.422   1.674   2.445 -0.0619 -0.3823 -0.9321
  911SOL    HW1 2732   2.483   1.718   2.376  0.4909 -2.7021  1.6484
  911SOL    HW2 2733   2.369   1.600   2.400 -1.4269  1.1661  0.9439
  912SOL     OW 2734   2.261   2.267   1.293 -0.0351 -0.4431  0.4294
  912SOL    HW1 2735   2.331   2.290   1.225 -3.7890 -1.6350 -0.1541
  912SOL    HW2 2736   2.306   2.269   1.383 -0.7335 -1.3061  0.0500
  913SOL     OW 2737   2.611   2.326   1.819 -0.5888  0.5220  0.1215
  913SOL    HW1 2738   2.692   2.300   1.880  2.7384  1.0895 -2.3524
  913SOL    HW2 2739   2.641   2.416   1.781 -4.2686  0.8541 -0.5076
  914SOL     OW 2740   2.089   2.171   0.932  0.2713 -0.0451  0.4335
  914SOL    HW1 2741   2.073   2.220   1.023 -2.7476  1.2547  0.3815
  914SOL    HW2 2742   2.043   2.080   0.920  1.8071  2.1315 -0.7787
  915SOL     OW 2743   1.038   2.522   1.801 -0.3228 -0.2914 -0.2314
  915SOL    HW1 2744   1.017   2.441   1.862  0.3736  1.8210 -1.8250
  915SOL    HW2 2745   1.061   2.493   1.708  0.2759  1.9348  1.3047
  916SOL     OW 2746   0.240   2.164   1.087 -0.5255  0.3214 -0.0761
  916SOL    HW1 2747   0.228   2.226   1.006  2.5410 -0.2104  1.7695
  916SOL    HW2 2748   0.308   2.088   1.075 -0.3769  0.6958  5.4381
  917SOL     OW 2749   2.687   1.199   2.810 -0.3998 -0.0039 -0.2036
  917SOL    HW1 2750   2.682   1.117   2.743  0.0191 -2.2139 -1.2015
  917SOL    HW2 2751   2.778   1.243   2.804 -0.9479 -2.3727  1.1819
  918SOL     OW 2752   1.374   2.191   2.576  0.1696  0.2132 -0.2377
  918SOL    HW1 2753   1.436   2.110   2.573 -2.2154  0.1900  0.5845
  918SOL    HW2 2754   1.309   2.191   2.496  0.1232 -0.5437  0.6342
  919SOL     OW 2755   1.809   2.335   0.923 -0.1322 -0.1370  0.0418
  919SOL    HW1 2756   1.811   2.343   0.818  1.6806  0.4124 -0.5718
  919SOL    HW2 2757   1.895   2.287   0.951  1.1703  0.3884  0.9579
  920SOL     OW 2758   1.073   0.469   2.647 -0.3727  0.5443  0.1531
  920SOL    HW1 2759   1.147   0.533   2.673 -0.2262  0.8573 -0.4887
  920SOL    HW2 2760   1.098   0.411   2.569  0.0410 -2.2489 -0.6702
  921SOL     OW 2761   3.082   0.054   2.783 -0.6176 -0.9908 -0.3164
  921SOL    HW1 2762   3.080   0.119   2.702 -0.8347 -1.4774 -1.4004
  921SOL    HW2 2763   0.056   3.103   2.794 -3.0600  1.9722 -1.3330
  922SOL     OW 2764   2.284   1.659   1.667 -0.5015 -0.8827  0.6800
  922SOL    HW1 2765   2.330   1.682   1.578 -1.6917 -2.2222  4.0099
  922SOL    HW2 2766   2.314   1.566   1.699 -2.1781  1.8291 -1.1258
  923SOL     OW 2767   0.228   1.901   2.505  0.1988 -0.1503 -0.7132
  923SOL    HW1 2768   0.133   1.922   2.483 -0.4642  1.4997  0.2604
  923SOL    HW2 2769   0.256   1.956   2.590  0.8125  0.0172 -1.6105
  924SOL     OW 2770   1.670   0.301   2.338  0.6574  0.3614 -0.6250
  924SOL    HW1 2771   1.649   0.232   2.412 -1.7291 -0.7458 -0.3475
  924SOL    HW2 2772   1.674   0.393   2.376  1.7108 -1.7301  1.7137
  925SOL     OW 2773   2.918   0.866   3.098  0.0240  0.3315 -0.5098
  925SOL    HW1 2774   2.860   0.820   3.031 -1.9833 -0.7673  1.7398
  925SOL    HW2 2775   2.857   0.905   0.063 -2.8277  1.1642 -1.1887
  926SOL     OW 2776   2.876   0.417   0.748  0.0814  0.2102 -0.2984
  926SOL    HW1 2777   2.894   0.361   0.667 -1.6722 -0.1641  3.9864
  926SOL    HW2 2778   2.885   0.517   0.729 -1.4953  0.1666 -1.9504
  927SOL     OW 2779   1.363   0.944   0.659 -0.1880 -0.1226  0.0139
  927SOL    HW1 2780   1.413   0.976   0.576 -1.0487  0.5967  1.0745
  927SOL    HW2 2781   1.270   0.937   0.631 -2.5841 -0.6262 -0.1495
  928SOL     OW 2782   0.121   3.095   2.130 -0.2704 -0.2535  0.8575
  928SOL    HW1 2783   0.135   3.093   2.029 -0.5353  1.3813 -0.0910
  928SOL    HW2 2784   0.144   0.083   2.153 -3.4127  1.7291 -0.0879
  929SOL     OW 2785   2.660   0.842   1.433 -0.3977 -0.2195  0.1775
  929SOL    HW1 2786   2.689   0.939   1.436  0.7455 -0.2805 -0.0413
  929SOL    HW2 2787   2.689   0.791   1.518  0.6917  1.1657 -0.3602
  930SOL     OW 2788   1.897   2.597   0.951 -0.0645  0.4548 -0.1051
  930SOL    HW1 2789   1.807   2.643   0.935  1.2954 -0.9856  0.4602
  930SOL    HW2 2790   1.874   2.502   0.980 -0.3536 -3.1020  0.3550
  931SOL     OW 2791   2.001   0.840   0.948 -0.3743 -0.0874  0.1228
  931SOL    HW1 2792   1.983   0.853   0.849  0.1601  0.3741  2.7008
  931SOL    HW2 2793   2.102   0.848   0.964 -0.1760 -2.0135  0.2192
  932SOL     OW 2794   0.033   0.601   1.443  0.4059  0.3217 -0.1717
  932SOL    HW1 2795   0.005   0.698   1.457  1.0534 -1.9924  0.3237
  932SOL    HW2 2796   3.065   0.538   1.463 -0.3643  4.5410 -0.7984
  933SOL     OW 2797   2.080   1.764   2.171  0.4989  0.2590  0.2551
  933SOL    HW1 2798   2.057   1.692   2.240  0.0783  0.2547  0.5450
  933SOL    HW2 2799   2.152   1.732   2.109  0.3966  0.2041  1.5120
  934SOL     OW 2800   1.788   3.002   1.515  0.2802 -0.0987 -0.0020
  934SOL    HW1 2801   1.803   3.081   1.456  0.3347 -0.6320  2.7390
  934SOL    HW2 2802   1.710   2.949   1.476 -0.9046 -0.6448  1.4060
  935SOL     OW 2803   0.474   0.779   1.421  0.2795  0.2866 -0.1701
  935SOL    HW1 2804   0.402   0.712   1.398  1.9881 -0.5767  1.9137
  935SOL    HW2 2805   0.535   0.748   1.495 -0.1961  1.5273 -0.6942
  936SOL     OW 2806   2.751   0.601   1.320  0.1353 -0.0594  0.3136
  936SOL    HW1 2807   2.676   0.562   1.254 -2.2523  0.1665 -2.3071
  936SOL    HW2 2808   2.717   0.684   1.369 -0.0529 -0.9757 -2.8675
  937SOL     OW 2809   1.095   2.914   0.972 -0.0858 -0.5300 -0.0773
  937SOL    HW1 2810   1.008   2.951   1.000  2.8827 -0.1999 -2.3040
  937SOL    HW2 2811   1.077   2.868   0.884  2.2103 -0.4446  1.4567
  938SOL     OW 2812   2.923   2.197   0.685 -0.2588  0.0567 -0.1898
  938SOL    HW1 2813   2.833   2.173   0.640 -1.7570 -2.3287 -2.0895
  938SOL    HW2 2814   2.937   2.132   0.764 -0.4379 -0.6922 -1.2829
  939SOL     OW 2815   0.094   1.829   2.833  0.6649  0.2675 -0.7657
  939SOL    HW1 2816   0.039   1.760   2.781  0.8774  1.3043  1.9330
  939SOL    HW2 2817   0.150   1.779   2.900  1.7247 -0.2168  4.4025
  940SOL     OW 2818   2.340   2.710   2.816 -0.3661 -0.2090  0.0105
  940SOL    HW1 2819   2.391   2.679   2.734  0.1636  0.0840  1.2677
  940SOL    HW2 2820   2.392   2.786   2.858  0.2641  0.7010  1.5467
  941SOL     OW 2821   1.531   2.930   0.022 -0.1403  0.5965 -0.4220
  941SOL    HW1 2822   1.562   2.831   0.031 -0.3303 -4.6374  0.4889
  941SOL    HW2 2823   1.609   2.997   0.020  1.1782 -0.6884  0.6940
  942SOL     OW 2824   1.648   2.057   1.550  0.5104 -0.1204  0.4694
  942SOL    HW1 2825   1.640   1.975   1.606 -0.2677  0.9718  0.5465
  942SOL    HW2 2826   1.655   2.139   1.612  1.8683 -0.2409  1.1099
  943SOL     OW 2827   1.785   0.804   1.797 -0.2167  0.1534  0.0393
  943SOL    HW1 2828   1.759   0.766   1.707  0.2655  1.0223  1.4925
  943SOL    HW2 2829   1.715   0.783   1.870 -1.4968 -0.5902  1.3822
  944SOL     OW 2830   1.263   0.767   1.831 -0.0519 -0.5600  0.2065
  944SOL    HW1 2831   1.318   0.833   1.778  0.1160  2.7409  1.6334
  944SOL    HW2 2832   1.253   0.674   1.787  2.5088 -0.3699  1.5406
  945SOL     OW 2833   2.714   2.342   1.184 -0.8207 -1.1215  0.1531
  945SOL    HW1 2834   2.758   2.421   1.134 -0.9031 -0.9207  0.5739
  945SOL    HW2 2835   2.789   2.275   1.215  0.7333  1.8953 -0.7224
  946SOL     OW 2836   0.763   1.101   1.541 -0.4152  0.1413  0.1479
  946SOL    HW1 2837   0.838   1.156   1.512 -0.8142  0.3796  2.2562
  946SOL    HW2 2838   0.687   1.161   1.584 -0.9795  0.0623  0.5224
  947SOL     OW 2839   0.568   2.559   0.715 -0.3716 -0.1252 -0.0595
  947SOL    HW1 2840   0.539   2.496   0.787 -0.5416 -0.3811 -1.4093
  947SOL    HW2 2841   0.486   2.589   0.655 -1.3561  0.5992  0.1105
  948SOL     OW 2842   3.025   1.458   1.853  0.2934  0.3862 -0.3602
  948SOL    HW1 2843   3.104   1.400   1.878  2.2126 -0.8283 -0.4422
  948SOL    HW2 2844   3.044   1.514   1.765 -0.2221  1.7441  0.4156
  949SOL     OW 2845   0.452   0.373   2.100 -0.5390  0.2258 -0.1396
  949SOL    HW1 2846   0.539   0.402   2.149 -0.5074  1.5719  0.8807
  949SOL    HW2 2847   0.399   0.453   2.063 -0.1405  0.0486  0.4473
  950SOL     OW 2848   0.456   0.692   0.800  0.4245  0.2926 -1.1119
  950SOL    HW1 2849   0.535   0.714   0.857  3.7314  0.0974  3.4951
  950SOL    HW2 2850   0.419   0.783   0.766  0.1615  2.3009  0.3228
  951SOL     OW 2851   1.007   1.679   2.448  0.5388  0.0380  0.3653
  951SOL    HW1 2852   1.054   1.589   2.431  1.0413 -0.6617 -2.2142
  951SOL    HW2 2853   0.952   1.672   2.532  0.1730  0.0361 -1.6694
  952SOL     OW 2854   1.208   1.339   2.859 -0.2807 -0.0429  0.6862
  952SOL    HW1 2855   1.244   1.341   2.766 -0.3711 -3.0396 -0.5333
  952SOL    HW2 2856   1.263   1.399   2.919  0.0245 -1.3472 -1.7566
  953SOL     OW 2857   0.943   2.597   2.204  0.1062  0.5495  0.4344
  953SOL    HW1 2858   0.936   2.622   2.106  0.6247 -0.3923  0.9357
  953SOL    HW2 2859   0.876   2.653   2.253 -0.3325 -0.7565  2.7351
  954SOL     OW 2860   2.307   1.555   0.698  0.2302  0.3615  0.4781
  954SOL    HW1 2861   2.354   1.643   0.676  0.3872  3.2327  0.2693
  954SOL    HW2 2862   2.360   1.474   0.667  2.4138  3.6030  0.0692
  955SOL     OW 2863   3.092   2.342   2.760  0.1879  0.1232  0.2540
  955SOL    HW1 2864   0.035   2.413   2.708  1.0438 -2.5893 -1.2057
  955SOL    HW2 2865   2.998   2.374   2.779  0.4744 -1.7822 -1.2463
  956SOL     OW 2866   1.045   0.743   1.438  0.3308  0.1897  0.3504
  956SOL    HW1 2867   1.118   0.679   1.403  2.1043  2.3049  1.0829
  956SOL    HW2 2868   1.069   0.840   1.408 -0.3086  1.2534  1.0171
  957SOL     OW 2869   2.009   1.529   2.304 -0.2702  0.1627 -0.4079
  957SOL    HW1 2870   2.009   1.464   2.227  0.7427  1.9206  0.3379
  957SOL    HW2 2871   1.913   1.533   2.347 -1.2356  0.4112  1.5200
  958SOL     OW 2872   1.705   2.548   1.308  0.0644 -0.1911 -0.0509
  958SOL    HW1 2873   1.775   2.620   1.332  0.0251 -0.1466  0.3188
  958SOL    HW2 2874   1.739   2.466   1.359  0.1948  0.5766  0.9740
  959SOL     OW 2875   1.658   1.642   2.018 -0.1018  0.0775 -0.8540
  959SOL    HW1 2876   1.712   1.729   2.032 -0.6287 -2.2604  1.2156
  959SOL    HW2 2877   1.592   1.655   1.943 -0.5474 -2.2005  0.0548
  960SOL     OW 2878   2.947   0.922   2.644 -0.3608 -0.3714  0.4926
  960SOL    HW1 2879   2.986   0.959   2.731 -0.9726 -1.2403  0.1671
  960SOL    HW2 2880   3.013   0.926   2.569 -0.4220 -1.1152  3.1086
  961SOL     OW 2881   0.366   0.614   2.010  0.2875  0.2537  0.1669
  961SOL    HW1 2882   0.293   0.650   1.950  0.4390 -0.0703 -0.0797
  961SOL    HW2 2883   0.447   0.658   1.980 -1.2538  0.3601  0.5210
  962SOL     OW 2884   1.540   1.579   0.537  0.7387 -0.4863 -0.0433
  962SOL    HW1 2885   1.439   1.577   0.547  5.1023  1.2034 -0.8795
  962SOL    HW2 2886   1.574   1.483   0.549 -2.0239 -0.9460  1.2928
  963SOL     OW 2887   1.315   2.375   2.762  0.0753 -0.3526 -0.0875
  963SOL    HW1 2888   1.222   2.418   2.744 -1.4248  3.7381  0.2903
  963SOL    HW2 2889   1.327   2.287   2.706 -1.8084 -0.1337 -0.4193
  964SOL     OW 2890   1.087   2.372   0.366  0.0874 -0.3328  0.2817
  964SOL    HW1 2891   1.015   2.392   0.299  1.1208  2.1184 -1.4652
  964SOL    HW2 2892   1.132   2.459   0.389 -1.2117 -1.4195  0.4028
  965SOL     OW 2893   0.827   3.013   1.021  0.2648 -0.3833  0.4109
  965SOL    HW1 2894   0.734   3.001   1.061 -2.0547 -3.4145  2.1486
  965SOL    HW2 2895   0.825   3.089   0.946 -3.8000  3.9591 -2.2121
  966SOL     OW 2896   3.039   1.002   2.898  0.0586  0.4245 -0.1267
  966SOL    HW1 2897   3.040   1.100   2.915  1.9948  0.9035  2.9814
  966SOL    HW2 2898   2.990   0.947   2.964  2.2561  4.4807 -1.4466
  967SOL     OW 2899   0.951   2.830   1.602 -0.1692 -0.6757  0.0841
  967SOL    HW1 2900   0.884   2.903   1.604  0.7283  0.3477 -0.6372
  967SOL    HW2 2901   1.018   2.842   1.672 -1.3641  0.4972 -0.2225
  968SOL     OW 2902   1.933   0.355   0.302  0.3560 -0.2205  0.2111
  968SOL    HW1 2903   1.993   0.293   0.355 -0.3471  0.5565 -0.3213
  968SOL    HW2 2904   1.884   0.430   0.358 -1.3988  1.5829  0.3434
  969SOL     OW 2905   2.892   1.800   1.884 -0.0284 -0.5174 -0.4165
  969SOL    HW1 2906   2.869   1.781   1.783  2.7614 -1.9341 -3.0532
  969SOL    HW2 2907   2.993   1.786   1.906  2.1333  0.7060  1.0720
  970SOL     OW 2908   2.287   1.134   1.531 -0.6104 -0.1981 -0.3726
  970SOL    HW1 2909   2.243   1.180   1.452  0.0678 -0.5141 -0.7455
  970SOL    HW2 2910   2.386   1.155   1.525  2.5795 -0.1497 -1.3353
  971SOL     OW 2911   1.895   0.380   1.386  0.3743 -0.5758 -0.0465
  971SOL    HW1 2912   1.990   0.359   1.376 -4.6428 -1.2472 -0.1711
  971SOL    HW2 2913   1.852   0.399   1.293 -2.3456 -2.0921  0.0851
  972SOL     OW 2914   0.426   2.996   1.858 -0.0083  0.0522  0.3275
  972SOL    HW1 2915   0.504   3.039   1.812  0.0583  2.0853  1.8754
  972SOL    HW2 2916   0.359   3.068   1.886 -1.0177  2.1475  0.2364
  973SOL     OW 2917   2.768   0.979   0.188 -0.0221 -0.0929 -0.4231
  973SOL    HW1 2918   2.672   0.957   0.174  2.0395  1.0169  0.5464
  973SOL    HW2 2919   2.792   0.966   0.286  0.0625 -0.3483 -0.8298
  974SOL     OW 2920   1.728   1.436   2.422 -0.8439 -0.1284 -0.6550
  974SOL    HW1 2921   1.672   1.389   2.353 -0.3383  1.4197  1.6141
  974SOL    HW2 2922   1.685   1.522   2.457 -0.4897  0.0287  0.7353
  975SOL     OW 2923   0.061   2.620   1.062  0.3078  0.2643  0.8752
  975SOL    HW1 2924   3.100   2.647   0.985  0.0479  0.3419 -1.9961
  975SOL    HW2 2925   0.039   2.665   1.151  2.4844  0.0341 -2.6110
  976SOL     OW 2926   3.086   1.605   1.613 -0.2592  0.1280 -0.4937
  976SOL    HW1 2927   0.068   1.599   1.663 -0.5064  1.0265 -1.5315
  976SOL    HW2 2928   0.001   1.613   1.514  0.9673  1.5793  0.3018
  977SOL     OW 2929   0.670   2.396   2.932  0.0423  0.3518  0.1821
  977SOL    HW1 2930   0.671   2.391   2.832  1.9474  0.3542  2.2083
  977SOL    HW2 2931   0.764   2.407   2.970 -1.6000  0.1219 -1.1971
  978SOL     OW 2932   0.588   1.793   2.435  0.7396  0.1739  0.0903
  978SOL    HW1 2933   0.658   1.780   2.364 -1.2263  1.2971 -1.4681
  978SOL    HW2 2934   0.578   1.899   2.447  0.4247  3.6178  3.5452
  979SOL     OW 2935   1.612   2.450   1.077  0.6073  0.1068 -0.2860
  979SOL    HW1 2936   1.658   2.493   1.157  4.0543 -1.8903 -1.3301
  979SOL    HW2 2937   1.670   2.379   1.035  0.7202  1.3958  2.0512
  980SOL     OW 2938   0.870   1.473   0.012 -0.0242 -0.0301 -0.3934
  980SOL    HW1 2939   0.787   1.522   3.085  1.5867 -2.3652  1.3887
  980SOL    HW2 2940   0.946   1.539   0.031  2.8018 -1.3509 -1.1038
  981SOL     OW 2941   2.736   0.054   2.563 -0.2830 -0.3508  0.1968
  981SOL    HW1 2942   2.672   0.051   2.485 -1.1811  0.3685  1.9991
  981SOL    HW2 2943   2.802   0.132   2.559 -0.1731  0.5417  0.0674
  982SOL     OW 2944   0.189   2.710   2.838 -0.4887 -0.3398 -0.2469
  982SOL    HW1 2945   0.180   2.664   2.749 -2.0811  2.6639  1.2136
  982SOL    HW2 2946   0.163   2.657   2.919  1.4688 -0.8359  2.0275
  983SOL     OW 2947   2.372   1.106   2.021 -0.2039 -0.1638  0.3506
  983SOL    HW1 2948   2.410   1.178   2.080 -0.0587 -1.7582 -0.3268
  983SOL    HW2 2949   2.421   1.122   1.930  2.3149  4.6345 -2.0576
  984SOL     OW 2950   1.491   0.293   2.146  0.5776 -0.1427 -0.4457
  984SOL    HW1 2951   1.555   0.303   2.225 -0.2026 -3.0776 -0.5913
  984SOL    HW2 2952   1.511   0.373   2.082  2.2002  0.2886  1.2488
  985SOL     OW 2953   1.335   2.031   2.180 -0.0409 -0.5015 -0.0375
  985SOL    HW1 2954   1.337   1.955   2.115 -0.0927  2.1727  1.8574
  985SOL    HW2 2955   1.355   1.985   2.271  3.0564  1.5675  0.0583
  986SOL     OW 2956   1.989   0.232   2.193  0.0884  0.1025  0.1242
  986SOL    HW1 2957   2.048   0.271   2.120  2.3056  0.6500 -0.0378
  986SOL    HW2 2958   1.891   0.231   2.165 -0.4805  1.1138  0.4328
  987SOL     OW 2959   2.038   0.732   1.934 -0.0899  0.0263  1.0800
  987SOL    HW1 2960   2.126   0.751   1.885 -1.4061 -0.1270  0.2707
  987SOL    HW2 2961   1.958   0.775   1.884  0.1010 -1.8714  2.0793
  988SOL     OW 2962   2.528   0.661   2.441 -0.3301  0.1389 -0.1193
  988SOL    HW1 2963   2.518   0.728   2.365 -0.4805  1.2352 -2.3637
  988SOL    HW2 2964   2.439   0.627   2.473 -1.3480  0.3787 -0.8529
  989SOL     OW 2965   2.500   2.706   2.588 -0.2539 -0.0102  0.2543
  989SOL    HW1 2966   2.443   2.688   2.506 -1.2807  3.0998  0.4237
  989SOL    HW2 2967   2.597   2.672   2.578 -1.3032 -2.8610  0.0911
  990SOL     OW 2968   0.470   0.656   2.953 -0.1373 -0.0324 -0.2134
  990SOL    HW1 2969   0.460   0.751   2.918 -0.8048 -2.5543 -0.3748
  990SOL    HW2 2970   0.407   0.640   3.034  0.8877  3.1861 -1.2715
  991SOL     OW 2971   0.858   0.557   2.788 -0.1361  0.0485 -0.0610
  991SOL    HW1 2972   0.780   0.490   2.791  2.7903  1.7310  1.2882
  991SOL    HW2 2973   0.943   0.510   2.750  0.7336 -0.3327 -2.3314
  992SOL     OW 2974   2.789   2.319   2.566  0.3880 -0.0944  0.7181
  992SOL    HW1 2975   2.861   2.330   2.491  1.3555  3.2949 -0.4430
  992SOL    HW2 2976   2.750   2.416   2.586  3.0614  1.0991 -1.1473
  993SOL     OW 2977   0.519   0.020   0.275 -0.0679 -0.4237  0.6778
  993SOL    HW1 2978   0.529   3.047   0.339  0.5232 -0.7795 -0.6858
  993SOL    HW2 2979   0.451   0.003   0.200 -2.2573 -0.2298 -1.7835
  994SOL     OW 2980   0.317   2.114   1.443 -1.1888  0.2004  0.6441
  994SOL    HW1 2981   0.318   2.113   1.542  0.6776  1.7720  0.2115
  994SOL    HW2 2982   0.246   2.179   1.408  1.0745 -0.0112  2.5289
  995SOL     OW 2983   2.182   2.058   0.163 -0.2353  0.1655 -0.3044
  995SOL    HW1 2984   2.253   1.998   0.118 -2.0429  0.7894  0.7056
  995SOL    HW2 2985   2.104   2.002   0.207 -1.7594  0.3772  1.0620
  996SOL     OW 2986   1.468   1.532   2.541 -0.2576 -0.0578  0.1939
  996SOL    HW1 2987   1.469   1.571   2.443 -0.4947 -1.3417 -0.2376
  996SOL    HW2 2988   1.485   1.611   2.603 -1.9615  0.8468 -1.2484
  997SOL     OW 2989   1.850   1.124   1.457 -0.3497 -0.0808  0.2756
  997SOL    HW1 2990   1.929   1.169   1.510  0.9779 -2.4555 -2.0345
  997SOL    HW2 2991   1.880   1.027   1.437 -0.6280  1.5134 -1.0666
  998SOL     OW 2992   2.879   1.634   0.291 -0.5837 -0.1470  0.2527
  998SOL    HW1 2993   2.849   1.547   0.333 -1.9347  1.4028  1.2023
  998SOL    HW2 2994   2.880   1.626   0.189  0.4283 -1.9559  2.5950
  999SOL     OW 2995   2.766   2.543   0.222 -0.0341 -0.0066 -0.3585
  999SOL    HW1 2996   2.680   2.596   0.201 -0.4889  0.5061 -0.7250
  999SOL    HW2 2997   2.757   2.489   0.309  2.2184 -0.9375  0.7441
 1000SOL     OW 2998   0.801   2.934   1.921  0.3849  0.3199 -0.3547
 1000SOL    HW1 2999   0.733   3.002   1.879 -0.8486 -0.1249  0.9154
 1000SOL    HW2 3000   0.761   2.837   1.917 -1.2141  0.5595  0.6879
   3.10609   3.10609   3.10609
