1000 SPC/Fw water molecules t=  61.00000 step= 61000
 3000
    1SOL     OW    1   2.215   2.621   0.888 -0.0556 -0.4402  0.0010
    1SOL    HW1    2   2.136   2.644   0.828 -0.9700  0.4789 -1.0448
    1SOL    HW2    3   2.260   2.707   0.917 -1.9427  1.0218 -0.7712
    2SOL     OW    4   0.925   1.088   2.653 -0.4238 -0.7526 -0.2225
    2SOL    HW1    5   0.862   1.143   2.718 -1.5567  2.9152  0.6902
    2SOL    HW2    6   1.021   1.077   2.687  5.2449 -1.5198  0.4768
    3SOL     OW    7   1.257   2.721   2.671  0.2190 -0.1032 -0.1392
    3SOL    HW1    8   1.352   2.753   2.658 -1.2981 -0.2068  0.9956
    3SOL    HW2    9   1.247   2.620   2.676  1.0765 -1.1195  0.3122
    4SOL     OW   10   1.333   1.590   2.903  0.3401 -0.5207 -0.0979
    4SOL    HW1   11   1.390   1.500   2.910  0.9762 -0.8679 -1.0472
    4SOL    HW2   12   1.389   1.668   2.870  0.7573  1.4918  1.4007
    5SOL     OW   13   0.811   0.823   1.949  0.0592 -0.2271 -0.0317
    5SOL    HW1   14   0.863   0.746   1.995 -0.2738  0.7344  1.1930
    5SOL    HW2   15   0.710   0.806   1.967  0.0164 -0.7603 -1.0096
    6SOL     OW   16   1.858   0.700   2.577 -0.6683  0.1266  0.2592
    6SOL    HW1   17   1.925   0.661   2.504  0.8955 -2.2692 -0.0179
    6SOL    HW2   18   1.768   0.652   2.571  0.7778 -0.9068 -0.1889
    7SOL     OW   19   0.212   0.438   1.526  0.1163 -0.2175 -0.4341
    7SOL    HW1   20   0.140   0.483   1.467 -0.4817  1.7243  0.3537
    7SOL    HW2   21   0.171   0.403   1.612 -3.8101  0.2880 -1.2831
    8SOL     OW   22   1.914   0.002   1.977  0.3820 -0.0242 -0.4306
    8SOL    HW1   23   1.859   3.064   1.985  2.3052 -2.8044 -0.2105
    8SOL    HW2   24   1.850   0.082   1.985  2.0183 -1.3531  0.6327
    9SOL     OW   25   0.337   0.081   0.629 -0.6346  0.6054 -0.0163
    9SOL    HW1   26   0.243   0.114   0.627  1.5607  1.4215  1.7836
    9SOL    HW2   27   0.369   0.069   0.533  4.1299 -1.3373 -0.6753
   10SOL     OW   28   0.503   2.192   2.213  0.0856 -0.1457  0.2490
   10SOL    HW1   29   0.575   2.122   2.224 -1.2356  0.4528  0.3108
   10SOL    HW2   30   0.539   2.290   2.221  0.9072 -0.2681  1.6004
   11SOL     OW   31   0.925   1.488   0.234  0.7415 -0.1410  0.4408
   11SOL    HW1   32   0.867   1.475   0.146 -0.9004  2.2566 -2.5770
   11SOL    HW2   33   0.877   1.548   0.298  1.0742  0.3679 -1.2641
   12SOL     OW   34   2.856   2.423   1.370  0.0337  0.6303  0.4338
   12SOL    HW1   35   2.932   2.424   1.436  2.3725  0.6519 -1.3979
   12SOL    HW2   36   2.799   2.336   1.377  0.2019 -2.8530  0.4867
   13SOL     OW   37   0.688   2.998   2.985  0.1669  0.2005 -0.1483
   13SOL    HW1   38   0.723   3.077   3.037 -1.7523  0.1903  0.4983
   13SOL    HW2   39   0.629   2.937   3.047  0.2149 -1.6257  2.3094
   14SOL     OW   40   1.591   1.757   1.495 -0.0693  0.0009  0.7287
   14SOL    HW1   41   1.533   1.778   1.575  1.3104 -0.6016 -0.9357
   14SOL    HW2   42   1.690   1.757   1.524 -0.6753  1.3154 -1.0482
   15SOL     OW   43   0.257   1.868   2.557 -0.0082 -1.0106  0.7916
   15SOL    HW1   44   0.324   1.860   2.634  1.2300  0.4191 -1.9959
   15SOL    HW2   45   0.294   1.931   2.482 -0.5421  1.3533 -3.0586
   16SOL     OW   46   1.594   0.428   2.882 -0.4260  0.6014  0.5767
   16SOL    HW1   47   1.640   0.467   2.801  0.3630  0.2734 -1.6149
   16SOL    HW2   48   1.528   0.492   2.922  1.7845 -0.7332  0.0698
   17SOL     OW   49   2.989   2.703   2.560 -0.1370 -0.0312 -0.0170
   17SOL    HW1   50   2.986   2.614   2.608  1.6659  0.0779 -0.6861
   17SOL    HW2   51   3.001   2.682   2.458 -1.3876 -0.3502 -1.3615
   18SOL     OW   52   1.156   1.292   0.846 -0.2008 -0.2602  0.2895
   18SOL    HW1   53   1.131   1.374   0.793 -2.0864  0.0563 -0.9638
   18SOL    HW2   54   1.086   1.266   0.912 -0.6008 -0.1935 -2.3728
   19SOL     OW   55   2.750   1.999   2.463  0.4338  0.3114 -0.1110
   19SOL    HW1   56   2.842   2.006   2.505  2.1204  0.5735 -0.2284
   19SOL    HW2   57   2.676   2.051   2.505  0.4637 -1.2816 -3.9224
   20SOL     OW   58   2.391   2.393   2.557 -0.6873 -0.1273  0.5596
   20SOL    HW1   59   2.437   2.388   2.466 -1.1729  1.5618 -1.3510
   20SOL    HW2   60   2.294   2.398   2.546  4.3124 -1.8782  1.8840
   21SOL     OW   61   1.729   1.785   0.375  0.1109 -0.0350  0.0201
   21SOL    HW1   62   1.694   1.723   0.451 -0.5275 -1.1803 -2.8172
   21SOL    HW2   63   1.711   1.881   0.402  0.6160  1.5906 -1.6502
   22SOL     OW   64   2.376   2.023   1.446 -0.4734  0.4191  0.3727
   22SOL    HW1   65   2.468   1.993   1.403  0.4792 -1.0530 -0.1267
   22SOL    HW2   66   2.383   2.114   1.483  2.8619 -0.9651 -0.7715
   23SOL     OW   67   3.121   1.263   1.279 -0.2129 -0.1602 -0.0620
   23SOL    HW1   68   3.028   1.306   1.283 -1.5665 -0.8564 -1.4187
   23SOL    HW2   69   3.120   1.176   1.229 -1.1252  3.1030  0.3988
   24SOL     OW   70   2.353   1.358   1.960  0.4074 -0.0773  0.2843
   24SOL    HW1   71   2.438   1.310   1.926  2.5095  2.0680  0.3166
   24SOL    HW2   72   2.301   1.288   2.015  1.8742 -2.2582  0.9992
   25SOL     OW   73   2.031   0.222   2.525 -0.0751  0.0514  0.3357
   25SOL    HW1   74   2.024   0.141   2.587  1.7587  0.7094  0.9589
   25SOL    HW2   75   2.049   0.196   2.428 -0.3567  0.6186 -1.7700
   26SOL     OW   76   1.190   3.050   0.322  0.1953 -0.6527 -0.0055
   26SOL    HW1   77   1.180   0.006   0.334  0.2361 -0.1909 -0.1754
   26SOL    HW2   78   1.171   3.009   0.412 -1.7269 -0.6754 -0.1622
   27SOL     OW   79   0.756   1.859   0.927 -0.1681 -0.4107  0.0268
   27SOL    HW1   80   0.726   1.843   0.829 -0.3427 -1.6196  1.6446
   27SOL    HW2   81   0.727   1.784   0.990 -1.4504 -0.4070 -0.3769
   28SOL     OW   82   2.471   2.141   1.048  0.6994 -0.0331  0.4758
   28SOL    HW1   83   2.424   2.059   1.082 -1.4298  1.7696 -0.3912
   28SOL    HW2   84   2.468   2.212   1.121 -0.3649 -0.2512  4.2153
   29SOL     OW   85   2.097   3.120   1.772 -0.2282 -0.4521 -0.0260
   29SOL    HW1   86   2.027   3.127   1.845  1.3068  0.1041 -0.4070
   29SOL    HW2   87   2.183   3.079   1.810  3.0172  0.8036  0.5618
   30SOL     OW   88   0.674   2.977   1.297 -0.2099  0.4104 -0.1020
   30SOL    HW1   89   0.610   3.026   1.364 -0.2627  1.1300  0.2174
   30SOL    HW2   90   0.741   3.044   1.257 -0.7759 -1.3553  1.9560
   31SOL     OW   91   3.106   1.937   2.084  0.0193  0.1173  0.1513
   31SOL    HW1   92   0.016   1.949   2.000 -0.0205 -2.1316  0.7967
   31SOL    HW2   93   3.104   1.842   2.115  2.8673 -1.6655 -0.6230
   32SOL     OW   94   1.387   1.780   2.280  0.0822 -0.1503  0.1933
   32SOL    HW1   95   1.303   1.725   2.280  1.2309  0.7821 -0.2632
   32SOL    HW2   96   1.460   1.738   2.225  2.1555 -0.3497  0.4097
   33SOL     OW   97   0.296   0.220   3.076 -0.6189 -0.3018  0.1546
   33SOL    HW1   98   0.367   0.252   3.014 -0.0724 -0.4248  0.5959
   33SOL    HW2   99   0.306   0.115   3.081  0.6440 -0.4693 -0.3110
   34SOL     OW  100   2.569   2.986   0.606  0.2781 -0.1649 -0.1968
   34SOL    HW1  101   2.515   3.039   0.673 -4.2359  0.4527 -0.3624
   34SOL    HW2  102   2.639   2.931   0.655 -0.5510 -1.8828 -0.0657
   35SOL     OW  103   2.823   0.277   1.607  0.5227  0.8206  0.4095
   35SOL    HW1  104   2.870   0.364   1.619 -0.8128  0.7249  2.0041
   35SOL    HW2  105   2.818   0.248   1.512  1.2404 -0.2203 -0.3182
   36SOL     OW  106   2.857   3.076   2.290  0.2419 -0.0310 -0.6116
   36SOL    HW1  107   2.767   3.055   2.260  2.1718 -0.1479 -0.6618
   36SOL    HW2  108   2.925   3.018   2.247 -0.0567  4.3213  0.3675
   37SOL     OW  109   1.531   2.816   0.058 -0.2407 -0.6082  0.5366
   37SOL    HW1  110   1.542   2.897   0.119  0.5851  0.4483 -0.9450
   37SOL    HW2  111   1.431   2.786   0.063 -1.4667  1.6426  0.8753
   38SOL     OW  112   0.038   0.852   3.051  0.4448  0.2192  0.2368
   38SOL    HW1  113   3.108   0.783   3.043 -0.9061 -0.2421 -0.9176
   38SOL    HW2  114   0.078   0.862   2.959 -1.6976  0.3706  0.4909
   39SOL     OW  115   1.673   1.724   1.985 -0.0343  0.0828 -0.4070
   39SOL    HW1  116   1.654   1.822   1.981  2.4486 -0.7107 -0.1995
   39SOL    HW2  117   1.605   1.676   2.048  1.7881  0.4105  0.3737
   40SOL     OW  118   0.182   0.471   2.666  0.3331 -0.6035  0.4584
   40SOL    HW1  119   0.087   0.445   2.684  0.1109  1.4705 -2.4842
   40SOL    HW2  120   0.232   0.385   2.646 -1.6129  0.7594 -0.1841
   41SOL     OW  121   1.792   1.257   1.859  0.2686 -0.1558  0.2604
   41SOL    HW1  122   1.736   1.275   1.941  0.7197 -1.1402  0.7621
   41SOL    HW2  123   1.766   1.317   1.782  0.5718  1.9633  2.0545
   42SOL     OW  124   3.135   0.122   1.611 -0.0740 -0.5105 -0.1452
   42SOL    HW1  125   3.039   0.152   1.605  3.6603 -0.0100  0.6822
   42SOL    HW2  126   0.026   0.138   1.706 -0.4184 -0.5943 -1.3047
   43SOL     OW  127   1.392   1.184   1.728  0.6228 -0.2944 -0.0488
   43SOL    HW1  128   1.304   1.233   1.744  0.2734  2.2688 -0.7932
   43SOL    HW2  129   1.396   1.112   1.801  2.1207 -2.0676  0.4891
   44SOL     OW  130   3.014   0.388   2.948  0.0083 -0.3667 -0.2664
   44SOL    HW1  131   3.098   0.376   3.014  3.4729  1.0238  2.4464
   44SOL    HW2  132   2.953   0.304   2.942 -2.9155 -0.0871 -0.5881
   45SOL     OW  133   0.433   2.113   1.204 -0.6199 -0.6447 -0.0296
   45SOL    HW1  134   0.399   2.207   1.194 -0.5032 -3.5929  1.4988
   45SOL    HW2  135   0.400   2.052   1.130  0.4837 -0.1038  1.1641
   46SOL     OW  136   2.318   3.023   1.874 -0.3796 -0.1468  0.4101
   46SOL    HW1  137   2.377   3.077   1.945  3.2466  0.8501  0.3807
   46SOL    HW2  138   2.377   2.964   1.817 -0.0805 -0.4532  0.7226
   47SOL     OW  139   0.367   1.952   1.014 -0.1569 -0.0848  0.3269
   47SOL    HW1  140   0.431   1.887   0.966  2.6630 -1.6363 -0.5316
   47SOL    HW2  141   0.270   1.912   1.012  1.4556 -0.8511  0.5805
   48SOL     OW  142   0.554   2.939   0.079  0.0508  0.1525 -0.1513
   48SOL    HW1  143   0.568   3.001   0.156 -0.2067 -2.3886  0.7927
   48SOL    HW2  144   0.490   2.854   0.098  1.1515 -0.6934 -2.7614
   49SOL     OW  145   2.920   1.872   1.752  0.0055  0.4193 -0.2044
   49SOL    HW1  146   2.909   1.843   1.849  0.2246  0.4004 -0.4958
   49SOL    HW2  147   3.011   1.834   1.724  1.4740  0.8477  2.2229
   50SOL     OW  148   1.494   3.113   0.593 -0.5383 -0.0947 -0.0748
   50SOL    HW1  149   1.494   0.029   0.511 -0.2284  0.8426  1.2172
   50SOL    HW2  150   1.421   0.011   0.649  3.3389 -0.2659 -3.3009
   51SOL     OW  151   1.105   0.399   1.304  0.1357  0.2226  0.5322
   51SOL    HW1  152   1.203   0.424   1.287 -3.2098 -0.7332  0.9636
   51SOL    HW2  153   1.055   0.413   1.217  0.1212  0.6573  1.8499
   52SOL     OW  154   0.704   1.298   0.548  0.0662  0.2929 -0.4778
   52SOL    HW1  155   0.660   1.296   0.457  0.3791  2.3199  2.7184
   52SOL    HW2  156   0.653   1.239   0.613 -1.1773 -0.0466  1.0430
   53SOL     OW  157   1.439   3.007   2.486 -0.2088  0.0426  0.1523
   53SOL    HW1  158   1.521   3.065   2.492  0.0678  0.2748  0.1471
   53SOL    HW2  159   1.433   2.934   2.555  0.4722  2.0268 -0.4133
   54SOL     OW  160   1.672   0.575   1.733 -0.3031  0.2726  0.8137
   54SOL    HW1  161   1.693   0.578   1.633  1.2821  0.2816  0.1851
   54SOL    HW2  162   1.744   0.519   1.783 -0.3198 -0.0108  0.8740
   55SOL     OW  163   2.992   2.668   0.361 -0.0800  0.0155 -0.2112
   55SOL    HW1  164   3.056   2.724   0.419  1.5124  1.7010  1.8268
   55SOL    HW2  165   2.994   2.570   0.386 -1.0026  2.9138  0.6068
   56SOL     OW  166   1.063   2.915   1.763 -0.0768  0.0689 -0.3488
   56SOL    HW1  167   1.070   2.971   1.680  0.5440 -0.3234  1.1962
   56SOL    HW2  168   1.087   2.816   1.751  0.7631 -1.0540  0.1112
   57SOL     OW  169   1.791   0.956   2.469 -0.0559 -0.6694 -0.0366
   57SOL    HW1  170   1.804   0.889   2.541  0.7218  0.3614 -0.6083
   57SOL    HW2  171   1.825   0.919   2.382  0.2626 -2.8412  1.1581
   58SOL     OW  172   0.354   1.114   2.333 -0.4937 -0.1400  0.2598
   58SOL    HW1  173   0.339   1.205   2.285  1.0922  1.9103 -1.5845
   58SOL    HW2  174   0.305   1.039   2.287  0.6973  3.9622 -1.0591
   59SOL     OW  175   0.658   2.481   1.895  0.0398  0.2350 -0.1051
   59SOL    HW1  176   0.704   2.402   1.942  1.0091  0.0820  1.4174
   59SOL    HW2  177   0.732   2.539   1.848  0.7139 -0.9086  0.5571
   60SOL     OW  178   2.400   2.429   0.238  0.1670  0.1868  0.1970
   60SOL    HW1  179   2.446   2.347   0.197 -0.9928  2.4638  1.9166
   60SOL    HW2  180   2.409   2.510   0.180 -1.6461 -0.1349  1.4349
   61SOL     OW  181   1.216   2.787   0.717 -0.1178  0.4788 -0.0205
   61SOL    HW1  182   1.310   2.813   0.729 -3.6810 -2.2490  0.4140
   61SOL    HW2  183   1.197   2.723   0.643  0.9264  0.7032  1.1683
   62SOL     OW  184   1.695   2.352   2.922  0.4023  0.1362  0.5517
   62SOL    HW1  185   1.646   2.309   2.840  2.0486 -0.4051 -0.8730
   62SOL    HW2  186   1.678   2.305   3.013 -1.2428 -1.5490  0.8682
   63SOL     OW  187   2.270   0.627   3.042 -0.5632 -0.5115  0.1070
   63SOL    HW1  188   2.224   0.660   3.126  0.8583 -2.3119  2.4255
   63SOL    HW2  189   2.272   0.527   3.043  1.7774  2.1391  1.1035
   64SOL     OW  190   1.383   1.239   0.199 -0.1842  0.6961 -0.1580
   64SOL    HW1  191   1.315   1.276   0.132  1.2101 -1.1290  0.8305
   64SOL    HW2  192   1.339   1.240   0.291  1.1960 -0.1988 -1.5914
   65SOL     OW  193   1.009   3.139   1.559 -0.0363 -0.0241 -0.4737
   65SOL    HW1  194   1.090   3.082   1.530 -3.1159  0.0896 -0.0849
   65SOL    HW2  195   0.991   0.074   1.501 -0.1466  0.0307 -0.1539
   66SOL     OW  196   0.876   1.404   1.501  0.1019 -0.0013 -0.0203
   66SOL    HW1  197   0.835   1.319   1.541  1.0097  0.3896  0.7164
   66SOL    HW2  198   0.957   1.384   1.442 -0.8268  0.1054 -0.0964
   67SOL     OW  199   2.185   2.501   1.810 -0.2545  0.4529  0.5390
   67SOL    HW1  200   2.242   2.562   1.863 -1.0404 -1.0068 -0.4265
   67SOL    HW2  201   2.241   2.430   1.760 -0.7535 -1.0251 -1.2008
   68SOL     OW  202   0.965   1.197   1.866  0.0919  0.8834 -0.0211
   68SOL    HW1  203   0.886   1.239   1.900  2.7079 -1.9130 -1.6139
   68SOL    HW2  204   0.953   1.121   1.797  0.8355 -2.9407 -0.6487
   69SOL     OW  205   2.692   2.596   0.040 -0.4586 -0.1253 -0.7373
   69SOL    HW1  206   2.694   2.594   0.141  2.4568  0.0259  1.4467
   69SOL    HW2  207   2.595   2.603   0.015 -1.7757 -2.3214  0.4694
   70SOL     OW  208   2.410   0.738   2.624  0.3164  0.2314 -0.2619
   70SOL    HW1  209   2.467   0.795   2.690  0.6345  2.2259 -0.6972
   70SOL    HW2  210   2.470   0.663   2.585  0.1902  1.8262  0.9880
   71SOL     OW  211   0.067   1.862   0.604 -0.6541  0.5696  0.1555
   71SOL    HW1  212   0.077   1.818   0.516 -1.2807  2.1786 -1.5295
   71SOL    HW2  213   3.118   1.889   0.639 -2.1269 -1.1294  0.9514
   72SOL     OW  214   2.762   1.849   0.452  0.3877 -0.7204  0.2221
   72SOL    HW1  215   2.739   1.763   0.400 -2.7608 -1.3321  0.8548
   72SOL    HW2  216   2.749   1.935   0.397 -1.0067  1.9191 -1.3330
   73SOL     OW  217   0.921   0.618   0.809  0.1900 -0.1362  0.2275
   73SOL    HW1  218   0.849   0.569   0.864 -1.2520  0.4353 -0.2200
   73SOL    HW2  219   0.911   0.714   0.821 -0.1675 -2.4971 -2.1225
   74SOL     OW  220   2.720   2.318   2.112 -0.3408 -0.3397 -0.0126
   74SOL    HW1  221   2.715   2.227   2.069  2.5790 -0.7947 -1.1689
   74SOL    HW2  222   2.812   2.323   2.154 -1.3231 -0.3649  1.0848
   75SOL     OW  223   1.754   1.579   1.786  0.0159  0.1494  0.3718
   75SOL    HW1  224   1.744   1.647   1.865 -0.4041  1.2380  2.5263
   75SOL    HW2  225   1.667   1.532   1.769  0.9747 -1.9433 -0.1779
   76SOL     OW  226   1.169   1.985   1.197  0.3724  0.1274  0.4141
   76SOL    HW1  227   1.231   1.916   1.239  0.1862 -1.0943 -3.1723
   76SOL    HW2  228   1.083   1.998   1.248 -1.1828 -0.1346  1.2166
   77SOL     OW  229   2.838   1.759   2.030 -0.1981 -0.4782  0.3417
   77SOL    HW1  230   2.853   1.688   2.101 -0.3345 -0.7773  2.5083
   77SOL    HW2  231   2.836   1.851   2.073 -1.2263  0.8227 -1.0814
   78SOL     OW  232   1.829   0.678   0.671 -0.6956  0.0018  0.0632
   78SOL    HW1  233   1.867   0.766   0.705 -1.8742 -0.6810  0.0844
   78SOL    HW2  234   1.739   0.695   0.635  1.1996 -0.6083 -2.7172
   79SOL     OW  235   2.069   1.258   1.857  0.0465 -0.2303 -0.0258
   79SOL    HW1  236   2.096   1.219   1.948 -0.4478  1.7202 -0.9690
   79SOL    HW2  237   1.968   1.266   1.850  0.0978 -1.6858  1.3472
   80SOL     OW  238   1.057   0.448   1.562  0.0453  0.0874 -0.1619
   80SOL    HW1  239   1.072   0.440   1.459 -0.2155  0.8575 -4.5740
   80SOL    HW2  240   1.103   0.525   1.606 -1.8270 -1.5076  0.1137
   81SOL     OW  241   0.870   2.578   0.756  0.0086 -0.3653  0.7195
   81SOL    HW1  242   0.904   2.648   0.820 -1.7915  0.8696 -1.6089
   81SOL    HW2  243   0.914   2.488   0.779 -1.8618  1.8357 -2.3709
   82SOL     OW  244   1.271   0.350   1.932  0.1343 -0.2599  0.6303
   82SOL    HW1  245   1.348   0.390   1.870  3.4937  0.2011  1.0004
   82SOL    HW2  246   1.317   0.292   2.003  0.7174 -0.3591 -1.6903
   83SOL     OW  247   0.405   2.223   0.779 -0.1641 -0.3059 -0.1293
   83SOL    HW1  248   0.372   2.147   0.722  0.7929  3.8589  0.0490
   83SOL    HW2  249   0.332   2.243   0.849 -0.5121 -1.2766 -2.1649
   84SOL     OW  250   2.733   1.511   0.005 -0.0297  0.2230  0.0185
   84SOL    HW1  251   2.743   1.443   3.075  0.4696  2.1067  0.8388
   84SOL    HW2  252   2.766   1.605   3.125 -2.1739  0.1420 -1.2409
   85SOL     OW  253   2.524   2.429   1.921  0.2320  0.1626 -0.2466
   85SOL    HW1  254   2.513   2.400   1.823 -0.6456  2.0231 -1.7372
   85SOL    HW2  255   2.599   2.382   1.972  1.5772 -0.1507 -0.2638
   86SOL     OW  256   1.804   2.733   1.222 -0.1011 -0.0356  0.8578
   86SOL    HW1  257   1.903   2.736   1.258  0.7213 -0.3076  1.4860
   86SOL    HW2  258   1.802   2.790   1.135 -1.1656  1.6931  3.1150
   87SOL     OW  259   2.641   1.599   0.391  0.0798 -0.2810 -0.2106
   87SOL    HW1  260   2.564   1.635   0.334 -3.6258  1.0211 -1.5724
   87SOL    HW2  261   2.681   1.519   0.348  2.1524 -2.0963  2.1674
   88SOL     OW  262   0.995   0.363   1.060 -0.0871 -0.0670  0.3811
   88SOL    HW1  263   0.994   0.263   1.053  0.5207  2.7861  0.7517
   88SOL    HW2  264   0.909   0.407   1.027  0.6906 -1.4968  1.8147
   89SOL     OW  265   0.759   0.052   1.920  0.2711  0.1447 -0.3802
   89SOL    HW1  266   0.805   0.139   1.938 -0.3642 -2.5453 -0.8027
   89SOL    HW2  267   0.716   0.015   2.004  1.6126 -0.8737 -2.1595
   90SOL     OW  268   2.896   1.657   0.814  0.2255 -0.0598  0.2928
   90SOL    HW1  269   2.848   1.645   0.720  1.6160 -0.1780  0.7051
   90SOL    HW2  270   2.993   1.639   0.800 -2.5575 -0.5567  1.3310
   91SOL     OW  271   1.339   1.777   1.308  0.1907 -0.3102 -0.2200
   91SOL    HW1  272   1.405   1.783   1.389  0.3697 -1.2307  0.4656
   91SOL    HW2  273   1.321   1.678   1.287 -0.7160 -0.5683  0.5335
   92SOL     OW  274   2.664   3.061   1.630 -0.2895 -0.6833  0.4334
   92SOL    HW1  275   2.655   0.009   1.668  1.7251  0.2317 -0.8158
   92SOL    HW2  276   2.739   3.014   1.677 -0.4222  0.4416 -0.2597
   93SOL     OW  277   0.312   1.083   2.853 -0.1205  0.0092  0.1390
   93SOL    HW1  278   0.398   1.069   2.905  1.3208  1.0575 -2.5862
   93SOL    HW2  279   0.331   1.142   2.767 -0.8843  0.8456 -0.5482
   94SOL     OW  280   2.486   0.060   2.000  0.1069  0.3746  0.1642
   94SOL    HW1  281   2.484   0.137   2.065  0.6626 -3.5891 -0.3247
   94SOL    HW2  282   2.551   0.086   1.921  1.8831  1.0937 -2.2284
   95SOL     OW  283   1.655   0.720   2.160 -0.4045  0.1013 -0.1047
   95SOL    HW1  284   1.562   0.701   2.192  0.0054  1.4887 -0.9061
   95SOL    HW2  285   1.649   0.746   2.059  2.8622  0.3443 -0.4685
   96SOL     OW  286   2.909   0.685   1.813  0.0787 -0.5461  0.4801
   96SOL    HW1  287   2.919   0.656   1.907  1.5670  0.8744 -0.0658
   96SOL    HW2  288   2.897   0.787   1.815  0.2922  1.5448 -1.0644
   97SOL     OW  289   2.228   3.080   1.513 -0.2763 -0.3267 -0.1290
   97SOL    HW1  290   2.303   3.012   1.525 -0.6425  3.4194  1.6683
   97SOL    HW2  291   2.172   3.079   1.596  1.7099 -1.3699 -0.7227
   98SOL     OW  292   1.980   2.673   1.727  0.5896 -0.1499  0.1793
   98SOL    HW1  293   2.063   2.611   1.737  1.1139 -0.7715  0.0786
   98SOL    HW2  294   1.952   2.706   1.813  3.0936 -2.1177 -3.2285
   99SOL     OW  295   2.648   0.587   1.534 -0.0319 -0.2914  0.0249
   99SOL    HW1  296   2.595   0.497   1.543 -2.8619  1.0270 -0.3635
   99SOL    HW2  297   2.749   0.569   1.539  1.8871 -0.6733 -1.1155
  100SOL     OW  298   2.523   1.702   1.856 -0.0039 -0.0677  0.3284
  100SOL    HW1  299   2.460   1.742   1.928  0.5041 -0.1273 -1.6866
  100SOL    HW2  300   2.593   1.641   1.903  1.6046  0.3787 -1.4388
  101SOL     OW  301   2.160   0.088   0.071  0.7816  0.6427  0.2406
  101SOL    HW1  302   2.227   0.013   0.099  2.4534  1.2913  0.0582
  101SOL    HW2  303   2.182   0.179   0.101 -4.2057 -1.0711  0.2108
  102SOL     OW  304   0.620   0.748   1.346 -0.2936  0.5246 -0.0610
  102SOL    HW1  305   0.605   0.658   1.391  1.0560  0.8650  1.1257
  102SOL    HW2  306   0.606   0.741   1.245  2.3460 -0.7188 -1.9202
  103SOL     OW  307   3.015   0.167   2.273  0.2350 -0.0130 -1.2300
  103SOL    HW1  308   2.937   0.098   2.261 -0.3159 -3.3179  0.7589
  103SOL    HW2  309   3.103   0.122   2.284 -0.0551 -0.8334 -0.8644
  104SOL     OW  310   0.365   2.906   1.535 -0.1082 -0.1324  0.0554
  104SOL    HW1  311   0.422   2.989   1.522 -1.3451  1.2639  1.9482
  104SOL    HW2  312   0.398   2.852   1.614  1.3662  0.0067 -1.5763
  105SOL     OW  313   1.252   1.416   2.075  0.2439 -0.3880 -0.1980
  105SOL    HW1  314   1.194   1.492   2.107  0.1657 -0.1730  0.7183
  105SOL    HW2  315   1.205   1.328   2.088  0.3823 -0.1899 -1.0025
  106SOL     OW  316   1.911   0.393   0.754  0.1725 -0.1855  0.7412
  106SOL    HW1  317   1.976   0.415   0.831  0.0053 -2.2291 -0.7106
  106SOL    HW2  318   1.868   0.479   0.718 -0.4119 -0.5535 -0.9937
  107SOL     OW  319   0.570   1.013   1.518  0.3291  0.1220  0.2819
  107SOL    HW1  320   0.476   0.998   1.548  0.8834  0.0135 -0.3420
  107SOL    HW2  321   0.615   0.928   1.484 -0.3753  1.8153  0.4671
  108SOL     OW  322   0.030   0.595   2.341 -0.1867 -0.0429  0.5874
  108SOL    HW1  323   0.046   0.585   2.240  0.0432  0.7239 -0.3688
  108SOL    HW2  324   3.100   0.534   2.372  1.7112  2.3412  1.4034
  109SOL     OW  325   1.990   3.136   2.685 -0.1135 -0.4119  0.3106
  109SOL    HW1  326   1.996   0.034   2.777 -2.4068  1.4684 -2.2770
  109SOL    HW2  327   2.043   3.049   2.680  0.1823 -0.2401 -1.7231
  110SOL     OW  328   0.045   1.702   2.887  0.0187  0.3662  0.0375
  110SOL    HW1  329   3.115   1.701   2.961 -3.3301 -1.4443  1.3567
  110SOL    HW2  330   0.107   1.777   2.921  1.2325  1.1317 -1.2349
  111SOL     OW  331   2.804   0.612   2.411  0.4792  0.1446 -0.7186
  111SOL    HW1  332   2.707   0.589   2.446  0.1579  0.2303 -0.1193
  111SOL    HW2  333   2.863   0.530   2.425  2.5923  2.3713 -0.9871
  112SOL     OW  334   2.947   2.667   1.323 -0.1509 -0.3183 -0.0209
  112SOL    HW1  335   2.907   2.576   1.338  1.6095  1.1092 -0.9538
  112SOL    HW2  336   3.015   2.665   1.250 -1.3180 -2.7560  3.3069
  113SOL     OW  337   2.330   2.115   2.297 -0.0698 -0.6290 -0.0099
  113SOL    HW1  338   2.391   2.198   2.297 -2.2666  1.1349  0.6839
  113SOL    HW2  339   2.237   2.153   2.301 -0.3886  0.7023 -0.5330
  114SOL     OW  340   3.036   0.241   0.184 -0.3099 -0.2363  0.3812
  114SOL    HW1  341   2.999   0.144   0.179  1.1724 -0.9517 -0.5866
  114SOL    HW2  342   3.047   0.263   0.284  1.6557  1.8421  0.0578
  115SOL     OW  343   2.825   1.735   3.043  0.8981  0.0716  0.0850
  115SOL    HW1  344   2.914   1.723   3.086 -0.0798 -0.7057  0.3812
  115SOL    HW2  345   2.832   1.762   2.947 -0.4182  0.3791 -0.2951
  116SOL     OW  346   3.006   1.456   1.936 -0.1892  0.1695  0.2593
  116SOL    HW1  347   3.085   1.429   1.876 -0.1674 -0.5931 -1.1899
  116SOL    HW2  348   3.013   1.557   1.948 -0.7181  0.6293  0.4713
  117SOL     OW  349   2.062   0.296   1.206  0.0484  0.5341  0.2567
  117SOL    HW1  350   2.020   0.221   1.152 -0.3080 -2.3179 -0.0727
  117SOL    HW2  351   2.140   0.255   1.256  0.2914 -2.1892 -0.1717
  118SOL     OW  352   3.031   2.481   1.986 -0.4902  0.1229 -0.2891
  118SOL    HW1  353   2.987   2.525   1.907  1.4910 -0.9888  1.0151
  118SOL    HW2  354   3.120   2.527   2.003  2.0957  0.0403 -0.8198
  119SOL     OW  355   0.777   1.840   1.313 -0.4090 -0.5278  0.1358
  119SOL    HW1  356   0.821   1.932   1.307 -0.5815  1.6333 -0.2690
  119SOL    HW2  357   0.714   1.835   1.393 -0.6570  1.4127 -0.3257
  120SOL     OW  358   0.283   1.594   1.390 -0.4715  0.5212  0.2720
  120SOL    HW1  359   0.287   1.667   1.457 -0.0667 -0.4444  0.7223
  120SOL    HW2  360   0.186   1.571   1.368  2.3185 -0.6969 -0.1132
  121SOL     OW  361   1.920   1.353   0.940  0.3117  0.0318  0.3553
  121SOL    HW1  362   1.897   1.427   1.008 -1.5732  1.0040 -0.1336
  121SOL    HW2  363   1.864   1.358   0.859 -0.2555  1.0591 -1.0066
  122SOL     OW  364   1.824   2.013   2.554  0.1575 -0.1201 -0.0353
  122SOL    HW1  365   1.836   1.965   2.467 -1.3167  0.7587  0.0006
  122SOL    HW2  366   1.916   2.050   2.590  0.5601 -1.5598  1.6922
  123SOL     OW  367   2.915   0.013   0.205 -0.2920  0.6381  0.0710
  123SOL    HW1  368   2.991   3.097   0.182  0.4190  0.3773  0.7869
  123SOL    HW2  369   2.886   3.140   0.304  0.3999  2.2973  0.3953
  124SOL     OW  370   0.971   1.305   0.557 -0.5127 -0.1891 -0.3344
  124SOL    HW1  371   0.869   1.308   0.560  2.4469  0.9202  0.0564
  124SOL    HW2  372   1.010   1.386   0.604 -1.5325  0.9647 -0.0518
  125SOL     OW  373   0.250   1.311   2.155 -0.2513  0.0614 -0.2909
  125SOL    HW1  374   0.179   1.387   2.158  1.2418  1.5396  0.1415
  125SOL    HW2  375   0.317   1.330   2.079  0.1363  0.3824 -0.4927
  126SOL     OW  376   0.141   2.474   0.106  0.1867 -0.1362 -0.5271
  126SOL    HW1  377   0.165   2.450   0.205 -1.3334 -2.0604 -1.0861
  126SOL    HW2  378   0.088   2.560   0.105 -0.0471  1.3500  0.1000
  127SOL     OW  379   2.835   1.498   0.558  0.4590 -0.7361 -0.3954
  127SOL    HW1  380   2.743   1.543   0.540 -0.1672  0.4155 -2.4720
  127SOL    HW2  381   2.831   1.395   0.572 -0.9792 -0.3903 -0.1627
  128SOL     OW  382   1.267   1.047   0.759 -0.1511 -0.6503 -0.1756
  128SOL    HW1  383   1.234   1.145   0.765  0.9123 -1.1608  2.1669
  128SOL    HW2  384   1.340   1.030   0.830 -1.9074 -2.7658  0.9065
  129SOL     OW  385   2.396   1.895   1.110  0.5848  0.2829  0.7466
  129SOL    HW1  386   2.312   1.905   1.049 -2.4567 -0.0123  0.7440
  129SOL    HW2  387   2.383   1.825   1.182  0.2163 -2.5107  0.0132
  130SOL     OW  388   2.204   1.001   0.826 -0.1690  0.2797 -0.1228
  130SOL    HW1  389   2.281   0.981   0.891 -0.5360 -2.8249  2.3492
  130SOL    HW2  390   2.159   1.091   0.850 -0.6472  1.6539  0.4979
  131SOL     OW  391   2.963   1.200   2.588  0.1573 -0.3737  0.0092
  131SOL    HW1  392   2.886   1.142   2.564 -3.9478 -1.2334 -0.0856
  131SOL    HW2  393   3.054   1.160   2.572 -0.6651  0.3855 -2.4328
  132SOL     OW  394   1.600   1.319   2.050 -0.3433 -0.3328 -0.1925
  132SOL    HW1  395   1.651   1.311   2.137  3.2629 -0.8432 -0.6234
  132SOL    HW2  396   1.507   1.289   2.065  1.2475  0.0677  0.7315
  133SOL     OW  397   0.025   0.918   0.308 -0.1230 -0.0912 -0.3246
  133SOL    HW1  398   3.090   0.855   0.314  2.0842  1.7343 -1.0383
  133SOL    HW2  399   0.002   1.007   0.350  1.6515 -0.5049 -0.2302
  134SOL     OW  400   2.691   1.058   0.348 -0.1602  0.1112 -0.3259
  134SOL    HW1  401   2.779   1.074   0.301  2.8478 -0.0508 -1.2406
  134SOL    HW2  402   2.608   1.074   0.286 -2.0099 -0.2842 -1.4083
  135SOL     OW  403   1.666   0.833   0.006  0.0696  0.2823 -0.5336
  135SOL    HW1  404   1.700   0.819   3.058 -0.6874 -1.9600  2.9364
  135SOL    HW2  405   1.615   0.922   0.020  0.2782  0.5715 -0.1381
  136SOL     OW  406   1.808   1.984   1.686  0.1981 -0.3106 -0.3855
  136SOL    HW1  407   1.814   1.891   1.649 -0.9814  1.8337  1.0572
  136SOL    HW2  408   1.837   2.055   1.621 -4.0589  2.3382 -0.6989
  137SOL     OW  409   2.618   2.524   0.565 -0.3669 -0.5291 -0.2423
  137SOL    HW1  410   2.649   2.463   0.643  0.0650 -0.1771 -4.3086
  137SOL    HW2  411   2.517   2.513   0.543  1.2003 -0.4897  0.0329
  138SOL     OW  412   2.535   0.334   1.496 -0.0800  0.3524  0.4574
  138SOL    HW1  413   2.455   0.295   1.546  2.3189 -0.2161 -1.5957
  138SOL    HW2  414   2.560   0.272   1.416 -3.1638 -1.3449  1.1223
  139SOL     OW  415   2.654   0.197   2.515  0.4211  0.3569  0.4120
  139SOL    HW1  416   2.631   0.267   2.583  0.4893  0.1769 -1.5440
  139SOL    HW2  417   2.719   0.128   2.555 -0.3027  0.7216 -2.5916
  140SOL     OW  418   1.037   1.957   2.175  0.1821  0.3068 -0.1274
  140SOL    HW1  419   1.064   2.027   2.244  0.0956  2.9617  1.9248
  140SOL    HW2  420   1.120   1.918   2.131 -1.1197  0.5129 -0.9710
  141SOL     OW  421   0.864   0.772   2.336 -0.6044 -0.4544  0.6926
  141SOL    HW1  422   0.890   0.788   2.432  1.7429 -0.3607  1.3102
  141SOL    HW2  423   0.892   0.845   2.273 -0.3219 -2.1398 -0.5476
  142SOL     OW  424   2.720   2.738   2.817 -0.2102  0.4067 -0.4492
  142SOL    HW1  425   2.656   2.766   2.896  0.8277 -0.7560  0.9071
  142SOL    HW2  426   2.682   2.667   2.751  1.3878 -0.3159 -2.8512
  143SOL     OW  427   0.989   2.105   0.466  0.2723 -0.0267 -0.4334
  143SOL    HW1  428   1.070   2.163   0.467  0.5381 -1.5729  2.0956
  143SOL    HW2  429   0.942   2.109   0.557  1.1022 -1.9712  1.3660
  144SOL     OW  430   1.280   2.702   0.042  0.1308 -0.3576 -0.4063
  144SOL    HW1  431   1.211   2.688   3.111 -1.1598 -1.8757  1.7273
  144SOL    HW2  432   1.232   2.707   0.133 -2.7892  0.8643 -1.5670
  145SOL     OW  433   1.584   1.961   2.637  0.4312  0.1928 -0.2419
  145SOL    HW1  434   1.682   1.981   2.602 -1.5007 -2.0939 -0.7352
  145SOL    HW2  435   1.518   1.973   2.558 -1.0985  0.4116  0.9525
  146SOL     OW  436   2.306   3.099   2.922  0.4552  0.1938  0.6421
  146SOL    HW1  437   2.378   3.068   2.984  1.1650 -0.4922 -2.1140
  146SOL    HW2  438   2.224   3.036   2.912 -0.9186 -1.6065  0.6249
  147SOL     OW  439   2.773   1.102   1.165  0.1023  0.3537 -0.3146
  147SOL    HW1  440   2.821   1.161   1.096  0.5349  0.2308 -0.8335
  147SOL    HW2  441   2.679   1.138   1.169  0.1678  1.2070  0.7096
  148SOL     OW  442   2.188   2.798   0.060  0.5628 -0.2201 -0.0011
  148SOL    HW1  443   2.127   2.767   0.137 -1.8934  1.0089 -0.5412
  148SOL    HW2  444   2.135   2.778   3.116 -2.7969  0.9820 -4.0598
  149SOL     OW  445   0.469   1.750   2.711  0.0986  0.0417 -0.5321
  149SOL    HW1  446   0.400   1.681   2.731 -0.1938  1.0510  0.8779
  149SOL    HW2  447   0.535   1.722   2.645 -1.3827 -0.1277  2.4068
  150SOL     OW  448   0.422   2.523   0.448 -0.2648  0.3148 -0.8081
  150SOL    HW1  449   0.514   2.483   0.415 -2.0244 -1.4008 -0.3020
  150SOL    HW2  450   0.410   2.497   0.548 -1.3323  2.9741  3.4745
  151SOL     OW  451   0.270   1.212   0.344 -0.2590  0.0708 -0.3552
  151SOL    HW1  452   0.334   1.131   0.349 -1.9527  1.4074  1.2178
  151SOL    HW2  453   0.246   1.226   0.243  0.3932 -0.4493  0.6277
  152SOL     OW  454   2.844   2.176   0.521  0.3114 -0.1003  0.5065
  152SOL    HW1  455   2.806   2.244   0.587  0.2466 -0.4710 -1.0754
  152SOL    HW2  456   2.776   2.133   0.461  0.4888  1.7516 -0.0807
  153SOL     OW  457   1.831   2.329   0.764 -0.4275  0.1294  0.3330
  153SOL    HW1  458   1.845   2.321   0.861 -0.4368 -2.8709  0.2942
  153SOL    HW2  459   1.733   2.347   0.734 -0.1597  1.8515 -0.4653
  154SOL     OW  460   0.764   2.723   1.335  0.0760  0.2518 -0.1972
  154SOL    HW1  461   0.681   2.681   1.372 -0.6056  0.2133  0.6210
  154SOL    HW2  462   0.750   2.822   1.306 -0.0947  0.3554  1.9945
  155SOL     OW  463   2.651   1.866   0.695  0.0984 -0.2080  0.6390
  155SOL    HW1  464   2.571   1.924   0.678  0.6943 -1.5688 -1.2843
  155SOL    HW2  465   2.704   1.851   0.607 -1.3402  0.9438 -0.4211
  156SOL     OW  466   2.641   2.312   2.867  0.5149 -0.4272 -0.0556
  156SOL    HW1  467   2.709   2.355   2.931  0.8864 -1.3696  1.9337
  156SOL    HW2  468   2.605   2.224   2.902 -2.1911  0.2587 -0.5703
  157SOL     OW  469   0.574   2.250   1.584  0.2423 -0.3346 -0.3319
  157SOL    HW1  470   0.521   2.338   1.601 -0.4122  0.5279 -1.6957
  157SOL    HW2  471   0.525   2.192   1.515 -1.3344 -2.1103  0.6630
  158SOL     OW  472   1.589   0.403   0.614  0.2776  0.0206 -0.4383
  158SOL    HW1  473   1.648   0.325   0.578 -2.8837 -1.3709  1.1315
  158SOL    HW2  474   1.627   0.446   0.703  1.7396  0.4272 -0.3402
  159SOL     OW  475   1.672   0.577   0.054  0.4325  0.0391 -0.2553
  159SOL    HW1  476   1.763   0.538   0.065  2.1319  4.8265 -0.7102
  159SOL    HW2  477   1.670   0.679   0.059  0.6014  0.1482  0.1760
  160SOL     OW  478   0.793   1.550   0.671  0.0644  0.3796  0.1114
  160SOL    HW1  479   0.838   1.538   0.761  0.5547  2.5440 -0.7959
  160SOL    HW2  480   0.752   1.466   0.632  1.0750  0.3447  1.2398
  161SOL     OW  481   2.983   2.434   2.653  0.1685  0.3593 -0.1236
  161SOL    HW1  482   2.907   2.412   2.594  0.6014 -1.9799  2.0937
  161SOL    HW2  483   3.063   2.375   2.627  0.3955 -1.0125  0.1434
  162SOL     OW  484   0.326   2.373   1.213  0.0937  0.6069 -0.6639
  162SOL    HW1  485   0.383   2.457   1.216 -1.6487 -1.3108 -1.1737
  162SOL    HW2  486   0.227   2.397   1.242  0.4775 -2.2459  2.1572
  163SOL     OW  487   0.276   0.625   2.876  0.3483 -0.2121  0.3667
  163SOL    HW1  488   0.220   0.714   2.853 -1.1927  1.1910 -0.6901
  163SOL    HW2  489   0.237   0.551   2.813  0.2702 -1.3486  3.0062
  164SOL     OW  490   0.239   2.995   2.720  0.6468  0.5632 -0.0112
  164SOL    HW1  491   0.340   2.977   2.711  0.9829  0.6115 -0.8808
  164SOL    HW2  492   0.193   2.922   2.670 -0.2270  2.7930 -0.6128
  165SOL     OW  493   2.653   1.016   1.753  0.3287  0.1350  0.3590
  165SOL    HW1  494   2.644   0.997   1.654 -0.7848 -2.0916 -1.0318
  165SOL    HW2  495   2.580   0.961   1.803 -3.2995  0.5322  2.6532
  166SOL     OW  496   2.092   2.081   1.304 -0.2500 -0.0995 -0.1977
  166SOL    HW1  497   2.180   2.104   1.355 -0.2660  2.3415  0.1960
  166SOL    HW2  498   2.084   2.135   1.217  2.6373  2.0161  0.0327
  167SOL     OW  499   0.787   1.045   2.427  0.1259  0.1017 -0.1494
  167SOL    HW1  500   0.834   1.023   2.334  2.5318 -0.9698 -0.5625
  167SOL    HW2  501   0.861   1.079   2.494  2.1096  0.6650  1.8331
  168SOL     OW  502   2.074   0.126   2.208 -0.1040  0.0468  0.1093
  168SOL    HW1  503   2.108   0.057   2.276 -0.7116 -0.5884  0.2351
  168SOL    HW2  504   2.037   0.080   2.126 -0.1980 -1.8040  0.5395
  169SOL     OW  505   0.438   1.009   0.363  0.2423 -0.0362 -0.6089
  169SOL    HW1  506   0.527   0.982   0.401 -1.3087 -0.5964  2.1196
  169SOL    HW2  507   0.409   0.930   0.303  0.4126 -3.0318 -2.6303
  170SOL     OW  508   0.544   1.587   1.661  0.1611  0.4708  0.6916
  170SOL    HW1  509   0.581   1.518   1.601  0.8548  0.0572  1.2378
  170SOL    HW2  510   0.584   1.586   1.752 -3.7407  0.7936 -4.1530
  171SOL     OW  511   1.067   2.374   1.715 -0.1255  0.2631 -0.0380
  171SOL    HW1  512   0.993   2.351   1.651  2.0583 -0.4893 -1.0242
  171SOL    HW2  513   1.072   2.474   1.731 -2.2467  3.0028 -2.6997
  172SOL     OW  514   1.310   2.855   2.007  0.5539  0.3735 -0.3593
  172SOL    HW1  515   1.288   2.904   2.096 -0.2248 -0.5626  1.3612
  172SOL    HW2  516   1.248   2.770   2.002 -0.1737 -1.4933 -0.0043
  173SOL     OW  517   1.584   2.484   0.713  0.1793 -0.0705  0.3135
  173SOL    HW1  518   1.488   2.452   0.688 -0.1580  2.2820 -1.8530
  173SOL    HW2  519   1.590   2.532   0.800  0.5278  0.0214 -0.5284
  174SOL     OW  520   2.349   3.122   0.406  0.0211 -0.0467  0.1954
  174SOL    HW1  521   2.414   3.058   0.453  1.2536  0.5119  0.7408
  174SOL    HW2  522   2.366   0.076   0.431  1.7277 -2.2296 -2.3549
  175SOL     OW  523   1.121   1.517   0.676  0.2709 -0.4564 -0.8084
  175SOL    HW1  524   1.189   1.555   0.612  1.3403 -1.5549 -0.8208
  175SOL    HW2  525   1.078   1.587   0.730  0.2154 -1.3372  0.0277
  176SOL     OW  526   0.667   1.775   0.664 -0.1659  0.1972  0.2025
  176SOL    HW1  527   0.690   1.808   0.568  1.5185 -1.4228 -0.2813
  176SOL    HW2  528   0.715   1.682   0.669 -2.4407 -1.9260 -2.0415
  177SOL     OW  529   1.216   1.084   1.366 -0.4994  0.5197  0.0529
  177SOL    HW1  530   1.296   1.122   1.414 -0.4626  0.5445 -1.1224
  177SOL    HW2  531   1.245   1.046   1.275  1.2978 -0.7708 -2.0206
  178SOL     OW  532   2.466   1.773   0.228  0.0057  0.3397  0.4016
  178SOL    HW1  533   2.463   1.870   0.264  2.9695  0.8169  0.1866
  178SOL    HW2  534   2.374   1.739   0.213 -3.2003  0.1604  1.7948
  179SOL     OW  535   1.070   2.598   3.025 -0.1304 -0.3012  0.2994
  179SOL    HW1  536   1.001   2.590   2.951  2.8457 -0.5126  0.3175
  179SOL    HW2  537   1.107   2.508   3.047  0.3984 -0.5259 -0.6365
  180SOL     OW  538   2.179   1.555   1.977 -0.4018 -0.4847 -0.2126
  180SOL    HW1  539   2.257   1.484   1.971  3.0279 -3.7639  0.6128
  180SOL    HW2  540   2.128   1.568   1.892 -0.2574  0.4255  1.7863
  181SOL     OW  541   0.981   0.815   2.591  0.4376 -0.1095 -0.1230
  181SOL    HW1  542   0.929   0.899   2.623  1.3929  0.8631  0.4353
  181SOL    HW2  543   0.989   0.749   2.666 -1.4972  1.8840  0.7383
  182SOL     OW  544   2.991   1.340   2.346 -0.5247  0.2763  0.2672
  182SOL    HW1  545   2.960   1.298   2.433 -0.2475 -2.6653  1.1199
  182SOL    HW2  546   2.994   1.272   2.269  0.9864  0.6410 -1.1890
  183SOL     OW  547   1.431   0.495   2.405 -0.0390  0.4370  0.3814
  183SOL    HW1  548   1.331   0.476   2.385  1.6275 -1.4331  0.5403
  183SOL    HW2  549   1.453   0.578   2.349  0.6771  2.6897  0.9789
  184SOL     OW  550   0.448   0.593   1.881 -0.5995  0.2055  0.0203
  184SOL    HW1  551   0.499   0.677   1.918  0.9537  1.1040  0.2758
  184SOL    HW2  552   0.445   0.607   1.780  0.8143 -4.3872 -0.3071
  185SOL     OW  553   2.198   1.790   0.448  0.1012  0.5948  0.6215
  185SOL    HW1  554   2.241   1.783   0.545  0.7429 -0.1150 -0.7079
  185SOL    HW2  555   2.242   1.723   0.380  1.8514  1.3893  2.9436
  186SOL     OW  556   0.235   1.877   0.285 -0.2076  0.0307  0.1580
  186SOL    HW1  557   0.337   1.877   0.289 -1.7416 -0.4238 -1.1594
  186SOL    HW2  558   0.193   1.799   0.337 -1.6913 -1.9167  1.2438
  187SOL     OW  559   2.113   2.317   0.228 -0.1768 -0.3991 -0.4018
  187SOL    HW1  560   2.051   2.344   0.305  1.4358  2.1834  0.1925
  187SOL    HW2  561   2.207   2.365   0.227 -1.9208 -0.6785 -1.1409
  188SOL     OW  562   0.940   2.374   0.987 -0.0756  0.0015 -0.3546
  188SOL    HW1  563   0.886   2.426   1.057  0.2678  0.5452 -0.0128
  188SOL    HW2  564   0.910   2.280   0.999  0.2300 -0.5625 -0.9270
  189SOL     OW  565   2.222   1.413   2.753 -0.7747 -0.1655 -0.2975
  189SOL    HW1  566   2.138   1.444   2.705 -0.5692  0.0618 -1.3456
  189SOL    HW2  567   2.263   1.491   2.800 -2.3496 -1.6587 -3.2538
  190SOL     OW  568   0.849   2.431   2.224 -0.0382 -0.2745 -0.2752
  190SOL    HW1  569   0.864   2.383   2.136  0.2166 -0.6594 -0.9758
  190SOL    HW2  570   0.757   2.420   2.258 -1.2058  0.6221  2.4710
  191SOL     OW  571   2.605   0.880   1.505  0.4259  0.6342 -0.0152
  191SOL    HW1  572   2.509   0.883   1.471 -0.4621 -2.1271  0.2966
  191SOL    HW2  573   2.616   0.783   1.537  0.6306 -0.3212 -1.1398
  192SOL     OW  574   2.667   0.671   2.003  0.0975  0.1577  0.2628
  192SOL    HW1  575   2.626   0.589   1.966 -2.0735  2.0767  0.8207
  192SOL    HW2  576   2.606   0.751   1.982  0.1885 -1.8533  0.9549
  193SOL     OW  577   0.775   0.249   0.181 -0.0575 -0.6754 -0.1327
  193SOL    HW1  578   0.713   0.332   0.206 -0.4695 -0.3426 -2.0278
  193SOL    HW2  579   0.870   0.257   0.213 -0.9211 -1.4190  1.7820
  194SOL     OW  580   1.162   2.512   1.295  0.5784 -0.5354 -0.1782
  194SOL    HW1  581   1.172   2.417   1.261 -0.8820  1.6002 -1.0542
  194SOL    HW2  582   1.218   2.526   1.377 -0.0290 -2.9038  1.0084
  195SOL     OW  583   2.365   1.157   0.517  0.0309  0.0599 -0.2197
  195SOL    HW1  584   2.396   1.066   0.558 -1.3329  0.5664  0.5202
  195SOL    HW2  585   2.424   1.179   0.433 -0.9608  0.5912  1.2267
  196SOL     OW  586   0.845   2.344   1.513 -0.4425 -0.1742 -0.2018
  196SOL    HW1  587   0.862   2.398   1.427 -4.0184 -0.7546 -1.8092
  196SOL    HW2  588   0.750   2.370   1.539 -0.5351  1.1264  1.3099
  197SOL     OW  589   0.454   0.842   2.468 -0.2069  0.2981 -0.3575
  197SOL    HW1  590   0.419   0.927   2.421 -2.0231  1.2198  0.1924
  197SOL    HW2  591   0.373   0.779   2.476  2.4951 -0.3284 -0.9726
  198SOL     OW  592   1.650   0.776   0.463 -0.5937  0.5315  0.7866
  198SOL    HW1  593   1.585   0.697   0.457 -2.2490 -0.1523  2.5685
  198SOL    HW2  594   1.642   0.839   0.381 -0.5061  0.1877  0.7902
  199SOL     OW  595   2.899   0.653   2.096 -0.2638 -0.0487  0.1021
  199SOL    HW1  596   2.899   0.681   2.197 -2.4265 -0.0655  0.3045
  199SOL    HW2  597   2.801   0.667   2.058 -4.2280  1.7800  0.9165
  200SOL     OW  598   2.426   2.848   2.721 -0.3117 -0.9152  0.1362
  200SOL    HW1  599   2.435   2.878   2.820  1.4123 -0.7000  1.4807
  200SOL    HW2  600   2.510   2.867   2.661  0.5493 -1.0348 -0.9367
  201SOL     OW  601   2.569   0.160   1.268 -0.1411 -0.7340 -0.5362
  201SOL    HW1  602   2.615   0.079   1.316  3.0133 -2.9127  0.5050
  201SOL    HW2  603   2.611   0.178   1.178 -2.3196 -3.1004  1.0532
  202SOL     OW  604   3.113   2.682   0.122 -0.3762  0.2822  0.1227
  202SOL    HW1  605   3.064   2.659   0.204  0.2022  0.3507 -0.2966
  202SOL    HW2  606   3.056   2.708   0.042  0.4454 -1.5651  0.6514
  203SOL     OW  607   0.975   1.918   3.007  0.6154  0.2496  0.0355
  203SOL    HW1  608   0.998   1.862   3.086  1.7311  1.4373 -0.9884
  203SOL    HW2  609   1.018   1.875   2.925  0.0385 -0.5913 -0.0766
  204SOL     OW  610   0.663   1.893   2.504 -0.3517  0.1532  0.0864
  204SOL    HW1  611   0.673   1.906   2.407 -1.7599 -0.8153  1.6595
  204SOL    HW2  612   0.653   1.976   2.559 -0.7537  0.5620  1.3437
  205SOL     OW  613   1.009   0.928   1.101 -0.2442  0.2184  0.2473
  205SOL    HW1  614   0.964   0.943   1.192  0.6145  2.1586 -1.8114
  205SOL    HW2  615   1.110   0.915   1.109 -4.0644 -1.0675  0.7193
  206SOL     OW  616   0.159   0.872   2.817 -0.5540 -0.3212 -0.4942
  206SOL    HW1  617   0.222   0.949   2.802 -2.0961 -0.3342 -0.2714
  206SOL    HW2  618   0.097   0.857   2.737  2.2175 -0.1229  1.6893
  207SOL     OW  619   1.660   2.372   1.808 -0.4209 -0.2369  0.6959
  207SOL    HW1  620   1.722   2.421   1.875 -0.7953 -0.3384  1.3795
  207SOL    HW2  621   1.564   2.392   1.827 -0.1469 -0.0331  0.1995
  208SOL     OW  622   0.446   3.045   1.026  0.5513 -0.3594 -0.0255
  208SOL    HW1  623   0.399   3.003   1.105 -0.3595 -2.5543  0.8937
  208SOL    HW2  624   0.397   3.025   0.940  0.3862 -1.9096  3.3597
  209SOL     OW  625   1.431   1.170   0.469  0.1868  0.0103 -0.0164
  209SOL    HW1  626   1.383   1.090   0.510 -0.0176 -0.6852  1.1627
  209SOL    HW2  627   1.508   1.136   0.411 -0.6885 -1.4055  1.4464
  210SOL     OW  628   2.416   0.611   0.828 -0.4261  0.4389 -0.2224
  210SOL    HW1  629   2.324   0.652   0.818 -1.8528 -0.8875 -2.3813
  210SOL    HW2  630   2.455   0.584   0.738  0.1198 -0.8904  0.3782
  211SOL     OW  631   1.448   2.762   0.339  0.4092 -0.2910 -0.4474
  211SOL    HW1  632   1.370   2.753   0.275  3.5201  2.0265 -1.0904
  211SOL    HW2  633   1.492   2.854   0.331  1.1482  3.5479 -2.2882
  212SOL     OW  634   2.062   2.346   0.610  0.2161  0.3402  0.6124
  212SOL    HW1  635   2.133   2.372   0.674 -4.3790  0.2226  0.1988
  212SOL    HW2  636   1.984   2.313   0.664  1.0359 -1.3756  1.4212
  213SOL     OW  637   1.998   0.826   2.766 -0.1514 -0.3814  0.1305
  213SOL    HW1  638   2.085   0.773   2.773  0.4878 -0.6251  2.0628
  213SOL    HW2  639   1.930   0.785   2.701  1.4856  0.7880  2.5294
  214SOL     OW  640   1.044   1.627   1.932  0.4584  0.1578  0.2853
  214SOL    HW1  641   1.094   1.706   1.972  0.3271  0.3582  0.5032
  214SOL    HW2  642   1.060   1.615   1.831 -0.4956  1.3945 -0.7670
  215SOL     OW  643   0.066   1.177   0.875  0.0825 -0.3086  0.0907
  215SOL    HW1  644   0.152   1.220   0.912  1.8926  0.5365  3.3070
  215SOL    HW2  645   3.129   1.197   0.929 -2.6770  1.3254 -0.1297
  216SOL     OW  646   0.240   2.318   2.451 -0.2758  0.4587  0.3677
  216SOL    HW1  647   0.218   2.310   2.349  0.8457 -1.3368 -0.2011
  216SOL    HW2  648   0.341   2.324   2.473  2.1934  1.3896  2.3342
  217SOL     OW  649   2.850   0.909   1.370  0.4849  0.1964  0.0731
  217SOL    HW1  650   2.767   0.891   1.424  2.4308 -0.1314 -1.8445
  217SOL    HW2  651   2.834   0.979   1.297 -0.2494  1.1813 -0.0153
  218SOL     OW  652   0.765   2.242   2.002 -0.0699  0.3065  0.9461
  218SOL    HW1  653   0.701   2.189   1.951  2.3488  4.4828 -1.9615
  218SOL    HW2  654   0.864   2.205   1.988  4.2074 -3.2238  2.5901
  219SOL     OW  655   1.940   1.349   0.243  0.2128  0.3409 -0.2709
  219SOL    HW1  656   2.021   1.373   0.185  1.0796  0.6350 -2.7490
  219SOL    HW2  657   1.963   1.361   0.337 -1.2388 -0.9261 -4.1231
  220SOL     OW  658   2.029   0.993   0.584  0.3328 -0.0544  0.1050
  220SOL    HW1  659   2.110   0.993   0.645 -4.4519 -0.8750 -0.7897
  220SOL    HW2  660   2.052   1.052   0.501  1.9438  0.7175  0.9962
  221SOL     OW  661   2.963   0.748   0.332 -0.2560  0.8701 -0.1580
  221SOL    HW1  662   3.041   0.688   0.295  1.3002 -0.7685 -0.0231
  221SOL    HW2  663   2.886   0.749   0.266 -0.1224 -0.1753 -0.2727
  222SOL     OW  664   1.535   1.404   0.558  0.0321  0.2143 -0.0996
  222SOL    HW1  665   1.507   1.323   0.513 -0.2583  1.7477  1.0796
  222SOL    HW2  666   1.483   1.408   0.645 -3.1869  0.3558  0.1607
  223SOL     OW  667   0.920   0.090   2.950 -0.0186  0.6089 -0.0921
  223SOL    HW1  668   0.864   0.104   3.033 -1.7352  1.3811 -1.3310
  223SOL    HW2  669   0.854   0.084   2.872 -1.4766  0.3724  1.1361
  224SOL     OW  670   1.263   0.078   1.220 -0.5097 -0.1774  0.7137
  224SOL    HW1  671   1.294   0.111   1.309  0.2717  0.6244 -2.3648
  224SOL    HW2  672   1.246   3.126   1.225 -1.4766 -0.3722 -0.8885
  225SOL     OW  673   0.150   2.533   2.017 -0.0183 -0.3263  0.2508
  225SOL    HW1  674   0.182   2.629   2.011  0.1622  0.5463 -2.1956
  225SOL    HW2  675   0.198   2.478   1.944 -0.4834 -1.7464 -2.3833
  226SOL     OW  676   1.378   1.555   0.355  0.3473 -0.5095  0.2247
  226SOL    HW1  677   1.463   1.519   0.396 -1.8514 -1.8432 -0.2478
  226SOL    HW2  678   1.323   1.607   0.428 -2.0017  1.9205 -0.6326
  227SOL     OW  679   0.414   1.581   0.940  0.0500 -0.0128  0.2126
  227SOL    HW1  680   0.445   1.666   0.895 -1.4396 -0.4129  0.0404
  227SOL    HW2  681   0.418   1.504   0.874 -0.7614  1.6205  3.2750
  228SOL     OW  682   0.040   1.614   0.724  0.4319 -0.2447 -0.0840
  228SOL    HW1  683   0.073   1.693   0.673  1.6462 -2.4453  0.5225
  228SOL    HW2  684   0.017   1.541   0.659 -1.9252 -1.2299  0.0456
  229SOL     OW  685   2.362   0.221   2.851 -0.7348  0.0925 -0.3981
  229SOL    HW1  686   2.269   0.262   2.833  0.4916 -1.0641 -1.6879
  229SOL    HW2  687   2.356   0.125   2.874  1.0525  2.6545 -1.3324
  230SOL     OW  688   1.795   1.142   1.009  0.0352 -1.1523 -0.6027
  230SOL    HW1  689   1.851   1.220   0.976 -2.2512  0.3146  0.0405
  230SOL    HW2  690   1.700   1.175   1.040  0.1886 -0.6476  0.0624
  231SOL     OW  691   1.494   1.356   2.849  0.2388  0.2420 -0.4410
  231SOL    HW1  692   1.507   1.363   2.746 -1.5728 -1.1926  0.3481
  231SOL    HW2  693   1.586   1.353   2.889 -0.8687  0.9788  0.5853
  232SOL     OW  694   2.526   2.186   0.802  0.9632  0.1758 -0.1675
  232SOL    HW1  695   2.583   2.271   0.798  2.0765  0.4131  3.2794
  232SOL    HW2  696   2.512   2.160   0.900 -1.2686 -1.0601 -1.9054
  233SOL     OW  697   0.630   2.645   0.847 -0.2484  0.1674  0.2557
  233SOL    HW1  698   0.645   2.711   0.925  2.1097 -3.1860 -1.6243
  233SOL    HW2  699   0.720   2.614   0.810 -1.1122  1.2292  1.4754
  234SOL     OW  700   0.678   0.612   2.658 -0.0128 -0.4091  0.4047
  234SOL    HW1  701   0.677   0.713   2.640  1.2688  2.7257  2.8658
  234SOL    HW2  702   0.641   0.597   2.754  1.2405 -1.3071  1.8289
  235SOL     OW  703   2.748   0.861   2.333  0.1399  0.0743  0.1056
  235SOL    HW1  704   2.756   0.760   2.358 -1.3223 -0.2780  1.5919
  235SOL    HW2  705   2.715   0.917   2.410  2.7499 -2.0782  1.2268
  236SOL     OW  706   1.478   2.756   1.533 -0.6864  0.0681  1.0320
  236SOL    HW1  707   1.503   2.772   1.438 -0.6501 -0.2220  1.7480
  236SOL    HW2  708   1.563   2.740   1.588  0.6594  0.6256 -1.3665
  237SOL     OW  709   1.066   1.356   2.592  0.1141 -0.6539  0.2074
  237SOL    HW1  710   0.976   1.349   2.550  2.5573  1.1663  0.4330
  237SOL    HW2  711   1.069   1.404   2.678  0.8882 -2.8186 -1.4146
  238SOL     OW  712   1.166   0.454   2.382  0.3592  0.0823 -0.3663
  238SOL    HW1  713   1.128   0.468   2.291  2.1324 -2.5382  2.1955
  238SOL    HW2  714   1.109   0.505   2.443  0.4569  0.6869 -0.7061
  239SOL     OW  715   0.320   2.211   2.002 -0.0108 -0.1053 -0.3297
  239SOL    HW1  716   0.401   2.155   2.022 -0.8394  2.0580  0.2748
  239SOL    HW2  717   0.280   2.233   2.095 -1.0763 -1.1781  3.6611
  240SOL     OW  718   2.788   2.849   0.892 -0.7910 -0.6480 -0.0302
  240SOL    HW1  719   2.863   2.805   0.844 -0.5760 -1.5663  0.5382
  240SOL    HW2  720   2.711   2.790   0.873  1.5253  0.5775 -1.8620
  241SOL     OW  721   2.697   1.270   0.571  0.1310 -0.2482  0.3867
  241SOL    HW1  722   2.621   1.334   0.581  0.0305 -1.2650  2.9089
  241SOL    HW2  723   2.688   1.207   0.490  1.3621 -1.1911  0.5546
  242SOL     OW  724   1.802   2.491   2.032  0.6448  0.9157 -0.1577
  242SOL    HW1  725   1.868   2.418   2.041 -1.2669  0.2864 -1.5714
  242SOL    HW2  726   1.840   2.585   2.017 -0.3414 -2.7113 -0.9636
  243SOL     OW  727   0.528   2.686   2.028 -0.1934 -0.0584 -0.2430
  243SOL    HW1  728   0.594   2.753   2.069 -0.7590  1.5649  0.3863
  243SOL    HW2  729   0.574   2.599   2.004 -0.1317 -4.3953  1.6006
  244SOL     OW  730   2.551   0.525   2.525 -0.0315  0.5464  0.2441
  244SOL    HW1  731   2.566   0.453   2.596 -0.8081 -0.2580 -0.8635
  244SOL    HW2  732   2.462   0.509   2.470  0.4655  0.8542 -0.3302
  245SOL     OW  733   1.370   0.117   0.971 -0.1594 -0.3950 -0.3455
  245SOL    HW1  734   1.390   0.215   0.945  1.0476  0.3954  0.9147
  245SOL    HW2  735   1.338   0.113   1.069 -0.8143 -0.9872 -1.0105
  246SOL     OW  736   1.741   2.652   0.081  0.0623 -0.2789 -0.3013
  246SOL    HW1  737   1.792   2.684   3.144 -2.5843  0.4702  1.3127
  246SOL    HW2  738   1.680   2.728   0.115 -1.1336 -0.3874 -1.1317
  247SOL     OW  739   1.158   0.894   2.391 -0.0965  0.1286 -0.1270
  247SOL    HW1  740   1.115   0.838   2.461  2.6112 -0.3526 -0.1663
  247SOL    HW2  741   1.192   0.978   2.441 -0.5889  2.6056  1.8203
  248SOL     OW  742   0.224   2.353   1.777  0.5063  0.5469 -0.7938
  248SOL    HW1  743   0.146   2.302   1.739  1.2525  2.7696 -0.1438
  248SOL    HW2  744   0.258   2.306   1.861 -4.2376 -1.0705  0.5320
  249SOL     OW  745   2.845   0.419   0.098 -1.1843 -0.0627  0.1422
  249SOL    HW1  746   2.919   0.350   0.120 -1.7501 -0.1691  1.3128
  249SOL    HW2  747   2.805   0.393   0.009  2.9345  0.5208  0.3101
  250SOL     OW  748   2.828   0.005   2.584  0.1991  0.0670 -0.0025
  250SOL    HW1  749   2.866   3.108   2.669 -1.3981 -0.0727  0.8215
  250SOL    HW2  750   2.890   3.137   2.503 -1.9690  3.2446 -0.2142
  251SOL     OW  751   1.299   0.686   0.101  0.4059 -0.1346 -0.0201
  251SOL    HW1  752   1.369   0.619   0.132 -0.4727  1.9867 -0.2319
  251SOL    HW2  753   1.303   0.759   0.168  0.2415 -0.7853 -1.2198
  252SOL     OW  754   1.426   2.409   1.929 -0.0875 -0.2039 -0.0494
  252SOL    HW1  755   1.343   2.348   1.919 -0.2572  0.8460 -1.7003
  252SOL    HW2  756   1.486   2.373   2.002  0.3070 -0.4293  0.8792
  253SOL     OW  757   2.455   2.388   1.181  0.0594  0.1096 -0.2574
  253SOL    HW1  758   2.524   2.453   1.141 -2.7251  0.3147  1.2039
  253SOL    HW2  759   2.364   2.432   1.194  0.0574  0.3284 -1.9083
  254SOL     OW  760   2.265   1.368   0.666  0.1099 -0.3724  0.1980
  254SOL    HW1  761   2.318   1.299   0.617 -3.0479  1.6237 -2.7451
  254SOL    HW2  762   2.235   1.337   0.760 -0.7747 -0.4139  2.0636
  255SOL     OW  763   1.200   2.969   1.482  0.4093  0.3834 -0.1221
  255SOL    HW1  764   1.185   2.950   1.382 -0.1238  0.6993 -0.0477
  255SOL    HW2  765   1.302   2.982   1.500  0.6543 -0.8052  1.8122
  256SOL     OW  766   1.869   2.140   1.477 -0.4689  0.7469  0.2302
  256SOL    HW1  767   1.949   2.099   1.429  1.8226 -0.1783  0.5728
  256SOL    HW2  768   1.779   2.113   1.446 -1.5195  1.7062  1.8925
  257SOL     OW  769   0.610   2.593   2.521 -0.3031 -0.0743 -0.1686
  257SOL    HW1  770   0.680   2.640   2.462  3.0320 -1.5230  0.1294
  257SOL    HW2  771   0.605   2.642   2.612  0.1222  0.7209  0.3929
  258SOL     OW  772   0.883   2.537   0.489  0.2784  0.1767 -0.1454
  258SOL    HW1  773   0.889   2.636   0.456 -3.9782  0.9523 -0.6177
  258SOL    HW2  774   0.885   2.536   0.589 -1.2267 -0.8755  2.0423
  259SOL     OW  775   1.525   0.173   2.812  0.1234  0.4518 -0.6452
  259SOL    HW1  776   1.513   0.129   2.904  1.3800 -0.5283 -0.4916
  259SOL    HW2  777   1.550   0.275   2.827  0.7518 -0.8633  0.4767
  260SOL     OW  778   2.680   0.618   1.233  0.4519  0.3803 -0.5614
  260SOL    HW1  779   2.750   0.546   1.231 -0.7261 -0.0936  2.5543
  260SOL    HW2  780   2.624   0.611   1.319 -0.4874  0.9981 -0.0061
  261SOL     OW  781   0.876   0.433   2.573 -0.3249 -0.0161  0.2291
  261SOL    HW1  782   0.815   0.514   2.584 -0.6715  1.7270  0.6117
  261SOL    HW2  783   0.883   0.396   2.476 -0.7732 -0.1734  2.6034
  262SOL     OW  784   1.318   2.554   2.246 -0.0819 -0.6381 -0.1988
  262SOL    HW1  785   1.265   2.596   2.323 -1.6883  0.9086  0.1075
  262SOL    HW2  786   1.414   2.584   2.251 -0.2853  0.2552 -2.6702
  263SOL     OW  787   0.578   1.896   2.918 -0.7471  0.4834  0.7779
  263SOL    HW1  788   0.651   1.964   2.899 -3.6898 -1.5847 -1.2139
  263SOL    HW2  789   0.552   1.847   2.836  2.9843 -0.4414  0.7752
  264SOL     OW  790   1.184   1.677   0.968  0.5610 -0.2480 -0.6794
  264SOL    HW1  791   1.127   1.726   0.900  2.7002 -1.5972  0.6276
  264SOL    HW2  792   1.278   1.671   0.940 -1.9328  1.7659  0.9923
  265SOL     OW  793   1.172   2.595   0.530 -0.8036  0.8281  0.4344
  265SOL    HW1  794   1.081   2.547   0.531 -2.4936  1.8576  0.6019
  265SOL    HW2  795   1.247   2.531   0.563  1.4376 -1.4218  0.9084
  266SOL     OW  796   2.022   0.582   0.947 -0.0609 -0.0139 -0.3754
  266SOL    HW1  797   2.076   0.539   1.023  0.5712  1.4859  2.5818
  266SOL    HW2  798   1.931   0.608   0.979 -0.6300  1.7859 -0.5945
  267SOL     OW  799   3.076   1.408   2.706  0.4133  0.3085  0.0110
  267SOL    HW1  800   3.064   1.390   2.804 -1.0838  0.8298  0.9457
  267SOL    HW2  801   3.046   1.322   2.655  2.5694 -1.4644 -0.1217
  268SOL     OW  802   1.586   3.013   0.279  0.0533 -0.1669 -0.4654
  268SOL    HW1  803   1.686   3.017   0.293 -2.3838  1.7880 -1.4688
  268SOL    HW2  804   1.543   3.078   0.344 -0.4787 -0.0039 -1.6196
  269SOL     OW  805   2.939   0.790   2.596  0.1106 -0.4171 -0.3905
  269SOL    HW1  806   2.940   0.708   2.536 -0.4241 -2.0760  2.9214
  269SOL    HW2  807   3.034   0.825   2.600 -1.4221 -1.4956 -2.0026
  270SOL     OW  808   3.138   1.448   0.110  0.1527  0.3629  0.4250
  270SOL    HW1  809   3.066   1.410   0.171  2.9485  1.7090 -2.4295
  270SOL    HW2  810   0.082   1.406   0.136 -0.1947  0.6754  2.4319
  271SOL     OW  811   2.687   1.453   2.691  0.1287 -0.0126  0.0359
  271SOL    HW1  812   2.619   1.530   2.686  0.2255  0.3020  0.5010
  271SOL    HW2  813   2.672   1.380   2.621  1.2014  2.2767 -1.1779
  272SOL     OW  814   2.718   2.607   2.186 -0.0729  0.2174  0.3803
  272SOL    HW1  815   2.729   2.646   2.282 -3.7750  0.8152 -1.8921
  272SOL    HW2  816   2.732   2.507   2.187  0.7374 -2.8173  3.3521
  273SOL     OW  817   0.348   2.772   0.103 -0.0428 -0.1486 -0.5780
  273SOL    HW1  818   0.326   2.750   0.200 -0.5982 -2.4396 -2.7788
  273SOL    HW2  819   0.274   2.834   0.068  0.7931 -0.0727 -1.3567
  274SOL     OW  820   1.072   2.382   0.749 -0.5710 -0.6556  0.1844
  274SOL    HW1  821   1.175   2.396   0.743  1.2255  1.0596  0.6139
  274SOL    HW2  822   1.045   2.393   0.845  1.1768 -0.1296 -3.4837
  275SOL     OW  823   2.258   1.625   0.242 -0.0309  0.5405 -0.1439
  275SOL    HW1  824   2.162   1.622   0.210 -2.3815  1.5490 -1.2858
  275SOL    HW2  825   2.309   1.539   0.217  0.5812 -0.1666  1.5714
  276SOL     OW  826   2.679   1.666   1.224  0.3370 -0.9587 -0.2707
  276SOL    HW1  827   2.741   1.598   1.270 -0.8313  1.6031 -0.4490
  276SOL    HW2  828   2.729   1.723   1.153 -0.6097 -0.5128  2.9516
  277SOL     OW  829   2.435   3.104   0.805  0.2793 -0.4348 -0.0622
  277SOL    HW1  830   2.342   3.113   0.840  1.3945  1.6707 -2.5792
  277SOL    HW2  831   2.503   3.078   0.880  1.0527  0.8653 -0.9721
  278SOL     OW  832   1.601   0.242   2.446 -0.1772 -0.0020 -0.0043
  278SOL    HW1  833   1.519   0.303   2.458  2.7981  0.0727  0.4616
  278SOL    HW2  834   1.596   0.160   2.512 -1.5511 -0.3397  2.2698
  279SOL     OW  835   1.527   2.771   1.284  0.1447 -0.3316  0.1439
  279SOL    HW1  836   1.627   2.755   1.263  0.2263 -0.2268 -0.6645
  279SOL    HW2  837   1.474   2.724   1.213  2.1044  3.3510  0.1046
  280SOL     OW  838   0.987   1.073   0.701 -0.6252  0.6004  0.0227
  280SOL    HW1  839   0.974   1.154   0.649  0.6586 -3.4879  1.0251
  280SOL    HW2  840   1.084   1.038   0.705 -0.8984 -1.2389 -0.2071
  281SOL     OW  841   2.364   1.605   2.892  0.3077 -0.1320  0.0540
  281SOL    HW1  842   2.430   1.633   2.820  0.7451  1.3743  0.8812
  281SOL    HW2  843   2.299   1.680   2.913 -0.2523  1.8513  0.2652
  282SOL     OW  844   3.045   1.334   2.974 -0.5959  0.0868 -0.0949
  282SOL    HW1  845   3.104   1.254   2.959 -1.9436  3.1915 -2.6868
  282SOL    HW2  846   3.081   1.385   3.054  1.7964  2.0162  3.3488
  283SOL     OW  847   1.742   2.625   2.808  0.2870  0.1481  0.3893
  283SOL    HW1  848   1.772   2.629   2.712 -1.8647 -2.6829  2.5702
  283SOL    HW2  849   1.736   2.528   2.847  0.7649 -2.5370  0.2788
  284SOL     OW  850   0.700   0.146   3.095  0.7229  0.1451 -0.3573
  284SOL    HW1  851   0.736   0.172   0.042 -0.4675  1.4660  1.8272
  284SOL    HW2  852   0.635   0.218   3.066 -0.2953  1.7265 -0.9096
  285SOL     OW  853   2.096   1.825   2.544 -0.4255  0.5216 -0.5268
  285SOL    HW1  854   2.191   1.860   2.549  0.3520  0.8982  0.7243
  285SOL    HW2  855   2.052   1.860   2.459  1.0457  0.0360 -0.9225
  286SOL     OW  856   1.325   2.125   0.806 -0.1233 -0.1168  0.4262
  286SOL    HW1  857   1.235   2.112   0.854  2.1266  0.2988  0.8461
  286SOL    HW2  858   1.400   2.138   0.875  0.5446 -0.7276 -1.9020
  287SOL     OW  859   1.687   0.334   1.355  0.2907  0.0386  0.0544
  287SOL    HW1  860   1.740   0.277   1.418 -3.0913 -0.3030  1.7097
  287SOL    HW2  861   1.675   0.429   1.399 -0.4631 -1.8298 -0.8472
  288SOL     OW  862   0.772   2.725   2.361 -0.0200  0.4883 -0.0028
  288SOL    HW1  863   0.867   2.684   2.375  0.7712  1.6849 -0.5051
  288SOL    HW2  864   0.774   2.781   2.273  0.5838 -0.9677  0.1262
  289SOL     OW  865   3.137   1.041   0.647  0.4359 -0.3894 -1.0048
  289SOL    HW1  866   0.026   1.091   0.734  1.8542  0.5033  2.9834
  289SOL    HW2  867   3.044   1.003   0.660 -1.4557  2.8978  1.0348
  290SOL     OW  868   1.211   2.263   1.219 -0.3220 -0.1188 -0.3110
  290SOL    HW1  869   1.288   2.302   1.169 -0.4022  0.3344 -1.6663
  290SOL    HW2  870   1.213   2.161   1.213 -0.7056  2.2020  0.2819
  291SOL     OW  871   1.987   2.696   0.717 -0.3676  0.0713 -0.1343
  291SOL    HW1  872   1.970   2.797   0.709  0.6197  3.3228 -2.0202
  291SOL    HW2  873   1.909   2.641   0.681  0.0935 -0.6150  1.7853
  292SOL     OW  874   0.516   0.143   1.776 -0.4314 -0.4126 -0.3652
  292SOL    HW1  875   0.476   0.047   1.785  0.6206  1.3161 -1.3120
  292SOL    HW2  876   0.582   0.156   1.851  1.1609  2.3624  2.3011
  293SOL     OW  877   2.355   1.768   0.678 -0.2115  0.3340  0.2758
  293SOL    HW1  878   2.414   1.731   0.753  0.1361  2.2576 -1.5428
  293SOL    HW2  879   2.399   1.856   0.651 -2.2062  0.5312 -1.9654
  294SOL     OW  880   1.047   0.287   2.121 -0.4289 -0.1187 -0.1717
  294SOL    HW1  881   1.122   0.315   2.060 -2.4762  0.1424  1.2910
  294SOL    HW2  882   1.060   0.189   2.149 -0.7412  0.9479  0.1392
  295SOL     OW  883   0.919   1.158   0.947  0.1120  0.3892 -0.2070
  295SOL    HW1  884   0.954   1.142   0.854  0.0354 -0.8963  0.0080
  295SOL    HW2  885   0.969   1.100   1.018  3.0660 -0.8035 -0.0256
  296SOL     OW  886   2.210   1.969   0.862 -0.5319  0.0456 -0.1239
  296SOL    HW1  887   2.157   1.884   0.842  0.4459  0.9443 -1.8834
  296SOL    HW2  888   2.298   1.971   0.813 -0.0706 -1.9383 -1.2488
  297SOL     OW  889   2.003   0.101   2.928 -0.0364  0.2003 -0.0433
  297SOL    HW1  890   1.993   0.202   2.933  1.5744 -0.8968 -1.8486
  297SOL    HW2  891   2.079   0.078   2.988 -0.9977  0.9776  1.7427
  298SOL     OW  892   1.306   0.073   2.599  0.4774 -0.1763 -0.4555
  298SOL    HW1  893   1.363   0.009   2.539 -1.6061 -1.5239  0.5168
  298SOL    HW2  894   1.313   0.032   2.691  0.3405 -1.4054 -2.7587
  299SOL     OW  895   1.088   3.138   2.115  0.2998 -0.3116  0.3795
  299SOL    HW1  896   1.141   0.005   2.028 -3.9966 -0.8254 -2.9494
  299SOL    HW2  897   1.138   3.072   2.173 -1.9813 -0.1462  0.1659
  300SOL     OW  898   2.591   0.157   1.746 -0.0871  0.3905 -0.0828
  300SOL    HW1  899   2.664   0.221   1.715 -2.2298 -0.1628  1.9219
  300SOL    HW2  900   2.498   0.189   1.718  0.1457  1.0899  0.7827
  301SOL     OW  901   2.338   0.245   1.702 -0.6347  0.1736 -0.0872
  301SOL    HW1  902   2.344   0.315   1.779 -3.4287 -1.0126  0.5291
  301SOL    HW2  903   2.242   0.232   1.667  0.1739 -2.6403  1.0024
  302SOL     OW  904   0.603   2.468   2.895  0.3042 -0.4756 -0.1199
  302SOL    HW1  905   0.528   2.405   2.861 -1.4236  1.2287  1.1298
  302SOL    HW2  906   0.573   2.519   2.976 -0.2696 -2.2692  1.0715
  303SOL     OW  907   1.620   2.044   1.429  0.2581  0.1402 -0.2629
  303SOL    HW1  908   1.526   2.074   1.458  0.6105  1.8688  2.1522
  303SOL    HW2  909   1.623   1.943   1.427 -0.7039  1.8616 -0.5062
  304SOL     OW  910   0.192   0.642   0.971 -0.0305 -0.2816  0.1628
  304SOL    HW1  911   0.183   0.738   1.002  1.4527 -0.3725 -0.0190
  304SOL    HW2  912   0.142   0.621   0.892  0.6430  1.9148  1.3703
  305SOL     OW  913   0.886   0.876   0.871 -0.0578 -0.0273  0.4333
  305SOL    HW1  914   0.942   0.892   0.954  0.4545 -2.2203 -2.1392
  305SOL    HW2  915   0.879   0.955   0.808  2.2808 -1.6590 -1.5412
  306SOL     OW  916   0.497   1.005   3.023  0.0065 -0.5548  0.6665
  306SOL    HW1  917   0.575   0.969   2.978 -1.2079  1.3515  1.3139
  306SOL    HW2  918   0.436   0.930   3.065 -1.9717 -1.5754  1.2067
  307SOL     OW  919   1.176   0.227   1.708  0.4185  0.7933  0.0230
  307SOL    HW1  920   1.137   0.299   1.651  0.8499  1.1907 -1.6571
  307SOL    HW2  921   1.196   0.270   1.800  2.4936  0.4527  2.4369
  308SOL     OW  922   0.643   0.760   0.974  0.5264 -0.3477 -0.5912
  308SOL    HW1  923   0.738   0.805   0.965  2.6078  0.3585 -0.4544
  308SOL    HW2  924   0.567   0.816   0.935 -0.5146  0.2525  0.3036
  309SOL     OW  925   2.417   0.902   0.629 -0.5996  0.5075  0.3043
  309SOL    HW1  926   2.335   0.916   0.683  3.5245 -0.6400  0.2723
  309SOL    HW2  927   2.442   0.804   0.620  1.1558 -0.7546 -1.7644
  310SOL     OW  928   1.199   1.338   0.037  0.5016 -0.3241 -0.0103
  310SOL    HW1  929   1.168   1.438   0.029 -0.6851 -0.6276  0.8929
  310SOL    HW2  930   1.150   1.282   3.112  0.9157  1.7683  1.4277
  311SOL     OW  931   2.353   2.569   2.271 -0.1257  0.3966  0.0416
  311SOL    HW1  932   2.393   2.659   2.251  1.7046 -0.3215  1.1789
  311SOL    HW2  933   2.284   2.576   2.345  0.1169 -0.9441 -1.5286
  312SOL     OW  934   2.114   2.332   3.101 -0.1434  0.2328  0.6902
  312SOL    HW1  935   2.170   2.260   3.054  2.0927  0.4345  1.4825
  312SOL    HW2  936   2.080   2.300   0.048 -1.0587 -1.8569  0.2160
  313SOL     OW  937   0.282   0.171   0.249 -0.0605  0.4137 -0.3285
  313SOL    HW1  938   0.258   0.262   0.290  3.0072  1.7041 -0.3835
  313SOL    HW2  939   0.293   0.185   0.153  1.2664 -0.1947  2.9094
  314SOL     OW  940   2.445   1.482   3.140  0.2841 -0.3105 -0.0359
  314SOL    HW1  941   2.540   1.505   0.020 -0.3043 -0.2294 -1.0078
  314SOL    HW2  942   2.428   1.498   3.040  0.8091  0.9697 -0.4993
  315SOL     OW  943   1.828   0.491   2.167  0.0919  0.2562 -0.4947
  315SOL    HW1  944   1.820   0.448   2.257 -2.0949 -1.8085 -1.1715
  315SOL    HW2  945   1.762   0.565   2.163  1.4689 -1.0284 -0.1989
  316SOL     OW  946   2.905   0.913   0.735  0.5946  0.8159  0.5745
  316SOL    HW1  947   2.859   0.895   0.826  0.1355 -0.0443  0.3850
  316SOL    HW2  948   2.855   0.873   0.657  1.9638 -0.8839  1.2801
  317SOL     OW  949   0.818   2.858   0.148  0.0087 -0.2998  0.1470
  317SOL    HW1  950   0.731   2.869   0.094  0.9780  0.9949 -2.2285
  317SOL    HW2  951   0.865   2.770   0.128  2.5992  0.5156  1.9787
  318SOL     OW  952   2.208   2.724   1.548  0.1061 -0.2361  0.3227
  318SOL    HW1  953   2.270   2.692   1.620 -0.3706  1.6470 -2.5627
  318SOL    HW2  954   2.115   2.738   1.584  4.8291 -0.7847  0.8426
  319SOL     OW  955   1.136   1.625   3.101 -0.2111 -0.1859  0.3840
  319SOL    HW1  956   1.143   1.680   0.045  1.2882  3.2726  3.1226
  319SOL    HW2  957   1.201   1.662   3.029  0.3911 -0.5715 -0.7725
  320SOL     OW  958   0.430   1.815   0.756  0.3023 -0.2299 -0.3347
  320SOL    HW1  959   0.388   1.902   0.720 -0.2798  2.2616  0.9176
  320SOL    HW2  960   0.529   1.807   0.719  0.2469 -1.6655 -0.8167
  321SOL     OW  961   1.929   2.733   1.992 -0.0525 -0.2060  0.5968
  321SOL    HW1  962   2.015   2.749   2.048  0.4221 -0.0262  0.3636
  321SOL    HW2  963   1.873   2.815   2.000  0.8228  1.0456 -1.9285
  322SOL     OW  964   2.365   1.921   2.500  0.2387  0.4875 -0.3941
  322SOL    HW1  965   2.374   1.976   2.418 -0.9264 -0.9861  0.6558
  322SOL    HW2  966   2.443   1.859   2.503 -1.5637  0.5424 -1.1438
  323SOL     OW  967   2.486   0.200   0.706  0.6742  0.4071  0.6149
  323SOL    HW1  968   2.482   0.099   0.725  1.1111 -0.1956  0.7944
  323SOL    HW2  969   2.461   0.227   0.611  0.8223  2.6399 -1.1080
  324SOL     OW  970   2.996   2.865   2.171 -0.4851 -0.3823  0.8117
  324SOL    HW1  971   3.090   2.907   2.148  1.3836  2.1597 -0.4126
  324SOL    HW2  972   3.002   2.770   2.205  1.3040 -0.8775 -1.0754
  325SOL     OW  973   1.025   0.583   2.771  0.1413 -0.1687  0.7546
  325SOL    HW1  974   1.122   0.564   2.804  1.4878 -1.6426  1.9517
  325SOL    HW2  975   0.978   0.506   2.723  2.5134 -1.2305  0.3068
  326SOL     OW  976   2.853   2.369   1.018  0.3448 -0.5901 -0.1132
  326SOL    HW1  977   2.946   2.405   1.035 -0.9611 -0.6058 -0.0055
  326SOL    HW2  978   2.784   2.436   1.057  0.0038  1.2258  2.7939
  327SOL     OW  979   2.327   3.015   0.152 -0.2827 -0.2709 -0.1286
  327SOL    HW1  980   2.323   3.056   0.247 -1.0908  0.9197  0.3841
  327SOL    HW2  981   2.275   2.927   0.139  0.7404 -0.6071  1.9554
  328SOL     OW  982   0.334   0.903   1.586 -0.2157  0.9937 -0.0210
  328SOL    HW1  983   0.343   0.801   1.597  2.1817 -3.7509  1.1486
  328SOL    HW2  984   0.318   0.940   1.674 -0.7689  1.4334 -2.1889
  329SOL     OW  985   2.091   0.639   1.616 -0.2630  0.5754  0.5429
  329SOL    HW1  986   2.062   0.563   1.684 -0.7417 -1.4610 -1.1072
  329SOL    HW2  987   2.192   0.630   1.600  0.6079 -0.7818 -3.7373
  330SOL     OW  988   0.762   0.519   1.008  0.3586 -0.2661 -0.0590
  330SOL    HW1  989   0.696   0.446   1.013  1.2989  1.9995 -2.7738
  330SOL    HW2  990   0.698   0.599   1.001 -1.0212  2.3815  2.8636
  331SOL     OW  991   0.753   1.682   1.892 -0.2255  0.1365  0.5012
  331SOL    HW1  992   0.852   1.658   1.921  3.8026 -1.8288 -2.4660
  331SOL    HW2  993   0.758   1.752   1.821 -1.2450  1.7578 -2.5356
  332SOL     OW  994   2.617   2.598   1.708  0.1244  0.2370 -0.1475
  332SOL    HW1  995   2.710   2.624   1.731 -0.6947 -0.5114 -3.3464
  332SOL    HW2  996   2.562   2.582   1.791  0.1250 -1.9746 -1.0743
  333SOL     OW  997   0.104   3.032   0.996 -0.1746  0.5352  0.3750
  333SOL    HW1  998   0.156   3.106   1.041 -2.1531  0.1955 -1.5889
  333SOL    HW2  999   0.006   3.046   0.982  1.5420  1.7066  0.7616
  334SOL     OW 1000   0.021   1.178   0.432  0.0940 -0.0000  0.1079
  334SOL    HW1 1001   0.010   1.127   0.517 -0.7642 -0.1926 -0.9008
  334SOL    HW2 1002   0.120   1.190   0.411  1.6251  0.9086 -1.6304
  335SOL     OW 1003   0.588   2.701   2.757 -0.5179  0.4401  0.4425
  335SOL    HW1 1004   0.571   2.622   2.826 -1.3927 -1.6280  0.3344
  335SOL    HW2 1005   0.681   2.747   2.772 -0.5753 -2.4225 -4.6254
  336SOL     OW 1006   2.821   2.810   1.971  0.3132 -0.2171 -1.0204
  336SOL    HW1 1007   2.892   2.853   2.031 -0.0355 -1.0664  2.3010
  336SOL    HW2 1008   2.747   2.762   2.018 -0.8852 -1.7887 -1.4734
  337SOL     OW 1009   1.358   2.062   1.773  0.2815 -0.1817 -0.5887
  337SOL    HW1 1010   1.302   2.141   1.811 -1.5576  2.0953 -0.2144
  337SOL    HW2 1011   1.450   2.051   1.818  0.1018  0.8529 -0.8060
  338SOL     OW 1012   0.808   0.126   2.627 -0.7441  0.3574 -0.2466
  338SOL    HW1 1013   0.816   0.216   2.585 -1.7839 -1.2822  0.6556
  338SOL    HW2 1014   0.883   0.063   2.608 -0.4717 -1.3732 -0.8360
  339SOL     OW 1015   0.579   1.214   2.463 -0.8188 -0.0949 -0.5658
  339SOL    HW1 1016   0.513   1.178   2.397 -0.0331  1.0353 -3.0101
  339SOL    HW2 1017   0.665   1.163   2.442 -0.4158  0.0308  0.2241
  340SOL     OW 1018   2.256   0.456   1.119  0.0614 -0.2650  0.2345
  340SOL    HW1 1019   2.189   0.392   1.161  0.3512  1.3080 -0.4287
  340SOL    HW2 1020   2.307   0.411   1.039 -2.3977 -0.4262 -1.5782
  341SOL     OW 1021   2.160   1.247   0.906 -0.6086  0.2418  0.5403
  341SOL    HW1 1022   2.061   1.281   0.907  0.9251  1.2420  1.4777
  341SOL    HW2 1023   2.192   1.249   1.006 -0.0980  0.0440  2.5651
  342SOL     OW 1024   2.108   2.569   2.969 -0.2539 -0.3360 -0.0259
  342SOL    HW1 1025   2.114   2.489   3.034  2.3395  2.6314 -0.3829
  342SOL    HW2 1026   2.018   2.610   2.970  1.6389 -1.1082 -3.1452
  343SOL     OW 1027   0.535   2.634   1.499  0.4777  0.1660 -0.1130
  343SOL    HW1 1028   0.600   2.678   1.562 -0.2269  1.0723  1.7593
  343SOL    HW2 1029   0.475   2.568   1.553 -0.4067 -2.3277 -0.6366
  344SOL     OW 1030   2.685   2.743   1.301  0.1640 -0.3289  0.1078
  344SOL    HW1 1031   2.632   2.701   1.376 -1.9074  1.8105 -2.2066
  344SOL    HW2 1032   2.786   2.741   1.322 -0.5715  0.1159  0.6050
  345SOL     OW 1033   2.531   2.216   0.113 -0.0902  0.0261 -0.1537
  345SOL    HW1 1034   2.616   2.266   0.130 -4.1551  0.7149 -1.4966
  345SOL    HW2 1035   2.536   2.152   0.037 -1.3644  0.1526  0.7030
  346SOL     OW 1036   1.462   2.371   1.514  0.0195  0.2076  0.3084
  346SOL    HW1 1037   1.420   2.278   1.520 -0.9797  2.2485 -0.2615
  346SOL    HW2 1038   1.562   2.367   1.497 -0.3582  0.0401 -0.5863
  347SOL     OW 1039   1.084   1.976   1.723 -0.0706 -0.6036  0.1932
  347SOL    HW1 1040   1.067   2.041   1.642 -1.4342  1.3915 -3.9221
  347SOL    HW2 1041   1.179   1.956   1.733 -0.7144 -2.1166  0.7925
  348SOL     OW 1042   0.159   1.999   1.854 -0.0234  0.2623  0.3890
  348SOL    HW1 1043   0.217   1.923   1.827  1.8862  1.1984  0.5595
  348SOL    HW2 1044   0.209   2.086   1.878  1.0716  0.7515 -1.4187
  349SOL     OW 1045   1.836   1.732   1.563  0.2314  0.3421 -0.1534
  349SOL    HW1 1046   1.825   1.653   1.629  1.7899 -2.3860 -0.7973
  349SOL    HW2 1047   1.926   1.722   1.517  1.6711  3.3010  1.1694
  350SOL     OW 1048   2.288   2.200   0.455 -0.1345 -0.5008  0.2188
  350SOL    HW1 1049   2.198   2.190   0.506 -2.8730  1.1010  0.2110
  350SOL    HW2 1050   2.305   2.301   0.449 -1.6691 -2.9071 -0.3852
  351SOL     OW 1051   0.760   3.074   1.675  0.0381 -0.0707  0.2747
  351SOL    HW1 1052   0.743   3.120   1.772  2.0711  3.5774  3.2690
  351SOL    HW2 1053   0.857   3.086   1.645 -0.9858  1.6088  1.8569
  352SOL     OW 1054   0.392   0.918   0.814 -0.3164  0.1588  0.1398
  352SOL    HW1 1055   0.353   0.914   0.719  0.9766 -0.7079  1.6064
  352SOL    HW2 1056   0.324   0.927   0.886  0.7588 -1.4179 -0.3873
  353SOL     OW 1057   1.127   1.859   2.536  0.2295 -0.5577 -0.3164
  353SOL    HW1 1058   1.043   1.810   2.573 -0.3065 -1.0260  0.8563
  353SOL    HW2 1059   1.206   1.795   2.535 -2.8835 -0.1191  2.3109
  354SOL     OW 1060   1.752   2.935   1.991  0.2787 -0.1989  0.2081
  354SOL    HW1 1061   1.722   2.959   2.087 -0.4005  0.6205 -0.3849
  354SOL    HW2 1062   1.681   2.888   1.935 -0.1240 -2.2422 -1.4161
  355SOL     OW 1063   1.867   1.097   0.147 -0.0800 -0.4332  0.4236
  355SOL    HW1 1064   1.922   1.174   0.180 -0.8366 -1.3937 -2.3216
  355SOL    HW2 1065   1.880   1.082   0.047  0.9320 -0.5921 -0.2166
  356SOL     OW 1066   3.014   1.691   1.402  0.1926 -0.1680  0.1918
  356SOL    HW1 1067   3.020   1.784   1.369 -1.9568 -4.9457  1.2384
  356SOL    HW2 1068   3.068   1.630   1.339  1.9596 -1.9917  2.7828
  357SOL     OW 1069   0.285   2.913   1.265 -0.5678 -0.2487 -0.3934
  357SOL    HW1 1070   0.191   2.880   1.250  0.2754  0.2610  1.5951
  357SOL    HW2 1071   0.310   2.896   1.362  2.3554  2.5391 -0.8580
  358SOL     OW 1072   2.623   1.906   1.400 -0.2316 -0.1563  0.1036
  358SOL    HW1 1073   2.655   1.841   1.468 -3.0944  2.0173 -0.8975
  358SOL    HW2 1074   2.630   1.859   1.312 -0.5810  1.1538 -1.5244
  359SOL     OW 1075   2.220   2.679   2.718  0.1582  0.0950  0.4481
  359SOL    HW1 1076   2.311   2.722   2.713 -1.3426 -1.5552  1.4709
  359SOL    HW2 1077   2.214   2.629   2.806 -0.0578 -1.0429  3.2838
  360SOL     OW 1078   1.102   3.003   0.905  0.9749  0.0854 -0.2174
  360SOL    HW1 1079   1.181   3.057   0.883 -3.4969 -0.9416  0.1375
  360SOL    HW2 1080   1.117   2.904   0.895 -0.0496  3.4850 -0.0626
  361SOL     OW 1081   2.128   0.280   0.465  0.2221  0.4037  0.3206
  361SOL    HW1 1082   2.062   0.254   0.393 -3.0975 -0.6800 -1.0759
  361SOL    HW2 1083   2.100   0.368   0.505  0.6589 -0.9156 -2.0632
  362SOL     OW 1084   1.488   1.015   0.937 -0.6229 -0.0289 -0.2030
  362SOL    HW1 1085   1.577   0.966   0.918 -0.2592 -0.7871 -0.4739
  362SOL    HW2 1086   1.503   1.099   0.985 -1.6573 -3.2219 -2.1488
  363SOL     OW 1087   2.329   1.284   2.532 -0.5011  0.0616 -0.0335
  363SOL    HW1 1088   2.297   1.321   2.624 -0.2431  0.4378 -2.7375
  363SOL    HW2 1089   2.290   1.194   2.517  2.4392  4.4525 -0.8546
  364SOL     OW 1090   0.328   0.601   1.209 -0.5323  0.3423 -0.1785
  364SOL    HW1 1091   0.272   0.593   1.123 -0.8909  1.6858  3.2579
  364SOL    HW2 1092   0.292   0.673   1.268 -0.1931  0.6904  0.8176
  365SOL     OW 1093   0.535   0.123   2.703  0.3841 -0.1580 -0.3504
  365SOL    HW1 1094   0.520   0.024   2.724  0.1247 -0.4313 -1.3404
  365SOL    HW2 1095   0.631   0.134   2.668 -2.0240  0.6728  1.4905
  366SOL     OW 1096   2.041   2.112   2.622 -0.7558  0.0086  0.5684
  366SOL    HW1 1097   2.125   2.055   2.627  0.8033 -1.7125 -1.5320
  366SOL    HW2 1098   2.067   2.208   2.648 -1.2599 -0.8052 -2.1762
  367SOL     OW 1099   2.842   2.414   3.050  0.2216  0.5644  0.0757
  367SOL    HW1 1100   2.805   2.499   3.094  1.1859  2.0268 -0.3872
  367SOL    HW2 1101   2.930   2.431   3.007 -2.9901  0.8130 -1.4139
  368SOL     OW 1102   2.871   1.393   1.247 -0.2154 -0.0085  0.3809
  368SOL    HW1 1103   2.791   1.362   1.305  1.3562  0.2542 -0.9441
  368SOL    HW2 1104   2.835   1.438   1.160 -2.2905  0.9020 -1.9333
  369SOL     OW 1105   0.999   3.085   2.590  0.4698  0.0868 -0.2396
  369SOL    HW1 1106   1.078   3.125   2.539  1.7014 -1.1652  2.2169
  369SOL    HW2 1107   1.013   2.991   2.631 -1.2559  0.7182  1.2695
  370SOL     OW 1108   2.891   0.269   0.543  0.0764 -0.2292  0.1099
  370SOL    HW1 1109   2.978   0.308   0.502  1.5430  4.6091  0.9103
  370SOL    HW2 1110   2.817   0.341   0.530 -2.2701 -0.4779 -0.9926
  371SOL     OW 1111   1.481   2.390   1.141  0.1982  0.2741  0.3567
  371SOL    HW1 1112   1.578   2.396   1.169 -0.0945  0.7674  0.4732
  371SOL    HW2 1113   1.440   2.481   1.124 -0.5621  2.6471  0.1656
  372SOL     OW 1114   0.052   0.871   2.577  0.1028 -0.2627  0.0751
  372SOL    HW1 1115   0.108   0.805   2.530 -0.0359 -1.4647  1.3489
  372SOL    HW2 1116   0.078   0.966   2.557  0.3123 -1.5232 -1.0282
  373SOL     OW 1117   2.526   1.732   0.899 -0.0511  0.5967  0.4697
  373SOL    HW1 1118   2.595   1.782   0.848 -1.5340 -1.4719 -0.2237
  373SOL    HW2 1119   2.502   1.774   0.990  0.9142  1.4117  0.2936
  374SOL     OW 1120   0.505   2.980   2.735 -0.4922 -0.1321 -0.0605
  374SOL    HW1 1121   0.539   2.989   2.827 -0.6030  0.3964 -0.1493
  374SOL    HW2 1122   0.565   2.934   2.673 -0.1255  0.2442  1.7365
  375SOL     OW 1123   0.118   0.063   2.857  0.5769  0.2226 -0.6900
  375SOL    HW1 1124   0.158   3.137   2.798 -2.8855  1.8153  0.3197
  375SOL    HW2 1125   0.186   0.130   2.895 -1.0356 -0.0903  0.5577
  376SOL     OW 1126   3.126   2.189   1.716 -0.2657  0.1027  0.1778
  376SOL    HW1 1127   0.023   2.128   1.783 -0.7676  1.5703  2.3913
  376SOL    HW2 1128   3.024   2.197   1.726 -3.0796 -0.6724 -0.4918
  377SOL     OW 1129   1.798   2.256   2.412  0.5913  0.0276 -0.1307
  377SOL    HW1 1130   1.805   2.167   2.460 -0.6824 -0.5395  0.5447
  377SOL    HW2 1131   1.700   2.292   2.416  0.1422  0.0633  1.3398
  378SOL     OW 1132   0.358   0.292   2.587 -0.2558  0.0946 -0.2921
  378SOL    HW1 1133   0.403   0.366   2.534  0.4349  1.1958 -0.5708
  378SOL    HW2 1134   0.423   0.224   2.620 -1.0077 -0.2678 -0.8476
  379SOL     OW 1135   0.507   0.659   0.349 -0.1696  0.5821 -0.2312
  379SOL    HW1 1136   0.488   0.656   0.452 -1.0236  4.7467  1.3165
  379SOL    HW2 1137   0.435   0.719   0.305 -1.2289 -0.1393  1.2566
  380SOL     OW 1138   0.297   1.716   1.677  0.2409  0.1976  0.2577
  380SOL    HW1 1139   0.382   1.661   1.676  0.3844  0.5531 -0.8199
  380SOL    HW2 1140   0.260   1.729   1.769  1.3802 -1.7956 -5.0200
  381SOL     OW 1141   0.465   1.069   1.911 -0.0598 -0.1853 -0.0727
  381SOL    HW1 1142   0.374   1.027   1.910 -0.0289  0.7904  0.3180
  381SOL    HW2 1143   0.481   1.139   1.840 -1.9533  3.0822 -1.0476
  382SOL     OW 1144   2.375   2.045   0.245  0.2818 -0.3000  0.5280
  382SOL    HW1 1145   2.439   2.114   0.209 -1.2550  1.0155  1.6768
  382SOL    HW2 1146   2.316   2.085   0.317 -0.8874 -0.2594 -2.7119
  383SOL     OW 1147   0.253   1.894   2.944 -0.5450 -0.1678 -0.0587
  383SOL    HW1 1148   0.242   1.878   3.042  2.5171  0.6421 -2.2454
  383SOL    HW2 1149   0.352   1.876   2.924 -0.6517  1.4339  0.1221
  384SOL     OW 1150   0.801   2.113   2.932 -0.2723 -0.3890  0.4061
  384SOL    HW1 1151   0.864   2.034   2.950 -0.5912 -1.0608 -0.0787
  384SOL    HW2 1152   0.778   2.153   3.024  0.1489  0.9766  0.4362
  385SOL     OW 1153   2.430   2.014   0.630 -0.2105  0.4289 -0.7455
  385SOL    HW1 1154   2.487   2.079   0.684 -1.0153  2.6281  0.1967
  385SOL    HW2 1155   2.383   2.073   0.559  0.1646  2.6609 -1.7969
  386SOL     OW 1156   2.286   1.164   1.729  0.3375  0.2475  0.0083
  386SOL    HW1 1157   2.369   1.227   1.732  2.1670  0.8762  1.6651
  386SOL    HW2 1158   2.207   1.201   1.783  1.7048 -0.8274 -2.4727
  387SOL     OW 1159   2.882   1.581   2.221 -0.5820  0.4673  0.3373
  387SOL    HW1 1160   2.934   1.492   2.217 -1.4032 -1.9998 -1.5484
  387SOL    HW2 1161   2.923   1.649   2.283  0.2745 -0.4388  0.9700
  388SOL     OW 1162   0.269   1.740   1.955 -0.0286  0.1462 -0.5120
  388SOL    HW1 1163   0.290   1.697   2.041 -0.6218 -1.1164 -0.4631
  388SOL    HW2 1164   0.343   1.812   1.942 -1.1183  1.2849  0.5006
  389SOL     OW 1165   1.807   0.956   1.782 -0.3948  0.3721  0.0073
  389SOL    HW1 1166   1.872   0.940   1.706  3.5861  0.4478 -0.5305
  389SOL    HW2 1167   1.794   1.057   1.801 -0.8309  0.2565  1.0185
  390SOL     OW 1168   2.152   3.082   0.903  0.6689  0.0679  0.3352
  390SOL    HW1 1169   2.094   3.095   0.990 -2.1674 -2.0993 -1.5021
  390SOL    HW2 1170   2.158   0.031   0.861  0.6704  1.2949  2.6425
  391SOL     OW 1171   2.052   1.692   1.130 -0.1164  0.1570 -0.1271
  391SOL    HW1 1172   2.119   1.627   1.095 -1.1508  0.9283 -0.4529
  391SOL    HW2 1173   2.059   1.713   1.227 -0.8028  1.6974 -3.0901
  392SOL     OW 1174   2.742   2.547   0.314 -0.8888 -0.2288 -0.5325
  392SOL    HW1 1175   2.701   2.536   0.407 -0.3526  0.0521 -0.3953
  392SOL    HW2 1176   2.841   2.583   0.318  2.6344  0.4440  1.7742
  393SOL     OW 1177   1.989   1.894   2.832  0.3650 -0.7692 -0.2978
  393SOL    HW1 1178   1.996   1.890   2.730 -2.5630 -2.0077 -1.0429
  393SOL    HW2 1179   1.991   1.988   2.870 -1.2063 -2.7503 -0.3231
  394SOL     OW 1180   0.122   2.748   2.614 -0.0740  0.0742  0.3451
  394SOL    HW1 1181   0.026   2.752   2.586 -1.2579  1.2639  1.6696
  394SOL    HW2 1182   0.123   2.733   2.715 -1.0839 -2.7417  1.9199
  395SOL     OW 1183   0.691   0.324   0.639 -0.2549 -0.2261  0.1093
  395SOL    HW1 1184   0.598   0.309   0.596 -0.1866 -0.8702 -1.8015
  395SOL    HW2 1185   0.726   0.421   0.611 -0.6197  2.0341  2.1135
  396SOL     OW 1186   1.765   0.984   0.625  0.2908  0.4010  0.0846
  396SOL    HW1 1187   1.709   0.919   0.571  1.4009  1.3137  2.2188
  396SOL    HW2 1188   1.863   0.989   0.595 -0.8537 -1.3985  2.0998
  397SOL     OW 1189   0.605   0.750   2.260  0.1417 -0.1703 -0.3237
  397SOL    HW1 1190   0.703   0.740   2.289  0.1134  1.1405 -0.7888
  397SOL    HW2 1191   0.553   0.787   2.338 -0.9133 -1.6604 -1.1785
  398SOL     OW 1192   0.857   3.019   0.577 -0.1514  0.1360 -0.1696
  398SOL    HW1 1193   0.829   3.100   0.624  2.2092 -1.7403 -2.8393
  398SOL    HW2 1194   0.959   3.014   0.585  2.3267 -2.4020  1.4125
  399SOL     OW 1195   2.453   2.907   1.556  0.6464  0.2122 -0.5210
  399SOL    HW1 1196   2.473   2.809   1.533  0.9597  1.1679 -0.2971
  399SOL    HW2 1197   2.533   2.967   1.575  3.1413  2.6209  1.5013
  400SOL     OW 1198   0.863   1.765   2.267 -0.0523 -0.4875  0.0095
  400SOL    HW1 1199   0.921   1.835   2.218  3.8995 -0.1528  1.6029
  400SOL    HW2 1200   0.895   1.768   2.361  0.7387  1.1547 -0.3078
  401SOL     OW 1201   0.788   1.199   2.854  0.2854  0.0589  0.8858
  401SOL    HW1 1202   0.726   1.278   2.851 -1.2696  2.4772  0.1638
  401SOL    HW2 1203   0.724   1.117   2.864  1.3435  2.6188 -3.3478
  402SOL     OW 1204   2.995   1.970   0.693  0.0676  0.2286  0.3097
  402SOL    HW1 1205   2.944   2.046   0.642 -2.1678  3.5855  1.7243
  402SOL    HW2 1206   2.926   1.904   0.727  2.4752 -0.5152 -1.8892
  403SOL     OW 1207   0.055   1.121   2.199  0.2434 -0.0694  0.5198
  403SOL    HW1 1208   3.120   1.167   2.158  1.8183 -0.1436  0.0294
  403SOL    HW2 1209   0.138   1.175   2.188  1.6116 -1.6810 -0.4941
  404SOL     OW 1210   3.059   2.638   2.307 -0.2163  0.6508  0.0454
  404SOL    HW1 1211   3.044   2.555   2.251  1.4763 -1.4306 -0.6748
  404SOL    HW2 1212   0.011   2.654   2.312 -1.1591 -2.2249  0.2416
  405SOL     OW 1213   0.120   0.196   1.858  0.6069  0.5781 -0.1330
  405SOL    HW1 1214   0.204   0.249   1.857  0.3083 -1.7397 -1.0653
  405SOL    HW2 1215   0.049   0.225   1.929  1.6563  0.8579  2.3508
  406SOL     OW 1216   1.364   1.712   2.559  0.2221 -0.4745 -0.2512
  406SOL    HW1 1217   1.402   1.731   2.652 -1.5286 -1.4029  0.5848
  406SOL    HW2 1218   1.439   1.711   2.487 -0.3426 -0.3892 -0.4111
  407SOL     OW 1219   1.569   1.122   2.514 -0.3722  0.4816  0.4188
  407SOL    HW1 1220   1.523   1.136   2.423  1.4929 -0.4954  0.3917
  407SOL    HW2 1221   1.639   1.049   2.506 -2.4777  1.2293 -0.3332
  408SOL     OW 1222   0.714   2.957   2.484 -0.8003  0.4088  0.0680
  408SOL    HW1 1223   0.804   2.981   2.529 -2.1854  2.0781 -1.1266
  408SOL    HW2 1224   0.723   2.870   2.429  0.3370 -1.0514 -0.2469
  409SOL     OW 1225   0.019   2.048   0.919  0.5016 -0.3334 -0.0898
  409SOL    HW1 1226   3.131   2.026   0.826  3.1398 -0.4889  1.8657
  409SOL    HW2 1227   0.026   1.962   0.978  0.2673  0.5360  0.2879
  410SOL     OW 1228   2.731   1.387   0.251  0.0763 -0.1073  0.2285
  410SOL    HW1 1229   2.826   1.353   0.257 -0.5753 -1.1578  0.6344
  410SOL    HW2 1230   2.719   1.435   0.163 -3.3577 -0.6179  1.1474
  411SOL     OW 1231   0.247   0.072   1.147  0.0909 -0.1289 -0.3394
  411SOL    HW1 1232   0.227   0.032   1.236  0.3902 -0.3339 -2.0386
  411SOL    HW2 1233   0.338   0.083   1.118 -0.2119 -0.3962  1.5167
  412SOL     OW 1234   1.706   0.580   1.435  0.7997  0.3436 -0.6815
  412SOL    HW1 1235   1.801   0.583   1.398 -1.0335 -0.6759 -2.5216
  412SOL    HW2 1236   1.672   0.676   1.438  0.8802 -0.5269 -0.5283
  413SOL     OW 1237   0.829   0.315   1.949  0.1867 -0.0295  0.3599
  413SOL    HW1 1238   0.918   0.318   2.001  1.2778 -1.9051  1.3366
  413SOL    HW2 1239   0.750   0.380   1.974 -0.7674 -0.0727  0.0216
  414SOL     OW 1240   2.902   1.599   2.635  0.0975  0.7583 -0.0241
  414SOL    HW1 1241   2.975   1.538   2.669  1.2809  5.1027  0.2438
  414SOL    HW2 1242   2.810   1.553   2.663 -0.2173 -0.4154 -0.1692
  415SOL     OW 1243   0.689   2.458   0.137 -0.0050  0.7173  0.5448
  415SOL    HW1 1244   0.779   2.505   0.143 -2.2375  1.5081 -0.1356
  415SOL    HW2 1245   0.666   2.433   0.231  0.6392  1.0245 -2.0398
  416SOL     OW 1246   1.813   3.058   3.029 -0.0990  0.1616 -0.3730
  416SOL    HW1 1247   1.838   3.070   3.130  1.7269 -0.8163 -0.8471
  416SOL    HW2 1248   1.862   3.129   2.976 -1.7717  0.7450 -0.8503
  417SOL     OW 1249   0.414   0.337   0.584 -0.0070 -0.0291 -0.0890
  417SOL    HW1 1250   0.419   0.402   0.660  0.0525 -2.1535 -1.3749
  417SOL    HW2 1251   0.371   0.252   0.605  5.2195  1.2936 -0.7267
  418SOL     OW 1252   2.602   3.024   1.020  0.8142  0.1521  0.1835
  418SOL    HW1 1253   2.536   2.989   1.090 -0.7768  1.1813  0.8046
  418SOL    HW2 1254   2.674   2.956   1.000 -0.5622  1.2553  0.6515
  419SOL     OW 1255   0.058   2.832   0.541  0.1212  0.0894  0.1693
  419SOL    HW1 1256   0.104   2.848   0.630  1.3003  0.8112  1.0090
  419SOL    HW2 1257   0.123   2.809   0.466 -0.3399 -1.5517  0.4233
  420SOL     OW 1258   0.055   1.344   1.740  0.3353 -0.6522  0.2500
  420SOL    HW1 1259   0.138   1.346   1.680  0.4574 -1.9147  0.6311
  420SOL    HW2 1260   3.121   1.347   1.681  3.1486 -0.7609  1.8056
  421SOL     OW 1261   1.473   2.848   0.650  0.3752  0.0733  0.2794
  421SOL    HW1 1262   1.459   2.801   0.559  0.8030  1.6041  0.8009
  421SOL    HW2 1263   1.488   2.949   0.638 -0.5375  2.1199 -0.1052
  422SOL     OW 1264   0.601   0.500   1.522 -0.3316  0.4692 -0.6613
  422SOL    HW1 1265   0.674   0.460   1.583  0.1046  0.1945 -1.0630
  422SOL    HW2 1266   0.591   0.443   1.438 -0.8763  1.1207  1.1547
  423SOL     OW 1267   1.179   1.350   1.741 -0.8047  0.3938  0.5053
  423SOL    HW1 1268   1.171   1.449   1.724 -0.9375  1.9653  1.9517
  423SOL    HW2 1269   1.097   1.310   1.782 -0.7595 -1.1220  1.3873
  424SOL     OW 1270   1.951   2.091   0.223  0.6484 -0.5307 -0.1570
  424SOL    HW1 1271   2.021   2.164   0.203  1.8577 -0.4924 -1.4884
  424SOL    HW2 1272   1.980   2.046   0.313  2.3833  1.3031  2.5147
  425SOL     OW 1273   3.057   0.259   2.021  0.4257 -0.0441 -0.2341
  425SOL    HW1 1274   3.046   0.250   2.123  0.9936 -1.8466  1.4546
  425SOL    HW2 1275   2.994   0.191   1.972 -0.8849 -2.0758  0.2857
  426SOL     OW 1276   0.146   2.728   2.887  0.0286 -0.3884  0.3150
  426SOL    HW1 1277   0.177   2.823   2.905  0.7130 -1.2454 -1.0369
  426SOL    HW2 1278   0.213   2.653   2.917  2.4128 -2.1357 -1.1363
  427SOL     OW 1279   1.459   0.624   3.009 -0.3385  0.4309 -0.6292
  427SOL    HW1 1280   1.376   0.668   3.053 -4.0215 -0.8343 -2.4474
  427SOL    HW2 1281   1.545   0.651   3.046  0.7806  1.8915 -2.1298
  428SOL     OW 1282   2.890   0.968   1.868  0.0541 -0.2509  0.4100
  428SOL    HW1 1283   2.864   0.952   1.967  1.4993 -1.8069 -1.2912
  428SOL    HW2 1284   2.808   0.976   1.810 -1.1702 -0.2260 -0.7947
  429SOL     OW 1285   2.053   2.989   1.337  0.1036 -0.3123 -0.3910
  429SOL    HW1 1286   2.131   3.019   1.393 -0.2024  2.0438 -0.1633
  429SOL    HW2 1287   2.056   2.888   1.316  0.9040 -1.0390  0.5761
  430SOL     OW 1288   1.092   1.524   2.812 -0.2519 -0.2894  0.1275
  430SOL    HW1 1289   1.054   1.486   2.895  0.8954  1.3145  0.7826
  430SOL    HW2 1290   1.183   1.549   2.838 -1.2320 -2.4502  0.9931
  431SOL     OW 1291   2.788   1.550   1.577  0.3003  0.7160 -0.5817
  431SOL    HW1 1292   2.747   1.640   1.608  1.7234 -0.3460  0.1498
  431SOL    HW2 1293   2.866   1.569   1.518  0.2678 -0.8566 -1.3863
  432SOL     OW 1294   1.002   2.577   2.379 -0.1399 -0.1828  0.0364
  432SOL    HW1 1295   0.999   2.514   2.457  0.6711 -0.3714 -3.2167
  432SOL    HW2 1296   0.956   2.530   2.298 -0.3663  0.5252 -1.1147
  433SOL     OW 1297   2.084   0.366   2.056 -0.2571  0.2681 -0.2836
  433SOL    HW1 1298   2.096   0.282   2.116  1.5826  1.6672 -0.9104
  433SOL    HW2 1299   2.015   0.428   2.098  3.2374 -0.4011  0.9057
  434SOL     OW 1300   0.580   2.439   2.282  0.1237 -0.2206  0.3400
  434SOL    HW1 1301   0.566   2.539   2.301 -1.2489 -0.5177 -2.1746
  434SOL    HW2 1302   0.587   2.397   2.374  0.2836  2.6899 -1.8005
  435SOL     OW 1303   0.065   3.129   0.248  0.3187 -0.6037  0.1156
  435SOL    HW1 1304   0.136   0.060   0.240  2.2184  2.2982 -2.4745
  435SOL    HW2 1305   0.025   3.118   0.339 -1.7978 -0.7439 -2.2227
  436SOL     OW 1306   0.556   0.812   1.999  0.3087 -0.2417  0.3157
  436SOL    HW1 1307   0.540   0.908   1.968 -3.1652  0.7747  1.3048
  436SOL    HW2 1308   0.554   0.805   2.100  0.1485 -2.0296 -0.3923
  437SOL     OW 1309   0.484   2.341   2.586  0.7814  0.1710 -0.6823
  437SOL    HW1 1310   0.536   2.429   2.587 -1.4000 -0.4718 -0.6940
  437SOL    HW2 1311   0.436   2.330   2.678 -0.5486 -0.1224  1.4097
  438SOL     OW 1312   1.106   1.313   1.345 -0.1700 -0.0460 -0.3656
  438SOL    HW1 1313   1.011   1.288   1.319 -0.5394 -1.2993  1.3070
  438SOL    HW2 1314   1.161   1.229   1.355 -1.5871  2.0672 -0.7210
  439SOL     OW 1315   2.627   1.238   2.514 -0.4114 -0.0677 -0.2003
  439SOL    HW1 1316   2.648   1.143   2.535  0.0422 -0.5250  1.7632
  439SOL    HW2 1317   2.534   1.269   2.540  0.3138  0.9634 -0.9052
  440SOL     OW 1318   0.003   0.622   0.170  0.1542  0.0264 -0.0952
  440SOL    HW1 1319   0.012   0.528   0.132  1.5040 -2.7852  1.4564
  440SOL    HW2 1320   0.026   0.693   0.099  0.7159  0.7826 -0.4414
  441SOL     OW 1321   1.209   2.261   1.902 -0.2547  0.1346 -0.2703
  441SOL    HW1 1322   1.147   2.298   1.827  0.1439 -1.3602 -1.5508
  441SOL    HW2 1323   1.151   2.218   1.967  1.6317  2.8473 -0.2090
  442SOL     OW 1324   2.120   1.700   0.816 -0.5219  0.2849 -0.6049
  442SOL    HW1 1325   2.157   1.639   0.888 -2.0615 -0.7115  1.3518
  442SOL    HW2 1326   2.171   1.686   0.730  1.2846  0.5494 -0.7097
  443SOL     OW 1327   2.594   2.197   2.599 -0.1695 -0.4803 -0.1368
  443SOL    HW1 1328   2.643   2.221   2.687  0.3452  0.2941  0.1801
  443SOL    HW2 1329   2.519   2.263   2.575  1.5196 -0.7071  0.5448
  444SOL     OW 1330   1.786   1.699   2.793 -0.0225  0.4394 -0.1284
  444SOL    HW1 1331   1.811   1.701   2.891  2.6833 -1.4263  0.0654
  444SOL    HW2 1332   1.795   1.794   2.753 -2.2880  1.6150 -1.0240
  445SOL     OW 1333   2.375   2.652   1.936  0.1072  0.4944 -0.3396
  445SOL    HW1 1334   2.404   2.713   2.010 -2.0952 -0.0053 -0.7983
  445SOL    HW2 1335   2.424   2.562   1.940  3.5679  0.8791 -1.9754
  446SOL     OW 1336   0.919   0.982   1.698  0.6472 -0.0667  0.1087
  446SOL    HW1 1337   0.976   0.928   1.632 -1.3378  2.1951  0.5152
  446SOL    HW2 1338   0.889   0.925   1.772  0.7076  1.4551 -1.1694
  447SOL     OW 1339   0.871   1.173   1.267 -0.3165  0.6826 -0.2656
  447SOL    HW1 1340   0.861   1.073   1.297 -1.1634 -1.9953 -1.6640
  447SOL    HW2 1341   0.778   1.209   1.258  1.0434 -2.3871  1.0498
  448SOL     OW 1342   1.158   1.184   2.379 -0.0490  0.5474 -0.4830
  448SOL    HW1 1343   1.146   1.247   2.457 -1.1590  0.1517 -1.8604
  448SOL    HW2 1344   1.118   1.217   2.294  0.4840  0.1206  0.4450
  449SOL     OW 1345   3.102   2.146   2.250 -0.4805  0.1155 -0.0200
  449SOL    HW1 1346   3.105   2.123   2.352  0.8862 -0.4433  1.2700
  449SOL    HW2 1347   3.130   2.070   2.190  0.6138 -0.2049 -1.3333
  450SOL     OW 1348   2.370   1.738   2.074  0.4497 -0.2285  0.3278
  450SOL    HW1 1349   2.404   1.703   2.164 -2.3396  0.9151 -0.1012
  450SOL    HW2 1350   2.298   1.674   2.040 -1.5584  1.9287  1.5198
  451SOL     OW 1351   2.658   1.324   1.414  0.0675 -0.3628  0.5023
  451SOL    HW1 1352   2.656   1.418   1.450 -0.3232  1.7579  0.4298
  451SOL    HW2 1353   2.571   1.271   1.424  0.3463  0.6081 -0.3556
  452SOL     OW 1354   0.282   1.335   1.549  0.1947  0.4976 -0.8050
  452SOL    HW1 1355   0.255   1.275   1.470 -0.9377  0.6668  1.2715
  452SOL    HW2 1356   0.318   1.418   1.514  0.8885 -1.8929  1.3039
  453SOL     OW 1357   0.569   1.141   0.727  0.3466 -0.1487 -0.1192
  453SOL    HW1 1358   0.508   1.062   0.745  1.6072 -0.2125  1.0817
  453SOL    HW2 1359   0.607   1.174   0.819  2.3319 -1.4113  2.0188
  454SOL     OW 1360   0.839   1.634   0.421  0.3628  0.0753  0.1636
  454SOL    HW1 1361   0.851   1.589   0.512  1.5840 -1.9638  0.8448
  454SOL    HW2 1362   0.740   1.633   0.396 -1.4171  0.8043 -2.2638
  455SOL     OW 1363   1.848   0.769   1.264 -0.3618  0.0995 -0.3343
  455SOL    HW1 1364   1.771   0.795   1.327 -0.8864 -0.1979  0.8706
  455SOL    HW2 1365   1.899   0.686   1.294  2.5256  0.1082  1.2547
  456SOL     OW 1366   1.801   2.871   0.942 -0.2744  0.2652 -0.4473
  456SOL    HW1 1367   1.886   2.891   0.896  0.4655  0.7262  1.2796
  456SOL    HW2 1368   1.751   2.959   0.951  1.0129 -2.8802 -0.8156
  457SOL     OW 1369   1.828   0.376   2.411 -0.2246 -0.1775 -0.0729
  457SOL    HW1 1370   1.742   0.320   2.403  0.0840 -0.1678  2.7719
  457SOL    HW2 1371   1.891   0.328   2.477 -2.1741 -0.5113 -2.0280
  458SOL     OW 1372   2.546   0.684   2.971 -0.0081 -0.3822 -0.2728
  458SOL    HW1 1373   2.451   0.657   3.001 -0.4958 -1.1041 -0.2137
  458SOL    HW2 1374   2.613   0.606   2.968  0.1667  0.7346  1.8420
  459SOL     OW 1375   3.145   1.664   2.026  0.8950  0.0685 -0.2076
  459SOL    HW1 1376   0.076   1.687   1.968  0.0679 -0.8330  1.1400
  459SOL    HW2 1377   0.022   1.592   2.097 -0.8909 -2.8378  0.4375
  460SOL     OW 1378   0.376   0.748   3.125 -0.4245  0.7273 -0.1571
  460SOL    HW1 1379   0.333   0.691   3.052  1.7218 -1.3303  1.2327
  460SOL    HW2 1380   0.478   0.735   3.143  1.4868 -0.0339 -0.5245
  461SOL     OW 1381   3.062   2.393   0.435  0.0445 -0.0228 -0.7427
  461SOL    HW1 1382   3.032   2.307   0.393 -2.1165 -1.1523  0.5456
  461SOL    HW2 1383   0.015   2.404   0.414 -1.2840  0.3660  0.3723
  462SOL     OW 1384   0.078   2.948   1.550  0.1306  0.4177  0.0178
  462SOL    HW1 1385   0.178   2.923   1.546 -0.2360 -0.4585  0.5978
  462SOL    HW2 1386   0.058   3.040   1.512 -0.5058  1.2284  0.6514
  463SOL     OW 1387   1.627   2.091   1.849 -0.1638 -0.4072 -0.0745
  463SOL    HW1 1388   1.696   2.038   1.796 -1.7037  0.2878 -0.2349
  463SOL    HW2 1389   1.640   2.187   1.828 -1.7643 -0.7771 -1.1798
  464SOL     OW 1390   0.175   2.844   0.804  0.2612 -0.7475 -0.2317
  464SOL    HW1 1391   0.138   2.909   0.876  0.5681  0.4917  2.0863
  464SOL    HW2 1392   0.274   2.871   0.790  3.1785 -0.2134 -4.1650
  465SOL     OW 1393   0.419   0.241   1.529  0.3175 -0.0172 -0.0623
  465SOL    HW1 1394   0.440   0.180   1.606 -0.1856  2.0902 -1.7307
  465SOL    HW2 1395   0.351   0.310   1.559  2.6210 -1.0656  1.2447
  466SOL     OW 1396   1.114   2.098   2.384 -0.3063  0.0624 -0.0486
  466SOL    HW1 1397   1.135   2.023   2.455 -0.7574 -0.8816  1.1017
  466SOL    HW2 1398   1.029   2.150   2.409  2.4907 -0.6414 -0.8045
  467SOL     OW 1399   2.978   1.227   0.982  0.0459  0.3472  0.1210
  467SOL    HW1 1400   2.940   1.312   1.014 -1.2510 -1.5863 -1.0408
  467SOL    HW2 1401   2.930   1.200   0.894 -0.1128 -0.5154 -2.3100
  468SOL     OW 1402   2.370   2.016   2.805  0.1207  0.2470 -0.8611
  468SOL    HW1 1403   2.362   1.918   2.833 -0.9378 -1.6810  0.3312
  468SOL    HW2 1404   2.372   2.023   2.703  0.1092 -0.3572 -1.3304
  469SOL     OW 1405   1.325   2.369   0.660  0.0941 -0.0053  0.6015
  469SOL    HW1 1406   1.310   2.348   0.558 -0.1689  0.2380 -1.9976
  469SOL    HW2 1407   1.315   2.279   0.712  0.3859  1.3078  1.2301
  470SOL     OW 1408   2.071   1.793   1.399 -0.6237 -0.0218 -0.0572
  470SOL    HW1 1409   2.063   1.890   1.366 -0.5977  0.5449  0.5048
  470SOL    HW2 1410   2.168   1.777   1.433  1.2178 -1.4761  0.9542
  471SOL     OW 1411   0.190   2.386   0.342  0.5267 -0.0813  0.0930
  471SOL    HW1 1412   0.272   2.417   0.390  0.7019  0.2813 -0.5716
  471SOL    HW2 1413   0.182   2.285   0.358 -2.6208  1.1965  1.0311
  472SOL     OW 1414   2.586   1.781   2.471  0.6779  0.2751  0.3645
  472SOL    HW1 1415   2.655   1.847   2.435 -0.0823  2.6075 -1.3323
  472SOL    HW2 1416   2.554   1.716   2.399  0.0574 -0.3087  0.2578
  473SOL     OW 1417   1.409   2.632   1.065 -0.4508  0.1984  0.2438
  473SOL    HW1 1418   1.310   2.659   1.054  0.7691  0.2499  0.3004
  473SOL    HW2 1419   1.464   2.657   0.983  0.8811 -1.0003  0.1334
  474SOL     OW 1420   2.938   0.187   1.190 -0.5561 -0.9566  0.5317
  474SOL    HW1 1421   2.942   0.147   1.281 -0.1616 -1.9074 -1.0245
  474SOL    HW2 1422   2.853   0.150   1.140 -2.2759 -0.1129 -2.4586
  475SOL     OW 1423   2.174   2.787   2.078 -0.2458 -0.3182  0.3323
  475SOL    HW1 1424   2.228   2.704   2.054 -1.2961  3.3080 -0.0100
  475SOL    HW2 1425   2.231   2.866   2.039  0.6900  1.3570 -1.0755
  476SOL     OW 1426   0.426   0.479   0.812 -0.3395  0.3030 -0.2780
  476SOL    HW1 1427   0.501   0.423   0.860  1.2157 -0.2966  2.4280
  476SOL    HW2 1428   0.342   0.492   0.877 -4.2272  0.9549  1.3610
  477SOL     OW 1429   0.825   2.106   0.967  0.2562 -0.7954 -0.0513
  477SOL    HW1 1430   0.748   2.138   1.025  1.3053  1.4997  1.8210
  477SOL    HW2 1431   0.816   2.006   0.956 -1.2815 -0.5214  1.3113
  478SOL     OW 1432   0.895   2.441   2.855  0.4217 -0.3432  0.3095
  478SOL    HW1 1433   0.897   2.342   2.881  1.7683 -1.9832  0.5157
  478SOL    HW2 1434   0.802   2.474   2.854  0.5793 -2.0832  0.1393
  479SOL     OW 1435   2.948   1.203   2.095  0.4113  0.1019 -0.3147
  479SOL    HW1 1436   2.882   1.124   2.076 -0.4034  0.2387 -1.7912
  479SOL    HW2 1437   2.961   1.262   2.012 -0.3851 -0.8100  1.5951
  480SOL     OW 1438   0.293   2.521   2.990 -0.0631  0.4326  0.5757
  480SOL    HW1 1439   0.230   2.494   3.065  0.6303  2.1235  0.7002
  480SOL    HW2 1440   0.381   2.559   3.031  0.5806  1.8001  1.0989
  481SOL     OW 1441   1.688   2.983   2.238 -0.0470 -0.3196  0.1132
  481SOL    HW1 1442   1.777   2.970   2.286 -2.4865 -1.3718  1.2160
  481SOL    HW2 1443   1.657   3.083   2.233  1.7451 -1.0811 -1.7980
  482SOL     OW 1444   1.819   1.975   0.003  0.2487  0.0394  0.1410
  482SOL    HW1 1445   1.862   2.008   0.090 -2.5412 -1.5013 -0.3753
  482SOL    HW2 1446   1.846   2.036   3.068  0.7307 -2.0213 -1.3954
  483SOL     OW 1447   1.002   2.432   2.604  0.3008 -0.2964 -0.0937
  483SOL    HW1 1448   1.096   2.392   2.596  0.7132 -2.7758  2.0032
  483SOL    HW2 1449   0.967   2.439   2.697 -0.2421  0.2355 -2.5862
  484SOL     OW 1450   0.651   2.828   1.053  0.1727 -0.4078 -0.1938
  484SOL    HW1 1451   0.599   2.888   0.993  0.1879 -0.6385  4.1816
  484SOL    HW2 1452   0.661   2.874   1.143  3.2830 -1.5033 -0.4272
  485SOL     OW 1453   2.175   0.722   0.774 -0.3305 -0.4571  0.0472
  485SOL    HW1 1454   2.163   0.823   0.785  1.3814  0.5051  0.1223
  485SOL    HW2 1455   2.113   0.667   0.834  2.0511  1.3882 -0.1823
  486SOL     OW 1456   2.106   2.840   2.350 -0.0325 -0.0867 -0.2397
  486SOL    HW1 1457   2.114   2.749   2.395 -1.1439  1.3709 -1.0073
  486SOL    HW2 1458   2.146   2.825   2.255 -1.7049  0.0460 -0.1218
  487SOL     OW 1459   1.057   1.796   0.772 -0.3962 -0.1695  0.2054
  487SOL    HW1 1460   1.030   1.808   0.675  3.4795  1.1184 -2.0378
  487SOL    HW2 1461   1.078   1.884   0.819  0.5930 -0.6145 -1.7682
  488SOL     OW 1462   2.218   0.337   0.137  0.0537  0.0672 -0.4070
  488SOL    HW1 1463   2.228   0.401   0.220  0.6480  1.6374  1.6765
  488SOL    HW2 1464   2.167   0.385   0.068  1.1778 -0.7565  0.5164
  489SOL     OW 1465   2.130   2.941   0.495 -0.4731  0.1957  0.8023
  489SOL    HW1 1466   2.205   3.003   0.462  2.5802 -0.5734 -2.1755
  489SOL    HW2 1467   2.077   2.983   0.565  0.6414  0.2756 -0.1824
  490SOL     OW 1468   1.574   2.943   2.954 -0.0848 -0.4467 -0.4911
  490SOL    HW1 1469   1.662   2.999   2.965  3.5629  1.0674  0.7970
  490SOL    HW2 1470   1.546   2.890   3.035  1.6122  0.3281 -0.8920
  491SOL     OW 1471   0.827   0.064   1.231 -0.4030 -0.6327  0.7653
  491SOL    HW1 1472   0.848   0.120   1.317 -1.4307 -1.5082 -0.8889
  491SOL    HW2 1473   0.911   0.074   1.172  0.6767  0.5201 -1.1727
  492SOL     OW 1474   1.914   2.961   0.319 -0.2559  0.4059 -0.0402
  492SOL    HW1 1475   1.963   2.966   0.406 -2.0197  2.5696 -1.2166
  492SOL    HW2 1476   1.937   2.874   0.271 -0.1680  0.7239  0.5932
  493SOL     OW 1477   1.249   2.211   2.782  0.1138  0.0486 -0.1770
  493SOL    HW1 1478   1.250   2.256   2.874  0.1040  4.0593 -0.4308
  493SOL    HW2 1479   1.224   2.113   2.782 -0.2454 -1.4287 -0.5418
  494SOL     OW 1480   0.328   1.249   0.995  0.4130 -0.3051 -0.7057
  494SOL    HW1 1481   0.297   1.215   1.082 -0.4918  0.0835  0.6516
  494SOL    HW2 1482   0.431   1.260   0.998  1.0350 -0.0266  0.0232
  495SOL     OW 1483   2.935   0.531   1.575  0.5850 -0.5160 -0.5285
  495SOL    HW1 1484   3.021   0.554   1.520 -0.5428 -1.4480  0.3227
  495SOL    HW2 1485   2.926   0.602   1.658 -0.9444  0.8333  2.3204
  496SOL     OW 1486   2.519   2.360   2.317 -0.3613  0.3991 -0.3131
  496SOL    HW1 1487   2.587   2.340   2.244 -0.0483  0.6359  0.4777
  496SOL    HW2 1488   2.455   2.434   2.286  1.0635  0.4252 -0.8708
  497SOL     OW 1489   1.539   1.403   2.583 -0.4238  0.0915  0.3205
  497SOL    HW1 1490   1.575   1.324   2.535 -0.2720  2.3652  0.2665
  497SOL    HW2 1491   1.453   1.436   2.544  2.9063 -0.0430  2.1884
  498SOL     OW 1492   0.889   2.184   0.710  0.3898 -0.6714  0.3244
  498SOL    HW1 1493   0.976   2.237   0.713  0.9097 -0.4442 -0.4923
  498SOL    HW2 1494   0.856   2.163   0.805  1.1299 -0.7392  2.1423
  499SOL     OW 1495   0.151   1.562   0.998  0.4887  0.3385  0.2382
  499SOL    HW1 1496   0.101   1.562   0.909 -0.7067 -0.3498  1.5246
  499SOL    HW2 1497   0.251   1.555   0.977 -2.2280  1.1421  0.7446
  500SOL     OW 1498   1.425   2.496   0.379 -0.2729  0.1516  0.5708
  500SOL    HW1 1499   1.457   2.477   0.284  0.7799  0.3259 -0.4364
  500SOL    HW2 1500   1.421   2.598   0.389 -1.8227 -1.4941  0.0240
  501SOL     OW 1501   2.194   2.540   1.150 -0.2562 -0.3242 -0.5049
  501SOL    HW1 1502   2.159   2.445   1.134 -0.1794 -0.2763  1.7937
  501SOL    HW2 1503   2.212   2.591   1.065 -0.5262  1.6442  1.3070
  502SOL     OW 1504   0.411   0.641   1.635 -0.1905 -0.3467  0.5216
  502SOL    HW1 1505   0.334   0.584   1.602  2.0288  0.3375  0.5402
  502SOL    HW2 1506   0.497   0.611   1.583 -0.3082 -1.0057 -0.3962
  503SOL     OW 1507   2.046   0.215   1.650 -0.2630 -0.0209  0.0622
  503SOL    HW1 1508   1.951   0.217   1.608 -0.8158  2.4007 -0.5097
  503SOL    HW2 1509   2.057   0.122   1.694 -1.3610 -0.7718 -2.0725
  504SOL     OW 1510   2.184   0.742   1.925  0.1474 -0.3712  0.3044
  504SOL    HW1 1511   2.108   0.680   1.898 -0.0905  1.3685  0.4062
  504SOL    HW2 1512   2.227   0.789   1.847  0.8617 -1.0991 -1.4951
  505SOL     OW 1513   1.267   2.984   2.253 -0.1540  0.2133  0.8465
  505SOL    HW1 1514   1.216   2.915   2.303  0.9457  1.4236  0.6505
  505SOL    HW2 1515   1.336   3.015   2.319 -0.0419  0.3858  2.8743
  506SOL     OW 1516   0.350   0.344   1.820 -0.3659  0.6498  0.7502
  506SOL    HW1 1517   0.379   0.438   1.849  1.7417  0.0569  1.9495
  506SOL    HW2 1518   0.432   0.282   1.805 -0.6093  0.0805  1.5066
  507SOL     OW 1519   1.511   0.141   0.008 -0.5683  0.1124 -0.1556
  507SOL    HW1 1520   1.453   0.065   0.041  2.5838  1.7094 -0.0576
  507SOL    HW2 1521   1.574   0.173   0.081  2.1987  0.1439 -1.4121
  508SOL     OW 1522   2.012   0.596   2.375  0.1671  0.0509 -0.1104
  508SOL    HW1 1523   2.040   0.641   2.282 -1.4996  0.0675 -3.7423
  508SOL    HW2 1524   1.965   0.512   2.350 -1.5796  1.9497  0.3563
  509SOL     OW 1525   0.884   1.484   2.230 -0.4056 -0.6766 -0.3688
  509SOL    HW1 1526   0.856   1.446   2.319  0.1828 -0.3353 -0.3933
  509SOL    HW2 1527   0.880   1.584   2.228 -0.5869 -0.5847  1.6157
  510SOL     OW 1528   2.900   0.436   0.889  0.1436 -0.3877  0.1190
  510SOL    HW1 1529   2.950   0.513   0.847 -1.1958 -1.6429 -1.3303
  510SOL    HW2 1530   2.880   0.459   0.988 -0.0630  1.1103 -0.9950
  511SOL     OW 1531   1.714   1.527   1.336 -0.6866  0.3507  0.2159
  511SOL    HW1 1532   1.682   1.609   1.389 -0.8699 -1.0637 -0.2827
  511SOL    HW2 1533   1.793   1.484   1.380 -0.4057  0.2130 -0.8724
  512SOL     OW 1534   0.399   1.602   0.603 -0.3018  0.8444 -0.0775
  512SOL    HW1 1535   0.403   1.683   0.666  2.0159 -2.1207  0.9789
  512SOL    HW2 1536   0.393   1.518   0.661  0.3455  0.5749  1.7225
  513SOL     OW 1537   0.667   2.256   1.152  0.2027 -0.1844  0.0244
  513SOL    HW1 1538   0.605   2.181   1.171  1.0470  0.2407 -1.3762
  513SOL    HW2 1539   0.625   2.351   1.170 -1.2284  0.1191  2.5244
  514SOL     OW 1540   0.175   2.131   0.384  0.2993  0.2179 -0.0294
  514SOL    HW1 1541   0.070   2.121   0.382  0.3974 -1.8627  1.0250
  514SOL    HW2 1542   0.208   2.043   0.345  0.4509  0.3386 -0.6935
  515SOL     OW 1543   2.770   3.071   3.131  0.2233 -0.1464  0.7079
  515SOL    HW1 1544   2.821   2.990   3.098 -3.4359  0.7170  0.7342
  515SOL    HW2 1545   2.807   3.109   0.071  0.9750 -0.3131 -0.0558
  516SOL     OW 1546   2.014   0.013   1.122 -0.3371 -0.0960 -0.1120
  516SOL    HW1 1547   1.917   0.057   1.137 -1.8811  0.1888  0.2056
  516SOL    HW2 1548   2.024   3.090   1.195 -0.6582  1.2992  0.6023
  517SOL     OW 1549   1.642   1.657   0.587  0.3858  0.4557  0.3794
  517SOL    HW1 1550   1.674   1.664   0.685 -1.0289  1.3916 -0.4995
  517SOL    HW2 1551   1.619   1.558   0.563 -2.2350  2.5389 -0.6636
  518SOL     OW 1552   1.428   0.380   0.918 -0.2058  0.0374  0.1896
  518SOL    HW1 1553   1.352   0.407   0.856 -2.7009  0.0131  2.6050
  518SOL    HW2 1554   1.518   0.411   0.888 -0.8207 -2.1686  1.1377
  519SOL     OW 1555   2.777   2.304   0.201  0.1694  0.1450  0.3327
  519SOL    HW1 1556   2.766   2.396   0.249 -0.4094 -1.7315  0.2266
  519SOL    HW2 1557   2.843   2.309   0.119 -1.4479 -1.8945 -0.9037
  520SOL     OW 1558   1.967   2.061   1.913 -0.2186 -0.0538  0.0291
  520SOL    HW1 1559   1.949   1.979   1.978  1.3812 -0.1464  1.7549
  520SOL    HW2 1560   1.941   2.046   1.815  1.2883  1.6460 -3.1477
  521SOL     OW 1561   1.510   2.786   2.317  0.0702 -0.5455  0.4133
  521SOL    HW1 1562   1.415   2.810   2.333  0.8301  0.0752  2.1658
  521SOL    HW2 1563   1.566   2.870   2.319  0.7629 -0.9843  0.3487
  522SOL     OW 1564   2.923   0.131   1.819 -0.0627 -0.1571  0.0192
  522SOL    HW1 1565   2.861   0.182   1.754  1.5995  1.9159  0.2288
  522SOL    HW2 1566   2.939   0.035   1.793  3.1388 -1.5804  1.4755
  523SOL     OW 1567   1.106   2.167   1.479 -0.1029 -0.4608  0.4566
  523SOL    HW1 1568   1.038   2.231   1.517  1.6420 -0.4755 -0.2292
  523SOL    HW2 1569   1.118   2.178   1.378  2.1138 -0.6834  1.5449
  524SOL     OW 1570   2.251   2.135   3.014 -0.3943 -0.3249 -0.1112
  524SOL    HW1 1571   2.305   2.086   2.945 -0.7316  3.0008  0.8188
  524SOL    HW2 1572   2.215   2.073   3.086 -1.4700 -2.7310  3.3478
  525SOL     OW 1573   2.944   1.066   0.075 -0.1690  0.6444  0.3524
  525SOL    HW1 1574   3.031   1.018   0.061  0.0953 -0.7857 -1.4504
  525SOL    HW2 1575   2.859   1.020   0.044  0.7536 -2.3082  0.4127
  526SOL     OW 1576   0.880   2.826   0.913  0.2732  0.3051  0.0102
  526SOL    HW1 1577   0.905   2.925   0.909  2.2932  2.3935  1.1943
  526SOL    HW2 1578   0.808   2.813   0.984 -0.3542 -2.0319 -1.1601
  527SOL     OW 1579   2.515   1.478   0.616  0.3093  0.3441  0.2584
  527SOL    HW1 1580   2.414   1.462   0.609  1.2051 -1.3309 -0.6091
  527SOL    HW2 1581   2.546   1.560   0.565 -0.3156  0.4696  1.9605
  528SOL     OW 1582   0.668   0.908   2.631 -0.4716  0.3126 -0.0165
  528SOL    HW1 1583   0.707   0.981   2.576 -0.3063  1.0877  1.9684
  528SOL    HW2 1584   0.590   0.878   2.574 -0.5774  1.1394  1.9609
  529SOL     OW 1585   0.689   1.468   0.067 -0.1841 -0.4747  0.2008
  529SOL    HW1 1586   0.647   1.559   0.060  0.2840  1.1060 -0.5052
  529SOL    HW2 1587   0.621   1.390   0.065 -0.7526  0.7576  1.2886
  530SOL     OW 1588   1.412   0.959   1.894 -0.3343 -0.2218 -0.4972
  530SOL    HW1 1589   1.492   0.901   1.927  3.8450  3.1852 -0.3939
  530SOL    HW2 1590   1.325   0.944   1.948 -1.6161 -2.6326 -0.1048
  531SOL     OW 1591   1.196   2.100   3.063 -0.4091  0.2241  0.2245
  531SOL    HW1 1592   1.112   2.046   3.052  0.7470  0.5077  1.0593
  531SOL    HW2 1593   1.287   2.056   3.037  0.2421 -1.9766 -1.2366
  532SOL     OW 1594   2.388   0.900   0.025  0.6507 -0.0058  0.2606
  532SOL    HW1 1595   2.484   0.866   0.015  1.0619 -1.0227  1.2194
  532SOL    HW2 1596   2.325   0.824   0.003 -2.3696  0.8039 -1.7251
  533SOL     OW 1597   0.019   0.541   2.067 -0.2436 -0.8072  0.4222
  533SOL    HW1 1598   0.031   0.443   2.052  1.1929  0.0983  0.8917
  533SOL    HW2 1599   3.070   0.576   2.043 -2.7447  1.8036  0.4195
  534SOL     OW 1600   1.907   0.024   0.140 -0.2729 -0.3469 -0.1782
  534SOL    HW1 1601   1.912   3.098   0.213  2.9623 -0.1478  0.4352
  534SOL    HW2 1602   2.002   0.047   0.107  0.6053  0.5691 -0.2062
  535SOL     OW 1603   0.521   0.287   2.909 -0.1885 -0.2428 -0.5391
  535SOL    HW1 1604   0.527   0.222   2.829 -0.7223 -0.1059  0.7895
  535SOL    HW2 1605   0.529   0.385   2.878  2.2937 -0.9301 -0.8976
  536SOL     OW 1606   0.809   1.913   1.743  0.6525 -0.0072 -0.1536
  536SOL    HW1 1607   0.755   1.912   1.654 -0.7986 -1.9912  1.9177
  536SOL    HW2 1608   0.910   1.904   1.724 -0.8673 -2.7767  1.0607
  537SOL     OW 1609   3.048   2.739   1.580 -0.3098 -0.1180  0.6359
  537SOL    HW1 1610   3.119   2.812   1.563 -4.1653 -1.4436  0.2196
  537SOL    HW2 1611   2.997   2.712   1.493 -0.1048 -2.7630  1.7991
  538SOL     OW 1612   3.055   2.148   0.316  0.7078 -0.4699  0.2004
  538SOL    HW1 1613   2.974   2.119   0.371 -1.3496 -1.0744  2.6465
  538SOL    HW2 1614   3.045   2.124   0.223  0.1312 -1.2511  2.4509
  539SOL     OW 1615   2.560   0.907   2.804  0.1344 -0.1762 -0.1895
  539SOL    HW1 1616   2.587   0.831   2.871  0.7079 -0.9380 -0.4693
  539SOL    HW2 1617   2.556   0.998   2.849 -0.9325  3.8886  0.4435
  540SOL     OW 1618   1.892   0.827   0.165 -0.2078  0.4656 -0.1870
  540SOL    HW1 1619   1.913   0.923   0.181  0.8731  0.4756  1.2924
  540SOL    HW2 1620   1.802   0.827   0.117  1.2827 -1.9472 -0.5661
  541SOL     OW 1621   0.890   0.613   2.109 -0.3382 -0.5800 -0.3192
  541SOL    HW1 1622   0.895   0.652   2.206  2.1443 -1.0837  1.0408
  541SOL    HW2 1623   0.799   0.575   2.083  1.6114  0.6247  2.6805
  542SOL     OW 1624   1.608   2.540   2.231  0.0798 -0.1605 -0.1124
  542SOL    HW1 1625   1.595   2.635   2.256 -0.1305 -1.4070  1.8541
  542SOL    HW2 1626   1.683   2.527   2.167 -2.0486  0.0814 -1.3934
  543SOL     OW 1627   0.888   2.809   0.416  0.1126  0.3409  0.2399
  543SOL    HW1 1628   0.871   2.889   0.483 -1.6033  2.2827  0.6339
  543SOL    HW2 1629   0.854   2.831   0.322 -1.4067 -1.0085 -0.0376
  544SOL     OW 1630   2.839   2.002   2.195 -0.7556  0.2721 -0.5882
  544SOL    HW1 1631   2.942   2.013   2.203  2.7461 -0.2658  1.4239
  544SOL    HW2 1632   2.799   2.001   2.289  0.7710  2.1303  1.8104
  545SOL     OW 1633   1.376   2.105   1.515 -0.3746  0.1067  0.0140
  545SOL    HW1 1634   1.389   2.088   1.617 -1.8817 -0.6750 -1.4516
  545SOL    HW2 1635   1.278   2.134   1.502 -1.9201 -0.8444  1.6355
  546SOL     OW 1636   0.505   3.138   2.358  0.3255 -0.4249  0.2473
  546SOL    HW1 1637   0.569   3.087   2.414  0.6231  1.1083 -0.0397
  546SOL    HW2 1638   0.412   0.000   2.391  0.3247  0.7369 -2.2395
  547SOL     OW 1639   1.204   0.168   0.391  0.0664  0.1611  0.2050
  547SOL    HW1 1640   1.170   0.212   0.305  1.2352  0.4988 -0.0439
  547SOL    HW2 1641   1.179   0.218   0.478 -1.2039  0.0109  2.5459
  548SOL     OW 1642   1.448   2.017   0.016  0.4967 -0.0163  0.4363
  548SOL    HW1 1643   1.507   2.101   0.021 -1.9286 -0.6834 -0.0091
  548SOL    HW2 1644   1.505   1.938   3.130  0.8446 -0.4309  0.3299
  549SOL     OW 1645   2.160   1.152   0.336  0.2784  0.2294 -0.6623
  549SOL    HW1 1646   2.170   1.208   0.255 -2.0645 -1.2810  2.5736
  549SOL    HW2 1647   2.250   1.150   0.387  2.2320 -1.1424 -1.7343
  550SOL     OW 1648   2.688   2.077   0.313 -0.2249 -0.7116 -0.1124
  550SOL    HW1 1649   2.600   2.054   0.283  1.3494 -0.0904  0.4993
  550SOL    HW2 1650   2.720   2.163   0.271 -1.9222 -0.1394  1.9291
  551SOL     OW 1651   1.368   0.401   1.444  0.3183 -0.2608 -0.1002
  551SOL    HW1 1652   1.422   0.424   1.362 -1.7951 -0.8084  0.0135
  551SOL    HW2 1653   1.360   0.299   1.453  1.6036 -1.4973  0.2073
  552SOL     OW 1654   0.146   2.136   2.824 -0.6373 -0.3002 -0.6252
  552SOL    HW1 1655   0.188   2.048   2.841 -0.3898  2.4576 -1.4339
  552SOL    HW2 1656   0.113   2.184   2.910  0.2877  0.6617 -0.2127
  553SOL     OW 1657   2.986   2.749   0.706 -0.2998  0.0616 -0.0771
  553SOL    HW1 1658   3.008   2.648   0.703 -2.3040  3.0236 -0.0947
  553SOL    HW2 1659   3.050   2.812   0.657 -1.7094  1.3027  2.0290
  554SOL     OW 1660   2.112   1.479   1.692 -0.0035  0.1697  0.5267
  554SOL    HW1 1661   2.109   1.415   1.772 -0.8028 -0.5158 -1.0622
  554SOL    HW2 1662   2.051   1.445   1.618 -1.5093  2.1994 -0.2466
  555SOL     OW 1663   1.314   2.265   2.242 -0.0961 -0.0121 -0.2995
  555SOL    HW1 1664   1.225   2.227   2.273  0.1492  0.6605 -0.3581
  555SOL    HW2 1665   1.307   2.368   2.243  3.1118  0.9182  0.3183
  556SOL     OW 1666   1.405   1.602   1.939  0.0586 -0.9661 -0.2918
  556SOL    HW1 1667   1.354   1.537   2.004 -2.4486 -1.5544  2.9028
  556SOL    HW2 1668   1.441   1.541   1.866 -0.7478  2.8731  2.8567
  557SOL     OW 1669   1.500   3.102   1.840  1.0571 -0.0545 -0.3479
  557SOL    HW1 1670   1.544   3.009   1.856  1.5832 -1.3747 -2.5650
  557SOL    HW2 1671   1.404   3.099   1.872  1.6078 -0.7841  0.8119
  558SOL     OW 1672   0.572   3.104   2.109 -0.0770 -0.3090 -0.2463
  558SOL    HW1 1673   0.495   3.109   2.040 -0.2029  1.9595 -2.7791
  558SOL    HW2 1674   0.533   3.108   2.204  0.2807 -0.5087  0.6384
  559SOL     OW 1675   1.693   2.397   0.186  0.1678  0.1708 -0.3577
  559SOL    HW1 1676   1.709   2.497   0.158 -1.3979 -0.5146  2.3923
  559SOL    HW2 1677   1.781   2.368   0.224 -0.4928 -1.5611  0.2327
  560SOL     OW 1678   1.216   2.256   0.399  0.3335  0.1545  0.1888
  560SOL    HW1 1679   1.245   2.178   0.339 -0.4804 -1.1088  0.4166
  560SOL    HW2 1680   1.174   2.329   0.345  2.1945 -0.3183 -0.1993
  561SOL     OW 1681   1.468   0.479   0.203  0.4970  0.2750  0.5203
  561SOL    HW1 1682   1.564   0.495   0.167  1.4677 -0.5301 -2.3877
  561SOL    HW2 1683   1.428   0.404   0.143  1.5874  0.7837  1.0442
  562SOL     OW 1684   0.450   1.371   1.987 -0.3152  0.4361 -0.3031
  562SOL    HW1 1685   0.543   1.407   1.999  0.7838 -0.0436 -0.4637
  562SOL    HW2 1686   0.441   1.335   1.895 -1.1321 -1.6143  0.0436
  563SOL     OW 1687   1.541   2.218   2.744 -0.0009  0.2832  0.2892
  563SOL    HW1 1688   1.441   2.232   2.761 -1.0588 -1.1639  1.8442
  563SOL    HW2 1689   1.569   2.127   2.728 -0.8725  4.7329 -0.3571
  564SOL     OW 1690   2.773   0.902   0.974 -0.4099 -0.0115  0.3012
  564SOL    HW1 1691   2.692   0.842   0.988 -1.2782 -1.8341 -0.5448
  564SOL    HW2 1692   2.751   0.991   1.022  0.2519 -1.8204  0.9293
  565SOL     OW 1693   0.614   1.198   0.081  0.3903 -0.2000 -0.5978
  565SOL    HW1 1694   0.561   1.140   0.017 -1.0439  0.7694 -1.1283
  565SOL    HW2 1695   0.715   1.172   0.077  2.7221 -0.2130  0.4872
  566SOL     OW 1696   2.504   2.810   2.984  0.1497  0.0137 -0.2335
  566SOL    HW1 1697   2.519   2.894   3.038 -1.9949 -0.8217 -0.8827
  566SOL    HW2 1698   2.466   2.737   3.038 -0.9505  1.4267 -1.8735
  567SOL     OW 1699   1.495   1.370   1.287 -0.4340  0.0138  0.0020
  567SOL    HW1 1700   1.584   1.423   1.295  1.5536  0.6312  0.9440
  567SOL    HW2 1701   1.422   1.439   1.296  2.4720  0.7971  0.9060
  568SOL     OW 1702   1.410   1.100   2.928 -0.2444  0.0422  0.3716
  568SOL    HW1 1703   1.322   1.076   2.884 -0.4811  0.3086  0.0847
  568SOL    HW2 1704   1.431   1.199   2.914  0.9183 -1.8356  1.2150
  569SOL     OW 1705   2.194   1.959   0.064 -0.0560  0.0479 -0.1637
  569SOL    HW1 1706   2.266   1.982   0.135 -1.4007 -2.3024  0.2411
  569SOL    HW2 1707   2.113   1.921   0.112 -1.9206 -0.1198  0.9885
  570SOL     OW 1708   2.960   2.359   2.207  0.3929 -0.2688  0.0385
  570SOL    HW1 1709   2.982   2.400   2.116  0.5849 -0.5868 -0.1676
  570SOL    HW2 1710   3.009   2.268   2.223 -0.9107 -4.4914  0.1774
  571SOL     OW 1711   2.847   2.139   1.727  0.3818 -0.3158  0.4267
  571SOL    HW1 1712   2.897   2.051   1.728  3.4829  0.2656 -0.1665
  571SOL    HW2 1713   2.791   2.146   1.816 -2.5807  0.7966  1.3905
  572SOL     OW 1714   1.573   2.248   0.438 -0.2081 -0.2170  0.1313
  572SOL    HW1 1715   1.497   2.315   0.426 -1.0426  1.3495 -1.1807
  572SOL    HW2 1716   1.660   2.300   0.427  1.6073  0.6561 -1.1249
  573SOL     OW 1717   1.401   1.898   0.642 -0.7772  0.2980  0.2436
  573SOL    HW1 1718   1.492   1.906   0.590  1.8575  1.9389  0.5850
  573SOL    HW2 1719   1.371   1.988   0.682 -1.1167 -0.7484  0.2199
  574SOL     OW 1720   1.463   3.035   1.552  0.0102 -0.3710  0.4355
  574SOL    HW1 1721   1.456   2.933   1.548  1.8735 -2.1211  1.4338
  574SOL    HW2 1722   1.481   3.063   1.648  1.2923  1.6576 -1.6201
  575SOL     OW 1723   0.580   1.169   1.254 -0.3334 -0.2756  0.1837
  575SOL    HW1 1724   0.557   1.092   1.315  2.8862  0.3539  0.7829
  575SOL    HW2 1725   0.551   1.259   1.295  0.2791  0.9075 -0.7677
  576SOL     OW 1726   2.712   0.131   1.026  0.2287  0.2411 -0.0489
  576SOL    HW1 1727   2.772   0.155   0.947 -0.2545  0.3020  1.1608
  576SOL    HW2 1728   2.667   0.037   1.018  0.1869 -0.3214  0.0960
  577SOL     OW 1729   1.634   0.517   2.613 -0.5349  0.0661 -0.1258
  577SOL    HW1 1730   1.545   0.504   2.566 -3.7580  0.5711  1.7644
  577SOL    HW2 1731   1.707   0.470   2.559 -1.0878 -2.0218  1.4140
  578SOL     OW 1732   2.041   1.551   2.585 -0.3162  0.2845  0.0479
  578SOL    HW1 1733   1.943   1.520   2.598  1.6077 -0.9500 -1.8500
  578SOL    HW2 1734   2.056   1.650   2.607 -0.7300  1.3013  0.7300
  579SOL     OW 1735   0.492   1.540   1.196  0.3947 -0.6290  0.2968
  579SOL    HW1 1736   0.403   1.541   1.245  0.5704 -0.1592 -0.7986
  579SOL    HW2 1737   0.469   1.542   1.095 -0.9624 -0.9137  0.2796
  580SOL     OW 1738   1.445   2.465   0.063 -0.3480  0.1967  0.2735
  580SOL    HW1 1739   1.407   2.542   0.007  2.5437  1.1840 -0.4680
  580SOL    HW2 1740   1.542   2.454   0.047 -0.2766 -1.7193  2.4745
  581SOL     OW 1741   0.877   0.998   2.167  0.0935 -0.7050  0.5861
  581SOL    HW1 1742   0.798   1.064   2.154  0.8331  0.5112  1.4277
  581SOL    HW2 1743   0.895   0.952   2.077 -2.5215  1.4132 -1.9312
  582SOL     OW 1744   0.637   1.192   0.992 -0.3385  0.4373 -0.0281
  582SOL    HW1 1745   0.595   1.171   1.085 -1.5983 -0.6535  0.1819
  582SOL    HW2 1746   0.739   1.188   1.000 -0.0811 -2.6208 -0.5308
  583SOL     OW 1747   0.713   1.440   2.012  0.9195  0.1108 -0.0315
  583SOL    HW1 1748   0.728   1.535   1.974  1.2763  1.2568  1.4521
  583SOL    HW2 1749   0.796   1.413   2.060 -1.4924 -1.2652 -1.6746
  584SOL     OW 1750   2.146   2.675   0.491  0.0263  0.6339  0.2902
  584SOL    HW1 1751   2.079   2.659   0.563  2.1270  2.2652  0.4868
  584SOL    HW2 1752   2.157   2.775   0.482 -2.3458 -0.3439  0.7035
  585SOL     OW 1753   1.798   0.350   3.030  0.0707 -0.5643 -0.2063
  585SOL    HW1 1754   1.772   0.303   3.117 -0.1405 -1.2402  0.6140
  585SOL    HW2 1755   1.723   0.360   2.963  0.9509 -1.8238 -2.2856
  586SOL     OW 1756   0.166   1.640   0.429  0.0746 -0.8926  0.2223
  586SOL    HW1 1757   0.084   1.587   0.450 -0.2535  0.5163 -0.4943
  586SOL    HW2 1758   0.249   1.624   0.486 -0.0019  0.3320  1.0133
  587SOL     OW 1759   1.790   1.948   0.714  0.3278  0.0867 -0.1420
  587SOL    HW1 1760   1.834   1.929   0.798 -0.3365 -1.0120 -0.4395
  587SOL    HW2 1761   1.768   1.858   0.672  0.3421 -1.2330  1.3156
  588SOL     OW 1762   0.554   0.308   1.018  0.2402 -0.0360 -0.2712
  588SOL    HW1 1763   0.500   0.324   1.101 -1.1593 -0.5713  1.6261
  588SOL    HW2 1764   0.594   0.217   1.013  1.7327  2.8602  0.0162
  589SOL     OW 1765   1.165   0.463   0.855 -0.0679  0.2698 -0.2395
  589SOL    HW1 1766   1.128   0.441   0.949 -0.8423  1.5108  2.1647
  589SOL    HW2 1767   1.105   0.531   0.810  0.9890 -1.1012  1.6920
  590SOL     OW 1768   1.311   0.919   0.269 -0.6117 -0.2279  0.0427
  590SOL    HW1 1769   1.378   0.981   0.222  1.5699  0.3654  1.8635
  590SOL    HW2 1770   1.343   0.896   0.362  0.6116  0.2574 -0.2772
  591SOL     OW 1771   2.739   2.686   2.455  0.6446  0.1373 -0.1017
  591SOL    HW1 1772   2.702   2.612   2.519  0.5572 -0.9276  1.2817
  591SOL    HW2 1773   2.807   2.739   2.502 -1.4623 -1.3063 -1.3370
  592SOL     OW 1774   1.506   2.156   1.017  0.4879 -0.3847  0.1205
  592SOL    HW1 1775   1.591   2.104   1.042  0.7451 -2.0060 -0.9425
  592SOL    HW2 1776   1.505   2.247   1.061 -0.1613 -1.5478  3.2930
  593SOL     OW 1777   1.048   0.091   1.056  0.3591  0.0954 -0.4980
  593SOL    HW1 1778   1.057   0.009   0.994 -3.4513 -2.6750 -3.0548
  593SOL    HW2 1779   1.131   0.108   1.109 -0.1260  1.6140 -0.8969
  594SOL     OW 1780   0.220   0.899   2.236 -0.4631  0.8935  0.2962
  594SOL    HW1 1781   0.139   0.956   2.233  0.8057 -2.2039 -1.6578
  594SOL    HW2 1782   0.227   0.834   2.156  0.3306 -1.4703  1.2331
  595SOL     OW 1783   0.411   2.621   1.261  0.0684  0.3260 -0.1498
  595SOL    HW1 1784   0.433   2.646   1.357  0.7334  0.3386 -1.1992
  595SOL    HW2 1785   0.360   2.700   1.218  0.1580  1.3438 -0.9439
  596SOL     OW 1786   0.188   0.850   1.364 -0.9431 -0.2020  0.6884
  596SOL    HW1 1787   0.251   0.896   1.433 -0.5179  0.7701 -1.0749
  596SOL    HW2 1788   0.091   0.857   1.398  0.1372 -3.2607 -1.1533
  597SOL     OW 1789   2.050   2.020   0.459 -0.0051  0.5817  0.5467
  597SOL    HW1 1790   1.965   2.010   0.520 -0.9430 -0.9244 -0.3258
  597SOL    HW2 1791   2.111   1.946   0.462 -2.2421  1.1245 -1.3785
  598SOL     OW 1792   0.491   2.804   1.790  0.4017 -0.2741 -0.4622
  598SOL    HW1 1793   0.581   2.797   1.744  2.1831  2.3718  2.6238
  598SOL    HW2 1794   0.489   2.755   1.881 -1.5794  0.2338 -2.0974
  599SOL     OW 1795   2.577   2.079   2.989 -0.3231  0.3069  0.1401
  599SOL    HW1 1796   2.511   2.047   2.914 -1.5802 -0.9588  0.2268
  599SOL    HW2 1797   2.599   2.001   3.054 -0.2375  0.9227  2.0868
  600SOL     OW 1798   0.765   0.875   0.111 -0.3331 -0.1414 -0.6292
  600SOL    HW1 1799   0.807   0.970   0.094  0.5997  1.1793 -0.0785
  600SOL    HW2 1800   0.780   0.844   0.212 -0.6923 -0.4379  0.6124
  601SOL     OW 1801   0.857   0.806   0.395  0.6650 -1.0774 -0.1018
  601SOL    HW1 1802   0.942   0.859   0.370  1.8720 -0.4198  0.4871
  601SOL    HW2 1803   0.787   0.858   0.453 -0.8552  0.9031  2.4639
  602SOL     OW 1804   1.600   2.719   0.875 -0.1726  0.1190  0.2036
  602SOL    HW1 1805   1.680   2.778   0.901  0.8944 -1.2584  0.8978
  602SOL    HW2 1806   1.568   2.751   0.785  0.7877 -0.7244 -0.1783
  603SOL     OW 1807   0.695   2.860   2.135  0.3205  0.5844 -0.6682
  603SOL    HW1 1808   0.636   2.939   2.125  0.9209  0.4694  0.7092
  603SOL    HW2 1809   0.782   2.882   2.085  0.1916  0.5668 -1.4264
  604SOL     OW 1810   0.089   0.026   2.290  0.4801  0.5374  0.0481
  604SOL    HW1 1811   0.115   3.093   2.229  1.9091  1.9031  1.4427
  604SOL    HW2 1812   0.126   0.018   2.383 -0.5741  2.6652 -1.4112
  605SOL     OW 1813   2.750   2.128   1.094 -0.5702 -0.2039  0.0098
  605SOL    HW1 1814   2.788   2.222   1.074 -0.8216 -1.9050 -0.9255
  605SOL    HW2 1815   2.650   2.124   1.074 -2.2103  0.7589 -0.1402
  606SOL     OW 1816   0.405   1.508   3.066 -0.4419 -0.0713 -0.2163
  606SOL    HW1 1817   0.474   1.581   3.100  0.2585 -2.0033  1.8584
  606SOL    HW2 1818   0.362   1.541   2.983 -0.7590 -0.0489  2.5401
  607SOL     OW 1819   1.061   0.317   0.189 -0.3686  0.1269  0.3210
  607SOL    HW1 1820   1.029   0.413   0.174  0.4869  1.6412  0.2045
  607SOL    HW2 1821   1.152   0.294   0.152 -0.2022 -2.6978 -0.1699
  608SOL     OW 1822   1.724   1.310   2.284  0.6553  0.3344 -0.4087
  608SOL    HW1 1823   1.756   1.240   2.354  2.6873 -2.3889  0.5033
  608SOL    HW2 1824   1.786   1.389   2.283 -2.1808  1.3779  3.3547
  609SOL     OW 1825   0.044   0.300   0.827  0.0743 -0.6350  0.1758
  609SOL    HW1 1826   0.077   0.266   0.914 -0.8530 -1.5846  0.3080
  609SOL    HW2 1827   3.105   0.353   0.840  1.9204 -1.7611  2.6554
  610SOL     OW 1828   0.520   2.610   3.124 -0.0735  0.5480 -0.2431
  610SOL    HW1 1829   0.572   2.544   0.037  0.1661 -0.8901  0.4417
  610SOL    HW2 1830   0.461   2.674   0.031  1.1551  2.1388  1.3084
  611SOL     OW 1831   1.644   0.990   0.283 -0.3419  0.3594  0.1154
  611SOL    HW1 1832   1.734   1.041   0.279  2.0359 -1.2307 -1.2851
  611SOL    HW2 1833   1.599   1.021   0.200  1.5961  2.4392 -0.5138
  612SOL     OW 1834   0.859   2.215   2.486  0.2873  0.2199 -0.0063
  612SOL    HW1 1835   0.783   2.183   2.548  3.9119 -0.9085 -0.8437
  612SOL    HW2 1836   0.911   2.286   2.535  0.7573  1.6293  1.7656
  613SOL     OW 1837   1.196   2.378   3.111 -0.4343 -0.2586  0.1014
  613SOL    HW1 1838   1.292   2.390   0.004  2.3629  1.0522  1.0502
  613SOL    HW2 1839   1.179   2.281   3.105 -0.4925  3.2503 -0.5043
  614SOL     OW 1840   2.725   3.091   1.342 -0.0368 -0.1756  0.1219
  614SOL    HW1 1841   2.794   3.035   1.296 -2.0648 -1.5612 -1.9109
  614SOL    HW2 1842   2.710   3.064   1.443  1.9450 -0.6597  0.5455
  615SOL     OW 1843   2.181   1.365   0.050  0.5010  0.2725 -0.1978
  615SOL    HW1 1844   2.108   1.390   3.129  0.0610 -0.9173  0.0656
  615SOL    HW2 1845   2.269   1.410   0.038 -0.3263 -0.2068  1.5336
  616SOL     OW 1846   1.480   0.133   0.378  0.5954  0.1724 -0.0491
  616SOL    HW1 1847   1.377   0.139   0.383  0.3294  0.0168 -0.8359
  616SOL    HW2 1848   1.523   0.194   0.313  0.4849 -0.5402  1.8484
  617SOL     OW 1849   0.872   1.148   0.050 -0.5924  0.3381 -0.9690
  617SOL    HW1 1850   0.916   1.186   3.115 -3.2003 -1.1413 -1.9809
  617SOL    HW2 1851   0.921   1.170   0.138 -0.8384  2.7541  1.6278
  618SOL     OW 1852   0.633   0.467   2.064 -0.2459 -0.1298  0.4415
  618SOL    HW1 1853   0.612   0.393   2.129 -0.4954  1.6868 -0.2059
  618SOL    HW2 1854   0.552   0.486   2.005  2.4113 -1.1284  1.2816
  619SOL     OW 1855   0.247   1.156   1.268  0.1751  0.5282  0.0084
  619SOL    HW1 1856   0.154   1.199   1.282  2.0742  1.4651 -0.7311
  619SOL    HW2 1857   0.235   1.060   1.260  0.4052  0.0010  0.6115
  620SOL     OW 1858   1.878   1.064   3.003 -0.2859  0.8314 -0.1264
  620SOL    HW1 1859   1.950   1.101   2.934  2.1699  1.4299 -2.9129
  620SOL    HW2 1860   1.861   0.962   2.999 -0.1977  0.3804 -1.7383
  621SOL     OW 1861   2.451   2.909   1.245  0.1018 -0.6391  0.8894
  621SOL    HW1 1862   2.437   2.945   1.336  1.5209 -3.0500 -2.5498
  621SOL    HW2 1863   2.521   2.839   1.251  0.2423  2.8886 -0.0449
  622SOL     OW 1864   1.426   0.716   2.662 -0.1756  0.0054 -0.0421
  622SOL    HW1 1865   1.519   0.682   2.666 -1.6481 -0.7748 -1.1810
  622SOL    HW2 1866   1.362   0.655   2.705  1.7671 -0.0582  1.2927
  623SOL     OW 1867   1.280   0.317   0.024  0.0488  0.2163 -0.3791
  623SOL    HW1 1868   1.211   0.343   3.102  2.7775 -1.6237 -3.0731
  623SOL    HW2 1869   1.365   0.278   3.122 -0.2287  0.3470  0.3666
  624SOL     OW 1870   1.924   0.474   0.161 -0.0152 -0.3346 -0.4604
  624SOL    HW1 1871   1.922   0.531   0.247  0.3745  1.3237  0.7774
  624SOL    HW2 1872   1.991   0.503   0.093  0.8884 -1.3158  1.2450
  625SOL     OW 1873   0.919   1.565   0.920  0.0738 -0.4175 -0.0145
  625SOL    HW1 1874   1.012   1.592   0.959  0.1447  1.0533 -1.7435
  625SOL    HW2 1875   0.848   1.587   0.990 -0.9239 -0.1541 -0.6655
  626SOL     OW 1876   1.505   1.048   0.038  0.2779 -0.1706 -0.4261
  626SOL    HW1 1877   1.461   1.128   0.084  2.9533 -0.0864 -0.2407
  626SOL    HW2 1878   1.490   1.063   3.083 -4.3401  1.3557 -0.6791
  627SOL     OW 1879   0.909   2.933   2.007  0.1207 -0.4942 -0.3299
  627SOL    HW1 1880   0.940   2.908   1.912  0.0363 -4.1563 -0.0296
  627SOL    HW2 1881   0.954   3.015   2.049 -1.4562 -1.4908  0.2308
  628SOL     OW 1882   2.548   0.256   2.177 -0.1674  0.0374  0.1334
  628SOL    HW1 1883   2.621   0.299   2.121 -3.9435  0.5236 -0.3307
  628SOL    HW2 1884   2.577   0.233   2.269 -2.1092  2.2127 -3.6584
  629SOL     OW 1885   1.028   1.201   2.967 -0.3629 -0.0383 -0.5348
  629SOL    HW1 1886   1.090   1.153   2.898 -0.6587 -0.9857  0.9207
  629SOL    HW2 1887   0.932   1.194   2.937  0.8648  0.2753  1.1714
  630SOL     OW 1888   1.252   0.193   2.349 -0.3936  0.0509  0.4291
  630SOL    HW1 1889   1.213   0.284   2.372 -0.7742 -0.7736  2.7438
  630SOL    HW2 1890   1.267   0.135   2.434  0.7459 -0.3979  1.0896
  631SOL     OW 1891   2.573   0.639   0.580  0.2608  0.5700  0.7092
  631SOL    HW1 1892   2.622   0.551   0.598  1.2626 -0.2291 -1.1465
  631SOL    HW2 1893   2.636   0.717   0.583 -1.2660  1.3304  2.2000
  632SOL     OW 1894   2.218   0.951   1.222 -0.1557 -0.0758 -0.1054
  632SOL    HW1 1895   2.116   0.974   1.215 -1.0652 -1.1705 -1.5104
  632SOL    HW2 1896   2.259   0.923   1.135  0.3349 -1.8204  0.6603
  633SOL     OW 1897   1.771   0.680   1.017  0.1243 -0.0013 -0.4401
  633SOL    HW1 1898   1.770   0.762   0.958  2.6226 -1.0329 -0.6170
  633SOL    HW2 1899   1.797   0.698   1.115 -0.7724 -0.4400 -0.7656
  634SOL     OW 1900   1.967   2.980   0.715  0.3479 -0.4108  0.4913
  634SOL    HW1 1901   2.031   3.023   0.774 -3.3416 -4.2672 -1.7928
  634SOL    HW2 1902   1.886   3.035   0.702  0.1901 -0.2808  0.5707
  635SOL     OW 1903   1.620   0.842   1.390 -0.4601 -0.4875  0.0143
  635SOL    HW1 1904   1.539   0.813   1.342  2.3628 -0.7832 -1.7914
  635SOL    HW2 1905   1.609   0.938   1.425 -0.1549 -1.4003 -0.1280
  636SOL     OW 1906   0.553   0.671   0.633 -0.4010 -0.2731  0.0245
  636SOL    HW1 1907   0.507   0.629   0.713 -0.3371 -1.2270 -3.6493
  636SOL    HW2 1908   0.641   0.627   0.616 -0.9688  1.6019  0.2745
  637SOL     OW 1909   1.889   2.425   0.402 -0.3339  0.1556  0.4434
  637SOL    HW1 1910   1.834   2.489   0.454  2.1058  0.6099 -0.5621
  637SOL    HW2 1911   1.963   2.394   0.466 -2.6757 -1.0896 -0.2719
  638SOL     OW 1912   1.544   2.802   2.701 -0.3652  0.2328 -0.0980
  638SOL    HW1 1913   1.533   2.873   2.772  3.0291  0.3528 -1.5098
  638SOL    HW2 1914   1.601   2.724   2.743  0.4185 -1.0069  2.3141
  639SOL     OW 1915   0.837   2.108   1.313  0.1203  0.4413 -0.2301
  639SOL    HW1 1916   0.791   2.164   1.242  1.8034 -1.4827  1.6769
  639SOL    HW2 1917   0.844   2.164   1.399 -2.5175 -0.9107  2.6169
  640SOL     OW 1918   0.136   2.917   0.088  0.3575  0.1360  0.5058
  640SOL    HW1 1919   0.063   2.852   0.110 -1.0989  1.5005  0.6078
  640SOL    HW2 1920   0.132   2.996   0.153 -0.9904 -2.3544 -1.4296
  641SOL     OW 1921   0.060   0.357   3.137  0.2595  0.1449 -0.3140
  641SOL    HW1 1922   0.021   0.288   0.057  0.6714  0.0071 -0.9423
  641SOL    HW2 1923   0.147   0.319   3.100 -1.9853  0.7820  1.5249
  642SOL     OW 1924   3.087   1.040   1.144 -0.2379  0.2529 -0.8560
  642SOL    HW1 1925   3.054   0.941   1.142  0.6001 -0.2412  0.7853
  642SOL    HW2 1926   3.034   1.097   1.083  0.4754 -1.1454  2.9587
  643SOL     OW 1927   0.617   1.781   2.127 -0.4118 -0.1181 -0.2819
  643SOL    HW1 1928   0.688   1.802   2.195 -0.6699  0.9574 -0.4060
  643SOL    HW2 1929   0.655   1.754   2.037 -1.2529  0.5679  1.5082
  644SOL     OW 1930   1.740   2.605   0.523 -0.1026  0.0561 -0.4734
  644SOL    HW1 1931   1.675   2.567   0.594 -2.4283  0.4110 -0.5647
  644SOL    HW2 1932   1.697   2.677   0.465  0.7138 -0.6472  1.9617
  645SOL     OW 1933   1.711   2.462   1.274 -0.0260  0.7144 -0.5491
  645SOL    HW1 1934   1.720   2.425   1.369  0.0066 -1.0408 -0.3813
  645SOL    HW2 1935   1.731   2.561   1.270 -0.0770  1.0005 -0.7348
  646SOL     OW 1936   1.175   2.714   0.283 -0.2934  0.9148  0.1820
  646SOL    HW1 1937   1.202   2.677   0.376  0.8935 -3.9601  0.5530
  646SOL    HW2 1938   1.077   2.742   0.278  0.2709 -0.7651  0.5027
  647SOL     OW 1939   0.402   3.055   1.867  0.5424  0.2663 -0.9692
  647SOL    HW1 1940   0.299   3.047   1.884  1.3619 -0.0172 -2.1548
  647SOL    HW2 1941   0.439   2.966   1.836  0.7249  2.0738 -1.3550
  648SOL     OW 1942   1.953   0.997   1.192  0.5266  0.1306  0.2320
  648SOL    HW1 1943   1.914   0.911   1.230  0.0732  0.4688 -1.4837
  648SOL    HW2 1944   1.891   1.030   1.120 -0.4688 -2.7318  2.4403
  649SOL     OW 1945   1.935   2.149   2.941  0.1566  0.1789 -0.2961
  649SOL    HW1 1946   2.001   2.212   2.987 -0.7947 -0.8980  2.0433
  649SOL    HW2 1947   1.872   2.201   2.879  0.7176  0.1060 -0.8114
  650SOL     OW 1948   2.678   1.778   1.636  0.4557  0.2781 -0.4355
  650SOL    HW1 1949   2.758   1.828   1.679  1.2056  1.0445  1.0874
  650SOL    HW2 1950   2.607   1.759   1.708  1.8368  2.1922  0.9338
  651SOL     OW 1951   1.468   1.813   2.818  0.2950  0.2119  0.1364
  651SOL    HW1 1952   1.504   1.797   2.914  0.7639  0.2563 -0.2603
  651SOL    HW2 1953   1.528   1.869   2.759 -2.8846  2.3689  0.4150
  652SOL     OW 1954   1.056   2.880   2.750  0.2070 -0.3676 -0.5995
  652SOL    HW1 1955   1.133   2.820   2.726 -1.5203 -1.3128  0.0348
  652SOL    HW2 1956   1.074   2.931   2.836  0.8471 -1.9295 -0.6013
  653SOL     OW 1957   2.136   2.296   1.079  0.7874 -0.1456 -0.4034
  653SOL    HW1 1958   2.165   2.274   0.988  1.3701 -0.0635  0.5392
  653SOL    HW2 1959   2.037   2.291   1.087  1.0479 -1.4278 -2.7503
  654SOL     OW 1960   2.500   2.783   2.158 -0.2404 -0.1078  0.3002
  654SOL    HW1 1961   2.571   2.712   2.165 -1.3339 -0.1782 -2.5740
  654SOL    HW2 1962   2.517   2.865   2.217  1.9565  0.2545  3.0909
  655SOL     OW 1963   3.037   2.142   1.147  0.0076  0.4813 -0.2224
  655SOL    HW1 1964   3.088   2.139   1.061 -0.9049  1.4528  2.0840
  655SOL    HW2 1965   2.935   2.138   1.133 -2.1097 -0.1120  1.8543
  656SOL     OW 1966   0.020   2.220   2.585 -0.0840  0.3111 -0.2457
  656SOL    HW1 1967   0.103   2.260   2.546 -0.2942 -0.3368  1.0725
  656SOL    HW2 1968   0.045   2.186   2.677 -0.4988  0.9064 -1.3388
  657SOL     OW 1969   2.761   0.853   0.494  0.3525  0.4443 -0.2683
  657SOL    HW1 1970   2.839   0.812   0.444  1.7010 -1.6611  0.9688
  657SOL    HW2 1971   2.730   0.941   0.452 -4.2689  1.6716  0.4008
  658SOL     OW 1972   1.509   1.887   1.125  0.0351 -0.2914  0.0655
  658SOL    HW1 1973   1.451   1.832   1.190 -0.9645 -0.0426  1.9720
  658SOL    HW2 1974   1.470   1.982   1.115 -1.1740  3.2629 -1.1661
  659SOL     OW 1975   1.480   0.449   1.201  0.1472 -0.8448 -0.1289
  659SOL    HW1 1976   1.572   0.407   1.226 -1.1416 -3.6825  1.9534
  659SOL    HW2 1977   1.454   0.423   1.107  0.8130 -1.0842 -1.0675
  660SOL     OW 1978   1.814   1.269   0.671 -0.4875  0.2280 -0.1657
  660SOL    HW1 1979   1.825   1.172   0.661 -1.5651  3.9319  0.4445
  660SOL    HW2 1980   1.719   1.300   0.649 -4.4604  1.5874  0.5515
  661SOL     OW 1981   0.571   1.578   0.400  0.0641  0.2148  0.3962
  661SOL    HW1 1982   0.565   1.485   0.371  1.0477  1.9070 -0.6798
  661SOL    HW2 1983   0.509   1.595   0.480  1.0109  0.1324  0.8726
  662SOL     OW 1984   2.748   0.979   2.099  0.9830 -0.0218 -0.0050
  662SOL    HW1 1985   2.739   0.944   2.199 -1.0657  0.7185  0.7931
  662SOL    HW2 1986   2.662   0.961   2.049 -2.6398  0.6251 -1.2789
  663SOL     OW 1987   2.201   1.456   1.317 -0.5120 -0.5425  0.8381
  663SOL    HW1 1988   2.251   1.539   1.290 -0.6523  0.8852  1.5817
  663SOL    HW2 1989   2.243   1.425   1.403 -1.5893  0.0860 -2.5549
  664SOL     OW 1990   0.668   0.051   0.998 -0.2559  0.1965  0.1229
  664SOL    HW1 1991   0.593   3.130   0.998 -2.2877 -0.7067  3.0827
  664SOL    HW2 1992   0.710   0.065   1.092 -0.0962 -3.2756  0.8339
  665SOL     OW 1993   1.332   3.062   2.828 -0.7750  0.2382  0.0827
  665SOL    HW1 1994   1.411   3.028   2.882 -0.4647 -2.5248  0.0850
  665SOL    HW2 1995   1.244   3.044   2.871  3.2092  0.0520  1.7474
  666SOL     OW 1996   0.517   0.492   2.458 -0.2478 -0.1084  0.1354
  666SOL    HW1 1997   0.442   0.556   2.436 -1.4472  0.0833  0.9236
  666SOL    HW2 1998   0.584   0.546   2.509 -0.4980  1.1955  1.2566
  667SOL     OW 1999   2.062   1.606   2.216  0.3050  0.5428  0.0686
  667SOL    HW1 2000   2.100   1.578   2.125 -0.0197 -1.0783  1.6849
  667SOL    HW2 2001   2.115   1.568   2.291 -0.8495  1.4607 -1.4606
  668SOL     OW 2002   0.189   1.417   2.598  0.1690  0.3992  0.1994
  668SOL    HW1 2003   0.096   1.425   2.630  1.1477  0.3255 -1.1691
  668SOL    HW2 2004   0.217   1.501   2.545  0.1303  1.0844  2.0850
  669SOL     OW 2005   2.471   3.143   2.439  0.5772 -0.0302  0.1829
  669SOL    HW1 2006   2.489   3.061   2.491 -2.9702 -1.1028 -1.7800
  669SOL    HW2 2007   2.536   0.068   2.469 -1.9602 -1.6936 -0.8324
  670SOL     OW 2008   2.739   0.990   2.605 -0.2001 -0.2448  0.1335
  670SOL    HW1 2009   2.816   0.922   2.593 -0.6861 -1.6498 -1.4801
  670SOL    HW2 2010   2.676   0.967   2.683  0.1842 -0.8886 -3.3342
  671SOL     OW 2011   2.620   1.887   0.024 -0.3562  0.5137 -0.0204
  671SOL    HW1 2012   2.688   1.821   3.133 -0.2073 -0.5550  1.1881
  671SOL    HW2 2013   2.570   1.849   0.105 -1.4074  0.5707  1.4293
  672SOL     OW 2014   2.470   1.608   2.292 -0.2375  0.1656 -0.1703
  672SOL    HW1 2015   2.389   1.564   2.335  3.1245 -0.4175 -3.0366
  672SOL    HW2 2016   2.524   1.542   2.236 -0.3044  0.6815 -0.9740
  673SOL     OW 2017   2.825   1.457   0.996 -0.3928  0.2987 -0.0420
  673SOL    HW1 2018   2.727   1.467   0.966  1.6440  2.0215 -1.0874
  673SOL    HW2 2019   2.888   1.526   0.950 -2.5005  2.9850 -1.2334
  674SOL     OW 2020   1.260   1.823   2.009  0.0880  0.0883 -0.6162
  674SOL    HW1 2021   1.325   1.896   2.043 -0.4504  1.1169  0.2223
  674SOL    HW2 2022   1.311   1.740   1.989 -0.5178  0.0863 -0.4285
  675SOL     OW 2023   2.900   0.446   1.171  0.1273  0.6187 -0.0833
  675SOL    HW1 2024   2.988   0.495   1.174 -1.9138 -0.4731  2.5392
  675SOL    HW2 2025   2.919   0.344   1.166  0.9968  3.2697  1.5224
  676SOL     OW 2026   2.818   1.176   0.780  0.2603 -0.0718  0.2048
  676SOL    HW1 2027   2.765   1.216   0.705  1.0624 -0.0026  1.7119
  676SOL    HW2 2028   2.843   1.079   0.774  0.3867  3.2544 -1.1329
  677SOL     OW 2029   1.582   1.601   2.223 -0.1404 -0.5386  0.0523
  677SOL    HW1 2030   1.675   1.608   2.266  1.1929  0.3645  0.8416
  677SOL    HW2 2031   1.554   1.507   2.225 -1.5796  2.7555 -1.7194
  678SOL     OW 2032   2.523   1.229   1.117 -0.3622 -0.6085 -0.1351
  678SOL    HW1 2033   2.562   1.273   1.032  2.0233  1.8069 -1.1657
  678SOL    HW2 2034   2.428   1.263   1.133  0.1394 -0.3900 -0.1583
  679SOL     OW 2035   0.420   2.491   0.728 -0.3997  0.1141 -0.0210
  679SOL    HW1 2036   0.475   2.546   0.790 -1.3162  0.6526 -1.2088
  679SOL    HW2 2037   0.419   2.391   0.747  1.8051 -1.9942  1.3956
  680SOL     OW 2038   2.791   1.814   1.016  0.2749 -0.0427 -0.8243
  680SOL    HW1 2039   2.829   1.753   0.947 -0.6170 -0.4141  2.7663
  680SOL    HW2 2040   2.825   1.912   1.008  2.0054  2.1827  2.5555
  681SOL     OW 2041   0.845   0.918   1.353  0.1125 -0.0140 -0.0882
  681SOL    HW1 2042   0.900   0.907   1.440  0.8436 -1.4991  0.3034
  681SOL    HW2 2043   0.767   0.852   1.350  1.6941 -1.2625  0.1628
  682SOL     OW 2044   1.730   3.098   0.724  0.1135  0.4059 -0.3040
  682SOL    HW1 2045   1.689   3.091   0.818 -0.4167  2.1414  1.8308
  682SOL    HW2 2046   1.658   3.096   0.654 -0.6242  1.2161  2.8869
  683SOL     OW 2047   2.359   1.353   1.512 -0.1382  0.3118 -0.3996
  683SOL    HW1 2048   2.398   1.425   1.573  0.3354 -0.8392 -1.0780
  683SOL    HW2 2049   2.296   1.298   1.569  1.0849  2.1070 -1.3244
  684SOL     OW 2050   0.011   1.792   1.631 -0.4830 -0.0279 -0.5048
  684SOL    HW1 2051   3.094   1.751   1.560  3.8774 -0.6831 -1.2032
  684SOL    HW2 2052   0.095   1.739   1.639  0.2208  1.3383 -1.2337
  685SOL     OW 2053   2.018   1.749   0.241  0.2811  0.6309  0.2500
  685SOL    HW1 2054   2.070   1.768   0.329  0.0250 -0.5749  1.8270
  685SOL    HW2 2055   1.917   1.745   0.262  0.4943 -2.6422 -0.3992
  686SOL     OW 2056   2.898   0.179   0.814  0.2683  0.4377  0.6858
  686SOL    HW1 2057   2.876   0.266   0.854  0.2291 -1.1534 -1.2064
  686SOL    HW2 2058   2.904   0.182   0.709  0.9848 -0.7966 -0.0699
  687SOL     OW 2059   1.623   0.029   2.601 -1.0124 -0.0163  0.5720
  687SOL    HW1 2060   1.580   0.089   2.671  0.5124  3.4088 -1.1566
  687SOL    HW2 2061   1.720   3.145   2.635  4.7328 -1.7423  2.4712
  688SOL     OW 2062   1.421   2.011   2.398  0.6419  0.3169  0.1375
  688SOL    HW1 2063   1.415   1.927   2.348 -0.6462 -0.4869  3.5697
  688SOL    HW2 2064   1.345   2.077   2.382 -0.7231 -0.7793 -1.8681
  689SOL     OW 2065   2.656   1.472   2.125  0.3671 -0.4932  0.3099
  689SOL    HW1 2066   2.735   1.511   2.174 -2.7908  0.9934 -0.2041
  689SOL    HW2 2067   2.672   1.453   2.025  1.2257  0.8962 -2.6589
  690SOL     OW 2068   1.720   2.036   1.103 -0.7112 -0.3036 -0.2018
  690SOL    HW1 2069   1.662   1.969   1.151  0.4917  0.8301 -2.7289
  690SOL    HW2 2070   1.798   1.982   1.059 -1.8921 -3.0178 -0.6257
  691SOL     OW 2071   0.392   1.377   0.759 -0.0747 -0.0525 -0.5449
  691SOL    HW1 2072   0.455   1.325   0.704 -2.1680  0.3943  1.6512
  691SOL    HW2 2073   0.348   1.318   0.828  0.2232 -0.0050 -1.5853
  692SOL     OW 2074   2.576   3.051   2.205 -0.2131  0.1305  0.3300
  692SOL    HW1 2075   2.528   3.095   2.123  0.4885 -1.1503 -0.9027
  692SOL    HW2 2076   2.538   3.086   2.293  1.2990 -2.0034  2.8131
  693SOL     OW 2077   0.046   1.488   2.244 -0.4715 -0.0074 -0.5642
  693SOL    HW1 2078   3.126   1.427   2.292 -0.3038  0.7360 -0.0325
  693SOL    HW2 2079   0.097   1.543   2.313  0.9800  3.1238  2.6420
  694SOL     OW 2080   2.270   0.171   1.343 -0.4053  0.1631  0.0041
  694SOL    HW1 2081   2.245   0.121   1.427 -1.1381 -1.5337 -2.9071
  694SOL    HW2 2082   2.371   0.154   1.315  3.0101 -0.6109 -2.0448
  695SOL     OW 2083   1.157   1.038   2.795 -0.2134 -0.1037  0.0833
  695SOL    HW1 2084   1.132   0.947   2.836 -0.5337  0.3063  1.1224
  695SOL    HW2 2085   1.218   1.016   2.716  0.1789  0.0257 -2.0985
  696SOL     OW 2086   1.783   0.238   2.019  0.0207  0.1364  0.1890
  696SOL    HW1 2087   1.810   0.324   2.061 -1.8634 -4.4445  1.7277
  696SOL    HW2 2088   1.727   0.249   1.934 -0.2141  1.0802  1.2278
  697SOL     OW 2089   1.651   0.105   2.206 -0.0210  0.1024 -0.6515
  697SOL    HW1 2090   1.641   0.168   2.287  0.2738  0.3800 -1.1614
  697SOL    HW2 2091   1.707   0.150   2.133  1.0209  0.8643  1.3127
  698SOL     OW 2092   1.822   1.577   2.338  0.2177  0.3245  0.0099
  698SOL    HW1 2093   1.835   1.553   2.434  0.7155 -1.0237 -0.4218
  698SOL    HW2 2094   1.909   1.601   2.290 -0.4235 -2.0305  0.3325
  699SOL     OW 2095   1.921   0.664   0.379 -0.0375 -0.3849  0.0898
  699SOL    HW1 2096   1.891   0.737   0.308 -2.5011  3.2800  0.9697
  699SOL    HW2 2097   1.861   0.657   0.458  0.0797  0.7474  1.1137
  700SOL     OW 2098   1.343   3.079   0.077  1.0784  0.0166 -0.0106
  700SOL    HW1 2099   1.303   3.065   0.171 -0.3183  1.1153  0.8960
  700SOL    HW2 2100   1.276   3.046   0.009  0.6037  0.2552 -0.0907
  701SOL     OW 2101   0.015   0.529   1.185 -0.3712 -0.1134 -0.2894
  701SOL    HW1 2102   0.043   0.433   1.166  0.7825 -0.6135 -2.9180
  701SOL    HW2 2103   0.012   0.591   1.101 -2.1581 -0.5018 -3.2374
  702SOL     OW 2104   1.798   0.169   1.556 -0.4359 -0.0155 -0.1427
  702SOL    HW1 2105   1.745   0.160   1.644  0.9964 -0.7708  0.0368
  702SOL    HW2 2106   1.796   0.087   1.498  0.6443 -2.4824  2.0142
  703SOL     OW 2107   2.984   0.803   1.127 -0.3284  0.1064  0.2231
  703SOL    HW1 2108   2.917   0.810   1.053  4.0565 -1.8919 -1.7018
  703SOL    HW2 2109   2.945   0.790   1.218 -0.4614 -0.2500 -1.2797
  704SOL     OW 2110   0.899   2.505   1.282 -1.0040  0.4442  0.7153
  704SOL    HW1 2111   1.005   2.523   1.275  1.6009  0.1229  2.8844
  704SOL    HW2 2112   0.846   2.593   1.293  0.3016 -0.7795 -0.4886
  705SOL     OW 2113   0.231   1.625   2.430 -0.1783  0.5346 -0.1825
  705SOL    HW1 2114   0.285   1.611   2.349  0.5293 -0.0383  5.5182
  705SOL    HW2 2115   0.243   1.719   2.466 -0.6854 -1.5765 -1.9478
  706SOL     OW 2116   2.691   0.389   3.009 -0.5971 -0.3774 -0.4025
  706SOL    HW1 2117   2.595   0.383   3.041  0.2838 -1.4924 -1.5247
  706SOL    HW2 2118   2.731   0.296   2.998 -1.4990  0.9101 -0.0187
  707SOL     OW 2119   1.769   2.718   2.548  0.1557  0.2466 -0.4012
  707SOL    HW1 2120   1.774   2.822   2.552  2.8341 -0.2228 -0.8515
  707SOL    HW2 2121   1.681   2.687   2.504 -0.0533 -0.5237  0.6069
  708SOL     OW 2122   0.437   2.481   1.698 -0.3131  0.5330  0.4192
  708SOL    HW1 2123   0.506   2.479   1.774 -2.1437 -0.0271 -0.0160
  708SOL    HW2 2124   0.346   2.432   1.722  1.9126 -2.0365  3.4135
  709SOL     OW 2125   0.238   0.948   1.839  0.1421 -0.0337 -0.2098
  709SOL    HW1 2126   0.144   0.972   1.818  1.7651 -1.2792 -0.7137
  709SOL    HW2 2127   0.247   0.864   1.894  1.6485  1.7284 -1.6260
  710SOL     OW 2128   0.005   0.594   1.445  0.5480  0.2679 -0.1653
  710SOL    HW1 2129   0.017   0.582   1.344  0.0912 -1.5616  0.2636
  710SOL    HW2 2130   0.016   0.691   1.469  0.9422 -0.0872 -2.9315
  711SOL     OW 2131   3.119   2.564   1.091  0.1670 -0.4716  0.2186
  711SOL    HW1 2132   0.016   2.495   1.154 -0.0418 -1.7085  0.8951
  711SOL    HW2 2133   0.017   2.560   1.000 -0.6031  2.3294 -0.8157
  712SOL     OW 2134   0.279   0.031   2.505  0.5981  0.7082  0.3906
  712SOL    HW1 2135   0.270   3.118   2.588  0.7226  1.3249 -1.0944
  712SOL    HW2 2136   0.285   0.129   2.528  0.4090 -2.0976 -0.1154
  713SOL     OW 2137   2.420   0.237   0.442  0.3185  0.2464 -0.1418
  713SOL    HW1 2138   2.335   0.295   0.432 -2.6559  0.3015  0.0996
  713SOL    HW2 2139   2.493   0.268   0.379  0.6988 -0.1708 -0.0145
  714SOL     OW 2140   1.714   1.675   0.127 -0.3276  0.3773 -0.5949
  714SOL    HW1 2141   1.703   1.721   0.219 -1.7236  2.2341  1.0167
  714SOL    HW2 2142   1.723   1.575   0.130  0.5386  2.0373 -0.4395
  715SOL     OW 2143   0.088   0.150   0.568  0.1744  0.0060  0.2554
  715SOL    HW1 2144   0.018   0.074   0.543 -0.7941 -0.4218  1.6546
  715SOL    HW2 2145   0.060   0.194   0.660  0.7177  0.7391  2.2711
  716SOL     OW 2146   1.166   0.600   2.092  0.1683  0.0750  0.0361
  716SOL    HW1 2147   1.197   0.544   2.014 -1.2888 -1.6000  2.7585
  716SOL    HW2 2148   1.065   0.608   2.097  2.7703  0.2855 -2.7698
  717SOL     OW 2149   0.549   0.560   2.900 -0.2760  0.0478  0.7246
  717SOL    HW1 2150   0.446   0.581   2.886 -1.7061 -1.1957  0.3693
  717SOL    HW2 2151   0.581   0.578   2.994 -0.2062 -3.4439 -0.0000
  718SOL     OW 2152   1.071   0.812   0.005 -0.5795 -0.6328  0.0681
  718SOL    HW1 2153   1.036   0.867   0.081 -3.8713 -2.6848 -2.5878
  718SOL    HW2 2154   1.157   0.767   0.033 -1.4236  0.4369  0.5739
  719SOL     OW 2155   2.625   2.528   2.657 -0.0320  0.0559 -0.3829
  719SOL    HW1 2156   2.659   2.450   2.717 -3.3983  0.7725 -1.7899
  719SOL    HW2 2157   2.536   2.507   2.617  0.7848  1.2305  3.3751
  720SOL     OW 2158   1.405   0.725   1.255 -0.6758 -0.0509 -0.2379
  720SOL    HW1 2159   1.342   0.702   1.332  0.5192 -3.6715 -0.7645
  720SOL    HW2 2160   1.430   0.637   1.211 -0.5931 -0.6662  1.2950
  721SOL     OW 2161   0.037   2.816   1.167  0.5700  0.2451  0.6111
  721SOL    HW1 2162   0.077   2.872   1.093  1.6182  0.5324 -1.3148
  721SOL    HW2 2163   0.005   2.726   1.134  2.7741  2.7372  1.0218
  722SOL     OW 2164   0.901   1.484   3.041 -0.0474  0.2455  0.0218
  722SOL    HW1 2165   0.820   1.471   3.103  3.6508 -2.6848 -1.0494
  722SOL    HW2 2166   0.982   1.541   3.072  1.2536 -0.6493 -1.2909
  723SOL     OW 2167   2.151   0.172   0.786 -0.1396  0.4667 -0.0145
  723SOL    HW1 2168   2.218   0.236   0.831  1.8691  0.4258  3.5170
  723SOL    HW2 2169   2.128   0.189   0.685 -0.4817  0.0118 -1.8399
  724SOL     OW 2170   0.755   2.228   0.024  0.2982 -0.2287  0.5175
  724SOL    HW1 2171   0.803   2.173   0.094 -0.8238  0.3478 -1.1249
  724SOL    HW2 2172   0.719   2.315   0.057 -1.1269  2.6930 -0.6760
  725SOL     OW 2173   0.197   0.915   1.049 -0.5713 -0.6604  0.1256
  725SOL    HW1 2174   0.111   0.964   1.043  5.7274  0.2611 -0.4288
  725SOL    HW2 2175   0.206   0.875   1.143  0.9214  0.4287  0.8851
  726SOL     OW 2176   2.535   0.602   0.306  0.7264 -0.2855  0.1550
  726SOL    HW1 2177   2.551   0.627   0.404  0.6277 -2.2721 -1.0804
  726SOL    HW2 2178   2.602   0.653   0.252 -0.5317 -0.8953  1.3341
  727SOL     OW 2179   1.866   1.258   2.508 -0.1587 -0.3164 -0.1650
  727SOL    HW1 2180   1.847   1.338   2.565 -0.6170 -1.7314  1.1941
  727SOL    HW2 2181   1.907   1.178   2.561 -1.6642  0.4009  0.4387
  728SOL     OW 2182   1.794   3.084   1.386 -0.2355  0.3030 -0.4588
  728SOL    HW1 2183   1.889   3.052   1.386 -0.0034 -1.1744  0.9267
  728SOL    HW2 2184   1.737   3.011   1.426  2.9219 -0.1873  0.6099
  729SOL     OW 2185   2.323   0.877   2.386  0.2804 -0.0937 -0.5674
  729SOL    HW1 2186   2.354   0.816   2.465  0.7500  1.0776  1.0406
  729SOL    HW2 2187   2.260   0.948   2.426  2.0189  0.4113  2.3447
  730SOL     OW 2188   1.093   0.874   1.523  0.8311  0.6626 -0.1743
  730SOL    HW1 2189   1.148   0.787   1.512 -0.6164  0.1918 -1.5050
  730SOL    HW2 2190   1.136   0.950   1.468  0.3216 -0.2108 -1.5740
  731SOL     OW 2191   0.335   0.485   0.195 -0.6606 -0.4178 -0.0474
  731SOL    HW1 2192   0.417   0.532   0.230 -0.2826  1.0731  0.4431
  731SOL    HW2 2193   0.300   0.529   0.115  0.2839  0.5089  2.9439
  732SOL     OW 2194   0.239   0.458   0.440 -0.3028  0.6958  0.2118
  732SOL    HW1 2195   0.280   0.467   0.348 -1.2155 -1.5987 -0.3493
  732SOL    HW2 2196   0.313   0.417   0.494 -1.0856 -0.9446 -1.1709
  733SOL     OW 2197   1.784   1.506   2.624  0.3984  0.0273  0.1514
  733SOL    HW1 2198   1.688   1.477   2.603 -2.0609 -0.3602  0.3965
  733SOL    HW2 2199   1.782   1.581   2.693  0.1344  0.3300 -1.4908
  734SOL     OW 2200   0.014   1.808   2.627  0.0491 -0.2873  0.0048
  734SOL    HW1 2201   0.106   1.839   2.609 -2.0555 -3.4274 -1.0186
  734SOL    HW2 2202   0.008   1.773   2.723 -0.8839 -0.4456  2.6553
  735SOL     OW 2203   1.975   0.561   1.373 -0.1517  0.1756 -0.7274
  735SOL    HW1 2204   2.003   0.470   1.337  1.0200 -0.5057 -0.9906
  735SOL    HW2 2205   2.027   0.590   1.457 -1.9308  0.6471 -0.7571
  736SOL     OW 2206   1.584   1.806   3.064 -0.3013 -0.1910  0.0205
  736SOL    HW1 2207   1.575   1.748   0.001 -0.9433  1.0849  1.5321
  736SOL    HW2 2208   1.680   1.842   3.063  1.9936  0.6014 -2.7956
  737SOL     OW 2209   3.128   0.343   0.422 -0.3073 -0.0045 -0.3676
  737SOL    HW1 2210   0.045   0.425   0.440  0.7392  2.6084  1.1601
  737SOL    HW2 2211   0.028   0.257   0.459  0.3224 -1.6488 -0.4009
  738SOL     OW 2212   0.650   2.106   1.808  0.1855  0.2615  0.0676
  738SOL    HW1 2213   0.621   2.162   1.726 -0.9130 -0.7600 -1.0189
  738SOL    HW2 2214   0.709   2.027   1.782  1.4244  0.2220  1.8656
  739SOL     OW 2215   1.186   2.779   2.426 -0.5249 -0.8700 -0.6740
  739SOL    HW1 2216   1.110   2.721   2.392 -1.9024  0.6573  1.8891
  739SOL    HW2 2217   1.202   2.763   2.524  1.2699  0.8904 -0.7637
  740SOL     OW 2218   1.738   2.390   1.551  0.2566  0.0703 -0.3399
  740SOL    HW1 2219   1.802   2.320   1.520  0.4140  1.9845 -0.6854
  740SOL    HW2 2220   1.719   2.385   1.648 -2.4873 -0.2453  1.6095
  741SOL     OW 2221   2.285   0.501   0.324 -0.0772 -0.1617  0.7994
  741SOL    HW1 2222   2.365   0.569   0.322  1.2826 -1.1600 -0.0284
  741SOL    HW2 2223   2.225   0.518   0.402  0.2882  0.0962 -3.3388
  742SOL     OW 2224   0.933   2.615   0.119 -0.0899 -0.4738  0.4773
  742SOL    HW1 2225   0.975   2.605   0.025  0.3118 -1.2619 -0.3536
  742SOL    HW2 2226   0.966   2.541   0.185 -1.6433 -0.3202  0.3255
  743SOL     OW 2227   2.423   1.034   2.185 -0.0595  0.2557 -0.2215
  743SOL    HW1 2228   2.395   0.975   2.261 -2.0913 -1.0073 -2.1656
  743SOL    HW2 2229   2.474   1.114   2.214  0.9522 -0.2248 -0.7167
  744SOL     OW 2230   2.671   0.408   0.701 -0.4746  0.5572  0.0839
  744SOL    HW1 2231   2.621   0.323   0.701 -0.6694  2.9602 -3.8150
  744SOL    HW2 2232   2.739   0.417   0.775 -1.6138 -0.4522  0.1930
  745SOL     OW 2233   2.572   1.256   1.840  0.3894 -0.5279  0.2786
  745SOL    HW1 2234   2.620   1.175   1.809 -0.5189  1.5109  0.2347
  745SOL    HW2 2235   2.639   1.334   1.860  1.6457  0.8749  1.7205
  746SOL     OW 2236   1.441   1.432   0.850  0.3707  0.0772 -0.1616
  746SOL    HW1 2237   1.456   1.530   0.873  1.4735 -1.8822  0.3645
  746SOL    HW2 2238   1.343   1.416   0.837 -0.5897  1.4458  0.0012
  747SOL     OW 2239   1.371   1.770   1.700 -0.6410 -0.2267  0.3843
  747SOL    HW1 2240   1.347   1.866   1.729  0.7193  1.6587  0.8204
  747SOL    HW2 2241   1.400   1.717   1.777 -0.4674  1.0915 -0.4225
  748SOL     OW 2242   0.320   3.099   3.115  0.1237  0.1045  0.2079
  748SOL    HW1 2243   0.400   3.069   0.023 -0.9777 -0.8414  0.9130
  748SOL    HW2 2244   0.249   3.025   3.114 -1.8645 -1.2945  0.3389
  749SOL     OW 2245   0.385   1.242   2.677 -0.0381  0.1585  0.0776
  749SOL    HW1 2246   0.453   1.211   2.606  2.1762 -1.1908 -1.2007
  749SOL    HW2 2247   0.315   1.307   2.642 -1.3182 -1.6121  1.5087
  750SOL     OW 2248   1.878   0.909   2.201  0.4749 -0.0321  0.6771
  750SOL    HW1 2249   1.968   0.864   2.190  0.0249 -0.4024  0.4026
  750SOL    HW2 2250   1.800   0.841   2.194 -0.2646  0.7588 -0.7076
  751SOL     OW 2251   2.645   0.354   0.289 -0.1902  0.1192  0.0243
  751SOL    HW1 2252   2.721   0.347   0.221  2.5867  1.3660 -0.5823
  751SOL    HW2 2253   2.600   0.447   0.294 -0.5837  1.5224  0.6141
  752SOL     OW 2254   0.189   2.279   0.931  0.1213 -0.1023 -0.4038
  752SOL    HW1 2255   0.121   2.204   0.934 -0.9380  3.5057  1.4067
  752SOL    HW2 2256   0.208   2.321   1.021 -2.2800  0.5329  1.7331
  753SOL     OW 2257   1.129   2.733   1.105  0.0889 -0.4606 -0.4578
  753SOL    HW1 2258   1.139   2.653   1.162  3.0980  3.7794  0.8805
  753SOL    HW2 2259   1.035   2.739   1.063 -1.2602  1.8456  0.6881
  754SOL     OW 2260   0.135   3.065   1.839 -0.4455 -0.1474 -0.1712
  754SOL    HW1 2261   0.118   0.017   1.868 -0.2624  0.0919 -0.3969
  754SOL    HW2 2262   0.127   3.050   1.741  0.0032  0.8058 -0.4009
  755SOL     OW 2263   2.110   0.544   0.533 -0.1035  0.1735 -0.3552
  755SOL    HW1 2264   2.032   0.576   0.479 -0.2768 -0.2112 -0.1591
  755SOL    HW2 2265   2.125   0.607   0.614  0.6421  3.2373  2.3577
  756SOL     OW 2266   2.059   2.367   2.709  0.1112  0.2756 -0.1163
  756SOL    HW1 2267   2.094   2.420   2.791  0.0775  0.8997  0.7213
  756SOL    HW2 2268   1.994   2.422   2.652 -2.3848  2.1233  0.1730
  757SOL     OW 2269   1.790   0.216   0.602  0.4135 -0.3907  0.8046
  757SOL    HW1 2270   1.766   0.129   0.642  2.8007  1.9048 -0.0833
  757SOL    HW2 2271   1.860   0.263   0.653 -0.0284  0.4194 -1.7368
  758SOL     OW 2272   2.378   0.549   1.328  0.0142 -0.1333 -0.3109
  758SOL    HW1 2273   2.437   0.477   1.367  0.0131  0.3234  1.2130
  758SOL    HW2 2274   2.328   0.530   1.241 -0.9628  0.5821  0.9606
  759SOL     OW 2275   2.358   0.361   0.897 -0.3850 -0.0912  0.0172
  759SOL    HW1 2276   2.400   0.298   0.829 -3.0383 -1.3291 -2.7327
  759SOL    HW2 2277   2.398   0.456   0.889  2.3016  0.1181 -0.5589
  760SOL     OW 2278   2.229   1.242   1.169 -0.3521 -0.0905  0.5117
  760SOL    HW1 2279   2.222   1.327   1.223 -0.7129  2.1626 -1.6911
  760SOL    HW2 2280   2.209   1.163   1.225  1.0153  3.3368 -2.6783
  761SOL     OW 2281   0.687   0.499   0.221 -0.0344 -0.3148  0.0836
  761SOL    HW1 2282   0.786   0.517   0.222  4.0704 -0.6156  2.1561
  761SOL    HW2 2283   0.641   0.548   0.300 -2.0501  0.9946  0.8523
  762SOL     OW 2284   1.103   2.038   0.932 -0.1890  0.1945 -0.2757
  762SOL    HW1 2285   1.136   2.016   1.026  0.5549  0.3248 -0.0220
  762SOL    HW2 2286   1.004   2.058   0.924  0.2322  0.4887 -3.4219
  763SOL     OW 2287   1.476   0.800   1.644  0.0570 -0.0190 -0.1242
  763SOL    HW1 2288   1.558   0.827   1.592 -0.9400  0.6283 -1.8510
  763SOL    HW2 2289   1.471   0.850   1.735  1.6595 -0.7882 -0.5114
  764SOL     OW 2290   0.280   1.579   2.813 -0.2350  0.3505  0.1581
  764SOL    HW1 2291   0.264   1.503   2.749 -1.1192 -1.8775  2.4037
  764SOL    HW2 2292   0.187   1.605   2.835  2.5761 -2.4041 -3.3996
  765SOL     OW 2293   0.720   2.823   1.602  0.5214 -0.2738  0.4175
  765SOL    HW1 2294   0.768   2.786   1.521 -0.6312 -0.8644  1.9548
  765SOL    HW2 2295   0.733   2.924   1.609  1.7612  2.2909  0.8905
  766SOL     OW 2296   2.824   2.368   2.436 -0.2152 -0.3357 -0.3771
  766SOL    HW1 2297   2.739   2.321   2.420 -1.3235  0.1379 -1.2257
  766SOL    HW2 2298   2.886   2.379   2.354 -0.2355  0.7903 -1.3233
  767SOL     OW 2299   1.413   1.127   2.303  0.4146  0.3275  0.0421
  767SOL    HW1 2300   1.419   1.030   2.270 -0.8174  0.0466  2.4068
  767SOL    HW2 2301   1.321   1.166   2.312  3.8623 -0.3464  1.8854
  768SOL     OW 2302   1.319   2.032   0.253 -0.5286 -0.2942  0.1337
  768SOL    HW1 2303   1.395   2.038   0.316  0.9164 -0.0951 -0.2228
  768SOL    HW2 2304   1.351   2.022   0.159 -1.6846  0.5691  0.7974
  769SOL     OW 2305   0.414   2.062   1.468  0.2394 -0.1751 -0.3845
  769SOL    HW1 2306   0.416   2.074   1.363 -2.0578  0.5000 -0.7658
  769SOL    HW2 2307   0.324   2.039   1.502  3.5008 -0.7156 -0.3083
  770SOL     OW 2308   1.593   0.980   2.777  0.4185 -0.3562  0.5574
  770SOL    HW1 2309   1.523   1.019   2.840  0.5516 -0.9762 -0.3532
  770SOL    HW2 2310   1.594   1.037   2.699  0.4903 -0.0969  1.1408
  771SOL     OW 2311   0.111   2.960   2.092 -0.1573 -0.2083 -0.0794
  771SOL    HW1 2312   0.180   2.884   2.099  1.1798 -1.3897 -0.2023
  771SOL    HW2 2313   0.116   2.999   2.000  2.1861  1.0723 -1.1461
  772SOL     OW 2314   2.272   2.066   1.834  0.2295 -0.0462 -0.6505
  772SOL    HW1 2315   2.345   2.047   1.904 -0.6035  0.7692  1.8267
  772SOL    HW2 2316   2.180   2.044   1.868  1.3121 -2.5548  1.1068
  773SOL     OW 2317   0.619   1.867   1.538  0.5279  0.3322 -0.1490
  773SOL    HW1 2318   0.573   1.777   1.567  0.4514  0.4345  3.0978
  773SOL    HW2 2319   0.551   1.944   1.525 -3.3154  0.6130  0.8073
  774SOL     OW 2320   1.281   0.538   2.812  0.2400  0.0032  0.1763
  774SOL    HW1 2321   1.279   0.453   2.754  1.7132 -0.9037  1.8287
  774SOL    HW2 2322   1.345   0.533   2.892  0.1928  2.5607 -1.0112
  775SOL     OW 2323   1.896   2.765   2.983 -0.0089 -0.1942  0.2886
  775SOL    HW1 2324   1.869   2.861   3.004 -0.8382 -1.8536  1.4880
  775SOL    HW2 2325   1.817   2.717   2.938  2.4924 -2.4144 -0.9869
  776SOL     OW 2326   0.227   0.725   1.998 -0.5932 -0.5994 -0.0612
  776SOL    HW1 2327   0.155   0.654   2.009  2.0730  1.5174  1.0937
  776SOL    HW2 2328   0.307   0.667   1.964  0.2730 -3.1563 -1.2817
  777SOL     OW 2329   2.418   1.998   2.053  0.0473  0.2316  0.1752
  777SOL    HW1 2330   2.403   1.895   2.061 -0.1076 -6.3525 -0.0571
  777SOL    HW2 2331   2.390   2.032   2.144 -1.7480 -1.4638 -1.5069
  778SOL     OW 2332   2.002   1.141   2.273 -0.7567  0.0296  0.3219
  778SOL    HW1 2333   1.945   1.182   2.349  0.0895 -1.5034 -1.0813
  778SOL    HW2 2334   1.939   1.086   2.222  1.7437 -0.4681  3.9066
  779SOL     OW 2335   2.472   1.260   0.257 -0.2093  0.0102  0.0086
  779SOL    HW1 2336   2.556   1.310   0.240 -0.0166 -0.1247 -0.5244
  779SOL    HW2 2337   2.425   1.241   0.167 -2.7393 -1.0589  0.1851
  780SOL     OW 2338   2.563   0.354   2.728  0.0483  0.4302  0.2054
  780SOL    HW1 2339   2.621   0.369   2.809 -0.1167  0.6846  0.5120
  780SOL    HW2 2340   2.475   0.306   2.751 -2.5613  0.3995 -1.1666
  781SOL     OW 2341   0.117   2.029   1.520  0.5189 -0.4020 -0.2275
  781SOL    HW1 2342   0.058   2.095   1.562  0.7434 -1.6017 -0.6578
  781SOL    HW2 2343   0.091   1.938   1.557 -1.8707  1.7138 -1.2084
  782SOL     OW 2344   2.398   2.386   2.986  0.2391 -0.7913  0.0127
  782SOL    HW1 2345   2.484   2.342   2.947  2.8616  1.5887 -0.7651
  782SOL    HW2 2346   2.317   2.327   3.003 -1.8106 -1.2885  0.2730
  783SOL     OW 2347   0.614   1.420   1.445 -0.0760 -0.0108  0.2614
  783SOL    HW1 2348   0.716   1.431   1.453 -2.6495  0.1521 -1.1714
  783SOL    HW2 2349   0.576   1.484   1.372 -2.2728  2.0070 -2.2815
  784SOL     OW 2350   1.748   0.802   2.904 -0.5729  0.0742  0.5986
  784SOL    HW1 2351   1.832   0.773   2.854  0.1405 -0.8280  0.5418
  784SOL    HW2 2352   1.678   0.837   2.841 -0.4570 -1.6564  1.7205
  785SOL     OW 2353   2.570   2.710   0.865 -0.6708 -0.4771 -0.0328
  785SOL    HW1 2354   2.545   2.625   0.822  3.0783  1.0104 -0.3082
  785SOL    HW2 2355   2.498   2.783   0.861 -0.8385  0.1265 -0.5869
  786SOL     OW 2356   0.744   2.077   2.249  0.2341  0.9009 -0.3646
  786SOL    HW1 2357   0.780   2.095   2.156  0.5420  1.6248 -1.3510
  786SOL    HW2 2358   0.800   2.124   2.317 -2.5179 -0.8113 -2.9085
  787SOL     OW 2359   1.279   0.944   1.147 -0.7183 -0.3306  0.5467
  787SOL    HW1 2360   1.332   0.867   1.187 -0.1553 -1.2337  0.7496
  787SOL    HW2 2361   1.329   0.976   1.064  1.0019  0.5408  0.9075
  788SOL     OW 2362   0.138   0.632   0.637  0.6358 -0.7640  0.4999
  788SOL    HW1 2363   0.196   0.713   0.619  2.2422 -2.0530  1.0234
  788SOL    HW2 2364   0.171   0.552   0.581  0.0687 -1.2078 -0.9764
  789SOL     OW 2365   3.132   1.931   1.307 -0.0716  0.1986  0.4572
  789SOL    HW1 2366   3.112   2.005   1.240  1.5031 -1.7886  1.3729
  789SOL    HW2 2367   0.054   1.954   1.376  3.3807  0.0200 -2.6063
  790SOL     OW 2368   1.156   0.885   2.105 -0.7836 -0.2154 -0.0911
  790SOL    HW1 2369   1.171   0.783   2.095 -2.7592 -0.3967  1.5372
  790SOL    HW2 2370   1.139   0.911   2.202  3.0323  2.0100 -0.0223
  791SOL     OW 2371   1.469   0.580   0.446  0.3603  0.1894  0.4621
  791SOL    HW1 2372   1.452   0.537   0.354 -0.1332  0.6054  0.2127
  791SOL    HW2 2373   1.518   0.511   0.500  0.5461 -0.4093  1.2163
  792SOL     OW 2374   1.517   2.822   1.852 -0.0080 -0.5382 -0.3082
  792SOL    HW1 2375   1.432   2.820   1.908  2.3171  2.7615  0.9382
  792SOL    HW2 2376   1.509   2.765   1.769 -0.7090 -0.2522  2.7562
  793SOL     OW 2377   1.081   0.215   0.654 -0.1231 -0.5613 -0.5466
  793SOL    HW1 2378   1.087   0.305   0.700  0.5166 -0.4471 -0.3982
  793SOL    HW2 2379   0.989   0.170   0.670 -0.9344 -1.9743  4.7310
  794SOL     OW 2380   0.668   1.154   2.095  0.1957  0.2749  0.0148
  794SOL    HW1 2381   0.592   1.112   2.038 -2.5795 -0.9333  1.6517
  794SOL    HW2 2382   0.668   1.256   2.090 -2.4021 -1.7854 -0.1931
  795SOL     OW 2383   0.332   2.048   2.365  0.3647 -0.6045  0.4009
  795SOL    HW1 2384   0.392   2.107   2.305  1.3986  1.3851 -0.3206
  795SOL    HW2 2385   0.241   2.095   2.388 -2.4865 -0.1823  2.6961
  796SOL     OW 2386   2.570   1.245   2.250  0.3523  0.7030 -0.4055
  796SOL    HW1 2387   2.608   1.244   2.348 -0.1924 -2.1840  1.2513
  796SOL    HW2 2388   2.589   1.329   2.195  1.1027  0.4470 -0.0414
  797SOL     OW 2389   3.077   2.510   2.921  0.0333 -0.3016 -0.3990
  797SOL    HW1 2390   3.130   2.596   2.927 -2.4837  0.7979  1.1368
  797SOL    HW2 2391   3.041   2.500   2.827  0.7635  0.1764 -1.7586
  798SOL     OW 2392   0.160   2.323   2.190 -0.0277 -0.1753  0.0897
  798SOL    HW1 2393   0.170   2.410   2.133 -0.0803  0.3028 -1.1974
  798SOL    HW2 2394   0.067   2.283   2.186 -0.3884  1.9217  1.9483
  799SOL     OW 2395   0.364   2.316   2.830 -0.1995 -0.5621  0.1040
  799SOL    HW1 2396   0.318   2.395   2.879  0.5067  2.4055  0.1011
  799SOL    HW2 2397   0.298   2.238   2.810 -2.1999 -0.5451 -0.9222
  800SOL     OW 2398   1.141   1.651   0.231 -0.4527 -0.4665  0.2680
  800SOL    HW1 2399   1.068   1.584   0.250 -0.3529 -1.7577 -1.8033
  800SOL    HW2 2400   1.234   1.627   0.271 -0.8337 -0.7112 -1.3555
  801SOL     OW 2401   1.974   1.409   1.446 -0.1833  0.6603  0.1092
  801SOL    HW1 2402   1.980   1.308   1.435  2.8539  1.8521  0.4807
  801SOL    HW2 2403   2.046   1.452   1.383  0.6648  1.7885 -1.8053
  802SOL     OW 2404   2.969   1.281   0.267 -0.3506  0.2731 -0.1244
  802SOL    HW1 2405   3.042   1.252   0.334  2.1434 -1.4639  2.8145
  802SOL    HW2 2406   2.966   1.218   0.190  1.9858  1.4852  0.4723
  803SOL     OW 2407   1.209   1.933   2.780 -0.3478 -0.3808 -0.7275
  803SOL    HW1 2408   1.297   1.882   2.811  2.9507  0.3078 -1.2463
  803SOL    HW2 2409   1.187   1.906   2.685  0.6141 -2.6857  2.4120
  804SOL     OW 2410   1.677   1.385   0.121 -0.2483  0.0644  0.4204
  804SOL    HW1 2411   1.601   1.350   0.177  2.6787  1.5690 -1.4304
  804SOL    HW2 2412   1.760   1.402   0.171  0.4821  0.0394 -1.7524
  805SOL     OW 2413   2.568   1.696   2.721 -0.3192  0.0820 -0.5646
  805SOL    HW1 2414   2.581   1.717   2.625  2.0194  1.2838  2.5199
  805SOL    HW2 2415   2.653   1.729   2.774 -0.3744 -0.2891  0.8981
  806SOL     OW 2416   0.481   2.938   0.464  0.1973 -0.1898  0.8328
  806SOL    HW1 2417   0.483   3.024   0.410  0.2265  2.0658 -0.8116
  806SOL    HW2 2418   0.541   2.927   0.546  2.1627  2.2965 -0.4700
  807SOL     OW 2419   1.950   1.431   3.041 -0.6428  0.4810 -0.1490
  807SOL    HW1 2420   1.947   1.533   3.052 -0.4412  0.4495 -1.5479
  807SOL    HW2 2421   1.855   1.397   3.022 -2.5723  0.5465  0.4215
  808SOL     OW 2422   3.107   1.479   0.489  1.0222  0.7499 -0.3216
  808SOL    HW1 2423   3.105   1.380   0.459  0.9727 -1.2316  1.0172
  808SOL    HW2 2424   3.010   1.516   0.507 -2.7212  1.5043 -0.5423
  809SOL     OW 2425   2.368   1.174   3.131  0.5152 -0.0935 -0.3205
  809SOL    HW1 2426   2.368   1.071   3.137  2.7079  0.7019  1.2965
  809SOL    HW2 2427   2.277   1.217   0.000  2.2525 -0.8242  0.8503
  810SOL     OW 2428   0.534   1.311   0.330 -0.5500 -0.5856 -0.2263
  810SOL    HW1 2429   0.570   1.268   0.246 -0.1403 -0.5796 -0.6181
  810SOL    HW2 2430   0.443   1.269   0.352 -2.3032  0.5825  1.5878
  811SOL     OW 2431   1.290   2.577   1.535  0.1998  0.1690 -0.3875
  811SOL    HW1 2432   1.340   2.660   1.513 -5.4639 -1.6609 -0.3098
  811SOL    HW2 2433   1.356   2.500   1.549 -1.5151 -0.6892 -0.9136
  812SOL     OW 2434   0.844   2.652   1.781 -0.1654 -0.3320 -0.0206
  812SOL    HW1 2435   0.815   2.719   1.710  0.6080  0.3231 -3.1106
  812SOL    HW2 2436   0.945   2.639   1.787 -0.0716  1.4968  1.8272
  813SOL     OW 2437   1.390   0.198   2.110  0.5610 -0.2384 -0.3587
  813SOL    HW1 2438   1.483   0.170   2.137  0.8813  1.2920  2.1122
  813SOL    HW2 2439   1.328   0.185   2.188 -0.0227  0.0042 -2.8573
  814SOL     OW 2440   1.272   2.373   2.548 -0.1082  0.4000  0.0256
  814SOL    HW1 2441   1.260   2.314   2.630 -0.1515  1.9275 -1.3871
  814SOL    HW2 2442   1.361   2.355   2.504  1.4301 -1.4544  0.0522
  815SOL     OW 2443   0.866   0.321   2.329 -0.0801  0.2945  0.2241
  815SOL    HW1 2444   0.907   0.287   2.243  1.4042  0.0320  1.6928
  815SOL    HW2 2445   0.767   0.317   2.334  1.7720 -0.6908 -0.0363
  816SOL     OW 2446   2.076   0.388   3.048 -0.3365  0.1454  0.2294
  816SOL    HW1 2447   2.109   0.372   2.951 -0.0737  1.1504  0.0326
  816SOL    HW2 2448   1.973   0.374   3.055  0.6963  2.7282 -0.0363
  817SOL     OW 2449   2.257   0.474   2.458 -0.1097  0.2990 -0.3551
  817SOL    HW1 2450   2.240   0.375   2.457  0.7964 -1.9451  1.3854
  817SOL    HW2 2451   2.170   0.527   2.454  0.8580 -0.0271 -0.2959
  818SOL     OW 2452   1.758   0.262   0.166 -0.2731 -0.2498 -0.0453
  818SOL    HW1 2453   1.818   0.340   0.164  0.4999 -2.2542  2.0098
  818SOL    HW2 2454   1.811   0.176   0.168 -1.2435  0.2763 -1.2160
  819SOL     OW 2455   2.228   1.820   2.965  0.2675 -0.0409  0.2087
  819SOL    HW1 2456   2.141   1.864   2.929 -3.1043  0.5526 -2.5305
  819SOL    HW2 2457   2.246   1.849   3.060 -1.3884 -0.7284 -2.8766
  820SOL     OW 2458   0.126   1.901   0.039  0.3121  0.0471  0.4813
  820SOL    HW1 2459   0.072   1.989   0.047 -2.3881  1.2790  0.3268
  820SOL    HW2 2460   0.177   1.877   0.128  0.3074 -2.1034  2.8086
  821SOL     OW 2461   0.405   3.002   0.770  0.5477 -0.0394 -0.1340
  821SOL    HW1 2462   0.500   2.966   0.747 -4.0752  1.7054 -0.2186
  821SOL    HW2 2463   0.393   3.096   0.727  0.2100  1.0367  0.3260
  822SOL     OW 2464   2.884   2.758   3.058 -0.3043 -0.5477  0.0032
  822SOL    HW1 2465   2.815   2.703   3.110 -1.3269 -1.9432  0.2634
  822SOL    HW2 2466   2.865   2.755   2.954  0.3281  2.1943  0.1849
  823SOL     OW 2467   1.252   0.331   2.653  0.5526  0.4626  0.1024
  823SOL    HW1 2468   1.168   0.328   2.598 -2.1618 -0.0974  0.0743
  823SOL    HW2 2469   1.291   0.242   2.658 -0.4937  3.7797  0.3215
  824SOL     OW 2470   2.689   2.082   1.969 -0.3394 -0.1615  0.0221
  824SOL    HW1 2471   2.730   2.025   2.046 -1.2417 -0.4192 -0.7415
  824SOL    HW2 2472   2.588   2.056   1.959 -3.2139  0.5480  0.9908
  825SOL     OW 2473   2.989   2.005   2.571  0.7894 -0.4234 -0.2185
  825SOL    HW1 2474   3.049   1.928   2.600 -1.6279 -2.2557 -0.4500
  825SOL    HW2 2475   3.049   2.093   2.580  1.8010  1.7148 -0.0257
  826SOL     OW 2476   2.253   1.518   2.433 -0.2541 -0.0874  0.1342
  826SOL    HW1 2477   2.296   1.431   2.468 -0.1223 -2.6699 -0.0967
  826SOL    HW2 2478   2.169   1.543   2.486  1.5045 -1.0143  0.4325
  827SOL     OW 2479   2.466   2.326   1.435 -0.4200 -0.0258  0.2229
  827SOL    HW1 2480   2.451   2.350   1.340 -0.4483 -0.5374  0.3084
  827SOL    HW2 2481   2.553   2.279   1.442 -3.7280  3.4119 -0.3789
  828SOL     OW 2482   0.199   0.063   1.429  0.0787 -0.3842  0.0237
  828SOL    HW1 2483   0.106   0.100   1.463 -2.3076  1.4662  0.0411
  828SOL    HW2 2484   0.270   0.130   1.461  1.0946  0.2065 -1.4818
  829SOL     OW 2485   1.533   2.347   2.396 -0.0546  0.0851 -0.2380
  829SOL    HW1 2486   1.461   2.288   2.352 -1.9235  2.4400  1.9535
  829SOL    HW2 2487   1.558   2.424   2.333  3.3107  1.6845  1.6741
  830SOL     OW 2488   0.796   0.567   0.586  0.2144  0.1699  0.4476
  830SOL    HW1 2489   0.843   0.623   0.518 -3.8127 -1.6024  2.9794
  830SOL    HW2 2490   0.843   0.578   0.676  1.9390  1.1526  2.4407
  831SOL     OW 2491   2.776   1.374   2.936  0.4280  0.4641 -0.2389
  831SOL    HW1 2492   2.874   1.344   2.942  0.9806 -1.2225 -0.8497
  831SOL    HW2 2493   2.751   1.392   2.838 -2.1709 -1.3229 -0.2638
  832SOL     OW 2494   1.440   2.021   2.057  0.2712 -0.1594  0.0861
  832SOL    HW1 2495   1.434   2.084   2.132  0.0478  0.6334 -2.6075
  832SOL    HW2 2496   1.506   2.050   1.984 -0.0981 -0.9023 -0.9197
  833SOL     OW 2497   0.584   0.295   2.283  0.2853  0.2929 -0.8767
  833SOL    HW1 2498   0.559   0.368   2.352 -1.3895  0.2799 -0.1419
  833SOL    HW2 2499   0.534   0.211   2.310 -1.0022  2.3404 -0.6226
  834SOL     OW 2500   0.761   1.168   1.604  0.1544 -0.3939  0.1244
  834SOL    HW1 2501   0.676   1.130   1.558  0.0485 -0.4552 -0.2729
  834SOL    HW2 2502   0.821   1.100   1.647 -1.5288 -0.2299 -0.0205
  835SOL     OW 2503   2.719   0.927   3.114 -0.1399 -0.0692  0.0016
  835SOL    HW1 2504   2.766   0.873   3.039 -2.4171 -1.3589  0.8433
  835SOL    HW2 2505   2.670   1.007   3.075  0.0511 -0.1210  1.5057
  836SOL     OW 2506   1.245   1.706   0.527  0.1385  0.3645  0.0684
  836SOL    HW1 2507   1.160   1.765   0.512  2.2462  0.4804  0.0429
  836SOL    HW2 2508   1.319   1.772   0.555 -0.7389  0.8907 -1.6754
  837SOL     OW 2509   1.814   1.587   1.071 -0.4193 -0.0754 -0.0260
  837SOL    HW1 2510   1.896   1.646   1.093 -1.6122  1.0333 -0.2560
  837SOL    HW2 2511   1.758   1.558   1.149  0.9377 -1.0247  0.1460
  838SOL     OW 2512   1.147   1.596   2.250  0.3295 -0.6643 -0.0631
  838SOL    HW1 2513   1.052   1.564   2.241  1.7733  0.9197 -1.6343
  838SOL    HW2 2514   1.187   1.552   2.334 -0.6942  0.5147 -2.5916
  839SOL     OW 2515   0.662   2.121   2.668  0.1264  0.4246 -0.3349
  839SOL    HW1 2516   0.712   2.112   2.759 -0.5741 -0.1050  1.0012
  839SOL    HW2 2517   0.581   2.185   2.674 -1.3180  0.3201 -0.4775
  840SOL     OW 2518   0.659   2.396   0.412  0.1374 -0.1416 -0.1205
  840SOL    HW1 2519   0.739   2.459   0.435  2.2820  3.3635  0.0081
  840SOL    HW2 2520   0.660   2.315   0.474  1.7484  0.5787 -0.4172
  841SOL     OW 2521   2.001   2.695   0.254 -0.0901  0.3730 -0.0739
  841SOL    HW1 2522   2.045   2.663   0.343  0.8233  0.3383  1.1366
  841SOL    HW2 2523   1.940   2.622   0.216  1.3768  1.6044  0.5092
  842SOL     OW 2524   0.616   0.654   0.020 -0.2765 -0.1059 -0.0659
  842SOL    HW1 2525   0.628   0.574   0.083  0.7189 -1.2211 -0.0594
  842SOL    HW2 2526   0.690   0.720   0.030  0.3749 -1.4161  2.8831
  843SOL     OW 2527   1.283   0.057   0.731 -0.2478  0.3034  0.0395
  843SOL    HW1 2528   1.322   0.076   0.823 -0.9337 -0.3918  0.7501
  843SOL    HW2 2529   1.209   0.113   0.706  2.9001 -2.6298 -1.0093
  844SOL     OW 2530   2.908   2.904   2.712  0.0213 -0.0107  0.6786
  844SOL    HW1 2531   2.933   2.842   2.637 -0.9619  1.3824 -2.4439
  844SOL    HW2 2532   2.838   2.857   2.770 -1.0641  0.0091  2.0507
  845SOL     OW 2533   2.756   2.378   0.747  0.2271  0.0376 -0.4002
  845SOL    HW1 2534   2.843   2.418   0.709 -0.7147  2.5092 -1.5760
  845SOL    HW2 2535   2.765   2.343   0.841 -1.8658 -0.2543  0.0510
  846SOL     OW 2536   3.019   1.715   2.390  0.4432 -0.1462 -0.5916
  846SOL    HW1 2537   2.955   1.670   2.459 -3.1583  0.8010  0.7378
  846SOL    HW2 2538   3.100   1.756   2.437 -1.1927  0.8055  1.1916
  847SOL     OW 2539   1.288   0.668   1.500 -0.2217 -0.2253  0.9237
  847SOL    HW1 2540   1.346   0.715   1.568 -0.1669 -3.4701 -1.5489
  847SOL    HW2 2541   1.310   0.566   1.496 -1.8667  0.7877  1.4973
  848SOL     OW 2542   2.513   3.050   3.101  0.4431 -0.8873  0.0732
  848SOL    HW1 2543   2.459   3.057   0.044 -2.4153  0.3391 -0.1493
  848SOL    HW2 2544   2.609   3.081   3.119  2.8160 -0.7233  0.3940
  849SOL     OW 2545   0.806   2.819   2.826 -0.3434 -0.1015  0.0942
  849SOL    HW1 2546   0.783   2.894   2.891  1.3254  2.1427 -1.7321
  849SOL    HW2 2547   0.904   2.824   2.793  1.7392 -0.7239  0.3027
  850SOL     OW 2548   1.284   2.936   1.217  0.4631 -0.7450  0.0384
  850SOL    HW1 2549   1.384   2.912   1.227  0.0999 -2.1735  0.1413
  850SOL    HW2 2550   1.234   2.851   1.182 -0.3966 -1.3852  0.0982
  851SOL     OW 2551   2.772   0.381   2.060 -0.3469 -0.3769 -0.7727
  851SOL    HW1 2552   2.790   0.456   2.120  2.9121 -1.2105  0.7568
  851SOL    HW2 2553   2.848   0.349   2.005 -0.1782 -0.8747  1.7801
  852SOL     OW 2554   2.174   1.065   2.462 -0.1642  0.6390 -0.2502
  852SOL    HW1 2555   2.134   1.094   2.378  1.0829 -2.1414  2.5755
  852SOL    HW2 2556   2.111   1.063   2.542 -1.2898  0.3723  2.0787
  853SOL     OW 2557   2.803   0.005   0.475  0.2615 -0.0918 -0.0176
  853SOL    HW1 2558   2.808   0.107   0.478  0.0292  0.1126 -0.7590
  853SOL    HW2 2559   2.717   3.115   0.519 -0.7599  3.1145  0.5908
  854SOL     OW 2560   2.199   1.167   2.090 -0.8751  0.5959 -0.1059
  854SOL    HW1 2561   2.145   1.179   2.175  1.7327 -2.6007  0.2747
  854SOL    HW2 2562   2.288   1.122   2.112  0.3948 -1.0891 -2.5434
  855SOL     OW 2563   1.022   2.376   0.209 -0.8421 -0.2176  0.1453
  855SOL    HW1 2564   0.958   2.294   0.220 -0.4194 -0.2646 -0.1224
  855SOL    HW2 2565   1.090   2.354   0.136  1.2451 -0.1269 -0.7252
  856SOL     OW 2566   3.123   0.297   2.712  0.5281  0.4535  0.1183
  856SOL    HW1 2567   3.145   0.197   2.705  1.9356 -1.2574  1.1435
  856SOL    HW2 2568   3.075   0.320   2.801  0.0792  0.6622 -0.0527
  857SOL     OW 2569   1.200   3.140   1.859 -0.2775 -0.5773 -0.2441
  857SOL    HW1 2570   1.178   0.050   1.775  0.3403 -0.5430 -2.3723
  857SOL    HW2 2571   1.148   3.055   1.858  0.7778  1.0505 -0.3125
  858SOL     OW 2572   2.365   2.272   1.697 -0.0460  0.2058 -0.0820
  858SOL    HW1 2573   2.397   2.267   1.601  0.0156  2.1258 -0.5953
  858SOL    HW2 2574   2.317   2.185   1.724 -2.6006  1.4504  0.0460
  859SOL     OW 2575   1.132   2.651   1.749  0.2316 -0.2877 -0.1454
  859SOL    HW1 2576   1.171   2.642   1.839  0.9829  1.4034 -2.4057
  859SOL    HW2 2577   1.198   2.610   1.682  0.5152 -0.8031  1.4772
  860SOL     OW 2578   2.416   2.617   0.010 -0.2026  0.2643 -0.0992
  860SOL    HW1 2579   2.395   2.534   3.101 -2.2581 -3.1854 -0.2406
  860SOL    HW2 2580   2.334   2.674   0.028 -0.2133 -0.7316 -0.4795
  861SOL     OW 2581   2.304   2.865   0.994 -0.3019 -0.2639 -0.5139
  861SOL    HW1 2582   2.238   2.939   0.964  2.3555 -0.0211 -0.9768
  861SOL    HW2 2583   2.336   2.870   1.092  2.1484 -1.1484 -2.7830
  862SOL     OW 2584   1.874   2.969   2.415 -0.2784 -0.0657  0.3282
  862SOL    HW1 2585   1.957   2.908   2.394 -0.1834 -0.6552  0.5895
  862SOL    HW2 2586   1.903   3.038   2.485  1.5550  2.2428  0.1741
  863SOL     OW 2587   3.057   0.652   0.768  0.1453  0.4856 -0.1846
  863SOL    HW1 2588   2.998   0.732   0.741 -0.5265  1.1690 -3.0653
  863SOL    HW2 2589   3.137   0.655   0.707 -0.1355  0.4483 -3.1954
  864SOL     OW 2590   0.291   2.745   2.136 -0.0497 -0.0579 -0.1580
  864SOL    HW1 2591   0.389   2.745   2.106  2.3027  2.0979  1.8707
  864SOL    HW2 2592   0.272   2.731   2.237 -1.2399  2.1377  0.5281
  865SOL     OW 2593   0.582   1.389   2.822  0.5439 -0.0630 -0.5928
  865SOL    HW1 2594   0.540   1.438   2.899  0.7999 -2.7760 -0.1642
  865SOL    HW2 2595   0.513   1.338   2.768 -0.1718 -0.8428  0.7030
  866SOL     OW 2596   2.852   0.808   2.908 -0.1604  0.1093  0.2814
  866SOL    HW1 2597   2.885   0.800   2.812  1.4880  0.9681  0.1205
  866SOL    HW2 2598   2.908   0.740   2.962  0.5860  2.7729 -0.5638
  867SOL     OW 2599   3.009   3.139   2.812 -0.0172  0.2174  0.2151
  867SOL    HW1 2600   3.108   0.002   2.832 -2.0779 -0.3737 -1.8339
  867SOL    HW2 2601   2.978   3.045   2.799  2.4890  0.0268 -0.4160
  868SOL     OW 2602   1.111   2.998   0.596 -0.0856  0.1174  0.2143
  868SOL    HW1 2603   1.171   3.064   0.647  0.6733 -1.1005  1.5092
  868SOL    HW2 2604   1.129   2.905   0.636  1.8849 -0.2454 -3.9933
  869SOL     OW 2605   1.451   1.712   0.884  0.2920  0.1574  0.1807
  869SOL    HW1 2606   1.437   1.766   0.801 -2.3757 -2.3394  2.8726
  869SOL    HW2 2607   1.497   1.752   0.960  0.2408  1.5905 -0.6260
  870SOL     OW 2608   1.937   1.909   1.011 -0.2036 -0.0255 -0.3102
  870SOL    HW1 2609   2.003   1.962   0.953 -2.5090  1.5562 -0.1591
  870SOL    HW2 2610   1.969   1.820   1.057  0.8360 -3.0304  0.2239
  871SOL     OW 2611   1.131   1.625   1.679  0.0606 -0.2178 -0.2140
  871SOL    HW1 2612   1.209   1.689   1.691  0.3019  0.1952 -0.3336
  871SOL    HW2 2613   1.068   1.641   1.599 -0.5024  0.2860 -0.7240
  872SOL     OW 2614   0.977   1.657   1.465  0.6454  0.3040 -0.0694
  872SOL    HW1 2615   0.920   1.713   1.401  0.0283  1.7426 -1.4077
  872SOL    HW2 2616   0.929   1.567   1.488 -0.1067 -1.0027 -0.2969
  873SOL     OW 2617   1.335   0.972   2.615 -0.6249  0.2895  0.5873
  873SOL    HW1 2618   1.399   1.036   2.567  2.6263 -0.3570 -2.7620
  873SOL    HW2 2619   1.382   0.881   2.628 -0.0977 -0.3762 -0.6530
  874SOL     OW 2620   0.042   1.534   1.270  0.3418  0.1946  0.3516
  874SOL    HW1 2621   0.081   1.564   1.180  2.4877  1.3648  1.9117
  874SOL    HW2 2622   0.023   1.435   1.268  0.6532  2.1336 -1.3323
  875SOL     OW 2623   2.975   3.087   0.969  0.2153 -0.2096  0.2584
  875SOL    HW1 2624   2.957   0.022   0.913 -0.2562  1.3011  1.1315
  875SOL    HW2 2625   2.932   3.000   0.930 -3.5032 -1.8805  1.4671
  876SOL     OW 2626   0.987   0.842   2.906  0.3107 -0.2448 -0.7007
  876SOL    HW1 2627   0.987   0.752   2.865  0.9405  1.7963 -1.5722
  876SOL    HW2 2628   1.021   0.835   3.003 -0.3811  0.5120  2.2468
  877SOL     OW 2629   0.062   0.282   1.103 -0.3789  0.3006 -0.0420
  877SOL    HW1 2630   3.122   0.230   1.103  0.1924  1.8288 -0.7664
  877SOL    HW2 2631   0.139   0.221   1.132  2.4388 -1.8084  3.6476
  878SOL     OW 2632   1.637   2.206   0.012  0.3056  0.3335  0.0250
  878SOL    HW1 2633   1.636   2.278   0.086  0.4103  1.7690  0.3590
  878SOL    HW2 2634   1.696   2.131   0.039 -1.7132  2.1494 -1.1012
  879SOL     OW 2635   2.314   1.750   1.460  0.6045 -0.4437  0.1527
  879SOL    HW1 2636   2.341   1.704   1.552  1.0445 -2.4979  3.5090
  879SOL    HW2 2637   2.336   1.851   1.456  1.8594  1.9623 -1.1562
  880SOL     OW 2638   0.802   0.379   1.656 -0.0019  0.3963 -0.8367
  880SOL    HW1 2639   0.896   0.416   1.647 -1.9884 -0.3464  2.1802
  880SOL    HW2 2640   0.798   0.344   1.748  0.2483  0.9924 -2.4584
  881SOL     OW 2641   1.094   1.906   0.162 -0.1128 -0.0219 -0.0878
  881SOL    HW1 2642   1.172   1.964   0.199 -0.5126 -0.1077  0.8557
  881SOL    HW2 2643   1.112   1.812   0.190  1.4268  2.0389 -1.2973
  882SOL     OW 2644   2.296   0.871   1.696  0.2536  0.4106  0.1488
  882SOL    HW1 2645   2.279   0.969   1.714  1.4125  2.1305  0.4710
  882SOL    HW2 2646   2.324   0.860   1.601  0.9677 -2.4472  1.8560
  883SOL     OW 2647   1.383   0.718   2.248 -0.1267 -0.0429 -0.7812
  883SOL    HW1 2648   1.331   0.769   2.319 -1.4138  0.3512  3.1038
  883SOL    HW2 2649   1.316   0.677   2.176 -2.4542  0.0260 -3.1264
  884SOL     OW 2650   2.435   0.366   3.089  0.0573  0.2926 -0.8235
  884SOL    HW1 2651   2.387   0.317   3.017  1.0793  0.7842  1.3467
  884SOL    HW2 2652   2.394   0.340   0.033  0.9176  0.2407 -0.1367
  885SOL     OW 2653   0.293   2.022   0.625  0.4016 -0.0314 -0.4194
  885SOL    HW1 2654   0.271   2.087   0.557 -0.6715 -0.8071  1.3594
  885SOL    HW2 2655   0.208   1.962   0.631 -2.0482 -1.9240 -0.0446
  886SOL     OW 2656   1.714   1.299   3.012 -0.3047  0.2892  0.4234
  886SOL    HW1 2657   1.775   1.215   3.007  1.5394 -0.3154  0.5620
  886SOL    HW2 2658   1.699   1.326   3.112 -0.3915 -2.4586 -0.8604
  887SOL     OW 2659   1.445   0.403   1.738 -0.2508 -0.0482 -0.3092
  887SOL    HW1 2660   1.488   0.497   1.729 -3.1213  2.7976 -1.7383
  887SOL    HW2 2661   1.410   0.376   1.645  0.2409 -0.7156 -3.6060
  888SOL     OW 2662   2.966   1.321   1.599 -0.3284 -0.3662  0.2143
  888SOL    HW1 2663   2.884   1.380   1.602 -0.9296 -2.0729  0.8770
  888SOL    HW2 2664   2.933   1.227   1.579  0.0754 -0.6668  1.2164
  889SOL     OW 2665   0.120   2.583   0.850  0.1633 -0.8464 -0.2595
  889SOL    HW1 2666   0.132   2.676   0.813  0.1764 -0.3872 -1.4247
  889SOL    HW2 2667   0.206   2.530   0.845 -0.0200 -3.0717 -3.3529
  890SOL     OW 2668   0.192   2.648   2.372 -0.1307  0.1905  0.3308
  890SOL    HW1 2669   0.225   2.549   2.374  1.8249 -0.3253  0.9243
  890SOL    HW2 2670   0.213   2.688   2.458 -0.8781 -1.7000 -0.6441
  891SOL     OW 2671   0.515   1.815   0.245  0.1899  0.1835  0.2290
  891SOL    HW1 2672   0.560   1.894   0.288  0.0929 -0.6515  1.7846
  891SOL    HW2 2673   0.517   1.737   0.304  1.4219  1.4879 -4.2497
  892SOL     OW 2674   0.030   2.374   1.282 -0.0794 -0.1644 -0.1720
  892SOL    HW1 2675   3.144   2.406   1.373 -2.1629 -0.0853  0.3969
  892SOL    HW2 2676   3.128   2.286   1.260  1.1731 -2.2990  1.0814
  893SOL     OW 2677   0.546   3.117   1.485 -0.4581  0.0305  0.3535
  893SOL    HW1 2678   0.612   3.115   1.564  1.4262 -0.6408 -1.2397
  893SOL    HW2 2679   0.506   0.064   1.472 -2.7529 -1.6594  3.1418
  894SOL     OW 2680   2.579   1.467   0.902  0.7209 -0.3571 -0.0222
  894SOL    HW1 2681   2.550   1.565   0.899 -0.1371 -0.0160 -1.9521
  894SOL    HW2 2682   2.570   1.434   0.807 -0.7581  1.7651  0.3489
  895SOL     OW 2683   2.499   2.637   1.478  0.0233 -0.0847  0.0028
  895SOL    HW1 2684   2.458   2.549   1.457  1.1920 -2.4932 -2.0180
  895SOL    HW2 2685   2.566   2.628   1.557  0.7855  1.4900  0.1193
  896SOL     OW 2686   0.898   0.211   1.437 -0.1807 -0.1657 -0.1477
  896SOL    HW1 2687   0.968   0.274   1.392 -2.5661 -0.7903  0.5180
  896SOL    HW2 2688   0.857   0.259   1.515 -0.4712  0.8556 -0.1008
  897SOL     OW 2689   0.720   1.670   1.089 -0.3342  0.1269 -0.5009
  897SOL    HW1 2690   0.641   1.618   1.134 -3.8214 -2.0212  1.5221
  897SOL    HW2 2691   0.750   1.742   1.160  0.8454  0.1184 -0.4310
  898SOL     OW 2692   1.716   2.660   1.642  0.1479 -0.6832  0.3934
  898SOL    HW1 2693   1.717   2.568   1.599  0.3643  0.8677 -2.1080
  898SOL    HW2 2694   1.809   2.672   1.681  1.4549  0.7775 -0.0090
  899SOL     OW 2695   1.090   0.345   2.996 -0.1974 -0.2993 -0.2464
  899SOL    HW1 2696   1.033   0.416   2.948 -0.9568 -0.2652 -0.6466
  899SOL    HW2 2697   1.050   0.257   2.972  0.8374  1.4472  1.5603
  900SOL     OW 2698   1.217   2.583   1.997 -0.0671  0.1718 -0.4798
  900SOL    HW1 2699   1.215   2.583   2.100 -0.2674  0.1328 -1.0172
  900SOL    HW2 2700   1.285   2.514   1.967  0.3666 -5.0400  3.4868
  901SOL     OW 2701   0.894   2.105   0.212  0.2848  0.6467 -0.0687
  901SOL    HW1 2702   0.918   2.110   0.308 -0.3526  0.1567  0.5195
  901SOL    HW2 2703   0.946   2.026   0.172 -1.5642  1.0226  1.7070
  902SOL     OW 2704   1.538   1.264   1.039  0.0157  0.0547  0.1627
  902SOL    HW1 2705   1.522   1.293   1.135 -1.9289  0.0395  1.6575
  902SOL    HW2 2706   1.496   1.323   0.970 -1.8686 -2.2375  0.7382
  903SOL     OW 2707   2.595   1.152   2.987 -0.3086 -0.7768  0.3963
  903SOL    HW1 2708   2.652   1.231   2.953  2.3700  1.8362 -0.6397
  903SOL    HW2 2709   2.515   1.180   3.044 -0.3453 -0.5610 -0.5907
  904SOL     OW 2710   0.972   1.217   0.301  0.3995 -0.1113 -0.7410
  904SOL    HW1 2711   0.957   1.307   0.249 -3.2092  1.2270 -1.8163
  904SOL    HW2 2712   0.993   1.236   0.400  0.6592  1.3851  1.2160
  905SOL     OW 2713   1.765   0.108   1.187  0.2804 -0.1308 -1.0783
  905SOL    HW1 2714   1.742   0.200   1.217 -1.2681 -1.0463 -1.7884
  905SOL    HW2 2715   1.760   0.037   1.261  0.2615  0.8560  1.2613
  906SOL     OW 2716   2.650   2.558   1.091 -0.2193 -0.0589  0.5804
  906SOL    HW1 2717   2.687   2.617   1.164 -1.9839 -0.1724  0.8821
  906SOL    HW2 2718   2.617   2.615   1.008  0.4874  0.6969 -3.0544
  907SOL     OW 2719   1.364   0.868   0.519  0.0575 -0.6634 -0.1333
  907SOL    HW1 2720   1.382   0.775   0.559  1.8405  2.0341  0.4749
  907SOL    HW2 2721   1.310   0.930   0.579  0.7170 -1.5868  1.1644
  908SOL     OW 2722   1.633   3.097   0.987 -0.1369 -0.0455 -0.5491
  908SOL    HW1 2723   1.533   3.116   0.997 -0.1605  3.3534  2.0540
  908SOL    HW2 2724   1.681   3.145   1.061 -0.7988 -0.6452  0.2488
  909SOL     OW 2725   2.340   0.824   1.423 -0.2769  0.3266 -0.4149
  909SOL    HW1 2726   2.284   0.885   1.365  0.1569 -1.6686  0.3150
  909SOL    HW2 2727   2.358   0.735   1.377 -0.0966 -0.9595 -0.7193
  910SOL     OW 2728   2.116   0.791   2.189  0.2234 -0.0234  0.6820
  910SOL    HW1 2729   2.151   0.797   2.089  2.4264  1.6771  0.4721
  910SOL    HW2 2730   2.188   0.817   2.253 -1.0538  0.6697 -0.3924
  911SOL     OW 2731   2.207   0.637   2.749 -0.0249 -0.2236  0.5432
  911SOL    HW1 2732   2.284   0.673   2.686  0.0206  0.5053 -0.0523
  911SOL    HW2 2733   2.239   0.648   2.844 -0.5467  0.7168 -3.3218
  912SOL     OW 2734   0.520   1.265   1.716 -0.1780 -0.2694  0.0536
  912SOL    HW1 2735   0.610   1.238   1.678  0.9852 -0.4416  1.0258
  912SOL    HW2 2736   0.454   1.288   1.644 -0.5431  1.6405 -0.0484
  913SOL     OW 2737   3.093   2.448   1.557  0.1132  0.2005 -0.0254
  913SOL    HW1 2738   3.113   2.369   1.619  0.6848 -0.4054 -3.5876
  913SOL    HW2 2739   3.121   2.535   1.598 -0.9053  1.5907 -1.9409
  914SOL     OW 2740   1.630   0.772   1.903 -0.1241 -0.3515 -0.6123
  914SOL    HW1 2741   1.698   0.839   1.864 -0.7869  1.1468  1.5496
  914SOL    HW2 2742   1.607   0.695   1.837 -1.1231 -0.3331  1.8720
  915SOL     OW 2743   2.412   0.964   0.991  0.3743  0.1946 -0.5094
  915SOL    HW1 2744   2.464   0.875   0.987 -0.3029  1.4257 -0.7736
  915SOL    HW2 2745   2.444   1.028   1.064  1.8942  0.1388  0.7241
  916SOL     OW 2746   1.846   2.276   1.112  0.4258  0.3499 -0.0694
  916SOL    HW1 2747   1.799   2.339   1.177  1.6192  1.7148 -0.1834
  916SOL    HW2 2748   1.793   2.183   1.100 -2.8543 -0.1820  0.3674
  917SOL     OW 2749   2.079   2.259   2.307  0.5300  0.3946 -0.4759
  917SOL    HW1 2750   1.990   2.267   2.347  0.9318  0.2023 -1.0434
  917SOL    HW2 2751   2.082   2.295   2.215 -0.3867 -0.5308  0.9676
  918SOL     OW 2752   1.922   2.492   2.497  0.6571  0.0877  0.3864
  918SOL    HW1 2753   1.857   2.569   2.498  0.2263 -1.5125 -0.9098
  918SOL    HW2 2754   1.877   2.403   2.463  1.6259 -0.7488  0.3823
  919SOL     OW 2755   1.350   0.133   1.502  0.2808 -0.3762 -0.0935
  919SOL    HW1 2756   1.397   0.043   1.509 -2.2121  2.6096 -1.3957
  919SOL    HW2 2757   1.278   0.147   1.575  0.3285 -2.8512 -1.3428
  920SOL     OW 2758   2.993   0.405   2.452  0.3582 -0.3496 -0.2534
  920SOL    HW1 2759   3.007   0.385   2.551 -1.4169 -0.5040 -0.8755
  920SOL    HW2 2760   2.997   0.321   2.391 -0.0160 -0.9819 -1.0009
  921SOL     OW 2761   3.144   1.028   1.764  0.0684 -0.6780  0.0501
  921SOL    HW1 2762   0.035   1.126   1.790  0.6287  1.3167  1.3657
  921SOL    HW2 2763   3.044   1.022   1.795 -1.3503  1.8036 -0.7919
  922SOL     OW 2764   2.354   2.491   0.484 -0.3421 -0.1305  0.5023
  922SOL    HW1 2765   2.276   2.549   0.495  1.0275 -3.5810 -0.9155
  922SOL    HW2 2766   2.369   2.468   0.383 -0.5512 -1.9867 -1.0363
  923SOL     OW 2767   0.641   2.184   0.602  0.0219 -0.2620 -0.0834
  923SOL    HW1 2768   0.736   2.194   0.642  0.1890 -1.7435  0.0613
  923SOL    HW2 2769   0.572   2.188   0.680  1.9731 -2.8404 -0.3257
  924SOL     OW 2770   1.053   0.938   0.260 -0.3288  0.3155  0.2108
  924SOL    HW1 2771   1.016   1.036   0.261 -1.7931  1.9740 -0.5417
  924SOL    HW2 2772   1.156   0.943   0.262 -0.4952  0.3255  0.2382
  925SOL     OW 2773   2.565   0.719   1.014 -0.1313  0.2212 -0.1851
  925SOL    HW1 2774   2.597   0.668   1.094  1.1634  0.4395 -0.9533
  925SOL    HW2 2775   2.516   0.655   0.947  0.3000  1.2990  0.0405
  926SOL     OW 2776   0.461   0.359   1.256  0.1761 -0.1419  0.1385
  926SOL    HW1 2777   0.410   0.312   1.332  1.6224 -0.4492  0.2371
  926SOL    HW2 2778   0.422   0.455   1.248  2.1259 -0.3696 -0.0376
  927SOL     OW 2779   0.800   1.385   2.465  0.2513 -0.0272  0.2019
  927SOL    HW1 2780   0.802   1.437   2.548  1.6649  1.8264  1.9208
  927SOL    HW2 2781   0.716   1.328   2.460 -2.2950  1.6541  0.4137
  928SOL     OW 2782   0.250   0.640   2.486  0.8980  0.2254 -0.0834
  928SOL    HW1 2783   0.173   0.631   2.417 -2.5241  0.8383 -0.7744
  928SOL    HW2 2784   0.239   0.575   2.561  1.0957  2.7458 -0.2020
  929SOL     OW 2785   3.007   3.025   1.248 -0.4137 -0.0184  0.2709
  929SOL    HW1 2786   3.077   2.949   1.251  1.1407 -3.8308 -0.1695
  929SOL    HW2 2787   2.973   3.041   1.154 -2.6602 -0.0817  1.3842
  930SOL     OW 2788   2.044   0.440   1.791 -0.2253  0.1460  0.1114
  930SOL    HW1 2789   2.046   0.351   1.740  0.8739  0.9569 -2.3713
  930SOL    HW2 2790   2.062   0.408   1.884  1.0122 -0.0219 -0.8203
  931SOL     OW 2791   2.145   0.683   0.125  0.1694  0.4975  0.0249
  931SOL    HW1 2792   2.080   0.761   0.134 -0.0014 -0.2740  0.8051
  931SOL    HW2 2793   2.158   0.631   0.211 -1.0446  1.0508  1.2524
  932SOL     OW 2794   1.995   1.408   0.522 -0.0258 -0.2193 -0.6525
  932SOL    HW1 2795   2.080   1.378   0.570  0.7875  0.5065  0.4842
  932SOL    HW2 2796   1.918   1.369   0.577  1.0988  0.4848  1.4536
  933SOL     OW 2797   2.269   1.556   0.996  0.0466 -0.2934  0.0911
  933SOL    HW1 2798   2.363   1.591   1.010  4.1738  1.0241 -0.7133
  933SOL    HW2 2799   2.273   1.463   0.959 -2.7650  0.9507 -0.3583
  934SOL     OW 2800   2.016   1.079   2.679  0.1979  0.3009  0.3356
  934SOL    HW1 2801   2.035   1.148   2.751  1.2262 -1.2095  0.2256
  934SOL    HW2 2802   2.008   0.986   2.721  0.3741  0.9626 -1.8436
  935SOL     OW 2803   0.235   0.900   0.588  0.1571  0.1135  1.0597
  935SOL    HW1 2804   0.251   0.890   0.487  1.3799  0.9356 -1.7029
  935SOL    HW2 2805   0.159   0.966   0.613  0.7813 -0.7383  1.9719
  936SOL     OW 2806   0.774   0.080   0.753  0.3851 -0.1206  1.0160
  936SOL    HW1 2807   0.728   0.077   0.843 -1.9947  2.6498 -0.4258
  936SOL    HW2 2808   0.745   0.172   0.707 -1.5951  3.5824 -2.4184
  937SOL     OW 2809   2.901   2.953   1.735  0.1368 -0.0214  0.0148
  937SOL    HW1 2810   2.980   2.904   1.696  0.3715  1.3507  1.2115
  937SOL    HW2 2811   2.862   2.910   1.823 -1.0454 -2.0880 -1.5452
  938SOL     OW 2812   0.052   2.306   3.057  0.1900 -0.2658  0.5719
  938SOL    HW1 2813   0.006   2.369   2.992 -1.2885  1.1315  1.4304
  938SOL    HW2 2814   0.088   2.360   3.132  0.2428 -3.3003 -1.9754
  939SOL     OW 2815   1.239   1.557   1.221 -0.4559  0.4187  0.0337
  939SOL    HW1 2816   1.154   1.531   1.272 -0.2209 -1.1241 -0.0953
  939SOL    HW2 2817   1.217   1.600   1.134  0.8270  1.1423  2.9566
  940SOL     OW 2818   2.978   0.638   3.065 -0.1384  0.2829  0.0231
  940SOL    HW1 2819   2.972   0.554   3.008  0.4451 -0.0281  1.2093
  940SOL    HW2 2820   2.980   0.612   0.017  0.7319  0.8528  0.8956
  941SOL     OW 2821   2.145   0.367   2.760  0.0475  0.6210  0.7573
  941SOL    HW1 2822   2.106   0.323   2.677 -2.0220 -0.5096 -0.1954
  941SOL    HW2 2823   2.159   0.467   2.743  0.9991 -0.7630 -1.0944
  942SOL     OW 2824   1.674   0.465   0.868 -0.1324 -0.0704 -0.1393
  942SOL    HW1 2825   1.755   0.403   0.851 -0.7107 -0.6157 -0.5173
  942SOL    HW2 2826   1.697   0.555   0.913 -3.1958 -1.3146  0.1157
  943SOL     OW 2827   1.123   1.170   2.076  0.2599 -0.5488 -0.2443
  943SOL    HW1 2828   1.098   1.078   2.111  0.3015 -0.8038  0.1884
  943SOL    HW2 2829   1.081   1.183   1.982 -1.5821  0.3090 -2.4752
  944SOL     OW 2830   2.009   0.912   1.597 -0.1715  0.4091  0.1776
  944SOL    HW1 2831   2.020   0.818   1.565  1.2875 -1.1374  0.6386
  944SOL    HW2 2832   2.093   0.956   1.635  0.0710 -0.0764 -0.5407
  945SOL     OW 2833   2.847   0.154   2.941  0.2833  0.0255 -0.3676
  945SOL    HW1 2834   2.906   0.113   2.868  2.1458  0.9325  0.2131
  945SOL    HW2 2835   2.802   0.074   2.986 -0.1684 -2.2139 -0.1349
  946SOL     OW 2836   2.751   1.445   1.846  0.2387 -0.4090 -0.3308
  946SOL    HW1 2837   2.843   1.441   1.890 -1.3719  0.9918 -1.6064
  946SOL    HW2 2838   2.757   1.476   1.748 -1.4076  0.9780  0.5035
  947SOL     OW 2839   1.055   2.970   0.093 -0.0582  0.2325 -0.4082
  947SOL    HW1 2840   0.956   2.959   0.099  2.0893 -1.6836 -0.3984
  947SOL    HW2 2841   1.097   2.985   0.186  1.9228 -0.5299  1.2267
  948SOL     OW 2842   2.405   1.658   1.238 -0.1524 -0.2492  0.2240
  948SOL    HW1 2843   2.377   1.686   1.330 -1.3187  1.0436 -0.7392
  948SOL    HW2 2844   2.503   1.648   1.228 -2.6126 -1.7156 -0.4410
  949SOL     OW 2845   0.243   1.287   0.056  0.0963 -0.1782 -0.0015
  949SOL    HW1 2846   0.200   1.238   3.125 -1.1768 -0.8240  0.7103
  949SOL    HW2 2847   0.307   1.362   0.025  1.7651  0.9539  0.1138
  950SOL     OW 2848   0.596   2.523   1.091 -0.2231  0.3409 -0.0949
  950SOL    HW1 2849   0.547   2.581   1.156 -1.6010 -0.7375 -0.3892
  950SOL    HW2 2850   0.608   2.560   0.995  2.2713  0.4481  2.1143
  951SOL     OW 2851   0.796   1.517   2.709 -0.1630 -0.3195 -0.3590
  951SOL    HW1 2852   0.876   1.543   2.768 -0.5297 -0.3586  1.7650
  951SOL    HW2 2853   0.717   1.467   2.755 -1.6970 -1.4753  0.1202
  952SOL     OW 2854   0.663   0.921   0.556 -0.0484  0.0786  0.5338
  952SOL    HW1 2855   0.622   0.837   0.603 -1.7106 -0.3062  0.6283
  952SOL    HW2 2856   0.675   1.004   0.617  0.1620  0.5881 -1.1250
  953SOL     OW 2857   2.625   2.941   2.546  0.5909  0.8685 -0.5557
  953SOL    HW1 2858   2.656   2.850   2.505  0.3280 -3.0001 -1.4397
  953SOL    HW2 2859   2.703   3.001   2.568 -1.3137  0.0063  0.9224
  954SOL     OW 2860   1.735   0.935   0.872 -0.0231 -0.2896 -0.1559
  954SOL    HW1 2861   1.756   1.011   0.937  1.8140  0.1054 -1.3390
  954SOL    HW2 2862   1.752   0.964   0.778  0.6144  1.3386  1.4815
  955SOL     OW 2863   0.638   2.008   0.382  0.1325  0.3188  0.3627
  955SOL    HW1 2864   0.678   2.056   0.300  1.5428 -1.5871 -0.3863
  955SOL    HW2 2865   0.643   2.069   0.464  1.9274  0.9581  0.7218
  956SOL     OW 2866   2.350   0.372   1.956  0.7334  0.0971  0.0346
  956SOL    HW1 2867   2.252   0.396   1.967  1.7063 -1.6611  2.5669
  956SOL    HW2 2868   2.394   0.342   2.045  0.9718  1.8481 -0.0251
  957SOL     OW 2869   2.051   2.316   2.005  0.3375  0.1860  0.1184
  957SOL    HW1 2870   2.099   2.375   1.936  0.8528  0.1703 -0.8378
  957SOL    HW2 2871   2.018   2.228   1.964 -1.6486  0.9770  2.3870
  958SOL     OW 2872   1.476   1.131   1.471 -0.0320 -0.5793  0.0383
  958SOL    HW1 2873   1.455   1.173   1.564  0.0317 -1.3525 -0.1527
  958SOL    HW2 2874   1.508   1.201   1.404 -3.1227 -1.7894  0.8550
  959SOL     OW 2875   1.938   1.844   2.052 -0.2631  0.0266 -0.8977
  959SOL    HW1 2876   1.857   1.786   2.031  0.1117  1.5177  1.1840
  959SOL    HW2 2877   1.996   1.804   2.119 -1.8299  2.1268  0.0995
  960SOL     OW 2878   0.723   0.933   2.902  0.4311  0.1230  0.3098
  960SOL    HW1 2879   0.709   0.931   2.800 -2.5682  0.9829  1.7435
  960SOL    HW2 2880   0.817   0.898   2.930 -0.3866 -2.0538  0.0105
  961SOL     OW 2881   0.095   1.135   3.001 -0.0729 -0.7133 -0.6703
  961SOL    HW1 2882   0.064   1.042   3.042 -1.0831  0.2126  2.1883
  961SOL    HW2 2883   0.186   1.125   2.954 -1.6318  1.1375  2.5414
  962SOL     OW 2884   0.882   1.733   2.547 -0.6214  0.2286  0.1203
  962SOL    HW1 2885   0.854   1.654   2.600 -1.2033  0.4234 -0.4844
  962SOL    HW2 2886   0.807   1.800   2.533  0.2908 -2.8092 -0.8023
  963SOL     OW 2887   3.042   2.100   0.054 -0.4105  0.0245 -0.4710
  963SOL    HW1 2888   3.012   2.028   3.137 -0.1079  0.8699  0.9877
  963SOL    HW2 2889   3.102   2.169   0.011  1.7201 -0.9492 -0.8718
  964SOL     OW 2890   1.000   2.101   1.963 -0.3099  0.0002 -0.3403
  964SOL    HW1 2891   0.995   2.031   2.035 -1.5024 -1.7425 -1.8040
  964SOL    HW2 2892   1.030   2.060   1.874 -0.7214  1.9083 -1.9231
  965SOL     OW 2893   1.649   1.994   0.493 -0.1200  0.0547  0.5174
  965SOL    HW1 2894   1.634   2.093   0.472  0.9604 -2.6359  3.2190
  965SOL    HW2 2895   1.705   1.996   0.580  2.1870 -0.3898 -0.0671
  966SOL     OW 2896   3.067   1.700   3.142  0.2944  0.1775 -0.4527
  966SOL    HW1 2897   3.135   1.767   0.036  0.4857 -2.4640  0.8611
  966SOL    HW2 2898   3.079   1.610   0.036 -2.2280 -0.2617  1.6484
  967SOL     OW 2899   2.191   3.118   2.388  0.0648  0.5702 -0.1644
  967SOL    HW1 2900   2.293   3.121   2.401 -1.4583  3.7299  0.7407
  967SOL    HW2 2901   2.148   3.029   2.405 -0.1630  1.4889 -2.3877
  968SOL     OW 2902   0.940   0.597   0.190  0.2726 -0.4241 -0.4897
  968SOL    HW1 2903   0.913   0.672   0.258 -0.1041  0.1213  0.8878
  968SOL    HW2 2904   0.975   0.636   0.099  1.3002  2.7608 -5.4937
  969SOL     OW 2905   0.375   1.647   2.199  0.1736  0.1039  0.5382
  969SOL    HW1 2906   0.460   1.702   2.214  1.3045 -1.9786  1.2942
  969SOL    HW2 2907   0.407   1.550   2.184  1.8417 -1.2398 -1.5331
  970SOL     OW 2908   2.084   2.733   1.292  0.2222  0.4675  0.3134
  970SOL    HW1 2909   2.119   2.658   1.220 -0.7721 -0.0235 -4.7158
  970SOL    HW2 2910   2.145   2.732   1.374 -1.8441  0.8490 -0.7724
  971SOL     OW 2911   2.256   2.344   0.831  0.2481  0.5309 -0.1940
  971SOL    HW1 2912   2.273   2.441   0.856 -0.4309 -2.5422  1.3560
  971SOL    HW2 2913   2.334   2.288   0.801 -3.9220  2.7197  0.3795
  972SOL     OW 2914   0.105   1.150   2.527  0.0240 -0.7134  0.5977
  972SOL    HW1 2915   0.111   1.124   2.427 -1.9071 -1.4227  1.9474
  972SOL    HW2 2916   0.165   1.230   2.555  1.2400 -0.9808  1.6057
  973SOL     OW 2917   0.497   0.009   0.321  0.4318  0.7370 -0.1603
  973SOL    HW1 2918   0.584   0.048   0.291  0.7149 -1.7144 -0.7328
  973SOL    HW2 2919   0.417   0.061   0.285  1.1796 -0.6762 -3.6002
  974SOL     OW 2920   2.499   0.892   1.950 -0.1625 -0.2318 -0.1603
  974SOL    HW1 2921   2.423   0.834   1.911 -1.3009  2.6394  0.3140
  974SOL    HW2 2922   2.467   0.955   2.019  1.5171 -1.3796 -0.6271
  975SOL     OW 2923   3.075   3.092   0.507  0.4256  0.4151  0.0171
  975SOL    HW1 2924   2.973   3.092   0.496 -0.1782  2.1394 -0.9924
  975SOL    HW2 2925   3.117   3.001   0.519 -1.1094  1.3336 -0.0440
  976SOL     OW 2926   0.056   1.823   1.061 -0.2411  0.6353  0.4988
  976SOL    HW1 2927   0.070   1.833   1.160  1.8399 -2.7785  2.4651
  976SOL    HW2 2928   0.071   1.729   1.029 -1.3274  0.2095  1.6026
  977SOL     OW 2929   1.010   1.830   0.498 -0.1643 -0.2193  0.1176
  977SOL    HW1 2930   0.952   1.770   0.442 -0.5937 -0.2423  0.0093
  977SOL    HW2 2931   0.984   1.929   0.477 -1.7887  1.2741 -0.4357
  978SOL     OW 2932   0.286   0.811   0.252  0.0007 -0.4779 -0.3514
  978SOL    HW1 2933   0.284   0.782   0.153 -0.2539  0.2894 -0.5074
  978SOL    HW2 2934   0.201   0.861   0.277  3.9345 -1.1742  0.1148
  979SOL     OW 2935   1.829   1.677   0.806 -0.2612 -0.4253  0.0723
  979SOL    HW1 2936   1.930   1.674   0.798  0.9891  0.1045  1.3648
  979SOL    HW2 2937   1.798   1.623   0.881 -0.8163  1.1387 -0.3338
  980SOL     OW 2938   0.471   1.949   1.935 -0.7472 -0.1001 -0.3906
  980SOL    HW1 2939   0.516   1.921   2.018  0.9858  4.4527  0.7090
  980SOL    HW2 2940   0.539   2.007   1.881  0.0524  0.3731 -4.3158
  981SOL     OW 2941   2.075   1.240   2.901 -0.2404 -0.4078  0.7338
  981SOL    HW1 2942   2.025   1.310   2.959  0.9006 -2.3643 -0.2091
  981SOL    HW2 2943   2.156   1.286   2.860  0.2102  1.3864 -1.6290
  982SOL     OW 2944   2.900   2.612   1.786  0.0918 -0.2317  0.0243
  982SOL    HW1 2945   2.875   2.682   1.853 -0.6943 -0.5043 -5.0880
  982SOL    HW2 2946   2.967   2.646   1.716  1.7155  1.0028  1.5171
  983SOL     OW 2947   1.625   0.197   1.810  0.4085 -0.0151 -0.8908
  983SOL    HW1 2948   1.557   0.267   1.783 -1.4798  0.2160  0.2191
  983SOL    HW2 2949   1.578   0.107   1.824  1.1343  0.7435 -0.8576
  984SOL     OW 2950   2.126   2.905   2.888 -0.0030 -0.0440 -0.4458
  984SOL    HW1 2951   2.192   2.843   2.843 -0.3258 -1.9618 -1.4451
  984SOL    HW2 2952   2.044   2.849   2.919  0.0786  0.1331  0.7737
  985SOL     OW 2953   1.528   1.416   1.785  0.0398  0.1337 -0.6319
  985SOL    HW1 2954   1.472   1.352   1.728 -1.6994 -1.4329 -0.1149
  985SOL    HW2 2955   1.539   1.368   1.879 -0.0170 -2.9027  0.7102
  986SOL     OW 2956   2.165   2.584   2.462 -0.2256 -0.3634 -0.0738
  986SOL    HW1 2957   2.193   2.613   2.554 -2.0772 -1.2747 -2.0442
  986SOL    HW2 2958   2.076   2.536   2.464  0.6673  1.3634  1.2793
  987SOL     OW 2959   2.833   1.821   2.759  0.3313  0.1661 -0.3078
  987SOL    HW1 2960   2.886   1.748   2.713  1.0036  3.2185  4.1301
  987SOL    HW2 2961   2.823   1.897   2.694  0.8505  1.1886  0.9785
  988SOL     OW 2962   3.106   0.866   1.511 -0.2766 -0.6121  0.3575
  988SOL    HW1 2963   3.123   0.920   1.594  1.8056  0.4325 -4.7308
  988SOL    HW2 2964   3.015   0.882   1.470  1.3707  2.6289  0.0298
  989SOL     OW 2965   1.949   1.134   1.434  0.3444 -0.3048 -0.1139
  989SOL    HW1 2966   1.940   1.103   1.336 -0.4649 -2.4636  0.4207
  989SOL    HW2 2967   1.969   1.057   1.497  1.3266 -3.0235  3.3000
  990SOL     OW 2968   2.764   0.699   0.133  0.1929  0.0178 -0.2274
  990SOL    HW1 2969   2.745   0.775   0.074 -1.4812 -1.7420  0.7710
  990SOL    HW2 2970   2.787   0.614   0.084 -1.9773 -0.9175 -0.2736
  991SOL     OW 2971   0.564   1.711   3.138  0.3207 -0.4647 -0.1050
  991SOL    HW1 2972   0.574   1.778   3.064 -1.0789  1.1525  0.1342
  991SOL    HW2 2973   0.536   1.758   0.077 -1.3131  3.1250  0.1930
  992SOL     OW 2974   2.369   1.606   1.665  0.0394 -0.1846 -0.4468
  992SOL    HW1 2975   2.281   1.569   1.700 -1.1682 -1.0999 -0.5514
  992SOL    HW2 2976   2.429   1.649   1.741  1.5109 -1.4700 -1.4285
  993SOL     OW 2977   0.643   2.911   0.678 -0.7345  0.4809 -0.2054
  993SOL    HW1 2978   0.734   2.947   0.644  3.5840  0.6703  1.0632
  993SOL    HW2 2979   0.650   2.817   0.718 -1.6583  0.2490  1.3414
  994SOL     OW 2980   2.711   2.195   1.480 -0.1917  0.0268 -0.0631
  994SOL    HW1 2981   2.757   2.177   1.567 -1.8011  0.6579 -2.7236
  994SOL    HW2 2982   2.688   2.107   1.441  1.8369  2.2893  0.6856
  995SOL     OW 2983   1.984   1.991   2.304 -0.4782  0.0867 -0.2574
  995SOL    HW1 2984   2.025   2.082   2.306  3.8982  0.0249 -0.0175
  995SOL    HW2 2985   1.965   1.967   2.208 -4.0380 -1.8365  0.0790
  996SOL     OW 2986   1.903   1.712   3.056  0.0722  0.3339 -0.2437
  996SOL    HW1 2987   1.845   1.698   3.142  2.4449  1.3046  1.0646
  996SOL    HW2 2988   1.940   1.805   3.055  2.0007 -0.5640  0.9797
  997SOL     OW 2989   1.275   1.488   2.479  0.3020  0.0017  0.0066
  997SOL    HW1 2990   1.189   1.456   2.526 -2.1363  2.4363  0.6430
  997SOL    HW2 2991   1.293   1.582   2.520 -2.8237 -0.5140  2.4145
  998SOL     OW 2992   3.023   2.479   0.674 -0.0673  0.1587 -0.4061
  998SOL    HW1 2993   3.055   2.438   0.585 -0.8864 -2.2515  2.2955
  998SOL    HW2 2994   3.104   2.484   0.738  1.8125  0.3623 -0.1716
  999SOL     OW 2995   0.299   2.740   0.394 -0.1355 -0.3512 -0.1493
  999SOL    HW1 2996   0.339   2.647   0.419 -1.8849  1.8663 -1.4906
  999SOL    HW2 2997   0.364   2.818   0.417  1.1123  0.9187 -1.5029
 1000SOL     OW 2998   1.096   3.027   2.972  0.1206 -0.1772 -0.2947
 1000SOL    HW1 2999   1.091   2.990   3.066 -0.8607  1.7210 -0.3258
 1000SOL    HW2 3000   1.038   3.116   2.968 -1.7819  1.4583 -0.6728
   3.14550   3.14550   3.14550
