1000 SPC/Fw water molecules t= 384.00000 step= 384000
 3000
    1SOL     OW    1   2.602   2.824   1.645 -0.6093  0.0676 -0.1215
    1SOL    HW1    2   2.619   2.908   1.696 -0.3085  1.6545  0.3529
    1SOL    HW2    3   2.585   2.752   1.712 -0.7834  1.3785 -1.0693
    2SOL     OW    4   2.390   2.560   0.389  0.7880  0.6636  0.0856
    2SOL    HW1    5   2.293   2.569   0.418 -1.4494 -0.2413  3.0132
    2SOL    HW2    6   2.394   2.527   0.290  1.5711 -3.6910  3.0835
    3SOL     OW    7   1.440   0.001   0.163  0.2061  0.3554  0.2103
    3SOL    HW1    8   1.382   0.073   0.209 -1.2915  0.1434  1.5367
    3SOL    HW2    9   1.429   3.098   0.062  1.1228  0.6517 -1.6477
    4SOL     OW   10   1.220   0.169   2.310  0.2106 -0.0128  0.0819
    4SOL    HW1   11   1.173   0.118   2.384  0.0945  0.3875 -1.0435
    4SOL    HW2   12   1.229   0.107   2.233 -3.1781 -0.8935  1.0378
    5SOL     OW   13   2.276   0.144   1.334 -0.2752 -0.2356 -0.2041
    5SOL    HW1   14   2.279   0.227   1.276  1.5734  0.4015 -1.0277
    5SOL    HW2   15   2.187   0.145   1.387 -2.9216  1.2742  0.7785
    6SOL     OW   16   2.176   2.063   0.558  0.0823  0.1175 -0.0920
    6SOL    HW1   17   2.106   2.008   0.504 -0.7389  0.1858  0.6004
    6SOL    HW2   18   2.180   2.159   0.524  0.5269 -0.5657 -0.6107
    7SOL     OW   19   1.941   1.135   0.886 -0.0202 -0.1111  0.1210
    7SOL    HW1   20   1.978   1.154   0.983  0.1868  0.1668  1.2437
    7SOL    HW2   21   1.878   1.056   0.880  1.0522  0.6777 -0.0451
    8SOL     OW   22   0.652   1.346   1.094  0.2077  0.1116  0.5930
    8SOL    HW1   23   0.729   1.399   1.137 -0.2145  1.1082 -2.7518
    8SOL    HW2   24   0.569   1.350   1.151  0.8612 -1.7243  0.9166
    9SOL     OW   25   0.705   2.748   1.627  0.0440 -0.1250 -0.5980
    9SOL    HW1   26   0.722   2.846   1.625  0.1977 -2.8767 -0.9962
    9SOL    HW2   27   0.637   2.727   1.698 -0.0191  0.1981 -2.1599
   10SOL     OW   28   1.172   2.486   0.472  0.1773  0.5416  0.5465
   10SOL    HW1   29   1.265   2.526   0.465 -0.9572  0.7792 -2.2047
   10SOL    HW2   30   1.176   2.385   0.495 -1.0172 -2.0578 -3.2732
   11SOL     OW   31   1.634   1.652   1.283 -0.4461  0.0850 -0.0259
   11SOL    HW1   32   1.638   1.754   1.266 -0.5955 -0.9102 -0.0462
   11SOL    HW2   33   1.660   1.605   1.199 -2.3157  0.0334  0.6844
   12SOL     OW   34   2.837   0.475   1.968  0.3236 -0.0590 -0.1689
   12SOL    HW1   35   2.911   0.526   1.915  3.0942  1.2270 -0.5720
   12SOL    HW2   36   2.775   0.537   2.017  1.2334 -0.2359 -0.2570
   13SOL     OW   37   2.742   0.172   0.494 -0.0932 -0.0846  0.3725
   13SOL    HW1   38   2.709   0.080   0.468 -0.3046  2.8318 -2.9735
   13SOL    HW2   39   2.734   0.198   0.594  0.5152  1.3530  2.6207
   14SOL     OW   40   1.793   1.364   3.025  0.3603 -0.3878  0.3173
   14SOL    HW1   41   1.762   1.281   2.973 -0.7440  0.5323  0.5598
   14SOL    HW2   42   1.759   1.449   2.979  0.5639  0.7084  0.5215
   15SOL     OW   43   2.602   2.351   1.695  0.3685  0.3597  0.4850
   15SOL    HW1   44   2.570   2.445   1.680  2.0373  0.8482 -1.4795
   15SOL    HW2   45   2.563   2.325   1.784 -2.7526  0.1546 -1.7540
   16SOL     OW   46   2.412   2.879   1.069  1.0515  0.4481 -0.9908
   16SOL    HW1   47   2.417   2.978   1.101  2.3196 -0.0372 -0.6891
   16SOL    HW2   48   2.328   2.866   1.014 -2.2494 -1.7525  1.3314
   17SOL     OW   49   1.017   0.330   1.437 -0.3290  0.1474  0.4654
   17SOL    HW1   50   1.007   0.239   1.387 -0.8460 -0.4772  0.8008
   17SOL    HW2   51   0.955   0.348   1.521 -1.4837 -0.9244  2.9255
   18SOL     OW   52   1.699   0.426   0.918  0.1159 -0.5016  0.2757
   18SOL    HW1   53   1.662   0.524   0.944 -0.5946  2.4170  0.6752
   18SOL    HW2   54   1.624   0.369   0.888  0.3950  3.7797  1.9583
   19SOL     OW   55   2.140   1.263   0.187  0.5293  0.1229 -0.2390
   19SOL    HW1   56   2.091   1.354   0.174  0.1421  1.5091 -2.5892
   19SOL    HW2   57   2.099   1.206   0.261  3.6756 -2.7836 -1.9648
   20SOL     OW   58   2.097   1.523   2.296  0.2067 -0.0438  0.5979
   20SOL    HW1   59   2.197   1.511   2.295 -1.1157 -3.4934 -2.7274
   20SOL    HW2   60   2.045   1.441   2.256  0.3433 -2.7743 -1.3879
   21SOL     OW   61   1.135   0.168   0.580  0.6282  0.5940 -0.3101
   21SOL    HW1   62   1.070   0.193   0.503 -0.9276  0.0203  1.2691
   21SOL    HW2   63   1.150   0.067   0.564  0.0582 -1.4668  0.3809
   22SOL     OW   64   2.696   0.694   0.910 -0.0412  0.2149  0.3603
   22SOL    HW1   65   2.752   0.742   0.844  1.5900  0.2606  1.0160
   22SOL    HW2   66   2.717   0.736   1.001  0.2511  0.3454 -0.4366
   23SOL     OW   67   0.293   0.168   1.678 -0.1940 -0.0618  0.3066
   23SOL    HW1   68   0.375   0.226   1.672 -0.5136  2.1894  1.9162
   23SOL    HW2   69   0.259   0.165   1.771  0.1484 -1.4761 -0.2833
   24SOL     OW   70   2.575   2.739   0.412 -0.7347  0.5591  0.2347
   24SOL    HW1   71   2.493   2.679   0.392 -1.3298 -3.6235 -0.6859
   24SOL    HW2   72   2.547   2.803   0.487 -0.0701  2.0273  2.0917
   25SOL     OW   73   1.829   0.155   2.664  0.1030  0.2122 -0.0092
   25SOL    HW1   74   1.826   0.062   2.699  2.1984  2.0605  0.4910
   25SOL    HW2   75   1.871   0.212   2.733 -0.0050 -2.3146  0.2943
   26SOL     OW   76   1.450   2.554   0.109 -0.1749 -0.0459 -0.1561
   26SOL    HW1   77   1.460   2.645   0.142 -1.7578 -2.5123  0.6066
   26SOL    HW2   78   1.425   2.484   0.180 -2.6899  1.0659  2.4145
   27SOL     OW   79   1.277   0.604   1.120 -0.0160 -0.3151 -0.2077
   27SOL    HW1   80   1.247   0.650   1.036  2.1011  1.5196 -0.0369
   27SOL    HW2   81   1.197   0.583   1.179  1.5877 -0.1760  1.1059
   28SOL     OW   82   1.230   1.513   0.851  0.3383  0.2530  0.0925
   28SOL    HW1   83   1.284   1.565   0.778  3.0530 -0.6295 -2.1806
   28SOL    HW2   84   1.290   1.452   0.904  1.1993  0.3494 -0.2535
   29SOL     OW   85   2.970   0.216   1.781 -0.2706  0.0555 -0.0573
   29SOL    HW1   86   2.969   0.116   1.756 -2.9407  3.3959  1.7118
   29SOL    HW2   87   2.911   0.270   1.720  2.7257 -0.3858 -0.3127
   30SOL     OW   88   1.128   2.840   1.333  0.4497 -0.8661 -0.1303
   30SOL    HW1   89   1.124   2.797   1.422  2.1413 -0.6122 -1.7080
   30SOL    HW2   90   1.165   2.936   1.342 -2.5088  1.4417 -1.3316
   31SOL     OW   91   2.012   3.051   1.692 -0.1316 -0.2650  0.6165
   31SOL    HW1   92   1.976   3.059   1.788  0.7861  0.1720 -0.7077
   31SOL    HW2   93   1.978   2.968   1.640 -0.9396 -0.3548 -3.1389
   32SOL     OW   94   1.308   1.710   3.010 -0.1997  0.3797  0.3764
   32SOL    HW1   95   1.407   1.715   2.988  3.1722  0.5011 -0.0334
   32SOL    HW2   96   1.253   1.741   2.927  0.4060  3.0960 -0.5700
   33SOL     OW   97   2.860   0.765   2.310 -0.0912 -0.0233  0.0611
   33SOL    HW1   98   2.903   0.855   2.290  1.7321 -0.7043 -1.2453
   33SOL    HW2   99   2.759   0.765   2.288 -3.2387  1.9858  2.4350
   34SOL     OW  100   2.268   0.328   0.401  0.2755  0.2027 -0.1660
   34SOL    HW1  101   2.196   0.323   0.476  0.1559 -1.8359  0.4565
   34SOL    HW2  102   2.229   0.321   0.310  1.7204  1.4488  1.3532
   35SOL     OW  103   2.614   2.225   1.948 -0.0083 -0.7918 -0.2444
   35SOL    HW1  104   2.705   2.210   1.898  2.1580  0.5203  0.5746
   35SOL    HW2  105   2.615   2.215   2.050 -0.6096 -0.1506  0.2058
   36SOL     OW  106   2.188   2.089   2.844 -0.5285  0.0561 -0.1481
   36SOL    HW1  107   2.287   2.068   2.853 -1.0530 -1.9558 -2.5324
   36SOL    HW2  108   2.143   2.041   2.770 -2.9600  1.8868 -1.8811
   37SOL     OW  109   2.041   0.107   1.486 -0.1021  0.1594 -0.5646
   37SOL    HW1  110   1.991   0.188   1.513 -0.0144 -0.2438 -3.1850
   37SOL    HW2  111   2.034   0.034   1.562 -1.2979 -1.2472  1.5560
   38SOL     OW  112   0.353   0.066   2.745 -0.3064 -0.1275 -0.3950
   38SOL    HW1  113   0.402   0.128   2.808 -0.4310 -1.8749 -1.8467
   38SOL    HW2  114   0.362   3.079   2.778  1.7615 -1.4076  3.2405
   39SOL     OW  115   1.734   1.300   1.984  0.1587 -0.1389 -0.4164
   39SOL    HW1  116   1.796   1.309   2.061  1.2015  0.2622 -1.3182
   39SOL    HW2  117   1.761   1.347   1.898 -2.9268 -0.3369  0.7881
   40SOL     OW  118   1.227   1.804   0.817 -0.5358 -0.0988  0.2774
   40SOL    HW1  119   1.310   1.840   0.766  0.1442 -0.0021 -1.7371
   40SOL    HW2  120   1.166   1.742   0.763  0.2673 -1.7593  3.0594
   41SOL     OW  121   1.947   1.858   0.898  0.2410 -0.1097  0.2121
   41SOL    HW1  122   2.030   1.831   0.941 -1.7606 -2.2554 -0.5345
   41SOL    HW2  123   1.927   1.788   0.828 -1.7578  0.4500 -2.4144
   42SOL     OW  124   0.066   0.786   1.417 -0.0591 -0.7289 -0.6404
   42SOL    HW1  125   0.023   0.715   1.472  1.3175  1.9260 -2.0840
   42SOL    HW2  126   0.125   0.843   1.476  0.8781  4.0537  2.7799
   43SOL     OW  127   0.155   1.586   3.000  0.1245 -0.0790 -0.2670
   43SOL    HW1  128   0.173   1.683   3.027 -1.8099 -0.0554 -1.9791
   43SOL    HW2  129   0.239   1.532   3.004 -2.0646  0.8125  1.5995
   44SOL     OW  130   1.410   2.673   1.383 -0.1392  0.3549 -0.3973
   44SOL    HW1  131   1.351   2.697   1.462 -0.4748 -1.7024  1.2970
   44SOL    HW2  132   1.489   2.740   1.382 -2.2653 -1.4460  0.9694
   45SOL     OW  133   1.121   0.005   2.536  0.0818  0.0203  0.1541
   45SOL    HW1  134   1.064   3.066   2.474  1.6072  3.9425  2.1431
   45SOL    HW2  135   1.073   0.084   2.582 -1.7648  1.5794 -1.0867
   46SOL     OW  136   0.765   2.667   2.335  0.0885  0.1091  0.1331
   46SOL    HW1  137   0.802   2.716   2.249  2.2366  3.1669 -5.0698
   46SOL    HW2  138   0.770   2.724   2.423  0.8346 -0.0334  3.6489
   47SOL     OW  139   0.977   2.197   0.925 -0.0621 -0.1744 -0.6345
   47SOL    HW1  140   0.925   2.286   0.926  0.7840  0.2733  0.5607
   47SOL    HW2  141   1.022   2.173   1.013 -0.9508 -2.8188 -0.8122
   48SOL     OW  142   0.772   2.102   1.239  0.4108 -0.0839 -0.3127
   48SOL    HW1  143   0.739   2.186   1.186  1.2370  1.9575 -1.1079
   48SOL    HW2  144   0.735   2.009   1.220 -0.1655 -1.2844  1.8352
   49SOL     OW  145   2.599   0.337   2.945  0.4529  0.4412 -0.5835
   49SOL    HW1  146   2.543   0.409   2.904  3.2227 -3.1913 -0.3406
   49SOL    HW2  147   2.700   0.356   2.938  1.9481  0.5221  0.2601
   50SOL     OW  148   1.925   0.436   0.066 -0.5867  0.3044  0.5234
   50SOL    HW1  149   2.026   0.439   0.058  1.1426  2.8405 -1.7984
   50SOL    HW2  150   1.881   0.516   0.112  0.8486 -1.0302 -0.8521
   51SOL     OW  151   1.967   0.667   1.259  0.4424  0.6748  0.1259
   51SOL    HW1  152   2.019   0.626   1.181 -0.7460 -0.0075 -1.8534
   51SOL    HW2  153   1.986   0.765   1.270 -0.6498 -3.0099  1.6864
   52SOL     OW  154   0.563   1.754   0.250 -0.3399  0.5690  0.1157
   52SOL    HW1  155   0.579   1.675   0.187  0.9274 -2.7833 -1.2329
   52SOL    HW2  156   0.491   1.816   0.215  0.5921  0.4051  1.1217
   53SOL     OW  157   0.308   1.228   3.105  0.4991 -0.4816 -0.1766
   53SOL    HW1  158   0.276   1.235   0.095  2.1020  0.2412  3.8131
   53SOL    HW2  159   0.346   1.319   3.076  0.5085  0.9946 -1.0296
   54SOL     OW  160   2.509   1.474   2.021  0.2081 -0.0583  0.1347
   54SOL    HW1  161   2.474   1.572   2.036 -0.7890  3.5089 -1.4529
   54SOL    HW2  162   2.581   1.455   2.088 -1.7008  0.2483 -2.1727
   55SOL     OW  163   2.479   1.996   0.502 -0.0689  0.4365 -0.1507
   55SOL    HW1  164   2.377   1.995   0.527 -3.5899 -0.9332 -0.6249
   55SOL    HW2  165   2.539   1.977   0.581  0.0652 -2.5990 -0.5962
   56SOL     OW  166   1.978   0.024   1.244 -0.1650  0.3410 -0.0337
   56SOL    HW1  167   2.004   0.099   1.178 -1.4942 -1.8111 -1.5662
   56SOL    HW2  168   2.009   0.038   1.341  0.4338 -1.1262 -3.0346
   57SOL     OW  169   1.260   1.180   0.120 -0.3032  0.3248  0.0839
   57SOL    HW1  170   1.229   1.084   0.137 -1.5577 -1.0884 -0.7759
   57SOL    HW2  171   1.361   1.167   0.111  3.8763  0.2315  0.3921
   58SOL     OW  172   2.482   0.273   1.461 -0.2082 -0.3588 -0.7832
   58SOL    HW1  173   2.450   0.316   1.551  1.3162 -1.3362 -1.9159
   58SOL    HW2  174   2.411   0.206   1.428 -3.7935 -0.1476 -0.3589
   59SOL     OW  175   1.205   2.880   2.835 -0.3592 -0.1135 -0.2844
   59SOL    HW1  176   1.294   2.930   2.820  0.3337  0.1340 -1.2246
   59SOL    HW2  177   1.217   2.777   2.837  2.1107 -1.3284 -1.3841
   60SOL     OW  178   0.015   2.264   2.874  0.8344  0.0249 -0.3919
   60SOL    HW1  179   3.041   2.242   2.931  0.2187 -1.6144 -3.7424
   60SOL    HW2  180   3.096   2.330   2.799 -0.5762 -0.2486  2.4519
   61SOL     OW  181   0.628   2.342   1.116 -0.1682 -0.2006 -0.5165
   61SOL    HW1  182   0.699   2.413   1.105 -1.1791 -0.0889 -0.9275
   61SOL    HW2  183   0.555   2.356   1.049  1.0154  3.1057 -0.0285
   62SOL     OW  184   1.936   1.912   2.433  0.3280  0.3517  0.6342
   62SOL    HW1  185   1.884   1.939   2.354  2.1895 -0.7206  2.1086
   62SOL    HW2  186   1.872   1.872   2.498 -1.4815  4.0458 -0.1311
   63SOL     OW  187   1.677   1.889   0.084 -0.4444  0.4978  0.0342
   63SOL    HW1  188   1.616   1.822   0.133 -0.8714  2.7081  0.4317
   63SOL    HW2  189   1.771   1.853   0.057 -0.2641  0.3838 -2.4646
   64SOL     OW  190   2.047   1.182   3.003  0.1172 -0.1697 -0.5306
   64SOL    HW1  191   2.021   1.214   3.093  0.9623  0.1197 -1.8708
   64SOL    HW2  192   2.088   1.262   2.956 -0.3563  0.3524 -1.6391
   65SOL     OW  193   2.218   2.289   1.827 -0.7916  0.4210 -0.5802
   65SOL    HW1  194   2.235   2.227   1.907  0.8167  0.6213  1.2474
   65SOL    HW2  195   2.270   2.372   1.836 -0.2605  1.8054  0.5413
   66SOL     OW  196   0.263   0.970   1.531  0.2438 -0.4113  0.1491
   66SOL    HW1  197   0.268   1.013   1.441 -2.5436  0.7906 -0.1096
   66SOL    HW2  198   0.276   1.038   1.602 -0.3066  1.0137 -0.0270
   67SOL     OW  199   2.421   3.049   0.043  0.8567 -0.6020 -0.4357
   67SOL    HW1  200   2.332   3.093   0.077 -1.3499 -1.6149 -1.1650
   67SOL    HW2  201   2.451   3.072   3.058 -1.6092 -0.5581  1.5457
   68SOL     OW  202   1.634   1.920   1.267 -0.1374 -0.0661 -0.7793
   68SOL    HW1  203   1.685   1.961   1.188  1.1067  1.4089  0.3326
   68SOL    HW2  204   1.538   1.936   1.249  4.3611 -0.7041  0.1983
   69SOL     OW  205   3.053   2.691   0.058 -0.4676  0.0846  0.2659
   69SOL    HW1  206   0.030   2.696   3.104  3.0582 -2.1201 -2.2518
   69SOL    HW2  207   3.029   2.596   0.087  1.9243 -0.0048  1.5751
   70SOL     OW  208   2.968   0.948   1.996 -0.3946  0.1766 -0.4775
   70SOL    HW1  209   2.984   0.972   1.900 -0.4838 -1.3486  1.2248
   70SOL    HW2  210   2.869   0.920   2.006 -0.9037 -1.3271  0.1969
   71SOL     OW  211   0.810   1.104   2.761 -0.0664 -0.2459 -0.1599
   71SOL    HW1  212   0.880   1.144   2.825  0.7953  1.7763  0.1320
   71SOL    HW2  213   0.849   1.025   2.711  0.6450 -1.0193  0.8191
   72SOL     OW  214   2.824   1.636   2.185 -0.5945 -0.3441 -0.2664
   72SOL    HW1  215   2.794   1.680   2.101  3.0991  1.1678  0.7969
   72SOL    HW2  216   2.805   1.536   2.177  0.2309 -1.3507 -2.6305
   73SOL     OW  217   0.953   1.700   0.212 -0.4783 -0.0256  0.3629
   73SOL    HW1  218   0.894   1.764   0.160 -3.1956  2.1483  0.6971
   73SOL    HW2  219   1.051   1.702   0.180  1.1074 -0.8948 -3.4179
   74SOL     OW  220   2.211   2.807   2.682 -0.2634 -0.2643 -0.0891
   74SOL    HW1  221   2.260   2.841   2.599 -0.9942  0.5345 -0.4316
   74SOL    HW2  222   2.266   2.808   2.766 -1.6403  0.4918 -1.7268
   75SOL     OW  223   1.441   2.352   0.786  0.0850 -0.3575  0.0269
   75SOL    HW1  224   1.369   2.304   0.838  0.8769  2.4800  2.2617
   75SOL    HW2  225   1.521   2.288   0.784  2.4839 -0.5050  3.8362
   76SOL     OW  226   2.536   1.937   2.406 -0.3744 -0.2961  0.3027
   76SOL    HW1  227   2.451   1.950   2.348 -0.1203  1.0961 -0.9454
   76SOL    HW2  228   2.575   1.841   2.402  1.2469  1.0440 -1.3625
   77SOL     OW  229   0.191   2.460   1.873  0.3756 -0.1620  0.1224
   77SOL    HW1  230   0.118   2.499   1.928  0.0939 -0.1088 -1.8544
   77SOL    HW2  231   0.195   2.360   1.888  0.6661 -0.5635  0.1343
   78SOL     OW  232   2.350   1.029   0.286 -0.4639 -0.4815 -0.0897
   78SOL    HW1  233   2.306   0.942   0.254 -0.7192  1.9163 -0.0772
   78SOL    HW2  234   2.362   1.098   0.213 -2.1138 -3.6050  0.4572
   79SOL     OW  235   0.133   1.594   2.514  0.1794  0.4729  0.0354
   79SOL    HW1  236   0.091   1.654   2.590 -0.9728 -2.3819  0.9860
   79SOL    HW2  237   0.185   1.516   2.564  3.0743 -2.2822 -0.0083
   80SOL     OW  238   1.867   1.445   1.795  0.6777 -0.3126  0.9519
   80SOL    HW1  239   1.806   1.519   1.754 -1.7660 -2.8581  0.1393
   80SOL    HW2  240   1.932   1.491   1.857 -0.7701 -1.2017  0.6226
   81SOL     OW  241   1.955   1.333   2.148 -0.4986 -0.5060 -0.6652
   81SOL    HW1  242   2.006   1.263   2.095 -2.2848  0.0779  1.1720
   81SOL    HW2  243   1.917   1.281   2.228 -0.2486 -0.0635  1.7035
   82SOL     OW  244   1.463   1.746   1.873 -0.0234 -0.6359  0.0720
   82SOL    HW1  245   1.361   1.746   1.872 -0.7215  0.5070  1.6113
   82SOL    HW2  246   1.502   1.654   1.882 -2.6010 -0.2782 -0.7404
   83SOL     OW  247   0.376   0.317   0.422 -0.7997 -0.4462 -0.3682
   83SOL    HW1  248   0.398   0.373   0.342  2.2726  2.0327  0.4022
   83SOL    HW2  249   0.289   0.265   0.398 -1.6128 -2.0947 -2.1280
   84SOL     OW  250   0.147   0.135   0.390 -0.3515  0.3188  0.2994
   84SOL    HW1  251   0.048   0.154   0.389  0.6346  0.6428 -1.0403
   84SOL    HW2  252   0.177   0.087   0.306 -0.0237 -1.3252  0.0215
   85SOL     OW  253   2.291   2.106   1.143 -0.1456 -0.3067 -0.5371
   85SOL    HW1  254   2.293   2.145   1.236  1.7080 -0.8474  1.8765
   85SOL    HW2  255   2.239   2.163   1.078 -0.8864 -0.9260  1.1862
   86SOL     OW  256   0.289   0.496   1.519 -0.0581 -0.0165  0.4130
   86SOL    HW1  257   0.277   0.428   1.444  0.1722  1.4301 -0.5275
   86SOL    HW2  258   0.357   0.458   1.584  0.1931  0.4228  0.5886
   87SOL     OW  259   0.054   2.238   2.141  0.6050 -0.5697 -0.0492
   87SOL    HW1  260   0.113   2.219   2.059  2.2498 -0.7782 -2.3418
   87SOL    HW2  261   0.070   2.333   2.182 -1.7635  1.6581  0.3466
   88SOL     OW  262   0.164   1.963   2.919  0.2999  0.1234 -0.1535
   88SOL    HW1  263   0.142   1.974   2.819  1.0288 -3.3894 -0.7203
   88SOL    HW2  264   0.085   1.998   2.977 -1.8200  0.3277 -1.0834
   89SOL     OW  265   1.302   0.842   0.424  0.0365 -0.0529  0.3815
   89SOL    HW1  266   1.251   0.757   0.439 -0.0307 -0.6232 -1.0826
   89SOL    HW2  267   1.397   0.813   0.400  0.7213 -1.1738 -0.3497
   90SOL     OW  268   3.064   1.476   2.333 -0.0215  0.5204 -0.0544
   90SOL    HW1  269   2.997   1.541   2.299 -0.3641  0.8890  1.5219
   90SOL    HW2  270   0.036   1.517   2.377 -0.9457  2.2325 -5.7737
   91SOL     OW  271   1.692   0.877   0.782 -0.4345  0.1901  0.0724
   91SOL    HW1  272   1.596   0.846   0.754 -0.8848 -0.9205 -1.3034
   91SOL    HW2  273   1.714   0.867   0.884 -0.0837  2.0235  2.0999
   92SOL     OW  274   2.383   1.376   0.904 -0.4285 -0.4334 -0.2400
   92SOL    HW1  275   2.468   1.383   0.962  1.1458  0.0678  0.6583
   92SOL    HW2  276   2.373   1.278   0.872 -0.7182 -3.4708 -2.2831
   93SOL     OW  277   0.243   1.153   2.832 -0.3891 -0.1721  0.2435
   93SOL    HW1  278   0.269   1.199   2.920  3.0986  0.4805  0.7268
   93SOL    HW2  279   0.240   1.225   2.759  1.3525  2.3433 -1.3053
   94SOL     OW  280   1.769   2.376   2.390  0.5647  0.1073  0.2405
   94SOL    HW1  281   1.704   2.376   2.311  2.9120  0.1367 -1.7022
   94SOL    HW2  282   1.858   2.369   2.336  0.6147 -1.5216  0.1047
   95SOL     OW  283   0.224   0.339   1.304  0.3331  0.1378  1.3820
   95SOL    HW1  284   0.255   0.418   1.250  1.6472 -1.5547  3.1137
   95SOL    HW2  285   0.260   0.253   1.255  0.7128 -2.0457  0.2797
   96SOL     OW  286   3.021   2.713   1.248 -0.0635 -0.0408 -0.5558
   96SOL    HW1  287   2.986   2.787   1.188  0.1842  0.0368 -0.8169
   96SOL    HW2  288   3.008   2.728   1.350  1.6111 -0.0303 -1.7323
   97SOL     OW  289   2.366   0.780   1.332 -0.2111 -0.1951 -0.1811
   97SOL    HW1  290   2.434   0.855   1.344  2.1737  2.4436 -0.2431
   97SOL    HW2  291   2.318   0.775   1.421  0.4927 -0.4868  0.0876
   98SOL     OW  292   1.990   2.542   1.515 -0.2853  0.3900  0.1621
   98SOL    HW1  293   2.022   2.491   1.437  4.0958  1.6551  2.2415
   98SOL    HW2  294   1.887   2.552   1.518  1.2811  0.4609  0.3282
   99SOL     OW  295   0.335   2.965   1.297  0.8771  0.2913  0.0580
   99SOL    HW1  296   0.319   2.991   1.394 -0.4746  1.2731 -0.5809
   99SOL    HW2  297   0.432   2.949   1.279  0.2864 -0.4651  1.7278
  100SOL     OW  298   1.954   0.040   2.426  0.3758 -0.5737 -0.3256
  100SOL    HW1  299   1.929   0.109   2.352 -2.2880 -0.6414 -0.9585
  100SOL    HW2  300   1.934   0.067   2.520  0.7530 -0.1518 -0.1433
  101SOL     OW  301   3.006   0.308   2.241  0.0335  0.1255 -0.4392
  101SOL    HW1  302   3.010   0.236   2.168  2.1460  0.7641  2.0511
  101SOL    HW2  303   2.995   0.408   2.215 -2.0331 -0.7659  2.7821
  102SOL     OW  304   0.438   0.758   1.502  0.2543 -0.0701  0.0112
  102SOL    HW1  305   0.381   0.681   1.472 -2.1074  1.2440  0.1265
  102SOL    HW2  306   0.378   0.834   1.531  1.5637 -3.7630 -1.6549
  103SOL     OW  307   0.981   0.467   2.822  0.3823  0.1135 -0.0465
  103SOL    HW1  308   0.987   0.471   2.722 -0.5508 -0.4978  0.4766
  103SOL    HW2  309   1.007   0.551   2.873 -0.1751 -1.1011  0.2975
  104SOL     OW  310   0.255   0.569   2.061 -0.1795 -0.0054  0.1584
  104SOL    HW1  311   0.275   0.668   2.070  0.6241 -1.6645 -0.5306
  104SOL    HW2  312   0.206   0.532   2.143  0.9666  1.9544  2.1337
  105SOL     OW  313   2.666   2.037   1.299  0.3673  0.1634 -0.2967
  105SOL    HW1  314   2.615   2.081   1.372 -1.0678  2.0667  0.8454
  105SOL    HW2  315   2.610   1.965   1.251  1.6529  0.3493  2.3250
  106SOL     OW  316   1.490   0.166   0.378 -0.4159 -0.1634 -0.0559
  106SOL    HW1  317   1.555   0.167   0.297  3.2060 -0.3605 -0.8235
  106SOL    HW2  318   1.394   0.176   0.351  2.8950  2.1552 -1.5314
  107SOL     OW  319   2.077   2.181   0.973  0.0798  0.3050  0.1085
  107SOL    HW1  320   2.015   2.102   0.987 -1.3265 -0.2812  0.1463
  107SOL    HW2  321   2.033   2.270   0.996 -1.2488 -1.6371 -0.9082
  108SOL     OW  322   0.130   2.363   1.414  0.0067  0.0050 -0.2420
  108SOL    HW1  323   0.028   2.374   1.418  0.0785 -1.6436 -0.4623
  108SOL    HW2  324   0.164   2.312   1.332 -0.0337  1.7059 -1.0065
  109SOL     OW  325   2.072   2.639   0.833 -0.1502 -0.2664  0.8412
  109SOL    HW1  326   1.987   2.698   0.802 -1.1203  0.0079  1.2356
  109SOL    HW2  327   2.048   2.569   0.904  0.6973 -0.6730  0.1628
  110SOL     OW  328   1.199   1.768   1.853 -0.5659 -0.2362  0.1354
  110SOL    HW1  329   1.154   1.683   1.810 -0.9080  0.2930 -0.6448
  110SOL    HW2  330   1.207   1.845   1.787 -1.3802 -1.3759  0.1329
  111SOL     OW  331   1.756   2.587   1.991  0.2889  0.2930  0.2990
  111SOL    HW1  332   1.819   2.528   1.940 -1.6156 -1.6648 -0.7044
  111SOL    HW2  333   1.793   2.679   2.018  1.0790  2.7362  1.5177
  112SOL     OW  334   1.618   2.067   2.986 -0.0683 -0.1747 -0.6758
  112SOL    HW1  335   1.533   2.113   3.012  4.7806  0.0121 -2.4153
  112SOL    HW2  336   1.650   2.001   3.056 -0.5304  0.1065 -1.4575
  113SOL     OW  337   1.809   1.944   1.709 -0.3921  0.0587  0.1381
  113SOL    HW1  338   1.807   1.842   1.700 -2.7572  1.6074 -2.3980
  113SOL    HW2  339   1.727   1.971   1.769 -2.1083 -0.8766 -1.2387
  114SOL     OW  340   0.091   1.276   1.485  0.3555  0.0201  0.4427
  114SOL    HW1  341   0.101   1.241   1.390 -0.7935 -3.0012  2.4213
  114SOL    HW2  342   3.105   1.256   1.521  2.0501  0.7366  0.6133
  115SOL     OW  343   0.833   0.740   0.393 -0.2573  0.3970 -0.0426
  115SOL    HW1  344   0.774   0.669   0.439  1.7601  2.2510  0.4230
  115SOL    HW2  345   0.829   0.730   0.293 -2.5426 -1.1240 -0.2319
  116SOL     OW  346   2.484   1.487   2.515  0.4052  0.2853 -0.5762
  116SOL    HW1  347   2.426   1.442   2.442 -0.2934 -1.2463  0.2262
  116SOL    HW2  348   2.563   1.429   2.547  0.7315  1.7739  0.5145
  117SOL     OW  349   2.803   2.532   0.309 -0.5605 -0.2676 -0.4692
  117SOL    HW1  350   2.782   2.615   0.366  1.4531  0.4023 -0.6662
  117SOL    HW2  351   2.838   2.459   0.371 -1.9225  1.7269  0.5166
  118SOL     OW  352   0.507   2.045   2.602 -0.5855  0.4556  0.3042
  118SOL    HW1  353   0.601   2.061   2.569  2.0955 -2.3714  2.9459
  118SOL    HW2  354   0.482   2.100   2.683  0.2621  1.2646 -1.1338
  119SOL     OW  355   0.791   2.286   0.681 -0.3722 -0.0408 -0.2917
  119SOL    HW1  356   0.695   2.259   0.694  0.8475 -1.4626 -0.7460
  119SOL    HW2  357   0.854   2.208   0.656  0.0509 -1.5964  1.3898
  120SOL     OW  358   1.511   0.406   0.129  0.1137 -1.0211 -0.0835
  120SOL    HW1  359   1.590   0.339   0.126 -1.5383  1.2109  0.6623
  120SOL    HW2  360   1.464   0.409   0.037 -1.3836  2.3791 -2.1844
  121SOL     OW  361   1.220   2.214   0.828  0.3646 -0.0150  0.5359
  121SOL    HW1  362   1.130   2.195   0.866  0.1787  3.0575 -1.4716
  121SOL    HW2  363   1.216   2.236   0.726  3.0604  0.2656  2.2308
  122SOL     OW  364   2.854   2.126   1.836 -0.4446  0.2683  0.4756
  122SOL    HW1  365   2.917   2.206   1.851  0.4783  3.5951  1.6912
  122SOL    HW2  366   2.884   2.052   1.898 -0.7533  1.0756 -0.1197
  123SOL     OW  367   0.869   1.777   0.804  0.0749  0.1711  0.1624
  123SOL    HW1  368   0.869   1.760   0.903  0.1136  1.1150 -1.6563
  123SOL    HW2  369   0.776   1.763   0.772  1.3389 -0.8980 -1.3085
  124SOL     OW  370   0.026   0.709   0.251  0.4030 -0.1693 -0.0666
  124SOL    HW1  371   3.039   0.713   0.295  0.6704  0.0460 -0.1030
  124SOL    HW2  372   0.027   0.638   0.180  0.0498  0.1278  0.4015
  125SOL     OW  373   0.226   0.344   0.062 -0.0436 -0.5643  0.2805
  125SOL    HW1  374   0.141   0.398   0.084 -1.6829  1.1138 -0.5489
  125SOL    HW2  375   0.306   0.395   0.101 -2.3467  0.9623 -1.9327
  126SOL     OW  376   3.020   1.699   0.515  0.6112  0.0114  0.0954
  126SOL    HW1  377   3.079   1.771   0.548 -0.9611  0.0797 -1.4443
  126SOL    HW2  378   2.921   1.725   0.527 -1.3796  0.2690 -0.0876
  127SOL     OW  379   1.112   2.481   1.594  0.5430  0.2288  1.1331
  127SOL    HW1  380   1.133   2.434   1.681  0.9502  1.1323 -3.2514
  127SOL    HW2  381   1.144   2.428   1.512  0.8653 -1.3449  2.2563
  128SOL     OW  382   1.278   1.397   0.270 -0.1703  0.0338 -0.2236
  128SOL    HW1  383   1.337   1.445   0.200  0.5574  0.0448  0.0249
  128SOL    HW2  384   1.251   1.312   0.230  0.2655  0.6422 -0.5598
  129SOL     OW  385   1.859   2.182   1.296  0.1077  0.1971 -0.1414
  129SOL    HW1  386   1.854   2.107   1.222  0.6418 -1.6734 -2.6007
  129SOL    HW2  387   1.769   2.228   1.314 -0.7009  0.5940  1.8782
  130SOL     OW  388   1.996   2.004   1.541  0.5571 -0.5103 -0.0119
  130SOL    HW1  389   1.919   1.985   1.612  1.7770 -2.6939 -0.5847
  130SOL    HW2  390   1.964   2.056   1.462 -0.6152 -2.3583 -1.9114
  131SOL     OW  391   2.797   2.700   2.475  0.1595 -0.3670  0.4595
  131SOL    HW1  392   2.704   2.669   2.503 -0.5172  1.5393 -0.4081
  131SOL    HW2  393   2.879   2.682   2.538  0.0516 -1.2498 -0.9249
  132SOL     OW  394   3.006   2.069   0.441  0.1410 -0.4106 -0.3593
  132SOL    HW1  395   3.075   2.013   0.493 -0.0129  0.3785 -0.3451
  132SOL    HW2  396   2.935   2.102   0.510 -3.3173  0.2862 -0.7252
  133SOL     OW  397   0.497   0.394   1.690 -0.1120 -0.0740  0.0382
  133SOL    HW1  398   0.505   0.441   1.782 -2.7772 -1.0945  1.8010
  133SOL    HW2  399   0.580   0.350   1.669  0.9517  1.4872  2.9826
  134SOL     OW  400   2.731   2.006   0.137  0.0732 -0.3790 -0.5366
  134SOL    HW1  401   2.813   2.055   0.115  0.4452 -4.6578 -0.5436
  134SOL    HW2  402   2.654   2.067   0.109  3.2949  1.2477 -0.3847
  135SOL     OW  403   1.589   1.282   2.547  0.1450 -0.3846 -0.2320
  135SOL    HW1  404   1.617   1.185   2.545 -0.0825  1.7238 -1.1776
  135SOL    HW2  405   1.493   1.297   2.566 -0.5230  2.6456  0.0556
  136SOL     OW  406   2.492   1.685   1.014  0.5701  0.5445 -0.1888
  136SOL    HW1  407   2.477   1.710   0.916  0.1616 -1.2971 -1.4319
  136SOL    HW2  408   2.577   1.621   1.013  0.9193  0.6020 -0.2359
  137SOL     OW  409   2.705   1.547   0.737  0.0160  0.3316 -0.4393
  137SOL    HW1  410   2.648   1.462   0.719 -1.6847 -0.2214 -0.4203
  137SOL    HW2  411   2.725   1.603   0.653  0.8720 -0.2681 -0.8339
  138SOL     OW  412   2.769   0.219   0.757  0.2542 -0.0231 -0.4845
  138SOL    HW1  413   2.752   0.132   0.801  0.5985 -1.6589  0.1768
  138SOL    HW2  414   2.768   0.293   0.825 -2.0401 -1.0294 -0.6157
  139SOL     OW  415   0.165   2.744   3.000  0.1106 -0.1353 -0.5688
  139SOL    HW1  416   0.168   2.717   2.903  0.1173  0.7594  0.1511
  139SOL    HW2  417   0.199   2.840   3.010 -1.4110 -0.8206  1.4819
  140SOL     OW  418   0.738   1.923   1.841 -0.4614 -0.3291 -0.3265
  140SOL    HW1  419   0.727   2.021   1.870 -0.3712  0.4965 -2.0341
  140SOL    HW2  420   0.729   1.857   1.918 -3.2225 -1.2482 -1.7776
  141SOL     OW  421   1.476   1.820   0.716 -0.9202 -0.8424 -0.2787
  141SOL    HW1  422   1.454   1.732   0.672  0.9754 -0.5749 -3.4235
  141SOL    HW2  423   1.516   1.808   0.810  2.7866 -0.7679  2.2688
  142SOL     OW  424   1.199   0.737   0.888  0.1617 -0.1114  0.0637
  142SOL    HW1  425   1.162   0.686   0.808  0.2857 -0.7566 -0.2735
  142SOL    HW2  426   1.132   0.813   0.907 -2.2454 -0.6871 -0.2067
  143SOL     OW  427   0.711   1.369   2.662 -0.1741  0.3453  0.0079
  143SOL    HW1  428   0.758   1.321   2.740 -0.0313  0.2753  0.4163
  143SOL    HW2  429   0.678   1.300   2.592 -0.2212 -0.2871 -1.1265
  144SOL     OW  430   2.141   2.984   0.946  0.1871  0.1880 -0.3014
  144SOL    HW1  431   2.060   3.014   0.894 -1.6836 -0.9438 -0.3650
  144SOL    HW2  432   2.111   2.922   1.023 -0.0885  0.4000 -0.4584
  145SOL     OW  433   2.395   0.560   2.594  0.3107  0.1260 -0.1448
  145SOL    HW1  434   2.421   0.554   2.691 -1.9210 -0.6640 -1.7750
  145SOL    HW2  435   2.470   0.506   2.551  1.9378 -0.3623  1.2828
  146SOL     OW  436   3.003   2.729   0.849 -0.2646  0.0288 -0.0347
  146SOL    HW1  437   2.924   2.670   0.833  1.1282 -1.1342  0.6913
  146SOL    HW2  438   3.049   2.771   0.769 -2.2846  0.1025  1.2440
  147SOL     OW  439   1.283   1.027   2.605 -0.4071 -0.1181  0.0713
  147SOL    HW1  440   1.209   1.076   2.564  1.5460 -2.3417  2.1533
  147SOL    HW2  441   1.351   0.986   2.542  1.3440 -0.8154  1.4719
  148SOL     OW  442   1.239   0.407   2.429 -0.0962 -0.6751  0.2825
  148SOL    HW1  443   1.332   0.432   2.410  0.2445 -1.1577 -0.5437
  148SOL    HW2  444   1.223   0.314   2.398 -1.6922  3.3070  1.3502
  149SOL     OW  445   2.035   0.221   2.012 -0.7392 -0.5180 -0.3863
  149SOL    HW1  446   1.996   0.130   1.981  0.5993  1.1341  0.9731
  149SOL    HW2  447   2.018   0.225   2.113 -1.5969  0.6587  0.2617
  150SOL     OW  448   2.354   2.807   2.899 -0.5261  0.2801 -0.4652
  150SOL    HW1  449   2.308   2.812   2.987 -0.7566 -0.8971 -0.6511
  150SOL    HW2  450   2.452   2.783   2.914  2.8302  0.1990 -1.4849
  151SOL     OW  451   0.407   1.479   3.032 -0.2437 -0.3775 -0.1752
  151SOL    HW1  452   0.484   1.477   3.099  0.1125 -1.1396 -2.5343
  151SOL    HW2  453   0.434   1.521   2.943 -2.2806 -0.2703  0.6363
  152SOL     OW  454   0.065   0.228   1.496 -0.1336 -0.3231  0.0378
  152SOL    HW1  455   0.135   0.196   1.564 -2.4556 -0.4157 -1.4491
  152SOL    HW2  456   0.116   0.273   1.417  0.7747 -1.0880 -3.8286
  153SOL     OW  457   2.288   3.061   1.712  0.3807 -0.1914 -0.1842
  153SOL    HW1  458   2.190   3.071   1.688  1.4976 -1.1294  0.5083
  153SOL    HW2  459   2.344   3.041   1.629  1.4746 -2.1573 -0.4578
  154SOL     OW  460   2.011   0.513   2.334 -0.3500 -0.0461  0.2549
  154SOL    HW1  461   2.067   0.513   2.418 -1.3023 -0.5062 -1.4856
  154SOL    HW2  462   2.027   0.609   2.294  3.1411  1.2263  0.5065
  155SOL     OW  463   0.074   1.656   0.309  0.1897  0.0172  0.5107
  155SOL    HW1  464   0.160   1.675   0.357 -0.4619 -1.0622 -0.1781
  155SOL    HW2  465   3.104   1.668   0.370  1.6799 -0.3129  3.1723
  156SOL     OW  466   2.844   1.613   3.081  0.3755 -0.2267 -0.3146
  156SOL    HW1  467   2.789   1.682   3.032  1.9359 -6.0885  0.7693
  156SOL    HW2  468   2.807   1.591   0.065  0.2552 -1.2875 -2.4438
  157SOL     OW  469   0.632   0.336   0.675 -0.3987 -0.2632  0.1929
  157SOL    HW1  470   0.542   0.293   0.682 -0.5737 -1.5770  0.0859
  157SOL    HW2  471   0.702   0.273   0.701 -0.7019 -1.3823  0.5575
  158SOL     OW  472   2.009   0.967   1.221  0.2935 -0.2268 -0.8011
  158SOL    HW1  473   2.044   0.986   1.315 -1.5684  1.4977 -0.3334
  158SOL    HW2  474   2.011   1.055   1.165 -0.0021  0.7026 -0.9576
  159SOL     OW  475   0.148   0.159   0.662  0.6293  0.1254 -0.3821
  159SOL    HW1  476   0.069   0.225   0.667 -3.1214 -1.2581 -0.7293
  159SOL    HW2  477   0.181   0.153   0.569  1.0867  2.9121  4.5690
  160SOL     OW  478   2.227   2.166   1.580  0.0339  0.2388  0.0690
  160SOL    HW1  479   2.211   2.205   1.673 -1.6548 -1.9300 -2.1116
  160SOL    HW2  480   2.149   2.101   1.567 -0.1586 -0.1626 -0.5210
  161SOL     OW  481   3.105   0.737   2.652 -0.1570  0.0955  0.0898
  161SOL    HW1  482   0.051   0.650   2.646 -0.4952  1.6656  1.3180
  161SOL    HW2  483   0.042   0.806   2.708  1.4282  0.8032 -1.1979
  162SOL     OW  484   0.616   3.021   1.644  0.5319 -0.0125 -0.0842
  162SOL    HW1  485   0.523   3.013   1.608  0.0500 -1.0188 -1.0636
  162SOL    HW2  486   0.679   3.072   1.583  1.5660 -0.5691 -2.9307
  163SOL     OW  487   2.782   0.141   2.342  0.0330  0.3409  0.0445
  163SOL    HW1  488   2.778   0.045   2.307  1.1763 -0.2254 -0.5184
  163SOL    HW2  489   2.868   0.187   2.307 -2.0639 -1.0903  0.7933
  164SOL     OW  490   2.020   1.920   0.369  0.0908 -0.2513  0.2384
  164SOL    HW1  491   1.935   1.968   0.343  1.2043  0.0783  1.1711
  164SOL    HW2  492   2.086   1.923   0.289 -1.6862  1.5109 -1.9881
  165SOL     OW  493   3.103   0.521   1.545  0.1358  0.0373  0.5696
  165SOL    HW1  494   0.097   0.501   1.557  2.4185 -0.6736  0.6282
  165SOL    HW2  495   3.061   0.432   1.520 -1.7089 -2.0248  1.3392
  166SOL     OW  496   1.984   0.848   0.393  0.6982 -0.2956  0.2583
  166SOL    HW1  497   1.970   0.948   0.388 -0.8935 -3.1994  1.7276
  166SOL    HW2  498   1.973   0.820   0.493  0.6720 -0.6842  0.2360
  167SOL     OW  499   2.413   0.976   3.025 -0.0519  0.2060 -0.2661
  167SOL    HW1  500   2.328   0.952   2.975 -2.4893  0.7295  1.4955
  167SOL    HW2  501   2.480   0.903   3.046 -0.7008  2.2797  0.5070
  168SOL     OW  502   1.853   0.265   2.954  0.5343 -0.1113  0.3193
  168SOL    HW1  503   1.871   0.313   3.041 -0.8687  1.2697  1.4435
  168SOL    HW2  504   1.755   0.245   2.950  0.4488  0.5125  1.0818
  169SOL     OW  505   0.198   1.718   0.899  0.1768  0.0121 -0.2183
  169SOL    HW1  506   0.174   1.706   0.999  0.0525 -0.0671  2.2225
  169SOL    HW2  507   0.126   1.676   0.842  0.3239  0.7738  0.6914
  170SOL     OW  508   2.979   1.203   0.885  0.1539 -0.4563 -0.0992
  170SOL    HW1  509   2.880   1.186   0.855 -3.8812 -0.7584 -2.0629
  170SOL    HW2  510   3.035   1.206   0.796 -0.2606 -1.8188 -1.1379
  171SOL     OW  511   2.422   1.732   2.044 -0.5853  0.2205 -0.5740
  171SOL    HW1  512   2.390   1.763   1.955 -2.6729 -0.4312 -0.5564
  171SOL    HW2  513   2.388   1.797   2.118  0.4671  1.0032 -0.2125
  172SOL     OW  514   0.503   1.884   1.715  0.0032 -0.2426 -0.7721
  172SOL    HW1  515   0.468   1.962   1.663  2.4768  0.1406  1.0186
  172SOL    HW2  516   0.594   1.899   1.758  0.0174 -0.3562 -1.0697
  173SOL     OW  517   1.723   1.594   2.912  0.2240  0.2419 -0.9035
  173SOL    HW1  518   1.640   1.553   2.868  2.0750 -1.8760  1.5838
  173SOL    HW2  519   1.724   1.697   2.898 -2.4264  2.5900  0.9385
  174SOL     OW  520   1.287   0.553   2.808 -0.3372  0.2984 -0.5890
  174SOL    HW1  521   1.367   0.517   2.760 -1.9529  0.6351  4.2205
  174SOL    HW2  522   1.232   0.609   2.748 -0.2415 -1.5418  1.1125
  175SOL     OW  523   1.258   1.470   1.311 -0.4607  0.3415 -0.0789
  175SOL    HW1  524   1.243   1.531   1.389 -1.6158  1.4774 -0.0492
  175SOL    HW2  525   1.181   1.411   1.288  1.9134  1.2102  0.8683
  176SOL     OW  526   1.252   0.168   0.239  0.3137  0.0171 -0.1753
  176SOL    HW1  527   1.234   0.169   0.138  1.2434  0.6073  0.4189
  176SOL    HW2  528   1.198   0.253   0.276  0.3109  3.3871  4.2325
  177SOL     OW  529   0.524   0.939   0.256  0.1472  0.2782  0.3249
  177SOL    HW1  530   0.585   0.885   0.196 -1.7558  1.4174  1.5661
  177SOL    HW2  531   0.577   0.989   0.327  3.0814  0.7520 -0.5615
  178SOL     OW  532   2.604   2.202   2.240  0.2042 -0.3869  0.1710
  178SOL    HW1  533   2.625   2.253   2.325 -1.6692 -0.2699 -1.5720
  178SOL    HW2  534   2.598   2.103   2.252 -0.6760 -0.7158  2.9420
  179SOL     OW  535   2.873   3.015   2.569 -0.4044 -0.6376 -0.1308
  179SOL    HW1  536   2.818   2.971   2.640 -1.8755  1.3876 -1.1755
  179SOL    HW2  537   2.832   3.003   2.474 -2.4897  0.6408  1.7841
  180SOL     OW  538   2.253   0.372   1.189 -0.6810 -0.2877 -0.0229
  180SOL    HW1  539   2.171   0.338   1.140  2.0713  0.1923 -0.2993
  180SOL    HW2  540   2.320   0.414   1.125 -0.4868 -1.6794 -1.8329
  181SOL     OW  541   2.276   0.824   2.575  0.2804 -0.3272  0.1402
  181SOL    HW1  542   2.327   0.735   2.595 -2.2163 -1.4892 -0.2963
  181SOL    HW2  543   2.306   0.900   2.634  1.5644 -0.7861 -2.5126
  182SOL     OW  544   2.901   2.358   2.084  0.2672 -0.2095 -0.0067
  182SOL    HW1  545   2.996   2.320   2.096 -0.3709 -0.5972 -0.8853
  182SOL    HW2  546   2.847   2.349   2.167  3.6563  0.9877  0.8244
  183SOL     OW  547   1.898   0.627   1.543  0.4677  0.0374 -0.4597
  183SOL    HW1  548   1.977   0.624   1.481 -1.6294  0.8442 -2.3547
  183SOL    HW2  549   1.822   0.689   1.513  1.1405  0.9380 -2.1953
  184SOL     OW  550   0.203   1.678   1.149 -0.3254 -0.3093 -0.0857
  184SOL    HW1  551   0.182   1.579   1.157 -0.0049  0.2142 -0.9245
  184SOL    HW2  552   0.220   1.720   1.242 -1.7311  3.6083  1.0607
  185SOL     OW  553   2.699   3.099   0.921 -0.1309 -0.1045  0.5413
  185SOL    HW1  554   2.639   0.044   0.989 -2.5721  1.8588  1.2918
  185SOL    HW2  555   2.741   3.014   0.963  3.7577 -2.2212  0.1010
  186SOL     OW  556   2.185   2.394   2.638 -0.2235  0.2175  0.1557
  186SOL    HW1  557   2.232   2.394   2.727  0.1260  1.7878 -1.1667
  186SOL    HW2  558   2.085   2.381   2.648 -0.7525 -1.2325 -0.0740
  187SOL     OW  559   0.441   1.458   0.563 -0.4141  0.1097 -0.1435
  187SOL    HW1  560   0.428   1.360   0.549  1.4966  1.6797 -0.3802
  187SOL    HW2  561   0.425   1.483   0.660  0.4734  1.1091 -0.4075
  188SOL     OW  562   2.008   1.224   1.143  0.0316 -0.7006 -0.2721
  188SOL    HW1  563   2.085   1.297   1.142  0.3672  0.3838 -0.0683
  188SOL    HW2  564   1.937   1.245   1.217  0.1946  0.5427 -2.9421
  189SOL     OW  565   0.163   0.798   2.430 -0.1957 -0.0905  0.2839
  189SOL    HW1  566   0.241   0.810   2.493 -0.2276 -0.3945  2.9394
  189SOL    HW2  567   0.075   0.774   2.477 -1.9311 -2.1729  0.6111
  190SOL     OW  568   2.065   0.666   1.748 -0.3415  0.7536  0.4706
  190SOL    HW1  569   2.004   0.682   1.666  0.5646 -3.0578  2.2695
  190SOL    HW2  570   2.039   0.582   1.796 -1.0559  0.6798 -2.8501
  191SOL     OW  571   0.955   0.270   2.239 -0.2079  0.0963 -0.6789
  191SOL    HW1  572   0.896   0.268   2.323  0.6143  0.1298  0.7033
  191SOL    HW2  573   1.038   0.214   2.249  0.4992  0.2640  0.3612
  192SOL     OW  574   1.256   1.998   1.726 -0.2744 -0.0589  0.2838
  192SOL    HW1  575   1.242   2.017   1.630  0.7124 -0.9963  0.9165
  192SOL    HW2  576   1.349   2.035   1.752  1.0048 -1.1602  0.9703
  193SOL     OW  577   1.342   0.071   0.794 -0.0679 -0.3826 -0.0539
  193SOL    HW1  578   1.273   0.013   0.844 -0.6944 -1.5797  0.9085
  193SOL    HW2  579   1.290   0.104   0.715  0.3515 -1.8380  1.3084
  194SOL     OW  580   1.065   2.225   1.776  0.0456 -0.1953  0.1224
  194SOL    HW1  581   0.995   2.185   1.714 -1.3494  0.2455 -1.3903
  194SOL    HW2  582   1.129   2.153   1.803 -2.3247  1.6347 -0.9163
  195SOL     OW  583   1.519   0.366   0.568 -0.6622 -0.0762 -0.2100
  195SOL    HW1  584   1.508   0.296   0.490 -0.5806 -0.8601 -2.3724
  195SOL    HW2  585   1.542   0.320   0.658  2.2556  1.0003  1.8193
  196SOL     OW  586   0.990   1.466   2.286 -0.0888  0.1161  0.0293
  196SOL    HW1  587   1.089   1.469   2.307 -0.8028 -0.9129 -3.0023
  196SOL    HW2  588   0.971   1.420   2.198 -1.4356 -1.2108  1.0779
  197SOL     OW  589   0.564   0.723   1.746 -0.1063  0.4823  0.2692
  197SOL    HW1  590   0.662   0.749   1.738 -0.8204  2.0775 -0.0265
  197SOL    HW2  591   0.522   0.715   1.651 -0.1711  0.2002 -1.9008
  198SOL     OW  592   0.794   0.709   0.922 -0.6039 -0.4867  0.1109
  198SOL    HW1  593   0.876   0.771   0.925  1.2697  0.0268 -0.1877
  198SOL    HW2  594   0.737   0.714   0.836 -0.9001 -0.1231  1.1945
  199SOL     OW  595   0.548   2.698   1.858  0.1629  0.0029  0.0295
  199SOL    HW1  596   0.579   2.607   1.895 -0.3091  1.5027  0.2576
  199SOL    HW2  597   0.455   2.727   1.879  0.7472  2.0088 -0.8624
  200SOL     OW  598   1.743   1.475   2.401 -0.3899  0.0380 -0.4758
  200SOL    HW1  599   1.829   1.490   2.460  2.1406 -0.2113  0.9822
  200SOL    HW2  600   1.689   1.389   2.431 -2.3044 -0.1593 -1.1907
  201SOL     OW  601   0.653   2.209   1.967 -0.5133  0.3931  0.2137
  201SOL    HW1  602   0.652   2.230   1.866  1.4680  0.3154  0.3896
  201SOL    HW2  603   0.594   2.129   1.989  2.8028  1.2204  0.4693
  202SOL     OW  604   1.271   2.864   3.107  0.3603  0.4285 -0.5623
  202SOL    HW1  605   1.250   2.910   3.019  0.5329 -2.3317 -3.4607
  202SOL    HW2  606   1.193   2.801   0.023 -0.8808 -0.2691  1.8879
  203SOL     OW  607   1.504   0.234   2.227 -0.3307  0.1610  0.5689
  203SOL    HW1  608   1.402   0.242   2.236  2.0996 -3.9989 -1.3911
  203SOL    HW2  609   1.526   0.137   2.222  0.8478  0.0608 -2.3128
  204SOL     OW  610   0.620   1.551   2.147  0.1039  0.0182  0.0232
  204SOL    HW1  611   0.642   1.523   2.239  1.4793 -0.7435 -2.3520
  204SOL    HW2  612   0.630   1.469   2.088 -1.3502 -0.7180 -1.7818
  205SOL     OW  613   2.021   1.179   2.600  0.4998  0.1252  0.7183
  205SOL    HW1  614   1.996   1.179   2.499  1.6694 -1.7863 -2.3299
  205SOL    HW2  615   2.123   1.170   2.612 -0.2116 -0.6445 -0.5930
  206SOL     OW  616   0.063   1.727   2.733  0.3751  0.3087  0.2594
  206SOL    HW1  617   0.041   1.826   2.733 -2.4060  1.4847  1.1920
  206SOL    HW2  618   0.114   1.701   2.818 -2.3984 -3.6225  1.1168
  207SOL     OW  619   1.033   2.903   1.791  0.0595 -0.2502 -0.2057
  207SOL    HW1  620   1.033   2.937   1.889 -0.0143 -1.8237  2.2679
  207SOL    HW2  621   1.048   2.987   1.733  3.5990 -1.7158 -1.6074
  208SOL     OW  622   0.592   2.367   1.404 -0.3548  0.6737  0.6783
  208SOL    HW1  623   0.578   2.460   1.442  0.8571 -2.2843  0.3775
  208SOL    HW2  624   0.579   2.365   1.304 -1.6034  2.5770 -1.6195
  209SOL     OW  625   1.407   2.890   0.414  0.6286 -0.2281 -0.2057
  209SOL    HW1  626   1.348   2.952   0.472 -0.9702  1.6027 -1.5499
  209SOL    HW2  627   1.372   2.889   0.319  2.3301 -0.8316 -0.5214
  210SOL     OW  628   2.852   1.510   1.193 -0.1233  0.0577  0.0890
  210SOL    HW1  629   2.830   1.606   1.180  0.8383 -2.3903  3.0685
  210SOL    HW2  630   2.903   1.467   1.121  0.5611 -1.2431  4.2263
  211SOL     OW  631   0.807   0.822   2.047 -0.0652 -0.1160  0.0174
  211SOL    HW1  632   0.830   0.792   1.951  0.6453 -0.1610 -1.0246
  211SOL    HW2  633   0.759   0.744   2.097 -2.4045 -0.0941  1.1579
  212SOL     OW  634   1.450   2.284   1.591 -0.5256  0.3142 -0.1359
  212SOL    HW1  635   1.420   2.322   1.501  1.6052 -1.2271  4.3834
  212SOL    HW2  636   1.494   2.198   1.574  0.4343 -2.9996  1.0911
  213SOL     OW  637   2.834   0.356   1.562  0.3454  0.1543 -0.3157
  213SOL    HW1  638   2.798   0.454   1.570 -0.0729  2.4203 -1.1338
  213SOL    HW2  639   2.830   0.325   1.464 -1.1249 -3.0382  1.3142
  214SOL     OW  640   0.963   2.652   1.904 -0.5755 -0.3758 -0.0546
  214SOL    HW1  641   1.036   2.582   1.891 -1.0092 -0.9327 -2.2314
  214SOL    HW2  642   0.976   2.738   1.850  0.0858  2.5731  0.6304
  215SOL     OW  643   2.803   1.853   1.506 -0.2258  0.1015 -0.1496
  215SOL    HW1  644   2.752   1.902   1.430 -1.2312  1.3801 -0.7443
  215SOL    HW2  645   2.866   1.914   1.560 -0.1050 -1.2150  0.4289
  216SOL     OW  646   0.145   1.013   1.876  0.2330 -0.2080 -0.4888
  216SOL    HW1  647   0.221   0.945   1.885  0.7816  0.0937  2.0328
  216SOL    HW2  648   0.071   0.966   1.823 -0.3695  0.4173  1.1460
  217SOL     OW  649   2.856   0.325   1.278 -0.0331 -0.0517 -0.1806
  217SOL    HW1  650   2.926   0.252   1.283 -1.9857  1.0901  2.9353
  217SOL    HW2  651   2.896   0.418   1.262 -1.3276  2.1077  1.0025
  218SOL     OW  652   1.303   2.187   1.086  0.0914  0.0649 -0.6969
  218SOL    HW1  653   1.265   2.180   0.993  1.1357  0.2935  2.8605
  218SOL    HW2  654   1.231   2.203   1.157  0.5768 -0.8639  0.9520
  219SOL     OW  655   1.442   2.384   0.308 -0.1568  0.5569 -0.3397
  219SOL    HW1  656   1.468   2.480   0.340 -0.8926  1.6959  0.4875
  219SOL    HW2  657   1.484   2.310   0.363 -0.7377 -0.1440 -4.2368
  220SOL     OW  658   1.839   2.490   0.406 -0.1160 -0.5055  0.8025
  220SOL    HW1  659   1.812   2.397   0.441  0.2882 -1.3826  2.1140
  220SOL    HW2  660   1.819   2.505   0.306 -0.8290  2.1410 -0.9841
  221SOL     OW  661   2.869   1.775   0.846  0.8346 -0.0390  0.2488
  221SOL    HW1  662   2.799   1.829   0.795  1.0366 -0.6916 -1.1907
  221SOL    HW2  663   2.882   1.683   0.809 -0.7844  0.2108 -1.0119
  222SOL     OW  664   0.923   2.046   0.718  0.4599 -0.0955 -0.0213
  222SOL    HW1  665   0.927   2.099   0.804  1.5468  0.8310 -0.9784
  222SOL    HW2  666   0.897   1.948   0.736  1.7708  0.7665  1.3111
  223SOL     OW  667   1.124   2.780   2.426  0.8889 -0.0775 -0.0742
  223SOL    HW1  668   1.220   2.750   2.432  0.0579 -1.8417 -1.3028
  223SOL    HW2  669   1.119   2.871   2.384 -0.0583 -1.9309  0.2291
  224SOL     OW  670   2.511   1.099   0.983 -0.4763  0.1967 -0.3638
  224SOL    HW1  671   2.588   1.093   0.920 -0.7817 -0.3124 -0.1719
  224SOL    HW2  672   2.439   1.035   0.951 -0.3357 -1.0778 -0.2576
  225SOL     OW  673   2.644   1.471   1.009  0.9169  0.1608 -0.1410
  225SOL    HW1  674   2.685   1.484   0.916  0.2211 -3.5004 -1.4569
  225SOL    HW2  675   2.711   1.472   1.081 -2.9440  0.8270 -1.0333
  226SOL     OW  676   1.180   2.763   0.719  0.0083 -0.5019  0.1996
  226SOL    HW1  677   1.113   2.727   0.655 -0.5129  0.2721  0.7862
  226SOL    HW2  678   1.256   2.695   0.731  1.9075  1.6987 -0.0478
  227SOL     OW  679   1.024   1.311   1.315 -0.3079  0.6554  0.2421
  227SOL    HW1  680   1.027   1.253   1.398  1.0839 -1.5230 -1.5913
  227SOL    HW2  681   0.969   1.258   1.248  0.2342  2.0979  2.4544
  228SOL     OW  682   1.293   0.500   2.129  0.0347 -0.4765 -0.1498
  228SOL    HW1  683   1.211   0.500   2.184  0.6834 -0.4811  0.7268
  228SOL    HW2  684   1.276   0.486   2.030  0.2374 -1.2712 -0.3415
  229SOL     OW  685   2.827   0.769   2.592  0.0432 -0.2948 -0.1015
  229SOL    HW1  686   2.819   0.763   2.488 -4.1601 -1.6773 -1.9449
  229SOL    HW2  687   2.922   0.766   2.624 -2.0877 -0.6217 -0.8996
  230SOL     OW  688   0.567   1.354   0.860 -0.1120  0.2330 -0.0645
  230SOL    HW1  689   0.603   1.355   0.954 -1.1338  2.9120 -0.9444
  230SOL    HW2  690   0.516   1.441   0.832  0.0495  1.7215  1.8095
  231SOL     OW  691   2.488   2.889   2.526 -0.0496  0.3768  0.3219
  231SOL    HW1  692   2.526   2.918   2.436  1.2656  0.5913 -3.2594
  231SOL    HW2  693   2.522   2.949   2.595 -1.8014 -2.6590 -3.2367
  232SOL     OW  694   0.408   1.988   0.146  0.2920  0.3144 -0.4359
  232SOL    HW1  695   0.426   2.012   0.047  1.4530 -1.5530 -2.0583
  232SOL    HW2  696   0.426   2.068   0.206 -1.6686 -1.3960  1.2048
  233SOL     OW  697   1.563   2.693   2.647  0.4721  0.3983  0.3376
  233SOL    HW1  698   1.589   2.625   2.718 -0.4051  0.5584 -1.8015
  233SOL    HW2  699   1.512   2.775   2.685 -0.9550 -1.5713 -2.9132
  234SOL     OW  700   1.165   1.414   2.004 -0.4324  0.0534  0.6362
  234SOL    HW1  701   1.215   1.441   2.091  2.7309 -1.3462  1.5718
  234SOL    HW2  702   1.076   1.370   2.031  0.0515  0.1212 -0.9346
  235SOL     OW  703   0.489   2.001   2.065 -0.5298 -0.0984  0.2755
  235SOL    HW1  704   0.469   1.916   2.015 -0.9109  2.5063  0.5120
  235SOL    HW2  705   0.469   1.994   2.167 -1.0726 -1.8667  1.8005
  236SOL     OW  706   1.781   2.244   2.834  0.0124  0.3701 -0.5278
  236SOL    HW1  707   1.727   2.167   2.874  0.6528  2.2793 -1.7331
  236SOL    HW2  708   1.865   2.258   2.892 -0.5669  0.4421 -0.6059
  237SOL     OW  709   1.509   0.224   0.939 -0.1791  0.2111 -0.3983
  237SOL    HW1  710   1.490   0.206   1.037 -1.2642 -0.5980 -1.9600
  237SOL    HW2  711   1.441   0.182   0.877 -1.5114  1.6350  2.7281
  238SOL     OW  712   1.015   0.500   2.529 -0.1826  0.4387 -0.0550
  238SOL    HW1  713   0.931   0.442   2.513  1.3823 -0.5329 -1.8360
  238SOL    HW2  714   1.103   0.462   2.493  1.0952 -0.2654 -0.1271
  239SOL     OW  715   0.665   3.036   1.936  0.6904 -0.6019  0.3903
  239SOL    HW1  716   0.653   3.035   1.835  0.8277 -0.2872  0.6683
  239SOL    HW2  717   0.744   3.097   1.966  2.9228  1.0808 -0.4222
  240SOL     OW  718   2.444   2.580   0.656 -0.7211 -1.0383  0.1970
  240SOL    HW1  719   2.366   2.641   0.673  0.8330 -2.8002 -0.1302
  240SOL    HW2  720   2.461   2.564   0.559  0.2568 -1.0990  1.4768
  241SOL     OW  721   1.079   1.538   1.787  0.8590  0.3573  0.5999
  241SOL    HW1  722   0.978   1.525   1.785 -1.3052  0.1226 -0.1210
  241SOL    HW2  723   1.119   1.494   1.870 -0.4397 -4.3642  1.7049
  242SOL     OW  724   3.069   0.540   0.801  0.0034 -0.0807 -0.0706
  242SOL    HW1  725   3.080   0.625   0.743  2.2067  1.0477 -0.2507
  242SOL    HW2  726   3.096   0.456   0.746 -0.8223 -1.6021 -0.4136
  243SOL     OW  727   0.665   0.798   1.346  0.3213  0.0009 -0.8231
  243SOL    HW1  728   0.716   0.881   1.374 -2.5135 -0.4746  1.2694
  243SOL    HW2  729   0.574   0.794   1.390  1.8723  2.0859 -1.0586
  244SOL     OW  730   1.330   0.426   3.046  0.4557 -0.4596 -0.4088
  244SOL    HW1  731   1.295   0.464   2.956 -1.0344  0.0595  0.1086
  244SOL    HW2  732   1.245   0.411   3.105  1.1370  0.8978  1.6901
  245SOL     OW  733   2.208   0.326   0.124 -0.4008 -0.1105  0.3478
  245SOL    HW1  734   2.218   0.225   0.113  1.2648  0.4019  0.4668
  245SOL    HW2  735   2.281   0.382   0.081  1.4922  2.5031 -0.2103
  246SOL     OW  736   0.861   0.790   1.774 -0.2590  0.1245 -0.0172
  246SOL    HW1  737   0.845   0.891   1.752  2.1850  0.9369  2.3993
  246SOL    HW2  738   0.918   0.754   1.699 -1.7304  0.6447 -2.2996
  247SOL     OW  739   0.611   0.087   2.183 -0.4484 -0.3947 -0.6206
  247SOL    HW1  740   0.529   0.134   2.148  1.7075  1.3622  1.2060
  247SOL    HW2  741   0.689   0.116   2.129 -3.5423 -0.8662 -1.2054
  248SOL     OW  742   0.045   1.577   2.033  0.1800 -0.4180 -0.2408
  248SOL    HW1  743   3.061   1.612   2.002 -0.0309  0.0019  3.3521
  248SOL    HW2  744   0.119   1.648   2.040  0.4359 -0.0630  0.1182
  249SOL     OW  745   3.053   3.028   2.894  0.1656 -0.3436  0.0623
  249SOL    HW1  746   0.035   2.983   2.900  0.3835 -1.1329 -2.0951
  249SOL    HW2  747   2.985   2.964   2.854  1.5371  0.7136  0.9941
  250SOL     OW  748   2.945   0.264   0.102 -0.1101  0.3294 -0.7739
  250SOL    HW1  749   2.845   0.252   0.095  1.1889 -0.5086  0.6158
  250SOL    HW2  750   3.000   0.185   0.073 -1.0324 -0.5891  0.2802
  251SOL     OW  751   0.432   1.382   1.276 -0.2083  0.7513  0.3768
  251SOL    HW1  752   0.338   1.369   1.244  1.6073 -0.4485 -1.1422
  251SOL    HW2  753   0.438   1.473   1.326 -0.2720 -3.1428 -1.7365
  252SOL     OW  754   1.592   2.954   1.639  0.3884 -0.1544 -0.2403
  252SOL    HW1  755   1.538   2.888   1.695 -0.2300  1.4827  0.6217
  252SOL    HW2  756   1.638   3.018   1.704  2.1392  1.8753 -0.4585
  253SOL     OW  757   2.145   1.987   2.607 -0.2995  0.2962 -0.4633
  253SOL    HW1  758   2.209   2.056   2.561  0.3234  0.9636  1.5729
  253SOL    HW2  759   2.065   1.972   2.544  0.1879 -2.1613 -1.7999
  254SOL     OW  760   0.473   1.733   2.003 -0.0048 -0.1804 -0.3958
  254SOL    HW1  761   0.466   1.707   1.901 -0.0323 -0.8165 -1.9083
  254SOL    HW2  762   0.515   1.656   2.055 -0.0083  1.6872 -1.7948
  255SOL     OW  763   1.107   0.035   1.647  0.4777  0.2889  0.3026
  255SOL    HW1  764   1.194   0.057   1.599  1.5831 -0.1530  1.0082
  255SOL    HW2  765   1.057   0.117   1.666  1.3972 -2.3838 -1.7312
  256SOL     OW  766   2.542   2.266   1.094  0.2293 -0.0792  0.0510
  256SOL    HW1  767   2.462   2.217   1.136 -1.0690 -1.1917 -0.9014
  256SOL    HW2  768   2.509   2.329   1.021  0.7284 -0.3425 -1.8780
  257SOL     OW  769   0.481   2.220   0.262  0.4528  0.3021 -0.5252
  257SOL    HW1  770   0.485   2.296   0.191  1.2931  3.0953 -0.5079
  257SOL    HW2  771   0.450   2.264   0.348 -2.0871 -1.3646 -1.0236
  258SOL     OW  772   1.015   2.544   2.360 -0.1165  0.1355  0.3761
  258SOL    HW1  773   0.915   2.542   2.331 -0.6763 -1.7902 -0.0723
  258SOL    HW2  774   1.042   2.634   2.404  1.5312 -0.5338 -1.8099
  259SOL     OW  775   1.034   1.665   2.841 -0.3373 -0.0612 -0.0826
  259SOL    HW1  776   1.055   1.751   2.893  2.3274 -1.5349  2.2099
  259SOL    HW2  777   0.940   1.640   2.866  1.5507 -2.1683  0.5006
  260SOL     OW  778   2.527   1.125   2.148  0.8280 -0.2882 -0.0278
  260SOL    HW1  779   2.444   1.141   2.204  1.6652 -0.0305  1.0888
  260SOL    HW2  780   2.600   1.100   2.214 -1.0774 -1.9446  0.7776
  261SOL     OW  781   1.451   0.738   0.755 -0.2867  0.2965  0.0685
  261SOL    HW1  782   1.376   0.747   0.822 -1.7313  2.7622 -4.0844
  261SOL    HW2  783   1.458   0.641   0.720 -1.3924  0.0017 -0.6095
  262SOL     OW  784   1.627   2.151   2.399  0.0783  0.2369 -0.7859
  262SOL    HW1  785   1.695   2.078   2.391  0.2536 -0.3437  0.5871
  262SOL    HW2  786   1.669   2.241   2.409 -1.7051  1.6049 -1.4513
  263SOL     OW  787   3.062   1.753   0.071 -0.2699  0.0823  0.2225
  263SOL    HW1  788   2.991   1.691   0.029 -1.3888  0.0510  2.3680
  263SOL    HW2  789   3.106   1.703   0.151  1.5787 -1.8313  0.3645
  264SOL     OW  790   0.470   1.983   0.829  0.1964  0.3501  0.3571
  264SOL    HW1  791   0.364   1.982   0.820 -0.0532  0.3822 -0.9461
  264SOL    HW2  792   0.500   1.963   0.928  0.7058 -2.1108  1.8009
  265SOL     OW  793   0.643   1.381   0.399  0.3760 -0.0835 -0.0328
  265SOL    HW1  794   0.566   1.412   0.463 -3.5566 -0.9231 -0.6802
  265SOL    HW2  795   0.729   1.432   0.415  3.0170  2.4313 -1.9051
  266SOL     OW  796   0.859   2.039   2.699  0.0265  0.1492 -0.1805
  266SOL    HW1  797   0.868   2.065   2.796 -3.2653  3.0046 -1.2932
  266SOL    HW2  798   0.820   2.121   2.648 -0.7423 -0.1390 -0.2151
  267SOL     OW  799   0.958   0.831   2.386  0.0585 -0.0341  0.3918
  267SOL    HW1  800   1.008   0.823   2.296  0.5054 -1.5005 -1.5238
  267SOL    HW2  801   0.987   0.758   2.450  2.4626 -0.1780 -1.6376
  268SOL     OW  802   0.467   0.525   2.753 -0.6312 -0.2019 -0.8533
  268SOL    HW1  803   0.530   0.597   2.717  1.6005 -0.4810 -0.5986
  268SOL    HW2  804   0.418   0.562   2.833  0.0313 -1.0408 -3.9671
  269SOL     OW  805   2.227   0.034   2.331 -0.2655  0.0547 -0.2696
  269SOL    HW1  806   2.283   0.102   2.382  1.6147 -1.8909  1.0579
  269SOL    HW2  807   2.130   0.028   2.364  1.8196  1.6143  1.6994
  270SOL     OW  808   1.194   1.567   2.504 -0.2585  0.4681  0.6452
  270SOL    HW1  809   1.155   1.657   2.481  0.2071 -1.1975 -1.5762
  270SOL    HW2  810   1.126   1.510   2.549  2.6258 -0.8796 -0.9414
  271SOL     OW  811   0.208   3.004   2.987  0.0395  0.3235 -0.5450
  271SOL    HW1  812   0.298   2.981   2.939  1.2796  1.5408 -0.2573
  271SOL    HW2  813   0.211   3.069   3.067  0.3475  2.0118  1.3363
  272SOL     OW  814   2.531   0.597   0.371  0.2510 -0.0902 -0.3877
  272SOL    HW1  815   2.557   0.553   0.463  2.1875 -1.0177  0.7035
  272SOL    HW2  816   2.433   0.636   0.376 -3.1850  0.5931 -2.9889
  273SOL     OW  817   0.391   3.034   1.975 -0.5572  0.1640 -0.1000
  273SOL    HW1  818   0.336   2.947   1.967 -5.3708  0.9439 -2.6169
  273SOL    HW2  819   0.493   3.022   1.963  0.3261  0.8770  3.6169
  274SOL     OW  820   3.056   0.686   1.931 -0.3070 -0.1811 -0.1118
  274SOL    HW1  821   3.032   0.786   1.922 -1.2186 -0.5997 -0.0271
  274SOL    HW2  822   0.035   0.656   1.884  0.8228 -1.6942 -1.4162
  275SOL     OW  823   1.404   1.567   0.607 -0.0699 -0.2088 -0.0946
  275SOL    HW1  824   1.483   1.500   0.600  1.1239  0.1350 -2.4142
  275SOL    HW2  825   1.324   1.527   0.555 -2.2349 -0.7137  0.1634
  276SOL     OW  826   0.942   1.028   2.140 -0.6804  0.1139  0.3356
  276SOL    HW1  827   0.882   0.944   2.117 -0.2278 -3.2797  0.0084
  276SOL    HW2  828   0.926   1.073   2.231 -1.6753  0.6032  1.2357
  277SOL     OW  829   1.573   2.592   1.731 -0.4770 -0.2102 -0.1411
  277SOL    HW1  830   1.499   2.528   1.765 -3.6234  0.9217  2.6634
  277SOL    HW2  831   1.644   2.618   1.798  2.2880 -2.6786  1.4782
  278SOL     OW  832   1.927   3.068   1.933  0.4447 -0.3213 -0.0672
  278SOL    HW1  833   1.852   3.017   1.983 -3.2437 -2.0296  1.7457
  278SOL    HW2  834   2.012   3.014   1.943 -1.7623  0.0012  2.7404
  279SOL     OW  835   1.800   1.191   0.165 -0.1360 -0.1433  0.0497
  279SOL    HW1  836   1.825   1.239   0.081  0.8954  3.3735  2.7131
  279SOL    HW2  837   1.699   1.169   0.156  0.4848 -1.3825  0.1803
  280SOL     OW  838   0.588   1.487   0.133  0.4024 -0.4595 -0.1511
  280SOL    HW1  839   0.588   1.417   0.208 -2.4846  1.3263  0.4355
  280SOL    HW2  840   0.668   1.482   0.076 -2.7484  1.5899  1.9395
  281SOL     OW  841   0.345   3.008   1.571  0.3907  0.2175  0.3222
  281SOL    HW1  842   0.286   2.940   1.619  0.1108 -0.0591 -1.4903
  281SOL    HW2  843   0.341   3.098   1.614 -2.5896 -0.5633  3.0997
  282SOL     OW  844   0.070   2.398   0.741 -0.2920 -0.4805  0.1332
  282SOL    HW1  845   0.073   2.464   0.821 -0.0539  1.7515 -1.2421
  282SOL    HW2  846   0.102   2.438   0.652  0.2826  1.8084 -0.4250
  283SOL     OW  847   1.369   2.148   2.317 -0.1681  0.0391 -0.3151
  283SOL    HW1  848   1.454   2.196   2.345  0.1893 -2.0236 -0.3599
  283SOL    HW2  849   1.392   2.051   2.315 -1.2442  3.8256  1.2689
  284SOL     OW  850   1.910   3.042   0.781 -0.3420 -0.5694  0.5072
  284SOL    HW1  851   1.851   3.072   0.858  0.4918  0.9494  1.0727
  284SOL    HW2  852   1.879   2.951   0.750 -2.2998  0.2181  0.6251
  285SOL     OW  853   0.183   2.644   2.449  0.5386  0.2386 -0.2026
  285SOL    HW1  854   0.117   2.714   2.487  0.1793 -0.5173  0.4866
  285SOL    HW2  855   0.189   2.562   2.508  1.8851  0.3182  1.0453
  286SOL     OW  856   2.973   2.458   1.113  0.4194  0.2717 -0.0248
  286SOL    HW1  857   2.988   2.544   1.159 -1.0250 -1.9154 -0.4173
  286SOL    HW2  858   3.061   2.414   1.084  1.9976 -1.9585  1.3387
  287SOL     OW  859   0.432   1.569   0.819 -0.2592 -0.0315 -0.1635
  287SOL    HW1  860   0.341   1.603   0.855  0.6675 -2.5865 -0.9555
  287SOL    HW2  861   0.490   1.643   0.784 -0.6210 -0.1695 -0.0132
  288SOL     OW  862   2.282   2.190   2.499 -0.2453  0.0599  0.2183
  288SOL    HW1  863   2.384   2.181   2.512  0.7835 -2.8162  0.1951
  288SOL    HW2  864   2.239   2.260   2.558  1.9026  0.4094 -0.0108
  289SOL     OW  865   2.963   1.909   2.962  0.2221  0.1197 -0.7344
  289SOL    HW1  866   2.866   1.869   2.948 -1.2138  0.6220 -1.4306
  289SOL    HW2  867   2.995   1.876   3.053 -4.7283  1.9004 -0.0432
  290SOL     OW  868   1.373   1.888   1.202 -0.1382  0.5248  0.0787
  290SOL    HW1  869   1.355   1.795   1.174 -0.2544  0.2496 -0.0567
  290SOL    HW2  870   1.306   1.950   1.156 -0.3221 -0.0904 -1.9585
  291SOL     OW  871   1.470   1.107   3.002  0.1585 -0.0677 -0.5085
  291SOL    HW1  872   1.441   1.032   2.939  0.8668  3.0838 -0.0201
  291SOL    HW2  873   1.509   1.081   3.095  1.1876  0.0491  0.1505
  292SOL     OW  874   1.154   1.429   0.513  0.6640  0.4303  0.1590
  292SOL    HW1  875   1.166   1.352   0.580  0.5357  0.9378  0.2632
  292SOL    HW2  876   1.207   1.410   0.428  0.1527 -0.1585 -0.4945
  293SOL     OW  877   1.098   2.575   1.039 -0.3244  0.0675  0.5583
  293SOL    HW1  878   1.122   2.674   1.045  1.3192  1.4529 -0.8481
  293SOL    HW2  879   1.081   2.545   0.946  1.4353  0.3872  1.2633
  294SOL     OW  880   2.191   1.400   2.944 -0.0002  0.7031  0.7228
  294SOL    HW1  881   2.229   1.395   2.847 -1.2991 -0.7607 -4.1305
  294SOL    HW2  882   2.262   1.390   3.014  3.4003  0.0301 -0.9034
  295SOL     OW  883   1.586   1.847   2.812  0.1799 -0.0405 -0.2881
  295SOL    HW1  884   1.575   1.937   2.866  1.5304 -1.3056 -0.3309
  295SOL    HW2  885   1.505   1.841   2.750  0.0738  0.3869  1.7265
  296SOL     OW  886   1.643   0.502   1.729 -0.0390  0.1111 -0.2596
  296SOL    HW1  887   1.742   0.525   1.715  1.4706  4.1667  0.7978
  296SOL    HW2  888   1.628   0.399   1.721  0.2323 -0.1815  0.3727
  297SOL     OW  889   0.120   0.860   2.154  0.3334  0.3393 -0.0551
  297SOL    HW1  890   0.092   0.839   2.249  1.5768  1.0996 -2.3045
  297SOL    HW2  891   0.046   0.895   2.101  2.3412  0.3294  0.5004
  298SOL     OW  892   1.114   2.443   1.896 -0.2294  0.3946  0.4244
  298SOL    HW1  893   1.098   2.353   1.850  1.1358  2.0261 -1.5651
  298SOL    HW2  894   1.114   2.426   1.996  0.9753  1.0918 -0.3694
  299SOL     OW  895   1.381   0.047   2.580 -0.6174  0.0686  0.3767
  299SOL    HW1  896   1.423   3.093   2.515 -2.6208 -0.2012 -1.1023
  299SOL    HW2  897   1.280   0.039   2.576  2.2083 -1.7935  0.5149
  300SOL     OW  898   0.092   0.940   2.804 -0.1045  0.0394 -0.4203
  300SOL    HW1  899   0.055   0.899   2.892 -2.5091  0.1295 -2.1430
  300SOL    HW2  900   0.134   1.031   2.819  3.7864  1.0238 -0.8400
  301SOL     OW  901   1.952   0.930   1.984  0.1659  0.6101 -0.4039
  301SOL    HW1  902   1.870   0.951   1.929  1.8880  0.8503  1.1417
  301SOL    HW2  903   2.015   1.014   1.979  1.8365  1.5720  0.4423
  302SOL     OW  904   2.452   1.742   2.673  0.1769  0.3747 -0.3348
  302SOL    HW1  905   2.485   1.670   2.610  0.8525 -0.8303 -2.2818
  302SOL    HW2  906   2.355   1.753   2.678  1.3746 -0.9489  0.4455
  303SOL     OW  907   0.195   2.349   2.503 -0.2999 -0.5937 -0.1207
  303SOL    HW1  908   0.158   2.262   2.466  0.9664 -1.3308  0.6088
  303SOL    HW2  909   0.297   2.348   2.478  1.8424  2.1491 -1.4100
  304SOL     OW  910   2.948   0.917   1.302  0.1558  0.1611  0.2813
  304SOL    HW1  911   2.980   0.945   1.207  0.6334  1.2840  0.3415
  304SOL    HW2  912   3.021   0.862   1.347  0.0731  0.7673  1.4714
  305SOL     OW  913   2.646   0.989   1.758  0.0415 -0.2596 -0.3393
  305SOL    HW1  914   2.689   0.998   1.667  0.4125 -3.0588  1.4703
  305SOL    HW2  915   2.606   1.078   1.793 -0.0576 -0.7598  0.1063
  306SOL     OW  916   2.250   1.234   1.548 -0.0259 -0.3769  0.4819
  306SOL    HW1  917   2.165   1.285   1.556  0.0159 -0.0547  1.6678
  306SOL    HW2  918   2.312   1.283   1.613  1.6234 -0.5198  0.3206
  307SOL     OW  919   2.689   2.831   0.973  0.5265  0.6136  0.0945
  307SOL    HW1  920   2.597   2.832   1.009  2.1266 -1.2897 -2.7781
  307SOL    HW2  921   2.699   2.750   0.910 -0.2913  3.1221 -0.5475
  308SOL     OW  922   0.071   1.889   1.910  0.1838  0.4278 -0.2002
  308SOL    HW1  923   0.129   1.853   1.986 -1.9261 -0.0447 -0.6016
  308SOL    HW2  924   0.120   1.890   1.821  2.3522  0.8216  2.2360
  309SOL     OW  925   2.510   2.135   1.525 -0.5153  0.2182 -0.4783
  309SOL    HW1  926   2.545   2.210   1.583  2.3304 -2.2313  2.8766
  309SOL    HW2  927   2.410   2.130   1.527  0.9659 -1.3012 -0.0751
  310SOL     OW  928   2.046   1.617   2.911  0.1880 -0.2486 -0.4250
  310SOL    HW1  929   1.946   1.605   2.905 -1.7455  0.6651  0.9373
  310SOL    HW2  930   2.083   1.526   2.918 -0.9450  4.2670  1.2936
  311SOL     OW  931   1.734   1.153   2.865  0.3177  0.3806  0.1245
  311SOL    HW1  932   1.635   1.132   2.849  0.7435 -0.8529 -1.4544
  311SOL    HW2  933   1.792   1.071   2.841 -2.3540 -0.5120  1.0521
  312SOL     OW  934   1.190   2.384   2.165 -0.1421  0.3321 -0.1233
  312SOL    HW1  935   1.204   2.282   2.162  0.5465  0.6629  1.4865
  312SOL    HW2  936   1.138   2.417   2.245  0.5722  0.4199  1.3283
  313SOL     OW  937   0.058   0.482   1.058  0.2295 -0.7686  0.4661
  313SOL    HW1  938   0.039   0.507   0.960  0.8114 -0.1800  2.0926
  313SOL    HW2  939   0.072   0.382   1.070  2.8197 -3.1825  0.2191
  314SOL     OW  940   0.397   1.882   1.095  0.3417  0.3547 -0.5596
  314SOL    HW1  941   0.344   1.951   1.155 -1.2037  4.5281  0.1536
  314SOL    HW2  942   0.339   1.802   1.077  0.3474  0.4511  0.5313
  315SOL     OW  943   0.453   2.056   2.339  0.0494 -0.1676 -0.2554
  315SOL    HW1  944   0.401   2.142   2.327  0.7142 -0.7589  3.4512
  315SOL    HW2  945   0.467   2.034   2.437 -1.5435  0.8128 -2.5004
  316SOL     OW  946   0.213   2.258   0.918  0.4377  0.2072 -0.2193
  316SOL    HW1  947   0.207   2.156   0.905  1.4025 -0.2611  0.6255
  316SOL    HW2  948   0.140   2.308   0.863 -0.8375  3.0305 -0.9389
  317SOL     OW  949   1.949   0.417   0.858 -0.5147 -0.1912 -0.1619
  317SOL    HW1  950   1.984   0.516   0.861 -0.9773  1.9508  1.4293
  317SOL    HW2  951   1.849   0.412   0.889 -3.6953 -0.1085 -1.4726
  318SOL     OW  952   2.109   2.249   0.218 -0.2200 -0.4020 -0.4128
  318SOL    HW1  953   2.016   2.270   0.183 -2.1117  1.8502 -1.5691
  318SOL    HW2  954   2.169   2.217   0.147 -0.1182 -1.2896  1.0205
  319SOL     OW  955   1.397   1.521   0.065  0.4357 -0.6651  0.2159
  319SOL    HW1  956   1.419   1.452   3.102 -0.1379  1.1125  1.6790
  319SOL    HW2  957   1.363   1.596   0.009  1.1493 -1.7202  0.6630
  320SOL     OW  958   0.507   2.802   2.593  1.0086 -0.1011  0.3514
  320SOL    HW1  959   0.475   2.846   2.511 -1.3768 -1.1371 -0.2239
  320SOL    HW2  960   0.606   2.814   2.606 -1.5455  0.3988  0.7737
  321SOL     OW  961   0.993   2.799   2.682  0.2179  0.8220  0.5045
  321SOL    HW1  962   1.062   2.851   2.736  2.5439  0.8193  0.5607
  321SOL    HW2  963   1.036   2.762   2.596  0.5905  0.2601 -1.2291
  322SOL     OW  964   2.529   0.326   2.201  0.2727 -0.3343 -0.2156
  322SOL    HW1  965   2.437   0.371   2.200 -1.8040  0.6365 -0.8566
  322SOL    HW2  966   2.579   0.350   2.286 -0.3565 -1.3187  1.1551
  323SOL     OW  967   3.048   1.191   0.620  0.2601  0.4488  0.2896
  323SOL    HW1  968   3.082   1.095   0.628 -2.1650 -1.6479  0.5347
  323SOL    HW2  969   3.020   1.205   0.522 -3.4221  2.2979 -2.2508
  324SOL     OW  970   0.327   0.817   1.864  0.1058  0.1924  0.8402
  324SOL    HW1  971   0.258   0.745   1.842  2.9682  1.6791 -0.1450
  324SOL    HW2  972   0.415   0.780   1.828  0.5737 -0.3696  0.8888
  325SOL     OW  973   0.405   0.268   2.130  0.2636 -0.2146 -0.5713
  325SOL    HW1  974   0.432   0.362   2.090  0.0037  2.5703  0.8478
  325SOL    HW2  975   0.378   0.280   2.227  0.3980  1.1929  0.4415
  326SOL     OW  976   2.368   2.522   0.112  0.0933 -0.2393  0.3743
  326SOL    HW1  977   2.337   2.621   0.094 -1.3191  0.8253  0.3499
  326SOL    HW2  978   2.292   2.465   0.077  0.5558  2.9568 -2.4783
  327SOL     OW  979   2.314   1.394   0.470 -0.2208  0.3043  0.3552
  327SOL    HW1  980   2.307   1.316   0.531 -1.4744  0.0713 -2.0940
  327SOL    HW2  981   2.339   1.366   0.376 -0.5160 -1.5664  0.9075
  328SOL     OW  982   2.957   1.785   2.368 -0.2069  0.1663 -0.9137
  328SOL    HW1  983   2.898   1.729   2.305  2.5322  1.1750 -2.7302
  328SOL    HW2  984   3.000   1.868   2.322  1.2902  0.4117  0.9133
  329SOL     OW  985   0.500   2.130   1.519  0.4696 -0.6446  0.6189
  329SOL    HW1  986   0.404   2.153   1.544  1.1041  0.7016  0.1173
  329SOL    HW2  987   0.543   2.213   1.475  1.6268  1.4894  0.5759
  330SOL     OW  988   2.277   1.461   2.671  0.3745 -0.2411 -0.0099
  330SOL    HW1  989   2.356   1.467   2.607 -3.0029  0.8135 -1.0089
  330SOL    HW2  990   2.230   1.554   2.675  0.1392 -2.0553 -0.9060
  331SOL     OW  991   2.701   2.634   0.797 -0.7010  0.0998 -0.2546
  331SOL    HW1  992   2.704   2.534   0.822  1.2465  0.5407  0.8480
  331SOL    HW2  993   2.621   2.659   0.733 -0.7685  0.6627 -0.4629
  332SOL     OW  994   0.450   3.023   0.849  0.0171 -0.0541  0.2464
  332SOL    HW1  995   0.371   2.972   0.897  0.1133  1.8209  0.0923
  332SOL    HW2  996   0.471   2.973   0.763  0.3054  0.9804 -1.7705
  333SOL     OW  997   2.222   2.551   2.403  0.4314 -0.4687 -0.0714
  333SOL    HW1  998   2.314   2.515   2.382  0.6531  1.1108  0.2717
  333SOL    HW2  999   2.189   2.524   2.494 -1.6450 -0.9777 -0.2586
  334SOL     OW 1000   0.691   1.105   0.413 -0.4371  0.3255 -0.6421
  334SOL    HW1 1001   0.677   1.108   0.513  0.6164  0.4316  2.5776
  334SOL    HW2 1002   0.681   1.196   0.376  1.5720 -1.1338  2.8633
  335SOL     OW 1003   2.681   1.762   1.960 -0.0562 -0.0762 -0.6770
  335SOL    HW1 1004   2.666   1.745   1.863 -2.1882  1.7455  2.8930
  335SOL    HW2 1005   2.587   1.765   2.006 -3.1186  1.3196  0.8840
  336SOL     OW 1006   2.760   2.990   2.281  0.2036 -0.3550  0.2895
  336SOL    HW1 1007   2.716   2.903   2.259  0.5546 -0.7271 -2.3459
  336SOL    HW2 1008   2.829   3.011   2.210 -0.0827 -0.9138  1.0894
  337SOL     OW 1009   0.907   1.195   1.086 -0.0712  0.4042 -0.5729
  337SOL    HW1 1010   0.959   1.264   1.029  0.7871  1.5916 -2.1720
  337SOL    HW2 1011   0.812   1.211   1.064  0.3393 -0.1554 -0.5990
  338SOL     OW 1012   1.091   1.836   1.067 -0.1526  0.1351 -0.4179
  338SOL    HW1 1013   1.140   1.803   0.990 -1.0482  2.1734  2.9024
  338SOL    HW2 1014   0.994   1.814   1.062  1.4198  0.5911  0.3929
  339SOL     OW 1015   0.227   1.482   1.593  0.3734 -0.0319  1.1746
  339SOL    HW1 1016   0.188   1.412   1.531  0.7653  0.7883  0.6274
  339SOL    HW2 1017   0.157   1.545   1.633  0.0709 -4.5803  2.5120
  340SOL     OW 1018   1.359   2.792   1.749 -0.3236  0.0895  0.1289
  340SOL    HW1 1019   1.426   2.722   1.725 -1.0319  2.5544 -0.7810
  340SOL    HW2 1020   1.291   2.814   1.678  2.4212  0.0930 -0.7562
  341SOL     OW 1021   1.748   1.527   1.068 -0.0712  0.0209  0.1995
  341SOL    HW1 1022   1.717   1.461   0.998  1.3147  2.0342 -0.9619
  341SOL    HW2 1023   1.848   1.534   1.075 -0.0415 -1.3274  0.3154
  342SOL     OW 1024   3.026   1.452   0.985  0.0312 -0.3437  0.2152
  342SOL    HW1 1025   3.017   1.348   0.971 -1.8874 -1.7910  0.3549
  342SOL    HW2 1026   3.060   1.498   0.895  1.9176 -0.5468 -2.0210
  343SOL     OW 1027   2.700   0.615   1.563  0.0312 -0.0672  0.0421
  343SOL    HW1 1028   2.620   0.660   1.615  0.3624  1.7299 -1.4832
  343SOL    HW2 1029   2.676   0.626   1.466 -2.6073 -0.5761  0.1283
  344SOL     OW 1030   1.713   3.106   0.972  0.2036 -0.8412  0.0496
  344SOL    HW1 1031   1.655   3.066   0.899 -0.9789 -2.2342 -0.3027
  344SOL    HW2 1032   1.677   0.091   1.011 -0.5456  0.2161  0.3919
  345SOL     OW 1033   0.723   3.105   2.424  0.2794  0.4301 -0.1818
  345SOL    HW1 1034   0.663   0.023   2.502  1.9546 -2.0693 -0.7090
  345SOL    HW2 1035   0.679   0.014   2.336  0.1698  1.1497 -0.9047
  346SOL     OW 1036   2.668   1.916   0.719 -0.1125 -0.5715 -0.3831
  346SOL    HW1 1037   2.663   2.004   0.779 -1.1067  3.7083  0.3472
  346SOL    HW2 1038   2.576   1.868   0.735 -1.5867  1.4701  2.8685
  347SOL     OW 1039   2.278   0.223   1.856  0.5859  0.2314 -0.0977
  347SOL    HW1 1040   2.300   0.139   1.804 -2.2181 -1.1143 -0.4757
  347SOL    HW2 1041   2.221   0.204   1.940  1.6932 -1.4903 -0.8947
  348SOL     OW 1042   1.009   1.207   1.678 -0.4521  0.2944 -0.2205
  348SOL    HW1 1043   0.951   1.142   1.734  1.0840  0.0064  0.9586
  348SOL    HW2 1044   0.992   1.306   1.705  0.6607 -0.1586 -0.8751
  349SOL     OW 1045   2.501   0.756   1.687  0.4248  0.0891 -0.5699
  349SOL    HW1 1046   2.537   0.847   1.715 -2.0552 -3.2775  1.8753
  349SOL    HW2 1047   2.518   0.689   1.765  0.1370 -0.8847  0.5251
  350SOL     OW 1048   2.204   2.319   0.464 -0.0731  0.7851 -0.2326
  350SOL    HW1 1049   2.174   2.415   0.494  1.3920  0.9783  1.3108
  350SOL    HW2 1050   2.165   2.288   0.373 -1.5571 -1.0971 -0.2255
  351SOL     OW 1051   0.690   0.590   2.126  0.1225  0.0138  0.0011
  351SOL    HW1 1052   0.784   0.556   2.113  3.2492 -1.3539 -2.2194
  351SOL    HW2 1053   0.625   0.551   2.059  0.1724  1.5798  0.7358
  352SOL     OW 1054   2.147   2.602   1.744  0.4817  0.3633  0.0229
  352SOL    HW1 1055   2.081   2.633   1.824 -0.3870  0.6550  1.4065
  352SOL    HW2 1056   2.095   2.567   1.666 -1.4683  0.6553  2.0696
  353SOL     OW 1057   0.603   0.755   2.672 -0.2274 -0.0482 -0.0565
  353SOL    HW1 1058   0.704   0.757   2.682 -0.9588  3.2472 -1.9998
  353SOL    HW2 1059   0.575   0.731   2.577 -0.2206  0.3244  1.8063
  354SOL     OW 1060   0.472   2.232   2.820  0.3665 -0.6527 -0.9100
  354SOL    HW1 1061   0.562   2.271   2.805 -1.9208  2.3785  2.3695
  354SOL    HW2 1062   0.412   2.308   2.856  0.2321 -0.3830  0.9509
  355SOL     OW 1063   1.509   2.744   1.128 -0.1267 -0.0331  0.3371
  355SOL    HW1 1064   1.588   2.802   1.149  0.3658 -1.6006  1.6260
  355SOL    HW2 1065   1.462   2.713   1.210 -0.1098 -0.7705 -0.5247
  356SOL     OW 1066   2.609   0.900   0.208 -0.0003 -0.1795  1.1818
  356SOL    HW1 1067   2.534   0.944   0.262  1.9371  2.2358  0.6755
  356SOL    HW2 1068   2.681   0.868   0.270  1.9989 -1.4193 -1.2627
  357SOL     OW 1069   0.095   0.376   1.838  0.2961 -0.0792 -0.1273
  357SOL    HW1 1070   0.130   0.369   1.930 -1.6167  3.2380 -3.1064
  357SOL    HW2 1071   0.045   0.294   1.813  0.9767 -1.5685 -0.7884
  358SOL     OW 1072   0.023   1.566   0.763 -0.1592 -0.7341 -0.1574
  358SOL    HW1 1073   0.093   1.496   0.736  0.6423 -0.7140  0.4086
  358SOL    HW2 1074   3.065   1.584   0.685 -4.0586 -0.2499 -2.3918
  359SOL     OW 1075   2.848   0.445   2.968  0.2650 -0.2357 -0.2481
  359SOL    HW1 1076   2.875   0.397   3.050  0.6090 -0.0577 -1.8052
  359SOL    HW2 1077   2.901   0.422   2.886 -1.6768 -0.9245 -0.4735
  360SOL     OW 1078   1.133   1.025   1.146  0.5164 -0.0518  0.7771
  360SOL    HW1 1079   1.145   0.970   1.231 -2.6408 -2.4891 -1.2169
  360SOL    HW2 1080   1.053   1.089   1.152  2.0196 -1.8000  1.2373
  361SOL     OW 1081   2.712   2.603   1.213  0.0547 -0.1274 -0.0750
  361SOL    HW1 1082   2.753   2.512   1.201  0.7325  0.2046  2.3977
  361SOL    HW2 1083   2.615   2.603   1.182  1.0332 -0.6076  2.7086
  362SOL     OW 1084   1.110   0.295   1.085  0.0000  0.1082 -0.5581
  362SOL    HW1 1085   1.077   0.370   1.143  1.1052  0.1078  0.5189
  362SOL    HW2 1086   1.110   0.314   0.983  1.8048  0.1714 -0.0848
  363SOL     OW 1087   2.017   1.618   0.736 -0.0341  0.1132  0.1328
  363SOL    HW1 1088   2.116   1.601   0.747  0.8628 -0.6228 -0.0858
  363SOL    HW2 1089   1.970   1.528   0.757 -1.6249 -2.0179  0.3857
  364SOL     OW 1090   0.717   0.491   1.425  0.2089  0.3607 -0.1384
  364SOL    HW1 1091   0.758   0.499   1.333 -1.8212 -2.3675  0.1700
  364SOL    HW2 1092   0.703   0.585   1.467 -0.9856  0.8114 -0.8324
  365SOL     OW 1093   0.110   0.234   1.052 -0.2238  0.5839 -0.1824
  365SOL    HW1 1094   0.200   0.191   1.060  0.2125  1.4741  0.7132
  365SOL    HW2 1095   0.037   0.169   1.083 -3.1828 -0.8956  2.0136
  366SOL     OW 1096   2.964   1.134   0.001 -0.0181  0.1982  0.0286
  366SOL    HW1 1097   2.870   1.142   0.035  2.0787  0.4051 -0.1190
  366SOL    HW2 1098   3.007   1.224   3.088  1.4857 -1.1305 -0.3578
  367SOL     OW 1099   2.189   2.196   2.206 -0.2650 -0.4810 -0.0891
  367SOL    HW1 1100   2.225   2.185   2.301 -2.3358 -1.9202  0.1271
  367SOL    HW2 1101   2.091   2.237   2.202 -4.3564  2.0236 -1.2568
  368SOL     OW 1102   2.444   1.813   0.765  0.1929  0.2089  0.0379
  368SOL    HW1 1103   2.367   1.872   0.796 -1.5366 -1.0446  2.4360
  368SOL    HW2 1104   2.409   1.727   0.727  0.5834  3.0202  2.1089
  369SOL     OW 1105   2.100   0.422   2.845 -0.0608 -0.4996  0.1031
  369SOL    HW1 1106   2.133   0.495   2.912 -0.9290 -1.8613 -0.9093
  369SOL    HW2 1107   2.007   0.389   2.867  2.3414  3.1507 -0.3408
  370SOL     OW 1108   0.528   0.616   1.001 -0.3553 -0.2047  0.1527
  370SOL    HW1 1109   0.549   0.524   1.034  1.2941  0.4972 -0.8904
  370SOL    HW2 1110   0.594   0.635   0.926 -1.0492 -0.5937  0.7402
  371SOL     OW 1111   3.066   1.391   2.999 -0.1130  0.7590  0.2886
  371SOL    HW1 1112   2.979   1.438   2.982 -0.5864  0.9734  3.4330
  371SOL    HW2 1113   0.038   1.452   2.976  1.9972 -0.1411 -2.2711
  372SOL     OW 1114   0.570   0.711   2.397  0.2886 -0.2069  0.0434
  372SOL    HW1 1115   0.640   0.657   2.349  1.8995  1.4791 -2.2762
  372SOL    HW2 1116   0.569   0.808   2.364 -0.1230  2.5571 -1.4652
  373SOL     OW 1117   0.685   2.909   2.959  0.1006 -0.7098  0.1537
  373SOL    HW1 1118   0.634   2.938   3.042 -2.5594  0.8292 -0.1887
  373SOL    HW2 1119   0.771   2.963   2.955  0.4955 -1.0552  0.7693
  374SOL     OW 1120   0.844   1.492   0.027 -0.4747  0.2862  0.2128
  374SOL    HW1 1121   0.859   1.555   0.110 -0.2426  0.9904  2.4512
  374SOL    HW2 1122   0.894   1.401   0.049  0.1588 -3.1206  0.5833
  375SOL     OW 1123   0.946   0.512   2.096 -0.8043  0.4454 -0.0976
  375SOL    HW1 1124   0.987   0.593   2.137 -1.3886 -2.7719  1.4968
  375SOL    HW2 1125   0.956   0.432   2.155  1.3499  2.5829  0.1278
  376SOL     OW 1126   0.031   2.668   1.973 -0.1633  0.0693 -0.3933
  376SOL    HW1 1127   3.076   2.722   1.909 -3.3796  0.9797  0.8795
  376SOL    HW2 1128   0.045   2.716   2.060 -0.1611  1.6057 -1.7211
  377SOL     OW 1129   2.482   2.058   2.878  0.6368 -0.4806 -0.1156
  377SOL    HW1 1130   2.545   2.031   2.801 -1.5690 -1.4583  2.8870
  377SOL    HW2 1131   2.517   2.014   2.959  0.0520  0.8510 -1.2717
  378SOL     OW 1132   2.184   0.044   0.121  0.0386  0.2143 -0.1106
  378SOL    HW1 1133   2.149   3.088   0.192  1.8895  1.7656  0.4089
  378SOL    HW2 1134   2.116   0.065   0.048 -1.3494 -1.4480 -0.2379
  379SOL     OW 1135   1.930   0.783   0.663  0.5922 -0.3146 -0.3486
  379SOL    HW1 1136   1.848   0.822   0.717 -1.4550  3.7489  3.9329
  379SOL    HW2 1137   1.980   0.714   0.719 -0.0935 -1.3134  1.8496
  380SOL     OW 1138   2.603   1.967   1.717  0.2560  0.6847  0.1304
  380SOL    HW1 1139   2.580   2.019   1.633  0.0416  1.7579 -0.3696
  380SOL    HW2 1140   2.697   1.981   1.745 -1.4925 -0.4292 -2.1573
  381SOL     OW 1141   2.342   1.410   2.291  0.4806 -0.4442  0.1155
  381SOL    HW1 1142   2.323   1.434   2.193 -0.2525  1.6004 -0.5937
  381SOL    HW2 1143   2.320   1.313   2.302 -1.9561  3.1135 -2.1898
  382SOL     OW 1144   2.985   2.641   2.712  0.5906 -0.2126  0.1342
  382SOL    HW1 1145   3.062   2.708   2.706 -0.7286 -1.4571 -3.1311
  382SOL    HW2 1146   3.007   2.547   2.683  0.5024  2.6615 -0.7842
  383SOL     OW 1147   1.042   1.146   2.909 -0.4355 -0.3931  0.3554
  383SOL    HW1 1148   1.033   1.157   3.009 -1.5964 -0.4908  3.4410
  383SOL    HW2 1149   1.071   1.235   2.873 -1.8021  2.1902  2.3935
  384SOL     OW 1150   1.787   1.994   2.229 -0.2736 -0.3297 -0.1570
  384SOL    HW1 1151   1.737   1.921   2.179  0.2511 -1.1248  0.6055
  384SOL    HW2 1152   1.844   2.047   2.166 -0.0255 -0.1207  1.5211
  385SOL     OW 1153   1.836   2.756   0.775 -0.2058 -0.2308  0.4405
  385SOL    HW1 1154   1.747   2.744   0.820  1.4448  2.2809 -1.2244
  385SOL    HW2 1155   1.816   2.757   0.676  2.5790  2.0543  0.5825
  386SOL     OW 1156   2.016   1.341   0.511  0.3305  0.2176  0.2763
  386SOL    HW1 1157   2.103   1.392   0.498 -0.2285  0.6783  0.0088
  386SOL    HW2 1158   1.987   1.357   0.610  3.1205  2.7356 -0.5999
  387SOL     OW 1159   2.954   2.096   1.585 -0.1605  0.4350  0.1901
  387SOL    HW1 1160   2.903   2.101   1.672 -2.9387 -0.4391  0.2400
  387SOL    HW2 1161   2.940   2.180   1.534 -0.2068 -3.3277 -0.6030
  388SOL     OW 1162   0.327   1.198   1.708 -0.4630 -0.1095  0.1019
  388SOL    HW1 1163   0.286   1.276   1.658 -2.6909  1.1137  2.8243
  388SOL    HW2 1164   0.266   1.157   1.782 -0.4222 -0.8045  0.5747
  389SOL     OW 1165   2.239   0.596   3.029 -0.1457 -0.4500  0.1355
  389SOL    HW1 1166   2.292   0.584   0.005  0.3989 -0.9232  0.0790
  389SOL    HW2 1167   2.184   0.680   3.021 -0.3463 -0.3040  1.2318
  390SOL     OW 1168   0.779   1.618   2.907 -0.1705  0.5755  0.1920
  390SOL    HW1 1169   0.802   1.563   2.991 -1.0634 -2.9339  1.7424
  390SOL    HW2 1170   0.726   1.701   2.932 -0.1303 -1.0818 -0.7363
  391SOL     OW 1171   0.932   1.994   0.076  0.8673 -0.5283  0.2282
  391SOL    HW1 1172   1.016   2.015   0.122  1.3816  0.7268  1.1924
  391SOL    HW2 1173   0.855   2.033   0.132  0.3431 -0.5429  1.2949
  392SOL     OW 1174   0.050   2.496   2.242  0.3092 -0.1000  0.0111
  392SOL    HW1 1175   3.077   2.560   2.222 -1.2695  1.7829 -2.3780
  392SOL    HW2 1176   0.105   2.539   2.313 -0.7487  0.5277 -0.0122
  393SOL     OW 1177   1.526   2.184   0.456  0.3716 -0.6233  0.1026
  393SOL    HW1 1178   1.620   2.220   0.475  1.1010  0.7923  1.5676
  393SOL    HW2 1179   1.520   2.083   0.450 -1.9098  0.1917 -0.8467
  394SOL     OW 1180   0.535   0.325   2.541 -0.0299  0.6097  0.7572
  394SOL    HW1 1181   0.460   0.334   2.478  3.7515 -0.1045  2.1506
  394SOL    HW2 1182   0.499   0.366   2.624  0.3597 -1.1040 -1.7922
  395SOL     OW 1183   0.572   1.276   1.482 -0.3547  0.5637 -0.4058
  395SOL    HW1 1184   0.593   1.366   1.529  1.9236 -0.6837 -0.5078
  395SOL    HW2 1185   0.511   1.293   1.404  2.6047  2.2033  1.4667
  396SOL     OW 1186   1.918   1.383   2.772  0.1974 -0.3233 -0.1666
  396SOL    HW1 1187   1.919   1.306   2.708  1.0632  2.1255 -0.7377
  396SOL    HW2 1188   1.863   1.368   2.857  0.4646  0.8456  1.0796
  397SOL     OW 1189   0.424   0.478   0.219  0.3983 -0.0018 -1.0163
  397SOL    HW1 1190   0.488   0.501   0.144  0.9914  0.1883 -2.0417
  397SOL    HW2 1191   0.394   0.566   0.261  0.4962 -0.4085 -0.7145
  398SOL     OW 1192   0.986   2.509   2.998 -0.4831 -0.4203 -0.2908
  398SOL    HW1 1193   0.911   2.570   2.965 -0.7059 -0.5487  0.9546
  398SOL    HW2 1194   1.072   2.545   2.954 -0.3340 -0.4594 -0.7934
  399SOL     OW 1195   1.958   2.335   2.188  0.3167 -0.2759  0.5651
  399SOL    HW1 1196   1.919   2.274   2.116  0.0288  2.0884  0.7794
  399SOL    HW2 1197   1.967   2.432   2.156 -2.6730  0.3785  0.9245
  400SOL     OW 1198   2.361   1.309   1.285 -0.1574  0.2188 -0.1755
  400SOL    HW1 1199   2.334   1.257   1.373  0.7808 -0.3621 -1.5696
  400SOL    HW2 1200   2.445   1.270   1.248  1.0429  1.9695 -1.6085
  401SOL     OW 1201   1.349   0.998   0.932  0.4820 -0.2215 -0.9239
  401SOL    HW1 1202   1.439   0.960   0.967  3.5984 -2.9657  0.9296
  401SOL    HW2 1203   1.270   0.976   0.997 -2.2867 -2.6549  2.0780
  402SOL     OW 1204   0.246   3.034   2.514 -0.0802  0.0712  0.1019
  402SOL    HW1 1205   0.274   0.017   2.556  2.2451  1.9799  0.2633
  402SOL    HW2 1206   0.306   3.007   2.436 -3.7856  0.4967  1.0007
  403SOL     OW 1207   2.710   1.682   1.687  0.5589 -0.8224 -0.0349
  403SOL    HW1 1208   2.672   1.591   1.646 -1.8177 -2.0042  0.1676
  403SOL    HW2 1209   2.734   1.742   1.606  1.4359  0.6197 -1.2455
  404SOL     OW 1210   2.195   1.551   1.673  0.1355  0.3117 -0.0279
  404SOL    HW1 1211   2.172   1.640   1.624  3.6460  0.4983  2.1394
  404SOL    HW2 1212   2.151   1.471   1.627  0.8902 -2.0491 -0.4281
  405SOL     OW 1213   2.331   0.234   2.460 -0.4366  0.6099 -0.0087
  405SOL    HW1 1214   2.337   0.296   2.377  0.2557 -0.2128 -0.8418
  405SOL    HW2 1215   2.420   0.240   2.513 -2.3625  0.7770  1.2475
  406SOL     OW 1216   1.009   1.415   2.635 -0.4950 -0.0642  0.3663
  406SOL    HW1 1217   0.910   1.439   2.627  2.3566  2.6106  0.1533
  406SOL    HW2 1218   1.050   1.426   2.732  3.6823 -1.1943  0.9541
  407SOL     OW 1219   2.067   2.546   0.554  0.1304 -0.9503 -0.2874
  407SOL    HW1 1220   2.059   2.575   0.650  0.0363  0.4466  1.6075
  407SOL    HW2 1221   1.973   2.527   0.517  0.8113  0.1594 -2.7310
  408SOL     OW 1222   0.265   2.887   0.973  0.0671  0.1979  0.1824
  408SOL    HW1 1223   0.249   2.836   1.058 -1.0732 -0.7163 -2.2574
  408SOL    HW2 1224   0.190   2.939   0.939  0.7345 -1.0330  3.6039
  409SOL     OW 1225   2.333   1.551   0.701  0.0635  0.2149 -0.0679
  409SOL    HW1 1226   2.339   1.493   0.785 -0.1385 -0.0299 -2.9063
  409SOL    HW2 1227   2.313   1.499   0.616 -1.4645  1.0522  1.9258
  410SOL     OW 1228   2.151   2.447   3.017  0.1441 -0.6925 -0.4456
  410SOL    HW1 1229   2.077   2.494   2.969  0.5230  1.1642  2.0270
  410SOL    HW2 1230   2.234   2.426   2.961 -1.8769 -3.2990  1.8269
  411SOL     OW 1231   0.015   2.877   0.626  0.3069 -0.3459  0.3044
  411SOL    HW1 1232   0.043   2.962   0.674  0.0147  2.2131 -2.6766
  411SOL    HW2 1233   3.026   2.884   0.591 -0.2533  1.1346 -1.9742
  412SOL     OW 1234   1.425   2.618   0.430 -0.1060  0.1771 -0.5503
  412SOL    HW1 1235   1.426   2.718   0.427  0.5081 -0.0076 -0.8865
  412SOL    HW2 1236   1.454   2.594   0.526 -0.6184 -1.0687  0.2718
  413SOL     OW 1237   1.926   0.260   2.257  0.3176 -1.0716 -0.7312
  413SOL    HW1 1238   1.857   0.290   2.187 -0.8762  0.0542  1.0207
  413SOL    HW2 1239   1.963   0.340   2.308  1.0125 -0.2918 -0.5037
  414SOL     OW 1240   0.264   0.528   0.584 -0.0877 -0.0830 -0.0069
  414SOL    HW1 1241   0.292   0.442   0.537  1.0245 -0.7264 -0.5182
  414SOL    HW2 1242   0.290   0.519   0.684 -1.7327 -2.3111  4.3525
  415SOL     OW 1243   0.115   1.162   1.242  0.1050  0.4686  0.0835
  415SOL    HW1 1244   0.053   1.096   1.194 -3.3911 -2.6177 -0.5345
  415SOL    HW2 1245   0.205   1.111   1.239 -1.6900 -1.9639 -0.1150
  416SOL     OW 1246   0.245   0.062   0.103 -0.0892 -0.4897 -0.2069
  416SOL    HW1 1247   0.258   0.166   0.095  0.8157  2.4109 -0.2714
  416SOL    HW2 1248   0.322   0.016   0.139  1.3180  3.2983 -0.4612
  417SOL     OW 1249   2.129   0.315   0.643 -0.2513 -0.0508  0.1097
  417SOL    HW1 1250   2.203   0.332   0.714  2.7004 -1.0114 -1.4537
  417SOL    HW2 1251   2.036   0.342   0.678  1.7494 -4.3782 -0.3119
  418SOL     OW 1252   0.490   0.259   2.858  0.2202 -0.0574 -0.1513
  418SOL    HW1 1253   0.583   0.277   2.892  1.8563  1.1582  0.0616
  418SOL    HW2 1254   0.451   0.344   2.819 -0.8302  0.0207  0.7720
  419SOL     OW 1255   0.422   0.966   0.689  0.0954  0.4278 -0.0969
  419SOL    HW1 1256   0.438   0.893   0.623  0.0359  3.8208  1.5819
  419SOL    HW2 1257   0.340   0.948   0.750 -2.2005  1.4380  1.5866
  420SOL     OW 1258   2.155   1.833   1.097  0.4108 -0.3519 -0.3776
  420SOL    HW1 1259   2.165   1.908   1.161 -1.4154 -0.9894 -2.1283
  420SOL    HW2 1260   2.239   1.779   1.102  1.9309  2.4653  1.3761
  421SOL     OW 1261   1.312   1.887   2.691 -0.9222  0.2747  0.1994
  421SOL    HW1 1262   1.359   1.980   2.698 -1.6917 -0.7641  0.6985
  421SOL    HW2 1263   1.232   1.898   2.630  0.3869 -1.2145  0.4465
  422SOL     OW 1264   2.887   0.693   3.085 -0.6010 -0.6220 -0.5046
  422SOL    HW1 1265   2.869   0.636   3.004 -1.6589 -0.6508  0.5964
  422SOL    HW2 1266   2.843   0.648   0.057  2.2595  0.0165  1.5983
  423SOL     OW 1267   1.957   2.184   0.696  0.1157 -0.4115 -0.2473
  423SOL    HW1 1268   2.042   2.130   0.679  2.9178 -1.8592  1.5063
  423SOL    HW2 1269   1.958   2.229   0.786 -0.5896 -0.0205 -0.2518
  424SOL     OW 1270   0.411   1.390   1.904 -0.0242  0.3121 -0.3606
  424SOL    HW1 1271   0.402   1.481   1.866  0.9947 -1.7090  0.4272
  424SOL    HW2 1272   0.383   1.310   1.847 -0.8701 -1.8666  0.9123
  425SOL     OW 1273   2.585   2.668   1.841  0.1565  0.0915  0.1749
  425SOL    HW1 1274   2.504   2.606   1.865 -0.6809 -1.4763 -2.0525
  425SOL    HW2 1275   2.671   2.618   1.851 -1.9995  2.3765  0.0721
  426SOL     OW 1276   1.772   2.731   0.511  0.1525 -0.3175 -0.0084
  426SOL    HW1 1277   1.793   2.640   0.475 -1.9503 -1.6392  2.2222
  426SOL    HW2 1278   1.751   2.793   0.433  2.7486 -2.1872  2.2666
  427SOL     OW 1279   0.161   0.532   2.625 -0.2928 -0.2571 -0.0874
  427SOL    HW1 1280   0.259   0.528   2.656  2.5417  1.3408  1.0771
  427SOL    HW2 1281   0.132   0.442   2.596  0.7189 -1.7452  2.7749
  428SOL     OW 1282   2.168   1.019   2.830 -0.4863 -0.1867  0.0365
  428SOL    HW1 1283   2.128   1.085   2.898  0.2119  0.5502  1.3126
  428SOL    HW2 1284   2.111   1.006   2.750  1.6189  1.4512  0.1098
  429SOL     OW 1285   3.015   0.295   0.646  0.1596 -0.0922  0.3361
  429SOL    HW1 1286   2.992   0.321   0.548 -1.0167 -1.0014 -1.8427
  429SOL    HW2 1287   2.928   0.258   0.685 -0.6701 -0.5629  1.3548
  430SOL     OW 1288   1.042   2.872   2.090 -0.1462 -0.3986  0.1280
  430SOL    HW1 1289   0.954   2.830   2.074  1.8702  0.6534  0.3891
  430SOL    HW2 1290   1.113   2.801   2.077 -1.7093 -1.5610  0.3171
  431SOL     OW 1291   3.055   2.006   1.276 -0.2089 -0.3453 -0.1134
  431SOL    HW1 1292   2.993   2.065   1.218  1.7334  0.8794 -0.1274
  431SOL    HW2 1293   3.014   2.001   1.368 -1.0109 -0.0278  1.4585
  432SOL     OW 1294   2.197   2.914   1.939  0.1042  0.6159  0.1022
  432SOL    HW1 1295   2.226   2.936   1.843  1.9408  0.1572 -0.3879
  432SOL    HW2 1296   2.227   2.990   1.998  4.0864 -1.3813 -1.7196
  433SOL     OW 1297   1.176   1.986   0.286 -0.5915 -0.3146 -0.0221
  433SOL    HW1 1298   1.145   1.967   0.381  0.4751 -0.2150  0.2988
  433SOL    HW2 1299   1.199   1.898   0.243 -0.0414  1.7048  0.3482
  434SOL     OW 1300   3.065   2.396   2.636  0.2215  0.0759  0.2281
  434SOL    HW1 1301   2.990   2.367   2.579  2.3931  2.8355 -0.4230
  434SOL    HW2 1302   0.050   2.377   2.600 -1.2187 -1.2930  0.3805
  435SOL     OW 1303   0.426   0.747   0.534  0.5676 -0.4871  0.7992
  435SOL    HW1 1304   0.424   0.771   0.436 -1.8652 -1.9813 -2.2259
  435SOL    HW2 1305   0.370   0.666   0.553  0.6739  1.9867  1.9136
  436SOL     OW 1306   0.558   2.580   2.173 -0.6004 -0.6419 -0.1435
  436SOL    HW1 1307   0.601   2.531   2.095  0.9866  0.1108  1.1376
  436SOL    HW2 1308   0.628   2.622   2.234 -0.4957 -0.2578 -1.1034
  437SOL     OW 1309   1.235   2.009   1.440  0.0708  0.3392 -0.1691
  437SOL    HW1 1310   1.209   2.059   1.354 -0.2275  0.1034 -1.7229
  437SOL    HW2 1311   1.328   1.979   1.432 -2.5177 -0.4130 -0.9314
  438SOL     OW 1312   0.171   2.251   0.332 -0.0343 -0.6664 -0.2689
  438SOL    HW1 1313   0.250   2.191   0.338 -2.7933  3.6418 -0.9409
  438SOL    HW2 1314   0.083   2.202   0.326  0.1137  0.1984 -0.7524
  439SOL     OW 1315   0.332   0.113   1.182  0.3618 -0.2392 -0.3196
  439SOL    HW1 1316   0.431   0.106   1.166 -2.5804 -0.2670  0.6315
  439SOL    HW2 1317   0.294   0.020   1.209  0.6061 -0.5529  1.8526
  440SOL     OW 1318   2.922   2.657   2.237  0.0169  0.1924  0.1763
  440SOL    HW1 1319   2.868   2.706   2.309 -1.3915  0.2315 -2.1024
  440SOL    HW2 1320   2.892   2.688   2.147 -0.7456 -0.3980  2.7871
  441SOL     OW 1321   2.950   0.723   1.594  0.5543  0.7368 -0.4061
  441SOL    HW1 1322   3.007   0.637   1.574  1.2518 -1.5445  1.5793
  441SOL    HW2 1323   2.852   0.694   1.596  0.0080 -3.6296 -1.5962
  442SOL     OW 1324   1.727   2.485   0.132  0.3742 -0.4452 -0.3149
  442SOL    HW1 1325   1.752   2.573   0.088 -2.7827 -1.0864  0.4891
  442SOL    HW2 1326   1.626   2.470   0.125 -2.8580  0.7655 -0.1684
  443SOL     OW 1327   0.317   0.597   2.968  0.5268  0.0585  0.4361
  443SOL    HW1 1328   0.240   0.534   2.978  0.8152 -0.6577  1.5375
  443SOL    HW2 1329   0.292   0.688   3.011 -1.1321  0.1094 -0.2508
  444SOL     OW 1330   1.510   1.638   2.300 -0.1781 -0.6079 -0.0969
  444SOL    HW1 1331   1.583   1.583   2.347 -1.0335  1.2957  0.5867
  444SOL    HW2 1332   1.556   1.672   2.219 -0.6363 -1.9043  1.5425
  445SOL     OW 1333   0.294   2.275   1.205 -0.3720 -0.1312 -0.2498
  445SOL    HW1 1334   0.325   2.367   1.225  2.0403 -1.2739  0.3113
  445SOL    HW2 1335   0.276   2.265   1.108 -1.4947 -2.7552  0.3521
  446SOL     OW 1336   2.605   1.489   1.504 -0.4947  0.0752  0.3639
  446SOL    HW1 1337   2.655   1.414   1.457 -0.9342 -2.0320  0.4574
  446SOL    HW2 1338   2.540   1.530   1.441  1.3596 -1.2771  2.0039
  447SOL     OW 1339   0.293   0.729   0.293  0.5359 -0.8866 -0.7622
  447SOL    HW1 1340   0.309   0.807   0.227 -1.3315 -0.3935  0.2914
  447SOL    HW2 1341   0.195   0.707   0.286 -1.6574  0.2760  1.2472
  448SOL     OW 1342   1.492   2.191   2.000  0.3388  0.0829 -0.6403
  448SOL    HW1 1343   1.484   2.269   1.935 -1.8170 -0.8811  0.2707
  448SOL    HW2 1344   1.399   2.152   2.015  2.5267  1.6143  0.9632
  449SOL     OW 1345   0.977   1.251   0.092  0.0825  0.4268 -0.2902
  449SOL    HW1 1346   0.936   1.186   0.158  2.0533  2.2315 -2.6270
  449SOL    HW2 1347   1.078   1.244   0.090 -3.1102 -4.5492 -0.5330
  450SOL     OW 1348   2.908   1.912   2.004  0.0628  0.4975 -0.6970
  450SOL    HW1 1349   3.001   1.867   1.996  1.1066 -0.3055  0.6908
  450SOL    HW2 1350   2.834   1.842   1.990  0.0705 -0.7336 -3.0514
  451SOL     OW 1351   2.636   0.968   2.567 -0.2407 -0.0258  0.3797
  451SOL    HW1 1352   2.589   1.020   2.642 -1.3064 -0.6759 -1.8941
  451SOL    HW2 1353   2.698   0.891   2.596  1.1994 -1.4411  1.2431
  452SOL     OW 1354   1.548   0.611   1.049 -0.0516 -0.7257  0.0801
  452SOL    HW1 1355   1.453   0.608   1.077  1.3712 -0.4374 -0.1428
  452SOL    HW2 1356   1.611   0.611   1.130  1.6692 -0.2511 -1.8331
  453SOL     OW 1357   1.477   1.043   1.324  0.4304  0.3517 -0.8508
  453SOL    HW1 1358   1.445   1.000   1.409  1.9014  1.6118  0.8076
  453SOL    HW2 1359   1.534   1.121   1.350 -0.1809 -1.7302 -1.7677
  454SOL     OW 1360   0.075   0.987   0.218 -0.0490  0.2141  0.5496
  454SOL    HW1 1361   0.080   0.892   0.252  1.2079  1.0127  1.6383
  454SOL    HW2 1362   0.022   1.004   0.131  0.4499 -0.0408 -0.2133
  455SOL     OW 1363   2.500   2.497   1.390  0.0409 -0.4144 -0.6895
  455SOL    HW1 1364   2.443   2.542   1.461  1.6770 -3.0132  0.7716
  455SOL    HW2 1365   2.478   2.535   1.299  0.0048  1.2405  0.6264
  456SOL     OW 1366   0.355   2.527   1.245 -0.3544  0.4139  0.7228
  456SOL    HW1 1367   0.383   2.529   1.345 -0.7464  2.6769  3.4561
  456SOL    HW2 1368   0.302   2.611   1.223 -1.6100  0.0870  1.2316
  457SOL     OW 1369   1.614   3.048   0.485 -0.4050 -0.1122  0.6200
  457SOL    HW1 1370   1.550   2.984   0.435 -0.1202  2.3461  0.6630
  457SOL    HW2 1371   1.577   0.031   0.474  0.2639 -4.3515 -2.6136
  458SOL     OW 1372   2.632   3.046   1.332 -0.0327  0.4125  0.0699
  458SOL    HW1 1373   2.648   3.107   1.414 -0.4664 -2.4294 -1.9352
  458SOL    HW2 1374   2.685   2.959   1.341  1.9028  2.8472  0.9905
  459SOL     OW 1375   2.453   0.562   2.853  0.3845  0.4323 -0.0337
  459SOL    HW1 1376   2.369   0.576   2.906  2.6093  1.0404  0.5613
  459SOL    HW2 1377   2.529   0.618   2.892 -1.7907  0.3211 -0.4151
  460SOL     OW 1378   2.630   2.488   2.765 -0.5299 -0.4993  0.3485
  460SOL    HW1 1379   2.588   2.522   2.679  3.0284  1.8208 -0.6642
  460SOL    HW2 1380   2.633   2.568   2.832 -2.2858  1.4331  3.4942
  461SOL     OW 1381   0.714   1.739   0.471 -0.8175  0.0119 -0.3781
  461SOL    HW1 1382   0.784   1.669   0.450 -0.0196 -0.6686 -1.3698
  461SOL    HW2 1383   0.659   1.753   0.386  0.8221 -1.5503 -1.9006
  462SOL     OW 1384   2.256   2.000   0.822 -0.1502  0.0428 -0.1529
  462SOL    HW1 1385   2.230   2.000   0.722  2.7329  1.9516  0.5655
  462SOL    HW2 1386   2.191   2.048   0.883 -0.2486  2.2053 -0.5854
  463SOL     OW 1387   2.839   0.800   0.712  0.2842  0.1021  0.0886
  463SOL    HW1 1388   2.921   0.850   0.739 -0.8348 -0.2902 -1.3560
  463SOL    HW2 1389   2.850   0.775   0.613  3.2973  1.3122  3.3455
  464SOL     OW 1390   1.155   2.984   0.560  0.3350  0.5071 -0.1148
  464SOL    HW1 1391   1.054   2.967   0.543 -0.6473  0.8786 -0.1304
  464SOL    HW2 1392   1.186   2.920   0.632  1.4220 -1.5205  0.4287
  465SOL     OW 1393   2.290   1.138   0.547 -0.0670  0.0461  0.0139
  465SOL    HW1 1394   2.214   1.087   0.596  0.1715 -0.5648  0.7701
  465SOL    HW2 1395   2.295   1.099   0.457 -1.2217 -0.9917  3.4768
  466SOL     OW 1396   2.482   0.091   2.931  0.0317 -0.7713 -0.2267
  466SOL    HW1 1397   2.414   0.129   2.862  1.5700  0.5120  1.7940
  466SOL    HW2 1398   2.550   0.168   2.950 -0.1367  0.8355  0.4221
  467SOL     OW 1399   0.996   1.050   1.454 -0.5058  0.3498 -0.0768
  467SOL    HW1 1400   1.034   1.093   1.541  2.3192 -0.0899  2.1401
  467SOL    HW2 1401   1.044   0.960   1.433 -0.9090  0.0349  0.8424
  468SOL     OW 1402   0.575   0.960   2.325 -0.4143  0.5141  0.3865
  468SOL    HW1 1403   0.501   0.945   2.256 -1.7969 -0.1337  0.1127
  468SOL    HW2 1404   0.565   1.052   2.375 -0.7735  2.9003 -0.3084
  469SOL     OW 1405   0.542   2.580   0.370  0.0996 -0.4706 -0.5486
  469SOL    HW1 1406   0.568   2.561   0.275 -1.8376 -1.4246 -1.6353
  469SOL    HW2 1407   0.628   2.594   0.428  0.8588  2.4109  1.5719
  470SOL     OW 1408   2.503   1.135   2.764 -0.2263 -0.1831 -0.3705
  470SOL    HW1 1409   2.503   1.090   2.858 -0.8075 -0.2658 -1.1327
  470SOL    HW2 1410   2.561   1.222   2.774  2.6116  0.4373 -2.0741
  471SOL     OW 1411   2.711   1.098   2.343  0.1925 -0.1606 -0.1704
  471SOL    HW1 1412   2.803   1.053   2.318  1.5879  1.0011 -0.9556
  471SOL    HW2 1413   2.677   1.066   2.432 -0.1409  1.2383 -0.0364
  472SOL     OW 1414   0.410   2.375   0.495 -0.1357  0.2809 -0.7934
  472SOL    HW1 1415   0.315   2.408   0.482  0.8732 -0.7485  2.2744
  472SOL    HW2 1416   0.468   2.459   0.482 -0.3682  2.4650 -0.8039
  473SOL     OW 1417   0.531   0.216   0.053  0.1354  0.4642 -0.1270
  473SOL    HW1 1418   0.531   0.316   0.073 -0.6353  0.3553  2.8603
  473SOL    HW2 1419   0.458   0.195   3.090 -2.8744  3.1503  0.1255
  474SOL     OW 1420   1.727   0.371   2.095  0.5817  0.6218  0.1424
  474SOL    HW1 1421   1.718   0.472   2.087  0.2279  1.1336  1.1815
  474SOL    HW2 1422   1.638   0.323   2.115 -2.6011 -1.1693  0.5674
  475SOL     OW 1423   0.861   2.638   0.187 -0.4531  0.2565 -0.0327
  475SOL    HW1 1424   0.924   2.559   0.216 -0.6693 -0.8402  2.3794
  475SOL    HW2 1425   0.825   2.614   0.095 -0.7144  0.5571 -0.6214
  476SOL     OW 1426   0.385   1.162   0.969 -0.0612 -0.6655  0.3041
  476SOL    HW1 1427   0.462   1.129   1.025 -0.2241  0.4038  0.5516
  476SOL    HW2 1428   0.411   1.251   0.927 -1.5047 -0.3803 -1.9491
  477SOL     OW 1429   1.641   2.351   1.298 -0.5549  0.2199 -0.0492
  477SOL    HW1 1430   1.545   2.365   1.310  1.0829  0.2410 -0.9083
  477SOL    HW2 1431   1.661   2.349   1.199 -0.0726 -1.3417  1.7679
  478SOL     OW 1432   0.722   1.470   2.370  0.3686 -0.5548 -0.0523
  478SOL    HW1 1433   0.818   1.464   2.339  0.4405 -0.4249 -0.4557
  478SOL    HW2 1434   0.707   1.551   2.430  2.3175  1.4525 -0.9601
  479SOL     OW 1435   0.202   2.742   1.194  0.1221  0.0437  0.4816
  479SOL    HW1 1436   0.107   2.713   1.214  1.8578 -0.8638  0.0920
  479SOL    HW2 1437   0.233   2.819   1.252  3.3770 -1.1196  2.4245
  480SOL     OW 1438   2.776   2.868   0.283 -0.0895  0.3390  0.1611
  480SOL    HW1 1439   2.739   2.961   0.254 -0.4829  2.6455 -1.3389
  480SOL    HW2 1440   2.705   2.810   0.328  1.0483  0.2368 -0.2973
  481SOL     OW 1441   2.920   2.886   1.067 -0.3542 -0.1688 -0.5733
  481SOL    HW1 1442   2.987   2.869   0.993  0.8703  1.9085 -1.5433
  481SOL    HW2 1443   2.825   2.852   1.048 -0.6134  0.1797  0.6785
  482SOL     OW 1444   1.611   2.378   2.144 -0.2728 -0.0108  0.0450
  482SOL    HW1 1445   1.587   2.286   2.099 -0.0105 -0.1436 -0.9810
  482SOL    HW2 1446   1.674   2.432   2.080 -0.9158  0.3231 -3.4641
  483SOL     OW 1447   0.458   1.505   2.762 -0.7449  0.1667  0.0010
  483SOL    HW1 1448   0.544   1.457   2.723 -0.3078 -1.8006 -1.1174
  483SOL    HW2 1449   0.460   1.602   2.738 -1.2150 -0.5859  0.3612
  484SOL     OW 1450   1.094   1.185   2.493 -0.0719 -0.0676 -0.0439
  484SOL    HW1 1451   0.997   1.148   2.473 -1.1701 -1.7406  1.1140
  484SOL    HW2 1452   1.087   1.258   2.569  0.9637  2.2661  3.0292
  485SOL     OW 1453   2.928   0.337   0.384 -0.0999 -0.7290 -0.0772
  485SOL    HW1 1454   2.870   0.258   0.412 -2.1665 -0.2531  2.1388
  485SOL    HW2 1455   2.972   0.311   0.295  0.4177  0.8941 -2.7560
  486SOL     OW 1456   1.564   2.746   0.862  0.2124 -0.2063 -0.3769
  486SOL    HW1 1457   1.549   2.744   0.965  0.0785 -0.8124 -3.2150
  486SOL    HW2 1458   1.549   2.836   0.814 -0.5857  1.1155 -1.3880
  487SOL     OW 1459   0.806   2.533   1.101 -0.4274  0.0318  0.5891
  487SOL    HW1 1460   0.740   2.582   1.042  0.7665  3.7171 -0.3194
  487SOL    HW2 1461   0.897   2.538   1.055  0.8212 -2.2875 -4.5284
  488SOL     OW 1462   2.378   1.214   0.070 -0.0874 -0.3107 -0.2568
  488SOL    HW1 1463   2.278   1.232   0.096 -0.4299 -1.4361 -0.9132
  488SOL    HW2 1464   2.376   1.136   0.002 -0.9458 -1.7451 -1.4283
  489SOL     OW 1465   1.226   2.815   1.083  0.0323  0.4781  0.3738
  489SOL    HW1 1466   1.176   2.824   1.177 -1.4606 -0.4767 -0.2462
  489SOL    HW2 1467   1.326   2.820   1.097 -3.1037 -1.7437 -1.0033
  490SOL     OW 1468   0.894   1.038   0.227 -0.1530 -0.0993 -0.4514
  490SOL    HW1 1469   0.965   0.975   0.258  1.2983 -0.3575 -0.0685
  490SOL    HW2 1470   0.836   1.053   0.308  1.4526 -2.6807  0.1492
  491SOL     OW 1471   0.907   0.002   0.982 -0.3320 -0.0523 -0.1692
  491SOL    HW1 1472   1.000   3.077   0.970 -0.3117  0.4448 -0.2917
  491SOL    HW2 1473   0.835   3.037   0.978 -1.3194 -0.0985 -0.3498
  492SOL     OW 1474   1.280   1.440   2.288 -0.3559 -0.1560  0.4661
  492SOL    HW1 1475   1.246   1.489   2.370 -1.4798 -0.5195 -1.9603
  492SOL    HW2 1476   1.380   1.453   2.275  1.5910  0.8887  2.1975
  493SOL     OW 1477   0.157   2.486   0.498  0.4463 -0.1757 -0.3068
  493SOL    HW1 1478   0.124   2.418   0.430 -2.0155 -0.1312  1.3194
  493SOL    HW2 1479   0.138   2.578   0.466  2.5432 -0.3124  0.3378
  494SOL     OW 1480   2.196   1.905   0.141 -0.5775  0.4342  0.1831
  494SOL    HW1 1481   2.224   1.986   0.090  1.5662 -2.4254  0.5044
  494SOL    HW2 1482   2.234   1.822   0.096  0.9773 -1.7827 -0.3554
  495SOL     OW 1483   2.618   1.342   2.882  0.0794 -0.1306  0.3465
  495SOL    HW1 1484   2.711   1.313   2.851 -0.6598 -0.1563 -0.9186
  495SOL    HW2 1485   2.615   1.336   2.990 -2.3388  1.1003  4.3831
  496SOL     OW 1486   2.686   0.099   1.539  0.0621  0.1248 -0.3042
  496SOL    HW1 1487   2.693   0.044   1.625 -1.4113 -0.7254  0.9062
  496SOL    HW2 1488   2.611   0.167   1.545 -0.6081  0.7839 -3.1801
  497SOL     OW 1489   2.786   1.011   0.408 -0.0668 -0.4050 -0.0771
  497SOL    HW1 1490   2.708   1.014   0.472  1.1393 -0.8647 -2.1154
  497SOL    HW2 1491   2.844   1.095   0.405  0.6448 -0.0717 -0.5592
  498SOL     OW 1492   2.892   2.223   2.499 -0.1538  0.5534 -0.1081
  498SOL    HW1 1493   2.822   2.230   2.571  0.4448 -0.3646 -1.4082
  498SOL    HW2 1494   2.899   2.127   2.460  3.7829 -0.4437 -0.6746
  499SOL     OW 1495   1.024   2.410   0.252 -0.1165  0.3550 -0.2256
  499SOL    HW1 1496   1.075   2.337   0.205 -0.1221  2.1699  3.6019
  499SOL    HW2 1497   1.077   2.457   0.327 -1.2055  1.6158  0.4428
  500SOL     OW 1498   0.910   0.152   2.650 -0.3719  0.1670 -0.2725
  500SOL    HW1 1499   0.969   0.174   2.730  1.8907  1.0372 -0.7973
  500SOL    HW2 1500   0.832   0.092   2.669 -0.2832  0.6041  1.9118
  501SOL     OW 1501   1.332   3.039   1.294  0.1764 -0.0846  0.1862
  501SOL    HW1 1502   1.414   2.984   1.311 -1.0625  0.1650 -1.7166
  501SOL    HW2 1503   1.345   0.008   1.229  0.2593  1.5149 -1.7133
  502SOL     OW 1504   3.065   0.143   2.026 -0.7663  0.0859  0.7181
  502SOL    HW1 1505   0.057   0.127   2.011  0.1457  3.2353  2.0368
  502SOL    HW2 1506   3.023   0.185   1.942 -1.6696  1.2152  0.5005
  503SOL     OW 1507   2.313   1.934   2.207 -0.1225 -0.0335  0.0803
  503SOL    HW1 1508   2.237   1.867   2.229  0.0903 -2.3358 -0.0773
  503SOL    HW2 1509   2.278   2.017   2.161 -0.2671  0.9755 -0.2776
  504SOL     OW 1510   1.470   0.661   1.881 -0.0586  0.3970 -0.6512
  504SOL    HW1 1511   1.401   0.583   1.898 -0.4121 -3.3558 -0.6417
  504SOL    HW2 1512   1.543   0.630   1.821  1.3394  0.9398  1.3524
  505SOL     OW 1513   2.789   1.019   1.501  0.5475  0.3351  0.1853
  505SOL    HW1 1514   2.846   1.087   1.551 -0.2239  1.7548 -0.1302
  505SOL    HW2 1515   2.839   0.990   1.415 -0.7299 -1.9611  1.7563
  506SOL     OW 1516   0.582   1.231   2.447  0.2021  0.9651  0.0283
  506SOL    HW1 1517   0.485   1.238   2.479  3.4669 -2.5408 -2.9974
  506SOL    HW2 1518   0.617   1.318   2.404  2.9890  0.6541  0.7582
  507SOL     OW 1519   0.439   2.931   2.336 -0.3077 -0.4942 -0.1229
  507SOL    HW1 1520   0.466   2.983   2.255 -2.6082 -1.4075  1.2725
  507SOL    HW2 1521   0.396   2.842   2.304 -2.3736  0.9360 -0.6622
  508SOL     OW 1522   1.198   0.840   1.356  0.4661  0.0010 -0.2806
  508SOL    HW1 1523   1.255   0.892   1.423  3.0382  1.5846  1.3904
  508SOL    HW2 1524   1.247   0.769   1.307 -1.4389  1.0490 -0.4945
  509SOL     OW 1525   0.845   1.763   1.619  0.2755  0.2742  0.3664
  509SOL    HW1 1526   0.828   1.809   1.710 -2.3386 -1.5259 -0.1124
  509SOL    HW2 1527   0.932   1.790   1.581 -0.1504 -0.0652  2.8689
  510SOL     OW 1528   2.523   0.805   2.344  0.3007 -0.0754 -0.7263
  510SOL    HW1 1529   2.442   0.764   2.394  0.4366 -0.8966  1.0733
  510SOL    HW2 1530   2.556   0.881   2.409 -0.6479  3.3806  2.6652
  511SOL     OW 1531   0.490   1.632   1.381 -0.4339  0.3945  0.3624
  511SOL    HW1 1532   0.421   1.702   1.404  0.0896 -0.4652  0.5981
  511SOL    HW2 1533   0.544   1.671   1.302  1.6221 -1.5924 -0.1965
  512SOL     OW 1534   2.651   2.120   0.893 -0.9609  0.3704 -0.4603
  512SOL    HW1 1535   2.705   2.194   0.852 -3.2871  0.0217 -2.1230
  512SOL    HW2 1536   2.606   2.150   0.982  3.2883 -1.3420  2.6904
  513SOL     OW 1537   2.882   1.214   2.818 -0.1504  0.3257 -0.2005
  513SOL    HW1 1538   2.938   1.267   2.751 -1.8115  0.2213  0.8199
  513SOL    HW2 1539   2.936   1.192   2.902  0.3221  0.4783 -1.1255
  514SOL     OW 1540   0.438   2.013   2.970  0.7847  0.3603  0.0633
  514SOL    HW1 1541   0.343   1.980   2.963  0.3918  0.9481 -0.0374
  514SOL    HW2 1542   0.449   2.103   2.925 -0.0217  0.2864  0.2191
  515SOL     OW 1543   1.799   1.572   2.147  0.5842  0.4945  0.1472
  515SOL    HW1 1544   1.885   1.525   2.107 -1.4317  0.1850  0.2947
  515SOL    HW2 1545   1.779   1.548   2.247  1.7033 -0.7772 -0.0436
  516SOL     OW 1546   2.009   2.233   2.966  0.5008 -0.5814 -0.0449
  516SOL    HW1 1547   2.064   2.308   3.013 -0.4061  0.5199  3.8725
  516SOL    HW2 1548   2.070   2.163   2.928 -4.5931  2.8232  3.1082
  517SOL     OW 1549   1.523   1.117   0.193 -0.6018 -0.8520  0.7209
  517SOL    HW1 1550   1.510   1.151   0.287 -1.9511  1.9059  1.3438
  517SOL    HW2 1551   1.552   1.019   0.193  0.9003  0.4892  1.0563
  518SOL     OW 1552   2.588   2.949   2.008 -0.1535 -0.3724  0.6505
  518SOL    HW1 1553   2.559   2.998   2.089  1.3203  1.5183 -2.5022
  518SOL    HW2 1554   2.542   2.863   1.993  0.2607 -0.2335 -0.6049
  519SOL     OW 1555   1.915   2.398   1.790  0.7636  0.2533 -0.4816
  519SOL    HW1 1556   1.878   2.368   1.699 -0.2772 -0.5175 -1.4490
  519SOL    HW2 1557   2.014   2.402   1.786  2.1302 -1.7317 -1.2921
  520SOL     OW 1558   2.521   2.615   2.536 -0.4566  1.0940 -0.2065
  520SOL    HW1 1559   2.487   2.708   2.531 -0.3786  3.2410  1.9101
  520SOL    HW2 1560   2.529   2.578   2.437  0.5661 -0.0572 -1.6657
  521SOL     OW 1561   0.191   1.179   2.261  0.0940 -0.4246  0.1945
  521SOL    HW1 1562   0.189   1.251   2.187  1.8504 -0.5502  1.8999
  521SOL    HW2 1563   0.102   1.176   2.309  1.8107  0.5849  0.5165
  522SOL     OW 1564   0.925   0.243   1.756 -0.6001  0.4069  0.0619
  522SOL    HW1 1565   0.947   0.333   1.802  1.7352  1.3196  0.0544
  522SOL    HW2 1566   0.843   0.252   1.695  0.9562 -0.2907 -2.0642
  523SOL     OW 1567   0.445   2.371   0.921 -0.1099 -0.0608 -0.2186
  523SOL    HW1 1568   0.510   2.328   0.851  0.6146  0.2363 -0.1576
  523SOL    HW2 1569   0.353   2.330   0.914  1.2181  4.5126  1.5665
  524SOL     OW 1570   1.385   2.599   0.714 -0.4361 -0.5960 -0.9065
  524SOL    HW1 1571   1.442   2.655   0.778 -0.8666 -2.1532  0.5821
  524SOL    HW2 1572   1.391   2.503   0.740 -1.6848  1.1827  1.0432
  525SOL     OW 1573   2.227   0.774   1.042  0.1287  0.2063 -0.3030
  525SOL    HW1 1574   2.261   0.794   1.136  0.3644 -0.4421  0.9000
  525SOL    HW2 1575   2.265   0.836   0.970  0.5734 -0.7337 -1.1036
  526SOL     OW 1576   0.927   2.457   0.832  0.1000  0.0486  0.0218
  526SOL    HW1 1577   0.881   2.398   0.759  1.2543 -2.2046 -0.6448
  526SOL    HW2 1578   0.940   2.552   0.800  1.5673  1.0807 -2.2496
  527SOL     OW 1579   2.448   2.228   0.367  0.1397  0.1310 -0.1566
  527SOL    HW1 1580   2.462   2.142   0.425 -0.2691 -2.6408  0.2453
  527SOL    HW2 1581   2.370   2.282   0.403 -0.4443  0.2559 -1.7330
  528SOL     OW 1582   2.250   0.632   0.395  0.0553  0.3434 -0.0381
  528SOL    HW1 1583   2.248   0.689   0.307 -0.3578 -0.0014 -0.0891
  528SOL    HW2 1584   2.237   0.536   0.375  1.1316 -0.2627  1.9231
  529SOL     OW 1585   1.268   1.168   2.301 -0.0743  0.1173 -0.0275
  529SOL    HW1 1586   1.191   1.155   2.361  3.1336  0.2198 -2.3272
  529SOL    HW2 1587   1.283   1.270   2.295  2.5012 -0.2183  0.0598
  530SOL     OW 1588   2.551   0.750   0.005 -0.3651  0.5934  0.6040
  530SOL    HW1 1589   2.618   0.742   3.038 -0.6716  0.6057 -0.9736
  530SOL    HW2 1590   2.590   0.805   0.082 -1.0010  0.8195  1.2814
  531SOL     OW 1591   1.196   0.912   0.190 -0.0786 -0.1602  0.6095
  531SOL    HW1 1592   1.203   0.833   0.125  3.0659  3.1347 -0.4159
  531SOL    HW2 1593   1.243   0.889   0.276  0.5903  0.0935  0.7257
  532SOL     OW 1594   2.053   0.056   0.586  0.0720  0.5321 -0.2963
  532SOL    HW1 1595   1.974   0.020   0.646  0.5437 -0.1844  1.3047
  532SOL    HW2 1596   2.102   0.136   0.635  3.2474  2.1214  0.2580
  533SOL     OW 1597   1.481   0.967   2.325  0.1993  0.8454  0.2661
  533SOL    HW1 1598   1.401   1.035   2.316 -2.1066  0.7287 -1.1305
  533SOL    HW2 1599   1.521   0.932   2.234  0.4117  2.2300 -0.1425
  534SOL     OW 1600   1.861   3.011   2.767  0.7165 -0.2462 -0.0078
  534SOL    HW1 1601   1.956   3.039   2.780 -2.0262  1.6835 -0.8339
  534SOL    HW2 1602   1.853   2.908   2.758 -3.0361 -1.9393 -0.2776
  535SOL     OW 1603   0.452   3.056   0.301 -0.0649  0.5199  0.0099
  535SOL    HW1 1604   0.487   0.021   0.364  0.1931  3.1582 -2.2847
  535SOL    HW2 1605   0.426   2.970   0.350  1.0355 -2.7934  1.8216
  536SOL     OW 1606   0.809   2.845   0.990  0.0368 -0.0338 -0.3124
  536SOL    HW1 1607   0.724   2.795   0.987  0.3754  1.1759  0.2321
  536SOL    HW2 1608   0.852   2.829   1.080 -1.1991 -0.8049  2.8896
  537SOL     OW 1609   1.558   0.899   1.095 -0.1410  0.4674  0.1798
  537SOL    HW1 1610   1.533   0.800   1.095  0.2086 -1.3136  2.4801
  537SOL    HW2 1611   1.525   0.941   1.180 -0.5429  0.2271 -0.3480
  538SOL     OW 1612   2.624   2.464   0.098  0.1502  0.0251  0.0360
  538SOL    HW1 1613   2.677   2.496   0.178  0.4640  2.3905  0.0886
  538SOL    HW2 1614   2.527   2.484   0.105  2.6546  0.6315  0.6721
  539SOL     OW 1615   2.661   1.909   2.709 -0.2298 -0.1530 -0.1258
  539SOL    HW1 1616   2.587   1.859   2.668  0.8770  1.8173  2.2291
  539SOL    HW2 1617   2.738   1.923   2.644 -2.1548 -2.3795 -0.1062
  540SOL     OW 1618   0.156   2.817   1.647 -0.0641  0.1145  0.2602
  540SOL    HW1 1619   0.185   2.722   1.640 -1.9727  0.4953  2.3244
  540SOL    HW2 1620   0.065   2.843   1.602 -1.2590  0.9237 -0.8672
  541SOL     OW 1621   2.677   3.079   1.798  0.2446 -0.2276 -0.8924
  541SOL    HW1 1622   2.700   0.065   1.823 -0.0726  1.8105  1.4338
  541SOL    HW2 1623   2.649   3.024   1.881 -1.0503  1.6525 -2.3088
  542SOL     OW 1624   3.008   0.571   2.192  0.3544  0.7060  0.2160
  542SOL    HW1 1625   2.935   0.633   2.232  0.4895  0.7599  1.8890
  542SOL    HW2 1626   3.012   0.580   2.090 -0.4410  0.5947  0.4251
  543SOL     OW 1627   1.089   0.338   0.793 -0.5079  0.6701 -0.0838
  543SOL    HW1 1628   1.087   0.421   0.736  0.8167  0.7698  1.8617
  543SOL    HW2 1629   1.092   0.255   0.738  0.4843  0.9873  1.5990
  544SOL     OW 1630   2.821   2.340   0.898  0.2479  0.9480 -0.2743
  544SOL    HW1 1631   2.862   2.301   0.813  0.1946  0.0587 -1.4303
  544SOL    HW2 1632   2.898   2.382   0.954  2.0354  0.7455  2.1736
  545SOL     OW 1633   0.899   1.525   0.423  0.0712  0.3316  0.1234
  545SOL    HW1 1634   0.943   1.601   0.367 -0.0693 -0.2095 -0.6225
  545SOL    HW2 1635   0.976   1.466   0.460  4.0545  0.3793  1.6377
  546SOL     OW 1636   2.374   0.417   1.667 -0.0490  0.2312 -0.0130
  546SOL    HW1 1637   2.305   0.347   1.697 -2.9563 -0.1223  1.1470
  546SOL    HW2 1638   2.396   0.478   1.747  0.6117 -1.0619  1.3072
  547SOL     OW 1639   0.292   0.315   2.378  0.1711 -0.3903  0.9575
  547SOL    HW1 1640   0.244   0.403   2.355 -0.4256  2.3253  0.5344
  547SOL    HW2 1641   0.234   0.262   2.439  1.8468  0.9145  0.6408
  548SOL     OW 1642   2.073   1.779   2.229 -0.1047  0.1783 -0.1292
  548SOL    HW1 1643   2.094   1.687   2.259  0.0686  0.8725  0.5446
  548SOL    HW2 1644   2.026   1.830   2.305 -2.7728 -0.2373  0.1555
  549SOL     OW 1645   0.006   0.942   0.700  0.0811  0.1949 -0.2371
  549SOL    HW1 1646   0.032   0.853   0.662  3.1625  1.8161  1.9269
  549SOL    HW2 1647   0.076   0.974   0.770 -1.1958  0.5267  1.5764
  550SOL     OW 1648   1.586   1.379   0.567 -0.0302  0.0222 -0.0285
  550SOL    HW1 1649   1.555   1.280   0.544  0.8938 -1.7772 -2.0569
  550SOL    HW2 1650   1.668   1.404   0.511  2.0169  1.7709 -0.6975
  551SOL     OW 1651   1.041   0.099   1.291  0.3236 -0.4191 -0.1168
  551SOL    HW1 1652   1.028   0.143   1.201  1.3117 -1.4527 -0.4699
  551SOL    HW2 1653   1.135   0.060   1.296  3.0115  0.4384 -0.3489
  552SOL     OW 1654   2.368   2.517   1.899  0.7603 -0.3922 -0.2149
  552SOL    HW1 1655   2.283   2.566   1.878  1.2594  0.4072 -0.2555
  552SOL    HW2 1656   2.357   2.463   1.986  2.2658 -1.5191  3.1406
  553SOL     OW 1657   3.098   0.033   0.027  0.5908 -0.5890 -0.8177
  553SOL    HW1 1658   0.082   0.071   0.052  2.0606 -0.1847  1.1786
  553SOL    HW2 1659   3.094   0.002   3.035  3.1918 -2.7847  0.7475
  554SOL     OW 1660   1.147   2.757   1.582  0.0462  0.1374  0.2246
  554SOL    HW1 1661   1.157   2.655   1.584  0.0078 -0.0774  2.2718
  554SOL    HW2 1662   1.085   2.795   1.654 -0.1452 -1.2207  2.7797
  555SOL     OW 1663   2.369   2.674   1.572 -0.5374  0.0801  0.5917
  555SOL    HW1 1664   2.294   2.675   1.634 -1.4980 -0.1387 -2.5412
  555SOL    HW2 1665   2.453   2.717   1.610 -2.6739 -3.5211  1.5396
  556SOL     OW 1666   0.955   2.971   2.949  0.0909  0.0737 -0.0099
  556SOL    HW1 1667   1.051   2.967   2.908  0.9910 -2.2801  2.4721
  556SOL    HW2 1668   0.954   2.928   3.043 -2.0793  0.2774  2.3016
  557SOL     OW 1669   0.142   2.086   2.423 -0.0377  0.1451  0.6984
  557SOL    HW1 1670   0.226   2.033   2.406  0.1491  0.8788 -2.3989
  557SOL    HW2 1671   0.064   2.064   2.364  1.0253  1.4379  1.1402
  558SOL     OW 1672   2.312   1.215   2.604 -0.3143  0.3659 -0.7678
  558SOL    HW1 1673   2.374   1.175   2.677  1.5282  1.5928 -1.3290
  558SOL    HW2 1674   2.290   1.313   2.625 -1.8290 -0.5273  1.1176
  559SOL     OW 1675   2.394   2.342   2.133 -0.3307  0.3968 -0.7940
  559SOL    HW1 1676   2.474   2.300   2.174  0.2586  3.0666 -0.9715
  559SOL    HW2 1677   2.319   2.279   2.150 -1.7368  3.8658  1.1099
  560SOL     OW 1678   0.144   0.537   2.300  0.0948  0.1002 -0.2642
  560SOL    HW1 1679   0.173   0.628   2.336  1.8256  0.4007  0.9538
  560SOL    HW2 1680   0.052   0.556   2.264  1.7392  0.0666 -0.0703
  561SOL     OW 1681   0.720   0.469   0.462  0.7265 -0.1154  0.5210
  561SOL    HW1 1682   0.686   0.426   0.547  0.8012  4.2179 -1.5485
  561SOL    HW2 1683   0.786   0.407   0.417 -1.7891 -3.7523  3.1530
  562SOL     OW 1684   0.814   1.451   1.765  0.5045 -0.5462  0.2078
  562SOL    HW1 1685   0.780   1.466   1.669  0.3202 -1.4610  0.3211
  562SOL    HW2 1686   0.754   1.394   1.825  1.4507 -0.8526  1.3317
  563SOL     OW 1687   1.510   2.828   0.101 -0.1789  0.0785  1.0340
  563SOL    HW1 1688   1.516   2.893   0.177  0.0393 -2.9519 -3.0290
  563SOL    HW2 1689   1.415   2.835   0.056 -0.2841  0.1182 -1.9931
  564SOL     OW 1690   0.083   1.906   0.603  0.0177  0.1348 -0.2350
  564SOL    HW1 1691   0.159   1.914   0.537 -0.7619 -0.0164  0.9006
  564SOL    HW2 1692   0.118   1.946   0.690 -0.4636 -0.8558  1.0354
  565SOL     OW 1693   0.455   2.331   2.428 -0.5357  0.2673  0.2841
  565SOL    HW1 1694   0.454   2.315   2.326 -0.1749  0.4085 -0.5689
  565SOL    HW2 1695   0.526   2.396   2.457 -0.2521  1.7619 -2.1958
  566SOL     OW 1696   1.384   2.699   2.425 -0.0781 -0.7034  0.0160
  566SOL    HW1 1697   1.403   2.647   2.505  0.6937  2.3714 -2.1245
  566SOL    HW2 1698   1.396   2.640   2.342  0.3520  1.0794  0.2809
  567SOL     OW 1699   1.806   2.036   1.060  0.0071  0.1451  0.3842
  567SOL    HW1 1700   1.733   2.098   1.025  2.1162 -0.7951  0.8251
  567SOL    HW2 1701   1.827   1.957   0.999  1.2122 -1.4780 -0.9894
  568SOL     OW 1702   2.190   0.825   0.206  0.0842 -0.5535  0.3848
  568SOL    HW1 1703   2.158   0.851   0.110  0.2364 -0.5829  0.6933
  568SOL    HW2 1704   2.116   0.817   0.276 -0.1011  0.4470  1.7255
  569SOL     OW 1705   2.708   1.327   2.544  0.3194 -0.0170 -0.0045
  569SOL    HW1 1706   2.767   1.361   2.620 -1.2923 -0.7645  1.1258
  569SOL    HW2 1707   2.754   1.263   2.479  0.6196 -2.6292  0.2065
  570SOL     OW 1708   2.751   2.785   1.429  0.0932 -0.1214  0.0639
  570SOL    HW1 1709   2.681   2.779   1.505 -3.2431 -0.3316  0.1227
  570SOL    HW2 1710   2.724   2.714   1.363 -0.1446 -1.2601  0.4379
  571SOL     OW 1711   0.154   0.631   1.762 -0.0191  0.4737 -0.5593
  571SOL    HW1 1712   0.139   0.540   1.805  0.3318 -1.0485 -1.4183
  571SOL    HW2 1713   0.183   0.617   1.666 -2.1627  0.0798  2.8270
  572SOL     OW 1714   2.986   2.214   0.710 -0.4779 -0.3008 -0.0194
  572SOL    HW1 1715   3.068   2.275   0.699 -0.0104 -1.0285  0.8529
  572SOL    HW2 1716   3.001   2.131   0.766  2.6579 -2.2851 -1.3603
  573SOL     OW 1717   0.889   0.867   0.025  0.2249  0.3796  0.4269
  573SOL    HW1 1718   0.900   0.956   0.073 -0.3842 -1.1445 -1.2843
  573SOL    HW2 1719   0.790   0.849   0.009  1.1315  0.2162 -0.6524
  574SOL     OW 1720   2.601   2.700   2.989 -0.0541 -0.7724 -0.1802
  574SOL    HW1 1721   2.677   2.757   3.016 -0.8607  1.0484  2.2510
  574SOL    HW2 1722   2.605   2.617   3.050  0.0729 -0.2156  0.3818
  575SOL     OW 1723   1.040   1.827   1.453  0.1223  0.2055 -0.7863
  575SOL    HW1 1724   0.981   1.830   1.370  1.0859 -0.3373 -0.7928
  575SOL    HW2 1725   1.112   1.900   1.450  1.3723  0.2023  1.7581
  576SOL     OW 1726   2.958   2.939   1.514  0.9199  0.6411  0.1469
  576SOL    HW1 1727   2.958   3.024   1.459 -0.0321 -0.1631  3.6952
  576SOL    HW2 1728   2.876   2.880   1.489 -0.6855 -1.3590  2.4931
  577SOL     OW 1729   2.032   1.382   1.531  0.2150  0.6329  0.0579
  577SOL    HW1 1730   1.962   1.416   1.593 -3.3116  0.1272 -2.1121
  577SOL    HW2 1731   1.987   1.366   1.445  3.1330  2.1552  1.3265
  578SOL     OW 1732   1.402   0.006   2.983 -0.2571 -0.5616  0.1509
  578SOL    HW1 1733   1.468   3.051   2.946 -2.4402  1.1477  0.8568
  578SOL    HW2 1734   1.382   0.082   2.919  2.2261  1.1159  1.0879
  579SOL     OW 1735   2.621   1.690   2.380  0.1631  0.0434  0.0579
  579SOL    HW1 1736   2.568   1.612   2.419  0.8361  3.1135  0.0315
  579SOL    HW2 1737   2.713   1.660   2.344  0.4401  1.4575 -0.1534
  580SOL     OW 1738   1.384   0.878   1.539 -0.1438  0.3186 -0.2497
  580SOL    HW1 1739   1.365   0.876   1.638  2.0507 -1.2977 -0.2881
  580SOL    HW2 1740   1.413   0.780   1.519 -0.8566 -1.4525  0.4964
  581SOL     OW 1741   0.709   1.546   1.525 -0.0897  0.3031  0.5921
  581SOL    HW1 1742   0.619   1.577   1.497  0.2385  1.0124 -0.0530
  581SOL    HW2 1743   0.753   1.627   1.569 -1.1650 -1.5995  2.6870
  582SOL     OW 1744   2.832   2.791   1.991  0.2565  0.5733  0.0343
  582SOL    HW1 1745   2.877   2.873   2.026  0.2627 -2.9300 -0.9693
  582SOL    HW2 1746   2.733   2.821   1.981  0.3657 -0.3745  2.3260
  583SOL     OW 1747   2.109   1.003   1.491  0.3262 -0.3598 -0.2486
  583SOL    HW1 1748   2.172   0.923   1.511 -1.5963 -0.5780  0.3644
  583SOL    HW2 1749   2.157   1.091   1.505 -0.2651 -1.7222 -3.1453
  584SOL     OW 1750   1.362   2.177   3.050 -0.0934  0.5725  0.7674
  584SOL    HW1 1751   1.298   2.132   2.989  2.0373 -0.4693  0.5450
  584SOL    HW2 1752   1.332   2.160   0.036  2.4750  0.1557  0.0100
  585SOL     OW 1753   0.395   2.801   0.444  0.1022  0.2629 -0.1022
  585SOL    HW1 1754   0.295   2.783   0.449  2.3053  0.4954  0.7541
  585SOL    HW2 1755   0.446   2.722   0.404  1.6304  0.3655  0.4630
  586SOL     OW 1756   1.906   2.354   2.639 -0.3277  0.4446  0.0473
  586SOL    HW1 1757   1.845   2.305   2.709 -2.7684  0.3231  4.3413
  586SOL    HW2 1758   1.877   2.327   2.543 -0.8805 -4.0395 -3.3065
  587SOL     OW 1759   2.589   1.854   0.290 -0.6594  0.5129 -0.0186
  587SOL    HW1 1760   2.661   1.906   0.243 -1.3739 -1.5038 -0.6602
  587SOL    HW2 1761   2.554   1.909   0.368  0.3914  0.3465 -1.1246
  588SOL     OW 1762   2.044   0.214   1.051 -0.1140  0.1893 -0.3475
  588SOL    HW1 1763   1.985   0.260   0.980  1.9351  0.5239  0.8542
  588SOL    HW2 1764   2.130   0.173   1.006  0.4237 -0.0784 -1.0174
  589SOL     OW 1765   1.113   0.581   0.681  0.1459 -0.2756  0.4617
  589SOL    HW1 1766   1.176   0.550   0.605  0.2464  1.4325  1.0423
  589SOL    HW2 1767   1.060   0.665   0.646 -2.2113  1.1009 -1.3556
  590SOL     OW 1768   2.277   2.142   0.019 -0.3109 -0.1302 -0.0293
  590SOL    HW1 1769   2.271   2.130   3.028 -1.8129 -1.4002  3.6248
  590SOL    HW2 1770   2.374   2.172   0.040  0.4880 -0.4588  0.3421
  591SOL     OW 1771   0.252   2.550   1.624  0.4145 -0.0589 -0.1758
  591SOL    HW1 1772   0.210   2.489   1.552  0.7947  0.6943 -1.4797
  591SOL    HW2 1773   0.222   2.522   1.721 -1.4102 -2.4980  0.5224
  592SOL     OW 1774   0.739   1.084   1.363 -0.4693 -0.0831  0.1086
  592SOL    HW1 1775   0.688   1.157   1.409 -0.2020 -1.7621  0.7381
  592SOL    HW2 1776   0.834   1.073   1.399 -0.7595 -2.6346  0.9951
  593SOL     OW 1777   0.801   1.489   1.267 -0.4474 -0.3442  0.2821
  593SOL    HW1 1778   0.895   1.454   1.272  0.2828  0.0331  1.3166
  593SOL    HW2 1779   0.774   1.529   1.354  1.0609  2.3575  1.2489
  594SOL     OW 1780   0.627   1.835   2.968 -0.5339  0.2190  0.2547
  594SOL    HW1 1781   0.608   1.820   2.870 -0.4742  1.0091  1.5333
  594SOL    HW2 1782   0.553   1.898   2.994  1.2789  0.7902 -1.8791
  595SOL     OW 1783   1.343   0.174   1.170 -0.2978 -0.0448 -0.4392
  595SOL    HW1 1784   1.260   0.224   1.135 -0.3509 -0.7021 -0.3266
  595SOL    HW2 1785   1.391   0.217   1.248  0.9025  0.0162  2.7782
  596SOL     OW 1786   0.167   1.351   0.678  0.0414  0.0686  0.1032
  596SOL    HW1 1787   0.079   1.305   0.656  1.6385  0.7152  1.7422
  596SOL    HW2 1788   0.251   1.301   0.644 -0.7516  1.8399 -1.0808
  597SOL     OW 1789   0.268   2.390   2.964  0.2446  0.4243 -0.3824
  597SOL    HW1 1790   0.199   2.330   2.922 -0.0701 -0.3061 -1.7151
  597SOL    HW2 1791   0.237   2.424   3.057  0.3368 -2.7987  0.4508
  598SOL     OW 1792   2.385   2.050   1.959  0.2393  0.0231  0.0054
  598SOL    HW1 1793   2.455   2.123   1.954  0.9423  1.5361 -0.1762
  598SOL    HW2 1794   2.392   1.990   1.877 -0.9315  0.3150  0.1030
  599SOL     OW 1795   1.127   0.390   0.309  0.4252 -0.3254 -0.0996
  599SOL    HW1 1796   1.097   0.438   0.223  1.1936 -0.4774  1.8925
  599SOL    HW2 1797   1.052   0.380   0.380  2.3031 -2.0429  1.0495
  600SOL     OW 1798   0.571   2.775   0.651  0.4233  0.0700  0.2749
  600SOL    HW1 1799   0.497   2.789   0.579  0.4600 -2.0436 -1.3315
  600SOL    HW2 1800   0.633   2.696   0.636  1.4725 -0.5261  2.3481
  601SOL     OW 1801   0.333   1.020   1.263 -0.1294  0.2972  0.2780
  601SOL    HW1 1802   0.430   1.044   1.247  1.5791 -1.8343 -0.0030
  601SOL    HW2 1803   0.309   0.936   1.210 -0.2451 -1.8776  0.9641
  602SOL     OW 1804   0.590   2.642   0.940  0.0865 -0.3249  0.1681
  602SOL    HW1 1805   0.504   2.633   0.994 -1.0174 -0.2615 -0.8134
  602SOL    HW2 1806   0.560   2.637   0.840 -1.5841 -0.6961  1.7040
  603SOL     OW 1807   0.977   3.047   2.317 -0.3429 -0.2944  0.9359
  603SOL    HW1 1808   0.890   3.087   2.346  3.4375 -2.4187  0.7815
  603SOL    HW2 1809   0.971   3.016   2.219 -0.7128 -0.6886  2.1518
  604SOL     OW 1810   0.780   2.855   2.525 -0.4066  0.4614 -0.0558
  604SOL    HW1 1811   0.859   2.855   2.592 -3.3168 -0.9400 -1.3161
  604SOL    HW2 1812   0.764   2.947   2.482 -2.3936  1.8504 -1.2055
  605SOL     OW 1813   1.777   0.642   2.088  0.3978 -0.1881 -0.5385
  605SOL    HW1 1814   1.734   0.730   2.110 -1.1937  0.5020 -1.2322
  605SOL    HW2 1815   1.877   0.651   2.110  1.2512 -2.4004  3.1232
  606SOL     OW 1816   2.288   0.196   2.751  0.0587 -0.4123  0.2839
  606SOL    HW1 1817   2.251   0.277   2.799  2.3645 -1.2680  0.1487
  606SOL    HW2 1818   2.290   0.209   2.652  1.2062  0.5472  2.4609
  607SOL     OW 1819   0.828   0.635   1.199  0.2372  0.0637 -0.3347
  607SOL    HW1 1820   0.823   0.665   1.101 -1.2734  0.4098  0.0696
  607SOL    HW2 1821   0.755   0.674   1.256  1.2123 -2.1505 -1.0071
  608SOL     OW 1822   2.973   2.060   2.258 -0.2482  0.2354  0.3745
  608SOL    HW1 1823   3.043   2.120   2.221  0.7269 -1.7913  0.6294
  608SOL    HW2 1824   2.924   2.014   2.186  0.7985  0.1869  2.7004
  609SOL     OW 1825   1.793   0.766   0.016  0.3840 -0.6106  0.0492
  609SOL    HW1 1826   1.817   0.703   0.090  0.1983  0.0830 -1.6503
  609SOL    HW2 1827   1.711   0.820   0.037  4.0846 -1.4497 -0.5358
  610SOL     OW 1828   0.817   0.028   1.444  0.1711  0.2740 -0.3234
  610SOL    HW1 1829   0.756   3.096   1.370 -1.3417 -1.3967 -0.7365
  610SOL    HW2 1830   0.917   0.038   1.415  3.7880  0.6632 -0.0675
  611SOL     OW 1831   1.623   0.520   0.352 -0.1092  0.2441  0.6500
  611SOL    HW1 1832   1.601   0.465   0.432  0.9300 -0.7111 -0.7137
  611SOL    HW2 1833   1.578   0.493   0.264  0.0614  0.1356  2.0871
  612SOL     OW 1834   1.731   0.689   2.851  0.1028 -0.2714 -0.4682
  612SOL    HW1 1835   1.815   0.703   2.796  2.2954 -0.3193 -0.0004
  612SOL    HW2 1836   1.742   0.713   2.951 -1.2824  0.7679 -0.3012
  613SOL     OW 1837   2.428   0.744   0.624 -0.0592  0.1823 -0.6176
  613SOL    HW1 1838   2.351   0.706   0.567  0.9778  0.3635 -1.5271
  613SOL    HW2 1839   2.500   0.673   0.647 -0.3712  0.0208  0.1581
  614SOL     OW 1840   2.528   0.042   2.188 -0.7344  0.3970 -0.4121
  614SOL    HW1 1841   2.554   0.139   2.186 -0.8196 -1.2292  1.2013
  614SOL    HW2 1842   2.590   3.104   2.254 -2.0965 -0.6613 -0.2597
  615SOL     OW 1843   0.630   1.842   1.196 -0.1421 -0.5822  0.5359
  615SOL    HW1 1844   0.625   1.863   1.296 -2.0873 -1.8018  3.9833
  615SOL    HW2 1845   0.536   1.863   1.154 -3.2173  1.7765  0.2910
  616SOL     OW 1846   1.541   1.477   2.732 -0.5498 -0.1244  0.3726
  616SOL    HW1 1847   1.506   1.564   2.688 -0.4614 -1.5970 -2.5146
  616SOL    HW2 1848   1.593   1.425   2.663  0.6888 -0.2495  2.5542
  617SOL     OW 1849   1.794   3.084   0.068  0.2909  0.7299 -0.6493
  617SOL    HW1 1850   1.782   3.019   0.146 -2.2087  2.1923  1.0850
  617SOL    HW2 1851   1.881   3.080   0.017 -1.4974  0.5308 -1.4046
  618SOL     OW 1852   1.083   1.949   2.595 -0.0441 -0.1667 -0.0242
  618SOL    HW1 1853   1.054   1.883   2.526 -1.0354  3.1100  1.4515
  618SOL    HW2 1854   1.000   1.982   2.644 -0.9989  0.4883  1.6021
  619SOL     OW 1855   2.704   1.149   0.776 -0.4910  0.1873 -0.0837
  619SOL    HW1 1856   2.673   1.204   0.699  0.3762 -2.7290  1.1076
  619SOL    HW2 1857   2.683   1.046   0.769 -0.1874 -3.1060 -1.2162
  620SOL     OW 1858   2.283   2.886   2.272  0.0487 -0.3338  0.1979
  620SOL    HW1 1859   2.227   2.826   2.334  0.6293  1.5107  0.5563
  620SOL    HW2 1860   2.254   2.985   2.279  0.5055 -0.6061 -0.2610
  621SOL     OW 1861   2.812   1.410   0.381  0.0238  0.0788 -1.0104
  621SOL    HW1 1862   2.818   1.400   0.278 -1.0119 -1.8097 -1.7254
  621SOL    HW2 1863   2.904   1.398   0.424 -2.7377 -1.2425  1.9607
  622SOL     OW 1864   1.212   2.213   2.554 -0.1824 -0.2128  0.6203
  622SOL    HW1 1865   1.167   2.123   2.561 -0.5551 -0.3935 -1.3325
  622SOL    HW2 1866   1.288   2.195   2.486  0.1988  3.8397 -1.1393
  623SOL     OW 1867   0.303   2.639   2.744  0.0790  0.5053 -0.4753
  623SOL    HW1 1868   0.388   2.651   2.689 -0.0871  0.9174 -2.9271
  623SOL    HW2 1869   0.298   2.546   2.784 -0.0187  0.2194 -0.9000
  624SOL     OW 1870   0.794   2.640   2.831 -0.4756 -0.1893  0.0991
  624SOL    HW1 1871   0.875   2.664   2.775 -0.8749 -1.2803  0.6386
  624SOL    HW2 1872   0.752   2.724   2.870  1.9150  1.1889 -1.4318
  625SOL     OW 1873   0.745   2.200   2.509 -0.4658 -0.8427  0.0069
  625SOL    HW1 1874   0.723   2.301   2.529 -0.2995  3.3037 -3.0377
  625SOL    HW2 1875   0.798   2.191   2.422 -1.2269 -3.0987 -1.5987
  626SOL     OW 1876   3.104   0.491   0.091  0.1424 -0.4677 -0.1589
  626SOL    HW1 1877   3.033   0.423   0.109 -1.2570  1.3155  0.7336
  626SOL    HW2 1878   3.089   0.553   0.014  1.1213  0.0549  1.5478
  627SOL     OW 1879   1.916   1.830   3.073 -0.2386  0.4595  0.3155
  627SOL    HW1 1880   1.958   1.784   2.996  0.3820  1.7735 -1.4994
  627SOL    HW2 1881   1.963   1.918   3.096  1.4831  0.5539  1.7398
  628SOL     OW 1882   1.416   1.372   2.941  0.4911  0.3789 -0.0276
  628SOL    HW1 1883   1.432   1.272   2.967 -0.6383  1.2332 -1.5403
  628SOL    HW2 1884   1.476   1.404   2.867 -2.3619 -0.2947 -0.5151
  629SOL     OW 1885   0.226   0.137   1.968 -0.0421 -0.5687  0.3831
  629SOL    HW1 1886   0.280   0.050   1.952  0.8514 -0.9178  0.6595
  629SOL    HW2 1887   0.287   0.194   2.028  0.7325 -0.6835  0.5489
  630SOL     OW 1888   2.299   0.942   2.014  0.2647  0.7385 -0.0162
  630SOL    HW1 1889   2.381   0.996   1.994 -0.6190 -0.1393 -0.1648
  630SOL    HW2 1890   2.305   0.839   1.988  0.6784 -2.7309  1.2926
  631SOL     OW 1891   1.554   3.007   0.763  0.2467  0.2206 -0.0470
  631SOL    HW1 1892   1.479   3.073   0.771 -2.0018 -1.3944  2.2513
  631SOL    HW2 1893   1.583   2.993   0.666 -0.7999  0.1233 -3.2790
  632SOL     OW 1894   3.006   0.972   1.736  0.1213 -0.0817  0.1977
  632SOL    HW1 1895   3.002   1.068   1.700 -0.9915 -1.7212 -1.1847
  632SOL    HW2 1896   2.987   0.901   1.665  0.0064 -2.8471  0.5239
  633SOL     OW 1897   0.789   0.377   2.969  0.3050 -1.0118 -0.3826
  633SOL    HW1 1898   0.811   0.287   3.012 -3.2547 -2.2120  0.0752
  633SOL    HW2 1899   0.860   0.399   2.893  0.6398 -0.8523 -1.9167
  634SOL     OW 1900   0.579   2.434   0.102 -0.8073 -0.5123  0.0494
  634SOL    HW1 1901   0.504   2.499   0.071  1.1236  2.1135 -0.5389
  634SOL    HW2 1902   0.649   2.425   0.026 -0.2649  0.5934 -0.0591
  635SOL     OW 1903   3.059   0.990   1.062  0.0017  0.7297  0.1021
  635SOL    HW1 1904   3.032   1.063   0.995 -2.1899  1.5790 -3.5162
  635SOL    HW2 1905   0.005   0.924   1.011 -2.7048 -0.4675 -0.3956
  636SOL     OW 1906   3.008   1.409   0.165 -0.4697 -0.0187 -0.5396
  636SOL    HW1 1907   3.000   1.435   0.072 -1.7314  1.4177  2.4981
  636SOL    HW2 1908   3.088   1.452   0.202 -1.4400 -0.1122 -0.9382
  637SOL     OW 1909   0.125   2.758   0.415  0.0456 -0.0950  0.0563
  637SOL    HW1 1910   0.095   2.816   0.333  0.5891 -2.2732  1.2767
  637SOL    HW2 1911   0.078   2.791   0.498  1.4870  2.0548 -0.4317
  638SOL     OW 1912   2.850   2.350   0.504 -0.4130 -0.2188  0.0553
  638SOL    HW1 1913   2.894   2.325   0.590 -0.3268  0.8005  0.0679
  638SOL    HW2 1914   2.748   2.334   0.509  0.6531  0.5831 -1.5079
  639SOL     OW 1915   1.558   0.845   0.093  0.2704  0.3009 -0.1983
  639SOL    HW1 1916   1.477   0.826   0.033  1.4057 -1.0663  0.8462
  639SOL    HW2 1917   1.546   0.811   0.187 -0.3096 -0.6339 -1.6486
  640SOL     OW 1918   1.733   2.317   1.574 -0.2412  0.1792  0.0923
  640SOL    HW1 1919   1.660   2.312   1.641  3.4832  2.5367  0.3119
  640SOL    HW2 1920   1.703   2.331   1.476  2.7247  0.0812  0.3297
  641SOL     OW 1921   0.078   3.084   0.853  0.0513 -0.1106 -0.6489
  641SOL    HW1 1922   0.094   0.041   0.775 -2.8219 -3.9739  0.7514
  641SOL    HW2 1923   0.039   0.028   0.931 -1.8872  0.0102  0.8374
  642SOL     OW 1924   1.298   0.833   1.785 -0.7570 -0.3973  0.9160
  642SOL    HW1 1925   1.359   0.760   1.819 -1.1784  2.3938 -2.8727
  642SOL    HW2 1926   1.322   0.925   1.821 -0.1433  1.1360  1.4797
  643SOL     OW 1927   0.667   2.463   2.504 -0.2080 -0.0245 -0.2172
  643SOL    HW1 1928   0.705   2.496   2.594  0.8064  1.1701 -2.7945
  643SOL    HW2 1929   0.695   2.534   2.438  0.9654  0.4365  0.0720
  644SOL     OW 1930   1.207   2.591   2.850  0.4235 -0.2708 -0.6090
  644SOL    HW1 1931   1.177   2.562   2.755  1.4003  0.7376 -1.4999
  644SOL    HW2 1932   1.281   2.533   2.890 -2.6715 -1.0310 -0.9517
  645SOL     OW 1933   1.544   1.507   1.897  0.1579 -0.2303  0.0595
  645SOL    HW1 1934   1.597   1.452   1.961  1.2401  1.1434  0.3487
  645SOL    HW2 1935   1.544   1.456   1.813 -1.9634 -0.3008 -0.9490
  646SOL     OW 1936   0.736   0.154   0.201 -0.0631 -0.4293  0.6082
  646SOL    HW1 1937   0.680   0.114   0.275 -0.1084  1.5727  1.8766
  646SOL    HW2 1938   0.667   0.193   0.137 -1.8868  2.0364  0.1692
  647SOL     OW 1939   0.815   0.126   0.635 -0.9411  0.7507 -0.4779
  647SOL    HW1 1940   0.825   0.031   0.595  0.3487 -0.8379  0.3834
  647SOL    HW2 1941   0.828   0.127   0.732 -0.5919  1.0444 -1.5598
  648SOL     OW 1942   2.444   2.611   1.134  0.3544  0.3218 -0.6870
  648SOL    HW1 1943   2.430   2.715   1.122  0.7712  0.5500 -0.0997
  648SOL    HW2 1944   2.437   2.562   1.045  1.0789 -1.2737 -1.3385
  649SOL     OW 1945   0.780   2.080   2.978 -0.1076 -0.5152 -0.0486
  649SOL    HW1 1946   0.836   2.037   3.051  1.4188 -0.7513 -1.0076
  649SOL    HW2 1947   0.709   2.017   2.950 -0.9533 -3.1088 -2.1094
  650SOL     OW 1948   2.073   1.878   1.984  0.2663 -0.3198 -0.6438
  650SOL    HW1 1949   2.059   1.836   2.078  0.3079  0.4973  0.5524
  650SOL    HW2 1950   2.170   1.881   1.957 -0.0873  0.8591 -1.0355
  651SOL     OW 1951   3.103   2.958   2.429  0.1932  0.2410  0.1973
  651SOL    HW1 1952   0.081   3.001   2.463  0.2830 -2.6237 -0.4676
  651SOL    HW2 1953   3.017   2.991   2.473 -1.5955  1.0588 -0.7020
  652SOL     OW 1954   2.728   1.729   0.523  0.2639  0.3238 -0.2507
  652SOL    HW1 1955   2.709   1.799   0.596  0.0641 -0.9904 -0.3354
  652SOL    HW2 1956   2.667   1.743   0.448 -0.7145  0.1039  3.5997
  653SOL     OW 1957   2.600   0.631   1.294 -0.7361 -0.0027  0.4040
  653SOL    HW1 1958   2.500   0.658   1.300 -1.4578  1.0918 -0.2796
  653SOL    HW2 1959   2.607   0.526   1.279 -0.7176 -1.7312 -1.3830
  654SOL     OW 1960   0.867   0.135   3.066  0.4764 -0.5208  0.2459
  654SOL    HW1 1961   0.923   0.050   3.047 -1.1851 -0.5809  0.5135
  654SOL    HW2 1962   0.829   0.134   0.055  0.8872  1.3438  0.9383
  655SOL     OW 1963   0.635   2.957   1.277  0.0318 -0.0388 -0.1379
  655SOL    HW1 1964   0.616   3.015   1.197 -1.2130 -1.4458  3.0600
  655SOL    HW2 1965   0.712   2.893   1.260  0.6087  0.1405 -1.0840
  656SOL     OW 1966   0.085   2.848   2.179  0.2127 -0.2657  0.3940
  656SOL    HW1 1967   0.182   2.812   2.178 -0.5897 -1.0463  0.0264
  656SOL    HW2 1968   0.057   2.881   2.271  0.8200  2.7264  0.5602
  657SOL     OW 1969   2.430   0.520   0.126 -0.2227  0.0314 -0.2523
  657SOL    HW1 1970   2.467   0.523   0.221  0.7013 -0.9425  0.7546
  657SOL    HW2 1971   2.481   0.588   0.065 -0.6515  1.7152 -1.5681
  658SOL     OW 1972   2.005   1.610   1.162 -0.3195 -0.4700 -0.1902
  658SOL    HW1 1973   2.061   1.533   1.134  1.6669  2.2630  0.4314
  658SOL    HW2 1974   2.041   1.703   1.130 -0.3088  1.8347  1.3907
  659SOL     OW 1975   2.726   2.247   2.740 -0.6494 -0.3925 -0.2905
  659SOL    HW1 1976   2.709   2.347   2.762 -1.7934 -1.0752  0.1363
  659SOL    HW2 1977   2.775   2.204   2.816 -2.6384  2.1663 -0.1384
  660SOL     OW 1978   1.150   0.066   0.011 -0.0009  0.9238  0.1541
  660SOL    HW1 1979   1.237   0.027   3.086  1.3653  0.4018  0.4202
  660SOL    HW2 1980   1.113   0.130   3.050 -2.3954 -2.9327  1.5474
  661SOL     OW 1981   2.371   0.055   0.434 -0.0748  0.5017  0.3958
  661SOL    HW1 1982   2.318   0.134   0.464  1.7173 -3.0283  0.2994
  661SOL    HW2 1983   2.436   0.071   0.353  1.1565 -1.1308 -1.0722
  662SOL     OW 1984   0.485   0.335   1.042  0.4122 -0.2657 -0.0634
  662SOL    HW1 1985   0.582   0.308   1.049  0.6801 -2.0223 -1.1868
  662SOL    HW2 1986   0.434   0.288   0.970  1.6263  0.8819 -0.7470
  663SOL     OW 1987   1.505   2.947   2.429 -0.1701  0.2248  0.3355
  663SOL    HW1 1988   1.450   2.863   2.438  0.6850 -1.5371 -0.8381
  663SOL    HW2 1989   1.600   2.926   2.409 -2.7416  0.4812 -0.8064
  664SOL     OW 1990   0.664   2.275   1.706 -0.5477 -0.3927 -0.0391
  664SOL    HW1 1991   0.605   2.249   1.627  0.6359 -1.1859 -1.5361
  664SOL    HW2 1992   0.705   2.371   1.691  0.8672  5.8123  2.1558
  665SOL     OW 1993   0.694   2.490   1.938 -0.1306  0.8557 -0.2436
  665SOL    HW1 1994   0.656   2.401   1.904 -0.4759 -3.8148 -0.6602
  665SOL    HW2 1995   0.789   2.510   1.899  1.9302  2.1076 -1.6281
  666SOL     OW 1996   0.099   2.795   2.693 -0.2303  0.1224 -0.3938
  666SOL    HW1 1997   0.121   2.894   2.682  2.6235 -1.3244 -2.1208
  666SOL    HW2 1998   0.186   2.746   2.709 -0.5513 -0.9099  0.8030
  667SOL     OW 1999   1.513   1.619   1.529 -0.3622  0.2188  0.2219
  667SOL    HW1 2000   1.425   1.659   1.560 -3.3080  1.1038 -1.2510
  667SOL    HW2 2001   1.540   1.653   1.435  0.9102  2.3440 -1.2896
  668SOL     OW 2002   1.274   0.457   1.872 -0.2062 -0.0812 -0.8147
  668SOL    HW1 2003   1.291   0.358   1.854 -1.3012  0.6332  1.5622
  668SOL    HW2 2004   1.192   0.489   1.821 -1.9275  0.1849 -2.7855
  669SOL     OW 2005   2.701   2.321   1.324 -0.2617  0.0227  0.3406
  669SOL    HW1 2006   2.657   2.305   1.232 -1.1820 -2.1259 -0.0705
  669SOL    HW2 2007   2.645   2.383   1.377  0.4441 -1.7078 -2.3617
  670SOL     OW 2008   1.406   2.434   2.989  0.0722 -0.1631 -0.1816
  670SOL    HW1 2009   1.376   2.341   3.014  1.8280  1.8477 -0.2577
  670SOL    HW2 2010   1.416   2.488   3.079 -2.3732 -0.3978  0.5269
  671SOL     OW 2011   1.327   1.030   0.668 -0.0363  0.8620  0.3002
  671SOL    HW1 2012   1.337   1.016   0.769 -1.2616  0.8846 -1.7005
  671SOL    HW2 2013   1.302   0.949   0.613 -0.0964  1.2058 -3.2233
  672SOL     OW 2014   3.007   1.384   2.649 -0.5087  0.1301  0.1378
  672SOL    HW1 2015   2.952   1.459   2.686 -0.3196 -1.0458 -1.7038
  672SOL    HW2 2016   3.085   1.426   2.593 -3.0126 -1.6135 -0.4901
  673SOL     OW 2017   0.062   1.941   1.599 -0.1515  0.2479  0.0667
  673SOL    HW1 2018   3.090   2.003   1.620  1.3636  0.8068  0.8245
  673SOL    HW2 2019   0.040   1.840   1.609 -1.8215  0.1243  1.2901
  674SOL     OW 2020   0.334   2.712   2.220 -0.3863  0.1505 -0.1211
  674SOL    HW1 2021   0.282   2.669   2.294 -0.5167 -2.5613 -0.8680
  674SOL    HW2 2022   0.422   2.663   2.210 -1.9413  0.4729  0.1187
  675SOL     OW 2023   0.830   1.066   1.815 -0.1609  0.6563  0.2037
  675SOL    HW1 2024   0.742   1.101   1.777  1.2909  0.6782  1.0820
  675SOL    HW2 2025   0.838   1.043   1.914  0.0222 -0.1341  0.3911
  676SOL     OW 2026   2.467   0.474   0.999  0.0805  0.4230  0.3111
  676SOL    HW1 2027   2.506   0.570   1.005  3.1386  3.1282 -0.8164
  676SOL    HW2 2028   2.520   0.412   1.062  1.2301  0.0901 -2.0466
  677SOL     OW 2029   2.287   1.694   3.069  0.3097 -0.5767  0.1284
  677SOL    HW1 2030   2.196   1.689   3.022  0.2179  2.0158  1.8949
  677SOL    HW2 2031   2.353   1.634   3.017  0.8310 -1.9015 -0.6940
  678SOL     OW 2032   2.742   0.798   1.144  0.3572  0.3131  0.1271
  678SOL    HW1 2033   2.704   0.724   1.203 -1.9380  0.3671  0.5846
  678SOL    HW2 2034   2.800   0.861   1.198  1.9661 -2.3848 -2.0260
  679SOL     OW 2035   2.527   0.255   0.332 -0.0173  0.1985  0.2662
  679SOL    HW1 2036   2.586   0.255   0.416 -0.7519  0.2016 -0.7744
  679SOL    HW2 2037   2.435   0.290   0.351  0.9199  0.1265 -1.8206
  680SOL     OW 2038   0.228   1.777   2.094  0.0758 -0.3843 -0.0599
  680SOL    HW1 2039   0.321   1.762   2.055  0.0968 -1.3958 -2.1673
  680SOL    HW2 2040   0.224   1.772   2.196 -2.3533  0.2737  2.2360
  681SOL     OW 2041   2.464   1.888   1.195 -0.0082 -0.0037 -0.1571
  681SOL    HW1 2042   2.410   1.967   1.163 -0.5728 -1.1691  2.0391
  681SOL    HW2 2043   2.477   1.815   1.125  0.6745  0.5915 -2.3383
  682SOL     OW 2044   2.892   1.928   2.582 -0.0171 -0.1073  0.5384
  682SOL    HW1 2045   2.890   1.877   2.496  0.0775 -0.3988 -0.6268
  682SOL    HW2 2046   2.984   1.924   2.623  0.7271  0.4873 -0.4702
  683SOL     OW 2047   0.215   2.151   1.607  0.0878 -0.4733 -0.2301
  683SOL    HW1 2048   0.180   2.221   1.546  2.1857 -0.6954 -0.1017
  683SOL    HW2 2049   0.158   2.063   1.601 -1.0171 -1.3343  0.0856
  684SOL     OW 2050   2.951   1.009   2.266  0.1499 -0.3901 -0.0494
  684SOL    HW1 2051   2.987   0.996   2.172 -0.6119  1.9280 -1.5413
  684SOL    HW2 2052   3.004   1.081   2.320  1.6642  0.8207 -0.4028
  685SOL     OW 2053   1.506   1.123   0.474 -0.5813  0.1841  0.1727
  685SOL    HW1 2054   1.436   1.096   0.545 -1.8019 -0.0447 -2.3881
  685SOL    HW2 2055   1.585   1.054   0.475 -0.7119 -0.4446  0.5169
  686SOL     OW 2056   0.408   0.170   0.760 -0.0247  0.4520  0.2085
  686SOL    HW1 2057   0.425   0.076   0.801  0.7295 -1.8091  0.3187
  686SOL    HW2 2058   0.309   0.180   0.730 -1.1285  1.2727  0.2229
  687SOL     OW 2059   1.474   1.684   2.593  0.0328  0.1614  0.2155
  687SOL    HW1 2060   1.391   1.744   2.614 -2.1445  1.1008 -2.8672
  687SOL    HW2 2061   1.517   1.707   2.503 -1.5936  0.8026 -1.0941
  688SOL     OW 2062   1.515   1.358   1.654  1.0263  0.2333  0.1138
  688SOL    HW1 2063   1.498   1.429   1.582 -1.9041 -1.3620 -0.0879
  688SOL    HW2 2064   1.423   1.327   1.687  0.0692 -0.2429 -0.4476
  689SOL     OW 2065   2.299   0.112   1.015 -0.5537 -0.8989  0.7062
  689SOL    HW1 2066   2.258   0.021   1.008  0.3704 -0.0755  2.5261
  689SOL    HW2 2067   2.393   0.100   1.055  2.5225 -2.2299  0.8129
  690SOL     OW 2068   0.121   1.417   1.160 -0.4434 -0.5100  0.1752
  690SOL    HW1 2069   0.043   1.421   1.101  1.6521  0.8992 -0.0833
  690SOL    HW2 2070   0.132   1.319   1.191  1.2092  0.1974 -1.0164
  691SOL     OW 2071   0.217   2.003   1.277  0.3146 -0.6682 -0.4514
  691SOL    HW1 2072   0.121   1.979   1.292  0.3537  1.8844  0.0542
  691SOL    HW2 2073   0.229   2.103   1.275 -2.3561  1.6520  0.5188
  692SOL     OW 2074   2.155   0.493   1.448  0.1765 -0.0744  0.8050
  692SOL    HW1 2075   2.178   0.459   1.354  2.0478 -2.1532 -1.3960
  692SOL    HW2 2076   2.235   0.540   1.486  1.5015  0.3016 -0.4689
  693SOL     OW 2077   0.666   1.722   2.452 -0.2493  0.3930  0.4671
  693SOL    HW1 2078   0.693   1.802   2.394  2.8089 -0.2945 -0.4484
  693SOL    HW2 2079   0.711   1.732   2.541  2.4423  2.1912  2.1436
  694SOL     OW 2080   1.490   1.374   1.188  0.4801  0.2261 -0.0068
  694SOL    HW1 2081   1.568   1.435   1.214  0.6672  2.2023  3.2851
  694SOL    HW2 2082   1.409   1.390   1.250  0.1232 -0.7924 -0.7899
  695SOL     OW 2083   1.001   1.397   0.940  0.1395 -0.1752  0.2304
  695SOL    HW1 2084   1.085   1.448   0.907 -0.4700 -0.4404  0.7018
  695SOL    HW2 2085   0.921   1.398   0.870 -0.2834  0.2562 -0.5624
  696SOL     OW 2086   0.748   2.862   0.293 -0.3642  0.6030  0.3877
  696SOL    HW1 2087   0.787   2.772   0.257  0.1104 -1.3342 -0.3076
  696SOL    HW2 2088   0.670   2.886   0.235  5.7501  0.6902 -1.2663
  697SOL     OW 2089   1.466   0.576   1.518  0.0167  0.3626 -0.0850
  697SOL    HW1 2090   1.537   0.535   1.581  3.5108 -1.0927 -0.4294
  697SOL    HW2 2091   1.385   0.515   1.517 -0.8376  0.2729  0.1808
  698SOL     OW 2092   1.638   1.775   2.104  1.1354  0.4065  0.2352
  698SOL    HW1 2093   1.708   1.698   2.096 -2.2200 -1.6413 -2.3664
  698SOL    HW2 2094   1.583   1.790   2.020  0.4436  1.7405 -1.3856
  699SOL     OW 2095   2.480   0.526   1.901 -0.1570  0.1787  0.1849
  699SOL    HW1 2096   2.531   0.579   1.973 -0.5090 -0.6854  2.0324
  699SOL    HW2 2097   2.534   0.439   1.881  2.6788 -3.6214 -0.1385
  700SOL     OW 2098   1.247   2.221   0.536  0.2997  0.1213 -0.0053
  700SOL    HW1 2099   1.343   2.205   0.506 -0.2699  1.0117  2.6165
  700SOL    HW2 2100   1.183   2.143   0.508 -0.6919 -2.4079  1.9637
  701SOL     OW 2101   2.544   2.798   2.257 -0.4936 -0.0886 -0.1851
  701SOL    HW1 2102   2.562   2.699   2.265  1.3049 -0.7844  1.0562
  701SOL    HW2 2103   2.448   2.814   2.239  1.9246  0.6462 -2.1546
  702SOL     OW 2104   0.883   2.997   0.494  0.0917 -0.4813  0.5043
  702SOL    HW1 2105   0.859   2.965   0.588  0.6334  1.5933 -1.0223
  702SOL    HW2 2106   0.826   2.959   0.420 -0.8499  0.8671 -2.0272
  703SOL     OW 2107   2.261   0.025   2.066 -0.1246  0.3322 -0.4713
  703SOL    HW1 2108   2.231   0.036   2.162  1.1505  0.5046  0.8413
  703SOL    HW2 2109   2.358   0.028   2.054 -2.6110 -0.4506 -1.0944
  704SOL     OW 2110   2.542   2.205   0.108  0.0822  0.6054  0.8308
  704SOL    HW1 2111   2.504   2.193   0.205  2.5848 -0.9132  2.4811
  704SOL    HW2 2112   2.576   2.300   0.096 -1.3016 -2.0974 -0.0809
  705SOL     OW 2113   2.554   2.521   2.275  0.2501 -0.2934 -0.2426
  705SOL    HW1 2114   2.641   2.468   2.276  0.9275 -1.4982 -1.5275
  705SOL    HW2 2115   2.488   2.475   2.214  1.9671 -2.6924  1.4387
  706SOL     OW 2116   2.565   0.104   1.129  0.0533 -0.1521 -0.3090
  706SOL    HW1 2117   2.590   0.198   1.162 -3.0967  2.4099 -1.6420
  706SOL    HW2 2118   2.601   0.038   1.198 -1.3754  2.7487  1.6655
  707SOL     OW 2119   0.810   0.341   2.462 -0.1226 -0.0982 -0.6454
  707SOL    HW1 2120   0.840   0.266   2.526 -2.6706  0.8337  0.8829
  707SOL    HW2 2121   0.712   0.337   2.445  4.7348  0.2503  1.1482
  708SOL     OW 2122   0.159   2.166   1.882 -0.1089  0.1221 -0.5414
  708SOL    HW1 2123   0.204   2.161   1.787 -0.4680  2.2017 -0.7011
  708SOL    HW2 2124   0.115   2.077   1.906  2.0467 -1.5245  0.3232
  709SOL     OW 2125   1.371   0.064   1.531 -0.3824  0.0901 -0.3781
  709SOL    HW1 2126   1.459   0.119   1.525  1.5871  2.3155  1.4084
  709SOL    HW2 2127   1.351   0.004   1.449 -1.8239 -0.2209 -1.0211
  710SOL     OW 2128   1.481   2.925   2.749  0.6926 -0.4806  0.3695
  710SOL    HW1 2129   1.552   2.945   2.815 -0.3162 -1.4337  0.3125
  710SOL    HW2 2130   1.474   2.998   2.676  0.6144  1.0627 -0.2824
  711SOL     OW 2131   1.140   2.185   2.873 -0.4697 -0.1724 -0.4873
  711SOL    HW1 2132   1.104   2.277   2.902 -0.2471 -0.3607  1.3979
  711SOL    HW2 2133   1.174   2.192   2.776 -0.5723 -0.7903 -1.0957
  712SOL     OW 2134   1.065   1.918   2.950  0.2898 -0.2339 -0.2279
  712SOL    HW1 2135   1.099   2.010   2.919  0.3956  1.6588 -0.2175
  712SOL    HW2 2136   1.001   1.933   3.026 -0.5552 -0.5454 -0.3460
  713SOL     OW 2137   2.122   1.140   2.002 -0.3490 -0.2083 -0.1457
  713SOL    HW1 2138   2.171   1.230   2.009 -0.5448  0.1548  0.2730
  713SOL    HW2 2139   2.190   1.064   2.005  0.6310  1.9112  1.2135
  714SOL     OW 2140   0.939   1.293   2.068 -0.0556 -0.3704  0.4370
  714SOL    HW1 2141   0.849   1.295   2.019  1.5752  0.9097 -1.8428
  714SOL    HW2 2142   0.955   1.197   2.084 -0.5489  1.0303  0.3502
  715SOL     OW 2143   2.773   0.569   0.230 -0.2251 -0.2804 -0.0677
  715SOL    HW1 2144   2.825   0.490   0.269 -0.6685 -1.9712  2.1224
  715SOL    HW2 2145   2.677   0.563   0.269  2.5065 -0.1940  2.2896
  716SOL     OW 2146   2.873   2.429   1.670  0.2836 -0.1103 -0.0280
  716SOL    HW1 2147   2.782   2.389   1.673 -1.1161 -3.0219 -1.3708
  716SOL    HW2 2148   2.884   2.490   1.753 -1.9665 -2.3364  4.2755
  717SOL     OW 2149   2.353   0.913   0.819  0.6610  0.4861  0.5307
  717SOL    HW1 2150   2.264   0.950   0.785  0.5161  0.2160 -0.7880
  717SOL    HW2 2151   2.394   0.852   0.751 -0.3601  0.9134 -0.2364
  718SOL     OW 2152   1.226   1.613   1.558 -0.8672 -0.3296 -0.0976
  718SOL    HW1 2153   1.188   1.586   1.646  0.1792 -2.4527 -1.6524
  718SOL    HW2 2154   1.164   1.686   1.518 -1.3582 -1.3786  2.3914
  719SOL     OW 2155   3.042   0.115   2.710 -0.2260  0.2139 -0.0323
  719SOL    HW1 2156   2.985   0.051   2.658 -0.5678 -1.6439  0.3153
  719SOL    HW2 2157   3.073   0.075   2.793  0.7269  2.0274 -0.2989
  720SOL     OW 2158   0.845   0.426   0.907 -0.5873 -0.1947 -0.0919
  720SOL    HW1 2159   0.945   0.430   0.873  2.1683 -2.6879  0.5300
  720SOL    HW2 2160   0.812   0.514   0.941  2.4296 -2.8621  0.1546
  721SOL     OW 2161   2.900   0.749   0.385 -0.4953  0.0099 -0.0078
  721SOL    HW1 2162   2.843   0.684   0.331  2.6949  0.7705  2.2528
  721SOL    HW2 2163   2.858   0.839   0.383  0.0501 -1.8874 -1.3360
  722SOL     OW 2164   0.865   2.215   2.143  0.2845  0.1673 -0.4033
  722SOL    HW1 2165   0.782   2.219   2.087 -2.1595  1.7608 -1.3213
  722SOL    HW2 2166   0.932   2.276   2.100 -0.1226 -0.8925 -1.3219
  723SOL     OW 2167   1.736   2.908   1.152  0.3388  0.5211 -0.1514
  723SOL    HW1 2168   1.740   2.985   1.086 -0.5993  1.4079  0.7591
  723SOL    HW2 2169   1.835   2.881   1.163  1.2771  2.4418 -0.3723
  724SOL     OW 2170   1.559   2.000   1.808 -0.0746  0.3333 -0.1748
  724SOL    HW1 2171   1.561   2.055   1.894 -1.0131 -1.5882  1.6390
  724SOL    HW2 2172   1.524   1.904   1.832  0.3093  0.0956 -1.2860
  725SOL     OW 2173   1.114   2.395   1.282  0.2410 -0.6485  0.1207
  725SOL    HW1 2174   1.025   2.419   1.321 -0.4730  0.5200  0.7904
  725SOL    HW2 2175   1.120   2.444   1.189  0.4749  0.7612 -1.3685
  726SOL     OW 2176   1.964   2.784   0.172 -0.0082  0.6228  0.1710
  726SOL    HW1 2177   1.930   2.719   0.105  0.9151 -0.3327  2.0355
  726SOL    HW2 2178   1.894   2.845   0.213  0.0926 -0.9480  1.0806
  727SOL     OW 2179   1.533   1.730   0.963  0.1919 -0.5919 -0.2891
  727SOL    HW1 2180   1.617   1.671   0.983  4.7824 -0.2476 -0.8359
  727SOL    HW2 2181   1.449   1.695   0.998  2.4551  2.6864 -1.8365
  728SOL     OW 2182   2.054   2.674   1.990 -0.4280 -0.8985  0.7146
  728SOL    HW1 2183   2.031   2.658   2.088 -0.1873  0.0395 -0.2095
  728SOL    HW2 2184   2.113   2.757   1.987  0.6594 -0.2543  1.3320
  729SOL     OW 2185   2.052   2.388   1.298  0.2869  0.5533  0.0946
  729SOL    HW1 2186   1.988   2.308   1.301  2.4162  0.7204  0.0331
  729SOL    HW2 2187   2.140   2.366   1.343  1.8313 -2.3610 -0.9270
  730SOL     OW 2188   1.688   1.010   2.498 -0.0824 -0.5693  0.7445
  730SOL    HW1 2189   1.607   1.006   2.433 -1.3936 -0.3260  1.0656
  730SOL    HW2 2190   1.685   0.934   2.560  2.9478  2.1987 -2.8388
  731SOL     OW 2191   0.872   2.784   1.266 -0.2990  0.4335 -0.1998
  731SOL    HW1 2192   0.967   2.814   1.286 -1.7115 -0.0234 -1.0916
  731SOL    HW2 2193   0.849   2.711   1.331 -4.0630 -1.5260 -2.1271
  732SOL     OW 2194   1.144   3.000   0.902  0.2594  0.5391  0.1685
  732SOL    HW1 2195   1.116   2.949   0.818 -0.2250  1.6137  0.7926
  732SOL    HW2 2196   1.190   2.940   0.967 -0.9885  1.4391 -0.7669
  733SOL     OW 2197   1.163   1.239   0.704 -0.2731 -0.1741 -0.0110
  733SOL    HW1 2198   1.176   1.272   0.796  3.7910  3.3155 -3.1639
  733SOL    HW2 2199   1.219   1.155   0.685 -0.3583 -0.7450  1.1686
  734SOL     OW 2200   2.544   2.177   2.533 -0.3613  0.1032  0.1897
  734SOL    HW1 2201   2.609   2.200   2.607 -0.5996 -0.1690  1.9639
  734SOL    HW2 2202   2.554   2.078   2.506  1.2505 -1.3864  0.9447
  735SOL     OW 2203   0.738   0.212   1.006 -0.2171  0.1877 -0.2762
  735SOL    HW1 2204   0.803   0.134   0.993 -0.6938 -0.3321 -2.4528
  735SOL    HW2 2205   0.784   0.304   0.980  2.1456 -1.9404 -2.0433
  736SOL     OW 2206   1.497   2.115   2.670  0.2503 -0.0270  0.0687
  736SOL    HW1 2207   1.555   2.103   2.590 -2.2333 -0.0650  1.1799
  736SOL    HW2 2208   1.533   2.182   2.737 -1.7875 -2.5764  0.2041
  737SOL     OW 2209   0.881   2.483   1.386 -0.0966  0.5526  0.5959
  737SOL    HW1 2210   0.816   2.472   1.309  0.6098 -0.6663 -0.2336
  737SOL    HW2 2211   0.844   2.454   1.478  1.2957  0.4162  0.1424
  738SOL     OW 2212   1.847   2.908   2.337  0.4154 -0.7351 -0.1266
  738SOL    HW1 2213   1.900   2.988   2.378 -1.1406  3.1699  0.8346
  738SOL    HW2 2214   1.842   2.829   2.400  1.5935 -1.5556 -0.2142
  739SOL     OW 2215   1.409   2.533   2.203  0.1419  0.4629 -0.4814
  739SOL    HW1 2216   1.327   2.475   2.181 -1.3168 -2.6709 -1.2217
  739SOL    HW2 2217   1.494   2.476   2.203 -1.0931  1.7322 -0.1645
  740SOL     OW 2218   1.373   2.415   1.357  0.2809 -0.0927  0.0278
  740SOL    HW1 2219   1.279   2.400   1.316 -0.9113  2.7517  1.0865
  740SOL    HW2 2220   1.390   2.519   1.358  1.0615 -0.9658 -0.6837
  741SOL     OW 2221   2.711   1.105   0.043  0.5537 -0.0967  0.9311
  741SOL    HW1 2222   2.669   1.197   0.055  1.7514  0.8438  0.7915
  741SOL    HW2 2223   2.660   1.027   0.083 -0.0826  1.2639  1.3501
  742SOL     OW 2224   0.502   1.800   2.704 -0.0622 -0.0249 -0.0321
  742SOL    HW1 2225   0.472   1.887   2.666  1.7910 -2.4100 -1.4370
  742SOL    HW2 2226   0.601   1.788   2.677  2.0317 -1.1035  0.0935
  743SOL     OW 2227   0.331   0.921   2.637 -0.0286 -0.3091  0.7097
  743SOL    HW1 2228   0.414   0.956   2.682 -1.7925 -0.2871  0.7165
  743SOL    HW2 2229   0.254   0.915   2.701 -1.3646  1.7026 -3.3263
  744SOL     OW 2230   2.427   2.480   0.892 -0.2649 -0.0577 -0.0864
  744SOL    HW1 2231   2.333   2.477   0.920  3.9180 -1.2579  0.1377
  744SOL    HW2 2232   2.432   2.508   0.792  0.9369 -0.9851 -0.7039
  745SOL     OW 2233   2.199   1.776   1.540  0.1093  0.1419 -0.0291
  745SOL    HW1 2234   2.221   1.745   1.448 -0.1485  2.4601  1.0917
  745SOL    HW2 2235   2.135   1.855   1.537 -1.3992  0.4026 -0.6940
  746SOL     OW 2236   2.117   0.996   0.704  0.0241 -0.3604 -0.1165
  746SOL    HW1 2237   2.073   0.908   0.684 -0.9323  0.4638  1.8854
  746SOL    HW2 2238   2.066   1.041   0.779 -0.8639  2.7340  2.3250
  747SOL     OW 2239   1.601   2.136   0.759 -0.4440  0.7579  0.0909
  747SOL    HW1 2240   1.568   2.037   0.747 -1.3381 -1.4275  0.4449
  747SOL    HW2 2241   1.658   2.167   0.678  1.0852 -2.5395  1.2173
  748SOL     OW 2242   0.592   1.761   0.702 -0.1018 -0.1218 -0.1372
  748SOL    HW1 2243   0.623   1.770   0.603  0.8170 -0.1982 -0.6331
  748SOL    HW2 2244   0.571   1.853   0.745 -0.8499 -0.6168 -3.0363
  749SOL     OW 2245   2.952   3.003   2.092  0.2121 -0.1450  0.3079
  749SOL    HW1 2246   2.972   3.098   2.065  0.5043 -1.1226 -0.4116
  749SOL    HW2 2247   3.033   2.944   2.118 -0.4143  0.6394  1.0070
  750SOL     OW 2248   1.645   0.313   1.201  0.4636  0.0550  0.4584
  750SOL    HW1 2249   1.660   0.320   1.104 -0.3511 -2.0437  1.0222
  750SOL    HW2 2250   1.649   0.405   1.241  0.5303 -2.3620  1.1197
  751SOL     OW 2251   1.765   2.687   3.100 -0.6822 -0.2725 -0.6394
  751SOL    HW1 2252   1.692   2.754   3.087  1.4085  1.8325  0.5766
  751SOL    HW2 2253   1.787   2.628   3.019 -0.6267  0.8172  0.1254
  752SOL     OW 2254   1.823   2.077   0.279 -0.6415  0.8760  0.1992
  752SOL    HW1 2255   1.774   2.001   0.231  0.3674 -0.0319 -2.4914
  752SOL    HW2 2256   1.842   2.156   0.212  0.2371  1.5785  0.6201
  753SOL     OW 2257   1.911   1.129   2.357  0.8190  0.2820 -0.0898
  753SOL    HW1 2258   1.822   1.104   2.399 -1.6654 -1.7501 -1.5448
  753SOL    HW2 2259   1.970   1.048   2.356 -1.9161  2.1956  0.9282
  754SOL     OW 2260   0.113   2.554   0.971 -0.4499  0.3605  0.3069
  754SOL    HW1 2261   0.188   2.594   1.028  1.1294  3.0981 -2.2462
  754SOL    HW2 2262   0.042   2.629   0.951  0.4433 -0.4875  0.3342
  755SOL     OW 2263   2.022   0.688   0.913  0.4759 -0.2387 -0.1630
  755SOL    HW1 2264   2.112   0.690   0.967  2.1483  0.6124  0.2086
  755SOL    HW2 2265   1.949   0.740   0.965  0.2115 -1.3048  2.3970
  756SOL     OW 2266   1.133   1.415   2.886 -0.0107  0.4394 -0.1009
  756SOL    HW1 2267   1.101   1.510   2.875  2.2081  0.1073 -0.9343
  756SOL    HW2 2268   1.234   1.414   2.901 -1.4350 -2.8427 -0.1286
  757SOL     OW 2269   2.171   2.771   1.351 -0.2306  0.1162  0.1103
  757SOL    HW1 2270   2.195   2.679   1.386  1.0068 -0.2775  2.4793
  757SOL    HW2 2271   2.245   2.832   1.379 -1.0045  0.1849  2.2043
  758SOL     OW 2272   0.828   2.508   1.660 -0.0264 -0.1662  0.6690
  758SOL    HW1 2273   0.787   2.606   1.663 -0.7990  1.9481 -2.6286
  758SOL    HW2 2274   0.928   2.514   1.653 -0.9638  1.2232  0.5746
  759SOL     OW 2275   2.188   1.415   1.101 -0.7689  0.0528  0.2562
  759SOL    HW1 2276   2.249   1.422   1.018  3.1721 -1.4231 -0.3633
  759SOL    HW2 2277   2.244   1.393   1.180 -0.5008  2.0014  1.8956
  760SOL     OW 2278   1.853   1.007   1.600  0.5151 -0.2599  0.1042
  760SOL    HW1 2279   1.845   0.958   1.688  2.3724  0.1744  3.0122
  760SOL    HW2 2280   1.949   1.013   1.567 -0.3929  0.1731 -0.9261
  761SOL     OW 2281   2.063   3.053   0.349 -0.1828 -0.4554  0.5835
  761SOL    HW1 2282   2.057   3.104   0.435  0.1977 -2.5045 -0.2565
  761SOL    HW2 2283   2.112   2.964   0.360  4.7443  0.8803 -1.5906
  762SOL     OW 2284   1.871   2.260   0.087  0.2697 -0.4700  0.1543
  762SOL    HW1 2285   1.917   2.262   3.102  1.6864 -0.3282  1.9025
  762SOL    HW2 2286   1.810   2.346   0.098 -0.9800  3.8284  0.5522
  763SOL     OW 2287   0.583   1.054   1.140 -0.3432  0.0047 -0.1566
  763SOL    HW1 2288   0.608   0.964   1.091 -0.2565 -0.0390 -0.9761
  763SOL    HW2 2289   0.652   1.076   1.209 -4.2411 -0.7341 -0.8405
  764SOL     OW 2290   2.868   2.145   2.950  0.0058 -0.2853  0.2643
  764SOL    HW1 2291   2.784   2.117   3.006 -1.3533 -0.4335  1.5412
  764SOL    HW2 2292   2.921   2.057   2.945 -1.1233  0.4442 -0.4794
  765SOL     OW 2293   0.845   0.132   2.029 -0.8568 -0.3986  0.3811
  765SOL    HW1 2294   0.872   0.199   2.101  2.8359 -0.9186 -0.1482
  765SOL    HW2 2295   0.875   0.165   1.941  0.7500  2.5425 -2.3219
  766SOL     OW 2296   3.090   1.198   2.418  0.1814 -0.2066 -0.3963
  766SOL    HW1 2297   0.002   1.182   2.520  0.3965  0.5975  0.5710
  766SOL    HW2 2298   3.061   1.295   2.404  0.2711  2.4617 -2.0113
  767SOL     OW 2299   0.024   1.666   1.678 -0.2962  0.4190 -0.1847
  767SOL    HW1 2300   3.076   1.654   1.765 -2.3389  0.5364  1.4873
  767SOL    HW2 2301   3.087   1.617   1.598 -0.8112 -1.7772  0.6918
  768SOL     OW 2302   1.029   0.700   2.987  0.0438  0.5800 -0.1456
  768SOL    HW1 2303   0.978   0.747   3.056  3.0210  2.4963 -1.9312
  768SOL    HW2 2304   1.061   0.761   2.912 -1.6862 -0.6633 -0.3184
  769SOL     OW 2305   2.138   2.760   0.391 -0.1670 -0.3378 -0.4823
  769SOL    HW1 2306   2.113   2.685   0.455  0.8653  2.0140 -2.1336
  769SOL    HW2 2307   2.092   2.746   0.298 -0.9842 -1.1501 -0.2638
  770SOL     OW 2308   2.978   0.378   2.729  0.0618 -0.1068 -0.0475
  770SOL    HW1 2309   2.935   0.418   2.648  1.9505  1.7750  1.2344
  770SOL    HW2 2310   3.021   0.287   2.706 -1.9614 -0.5353 -0.8551
  771SOL     OW 2311   1.389   2.414   1.821 -0.3959 -0.2378  0.1652
  771SOL    HW1 2312   1.295   2.416   1.866 -0.7192  1.0531  1.9874
  771SOL    HW2 2313   1.387   2.363   1.733  3.9089 -0.8806  1.3071
  772SOL     OW 2314   0.540   0.500   3.087  0.3401 -0.4290 -0.1192
  772SOL    HW1 2315   0.622   0.468   3.032  0.4833 -1.0853 -0.4511
  772SOL    HW2 2316   0.458   0.522   3.026 -0.5947 -1.5392 -0.2484
  773SOL     OW 2317   2.926   1.248   1.596  0.4792  0.0600 -0.1574
  773SOL    HW1 2318   2.870   1.276   1.516  0.2894 -1.9407  0.5574
  773SOL    HW2 2319   2.907   1.307   1.678 -1.5894  0.5176  1.0409
  774SOL     OW 2320   1.570   0.780   0.365  0.3174 -0.3370 -0.7417
  774SOL    HW1 2321   1.592   0.680   0.367  2.5685 -0.5731  2.5444
  774SOL    HW2 2322   1.613   0.835   0.438 -0.1807  0.9709  1.5829
  775SOL     OW 2323   2.294   2.808   0.077  0.2627 -0.0845  0.1127
  775SOL    HW1 2324   2.365   2.884   0.088  1.1287  0.5914 -2.8332
  775SOL    HW2 2325   2.200   2.842   0.105 -3.3757 -0.2219 -3.0172
  776SOL     OW 2326   2.633   0.660   2.079 -0.1333 -0.6782 -0.3460
  776SOL    HW1 2327   2.647   0.755   2.045  1.6755  1.2591 -0.3775
  776SOL    HW2 2328   2.579   0.671   2.167 -3.1182 -0.8855 -1.2201
  777SOL     OW 2329   0.249   1.382   2.664 -0.3315  0.0257 -0.3843
  777SOL    HW1 2330   0.336   1.418   2.703  0.6997 -1.8228 -0.6112
  777SOL    HW2 2331   0.263   1.320   2.587  1.3401  0.2945  0.6054
  778SOL     OW 2332   0.899   0.262   0.419 -0.8405  0.0971 -0.1068
  778SOL    HW1 2333   0.850   0.246   0.507  1.0888 -0.0629  0.1789
  778SOL    HW2 2334   0.860   0.204   0.344  0.3741 -0.6982 -1.0744
  779SOL     OW 2335   0.569   1.004   2.762  0.1369  0.1105 -0.2263
  779SOL    HW1 2336   0.649   1.067   2.765  0.0032 -2.8392 -0.1737
  779SOL    HW2 2337   0.594   0.907   2.753  3.0611  0.4868 -0.2593
  780SOL     OW 2338   2.136   0.938   2.351 -0.6481  0.5531  0.2675
  780SOL    HW1 2339   2.187   0.915   2.436  0.3927  1.2344 -1.2818
  780SOL    HW2 2340   2.115   0.852   2.294 -2.2026 -1.8995 -1.1691
  781SOL     OW 2341   2.862   1.346   1.837 -0.4975  0.3489 -0.2855
  781SOL    HW1 2342   2.941   1.292   1.860 -2.1204  0.6396  1.0156
  781SOL    HW2 2343   2.796   1.335   1.912 -0.2885  2.4782  0.7986
  782SOL     OW 2344   1.038   1.789   2.360 -0.0445  0.3010 -0.0542
  782SOL    HW1 2345   1.074   1.816   2.269 -0.3743  0.8019 -1.8824
  782SOL    HW2 2346   0.966   1.721   2.345  1.1648 -0.1795  0.0844
  783SOL     OW 2347   0.485   2.625   1.478  0.0633 -0.0218  0.2275
  783SOL    HW1 2348   0.409   2.599   1.537 -1.3482 -0.7546  0.2010
  783SOL    HW2 2349   0.529   2.714   1.508  3.9420 -0.7227  0.4022
  784SOL     OW 2350   1.569   0.455   2.709 -0.2419  0.2644 -0.0582
  784SOL    HW1 2351   1.594   0.396   2.633 -1.2647  2.6208 -0.7267
  784SOL    HW2 2352   1.640   0.517   2.738 -0.1069  1.2165 -2.2266
  785SOL     OW 2353   1.384   0.225   2.788  0.3370 -0.6147  0.2773
  785SOL    HW1 2354   1.411   0.324   2.785 -1.2901  0.3672  1.5749
  785SOL    HW2 2355   1.411   0.165   2.710 -0.7108 -2.5465 -0.4536
  786SOL     OW 2356   0.350   1.670   0.420 -0.3961 -0.6979  0.2104
  786SOL    HW1 2357   0.354   1.585   0.478  0.5906 -2.7758 -1.4781
  786SOL    HW2 2358   0.444   1.679   0.378  1.5891 -2.6769 -1.0607
  787SOL     OW 2359   1.765   1.474   0.390  0.2472 -0.8493  0.4431
  787SOL    HW1 2360   1.824   1.555   0.418 -1.7317  2.0128  0.2745
  787SOL    HW2 2361   1.827   1.412   0.341  0.4071 -2.3361  2.1429
  788SOL     OW 2362   1.872   1.630   1.380 -0.2622 -0.0101 -0.1474
  788SOL    HW1 2363   1.773   1.640   1.364  1.0927  1.2828  4.2942
  788SOL    HW2 2364   1.922   1.631   1.295 -0.2115  0.7699  0.4294
  789SOL     OW 2365   0.196   1.364   2.071  0.0064  0.2563  0.4056
  789SOL    HW1 2366   0.143   1.455   2.071 -2.4896  0.5399  0.4900
  789SOL    HW2 2367   0.282   1.379   2.027 -2.9102  0.8307  2.2522
  790SOL     OW 2368   0.528   2.895   0.087 -0.2713  0.5031 -0.7424
  790SOL    HW1 2369   0.462   2.815   0.070  0.4128 -0.7512 -0.7031
  790SOL    HW2 2370   0.498   2.958   0.163 -2.1415 -1.8712  1.2037
  791SOL     OW 2371   0.641   0.091   2.677  0.8517  0.3186  0.1887
  791SOL    HW1 2372   0.631   0.178   2.627 -1.7439  2.2899 -0.4752
  791SOL    HW2 2373   0.575   0.071   2.749 -0.2131  2.2552  1.8243
  792SOL     OW 2374   2.118   0.525   2.581 -0.2304 -0.2554 -0.1436
  792SOL    HW1 2375   2.118   0.501   2.681  1.6052 -1.2245  0.1329
  792SOL    HW2 2376   2.216   0.548   2.558 -1.1078  1.8344  0.6030
  793SOL     OW 2377   0.347   0.810   1.075  0.1710 -0.0634  0.1417
  793SOL    HW1 2378   0.433   0.760   1.055  0.4894  0.4794 -1.6023
  793SOL    HW2 2379   0.294   0.741   1.126 -2.6943 -1.6456 -1.3547
  794SOL     OW 2380   0.511   0.520   1.949 -0.8994  0.0729  0.2903
  794SOL    HW1 2381   0.539   0.594   1.889  0.7745  1.5257  3.3316
  794SOL    HW2 2382   0.411   0.530   1.978  1.9497 -1.3764 -0.4851
  795SOL     OW 2383   3.049   1.222   0.351 -0.5169 -0.2904  0.2628
  795SOL    HW1 2384   0.011   1.156   0.319 -0.4868 -0.7071  0.5766
  795SOL    HW2 2385   3.016   1.280   0.270  0.2901  0.2838  1.3647
  796SOL     OW 2386   0.009   2.908   0.201 -0.2313 -0.2654  0.6699
  796SOL    HW1 2387   3.095   2.981   0.134 -0.1710  1.7303  0.6746
  796SOL    HW2 2388   3.076   2.816   0.176  0.6120 -0.5104  0.3758
  797SOL     OW 2389   1.794   2.637   2.475  0.3643  0.0360 -0.8966
  797SOL    HW1 2390   1.799   2.548   2.418  0.6530  0.2752  3.4187
  797SOL    HW2 2391   1.713   2.643   2.539  0.4492  1.2224  0.4374
  798SOL     OW 2392   0.040   0.703   0.595  0.1558 -0.4747  0.2871
  798SOL    HW1 2393   0.004   0.718   0.502 -0.3338  1.6691  0.5512
  798SOL    HW2 2394   0.115   0.637   0.586  0.2694 -0.1814  0.9599
  799SOL     OW 2395   2.603   0.418   2.487 -0.5656  0.0982  0.3392
  799SOL    HW1 2396   2.615   0.323   2.526 -0.1125  0.0254  0.0649
  799SOL    HW2 2397   2.698   0.461   2.488 -0.7630  1.3891  3.6797
  800SOL     OW 2398   3.006   2.144   0.170 -0.2035  0.5335 -0.5580
  800SOL    HW1 2399   2.984   2.118   0.265  0.5560 -0.0557 -0.0817
  800SOL    HW2 2400   3.089   2.086   0.143  2.0478 -3.7272 -0.2018
  801SOL     OW 2401   1.318   1.638   1.103 -0.1877  0.6228 -0.2365
  801SOL    HW1 2402   1.272   1.577   1.173 -0.7247 -0.4298  2.0466
  801SOL    HW2 2403   1.269   1.617   1.015 -1.1642  2.3824 -2.5418
  802SOL     OW 2404   1.106   1.839   2.100 -0.3464  0.2412 -0.3522
  802SOL    HW1 2405   1.008   1.815   2.117  1.1128  1.1964 -0.2567
  802SOL    HW2 2406   1.135   1.817   2.002 -0.5387 -2.2459 -1.7389
  803SOL     OW 2407   0.183   1.989   0.854  0.0019 -0.4544 -0.1364
  803SOL    HW1 2408   0.091   2.007   0.884  3.8386 -0.5702 -0.4443
  803SOL    HW2 2409   0.208   1.894   0.890 -1.7699 -1.3114  0.5610
  804SOL     OW 2410   1.043   2.077   1.181  0.2738 -0.1963  0.1535
  804SOL    HW1 2411   0.942   2.091   1.196  1.1103 -1.9061 -2.7756
  804SOL    HW2 2412   1.064   1.980   1.152 -0.2885 -3.2737 -2.5886
  805SOL     OW 2413   1.982   1.466   0.157  0.1286 -0.2352  0.1031
  805SOL    HW1 2414   1.986   1.560   0.195  1.3509  1.3806 -0.4380
  805SOL    HW2 2415   1.906   1.460   0.092 -0.4725 -2.6991 -0.9174
  806SOL     OW 2416   1.962   2.430   1.020 -0.2206 -0.2787  1.0801
  806SOL    HW1 2417   1.984   2.412   1.115 -1.0112 -0.9440 -5.6498
  806SOL    HW2 2418   1.861   2.439   1.000 -1.8480 -0.0711 -1.6169
  807SOL     OW 2419   2.688   0.718   2.843  0.3249  0.6718  0.3926
  807SOL    HW1 2420   2.715   0.810   2.871  0.5768 -3.4851  0.3207
  807SOL    HW2 2421   2.713   0.701   2.750 -0.4316 -0.2388  1.2682
  808SOL     OW 2422   0.371   1.214   0.593 -0.5213  0.1198  0.1905
  808SOL    HW1 2423   0.392   1.136   0.648 -0.8317 -2.6544 -2.7248
  808SOL    HW2 2424   0.359   1.186   0.494  1.0623  0.9831  1.3234
  809SOL     OW 2425   2.666   0.907   2.007  0.3673 -0.3086  0.1685
  809SOL    HW1 2426   2.623   0.981   2.068 -1.0565 -0.9915  1.2922
  809SOL    HW2 2427   2.660   0.936   1.908 -1.5420 -0.4977  0.2862
  810SOL     OW 2428   1.294   0.372   1.529 -0.1745 -0.2525  0.0641
  810SOL    HW1 2429   1.318   0.351   1.628  2.4513 -0.6817  1.4843
  810SOL    HW2 2430   1.195   0.360   1.512 -2.1885  0.1846  3.8552
  811SOL     OW 2431   1.918   2.833   1.581  0.2988  0.2547  0.7949
  811SOL    HW1 2432   2.001   2.775   1.570 -0.0857 -1.2406 -0.7208
  811SOL    HW2 2433   1.833   2.777   1.581 -0.5897 -1.3878  1.1254
  812SOL     OW 2434   1.601   2.494   2.820 -0.2380 -0.3374  0.3154
  812SOL    HW1 2435   1.523   2.465   2.875 -0.6000 -1.1485 -4.2039
  812SOL    HW2 2436   1.673   2.426   2.828  0.3134  0.6460  1.9746
  813SOL     OW 2437   1.667   1.040   1.873 -0.5685 -0.5224  0.4133
  813SOL    HW1 2438   1.567   1.029   1.858 -1.9219  2.1010 -2.3299
  813SOL    HW2 2439   1.690   1.128   1.911  0.5751 -1.5368  0.3585
  814SOL     OW 2440   0.981   0.518   1.833  0.6070 -0.2756 -0.1736
  814SOL    HW1 2441   0.951   0.603   1.782 -3.8591  1.4348 -0.3960
  814SOL    HW2 2442   0.941   0.512   1.929 -0.2621  3.8246  0.9857
  815SOL     OW 2443   1.003   0.819   0.595 -0.0985 -0.0430 -0.4695
  815SOL    HW1 2444   0.994   0.906   0.640  1.5221  2.6075 -2.2788
  815SOL    HW2 2445   0.944   0.810   0.513  0.2819 -2.7686  0.2756
  816SOL     OW 2446   2.167   1.704   2.685 -0.2642 -0.1338 -0.6433
  816SOL    HW1 2447   2.151   1.803   2.669 -1.7070  0.7556  0.7530
  816SOL    HW2 2448   2.116   1.677   2.767  1.9849 -0.9567 -0.3303
  817SOL     OW 2449   0.737   2.572   0.583 -0.3361  0.6872 -0.0210
  817SOL    HW1 2450   0.833   2.599   0.556 -0.9590 -0.1557  1.5984
  817SOL    HW2 2451   0.727   2.471   0.589 -0.0027 -0.5626  0.7236
  818SOL     OW 2452   2.015   0.027   3.018 -0.5476 -0.1993 -0.3691
  818SOL    HW1 2453   1.962   0.111   2.989 -0.7238  2.3557 -1.2951
  818SOL    HW2 2454   2.058   3.094   2.938 -0.7994  1.8651  3.0335
  819SOL     OW 2455   1.699   0.228   0.167  0.3934 -0.2380  0.2207
  819SOL    HW1 2456   1.743   0.143   0.127 -1.0343  0.8191 -1.1328
  819SOL    HW2 2457   1.772   0.293   0.189  0.0626  1.0037  0.2597
  820SOL     OW 2458   1.850   0.644   0.234 -0.2260  0.3095 -0.2305
  820SOL    HW1 2459   1.779   0.599   0.296  0.1430 -0.4572  0.3114
  820SOL    HW2 2460   1.895   0.717   0.288  0.2730 -2.4489 -1.2831
  821SOL     OW 2461   2.671   0.260   0.115  0.3988  0.2148 -0.2439
  821SOL    HW1 2462   2.613   0.266   0.204 -0.3052  0.6546  1.5796
  821SOL    HW2 2463   2.615   0.284   0.031  0.0877 -1.3736  0.6071
  822SOL     OW 2464   0.309   2.787   1.958 -0.8365 -0.0329 -0.2961
  822SOL    HW1 2465   0.327   2.751   2.052 -1.1427 -1.9218 -2.2121
  822SOL    HW2 2466   0.222   2.748   1.925 -1.6757  0.1925 -1.2289
  823SOL     OW 2467   2.981   1.617   1.448 -0.3414 -0.0082  0.1715
  823SOL    HW1 2468   2.937   1.704   1.469  2.5981 -0.0122  0.6510
  823SOL    HW2 2469   2.956   1.578   1.358  1.6382  1.4362 -1.2572
  824SOL     OW 2470   1.502   3.064   2.192 -0.1036 -0.0957  0.5088
  824SOL    HW1 2471   1.509   3.023   2.286  0.6841 -0.2070  1.4804
  824SOL    HW2 2472   1.406   3.060   2.154 -1.5981 -0.6009  1.0686
  825SOL     OW 2473   1.900   1.367   0.767  0.1414 -0.2972  0.3048
  825SOL    HW1 2474   1.927   1.280   0.810  0.2939  0.3703 -1.1212
  825SOL    HW2 2475   1.807   1.386   0.792 -0.1029 -0.9904 -0.5193
  826SOL     OW 2476   2.077   0.829   3.066 -0.2621 -0.0471  0.0363
  826SOL    HW1 2477   2.097   0.927   3.046  1.0009  0.3272  1.6962
  826SOL    HW2 2478   1.979   0.800   3.047 -1.7684 -0.3742 -0.4421
  827SOL     OW 2479   0.590   1.146   1.712 -0.1259 -0.1349  0.0744
  827SOL    HW1 2480   0.487   1.165   1.705 -1.5921 -1.6772 -1.4249
  827SOL    HW2 2481   0.619   1.179   1.621  1.5082  1.2941  2.2843
  828SOL     OW 2482   2.246   1.395   2.018  0.8206  0.3234 -0.1741
  828SOL    HW1 2483   2.339   1.414   1.975 -1.4071  1.2530 -2.2087
  828SOL    HW2 2484   2.171   1.460   1.991  1.8538 -1.5972  1.5979
  829SOL     OW 2485   0.112   1.989   0.115  0.5617 -0.0586  0.2839
  829SOL    HW1 2486   0.064   1.897   0.113 -1.6038 -3.6623  1.2018
  829SOL    HW2 2487   0.212   1.970   0.128 -3.0447  1.0200 -2.4752
  830SOL     OW 2488   1.722   0.968   0.510  0.1681 -0.1397  0.0313
  830SOL    HW1 2489   1.808   1.023   0.488  2.5588  1.3083 -0.1706
  830SOL    HW2 2490   1.741   0.922   0.595 -0.0272  2.1521 -2.1371
  831SOL     OW 2491   2.519   1.868   0.014 -0.3405 -0.2916  0.4104
  831SOL    HW1 2492   2.447   1.802   3.105  1.8823  1.9017  2.3620
  831SOL    HW2 2493   2.546   1.862   0.110  1.4545 -0.7510 -0.2880
  832SOL     OW 2494   0.957   2.992   0.128  0.3299  0.7759  0.1269
  832SOL    HW1 2495   0.900   3.007   0.209 -1.8439  3.7160 -0.7555
  832SOL    HW2 2496   1.038   3.047   0.127 -0.5230 -0.6157  0.0380
  833SOL     OW 2497   1.348   0.743   2.396  0.2664  0.0466 -0.0938
  833SOL    HW1 2498   1.408   0.669   2.424 -2.3220 -0.9515  1.0114
  833SOL    HW2 2499   1.408   0.832   2.382  1.8025  1.9681  1.6926
  834SOL     OW 2500   0.204   0.630   1.218  0.3985  0.8103  0.0962
  834SOL    HW1 2501   0.160   0.689   1.292 -1.2371  4.4223  0.9651
  834SOL    HW2 2502   0.138   0.570   1.165 -2.6067  0.2349 -0.8582
  835SOL     OW 2503   3.022   0.050   1.135  0.5003  0.4437  0.4007
  835SOL    HW1 2504   2.960   3.086   1.102 -0.7972  0.7464  0.3966
  835SOL    HW2 2505   3.016   0.051   1.235 -0.8851 -0.2072  1.0306
  836SOL     OW 2506   0.609   2.018   0.490 -0.2906  0.4704  0.1488
  836SOL    HW1 2507   0.657   1.935   0.515 -2.1213  1.8155  0.8259
  836SOL    HW2 2508   0.658   2.076   0.426 -2.8315  0.4602  2.4409
  837SOL     OW 2509   1.769   1.806   2.604  0.1081  0.3503  0.6397
  837SOL    HW1 2510   1.698   1.819   2.673  3.4272 -0.7751 -0.6873
  837SOL    HW2 2511   1.819   1.719   2.620 -1.8882  0.5389 -0.3655
  838SOL     OW 2512   0.377   0.981   2.143  0.2158  0.8590  0.6516
  838SOL    HW1 2513   0.315   1.035   2.199  0.3433 -0.5949 -0.4755
  838SOL    HW2 2514   0.319   0.910   2.103 -1.5700 -1.1316  0.7595
  839SOL     OW 2515   0.309   0.511   0.851  0.5410  0.0795  0.0324
  839SOL    HW1 2516   0.264   0.453   0.921  1.4326  1.2667 -1.4566
  839SOL    HW2 2517   0.379   0.575   0.896 -0.0992  1.0536  1.7089
  840SOL     OW 2518   2.606   0.149   2.552  0.6366 -0.2392  0.6880
  840SOL    HW1 2519   2.617   0.083   2.624 -2.0972  1.0824 -2.7855
  840SOL    HW2 2520   2.671   0.134   2.478  0.0376 -0.8922 -0.9182
  841SOL     OW 2521   0.783   2.341   3.058 -0.5341 -0.1076  0.1680
  841SOL    HW1 2522   0.870   2.380   3.025 -0.8245  1.0383 -2.2133
  841SOL    HW2 2523   0.787   2.240   3.054  0.9523 -3.9228  1.8032
  842SOL     OW 2524   0.582   0.008   1.075  0.2247  0.0296 -0.2354
  842SOL    HW1 2525   0.632   0.088   1.032 -2.2511  1.3198 -2.1496
  842SOL    HW2 2526   0.542   3.060   0.997 -0.1202  2.5545 -3.7149
  843SOL     OW 2527   0.269   0.832   3.090 -0.7851 -0.2180  0.0484
  843SOL    HW1 2528   0.186   0.886   3.103  2.0763 -0.8712 -0.7142
  843SOL    HW2 2529   0.347   0.899   3.071 -1.1747  1.9872 -2.7260
  844SOL     OW 2530   1.117   2.482   2.596 -0.2028  0.1840  0.0531
  844SOL    HW1 2531   1.151   2.386   2.596  0.9252 -1.7550  1.9179
  844SOL    HW2 2532   1.066   2.494   2.510  1.8552  0.5465  0.2944
  845SOL     OW 2533   2.623   3.031   2.724  0.1388 -0.1237  0.1989
  845SOL    HW1 2534   2.576   3.100   2.789  1.7996  2.3991  0.2969
  845SOL    HW2 2535   2.690   2.974   2.771 -1.8641  1.0503 -0.3512
  846SOL     OW 2536   1.933   1.576   2.586 -0.0676 -0.1941 -0.6606
  846SOL    HW1 2537   2.031   1.606   2.570  3.1434  1.5025 -2.9649
  846SOL    HW2 2538   1.923   1.504   2.663 -2.0651 -2.7372  1.6221
  847SOL     OW 2539   2.666   3.084   0.187 -0.1041 -0.0113  0.0038
  847SOL    HW1 2540   2.586   3.060   0.127  0.0073  1.2038 -2.2260
  847SOL    HW2 2541   2.700   0.069   0.169 -0.1612 -0.3675  1.8510
  848SOL     OW 2542   0.605   0.637   0.733 -0.0594 -0.9312 -0.0836
  848SOL    HW1 2543   0.621   0.538   0.705 -0.8393 -2.1342 -2.3260
  848SOL    HW2 2544   0.574   0.693   0.650  1.6621 -1.7785  0.3912
  849SOL     OW 2545   1.397   3.041   1.857 -0.1438  0.2863 -0.5240
  849SOL    HW1 2546   1.371   2.943   1.836  0.9185  0.4070  1.7895
  849SOL    HW2 2547   1.494   3.056   1.835 -0.4921 -1.5625  1.4134
  850SOL     OW 2548   0.658   1.117   0.717  0.0141  0.5750 -0.1253
  850SOL    HW1 2549   0.639   1.188   0.783  0.3473 -0.1800 -2.0368
  850SOL    HW2 2550   0.573   1.056   0.716 -0.6181 -0.2120 -1.7887
  851SOL     OW 2551   0.343   1.124   0.337  0.0352 -0.5829 -0.1198
  851SOL    HW1 2552   0.403   1.051   0.298  1.8461  1.4294 -0.9076
  851SOL    HW2 2553   0.249   1.104   0.304 -0.1868 -0.4737 -1.1065
  852SOL     OW 2554   1.342   0.196   1.789 -0.6930  0.8959  0.9877
  852SOL    HW1 2555   1.387   0.138   1.859  1.0320  1.0939  1.6205
  852SOL    HW2 2556   1.331   0.133   1.708  1.5710 -1.2263  3.8666
  853SOL     OW 2557   2.617   1.354   0.050  0.2337 -0.7431 -0.1503
  853SOL    HW1 2558   2.625   1.447   0.090  2.0201 -1.9296 -2.8694
  853SOL    HW2 2559   2.524   1.319   0.066  3.1158  1.5625 -0.6523
  854SOL     OW 2560   1.209   1.044   2.060  0.3146  0.3420  0.2963
  854SOL    HW1 2561   1.111   1.014   2.068 -1.5301 -0.3794  1.1868
  854SOL    HW2 2562   1.240   1.086   2.148  1.7627 -1.0894  0.7229
  855SOL     OW 2563   0.372   2.645   0.055  0.2178  0.1207  0.2373
  855SOL    HW1 2564   0.311   2.595   0.121  0.9549 -0.3499  0.2719
  855SOL    HW2 2565   0.321   2.662   3.075 -1.7926  2.4487 -2.2576
  856SOL     OW 2566   1.107   0.736   2.196  0.1883 -0.1630  0.3237
  856SOL    HW1 2567   1.120   0.797   2.117  0.4996 -0.0074 -1.9779
  856SOL    HW2 2568   1.186   0.747   2.260 -0.0635 -2.5491  0.3667
  857SOL     OW 2569   1.152   0.710   2.606  0.0884  0.1584  0.4370
  857SOL    HW1 2570   1.229   0.722   2.535  0.9776 -0.5387 -2.3896
  857SOL    HW2 2571   1.085   0.636   2.582 -0.5915  1.1073  1.2446
  858SOL     OW 2572   2.973   1.290   2.115  0.1284  0.2533  0.1657
  858SOL    HW1 2573   3.029   1.346   2.179  1.7501  1.8190  0.8820
  858SOL    HW2 2574   3.026   1.242   2.038 -1.3557  0.7386  0.3971
  859SOL     OW 2575   2.313   0.318   0.833 -0.2315  0.7437 -0.2106
  859SOL    HW1 2576   2.314   0.232   0.888  3.3401  2.2245 -0.6568
  859SOL    HW2 2577   2.373   0.392   0.878 -3.5936 -1.1274 -3.3668
  860SOL     OW 2578   1.810   2.959   0.326 -0.0559  0.2046 -0.1828
  860SOL    HW1 2579   1.900   3.005   0.335 -1.2046 -0.1130  0.7943
  860SOL    HW2 2580   1.739   2.994   0.395  1.2316  0.1002  1.0107
  861SOL     OW 2581   1.064   0.555   1.283  0.1958  0.4855  0.4114
  861SOL    HW1 2582   1.055   0.489   1.361 -0.9356  0.1267 -1.6288
  861SOL    HW2 2583   0.974   0.590   1.248 -1.1537  1.7123  0.4424
  862SOL     OW 2584   1.640   0.273   2.503  0.0640  0.2292  0.0820
  862SOL    HW1 2585   1.725   0.229   2.532 -1.8322 -3.1474  1.4825
  862SOL    HW2 2586   1.595   0.226   2.424  0.5008  2.1765 -2.2468
  863SOL     OW 2587   2.576   2.327   0.583  0.1213  0.2695 -0.1343
  863SOL    HW1 2588   2.517   2.313   0.659 -0.9239 -1.9246 -3.2444
  863SOL    HW2 2589   2.531   2.300   0.495  2.4563  0.7174 -0.4951
  864SOL     OW 2590   2.635   0.278   1.924  0.1444 -0.1815  0.1830
  864SOL    HW1 2591   2.719   0.333   1.925 -0.2890  1.8119  0.8708
  864SOL    HW2 2592   2.592   0.276   2.016  1.7958 -0.1847  2.7876
  865SOL     OW 2593   1.395   1.061   1.881 -0.4516  0.3203  0.1707
  865SOL    HW1 2594   1.343   1.046   1.970 -0.3192  0.9178 -0.9447
  865SOL    HW2 2595   1.367   1.155   1.851 -1.8753  1.9747  1.8633
  866SOL     OW 2596   1.693   2.422   1.004  0.2249  0.3966 -0.5844
  866SOL    HW1 2597   1.633   2.346   1.020  2.6112  1.8129 -0.7253
  866SOL    HW2 2598   1.638   2.494   0.956 -1.5382  1.1806  1.3164
  867SOL     OW 2599   2.464   2.943   0.577 -0.0934 -0.5208 -0.3259
  867SOL    HW1 2600   2.391   2.889   0.625 -2.8918  2.2556  0.4341
  867SOL    HW2 2601   2.426   3.024   0.530  0.1414 -0.9001 -1.8965
  868SOL     OW 2602   0.426   2.289   2.164  0.4988  0.2432 -0.4148
  868SOL    HW1 2603   0.459   2.205   2.116 -3.4052  3.6477 -0.1339
  868SOL    HW2 2604   0.358   2.340   2.103 -0.8890  0.6060 -1.2617
  869SOL     OW 2605   1.999   2.616   2.241 -0.1861 -0.6564 -0.7106
  869SOL    HW1 2606   1.939   2.673   2.300 -3.0536  1.0008  1.4310
  869SOL    HW2 2607   2.077   2.578   2.295  0.6213  0.7157 -1.3073
  870SOL     OW 2608   1.622   1.389   0.852  0.0018  0.0237  0.9097
  870SOL    HW1 2609   1.610   1.402   0.752 -2.1627 -1.7133 -0.5749
  870SOL    HW2 2610   1.550   1.331   0.889  1.4581  2.4217 -0.9879
  871SOL     OW 2611   0.289   1.784   1.419 -0.2099  0.3673  0.3779
  871SOL    HW1 2612   0.203   1.752   1.467 -0.0497 -0.5276  0.4758
  871SOL    HW2 2613   0.272   1.881   1.389  0.4927 -1.9463 -0.6998
  872SOL     OW 2614   0.772   1.782   2.674 -0.3835 -0.1217  0.9398
  872SOL    HW1 2615   0.810   1.714   2.734 -1.3034  2.7278  0.7039
  872SOL    HW2 2616   0.820   1.874   2.680 -1.6640  0.2120  1.8275
  873SOL     OW 2617   0.811   1.756   2.122  0.5976  0.5553  0.0197
  873SOL    HW1 2618   0.759   1.833   2.166  0.9197  0.5137 -0.1785
  873SOL    HW2 2619   0.753   1.670   2.125 -3.4214 -1.6084  0.1604
  874SOL     OW 2620   1.579   0.858   2.072 -0.1782 -0.4235 -0.1849
  874SOL    HW1 2621   1.537   0.782   2.020  2.7087  0.5203  0.8752
  874SOL    HW2 2622   1.602   0.933   2.005  1.2340  1.9394 -0.5181
  875SOL     OW 2623   2.990   0.025   0.339 -0.3603  0.0387 -0.1076
  875SOL    HW1 2624   3.008   3.053   0.283 -0.8662 -1.0596  1.6342
  875SOL    HW2 2625   2.943   3.101   0.425 -0.2261 -0.4139  0.9080
  876SOL     OW 2626   0.824   1.427   0.753 -0.3017  0.2089  0.3514
  876SOL    HW1 2627   0.820   1.494   0.677  1.3264  1.7316 -0.1626
  876SOL    HW2 2628   0.730   1.391   0.779  0.6901  0.4238  1.1586
  877SOL     OW 2629   2.689   3.035   0.664 -0.5707  0.1273  0.1392
  877SOL    HW1 2630   2.687   3.027   0.765  2.9625  0.6806  0.0366
  877SOL    HW2 2631   2.606   2.996   0.620  4.1465 -1.3011 -1.0684
  878SOL     OW 2632   1.971   1.661   0.471  0.1520 -0.0418  0.0529
  878SOL    HW1 2633   1.995   1.756   0.438  1.8279 -1.3307 -2.1322
  878SOL    HW2 2634   2.008   1.639   0.559 -1.3806  1.7919 -4.1246
  879SOL     OW 2635   2.449   1.548   1.287  0.2700  0.4492  1.0073
  879SOL    HW1 2636   2.419   1.454   1.274  2.0425 -1.6044  3.8420
  879SOL    HW2 2637   2.453   1.597   1.195 -0.5183 -0.6221 -0.1095
  880SOL     OW 2638   0.518   2.231   0.700  0.2237 -0.0676  0.4862
  880SOL    HW1 2639   0.500   2.129   0.702 -1.5610  1.0027 -0.6507
  880SOL    HW2 2640   0.461   2.277   0.631  0.5464  1.6870  0.9335
  881SOL     OW 2641   0.977   0.914   0.940 -0.3859 -0.5699 -0.1373
  881SOL    HW1 2642   0.939   0.981   0.874  0.9199 -1.7822 -0.7180
  881SOL    HW2 2643   1.015   0.962   1.020 -0.1023 -1.6840 -0.8754
  882SOL     OW 2644   2.561   1.006   0.544  0.0476 -0.7408 -0.5075
  882SOL    HW1 2645   2.465   1.037   0.547 -0.6568  1.0540  1.0450
  882SOL    HW2 2646   2.557   0.907   0.556 -1.0954  2.1331  0.9047
  883SOL     OW 2647   1.711   0.253   1.635  0.0585  0.2339 -0.3125
  883SOL    HW1 2648   1.808   0.276   1.599 -0.1471  1.2536 -2.9396
  883SOL    HW2 2649   1.665   0.201   1.558  0.4306 -1.8788 -0.1217
  884SOL     OW 2650   2.967   0.076   1.410  0.1153  0.9190  0.2129
  884SOL    HW1 2651   3.036   0.145   1.442 -0.4095  2.5214  0.8954
  884SOL    HW2 2652   2.879   0.089   1.457  0.1209 -1.1283  0.8244
  885SOL     OW 2653   1.427   0.932   2.793  0.1679  0.1121  0.2554
  885SOL    HW1 2654   1.365   0.981   2.728  0.2690 -0.7687  1.2821
  885SOL    HW2 2655   1.501   0.876   2.747  1.8259 -0.1389  0.3929
  886SOL     OW 2656   1.908   0.682   2.634 -0.1208  0.1366  0.2677
  886SOL    HW1 2657   1.995   0.632   2.627 -0.2241 -0.3707  1.0947
  886SOL    HW2 2658   1.841   0.654   2.566  1.9358  1.5193  0.8698
  887SOL     OW 2659   1.631   0.146   1.410 -0.1319 -0.0847 -0.2558
  887SOL    HW1 2660   1.652   0.208   1.335  2.3097 -2.4761 -1.7590
  887SOL    HW2 2661   1.660   0.049   1.391 -0.3626 -2.6528 -1.1123
  888SOL     OW 2662   2.070   1.581   1.917 -0.2036 -0.1546  0.0037
  888SOL    HW1 2663   2.117   1.558   1.827  0.9997 -1.6013 -2.7709
  888SOL    HW2 2664   2.080   1.680   1.937 -0.2437  1.9384  0.8369
  889SOL     OW 2665   1.772   2.230   0.531  0.1470  0.2786  0.0172
  889SOL    HW1 2666   1.846   2.232   0.604 -0.1356 -2.3978 -2.6843
  889SOL    HW2 2667   1.790   2.168   0.457 -2.0549  0.6353  4.8180
  890SOL     OW 2668   1.124   1.965   0.546  0.0937 -0.2060 -0.3215
  890SOL    HW1 2669   1.111   1.865   0.546  1.9480  0.4055  1.0760
  890SOL    HW2 2670   1.056   2.000   0.616 -1.1507  1.7156  1.2209
  891SOL     OW 2671   2.754   0.977   2.904  0.2453  0.7624 -0.0455
  891SOL    HW1 2672   2.789   1.040   2.836  0.3745 -3.0811  2.2613
  891SOL    HW2 2673   2.737   1.023   2.993 -2.2374  2.2009  0.4835
  892SOL     OW 2674   1.722   0.631   2.422  0.2934 -0.2144  0.5558
  892SOL    HW1 2675   1.643   0.579   2.380 -2.5856 -1.1163 -2.6818
  892SOL    HW2 2676   1.808   0.598   2.380  0.7275 -1.1847 -4.4712
  893SOL     OW 2677   1.578   2.903   1.380  0.2211  0.1577  0.3513
  893SOL    HW1 2678   1.664   2.914   1.319  2.9440 -0.8777  0.1479
  893SOL    HW2 2679   1.602   2.917   1.476 -1.6348  0.1996 -0.8377
  894SOL     OW 2680   2.890   2.912   0.531  0.1221  0.4825  0.2496
  894SOL    HW1 2681   2.831   2.875   0.451 -0.8383  0.3915  1.0744
  894SOL    HW2 2682   2.831   2.962   0.596  1.7243 -0.6262 -0.1482
  895SOL     OW 2683   1.910   2.520   2.856  0.2479 -0.5339  0.3310
  895SOL    HW1 2684   1.917   2.456   2.781 -1.8236  2.0202 -1.1698
  895SOL    HW2 2685   1.907   2.618   2.815 -0.0315  1.8396  0.1910
  896SOL     OW 2686   2.254   0.394   2.165 -0.0424 -0.3032  0.1418
  896SOL    HW1 2687   2.276   0.360   2.072 -0.2064 -3.4151  0.0398
  896SOL    HW2 2688   2.156   0.419   2.167 -1.9207  1.7150  0.8759
  897SOL     OW 2689   0.418   1.627   1.748 -0.6125 -0.3364  0.3169
  897SOL    HW1 2690   0.358   1.586   1.676 -1.6179 -1.9980 -2.8013
  897SOL    HW2 2691   0.456   1.714   1.707  2.2259 -1.5246  0.0164
  898SOL     OW 2692   2.368   1.823   1.793  0.0796 -0.2309 -0.1913
  898SOL    HW1 2693   2.309   1.807   1.713  2.4969  0.0314  0.4719
  898SOL    HW2 2694   2.464   1.851   1.770 -0.0724 -1.3335  1.0151
  899SOL     OW 2695   1.560   2.197   1.011 -0.1512  0.1274 -0.1785
  899SOL    HW1 2696   1.462   2.206   1.038  0.2922  0.2939  0.4561
  899SOL    HW2 2697   1.569   2.162   0.913 -0.2823 -1.9150 -2.8121
  900SOL     OW 2698   1.113   0.237   2.858 -0.1285  0.4327 -0.0509
  900SOL    HW1 2699   1.077   0.332   2.861 -0.7386 -0.6365  1.8016
  900SOL    HW2 2700   1.215   0.235   2.854 -1.2769 -1.3347 -0.2455
  901SOL     OW 2701   1.434   1.895   2.355  0.5711 -0.1378  0.2514
  901SOL    HW1 2702   1.438   1.793   2.343 -0.5308  2.2274 -1.9627
  901SOL    HW2 2703   1.519   1.943   2.323 -0.2490  1.7899 -0.6894
  902SOL     OW 2704   2.814   2.823   3.084 -0.0443  0.2098 -0.7154
  902SOL    HW1 2705   2.801   2.889   0.053 -0.7243  3.1238  4.3498
  902SOL    HW2 2706   2.899   2.764   0.003 -1.9949 -1.3098  1.6817
  903SOL     OW 2707   2.258   0.678   1.973  0.4611 -0.5965  0.7995
  903SOL    HW1 2708   2.188   0.690   1.901 -0.9285  0.8810  1.2001
  903SOL    HW2 2709   2.321   0.601   1.952 -1.3182 -0.8504  2.2564
  904SOL     OW 2710   1.511   0.510   2.320 -0.1401  0.2134 -0.2370
  904SOL    HW1 2711   1.534   0.416   2.299 -0.4002 -1.7183  3.3416
  904SOL    HW2 2712   1.452   0.543   2.245 -2.9325 -1.0729 -1.3654
  905SOL     OW 2713   2.298   2.304   1.372 -0.4713 -0.3094 -0.2560
  905SOL    HW1 2714   2.275   2.251   1.451 -1.8425 -0.0028 -1.7649
  905SOL    HW2 2715   2.392   2.355   1.383 -0.3503  3.6466 -0.3640
  906SOL     OW 2716   1.225   1.748   0.159 -0.1375  0.2858  0.0416
  906SOL    HW1 2717   1.241   1.749   0.057  0.4936 -0.9569 -0.9495
  906SOL    HW2 2718   1.261   1.660   0.191 -0.0952  0.5418 -0.1330
  907SOL     OW 2719   0.817   2.912   0.732 -0.2077 -0.4293 -0.2124
  907SOL    HW1 2720   0.835   2.896   0.832 -0.3721  0.0664  1.5300
  907SOL    HW2 2721   0.730   2.873   0.706  3.5361 -1.3111  0.1520
  908SOL     OW 2722   1.277   2.721   2.032  0.0122 -0.6113  0.8149
  908SOL    HW1 2723   1.300   2.723   1.930  0.3037  1.1795 -1.7275
  908SOL    HW2 2724   1.340   2.671   2.095 -1.8521  0.4453  1.4848
  909SOL     OW 2725   1.970   0.341   1.597 -0.1795  0.4764  0.5938
  909SOL    HW1 2726   2.035   0.394   1.543 -1.5927 -2.1013  1.1224
  909SOL    HW2 2727   1.957   0.373   1.688 -0.2266  1.0885  1.7158
  910SOL     OW 2728   1.336   0.749   3.086  0.3003  0.3404 -0.4266
  910SOL    HW1 2729   1.291   0.804   3.015  3.3226  0.9787  0.9617
  910SOL    HW2 2730   1.348   0.656   3.051 -0.3244  3.3790  2.1273
  911SOL     OW 2731   3.054   0.890   3.044  0.1944 -0.3653  0.1769
  911SOL    HW1 2732   2.976   0.824   3.051 -2.6558  0.8081  0.8159
  911SOL    HW2 2733   3.021   0.984   3.071  0.7856 -0.1989  1.2245
  912SOL     OW 2734   0.184   2.456   0.137 -0.7096 -0.8039 -0.9059
  912SOL    HW1 2735   0.189   2.385   0.209 -0.7412 -0.9525 -4.4182
  912SOL    HW2 2736   0.086   2.453   0.104 -2.2770  1.2605  0.7856
  913SOL     OW 2737   2.803   2.400   2.312 -0.0132 -0.8018 -0.4279
  913SOL    HW1 2738   2.853   2.339   2.371 -0.9032  1.6059 -2.4763
  913SOL    HW2 2739   2.869   2.476   2.281 -0.0738  1.7279  1.8989
  914SOL     OW 2740   1.504   2.024   1.526 -0.3215  0.2036  0.8356
  914SOL    HW1 2741   1.567   2.012   1.443 -1.0322  2.0216 -3.0823
  914SOL    HW2 2742   1.545   1.998   1.617 -2.2376 -2.6385 -0.2041
  915SOL     OW 2743   0.744   2.816   2.091  0.5162 -0.3519 -0.6560
  915SOL    HW1 2744   0.699   2.755   2.025  1.3508 -1.0803  1.1701
  915SOL    HW2 2745   0.733   2.911   2.052  0.3245 -0.3447  2.2281
  916SOL     OW 2746   0.627   1.067   2.049  0.5399  0.1575 -0.8279
  916SOL    HW1 2747   0.533   1.045   2.081 -2.0020  1.3184  1.5022
  916SOL    HW2 2748   0.688   0.985   2.040 -1.8695  2.0898 -1.3117
  917SOL     OW 2749   2.534   0.453   0.608  0.3773  0.1744 -0.1381
  917SOL    HW1 2750   2.459   0.401   0.652 -0.6908 -1.2977  2.3547
  917SOL    HW2 2751   2.624   0.434   0.653  0.8443 -0.3482  1.5475
  918SOL     OW 2752   1.739   2.937   2.083  0.4510 -0.0972 -0.0639
  918SOL    HW1 2753   1.784   2.919   2.175 -0.5052 -0.3410  1.9463
  918SOL    HW2 2754   1.648   2.973   2.104  1.7188 -1.7421  0.9228
  919SOL     OW 2755   1.714   2.620   1.503 -0.6703  0.6479 -0.5319
  919SOL    HW1 2756   1.698   2.569   1.418  1.5707 -2.2886 -0.7322
  919SOL    HW2 2757   1.633   2.609   1.566 -0.5164  0.7318 -1.2663
  920SOL     OW 2758   0.615   0.792   0.052  0.5003 -0.4012  0.3951
  920SOL    HW1 2759   0.562   0.848   3.096 -0.5414 -1.8635  1.8440
  920SOL    HW2 2760   0.569   0.702   0.058  1.3016 -1.3533  0.0073
  921SOL     OW 2761   0.030   0.553   2.890  0.1020 -0.0459  0.3900
  921SOL    HW1 2762   0.008   0.652   2.872  1.1010 -0.1955 -2.7702
  921SOL    HW2 2763   3.076   0.499   2.825 -0.2524 -2.2483 -0.9627
  922SOL     OW 2764   0.841   1.738   1.074  0.3635 -0.3193 -0.2272
  922SOL    HW1 2765   0.854   1.638   1.100 -0.4872 -1.3241  1.1140
  922SOL    HW2 2766   0.758   1.779   1.112  0.3426 -1.1116 -0.5828
  923SOL     OW 2767   0.675   1.331   1.984  0.0325  0.1652 -0.5130
  923SOL    HW1 2768   0.591   1.365   1.941  0.8267 -1.9784  0.4043
  923SOL    HW2 2769   0.655   1.238   2.021 -0.0147 -2.4452  1.1473
  924SOL     OW 2770   1.660   3.009   2.946  0.4588  0.5581 -0.6666
  924SOL    HW1 2771   1.665   3.054   3.036  1.0848 -0.0179  0.1850
  924SOL    HW2 2772   1.748   3.019   2.897 -0.5286 -1.4260 -0.7496
  925SOL     OW 2773   2.770   1.319   1.366 -0.1317  0.6818 -0.0806
  925SOL    HW1 2774   2.816   1.398   1.327  0.1905 -2.2878  2.5107
  925SOL    HW2 2775   2.741   1.244   1.302  3.3276 -3.2846 -0.1248
  926SOL     OW 2776   1.696   0.579   1.288  0.4418  0.0860  0.5887
  926SOL    HW1 2777   1.794   0.608   1.276  1.1598  1.4840  0.5608
  926SOL    HW2 2778   1.650   0.620   1.369  0.3814 -0.2457 -2.5344
  927SOL     OW 2779   2.012   2.883   1.176  0.0534  0.2147 -0.5848
  927SOL    HW1 2780   2.068   2.837   1.250 -0.0177  0.2969  2.5459
  927SOL    HW2 2781   1.993   2.979   1.196 -1.2997  0.3274 -0.2235
  928SOL     OW 2782   0.308   1.173   2.501 -0.4745 -0.0577  0.4550
  928SOL    HW1 2783   0.282   1.180   2.402 -0.4938  0.1697  0.7361
  928SOL    HW2 2784   0.321   1.076   2.526 -1.9708  1.9982 -0.1982
  929SOL     OW 2785   2.796   0.443   0.910 -0.2622  0.0477 -0.1207
  929SOL    HW1 2786   2.894   0.462   0.917  0.0775 -2.8098  2.2866
  929SOL    HW2 2787   2.744   0.530   0.919  0.7203 -1.9565  2.5945
  930SOL     OW 2788   2.839   2.544   1.906 -0.1181  0.1166 -0.0690
  930SOL    HW1 2789   2.854   2.636   1.947 -0.6058 -0.7757 -0.6473
  930SOL    HW2 2790   2.844   2.464   1.972  1.5728 -3.2941 -0.2605
  931SOL     OW 2791   1.849   0.857   1.029 -0.5101  0.0919  0.3684
  931SOL    HW1 2792   1.757   0.890   1.061 -4.1771  0.4290  1.0519
  931SOL    HW2 2793   1.926   0.868   1.093 -1.0239  0.8399 -3.7790
  932SOL     OW 2794   3.101   1.237   1.882 -0.6705 -0.1367 -0.0471
  932SOL    HW1 2795   0.039   1.145   1.874 -0.9386 -2.6252  1.0795
  932SOL    HW2 2796   0.070   1.308   1.888  2.4179  1.0991  0.1423
  933SOL     OW 2797   2.951   2.313   1.432 -0.0385 -0.3549  0.0491
  933SOL    HW1 2798   2.938   2.375   1.512 -0.9561 -1.3019  1.2712
  933SOL    HW2 2799   2.864   2.293   1.383  1.0152  0.8579 -2.6841
  934SOL     OW 2800   0.670   1.930   1.442  0.4948  0.6976  0.3812
  934SOL    HW1 2801   0.695   1.863   1.512 -1.1144  0.7992  2.2016
  934SOL    HW2 2802   0.607   2.003   1.473  0.8376  0.2294 -0.6892
  935SOL     OW 2803   2.916   1.625   1.865  0.0206 -0.1378 -0.2358
  935SOL    HW1 2804   2.914   1.524   1.852 -3.0766  2.3102  0.0099
  935SOL    HW2 2805   2.831   1.667   1.843 -0.4714 -0.1503 -0.6663
  936SOL     OW 2806   2.431   1.392   1.699 -0.6813 -0.1872  0.4506
  936SOL    HW1 2807   2.510   1.431   1.647  0.8515  1.2994 -1.4213
  936SOL    HW2 2808   2.348   1.452   1.695  2.1458 -1.3107 -4.8787
  937SOL     OW 2809   1.726   0.831   1.458 -0.3750 -0.6405  0.0562
  937SOL    HW1 2810   1.659   0.869   1.391  0.5660  2.1366  0.0370
  937SOL    HW2 2811   1.775   0.905   1.505  2.4957 -1.6669  0.4516
  938SOL     OW 2812   0.711   2.380   2.775 -0.6108 -0.0589 -0.3128
  938SOL    HW1 2813   0.765   2.329   2.846  0.8054 -1.0042 -1.6933
  938SOL    HW2 2814   0.714   2.478   2.809  2.1056 -1.3286 -1.0642
  939SOL     OW 2815   2.476   1.571   2.912 -0.3893 -0.6505  0.2186
  939SOL    HW1 2816   2.529   1.487   2.888 -1.7260  1.1886  0.4649
  939SOL    HW2 2817   2.452   1.626   2.831  0.5500 -2.0904  2.0434
  940SOL     OW 2818   1.550   1.915   0.457  0.3736  0.2642  0.3432
  940SOL    HW1 2819   1.538   1.880   0.550 -0.3404  0.4536 -1.3861
  940SOL    HW2 2820   1.545   1.836   0.393  0.7136  1.3626  1.8546
  941SOL     OW 2821   1.929   2.757   2.708 -0.3403 -0.0919 -0.1240
  941SOL    HW1 2822   1.919   2.728   2.613 -1.4691 -2.7312 -1.2596
  941SOL    HW2 2823   2.029   2.778   2.727  2.7927  0.5815  0.9835
  942SOL     OW 2824   1.000   2.688   0.541 -0.4817 -0.0818  0.1178
  942SOL    HW1 2825   1.066   2.612   0.520  2.2386 -2.4078  0.2711
  942SOL    HW2 2826   0.970   2.722   0.448  1.7422  1.9255  0.4178
  943SOL     OW 2827   2.264   0.776   1.589  0.5541  0.6096 -0.2292
  943SOL    HW1 2828   2.356   0.776   1.629 -1.3880  0.3520 -4.1054
  943SOL    HW2 2829   2.200   0.725   1.652 -0.0649  0.5099  1.1235
  944SOL     OW 2830   1.118   0.898   2.808  0.0707 -0.3556 -0.0236
  944SOL    HW1 2831   1.114   0.993   2.842  1.6383 -0.8457  0.5637
  944SOL    HW2 2832   1.182   0.885   2.727  1.1554  1.0538 -0.0762
  945SOL     OW 2833   2.870   2.154   1.151  0.6968  0.5289  0.2724
  945SOL    HW1 2834   2.801   2.121   1.219 -0.4049  1.1832 -1.8919
  945SOL    HW2 2835   2.868   2.253   1.128 -0.2510  1.3372 -1.1046
  946SOL     OW 2836   0.446   1.005   3.015 -0.2539  0.4929 -0.3338
  946SOL    HW1 2837   0.454   1.084   3.079 -0.8279  1.1292  0.6114
  946SOL    HW2 2838   0.472   1.028   2.919 -0.1908 -2.8728  1.2671
  947SOL     OW 2839   1.961   0.439   1.893  0.4406  0.1543  0.7676
  947SOL    HW1 2840   1.895   0.487   1.948  1.9649  0.6111 -0.8739
  947SOL    HW2 2841   1.991   0.345   1.932  0.8901 -1.1606  1.6197
  948SOL     OW 2842   3.007   2.003   0.905  0.0854  0.3391 -0.7655
  948SOL    HW1 2843   2.955   2.062   0.972  0.0787  0.9465  1.8463
  948SOL    HW2 2844   2.971   1.911   0.893  2.8878  2.9809  0.0422
  949SOL     OW 2845   1.277   1.267   1.793  0.3593 -0.6581 -0.1795
  949SOL    HW1 2846   1.186   1.248   1.753  0.0733 -0.7307 -1.0515
  949SOL    HW2 2847   1.263   1.340   1.869 -2.9950  1.8252  2.4666
  950SOL     OW 2848   0.214   0.966   0.880  0.3319  0.6156  0.3150
  950SOL    HW1 2849   0.246   0.899   0.953  0.5592 -2.6272  2.7506
  950SOL    HW2 2850   0.238   1.060   0.916  0.7225  4.1252 -0.2858
  951SOL     OW 2851   0.310   1.729   2.340  0.1409  0.3403  0.1714
  951SOL    HW1 2852   0.241   1.692   2.404 -1.0502 -1.7218  2.0493
  951SOL    HW2 2853   0.402   1.743   2.386  0.5873 -0.5790  0.7027
  952SOL     OW 2854   1.605   1.652   0.227 -0.4173 -0.6978  0.2799
  952SOL    HW1 2855   1.649   1.609   0.304 -0.2407  0.6713 -0.8411
  952SOL    HW2 2856   1.537   1.592   0.184 -0.4683  0.6976 -0.8998
  953SOL     OW 2857   1.049   0.469   0.036 -0.3036 -0.0987 -0.1779
  953SOL    HW1 2858   0.986   0.403   3.093 -0.4708 -0.2126 -3.3619
  953SOL    HW2 2859   1.066   0.552   3.087  0.9940 -2.9026  1.9928
  954SOL     OW 2860   1.944   1.119   0.384 -0.5328 -0.0233  0.8174
  954SOL    HW1 2861   1.966   1.197   0.447  0.7914  1.8799  0.8778
  954SOL    HW2 2862   1.901   1.143   0.293  0.3458  3.0128 -1.6928
  955SOL     OW 2863   2.376   2.357   2.840  0.3541 -0.0078  0.0172
  955SOL    HW1 2864   2.385   2.259   2.844 -0.3491  0.7115  1.4671
  955SOL    HW2 2865   2.463   2.395   2.800  0.9947  0.2744 -0.1322
  956SOL     OW 2866   1.058   0.711   1.595 -0.3983 -0.2258  0.0092
  956SOL    HW1 2867   1.059   0.700   1.500 -1.4598 -2.0492  0.0238
  956SOL    HW2 2868   1.143   0.752   1.635  0.3119  0.7123 -0.0256
  957SOL     OW 2869   1.665   1.170   1.495  0.0475 -0.4940  0.2640
  957SOL    HW1 2870   1.733   1.108   1.545  2.0377 -0.4338 -2.3054
  957SOL    HW2 2871   1.617   1.231   1.560 -1.8082 -0.0121  1.1271
  958SOL     OW 2872   0.324   1.927   0.458 -0.0792 -0.0666  0.5053
  958SOL    HW1 2873   0.348   1.824   0.465 -0.0796 -1.7478  0.0609
  958SOL    HW2 2874   0.411   1.978   0.465  2.0252 -0.7488  0.7657
  959SOL     OW 2875   1.837   1.332   1.325  0.0030 -0.6253 -0.3275
  959SOL    HW1 2876   1.756   1.288   1.365 -2.3322 -0.3749 -0.2237
  959SOL    HW2 2877   1.826   1.427   1.300 -0.7707 -0.3812 -2.8239
  960SOL     OW 2878   2.850   1.582   2.740  0.2163 -0.2018 -0.5286
  960SOL    HW1 2879   2.920   1.652   2.743 -0.3178 -0.1530 -2.2246
  960SOL    HW2 2880   2.779   1.591   2.809  1.5899 -0.6461  1.4175
  961SOL     OW 2881   1.062   1.695   0.614  0.5264  0.4702 -0.4638
  961SOL    HW1 2882   0.985   1.707   0.684 -0.3508  0.2546 -0.7847
  961SOL    HW2 2883   1.072   1.599   0.579  0.4830 -1.1915  1.0695
  962SOL     OW 2884   0.939   1.079   0.739  0.1713  0.2368  0.0695
  962SOL    HW1 2885   1.003   1.160   0.719  0.1182  0.8270  0.3771
  962SOL    HW2 2886   0.835   1.096   0.712 -2.0302  1.2863  0.8156
  963SOL     OW 2887   1.223   2.093   2.089  0.0522  0.1918 -0.2557
  963SOL    HW1 2888   1.275   2.093   2.177  2.0479 -0.5798 -2.0478
  963SOL    HW2 2889   1.160   2.013   2.083  1.6023 -0.7479 -3.5726
  964SOL     OW 2890   2.836   2.859   2.796  0.1303  0.1471 -0.4574
  964SOL    HW1 2891   2.803   2.825   2.891  0.3888  1.8767  1.7852
  964SOL    HW2 2892   2.890   2.779   2.760 -2.5709  2.4401  1.9120
  965SOL     OW 2893   0.760   2.177   0.223  0.8594  0.1773 -0.0791
  965SOL    HW1 2894   0.663   2.204   0.200  0.8774 -0.7446  1.5476
  965SOL    HW2 2895   0.818   2.253   0.258 -2.4211  0.8542  3.1693
  966SOL     OW 2896   2.715   1.800   2.950 -0.5879  0.0166  0.1813
  966SOL    HW1 2897   2.633   1.798   3.009  0.9880  0.6523  0.3163
  966SOL    HW2 2898   2.702   1.841   2.857  3.1006  0.1719  0.6820
  967SOL     OW 2899   2.126   3.058   2.780  0.2656  0.1447 -0.3637
  967SOL    HW1 2900   2.190   0.031   2.773  2.7452  2.2099  1.5541
  967SOL    HW2 2901   2.162   2.964   2.754  1.9824 -2.6536  0.4896
  968SOL     OW 2902   2.257   2.784   0.654  0.0502  0.4339  0.2625
  968SOL    HW1 2903   2.208   2.798   0.563 -1.0242  2.1558  0.7213
  968SOL    HW2 2904   2.189   2.753   0.722 -3.4402 -0.3202  0.3896
  969SOL     OW 2905   0.874   1.097   2.390 -0.0174  0.1417 -0.2702
  969SOL    HW1 2906   0.894   1.001   2.397 -0.7023  0.1270 -0.9870
  969SOL    HW2 2907   0.775   1.123   2.398  0.4764  1.4095  2.9700
  970SOL     OW 2908   1.379   1.302   0.959  0.0504 -0.2616 -0.1656
  970SOL    HW1 2909   1.369   1.198   0.945  0.7913 -0.3332  0.6027
  970SOL    HW2 2910   1.416   1.320   1.053  0.5621  0.6407  1.2484
  971SOL     OW 2911   2.355   2.990   1.417  0.7416  0.5954  0.3155
  971SOL    HW1 2912   2.323   3.083   1.391  0.8124  1.3455 -0.6493
  971SOL    HW2 2913   2.452   2.983   1.402 -1.7462  2.4943 -1.1199
  972SOL     OW 2914   2.977   3.049   1.773 -0.0077  0.0964 -0.5218
  972SOL    HW1 2915   2.905   2.996   1.821 -0.5669  1.0049 -1.0182
  972SOL    HW2 2916   2.992   3.010   1.680 -0.5464 -1.5166 -0.6987
  973SOL     OW 2917   0.167   0.222   2.598  0.0416 -0.0520 -0.3023
  973SOL    HW1 2918   0.236   0.193   2.666  0.4392 -0.3960 -0.5127
  973SOL    HW2 2919   0.075   0.176   2.620 -0.8688 -3.4937  1.3306
  974SOL     OW 2920   2.334   1.141   2.348  0.2506 -0.5381 -0.1811
  974SOL    HW1 2921   2.320   1.166   2.444 -1.4037 -3.0650 -0.0456
  974SOL    HW2 2922   2.255   1.079   2.324 -1.3119 -3.9750 -1.7956
  975SOL     OW 2923   0.716   0.256   1.584 -0.1392  0.0785  0.6724
  975SOL    HW1 2924   0.750   0.169   1.532 -1.9895 -0.1372 -0.1933
  975SOL    HW2 2925   0.702   0.339   1.524 -0.0079 -1.7060 -2.5076
  976SOL     OW 2926   0.711   1.946   2.306 -0.3408 -0.0416  0.1355
  976SOL    HW1 2927   0.615   1.981   2.304 -0.0146  0.9097  3.4616
  976SOL    HW2 2928   0.782   2.018   2.299  1.9024  0.4609  1.2173
  977SOL     OW 2929   0.580   0.146   0.436 -0.1776 -0.0544  0.9094
  977SOL    HW1 2930   0.628   0.147   0.523  1.2476 -0.6712 -0.4820
  977SOL    HW2 2931   0.518   0.225   0.437  1.3484 -0.2963 -0.3829
  978SOL     OW 2932   2.718   1.381   2.158 -0.0472  0.3559  0.3960
  978SOL    HW1 2933   2.809   1.334   2.148 -1.3535 -1.2055 -1.4338
  978SOL    HW2 2934   2.652   1.310   2.183  3.0777  1.8431  1.5396
  979SOL     OW 2935   1.679   0.041   1.802  0.0189 -0.0495 -0.3785
  979SOL    HW1 2936   1.700   0.119   1.744  2.0472 -1.2729 -1.3298
  979SOL    HW2 2937   1.760   0.026   1.865  4.7214  0.6634  3.2578
  980SOL     OW 2938   1.746   1.677   1.644 -0.1176 -0.3460  0.8865
  980SOL    HW1 2939   1.806   1.655   1.563 -0.1459 -2.7370  0.0508
  980SOL    HW2 2940   1.649   1.649   1.628 -1.5221  1.3337  0.5085
  981SOL     OW 2941   2.485   1.023   1.468 -0.0313 -0.3382 -0.1730
  981SOL    HW1 2942   2.418   1.085   1.517 -2.0591  4.4818  2.0314
  981SOL    HW2 2943   2.582   1.030   1.501  0.2880 -3.3210 -0.0315
  982SOL     OW 2944   0.438   2.937   2.844 -0.2314  0.0780 -0.3558
  982SOL    HW1 2945   0.527   2.921   2.889  1.5921  1.6596  1.4377
  982SOL    HW2 2946   0.421   2.878   2.764  1.7538 -1.6575 -0.1514
  983SOL     OW 2947   2.875   0.466   2.455  0.1645 -0.5995 -0.0747
  983SOL    HW1 2948   2.920   0.555   2.440 -1.6315  0.8296 -1.1100
  983SOL    HW2 2949   2.921   0.392   2.407 -0.1282  0.8164  1.0066
  984SOL     OW 2950   1.225   3.097   2.072 -0.6843  0.5504 -0.9591
  984SOL    HW1 2951   1.278   3.070   1.992  0.4430  1.0588  3.0472
  984SOL    HW2 2952   1.137   3.040   2.077 -2.0358  3.6473  0.0641
  985SOL     OW 2953   1.926   2.098   2.020  0.4240 -0.6472  0.2167
  985SOL    HW1 2954   1.923   2.152   1.935 -0.0946 -0.5527 -0.5883
  985SOL    HW2 2955   1.984   2.021   2.002  1.1052  0.4148 -0.4998
  986SOL     OW 2956   2.606   0.359   1.230  0.1390  0.1782  0.5985
  986SOL    HW1 2957   2.562   0.322   1.313 -1.6252  0.5997  1.8727
  986SOL    HW2 2958   2.708   0.349   1.236 -0.3701  0.9377  0.8419
  987SOL     OW 2959   2.611   1.136   1.237  0.0429  0.7378  0.0915
  987SOL    HW1 2960   2.591   1.060   1.305 -1.6552 -1.5165  0.7799
  987SOL    HW2 2961   2.574   1.111   1.144 -0.4555 -3.3204  1.7334
  988SOL     OW 2962   2.539   1.201   1.856 -0.2213 -0.3370  0.4206
  988SOL    HW1 2963   2.518   1.216   1.954 -0.7724 -0.3558  2.0681
  988SOL    HW2 2964   2.503   1.279   1.799 -2.0203 -0.8515  1.1196
  989SOL     OW 2965   1.238   2.225   0.188  0.8970  0.1484 -0.1092
  989SOL    HW1 2966   1.318   2.274   0.230 -0.0378 -1.5481 -2.2110
  989SOL    HW2 2967   1.204   2.149   0.249 -2.3960 -1.8952  0.3791
  990SOL     OW 2968   1.618   0.777   2.623  0.5874 -0.0455  0.2852
  990SOL    HW1 2969   1.663   0.731   2.543  1.8109 -0.6128  1.6353
  990SOL    HW2 2970   1.654   0.739   2.709 -1.0712  2.0488 -3.1926
  991SOL     OW 2971   1.299   0.535   0.487  0.1211  0.1966  0.4164
  991SOL    HW1 2972   1.381   0.491   0.535 -0.3051  1.6967  0.7754
  991SOL    HW2 2973   1.265   0.489   0.405  0.1075  3.1906  0.0243
  992SOL     OW 2974   2.764   1.745   1.101 -0.1010 -0.2451  1.2008
  992SOL    HW1 2975   2.809   1.759   1.012 -3.2017 -1.4386  0.4902
  992SOL    HW2 2976   2.684   1.809   1.105  1.5922 -1.1437 -0.4409
  993SOL     OW 2977   2.960   0.573   1.199  0.0685 -0.1943  0.1697
  993SOL    HW1 2978   2.922   0.662   1.173  0.1861  0.9981  1.5244
  993SOL    HW2 2979   3.043   0.553   1.144 -1.0955  1.1066  0.8459
  994SOL     OW 2980   0.034   2.001   2.689 -0.3259 -0.3391  0.5717
  994SOL    HW1 2981   0.003   2.079   2.751 -3.1624  2.5664  0.9188
  994SOL    HW2 2982   0.077   2.028   2.600 -2.1461  1.0076 -2.1816
  995SOL     OW 2983   1.921   0.960   2.727  0.2530  0.0580 -0.4223
  995SOL    HW1 2984   1.940   1.035   2.663  1.1528  0.7971 -0.4030
  995SOL    HW2 2985   1.941   0.872   2.681  2.2348  0.0975  0.0382
  996SOL     OW 2986   2.619   1.336   0.579  0.1060  0.4070 -0.4769
  996SOL    HW1 2987   2.522   1.348   0.566  2.4079 -0.8552  2.6798
  996SOL    HW2 2988   2.673   1.369   0.500 -1.1506 -1.7909 -0.4433
  997SOL     OW 2989   2.042   0.729   2.133 -0.5347 -0.4915  0.1305
  997SOL    HW1 2990   2.137   0.706   2.098  0.0055 -0.9738 -1.0297
  997SOL    HW2 2991   2.004   0.797   2.070  0.1515 -0.9428  1.1810
  998SOL     OW 2992   2.671   1.588   0.198  0.6017  0.1732 -1.0074
  998SOL    HW1 2993   2.628   1.677   0.212  0.2434 -1.0090 -0.3651
  998SOL    HW2 2994   2.724   1.557   0.278  3.4100 -2.7109 -1.2468
  999SOL     OW 2995   3.023   2.414   0.143  0.6580 -0.7199  0.3795
  999SOL    HW1 2996   3.017   2.313   0.119 -1.5849  0.2064 -0.7939
  999SOL    HW2 2997   2.940   2.456   0.185 -2.5384  1.2280  1.1635
 1000SOL     OW 2998   0.863   0.859   2.651  0.2217  0.1081  0.2046
 1000SOL    HW1 2999   0.953   0.835   2.686 -1.2755  1.7057 -0.2350
 1000SOL    HW2 3000   0.872   0.862   2.551 -0.4767 -0.5280 -0.6543
   3.10765   3.10765   3.10765
