1000 SPC/Fw water molecules t= 428.00000 step= 428000
 3000
    1SOL     OW    1   0.028   0.059   1.236  0.3228  0.3592 -0.0784
    1SOL    HW1    2   0.121   0.096   1.209  1.5420 -0.0819  2.3645
    1SOL    HW2    3   0.046   0.002   1.319 -0.5259 -4.8710 -0.6806
    2SOL     OW    4   2.621   2.968   0.164  0.3846 -0.0815  0.2132
    2SOL    HW1    5   2.614   2.883   0.106  1.6537  2.5573 -0.6250
    2SOL    HW2    6   2.605   3.049   0.108  2.7527 -1.6138  2.0661
    3SOL     OW    7   1.499   2.767   3.044  0.1910 -0.2264 -0.0908
    3SOL    HW1    8   1.405   2.793   3.012 -2.1122 -1.1602 -0.8006
    3SOL    HW2    9   1.505   2.737   0.032  1.0427 -0.3550  0.3706
    4SOL     OW   10   1.074   3.027   2.320  0.0186 -0.1333  0.1163
    4SOL    HW1   11   1.079   3.062   2.412 -1.5067  1.5727 -4.5577
    4SOL    HW2   12   1.010   3.085   2.267  0.9617 -1.5768  1.5604
    5SOL     OW   13   2.292   0.158   2.288  0.7019 -0.5686  0.5142
    5SOL    HW1   14   2.243   0.083   2.235 -0.4588 -1.3414  0.1723
    5SOL    HW2   15   2.291   0.236   2.222  0.4695  0.9849 -0.5595
    6SOL     OW   16   2.766   2.099   1.038  0.4734 -0.2790 -0.0057
    6SOL    HW1   17   2.818   2.141   0.965  0.2537  0.6786 -0.3622
    6SOL    HW2   18   2.675   2.143   1.055 -4.3996 -1.2810  0.6493
    7SOL     OW   19   1.625   1.610   0.730 -0.3059 -0.1898  0.2253
    7SOL    HW1   20   1.720   1.639   0.720 -1.5596 -0.1822  0.2240
    7SOL    HW2   21   1.614   1.520   0.680  1.8288 -1.5346 -1.0356
    8SOL     OW   22   0.484   1.490   0.976 -0.0455 -0.5072 -0.4696
    8SOL    HW1   23   0.437   1.507   1.067 -1.4998 -0.9664  2.6029
    8SOL    HW2   24   0.523   1.573   0.932 -0.9796  0.2025  1.6809
    9SOL     OW   25   3.048   2.709   1.377 -0.2774 -0.1822 -0.1762
    9SOL    HW1   26   2.979   2.751   1.314  2.4109 -3.8708 -0.1595
    9SOL    HW2   27   3.086   2.625   1.335 -1.4640  1.8444  1.1808
   10SOL     OW   28   1.221   2.331   0.543 -0.0712  0.0907  0.3181
   10SOL    HW1   29   1.308   2.380   0.536 -1.9897 -1.1439 -0.4407
   10SOL    HW2   30   1.149   2.403   0.550  2.6514 -3.3429  0.0636
   11SOL     OW   31   1.581   1.767   1.269 -0.4836 -0.0458  0.0186
   11SOL    HW1   32   1.534   1.686   1.233 -1.0727 -0.4592  3.5719
   11SOL    HW2   33   1.681   1.744   1.289  1.2259 -3.2047  0.9354
   12SOL     OW   34   3.086   0.739   2.090 -0.2452 -0.2702  0.1752
   12SOL    HW1   35   3.052   0.753   1.994  0.0332 -1.8758  0.7027
   12SOL    HW2   36   0.073   0.778   2.105  2.5367  0.9965 -1.6817
   13SOL     OW   37   2.281   2.915   0.148 -0.5122 -0.2708  0.2541
   13SOL    HW1   38   2.241   2.822   0.134  1.7398  0.4296  1.7869
   13SOL    HW2   39   2.333   2.947   0.064 -1.8428 -3.6698 -2.2109
   14SOL     OW   40   1.448   1.682   0.243  0.2993 -0.1924 -0.4738
   14SOL    HW1   41   1.383   1.682   0.167  2.2450 -0.8154  0.8282
   14SOL    HW2   42   1.504   1.767   0.241 -1.7013 -2.2740 -0.1678
   15SOL     OW   43   2.925   2.503   1.920 -0.3659  0.1904  0.3257
   15SOL    HW1   44   2.991   2.472   1.842 -0.5996  0.0543  0.0056
   15SOL    HW2   45   2.903   2.601   1.911 -1.3871  1.1956 -0.0514
   16SOL     OW   46   2.832   0.493   0.805  0.0522 -0.0149  0.7841
   16SOL    HW1   47   2.926   0.473   0.840 -0.5581 -2.5898 -0.4603
   16SOL    HW2   48   2.790   0.411   0.757  1.5611  2.5568 -0.0524
   17SOL     OW   49   0.876   0.540   0.642  0.0959  0.3995 -0.2241
   17SOL    HW1   50   0.950   0.543   0.710  0.3561 -0.4344  0.3091
   17SOL    HW2   51   0.915   0.519   0.552  0.4544 -0.7770  3.8916
   18SOL     OW   52   0.972   0.292   0.844  0.4547 -0.0253 -0.2062
   18SOL    HW1   53   0.997   0.205   0.802 -0.6182  1.8735  0.8350
   18SOL    HW2   54   1.043   0.360   0.833 -3.4492 -1.1196 -0.6103
   19SOL     OW   55   2.054   1.255   0.697 -0.8992  0.0247  0.4162
   19SOL    HW1   56   2.147   1.279   0.656  0.2762  2.0032 -1.9178
   19SOL    HW2   57   1.983   1.251   0.627  1.1979 -0.3619 -1.1912
   20SOL     OW   58   2.286   1.616   2.903  0.3206  0.1224  0.2401
   20SOL    HW1   59   2.199   1.558   2.906 -1.6247 -0.4436  0.8598
   20SOL    HW2   60   2.306   1.654   2.808  0.7564  0.4480 -0.8850
   21SOL     OW   61   1.484   2.998   0.311  0.1173 -0.1314  0.2291
   21SOL    HW1   62   1.397   3.053   0.325 -4.9264  0.6935  0.0227
   21SOL    HW2   63   1.535   3.045   0.235 -0.2698  1.0874  0.0913
   22SOL     OW   64   3.043   0.927   0.755  0.7019  0.4796 -0.2897
   22SOL    HW1   65   3.008   1.010   0.701  0.0291  0.7991 -0.6626
   22SOL    HW2   66   2.988   0.844   0.729 -1.0066  0.7722 -1.9659
   23SOL     OW   67   0.469   0.208   1.829  0.2732  0.1829 -0.0942
   23SOL    HW1   68   0.550   0.231   1.886  0.4164 -1.1399 -0.3426
   23SOL    HW2   69   0.499   0.218   1.732 -2.0102  2.9702 -1.3970
   24SOL     OW   70   2.141   2.235   0.845 -0.1371 -0.5845 -0.2237
   24SOL    HW1   71   2.055   2.207   0.891  1.5451  1.2217 -0.7285
   24SOL    HW2   72   2.193   2.153   0.823 -0.8758 -1.4282 -1.0846
   25SOL     OW   73   1.754   0.166   2.444 -0.2855  0.1752 -0.5958
   25SOL    HW1   74   1.843   0.121   2.449 -0.8078  0.4811 -2.6386
   25SOL    HW2   75   1.715   0.184   2.539 -3.5258 -2.1870  0.0520
   26SOL     OW   76   1.600   2.425   3.049 -0.1563 -0.5046 -0.1389
   26SOL    HW1   77   1.620   2.470   2.960 -0.9314 -0.6036 -2.2794
   26SOL    HW2   78   1.503   2.403   3.061  0.9118  1.2828 -1.3599
   27SOL     OW   79   1.306   0.382   1.340  0.2720 -0.4071  0.2237
   27SOL    HW1   80   1.301   0.361   1.240 -0.8050 -0.9791  0.6553
   27SOL    HW2   81   1.353   0.303   1.392 -2.0903  0.2193  0.3161
   28SOL     OW   82   0.802   1.685   0.601  0.1325  0.4337  0.0269
   28SOL    HW1   83   0.740   1.641   0.539 -0.0164 -1.2570  0.4802
   28SOL    HW2   84   0.896   1.671   0.571 -2.7724  1.3211 -1.1613
   29SOL     OW   85   2.373   0.484   1.521  0.1468  0.4040  0.4075
   29SOL    HW1   86   2.362   0.490   1.422  1.0624 -1.8723  0.6154
   29SOL    HW2   87   2.416   0.393   1.546 -1.0908 -0.3600 -0.3473
   30SOL     OW   88   1.529   2.345   1.579  0.1127  0.2098 -0.3255
   30SOL    HW1   89   1.616   2.387   1.566 -0.7749 -0.3828  2.2218
   30SOL    HW2   90   1.477   2.330   1.491 -0.3890 -0.9134 -0.1234
   31SOL     OW   91   1.895   2.847   1.481  0.2095  0.1480 -1.2899
   31SOL    HW1   92   1.853   2.877   1.571 -3.2153  0.1280  1.9069
   31SOL    HW2   93   1.938   2.929   1.436 -0.2731 -1.0781 -0.7196
   32SOL     OW   94   2.192   1.441   2.392  0.0738 -0.0360  0.2530
   32SOL    HW1   95   2.129   1.382   2.335 -0.2412 -1.1760  0.6807
   32SOL    HW2   96   2.280   1.441   2.346 -2.4590 -1.7864  1.7093
   33SOL     OW   97   2.651   0.552   2.868  0.0001 -0.0599 -0.3544
   33SOL    HW1   98   2.624   0.615   2.790 -1.7815 -1.7378  0.2519
   33SOL    HW2   99   2.573   0.511   2.916 -0.8042  0.4951  0.4963
   34SOL     OW  100   1.689   0.327   0.397  0.4721 -0.0135 -0.5605
   34SOL    HW1  101   1.593   0.332   0.373  2.0601 -2.3947  0.1277
   34SOL    HW2  102   1.729   0.422   0.396 -2.9926  0.1871 -0.7044
   35SOL     OW  103   0.337   1.910   1.964  0.1695 -0.0991 -1.2320
   35SOL    HW1  104   0.366   2.005   1.991  0.8877 -1.1305 -2.6266
   35SOL    HW2  105   0.241   1.893   1.998 -1.5931 -0.3469  0.3674
   36SOL     OW  106   2.343   1.709   2.651  0.2865 -0.6854 -0.0448
   36SOL    HW1  107   2.260   1.742   2.597  1.2399 -2.3348 -2.8048
   36SOL    HW2  108   2.420   1.769   2.639 -0.6711 -2.5593  2.0312
   37SOL     OW  109   1.296   2.954   1.715 -0.8203 -0.2633  0.7967
   37SOL    HW1  110   1.351   2.888   1.653 -1.8976 -1.7120  0.0269
   37SOL    HW2  111   1.337   2.933   1.805 -0.2208 -0.6411 -2.0976
   38SOL     OW  112   0.655   0.743   2.642  0.5511  0.6788  0.2288
   38SOL    HW1  113   0.565   0.760   2.602  1.7994 -2.4650 -0.5048
   38SOL    HW2  114   0.735   0.784   2.594  0.1106  2.3085 -2.9655
   39SOL     OW  115   1.853   0.794   1.336 -0.2289 -0.3723  0.5492
   39SOL    HW1  116   1.857   0.795   1.237 -0.6540 -0.2340 -0.4221
   39SOL    HW2  117   1.897   0.884   1.377 -0.6239  2.9292 -0.0681
   40SOL     OW  118   1.235   2.396   0.904  0.2221 -0.3804  0.0095
   40SOL    HW1  119   1.221   2.296   0.911 -2.3770 -0.8756  3.0109
   40SOL    HW2  120   1.329   2.416   0.864  1.3373  2.1059 -1.8796
   41SOL     OW  121   2.050   2.059   1.283  0.4028  0.7387 -0.1226
   41SOL    HW1  122   2.017   2.040   1.190  0.0249 -0.3156  2.7376
   41SOL    HW2  123   2.142   2.102   1.279 -1.1829  2.7612 -3.3112
   42SOL     OW  124   2.409   0.624   0.741 -0.7818 -0.2443 -0.0859
   42SOL    HW1  125   2.496   0.655   0.787  0.1099  0.3595 -0.7213
   42SOL    HW2  126   2.376   0.689   0.666  2.5912 -0.3308 -1.4562
   43SOL     OW  127   0.974   1.390   2.522 -0.2028 -0.2524  0.5037
   43SOL    HW1  128   0.954   1.388   2.621  1.0021 -1.3041  1.1853
   43SOL    HW2  129   0.913   1.448   2.465  1.3747 -0.4375  1.7323
   44SOL     OW  130   1.675   2.576   1.200  0.0185 -0.1647 -0.0980
   44SOL    HW1  131   1.607   2.504   1.169 -2.0689  1.6645 -2.4234
   44SOL    HW2  132   1.767   2.538   1.217  0.5787  2.4558 -0.0500
   45SOL     OW  133   1.004   3.105   2.585 -0.2603 -0.1432 -0.6909
   45SOL    HW1  134   0.935   0.068   2.617 -2.9568  1.2461 -0.1327
   45SOL    HW2  135   0.963   3.016   2.587  2.3645  3.1961 -2.9565
   46SOL     OW  136   0.765   2.520   1.869 -0.3435 -0.6420  0.1126
   46SOL    HW1  137   0.728   2.561   1.785 -0.1573 -0.3585  1.6470
   46SOL    HW2  138   0.861   2.550   1.886  1.3941  2.0250 -3.0512
   47SOL     OW  139   0.769   1.934   0.720  0.6206 -0.0322  0.1240
   47SOL    HW1  140   0.790   1.838   0.700 -1.4762 -0.0409 -2.1607
   47SOL    HW2  141   0.746   1.949   0.822 -1.4674  1.5456 -0.9782
   48SOL     OW  142   0.778   2.823   1.141  0.7238 -0.5114  0.1392
   48SOL    HW1  143   0.841   2.852   1.218  1.0115 -1.7269 -3.1377
   48SOL    HW2  144   0.746   2.909   1.096  0.7892 -0.9349 -2.5521
   49SOL     OW  145   2.810   3.072   2.862  0.0201 -0.3727 -0.0483
   49SOL    HW1  146   2.829   0.055   2.902 -0.2423  2.2810  0.1677
   49SOL    HW2  147   2.835   3.006   2.938  0.4089  0.9396  0.0815
   50SOL     OW  148   1.598   1.116   0.560  0.2351 -0.0008 -0.3813
   50SOL    HW1  149   1.556   1.028   0.587  2.7563  1.2602 -0.7487
   50SOL    HW2  150   1.669   1.107   0.490  0.7961  2.5121  0.7297
   51SOL     OW  151   2.037   0.042   0.646 -0.0198  0.5943 -0.1631
   51SOL    HW1  152   2.001   0.090   0.561 -2.3157  0.2370 -1.8460
   51SOL    HW2  153   2.010   0.098   0.728  0.6017 -1.5496  0.1499
   52SOL     OW  154   0.956   1.606   0.376 -0.1337 -0.0524  0.1888
   52SOL    HW1  155   1.010   1.521   0.372 -1.4126  3.4963  0.3498
   52SOL    HW2  156   0.919   1.621   0.283 -2.0526  0.0734  1.9859
   53SOL     OW  157   0.306   1.079   2.665 -0.0301  0.0924  0.3077
   53SOL    HW1  158   0.336   1.052   2.760  0.4134 -0.4707 -0.9404
   53SOL    HW2  159   0.291   1.178   2.656  3.3316 -0.8415 -2.6879
   54SOL     OW  160   2.329   2.010   2.892 -0.2185  0.6470 -0.3211
   54SOL    HW1  161   2.433   2.009   2.898  2.9830 -0.3450  2.5696
   54SOL    HW2  162   2.289   1.939   2.957  0.4830  0.8751  2.4864
   55SOL     OW  163   2.440   2.362   1.384  0.4890  0.0829 -0.3228
   55SOL    HW1  164   2.391   2.426   1.447 -0.3355  1.6775  0.3415
   55SOL    HW2  165   2.382   2.277   1.364 -2.9577 -2.6929  0.0904
   56SOL     OW  166   1.581   3.046   1.421  0.1027 -0.1366  0.1720
   56SOL    HW1  167   1.601   2.959   1.462  0.5390 -1.6757  3.9397
   56SOL    HW2  168   1.596   3.050   1.321 -1.4962 -0.0777  0.5396
   57SOL     OW  169   1.463   1.714   0.903  0.5419  0.4266  0.4789
   57SOL    HW1  170   1.511   1.664   0.831 -0.8486  0.8182  1.2660
   57SOL    HW2  171   1.366   1.685   0.913  0.5123 -1.2298 -0.4038
   58SOL     OW  172   2.492   0.126   1.839  0.6924  1.0145  0.7869
   58SOL    HW1  173   2.463   0.207   1.891  1.6808 -0.1290 -2.0564
   58SOL    HW2  174   2.427   0.110   1.761 -2.4183  0.9800 -0.5418
   59SOL     OW  175   1.065   2.744   2.294 -0.1858 -0.2427  0.1816
   59SOL    HW1  176   1.084   2.847   2.301  1.4593  1.7815 -1.7387
   59SOL    HW2  177   0.965   2.729   2.298  2.7926  0.9958  0.8252
   60SOL     OW  178   0.592   0.086   2.404 -0.1165 -0.2605  0.1503
   60SOL    HW1  179   0.530   0.156   2.364  0.3813  0.1803 -0.2945
   60SOL    HW2  180   0.538   0.054   2.484 -0.2640  1.6401 -1.3321
   61SOL     OW  181   0.766   2.100   0.495 -0.7078 -0.0037  0.2339
   61SOL    HW1  182   0.865   2.105   0.468  0.7619 -0.2335  0.5219
   61SOL    HW2  183   0.762   2.042   0.575  0.7038  1.4466  0.3656
   62SOL     OW  184   1.289   1.994   2.178  0.0291  0.3716 -0.0378
   62SOL    HW1  185   1.284   2.084   2.127 -0.8693  0.7320  0.1541
   62SOL    HW2  186   1.219   1.998   2.245  0.9357  0.4175 -1.4358
   63SOL     OW  187   1.058   1.831   0.798 -0.2683  0.4685  0.0994
   63SOL    HW1  188   1.039   1.760   0.872  1.4468 -0.2754  1.1940
   63SOL    HW2  189   1.098   1.789   0.713 -2.5833 -0.4611  0.2730
   64SOL     OW  190   1.532   1.330   0.086  0.3413  0.1623  0.0161
   64SOL    HW1  191   1.556   1.280   0.001 -1.8108  1.5051 -0.5215
   64SOL    HW2  192   1.604   1.364   0.152 -1.4656  0.2656  1.2729
   65SOL     OW  193   1.739   2.202   2.234  0.4158  0.3473 -0.4031
   65SOL    HW1  194   1.748   2.117   2.179  0.3243 -0.8004  2.1322
   65SOL    HW2  195   1.795   2.190   2.317 -1.7206  2.1327 -0.6436
   66SOL     OW  196   0.314   1.068   1.035  0.3553  0.2532 -0.0822
   66SOL    HW1  197   0.351   1.011   1.111 -0.8778  0.6566  4.9982
   66SOL    HW2  198   0.269   1.005   0.970 -0.1732  2.7030  0.1202
   67SOL     OW  199   2.164   2.664   0.470 -0.6776  0.4628 -0.6341
   67SOL    HW1  200   2.169   2.611   0.559  1.1537 -0.2173  1.4111
   67SOL    HW2  201   2.188   2.608   0.391 -2.1441  0.7091  1.3904
   68SOL     OW  202   2.396   2.575   1.549  0.0273 -0.5522  0.1308
   68SOL    HW1  203   2.394   2.672   1.510  1.1371 -0.5379  1.0231
   68SOL    HW2  204   2.486   2.560   1.591 -3.0528  0.4578 -0.6144
   69SOL     OW  205   2.426   2.371   2.649 -0.0689 -0.9332  0.2349
   69SOL    HW1  206   2.387   2.463   2.678 -0.2255 -0.5908  0.5920
   69SOL    HW2  207   2.363   2.328   2.578 -0.3489  0.2130  1.7696
   70SOL     OW  208   0.219   1.352   2.647 -0.1732  0.5053  0.5466
   70SOL    HW1  209   0.228   1.386   2.739  0.3523  0.4982 -1.1087
   70SOL    HW2  210   0.124   1.352   2.608 -1.9355 -0.0509 -0.7654
   71SOL     OW  211   1.029   1.287   2.238  0.1680  0.1379 -0.2811
   71SOL    HW1  212   1.029   1.316   2.340 -1.3959  1.8894  4.1566
   71SOL    HW2  213   0.942   1.311   2.190  0.1875  4.3146 -0.1833
   72SOL     OW  214   2.454   1.424   1.692 -0.3543  0.3553  0.1570
   72SOL    HW1  215   2.391   1.349   1.718 -1.1482 -1.7950  0.1837
   72SOL    HW2  216   2.546   1.414   1.732 -0.9577 -0.4991  1.2635
   73SOL     OW  217   0.660   1.722   2.873  0.2465  0.0701 -0.2551
   73SOL    HW1  218   0.655   1.813   2.829 -0.7242  2.2777 -1.0327
   73SOL    HW2  219   0.593   1.724   2.950 -0.3243  1.3185 -4.4646
   74SOL     OW  220   1.699   2.942   1.899 -0.4476 -0.1843  0.1039
   74SOL    HW1  221   1.750   2.852   1.921 -1.0854  0.3628  0.8820
   74SOL    HW2  222   1.600   2.919   1.878  0.6138 -0.7582  1.1606
   75SOL     OW  223   1.289   2.725   0.416  0.0816 -0.5161  0.3056
   75SOL    HW1  224   1.349   2.739   0.495  0.9808  1.3020 -0.4097
   75SOL    HW2  225   1.320   2.780   0.335 -0.9250 -1.0694 -2.3770
   76SOL     OW  226   0.096   1.841   2.672 -0.0359  0.1162  0.0469
   76SOL    HW1  227   0.140   1.918   2.720 -1.6050 -0.3020  1.9103
   76SOL    HW2  228   0.100   1.749   2.721 -1.9796 -1.4585  0.8342
   77SOL     OW  229   0.063   2.687   1.048  0.2305  0.4766  0.4600
   77SOL    HW1  230   3.089   2.744   1.063 -0.5076 -0.1050  0.5140
   77SOL    HW2  231   0.121   2.680   1.131 -1.3336  1.4847 -1.0030
   78SOL     OW  232   2.455   1.128   0.323 -0.4847 -0.0616  0.0739
   78SOL    HW1  233   2.524   1.136   0.244  2.8219  0.6627 -0.6749
   78SOL    HW2  234   2.498   1.150   0.413 -2.0244  0.4744 -2.1675
   79SOL     OW  235   0.440   1.769   3.039  0.4744 -0.2279  0.0042
   79SOL    HW1  236   0.358   1.749   3.099  0.6964 -2.4303 -1.0798
   79SOL    HW2  237   0.448   1.868   3.007 -0.1334  1.3218 -0.1556
   80SOL     OW  238   1.741   1.516   1.437 -0.1570  0.4871  0.0402
   80SOL    HW1  239   1.730   1.569   1.518 -0.7579 -1.3258 -2.8125
   80SOL    HW2  240   1.644   1.496   1.414 -0.2912  1.5767  1.3133
   81SOL     OW  241   2.072   0.805   2.458  0.4618 -0.5344  0.4233
   81SOL    HW1  242   2.131   0.824   2.379  2.5093  0.7778  0.5992
   81SOL    HW2  243   1.972   0.817   2.431 -0.4605  0.0474 -0.2267
   82SOL     OW  244   1.604   1.227   1.593 -0.0722  0.3585 -0.3338
   82SOL    HW1  245   1.616   1.299   1.525  0.3113  0.0951 -0.6969
   82SOL    HW2  246   1.573   1.265   1.684  0.0922  2.4346 -0.0045
   83SOL     OW  247   0.125   0.311   0.067 -0.4530  0.3054  0.3918
   83SOL    HW1  248   0.022   0.298   0.064  2.1252 -0.1927 -0.4131
   83SOL    HW2  249   0.158   0.308   3.081  0.4247 -1.7691 -1.4621
   84SOL     OW  250   0.370   1.246   3.010  0.3553 -0.0710 -0.0001
   84SOL    HW1  251   0.464   1.262   2.969 -1.4491 -0.9923 -0.3326
   84SOL    HW2  252   0.346   1.149   2.986 -0.3256 -1.5845  1.1713
   85SOL     OW  253   2.130   1.534   2.014  0.1354  0.3170  0.5776
   85SOL    HW1  254   2.227   1.546   1.983  0.8668  0.2019  0.3606
   85SOL    HW2  255   2.104   1.596   2.091  1.8664 -2.2154  0.5064
   86SOL     OW  256   0.842   0.951   1.201  0.0198  0.6200  0.0511
   86SOL    HW1  257   0.943   0.967   1.214 -1.9591  0.0123 -0.5880
   86SOL    HW2  258   0.828   0.868   1.137  2.2159 -2.9224 -0.4179
   87SOL     OW  259   2.570   2.128   2.350 -0.5562 -0.5055 -0.0135
   87SOL    HW1  260   2.652   2.190   2.360 -0.6357  1.8438  3.4698
   87SOL    HW2  261   2.484   2.177   2.377 -0.1080  2.8514  0.0408
   88SOL     OW  262   0.375   2.995   0.261 -0.4530 -0.1875  0.2193
   88SOL    HW1  263   0.404   2.935   0.340 -0.8466  0.0434  0.7811
   88SOL    HW2  264   0.315   3.072   0.298 -0.2612  1.8327  0.9560
   89SOL     OW  265   1.578   0.521   0.142  0.2556  0.9168  0.3642
   89SOL    HW1  266   1.543   0.462   0.065  0.0837  0.1829  0.7404
   89SOL    HW2  267   1.660   0.571   0.112  1.1344 -3.9911  0.8216
   90SOL     OW  268   3.002   1.530   2.165 -0.3684 -0.2589 -0.1706
   90SOL    HW1  269   2.919   1.471   2.176  2.5428  2.1229  1.0691
   90SOL    HW2  270   3.066   1.514   2.241  0.2504  1.1072  0.1522
   91SOL     OW  271   2.032   3.026   1.303  0.5782  0.3348  0.2069
   91SOL    HW1  272   2.102   3.058   1.232 -1.7839  2.7969  1.8535
   91SOL    HW2  273   1.963   3.099   1.322 -0.3327  2.1617  1.5845
   92SOL     OW  274   2.380   1.439   1.222  0.5236  0.0721 -0.5968
   92SOL    HW1  275   2.407   1.418   1.128  0.6710 -0.9006 -1.6747
   92SOL    HW2  276   2.389   1.539   1.238  1.3905  0.8616  1.9962
   93SOL     OW  277   0.256   1.201   0.163  0.0021  0.1424 -0.3676
   93SOL    HW1  278   0.305   1.193   0.072  0.8469 -1.4291 -0.7499
   93SOL    HW2  279   0.282   1.116   0.226 -0.8751 -4.1708 -0.1931
   94SOL     OW  280   1.132   2.542   1.699  0.6286 -0.4242 -0.0655
   94SOL    HW1  281   1.073   2.545   1.779  0.2034  0.7606 -0.2763
   94SOL    HW2  282   1.230   2.532   1.728  3.3922 -0.2297  0.2017
   95SOL     OW  283   0.252   0.615   0.602  0.1789 -0.2870  0.2577
   95SOL    HW1  284   0.335   0.664   0.573  0.3334 -1.6234  1.3213
   95SOL    HW2  285   0.241   0.619   0.701 -0.4721 -1.1266 -0.7153
   96SOL     OW  286   3.054   2.667   1.702 -0.6435 -0.2049  0.2224
   96SOL    HW1  287   2.964   2.712   1.685 -1.5623  0.8546 -0.0786
   96SOL    HW2  288   3.105   2.654   1.616 -0.0731  1.1123  0.7678
   97SOL     OW  289   2.385   0.512   1.241  0.3686 -0.1933  0.2709
   97SOL    HW1  290   2.300   0.566   1.222  2.5114 -0.6817 -2.9218
   97SOL    HW2  291   2.407   0.453   1.162 -0.3370 -0.8299 -1.2817
   98SOL     OW  292   2.972   2.352   1.542 -0.0240  0.1330  0.0724
   98SOL    HW1  293   2.878   2.342   1.498  0.9400  1.0420  1.6146
   98SOL    HW2  294   3.039   2.291   1.498 -0.0158 -0.2498 -0.4790
   99SOL     OW  295   3.070   0.405   1.228 -0.6098 -0.2653 -0.1468
   99SOL    HW1  296   0.034   0.336   1.207  1.0362  0.5390 -0.2953
   99SOL    HW2  297   3.041   0.392   1.323 -0.8950 -0.1116  0.3624
  100SOL     OW  298   2.392   0.355   2.661 -0.5040  0.4288 -0.3244
  100SOL    HW1  299   2.389   0.252   2.673  0.2691 -0.8011  1.6423
  100SOL    HW2  300   2.336   0.410   2.731 -2.8875  1.0391  1.1424
  101SOL     OW  301   0.444   2.967   2.109  0.2840 -0.0078  0.6271
  101SOL    HW1  302   0.527   3.018   2.075 -0.2952 -0.7513 -1.0458
  101SOL    HW2  303   0.448   2.971   2.211  4.4320  0.7811 -1.5578
  102SOL     OW  304   0.629   0.313   1.483 -0.2711  0.1233 -0.2363
  102SOL    HW1  305   0.600   0.384   1.418  1.1372 -2.0782  0.6919
  102SOL    HW2  306   0.671   0.356   1.564 -1.4543 -0.0132  1.1079
  103SOL     OW  307   0.940   0.815   2.590 -0.0295 -0.0063  0.3401
  103SOL    HW1  308   0.996   0.732   2.563 -0.5313 -1.3810 -1.2945
  103SOL    HW2  309   0.914   0.865   2.507 -0.2705  1.0710 -1.6182
  104SOL     OW  310   0.267   0.406   1.857  0.5324  0.2536  0.1626
  104SOL    HW1  311   0.217   0.390   1.943  1.4450 -1.4273 -0.7067
  104SOL    HW2  312   0.330   0.331   1.841  0.5233  1.3211  2.0328
  105SOL     OW  313   2.445   2.074   1.639 -0.0996  0.0700 -0.5158
  105SOL    HW1  314   2.404   1.981   1.660 -2.4277 -3.3736  1.5169
  105SOL    HW2  315   2.403   2.135   1.708  1.3501  1.6491  1.1354
  106SOL     OW  316   1.238   3.085   0.364  0.2396  0.2699 -0.2256
  106SOL    HW1  317   1.188   3.014   0.315 -1.2809  0.4855 -2.4911
  106SOL    HW2  318   1.182   0.022   0.434 -0.7740 -0.6582  1.8579
  107SOL     OW  319   2.333   2.119   1.397  0.0467 -0.3987 -0.0637
  107SOL    HW1  320   2.390   2.113   1.483  0.5026 -1.1242 -0.8172
  107SOL    HW2  321   2.353   2.034   1.347  0.0454  1.2992  0.0362
  108SOL     OW  322   0.112   2.068   0.697  0.0706 -0.0113  0.2112
  108SOL    HW1  323   0.135   2.142   0.635 -0.2259 -0.3114  0.7425
  108SOL    HW2  324   0.157   2.077   0.789 -1.1284  1.1818  0.5786
  109SOL     OW  325   1.560   3.019   0.580  0.3726  0.2517 -0.2661
  109SOL    HW1  326   1.550   3.015   0.479  1.6989 -4.2836 -1.3682
  109SOL    HW2  327   1.656   3.029   0.604 -1.9054 -3.3362 -1.3432
  110SOL     OW  328   2.144   1.521   0.997 -0.3981 -0.5019 -0.1723
  110SOL    HW1  329   2.232   1.477   0.981 -3.8485  0.0955  0.0153
  110SOL    HW2  330   2.080   1.510   0.916  0.8656 -0.5175 -0.5131
  111SOL     OW  331   1.514   2.426   2.003 -0.0759 -0.5826 -0.4213
  111SOL    HW1  332   1.604   2.409   1.952 -0.4304  1.9178 -0.0899
  111SOL    HW2  333   1.538   2.453   2.100  0.8907 -0.8057  0.0482
  112SOL     OW  334   1.877   2.144   0.006 -0.6323 -0.0969 -0.3223
  112SOL    HW1  335   1.969   2.175   0.019 -0.4302 -0.2511  1.8061
  112SOL    HW2  336   1.872   2.057   3.065  1.4423  1.1092  1.9301
  113SOL     OW  337   2.143   1.824   1.918 -0.3846  0.1203 -0.4820
  113SOL    HW1  338   2.157   1.729   1.947 -1.1883 -0.9412 -0.1206
  113SOL    HW2  339   2.205   1.841   1.836  0.2560 -1.8299  0.0189
  114SOL     OW  340   2.944   1.358   1.685 -0.7865  0.6961  0.3795
  114SOL    HW1  341   3.027   1.411   1.708  1.1125  0.0229 -1.0279
  114SOL    HW2  342   2.959   1.300   1.601  2.3938 -0.8375 -0.1763
  115SOL     OW  343   2.853   0.794   0.026 -0.2072  0.2389  0.6654
  115SOL    HW1  344   2.805   0.833   3.056  1.1081  0.1764  0.1532
  115SOL    HW2  345   2.835   0.853   0.107 -1.4932  1.8563  3.1175
  116SOL     OW  346   2.839   0.515   0.014 -0.2703  0.2971 -0.1354
  116SOL    HW1  347   2.835   0.616   0.025 -1.9943  0.6168 -0.7102
  116SOL    HW2  348   2.813   0.490   3.031  3.6537  1.1588  0.5237
  117SOL     OW  349   2.634   2.154   3.065  0.0241  0.2827  0.1376
  117SOL    HW1  350   2.689   2.240   3.065 -0.3789 -2.0726  0.1775
  117SOL    HW2  351   2.582   2.148   2.979 -1.3709  1.2172 -0.3652
  118SOL     OW  352   0.634   2.071   2.404  0.6308  0.4378  0.0618
  118SOL    HW1  353   0.656   2.132   2.484  1.2563 -0.0541 -2.1849
  118SOL    HW2  354   0.540   2.097   2.376  3.9872  0.9604  0.0187
  119SOL     OW  355   0.857   2.874   0.319 -0.7821  0.3391 -0.4436
  119SOL    HW1  356   0.888   2.776   0.326  0.8934 -1.7548  0.8230
  119SOL    HW2  357   0.844   2.913   0.410  0.0091 -0.3168 -0.2244
  120SOL     OW  358   1.440   1.027   0.231  0.3216  0.2739  0.3154
  120SOL    HW1  359   1.355   1.001   0.283  0.2397  2.7109 -3.1766
  120SOL    HW2  360   1.471   0.949   0.174 -1.4218 -1.1259 -0.3516
  121SOL     OW  361   1.364   0.067   0.666 -0.2564 -0.6469  0.4674
  121SOL    HW1  362   1.436   0.005   0.619  2.7915 -1.0995 -3.7652
  121SOL    HW2  363   1.333   0.139   0.595  0.4990 -0.1349 -2.5048
  122SOL     OW  364   2.456   1.508   2.245 -0.1360  0.4725  0.2457
  122SOL    HW1  365   2.483   1.468   2.158  1.0367 -1.2794 -1.0836
  122SOL    HW2  366   2.448   1.610   2.239 -0.2761 -0.2025 -2.0216
  123SOL     OW  367   1.513   1.030   1.261 -0.0350 -0.1705  0.5668
  123SOL    HW1  368   1.480   0.961   1.196  0.3046  0.4079 -0.8434
  123SOL    HW2  369   1.525   0.974   1.349 -2.2364 -0.9443 -3.9946
  124SOL     OW  370   0.608   0.375   3.056  0.2649  0.0519 -0.3185
  124SOL    HW1  371   0.547   0.295   3.067  2.4893 -0.5807  0.2515
  124SOL    HW2  372   0.548   0.457   3.036  0.2479 -0.1625 -0.1694
  125SOL     OW  373   0.790   0.341   0.285 -0.1684  0.3749 -0.2777
  125SOL    HW1  374   0.886   0.370   0.309 -2.0746  1.9738 -1.3842
  125SOL    HW2  375   0.782   0.250   0.239  1.0438  1.5252 -2.2232
  126SOL     OW  376   0.252   1.578   0.368  0.4726 -0.1714  0.0486
  126SOL    HW1  377   0.209   1.664   0.387  3.0093 -0.4200  0.7555
  126SOL    HW2  378   0.344   1.577   0.415  0.1456 -0.8973  0.1596
  127SOL     OW  379   0.748   2.655   1.648 -0.4753 -0.1852 -0.1147
  127SOL    HW1  380   0.683   2.689   1.583 -0.3166 -3.2963  0.7047
  127SOL    HW2  381   0.817   2.726   1.670  0.8295 -0.4041 -2.8646
  128SOL     OW  382   1.075   1.877   0.360 -0.2313 -0.1857  0.6569
  128SOL    HW1  383   1.012   1.794   0.367  0.6147  3.9924  0.5673
  128SOL    HW2  384   1.169   1.862   0.401  1.0911 -1.3728 -3.0064
  129SOL     OW  385   1.811   1.594   1.893  0.0789  0.3344  0.0629
  129SOL    HW1  386   1.788   1.641   1.809 -1.7301 -1.8679  0.7836
  129SOL    HW2  387   1.878   1.515   1.872  1.9217  0.0813 -0.4665
  130SOL     OW  388   1.824   2.166   1.380  0.0864 -0.1984 -0.6615
  130SOL    HW1  389   1.918   2.129   1.355  0.3243  1.9964  0.7283
  130SOL    HW2  390   1.754   2.136   1.311  0.1476  1.2046  0.0639
  131SOL     OW  391   0.353   2.167   2.030  0.4298  0.6120 -0.0155
  131SOL    HW1  392   0.259   2.179   1.993  2.2770  0.2757  0.6172
  131SOL    HW2  393   0.417   2.242   2.009 -0.8917 -1.6676 -0.5775
  132SOL     OW  394   2.697   1.846   0.932  0.2467 -0.1557 -0.8364
  132SOL    HW1  395   2.756   1.864   0.854  0.6861 -0.9050 -0.1266
  132SOL    HW2  396   2.708   1.916   1.006 -1.2686 -0.2708 -3.8827
  133SOL     OW  397   0.463   0.822   1.602  0.1196 -0.5756 -0.2829
  133SOL    HW1  398   0.521   0.832   1.517  2.3034  0.8137  0.7780
  133SOL    HW2  399   0.516   0.780   1.679 -1.3840  2.6676  1.3249
  134SOL     OW  400   2.446   1.803   0.220  0.0588  0.1550 -0.1242
  134SOL    HW1  401   2.519   1.853   0.268  0.4623  1.5069 -1.2759
  134SOL    HW2  402   2.409   1.842   0.137  0.2771  0.8475  1.7435
  135SOL     OW  403   1.820   1.068   2.374 -0.1219  0.1844 -0.0819
  135SOL    HW1  404   1.722   1.080   2.382  3.0019  0.3265 -0.2443
  135SOL    HW2  405   1.843   0.994   2.308 -1.3951 -0.9042  0.6366
  136SOL     OW  406   2.781   1.822   1.438 -0.0766  0.1106  0.0750
  136SOL    HW1  407   2.878   1.844   1.442 -1.3067  1.1715  1.7397
  136SOL    HW2  408   2.737   1.815   1.531 -0.2168  1.0053 -0.5889
  137SOL     OW  409   2.580   1.920   0.451 -0.4948 -0.0646  0.3559
  137SOL    HW1  410   2.594   1.831   0.498  1.3619 -0.7167 -0.7886
  137SOL    HW2  411   2.620   1.998   0.505 -1.8141 -1.1637  0.2074
  138SOL     OW  412   2.902   0.716   0.626  0.2057  0.1861  0.6692
  138SOL    HW1  413   2.853   0.740   0.537 -0.3211  1.4531 -0.6251
  138SOL    HW2  414   2.845   0.646   0.678  0.2648  1.4116  2.7898
  139SOL     OW  415   3.043   3.003   0.010  0.6338  0.7156 -0.0390
  139SOL    HW1  416   3.033   3.008   0.110  0.8028 -1.3879  2.2088
  139SOL    HW2  417   3.109   3.073   3.082  1.8742  1.6646  1.0230
  140SOL     OW  418   0.825   1.029   1.603  0.5015 -0.0638 -0.6435
  140SOL    HW1  419   0.792   1.072   1.691 -0.5270 -1.3345 -0.0934
  140SOL    HW2  420   0.744   0.984   1.562 -0.8287  1.3635 -1.4991
  141SOL     OW  421   1.451   1.491   1.098 -0.0498  0.5634  0.1497
  141SOL    HW1  422   1.415   1.422   1.165 -0.2160  1.4112  4.0557
  141SOL    HW2  423   1.399   1.572   1.115  2.2760 -2.0675  0.3585
  142SOL     OW  424   1.462   0.572   1.186  0.6789 -0.2766  0.1687
  142SOL    HW1  425   1.397   0.501   1.224  0.8272  1.6482  2.2143
  142SOL    HW2  426   1.522   0.610   1.259 -1.6667 -1.2349 -3.0415
  143SOL     OW  427   0.636   1.117   2.574 -0.0790 -0.3078 -0.2956
  143SOL    HW1  428   0.565   1.185   2.601  0.9235 -2.6582  0.0033
  143SOL    HW2  429   0.618   1.064   2.490  1.7657  1.5982 -0.3226
  144SOL     OW  430   2.407   2.996   0.358 -0.2608 -0.3756  0.0116
  144SOL    HW1  431   2.498   3.027   0.319  2.1422 -1.7477 -0.2820
  144SOL    HW2  432   2.351   2.963   0.278  1.2781 -0.9952 -0.5046
  145SOL     OW  433   2.421   0.450   2.980  0.2655 -0.0360  0.5252
  145SOL    HW1  434   2.327   0.476   2.955  2.8233  1.2240 -1.4005
  145SOL    HW2  435   2.446   0.492   3.070 -0.2329  1.2333  0.8082
  146SOL     OW  436   2.964   2.710   0.337  0.3237  0.6044  0.1334
  146SOL    HW1  437   2.957   2.726   0.237 -3.1141 -0.5799  0.8785
  146SOL    HW2  438   2.881   2.740   0.390  1.7805 -0.7136 -2.3180
  147SOL     OW  439   1.346   1.185   2.919  0.4188 -0.6655 -0.2979
  147SOL    HW1  440   1.355   1.279   2.879  0.0818 -3.6110  2.2088
  147SOL    HW2  441   1.328   1.119   2.842  0.7875  0.6976 -0.1988
  148SOL     OW  442   1.364   0.203   0.042 -0.1372 -0.3613 -0.2667
  148SOL    HW1  443   1.393   0.109   0.016  1.4318 -0.2081  1.5122
  148SOL    HW2  444   1.264   0.220   0.024  2.6691  0.0737  1.9583
  149SOL     OW  445   1.679   0.334   2.016 -0.3672 -0.3211  0.1137
  149SOL    HW1  446   1.606   0.377   2.072 -0.3084 -0.5701 -0.2419
  149SOL    HW2  447   1.717   0.244   2.047 -3.4450  2.3326 -1.7728
  150SOL     OW  448   2.045   0.003   2.945  0.3195  0.3075 -0.0059
  150SOL    HW1  449   2.030   3.108   3.046 -1.2352 -1.5754 -2.8878
  150SOL    HW2  450   2.090   3.026   2.906 -0.3386 -4.1663 -1.5005
  151SOL     OW  451   0.500   1.467   0.171  0.1483 -0.8600  0.1412
  151SOL    HW1  452   0.413   1.494   0.125 -1.6811 -0.1535 -0.7107
  151SOL    HW2  453   0.570   1.420   0.111  0.7577  0.1940 -1.7962
  152SOL     OW  454   0.207   0.231   1.170  0.3051  0.0324  0.2101
  152SOL    HW1  455   0.256   0.224   1.083 -0.7361  0.4268 -0.0471
  152SOL    HW2  456   0.262   0.257   1.250 -1.6047 -0.0635  0.4915
  153SOL     OW  457   2.730   2.919   2.181  0.5436  0.6526 -0.3149
  153SOL    HW1  458   2.681   2.994   2.127  1.6563  2.9147  1.9891
  153SOL    HW2  459   2.704   2.928   2.279  0.0576  2.9992 -1.2841
  154SOL     OW  460   2.147   3.036   2.633 -0.4789  0.0709 -0.3233
  154SOL    HW1  461   2.110   2.962   2.572  1.5035  0.4260 -1.7666
  154SOL    HW2  462   2.127   0.021   2.596 -3.5696  2.5307  1.7597
  155SOL     OW  463   0.595   1.148   0.612  0.2094 -0.0165  0.5288
  155SOL    HW1  464   0.579   1.204   0.531 -1.0538 -0.3964  1.1056
  155SOL    HW2  465   0.658   1.195   0.674 -1.8310 -5.6158 -0.2403
  156SOL     OW  466   2.482   1.679   0.861 -0.4644 -0.0292 -0.7631
  156SOL    HW1  467   2.560   1.741   0.897  3.2313  2.5419  2.0249
  156SOL    HW2  468   2.498   1.655   0.760 -0.0467  0.3131 -1.5078
  157SOL     OW  469   0.820   0.490   0.058  0.1470 -0.4856  0.0605
  157SOL    HW1  470   0.752   0.430   0.007  1.3638  2.1365 -0.3033
  157SOL    HW2  471   0.813   0.483   0.158  0.0505  2.0834 -1.9966
  158SOL     OW  472   1.869   0.785   1.043  0.1993 -0.2896  0.4742
  158SOL    HW1  473   1.816   0.877   1.022  1.2496  1.1367 -2.0191
  158SOL    HW2  474   1.810   0.705   1.030 -1.1922  0.7696 -0.2652
  159SOL     OW  475   0.064   0.688   0.307  0.1513 -0.2183 -0.3110
  159SOL    HW1  476   0.021   0.656   0.391  0.5599 -1.3846 -2.0773
  159SOL    HW2  477   0.130   0.622   0.272 -0.9961  1.1384  1.5986
  160SOL     OW  478   2.332   2.180   1.867  0.1594  0.7966  0.1721
  160SOL    HW1  479   2.258   2.136   1.929 -3.3972 -1.7005  2.5638
  160SOL    HW2  480   2.340   2.280   1.891  0.1693  4.4737  0.5944
  161SOL     OW  481   0.393   0.984   2.904 -0.4425  0.0149 -0.0581
  161SOL    HW1  482   0.472   0.934   2.859  3.5974  0.2969  1.2698
  161SOL    HW2  483   0.349   0.926   2.977 -0.2158  0.3688  0.5975
  162SOL     OW  484   0.386   0.662   1.905  0.8118 -0.4272  0.1874
  162SOL    HW1  485   0.461   0.657   1.843 -4.4321  0.2489  2.3862
  162SOL    HW2  486   0.305   0.609   1.878 -0.3709  2.4735  2.7783
  163SOL     OW  487   2.671   0.038   2.616  0.1975  0.2860 -0.3438
  163SOL    HW1  488   2.710   0.028   2.707  1.2577 -3.3895  1.5791
  163SOL    HW2  489   2.738   0.057   2.537 -1.3046  0.6445 -3.7295
  164SOL     OW  490   2.226   2.243   0.153 -0.3117  1.1843  0.2990
  164SOL    HW1  491   2.203   2.268   0.057 -0.1136 -2.8742  0.9764
  164SOL    HW2  492   2.307   2.173   0.151  1.1106 -2.3156 -0.6501
  165SOL     OW  493   0.364   0.108   0.991 -0.4768  0.3784  0.5824
  165SOL    HW1  494   0.441   0.147   0.940 -3.0420  0.0689  2.0607
  165SOL    HW2  495   0.404   0.063   1.073  0.8249 -1.4104  0.4959
  166SOL     OW  496   2.451   0.450   0.347  0.6557 -0.9278  0.4212
  166SOL    HW1  497   2.499   0.375   0.305 -2.3738  1.0611  1.3599
  166SOL    HW2  498   2.501   0.485   0.431 -1.1001  2.0449 -0.2438
  167SOL     OW  499   2.393   0.766   0.017 -0.2200 -0.0926 -0.2852
  167SOL    HW1  500   2.433   0.680   0.050 -1.7541  0.9835 -1.8691
  167SOL    HW2  501   2.300   0.748   3.093  2.8188 -1.5185  0.0383
  168SOL     OW  502   1.323   3.001   2.208 -0.4263  0.5175 -0.2129
  168SOL    HW1  503   1.229   2.995   2.244  0.9552 -0.9549  2.5494
  168SOL    HW2  504   1.339   3.095   2.174  1.4649 -0.9478 -1.2244
  169SOL     OW  505   0.446   2.079   0.575  0.2231 -0.3740  0.6416
  169SOL    HW1  506   0.425   2.014   0.653  1.6409 -1.0210  0.9414
  169SOL    HW2  507   0.524   2.146   0.605  6.1574  2.4359  0.5471
  170SOL     OW  508   0.074   0.691   1.177  0.7080  0.2696 -0.7156
  170SOL    HW1  509   0.020   0.610   1.208 -0.7448  0.4875  0.1284
  170SOL    HW2  510   0.038   0.724   1.090  1.4978 -0.1885 -0.8326
  171SOL     OW  511   2.778   1.429   2.313  0.0654  0.2748  0.1565
  171SOL    HW1  512   2.790   1.336   2.349  0.3578  2.2380 -2.9645
  171SOL    HW2  513   2.694   1.426   2.256  2.8611  0.0459  0.5374
  172SOL     OW  514   0.778   1.690   1.359  0.1019 -0.0127  0.7835
  172SOL    HW1  515   0.774   1.638   1.272  0.4497  0.9059 -1.6170
  172SOL    HW2  516   0.868   1.670   1.404 -0.6591 -2.0154 -0.2097
  173SOL     OW  517   1.853   1.865   3.034 -0.0010  0.2721  0.1854
  173SOL    HW1  518   1.902   1.795   3.093 -1.9475 -2.4594 -0.2419
  173SOL    HW2  519   1.756   1.862   3.057  1.4121  2.6762  2.1658
  174SOL     OW  520   1.854   0.561   2.892 -0.8864  0.1037  0.3801
  174SOL    HW1  521   1.792   0.619   2.943 -1.8126 -2.3794 -0.8938
  174SOL    HW2  522   1.857   0.467   2.933  0.8203 -0.6975 -2.0649
  175SOL     OW  523   0.527   1.833   1.737 -0.3242  0.4252 -0.1749
  175SOL    HW1  524   0.592   1.914   1.730 -0.8912  1.0397  1.2480
  175SOL    HW2  525   0.433   1.866   1.751 -0.3256 -0.5243 -1.3967
  176SOL     OW  526   0.747   0.072   0.233  0.1274  0.4255 -0.2538
  176SOL    HW1  527   0.723   0.099   0.333 -1.1305  4.2586  4.8303
  176SOL    HW2  528   0.661   0.035   0.187 -2.1436  0.2991  0.4799
  177SOL     OW  529   0.075   1.359   0.271 -0.2427 -0.1352 -0.2450
  177SOL    HW1  530   0.122   1.448   0.295  0.1840  0.0686 -2.3772
  177SOL    HW2  531   0.143   1.292   0.228 -0.9512 -0.6856 -0.1728
  178SOL     OW  532   2.986   2.183   2.751 -0.3835 -0.7103  0.5042
  178SOL    HW1  533   3.061   2.242   2.783  0.3808 -1.7308 -0.0222
  178SOL    HW2  534   2.997   2.158   2.653 -1.3547 -0.9170  1.2754
  179SOL     OW  535   2.732   2.854   2.704 -0.8769 -0.9140 -0.1352
  179SOL    HW1  536   2.772   2.849   2.608 -1.6830  2.6338  0.3892
  179SOL    HW2  537   2.773   2.932   2.757  4.6156  0.6393  2.4615
  180SOL     OW  538   2.266   0.421   0.881 -0.2197 -0.0224  0.0415
  180SOL    HW1  539   2.168   0.445   0.897  2.8401 -1.4835 -0.0985
  180SOL    HW2  540   2.310   0.483   0.819 -0.5828 -1.7032 -0.0664
  181SOL     OW  541   2.921   0.262   2.621 -0.2122 -0.3128  0.0534
  181SOL    HW1  542   2.984   0.333   2.591  0.6581  3.8748 -2.5305
  181SOL    HW2  543   2.900   0.197   2.545  0.6438 -1.2137 -2.9454
  182SOL     OW  544   2.330   2.223   2.388  0.9883 -0.5301  0.0440
  182SOL    HW1  545   2.293   2.159   2.461  1.5178 -1.7272  0.9981
  182SOL    HW2  546   2.258   2.246   2.325  1.4642 -0.9477 -2.0566
  183SOL     OW  547   2.504   0.670   1.925  0.4578  0.5511  0.2069
  183SOL    HW1  548   2.399   0.657   1.920 -1.4814  0.7555  2.7591
  183SOL    HW2  549   2.537   0.760   1.893  1.4000 -0.5877 -1.3152
  184SOL     OW  550   2.905   1.432   0.622  0.6237  0.6405  0.8407
  184SOL    HW1  551   2.864   1.423   0.713 -4.8373  0.5769  0.9674
  184SOL    HW2  552   2.918   1.526   0.587  1.6521 -1.4318  0.2618
  185SOL     OW  553   2.701   0.291   0.624  0.4150 -0.9357  0.3693
  185SOL    HW1  554   2.783   0.296   0.564 -1.5726  0.6716 -3.7980
  185SOL    HW2  555   2.646   0.212   0.601  2.5847  1.1373  0.7776
  186SOL     OW  556   2.041   2.640   2.776  0.2404 -0.1956  0.3975
  186SOL    HW1  557   2.113   2.706   2.792 -1.4083 -1.5558 -0.6563
  186SOL    HW2  558   1.955   2.675   2.729 -1.9076 -0.9623  0.7639
  187SOL     OW  559   0.212   1.498   0.686  0.3682  0.0665  0.4187
  187SOL    HW1  560   0.162   1.576   0.641 -0.1839  0.7944 -1.4792
  187SOL    HW2  561   0.278   1.527   0.756 -0.1599  0.3271 -1.3255
  188SOL     OW  562   1.953   1.731   0.647 -0.5127  0.4031  0.2193
  188SOL    HW1  563   1.979   1.659   0.717  0.9652 -0.5122  0.7195
  188SOL    HW2  564   1.929   1.817   0.697  2.4616 -1.0894  0.4108
  189SOL     OW  565   2.976   1.445   2.896  0.3433 -0.2636  0.2334
  189SOL    HW1  566   2.959   1.365   2.834  0.9027  0.2657  1.6514
  189SOL    HW2  567   2.885   1.474   2.936 -2.9744 -1.2211  0.5140
  190SOL     OW  568   2.648   0.337   2.535 -0.9401 -0.2384  0.2971
  190SOL    HW1  569   2.735   0.321   2.586 -2.7352 -0.6268 -0.2369
  190SOL    HW2  570   2.575   0.351   2.598  0.6164  2.3138 -1.5758
  191SOL     OW  571   0.885   0.569   2.344 -0.1351  0.2525  0.2055
  191SOL    HW1  572   0.954   0.526   2.405 -0.1454 -0.1141 -1.5692
  191SOL    HW2  573   0.923   0.653   2.299  0.5029 -0.0587 -3.7314
  192SOL     OW  574   1.318   1.752   2.054  0.3258 -0.0027  0.1303
  192SOL    HW1  575   1.251   1.732   1.979  0.2550 -0.2446 -4.0767
  192SOL    HW2  576   1.308   1.842   2.096  0.3274  0.2827 -1.4765
  193SOL     OW  577   1.282   2.594   1.132 -0.0166  0.7474  0.0911
  193SOL    HW1  578   1.331   2.674   1.178 -0.3491  0.3061  0.3298
  193SOL    HW2  579   1.273   2.605   1.027  0.3653  0.1672 -2.3598
  194SOL     OW  580   1.107   1.691   1.868 -0.4396  0.6330 -0.5439
  194SOL    HW1  581   1.135   1.599   1.831 -1.0077 -0.8863  0.8606
  194SOL    HW2  582   1.067   1.751   1.800  1.3051 -0.9122 -0.6758
  195SOL     OW  583   1.907   0.295   0.703 -0.5365 -0.1360 -0.2893
  195SOL    HW1  584   1.821   0.253   0.726  0.2706  0.9594 -1.3950
  195SOL    HW2  585   1.926   0.275   0.601  1.0053 -0.5466 -4.5628
  196SOL     OW  586   1.460   1.623   2.471  0.6911  0.4562 -0.1792
  196SOL    HW1  587   1.369   1.580   2.499 -1.7662  1.1539  1.3135
  196SOL    HW2  588   1.541   1.588   2.520  1.8414 -0.2404  0.1852
  197SOL     OW  589   0.293   0.033   1.933 -0.5628  0.5348 -0.5578
  197SOL    HW1  590   0.344   3.088   2.001  4.0938 -2.7174 -2.4021
  197SOL    HW2  591   0.358   0.103   1.894  1.4782 -2.3202  1.2010
  198SOL     OW  592   0.124   1.246   1.070  0.2089  0.5502  0.3410
  198SOL    HW1  593   0.190   1.168   1.067  0.0154 -0.0403 -3.5975
  198SOL    HW2  594   0.102   1.272   0.975  0.0014  0.1349  2.1548
  199SOL     OW  595   0.468   2.255   0.895 -0.4760  0.2354 -0.0023
  199SOL    HW1  596   0.517   2.296   0.816 -1.1475  0.2459  2.3161
  199SOL    HW2  597   0.522   2.253   0.979  1.4669 -0.8019  0.4907
  200SOL     OW  598   1.843   1.537   3.048 -0.3712  0.1040 -0.0631
  200SOL    HW1  599   1.842   1.584   0.031  3.2675  1.9576  1.9419
  200SOL    HW2  600   1.861   1.443   3.059  0.4045  2.0772 -0.2000
  201SOL     OW  601   0.439   2.241   1.756  0.0620 -0.0174 -0.3850
  201SOL    HW1  602   0.530   2.194   1.744  0.8890 -0.8429 -1.8565
  201SOL    HW2  603   0.363   2.173   1.748 -0.9494 -1.3224 -0.3178
  202SOL     OW  604   1.179   2.634   2.754 -0.1145  0.1690  0.6057
  202SOL    HW1  605   1.170   2.723   2.793  1.4940 -0.2128 -1.1963
  202SOL    HW2  606   1.092   2.583   2.779  0.4609 -0.5019  0.7620
  203SOL     OW  607   1.460   0.458   2.137 -0.7324 -0.7309  0.0228
  203SOL    HW1  608   1.360   0.466   2.129  3.5981 -1.2741 -3.9303
  203SOL    HW2  609   1.501   0.539   2.089  1.0856  1.4008  0.9915
  204SOL     OW  610   0.529   1.211   1.494 -0.2716 -0.1125 -0.0655
  204SOL    HW1  611   0.580   1.222   1.403  1.2128 -0.9736 -3.6329
  204SOL    HW2  612   0.576   1.257   1.569  0.7686 -1.7010  0.9099
  205SOL     OW  613   2.456   1.195   2.463 -0.0370  0.7437 -0.1041
  205SOL    HW1  614   2.462   1.292   2.488  2.0412  0.3336 -1.3443
  205SOL    HW2  615   2.390   1.191   2.383  0.9886  2.9870 -0.7889
  206SOL     OW  616   0.237   2.144   2.564  0.2945 -0.2420  0.1306
  206SOL    HW1  617   0.236   2.205   2.645  1.7824 -0.4982  1.4206
  206SOL    HW2  618   0.147   2.147   2.518  1.2834  1.4026  1.8402
  207SOL     OW  619   0.314   0.033   1.587 -0.4308 -0.2805  0.4181
  207SOL    HW1  620   0.395   3.085   1.589 -1.5683  2.7497 -0.2524
  207SOL    HW2  621   0.246   0.011   1.658  1.3861 -0.8980 -0.8846
  208SOL     OW  622   0.502   2.377   1.534  0.6554 -0.2061  0.1684
  208SOL    HW1  623   0.425   2.416   1.480 -1.0326  1.4358 -1.0368
  208SOL    HW2  624   0.472   2.336   1.623 -0.5974 -3.4373 -1.2362
  209SOL     OW  625   1.419   2.495   2.707 -0.4013  0.4852  0.3006
  209SOL    HW1  626   1.336   2.550   2.722  1.8003 -1.4041  0.7848
  209SOL    HW2  627   1.395   2.397   2.705 -0.3695 -0.7876  2.1005
  210SOL     OW  628   2.860   1.701   1.852 -0.7875 -0.2504  0.4378
  210SOL    HW1  629   2.953   1.666   1.821  3.6579 -1.2846 -0.9099
  210SOL    HW2  630   2.876   1.800   1.875  0.4538  1.0190 -0.0597
  211SOL     OW  631   1.014   0.083   1.755  0.0558 -0.2875 -0.2768
  211SOL    HW1  632   1.069   0.098   1.842 -0.3421  1.4569 -0.1735
  211SOL    HW2  633   1.077   0.063   1.677 -2.9012  1.5257  0.3913
  212SOL     OW  634   1.100   2.248   1.649 -0.1280  0.2864 -0.3712
  212SOL    HW1  635   1.109   2.352   1.640  1.6909 -0.3095 -0.0223
  212SOL    HW2  636   1.105   2.224   1.748  0.0056 -2.3191 -0.2536
  213SOL     OW  637   2.601   0.505   2.108 -0.5951 -0.4472  0.3620
  213SOL    HW1  638   2.689   0.520   2.155  0.9014 -0.8188  0.0233
  213SOL    HW2  639   2.581   0.588   2.047 -2.4700  1.6551  0.3049
  214SOL     OW  640   0.973   1.859   1.680  0.3163  0.4289 -0.8811
  214SOL    HW1  641   1.035   1.886   1.601 -2.6005 -0.5258 -0.0257
  214SOL    HW2  642   0.946   1.942   1.739 -0.5053 -0.2271 -0.7711
  215SOL     OW  643   2.502   2.211   1.097 -0.8238  0.1160  0.3645
  215SOL    HW1  644   2.403   2.243   1.085  2.2934 -0.1372  1.4456
  215SOL    HW2  645   2.526   2.208   1.194 -2.8923 -0.5641  2.5018
  216SOL     OW  646   3.034   0.737   0.973 -0.3181 -0.3618  0.2227
  216SOL    HW1  647   3.043   0.643   0.939 -0.4795  1.5274  0.9024
  216SOL    HW2  648   3.057   0.811   0.901 -3.4993 -0.7070 -3.2739
  217SOL     OW  649   2.243   0.200   1.328 -0.2010 -0.4165 -0.0043
  217SOL    HW1  650   2.334   0.250   1.304  1.3635 -0.3961 -1.1858
  217SOL    HW2  651   2.213   0.145   1.247 -1.2806  0.5041 -0.9441
  218SOL     OW  652   1.504   2.373   1.092  0.0070  0.0300  0.0213
  218SOL    HW1  653   1.556   2.328   1.020 -1.3385  0.3164  1.3712
  218SOL    HW2  654   1.415   2.412   1.061  0.3759  2.8590 -2.2902
  219SOL     OW  655   1.691   2.135   0.222 -0.4737 -0.3649 -0.0266
  219SOL    HW1  656   1.642   2.222   0.225  1.1063 -1.9821  2.0884
  219SOL    HW2  657   1.755   2.137   0.147 -1.5920 -0.7143  3.4448
  220SOL     OW  658   1.842   2.314   2.887 -0.5959  0.1166 -0.0998
  220SOL    HW1  659   1.824   2.413   2.878  1.3662  1.0924  0.2128
  220SOL    HW2  660   1.856   2.277   2.979 -0.2848  1.7532 -2.0513
  221SOL     OW  661   3.021   2.454   0.988 -0.4718  0.1069  0.0982
  221SOL    HW1  662   3.107   2.505   0.965 -0.7844  0.5872 -0.6046
  221SOL    HW2  663   3.014   2.444   1.087  1.0194 -0.6626 -2.2170
  222SOL     OW  664   1.972   2.556   0.876 -0.1524  0.1561 -0.4876
  222SOL    HW1  665   1.911   2.628   0.832 -0.6241  0.3996  0.6658
  222SOL    HW2  666   2.030   2.589   0.957  2.6117 -1.0600 -0.8230
  223SOL     OW  667   0.527   2.622   2.230  0.0121 -0.0746  0.1686
  223SOL    HW1  668   0.526   2.667   2.138 -1.2480  0.2632 -0.4437
  223SOL    HW2  669   0.543   2.520   2.224  1.2125  1.0859 -1.9062
  224SOL     OW  670   2.944   2.213   0.859 -0.6506 -0.7515  0.4564
  224SOL    HW1  671   2.966   2.303   0.898 -0.5890  1.2776 -0.9485
  224SOL    HW2  672   2.988   2.207   0.771 -2.0805  1.0521  1.9621
  225SOL     OW  673   2.282   2.014   0.772  0.1750 -0.2136  0.9715
  225SOL    HW1  674   2.250   1.943   0.832  1.7239  2.7875 -2.5782
  225SOL    HW2  675   2.295   1.987   0.671  0.3759 -1.7427 -1.1777
  226SOL     OW  676   1.463   2.462   0.499 -0.0297 -0.1572  0.4393
  226SOL    HW1  677   1.456   2.559   0.480 -1.5807  0.0486  1.4058
  226SOL    HW2  678   1.556   2.425   0.483  0.1327  1.9158  1.1418
  227SOL     OW  679   1.994   0.479   0.872  0.1601  0.1537  0.3726
  227SOL    HW1  680   1.969   0.399   0.812 -3.5217  0.5110  0.4671
  227SOL    HW2  681   1.974   0.563   0.825  1.1836 -2.3633  2.2750
  228SOL     OW  682   1.014   0.777   2.191  0.3412  0.6423 -0.5749
  228SOL    HW1  683   1.113   0.757   2.206  0.6458  0.4763 -1.1655
  228SOL    HW2  684   0.998   0.870   2.167 -0.2520 -1.1081  0.0550
  229SOL     OW  685   3.032   1.182   2.768  0.2296 -0.2865  0.6722
  229SOL    HW1  686   3.088   1.167   2.685 -0.4311 -0.4384  1.9603
  229SOL    HW2  687   3.084   1.155   2.852 -2.1221 -1.3366  1.8498
  230SOL     OW  688   1.089   1.153   1.045  0.3696 -0.6880  0.5738
  230SOL    HW1  689   1.185   1.113   1.032 -1.2857  1.2162 -0.6041
  230SOL    HW2  690   1.096   1.222   1.113 -1.5538 -0.9501 -3.1573
  231SOL     OW  691   2.518   3.014   2.414  0.0227  0.5146  0.5876
  231SOL    HW1  692   2.489   3.080   2.345  1.0284 -0.7651  0.7761
  231SOL    HW2  693   2.560   3.065   2.493 -1.5773 -1.5008  0.3529
  232SOL     OW  694   0.648   2.036   0.077 -0.2647 -0.1702 -0.2302
  232SOL    HW1  695   0.638   2.033   0.179  0.7869  0.2778  0.3769
  232SOL    HW2  696   0.583   2.104   0.044  1.4258 -0.4432  0.2979
  233SOL     OW  697   1.313   2.359   2.420 -0.4800 -0.4006 -0.2886
  233SOL    HW1  698   1.269   2.437   2.463 -2.5326 -2.0100 -1.4381
  233SOL    HW2  699   1.398   2.379   2.366 -2.9485 -0.2939  1.5311
  234SOL     OW  700   0.929   1.325   1.804 -0.1728  0.2233 -0.2257
  234SOL    HW1  701   1.008   1.388   1.802 -1.4398  1.4449 -0.0822
  234SOL    HW2  702   0.865   1.353   1.732 -0.0948 -1.1322  0.0519
  235SOL     OW  703   0.684   2.100   1.717  0.1209  0.1579  0.5762
  235SOL    HW1  704   0.727   2.163   1.648 -0.6514  1.9418 -3.1417
  235SOL    HW2  705   0.755   2.053   1.776  1.2089 -4.1682  5.2469
  236SOL     OW  706   1.577   2.670   2.545  0.8764 -0.1351  0.5266
  236SOL    HW1  707   1.524   2.603   2.608 -0.8508 -4.6477  1.2272
  236SOL    HW2  708   1.506   2.721   2.490  1.1964 -1.0017 -2.4287
  237SOL     OW  709   1.088   0.082   0.699  0.0665  0.1637 -0.2444
  237SOL    HW1  710   1.047   0.102   0.608  3.6127 -0.7309 -0.3229
  237SOL    HW2  711   1.190   0.095   0.697 -0.2715  2.0405  0.2498
  238SOL     OW  712   1.321   0.735   2.676 -0.1956  0.3714  0.2080
  238SOL    HW1  713   1.349   0.683   2.762  2.5998  1.6704  0.0980
  238SOL    HW2  714   1.295   0.833   2.699  2.2133  2.3283 -2.7602
  239SOL     OW  715   0.078   0.543   2.278  0.1277 -0.1115  0.0745
  239SOL    HW1  716   0.176   0.567   2.307 -3.0118  3.8459 -1.3842
  239SOL    HW2  717   0.044   0.619   2.217  1.2222  2.1035 -0.6646
  240SOL     OW  718   2.532   2.725   0.757  0.6150  0.9429  0.1665
  240SOL    HW1  719   2.612   2.675   0.717  1.8079  1.7342  0.0525
  240SOL    HW2  720   2.472   2.758   0.680  0.7814 -1.2299  0.0919
  241SOL     OW  721   1.747   1.172   1.193  0.2173  0.5035 -0.6323
  241SOL    HW1  722   1.650   1.140   1.221  0.2569 -2.1612 -0.2443
  241SOL    HW2  723   1.816   1.158   1.268 -1.8560  0.7296 -0.0594
  242SOL     OW  724   0.758   0.923   0.803 -0.0017 -0.1474 -0.9564
  242SOL    HW1  725   0.724   1.018   0.821  3.3515 -0.4079 -0.5843
  242SOL    HW2  726   0.706   0.879   0.733  0.7428  1.0676  1.9077
  243SOL     OW  727   0.438   0.871   1.284  0.4973 -0.3911 -0.0431
  243SOL    HW1  728   0.350   0.907   1.326  1.3259 -0.7086 -0.3281
  243SOL    HW2  729   0.527   0.916   1.321  2.8476  1.3994 -2.0627
  244SOL     OW  730   1.069   0.461   3.089 -0.4886 -0.4019 -0.5268
  244SOL    HW1  731   0.974   0.459   0.012  1.3459 -1.7634  3.4241
  244SOL    HW2  732   1.096   0.366   3.069  2.3287  4.3896  1.0033
  245SOL     OW  733   2.132   1.132   0.112  0.0157  0.4179  0.7978
  245SOL    HW1  734   2.105   1.141   0.016  0.1445  1.7165  0.7523
  245SOL    HW2  735   2.165   1.224   0.149  1.6625  1.4945 -1.3341
  246SOL     OW  736   3.046   1.036   1.821 -0.8075  0.3510  0.9055
  246SOL    HW1  737   3.081   1.051   1.724  0.0137  0.6928  1.4085
  246SOL    HW2  738   3.043   0.933   1.843 -1.0709 -4.1258 -3.1152
  247SOL     OW  739   0.358   2.838   1.789  0.1595  0.4722  0.1560
  247SOL    HW1  740   0.265   2.839   1.833  1.6197 -1.3213 -0.2781
  247SOL    HW2  741   0.424   2.808   1.861  1.2488  0.8730 -0.7017
  248SOL     OW  742   0.641   1.379   2.204 -0.6506  0.4323 -0.4233
  248SOL    HW1  743   0.654   1.459   2.268 -0.4882  1.9067 -1.3513
  248SOL    HW2  744   0.726   1.339   2.166 -1.2131 -0.7774  0.7081
  249SOL     OW  745   0.400   0.119   2.618  0.8289 -0.0029 -0.4484
  249SOL    HW1  746   0.373   0.022   2.629 -1.5133 -2.4689 -1.9314
  249SOL    HW2  747   0.317   0.182   2.636 -2.9389  3.3253 -3.8859
  250SOL     OW  748   0.160   0.237   2.687 -0.1041  0.5040 -0.4969
  250SOL    HW1  749   0.086   0.170   2.711  0.6243 -0.6088  0.9496
  250SOL    HW2  750   0.127   0.300   2.615 -0.4118 -1.4675  1.9869
  251SOL     OW  751   0.027   1.649   1.168  0.2724 -0.6179 -0.0347
  251SOL    HW1  752   3.039   1.676   1.150  1.2174 -2.3457  1.6722
  251SOL    HW2  753   0.042   1.648   1.263  0.6672 -0.6636 -4.7486
  252SOL     OW  754   1.823   2.776   2.168 -0.0444  0.1615  0.3974
  252SOL    HW1  755   1.824   2.748   2.067  0.2805  2.4758 -0.1838
  252SOL    HW2  756   1.878   2.862   2.187  0.2115 -3.9987  1.5969
  253SOL     OW  757   1.652   1.635   2.859 -0.9886  0.0583  0.3136
  253SOL    HW1  758   1.594   1.703   2.911 -0.5745 -2.2352  0.8727
  253SOL    HW2  759   1.714   1.604   2.929 -2.0369  2.7336  2.0198
  254SOL     OW  760   0.517   1.347   1.775  0.0375 -0.1542  0.1272
  254SOL    HW1  761   0.443   1.378   1.714  0.4539 -2.1449  1.5258
  254SOL    HW2  762   0.520   1.397   1.863 -1.2360  0.1028 -0.1340
  255SOL     OW  763   0.938   2.862   1.356 -0.1343  0.5079 -0.0685
  255SOL    HW1  764   0.999   2.946   1.342  0.5660  1.7427  0.1736
  255SOL    HW2  765   0.993   2.785   1.397 -0.0789  1.7413  0.2253
  256SOL     OW  766   0.226   2.150   0.925  0.3168 -0.0850  0.1633
  256SOL    HW1  767   0.300   2.217   0.911 -3.9664 -1.9659  1.2367
  256SOL    HW2  768   0.182   2.164   1.016 -0.7936  0.5864 -0.9003
  257SOL     OW  769   0.149   2.815   2.794  0.2984 -0.2211 -0.5794
  257SOL    HW1  770   0.222   2.887   2.766  1.1326  3.1909  0.4295
  257SOL    HW2  771   0.057   2.859   2.787 -2.4542  0.7009  0.0622
  258SOL     OW  772   1.344   2.220   2.021  0.3758  0.6439 -0.3018
  258SOL    HW1  773   1.406   2.138   2.012  1.4137 -0.7274  0.2767
  258SOL    HW2  774   1.399   2.302   1.998  0.2813 -1.8230 -0.6907
  259SOL     OW  775   1.162   1.676   2.347 -0.5689 -1.0266 -0.0584
  259SOL    HW1  776   1.149   1.606   2.416  1.8460  2.0638  0.6018
  259SOL    HW2  777   1.113   1.649   2.258 -2.7042 -1.0533  0.2818
  260SOL     OW  778   2.383   0.912   2.191  0.1773  0.0958 -0.2716
  260SOL    HW1  779   2.319   0.831   2.204 -2.1857 -0.5449  1.6227
  260SOL    HW2  780   2.336   0.997   2.224  0.3918  0.1602 -1.5895
  261SOL     OW  781   1.416   0.832   1.094 -0.0141 -0.0437 -0.7724
  261SOL    HW1  782   1.441   0.738   1.127  1.8111 -1.5062  0.8704
  261SOL    HW2  783   1.457   0.851   1.004 -0.2219  2.8262 -0.8254
  262SOL     OW  784   2.278   2.080   2.632  0.3124 -0.4183 -0.4966
  262SOL    HW1  785   2.336   2.019   2.693 -1.8237 -1.4985  0.2822
  262SOL    HW2  786   2.197   2.097   2.690  0.3604 -0.0664  2.1830
  263SOL     OW  787   0.833   2.353   0.827 -0.1648 -0.1783 -0.1076
  263SOL    HW1  788   0.905   2.426   0.824 -0.1435  1.9604  0.4026
  263SOL    HW2  789   0.768   2.357   0.741 -1.5464 -0.7383 -4.3752
  264SOL     OW  790   0.285   2.515   0.432 -0.9091 -0.1308  0.1985
  264SOL    HW1  791   0.190   2.552   0.451  2.9431 -2.0151  0.1240
  264SOL    HW2  792   0.293   2.414   0.442  1.0646 -0.2048  2.6253
  265SOL     OW  793   0.705   1.363   0.035 -0.3226 -0.5575  0.5049
  265SOL    HW1  794   0.720   1.352   3.046 -0.0110 -1.2792 -3.5088
  265SOL    HW2  795   0.788   1.337   0.091 -0.3503 -0.1576  0.3811
  266SOL     OW  796   0.906   1.957   2.332 -0.2294 -0.3588  0.2945
  266SOL    HW1  797   0.986   1.958   2.395 -2.8381  0.6201  2.0297
  266SOL    HW2  798   0.818   1.993   2.371 -2.2533  0.4122 -0.5708
  267SOL     OW  799   1.856   0.785   2.295  0.4348 -0.3409 -0.3871
  267SOL    HW1  800   1.794   0.731   2.357 -0.6433 -0.0404  0.1757
  267SOL    HW2  801   1.827   0.778   2.199 -0.2702  0.2904 -1.5543
  268SOL     OW  802   0.591   1.109   0.130  0.0593  0.0143 -0.1732
  268SOL    HW1  803   0.624   1.178   0.059  1.8478 -0.4043 -3.5589
  268SOL    HW2  804   0.597   1.160   0.221  3.7798  0.4619  2.1675
  269SOL     OW  805   2.445   1.791   2.297  0.0966  0.5746  0.5135
  269SOL    HW1  806   2.535   1.795   2.334 -0.9593  0.8115 -0.3765
  269SOL    HW2  807   2.431   1.855   2.218  1.7520  0.2188  0.0165
  270SOL     OW  808   0.967   2.067   3.076  0.8290  0.1993 -0.6165
  270SOL    HW1  809   0.891   2.007   0.002 -2.4546 -0.1957  2.9927
  270SOL    HW2  810   1.023   2.024   3.001 -1.1856  0.1750  0.8718
  271SOL     OW  811   0.259   0.531   0.150  0.2775  0.3737 -0.4265
  271SOL    HW1  812   0.322   0.541   0.071 -0.2306 -1.1541 -1.3427
  271SOL    HW2  813   0.198   0.450   0.124  0.1008 -0.8223  1.1309
  272SOL     OW  814   2.859   0.183   0.337  0.8516 -0.5630 -0.3336
  272SOL    HW1  815   2.842   0.083   0.351  0.6953 -1.2515  0.1466
  272SOL    HW2  816   2.943   0.208   0.392  1.4935  0.3898 -0.1173
  273SOL     OW  817   0.126   3.007   1.739  0.3599 -0.3344 -0.5850
  273SOL    HW1  818   0.191   3.037   1.810 -1.0169 -1.3326  1.2927
  273SOL    HW2  819   0.040   2.995   1.788  0.5847 -3.0527  0.9960
  274SOL     OW  820   2.817   0.478   1.497 -0.2103 -0.2123  0.5340
  274SOL    HW1  821   2.904   0.433   1.519  0.3888  1.4588 -3.2001
  274SOL    HW2  822   2.797   0.468   1.398 -1.2257 -1.2056 -1.5460
  275SOL     OW  823   0.792   1.556   1.087  0.1875 -0.1444 -0.2144
  275SOL    HW1  824   0.737   1.625   1.038 -1.5550  1.0198 -2.2472
  275SOL    HW2  825   0.850   1.498   1.028 -1.7397 -1.1859  2.6807
  276SOL     OW  826   0.692   1.109   1.817  0.9264 -0.7861 -0.2558
  276SOL    HW1  827   0.659   1.202   1.788 -0.2183 -2.0170 -2.0334
  276SOL    HW2  828   0.619   1.060   1.863  1.3221  0.1505  0.6544
  277SOL     OW  829   1.034   2.585   1.942 -0.2066  0.0580 -0.3022
  277SOL    HW1  830   1.105   2.656   1.961 -0.5414 -1.5607  2.4082
  277SOL    HW2  831   1.024   2.517   2.019  0.5771 -1.9759  1.9267
  278SOL     OW  832   2.204   2.739   2.259  0.2169 -0.3844  0.0470
  278SOL    HW1  833   2.276   2.745   2.334 -1.0971 -4.0855 -0.6374
  278SOL    HW2  834   2.201   2.643   2.230 -0.2295 -1.9486 -0.3023
  279SOL     OW  835   1.294   1.732   0.049 -0.1267  0.3431 -0.3143
  279SOL    HW1  836   1.227   1.676   0.002  0.9569  5.0191  1.2240
  279SOL    HW2  837   1.267   1.832   0.055 -0.4363  1.8766 -2.1396
  280SOL     OW  838   1.398   0.798   0.042  0.1466  0.4932 -0.0622
  280SOL    HW1  839   1.477   0.786   3.089 -0.1595  0.1498  1.3755
  280SOL    HW2  840   1.320   0.840   3.107  1.2275 -0.8383  1.0376
  281SOL     OW  841   0.401   0.536   1.376  0.3602  0.2779  0.4469
  281SOL    HW1  842   0.356   0.627   1.388  1.3484  2.0939  0.6155
  281SOL    HW2  843   0.352   0.451   1.411  0.3781  0.4080  0.6549
  282SOL     OW  844   0.051   2.731   0.689  0.3860  0.6123  0.7894
  282SOL    HW1  845   0.130   2.722   0.752  0.1349 -2.1764  5.2164
  282SOL    HW2  846   0.041   2.647   0.630  1.5755 -0.2789  0.6447
  283SOL     OW  847   1.498   1.980   1.948  0.3515 -0.0968 -0.3414
  283SOL    HW1  848   1.482   1.883   1.955 -1.1241  1.1031 -0.3756
  283SOL    HW2  849   1.590   2.001   1.988  2.6692 -0.1694  3.2679
  284SOL     OW  850   2.665   2.757   1.408  0.2270 -0.3152 -0.1095
  284SOL    HW1  851   2.754   2.789   1.367  1.8211  0.4717 -0.1112
  284SOL    HW2  852   2.625   2.688   1.349  1.2226 -0.5303  0.8085
  285SOL     OW  853   0.270   2.499   0.158 -0.6507  0.1602  0.4753
  285SOL    HW1  854   0.247   2.399   0.160  3.3781  1.5246 -0.0482
  285SOL    HW2  855   0.273   2.538   0.249  1.0076  0.6563 -2.9089
  286SOL     OW  856   0.549   2.782   0.911  0.2681  0.1878 -0.6265
  286SOL    HW1  857   0.581   2.875   0.926 -0.1717 -2.9354 -0.4801
  286SOL    HW2  858   0.448   2.785   0.906 -1.6401  2.1998 -1.1872
  287SOL     OW  859   0.801   1.348   0.476  0.5137  0.3177 -0.2464
  287SOL    HW1  860   0.882   1.309   0.529  2.9058  0.4365  1.1896
  287SOL    HW2  861   0.823   1.448   0.465  0.2927  0.3400  0.4461
  288SOL     OW  862   1.935   1.885   2.783  0.2578 -0.4109 -0.8631
  288SOL    HW1  863   1.993   1.811   2.741  0.8034 -3.1947 -3.0275
  288SOL    HW2  864   1.916   1.865   2.881  0.4087 -0.6500 -0.7886
  289SOL     OW  865   2.886   1.830   0.351 -0.5569  0.0738  0.1446
  289SOL    HW1  866   2.792   1.859   0.329 -3.1494 -3.7966 -1.3460
  289SOL    HW2  867   2.944   1.831   0.266  0.0575 -0.0980 -1.0419
  290SOL     OW  868   1.474   1.465   1.396 -0.4455 -1.0494  0.0581
  290SOL    HW1  869   1.408   1.526   1.447 -2.6850  1.2457  2.5247
  290SOL    HW2  870   1.430   1.381   1.353 -2.0103 -0.5005  0.6443
  291SOL     OW  871   1.280   1.359   0.164 -0.0141  0.4903 -0.0980
  291SOL    HW1  872   1.240   1.273   0.131  0.0203 -0.3253 -1.4303
  291SOL    HW2  873   1.378   1.361   0.137 -1.5208  0.7088  0.5583
  292SOL     OW  874   1.091   1.365   0.385 -0.6677 -0.0736  0.3951
  292SOL    HW1  875   1.102   1.341   0.482 -0.4412 -2.1089  1.3734
  292SOL    HW2  876   1.164   1.330   0.322 -1.7536 -0.7484 -0.7280
  293SOL     OW  877   1.107   2.986   0.889  0.0237  0.0173 -0.2234
  293SOL    HW1  878   1.023   2.930   0.890  0.4272 -3.2979 -1.5364
  293SOL    HW2  879   1.085   3.070   0.836  2.0771  1.0107  0.7647
  294SOL     OW  880   1.991   1.290   2.281  0.5386  0.7240 -0.0155
  294SOL    HW1  881   1.957   1.302   2.186 -1.6653 -2.4600 -0.6379
  294SOL    HW2  882   1.931   1.228   2.336 -1.6542  0.4492 -0.2086
  295SOL     OW  883   1.563   1.821   3.069  0.5800  0.1087  0.0206
  295SOL    HW1  884   1.485   1.768   3.105 -3.0391 -0.8866 -1.2090
  295SOL    HW2  885   1.525   1.907   3.032 -0.4068 -0.7123  0.6399
  296SOL     OW  886   1.155   0.816   1.825 -0.0420  0.4414 -0.0181
  296SOL    HW1  887   1.077   0.793   1.760  1.0576  1.1246 -0.9920
  296SOL    HW2  888   1.155   0.911   1.848 -1.1094 -1.1415  1.1156
  297SOL     OW  889   3.065   0.750   1.804 -0.1675 -0.0019  0.6858
  297SOL    HW1  890   2.974   0.694   1.794 -3.2495 -2.3079 -1.1837
  297SOL    HW2  891   0.024   0.747   1.726  2.6852 -0.9937 -1.5868
  298SOL     OW  892   1.400   1.884   1.518 -0.6259 -0.4165 -0.2194
  298SOL    HW1  893   1.479   1.855   1.465 -1.0730  1.3442  2.3789
  298SOL    HW2  894   1.429   1.968   1.568  1.3014  0.9448 -0.2869
  299SOL     OW  895   1.237   0.111   2.738  0.2655  0.4595 -0.5533
  299SOL    HW1  896   1.310   0.043   2.721  0.9598 -1.3646  0.8307
  299SOL    HW2  897   1.168   0.099   2.661 -0.3337 -1.3544 -0.3843
  300SOL     OW  898   2.701   1.930   0.112  0.0457 -0.0107  0.2438
  300SOL    HW1  899   2.686   2.004   0.050  0.0319 -1.6730  0.3009
  300SOL    HW2  900   2.680   1.835   0.077  1.2863 -2.4907 -2.5779
  301SOL     OW  901   2.082   0.671   2.702 -0.4270 -0.2815 -0.0681
  301SOL    HW1  902   2.091   0.715   2.609 -0.6960 -0.7368 -0.2065
  301SOL    HW2  903   2.049   0.742   2.772  2.4037  1.1474 -1.1956
  302SOL     OW  904   2.414   2.265   2.901 -0.2870 -0.2032 -1.2489
  302SOL    HW1  905   2.360   2.178   2.919  1.0565  4.3704 -0.4670
  302SOL    HW2  906   2.429   2.291   2.801  3.4359 -0.2366 -1.1760
  303SOL     OW  907   0.039   2.258   0.073 -0.0825 -0.2292  0.1835
  303SOL    HW1  908   0.014   2.357   0.078  4.0951  1.8751 -0.7934
  303SOL    HW2  909   3.078   2.203   0.019 -1.1004  0.5133  2.0402
  304SOL     OW  910   0.385   1.845   1.138  0.0834  0.0611  0.0374
  304SOL    HW1  911   0.316   1.905   1.185 -1.0078  1.3155 -0.8634
  304SOL    HW2  912   0.476   1.860   1.185  1.0768  1.8655  2.5271
  305SOL     OW  913   2.814   0.640   1.770 -0.1319 -0.3257  0.2344
  305SOL    HW1  914   2.787   0.553   1.817 -0.9722 -0.5079  1.4803
  305SOL    HW2  915   2.764   0.654   1.681  1.7811  0.6141 -0.1163
  306SOL     OW  916   1.715   1.526   1.012  0.3803  0.3094 -0.2730
  306SOL    HW1  917   1.613   1.522   1.030 -4.9994 -3.2838  1.2293
  306SOL    HW2  918   1.765   1.490   1.094  0.4751 -0.7589 -1.9594
  307SOL     OW  919   0.003   0.227   0.813 -0.2849 -0.3588 -0.5449
  307SOL    HW1  920   0.099   0.254   0.825 -0.7004 -0.3287  0.3526
  307SOL    HW2  921   3.090   0.128   0.840  0.2890 -2.7284  0.3626
  308SOL     OW  922   0.134   1.278   1.874  0.3708  0.0476  0.3208
  308SOL    HW1  923   0.038   1.240   1.865 -0.1910 -1.0292  0.2634
  308SOL    HW2  924   0.175   1.294   1.781  3.0340 -1.7709 -1.3185
  309SOL     OW  925   2.808   1.927   2.345  0.2061 -0.2014  0.2906
  309SOL    HW1  926   2.717   1.973   2.357 -2.5231  3.7426 -0.1667
  309SOL    HW2  927   2.848   1.897   2.434 -1.1783 -2.4278 -0.8371
  310SOL     OW  928   2.612   1.214   2.898  0.3412  0.2617 -0.1915
  310SOL    HW1  929   2.680   1.173   2.836  0.7374 -1.2631 -0.0505
  310SOL    HW2  930   2.563   1.139   2.954 -1.3229  1.3940  0.6257
  311SOL     OW  931   1.742   0.934   2.999  0.1998 -0.1039 -0.3246
  311SOL    HW1  932   1.707   1.027   2.995  1.5222  0.5980  0.8257
  311SOL    HW2  933   1.685   0.870   2.940  0.6298 -1.5831 -2.1896
  312SOL     OW  934   1.388   2.221   2.627  0.5635  0.4515 -0.2835
  312SOL    HW1  935   1.477   2.189   2.658 -1.2786  1.2807 -0.1080
  312SOL    HW2  936   1.374   2.240   2.527  0.1053 -1.0302  0.1026
  313SOL     OW  937   0.448   0.402   0.585  0.2774 -0.0614 -0.0484
  313SOL    HW1  938   0.477   0.426   0.491 -1.3160 -2.2933  0.2793
  313SOL    HW2  939   0.375   0.469   0.610 -2.8642 -1.0250 -0.8496
  314SOL     OW  940   0.606   1.907   1.288 -0.1522 -0.1347  0.2495
  314SOL    HW1  941   0.653   1.995   1.300 -2.6279 -0.3054  1.6146
  314SOL    HW2  942   0.669   1.834   1.323  3.7520 -0.4209  0.3002
  315SOL     OW  943   0.778   1.920   2.077 -0.1854  0.0912 -0.0260
  315SOL    HW1  944   0.699   1.855   2.066 -1.8966  1.3391 -2.6269
  315SOL    HW2  945   0.813   1.922   2.173  0.1447  1.9681 -0.4747
  316SOL     OW  946   0.614   2.515   0.460 -0.2959  0.0721  0.1007
  316SOL    HW1  947   0.515   2.496   0.437  1.2141  0.5318  1.2934
  316SOL    HW2  948   0.623   2.598   0.515 -0.1511 -0.2261  0.7240
  317SOL     OW  949   2.603   0.041   1.191  0.3878  0.2831 -0.1063
  317SOL    HW1  950   2.600   0.079   1.097  0.6911  0.2639  1.2332
  317SOL    HW2  951   2.554   3.059   1.189 -1.1474  0.5542 -0.3311
  318SOL     OW  952   1.943   2.825   0.399 -0.2849  0.1641  0.4951
  318SOL    HW1  953   1.892   2.863   0.475  2.0022 -1.3432 -1.1431
  318SOL    HW2  954   2.025   2.771   0.428  1.2593  1.4953 -0.6815
  319SOL     OW  955   1.678   0.499   2.698 -0.1267 -0.5663  0.3424
  319SOL    HW1  956   1.751   0.533   2.759 -0.3309 -0.5191 -0.0397
  319SOL    HW2  957   1.641   0.411   2.725 -0.1993  2.0295 -2.2549
  320SOL     OW  958   2.975   2.177   2.103  0.1611  0.5242  0.1188
  320SOL    HW1  959   2.879   2.190   2.062 -0.7755  0.1790 -0.3782
  320SOL    HW2  960   2.979   2.219   2.196  0.5856  1.3460 -3.3475
  321SOL     OW  961   0.414   2.515   3.033  0.7866 -0.1077  0.4286
  321SOL    HW1  962   0.503   2.560   3.034  1.0913 -1.6507 -3.1070
  321SOL    HW2  963   0.361   2.527   0.008  0.3572  1.2515 -0.0383
  322SOL     OW  964   2.733   0.622   2.468 -0.0387 -0.6851 -0.3628
  322SOL    HW1  965   2.713   0.520   2.468  0.3482  1.0935 -1.0740
  322SOL    HW2  966   2.658   0.662   2.527 -1.3803 -1.7565  1.7371
  323SOL     OW  967   2.485   1.234   0.798 -0.3566 -0.0154  0.0089
  323SOL    HW1  968   2.445   1.138   0.788 -1.8357 -1.7842 -0.5274
  323SOL    HW2  969   2.564   1.234   0.859 -3.3514 -2.0495  1.1449
  324SOL     OW  970   2.728   0.423   1.219 -0.3654  0.3328 -0.7761
  324SOL    HW1  971   2.806   0.439   1.157 -2.8860 -2.7463 -0.5253
  324SOL    HW2  972   2.649   0.395   1.163  1.6047  1.5415  2.2484
  325SOL     OW  973   2.736   3.020   1.750 -0.4405 -0.3761 -0.1734
  325SOL    HW1  974   2.776   3.071   1.831 -2.5478 -1.1914  2.3564
  325SOL    HW2  975   2.787   3.036   1.665 -2.5800  1.8519 -0.4003
  326SOL     OW  976   1.838   2.878   0.164 -0.3429 -0.4418  0.4284
  326SOL    HW1  977   1.779   2.798   0.158 -0.9839  0.2410  1.5888
  326SOL    HW2  978   1.883   2.872   0.257  0.2869  0.2988  1.3382
  327SOL     OW  979   1.818   1.721   0.407 -0.1295 -0.2589  0.1834
  327SOL    HW1  980   1.860   1.807   0.368 -1.3231 -0.7737 -1.0467
  327SOL    HW2  981   1.871   1.694   0.489  0.2530  0.1572  0.3434
  328SOL     OW  982   3.081   2.134   2.462  0.2870  0.2007  0.1982
  328SOL    HW1  983   3.045   2.205   2.398 -0.7994 -0.9420  0.8650
  328SOL    HW2  984   3.092   2.044   2.414  0.4071 -3.0796 -1.8716
  329SOL     OW  985   0.127   2.199   1.494 -0.0058  0.5469 -0.1235
  329SOL    HW1  986   0.117   2.114   1.436  0.3341 -2.3228 -0.4517
  329SOL    HW2  987   0.175   2.175   1.580 -0.0245 -0.8172  1.0564
  330SOL     OW  988   2.748   0.921   2.881 -0.1650  0.6386  0.7073
  330SOL    HW1  989   2.726   0.970   2.797 -3.2921 -0.0495 -0.4396
  330SOL    HW2  990   2.842   0.889   2.866 -0.0038  1.2658 -0.5866
  331SOL     OW  991   2.256   2.321   1.055 -0.2708  0.3648 -0.5506
  331SOL    HW1  992   2.219   2.296   0.963 -0.2946  2.9328 -1.2221
  331SOL    HW2  993   2.209   2.409   1.082  0.7930  0.6514  0.3679
  332SOL     OW  994   0.603   2.752   0.623  0.7672 -0.1989  0.2162
  332SOL    HW1  995   0.689   2.800   0.594 -3.6999  0.6348  0.6888
  332SOL    HW2  996   0.591   2.776   0.719  0.4437  0.1833 -3.0585
  333SOL     OW  997   2.207   1.864   2.448 -0.5594 -0.8088  0.0026
  333SOL    HW1  998   2.200   1.940   2.520 -0.1854  0.6732  1.6107
  333SOL    HW2  999   2.305   1.854   2.421  0.1010 -0.4654 -1.4900
  334SOL     OW 1000   0.752   1.198   0.863 -0.3239 -0.7491  0.4180
  334SOL    HW1 1001   0.835   1.250   0.873 -1.0925 -1.0510  0.9672
  334SOL    HW2 1002   0.690   1.214   0.940  1.1330  2.9341 -0.0110
  335SOL     OW 1003   3.100   1.930   2.289 -0.0496  0.7792  0.0161
  335SOL    HW1 1004   3.001   1.927   2.294  3.0985  0.4357 -1.1578
  335SOL    HW2 1005   0.023   1.928   2.192  0.1769  1.8635  0.0134
  336SOL     OW 1006   2.440   2.763   2.432 -0.5655 -0.4603  0.1651
  336SOL    HW1 1007   2.515   2.713   2.381 -1.1020 -1.3620  0.4324
  336SOL    HW2 1008   2.468   2.860   2.419  1.1076 -0.3225 -2.3842
  337SOL     OW 1009   1.022   1.006   0.820  0.0486  0.4033 -0.0160
  337SOL    HW1 1010   0.923   0.977   0.803 -1.0916 -1.1002 -0.0268
  337SOL    HW2 1011   1.029   1.074   0.897  0.6525 -0.8297  2.1744
  338SOL     OW 1012   1.259   1.949   1.138 -0.0543  0.5073 -0.8378
  338SOL    HW1 1013   1.163   1.963   1.167  1.4407  1.0890  0.9999
  338SOL    HW2 1014   1.281   1.848   1.136 -1.5641 -0.8152  0.6044
  339SOL     OW 1015   0.346   1.958   1.427  0.6712  0.1352 -0.6784
  339SOL    HW1 1016   0.425   1.911   1.389 -0.6793 -0.0140 -1.9793
  339SOL    HW2 1017   0.310   1.905   1.505  0.7152 -1.4198  1.3731
  340SOL     OW 1018   0.729   0.069   1.765 -0.5424  0.1690 -0.9543
  340SOL    HW1 1019   0.831   0.075   1.777  3.7284 -2.1015  0.9465
  340SOL    HW2 1020   0.705   0.004   1.689 -1.7767  1.9757 -0.5982
  341SOL     OW 1021   2.042   1.728   1.178  0.8403 -0.3607  0.2607
  341SOL    HW1 1022   2.072   1.657   1.112 -1.2626  2.8239 -1.7306
  341SOL    HW2 1023   2.000   1.806   1.126 -4.1585 -0.6448  1.1782
  342SOL     OW 1024   2.388   1.440   0.947  0.1405  0.2863 -0.1769
  342SOL    HW1 1025   2.400   1.356   0.892 -0.1535  0.0135  1.5377
  342SOL    HW2 1026   2.467   1.505   0.939 -1.0965  1.4522 -0.0225
  343SOL     OW 1027   2.120   0.160   0.914  0.0673 -0.3709  0.0367
  343SOL    HW1 1028   2.138   0.259   0.913  4.0713  0.4738  0.9571
  343SOL    HW2 1029   2.200   0.110   0.876  1.2910  0.6403  1.3215
  344SOL     OW 1030   2.233   0.254   0.375 -0.2096 -0.2470 -0.0944
  344SOL    HW1 1031   2.270   0.349   0.381  2.6341  0.3850 -2.4556
  344SOL    HW2 1032   2.272   0.198   0.448 -0.3881  1.2241  0.4533
  345SOL     OW 1033   0.900   2.834   2.002  0.6137  0.5059 -0.8615
  345SOL    HW1 1034   0.923   2.819   1.908  0.1237  0.7788  4.3270
  345SOL    HW2 1035   0.939   2.763   2.059  0.7708  0.1312  1.4010
  346SOL     OW 1036   2.515   2.170   0.838 -0.5460 -0.2232  0.2068
  346SOL    HW1 1037   2.527   2.188   0.940 -2.5638 -1.7611  2.6964
  346SOL    HW2 1038   2.432   2.113   0.823  0.7235  1.6992  0.4838
  347SOL     OW 1039   2.271   3.097   1.117 -0.3609  0.1785 -0.7569
  347SOL    HW1 1040   2.343   3.039   1.159  2.1299  1.6198  1.8743
  347SOL    HW2 1041   2.279   3.090   1.019  1.7365  0.5271  0.4868
  348SOL     OW 1042   0.938   0.780   1.665 -0.7821  0.2329  0.1777
  348SOL    HW1 1043   0.883   0.858   1.651  0.6057 -3.2008 -0.0034
  348SOL    HW2 1044   0.944   0.729   1.573 -2.1926 -1.0078 -3.1732
  349SOL     OW 1045   2.500   0.676   2.611 -0.0884 -0.1892  0.1417
  349SOL    HW1 1046   2.419   0.627   2.577  1.8773 -0.1706  0.6065
  349SOL    HW2 1047   2.465   0.766   2.641  0.6958 -0.5844 -1.1314
  350SOL     OW 1048   2.261   2.486   0.261 -0.7737 -0.0224  0.5319
  350SOL    HW1 1049   2.265   2.548   0.178  0.0141  0.8276 -3.9003
  350SOL    HW2 1050   2.243   2.394   0.224  1.3888  2.0108  0.9304
  351SOL     OW 1051   1.203   0.614   0.194  0.3378 -0.3858  0.5365
  351SOL    HW1 1052   1.146   0.581   0.114  3.5313 -1.8764  0.5935
  351SOL    HW2 1053   1.293   0.644   0.157 -0.8658  1.2768  0.0145
  352SOL     OW 1054   1.768   1.976   2.599 -0.0840 -0.1516 -0.1768
  352SOL    HW1 1055   1.757   1.925   2.513 -1.6623  0.8055  1.6593
  352SOL    HW2 1056   1.832   1.937   2.666 -1.2752 -0.9901 -1.7112
  353SOL     OW 1057   0.492   1.334   2.655  0.5885  0.3922 -0.0078
  353SOL    HW1 1058   0.389   1.347   2.664  0.6600  1.0567 -0.8290
  353SOL    HW2 1059   0.535   1.422   2.638 -0.2182 -1.8697  0.9347
  354SOL     OW 1060   0.758   2.709   2.808  0.7238 -0.2231 -0.3712
  354SOL    HW1 1061   0.698   2.677   2.885 -2.0213  0.7139  1.6951
  354SOL    HW2 1062   0.836   2.649   2.799 -3.6672 -1.5371  1.4085
  355SOL     OW 1063   2.336   2.833   1.503 -0.3113 -0.1679  0.0467
  355SOL    HW1 1064   2.418   2.895   1.513 -1.9140 -0.2658 -1.1515
  355SOL    HW2 1065   2.264   2.868   1.559  0.4004 -0.5163  0.2618
  356SOL     OW 1066   2.784   0.945   1.100 -0.6928 -0.2331  0.0415
  356SOL    HW1 1067   2.854   0.894   1.049 -1.2006  1.4270  2.4712
  356SOL    HW2 1068   2.705   0.881   1.110 -0.4506 -0.5722  0.7346
  357SOL     OW 1069   2.826   0.025   1.520  0.1270 -0.0599 -0.8508
  357SOL    HW1 1070   2.911   0.061   1.477 -0.0901  1.8751  1.8263
  357SOL    HW2 1071   2.755   0.096   1.514  2.7249  2.9614 -0.1439
  358SOL     OW 1072   3.099   1.583   1.767  0.7932  0.2321  0.5453
  358SOL    HW1 1073   0.057   1.573   1.845 -1.0902 -1.2095  0.8613
  358SOL    HW2 1074   0.045   1.580   1.680  1.5825  0.7970  1.3481
  359SOL     OW 1075   2.828   2.817   2.450  0.1080 -0.1539  0.3694
  359SOL    HW1 1076   2.748   2.775   2.399  0.8556  1.5878 -2.0644
  359SOL    HW2 1077   2.920   2.780   2.425  0.4402  0.8465 -0.3705
  360SOL     OW 1078   1.029   0.382   1.365  0.6921 -0.2550  0.4098
  360SOL    HW1 1079   0.992   0.298   1.315 -0.7053 -0.7540 -2.1095
  360SOL    HW2 1080   1.128   0.379   1.353 -0.9292 -0.4930  1.6534
  361SOL     OW 1081   2.155   2.600   1.076  0.1521 -0.4040  0.1220
  361SOL    HW1 1082   2.240   2.584   1.023  1.3822  0.9886 -1.4277
  361SOL    HW2 1083   2.174   2.656   1.159 -0.0217 -1.5954  1.5997
  362SOL     OW 1084   1.018   0.135   0.450  0.2470 -0.0955 -0.2662
  362SOL    HW1 1085   0.950   0.111   0.376 -2.5424  1.0184 -2.7454
  362SOL    HW2 1086   1.103   0.183   0.421  1.1867  0.6627 -0.9936
  363SOL     OW 1087   1.423   1.364   0.849  0.2550 -0.0922  0.2506
  363SOL    HW1 1088   1.500   1.347   0.783 -0.5821 -3.5021 -1.5466
  363SOL    HW2 1089   1.444   1.412   0.936 -0.3031 -0.2883  1.6505
  364SOL     OW 1090   0.193   0.746   1.565  0.3080  0.3264  0.3285
  364SOL    HW1 1091   0.294   0.753   1.585 -1.1446  0.4582 -1.0876
  364SOL    HW2 1092   0.177   0.798   1.478 -1.4610  0.0159 -2.1213
  365SOL     OW 1093   2.687   0.729   0.865 -0.1919  0.1225  0.6450
  365SOL    HW1 1094   2.760   0.657   0.883  0.3834 -1.0795  0.7333
  365SOL    HW2 1095   2.642   0.757   0.953  0.3459  0.5567 -4.7727
  366SOL     OW 1096   2.883   1.688   1.047 -0.0599 -0.5217 -0.4762
  366SOL    HW1 1097   2.817   1.758   1.008 -0.7822  1.9761  1.9108
  366SOL    HW2 1098   2.892   1.607   0.986  1.4243  0.3537 -2.0753
  367SOL     OW 1099   2.111   2.066   2.308 -0.7598  0.1917 -0.3381
  367SOL    HW1 1100   2.165   1.985   2.340 -0.4683 -3.6341  0.6998
  367SOL    HW2 1101   2.037   2.096   2.372 -0.6651 -1.0190 -1.6338
  368SOL     OW 1102   2.712   2.074   1.314  0.3470  0.4021 -0.0191
  368SOL    HW1 1103   2.718   1.980   1.361 -1.2865 -2.1811  3.6546
  368SOL    HW2 1104   2.735   2.077   1.218 -1.6194 -2.3491 -0.4321
  369SOL     OW 1105   2.227   2.848   2.787 -0.1361  0.1131  0.4591
  369SOL    HW1 1106   2.215   2.936   2.736  2.5268 -2.9646  2.2505
  369SOL    HW2 1107   2.255   2.867   2.880 -0.5643 -1.1189  0.1929
  370SOL     OW 1108   0.607   0.525   1.037  0.1739 -0.2671  0.2692
  370SOL    HW1 1109   0.597   0.550   0.940  1.9546 -0.8977  0.1335
  370SOL    HW2 1110   0.642   0.428   1.036 -1.1636 -0.8934  1.6514
  371SOL     OW 1111   0.589   1.663   0.351 -0.3597  0.7259  0.2225
  371SOL    HW1 1112   0.571   1.602   0.272 -0.3218  1.1916  2.0493
  371SOL    HW2 1113   0.569   1.754   0.318  1.4208  2.1919  1.3268
  372SOL     OW 1114   0.793   1.065   2.959 -0.1134  0.7312 -0.2115
  372SOL    HW1 1115   0.849   1.053   3.044 -0.4423  1.7886 -0.8559
  372SOL    HW2 1116   0.852   1.062   2.878 -0.3945 -1.2590  0.5191
  373SOL     OW 1117   1.215   2.623   2.480  0.6910  0.1761 -0.3457
  373SOL    HW1 1118   1.155   2.658   2.406  1.4156  1.1018  1.5717
  373SOL    HW2 1119   1.170   2.636   2.569 -0.6335 -1.5242 -2.8304
  374SOL     OW 1120   0.579   1.971   0.332  0.0496 -0.2166  0.5012
  374SOL    HW1 1121   0.667   2.008   0.364 -0.0110  1.4776  0.7510
  374SOL    HW2 1122   0.512   1.991   0.406 -0.4150 -3.7574 -3.1182
  375SOL     OW 1123   0.617   0.649   1.782 -0.3750 -0.3032  0.2665
  375SOL    HW1 1124   0.641   0.562   1.738 -0.7300  1.8603  2.2976
  375SOL    HW2 1125   0.688   0.687   1.852  2.1361  0.4425 -0.9252
  376SOL     OW 1126   0.246   2.446   1.443 -0.4585  0.2538  0.1005
  376SOL    HW1 1127   0.224   2.351   1.407  2.1420 -0.0637 -2.6699
  376SOL    HW2 1128   0.247   2.463   1.545 -0.7389  2.2701  0.0419
  377SOL     OW 1129   2.805   1.803   2.921  0.3318 -0.4576 -0.2451
  377SOL    HW1 1130   2.785   1.713   2.961 -0.3810 -1.5511 -1.3476
  377SOL    HW2 1131   2.848   1.791   2.827 -1.7978 -2.8052  0.7412
  378SOL     OW 1132   1.431   3.093   3.010 -0.2165 -0.7749  0.5764
  378SOL    HW1 1133   1.370   3.012   3.024 -1.2695 -0.9120  1.4857
  378SOL    HW2 1134   1.516   3.084   3.066  0.8694 -0.3547 -0.3839
  379SOL     OW 1135   1.704   0.601   0.652 -0.2520  0.3356  1.1727
  379SOL    HW1 1136   1.704   0.594   0.550 -1.5403 -0.7668 -0.3207
  379SOL    HW2 1137   1.796   0.613   0.688  1.6008 -1.4695  2.0374
  380SOL     OW 1138   0.214   1.814   1.623 -0.1572  0.5923  0.2268
  380SOL    HW1 1139   0.260   1.762   1.696 -1.8934  2.1349 -3.7704
  380SOL    HW2 1140   0.145   1.755   1.574  1.1410  0.0098 -1.8078
  381SOL     OW 1141   2.488   1.455   2.498 -0.2193 -0.6140 -0.5312
  381SOL    HW1 1142   2.489   1.482   2.398 -1.2742 -0.2760  0.0308
  381SOL    HW2 1143   2.453   1.526   2.559  0.0812 -0.1341  2.1502
  382SOL     OW 1144   3.107   3.064   2.751 -0.5601 -0.5126  0.0770
  382SOL    HW1 1145   3.014   3.079   2.781  1.8038  0.1310 -2.2531
  382SOL    HW2 1146   3.108   3.060   2.649 -0.4552 -0.2003 -2.7022
  383SOL     OW 1147   1.627   1.164   2.919  0.5219 -0.2528 -0.0293
  383SOL    HW1 1148   1.665   1.217   2.840 -0.6332  1.6768  1.5364
  383SOL    HW2 1149   1.526   1.155   2.912  0.2821  0.2557  0.3227
  384SOL     OW 1150   0.952   1.976   1.148  0.6553  0.2789  0.1079
  384SOL    HW1 1151   0.889   2.027   1.208 -2.5601 -2.3354 -0.0295
  384SOL    HW2 1152   0.968   2.033   1.061 -0.2640  0.7260 -5.8610
  385SOL     OW 1153   1.814   2.787   0.824  0.4044 -0.2354 -0.8174
  385SOL    HW1 1154   1.792   2.832   0.913  0.8668 -0.4060  1.2137
  385SOL    HW2 1155   1.733   2.733   0.797 -0.3517 -0.9705  0.4204
  386SOL     OW 1156   1.490   1.965   1.018 -0.5641  0.7101  0.3082
  386SOL    HW1 1157   1.409   1.962   1.080 -0.0852 -1.0174  0.1714
  386SOL    HW2 1158   1.500   1.874   0.979  0.6415  0.6630  2.3973
  387SOL     OW 1159   2.703   2.324   1.481  0.2717 -0.4843  0.1844
  387SOL    HW1 1160   2.603   2.334   1.458 -2.4274  1.1430  0.2488
  387SOL    HW2 1161   2.731   2.225   1.473  0.4378 -1.7457 -3.0806
  388SOL     OW 1162   2.570   0.935   1.606 -0.4031 -0.5160 -0.1977
  388SOL    HW1 1163   2.579   0.837   1.587 -0.3510 -0.2070  0.3113
  388SOL    HW2 1164   2.660   0.959   1.651  2.9161  1.2096 -1.1423
  389SOL     OW 1165   2.040   0.860   0.113  0.1582 -0.2868  0.2409
  389SOL    HW1 1166   2.053   0.960   0.099  0.9595  0.2922  0.1605
  389SOL    HW2 1167   2.063   0.804   0.031  0.2266  0.7190 -0.5515
  390SOL     OW 1168   1.414   1.887   2.549 -0.7007  0.2006 -0.0083
  390SOL    HW1 1169   1.472   1.955   2.505 -1.4218 -0.5073  0.5135
  390SOL    HW2 1170   1.421   1.796   2.509 -3.0018  0.9244  3.4280
  391SOL     OW 1171   1.206   1.975   0.123 -0.1584  0.2591 -0.0499
  391SOL    HW1 1172   1.176   1.922   0.205  0.2235 -0.7222  0.7443
  391SOL    HW2 1173   1.122   2.018   0.086  1.1943 -0.5139 -0.5457
  392SOL     OW 1174   0.237   2.562   1.690  0.6785 -0.3034  0.1802
  392SOL    HW1 1175   0.243   2.662   1.683 -0.8075 -1.9784  0.7526
  392SOL    HW2 1176   0.300   2.533   1.762 -1.8754  1.0520 -0.0151
  393SOL     OW 1177   1.359   2.195   0.212  0.1058  0.3151 -0.5770
  393SOL    HW1 1178   1.309   2.105   0.210 -0.0807 -3.4698 -1.1316
  393SOL    HW2 1179   1.365   2.242   0.118 -0.1435  3.1883 -2.4053
  394SOL     OW 1180   0.314   0.612   2.380 -0.5577 -0.8779 -0.4558
  394SOL    HW1 1181   0.363   0.689   2.432  0.3566  0.1622 -0.7179
  394SOL    HW2 1182   0.344   0.529   2.426 -4.2653  1.5807  1.2850
  395SOL     OW 1183   0.547   1.233   1.033 -0.0710 -0.9093  0.0800
  395SOL    HW1 1184   0.515   1.324   1.000  0.5526 -0.4619  2.4044
  395SOL    HW2 1185   0.474   1.162   1.016 -2.0686 -1.2024 -0.4561
  396SOL     OW 1186   1.729   0.892   2.067 -0.6507  0.0952 -0.0094
  396SOL    HW1 1187   1.826   0.918   2.036  0.2857 -0.4184 -1.4700
  396SOL    HW2 1188   1.677   0.973   2.088  0.1600 -2.5554 -2.3066
  397SOL     OW 1189   0.924   0.052   0.029  0.1174 -0.0451  0.3837
  397SOL    HW1 1190   0.878   0.025   3.051  0.6983 -1.3714  0.0723
  397SOL    HW2 1191   0.866   0.049   0.112  2.0686 -1.5875 -2.5362
  398SOL     OW 1192   0.694   2.254   2.617  0.1942 -0.4166  0.1627
  398SOL    HW1 1193   0.782   2.241   2.672 -1.8713  0.2992 -0.2243
  398SOL    HW2 1194   0.615   2.272   2.681  0.1284 -0.8207 -2.6502
  399SOL     OW 1195   2.084   1.368   2.633  1.0736  0.2898 -0.3754
  399SOL    HW1 1196   2.014   1.292   2.622  0.2934 -4.0230 -1.9753
  399SOL    HW2 1197   2.122   1.394   2.543 -0.7780 -1.3625 -0.5817
  400SOL     OW 1198   2.102   1.440   1.545 -0.2467  0.2333  0.0700
  400SOL    HW1 1199   2.115   1.377   1.463 -1.2403 -2.5605 -3.2922
  400SOL    HW2 1200   2.059   1.531   1.525  2.3585 -3.1325  1.0778
  401SOL     OW 1201   1.370   1.262   1.272 -0.1022  0.0052 -0.4006
  401SOL    HW1 1202   1.422   1.170   1.281  1.6806 -0.7507  1.2411
  401SOL    HW2 1203   1.277   1.243   1.240 -1.3035  0.0001 -1.0410
  402SOL     OW 1204   0.011   2.403   1.767  0.1098  0.0364 -0.1605
  402SOL    HW1 1205   3.054   2.389   1.687 -0.6872 -0.3798 -0.0304
  402SOL    HW2 1206   0.080   2.469   1.735 -2.2199 -2.2022 -0.8259
  403SOL     OW 1207   0.191   1.192   2.112 -0.3219 -0.7728 -0.1618
  403SOL    HW1 1208   0.110   1.130   2.126 -0.2237 -1.3573  1.6419
  403SOL    HW2 1209   0.181   1.238   2.022 -0.1217  1.0065 -1.9210
  404SOL     OW 1210   2.091   1.972   1.546  0.3664  0.5068 -0.1067
  404SOL    HW1 1211   2.092   2.057   1.600  0.1014 -4.5885 -0.8965
  404SOL    HW2 1212   2.081   1.995   1.448  3.3322 -0.3881  1.4797
  405SOL     OW 1213   2.892   0.439   2.856  0.0085  0.4419 -0.2706
  405SOL    HW1 1214   2.794   0.478   2.852 -2.9398  0.2271 -0.4762
  405SOL    HW2 1215   2.923   0.438   2.756 -1.5580  0.0151 -2.5155
  406SOL     OW 1216   0.943   1.386   2.808  0.1079 -0.3210 -0.0188
  406SOL    HW1 1217   0.906   1.293   2.784  0.2295 -1.4254  0.1262
  406SOL    HW2 1218   1.031   1.374   2.862  2.8047 -0.9740 -0.5226
  407SOL     OW 1219   1.796   2.524   0.074 -0.0672  0.1805  0.0980
  407SOL    HW1 1220   1.797   2.500   0.171 -1.5826  3.7859 -0.1884
  407SOL    HW2 1221   1.703   2.495   0.035 -2.5026  0.1359 -0.0552
  408SOL     OW 1222   0.491   0.175   0.206 -0.1178 -0.1409  0.0580
  408SOL    HW1 1223   0.402   0.122   0.211 -0.1689 -0.7459 -2.0048
  408SOL    HW2 1224   0.483   0.264   0.258  0.3340  1.4776  1.2260
  409SOL     OW 1225   2.386   1.893   1.239  0.3874 -0.1029  0.2375
  409SOL    HW1 1226   2.319   1.874   1.160  0.4203 -2.2862 -2.4549
  409SOL    HW2 1227   2.428   1.801   1.259  0.4676  0.1896 -0.4458
  410SOL     OW 1228   2.128   2.278   3.004 -0.2094 -0.1690 -0.0188
  410SOL    HW1 1229   2.165   2.242   2.921 -2.7094 -0.8505  1.9187
  410SOL    HW2 1230   2.100   2.376   2.995  0.9663  2.6101 -2.5139
  411SOL     OW 1231   0.220   1.003   0.546 -0.0779  0.3488 -0.1134
  411SOL    HW1 1232   0.209   0.947   0.633 -1.3868 -1.4800  3.0170
  411SOL    HW2 1233   0.223   1.102   0.578 -0.9602  1.6784 -0.4022
  412SOL     OW 1234   1.602   2.741   0.240  0.1898 -0.4999 -0.3412
  412SOL    HW1 1235   1.615   2.685   0.327 -0.3965 -2.4307 -0.1677
  412SOL    HW2 1236   1.566   2.832   0.256  0.5163 -0.3176 -2.8098
  413SOL     OW 1237   1.700   0.392   2.306 -0.3485  0.5039  0.6185
  413SOL    HW1 1238   1.604   0.390   2.260  1.5675  1.3938 -1.9455
  413SOL    HW2 1239   1.714   0.301   2.350  1.4482  0.9388 -0.5526
  414SOL     OW 1240   3.002   0.296   0.526 -0.2909  0.0256  0.0794
  414SOL    HW1 1241   3.024   0.397   0.515  1.3725  3.2899  4.6089
  414SOL    HW2 1242   3.064   0.261   0.598  3.0412  1.2045 -1.9768
  415SOL     OW 1243   1.018   1.645   1.506 -0.6419 -0.1594 -0.1755
  415SOL    HW1 1244   0.996   1.714   1.575 -0.1104  1.0878 -1.1143
  415SOL    HW2 1245   0.992   1.554   1.543 -1.9982 -1.5941  1.3324
  416SOL     OW 1246   0.425   0.117   3.037 -0.4094 -0.3065 -0.2151
  416SOL    HW1 1247   0.341   0.176   3.017 -1.1006  1.7888  0.8017
  416SOL    HW2 1248   0.463   0.128   0.023 -0.5057  0.6269  2.2043
  417SOL     OW 1249   2.486   2.911   1.157 -0.3893  0.0238  0.1848
  417SOL    HW1 1250   2.453   2.841   1.220 -3.0840  0.3665  0.7000
  417SOL    HW2 1251   2.553   2.868   1.088 -0.9363 -0.5102 -1.7857
  418SOL     OW 1252   0.724   0.470   2.550  0.2668  0.3201 -0.6246
  418SOL    HW1 1253   0.784   0.490   2.466  0.2216  2.5276 -1.8607
  418SOL    HW2 1254   0.716   0.557   2.605  0.0204  0.7659  2.6716
  419SOL     OW 1255   0.256   1.460   1.173 -0.5655 -0.7178  0.1382
  419SOL    HW1 1256   0.229   1.365   1.165  0.4100  0.7316  0.3809
  419SOL    HW2 1257   0.185   1.523   1.135 -1.1174  1.1569  1.3889
  420SOL     OW 1258   0.968   2.076   0.911 -0.1779  0.5986  0.0742
  420SOL    HW1 1259   0.895   2.134   0.866 -0.2426  1.7382  1.8455
  420SOL    HW2 1260   0.991   1.990   0.856 -0.2816 -0.9744 -0.8690
  421SOL     OW 1261   2.128   2.089   2.039 -0.0329  0.4427  0.2725
  421SOL    HW1 1262   2.118   1.996   1.999  0.8329 -1.2152 -0.1057
  421SOL    HW2 1263   2.129   2.085   2.142  1.8797  1.0370 -0.8152
  422SOL     OW 1264   3.092   0.608   2.914 -0.6458  0.2678 -0.5485
  422SOL    HW1 1265   3.021   0.537   2.918  0.5900 -1.0128  1.2877
  422SOL    HW2 1266   0.018   0.636   3.003  4.2258 -0.7429  0.4520
  423SOL     OW 1267   1.237   2.099   0.906 -0.3099 -0.3441 -0.0099
  423SOL    HW1 1268   1.138   2.092   0.924  1.6320 -1.5981  0.1969
  423SOL    HW2 1269   1.287   2.042   0.972  3.9213  0.2108 -0.6695
  424SOL     OW 1270   0.781   1.430   1.575 -0.3307  0.2607 -0.2025
  424SOL    HW1 1271   0.794   1.421   1.473  0.4812 -0.3833  0.7036
  424SOL    HW2 1272   0.698   1.487   1.594 -0.8549  4.4402  2.0669
  425SOL     OW 1273   3.079   2.567   2.145 -0.5515  0.3780  0.0344
  425SOL    HW1 1274   0.061   2.560   2.106  2.1528  2.7119 -1.3823
  425SOL    HW2 1275   3.007   2.553   2.077  1.9412  1.3898 -1.2292
  426SOL     OW 1276   1.843   2.959   0.621  0.0572 -0.4018 -0.2785
  426SOL    HW1 1277   1.840   2.897   0.704  1.3959  1.4357  3.0130
  426SOL    HW2 1278   1.928   3.015   0.632 -2.2410 -1.1611 -0.3851
  427SOL     OW 1279   0.634   0.865   2.873 -0.0039 -0.2149  0.1683
  427SOL    HW1 1280   0.707   0.932   2.898 -1.7361 -1.1615  0.2156
  427SOL    HW2 1281   0.650   0.815   2.785  1.4607 -0.2739 -1.7443
  428SOL     OW 1282   2.078   1.519   0.269 -0.3546  0.3817 -0.2152
  428SOL    HW1 1283   2.004   1.450   0.293 -1.4430 -3.8496  1.8395
  428SOL    HW2 1284   2.163   1.474   0.252 -2.0042 -0.1143  0.7944
  429SOL     OW 1285   3.072   3.003   0.314  0.6043  0.2531 -0.2523
  429SOL    HW1 1286   0.023   2.927   0.354  1.9327 -0.7760 -0.9213
  429SOL    HW2 1287   2.974   2.973   0.322  1.2003 -2.8483 -1.6480
  430SOL     OW 1288   0.540   2.760   1.965  0.2843  0.0719 -0.7034
  430SOL    HW1 1289   0.506   2.842   2.012 -1.5735 -0.2406 -0.3292
  430SOL    HW2 1290   0.638   2.774   1.958 -0.6888  2.2074 -0.3670
  431SOL     OW 1291   2.460   1.098   1.368  0.5852 -0.0155  0.0844
  431SOL    HW1 1292   2.458   1.196   1.396 -2.2005  0.6130 -0.7485
  431SOL    HW2 1293   2.516   1.037   1.427 -0.3828 -2.7968  0.9006
  432SOL     OW 1294   1.942   2.315   2.064  0.1499 -0.3302  0.2060
  432SOL    HW1 1295   1.860   2.298   2.120 -0.2101 -1.2099 -0.0025
  432SOL    HW2 1296   2.002   2.233   2.073  2.2660 -0.3088 -0.2800
  433SOL     OW 1297   1.034   2.133   0.441 -0.7487 -0.1425 -0.4553
  433SOL    HW1 1298   1.023   2.040   0.400 -3.2057  0.1974 -2.6667
  433SOL    HW2 1299   1.122   2.141   0.489 -0.8511  2.1156  1.4053
  434SOL     OW 1300   0.409   2.201   2.310  0.2559  0.1072 -0.2365
  434SOL    HW1 1301   0.352   2.205   2.394 -0.3596  0.3295  1.1139
  434SOL    HW2 1302   0.353   2.170   2.233  0.2260 -0.6765  3.9843
  435SOL     OW 1303   0.434   0.707   0.269  0.0315 -0.0526  0.1809
  435SOL    HW1 1304   0.375   0.634   0.226 -1.7374 -0.2750  0.0824
  435SOL    HW2 1305   0.483   0.759   0.197 -0.7801  0.4283 -1.2324
  436SOL     OW 1306   0.293   2.876   1.357 -0.2259  0.4642  0.0858
  436SOL    HW1 1307   0.270   2.786   1.324 -1.4817  0.5292 -1.4094
  436SOL    HW2 1308   0.210   2.936   1.356 -2.4435  2.0338 -1.0697
  437SOL     OW 1309   1.729   1.983   1.571  0.3900  0.3487 -0.2341
  437SOL    HW1 1310   1.644   2.026   1.612  4.3370  3.3681 -0.1802
  437SOL    HW2 1311   1.777   2.047   1.509  0.5503 -2.1832 -1.9426
  438SOL     OW 1312   0.108   1.784   0.744 -0.2092  0.0222 -0.0360
  438SOL    HW1 1313   0.147   1.757   0.835  0.6942  1.0764  0.7623
  438SOL    HW2 1314   0.116   1.888   0.737  0.1032 -1.8681  1.8214
  439SOL     OW 1315   0.194   0.627   0.898  0.3019  0.5231  0.3839
  439SOL    HW1 1316   0.259   0.663   0.968 -3.1880  1.4734 -0.2177
  439SOL    HW2 1317   0.133   0.553   0.930 -0.9336  0.5313 -0.3113
  440SOL     OW 1318   0.177   2.855   2.414  0.7608  0.1190 -0.7839
  440SOL    HW1 1319   0.211   2.777   2.467 -0.7958  2.3503  1.0681
  440SOL    HW2 1320   0.194   2.852   2.314  1.5647 -0.7157  0.8342
  441SOL     OW 1321   3.074   0.458   0.953  0.6212 -0.1921 -0.1079
  441SOL    HW1 1322   3.072   0.424   1.048  0.8462  2.3053 -1.0984
  441SOL    HW2 1323   3.090   0.374   0.896  1.1804 -0.7846  1.4596
  442SOL     OW 1324   1.637   2.160   2.748  0.3006  0.4821 -0.3302
  442SOL    HW1 1325   1.704   2.225   2.789  1.7506 -1.0235 -2.5681
  442SOL    HW2 1326   1.690   2.093   2.687  2.5560 -2.2805 -1.1005
  443SOL     OW 1327   0.621   1.262   2.908 -0.0975  0.5327  0.1266
  443SOL    HW1 1328   0.593   1.271   2.812 -0.1822 -0.9052  0.1649
  443SOL    HW2 1329   0.696   1.186   2.916  0.1799 -2.9302  0.5211
  444SOL     OW 1330   1.440   1.562   2.202  0.4130  0.3071  0.0118
  444SOL    HW1 1331   1.410   1.644   2.153 -0.4137 -3.0718  0.6248
  444SOL    HW2 1332   1.443   1.574   2.301 -0.9107  0.7779  0.0470
  445SOL     OW 1333   0.208   3.045   0.863 -0.0080 -0.0746  0.1627
  445SOL    HW1 1334   0.258   3.102   0.929 -0.3583 -0.2844 -4.2272
  445SOL    HW2 1335   0.109   3.070   0.851  1.6152 -1.1545 -3.6984
  446SOL     OW 1336   2.161   0.672   1.218  0.2628 -0.6270  0.1440
  446SOL    HW1 1337   2.157   0.753   1.153  0.5939 -0.5826 -1.3946
  446SOL    HW2 1338   2.085   0.611   1.193 -0.0716  2.6955 -2.4149
  447SOL     OW 1339   0.254   0.825   3.082 -0.3916  0.1225 -0.4748
  447SOL    HW1 1340   0.283   0.884   0.050 -2.1765  1.0212  0.9245
  447SOL    HW2 1341   0.161   0.794   3.099  2.0661  0.5367 -0.6872
  448SOL     OW 1342   1.503   2.094   1.679 -0.0443  0.1853  0.2670
  448SOL    HW1 1343   1.490   2.186   1.645 -0.1599  0.9643  2.2859
  448SOL    HW2 1344   1.481   2.071   1.776 -1.3455 -0.9435  0.8663
  449SOL     OW 1345   1.189   1.484   0.804 -0.2929 -0.4340  0.3255
  449SOL    HW1 1346   1.279   1.436   0.809  0.9230 -2.0296  2.0845
  449SOL    HW2 1347   1.191   1.555   0.730 -0.7026 -0.7583 -3.5387
  450SOL     OW 1348   2.982   1.942   1.920  0.8924  0.4628  0.0635
  450SOL    HW1 1349   2.975   2.039   1.957 -0.3698 -0.7821 -1.5303
  450SOL    HW2 1350   2.948   1.884   1.999 -0.3943 -0.0558 -1.0571
  451SOL     OW 1351   2.682   1.445   2.710 -0.2803  0.1314 -0.1518
  451SOL    HW1 1352   2.615   1.455   2.631 -0.8715  3.3162  0.4918
  451SOL    HW2 1353   2.686   1.347   2.746 -2.9278 -2.4989  2.1322
  452SOL     OW 1354   1.595   0.705   1.373 -0.0684  0.0518 -0.2340
  452SOL    HW1 1355   1.543   0.740   1.450  2.6293 -0.0335 -1.9222
  452SOL    HW2 1356   1.688   0.747   1.367 -2.2459 -0.6489 -1.8276
  453SOL     OW 1357   1.978   1.081   1.348  0.1439 -0.3260  0.5593
  453SOL    HW1 1358   1.971   1.115   1.441  1.0138 -2.1070 -1.7203
  453SOL    HW2 1359   2.026   1.153   1.297 -1.0875 -0.6276  2.5329
  454SOL     OW 1360   2.809   0.933   0.267  0.6356  0.0001  0.0939
  454SOL    HW1 1361   2.912   0.923   0.293  4.1177 -0.0696  0.3257
  454SOL    HW2 1362   2.748   0.874   0.326 -0.3522 -0.4109 -1.5011
  455SOL     OW 1363   2.767   1.575   1.298  0.1885 -0.7240 -0.0766
  455SOL    HW1 1364   2.797   1.619   1.213 -1.2019 -2.2374  3.1218
  455SOL    HW2 1365   2.768   1.645   1.373  0.9543  1.3266 -0.5217
  456SOL     OW 1366   0.680   0.064   1.383 -0.4228 -0.0902  0.0639
  456SOL    HW1 1367   0.660   0.157   1.421  1.7262  1.6444 -2.8249
  456SOL    HW2 1368   0.723   0.000   1.450  0.1717 -0.7716  2.7629
  457SOL     OW 1369   1.626   3.096   1.143 -0.4420 -0.4614  0.3591
  457SOL    HW1 1370   1.536   3.096   1.096 -2.3982 -1.1414 -0.7703
  457SOL    HW2 1371   1.693   0.043   1.094 -1.0270 -1.5379  0.9746
  458SOL     OW 1372   2.617   0.547   0.578  0.1885  0.4130  0.0101
  458SOL    HW1 1373   2.639   0.451   0.600  0.1600  1.5356  1.8660
  458SOL    HW2 1374   2.543   0.582   0.636 -1.4816 -3.1192  0.6737
  459SOL     OW 1375   1.812   0.628   0.057 -0.1590 -0.3412  0.1271
  459SOL    HW1 1376   1.828   0.727   0.041  2.0223  1.6482 -1.8042
  459SOL    HW2 1377   1.896   0.570   0.070  0.6384 -1.5267 -3.6433
  460SOL     OW 1378   2.980   2.497   2.583  0.6551  0.1360  0.1618
  460SOL    HW1 1379   2.881   2.509   2.612 -0.5481  0.5339  0.0452
  460SOL    HW2 1380   3.019   2.586   2.548  0.7258  0.2232 -0.6099
  461SOL     OW 1381   0.779   1.825   0.020  0.9699  0.1089  0.1221
  461SOL    HW1 1382   0.721   1.911   0.041 -2.6450  3.2304  0.9703
  461SOL    HW2 1383   0.761   1.791   3.039  1.6486  2.5496  1.1537
  462SOL     OW 1384   2.163   2.479   0.680  0.0039  0.4671  0.0436
  462SOL    HW1 1385   2.256   2.442   0.692 -1.7016  0.2767  2.6787
  462SOL    HW2 1386   2.109   2.496   0.766  1.4243 -0.1237 -0.4533
  463SOL     OW 1387   3.102   0.554   0.539  0.0162  0.6354  0.0274
  463SOL    HW1 1388   0.089   0.578   0.558  0.1115  0.8535  0.3347
  463SOL    HW2 1389   3.037   0.613   0.592 -1.1885 -1.9493  2.0794
  464SOL     OW 1390   0.856   2.603   0.384 -0.0189  0.4352  0.0526
  464SOL    HW1 1391   0.759   2.563   0.385  0.5269 -0.1564  1.7677
  464SOL    HW2 1392   0.914   2.561   0.305  0.6601  0.3971 -0.4660
  465SOL     OW 1393   2.353   0.737   0.512  0.3939  0.3308  0.0215
  465SOL    HW1 1394   2.247   0.740   0.521 -2.8773  0.4463  1.0556
  465SOL    HW2 1395   2.389   0.820   0.471  0.5693 -0.5060 -0.6993
  466SOL     OW 1396   2.222   0.182   0.110  0.0969 -0.3406  0.0907
  466SOL    HW1 1397   2.226   0.221   0.203  1.6338 -2.3824  0.2144
  466SOL    HW2 1398   2.174   0.093   0.112  1.0849 -0.0544 -1.6364
  467SOL     OW 1399   1.120   0.504   2.070  1.0714  0.2548  0.3950
  467SOL    HW1 1400   1.145   0.486   1.971 -0.3653  0.6831 -1.8750
  467SOL    HW2 1401   1.101   0.603   2.088 -2.6460  0.1797 -1.1639
  468SOL     OW 1402   2.840   0.569   2.232 -0.4748  0.1752 -0.3844
  468SOL    HW1 1403   2.896   0.634   2.178  1.1168  0.3596  1.2194
  468SOL    HW2 1404   2.804   0.601   2.320  1.2239 -1.8396 -3.7189
  469SOL     OW 1405   0.799   2.669   2.350  0.1645 -0.1238  0.0852
  469SOL    HW1 1406   0.788   2.568   2.365  0.9701 -1.3789  0.5683
  469SOL    HW2 1407   0.711   2.710   2.315 -0.8044  0.8396 -3.5605
  470SOL     OW 1408   1.885   1.260   2.026  0.0911 -0.1391 -0.0440
  470SOL    HW1 1409   1.932   1.304   1.950 -1.4112  0.6846  0.0551
  470SOL    HW2 1410   1.789   1.266   2.013  1.9566  2.6364 -3.5633
  471SOL     OW 1411   2.642   1.099   0.135 -0.0984  0.0746  0.5149
  471SOL    HW1 1412   2.600   1.043   0.061  1.0487 -0.5439  1.6182
  471SOL    HW2 1413   2.713   1.044   0.173 -2.7006  2.0692 -4.2608
  472SOL     OW 1414   0.407   2.789   0.454  0.7586  0.2009 -0.2701
  472SOL    HW1 1415   0.383   2.692   0.438  0.9083 -0.4984 -2.4658
  472SOL    HW2 1416   0.486   2.791   0.518 -0.2073  0.4568 -0.9083
  473SOL     OW 1417   0.866   2.831   2.566 -0.0055 -0.1287 -0.4400
  473SOL    HW1 1418   0.841   2.768   2.492 -0.7390  1.8243 -1.4838
  473SOL    HW2 1419   0.860   2.795   2.664 -1.2916 -0.4661 -0.9952
  474SOL     OW 1420   1.772   0.067   2.053  0.2257 -0.5440  0.4584
  474SOL    HW1 1421   1.748   0.007   1.971  0.7229 -1.0226 -0.8114
  474SOL    HW2 1422   1.792   0.007   2.137  1.7481  2.1106  2.4573
  475SOL     OW 1423   0.900   2.527   3.100  0.0181 -0.0529 -0.3365
  475SOL    HW1 1424   0.955   2.597   0.034 -2.5448 -2.7378 -0.9125
  475SOL    HW2 1425   0.911   2.442   0.045 -1.4249  0.4666 -1.9694
  476SOL     OW 1426   0.858   0.759   0.998  0.3041 -0.2764  0.1884
  476SOL    HW1 1427   0.835   0.826   0.927  1.2841 -0.8500  1.1282
  476SOL    HW2 1428   0.782   0.695   1.003 -0.5655  0.2060  1.1337
  477SOL     OW 1429   1.640   2.127   1.172  0.2987 -0.3733  0.0029
  477SOL    HW1 1430   1.569   2.188   1.215 -1.4855  0.5487  2.4819
  477SOL    HW2 1431   1.596   2.059   1.113  0.6813  2.6602  0.1498
  478SOL     OW 1432   0.581   0.961   2.349  0.0018  0.7287  0.3325
  478SOL    HW1 1433   0.496   0.997   2.309 -3.9072 -1.3433 -0.6945
  478SOL    HW2 1434   0.636   0.911   2.281 -0.0255 -1.5524  1.1021
  479SOL     OW 1435   0.434   3.051   0.660  0.2578  0.1944  0.3039
  479SOL    HW1 1436   0.434   3.038   0.760  1.2218 -0.5540 -0.4081
  479SOL    HW2 1437   0.343   3.047   0.624  0.8075  0.3425 -0.1576
  480SOL     OW 1438   2.447   2.543   2.946 -0.0012 -0.5299 -0.0308
  480SOL    HW1 1439   2.406   2.452   2.945 -0.6938  2.3046  1.2804
  480SOL    HW2 1440   2.539   2.544   2.900  3.2551 -0.1614 -0.0415
  481SOL     OW 1441   2.576   0.756   1.129 -0.6115  0.4973  0.5396
  481SOL    HW1 1442   2.504   0.832   1.123  0.5295  4.8672 -1.4619
  481SOL    HW2 1443   2.543   0.666   1.169  0.5850  0.1210 -0.1500
  482SOL     OW 1444   1.392   2.526   1.748 -0.0986 -0.0956  0.3512
  482SOL    HW1 1445   1.429   2.446   1.691 -2.9138  0.2821 -0.6712
  482SOL    HW2 1446   1.405   2.517   1.850  1.4408  1.7755  0.2689
  483SOL     OW 1447   0.301   1.468   2.886 -0.8599  0.0290  0.2353
  483SOL    HW1 1448   0.387   1.519   2.915 -0.0613  0.1970  0.5381
  483SOL    HW2 1449   0.288   1.389   2.953 -0.2670  2.5643 -1.6292
  484SOL     OW 1450   1.534   2.012   2.302 -0.5089  0.3613 -0.8333
  484SOL    HW1 1451   1.456   1.979   2.254  0.8262 -0.2242 -0.5593
  484SOL    HW2 1452   1.570   2.101   2.265 -0.3851  2.4408 -2.0785
  485SOL     OW 1453   0.174   0.184   2.354  0.2022 -0.2274 -0.1605
  485SOL    HW1 1454   0.131   0.234   2.276  0.4217 -0.3237 -1.0982
  485SOL    HW2 1455   0.120   0.100   2.393 -0.8648 -2.0406  0.3708
  486SOL     OW 1456   1.258   0.271   0.486 -0.0394  0.3918 -0.4939
  486SOL    HW1 1457   1.310   0.302   0.401  0.1899 -1.4077  1.0461
  486SOL    HW2 1458   1.271   0.337   0.560  1.7590 -1.8871 -0.5115
  487SOL     OW 1459   1.289   2.746   0.888 -0.1057 -0.2337  0.1777
  487SOL    HW1 1460   1.309   2.714   0.797  1.7654  3.8580  0.8344
  487SOL    HW2 1461   1.245   2.836   0.876  0.5128 -3.3125 -2.5793
  488SOL     OW 1462   1.959   0.717   0.727 -0.1735  0.2386 -0.1000
  488SOL    HW1 1463   1.963   0.785   0.804 -0.2069 -0.6872  0.7539
  488SOL    HW2 1464   2.021   0.748   0.654  2.1408 -1.7075 -0.6859
  489SOL     OW 1465   1.307   2.812   1.322  0.0744  0.3457  0.7259
  489SOL    HW1 1466   1.368   2.784   1.398  1.0827  1.1513 -1.7672
  489SOL    HW2 1467   1.221   2.761   1.338 -0.2531  2.3273  1.3064
  490SOL     OW 1468   0.782   0.685   0.383 -0.1747  0.9636 -0.1380
  490SOL    HW1 1469   0.728   0.767   0.400 -0.3890  2.0007 -0.7757
  490SOL    HW2 1470   0.741   0.604   0.429  2.1857 -1.5405 -1.5426
  491SOL     OW 1471   1.249   2.815   3.001  0.0323  0.2295 -0.9770
  491SOL    HW1 1472   1.202   2.780   3.085 -2.0834  1.6234  1.0619
  491SOL    HW2 1473   1.185   2.876   2.948 -1.8808  1.5394 -1.6333
  492SOL     OW 1474   1.261   1.407   2.081  0.0836  0.3787  0.8906
  492SOL    HW1 1475   1.321   1.454   2.145 -2.2471  0.0025  0.9429
  492SOL    HW2 1476   1.185   1.369   2.137  0.7804  2.6276  1.9245
  493SOL     OW 1477   3.073   1.793   0.156  0.0157  0.1590 -0.3148
  493SOL    HW1 1478   3.057   1.838   0.065  1.2955 -1.0576 -1.0247
  493SOL    HW2 1479   3.105   1.695   0.148 -1.7902 -1.2021  1.3628
  494SOL     OW 1480   2.133   1.718   0.439  0.1526  0.3469  0.4244
  494SOL    HW1 1481   2.070   1.735   0.518  1.6968 -2.4578 -0.3545
  494SOL    HW2 1482   2.106   1.639   0.382 -1.9762 -0.4182  0.6527
  495SOL     OW 1483   0.069   0.960   2.639  0.2610  0.5774 -0.0506
  495SOL    HW1 1484   0.063   0.952   2.535  1.6996 -1.5669 -0.7881
  495SOL    HW2 1485   0.166   0.991   2.666  2.1749  1.9416  0.1859
  496SOL     OW 1486   2.989   3.054   2.256  0.0176  0.4015  0.2647
  496SOL    HW1 1487   3.080   3.056   2.211  1.8809  0.9643  0.7740
  496SOL    HW2 1488   2.927   2.981   2.215 -1.7502 -0.8291 -0.6093
  497SOL     OW 1489   2.633   0.903   0.669  0.3256  0.0154  0.6928
  497SOL    HW1 1490   2.670   0.853   0.589 -1.9471  1.3771 -1.3628
  497SOL    HW2 1491   2.655   0.858   0.758  0.9268  0.3001 -2.2389
  498SOL     OW 1492   3.005   2.508   0.027  0.2472 -0.1041 -0.0557
  498SOL    HW1 1493   2.965   2.567   0.103  1.1773  2.5832  0.6746
  498SOL    HW2 1494   3.071   2.569   3.089 -0.5395 -2.2097  1.9052
  499SOL     OW 1495   1.562   2.699   0.905 -0.1590  0.0036 -0.1107
  499SOL    HW1 1496   1.465   2.700   0.920  2.9092  0.8932 -1.3843
  499SOL    HW2 1497   1.604   2.647   0.983 -0.7883  2.3111  0.6364
  500SOL     OW 1498   1.086   0.597   2.564 -0.1403  0.1596  0.0908
  500SOL    HW1 1499   1.043   0.545   2.644 -0.0569  2.5636  0.8714
  500SOL    HW2 1500   1.178   0.631   2.597  0.7440 -0.0109  1.4725
  501SOL     OW 1501   0.936   0.176   1.246 -0.0019 -0.1622  0.2064
  501SOL    HW1 1502   1.003   0.100   1.249 -3.6661 -0.0924 -1.4841
  501SOL    HW2 1503   0.847   0.156   1.295 -3.0991  0.4169  0.3215
  502SOL     OW 1504   0.026   0.076   2.012 -0.2412 -0.2942 -0.4163
  502SOL    HW1 1505   0.123   0.059   1.977  1.4655 -0.1337 -0.7462
  502SOL    HW2 1506   0.033   0.161   2.074  3.0788  3.5430  0.0967
  503SOL     OW 1507   1.567   2.418   2.267 -0.3091  0.1141 -0.3706
  503SOL    HW1 1508   1.625   2.496   2.300 -0.9636  0.0935 -1.0834
  503SOL    HW2 1509   1.620   2.332   2.269 -0.9605  0.3140  0.1154
  504SOL     OW 1510   2.149   2.976   1.642 -0.2457 -0.2157  0.2615
  504SOL    HW1 1511   2.207   3.060   1.645  0.6544 -2.0009 -0.7276
  504SOL    HW2 1512   2.055   2.987   1.682  1.0940  1.8771 -1.5372
  505SOL     OW 1513   2.301   0.972   1.632 -0.4548  0.9664  0.1824
  505SOL    HW1 1514   2.402   0.959   1.620 -1.9453  0.2548 -1.0629
  505SOL    HW2 1515   2.259   0.900   1.574 -2.8431 -0.6477 -1.5018
  506SOL     OW 1516   0.324   1.447   2.148 -0.0919  0.5355  0.0400
  506SOL    HW1 1517   0.286   1.358   2.172  0.5358 -1.7252  1.0292
  506SOL    HW2 1518   0.409   1.453   2.099 -1.6981  2.7645  1.6815
  507SOL     OW 1519   0.038   2.963   1.461 -0.0753  0.1963  0.0105
  507SOL    HW1 1520   0.072   2.974   1.558 -0.8439 -1.7825  1.3809
  507SOL    HW2 1521   3.079   2.887   1.450 -0.4772  2.6205  1.7043
  508SOL     OW 1522   1.340   0.558   1.597 -0.3249 -0.6602  0.0514
  508SOL    HW1 1523   1.327   0.648   1.554  1.6394 -0.5922  1.9825
  508SOL    HW2 1524   1.326   0.487   1.523 -1.4979  2.4237  0.1930
  509SOL     OW 1525   1.179   2.213   1.379 -0.5530  0.5522  0.8990
  509SOL    HW1 1526   1.142   2.299   1.333 -1.8228  0.6987 -0.6153
  509SOL    HW2 1527   1.152   2.210   1.478 -0.0770 -1.6206 -0.0830
  510SOL     OW 1528   2.749   1.565   3.036  0.0167  0.0298  0.5105
  510SOL    HW1 1529   2.657   1.535   3.003 -2.5001  0.3714  3.7107
  510SOL    HW2 1530   2.770   1.516   0.012 -2.2949 -1.1534 -1.6662
  511SOL     OW 1531   0.797   1.387   1.299  0.6610 -0.2214 -0.2124
  511SOL    HW1 1532   0.755   1.296   1.286  1.8493 -0.8943 -1.0262
  511SOL    HW2 1533   0.791   1.444   1.214 -1.6292 -1.7627 -0.8581
  512SOL     OW 1534   3.036   2.309   0.434  0.2264 -0.2500  1.0193
  512SOL    HW1 1535   3.082   2.225   0.394  3.1187 -0.6120 -0.4475
  512SOL    HW2 1536   2.934   2.296   0.444 -0.1241 -0.2246  1.4018
  513SOL     OW 1537   0.586   1.600   2.628 -0.0137  0.0903 -0.2261
  513SOL    HW1 1538   0.616   1.654   2.544  2.6855  0.4197 -2.0644
  513SOL    HW2 1539   0.620   1.644   2.715 -0.5264  1.5035  3.2045
  514SOL     OW 1540   0.043   2.407   2.826  0.7137 -0.4765  0.1386
  514SOL    HW1 1541   0.082   2.477   2.886 -0.4166  0.1613 -0.2788
  514SOL    HW2 1542   0.026   2.452   2.738  1.2502 -2.0439  3.1392
  515SOL     OW 1543   1.391   1.081   1.920  0.1777 -1.2167 -0.3570
  515SOL    HW1 1544   1.415   0.989   1.875  1.1790 -0.6883 -3.4084
  515SOL    HW2 1545   1.291   1.081   1.931 -0.9887  1.2159  1.9777
  516SOL     OW 1546   2.004   2.328   0.515 -0.4215  0.5205 -0.2142
  516SOL    HW1 1547   2.064   2.273   0.452 -2.8725  1.4931 -0.3414
  516SOL    HW2 1548   2.069   2.380   0.581  2.5792 -0.1128  0.8660
  517SOL     OW 1549   1.230   1.664   0.603 -0.6325 -0.5004 -0.3843
  517SOL    HW1 1550   1.291   1.595   0.564  0.5804 -2.5122  2.0832
  517SOL    HW2 1551   1.251   1.755   0.559  0.0697 -1.9042  1.1297
  518SOL     OW 1552   2.169   2.466   2.226 -0.4438 -0.0660  0.1735
  518SOL    HW1 1553   2.141   2.484   2.325 -2.0554 -0.1278  1.7265
  518SOL    HW2 1554   2.091   2.420   2.180  2.2439  0.9974  0.5444
  519SOL     OW 1555   1.657   2.284   0.889  0.5590  0.2572 -0.7021
  519SOL    HW1 1556   1.751   2.284   0.932  0.3291 -3.6289 -0.3243
  519SOL    HW2 1557   1.633   2.193   0.854 -0.4304  2.2094 -0.7731
  520SOL     OW 1558   2.684   2.477   2.564 -0.1499  0.7195 -0.3459
  520SOL    HW1 1559   2.705   2.476   2.468  0.6979  1.8477 -0.9991
  520SOL    HW2 1560   2.588   2.445   2.573 -0.8950  0.5229  2.1753
  521SOL     OW 1561   3.024   1.075   2.075 -0.4462 -0.3313 -0.5616
  521SOL    HW1 1562   2.925   1.092   2.093  2.7888 -1.5980 -0.3089
  521SOL    HW2 1563   3.035   1.082   1.973  0.4276  0.1082  0.7997
  522SOL     OW 1564   0.457   0.471   2.118  0.2469  0.0470 -0.3173
  522SOL    HW1 1565   0.416   0.519   2.036 -2.5195  3.5186  1.5315
  522SOL    HW2 1566   0.522   0.530   2.175 -0.3618  1.1497  1.3159
  523SOL     OW 1567   0.669   1.995   0.980  0.0595  0.1234  0.4163
  523SOL    HW1 1568   0.671   1.999   1.078  0.4690  0.6990 -1.2681
  523SOL    HW2 1569   0.578   2.026   0.943 -0.2693 -1.2314 -0.3977
  524SOL     OW 1570   1.700   2.668   0.462 -0.9408 -0.2085 -0.3690
  524SOL    HW1 1571   1.786   2.718   0.446 -3.8084  0.2659  1.6855
  524SOL    HW2 1572   1.717   2.578   0.504  1.7764  1.3916 -0.9114
  525SOL     OW 1573   2.273   0.781   1.472 -0.3041 -0.1177 -0.6273
  525SOL    HW1 1574   2.237   0.770   1.378 -0.7157 -1.6488 -1.9125
  525SOL    HW2 1575   2.337   0.706   1.502  0.4634 -1.4316  1.3069
  526SOL     OW 1576   1.061   2.557   0.545  0.1213  0.0481 -0.3038
  526SOL    HW1 1577   1.133   2.608   0.489  2.2191  0.8468  1.0228
  526SOL    HW2 1578   0.967   2.567   0.501  0.4411 -0.2861 -0.4561
  527SOL     OW 1579   2.695   2.515   0.642 -0.1876 -0.0135  0.3240
  527SOL    HW1 1580   2.672   2.578   0.563 -0.7218  2.0474 -0.6823
  527SOL    HW2 1581   2.733   2.426   0.603  1.3211 -2.1009 -1.4208
  528SOL     OW 1582   2.041   0.409   0.091  0.8375  0.3923 -0.2009
  528SOL    HW1 1583   2.086   0.461   0.169  1.4086 -0.3166  1.1549
  528SOL    HW2 1584   2.099   0.340   0.051  0.6784 -0.4042  0.8308
  529SOL     OW 1585   1.709   1.630   2.588  0.1364 -0.1826 -0.3345
  529SOL    HW1 1586   1.683   1.657   2.684  1.9247 -3.1086 -0.1652
  529SOL    HW2 1587   1.702   1.709   2.519  1.9283  0.9352 -2.9223
  530SOL     OW 1588   2.229   0.551   0.249  0.2901 -0.1008  0.0956
  530SOL    HW1 1589   2.216   0.650   0.272 -0.2791  2.6380 -0.2781
  530SOL    HW2 1590   2.317   0.516   0.286  1.4680 -1.2986  1.4587
  531SOL     OW 1591   1.517   0.823   2.860  0.0041  0.3706 -0.5492
  531SOL    HW1 1592   1.545   0.750   2.801  0.1417 -1.1380 -0.0792
  531SOL    HW2 1593   1.532   0.915   2.813 -1.1057  2.1901 -1.5813
  532SOL     OW 1594   1.730   0.598   0.369 -0.1510  0.3815  0.3305
  532SOL    HW1 1595   1.787   0.675   0.342 -0.9133 -3.7059  0.2981
  532SOL    HW2 1596   1.672   0.582   0.291 -1.0227 -2.4089  0.3193
  533SOL     OW 1597   0.707   0.866   2.127 -0.2187 -0.4701  0.1447
  533SOL    HW1 1598   0.647   0.933   2.077  0.2039  1.5970 -1.2078
  533SOL    HW2 1599   0.773   0.823   2.063  0.5404  0.0364 -0.8303
  534SOL     OW 1600   1.418   0.199   2.459  0.1770  0.2290 -0.3449
  534SOL    HW1 1601   1.331   0.251   2.471  0.4473  0.7102  0.0518
  534SOL    HW2 1602   1.493   0.235   2.518  1.2283 -0.8208  0.0396
  535SOL     OW 1603   0.162   0.103   0.274 -0.2447  0.2430 -0.3076
  535SOL    HW1 1604   0.093   0.038   0.242 -0.7786  0.1541  1.1396
  535SOL    HW2 1605   0.167   0.181   0.208  0.4927  2.0262  2.3058
  536SOL     OW 1606   0.608   0.156   0.883  0.1103  0.5286  0.3188
  536SOL    HW1 1607   0.637   0.201   0.797 -0.2887 -0.5234 -1.0531
  536SOL    HW2 1608   0.658   0.191   0.962  2.5904  1.3642 -1.4294
  537SOL     OW 1609   1.534   0.841   0.603 -0.2459 -0.3432 -0.0937
  537SOL    HW1 1610   1.598   0.760   0.607 -1.5391 -1.0741  0.6333
  537SOL    HW2 1611   1.441   0.817   0.563 -1.1163  0.9779 -1.7452
  538SOL     OW 1612   2.940   2.176   3.032 -0.0166 -0.0505  0.3432
  538SOL    HW1 1613   2.952   2.194   2.931  3.9353 -2.6245 -0.3445
  538SOL    HW2 1614   2.842   2.183   3.056 -1.9028 -0.0412 -0.5828
  539SOL     OW 1615   1.964   1.737   0.134  0.4708 -0.4175 -0.5493
  539SOL    HW1 1616   1.963   1.824   0.180  0.9801  0.8974 -0.1631
  539SOL    HW2 1617   2.038   1.676   0.162 -1.9925  1.3008 -1.5736
  540SOL     OW 1618   0.255   2.626   1.237 -0.2436 -0.3589  0.1946
  540SOL    HW1 1619   0.225   2.538   1.280 -1.1592 -0.0640  0.9839
  540SOL    HW2 1620   0.357   2.622   1.212 -0.3966 -2.1129 -0.4191
  541SOL     OW 1621   1.943   3.030   2.218  0.2117 -0.6401  0.2185
  541SOL    HW1 1622   1.967   3.006   2.314  0.8796  1.6300 -1.9946
  541SOL    HW2 1623   2.026   3.028   2.167  1.3785  4.1126 -0.4138
  542SOL     OW 1624   0.130   0.665   2.696 -0.0099 -0.0008  0.1757
  542SOL    HW1 1625   0.081   0.642   2.782  1.1179  1.4642 -2.2764
  542SOL    HW2 1626   0.114   0.755   2.652 -0.1849 -1.7810 -0.7923
  543SOL     OW 1627   3.098   1.124   1.300  0.0597  0.1088  0.6552
  543SOL    HW1 1628   2.993   1.120   1.302  1.7900  1.4005 -0.3598
  543SOL    HW2 1629   0.010   1.152   1.204 -2.7920 -0.2959 -2.4306
  544SOL     OW 1630   2.471   0.344   1.037  0.1308 -0.3116 -0.0126
  544SOL    HW1 1631   2.392   0.370   0.979 -1.9692  0.3684 -0.3215
  544SOL    HW2 1632   2.528   0.275   0.987 -2.3743  1.4653  0.2255
  545SOL     OW 1633   1.530   2.168   0.502 -0.0094 -0.5544 -0.4640
  545SOL    HW1 1634   1.437   2.193   0.469 -3.1793  0.5576  0.1141
  545SOL    HW2 1635   1.532   2.130   0.596 -1.7730 -0.0354  2.1680
  546SOL     OW 1636   2.098   2.736   1.779  0.0315  0.3478 -0.0386
  546SOL    HW1 1637   2.148   2.646   1.772 -2.0121  1.2842 -2.8729
  546SOL    HW2 1638   2.114   2.795   1.700  0.2934 -2.7186  1.3832
  547SOL     OW 1639   0.183   2.877   2.138  0.3206 -0.0872 -0.4878
  547SOL    HW1 1640   0.276   2.910   2.116 -0.6829  2.1401 -0.9669
  547SOL    HW2 1641   0.138   2.830   2.062 -1.5351  0.5634  2.1640
  548SOL     OW 1642   1.857   1.245   3.073  0.3621  0.4588  0.1230
  548SOL    HW1 1643   1.792   1.186   3.022  0.1795  1.0707 -1.7023
  548SOL    HW2 1644   1.952   1.228   3.037 -0.8654  0.3238  0.5732
  549SOL     OW 1645   2.970   1.143   0.599  0.0961  0.2555  0.2008
  549SOL    HW1 1646   2.964   1.239   0.572  1.4043  1.9375 -0.2430
  549SOL    HW2 1647   2.962   1.081   0.517 -1.6714 -0.3600 -2.6427
  550SOL     OW 1648   1.857   1.981   0.755  0.7261  0.2156  0.5976
  550SOL    HW1 1649   1.896   2.053   0.697  1.1454 -2.2591 -0.8207
  550SOL    HW2 1650   1.888   1.988   0.848  0.3393 -0.4202  1.0972
  551SOL     OW 1651   1.299   0.481   0.660 -0.1833  0.1259 -0.2665
  551SOL    HW1 1652   1.395   0.464   0.698  1.8910 -1.2624 -2.2522
  551SOL    HW2 1653   1.238   0.513   0.738 -2.7959  3.4138 -0.9707
  552SOL     OW 1654   3.058   2.698   2.388  0.1564 -0.0452  0.0194
  552SOL    HW1 1655   0.022   2.767   2.403  1.7659 -0.5508  0.5883
  552SOL    HW2 1656   3.058   2.667   2.291 -0.9271 -1.7296  1.6063
  553SOL     OW 1657   0.025   3.062   2.496  0.3646  0.1611  0.0451
  553SOL    HW1 1658   3.069   3.056   2.417 -0.4463  0.5562 -0.0952
  553SOL    HW2 1659   0.078   2.976   2.488 -1.4242  0.9272  1.3532
  554SOL     OW 1660   0.758   2.950   1.537  0.2808 -0.3129 -0.2397
  554SOL    HW1 1661   0.660   2.928   1.548  2.5177 -1.0798  0.4788
  554SOL    HW2 1662   0.795   2.908   1.451  1.3894 -0.9968  0.6048
  555SOL     OW 1663   2.658   2.693   2.287 -0.3213 -0.3725  0.2185
  555SOL    HW1 1664   2.689   2.762   2.215  1.1964  4.2084 -3.2133
  555SOL    HW2 1665   2.631   2.611   2.234  0.1895  2.3004  1.5423
  556SOL     OW 1666   1.383   0.332   2.741 -0.4128  0.7584 -0.0961
  556SOL    HW1 1667   1.356   0.409   2.800  1.2505  1.2055  1.5756
  556SOL    HW2 1668   1.307   0.275   2.715  0.6442  3.4958  0.9662
  557SOL     OW 1669   0.387   1.684   2.302  0.0444 -1.3442 -0.5497
  557SOL    HW1 1670   0.314   1.712   2.373 -0.0983  1.0683  0.8999
  557SOL    HW2 1671   0.348   1.612   2.239 -1.3689 -1.1807  0.3250
  558SOL     OW 1672   2.382   0.959   2.593  0.1488 -0.0300 -0.1688
  558SOL    HW1 1673   2.434   1.046   2.576  0.4395 -1.5016  0.4777
  558SOL    HW2 1674   2.298   0.950   2.542 -0.8221  1.3495  1.1125
  559SOL     OW 1675   2.484   1.982   2.090 -0.1919 -0.0548 -0.0409
  559SOL    HW1 1676   2.450   2.016   2.003  0.3281  1.1159 -0.6663
  559SOL    HW2 1677   2.529   2.063   2.136 -0.4296  0.3797  0.3830
  560SOL     OW 1678   2.643   0.820   2.187  0.2505 -0.1069  0.3608
  560SOL    HW1 1679   2.546   0.831   2.217  1.7504  1.4356 -0.3942
  560SOL    HW2 1680   2.652   0.815   2.088  0.1323 -0.8107  1.0976
  561SOL     OW 1681   0.245   0.342   2.938 -0.6812  0.3934 -0.7779
  561SOL    HW1 1682   0.237   0.307   2.843  0.7658  0.2411 -0.3195
  561SOL    HW2 1683   0.287   0.430   2.932 -0.0940  0.9265  0.3881
  562SOL     OW 1684   1.060   1.086   1.475 -0.6503 -0.1038 -0.1112
  562SOL    HW1 1685   1.105   0.999   1.445  1.7666  1.1330 -0.2793
  562SOL    HW2 1686   0.970   1.061   1.510 -0.2755  2.3711 -0.2761
  563SOL     OW 1687   1.583   3.083   2.780  0.2097 -0.2316  0.3804
  563SOL    HW1 1688   1.525   3.043   2.704  1.2484 -2.2499  0.9848
  563SOL    HW2 1689   1.530   3.086   2.863 -1.2486  0.3249  0.4327
  564SOL     OW 1690   0.124   2.220   1.180  0.0585 -0.2157  0.1260
  564SOL    HW1 1691   0.222   2.221   1.202  0.5320  0.8683  1.1031
  564SOL    HW2 1692   0.088   2.127   1.192 -1.0088  0.6370  2.5262
  565SOL     OW 1693   0.666   2.289   1.963 -0.3949 -0.0732  0.0768
  565SOL    HW1 1694   0.715   2.367   1.915  2.9837  3.6269 -1.6982
  565SOL    HW2 1695   0.702   2.204   1.916  2.2906  3.7918  0.8079
  566SOL     OW 1696   1.240   2.682   2.107  0.4031 -0.4718  0.0492
  566SOL    HW1 1697   1.172   2.696   2.186  0.7896  0.6493  1.1519
  566SOL    HW2 1698   1.331   2.689   2.145  0.3720 -2.9643  0.2456
  567SOL     OW 1699   1.895   2.334   1.021 -0.5179  0.2456  0.3912
  567SOL    HW1 1700   1.898   2.383   1.114  0.3805  2.3418 -0.3983
  567SOL    HW2 1701   1.922   2.400   0.947  1.1722 -2.6165  0.3975
  568SOL     OW 1702   2.083   0.820   0.503 -0.2516  0.5093 -0.1223
  568SOL    HW1 1703   2.123   0.909   0.467  1.7446 -0.8464 -1.5633
  568SOL    HW2 1704   1.990   0.808   0.464 -2.9730  3.7344 -2.2994
  569SOL     OW 1705   2.929   1.782   2.689  0.3914  0.0382 -0.2385
  569SOL    HW1 1706   3.024   1.819   2.678  1.1881 -0.2471  0.1094
  569SOL    HW2 1707   2.928   1.693   2.639  1.0082  0.8340 -1.1591
  570SOL     OW 1708   2.902   3.104   1.126 -0.0125  0.2277 -0.3567
  570SOL    HW1 1709   2.992   0.024   1.158 -1.9028 -2.0937  1.3971
  570SOL    HW2 1710   2.824   0.053   1.158 -3.0358  0.6133 -0.0548
  571SOL     OW 1711   3.057   0.368   1.522  0.0931 -0.3337 -0.1898
  571SOL    HW1 1712   0.015   0.425   1.581 -1.5271  0.7872 -0.6297
  571SOL    HW2 1713   3.055   0.270   1.556 -2.5962 -2.3925  1.7450
  572SOL     OW 1714   2.807   2.599   0.862  0.7618 -0.4691 -0.5729
  572SOL    HW1 1715   2.758   2.535   0.794 -4.2171  0.8482  0.2096
  572SOL    HW2 1716   2.882   2.549   0.912  1.2799 -2.0547  3.0932
  573SOL     OW 1717   0.844   0.757   3.050 -0.4950  0.2591  0.1684
  573SOL    HW1 1718   0.783   0.832   3.081  1.2118  2.3331 -0.1441
  573SOL    HW2 1719   0.842   0.672   3.101 -0.0582  1.3666 -3.2358
  574SOL     OW 1720   2.899   2.788   0.094  0.2117  0.0169  0.2267
  574SOL    HW1 1721   2.800   2.773   0.083  0.8027 -0.8645  0.6388
  574SOL    HW2 1722   2.942   2.852   0.024  0.8111  0.5874 -2.0356
  575SOL     OW 1723   1.440   2.290   1.337 -1.0874 -0.0994 -0.2809
  575SOL    HW1 1724   1.344   2.255   1.343  0.8922  1.2242 -0.6596
  575SOL    HW2 1725   1.458   2.335   1.245  0.5572  0.8835 -0.6102
  576SOL     OW 1726   0.773   2.556   1.191 -0.0978  0.3577  0.6185
  576SOL    HW1 1727   0.770   2.518   1.286 -0.5873  0.8600  4.0690
  576SOL    HW2 1728   0.769   2.658   1.189 -1.3534 -2.0995 -0.1091
  577SOL     OW 1729   2.493   1.659   1.321 -0.3636 -0.4893 -0.3146
  577SOL    HW1 1730   2.589   1.627   1.305  1.2592 -1.5208 -1.8528
  577SOL    HW2 1731   2.456   1.641   1.413  1.4773  0.7795 -0.1541
  578SOL     OW 1732   1.428   0.347   0.288 -0.0554 -0.2127 -0.4098
  578SOL    HW1 1733   1.487   0.421   0.252 -1.1965 -2.8077 -0.4951
  578SOL    HW2 1734   1.399   0.286   0.211  1.6456 -0.2190 -0.6623
  579SOL     OW 1735   2.304   1.001   2.854 -0.4289  0.1296 -0.1240
  579SOL    HW1 1736   2.387   1.004   2.910 -1.3729  0.7460 -1.2413
  579SOL    HW2 1737   2.322   0.977   2.757  0.9073 -0.9703  1.7355
  580SOL     OW 1738   1.878   0.519   2.060  0.0184 -0.0861 -0.0832
  580SOL    HW1 1739   1.798   0.458   2.074  0.7766  1.5622  0.4447
  580SOL    HW2 1740   1.904   0.559   2.152 -0.7178  2.1044 -0.0204
  581SOL     OW 1741   0.683   1.142   1.248 -0.0466 -0.1386 -0.2874
  581SOL    HW1 1742   0.618   1.173   1.179  0.0245 -2.7269  2.2765
  581SOL    HW2 1743   0.746   1.063   1.226  0.0748  2.0339 -1.7478
  582SOL     OW 1744   2.628   0.052   2.084  0.0175 -0.0862  0.1229
  582SOL    HW1 1745   2.579   0.080   2.168  4.0023 -0.4024 -1.9552
  582SOL    HW2 1746   2.564   0.058   2.003 -1.6863  0.4526 -0.3273
  583SOL     OW 1747   2.906   0.246   1.774  0.1918  0.1744 -0.3968
  583SOL    HW1 1748   2.893   0.175   1.852 -0.7549  0.4281  1.0618
  583SOL    HW2 1749   2.839   0.325   1.789  1.0448 -1.2163 -0.4379
  584SOL     OW 1750   1.337   1.898   2.796  0.0044  0.3852  0.4414
  584SOL    HW1 1751   1.397   1.953   2.854  2.5011 -1.3529  0.6692
  584SOL    HW2 1752   1.371   1.897   2.698  0.0520 -0.1099  1.2468
  585SOL     OW 1753   0.167   3.071   2.962  0.3502 -0.3939  0.1970
  585SOL    HW1 1754   0.259   3.104   2.952 -2.8182 -1.3248  1.1011
  585SOL    HW2 1755   0.126   3.069   2.868 -0.1958  0.7961 -1.4133
  586SOL     OW 1756   1.981   1.685   2.610 -0.5258 -0.4059 -0.2458
  586SOL    HW1 1757   1.902   1.655   2.657  0.5502  1.0317  0.5875
  586SOL    HW2 1758   1.998   1.630   2.529 -1.9084  1.7885  0.7272
  587SOL     OW 1759   2.506   2.336   0.297 -0.5000 -0.1587 -0.2039
  587SOL    HW1 1760   2.435   2.399   0.322  2.1975 -1.5912  2.9146
  587SOL    HW2 1761   2.472   2.249   0.254  0.3723  1.0119 -0.1411
  588SOL     OW 1762   2.579   0.114   0.920 -0.0254 -0.0082 -0.4785
  588SOL    HW1 1763   2.478   0.102   0.911  0.1449 -0.3929 -2.0857
  588SOL    HW2 1764   2.626   0.099   0.830 -0.2202  2.2072  1.3499
  589SOL     OW 1765   0.644   0.627   0.749  0.4462  0.2494 -0.1456
  589SOL    HW1 1766   0.718   0.577   0.702 -0.1854 -5.3604  3.3115
  589SOL    HW2 1767   0.566   0.671   0.695 -0.1302 -1.1066  1.8472
  590SOL     OW 1768   2.138   2.141   0.404  0.0846 -0.3141 -0.1653
  590SOL    HW1 1769   2.216   2.108   0.458  1.3934 -1.6750 -3.2109
  590SOL    HW2 1770   2.165   2.179   0.313 -0.7560  0.4087  1.1426
  591SOL     OW 1771   0.605   2.309   1.112 -0.0758  0.3898  0.0071
  591SOL    HW1 1772   0.700   2.300   1.075  3.4090  0.8752  0.3619
  591SOL    HW2 1773   0.578   2.407   1.130  1.6026  1.3804 -0.0927
  592SOL     OW 1774   0.937   0.635   1.440 -0.0997  0.0091  0.4194
  592SOL    HW1 1775   0.969   0.538   1.424  0.1890  1.0594 -0.2614
  592SOL    HW2 1776   0.837   0.645   1.427  1.0911 -0.3242 -2.5109
  593SOL     OW 1777   1.083   1.293   1.284  0.4995 -0.3208  0.0490
  593SOL    HW1 1778   1.088   1.204   1.330  0.8685 -0.3665 -0.0449
  593SOL    HW2 1779   1.004   1.353   1.308 -2.2005  0.9959  0.6444
  594SOL     OW 1780   1.025   2.386   0.285 -0.2428  0.0952  0.3048
  594SOL    HW1 1781   0.965   2.350   0.211 -1.1474  0.5447  1.0600
  594SOL    HW2 1782   1.031   2.322   0.363  1.5320  3.2856 -0.9808
  595SOL     OW 1783   1.660   0.393   1.460 -1.0407 -0.1229  0.0561
  595SOL    HW1 1784   1.641   0.492   1.473  2.2093  0.0716 -0.3356
  595SOL    HW2 1785   1.686   0.345   1.545  0.9013  0.7405  0.6321
  596SOL     OW 1786   2.825   1.113   1.308  0.4941 -0.3161 -0.0489
  596SOL    HW1 1787   2.827   1.040   1.235 -1.1429  0.9034 -1.7804
  596SOL    HW2 1788   2.754   1.180   1.280  3.4270 -0.6187 -0.1252
  597SOL     OW 1789   0.323   2.609   2.430  0.1139  0.0220 -0.0939
  597SOL    HW1 1790   0.335   2.552   2.516  0.1722 -1.9174 -0.3650
  597SOL    HW2 1791   0.414   2.613   2.378  0.6856  0.9596 -3.2085
  598SOL     OW 1792   2.750   2.250   1.968 -0.3665 -0.7876 -0.3571
  598SOL    HW1 1793   2.813   2.330   1.957  1.0706 -1.5285 -1.7725
  598SOL    HW2 1794   2.728   2.207   1.878  0.4984  0.9374  0.7622
  599SOL     OW 1795   0.778   2.960   2.877 -0.4181  0.1985  0.3708
  599SOL    HW1 1796   0.693   3.016   2.859  1.2000  0.4561  0.2364
  599SOL    HW2 1797   0.769   2.860   2.848 -1.9122 -1.2023  2.4045
  600SOL     OW 1798   0.239   2.226   2.824  0.0205 -0.1769 -0.3635
  600SOL    HW1 1799   0.163   2.297   2.837  2.2281  1.5860  1.5967
  600SOL    HW2 1800   0.215   2.137   2.868  2.3284  2.5569 -0.5668
  601SOL     OW 1801   0.685   0.843   1.414 -0.1113  0.5840  0.5179
  601SOL    HW1 1802   0.672   0.754   1.369  0.6265  2.2738 -2.6550
  601SOL    HW2 1803   0.747   0.894   1.350 -0.0713 -1.3674 -4.0737
  602SOL     OW 1804   0.892   2.780   0.870 -0.4995 -0.5968  0.4474
  602SOL    HW1 1805   0.942   2.690   0.858 -0.9822 -2.1974 -1.8972
  602SOL    HW2 1806   0.812   2.772   0.933 -0.7852  1.1096  3.3625
  603SOL     OW 1807   0.461   0.413   2.532  0.0657  0.1046 -0.2020
  603SOL    HW1 1808   0.556   0.435   2.527 -2.4238 -0.5948 -1.0498
  603SOL    HW2 1809   0.453   0.334   2.471  0.2782  1.0590  0.1512
  604SOL     OW 1810   0.489   2.891   1.542 -0.3984 -0.3788 -0.2142
  604SOL    HW1 1811   0.468   2.863   1.637 -0.1846 -0.2382 -3.6770
  604SOL    HW2 1812   0.401   2.890   1.486 -1.9524  0.4017 -1.1366
  605SOL     OW 1813   1.521   0.705   2.034 -0.0729  0.1224  0.5110
  605SOL    HW1 1814   1.482   0.751   1.950 -2.8942  1.6505 -0.4424
  605SOL    HW2 1815   1.592   0.764   2.066 -0.2871  1.8116 -0.1515
  606SOL     OW 1816   2.511   2.818   2.899  0.0270 -0.2009  0.4366
  606SOL    HW1 1817   2.465   2.730   2.877  1.7298  1.2049 -0.8011
  606SOL    HW2 1818   2.580   2.841   2.827  0.2603  0.1759 -1.5590
  607SOL     OW 1819   0.651   0.612   1.290  0.3243  0.0840 -0.3117
  607SOL    HW1 1820   0.674   0.585   1.194  0.0242  1.8018 -0.1610
  607SOL    HW2 1821   0.554   0.580   1.316 -2.5925  0.6201  3.1738
  608SOL     OW 1822   0.164   1.775   2.443  0.1381 -0.1665 -0.3456
  608SOL    HW1 1823   0.126   1.782   2.538  0.7409  0.6803 -0.0596
  608SOL    HW2 1824   0.102   1.827   2.382 -0.9011  1.4423  3.1823
  609SOL     OW 1825   1.570   1.375   0.582  0.3301  0.4805  0.0203
  609SOL    HW1 1826   1.575   1.273   0.574 -0.7893 -1.6033 -1.8608
  609SOL    HW2 1827   1.490   1.402   0.525 -1.8031 -1.5005 -2.2123
  610SOL     OW 1828   0.404   0.736   1.064  0.0602 -0.2291  0.1334
  610SOL    HW1 1829   0.473   0.661   1.063  1.0723 -0.7596 -0.0873
  610SOL    HW2 1830   0.406   0.784   1.155  0.7227  2.5601  0.8958
  611SOL     OW 1831   1.535   0.922   0.863 -0.3524  0.2146 -0.2467
  611SOL    HW1 1832   1.622   0.980   0.867  1.0572 -0.3583 -0.1580
  611SOL    HW2 1833   1.535   0.860   0.784  2.2638  2.1153  3.0451
  612SOL     OW 1834   1.844   1.321   0.513  0.0311 -0.2109  0.2574
  612SOL    HW1 1835   1.752   1.350   0.543 -1.2922  1.3377 -1.5018
  612SOL    HW2 1836   1.848   1.311   0.411 -1.3099 -1.6105  0.2704
  613SOL     OW 1837   1.868   0.832   0.313  0.2438 -0.5384 -0.6863
  613SOL    HW1 1838   1.942   0.822   0.241  0.5984 -1.8898 -1.4840
  613SOL    HW2 1839   1.826   0.923   0.304  1.3444 -2.0607 -0.4901
  614SOL     OW 1840   2.843   0.106   2.425 -0.2995 -0.0500  0.1303
  614SOL    HW1 1841   2.867   0.025   2.366  1.5887 -0.0521 -0.0819
  614SOL    HW2 1842   2.847   0.186   2.359 -0.5317 -1.5182 -0.9277
  615SOL     OW 1843   0.635   1.701   0.875  0.5127 -0.4846  0.5012
  615SOL    HW1 1844   0.616   1.691   0.776 -1.0418  2.8529  0.1087
  615SOL    HW2 1845   0.646   1.798   0.899 -0.8363  0.2368  2.1630
  616SOL     OW 1846   1.506   1.023   2.673  0.3275  0.7706 -0.0707
  616SOL    HW1 1847   1.534   1.034   2.575  0.5142 -1.1178 -1.8410
  616SOL    HW2 1848   1.407   1.044   2.676  1.3232  0.4154  0.9980
  617SOL     OW 1849   1.322   0.547   2.910 -0.6939  0.3377  0.0559
  617SOL    HW1 1850   1.238   0.546   2.964 -0.0261  2.4395  1.0615
  617SOL    HW2 1851   1.409   0.525   2.964  4.6545 -2.4836  0.6022
  618SOL     OW 1852   1.834   2.445   2.570 -0.2283 -0.3247  0.0950
  618SOL    HW1 1853   1.794   2.488   2.493  2.2793 -0.9647  1.0922
  618SOL    HW2 1854   1.777   2.454   2.652  0.2573  2.8744  0.3391
  619SOL     OW 1855   2.234   1.778   0.939  0.0311 -0.0636 -0.4304
  619SOL    HW1 1856   2.329   1.748   0.935 -3.7058  2.3557  0.1048
  619SOL    HW2 1857   2.178   1.700   0.964 -1.5241  0.1251  3.0499
  620SOL     OW 1858   2.011   2.860   2.428 -0.0768  0.3057  0.3209
  620SOL    HW1 1859   2.032   2.803   2.352  0.6446 -0.0895  2.8855
  620SOL    HW2 1860   1.944   2.826   2.491  1.0977 -2.4776 -1.5556
  621SOL     OW 1861   0.171   1.260   0.578  0.2569 -0.3090  0.2895
  621SOL    HW1 1862   0.123   1.293   0.493  0.0614  1.2813 -2.8420
  621SOL    HW2 1863   0.201   1.338   0.638  0.0533 -0.3399 -0.6529
  622SOL     OW 1864   1.398   1.410   2.761  0.4880  0.3107  0.1172
  622SOL    HW1 1865   1.342   1.415   2.675 -1.2060  1.8185 -1.6056
  622SOL    HW2 1866   1.394   1.496   2.815 -1.0658  0.2218  1.2613
  623SOL     OW 1867   3.038   2.374   2.348  0.1656 -0.6319 -0.0592
  623SOL    HW1 1868   3.042   2.410   2.445  1.5637  1.3362 -0.8810
  623SOL    HW2 1869   3.086   2.434   2.282 -0.0754  1.2074  0.8774
  624SOL     OW 1870   0.652   2.642   3.059 -0.3120  0.0775 -0.0728
  624SOL    HW1 1871   0.733   2.582   3.064 -3.2179  0.2280  0.1043
  624SOL    HW2 1872   0.664   2.713   0.021  4.3114 -3.1300  0.0599
  625SOL     OW 1873   0.532   1.776   2.105 -0.0013 -0.5790  0.5847
  625SOL    HW1 1874   0.479   1.744   2.185 -1.3441 -2.2391  0.8168
  625SOL    HW2 1875   0.471   1.819   2.037 -0.2710  1.0214 -2.1244
  626SOL     OW 1876   0.369   2.965   2.701  0.2598  0.1779  0.5218
  626SOL    HW1 1877   0.380   2.913   2.614  2.4927  3.9665  1.1810
  626SOL    HW2 1878   0.423   2.928   2.782  0.1778 -3.3292 -2.4398
  627SOL     OW 1879   1.840   1.303   0.229  0.2414 -0.1326  0.0852
  627SOL    HW1 1880   1.856   1.288   0.129  1.3472  1.4207 -0.6373
  627SOL    HW2 1881   1.787   1.386   0.245  1.3425  0.0323 -0.4525
  628SOL     OW 1882   1.248   2.086   0.630 -0.1570 -0.1147 -0.1305
  628SOL    HW1 1883   1.226   2.053   0.726 -0.5617  1.0295 -1.7521
  628SOL    HW2 1884   1.263   2.186   0.625 -0.1534  1.0044  0.4934
  629SOL     OW 1885   3.070   0.125   1.605 -0.4127  0.0693  0.2105
  629SOL    HW1 1886   0.030   0.053   1.626 -3.0229  2.2385  1.2454
  629SOL    HW2 1887   3.004   0.149   1.678  0.2933  0.9847  0.3155
  630SOL     OW 1888   2.192   0.455   1.745 -0.5390  0.1011  0.0996
  630SOL    HW1 1889   2.253   0.454   1.661 -1.7275 -2.1796 -2.7256
  630SOL    HW2 1890   2.199   0.372   1.803  2.3612  0.0881  0.5364
  631SOL     OW 1891   1.363   0.278   1.079 -0.2614  0.4570 -0.4274
  631SOL    HW1 1892   1.400   0.349   1.018 -0.2023 -0.7371  0.8029
  631SOL    HW2 1893   1.352   0.194   1.033 -1.7982  4.4475  5.1221
  632SOL     OW 1894   2.688   0.865   1.912  0.1871 -0.3387  0.1917
  632SOL    HW1 1895   2.711   0.778   1.864 -0.0700 -1.3598 -0.0643
  632SOL    HW2 1896   2.743   0.933   1.863 -0.7763  0.2797 -2.3229
  633SOL     OW 1897   1.237   1.026   2.721  0.3606  0.3713  0.4557
  633SOL    HW1 1898   1.200   1.098   2.654  0.3160 -2.3025 -2.3380
  633SOL    HW2 1899   1.159   0.977   2.766  3.4713 -1.0663 -2.8163
  634SOL     OW 1900   0.464   2.886   2.973 -0.8304 -0.1160 -0.2828
  634SOL    HW1 1901   0.383   2.848   3.021 -2.3370  1.3136  0.1282
  634SOL    HW2 1902   0.523   2.924   3.043 -2.1105 -0.6879  0.8017
  635SOL     OW 1903   0.058   1.612   1.476  0.3247 -0.6167  0.3788
  635SOL    HW1 1904   3.107   1.535   1.444  0.7870 -0.7318 -2.5074
  635SOL    HW2 1905   0.156   1.581   1.467 -1.8279  0.0147 -3.0211
  636SOL     OW 1906   0.260   1.604   0.074 -0.0468 -0.4678  0.2597
  636SOL    HW1 1907   0.277   1.594   0.171  0.0022  2.8022  0.1746
  636SOL    HW2 1908   0.181   1.547   0.050  3.1739 -0.4101  0.7749
  637SOL     OW 1909   0.027   2.554   0.485 -0.0965 -0.0471  0.0853
  637SOL    HW1 1910   3.077   2.615   0.430 -1.3652  1.1113 -2.5599
  637SOL    HW2 1911   0.009   2.452   0.481  0.4962 -0.2967  1.4158
  638SOL     OW 1912   2.688   2.505   0.170  0.1074  0.0132 -0.2380
  638SOL    HW1 1913   2.725   2.446   0.094 -0.2046 -1.6478 -2.3191
  638SOL    HW2 1914   2.622   2.448   0.222  1.1772  0.1562  0.0096
  639SOL     OW 1915   1.621   0.224   2.716 -0.0318 -0.1110  0.0645
  639SOL    HW1 1916   1.532   0.269   2.731  0.1685 -3.5112  2.3138
  639SOL    HW2 1917   1.604   0.127   2.743 -1.3497 -0.6218  0.1395
  640SOL     OW 1918   2.076   2.200   1.686 -0.1284 -0.3962  0.0411
  640SOL    HW1 1919   2.017   2.187   1.772 -0.5669  0.7347  1.0937
  640SOL    HW2 1920   2.090   2.298   1.658 -0.1509  2.5873 -0.2386
  641SOL     OW 1921   3.032   3.077   0.884  0.5188 -0.1344  0.3719
  641SOL    HW1 1922   2.963   0.016   0.945 -0.2635  0.8373  0.5532
  641SOL    HW2 1923   2.990   2.994   0.841 -0.5641 -0.4992 -3.1522
  642SOL     OW 1924   1.109   1.119   1.852  0.1049 -0.4804  0.9358
  642SOL    HW1 1925   1.019   1.166   1.832  0.5916  1.1685  1.6345
  642SOL    HW2 1926   1.176   1.146   1.778 -1.0797  0.0473  0.0394
  643SOL     OW 1927   0.368   1.911   2.640  0.3097  0.1693 -0.2038
  643SOL    HW1 1928   0.319   1.824   2.615  0.0454 -0.8531 -2.9759
  643SOL    HW2 1929   0.318   1.995   2.611  1.9917 -0.1958  1.2540
  644SOL     OW 1930   1.380   2.822   2.402  0.2537  0.0772 -0.5174
  644SOL    HW1 1931   1.356   2.882   2.326  2.5989  1.4074  1.5317
  644SOL    HW2 1932   1.313   2.749   2.433 -0.4348  0.9777  0.1223
  645SOL     OW 1933   1.442   0.845   1.812  0.4784 -0.0709 -0.5734
  645SOL    HW1 1934   1.493   0.830   1.726 -0.2361  0.2908  2.3915
  645SOL    HW2 1935   1.343   0.822   1.795 -0.7354 -1.1058 -2.2679
  646SOL     OW 1936   1.181   2.232   2.815 -0.6630  0.6117 -0.3687
  646SOL    HW1 1937   1.242   2.242   2.738 -0.3486 -3.1906  2.4023
  646SOL    HW2 1938   1.168   2.130   2.827  3.3185 -2.4252 -3.1558
  647SOL     OW 1939   1.448   2.759   0.628  0.1947  0.4593 -0.0131
  647SOL    HW1 1940   1.526   2.709   0.672  1.1234  0.5182  3.0759
  647SOL    HW2 1941   1.468   2.860   0.621  0.6476  1.3548  4.6166
  648SOL     OW 1942   2.491   2.607   1.249  0.4624  0.6984  0.0602
  648SOL    HW1 1943   2.477   2.611   1.150 -0.8046  0.2722 -0.0551
  648SOL    HW2 1944   2.488   2.513   1.289 -0.7310  0.2343 -2.8577
  649SOL     OW 1945   0.780   2.395   2.384  0.4038  0.3239  0.7499
  649SOL    HW1 1946   0.707   2.374   2.318  0.2477  2.5645  2.3088
  649SOL    HW2 1947   0.753   2.367   2.479  0.0451 -0.7349 -2.7116
  650SOL     OW 1948   2.536   1.916   2.567  0.6912 -0.1944 -0.4144
  650SOL    HW1 1949   2.581   1.905   2.660 -2.5932  2.2132 -0.2969
  650SOL    HW2 1950   2.530   2.014   2.545  1.0048  1.2932  4.0434
  651SOL     OW 1951   2.584   2.490   2.087  0.7275  0.6933 -0.9063
  651SOL    HW1 1952   2.518   2.523   2.018 -0.7680 -1.6150 -0.3005
  651SOL    HW2 1953   2.606   2.392   2.071 -1.5663 -4.0036  0.8601
  652SOL     OW 1954   2.432   2.410   0.741 -0.1954  0.4221  0.4450
  652SOL    HW1 1955   2.523   2.452   0.719  0.7077  0.4870 -2.8093
  652SOL    HW2 1956   2.454   2.314   0.763  0.8118 -0.1138 -2.0186
  653SOL     OW 1957   2.678   1.213   0.987 -0.3651 -0.1930 -0.2338
  653SOL    HW1 1958   2.649   1.254   1.073  0.3010  2.0996  1.0476
  653SOL    HW2 1959   2.731   1.122   1.000  2.0382 -1.7223  0.1726
  654SOL     OW 1960   1.002   0.436   2.768 -0.5731 -0.0813 -0.0358
  654SOL    HW1 1961   0.939   0.362   2.738  1.5004  0.1076 -0.3677
  654SOL    HW2 1962   0.994   0.445   2.868 -0.7288 -0.1288 -0.9729
  655SOL     OW 1963   0.755   0.300   1.062 -0.0158  0.2335 -0.1088
  655SOL    HW1 1964   0.814   0.328   0.985 -0.7218 -0.9426  2.3588
  655SOL    HW2 1965   0.806   0.236   1.120  0.4536  0.5873  0.1746
  656SOL     OW 1966   0.429   2.518   1.890 -0.3707 -0.3322  0.0433
  656SOL    HW1 1967   0.477   2.429   1.887 -1.3234  3.1126 -0.3926
  656SOL    HW2 1968   0.491   2.595   1.912 -1.0428 -1.5668  1.4801
  657SOL     OW 1969   2.483   0.863   0.273 -0.0839  0.0912 -0.1869
  657SOL    HW1 1970   2.425   0.829   0.194 -1.0571 -1.8318  0.7704
  657SOL    HW2 1971   2.453   0.952   0.305  1.9493 -1.8453  0.2357
  658SOL     OW 1972   1.930   2.065   1.030 -0.2591  0.4152 -0.6421
  658SOL    HW1 1973   1.848   2.001   1.042 -0.0810  2.6167 -1.0677
  658SOL    HW2 1974   1.917   2.163   1.043 -0.3585 -1.2359 -2.3502
  659SOL     OW 1975   2.618   1.980   2.860 -0.8068  0.0548 -0.5952
  659SOL    HW1 1976   2.697   1.923   2.891 -0.4877 -1.8834  0.4668
  659SOL    HW2 1977   2.650   2.059   2.803  1.2244  0.1071  0.8263
  660SOL     OW 1978   1.057   0.434   0.354 -0.0478 -0.3741 -0.5502
  660SOL    HW1 1979   1.095   0.389   0.434 -0.5959 -0.9427 -1.0247
  660SOL    HW2 1980   1.124   0.502   0.313  0.4326  1.9631  0.1568
  661SOL     OW 1981   1.655   3.109   0.094 -0.2516  0.7388 -0.7188
  661SOL    HW1 1982   1.721   3.032   0.106  0.5663 -0.5843 -1.1254
  661SOL    HW2 1983   1.707   0.083   0.111 -1.6410 -1.6179  0.7440
  662SOL     OW 1984   0.825   2.907   0.590 -0.0508 -0.5544  0.1814
  662SOL    HW1 1985   0.794   3.005   0.602  0.4805  2.1297 -0.0843
  662SOL    HW2 1986   0.854   2.864   0.679  1.4052 -1.1507  3.2400
  663SOL     OW 1987   1.284   0.158   2.212 -0.6644 -0.6336  0.0888
  663SOL    HW1 1988   1.359   0.191   2.275  0.9593 -0.8617  3.0105
  663SOL    HW2 1989   1.203   0.221   2.214 -0.3820  1.2715  0.7268
  664SOL     OW 1990   0.743   2.476   1.453  0.6986  0.5731 -0.3391
  664SOL    HW1 1991   0.645   2.451   1.451  0.6589 -1.2396 -1.3199
  664SOL    HW2 1992   0.759   2.538   1.533  0.0765  0.0911 -1.0134
  665SOL     OW 1993   0.842   2.238   1.560  0.8382 -0.4749 -0.9552
  665SOL    HW1 1994   0.936   2.237   1.594 -0.1753  0.7094 -0.4555
  665SOL    HW2 1995   0.814   2.334   1.536  2.4235  1.5430  0.7344
  666SOL     OW 1996   0.594   2.924   2.346 -0.4414  0.2069  0.2044
  666SOL    HW1 1997   0.629   3.017   2.343  0.3857 -2.4124 -4.5649
  666SOL    HW2 1998   0.587   2.885   2.442 -1.1401 -0.2425  3.8575
  667SOL     OW 1999   2.010   1.436   1.803  0.1554  0.7679 -0.3854
  667SOL    HW1 2000   2.050   1.440   1.712  0.5697 -0.9521  1.7640
  667SOL    HW2 2001   2.077   1.468   1.870  0.6305 -1.3590  1.5544
  668SOL     OW 2002   1.903   3.016   1.721  0.4325  0.0229 -0.2361
  668SOL    HW1 2003   1.824   2.996   1.784  1.2261 -0.4623  1.3891
  668SOL    HW2 2004   1.900   0.003   1.688  1.7846  1.2515  2.1942
  669SOL     OW 2005   2.406   2.599   0.953 -0.0045 -0.0760  0.3613
  669SOL    HW1 2006   2.409   2.513   0.901 -2.1406  0.9319  1.1648
  669SOL    HW2 2007   2.434   2.674   0.890  1.9454  1.1866 -0.1559
  670SOL     OW 2008   1.319   2.321   3.074  0.2817  0.3298 -0.5246
  670SOL    HW1 2009   1.274   2.389   0.027  0.2315 -0.6255  0.4700
  670SOL    HW2 2010   1.256   2.278   3.003 -1.8979 -1.9987  1.7662
  671SOL     OW 2011   0.596   0.942   0.411 -0.0315 -0.0006  0.1568
  671SOL    HW1 2012   0.549   0.957   0.319 -3.5434  1.0268 -0.6261
  671SOL    HW2 2013   0.615   1.032   0.457  0.0212 -1.2131 -0.8935
  672SOL     OW 2014   2.773   1.150   2.686 -0.4647 -0.0822  0.0776
  672SOL    HW1 2015   2.872   1.162   2.719 -1.4399 -1.7525 -0.8351
  672SOL    HW2 2016   2.768   1.176   2.589  0.9784  1.8478  1.0163
  673SOL     OW 2017   2.954   2.013   1.658  0.4655 -0.1923 -0.1191
  673SOL    HW1 2018   2.993   1.988   1.752  1.6761  1.3647  1.1861
  673SOL    HW2 2019   2.856   2.046   1.655 -0.2016  1.4011 -1.4250
  674SOL     OW 2020   0.584   2.375   2.188 -0.3190 -0.1240  0.1323
  674SOL    HW1 2021   0.520   2.305   2.226  1.0634 -0.3406  0.0206
  674SOL    HW2 2022   0.621   2.348   2.098  2.5589  0.4265  1.3810
  675SOL     OW 2023   1.193   0.412   1.807  0.1229 -0.3932  0.1924
  675SOL    HW1 2024   1.119   0.368   1.756 -1.5855 -0.0175 -1.6946
  675SOL    HW2 2025   1.264   0.446   1.739  0.8306  3.3936 -2.7011
  676SOL     OW 2026   1.844   0.051   1.431  0.1806 -0.3999  1.1296
  676SOL    HW1 2027   1.747   0.008   1.432 -2.4902  1.2046 -1.1905
  676SOL    HW2 2028   1.865   0.094   1.517  0.1412  0.0650  1.7498
  677SOL     OW 2029   2.488   1.445   3.017  0.2965 -0.5356 -0.3111
  677SOL    HW1 2030   2.416   1.486   2.961  2.6568 -2.4775 -1.9290
  677SOL    HW2 2031   2.541   1.380   2.964  1.7569  1.3274  2.0083
  678SOL     OW 2032   2.661   1.353   1.220  0.1628  0.1488 -0.7194
  678SOL    HW1 2033   2.702   1.446   1.235  3.3644  1.6090  0.2858
  678SOL    HW2 2034   2.589   1.335   1.293 -1.6396  0.2678 -1.2021
  679SOL     OW 2035   2.552   0.543   0.085  0.2858 -0.0051 -0.3528
  679SOL    HW1 2036   2.524   0.492   0.169  0.6238 -0.2859 -1.2535
  679SOL    HW2 2037   2.652   0.539   0.075 -2.6779  2.7552  2.1810
  680SOL     OW 2038   0.535   1.510   1.978 -0.4070 -0.3641  0.4891
  680SOL    HW1 2039   0.539   1.612   1.974  3.6919 -1.8605  1.7598
  680SOL    HW2 2040   0.603   1.473   2.048  0.8678 -2.1962  4.3691
  681SOL     OW 2041   2.709   2.077   1.739  0.2485 -0.2060  0.5430
  681SOL    HW1 2042   2.617   2.111   1.711  1.3684  1.9648 -1.5736
  681SOL    HW2 2043   2.709   1.975   1.742  1.3902 -0.4688 -1.1599
  682SOL     OW 2044   0.265   2.223   0.180 -0.5149  0.2419  0.8208
  682SOL    HW1 2045   0.298   2.127   0.169 -0.3148  2.9546 -1.3970
  682SOL    HW2 2046   0.183   2.229   0.118  0.6192 -2.3036 -0.7648
  683SOL     OW 2047   3.054   1.988   1.198  0.4043 -0.1352  0.0054
  683SOL    HW1 2048   2.971   1.981   1.137 -2.3910 -0.1901 -1.1419
  683SOL    HW2 2049   3.035   1.946   1.284 -0.1128  1.2347 -4.2148
  684SOL     OW 2050   2.766   1.149   2.134 -0.0220 -0.1169  0.1385
  684SOL    HW1 2051   2.765   1.115   2.231  1.2230 -1.7768 -2.3767
  684SOL    HW2 2052   2.674   1.138   2.086 -0.1218  3.2235 -0.9455
  685SOL     OW 2053   1.316   0.703   0.455 -0.4372 -0.2180  0.0574
  685SOL    HW1 2054   1.303   0.655   0.367  0.4951 -2.3779 -0.3555
  685SOL    HW2 2055   1.294   0.639   0.530 -0.6832  2.6590 -1.6505
  686SOL     OW 2056   0.690   0.291   0.649  0.7797 -0.8429  0.1884
  686SOL    HW1 2057   0.766   0.365   0.651  0.9511  1.8249 -3.1037
  686SOL    HW2 2058   0.602   0.339   0.649  0.5878 -0.9810  1.8735
  687SOL     OW 2059   0.548   1.978   2.822 -0.0929 -0.5886 -0.2019
  687SOL    HW1 2060   0.485   1.936   2.755 -0.7174  1.2478 -1.0612
  687SOL    HW2 2061   0.554   2.079   2.816 -0.8290 -3.2773  1.4414
  688SOL     OW 2062   2.042   0.302   1.479 -0.2792  0.4277 -0.3196
  688SOL    HW1 2063   2.114   0.272   1.418 -2.2716  0.3599 -0.9227
  688SOL    HW2 2064   2.049   0.402   1.487 -1.8487 -0.6062 -0.0339
  689SOL     OW 2065   1.547   0.404   0.767  0.1762 -0.4418  0.3660
  689SOL    HW1 2066   1.581   0.307   0.764  0.8077  1.6810 -1.3927
  689SOL    HW2 2067   1.617   0.471   0.736  0.4382 -2.1076  2.7546
  690SOL     OW 2068   3.036   1.384   1.363 -0.3342  0.3682 -0.5827
  690SOL    HW1 2069   2.969   1.408   1.289 -1.9224  0.1821 -1.3700
  690SOL    HW2 2070   3.077   1.291   1.345 -1.6574 -1.9510  0.0465
  691SOL     OW 2071   0.382   2.206   1.247 -0.8233 -0.0477 -0.2335
  691SOL    HW1 2072   0.463   2.257   1.212 -0.1425  1.2697  0.2501
  691SOL    HW2 2073   0.395   2.150   1.334 -0.2558  1.3172  2.4129
  692SOL     OW 2074   1.212   0.051   1.567  0.1248  0.0330  0.6494
  692SOL    HW1 2075   1.248   3.071   1.606  4.8131 -1.7543  0.5972
  692SOL    HW2 2076   1.286   0.118   1.559 -1.6553 -2.9073 -1.5220
  693SOL     OW 2077   0.968   1.699   2.113  0.4389  0.1288  0.9977
  693SOL    HW1 2078   0.910   1.782   2.122  1.0288  0.1408 -1.4066
  693SOL    HW2 2079   0.984   1.684   2.014  1.8379  1.3224  0.1872
  694SOL     OW 2080   1.943   1.526   0.788  0.1048  0.5090 -0.3457
  694SOL    HW1 2081   1.869   1.514   0.857 -0.8189 -2.5937  0.8814
  694SOL    HW2 2082   1.982   1.436   0.748 -0.4961 -3.5708 -1.3158
  695SOL     OW 2083   1.094   0.836   1.356  0.9570  0.2425 -0.0252
  695SOL    HW1 2084   1.083   0.828   1.257 -0.7006  0.3454  0.2688
  695SOL    HW2 2085   1.038   0.764   1.401 -2.5303 -0.7677  0.8997
  696SOL     OW 2086   0.134   0.059   0.555  0.5150 -0.4643  0.0859
  696SOL    HW1 2087   0.178   0.092   0.469 -1.8760 -2.2655  0.1822
  696SOL    HW2 2088   0.060   3.103   0.539 -0.2030  3.7782 -0.4128
  697SOL     OW 2089   1.936   0.530   1.158  0.2671 -0.4477 -0.2171
  697SOL    HW1 2090   1.966   0.507   1.061 -0.9072 -4.4475  1.0847
  697SOL    HW2 2091   1.902   0.442   1.197 -0.7424 -0.3896 -0.4158
  698SOL     OW 2092   1.493   1.324   1.817 -0.1777 -0.0028  0.2848
  698SOL    HW1 2093   1.530   1.374   1.898 -0.2500 -0.9340  0.3463
  698SOL    HW2 2094   1.447   1.239   1.848 -0.2583 -0.0321  1.6014
  699SOL     OW 2095   0.014   0.308   2.152 -0.1914  0.1387 -0.1492
  699SOL    HW1 2096   3.026   0.277   2.177 -3.2905 -0.3658 -0.4053
  699SOL    HW2 2097   0.037   0.399   2.191 -0.0724  0.9634 -2.3375
  700SOL     OW 2098   1.462   2.447   0.775 -0.1036 -0.2428 -0.5721
  700SOL    HW1 2099   1.437   2.450   0.677 -0.8739 -1.1568  2.9524
  700SOL    HW2 2100   1.524   2.372   0.794 -1.4711  0.4598 -0.7817
  701SOL     OW 2101   0.037   1.536   2.422  0.7671 -0.2669 -0.5112
  701SOL    HW1 2102   0.093   1.621   2.432  0.6587 -1.0341 -0.8994
  701SOL    HW2 2103   3.063   1.541   2.481 -0.4386  0.1572  0.1912
  702SOL     OW 2104   0.669   0.045   0.524  0.6845 -0.0088  0.1144
  702SOL    HW1 2105   0.680   0.136   0.559 -0.7486 -2.1322  1.8107
  702SOL    HW2 2106   0.577   0.011   0.555  1.6543 -0.0689  0.7716
  703SOL     OW 2107   1.829   2.985   2.775 -0.7403 -0.6157  0.8364
  703SOL    HW1 2108   1.902   3.048   2.807 -3.3753  2.0179  1.3233
  703SOL    HW2 2109   1.734   3.032   2.793 -3.5469  1.7062  0.3592
  704SOL     OW 2110   2.461   2.098   0.161 -0.1443 -0.1615 -0.1172
  704SOL    HW1 2111   2.489   2.069   0.068  4.4456  0.9219  0.5241
  704SOL    HW2 2112   2.510   2.058   0.239 -1.8683  0.0845  0.1253
  705SOL     OW 2113   2.748   2.383   2.318 -0.5140  0.3709 -0.0729
  705SOL    HW1 2114   2.725   2.422   2.225 -1.3319  2.5207 -2.8904
  705SOL    HW2 2115   2.850   2.390   2.339  0.3162 -3.7016  1.3349
  706SOL     OW 2116   2.794   3.023   0.386  0.0022 -0.4747 -0.4132
  706SOL    HW1 2117   2.748   2.996   0.300  1.5337  0.5610  4.9634
  706SOL    HW2 2118   2.750   2.988   0.469  0.3193  0.1498 -0.3914
  707SOL     OW 2119   1.128   0.212   3.022  0.0604 -0.0953  0.0234
  707SOL    HW1 2120   1.166   0.185   2.931 -1.6005 -0.5301 -1.7216
  707SOL    HW2 2121   1.057   0.148   3.057  2.6439  0.0064  1.1136
  708SOL     OW 2122   0.211   2.054   1.724 -0.5126 -0.0999 -0.1297
  708SOL    HW1 2123   0.158   2.035   1.812 -0.4458  0.2838  1.5971
  708SOL    HW2 2124   0.206   1.968   1.670 -1.2390  0.1312  1.2668
  709SOL     OW 2125   1.411   2.888   1.953 -0.1822 -0.6396  0.4537
  709SOL    HW1 2126   1.409   2.793   1.982 -0.3437  1.6452  1.1426
  709SOL    HW2 2127   1.402   2.947   2.037 -0.7521  0.3052  2.0816
  710SOL     OW 2128   1.673   2.521   2.789 -0.0730  0.1783  0.0870
  710SOL    HW1 2129   1.712   2.612   2.815  3.2762 -2.3512  2.6621
  710SOL    HW2 2130   1.574   2.516   2.762  2.2346 -0.5542  0.2578
  711SOL     OW 2131   0.958   2.500   2.835 -0.2098 -0.2062  0.2359
  711SOL    HW1 2132   0.936   2.513   2.933 -1.2003 -0.6295 -1.6726
  711SOL    HW2 2133   0.924   2.412   2.801  0.4591 -0.7167  1.1197
  712SOL     OW 2134   1.091   1.942   2.870  0.0996  0.1775  0.3401
  712SOL    HW1 2135   1.182   1.928   2.826 -2.3769 -0.0506 -3.2918
  712SOL    HW2 2136   1.030   1.859   2.859  1.9847 -1.3482 -0.1815
  713SOL     OW 2137   1.748   0.874   1.680 -0.1394 -0.0405  0.1813
  713SOL    HW1 2138   1.801   0.795   1.721  0.4581 -1.0843 -1.8378
  713SOL    HW2 2139   1.803   0.955   1.656 -0.9533 -0.6759  2.3456
  714SOL     OW 2140   1.184   1.450   1.823 -0.1173  0.3635 -0.3441
  714SOL    HW1 2141   1.195   1.430   1.921  0.4508  1.4294 -0.6984
  714SOL    HW2 2142   1.254   1.399   1.770  1.6680  0.5533 -1.5161
  715SOL     OW 2143   2.590   0.237   0.245 -0.1469  0.0565 -0.4375
  715SOL    HW1 2144   2.676   0.206   0.293 -0.3529 -1.1826  0.2894
  715SOL    HW2 2145   2.595   0.196   0.152  0.7423 -0.3368  0.2983
  716SOL     OW 2146   0.499   2.586   1.128  0.1261 -0.4319 -0.8942
  716SOL    HW1 2147   0.602   2.598   1.140  3.5887  0.2036  0.4741
  716SOL    HW2 2148   0.464   2.636   1.043  1.0507  3.3926 -1.1523
  717SOL     OW 2149   2.677   0.765   0.436 -0.4165  0.7875 -0.1147
  717SOL    HW1 2150   2.660   0.687   0.502  1.6951 -2.7130 -0.0316
  717SOL    HW2 2151   2.597   0.771   0.368 -1.1463 -1.1727 -0.1265
  718SOL     OW 2152   1.858   1.425   1.199  0.2064  0.0761  0.7607
  718SOL    HW1 2153   1.840   1.470   1.289  1.3911  0.3524 -2.8811
  718SOL    HW2 2154   1.798   1.342   1.187 -3.5869  3.3378 -2.7376
  719SOL     OW 2155   2.637   2.747   0.025  0.5031  0.1669 -0.4727
  719SOL    HW1 2156   2.591   2.744   3.044 -0.8745 -1.3590 -1.7627
  719SOL    HW2 2157   2.618   2.662   0.079 -0.4891 -1.4537 -1.6239
  720SOL     OW 2158   1.002   0.544   1.095  0.1679 -0.3171 -0.1412
  720SOL    HW1 2159   0.975   0.642   1.105 -0.9674  0.9678 -0.3091
  720SOL    HW2 2160   0.955   0.483   1.163  2.7602 -2.4847  0.7302
  721SOL     OW 2161   1.851   0.153   1.022 -0.3021  0.1044 -0.3918
  721SOL    HW1 2162   1.953   0.154   0.998  0.9972 -1.0390 -1.4318
  721SOL    HW2 2163   1.831   0.221   1.095 -2.1686  0.1256  1.8980
  722SOL     OW 2164   0.894   2.056   1.868 -0.2868 -0.0260  0.5060
  722SOL    HW1 2165   0.865   2.008   1.954 -0.3053  0.1120  2.9856
  722SOL    HW2 2166   0.977   2.110   1.884  0.8188  0.7492 -2.8105
  723SOL     OW 2167   1.114   3.079   1.339 -0.0811 -0.1216 -0.4380
  723SOL    HW1 2168   1.178   3.071   1.261 -2.7214  0.0272  1.4017
  723SOL    HW2 2169   1.160   3.108   1.424  0.9296 -4.8081  1.2861
  724SOL     OW 2170   1.896   1.966   1.831 -0.1311  0.0953 -0.4539
  724SOL    HW1 2171   1.845   1.960   1.746  2.1943 -0.1129  3.0272
  724SOL    HW2 2172   1.967   1.889   1.832 -0.5745 -2.3996  1.2856
  725SOL     OW 2173   1.450   2.787   1.575 -0.2058  0.1176 -0.1012
  725SOL    HW1 2174   1.529   2.783   1.506 -0.1188 -2.9849 -1.6468
  725SOL    HW2 2175   1.444   2.708   1.637  0.3432 -1.7476 -2.0978
  726SOL     OW 2176   1.860   0.178   0.087  0.3772 -0.0983  0.3125
  726SOL    HW1 2177   1.907   0.093   0.102 -2.0345  2.4961  0.2327
  726SOL    HW2 2178   1.921   0.261   0.099 -2.1194 -0.3104  2.2868
  727SOL     OW 2179   1.322   1.893   0.478  0.1705  0.1112 -0.0138
  727SOL    HW1 2180   1.296   1.974   0.534 -3.5859 -2.5774  0.4358
  727SOL    HW2 2181   1.414   1.900   0.441 -3.3128  3.6970  2.1651
  728SOL     OW 2182   1.845   2.777   2.613 -0.0411 -0.1775  0.2683
  728SOL    HW1 2183   1.753   2.745   2.598 -0.4017 -0.2703  0.4745
  728SOL    HW2 2184   1.841   2.848   2.686  0.0333  1.1116 -2.1826
  729SOL     OW 2185   2.200   2.464   1.702  0.1514  0.1413  0.3213
  729SOL    HW1 2186   2.281   2.501   1.648  1.2572  0.9956 -1.7329
  729SOL    HW2 2187   2.226   2.439   1.798 -1.6094  0.1942 -0.0994
  730SOL     OW 2188   1.675   0.611   2.446  0.0066 -0.3675 -0.2184
  730SOL    HW1 2189   1.689   0.584   2.543 -1.1418  1.4613  0.0001
  730SOL    HW2 2190   1.698   0.534   2.387 -2.8984  0.1786  1.2232
  731SOL     OW 2191   0.462   3.058   1.223 -0.2225  0.5401  0.0183
  731SOL    HW1 2192   0.406   2.986   1.267 -0.5371  2.5383 -0.4053
  731SOL    HW2 2193   0.509   0.000   1.296  1.7814  1.4471 -0.1291
  732SOL     OW 2194   1.781   2.842   1.095 -0.0131 -0.2057  0.1115
  732SOL    HW1 2195   1.756   2.759   1.145 -0.4507  2.3140 -0.4076
  732SOL    HW2 2196   1.714   2.915   1.114  0.9779  1.7186 -2.7119
  733SOL     OW 2197   1.337   0.801   1.505  0.1510 -0.9164 -0.1645
  733SOL    HW1 2198   1.277   0.811   1.423 -1.4301 -0.6546  1.0901
  733SOL    HW2 2199   1.394   0.885   1.527  3.1627 -2.1674  2.1227
  734SOL     OW 2200   2.776   2.280   0.445 -0.1583 -0.3945 -0.7773
  734SOL    HW1 2201   2.693   2.285   0.384 -0.6718  0.1774  0.4577
  734SOL    HW2 2202   2.760   2.219   0.522  2.1454  1.6141 -0.3926
  735SOL     OW 2203   0.526   0.421   0.332 -0.4973  0.1662 -0.1496
  735SOL    HW1 2204   0.520   0.508   0.278  0.5541  1.0347  1.1982
  735SOL    HW2 2205   0.621   0.375   0.318  1.1904 -1.8099  1.3158
  736SOL     OW 2206   2.013   2.145   2.734  0.3764  0.1158 -0.0584
  736SOL    HW1 2207   1.985   2.048   2.753 -0.1636 -2.4310 -1.2082
  736SOL    HW2 2208   1.956   2.207   2.791  0.3953  0.9491 -1.5190
  737SOL     OW 2209   1.098   2.464   1.271 -0.6009  0.1618  0.0849
  737SOL    HW1 2210   1.159   2.530   1.226 -0.2950 -1.4454  1.0453
  737SOL    HW2 2211   1.029   2.431   1.205 -1.9256 -0.9022 -0.9045
  738SOL     OW 2212   1.518   2.709   2.191  0.2199 -0.6699 -0.2406
  738SOL    HW1 2213   1.472   2.740   2.277 -2.2562  0.4240  0.0890
  738SOL    HW2 2214   1.620   2.716   2.188 -0.5376 -1.0910  0.0257
  739SOL     OW 2215   1.086   2.263   1.923  0.5514 -0.5696  0.1725
  739SOL    HW1 2216   1.182   2.242   1.959 -0.2202  0.7327  1.2707
  739SOL    HW2 2217   1.036   2.326   1.989 -1.4863  0.7745 -1.9846
  740SOL     OW 2218   1.823   2.374   1.581 -0.7975  0.6255  0.2241
  740SOL    HW1 2219   1.829   2.287   1.531  1.7827  1.4962 -0.2024
  740SOL    HW2 2220   1.895   2.439   1.558  2.4130  0.9704  0.3007
  741SOL     OW 2221   2.252   1.863   0.009 -0.1773 -0.0267  0.2767
  741SOL    HW1 2222   2.163   1.867   0.058  0.1551 -1.0880 -0.1344
  741SOL    HW2 2223   2.270   1.764   3.089 -0.2885 -0.1980  1.4560
  742SOL     OW 2224   0.865   1.131   2.709  0.0136 -0.2573  0.0824
  742SOL    HW1 2225   0.766   1.124   2.685  1.4776  2.2471 -0.8947
  742SOL    HW2 2226   0.920   1.072   2.647  1.5877 -2.6482  1.5279
  743SOL     OW 2227   2.731   1.153   2.421 -0.0466 -0.4943  0.0851
  743SOL    HW1 2228   2.745   1.055   2.429 -1.2242  0.4552 -1.2795
  743SOL    HW2 2229   2.633   1.182   2.436  0.1540  1.7569  0.7922
  744SOL     OW 2230   2.275   2.433   1.959  0.0268 -0.3105  0.2548
  744SOL    HW1 2231   2.241   2.443   2.056 -0.4891  0.9609  1.8992
  744SOL    HW2 2232   2.335   2.509   1.930 -0.5658  1.1405 -2.0793
  745SOL     OW 2233   2.296   1.856   1.706 -0.3284 -0.0299 -0.4681
  745SOL    HW1 2234   2.241   1.919   1.649  0.0660  0.9741  1.2246
  745SOL    HW2 2235   2.328   1.771   1.657  0.6438 -1.5072 -0.8442
  746SOL     OW 2236   2.871   1.404   0.934 -0.4781 -0.2987 -0.2086
  746SOL    HW1 2237   2.950   1.361   0.894  0.9625  0.5745  0.1578
  746SOL    HW2 2238   2.792   1.346   0.954  0.7410 -0.5429 -1.4438
  747SOL     OW 2239   1.733   2.376   0.491  0.5541 -0.2054  0.6675
  747SOL    HW1 2240   1.833   2.354   0.496  1.7705  1.1290 -1.4672
  747SOL    HW2 2241   1.672   2.291   0.509 -1.7750  0.4427 -0.6257
  748SOL     OW 2242   0.857   2.288   0.094  0.4596 -0.4045 -0.0292
  748SOL    HW1 2243   0.893   2.207   0.042  0.1364 -0.6075 -1.5616
  748SOL    HW2 2244   0.759   2.284   0.111  0.3665 -2.0820 -0.6672
  749SOL     OW 2245   2.813   0.278   2.225 -0.6929 -1.0095 -0.4918
  749SOL    HW1 2246   2.815   0.382   2.236 -2.7418  0.0921  0.4181
  749SOL    HW2 2247   2.718   0.247   2.204  2.0319 -2.1478 -0.6369
  750SOL     OW 2248   1.467   0.189   1.453  0.0203 -0.1109 -0.0890
  750SOL    HW1 2249   1.540   0.261   1.439  1.2159  1.2810 -1.2582
  750SOL    HW2 2250   1.497   0.092   1.448  1.8543  0.2205 -0.4518
  751SOL     OW 2251   2.086   2.553   2.466  0.2627  0.8542 -0.2388
  751SOL    HW1 2252   1.989   2.564   2.506 -0.0546 -0.5017  1.2062
  751SOL    HW2 2253   2.154   2.574   2.535  0.4137  0.4007 -3.1420
  752SOL     OW 2254   1.775   1.849   1.066 -0.0969 -0.3680  0.2240
  752SOL    HW1 2255   1.685   1.838   1.114  0.3657 -0.1758  1.5103
  752SOL    HW2 2256   1.794   1.774   0.997  2.2502  2.6493 -0.8687
  753SOL     OW 2257   1.290   0.755   2.186 -0.0761  0.0195  0.5019
  753SOL    HW1 2258   1.334   0.744   2.275 -0.7730  0.1742 -4.1563
  753SOL    HW2 2259   1.351   0.805   2.120  0.2500  1.2951 -0.3476
  754SOL     OW 2260   0.266   2.788   0.885 -0.0200  0.6481  0.0318
  754SOL    HW1 2261   0.232   2.888   0.881  0.0749 -0.5414  0.1689
  754SOL    HW2 2262   0.196   2.746   0.950 -0.4346  1.6834  2.0900
  755SOL     OW 2263   2.342   0.062   1.583  0.2734 -0.4001  0.1895
  755SOL    HW1 2264   2.426   0.012   1.555  1.6518 -0.8442 -0.0649
  755SOL    HW2 2265   2.297   0.101   1.502  1.9887  0.8118  3.5198
  756SOL     OW 2266   1.549   1.050   2.387 -0.2186  0.3373 -0.2850
  756SOL    HW1 2267   1.510   0.953   2.386 -1.0678 -3.3250 -1.1479
  756SOL    HW2 2268   1.549   1.084   2.289 -1.5137  1.2619 -2.2732
  757SOL     OW 2269   2.796   2.763   1.643  0.0136  0.2756 -0.5797
  757SOL    HW1 2270   2.777   2.855   1.681 -0.0889 -0.8313 -1.6687
  757SOL    HW2 2271   2.752   2.735   1.559 -0.6794 -1.0150 -2.2792
  758SOL     OW 2272   0.288   0.303   1.433  0.3561 -0.3496 -0.1406
  758SOL    HW1 2273   0.231   0.360   1.496  3.5624  3.2177 -0.0591
  758SOL    HW2 2274   0.304   0.214   1.481  1.4019  0.4036  2.2665
  759SOL     OW 2275   2.319   1.328   0.581  0.0009 -0.0670 -0.4960
  759SOL    HW1 2276   2.391   1.287   0.641 -0.5370  2.1399 -1.0445
  759SOL    HW2 2277   2.355   1.406   0.527  1.8171 -0.4420 -2.0319
  760SOL     OW 2278   1.902   0.179   1.671  0.3036  0.5342 -0.1293
  760SOL    HW1 2279   1.815   0.226   1.702  1.3622 -0.7199 -0.4719
  760SOL    HW2 2280   1.965   0.235   1.611  0.9493 -2.4582 -0.6387
  761SOL     OW 2281   1.927   0.217   0.450 -0.8467 -0.4857  0.5401
  761SOL    HW1 2282   2.000   0.230   0.380 -0.0973 -1.6880 -3.1937
  761SOL    HW2 2283   1.833   0.231   0.406  2.0891 -1.9178  0.4820
  762SOL     OW 2284   2.257   2.626   0.026  0.6672 -0.1705  0.6914
  762SOL    HW1 2285   2.324   2.605   3.066 -1.0038 -1.5408 -0.1283
  762SOL    HW2 2286   2.165   2.602   3.105 -1.8464  0.5308 -1.1296
  763SOL     OW 2287   1.134   0.821   1.095  0.2458 -0.0059  0.2441
  763SOL    HW1 2288   1.097   0.826   1.000 -0.0026  0.6520  0.1106
  763SOL    HW2 2289   1.233   0.800   1.093 -2.2647 -0.4387 -0.0216
  764SOL     OW 2290   2.143   2.399   2.729 -0.0212  0.6694  0.1640
  764SOL    HW1 2291   2.079   2.479   2.740 -1.2201  2.2407 -0.4640
  764SOL    HW2 2292   2.113   2.344   2.653  0.4056  0.5547  3.0512
  765SOL     OW 2293   0.261   0.779   2.134 -0.0906  0.1029 -0.3990
  765SOL    HW1 2294   0.298   0.733   2.217  0.2177 -0.1140 -1.7295
  765SOL    HW2 2295   0.314   0.747   2.053 -1.3216 -1.1998  0.3751
  766SOL     OW 2296   2.900   1.533   2.556  0.1842  0.4605  0.4160
  766SOL    HW1 2297   2.846   1.504   2.636 -1.7454 -0.2210 -0.5091
  766SOL    HW2 2298   2.857   1.487   2.477 -1.3773 -3.6104  1.5451
  767SOL     OW 2299   0.118   1.579   2.016  0.1460 -0.2657 -0.2952
  767SOL    HW1 2300   0.195   1.529   2.062 -0.4215  0.3650 -0.1091
  767SOL    HW2 2301   0.026   1.557   2.061  1.4347  1.7400  2.7080
  768SOL     OW 2302   0.986   1.009   0.067 -0.3154 -0.3453  0.3181
  768SOL    HW1 2303   1.000   0.943   0.144  0.2560  1.3976  0.0405
  768SOL    HW2 2304   1.079   1.056   0.044  3.0691  2.2444  0.0425
  769SOL     OW 2305   1.751   2.762   2.890  0.2494  0.3094 -0.3261
  769SOL    HW1 2306   1.694   2.753   2.972  0.1864 -0.4779 -1.8865
  769SOL    HW2 2307   1.756   2.858   2.852 -2.7586  1.5768  0.3497
  770SOL     OW 2308   0.413   0.262   2.291 -0.2415 -0.1223  0.2443
  770SOL    HW1 2309   0.322   0.246   2.331  1.8840  0.2657 -2.9299
  770SOL    HW2 2310   0.415   0.338   2.223  0.9300 -1.9090  2.6516
  771SOL     OW 2311   0.917   2.343   1.084  0.2615 -0.1649 -0.2462
  771SOL    HW1 2312   0.873   2.427   1.120  3.7983 -1.3074 -1.8512
  771SOL    HW2 2313   0.890   2.334   0.988 -1.7346  2.0454  1.0228
  772SOL     OW 2314   0.417   0.586   3.026 -0.7259  0.3197  0.6280
  772SOL    HW1 2315   0.421   0.581   2.924 -1.9410 -1.0830  0.0450
  772SOL    HW2 2316   0.386   0.677   3.053  0.5695 -1.5454 -1.9757
  773SOL     OW 2317   2.126   0.833   1.808  0.4041 -0.1818  0.1031
  773SOL    HW1 2318   2.197   0.883   1.756 -1.2723  1.6001  1.2495
  773SOL    HW2 2319   2.075   0.762   1.752 -1.5777  1.1932  0.6061
  774SOL     OW 2320   1.092   1.245   0.652 -0.3548  0.4563  0.2575
  774SOL    HW1 2321   1.060   1.144   0.653 -0.2883 -2.6162 -0.7043
  774SOL    HW2 2322   1.151   1.260   0.731 -0.5229  0.4259  0.4151
  775SOL     OW 2323   2.080   0.223   2.804  0.2554 -0.4756  0.1065
  775SOL    HW1 2324   2.060   0.142   2.863 -0.9612  0.7373  0.3076
  775SOL    HW2 2325   2.072   0.199   2.705 -0.3408 -1.6540 -0.4227
  776SOL     OW 2326   2.420   0.094   2.668  0.1097  0.2440 -0.2254
  776SOL    HW1 2327   2.516   0.081   2.643  2.1308  0.6149  0.5517
  776SOL    HW2 2328   2.367   0.010   2.656 -0.3419  0.6717  0.2684
  777SOL     OW 2329   0.826   1.586   0.135 -0.7097  0.3437  0.3857
  777SOL    HW1 2330   0.770   1.509   0.095  1.1267 -0.5265  1.0638
  777SOL    HW2 2331   0.802   1.676   0.103  1.3175 -4.2330  2.0319
  778SOL     OW 2332   0.672   2.890   0.123 -0.2931  0.0152  0.1219
  778SOL    HW1 2333   0.583   2.917   0.161  0.1649  1.9056 -3.0419
  778SOL    HW2 2334   0.748   2.899   0.191  2.1962  1.0773  0.5384
  779SOL     OW 2335   0.057   1.102   2.999  0.1061  0.0318 -0.3324
  779SOL    HW1 2336   3.096   1.130   3.070 -0.8125  0.6659 -2.9746
  779SOL    HW2 2337   0.092   1.011   3.026 -0.1059  2.2796  0.1486
  780SOL     OW 2338   2.299   0.528   2.455 -0.8015  0.1924 -0.2190
  780SOL    HW1 2339   2.222   0.510   2.401  3.3002 -0.9233  3.8695
  780SOL    HW2 2340   2.310   0.449   2.521 -0.9488 -1.5391 -1.2835
  781SOL     OW 2341   1.889   0.653   1.779  0.2509 -0.6538  0.5920
  781SOL    HW1 2342   1.884   0.609   1.871  2.8290 -0.0491  0.3715
  781SOL    HW2 2343   1.943   0.595   1.710  0.4183 -1.2534 -0.4960
  782SOL     OW 2344   1.724   1.823   2.378  0.0864 -0.2632  0.5997
  782SOL    HW1 2345   1.639   1.870   2.346 -0.4311  1.2294 -1.4026
  782SOL    HW2 2346   1.781   1.780   2.301 -0.1711 -3.5909 -2.4812
  783SOL     OW 2347   1.269   3.025   1.113 -0.2892  0.6025  0.4186
  783SOL    HW1 2348   1.297   2.957   1.181 -3.3733  2.3947 -3.2240
  783SOL    HW2 2349   1.223   2.980   1.027 -1.1287 -3.9790 -1.6049
  784SOL     OW 2350   1.462   0.769   2.399  0.2923 -0.2127 -0.2087
  784SOL    HW1 2351   1.549   0.714   2.395  1.0713 -0.2562  1.1964
  784SOL    HW2 2352   1.407   0.748   2.482  0.3324 -1.8796 -0.5956
  785SOL     OW 2353   1.953   0.454   2.561  0.1373 -0.2589  0.5354
  785SOL    HW1 2354   2.001   0.508   2.629 -0.8148  0.3179  0.9960
  785SOL    HW2 2355   1.856   0.443   2.591 -1.4315 -0.5343 -0.5067
  786SOL     OW 2356   0.011   1.312   0.827  0.3756  0.1925 -0.2488
  786SOL    HW1 2357   0.011   1.242   0.754  2.8727  0.3407 -1.8620
  786SOL    HW2 2358   0.063   1.392   0.792 -1.0931 -1.8124  2.0441
  787SOL     OW 2359   1.569   1.903   0.313  0.1109 -0.0826  0.0032
  787SOL    HW1 2360   1.598   1.999   0.273 -0.9750  5.1491 -1.3294
  787SOL    HW2 2361   1.652   1.858   0.353  2.0377  0.7417  1.2040
  788SOL     OW 2362   2.049   1.703   1.469  0.3458 -0.5567 -0.0333
  788SOL    HW1 2363   2.006   1.706   1.376 -1.5061  1.1780 -0.5942
  788SOL    HW2 2364   2.078   1.800   1.495  0.2172  1.5025  2.9311
  789SOL     OW 2365   0.012   1.253   2.472 -0.3388  0.0835  0.5488
  789SOL    HW1 2366   0.018   1.171   2.413 -0.3017  0.8969 -1.8877
  789SOL    HW2 2367   0.036   1.336   2.421 -3.3604 -2.7686  1.1985
  790SOL     OW 2368   0.604   0.054   2.838  0.6055  0.1865  0.1093
  790SOL    HW1 2369   0.549   0.064   2.924 -0.0661  0.0561  2.3045
  790SOL    HW2 2370   0.548   0.082   2.762  0.8427  1.9517 -1.3265
  791SOL     OW 2371   0.791   0.209   2.204 -0.0501  0.3574  0.2601
  791SOL    HW1 2372   0.755   0.189   2.296  1.2318 -1.2243  1.2920
  791SOL    HW2 2373   0.779   0.125   2.141 -0.0475 -1.2222 -1.4227
  792SOL     OW 2374   2.076   0.499   2.308  0.1009  0.1844 -0.0163
  792SOL    HW1 2375   2.092   0.601   2.297 -0.6947 -1.4299  1.6747
  792SOL    HW2 2376   2.012   0.474   2.387  1.2931 -2.5038  1.0833
  793SOL     OW 2377   2.606   0.667   1.573 -0.1627  0.2723  0.2330
  793SOL    HW1 2378   2.687   0.622   1.523  1.1675 -0.8982  1.2960
  793SOL    HW2 2379   2.535   0.597   1.581  0.7379  1.4346 -1.4810
  794SOL     OW 2380   0.158   0.491   1.620 -0.5162 -0.4755 -0.1900
  794SOL    HW1 2381   0.146   0.591   1.605 -2.3778  0.7009 -2.9644
  794SOL    HW2 2382   0.197   0.462   1.713 -2.1545  1.0767  5.1111
  795SOL     OW 2383   2.943   1.331   0.370 -0.7866  0.3830  0.6178
  795SOL    HW1 2384   2.930   1.382   0.456  2.4685 -0.4371 -1.5670
  795SOL    HW2 2385   3.033   1.354   0.328 -3.0464  1.8201  0.3046
  796SOL     OW 2386   0.245   2.871   0.026 -0.2477  0.7049  0.0910
  796SOL    HW1 2387   0.274   2.890   0.122  2.7004 -0.8948 -2.3430
  796SOL    HW2 2388   0.192   2.945   3.088  1.7369  0.0412  1.1416
  797SOL     OW 2389   2.009   2.574   3.052  0.0465 -0.1122 -0.3188
  797SOL    HW1 2390   1.922   2.556   3.106 -1.8242 -0.8726 -1.4087
  797SOL    HW2 2391   1.982   2.603   2.956  1.9440  1.8081  1.8889
  798SOL     OW 2392   0.055   1.082   1.580 -0.1623  0.3081 -1.1846
  798SOL    HW1 2393   0.158   1.073   1.587  0.1420  2.2853 -3.4914
  798SOL    HW2 2394   0.030   1.098   1.481  1.3952 -1.0221 -1.0296
  799SOL     OW 2395   2.994   0.850   2.819  0.0739 -0.4025  0.1102
  799SOL    HW1 2396   3.055   0.919   2.777 -1.0596  1.6177  3.2364
  799SOL    HW2 2397   3.039   0.761   2.835 -0.7856 -0.9073  2.0259
  800SOL     OW 2398   2.861   1.915   0.751  0.3797  0.2195  0.3791
  800SOL    HW1 2399   2.889   1.835   0.692  1.5976  2.5795 -0.4723
  800SOL    HW2 2400   2.943   1.962   0.792  1.4271  0.3621  0.3436
  801SOL     OW 2401   1.770   1.034   0.947 -0.0478 -0.0888 -0.4248
  801SOL    HW1 2402   1.824   1.067   0.870 -3.1904 -2.8424  0.7973
  801SOL    HW2 2403   1.774   1.092   1.027 -1.8162 -1.8657 -0.9154
  802SOL     OW 2404   1.142   1.956   1.485  0.0504 -0.1500  0.0776
  802SOL    HW1 2405   1.241   1.952   1.506 -0.2345  0.0587 -2.0346
  802SOL    HW2 2406   1.122   2.023   1.416  0.6722 -2.6115  2.8647
  803SOL     OW 2407   0.159   1.859   0.460 -0.0974  0.1947 -0.6246
  803SOL    HW1 2408   0.122   1.881   0.556 -0.7967 -1.1438  2.1396
  803SOL    HW2 2409   0.105   1.914   0.397 -0.9064  2.2052  0.9550
  804SOL     OW 2410   1.083   2.645   1.460 -0.0575  0.5515 -0.1405
  804SOL    HW1 2411   1.109   2.620   1.553  1.6024  1.3446  1.0004
  804SOL    HW2 2412   1.087   2.564   1.395  1.6579  0.4932 -0.9107
  805SOL     OW 2413   1.711   1.074   0.287 -0.4798  0.0951 -0.4573
  805SOL    HW1 2414   1.613   1.089   0.262  1.4778  1.2035 -3.6275
  805SOL    HW2 2415   1.776   1.152   0.270  0.7238  0.9097  0.0487
  806SOL     OW 2416   1.427   0.028   0.918 -0.4398 -0.5179 -0.2062
  806SOL    HW1 2417   1.389   0.021   0.821 -0.6734  0.2810  1.0487
  806SOL    HW2 2418   1.362   3.092   0.980  1.1909  2.1199  0.5601
  807SOL     OW 2419   2.362   3.013   3.020  0.1242  0.4316 -0.3189
  807SOL    HW1 2420   2.370   0.000   2.992  3.0930  0.3120  1.5141
  807SOL    HW2 2421   2.435   2.959   2.975  2.4222  0.7240  3.6831
  808SOL     OW 2422   2.959   1.130   0.091 -0.1951  0.4736 -0.3771
  808SOL    HW1 2423   2.870   1.171   0.057 -0.6462 -0.8045  0.1363
  808SOL    HW2 2424   2.971   1.143   0.191  1.1012  1.8719 -3.8171
  809SOL     OW 2425   2.809   0.895   2.400 -0.2040  0.0485  0.8799
  809SOL    HW1 2426   2.818   0.817   2.461 -0.4665 -1.7235 -0.3932
  809SOL    HW2 2427   2.754   0.866   2.316 -0.6719  0.7967  0.8320
  810SOL     OW 2428   2.239   2.846   2.004  0.6032  0.0211  0.1581
  810SOL    HW1 2429   2.183   2.813   1.925 -0.4730 -1.4554 -1.9948
  810SOL    HW2 2430   2.221   2.805   2.096  3.8083 -1.2024 -0.1168
  811SOL     OW 2431   2.470   2.614   1.873  0.5364 -0.5350 -0.0987
  811SOL    HW1 2432   2.461   2.717   1.870 -0.3388 -1.5217  0.6670
  811SOL    HW2 2433   2.556   2.582   1.828  0.9850 -1.6038 -0.5266
  812SOL     OW 2434   1.769   0.324   2.988  0.0172 -0.0519 -0.2287
  812SOL    HW1 2435   1.787   0.295   2.892 -0.9439 -0.9389  1.1327
  812SOL    HW2 2436   1.800   0.252   3.054  0.1551  3.1021 -1.7177
  813SOL     OW 2437   2.185   3.107   2.096  0.2158 -0.2103 -0.3377
  813SOL    HW1 2438   2.215   3.025   2.046 -2.7260  1.4377  3.0749
  813SOL    HW2 2439   2.141   0.059   2.027 -1.4046  0.1403  1.3459
  814SOL     OW 2440   1.893   1.130   1.626 -0.2803 -0.0076 -0.3700
  814SOL    HW1 2441   1.975   1.178   1.664  2.1813  0.2735 -1.9192
  814SOL    HW2 2442   1.813   1.187   1.644 -0.4264  1.0567 -1.4976
  815SOL     OW 2443   0.496   0.726   0.550 -0.0183  0.2294  0.2395
  815SOL    HW1 2444   0.490   0.688   0.455  0.6580 -0.8934 -0.6290
  815SOL    HW2 2445   0.536   0.820   0.552  0.7629  0.9291  1.8797
  816SOL     OW 2446   2.066   1.473   2.897  0.4514 -0.3985 -0.5388
  816SOL    HW1 2447   2.065   1.442   2.801 -0.8024  1.0804  0.6371
  816SOL    HW2 2448   1.972   1.500   2.934  1.5042  0.1775  1.8673
  817SOL     OW 2449   0.130   2.866   0.456  0.0177  0.4271  0.0247
  817SOL    HW1 2450   0.224   2.859   0.425 -1.9322  1.7086 -0.1747
  817SOL    HW2 2451   0.124   2.824   0.552  1.9921 -1.6325  0.1381
  818SOL     OW 2452   2.030   0.173   2.540 -0.5761  0.2961  0.0244
  818SOL    HW1 2453   2.097   0.176   2.465  1.1872  0.0153  0.5760
  818SOL    HW2 2454   1.976   0.256   2.549  6.1243 -1.1932  0.0314
  819SOL     OW 2455   1.226   0.963   0.374  0.0500  0.2871  0.4445
  819SOL    HW1 2456   1.269   0.885   0.424 -0.6874 -0.1145  1.0903
  819SOL    HW2 2457   1.132   0.942   0.346 -2.6727 -0.9303  0.7985
  820SOL     OW 2458   2.116   1.004   0.797 -0.0740  0.5657  0.1644
  820SOL    HW1 2459   2.214   0.978   0.769  1.1626 -0.9914  0.3964
  820SOL    HW2 2460   2.088   1.096   0.774  2.1948  1.5071  0.3216
  821SOL     OW 2461   2.306   0.030   0.558 -0.2368 -0.2232 -0.6012
  821SOL    HW1 2462   2.321   3.083   0.475 -1.0277  1.6644  0.5522
  821SOL    HW2 2463   2.209   0.024   0.587  1.1496 -1.7972 -0.5333
  822SOL     OW 2464   0.541   2.752   2.586 -0.1126  0.3943  0.0309
  822SOL    HW1 2465   0.613   2.744   2.658  2.8909  0.5276  0.2818
  822SOL    HW2 2466   0.480   2.670   2.592 -1.4470 -0.6196  2.5074
  823SOL     OW 2467   0.097   2.191   1.933  0.2622  0.2737  0.0013
  823SOL    HW1 2468   0.036   2.200   2.013  0.4040 -0.0248  1.3967
  823SOL    HW2 2469   0.077   2.271   1.870  2.1356  1.0575  1.7016
  824SOL     OW 2470   0.688   3.055   2.014 -0.2693 -0.7177 -0.0872
  824SOL    HW1 2471   0.756   2.983   2.034  1.1833  0.4284  2.3037
  824SOL    HW2 2472   0.708   3.104   1.927  0.2205 -0.6956  1.4461
  825SOL     OW 2473   1.374   1.485   0.407  0.1394  0.0935 -0.0791
  825SOL    HW1 2474   1.334   1.421   0.340  2.4337  2.0763  1.1376
  825SOL    HW2 2475   1.406   1.569   0.359 -1.1714  1.5723 -0.7646
  826SOL     OW 2476   1.521   0.397   3.043  0.1350 -0.2262  0.5436
  826SOL    HW1 2477   1.617   0.364   3.020 -0.6608  1.9394  0.9995
  826SOL    HW2 2478   1.469   0.325   3.083  2.4465  0.6541 -0.5800
  827SOL     OW 2479   0.317   1.549   1.431  0.3493 -0.7544  0.0443
  827SOL    HW1 2480   0.406   1.579   1.473  1.4221  0.4040 -0.6202
  827SOL    HW2 2481   0.327   1.529   1.333 -0.5572  0.7812  0.3798
  828SOL     OW 2482   2.254   1.234   1.722 -0.2593  0.4454  0.0729
  828SOL    HW1 2483   2.209   1.287   1.645  2.5331  1.2342 -4.2752
  828SOL    HW2 2484   2.256   1.138   1.688  0.8120 -2.8533  0.6938
  829SOL     OW 2485   3.089   2.045   0.268  0.1753 -0.1551 -0.4752
  829SOL    HW1 2486   3.077   1.953   0.224 -2.2173  0.3931  1.1624
  829SOL    HW2 2487   0.008   2.115   0.203  0.8644 -1.3803  0.4418
  830SOL     OW 2488   1.187   0.806   0.810  0.1426 -0.1571  0.5351
  830SOL    HW1 2489   1.285   0.829   0.812  1.1399 -0.3974 -0.6954
  830SOL    HW2 2490   1.134   0.892   0.798  2.3248 -0.3971 -0.7088
  831SOL     OW 2491   3.035   1.911   3.014 -0.1340  0.1709 -0.4532
  831SOL    HW1 2492   2.969   1.861   2.953 -2.5649 -0.8473 -1.2013
  831SOL    HW2 2493   3.012   2.009   3.025  0.1291  0.0283  1.3695
  832SOL     OW 2494   1.065   2.696   0.112 -0.0575  0.3410 -0.6998
  832SOL    HW1 2495   1.084   2.793   0.135 -2.2256  1.6252 -0.6370
  832SOL    HW2 2496   1.142   2.634   0.137  0.8151 -0.1306  0.6903
  833SOL     OW 2497   1.074   0.307   2.261  0.0760 -0.1655 -0.4390
  833SOL    HW1 2498   0.977   0.276   2.251 -2.8304  0.7240 -0.6991
  833SOL    HW2 2499   1.106   0.378   2.189  0.8263 -0.9888 -1.1649
  834SOL     OW 2500   0.169   0.903   0.868 -0.4772 -0.2031  0.1281
  834SOL    HW1 2501   0.073   0.929   0.835 -0.8207  1.2100  1.5967
  834SOL    HW2 2502   0.164   0.803   0.897 -0.7871 -1.6343  0.5554
  835SOL     OW 2503   2.412   0.362   1.977 -0.2786  0.6366 -0.3589
  835SOL    HW1 2504   2.473   0.414   2.036  0.9347  0.5497  0.1973
  835SOL    HW2 2505   2.315   0.379   1.997  3.4424  1.8442 -0.3228
  836SOL     OW 2506   0.643   2.292   0.638 -0.0962  0.0144  0.3381
  836SOL    HW1 2507   0.623   2.366   0.567  0.3807 -1.0346  0.9191
  836SOL    HW2 2508   0.680   2.210   0.592  1.6367 -1.9283 -0.0722
  837SOL     OW 2509   2.082   1.647   2.274 -0.1830  0.0163 -0.1380
  837SOL    HW1 2510   2.117   1.570   2.330 -1.0077  1.3562 -1.4868
  837SOL    HW2 2511   2.143   1.728   2.287  0.2351 -2.1233  2.2788
  838SOL     OW 2512   0.319   1.075   1.588  0.2453 -0.3977  0.3287
  838SOL    HW1 2513   0.388   1.122   1.532 -0.4415  1.8308  1.3082
  838SOL    HW2 2514   0.362   0.989   1.621  0.3813  0.7981  0.4515
  839SOL     OW 2515   0.253   0.307   0.797 -0.0271  0.4546  0.1847
  839SOL    HW1 2516   0.259   0.352   0.706 -0.6984 -0.6733 -1.3101
  839SOL    HW2 2517   0.308   0.222   0.804 -0.2366 -1.6169 -1.2830
  840SOL     OW 2518   0.020   0.453   2.552 -0.6121  0.5557 -0.3805
  840SOL    HW1 2519   0.026   0.468   2.450 -0.1966  1.1884 -1.8340
  840SOL    HW2 2520   0.078   0.527   2.602  4.3035  4.7004  2.6888
  841SOL     OW 2521   0.117   2.643   3.034  0.2963  0.2755  0.3549
  841SOL    HW1 2522   0.138   2.718   2.968 -1.7326  0.1750 -0.0963
  841SOL    HW2 2523   0.168   2.657   0.013  0.4799 -0.2610 -0.0502
  842SOL     OW 2524   0.665   3.048   1.026  0.3156  0.2641 -0.3375
  842SOL    HW1 2525   0.657   0.005   0.953  0.2708 -0.7267  3.8507
  842SOL    HW2 2526   0.581   3.044   1.085 -1.0279 -1.4577  1.0924
  843SOL     OW 2527   0.091   1.632   2.818  0.1235 -0.4266  0.0426
  843SOL    HW1 2528   0.172   1.571   2.850 -0.2050 -2.0510 -1.9918
  843SOL    HW2 2529   3.107   1.593   2.837  0.7424 -0.6709 -0.1821
  844SOL     OW 2530   1.091   2.193   2.264 -0.0531  0.2314  0.4683
  844SOL    HW1 2531   1.155   2.256   2.306 -3.0876 -1.4892 -1.8170
  844SOL    HW2 2532   1.088   2.111   2.319 -1.8324  2.4801  0.6442
  845SOL     OW 2533   2.357   2.644   2.649  0.2462 -0.0800 -0.2754
  845SOL    HW1 2534   2.375   2.683   2.559 -2.0494  2.6015  0.6672
  845SOL    HW2 2535   2.315   2.719   2.706  0.6578 -1.0020 -2.4782
  846SOL     OW 2536   1.886   1.197   2.627 -0.2344 -0.6744  0.1539
  846SOL    HW1 2537   1.806   1.245   2.666  5.5741  0.7283  0.8666
  846SOL    HW2 2538   1.855   1.127   2.558 -1.3182 -3.1728 -0.7195
  847SOL     OW 2539   2.855   0.187   2.960 -0.2274  1.0798  0.3481
  847SOL    HW1 2540   2.871   0.263   2.895  0.1222 -3.2407  0.5070
  847SOL    HW2 2541   2.897   0.217   3.047  1.6003 -0.0083 -1.5270
  848SOL     OW 2542   3.086   0.974   0.402 -0.1382 -0.5892 -0.1789
  848SOL    HW1 2543   0.020   0.898   0.353  1.3385  2.3673  1.5248
  848SOL    HW2 2544   0.053   1.022   0.449  1.1661  2.4182  0.1876
  849SOL     OW 2545   1.207   0.338   2.487 -0.4215  0.4580  0.2869
  849SOL    HW1 2546   1.162   0.331   2.394  5.8424  1.6011 -1.2394
  849SOL    HW2 2547   1.170   0.411   2.540  1.6349 -2.7212  0.8169
  850SOL     OW 2548   0.307   0.968   0.303  0.0131  0.7137  0.2712
  850SOL    HW1 2549   0.338   0.869   0.306  1.9555 -2.6446  2.6981
  850SOL    HW2 2550   0.274   0.980   0.402 -0.5954  0.0632  1.6607
  851SOL     OW 2551   0.559   1.266   0.357 -0.6427  0.7304  0.6298
  851SOL    HW1 2552   0.652   1.291   0.384 -2.8052  0.2186 -0.2979
  851SOL    HW2 2553   0.519   1.334   0.296 -0.7033  1.2823  3.4053
  852SOL     OW 2554   1.280   1.151   1.633  0.4067  0.1757  0.1282
  852SOL    HW1 2555   1.196   1.122   1.575 -0.8492  0.7440 -0.0116
  852SOL    HW2 2556   1.355   1.176   1.570 -1.4138  0.9035  2.0492
  853SOL     OW 2557   2.585   1.708   0.595  0.0876  0.7763 -0.2093
  853SOL    HW1 2558   2.508   1.653   0.556  2.0305 -0.9288  0.3808
  853SOL    HW2 2559   2.677   1.655   0.593  1.3281 -0.8529  0.8484
  854SOL     OW 2560   1.560   1.134   2.129  0.9169 -0.4077  0.8127
  854SOL    HW1 2561   1.491   1.130   2.054  2.3699 -2.7769  0.0827
  854SOL    HW2 2562   1.579   1.233   2.150  1.0158  0.8127  1.1634
  855SOL     OW 2563   0.322   2.590   2.729 -0.9495  0.0902  0.3577
  855SOL    HW1 2564   0.363   2.545   2.810  0.3606 -0.8381 -2.0071
  855SOL    HW2 2565   0.255   2.658   2.751 -0.1202 -2.2798 -0.1455
  856SOL     OW 2566   0.980   1.029   2.109 -0.5177 -0.1673  0.2608
  856SOL    HW1 2567   0.961   1.026   2.014  1.8368  0.3805  0.6622
  856SOL    HW2 2568   1.018   1.122   2.134 -4.2842 -0.2564  1.5620
  857SOL     OW 2569   0.873   0.994   2.371 -0.3708 -0.0954  0.3007
  857SOL    HW1 2570   0.892   1.008   2.272 -1.0604  0.7907  0.6006
  857SOL    HW2 2571   0.775   0.983   2.394 -1.0487  0.9582 -0.0144
  858SOL     OW 2572   2.797   1.079   1.742 -0.5331  0.1874  0.0501
  858SOL    HW1 2573   2.762   1.164   1.701 -0.5402 -1.1226 -1.4008
  858SOL    HW2 2574   2.894   1.077   1.772 -1.9646 -0.1573  0.9987
  859SOL     OW 2575   2.696   2.937   0.627 -0.3918  0.2953 -0.4586
  859SOL    HW1 2576   2.795   2.917   0.653  3.5767  1.0259  1.4451
  859SOL    HW2 2577   2.629   2.885   0.687  0.5890 -0.8394  1.5331
  860SOL     OW 2578   1.665   0.184   0.817  0.3183  0.2213  0.3933
  860SOL    HW1 2579   1.608   0.098   0.827  0.9232  2.0557 -0.3981
  860SOL    HW2 2580   1.729   0.192   0.896 -5.1978  0.1073  1.6988
  861SOL     OW 2581   1.628   0.640   0.962 -0.4341  0.3197  0.2616
  861SOL    HW1 2582   1.586   0.588   1.046  3.1054 -3.5922  0.7829
  861SOL    HW2 2583   1.595   0.611   0.870  1.4136 -0.6765 -5.2841
  862SOL     OW 2584   1.436   3.063   2.555  0.3765  0.2071 -0.1408
  862SOL    HW1 2585   1.417   2.991   2.487 -0.2535  1.1483  0.3946
  862SOL    HW2 2586   1.431   0.049   2.522  1.4714  0.2086  1.3950
  863SOL     OW 2587   2.899   2.848   1.221  0.6828  0.5460 -0.3326
  863SOL    HW1 2588   2.912   2.934   1.171  1.3108 -0.4618  2.5320
  863SOL    HW2 2589   2.827   2.793   1.174 -0.1763 -0.2089  0.0822
  864SOL     OW 2590   2.559   0.158   2.327  0.3790 -0.4221 -0.0379
  864SOL    HW1 2591   2.602   0.213   2.396 -1.9962 -0.6401 -3.4951
  864SOL    HW2 2592   2.458   0.184   2.317 -1.2017  0.7491  0.0057
  865SOL     OW 2593   1.224   1.475   2.547 -0.0535 -0.1405 -0.0313
  865SOL    HW1 2594   1.140   1.422   2.537  2.0827  1.3433  0.2045
  865SOL    HW2 2595   1.214   1.553   2.614  0.4489  0.2180  1.2069
  866SOL     OW 2596   2.203   2.860   0.902  0.3305  0.5872  0.9826
  866SOL    HW1 2597   2.212   2.794   0.830 -1.8410 -0.4753  2.1120
  866SOL    HW2 2598   2.176   2.810   0.987  1.5150  1.5489  1.2318
  867SOL     OW 2599   2.699   2.816   1.027  0.3057 -0.2023  0.7921
  867SOL    HW1 2600   2.715   2.905   0.977  1.4613 -2.0694  0.0343
  867SOL    HW2 2601   2.721   2.725   0.977  1.6205 -2.4775  0.3063
  868SOL     OW 2602   3.052   1.866   1.428 -0.3223  0.4681 -0.1896
  868SOL    HW1 2603   3.099   1.778   1.448 -1.6391  0.2744  0.4551
  868SOL    HW2 2604   3.038   1.928   1.510 -1.6702  3.1032  2.2867
  869SOL     OW 2605   1.916   2.196   2.460  0.5197  0.0363  0.1001
  869SOL    HW1 2606   1.893   2.293   2.483 -1.3212 -1.1167 -0.0884
  869SOL    HW2 2607   1.910   2.137   2.543  0.2098  0.8165  0.3544
  870SOL     OW 2608   1.314   1.116   0.925  0.0557 -0.0476  0.1006
  870SOL    HW1 2609   1.392   1.052   0.913  0.4769 -0.2329 -2.0361
  870SOL    HW2 2610   1.348   1.213   0.908  0.8393  2.9785  2.1762
  871SOL     OW 2611   2.883   1.802   2.115 -0.2586  0.2349 -0.3091
  871SOL    HW1 2612   2.833   1.849   2.193  0.0031 -0.4342  0.5660
  871SOL    HW2 2613   2.902   1.706   2.135  2.3536 -0.4533  3.1025
  872SOL     OW 2614   0.988   1.691   2.892 -0.6713  0.4799  0.0411
  872SOL    HW1 2615   1.042   1.638   2.961  3.0602 -1.8345  0.9383
  872SOL    HW2 2616   0.904   1.645   2.866 -1.5786 -0.7679  0.0831
  873SOL     OW 2617   0.820   1.253   2.041 -0.0097  0.1575  0.2024
  873SOL    HW1 2618   0.767   1.170   2.027  1.1574  1.2438  0.8643
  873SOL    HW2 2619   0.848   1.293   1.949  1.1942  3.1666 -0.3136
  874SOL     OW 2620   1.547   0.970   1.522  0.3987  0.0526 -0.3935
  874SOL    HW1 2621   1.621   0.915   1.565 -1.6835  0.1660  1.6428
  874SOL    HW2 2622   1.554   1.066   1.549  0.1215 -2.3673 -0.6756
  875SOL     OW 2623   2.964   0.292   0.103 -0.3034 -0.5110 -0.4853
  875SOL    HW1 2624   2.927   0.252   0.188  0.0072 -1.0107  2.1102
  875SOL    HW2 2625   2.935   0.390   0.090 -0.2180 -0.7837 -0.0408
  876SOL     OW 2626   0.907   1.260   0.175  0.2253 -0.2063  0.4789
  876SOL    HW1 2627   0.978   1.268   0.248 -1.3914 -0.6277  1.6287
  876SOL    HW2 2628   0.907   1.166   0.132 -0.6428 -0.0304 -3.0333
  877SOL     OW 2629   2.362   2.825   0.580  0.5296 -0.3334  0.0989
  877SOL    HW1 2630   2.298   2.756   0.538  0.6543  0.5839 -2.3812
  877SOL    HW2 2631   2.385   2.896   0.510  1.1032 -0.7506 -0.8903
  878SOL     OW 2632   1.937   1.956   0.319  0.4045 -0.0909  0.1293
  878SOL    HW1 2633   1.998   1.999   0.389  0.2688 -2.1062  2.4752
  878SOL    HW2 2634   1.860   2.018   0.296  0.2219 -1.3115 -0.5211
  879SOL     OW 2635   0.090   1.855   2.040  1.0644 -0.6049 -0.6309
  879SOL    HW1 2636   0.106   1.759   2.021 -2.0795  1.8125  0.3756
  879SOL    HW2 2637   0.017   1.892   1.976 -0.3356 -0.2245 -0.3476
  880SOL     OW 2638   0.403   1.953   0.823 -0.0441 -0.6256 -0.5806
  880SOL    HW1 2639   0.347   2.013   0.886 -0.5058  1.1147 -0.2808
  880SOL    HW2 2640   0.386   1.855   0.846  0.1144 -0.2493  2.6280
  881SOL     OW 2641   1.192   0.163   1.955 -0.4429 -0.7807  0.7964
  881SOL    HW1 2642   1.235   0.182   2.044 -0.4245 -0.1820  0.7910
  881SOL    HW2 2643   1.208   0.241   1.891 -3.3004 -1.7238 -1.1345
  882SOL     OW 2644   2.391   0.960   0.795 -0.5084 -0.2901  0.0885
  882SOL    HW1 2645   2.470   0.923   0.738  0.4899  0.7338  2.1295
  882SOL    HW2 2646   2.392   0.927   0.893 -0.1529 -2.1075  2.1311
  883SOL     OW 2647   1.671   0.324   1.724 -0.3784  0.6009 -0.2784
  883SOL    HW1 2648   1.659   0.422   1.702  1.0808  0.4379  1.8008
  883SOL    HW2 2649   1.640   0.305   1.819  0.3710  1.6138  0.2238
  884SOL     OW 2650   2.879   0.044   1.944  0.3338 -0.0764 -0.0058
  884SOL    HW1 2651   2.812   0.047   2.024 -2.5519  1.3277  0.9808
  884SOL    HW2 2652   2.977   0.046   1.971 -1.8604 -0.6211 -2.3900
  885SOL     OW 2653   1.670   1.346   2.702 -0.1563 -0.8243 -0.1226
  885SOL    HW1 2654   1.718   1.428   2.663 -1.1360 -0.1569  0.5679
  885SOL    HW2 2655   1.581   1.392   2.727 -2.2200 -0.4600  0.7835
  886SOL     OW 2656   2.178   0.466   2.868  0.3976  0.1052  0.5185
  886SOL    HW1 2657   2.156   0.372   2.835  0.7248  0.6504  2.9782
  886SOL    HW2 2658   2.153   0.543   2.805 -1.6145 -1.6804  0.9044
  887SOL     OW 2659   0.969   2.864   1.710 -0.0265  0.1988 -0.3650
  887SOL    HW1 2660   0.915   2.939   1.666 -0.7393  2.3680  0.8844
  887SOL    HW2 2661   1.075   2.874   1.701  2.5819 -1.6395  0.8300
  888SOL     OW 2662   1.843   1.704   2.151 -0.0527  0.3420 -0.3651
  888SOL    HW1 2663   1.833   1.667   2.055 -1.2311 -1.1614 -1.0530
  888SOL    HW2 2664   1.928   1.674   2.197 -1.0646 -1.1952 -2.5095
  889SOL     OW 2665   1.909   2.429   1.282  0.0236  0.2970  1.4715
  889SOL    HW1 2666   1.961   2.481   1.353 -0.4342 -0.2980 -0.0690
  889SOL    HW2 2667   1.876   2.339   1.315  0.6074  0.6218 -1.3401
  890SOL     OW 2668   1.270   1.669   1.168  0.0599  0.6313 -0.4805
  890SOL    HW1 2669   1.275   1.656   1.270 -0.1109 -0.7865  2.2296
  890SOL    HW2 2670   1.170   1.686   1.149 -0.8039 -0.1247  1.5023
  891SOL     OW 2671   2.771   1.365   0.142 -0.3772  0.0662  0.0168
  891SOL    HW1 2672   2.685   1.314   0.156 -1.3354  1.9005  1.6492
  891SOL    HW2 2673   2.824   1.353   0.231  2.5989  0.9305  1.0531
  892SOL     OW 2674   2.455   1.537   0.168  0.2039  0.0913  0.2033
  892SOL    HW1 2675   2.478   1.512   0.070 -3.0949 -3.5365  2.5840
  892SOL    HW2 2676   2.435   1.635   0.185 -0.1079 -1.7059 -0.6903
  893SOL     OW 2677   2.029   2.535   1.509  0.0053 -0.3419 -0.1964
  893SOL    HW1 2678   2.024   2.632   1.526 -0.0289 -4.0208 -0.9822
  893SOL    HW2 2679   2.108   2.499   1.568 -0.2436  2.1527  1.0661
  894SOL     OW 2680   2.666   2.647   0.421  0.6759  0.6294  1.0501
  894SOL    HW1 2681   2.693   2.584   0.342  0.8656 -1.9685 -0.3676
  894SOL    HW2 2682   2.606   2.722   0.385 -2.4597  1.4162 -2.2427
  895SOL     OW 2683   2.686   2.584   2.810 -0.1278  0.3179  0.1336
  895SOL    HW1 2684   2.725   2.672   2.787 -1.6405 -0.9604 -1.0880
  895SOL    HW2 2685   2.671   2.535   2.721 -0.5813  0.4595 -0.2841
  896SOL     OW 2686   2.380   0.173   3.017 -0.1323 -0.2783 -0.0143
  896SOL    HW1 2687   2.411   0.250   2.966  0.4468  0.2595  1.5105
  896SOL    HW2 2688   2.313   0.204   3.087 -0.6465  1.1334 -2.3483
  897SOL     OW 2689   0.310   1.639   1.802  0.0922  0.3331  0.0732
  897SOL    HW1 2690   0.410   1.656   1.824  1.1800 -0.5550 -0.3009
  897SOL    HW2 2691   0.259   1.609   1.881  0.0164  1.5487 -0.1495
  898SOL     OW 2692   2.652   1.812   1.700  0.4995  0.6725  0.0168
  898SOL    HW1 2693   2.700   1.746   1.764  1.0709 -0.8847 -2.5903
  898SOL    HW2 2694   2.554   1.787   1.691 -0.4824 -0.3164  2.6108
  899SOL     OW 2695   1.649   2.784   1.401  0.4655 -0.4999 -0.5489
  899SOL    HW1 2696   1.626   2.720   1.327 -0.7875  1.0183 -1.9846
  899SOL    HW2 2697   1.753   2.777   1.416  0.2145  2.1319 -0.9378
  900SOL     OW 2698   1.244   1.104   0.049 -0.0076 -0.4284  0.1295
  900SOL    HW1 2699   1.285   1.135   3.068 -0.4359  1.4404  2.4764
  900SOL    HW2 2700   1.308   1.055   0.110  1.9451 -0.5338  1.4234
  901SOL     OW 2701   1.092   1.149   2.511 -0.4668  0.2630 -0.3091
  901SOL    HW1 2702   1.043   1.239   2.519 -1.1222  1.0425 -0.9754
  901SOL    HW2 2703   1.040   1.090   2.450  1.4527  3.1879  0.1242
  902SOL     OW 2704   2.678   2.103   0.634 -0.9695  0.0568  0.2452
  902SOL    HW1 2705   2.612   2.150   0.696  1.7805  0.3478 -0.5142
  902SOL    HW2 2706   2.734   2.034   0.678 -0.0607  1.0507 -0.7880
  903SOL     OW 2707   2.714   1.475   1.806 -0.1180 -0.4584 -0.1749
  903SOL    HW1 2708   2.753   1.547   1.868  1.7985 -1.7318  0.2180
  903SOL    HW2 2709   2.794   1.427   1.754  3.6064 -1.8334  0.5935
  904SOL     OW 2710   2.233   0.998   0.331 -0.4621 -0.6645 -0.0428
  904SOL    HW1 2711   2.202   1.033   0.239  2.1783 -1.3494  3.0597
  904SOL    HW2 2712   2.322   1.041   0.354  0.2871  1.0448  0.9112
  905SOL     OW 2713   2.202   2.805   1.260  0.8858  0.1025 -0.0407
  905SOL    HW1 2714   2.118   2.861   1.286 -0.0058 -1.3715  0.7692
  905SOL    HW2 2715   2.265   2.798   1.337 -1.6710  1.9210 -2.3807
  906SOL     OW 2716   1.501   2.063   2.980 -0.5496  0.3244 -0.0219
  906SOL    HW1 2717   1.445   2.135   3.023  0.6842  1.6950  0.4166
  906SOL    HW2 2718   1.557   2.111   2.904  1.7219  0.6706 -1.2714
  907SOL     OW 2719   1.030   2.556   0.830  0.1708 -0.0950  0.4142
  907SOL    HW1 2720   1.100   2.494   0.871 -0.6326 -2.9845  0.7865
  907SOL    HW2 2721   1.044   2.554   0.723  2.1319 -0.3898 -1.4370
  908SOL     OW 2722   1.016   3.066   2.050 -0.0185 -0.3159 -0.2367
  908SOL    HW1 2723   0.976   2.975   2.048 -0.3515  2.6504  1.3469
  908SOL    HW2 2724   1.091   3.076   1.979 -0.7948  1.9416 -1.5476
  909SOL     OW 2725   2.031   0.144   1.947  0.2079 -0.4243  0.4726
  909SOL    HW1 2726   2.003   0.133   1.852  0.6436 -0.4673  0.3388
  909SOL    HW2 2727   1.957   0.117   2.011  1.3919 -1.1240 -0.5828
  910SOL     OW 2728   1.019   0.885   2.846 -0.5054  0.6429  0.4405
  910SOL    HW1 2729   0.982   0.856   2.754  0.1329  1.3642  0.8785
  910SOL    HW2 2730   0.989   0.829   2.920  2.5429  1.2648 -1.3244
  911SOL     OW 2731   0.007   0.738   0.051 -1.1936 -0.0718 -0.3233
  911SOL    HW1 2732   3.022   0.754   0.021  1.1851  0.6537  0.2890
  911SOL    HW2 2733   0.012   0.716   0.151  0.7065  1.6786 -0.6365
  912SOL     OW 2734   2.766   2.416   3.009 -0.1496  0.1996 -0.1245
  912SOL    HW1 2735   2.733   2.478   2.932  0.1702 -0.0045 -0.9169
  912SOL    HW2 2736   2.859   2.436   3.044  1.2801 -0.0700  1.7887
  913SOL     OW 2737   2.717   2.185   2.705  0.1759 -0.0490  0.3650
  913SOL    HW1 2738   2.688   2.274   2.663  0.0036  2.3756  0.9313
  913SOL    HW2 2739   2.812   2.193   2.736 -0.6425  0.4962  1.9472
  914SOL     OW 2740   1.793   1.723   1.631  0.2673  0.1914  0.7738
  914SOL    HW1 2741   1.751   1.808   1.600 -0.8252 -1.1314  2.2499
  914SOL    HW2 2742   1.892   1.709   1.603  0.4044 -2.8175  1.6837
  915SOL     OW 2743   0.242   2.593   2.074  0.1467  0.3529 -0.4966
  915SOL    HW1 2744   0.306   2.557   2.005  2.1785 -0.4969  0.2645
  915SOL    HW2 2745   0.287   2.603   2.167 -0.1773  0.5243  0.8255
  916SOL     OW 2746   0.249   1.345   1.646  0.0169  0.2382 -0.4411
  916SOL    HW1 2747   0.282   1.385   1.558 -1.4961  0.6977  0.5627
  916SOL    HW2 2748   0.259   1.239   1.650  0.4636 -2.6742  2.1276
  917SOL     OW 2749   2.619   0.110   0.008  0.0436 -0.0785  0.4372
  917SOL    HW1 2750   2.526   0.127   3.084  2.7098 -1.7250  1.1302
  917SOL    HW2 2751   2.688   0.162   3.063  1.3393 -1.0624  1.7544
  918SOL     OW 2752   1.740   2.585   2.361  0.3902 -0.6560 -0.2968
  918SOL    HW1 2753   1.671   2.634   2.420 -1.0206 -2.9653 -2.0973
  918SOL    HW2 2754   1.794   2.652   2.305 -2.3639 -2.4085 -1.7081
  919SOL     OW 2755   1.799   2.447   1.852  0.6598  0.5620  0.5499
  919SOL    HW1 2756   1.803   2.411   1.752 -0.6473  1.7824 -1.3303
  919SOL    HW2 2757   1.856   2.394   1.916 -0.2124  0.7046 -1.2202
  920SOL     OW 2758   0.566   0.849   0.061 -0.4082  0.0709 -0.0206
  920SOL    HW1 2759   0.574   0.822   3.074 -3.3627 -0.0688  0.8714
  920SOL    HW2 2760   0.558   0.953   0.073  1.6056  2.8128  0.0786
  921SOL     OW 2761   3.054   1.010   2.350 -0.5015  0.4987  0.3627
  921SOL    HW1 2762   2.970   0.959   2.373  0.6580  1.7966 -1.3764
  921SOL    HW2 2763   3.052   1.041   2.253  1.4253 -0.5912 -1.1657
  922SOL     OW 2764   0.314   1.953   0.251 -0.2953  0.5182  0.0188
  922SOL    HW1 2765   0.410   1.938   0.267 -0.0438  0.5713 -0.9198
  922SOL    HW2 2766   0.258   1.926   0.333  0.5114 -1.8411  1.7299
  923SOL     OW 2767   0.512   0.978   1.970 -0.5008 -0.4828 -0.5852
  923SOL    HW1 2768   0.457   1.016   2.053 -3.2265 -1.0068  1.8011
  923SOL    HW2 2769   0.461   0.899   1.926 -1.1752  1.0149  1.9723
  924SOL     OW 2770   1.047   2.938   2.863 -0.5180  0.1032 -0.5565
  924SOL    HW1 2771   1.057   2.999   2.782  1.4200 -1.1979 -0.9164
  924SOL    HW2 2772   0.950   2.935   2.897 -1.8597 -1.6907  1.7180
  925SOL     OW 2773   2.507   1.373   1.443  0.6037 -0.5374  0.2612
  925SOL    HW1 2774   2.437   1.405   1.373  0.8606  0.2732 -3.4436
  925SOL    HW2 2775   2.493   1.398   1.539  0.3477 -1.0977  0.1022
  926SOL     OW 2776   2.169   0.332   2.080 -0.2288 -0.7568  0.2116
  926SOL    HW1 2777   2.100   0.276   2.035 -0.1511 -1.7478 -0.1858
  926SOL    HW2 2778   2.125   0.409   2.133 -0.4719  3.6234 -0.5269
  927SOL     OW 2779   2.645   2.512   1.660  0.2464  0.0309  0.6042
  927SOL    HW1 2780   2.720   2.572   1.694 -0.9535 -2.8816  3.5184
  927SOL    HW2 2781   2.680   2.432   1.605 -1.0363 -0.6855  2.1941
  928SOL     OW 2782   0.406   0.845   2.510  0.1790 -0.0572  0.1613
  928SOL    HW1 2783   0.357   0.914   2.567  1.8529  0.5808  0.4538
  928SOL    HW2 2784   0.478   0.887   2.450 -0.4102  1.8731  0.0943
  929SOL     OW 2785   2.561   0.073   0.594  0.3149  0.2698 -0.1554
  929SOL    HW1 2786   2.616   3.095   0.603  1.9444 -1.8496 -0.5285
  929SOL    HW2 2787   2.459   0.057   0.582 -3.3840  2.2349 -0.5781
  930SOL     OW 2788   2.539   0.299   1.649 -0.4924 -0.1894 -0.2847
  930SOL    HW1 2789   2.557   0.227   1.720 -1.3182  0.9256  2.1454
  930SOL    HW2 2790   2.578   0.269   1.558 -0.2216 -0.2472 -3.2223
  931SOL     OW 2791   2.282   1.334   0.217  0.0198 -0.2333 -0.1034
  931SOL    HW1 2792   2.350   1.384   0.158 -1.4588  2.7965  0.7826
  931SOL    HW2 2793   2.324   1.269   0.281 -2.6110  4.4234  0.3541
  932SOL     OW 2794   2.355   1.632   1.554 -0.0925  0.2420  0.5856
  932SOL    HW1 2795   2.387   1.566   1.625 -0.7718  0.4331  1.1300
  932SOL    HW2 2796   2.260   1.621   1.538  2.6389 -2.2891 -3.9064
  933SOL     OW 2797   3.062   2.422   1.281  0.4533  0.1156  0.5339
  933SOL    HW1 2798   3.062   2.413   1.385 -2.2108  0.1948 -1.2674
  933SOL    HW2 2799   3.084   2.327   1.246  0.3490 -0.5637  1.7138
  934SOL     OW 2800   0.758   2.114   1.296 -0.8251 -0.1508 -0.0863
  934SOL    HW1 2801   0.732   2.199   1.248  0.3788 -1.3811  0.1240
  934SOL    HW2 2802   0.792   2.143   1.390  0.3318  0.4140  0.3129
  935SOL     OW 2803   2.550   1.376   2.002  0.3429  0.8798 -0.3374
  935SOL    HW1 2804   2.587   1.294   2.048  0.8029 -0.6084 -0.7556
  935SOL    HW2 2805   2.607   1.390   1.924  0.8919 -0.2307  2.6467
  936SOL     OW 2806   2.371   1.591   1.919  0.1956 -0.4206  0.0381
  936SOL    HW1 2807   2.440   1.659   1.948  0.3583  0.5548 -2.4136
  936SOL    HW2 2808   2.423   1.538   1.848  0.7591 -0.4712 -1.3586
  937SOL     OW 2809   2.016   0.968   2.035  0.6384 -0.3550  0.0180
  937SOL    HW1 2810   1.997   1.069   2.032  0.8669 -4.0702 -1.4855
  937SOL    HW2 2811   2.084   0.941   1.968 -1.5707 -0.8400  0.7992
  938SOL     OW 2812   0.907   2.218   2.808 -0.0917  0.7507 -0.6904
  938SOL    HW1 2813   0.864   2.182   2.889 -0.4900 -0.4348  0.1128
  938SOL    HW2 2814   1.003   2.232   2.833 -0.1720  1.1929 -1.3224
  939SOL     OW 2815   2.521   0.984   3.024  0.0131 -0.4404  0.2382
  939SOL    HW1 2816   2.596   0.945   2.964 -1.7035 -0.9063 -2.3202
  939SOL    HW2 2817   2.457   0.912   3.054  0.2449  3.3988  0.9196
  940SOL     OW 2818   1.018   1.738   1.066  0.1581  0.2069 -0.4240
  940SOL    HW1 2819   0.949   1.665   1.072 -0.6653  1.4735  2.8825
  940SOL    HW2 2820   0.990   1.825   1.113  0.3503  1.2457 -0.2279
  941SOL     OW 2821   0.947   2.395   2.110  0.0765  0.0543 -0.3680
  941SOL    HW1 2822   0.853   2.401   2.144  1.2750  1.4225 -1.7673
  941SOL    HW2 2823   1.014   2.349   2.169  0.7938 -0.1131  2.1076
  942SOL     OW 2824   0.517   2.271   0.011 -0.4997 -0.7587 -0.4245
  942SOL    HW1 2825   0.456   2.242   0.087 -1.4418 -0.5392  2.1719
  942SOL    HW2 2826   0.470   2.346   3.067 -0.7013  0.8102 -2.4365
  943SOL     OW 2827   1.840   2.712   1.912 -0.3896 -0.0655 -0.3750
  943SOL    HW1 2828   1.808   2.616   1.904  0.9807 -0.2097  0.2055
  943SOL    HW2 2829   1.940   2.725   1.887  6.1951 -1.2423  3.0924
  944SOL     OW 2830   1.092   1.538   0.003 -0.1182  0.3303  0.3079
  944SOL    HW1 2831   1.143   1.460   0.044 -2.6898 -0.9939 -0.3590
  944SOL    HW2 2832   1.006   1.552   0.056 -1.7391 -3.8424  1.6896
  945SOL     OW 2833   2.911   2.823   0.772  0.0211 -0.2016 -0.4429
  945SOL    HW1 2834   2.873   2.735   0.799  1.9540  1.6033 -0.3000
  945SOL    HW2 2835   3.002   2.803   0.732 -0.9335  1.1471 -0.1615
  946SOL     OW 2836   1.207   1.669   2.743  0.1323 -0.3606  0.1605
  946SOL    HW1 2837   1.253   1.760   2.754  0.8009 -0.8128  0.2175
  946SOL    HW2 2838   1.114   1.678   2.788 -1.0806 -0.3754  3.2516
  947SOL     OW 2839   2.707   0.415   1.863 -0.1128 -0.0754  0.0200
  947SOL    HW1 2840   2.642   0.396   1.791  0.8619  2.1016  2.1944
  947SOL    HW2 2841   2.664   0.429   1.953  1.8618 -0.2367  0.0953
  948SOL     OW 2842   0.212   1.712   0.982 -1.0497  0.7047  0.0819
  948SOL    HW1 2843   0.133   1.727   1.046 -3.1548  1.8649 -1.8672
  948SOL    HW2 2844   0.295   1.743   1.026  1.0851 -0.4816  2.7509
  949SOL     OW 2845   0.830   0.718   1.949 -0.2200 -0.1195 -0.1413
  949SOL    HW1 2846   0.897   0.646   1.983  0.3782 -0.7197 -0.7579
  949SOL    HW2 2847   0.868   0.747   1.860  2.7834 -2.5009  0.2105
  950SOL     OW 2848   0.178   0.918   1.311 -0.3039  0.7234 -0.4585
  950SOL    HW1 2849   0.123   1.003   1.302  2.0064  1.5040 -1.3080
  950SOL    HW2 2850   0.130   0.844   1.261  1.5951  0.2321 -0.4238
  951SOL     OW 2851   0.848   1.594   2.341  0.3466  0.2410  0.1406
  951SOL    HW1 2852   0.775   1.650   2.373  2.1472  0.7780 -0.4940
  951SOL    HW2 2853   0.903   1.636   2.270 -2.3143  0.5888 -0.3261
  952SOL     OW 2854   1.551   2.050   0.770  1.1834 -0.0461 -0.3122
  952SOL    HW1 2855   1.639   1.998   0.749 -1.0247 -3.0861 -0.7975
  952SOL    HW2 2856   1.496   2.018   0.849  1.2963 -0.0502 -1.5972
  953SOL     OW 2857   1.006   0.820   0.261 -0.1202  0.0611 -0.4089
  953SOL    HW1 2858   0.927   0.771   0.298  2.0385  1.2874  0.9123
  953SOL    HW2 2859   1.073   0.750   0.222 -0.4863 -0.1757 -0.6125
  954SOL     OW 2860   2.114   0.868   1.044  0.1813 -0.3899  0.1405
  954SOL    HW1 2861   2.112   0.930   0.963  0.1086 -1.9753  3.6927
  954SOL    HW2 2862   2.018   0.852   1.074 -1.1795  1.8856 -0.3928
  955SOL     OW 2863   2.386   1.559   0.443 -0.1252 -0.2630 -0.0486
  955SOL    HW1 2864   2.299   1.612   0.439  2.4533  0.7580  0.8576
  955SOL    HW2 2865   2.411   1.530   0.348 -0.4525  0.5373  3.3476
  956SOL     OW 2866   0.736   0.416   1.708 -0.7141 -0.0381  0.6113
  956SOL    HW1 2867   0.706   0.380   1.800  0.4148  1.0910  2.8011
  956SOL    HW2 2868   0.833   0.395   1.691  0.3200 -0.3873  1.3625
  957SOL     OW 2869   1.823   0.295   1.253  0.0922  0.1046 -0.3492
  957SOL    HW1 2870   1.733   0.328   1.280 -0.2115 -2.4692  3.5523
  957SOL    HW2 2871   1.867   0.259   1.337  0.8806 -1.1431  0.5918
  958SOL     OW 2872   0.272   2.238   0.457 -0.8647  0.0424 -0.6097
  958SOL    HW1 2873   0.271   2.201   0.362  0.3087 -2.6742 -0.1269
  958SOL    HW2 2874   0.344   2.187   0.515  1.7802 -1.4479  2.4470
  959SOL     OW 2875   2.195   1.246   1.994  0.8174 -0.1102 -0.1697
  959SOL    HW1 2876   2.168   1.343   2.015  0.3293 -0.2326 -1.0347
  959SOL    HW2 2877   2.223   1.241   1.897  3.5738 -0.9017 -0.8573
  960SOL     OW 2878   0.208   2.001   2.938 -0.0529  0.1148  0.1562
  960SOL    HW1 2879   0.269   1.921   2.952 -0.9022 -0.3564 -1.1660
  960SOL    HW2 2880   0.113   1.975   2.956  2.1378 -0.1180  0.7668
  961SOL     OW 2881   0.540   1.653   1.528 -0.1552 -0.2414 -0.0771
  961SOL    HW1 2882   0.624   1.669   1.478 -4.0291 -1.5010  0.5849
  961SOL    HW2 2883   0.524   1.724   1.604 -0.4154  1.7955  4.2015
  962SOL     OW 2884   0.977   1.382   0.943 -0.1496 -0.1400  0.3849
  962SOL    HW1 2885   1.012   1.289   0.965 -0.2161  1.8330  0.1297
  962SOL    HW2 2886   1.052   1.435   0.896 -5.1316 -4.2795  1.4805
  963SOL     OW 2887   1.164   1.934   2.426  0.1456  0.0170  0.0321
  963SOL    HW1 2888   1.151   1.836   2.402  0.4267  0.1651 -0.7165
  963SOL    HW2 2889   1.255   1.940   2.469  0.3725 -1.1218  0.2274
  964SOL     OW 2890   0.103   2.763   1.909 -0.2556  0.0939 -0.0423
  964SOL    HW1 2891   0.047   2.731   1.831  1.1663  3.9308  2.4920
  964SOL    HW2 2892   0.153   2.687   1.956  0.5098 -0.6660 -0.3689
  965SOL     OW 2893   0.518   2.256   2.829 -0.7498 -0.8872  0.4096
  965SOL    HW1 2894   0.416   2.261   2.810 -3.4159  0.4350 -0.9273
  965SOL    HW2 2895   0.543   2.295   2.918 -1.5857  1.0042 -0.2201
  966SOL     OW 2896   0.009   1.515   0.064  0.2279  0.7073  0.3362
  966SOL    HW1 2897   0.027   1.440   0.126  1.4185  0.5719 -1.7066
  966SOL    HW2 2898   3.063   1.486   3.090 -1.7182 -0.9800 -0.6224
  967SOL     OW 2899   2.030   3.064   0.120 -0.2916  0.4343 -0.4254
  967SOL    HW1 2900   2.118   3.014   0.139  2.9916 -0.5637  0.9379
  967SOL    HW2 2901   1.954   2.994   0.125 -0.8872  1.8714 -0.1326
  968SOL     OW 2902   2.305   3.100   0.823  0.3065 -0.0219 -0.2219
  968SOL    HW1 2903   2.255   3.014   0.852 -0.4329  1.0094 -0.1950
  968SOL    HW2 2904   2.310   3.092   0.722  0.8967  1.7652 -1.7387
  969SOL     OW 2905   0.369   1.027   2.196  0.4735  0.1798 -0.6081
  969SOL    HW1 2906   0.322   1.113   2.189  1.5333 -3.3311  0.6879
  969SOL    HW2 2907   0.303   0.949   2.179 -1.3762 -2.0561  0.1526
  970SOL     OW 2908   1.686   1.518   0.294 -0.1764  0.1364  0.0611
  970SOL    HW1 2909   1.747   1.596   0.322 -1.0195 -2.8873  0.8913
  970SOL    HW2 2910   1.593   1.550   0.274 -0.7182 -1.6287 -0.6179
  971SOL     OW 2911   2.559   2.991   1.538  0.3260  0.4681 -0.1102
  971SOL    HW1 2912   2.629   3.015   1.607 -0.1650  0.8227  0.4815
  971SOL    HW2 2913   2.609   2.938   1.459 -1.7965 -1.1055 -3.4342
  972SOL     OW 2914   2.648   0.201   1.418  0.7805 -0.1287  0.7234
  972SOL    HW1 2915   2.638   0.132   1.342  0.0815  0.0283 -0.5715
  972SOL    HW2 2916   2.674   0.292   1.377  0.8254  1.3058 -0.8213
  973SOL     OW 2917   0.349   0.509   2.754  0.1947 -0.3593 -0.3093
  973SOL    HW1 2918   0.404   0.477   2.671  1.1122  2.2613 -1.0828
  973SOL    HW2 2919   0.262   0.556   2.732  1.7042 -0.4865  3.3335
  974SOL     OW 2920   2.512   1.091   2.042 -0.4090 -0.0308 -0.1601
  974SOL    HW1 2921   2.458   1.086   1.955 -2.4109 -2.3991 -2.2298
  974SOL    HW2 2922   2.506   1.004   2.099  1.7096  2.4023  2.1101
  975SOL     OW 2923   0.972   0.339   1.633 -0.0810 -0.0038  0.3500
  975SOL    HW1 2924   1.006   0.364   1.539  2.8794 -1.7521 -2.3987
  975SOL    HW2 2925   1.009   0.254   1.676 -3.0456  1.8268  0.5606
  976SOL     OW 2926   1.279   1.663   1.428  0.1147  0.0548 -0.4145
  976SOL    HW1 2927   1.316   1.761   1.437 -0.8881  1.8680 -0.1172
  976SOL    HW2 2928   1.179   1.669   1.453 -1.1657 -1.7858  1.6558
  977SOL     OW 2929   1.071   2.960   0.188  0.7870  0.0213  0.0809
  977SOL    HW1 2930   0.987   2.943   0.248 -2.9730  1.4949  1.3785
  977SOL    HW2 2931   1.051   3.017   0.108 -0.9575  1.5444  2.5093
  978SOL     OW 2932   2.258   1.163   2.261 -0.1026  0.8071  0.9176
  978SOL    HW1 2933   2.167   1.181   2.295 -0.7397 -3.4057 -1.3569
  978SOL    HW2 2934   2.264   1.182   2.160 -0.9154  0.8921  1.8346
  979SOL     OW 2935   1.609   0.584   1.643 -0.3127 -0.1572 -0.6008
  979SOL    HW1 2936   1.654   0.643   1.706 -1.4624 -0.5601  0.2577
  979SOL    HW2 2937   1.508   0.603   1.637 -0.0361  1.3954  0.3260
  980SOL     OW 2938   1.628   1.426   2.027  0.4262 -0.1722  0.0322
  980SOL    HW1 2939   1.684   1.506   2.008 -1.7089 -2.4764 -0.0355
  980SOL    HW2 2940   1.555   1.449   2.089  2.5262 -0.1777 -0.2719
  981SOL     OW 2941   2.011   0.601   1.463  0.0124  0.4054 -0.8177
  981SOL    HW1 2942   1.937   0.637   1.404 -2.0862  0.3929 -0.0782
  981SOL    HW2 2943   2.098   0.649   1.448  0.4049 -1.2744  0.7428
  982SOL     OW 2944   0.811   0.156   2.657  0.2170  0.6629 -0.0993
  982SOL    HW1 2945   0.757   0.202   2.585  1.5676 -0.0248  1.6647
  982SOL    HW2 2946   0.749   0.142   2.742  0.4675 -0.5430  2.4179
  983SOL     OW 2947   2.136   0.705   3.019 -0.3020 -0.2487 -0.1603
  983SOL    HW1 2948   2.111   0.617   2.983 -0.4012 -0.2384 -0.5060
  983SOL    HW2 2949   2.096   0.775   2.960  1.5922 -0.9697 -0.2493
  984SOL     OW 2950   0.659   0.335   1.983  0.1974 -0.6722 -0.0192
  984SOL    HW1 2951   0.739   0.299   2.040  1.4173 -0.0387  3.2942
  984SOL    HW2 2952   0.597   0.383   2.049 -0.3248 -0.5446 -2.0263
  985SOL     OW 2953   1.797   1.989   2.080  0.5723  0.6856 -0.2880
  985SOL    HW1 2954   1.831   1.980   1.984  0.3026 -0.1567  0.6160
  985SOL    HW2 2955   1.802   1.898   2.123  1.9025  2.3026  3.1274
  986SOL     OW 2956   2.530   2.890   1.862 -0.1864 -1.0415  0.5949
  986SOL    HW1 2957   2.472   2.963   1.901 -0.5115  1.3007 -0.0845
  986SOL    HW2 2958   2.625   2.932   1.837 -0.2710  0.6030 -1.5103
  987SOL     OW 2959   2.130   1.340   1.276 -0.1541 -0.1402  0.6255
  987SOL    HW1 2960   2.221   1.373   1.240  1.2919 -0.2078 -1.4307
  987SOL    HW2 2961   2.051   1.357   1.218  0.5037 -1.0851  1.4665
  988SOL     OW 2962   2.594   1.725   2.016  0.3967 -0.7434  0.4954
  988SOL    HW1 2963   2.559   1.811   2.055  1.8969  2.0093  1.5180
  988SOL    HW2 2964   2.697   1.732   2.023 -1.4571 -0.4603  0.0715
  989SOL     OW 2965   1.258   2.498   0.156  0.0870 -0.1429 -0.0686
  989SOL    HW1 2966   1.341   2.531   0.200 -2.1262  1.3375  0.3994
  989SOL    HW2 2967   1.194   2.455   0.225  0.8576 -0.2992  1.4852
  990SOL     OW 2968   1.987   0.869   2.867  0.3979 -0.5974 -0.9047
  990SOL    HW1 2969   1.900   0.914   2.896  1.6623  2.0319 -1.5846
  990SOL    HW2 2970   2.045   0.933   2.814 -1.4637 -1.5060  2.9578
  991SOL     OW 2971   1.098   0.543   0.839  0.1861 -0.2433 -0.3138
  991SOL    HW1 2972   1.136   0.635   0.825 -1.3657 -2.6780  0.9224
  991SOL    HW2 2973   1.073   0.530   0.936  0.1990  1.4201 -2.5321
  992SOL     OW 2974   2.391   0.960   1.109 -0.0443 -0.4589  0.2359
  992SOL    HW1 2975   2.415   1.027   1.184  0.4743  3.5174 -0.6909
  992SOL    HW2 2976   2.292   0.952   1.084  2.6423  1.7551  0.3365
  993SOL     OW 2977   2.210   0.621   1.975  0.7378  0.1020 -0.2272
  993SOL    HW1 2978   2.151   0.702   1.949 -0.7233  1.1807 -0.6833
  993SOL    HW2 2979   2.205   0.547   1.900 -1.3297 -2.8414 -1.5574
  994SOL     OW 2980   0.617   1.749   2.426  0.0175 -0.5689 -0.4101
  994SOL    HW1 2981   0.606   1.851   2.433 -0.8456  3.3757 -0.2336
  994SOL    HW2 2982   0.536   1.712   2.380 -3.1800 -0.2012 -0.4641
  995SOL     OW 2983   2.096   1.186   2.942  0.1380 -0.1742 -0.7406
  995SOL    HW1 2984   2.096   1.280   2.904 -0.4620 -0.2556  2.4755
  995SOL    HW2 2985   2.177   1.136   2.912 -2.2027  2.2160  0.7943
  996SOL     OW 2986   2.313   1.959   0.508 -1.2679  0.2151 -0.2827
  996SOL    HW1 2987   2.256   1.884   0.474  0.5405 -2.7265 -1.0263
  996SOL    HW2 2988   2.410   1.948   0.473  2.9260  1.9007  0.3645
  997SOL     OW 2989   2.256   0.686   2.231  0.0860 -0.2627  0.4428
  997SOL    HW1 2990   2.336   0.633   2.267 -1.1121 -2.3780 -1.9554
  997SOL    HW2 2991   2.223   0.654   2.141 -2.0262  0.9983  2.6554
  998SOL     OW 2992   2.646   1.160   0.515 -0.2920 -0.3057 -0.2922
  998SOL    HW1 2993   2.732   1.211   0.499 -2.1061  0.1858 -1.5207
  998SOL    HW2 2994   2.658   1.076   0.569 -0.1023  1.0239  1.0408
  999SOL     OW 2995   2.965   1.712   0.591 -0.0140 -0.7438 -0.1405
  999SOL    HW1 2996   2.957   1.763   0.505  1.9376  0.7191  2.3653
  999SOL    HW2 2997   3.053   1.733   0.643  1.3196  0.4386  2.4723
 1000SOL     OW 2998   0.641   0.632   2.212  0.0913  0.4587 -0.0864
 1000SOL    HW1 2999   0.642   0.732   2.188 -2.2996  0.4848 -1.3800
 1000SOL    HW2 3000   0.729   0.590   2.242  0.7269 -1.5889 -2.6146
   3.10954   3.10954   3.10954
