1000 SPC/Fw water molecules t= 474.00000 step= 474000
 3000
    1SOL     OW    1   2.753   0.178   1.769 -0.3300 -0.2053  0.0454
    1SOL    HW1    2   2.771   0.283   1.780 -0.4586  2.8186 -0.0257
    1SOL    HW2    3   2.721   0.146   1.862 -0.7048 -0.1331  2.0150
    2SOL     OW    4   2.798   2.977   2.883  0.0375  0.3075 -0.6536
    2SOL    HW1    5   2.753   3.029   2.962  1.8525 -1.8955  0.3529
    2SOL    HW2    6   2.838   2.893   2.923 -2.9854  0.2149 -0.9998
    3SOL     OW    7   1.060   2.253   3.004 -0.1365 -0.6128 -0.2723
    3SOL    HW1    8   1.133   2.252   2.936 -0.1036 -0.5687  2.0237
    3SOL    HW2    9   1.094   2.281   3.099  0.6006 -0.0499  0.3958
    4SOL     OW   10   1.496   2.738   2.509  0.0492 -0.3720  0.7837
    4SOL    HW1   11   1.548   2.793   2.445 -2.0166 -5.3500  0.2211
    4SOL    HW2   12   1.419   2.796   2.547  0.5134  2.6503  2.9018
    5SOL     OW   13   1.974   0.253   2.675  0.2019  0.1469  0.2667
    5SOL    HW1   14   2.041   0.299   2.736  1.5326 -2.8858 -0.0235
    5SOL    HW2   15   1.879   0.257   2.716 -2.2975 -2.3439  2.7700
    6SOL     OW   16   0.010   1.674   1.071  0.1366 -0.1901  0.2851
    6SOL    HW1   17   0.084   1.736   1.103  2.6289 -3.2577 -1.4795
    6SOL    HW2   18   3.089   1.689   0.972 -2.5869  1.2267 -0.9948
    7SOL     OW   19   1.036   1.768   0.436  0.1013 -0.1865 -0.1093
    7SOL    HW1   20   0.993   1.690   0.484  0.2940 -2.7659  0.3444
    7SOL    HW2   21   1.139   1.780   0.443  1.6146 -0.3797  1.5061
    8SOL     OW   22   0.233   0.590   0.420  0.0055  0.0553  0.0048
    8SOL    HW1   23   0.290   0.670   0.388 -2.3742  0.0663  2.6690
    8SOL    HW2   24   0.164   0.568   0.351 -0.7961  0.8774 -2.9137
    9SOL     OW   25   0.254   2.817   1.821 -0.3443 -0.6899  0.3868
    9SOL    HW1   26   0.330   2.772   1.776 -0.6400  0.0476 -0.3792
    9SOL    HW2   27   0.187   2.748   1.857 -0.6557  1.2184 -3.0391
   10SOL     OW   28   1.247   2.022   0.165  0.7144  0.3045 -0.2641
   10SOL    HW1   29   1.256   1.954   0.244 -0.4084 -0.6368  0.2418
   10SOL    HW2   30   1.215   2.110   0.200  0.3298  0.2288 -0.7034
   11SOL     OW   31   1.925   0.829   1.389 -0.0156 -0.7893 -0.1834
   11SOL    HW1   32   1.992   0.818   1.465 -2.0352 -1.7704 -0.8370
   11SOL    HW2   33   1.838   0.871   1.431 -1.0649  0.8267 -1.5452
   12SOL     OW   34   0.398   0.773   2.210  0.1831 -0.2360  0.3360
   12SOL    HW1   35   0.377   0.825   2.125  0.5584 -0.0832  1.0296
   12SOL    HW2   36   0.325   0.795   2.282 -0.4064  0.7062  0.0339
   13SOL     OW   37   2.145   3.012   0.485  0.3474 -0.6167 -0.2186
   13SOL    HW1   38   2.175   3.083   0.413  1.4614  0.2891 -2.0291
   13SOL    HW2   39   2.090   2.939   0.439 -0.9444 -2.4502  1.5145
   14SOL     OW   40   2.291   2.007   0.077 -0.1813 -0.1611  0.1532
   14SOL    HW1   41   2.380   1.978   0.045 -1.0223  0.1192  0.9114
   14SOL    HW2   42   2.303   2.044   0.167  1.4130 -2.3645  2.1731
   15SOL     OW   43   2.733   3.083   0.012 -0.0933 -0.9965 -0.0114
   15SOL    HW1   44   2.789   3.048   0.089  0.0976 -1.7957 -0.5060
   15SOL    HW2   45   2.633   0.001   0.030  1.9775 -0.1353  2.3546
   16SOL     OW   46   3.018   0.679   1.058  0.3544  0.3293 -0.0454
   16SOL    HW1   47   3.024   0.581   1.091 -1.8548 -0.4854 -0.0855
   16SOL    HW2   48   3.093   0.741   1.080 -2.2003  0.1747 -2.2779
   17SOL     OW   49   0.677   0.438   0.980 -0.2175 -0.8769 -0.5261
   17SOL    HW1   50   0.658   0.338   0.983 -1.5187  0.7293  0.4300
   17SOL    HW2   51   0.635   0.490   1.057  0.8433  1.4972 -1.1733
   18SOL     OW   52   2.914   3.086   0.962 -0.0444  0.1670  0.0233
   18SOL    HW1   53   2.837   3.097   0.896  1.9096 -0.4253  3.5699
   18SOL    HW2   54   2.997   0.040   0.935 -1.2097  2.1342  0.8345
   19SOL     OW   55   1.822   1.619   1.229  0.2126  0.1057  0.4414
   19SOL    HW1   56   1.753   1.632   1.156 -0.4833 -0.2136  0.7918
   19SOL    HW2   57   1.892   1.547   1.209  1.5408  0.7613  2.5558
   20SOL     OW   58   2.171   1.734   2.436  0.1582 -0.1386  0.1637
   20SOL    HW1   59   2.150   1.806   2.507  0.3466  0.4281  0.2060
   20SOL    HW2   60   2.086   1.691   2.405  3.4509 -0.4705 -0.1122
   21SOL     OW   61   1.316   2.817   0.421  0.0408 -0.2478 -0.5201
   21SOL    HW1   62   1.274   2.728   0.419  0.8543  0.3162  0.7000
   21SOL    HW2   63   1.315   2.850   0.325  0.8961 -1.0756  5.3038
   22SOL     OW   64   2.239   0.772   3.086  0.0521  0.0278 -0.1737
   22SOL    HW1   65   2.323   0.825   3.067  2.0239 -0.7935 -0.7913
   22SOL    HW2   66   2.251   0.699   0.058 -1.8391 -1.3689  0.7241
   23SOL     OW   67   0.771   0.421   2.167  0.4652  0.1714 -0.4057
   23SOL    HW1   68   0.769   0.324   2.132  0.7023 -1.5387 -2.4969
   23SOL    HW2   69   0.861   0.462   2.134  0.8137 -0.1591 -1.3847
   24SOL     OW   70   2.128   2.214   0.941  0.0281 -0.2818 -0.2596
   24SOL    HW1   71   2.144   2.305   0.993  0.0391  2.0515  1.7725
   24SOL    HW2   72   2.067   2.232   0.861  0.5193 -1.8652  0.5508
   25SOL     OW   73   1.358   0.104   3.059  0.2470  0.0310 -0.2633
   25SOL    HW1   74   1.371   0.099   2.959 -0.7751 -2.6890 -2.3959
   25SOL    HW2   75   1.422   0.049   0.013 -2.3706  3.0818  0.2868
   26SOL     OW   76   1.058   2.771   2.745  0.1990  0.0170  0.1405
   26SOL    HW1   77   1.013   2.829   2.816 -2.1860  0.8156  0.3885
   26SOL    HW2   78   1.051   2.672   2.772 -1.5298 -0.3380 -0.0451
   27SOL     OW   79   1.214   0.502   1.259  0.0211  0.2993 -0.1299
   27SOL    HW1   80   1.188   0.512   1.162 -1.4768  3.1210 -0.4291
   27SOL    HW2   81   1.139   0.481   1.319  2.5866 -1.4955 -0.4687
   28SOL     OW   82   0.494   1.959   1.094 -0.1286 -0.0542 -0.0654
   28SOL    HW1   83   0.512   2.018   1.015  2.3854  2.0776 -0.1569
   28SOL    HW2   84   0.478   2.011   1.180  1.6744 -0.6813 -1.4304
   29SOL     OW   85   2.569   1.238   1.041  0.1197  0.5315  0.3522
   29SOL    HW1   86   2.625   1.196   1.114  0.0844  2.0719  0.6152
   29SOL    HW2   87   2.626   1.275   0.971 -4.1661  1.2648  1.8898
   30SOL     OW   88   1.388   0.036   1.787  0.6380 -0.3120  0.0663
   30SOL    HW1   89   1.377   3.040   1.754 -1.0597 -1.4794 -0.1849
   30SOL    HW2   90   1.423   0.041   1.883 -0.8228 -0.6352  2.1416
   31SOL     OW   91   1.335   0.016   1.006 -0.6654 -0.1179  0.9321
   31SOL    HW1   92   1.348   0.116   1.026 -0.2380  0.0013 -0.5096
   31SOL    HW2   93   1.232   0.001   0.986 -0.6333  1.0233  0.8110
   32SOL     OW   94   2.552   1.057   1.979 -0.2095  0.3231  0.2064
   32SOL    HW1   95   2.481   0.988   1.963  3.0795  3.2512 -1.6613
   32SOL    HW2   96   2.513   1.147   1.991 -0.1958 -0.5382 -0.7576
   33SOL     OW   97   2.239   2.793   2.825 -0.1473 -0.1054 -0.1196
   33SOL    HW1   98   2.211   2.835   2.913  0.6089  0.0190 -1.4473
   33SOL    HW2   99   2.272   2.872   2.762  2.9238  0.9981 -1.8064
   34SOL     OW  100   1.905   0.994   3.095 -0.0388 -0.9651 -0.5491
   34SOL    HW1  101   1.927   1.020   0.094  0.9316  1.9158  1.6899
   34SOL    HW2  102   1.861   0.901   3.080  0.2112 -1.4758  0.8794
   35SOL     OW  103   2.877   1.231   1.437 -0.3331 -0.4108 -0.0275
   35SOL    HW1  104   2.790   1.226   1.494  0.6052 -0.0812  0.0153
   35SOL    HW2  105   2.953   1.259   1.500 -1.9655  0.0337 -2.1846
   36SOL     OW  106   2.503   2.362   2.871 -0.2327 -0.6178  0.1417
   36SOL    HW1  107   2.490   2.353   2.972  1.4375 -0.0326 -3.2134
   36SOL    HW2  108   2.438   2.433   2.832  1.4525  2.2082  0.9960
   37SOL     OW  109   1.861   2.992   2.011 -0.5791 -0.0293 -0.5064
   37SOL    HW1  110   1.925   3.077   2.011 -0.2483  3.3303 -0.1296
   37SOL    HW2  111   1.873   2.941   1.920 -0.2918  0.2254 -1.5329
   38SOL     OW  112   0.578   0.748   2.405  0.3300  0.4919  0.9731
   38SOL    HW1  113   0.618   0.654   2.406 -1.5100 -2.1146 -0.0018
   38SOL    HW2  114   0.502   0.752   2.338  0.7790  3.9254  1.3736
   39SOL     OW  115   1.699   0.559   1.654 -0.0045 -0.0320 -0.2010
   39SOL    HW1  116   1.626   0.491   1.614 -4.8981 -0.2286 -0.8538
   39SOL    HW2  117   1.778   0.509   1.692  0.4786  0.6367 -0.3560
   40SOL     OW  118   0.861   2.276   0.592  0.1840  0.6565 -0.0691
   40SOL    HW1  119   0.898   2.199   0.534  1.0179 -0.4989 -2.7616
   40SOL    HW2  120   0.929   2.350   0.569  1.5416 -0.4391  0.0446
   41SOL     OW  121   2.433   2.301   1.330  0.0642 -0.0469 -0.0290
   41SOL    HW1  122   2.412   2.338   1.239  0.7604 -1.0281  0.5394
   41SOL    HW2  123   2.532   2.317   1.363  1.1648  0.4257  1.1353
   42SOL     OW  124   2.467   3.059   0.474  0.1611 -0.5498 -0.2029
   42SOL    HW1  125   2.366   3.066   0.462  0.6114  0.3573 -0.3885
   42SOL    HW2  126   2.501   0.048   0.437  0.5695  1.2756  2.5933
   43SOL     OW  127   0.872   1.346   2.435 -0.2062  0.2265  0.1459
   43SOL    HW1  128   0.811   1.375   2.357  0.0378  1.2394 -1.0059
   43SOL    HW2  129   0.879   1.245   2.445  1.8873  2.3056 -0.6070
   44SOL     OW  130   2.166   2.989   1.100  0.7050 -0.2330  0.0003
   44SOL    HW1  131   2.077   2.945   1.086 -0.0451 -0.2055 -0.7088
   44SOL    HW2  132   2.171   3.079   1.052  2.1098  0.5259 -0.9060
   45SOL     OW  133   0.192   2.331   2.900  0.2381  0.2194  0.5231
   45SOL    HW1  134   0.207   2.287   2.989  1.4004  0.0996 -0.7758
   45SOL    HW2  135   0.271   2.384   2.864  2.4172  0.7332  0.9876
   46SOL     OW  136   0.625   2.660   2.235 -0.3430 -0.2541 -0.0418
   46SOL    HW1  137   0.597   2.631   2.330  0.1307  1.3775  2.4531
   46SOL    HW2  138   0.633   2.587   2.168 -0.2931  2.8750 -1.2280
   47SOL     OW  139   0.562   1.731   0.669  0.9365  0.3896  0.2566
   47SOL    HW1  140   0.502   1.814   0.636  0.1665  0.1496 -0.0191
   47SOL    HW2  141   0.589   1.673   0.586  0.2030  0.3918 -2.5996
   48SOL     OW  142   0.849   2.675   1.315  0.2070 -0.3207  0.1297
   48SOL    HW1  143   0.873   2.578   1.295 -1.3480 -1.6598  2.1751
   48SOL    HW2  144   0.815   2.683   1.414 -3.1989  1.0438 -1.3992
   49SOL     OW  145   0.142   2.974   0.168 -0.0383  0.3455  0.3926
   49SOL    HW1  146   0.185   2.941   0.252 -0.6582  0.0010 -1.4698
   49SOL    HW2  147   0.121   2.893   0.102 -0.4187 -3.2111  0.5633
   50SOL     OW  148   1.602   0.615   0.623  1.3218  0.1171 -0.0630
   50SOL    HW1  149   1.513   0.635   0.673  0.9105 -0.2869  2.0946
   50SOL    HW2  150   1.592   0.661   0.531  0.9647 -0.2696 -0.5027
   51SOL     OW  151   1.887   0.009   0.691 -0.0922 -0.0279  0.1114
   51SOL    HW1  152   1.894   3.007   0.680  0.3396 -1.1334 -1.1083
   51SOL    HW2  153   1.982   0.050   0.684 -0.5593  0.6431 -0.5431
   52SOL     OW  154   0.645   1.719   1.093  0.2351 -0.1820  0.1275
   52SOL    HW1  155   0.727   1.723   1.028  1.4296 -1.8286  0.9104
   52SOL    HW2  156   0.590   1.809   1.096  0.8205  0.8073 -0.6835
   53SOL     OW  157   0.173   1.176   2.856  0.1139 -0.1962 -0.2805
   53SOL    HW1  158   0.208   1.079   2.866 -0.3172  1.0861  0.0241
   53SOL    HW2  159   0.196   1.223   2.946  0.3358  2.6138  0.7711
   54SOL     OW  160   2.658   2.287   2.654 -0.5307  0.4627 -0.3747
   54SOL    HW1  161   2.582   2.314   2.716 -1.1745  1.7889  0.9940
   54SOL    HW2  162   2.642   2.192   2.621  0.5208  2.8409 -2.7283
   55SOL     OW  163   2.681   2.288   1.446 -0.4262 -0.2602  0.4302
   55SOL    HW1  164   2.695   2.384   1.475  0.5344 -2.5007  0.3596
   55SOL    HW2  165   2.672   2.230   1.531 -1.8160 -0.3142  0.9797
   56SOL     OW  166   1.399   0.659   1.444 -0.0260 -0.3110  0.6557
   56SOL    HW1  167   1.501   0.681   1.426  1.3220 -0.7065 -0.7165
   56SOL    HW2  168   1.351   0.622   1.367  4.1890  1.4076  2.4045
   57SOL     OW  169   1.892   1.733   0.878  0.0926 -0.0212 -0.0750
   57SOL    HW1  170   1.972   1.784   0.924  0.5313 -1.3179  1.1820
   57SOL    HW2  171   1.925   1.671   0.806  0.1617  0.8674 -1.5662
   58SOL     OW  172   2.185   0.338   2.154  0.0148  0.3408 -0.7943
   58SOL    HW1  173   2.145   0.366   2.243  1.1140  1.8488  0.3074
   58SOL    HW2  174   2.190   0.413   2.086  1.5941 -1.7398  3.5649
   59SOL     OW  175   1.740   2.994   2.462  0.1354  0.3529  0.2016
   59SOL    HW1  176   1.719   3.001   2.360 -0.2752 -0.3944 -1.9815
   59SOL    HW2  177   1.839   3.005   2.488  0.2928  0.4105 -2.7110
   60SOL     OW  178   1.571   1.771   2.805  0.3177  0.2660  0.1097
   60SOL    HW1  179   1.640   1.831   2.754 -1.1549 -0.1050 -2.4150
   60SOL    HW2  180   1.496   1.735   2.746  0.0796  0.0615  2.4509
   61SOL     OW  181   0.637   2.095   0.058  0.3485 -0.5207 -0.5096
   61SOL    HW1  182   0.585   2.031   3.100 -0.6114  0.3230  2.2186
   61SOL    HW2  183   0.735   2.061   0.065  2.3962 -2.2099  2.8043
   62SOL     OW  184   1.465   1.854   1.518 -0.4441  0.3117  0.1194
   62SOL    HW1  185   1.403   1.825   1.595 -0.9122  0.0055 -0.5417
   62SOL    HW2  186   1.557   1.813   1.529  0.4044 -1.7810 -0.1078
   63SOL     OW  187   1.055   2.056   0.477  0.3858  0.6325  0.1508
   63SOL    HW1  188   0.977   2.078   0.411 -3.0026  3.4618 -2.0729
   63SOL    HW2  189   1.048   1.953   0.503 -3.4800 -0.6703 -0.3235
   64SOL     OW  190   1.915   1.458   2.552 -0.2052  0.1484 -0.5131
   64SOL    HW1  191   1.823   1.418   2.537  0.9544  0.2573 -2.3948
   64SOL    HW2  192   1.939   1.512   2.470 -1.6531 -0.1351  1.8749
   65SOL     OW  193   1.720   1.781   1.439  0.0181  0.1423  0.0437
   65SOL    HW1  194   1.765   1.735   1.359  0.8674 -1.3140  2.4985
   65SOL    HW2  195   1.751   1.875   1.445  1.0937 -1.3418 -2.3525
   66SOL     OW  196   2.978   0.898   0.755  0.0936 -0.0261  0.0214
   66SOL    HW1  197   2.927   0.806   0.748  1.6124  0.0041 -0.7890
   66SOL    HW2  198   2.928   0.964   0.812 -0.2078 -0.0425 -0.7671
   67SOL     OW  199   2.165   2.447   1.083 -0.3315  0.4251 -0.1072
   67SOL    HW1  200   2.119   2.521   1.133  0.1342 -1.2565  1.9842
   67SOL    HW2  201   2.267   2.459   1.088  2.0595  0.6275 -2.6970
   68SOL     OW  202   2.418   2.799   1.768  0.0902 -0.2610  0.6030
   68SOL    HW1  203   2.387   2.740   1.691  0.8114 -1.1884  0.7233
   68SOL    HW2  204   2.377   2.896   1.768  2.1344  3.0537  2.3335
   69SOL     OW  205   2.629   2.951   2.661  0.2215 -0.7200 -0.2218
   69SOL    HW1  206   2.642   2.875   2.595  0.3805 -0.1447  0.0798
   69SOL    HW2  207   2.702   2.955   2.732  1.3077 -0.3957 -0.5781
   70SOL     OW  208   1.128   1.436   2.346  0.0141 -0.4232 -0.6136
   70SOL    HW1  209   1.118   1.406   2.245 -0.5284 -1.7276 -2.1575
   70SOL    HW2  210   1.043   1.406   2.398 -1.0399 -2.6885  1.0734
   71SOL     OW  211   0.872   1.778   2.019  0.2405  0.2819 -0.2164
   71SOL    HW1  212   0.924   1.693   1.991  2.0817  1.3806 -2.4542
   71SOL    HW2  213   0.842   1.832   1.938 -0.4123 -1.2058 -0.8983
   72SOL     OW  214   3.081   1.284   1.613 -0.2144  0.0970  0.1369
   72SOL    HW1  215   3.069   1.291   1.714  1.8590  1.1910 -2.5118
   72SOL    HW2  216   0.014   1.372   1.571 -1.5424 -0.1035 -0.7099
   73SOL     OW  217   0.711   2.162   2.717  0.0633 -1.1461 -0.4005
   73SOL    HW1  218   0.790   2.125   2.660  0.2199 -1.6361 -0.3811
   73SOL    HW2  219   0.743   2.209   2.805  0.5951  1.4345  1.8565
   74SOL     OW  220   1.254   0.257   2.179  0.1869  0.2002 -0.6811
   74SOL    HW1  221   1.225   0.171   2.211  1.6086  0.9312  1.6988
   74SOL    HW2  222   1.235   0.332   2.249 -3.5334 -0.6138 -2.5489
   75SOL     OW  223   1.047   0.014   0.633 -0.0690 -0.2909 -0.2069
   75SOL    HW1  224   0.964   3.057   0.650 -1.5671  2.3756  0.9213
   75SOL    HW2  225   1.133   3.056   0.632  0.0482 -0.5816  0.9635
   76SOL     OW  226   0.367   1.530   2.827 -0.0775 -0.4934 -0.2026
   76SOL    HW1  227   0.428   1.588   2.770  0.5747 -1.0334  0.4481
   76SOL    HW2  228   0.340   1.449   2.772  2.1794  0.7975 -0.1722
   77SOL     OW  229   0.781   2.622   0.668  0.0689  0.0392  0.2524
   77SOL    HW1  230   0.841   2.541   0.672  1.2462  4.3508 -1.2655
   77SOL    HW2  231   0.689   2.600   0.704 -1.7284 -1.0494 -0.3513
   78SOL     OW  232   2.493   0.981   2.966  0.0461  0.4071 -0.5387
   78SOL    HW1  233   2.580   1.012   3.004 -1.4715 -0.4571  1.7343
   78SOL    HW2  234   2.496   0.962   2.866 -5.0125 -0.4387  0.7666
   79SOL     OW  235   0.829   1.483   2.692 -0.6463  0.2880  0.2158
   79SOL    HW1  236   0.834   1.437   2.603 -0.1140  1.6414  1.5217
   79SOL    HW2  237   0.792   1.579   2.681 -1.2532  1.1655  1.4654
   80SOL     OW  238   2.193   1.122   1.364 -0.0885  0.3577 -0.3832
   80SOL    HW1  239   2.141   1.126   1.454  1.6092  0.4482  1.3211
   80SOL    HW2  240   2.245   1.208   1.347 -1.5036  0.3204 -2.1205
   81SOL     OW  241   2.054   1.070   2.382  0.1282  0.0050 -0.1355
   81SOL    HW1  242   1.988   1.126   2.442 -2.9064  1.7190 -2.0449
   81SOL    HW2  243   2.006   0.992   2.339 -0.8133 -0.6410  2.0663
   82SOL     OW  244   2.352   2.049   1.406 -0.9448 -0.3282  0.1244
   82SOL    HW1  245   2.377   2.139   1.360  1.4623  0.6687 -1.4392
   82SOL    HW2  246   2.314   2.055   1.498  3.0615  0.6158 -0.2555
   83SOL     OW  247   2.221   2.746   0.145 -0.3831  0.4749  0.3138
   83SOL    HW1  248   2.295   2.764   0.214 -1.8494 -1.0262 -0.7261
   83SOL    HW2  249   2.256   2.669   0.085  0.5935 -1.2267 -2.3732
   84SOL     OW  250   0.663   0.761   0.630 -0.3753 -0.3993 -0.1645
   84SOL    HW1  251   0.756   0.771   0.669 -0.8244  0.7309  1.4729
   84SOL    HW2  252   0.636   0.662   0.645 -0.1420 -0.0171  0.6375
   85SOL     OW  253   2.146   1.578   1.346 -0.1950  0.1048 -0.4576
   85SOL    HW1  254   2.100   1.528   1.268  0.5890  1.3733  0.7767
   85SOL    HW2  255   2.176   1.674   1.318 -0.1515  1.8866 -1.5841
   86SOL     OW  256   0.499   0.953   1.118 -0.0970  0.2358 -0.1011
   86SOL    HW1  257   0.491   0.903   1.033  0.1097  0.6160  2.9480
   86SOL    HW2  258   0.591   0.942   1.162  0.0420 -1.1320 -0.1656
   87SOL     OW  259   0.033   2.268   2.476 -0.1150  0.3053  0.1888
   87SOL    HW1  260   0.104   2.212   2.426  0.9931 -1.2954  2.3061
   87SOL    HW2  261   0.052   2.366   2.453 -2.9617 -0.5857 -1.2291
   88SOL     OW  262   0.304   2.905   0.388  0.6072  0.2274  0.0946
   88SOL    HW1  263   0.274   2.940   0.486 -1.6572 -0.8393  2.5846
   88SOL    HW2  264   0.400   2.903   0.377 -3.7650  2.3482 -2.1068
   89SOL     OW  265   1.385   0.269   1.062  0.0851  0.1249  0.1236
   89SOL    HW1  266   1.317   0.342   1.049  2.6661  1.1298  2.5932
   89SOL    HW2  267   1.447   0.293   1.142 -1.6327  0.6590 -0.1402
   90SOL     OW  268   0.033   1.113   2.085 -0.2365  0.2788  0.2888
   90SOL    HW1  269   0.081   1.097   2.175  0.8914 -0.0107  3.0400
   90SOL    HW2  270   0.041   1.029   2.030  1.9476  2.9886  0.4277
   91SOL     OW  271   2.013   2.637   0.690 -0.1008  0.1221 -0.0628
   91SOL    HW1  272   2.025   2.572   0.612  0.1493  0.0295 -3.2089
   91SOL    HW2  273   2.003   2.590   0.778  2.7367 -0.3140 -3.1405
   92SOL     OW  274   1.677   1.608   1.000 -0.2705  0.2298  0.1111
   92SOL    HW1  275   1.761   1.662   0.978 -0.1792 -0.1182  2.1152
   92SOL    HW2  276   1.683   1.517   0.952  1.3782 -1.0982  0.3048
   93SOL     OW  277   0.374   1.385   0.415  0.3032  0.3137  0.2788
   93SOL    HW1  278   0.394   1.327   0.334 -0.6642  2.0970 -0.4518
   93SOL    HW2  279   0.450   1.447   0.432 -0.5839 -2.4945 -1.9338
   94SOL     OW  280   0.675   2.463   0.997  0.7710 -0.4660  0.3281
   94SOL    HW1  281   0.685   2.451   0.898  0.6607 -0.4107 -0.3734
   94SOL    HW2  282   0.605   2.394   1.035  1.6716 -0.2956  0.5134
   95SOL     OW  283   0.243   0.938   0.317 -0.5221  0.1185  0.9717
   95SOL    HW1  284   0.288   0.956   0.411  2.0066 -2.6301  0.4308
   95SOL    HW2  285   0.282   0.861   0.268  0.2229 -0.2800  1.4019
   96SOL     OW  286   0.670   2.481   2.031  0.0853  0.1822 -0.0288
   96SOL    HW1  287   0.687   2.401   2.094 -0.1102  1.1698  1.3895
   96SOL    HW2  288   0.660   2.439   1.935 -2.1380 -3.1873 -0.0647
   97SOL     OW  289   2.538   0.911   0.671 -0.8532 -0.0804 -0.0509
   97SOL    HW1  290   2.581   1.003   0.650  0.1362 -0.0070 -2.5572
   97SOL    HW2  291   2.487   0.912   0.759 -0.0237  0.0463 -0.8173
   98SOL     OW  292   0.209   2.141   2.041 -0.4723 -0.1620  0.3244
   98SOL    HW1  293   0.268   2.076   1.991  1.9066 -0.1738  1.4103
   98SOL    HW2  294   0.109   2.115   2.043  1.3980  2.5030 -0.6151
   99SOL     OW  295   3.086   0.317   1.671  0.6379 -0.3434  0.1688
   99SOL    HW1  296   2.999   0.347   1.623  2.5636 -0.5719  1.4225
   99SOL    HW2  297   3.070   0.223   1.708 -0.3924 -0.2603 -2.5571
  100SOL     OW  298   2.055   0.383   2.387  0.0295  0.5072  0.4479
  100SOL    HW1  299   2.129   0.355   2.449 -5.3157  0.7635 -3.9210
  100SOL    HW2  300   2.012   0.467   2.420  2.1914 -0.1460 -0.9477
  101SOL     OW  301   1.031   2.943   1.989  0.3151 -0.0061  0.0940
  101SOL    HW1  302   1.067   3.040   2.003  1.8880 -1.4278  0.7950
  101SOL    HW2  303   0.970   2.924   2.069 -0.4859 -2.0410  0.5864
  102SOL     OW  304   0.659   0.583   1.564 -0.2668 -0.2018 -0.1986
  102SOL    HW1  305   0.570   0.562   1.611 -2.2070 -0.3175  1.9048
  102SOL    HW2  306   0.728   0.603   1.636  0.6941 -2.0950 -0.7596
  103SOL     OW  307   0.455   0.859   2.918  0.6079 -0.2851  0.8891
  103SOL    HW1  308   0.366   0.893   2.958 -0.0091  1.7313 -0.2723
  103SOL    HW2  309   0.488   0.937   2.855  4.6565  3.1263  0.7584
  104SOL     OW  310   0.697   3.008   1.986 -0.3710 -0.3570 -0.7522
  104SOL    HW1  311   0.757   3.068   1.927  1.3812  1.4522  0.5581
  104SOL    HW2  312   0.602   2.990   1.950 -0.1743 -1.7509 -1.0875
  105SOL     OW  313   2.752   2.789   2.021  0.2656 -0.0405  0.3837
  105SOL    HW1  314   2.716   2.816   1.930  2.6644 -1.3976 -3.8633
  105SOL    HW2  315   2.724   2.861   2.096 -0.6345  1.8959 -0.9358
  106SOL     OW  316   0.670   0.017   0.840  0.1662 -0.9515 -0.0942
  106SOL    HW1  317   0.749   0.069   0.796  0.6362 -0.4280 -0.6348
  106SOL    HW2  318   0.701   3.028   0.873 -0.4028  0.9470 -2.1939
  107SOL     OW  319   2.968   2.020   1.112  0.6481  0.2956  0.4816
  107SOL    HW1  320   3.002   2.061   1.199  1.2881  2.3126 -0.6686
  107SOL    HW2  321   2.917   1.939   1.131 -1.2551  1.0376  0.3196
  108SOL     OW  322   0.517   2.486   0.731 -0.3044 -0.1807 -0.2693
  108SOL    HW1  323   0.454   2.436   0.796  1.9169  0.0645 -1.1239
  108SOL    HW2  324   0.550   2.420   0.655  3.6524  0.5835  0.2636
  109SOL     OW  325   1.617   3.076   0.658  0.7665  0.2772  0.1549
  109SOL    HW1  326   1.586   3.008   0.725 -0.6261  0.3546 -4.1865
  109SOL    HW2  327   1.720   3.088   0.656  3.4849  1.3465 -0.2808
  110SOL     OW  328   1.699   1.891   0.587 -0.3966  0.4792 -0.4972
  110SOL    HW1  329   1.771   1.846   0.531  1.6934  1.2192 -0.4773
  110SOL    HW2  330   1.733   1.916   0.680 -2.4336  1.3994  0.0860
  111SOL     OW  331   1.866   2.719   2.043 -0.2135  0.8722 -0.0224
  111SOL    HW1  332   1.959   2.682   2.051  0.7067  1.8048 -0.9327
  111SOL    HW2  333   1.862   2.814   2.077  1.4537 -0.8068  0.0706
  112SOL     OW  334   1.797   2.373   2.653 -0.4054  0.1419 -0.2437
  112SOL    HW1  335   1.778   2.415   2.746 -0.5467  1.0513 -0.5627
  112SOL    HW2  336   1.820   2.450   2.586  1.5833  1.2410 -0.4500
  113SOL     OW  337   2.369   2.260   2.087  0.2008 -0.1410 -0.0352
  113SOL    HW1  338   2.378   2.319   2.171  0.4407 -1.1231 -0.3523
  113SOL    HW2  339   2.387   2.312   2.001 -1.2682 -1.7994  0.4547
  114SOL     OW  340   0.196   1.103   1.492  0.0586  0.1118  0.4940
  114SOL    HW1  341   0.251   1.128   1.412 -0.3238 -2.7885  0.9498
  114SOL    HW2  342   0.128   1.179   1.505 -0.6630  1.7860 -1.5633
  115SOL     OW  343   2.568   0.668   2.773  0.0441  0.8225  0.5345
  115SOL    HW1  344   2.468   0.663   2.751  1.8172 -0.7587 -0.3101
  115SOL    HW2  345   2.591   0.636   2.870  0.8781 -1.1754  0.3880
  116SOL     OW  346   2.840   0.235   0.014 -0.0981 -0.2004 -0.3357
  116SOL    HW1  347   2.939   0.250   0.009 -0.5083  2.0661  0.5420
  116SOL    HW2  348   2.808   0.139   3.097  1.0029  1.3070  0.6877
  117SOL     OW  349   2.739   2.779   0.887  0.0247 -0.3068 -0.3988
  117SOL    HW1  350   2.651   2.818   0.852 -2.0885 -1.7338 -2.3684
  117SOL    HW2  351   2.727   2.741   0.982  0.0848  1.6543 -0.3185
  118SOL     OW  352   1.038   2.192   2.234 -0.1336  0.5917 -0.9943
  118SOL    HW1  353   1.024   2.088   2.226  0.4016 -0.3814  0.1568
  118SOL    HW2  354   1.100   2.209   2.312 -0.7169 -0.1792 -0.8254
  119SOL     OW  355   0.643   2.631   0.202  0.0733  0.1262 -0.0817
  119SOL    HW1  356   0.585   2.701   0.160 -1.2998 -1.4267 -0.5794
  119SOL    HW2  357   0.680   2.671   0.290 -0.2545 -2.7022  0.1175
  120SOL     OW  358   1.179   0.785   0.434 -0.0776  0.5585 -0.1783
  120SOL    HW1  359   1.173   0.682   0.447 -2.7147 -4.7104 -0.4528
  120SOL    HW2  360   1.254   0.805   0.367  1.2064  0.8336 -2.0179
  121SOL     OW  361   1.655   0.812   1.133 -1.1006 -0.4157  0.2374
  121SOL    HW1  362   1.699   0.826   1.047  1.4631 -0.6468  2.1364
  121SOL    HW2  363   1.682   0.885   1.200  0.9641  0.0098  1.3371
  122SOL     OW  364   1.921   1.670   2.072  0.7808  0.0209 -1.0507
  122SOL    HW1  365   1.869   1.762   2.083 -0.3067  4.2694 -3.0391
  122SOL    HW2  366   1.871   1.621   1.998 -4.0181  1.4292 -1.3848
  123SOL     OW  367   0.295   0.990   0.575 -0.3018  0.5072 -0.5020
  123SOL    HW1  368   0.259   1.085   0.581  0.1207 -0.8581  0.6226
  123SOL    HW2  369   0.242   0.937   0.644 -1.4591 -0.9379 -1.4839
  124SOL     OW  370   0.748   0.202   2.758  0.6794 -0.3940  0.1199
  124SOL    HW1  371   0.846   0.232   2.735  4.1104  2.4983 -2.4426
  124SOL    HW2  372   0.743   0.148   2.843 -1.1650  1.8855  2.0548
  125SOL     OW  373   0.659   2.899   2.811  0.2928 -0.1144  0.6986
  125SOL    HW1  374   0.754   2.873   2.846  2.4250  0.0540  2.2203
  125SOL    HW2  375   0.669   2.930   2.713 -0.2995 -0.6380 -3.9786
  126SOL     OW  376   0.675   1.496   0.061 -0.1291  0.2877  0.1506
  126SOL    HW1  377   0.628   1.405   0.043  1.2717 -1.1772  1.5474
  126SOL    HW2  378   0.748   1.501   3.091 -1.4633  1.8671 -0.0164
  127SOL     OW  379   1.074   2.701   0.779 -0.1095  0.0865 -0.4687
  127SOL    HW1  380   1.030   2.784   0.729  0.5711  2.7164 -1.7627
  127SOL    HW2  381   1.170   2.716   0.806 -1.0779 -0.5294 -2.3370
  128SOL     OW  382   1.653   1.939   0.114  0.5364  0.2915  0.5779
  128SOL    HW1  383   1.576   1.888   0.071 -1.2281 -1.0242  1.0000
  128SOL    HW2  384   1.697   2.007   0.050  0.4275  0.8062 -1.9486
  129SOL     OW  385   1.792   1.814   1.799 -0.1333 -0.3439 -0.3567
  129SOL    HW1  386   1.760   1.742   1.741  4.1741  1.7356 -0.2092
  129SOL    HW2  387   1.716   1.849   1.863 -1.5467 -0.4722  0.6462
  130SOL     OW  388   2.069   1.841   1.783 -0.2561 -0.8125 -0.1389
  130SOL    HW1  389   1.966   1.834   1.787 -3.5450  1.7360  0.2471
  130SOL    HW2  390   2.103   1.846   1.881 -1.5453 -0.0432  0.6588
  131SOL     OW  391   0.925   2.573   2.010  0.2116 -0.0799  0.6902
  131SOL    HW1  392   0.938   2.620   1.921 -2.5318 -1.2366  0.8329
  131SOL    HW2  393   0.832   2.535   2.017  0.3900 -3.1767  2.3329
  132SOL     OW  394   2.503   1.492   0.781 -0.3169  0.4726 -0.6849
  132SOL    HW1  395   2.563   1.557   0.826 -1.0714 -1.1866 -0.5086
  132SOL    HW2  396   2.551   1.421   0.727  0.2459  1.5846  1.2550
  133SOL     OW  397   0.849   1.969   1.830  0.9226  0.4899  0.5911
  133SOL    HW1  398   0.815   1.986   1.734  0.8708  0.3010  0.6368
  133SOL    HW2  399   0.786   1.999   1.904 -2.1113 -2.5273 -2.8655
  134SOL     OW  400   3.024   1.647   0.797  0.4426 -0.3236  0.0071
  134SOL    HW1  401   2.974   1.569   0.762 -0.6288  1.3490 -1.2373
  134SOL    HW2  402   3.077   1.694   0.723  0.4181 -1.4825  0.9813
  135SOL     OW  403   2.125   1.523   2.884  0.3720 -0.2965  0.1278
  135SOL    HW1  404   2.164   1.617   2.881  0.0742  1.0262 -1.0935
  135SOL    HW2  405   2.163   1.460   2.814 -0.2242 -0.2173  2.1879
  136SOL     OW  406   3.030   1.674   1.327  0.0346  0.2804 -0.9355
  136SOL    HW1  407   3.047   1.669   1.230 -0.7547  1.1184  3.6208
  136SOL    HW2  408   3.096   1.738   1.373  1.3499 -1.4933 -1.0804
  137SOL     OW  409   2.813   1.286   2.829  0.0186 -0.0821 -0.3637
  137SOL    HW1  410   2.770   1.215   2.765 -1.6292 -0.7635 -1.8521
  137SOL    HW2  411   2.771   1.375   2.812 -2.1344 -0.6523 -1.2050
  138SOL     OW  412   2.675   0.435   0.918  0.4867  0.1980  0.3271
  138SOL    HW1  413   2.600   0.414   0.985  2.0735 -0.8349 -1.9212
  138SOL    HW2  414   2.661   0.523   0.870 -0.8903  0.1354  2.6493
  139SOL     OW  415   2.066   2.396   2.794 -0.7253  0.0487  0.2121
  139SOL    HW1  416   2.158   2.438   2.770  1.6222 -1.7711  0.7313
  139SOL    HW2  417   2.042   2.327   2.719  0.5102 -1.5062 -3.1552
  140SOL     OW  418   0.897   1.583   0.648  0.4977  0.2858 -0.3710
  140SOL    HW1  419   0.837   1.634   0.709  0.2460 -0.6322 -0.1245
  140SOL    HW2  420   0.879   1.480   0.650 -0.3018 -3.8761  0.6387
  141SOL     OW  421   1.122   1.235   0.731  0.1415  0.4761 -0.5197
  141SOL    HW1  422   1.210   1.289   0.726  2.5783  1.2268 -1.2864
  141SOL    HW2  423   1.127   1.146   0.685 -0.4264 -1.1844 -2.1431
  142SOL     OW  424   1.242   0.857   1.194 -0.2129 -0.2253 -0.2443
  142SOL    HW1  425   1.166   0.791   1.217 -0.6629  0.6398  1.0724
  142SOL    HW2  426   1.311   0.811   1.130 -0.3325 -1.3235 -1.0504
  143SOL     OW  427   0.375   0.360   2.886 -0.0956  0.2536  0.0578
  143SOL    HW1  428   0.277   0.381   2.862 -1.1709 -2.3915  1.9820
  143SOL    HW2  429   0.440   0.408   2.824  2.7677 -2.1618  2.0297
  144SOL     OW  430   2.396   0.294   0.249  0.1895 -0.0752 -0.4506
  144SOL    HW1  431   2.342   0.383   0.240  1.0058  0.9778 -1.6243
  144SOL    HW2  432   2.493   0.304   0.247 -1.0581 -1.6887  1.3178
  145SOL     OW  433   2.303   3.012   2.673  0.2011 -0.7844  0.4675
  145SOL    HW1  434   2.361   3.035   2.589  0.4717 -0.1825 -1.6816
  145SOL    HW2  435   2.259   3.100   2.711  0.3797  2.0969 -0.1456
  146SOL     OW  436   2.980   2.670   0.504  0.1720  0.6411  0.0703
  146SOL    HW1  437   3.006   2.576   0.480  3.1708  2.8104  0.7038
  146SOL    HW2  438   2.952   2.726   0.430  0.5616  0.1113  1.9562
  147SOL     OW  439   1.324   0.786   0.023 -0.0634 -0.6560  0.4453
  147SOL    HW1  440   1.228   0.808   0.043 -0.4780 -1.0873 -0.2820
  147SOL    HW2  441   1.331   0.690   3.087 -1.5352 -1.0285 -0.1925
  148SOL     OW  442   1.110   0.088   0.071  0.3701 -0.0868  1.1141
  148SOL    HW1  443   1.106   0.065   0.168  0.2012  0.6529 -0.4350
  148SOL    HW2  444   1.203   0.078   0.029 -1.1557 -1.4739  1.7552
  149SOL     OW  445   1.466   0.885   2.639  0.1636 -0.2494 -0.0363
  149SOL    HW1  446   1.378   0.855   2.597 -2.6628 -0.2737 -0.5896
  149SOL    HW2  447   1.522   0.806   2.662  0.9134 -1.9931 -0.5386
  150SOL     OW  448   1.486   2.902   2.879 -0.2654  0.4247  0.3533
  150SOL    HW1  449   1.573   2.950   2.889  0.9085 -0.4554 -0.5427
  150SOL    HW2  450   1.449   2.867   2.964  0.3146 -0.1613  0.8384
  151SOL     OW  451   2.969   1.347   3.044  0.1688 -0.5962  0.0971
  151SOL    HW1  452   2.943   1.316   2.948  1.2232 -0.3650 -0.3820
  151SOL    HW2  453   2.930   1.284   0.016 -0.4552 -0.4434 -1.7077
  152SOL     OW  454   0.733   0.250   1.643  0.4656 -0.0721 -0.1392
  152SOL    HW1  455   0.815   0.312   1.629 -0.6241  2.3384 -0.4890
  152SOL    HW2  456   0.665   0.259   1.570  0.9127 -0.2066 -1.3295
  153SOL     OW  457   2.626   0.076   1.986  0.0410 -0.1245  0.0756
  153SOL    HW1  458   2.536   0.032   1.970 -0.2222 -0.9857  0.1193
  153SOL    HW2  459   2.604   0.166   2.033 -1.1971  1.2544  1.7468
  154SOL     OW  460   2.326   0.130   2.018  0.5277  0.0145 -0.1889
  154SOL    HW1  461   2.252   0.071   2.054 -0.0509  1.2441  0.8108
  154SOL    HW2  462   2.349   0.214   2.078  1.9894  0.5350  0.9079
  155SOL     OW  463   2.959   1.228   0.186 -0.6165  0.7725  0.6144
  155SOL    HW1  464   3.005   1.319   0.200  3.0256  0.7504  0.7630
  155SOL    HW2  465   2.923   1.192   0.274  0.5716  1.4686  0.2543
  156SOL     OW  466   1.603   1.293   0.162 -0.3886  0.3819 -0.4831
  156SOL    HW1  467   1.568   1.231   0.236 -2.2186 -0.7155 -0.8312
  156SOL    HW2  468   1.623   1.246   0.076 -3.5999  0.7209  2.1200
  157SOL     OW  469   0.867   2.449   2.966  0.5612  0.0483 -0.5051
  157SOL    HW1  470   0.954   2.397   2.977 -0.9935  1.2506  0.1756
  157SOL    HW2  471   0.785   2.398   3.008  1.6434 -1.2093  2.9163
  158SOL     OW  472   1.708   1.048   1.567  0.0843 -0.4757 -0.1010
  158SOL    HW1  473   1.701   1.037   1.665  0.3791  1.2836 -3.4009
  158SOL    HW2  474   1.652   1.130   1.537 -2.6951 -0.4479  0.6571
  159SOL     OW  475   2.985   0.350   0.591 -0.3141  0.3444  0.1805
  159SOL    HW1  476   2.984   0.329   0.493  1.3610  1.2189  4.6827
  159SOL    HW2  477   2.902   0.316   0.641 -4.9798 -0.7023 -1.9942
  160SOL     OW  478   2.512   1.904   1.760 -0.6937  0.1831 -0.1774
  160SOL    HW1  479   2.541   1.805   1.731  1.7212 -1.7377  0.2651
  160SOL    HW2  480   2.418   1.921   1.737  2.9124 -1.0697  0.8724
  161SOL     OW  481   0.128   0.143   0.233 -0.2620  0.6651 -0.3843
  161SOL    HW1  482   0.139   0.046   0.203  1.5542 -1.1254 -0.6667
  161SOL    HW2  483   0.198   0.175   0.305  1.5384  0.7282 -1.5218
  162SOL     OW  484   0.525   0.563   2.085  0.0622  0.0725  0.2018
  162SOL    HW1  485   0.478   0.637   2.139 -0.1843 -0.6988 -1.2797
  162SOL    HW2  486   0.614   0.530   2.127  1.8936 -1.0175 -0.1443
  163SOL     OW  487   2.947   0.059   2.537  0.5828  0.3363  0.5226
  163SOL    HW1  488   2.851   0.092   2.552 -1.4209 -0.2840  1.3662
  163SOL    HW2  489   2.948   3.061   2.514 -0.2796 -0.3297  1.7019
  164SOL     OW  490   2.285   1.587   0.157  0.2013  0.2431 -0.5402
  164SOL    HW1  491   2.212   1.657   0.156 -1.5927 -0.5721  1.2524
  164SOL    HW2  492   2.265   1.504   0.099 -1.0698 -1.1406  1.8706
  165SOL     OW  493   0.648   0.109   1.278 -0.5617  0.4605 -0.3847
  165SOL    HW1  494   0.634   0.188   1.337  2.5221 -0.1120 -0.9882
  165SOL    HW2  495   0.727   0.050   1.311  0.1975 -1.8383  1.1409
  166SOL     OW  496   3.010   0.262   0.319 -0.2589  0.4169 -0.5361
  166SOL    HW1  497   3.095   0.252   0.268 -0.6660  2.6364  0.5166
  166SOL    HW2  498   2.965   0.175   0.332 -0.9108  2.9239 -0.2452
  167SOL     OW  499   2.204   0.542   0.619 -0.5045 -0.1889  0.0125
  167SOL    HW1  500   2.242   0.520   0.714 -1.7881  1.4913  0.9999
  167SOL    HW2  501   2.135   0.472   0.592 -1.2084 -1.4047 -1.2723
  168SOL     OW  502   1.200   0.462   2.378 -0.0153 -0.2625  0.0554
  168SOL    HW1  503   1.183   0.487   2.477 -0.2897 -2.4549 -1.5634
  168SOL    HW2  504   1.139   0.517   2.316 -0.7403  1.8534 -0.1169
  169SOL     OW  505   0.888   1.893   1.181 -0.0104  0.3394 -0.0871
  169SOL    HW1  506   0.963   1.840   1.136  0.0977 -2.3522  0.2151
  169SOL    HW2  507   0.872   1.983   1.134  1.3571 -1.1675  1.7548
  170SOL     OW  508   3.005   0.086   1.756  0.0102 -0.2309 -0.0323
  170SOL    HW1  509   3.034   3.096   1.717  0.2073  0.9880  0.2973
  170SOL    HW2  510   2.905   0.103   1.751 -1.2410 -0.1027 -3.0009
  171SOL     OW  511   2.734   0.906   2.118  0.4936 -0.3873 -0.0113
  171SOL    HW1  512   2.652   0.958   2.093 -1.1133  0.3373  1.8309
  171SOL    HW2  513   2.718   0.811   2.099 -0.5934 -2.0124 -1.2386
  172SOL     OW  514   1.352   2.232   1.075  0.1488  0.1427 -0.0095
  172SOL    HW1  515   1.254   2.247   1.054  0.3180 -1.0462 -0.9629
  172SOL    HW2  516   1.386   2.163   1.008 -0.8275  1.6531 -0.4158
  173SOL     OW  517   2.413   2.393   0.026 -0.3998 -0.1135 -0.5431
  173SOL    HW1  518   2.322   2.383   0.070  0.9077 -0.3455 -2.6820
  173SOL    HW2  519   2.454   2.485   0.054  1.0073 -1.2507  0.1834
  174SOL     OW  520   1.652   0.738   0.367 -0.3357  0.2689  0.3713
  174SOL    HW1  521   1.653   0.691   0.280  1.4199  0.3124 -0.0535
  174SOL    HW2  522   1.748   0.733   0.401 -0.9236 -2.4635 -2.5259
  175SOL     OW  523   0.734   1.811   1.374 -0.0274  0.0139 -0.5486
  175SOL    HW1  524   0.677   1.734   1.343  2.2277  0.4939  2.1481
  175SOL    HW2  525   0.785   1.847   1.297 -1.7403 -0.0978 -0.1469
  176SOL     OW  526   0.383   0.051   0.784  0.3024  0.0544  0.4066
  176SOL    HW1  527   0.473   0.014   0.814 -1.2078  1.0244 -1.8100
  176SOL    HW2  528   0.347   3.090   0.710  2.8627  2.0246  0.0319
  177SOL     OW  529   2.716   1.345   0.298  0.1630 -0.4030  0.6610
  177SOL    HW1  530   2.765   1.270   0.348 -0.6024 -0.9297 -0.4017
  177SOL    HW2  531   2.779   1.403   0.237  3.0906  3.1394  2.7642
  178SOL     OW  532   2.735   2.515   2.018  0.1285 -0.0241 -0.4475
  178SOL    HW1  533   2.762   2.618   2.027 -1.3937  4.0760 -1.2336
  178SOL    HW2  534   2.657   2.501   2.082  0.4181  2.7382 -1.4866
  179SOL     OW  535   2.232   0.079   0.294  0.2924  0.2025 -0.4045
  179SOL    HW1  536   2.275   0.170   0.278 -0.9136 -0.7241 -0.0935
  179SOL    HW2  537   2.173   0.056   0.212  0.9689  1.4756 -0.7753
  180SOL     OW  538   2.408   0.586   0.433 -0.4571  0.0998 -0.3134
  180SOL    HW1  539   2.331   0.561   0.495  0.9483 -0.1909 -1.8371
  180SOL    HW2  540   2.423   0.690   0.426  1.2069  3.2578 -0.1528
  181SOL     OW  541   2.991   0.081   2.811 -0.2507 -1.0536 -0.0524
  181SOL    HW1  542   2.986   0.070   2.708 -0.5934  1.4968  3.1848
  181SOL    HW2  543   2.910   0.037   2.858 -1.8578 -1.4508  0.2899
  182SOL     OW  544   2.629   2.009   2.595  0.1887  0.1422 -0.7871
  182SOL    HW1  545   2.651   1.987   2.497  1.0412  0.0173  0.1084
  182SOL    HW2  546   2.612   1.922   2.652 -0.1563  1.1809  1.7192
  183SOL     OW  547   0.041   0.886   1.526  0.7131 -0.2429 -0.2240
  183SOL    HW1  548   0.099   0.958   1.481  0.7432 -1.7559  0.4417
  183SOL    HW2  549   3.076   0.935   1.587 -1.7972 -2.0437  1.4690
  184SOL     OW  550   0.058   1.416   1.023  0.1569 -0.0454 -0.3693
  184SOL    HW1  551   0.015   1.508   1.036  0.9753 -1.3299  0.5924
  184SOL    HW2  552   0.104   1.406   0.931 -2.3450  1.5364  1.5567
  185SOL     OW  553   2.900   2.966   1.387  0.2165 -0.1994  0.6779
  185SOL    HW1  554   2.890   2.866   1.391 -2.3268  2.8935  2.5596
  185SOL    HW2  555   2.848   3.011   1.303  1.2163  1.9026 -2.5259
  186SOL     OW  556   2.122   2.312   2.299  0.1982 -0.0731  1.0195
  186SOL    HW1  557   2.092   2.222   2.253  0.9237 -1.9528  1.0621
  186SOL    HW2  558   2.193   2.291   2.367  0.7754  1.0631 -1.7206
  187SOL     OW  559   0.193   1.285   0.585  0.4809  0.2943 -0.4952
  187SOL    HW1  560   0.241   1.330   0.510  0.1108 -0.0084  0.4119
  187SOL    HW2  561   0.220   1.335   0.671  0.1236  1.1515  1.7870
  188SOL     OW  562   1.943   1.760   2.969 -0.7257 -0.2243  0.3505
  188SOL    HW1  563   1.905   1.854   2.975 -0.7138 -1.5882 -2.5438
  188SOL    HW2  564   2.030   1.737   3.022  3.3289 -1.9467  0.1558
  189SOL     OW  565   2.975   1.722   3.008 -0.1563  0.2168 -0.1628
  189SOL    HW1  566   3.066   1.684   2.985 -0.4967 -0.2707  1.2521
  189SOL    HW2  567   2.937   1.775   2.930  0.0577 -1.8644  2.7809
  190SOL     OW  568   2.239   0.716   2.462  0.9996  0.2364 -0.4251
  190SOL    HW1  569   2.270   0.809   2.470  0.0625 -2.2048  0.2078
  190SOL    HW2  570   2.260   0.668   2.550  1.4609  2.0737 -0.1925
  191SOL     OW  571   0.830   1.303   2.061  0.6523 -0.2132  0.3783
  191SOL    HW1  572   0.765   1.276   1.986 -1.9092  1.8852 -0.6440
  191SOL    HW2  573   0.815   1.233   2.133 -0.3019 -0.7763  0.0988
  192SOL     OW  574   1.721   1.531   1.943 -0.1117  0.8165 -0.0278
  192SOL    HW1  575   1.683   1.573   1.860 -0.4668  0.7613  2.1522
  192SOL    HW2  576   1.774   1.449   1.925 -2.1252  0.6060  0.2459
  193SOL     OW  577   0.887   0.180   0.785  0.4920  0.2116  0.5001
  193SOL    HW1  578   0.959   0.122   0.741 -2.3172 -1.1444  0.4166
  193SOL    HW2  579   0.921   0.229   0.870  0.4950  0.1692 -0.0374
  194SOL     OW  580   1.435   1.441   1.762  0.3783 -0.0944  0.3687
  194SOL    HW1  581   1.426   1.354   1.710  0.5461 -2.9920 -1.8708
  194SOL    HW2  582   1.385   1.433   1.851 -1.0747  0.0210 -3.7582
  195SOL     OW  583   1.839   0.167   0.929 -0.4232 -0.0389  0.0908
  195SOL    HW1  584   1.763   0.237   0.918  1.1053  0.8960 -1.4624
  195SOL    HW2  585   1.842   0.110   0.844 -1.0036  0.0887 -0.9465
  196SOL     OW  586   1.071   1.607   1.946 -0.1653 -0.6893 -0.6603
  196SOL    HW1  587   1.166   1.640   1.971  2.8318 -2.2835 -1.6378
  196SOL    HW2  588   1.058   1.606   1.848 -0.3169 -1.1285  1.2740
  197SOL     OW  589   0.530   0.121   2.608 -0.3063  0.2783  0.4859
  197SOL    HW1  590   0.614   0.159   2.655  1.5428  3.0631  1.0392
  197SOL    HW2  591   0.557   0.037   2.559  1.6930  1.5199 -0.1421
  198SOL     OW  592   2.820   1.066   0.920  0.0791 -0.1848 -0.1818
  198SOL    HW1  593   2.767   1.037   1.000  1.6787 -0.2487  3.1729
  198SOL    HW2  594   2.813   1.167   0.908  1.6233 -4.7753 -0.8729
  199SOL     OW  595   0.506   2.298   1.132 -0.6952 -0.6894 -0.0924
  199SOL    HW1  596   0.522   2.232   1.052  2.3668 -1.1605  0.3764
  199SOL    HW2  597   0.413   2.276   1.168 -0.3522 -0.4426 -1.7529
  200SOL     OW  598   2.840   1.857   2.812 -0.3391  0.0601 -0.0886
  200SOL    HW1  599   2.891   1.790   2.752  0.0284  2.1651 -1.0125
  200SOL    HW2  600   2.747   1.831   2.837  2.6890  1.1589 -3.0539
  201SOL     OW  601   0.921   2.432   1.222  0.2510  0.3042  0.2314
  201SOL    HW1  602   0.951   2.462   1.130 -1.6459 -1.2023  3.2682
  201SOL    HW2  603   0.857   2.349   1.218 -2.4096 -2.2379  2.1407
  202SOL     OW  604   1.105   2.664   0.114 -0.0135 -0.0316  0.3889
  202SOL    HW1  605   1.006   2.671   0.088 -2.7080  1.0054  0.2434
  202SOL    HW2  606   1.155   2.613   0.042  0.7555 -0.2643 -0.7101
  203SOL     OW  607   1.688   0.011   2.890 -0.4809  0.5776 -0.2966
  203SOL    HW1  608   1.675   0.069   2.807  0.1891  1.1151  0.5943
  203SOL    HW2  609   1.767   3.053   2.872  0.0024  0.4794 -0.1793
  204SOL     OW  610   0.451   1.618   1.522  0.4580 -0.5301  0.2924
  204SOL    HW1  611   0.485   1.577   1.436  0.2014 -1.4153 -0.3348
  204SOL    HW2  612   0.514   1.583   1.598  2.5572 -2.1865 -0.0568
  205SOL     OW  613   2.191   1.404   2.242  0.2647  0.1027 -0.1317
  205SOL    HW1  614   2.280   1.447   2.264  0.7783  0.1823  0.8163
  205SOL    HW2  615   2.204   1.323   2.187 -0.9226  2.7243  0.7174
  206SOL     OW  616   0.192   1.979   3.090  0.7776  0.7534 -0.0440
  206SOL    HW1  617   0.146   1.971   2.999 -1.5659 -0.9547 -0.6749
  206SOL    HW2  618   0.140   1.926   0.061 -2.6822 -0.2616  1.0114
  207SOL     OW  619   0.491   2.090   2.293 -0.6597 -0.0875  0.0812
  207SOL    HW1  620   0.568   2.024   2.282  1.1376 -1.9510  0.4491
  207SOL    HW2  621   0.482   2.159   2.221  0.3983  1.2696  2.3211
  208SOL     OW  622   0.216   2.728   1.435  0.0980 -0.0877  0.0148
  208SOL    HW1  623   0.172   2.700   1.522  0.6594  0.4213 -1.9592
  208SOL    HW2  624   0.154   2.799   1.390 -2.1380  0.6577 -0.2660
  209SOL     OW  625   1.299   2.774   2.148 -0.5669  0.1249  0.4460
  209SOL    HW1  626   1.286   2.691   2.204  1.0114 -1.6192  0.8014
  209SOL    HW2  627   1.267   2.861   2.184 -0.2262 -2.3110 -1.5792
  210SOL     OW  628   2.871   1.129   2.038 -0.0085  0.1588  0.0415
  210SOL    HW1  629   2.972   1.127   2.059  1.0836 -0.6692 -1.2445
  210SOL    HW2  630   2.828   1.039   2.056 -0.4760 -0.2034 -1.3643
  211SOL     OW  631   1.491   0.104   2.049 -0.2179  0.2346 -0.5970
  211SOL    HW1  632   1.551   0.043   2.104 -0.7034  3.6241  0.6744
  211SOL    HW2  633   1.408   0.134   2.100 -1.6534 -0.4969  0.0817
  212SOL     OW  634   1.659   2.786   1.803  0.6963 -0.5561  0.3133
  212SOL    HW1  635   1.695   2.753   1.891 -2.8288 -3.3683 -2.6699
  212SOL    HW2  636   1.717   2.854   1.752  2.5031  0.3134 -1.9635
  213SOL     OW  637   2.551   0.568   1.676  0.4442 -0.5339 -0.2479
  213SOL    HW1  638   2.567   0.490   1.613 -1.0935 -0.2874 -1.0572
  213SOL    HW2  639   2.643   0.593   1.707 -1.8045 -1.2533  1.4028
  214SOL     OW  640   0.783   2.134   0.800 -0.5065  0.1967  0.2777
  214SOL    HW1  641   0.847   2.052   0.801 -0.1405  0.6864 -0.0043
  214SOL    HW2  642   0.822   2.198   0.727  0.0656  1.7259  0.4290
  215SOL     OW  643   2.448   1.856   0.810  0.6891 -0.1984 -0.4172
  215SOL    HW1  644   2.537   1.813   0.839 -0.8361  0.6585 -1.1848
  215SOL    HW2  645   2.433   1.856   0.709 -3.6415 -0.2794 -1.3395
  216SOL     OW  646   2.812   0.705   1.743 -0.3414  0.5961  0.3553
  216SOL    HW1  647   2.784   0.803   1.756 -0.9572 -1.2654 -0.5474
  216SOL    HW2  648   2.851   0.694   1.647 -0.8010 -2.6024 -2.1640
  217SOL     OW  649   2.110   0.404   1.506  0.6367 -0.4810 -0.6746
  217SOL    HW1  650   2.115   0.463   1.429 -1.8479 -1.5922 -0.9096
  217SOL    HW2  651   2.102   0.454   1.595 -1.0835 -2.9269  0.7519
  218SOL     OW  652   1.934   2.302   1.188 -0.0963  0.0916  0.3892
  218SOL    HW1  653   2.018   2.357   1.170 -0.1141  0.0612 -0.4894
  218SOL    HW2  654   1.879   2.356   1.256 -0.3786  0.3063  0.3721
  219SOL     OW  655   2.177   2.380   0.141  0.4868 -0.3303 -0.4327
  219SOL    HW1  656   2.112   2.315   0.177  1.0751  2.1944  0.4242
  219SOL    HW2  657   2.127   2.450   0.082 -2.1606 -1.3387 -4.1170
  220SOL     OW  658   1.508   2.720   0.055 -0.0385  0.4579 -0.2864
  220SOL    HW1  659   1.535   2.683   0.147 -2.8601 -0.9026 -0.3580
  220SOL    HW2  660   1.594   2.754   0.014 -3.7291  0.3871 -0.9687
  221SOL     OW  661   3.089   2.043   1.800  0.0850  0.2065  0.1834
  221SOL    HW1  662   3.004   2.026   1.744  1.8328  0.4747 -0.4800
  221SOL    HW2  663   3.069   2.059   1.897 -0.7628 -1.0893 -0.3485
  222SOL     OW  664   1.932   2.485   0.927  0.3692  0.2120  0.0667
  222SOL    HW1  665   1.992   2.452   1.004 -1.7851  0.4734  0.3345
  222SOL    HW2  666   1.921   2.410   0.854 -2.2656 -0.5398 -1.3561
  223SOL     OW  667   1.396   2.615   1.285  0.0589 -0.3480 -0.5993
  223SOL    HW1  668   1.420   2.684   1.357  1.6760  0.8331  2.8258
  223SOL    HW2  669   1.358   2.535   1.334 -0.4655  1.2252 -0.4526
  224SOL     OW  670   2.752   2.523   1.554 -0.3161 -0.3778 -0.0559
  224SOL    HW1  671   2.834   2.545   1.494  2.7436  0.6324  0.2851
  224SOL    HW2  672   2.772   2.559   1.647  2.0826 -0.1963 -1.1612
  225SOL     OW  673   2.391   2.128   0.879 -0.0122  0.6881 -0.0080
  225SOL    HW1  674   2.393   2.037   0.837  2.4579 -0.7993 -1.6757
  225SOL    HW2  675   2.303   2.148   0.929 -0.1062  1.0059  3.1648
  226SOL     OW  676   1.231   2.312   0.116 -0.0909  0.4181 -0.2174
  226SOL    HW1  677   1.326   2.277   0.091  0.7644 -0.8240 -3.9404
  226SOL    HW2  678   1.216   2.302   0.219 -1.4715 -0.5803  1.8607
  227SOL     OW  679   2.093   1.036   0.590  0.4022 -0.4742 -0.1200
  227SOL    HW1  680   2.004   1.089   0.589  0.2880  2.1020  0.2755
  227SOL    HW2  681   2.076   0.934   0.597  2.1785 -0.6460 -1.3196
  228SOL     OW  682   1.668   0.549   0.145 -0.2267 -0.0220  0.0411
  228SOL    HW1  683   1.736   0.492   0.097 -0.3659 -0.0073 -0.3182
  228SOL    HW2  684   1.579   0.498   0.165 -0.0374  0.0157  1.5538
  229SOL     OW  685   2.841   0.931   2.408  0.1483 -0.3358  0.1830
  229SOL    HW1  686   2.796   0.909   2.320  4.1655  3.3709  0.1466
  229SOL    HW2  687   2.920   0.862   2.430  1.8722 -0.1042  2.0517
  230SOL     OW  688   0.375   1.210   0.939  0.1193 -0.0076  0.2305
  230SOL    HW1  689   0.377   1.228   1.038  2.4351  0.2450 -2.4278
  230SOL    HW2  690   0.467   1.194   0.904 -2.9498 -0.5320  0.5513
  231SOL     OW  691   2.509   0.402   2.720  0.5599  0.3533  0.0619
  231SOL    HW1  692   2.543   0.498   2.737  0.4340  2.3785 -3.2702
  231SOL    HW2  693   2.541   0.335   2.790  0.9303  1.4604 -0.7550
  232SOL     OW  694   2.837   1.997   0.780 -0.0489 -0.0971 -0.0958
  232SOL    HW1  695   2.930   2.000   0.828  2.3630  0.7925  2.7044
  232SOL    HW2  696   2.779   2.081   0.786 -1.3267 -0.8142  1.5564
  233SOL     OW  697   1.800   2.612   2.488  0.0870 -0.0882 -0.1633
  233SOL    HW1  698   1.709   2.661   2.473  0.3315 -2.4068  1.1678
  233SOL    HW2  699   1.853   2.619   2.403  1.1642  0.1349  2.2326
  234SOL     OW  700   1.355   1.921   1.277 -0.0060 -0.1217 -0.0692
  234SOL    HW1  701   1.409   1.902   1.362 -0.9397  0.7000  2.0732
  234SOL    HW2  702   1.311   2.010   1.294  0.8018 -1.4180  1.5743
  235SOL     OW  703   1.099   1.887   1.719  1.0688  0.1145 -0.0227
  235SOL    HW1  704   1.026   1.923   1.779 -1.3536 -0.2130 -0.2726
  235SOL    HW2  705   1.051   1.837   1.642  0.4581  0.2565 -1.2473
  236SOL     OW  706   0.882   2.489   2.696 -0.8642 -0.8519 -0.1692
  236SOL    HW1  707   0.984   2.466   2.685  0.2150  0.5811  0.8826
  236SOL    HW2  708   0.867   2.481   2.794  2.9003 -2.4276 -3.9521
  237SOL     OW  709   0.472   3.036   1.523 -0.1738  0.3534  0.4938
  237SOL    HW1  710   0.488   3.000   1.431  1.5405 -3.2755  3.1913
  237SOL    HW2  711   0.473   2.961   1.587  0.7128  2.4984 -1.6160
  238SOL     OW  712   0.874   0.694   0.266 -0.1195  0.0419  0.6131
  238SOL    HW1  713   0.906   0.701   0.362 -2.3336  1.8036 -0.1731
  238SOL    HW2  714   0.780   0.730   0.253  1.6475  1.1840 -1.6477
  239SOL     OW  715   2.316   0.637   2.717  0.1747 -0.3480 -0.0172
  239SOL    HW1  716   2.297   0.730   2.752 -2.0101 -0.9948 -2.4591
  239SOL    HW2  717   2.231   0.581   2.730 -0.6407  0.3231  1.3207
  240SOL     OW  718   2.733   2.171   1.069 -0.1870  0.4318  0.4586
  240SOL    HW1  719   2.671   2.091   1.078  0.5766 -0.9788 -2.2106
  240SOL    HW2  720   2.830   2.141   1.068  0.7062 -0.1660 -3.5498
  241SOL     OW  721   1.123   1.656   0.778  0.2283 -0.1864  0.2048
  241SOL    HW1  722   1.159   1.569   0.817 -0.6756 -2.8291  1.1431
  241SOL    HW2  723   1.025   1.648   0.747 -2.5023 -3.2335 -1.3581
  242SOL     OW  724   0.895   0.569   0.918 -0.5557 -0.3187  0.0646
  242SOL    HW1  725   0.805   0.523   0.935 -0.2558  0.0077 -1.9096
  242SOL    HW2  726   0.902   0.628   0.833  1.5823 -0.5772 -0.4037
  243SOL     OW  727   0.561   0.609   1.175 -0.2542 -0.2585  0.2985
  243SOL    HW1  728   0.512   0.543   1.238  0.7863 -2.6118 -1.0516
  243SOL    HW2  729   0.502   0.656   1.101  0.1494  2.1591 -0.4241
  244SOL     OW  730   1.142   0.097   0.345 -0.2479 -0.3569 -0.0475
  244SOL    HW1  731   1.109   0.033   0.412 -0.2439  3.1009  0.2742
  244SOL    HW2  732   1.066   0.165   0.323  3.5836  0.6478 -1.5199
  245SOL     OW  733   1.928   0.727   0.430  0.0016  0.1963 -0.4864
  245SOL    HW1  734   1.998   0.719   0.508  2.3256 -0.4794  0.4260
  245SOL    HW2  735   1.973   0.762   0.344 -0.8997  2.1382 -3.6428
  246SOL     OW  736   0.460   0.173   1.671 -0.8250  0.4231 -0.4772
  246SOL    HW1  737   0.460   0.083   1.620 -2.6550  0.9099 -0.5419
  246SOL    HW2  738   0.549   0.182   1.726  2.8938 -1.0081  1.9967
  247SOL     OW  739   1.135   0.133   1.958  0.2718 -0.5391 -0.7173
  247SOL    HW1  740   1.224   0.128   1.908 -0.9619 -1.2229 -1.3798
  247SOL    HW2  741   1.149   0.181   2.047  0.7047  0.6211  0.5447
  248SOL     OW  742   0.505   1.725   2.024 -0.1284 -0.1980  0.1432
  248SOL    HW1  743   0.595   1.768   2.041 -1.2328  0.6199 -3.1298
  248SOL    HW2  744   0.469   1.677   2.106 -0.0833  0.2006  1.6373
  249SOL     OW  745   0.483   2.428   0.325  0.4469  0.3830 -0.4530
  249SOL    HW1  746   0.403   2.482   0.357 -0.7691  1.3972 -0.4099
  249SOL    HW2  747   0.557   2.487   0.277  1.4754 -1.6568 -2.4274
  250SOL     OW  748   0.788   0.148   2.145 -0.1059 -0.3279  0.1852
  250SOL    HW1  749   0.696   0.147   2.186  0.8971  0.7432 -1.7130
  250SOL    HW2  750   0.781   0.117   2.051  0.0902 -1.5503  3.1647
  251SOL     OW  751   2.900   2.011   1.626 -0.1628  0.6210 -0.3097
  251SOL    HW1  752   2.890   1.911   1.602 -0.8653 -0.1767 -0.7126
  251SOL    HW2  753   2.808   2.051   1.640  1.2376  1.0908  3.0809
  252SOL     OW  754   1.319   0.302   1.795 -0.1691 -0.7343  0.6013
  252SOL    HW1  755   1.347   0.350   1.880 -1.9882  1.0248 -0.0058
  252SOL    HW2  756   1.352   0.209   1.787  0.2595 -1.1955 -0.7894
  253SOL     OW  757   2.348   1.973   2.216  0.1377 -0.0207  0.5478
  253SOL    HW1  758   2.362   2.064   2.170 -0.8431 -0.3463  0.0886
  253SOL    HW2  759   2.355   1.978   2.314  1.3186 -3.2857  0.5324
  254SOL     OW  760   0.881   1.487   1.013 -0.3801  0.1573 -0.3969
  254SOL    HW1  761   0.817   1.566   1.006  0.9906 -1.8055 -0.8327
  254SOL    HW2  762   0.841   1.406   0.959  0.3507 -1.4929 -2.7195
  255SOL     OW  763   0.389   2.792   2.068 -0.3726  0.4974 -0.3087
  255SOL    HW1  764   0.344   2.831   1.985 -0.1307 -1.0248  1.9012
  255SOL    HW2  765   0.419   2.698   2.049  1.5542  2.0764  0.5027
  256SOL     OW  766   0.338   2.696   0.680  0.3395 -0.2812 -0.2205
  256SOL    HW1  767   0.431   2.660   0.696 -0.1577 -0.7859  0.6844
  256SOL    HW2  768   0.311   2.669   0.586  1.1968  1.4700 -0.3734
  257SOL     OW  769   1.246   2.507   2.256  0.4123  0.2658 -0.1340
  257SOL    HW1  770   1.344   2.490   2.278  0.4280 -1.1361  0.9083
  257SOL    HW2  771   1.224   2.467   2.164  2.6263  0.9187 -0.3038
  258SOL     OW  772   1.506   2.101   2.048  0.7394  0.1664 -0.0204
  258SOL    HW1  773   1.425   2.108   1.985 -1.6847 -0.0908  0.3825
  258SOL    HW2  774   1.563   2.183   2.048  0.6997  1.4667 -1.1782
  259SOL     OW  775   0.868   0.796   2.204  0.1973 -0.0195 -0.3912
  259SOL    HW1  776   0.883   0.855   2.124  1.1047 -2.9189  2.0677
  259SOL    HW2  777   0.766   0.759   2.213 -3.6570  0.2688  1.1769
  260SOL     OW  778   2.848   0.749   2.717 -0.0113 -0.5355  0.1388
  260SOL    HW1  779   2.912   0.764   2.799 -0.7720 -0.1498  1.4062
  260SOL    HW2  780   2.754   0.730   2.749 -1.5586  1.5603 -0.2860
  261SOL     OW  781   0.832   1.322   0.700  0.6877 -0.2147 -0.3580
  261SOL    HW1  782   0.912   1.282   0.738 -2.0905 -0.3403 -1.8572
  261SOL    HW2  783   0.802   1.270   0.618  2.0445  2.5947  0.2617
  262SOL     OW  784   2.348   2.011   2.518 -0.4414  0.3474  0.4663
  262SOL    HW1  785   2.260   1.973   2.561 -0.4174 -1.3727  1.7788
  262SOL    HW2  786   2.427   1.999   2.580 -0.1760  2.6490 -1.0825
  263SOL     OW  787   0.759   2.905   0.973  0.2260  0.9642  0.5687
  263SOL    HW1  788   0.852   2.873   0.999 -0.5523 -1.0351  1.0537
  263SOL    HW2  789   0.693   2.882   1.044 -0.3029  1.1120 -0.5461
  264SOL     OW  790   2.875   2.130   0.437  0.8625 -0.0447 -0.2235
  264SOL    HW1  791   2.844   2.192   0.512 -1.8893 -1.3523 -0.9060
  264SOL    HW2  792   2.798   2.067   0.410 -3.2048  0.1114  1.2285
  265SOL     OW  793   1.929   1.197   2.591  0.2639 -0.1290  0.8369
  265SOL    HW1  794   1.827   1.198   2.583  1.0342 -0.0957 -3.4927
  265SOL    HW2  795   1.963   1.292   2.582 -0.1090  0.6094  0.1485
  266SOL     OW  796   1.329   1.924   2.177  0.5172 -0.1715 -0.0181
  266SOL    HW1  797   1.372   2.012   2.147  2.1939 -2.4941 -0.8417
  266SOL    HW2  798   1.229   1.937   2.199  3.0610 -0.2043  1.4004
  267SOL     OW  799   2.585   0.577   2.477 -0.0319 -0.1443  0.4966
  267SOL    HW1  800   2.556   0.673   2.467 -1.0077 -0.5776 -0.7483
  267SOL    HW2  801   2.509   0.512   2.503 -1.1069  1.2141 -1.7352
  268SOL     OW  802   1.006   1.117   2.986 -0.0711  0.2372 -0.2226
  268SOL    HW1  803   1.042   1.190   2.925  0.6528  1.4646  0.9950
  268SOL    HW2  804   1.054   1.115   3.076 -1.0707 -0.4578 -1.8678
  269SOL     OW  805   3.046   2.099   2.067 -0.1058 -0.4036 -0.4414
  269SOL    HW1  806   3.019   2.023   2.134  1.4265 -1.6146  0.9074
  269SOL    HW2  807   2.980   2.175   2.082  0.3876 -0.3835  0.8465
  270SOL     OW  808   3.012   1.889   0.114  0.3765 -0.1157  0.2856
  270SOL    HW1  809   2.998   1.852   0.211 -0.9430  1.8666  5.5603
  270SOL    HW2  810   2.998   1.815   0.047  1.2282  0.7290 -1.3496
  271SOL     OW  811   0.261   0.217   0.439 -0.4641 -0.4129 -0.3540
  271SOL    HW1  812   0.338   0.209   0.505  0.0828  0.1439  1.7977
  271SOL    HW2  813   0.195   0.291   0.476 -0.5933  2.1275  0.4764
  272SOL     OW  814   0.014   2.843   0.668  0.0108 -0.0175  0.1981
  272SOL    HW1  815   0.014   2.805   0.761  0.8580  0.1071 -0.7602
  272SOL    HW2  816   3.075   2.775   0.606 -0.5020  1.5337  2.3645
  273SOL     OW  817   0.282   3.012   2.207  0.0368 -0.4065  0.4622
  273SOL    HW1  818   0.291   3.000   2.305  0.3673  0.7435 -2.1764
  273SOL    HW2  819   0.313   2.934   2.149 -0.0776 -1.2755 -0.9461
  274SOL     OW  820   0.375   0.398   1.237  0.0251 -0.3618  0.2510
  274SOL    HW1  821   0.353   0.329   1.162  0.3726  1.9080 -1.0170
  274SOL    HW2  822   0.295   0.449   1.266 -0.5062  2.0419  0.7227
  275SOL     OW  823   1.119   1.836   1.023 -0.5955 -0.1733 -0.0310
  275SOL    HW1  824   1.212   1.852   1.064  0.0471 -0.4544 -3.9293
  275SOL    HW2  825   1.128   1.765   0.952 -0.0917  2.7386 -0.2154
  276SOL     OW  826   0.469   1.591   1.813 -0.1297 -0.1420  0.5877
  276SOL    HW1  827   0.484   1.653   1.890 -1.1016 -0.4522 -2.2794
  276SOL    HW2  828   0.370   1.579   1.787  0.8994 -1.7718  1.1482
  277SOL     OW  829   1.269   2.181   1.945 -0.7776 -0.6883 -0.0738
  277SOL    HW1  830   1.205   2.237   1.999 -1.0591 -0.6115  2.9776
  277SOL    HW2  831   1.236   2.175   1.852  0.3268  1.3540  0.2458
  278SOL     OW  832   2.139   2.968   2.121 -0.7921  0.3599 -0.2291
  278SOL    HW1  833   2.085   2.941   2.044  1.1935  0.9502  2.2299
  278SOL    HW2  834   2.096   3.049   2.168  0.0145  1.9713 -1.6116
  279SOL     OW  835   1.729   1.600   2.961 -0.0129 -0.0441  1.0515
  279SOL    HW1  836   1.662   1.662   2.912 -3.6501 -1.0809  0.0554
  279SOL    HW2  837   1.818   1.646   2.965 -0.1824 -0.8748  3.9252
  280SOL     OW  838   1.665   0.332   0.557 -0.2224  0.0859  0.4593
  280SOL    HW1  839   1.605   0.300   0.632  2.0754  0.6891  0.7359
  280SOL    HW2  840   1.656   0.434   0.555  0.0592 -0.3378  1.5221
  281SOL     OW  841   0.435   0.312   2.001  0.2217 -0.0280 -0.4578
  281SOL    HW1  842   0.375   0.322   1.918  1.1988 -1.7955 -3.6171
  281SOL    HW2  843   0.471   0.404   2.035 -0.4781  4.7982  0.5620
  282SOL     OW  844   0.263   2.957   0.643  0.1197 -0.4129  0.2864
  282SOL    HW1  845   0.160   2.966   0.642 -1.3740  0.3031 -0.3220
  282SOL    HW2  846   0.295   2.868   0.684  1.9903  1.0758 -1.9580
  283SOL     OW  847   1.317   2.335   1.336  0.0022 -0.4541 -0.4813
  283SOL    HW1  848   1.344   2.294   1.250  1.2308  0.6932 -0.5587
  283SOL    HW2  849   1.345   2.280   1.417  1.6993 -1.2888 -1.1795
  284SOL     OW  850   2.330   2.694   1.325  0.4385 -0.4532 -0.1202
  284SOL    HW1  851   2.415   2.638   1.332 -2.3656  0.7499 -0.3097
  284SOL    HW2  852   2.308   2.711   1.225 -2.1185 -0.1409  2.2292
  285SOL     OW  853   0.533   2.155   0.907  0.3630  0.2368  0.6757
  285SOL    HW1  854   0.627   2.154   0.862 -1.3655  0.4751 -2.6392
  285SOL    HW2  855   0.462   2.129   0.838 -1.0593  0.9521 -2.5009
  286SOL     OW  856   0.093   2.630   1.980  0.1931  0.3100 -0.1173
  286SOL    HW1  857   0.019   2.685   2.027  1.8131 -0.9987  0.7615
  286SOL    HW2  858   0.056   2.534   1.964  1.0667 -0.7482  3.1895
  287SOL     OW  859   0.631   1.166   0.843  0.2466 -0.0072  0.1646
  287SOL    HW1  860   0.672   1.241   0.791  1.0050  0.5705  0.9930
  287SOL    HW2  861   0.592   1.091   0.786  0.5081 -2.4986 -0.8271
  288SOL     OW  862   1.411   2.055   2.594  0.6333 -0.3490 -0.3603
  288SOL    HW1  863   1.442   1.972   2.542 -1.8795 -0.5857 -1.3052
  288SOL    HW2  864   1.330   2.033   2.652  0.1810 -0.7580  2.4042
  289SOL     OW  865   2.485   1.318   2.697 -0.8119 -0.2704 -0.1646
  289SOL    HW1  866   2.451   1.309   2.792  0.9568 -0.9090 -0.6898
  289SOL    HW2  867   2.415   1.371   2.643  0.9044 -0.1056 -1.7034
  290SOL     OW  868   1.312   1.512   0.945 -0.0521 -0.1087 -0.6632
  290SOL    HW1  869   1.260   1.461   1.018  0.8003 -1.0266  0.0859
  290SOL    HW2  870   1.342   1.610   0.964  1.9669 -0.0615  0.0916
  291SOL     OW  871   1.069   0.835   0.106  0.0259 -0.9052 -0.7788
  291SOL    HW1  872   1.028   0.777   0.178  0.6486 -3.6731  1.1935
  291SOL    HW2  873   1.026   0.817   0.013  1.0191 -0.8475 -0.4642
  292SOL     OW  874   1.924   1.545   0.421 -0.5259  1.2617  0.1650
  292SOL    HW1  875   1.943   1.454   0.380  1.2184  0.6264 -0.6417
  292SOL    HW2  876   1.992   1.608   0.383 -1.0037  0.9283  0.0809
  293SOL     OW  877   1.722   3.078   1.111 -0.2753 -0.3782 -0.2194
  293SOL    HW1  878   1.690   0.028   1.195  0.3891  3.1551 -0.1358
  293SOL    HW2  879   1.775   0.044   1.056 -1.2689 -0.6629 -1.1842
  294SOL     OW  880   2.069   0.823   0.208 -0.4640  0.3703 -0.2208
  294SOL    HW1  881   2.076   0.828   0.106 -3.4276 -0.9660  2.0994
  294SOL    HW2  882   2.122   0.902   0.249 -0.6183 -0.1053 -1.8076
  295SOL     OW  883   2.088   1.927   2.619  0.7889  0.4451  0.0239
  295SOL    HW1  884   2.021   1.854   2.644 -1.9333  0.3096  3.4588
  295SOL    HW2  885   2.052   2.021   2.609  2.0587 -1.6647 -0.8561
  296SOL     OW  886   1.440   1.495   1.230 -0.1878  0.0847  0.1271
  296SOL    HW1  887   1.480   1.557   1.158  0.3908  1.0331 -1.5752
  296SOL    HW2  888   1.352   1.528   1.263  0.6581  1.3702 -0.0223
  297SOL     OW  889   0.193   0.871   2.421 -0.2867  0.5952 -0.1924
  297SOL    HW1  890   0.119   0.815   2.451  0.0847  2.6573  0.3052
  297SOL    HW2  891   0.274   0.876   2.484 -1.0105  2.1523  2.6516
  298SOL     OW  892   1.787   2.459   1.351 -0.0415  0.4737 -0.0698
  298SOL    HW1  893   1.716   2.406   1.400 -0.7041 -0.3686 -0.2124
  298SOL    HW2  894   1.805   2.552   1.392 -2.2475 -0.1735 -0.8566
  299SOL     OW  895   1.168   0.471   2.659  0.1216 -0.1829 -0.1799
  299SOL    HW1  896   1.138   0.541   2.730 -1.2672 -1.4213  0.6359
  299SOL    HW2  897   1.120   0.383   2.680 -1.7006 -0.0845 -2.1837
  300SOL     OW  898   2.288   1.409   0.436  0.3442 -0.1507  0.7971
  300SOL    HW1  899   2.358   1.437   0.370 -0.1423 -0.3215 -3.6596
  300SOL    HW2  900   2.203   1.370   0.390 -1.1047 -1.2042 -2.2504
  301SOL     OW  901   2.302   0.352   2.533 -0.2815  0.7844 -0.3755
  301SOL    HW1  902   2.353   0.293   2.464 -4.3884 -1.5266  0.0084
  301SOL    HW2  903   2.354   0.372   2.614 -0.4232 -3.9971 -1.9554
  302SOL     OW  904   2.615   1.588   2.562 -0.1587 -0.1965 -0.1276
  302SOL    HW1  905   2.684   1.536   2.505 -2.2485 -1.9220  0.8815
  302SOL    HW2  906   2.548   1.627   2.499  0.6736 -1.1250  0.8829
  303SOL     OW  907   3.033   2.540   2.612  0.7864 -0.5584 -0.0514
  303SOL    HW1  908   3.031   2.580   2.520  1.1117 -2.3015  0.2568
  303SOL    HW2  909   0.000   2.578   2.678  0.8968 -3.8641 -0.5019
  304SOL     OW  910   2.921   1.357   1.196 -0.2213 -0.8072  0.2906
  304SOL    HW1  911   2.934   1.302   1.280  0.8920  0.2627 -2.4650
  304SOL    HW2  912   2.993   1.338   1.124 -0.0233  2.2197  1.6543
  305SOL     OW  913   0.159   0.312   2.269  0.6788  0.0713  0.2143
  305SOL    HW1  914   0.185   0.252   2.189 -0.7656 -1.4254  2.0818
  305SOL    HW2  915   0.108   0.265   2.348 -0.8353 -0.8239 -0.5485
  306SOL     OW  916   1.279   1.416   0.258  0.3652 -0.2486  0.5147
  306SOL    HW1  917   1.343   1.384   0.187 -1.4837  0.4095 -3.8376
  306SOL    HW2  918   1.335   1.455   0.334  1.9962 -0.3765 -2.0096
  307SOL     OW  919   2.800   0.050   1.232 -0.0850 -0.5339 -0.1138
  307SOL    HW1  920   2.833   0.037   1.134 -0.6008  0.5053 -1.6744
  307SOL    HW2  921   2.847   0.134   1.271 -0.1687  1.0956  0.6712
  308SOL     OW  922   2.938   1.656   2.633 -0.2828  0.6604 -0.2532
  308SOL    HW1  923   2.897   1.591   2.704 -1.8476  1.6121 -1.3187
  308SOL    HW2  924   2.908   1.636   2.537  2.0687 -0.5879  1.1553
  309SOL     OW  925   0.090   1.949   2.839  0.4157 -0.6310 -0.8220
  309SOL    HW1  926   0.054   2.031   2.789  1.4125  1.1459 -0.3708
  309SOL    HW2  927   0.151   1.895   2.776 -0.7411 -1.0567  2.9394
  310SOL     OW  928   2.350   0.491   3.006 -0.3710 -0.4708  0.9699
  310SOL    HW1  929   2.439   0.541   3.007  0.2711  2.3412 -0.4038
  310SOL    HW2  930   2.315   0.499   0.001  1.5975  0.8745 -0.5776
  311SOL     OW  931   2.060   1.071   2.812 -0.5069  0.1732 -0.2904
  311SOL    HW1  932   2.013   1.118   2.737  0.2865 -1.3301  0.6145
  311SOL    HW2  933   2.007   1.078   2.900 -1.3273  1.8666  3.0698
  312SOL     OW  934   1.311   1.354   1.987  0.2339 -0.2600  1.0254
  312SOL    HW1  935   1.275   1.273   1.934 -2.0949 -0.2512  0.4340
  312SOL    HW2  936   1.240   1.385   2.053  0.3442 -2.2361 -0.1155
  313SOL     OW  937   0.025   0.540   0.177  0.6122  0.5016  0.5062
  313SOL    HW1  938   0.013   0.458   0.117 -1.1482 -0.6705  1.0142
  313SOL    HW2  939   3.035   0.544   0.228  1.8041 -0.2800  0.2948
  314SOL     OW  940   0.335   1.864   1.566 -0.2481  0.3013  0.6159
  314SOL    HW1  941   0.382   1.922   1.636  1.2740 -0.9815 -1.4386
  314SOL    HW2  942   0.374   1.770   1.548 -1.6350 -1.0500 -2.0859
  315SOL     OW  943   1.224   1.685   1.309  0.3154 -0.1815  0.3670
  315SOL    HW1  944   1.240   1.649   1.406 -1.6392  1.8783 -0.0151
  315SOL    HW2  945   1.282   1.768   1.302  0.1237 -2.6406 -2.5323
  316SOL     OW  946   0.143   2.224   0.563 -0.2440  0.3541  0.0633
  316SOL    HW1  947   0.092   2.142   0.524 -2.1830  0.4084 -0.9660
  316SOL    HW2  948   0.241   2.194   0.589  3.5147 -1.3048  1.3041
  317SOL     OW  949   2.483   0.354   1.088 -0.1631 -0.1902 -0.0040
  317SOL    HW1  950   2.464   0.385   1.186 -0.7842 -1.2487  1.3941
  317SOL    HW2  951   2.521   0.258   1.091  2.3371 -2.5167  0.7824
  318SOL     OW  952   1.331   2.878   0.157 -0.3315  0.0699  0.0704
  318SOL    HW1  953   1.354   2.795   0.102  0.9255 -1.2656 -2.0528
  318SOL    HW2  954   1.413   2.944   0.156  2.0628  0.6423  2.3711
  319SOL     OW  955   1.640   0.099   2.636  0.2692 -0.9002  0.3874
  319SOL    HW1  956   1.649   0.185   2.583  1.2458 -0.6238 -1.2350
  319SOL    HW2  957   1.677   0.019   2.585 -0.4384 -1.5650 -0.8055
  320SOL     OW  958   2.609   2.011   1.982 -0.4202  0.4269 -0.4289
  320SOL    HW1  959   2.669   1.940   2.026  1.2149 -4.2065 -2.3414
  320SOL    HW2  960   2.560   1.973   1.903  0.7179  1.6999 -0.3579
  321SOL     OW  961   0.207   2.512   0.134  0.4606 -0.2371  0.1164
  321SOL    HW1  962   0.191   2.508   0.236 -2.8829  0.3673  1.3401
  321SOL    HW2  963   0.197   2.421   0.084  0.9654  1.6488 -1.4769
  322SOL     OW  964   2.705   0.947   1.776  0.2153  0.2926  0.0043
  322SOL    HW1  965   2.650   0.998   1.706  0.5179 -2.1889 -0.3294
  322SOL    HW2  966   2.660   0.956   1.865  2.4206  0.6531  0.5033
  323SOL     OW  967   1.865   1.117   0.286 -0.4252 -0.0287  0.0224
  323SOL    HW1  968   1.788   1.139   0.219 -0.4944 -0.8484 -2.2451
  323SOL    HW2  969   1.837   1.102   0.380  0.7280 -0.5454 -4.2362
  324SOL     OW  970   0.089   0.289   1.414  0.2282  0.2367  0.1740
  324SOL    HW1  971   0.133   0.379   1.408 -0.1527 -1.8153  3.1382
  324SOL    HW2  972   0.047   0.278   1.508 -0.0673  2.2701 -0.3643
  325SOL     OW  973   2.709   3.038   1.582  0.5109  0.1339 -0.2517
  325SOL    HW1  974   2.782   3.038   1.511 -0.6619 -0.8446  1.0826
  325SOL    HW2  975   2.706   0.032   1.623 -1.3994 -2.6374 -2.5008
  326SOL     OW  976   1.577   2.585   0.296 -0.2315 -0.4484  0.5971
  326SOL    HW1  977   1.508   2.552   0.359 -0.7135 -0.1875 -0.2688
  326SOL    HW2  978   1.625   2.506   0.252  1.9432 -1.6373  0.6396
  327SOL     OW  979   2.005   2.142   0.402  0.6844  0.1846 -0.2887
  327SOL    HW1  980   1.969   2.062   0.450 -0.9045  2.2577 -3.0635
  327SOL    HW2  981   1.992   2.139   0.301  1.2027  0.2774  0.5483
  328SOL     OW  982   2.650   2.258   1.897  0.1284  0.3979 -0.4181
  328SOL    HW1  983   2.647   2.174   1.959 -0.5959  0.5943  0.4707
  328SOL    HW2  984   2.705   2.333   1.938  1.3119 -0.1378  1.6610
  329SOL     OW  985   0.253   2.281   1.225  0.2447 -0.0355 -0.3897
  329SOL    HW1  986   0.205   2.368   1.251 -1.0653 -1.3890  1.7065
  329SOL    HW2  987   0.236   2.200   1.287 -1.3013 -3.9429  2.3011
  330SOL     OW  988   2.307   0.988   2.461 -0.2274  0.2224  0.3771
  330SOL    HW1  989   2.215   1.026   2.435 -0.1747 -0.2325  1.3717
  330SOL    HW2  990   2.381   1.016   2.399  0.5032  0.8809 -0.6729
  331SOL     OW  991   2.255   1.597   0.641  0.2157  0.2378  0.0042
  331SOL    HW1  992   2.269   1.546   0.554  1.9453 -0.9212 -2.9667
  331SOL    HW2  993   2.348   1.624   0.681 -0.5119  0.3306 -1.4848
  332SOL     OW  994   0.069   2.950   1.344 -0.3204  0.0390  0.0083
  332SOL    HW1  995   3.071   2.948   1.371  0.2325  0.8099 -0.1008
  332SOL    HW2  996   0.129   3.028   1.384  1.0725  0.5075 -1.2270
  333SOL     OW  997   0.152   1.622   2.008 -0.1719  0.6666  0.6430
  333SOL    HW1  998   0.155   1.696   1.938 -0.5770  1.1275 -0.6466
  333SOL    HW2  999   0.163   1.527   1.976 -0.9865  1.4214 -1.4564
  334SOL     OW 1000   0.336   0.783   1.325 -0.0978 -0.0946 -0.0014
  334SOL    HW1 1001   0.251   0.838   1.301 -3.1997  1.6730 -1.9018
  334SOL    HW2 1002   0.410   0.797   1.258  0.1045 -0.0328  1.8823
  335SOL     OW 1003   2.958   1.707   1.823  0.0607 -0.0904 -0.0382
  335SOL    HW1 1004   2.973   1.789   1.880 -1.0591  0.4636  1.8905
  335SOL    HW2 1005   2.924   1.634   1.882 -0.6983  0.6408  0.0915
  336SOL     OW 1006   1.912   2.935   2.862  0.0282 -0.1616 -0.4073
  336SOL    HW1 1007   1.889   2.856   2.806  1.1973  0.0667  3.8052
  336SOL    HW2 1008   1.997   2.925   2.917 -0.1172 -0.4738  1.1138
  337SOL     OW 1009   0.785   0.706   1.297 -0.0649  0.2244 -0.1248
  337SOL    HW1 1010   0.794   0.806   1.273  1.1361  2.4438 -1.8952
  337SOL    HW2 1011   0.697   0.674   1.258  0.8715  0.8346  1.8555
  338SOL     OW 1012   1.557   2.403   0.984 -0.0135  0.4842 -0.2935
  338SOL    HW1 1013   1.596   2.480   1.045  2.5687  3.5219  3.0294
  338SOL    HW2 1014   1.483   2.354   1.041 -1.2767 -2.0167 -0.1271
  339SOL     OW 1015   0.436   2.041   1.339 -0.3602  0.4710 -0.1423
  339SOL    HW1 1016   0.493   1.968   1.382  0.3546  0.9264 -2.9142
  339SOL    HW2 1017   0.393   2.098   1.416 -0.9041 -0.4258 -0.4979
  340SOL     OW 1018   0.506   0.124   2.216  0.6565 -0.0818  0.0062
  340SOL    HW1 1019   0.462   0.204   2.169 -0.7170  0.4973 -2.0011
  340SOL    HW2 1020   0.445   0.043   2.215  2.2372 -2.0998  2.0398
  341SOL     OW 1021   1.973   1.537   0.691 -0.5170  0.7479  0.8300
  341SOL    HW1 1022   1.942   1.555   0.596  1.7302  0.6906 -1.6735
  341SOL    HW2 1023   2.077   1.532   0.689  1.3478 -1.0128  2.1470
  342SOL     OW 1024   1.679   1.519   0.594  0.0337 -0.0020 -0.1388
  342SOL    HW1 1025   1.738   1.530   0.515 -1.2519 -1.4518  0.5684
  342SOL    HW2 1026   1.722   1.571   0.672  0.0642  1.8362  0.6020
  343SOL     OW 1027   2.137   0.119   0.940  0.2334 -0.4391 -0.0504
  343SOL    HW1 1028   2.157   0.114   0.842 -0.5539 -1.0284  1.9157
  343SOL    HW2 1029   2.036   0.134   0.954 -0.5178 -1.3856 -0.3751
  344SOL     OW 1030   2.606   0.182   2.914  0.3729  0.0512  0.6874
  344SOL    HW1 1031   2.579   0.139   3.001  0.6790  0.2805  0.6099
  344SOL    HW2 1032   2.570   0.129   2.831 -2.7146  0.4666  0.3957
  345SOL     OW 1033   1.249   2.811   1.167 -0.0583 -0.0065 -0.1802
  345SOL    HW1 1034   1.275   2.893   1.222  2.1148 -0.4020  0.9288
  345SOL    HW2 1035   1.305   2.730   1.195 -0.8334  0.0444  0.8287
  346SOL     OW 1036   2.340   2.366   1.596 -0.0241  0.5687 -0.0090
  346SOL    HW1 1037   2.245   2.338   1.572  1.2684 -0.5628  0.5595
  346SOL    HW2 1038   2.399   2.340   1.513 -0.4253  0.5936 -1.5076
  347SOL     OW 1039   2.444   0.031   0.927 -0.5927 -0.0119 -0.2111
  347SOL    HW1 1040   2.364   0.096   0.912 -1.6945  1.2632 -0.1513
  347SOL    HW2 1041   2.470   0.049   1.024 -1.1017  1.5915  0.8356
  348SOL     OW 1042   0.724   0.966   1.298 -0.4285  0.4077  0.0185
  348SOL    HW1 1043   0.735   1.061   1.274  1.3720 -1.0791  2.5323
  348SOL    HW2 1044   0.670   0.960   1.381 -0.3182  0.9065 -2.0406
  349SOL     OW 1045   2.249   0.221   2.993  0.2395 -0.1143  0.2617
  349SOL    HW1 1046   2.285   0.313   3.016  0.2218  1.2096 -0.6159
  349SOL    HW2 1047   2.256   0.210   2.888  1.8631  0.4294  1.4094
  350SOL     OW 1048   2.541   1.903   0.008 -0.0044 -0.7028  0.2449
  350SOL    HW1 1049   2.632   1.864   0.033  2.2609  1.2312  0.7610
  350SOL    HW2 1050   2.550   1.965   3.027  0.2372  3.7271  0.9747
  351SOL     OW 1051   1.239   0.505   0.603  0.2549 -0.3487 -0.0769
  351SOL    HW1 1052   1.221   0.411   0.642  1.9712  1.0328 -2.3407
  351SOL    HW2 1053   1.232   0.502   0.501 -1.0396 -0.9877 -1.8397
  352SOL     OW 1054   2.038   2.203   2.588  0.1354 -0.6080 -0.4644
  352SOL    HW1 1055   1.953   2.227   2.534  3.6598  0.8190 -0.3632
  352SOL    HW2 1056   2.118   2.238   2.533 -1.6802  0.6411  2.0702
  353SOL     OW 1057   0.375   0.543   3.091  0.1215 -0.3129 -0.2383
  353SOL    HW1 1058   0.390   0.482   3.012  0.3956 -0.9299  0.0444
  353SOL    HW2 1059   0.281   0.582   3.074 -0.3649 -2.0655 -1.1657
  354SOL     OW 1060   1.163   1.931   3.020 -0.1101 -0.0174 -0.4251
  354SOL    HW1 1061   1.079   1.875   3.019 -1.0551  1.6908  0.9074
  354SOL    HW2 1062   1.168   1.982   0.007  0.5851  1.1669 -0.3887
  355SOL     OW 1063   2.685   2.810   1.737 -0.8647  0.0707 -0.3308
  355SOL    HW1 1064   2.708   2.887   1.669  0.8657 -0.8371 -1.9956
  355SOL    HW2 1065   2.581   2.808   1.742  1.2803  0.6007 -0.8627
  356SOL     OW 1066   2.741   0.880   0.422  0.1231  0.4422  0.8068
  356SOL    HW1 1067   2.773   0.792   0.465 -0.0086  0.0858  0.7917
  356SOL    HW2 1068   2.660   0.916   0.463  1.5087  1.6505 -1.5869
  357SOL     OW 1069   2.299   0.484   0.877  0.6115  0.0479 -0.0311
  357SOL    HW1 1070   2.325   0.575   0.922  0.5591 -3.5387 -1.1171
  357SOL    HW2 1071   2.303   0.409   0.946  0.8252 -2.6402  1.7524
  358SOL     OW 1072   0.954   2.510   0.932 -0.4073 -0.2648 -0.3201
  358SOL    HW1 1073   0.859   2.518   0.968  0.0404 -0.8060 -2.8367
  358SOL    HW2 1074   0.984   2.589   0.874  1.5955 -1.4652 -1.5036
  359SOL     OW 1075   0.060   2.599   2.864 -0.7002  0.5031  0.6045
  359SOL    HW1 1076   0.087   2.503   2.887  0.1104 -1.2590  1.0890
  359SOL    HW2 1077   3.074   2.622   2.905  3.2313 -0.1749  2.9079
  360SOL     OW 1078   0.547   1.041   1.679  0.5335 -0.2656  0.4804
  360SOL    HW1 1079   0.451   1.032   1.711 -1.3362  2.5421  0.0987
  360SOL    HW2 1080   0.556   0.972   1.600  0.1125 -5.0671 -2.7027
  361SOL     OW 1081   2.560   2.837   0.578 -0.1278 -0.4073  0.7986
  361SOL    HW1 1082   2.499   2.832   0.659 -3.2586 -0.0931 -0.2097
  361SOL    HW2 1083   2.549   2.927   0.523 -0.5701 -0.7618 -2.6981
  362SOL     OW 1084   0.167   0.040   0.959 -0.0431 -0.2903  0.0951
  362SOL    HW1 1085   0.234   0.041   0.886 -2.1502 -0.2276  0.6209
  362SOL    HW2 1086   0.193   3.063   1.023 -1.1874 -0.0230  2.4502
  363SOL     OW 1087   0.707   1.167   0.533  1.0130  0.0873 -0.5051
  363SOL    HW1 1088   0.634   1.109   0.574 -0.7611  1.5869  0.3667
  363SOL    HW2 1089   0.751   1.132   0.450 -1.1910  0.9562  1.6298
  364SOL     OW 1090   0.749   1.531   1.820 -0.3142  0.1139 -0.0083
  364SOL    HW1 1091   0.750   1.428   1.823 -0.0880 -0.3724  0.9179
  364SOL    HW2 1092   0.655   1.568   1.815  0.1186 -0.5295 -0.4265
  365SOL     OW 1093   2.402   0.877   0.461  0.7252  0.3373 -0.4065
  365SOL    HW1 1094   2.442   0.901   0.555 -2.3703  0.8359  0.7424
  365SOL    HW2 1095   2.318   0.931   0.440 -1.7337 -0.5419  0.3135
  366SOL     OW 1096   2.777   1.828   1.172  0.5495  0.2307 -0.4636
  366SOL    HW1 1097   2.719   1.887   1.227  0.8052  0.1910 -0.4612
  366SOL    HW2 1098   2.774   1.733   1.205 -0.0500  1.3708 -0.6301
  367SOL     OW 1099   2.129   2.135   2.081 -0.2395 -0.0768  0.0670
  367SOL    HW1 1100   2.117   2.033   2.076  0.5603  0.5489  0.6497
  367SOL    HW2 1101   2.228   2.159   2.070  0.2534  0.8160 -0.5820
  368SOL     OW 1102   2.812   1.348   0.903  0.0954  0.3033 -1.1802
  368SOL    HW1 1103   2.867   1.379   0.823 -0.2622 -1.5007 -0.7307
  368SOL    HW2 1104   2.823   1.404   0.986  0.6895  0.7327  0.0899
  369SOL     OW 1105   2.483   2.660   0.040  0.2121 -0.6211  0.6077
  369SOL    HW1 1106   2.517   2.729   0.107 -0.6645 -1.0967 -0.5993
  369SOL    HW2 1107   2.511   2.690   3.046  1.2674  2.3560 -1.5043
  370SOL     OW 1108   3.095   2.938   1.721 -0.0538 -0.1086 -0.3036
  370SOL    HW1 1109   0.089   2.931   1.741  1.2561  0.3885  2.1024
  370SOL    HW2 1110   3.038   2.870   1.769  3.6579  3.0143 -1.8068
  371SOL     OW 1111   0.564   1.650   2.653  0.6790 -0.2311  0.1325
  371SOL    HW1 1112   0.585   1.734   2.705  0.9058 -0.5448 -0.6615
  371SOL    HW2 1113   0.615   1.648   2.567 -1.3088 -0.9186  4.4214
  372SOL     OW 1114   0.811   1.049   0.295 -0.2273  0.5802 -0.3615
  372SOL    HW1 1115   0.785   0.959   0.336  1.7312  0.5799  0.3955
  372SOL    HW2 1116   0.775   1.061   0.200 -0.7078 -1.4991 -1.0593
  373SOL     OW 1117   1.509   2.539   2.902 -0.3374 -0.1091  0.5313
  373SOL    HW1 1118   1.443   2.566   2.972 -0.1674 -1.0108  2.3615
  373SOL    HW2 1119   1.470   2.547   2.809  0.0045  1.9968  1.5476
  374SOL     OW 1120   0.281   1.980   0.322 -0.2427 -0.3490 -0.6947
  374SOL    HW1 1121   0.336   2.061   0.293  1.2931 -1.6944 -1.6635
  374SOL    HW2 1122   0.184   2.010   0.348 -1.3114  1.4507 -1.3653
  375SOL     OW 1123   0.988   1.553   1.696 -0.0251  0.0088 -0.1641
  375SOL    HW1 1124   0.897   1.554   1.737 -0.9509 -1.9863 -0.8632
  375SOL    HW2 1125   0.998   1.633   1.629  0.4798  2.0113 -0.6338
  376SOL     OW 1126   0.598   2.357   1.804 -0.1445  0.3434  0.3565
  376SOL    HW1 1127   0.578   2.398   1.714  0.0528  0.6893  1.8382
  376SOL    HW2 1128   0.522   2.291   1.827  0.9493  2.7745 -0.4033
  377SOL     OW 1129   2.432   1.479   2.214 -0.1226  0.0871 -0.1017
  377SOL    HW1 1130   2.439   1.578   2.189 -2.0072 -1.7191 -0.3560
  377SOL    HW2 1131   2.521   1.445   2.259  0.0365 -2.4912  0.8753
  378SOL     OW 1132   0.908   2.885   2.933  0.3494  0.3322  0.8346
  378SOL    HW1 1133   0.877   2.818   3.002 -1.1007  0.3310 -0.1476
  378SOL    HW2 1134   0.984   2.946   2.965  0.6564  0.7873 -1.0695
  379SOL     OW 1135   1.999   0.373   0.583  0.0510  0.4885  0.8994
  379SOL    HW1 1136   1.946   0.348   0.500 -2.6121 -0.1439  0.7252
  379SOL    HW2 1137   1.983   0.319   0.673  0.1217  2.5721  5.0173
  380SOL     OW 1138   3.013   2.091   1.388 -0.5672 -0.5028  0.7169
  380SOL    HW1 1139   2.968   2.053   1.472 -0.1176 -1.0663 -1.5519
  380SOL    HW2 1140   3.033   2.195   1.394  2.9725  2.6730  2.0703
  381SOL     OW 1141   1.827   2.120   1.834 -0.1195 -0.0052  0.0159
  381SOL    HW1 1142   1.813   2.146   1.734  0.3911  0.9571 -1.0955
  381SOL    HW2 1143   1.854   2.019   1.841  2.7268  1.5206 -1.5018
  382SOL     OW 1144   2.977   0.354   2.796 -0.7699  0.3415 -0.0348
  382SOL    HW1 1145   2.991   0.251   2.815 -1.0762 -1.1076  1.6610
  382SOL    HW2 1146   2.943   0.366   2.703  3.6405  0.5808  1.2342
  383SOL     OW 1147   1.659   1.288   2.587  0.4606 -0.3111  0.4641
  383SOL    HW1 1148   1.593   1.218   2.553 -1.2514 -0.0661 -0.8156
  383SOL    HW2 1149   1.650   1.314   2.688  2.9179  2.0923 -0.4939
  384SOL     OW 1150   1.063   2.263   0.923 -0.4082  0.3531 -0.1570
  384SOL    HW1 1151   1.029   2.360   0.917  1.1855  0.4598 -1.9299
  384SOL    HW2 1152   0.998   2.199   0.970  1.1613 -1.4184  0.4852
  385SOL     OW 1153   1.947   2.305   0.736 -0.2515 -0.1134 -0.1436
  385SOL    HW1 1154   1.844   2.284   0.730 -1.1845 -0.0645  1.8169
  385SOL    HW2 1155   1.986   2.319   0.643  4.6440 -0.2144  0.8421
  386SOL     OW 1156   2.105   1.897   1.030 -0.0094 -0.1282  0.4873
  386SOL    HW1 1157   2.095   1.993   0.999 -2.3224  0.3317  1.8707
  386SOL    HW2 1158   2.133   1.900   1.127  0.1014  1.3338 -1.0629
  387SOL     OW 1159   0.310   2.215   1.532 -0.4551 -0.8137  0.2958
  387SOL    HW1 1160   0.236   2.264   1.578  3.0707  3.5897 -3.3517
  387SOL    HW2 1161   0.366   2.158   1.595 -2.5388 -1.2688  3.4103
  388SOL     OW 1162   3.068   0.612   1.890  0.4920  0.2151 -0.2975
  388SOL    HW1 1163   3.025   0.640   1.979 -1.3337 -1.4972 -0.1416
  388SOL    HW2 1164   3.085   0.512   1.897 -0.0922  1.2411 -0.9312
  389SOL     OW 1165   1.791   1.111   0.566 -0.5346  0.3156 -0.5678
  389SOL    HW1 1166   1.795   1.186   0.630  0.6736 -2.6081 -1.5257
  389SOL    HW2 1167   1.747   1.032   0.607  1.5081  0.1189 -1.7029
  390SOL     OW 1168   0.916   2.113   2.553  0.7436  0.4687 -0.6114
  390SOL    HW1 1169   0.857   2.186   2.519 -2.5095 -0.0224  1.6277
  390SOL    HW2 1170   1.017   2.129   2.526  0.1510  0.6249 -0.4574
  391SOL     OW 1171   0.818   1.862   2.616  0.1962 -0.6267  0.1024
  391SOL    HW1 1172   0.719   1.870   2.644 -1.5128 -2.6881 -0.3907
  391SOL    HW2 1173   0.852   1.954   2.586 -1.0414 -2.8095 -0.5621
  392SOL     OW 1174   3.003   2.803   2.080 -0.3938 -0.0378 -0.0027
  392SOL    HW1 1175   2.908   2.795   2.045  2.0831  0.6671  1.5063
  392SOL    HW2 1176   3.021   2.904   2.085 -0.3021 -1.2802  0.6995
  393SOL     OW 1177   1.868   2.484   0.316 -0.1623 -0.5346 -0.2064
  393SOL    HW1 1178   1.807   2.408   0.302 -0.1063  0.8920 -0.9124
  393SOL    HW2 1179   1.938   2.465   0.392  0.2920  1.0805  2.5412
  394SOL     OW 1180   0.640   0.475   2.405  0.0844  0.5067  0.4828
  394SOL    HW1 1181   0.553   0.420   2.404  0.6571 -2.6692  1.6038
  394SOL    HW2 1182   0.700   0.431   2.332  2.9546 -0.1984 -2.2904
  395SOL     OW 1183   0.401   1.208   1.230  0.2921 -0.3473 -0.3241
  395SOL    HW1 1184   0.404   1.112   1.194 -0.8480 -0.4716  0.0105
  395SOL    HW2 1185   0.492   1.227   1.274 -0.8825 -0.2335  0.0073
  396SOL     OW 1186   1.551   1.599   2.132 -0.1694 -0.4939  0.2424
  396SOL    HW1 1187   1.623   1.568   2.070 -1.3310  2.7713  1.2319
  396SOL    HW2 1188   1.547   1.535   2.210 -2.6358  0.0744 -0.0378
  397SOL     OW 1189   0.835   0.369   3.052 -0.1897  0.5491 -0.5189
  397SOL    HW1 1190   0.766   0.420   0.006  0.1610 -1.5147 -0.8709
  397SOL    HW2 1191   0.798   0.280   3.034 -2.2767  2.5850 -1.6292
  398SOL     OW 1192   0.264   1.945   2.566 -0.2850  0.2082  0.0660
  398SOL    HW1 1193   0.334   1.995   2.621  0.1799  1.7078 -3.4855
  398SOL    HW2 1194   0.234   2.004   2.487  1.8044  1.0401 -0.6491
  399SOL     OW 1195   2.983   1.883   2.225  0.0911  0.2156 -0.6261
  399SOL    HW1 1196   2.989   1.924   2.317  0.0062  1.3305  3.1099
  399SOL    HW2 1197   3.046   1.801   2.214 -0.3896 -1.3931 -1.5047
  400SOL     OW 1198   2.382   0.752   1.597  0.1840 -0.2579 -0.2469
  400SOL    HW1 1199   2.398   0.793   1.502 -0.5206 -1.4649  2.8354
  400SOL    HW2 1200   2.455   0.688   1.626 -3.1453 -2.3176 -1.7265
  401SOL     OW 1201   1.009   1.401   0.335 -0.1201 -0.0038  0.1288
  401SOL    HW1 1202   0.986   1.304   0.344 -0.6476  0.6006 -1.1016
  401SOL    HW2 1203   1.108   1.421   0.343 -0.0177  0.8450  1.4731
  402SOL     OW 1204   3.049   2.625   2.310 -0.1269 -0.4455  0.3753
  402SOL    HW1 1205   3.057   2.697   2.236  1.4847  1.4927  0.1866
  402SOL    HW2 1206   0.023   2.553   2.308  0.9723 -0.8464 -1.1483
  403SOL     OW 1207   0.432   1.583   2.290  0.1451  0.0958  0.1439
  403SOL    HW1 1208   0.362   1.630   2.345 -0.0467 -1.1532 -0.6431
  403SOL    HW2 1209   0.481   1.519   2.353  0.1037 -1.2954 -1.2765
  404SOL     OW 1210   1.799   2.184   1.579 -0.2442 -0.3126  0.0805
  404SOL    HW1 1211   1.738   2.265   1.571 -0.5022  2.8243 -0.0141
  404SOL    HW2 1212   1.784   2.118   1.503  0.9995  0.7561 -0.2944
  405SOL     OW 1213   2.935   2.671   2.981 -0.4823  0.5828  0.3187
  405SOL    HW1 1214   2.910   2.628   3.069  0.4669 -1.2143 -0.3152
  405SOL    HW2 1215   2.881   2.626   2.904 -0.4821 -1.2148 -1.0675
  406SOL     OW 1216   0.566   1.259   3.099 -0.2197 -0.5886  0.1197
  406SOL    HW1 1217   0.619   1.177   0.021 -1.2639  3.0021  0.8417
  406SOL    HW2 1218   0.570   1.275   2.997  1.4654  2.0097 -2.6917
  407SOL     OW 1219   2.098   2.564   3.018 -0.0948  0.2114  0.0057
  407SOL    HW1 1220   2.086   2.483   2.960  1.0027  0.8613  1.4003
  407SOL    HW2 1221   2.097   2.644   2.956  3.2586 -0.2372  0.8952
  408SOL     OW 1222   2.946   3.003   0.189  0.0001 -0.6336 -0.0372
  408SOL    HW1 1223   2.904   2.917   0.217  0.9499  1.5609 -0.8125
  408SOL    HW2 1224   3.044   3.005   0.192 -0.2868  3.6214 -0.3004
  409SOL     OW 1225   2.159   1.476   0.935  0.3181 -0.1774 -0.0658
  409SOL    HW1 1226   2.195   1.572   0.938  0.4731  1.9070 -0.6509
  409SOL    HW2 1227   2.200   1.413   0.870 -0.9337  2.7201 -1.2636
  410SOL     OW 1228   2.850   1.804   0.604  0.5372 -0.3752  0.3218
  410SOL    HW1 1229   2.848   1.883   0.670  2.2358 -0.2007 -0.5428
  410SOL    HW2 1230   2.884   1.723   0.655  0.1663  1.0595 -0.0086
  411SOL     OW 1231   0.248   1.413   0.829 -0.8420 -0.0531  0.7422
  411SOL    HW1 1232   0.301   1.501   0.852 -1.4611  1.3558 -1.1720
  411SOL    HW2 1233   0.305   1.332   0.858  0.5258 -3.7410 -2.4265
  412SOL     OW 1234   2.300   2.186   0.338  0.3807 -0.4462 -0.2892
  412SOL    HW1 1235   2.312   2.283   0.364 -0.6141  0.1595  1.6361
  412SOL    HW2 1236   2.211   2.159   0.373  1.8227  1.2509  0.3558
  413SOL     OW 1237   1.924   0.869   2.267 -0.3587 -0.5436  0.5558
  413SOL    HW1 1238   1.916   0.799   2.195 -0.9820  0.2559  3.7568
  413SOL    HW2 1239   1.832   0.902   2.304 -2.1003  3.2169  0.7855
  414SOL     OW 1240   2.791   0.056   0.382 -0.5413  0.1848 -0.6538
  414SOL    HW1 1241   2.828   3.087   0.314  1.0594 -1.2522 -1.2958
  414SOL    HW2 1242   2.831   0.045   0.481  0.1779 -0.7611 -1.1166
  415SOL     OW 1243   0.870   2.134   1.064  0.2133  0.4941 -0.0687
  415SOL    HW1 1244   0.824   2.174   1.147  2.6396  0.8765  0.0640
  415SOL    HW2 1245   0.812   2.140   0.981 -2.3472  0.1459  1.2701
  416SOL     OW 1246   0.210   2.868   2.780  0.0795  0.5499 -0.9595
  416SOL    HW1 1247   0.195   2.841   2.681  0.5632 -0.2680 -1.1634
  416SOL    HW2 1248   0.156   2.798   2.838 -3.4068  1.7080  1.9738
  417SOL     OW 1249   2.821   0.790   1.213  0.1640  0.3310 -0.1140
  417SOL    HW1 1250   2.877   0.754   1.135  1.1681 -0.0469 -0.9679
  417SOL    HW2 1251   2.855   0.755   1.302 -0.2177 -0.1042 -1.4671
  418SOL     OW 1252   0.005   0.302   0.031 -0.0394 -0.1097 -0.4867
  418SOL    HW1 1253   0.051   0.241   0.096  0.2152  0.9233 -1.6700
  418SOL    HW2 1254   0.044   0.287   3.040 -0.6004 -3.9057 -0.3963
  419SOL     OW 1255   0.223   1.567   1.640  0.2719  0.6251 -0.4437
  419SOL    HW1 1256   0.175   1.528   1.560  2.5286 -2.4128  0.8741
  419SOL    HW2 1257   0.321   1.588   1.608  1.7877 -0.2879 -0.9212
  420SOL     OW 1258   0.536   1.604   0.427  0.3041 -0.2637 -0.2373
  420SOL    HW1 1259   0.467   1.644   0.366  2.7975 -1.1168  1.0993
  420SOL    HW2 1260   0.624   1.593   0.385 -0.3600  1.4514  2.6321
  421SOL     OW 1261   2.318   2.282   2.477 -0.1773 -0.3015  0.1928
  421SOL    HW1 1262   2.343   2.186   2.491 -0.5866 -1.2220  0.6684
  421SOL    HW2 1263   2.401   2.342   2.479 -1.4594  0.7496  1.2058
  422SOL     OW 1264   0.101   0.486   2.831  0.6919 -0.0375  1.0418
  422SOL    HW1 1265   0.161   0.500   2.752 -2.2945 -0.2417  1.8998
  422SOL    HW2 1266   0.013   0.437   2.810 -2.2981 -0.0540  1.3249
  423SOL     OW 1267   1.254   2.284   0.375  0.0257  0.1358  0.3368
  423SOL    HW1 1268   1.328   2.349   0.412 -2.6873  2.0015  0.8855
  423SOL    HW2 1269   1.209   2.246   0.455  1.7391  1.7551 -0.6995
  424SOL     OW 1270   0.691   2.011   1.585 -0.3542  0.0032 -0.3530
  424SOL    HW1 1271   0.725   2.108   1.573 -0.7900 -1.3835 -1.6296
  424SOL    HW2 1272   0.711   1.955   1.504 -2.3158 -0.9191  0.1367
  425SOL     OW 1273   2.703   2.683   2.530 -0.4517 -0.4055 -0.6556
  425SOL    HW1 1274   2.735   2.612   2.465 -0.0060  2.4876  1.8215
  425SOL    HW2 1275   2.729   2.661   2.627  3.2344 -2.4968  2.5540
  426SOL     OW 1276   1.775   0.575   0.869 -0.2082  0.0098 -0.4501
  426SOL    HW1 1277   1.880   0.580   0.867  1.7387 -3.6182 -0.9523
  426SOL    HW2 1278   1.734   0.607   0.777 -0.6528  2.5332 -2.9670
  427SOL     OW 1279   0.157   1.310   3.089  0.0481 -0.1745  0.1832
  427SOL    HW1 1280   0.202   1.248   0.057 -1.1160  1.5728  1.5967
  427SOL    HW2 1281   0.057   1.295   3.084  2.0570  0.3567 -0.3367
  428SOL     OW 1282   1.295   1.278   3.088 -0.0044  0.4820  0.4163
  428SOL    HW1 1283   1.237   1.231   0.057 -1.6928 -0.7345  1.6880
  428SOL    HW2 1284   1.313   1.216   3.012  2.1253  0.1485 -0.8389
  429SOL     OW 1285   2.868   2.579   0.734  0.7704  0.0259 -0.1271
  429SOL    HW1 1286   2.812   2.641   0.790 -0.5820  1.0856  0.1073
  429SOL    HW2 1287   2.913   2.632   0.658 -0.5049  0.1531 -0.1712
  430SOL     OW 1288   0.478   2.300   2.493 -0.1259  0.0929 -0.0643
  430SOL    HW1 1289   0.443   2.265   2.578  1.0976  0.2438 -2.8281
  430SOL    HW2 1290   0.479   2.230   2.421 -0.9918 -0.0801 -1.2825
  431SOL     OW 1291   2.866   1.134   0.449 -0.4001 -0.0226 -0.0736
  431SOL    HW1 1292   2.944   1.141   0.512 -2.5065 -0.9869  0.5943
  431SOL    HW2 1293   2.831   1.040   0.439 -1.6433 -0.4862  1.6623
  432SOL     OW 1294   2.153   2.635   2.055  0.5588 -0.3596 -0.5875
  432SOL    HW1 1295   2.252   2.616   2.037 -0.7122  2.4032  0.2158
  432SOL    HW2 1296   2.124   2.607   2.149  2.5224 -1.1117 -0.7771
  433SOL     OW 1297   1.402   2.524   0.762 -0.1170  0.7528 -0.4888
  433SOL    HW1 1298   1.456   2.483   0.840 -1.0217 -0.4282  2.2154
  433SOL    HW2 1299   1.380   2.619   0.784  0.5768 -1.3483 -1.0501
  434SOL     OW 1300   1.039   1.920   2.190 -0.1668  0.7033  0.4394
  434SOL    HW1 1301   0.972   1.888   2.115 -1.7348  0.6132 -1.6702
  434SOL    HW2 1302   1.042   1.856   2.271 -0.5182 -1.0328 -0.7055
  435SOL     OW 1303   2.759   1.003   3.091  1.1984  0.0438 -0.0321
  435SOL    HW1 1304   2.831   1.009   3.020  0.8475 -0.9011  2.4217
  435SOL    HW2 1305   2.795   0.934   0.055  0.4944 -1.6882  0.7711
  436SOL     OW 1306   0.293   2.674   2.298  0.5817  0.6071  0.5278
  436SOL    HW1 1307   0.336   2.738   2.231 -0.7531 -0.1270  0.0232
  436SOL    HW2 1308   0.374   2.628   2.340  0.3185  1.5686  0.2987
  437SOL     OW 1309   1.841   2.921   1.660 -0.0964  0.0218  0.0630
  437SOL    HW1 1310   1.920   2.881   1.711  2.2069 -0.0992  0.5329
  437SOL    HW2 1311   1.846   3.025   1.666 -0.1287 -0.5027 -0.3014
  438SOL     OW 1312   0.219   1.828   0.763  0.1348  0.4067  0.7001
  438SOL    HW1 1313   0.149   1.889   0.808  0.6510  0.5981  0.0554
  438SOL    HW2 1314   0.266   1.767   0.830 -0.1277  0.4888 -0.6342
  439SOL     OW 1315   0.304   0.283   1.004 -0.2505 -0.3335 -0.2343
  439SOL    HW1 1316   0.397   0.238   0.998  0.3677 -1.7898 -0.8190
  439SOL    HW2 1317   0.230   0.213   1.018 -0.5387  0.3475 -1.0129
  440SOL     OW 1318   2.873   2.883   2.418 -0.5535  0.8112  0.0885
  440SOL    HW1 1319   2.823   2.799   2.451  0.7352 -0.3575 -1.4853
  440SOL    HW2 1320   2.826   2.928   2.339 -1.9499  0.7937 -0.1713
  441SOL     OW 1321   0.016   0.816   0.201 -0.1408  0.7516  0.1831
  441SOL    HW1 1322   0.079   0.855   0.275  2.1717  3.4428  0.9628
  441SOL    HW2 1323   0.033   0.717   0.177  0.7296 -2.2260 -0.4773
  442SOL     OW 1324   1.499   2.408   2.303  0.4944  0.3140 -1.0720
  442SOL    HW1 1325   1.590   2.417   2.268 -3.0992  1.4799  1.0563
  442SOL    HW2 1326   1.501   2.344   2.384 -1.7837 -0.4966  0.5922
  443SOL     OW 1327   0.584   0.072   0.362  0.4159 -0.0951  0.3143
  443SOL    HW1 1328   0.681   0.053   0.348 -4.6112  1.1992  0.2574
  443SOL    HW2 1329   0.556   0.154   0.310 -1.0935 -2.6117 -0.3802
  444SOL     OW 1330   1.369   1.712   2.653 -0.2074 -0.0660  0.0151
  444SOL    HW1 1331   1.405   1.757   2.569 -0.9619 -0.8980 -1.1570
  444SOL    HW2 1332   1.272   1.721   2.663  3.5576 -1.9725  0.7750
  445SOL     OW 1333   0.142   0.449   0.632 -0.0484 -0.4513 -0.0610
  445SOL    HW1 1334   0.039   0.445   0.627  0.4428  0.9113  1.1998
  445SOL    HW2 1335   0.176   0.501   0.552 -0.8432 -1.9154 -0.4869
  446SOL     OW 1336   1.786   0.879   0.886 -0.3984  0.1669 -0.3250
  446SOL    HW1 1337   1.800   0.776   0.888  0.7430 -5.2299  3.4857
  446SOL    HW2 1338   1.689   0.909   0.876  3.7277  1.1973  2.2716
  447SOL     OW 1339   2.851   0.826   0.179 -0.4929  0.1585 -0.4424
  447SOL    HW1 1340   2.795   0.852   0.264 -1.3063  1.3085  0.0719
  447SOL    HW2 1341   2.950   0.820   0.200  0.7373  2.2945 -2.4095
  448SOL     OW 1342   1.792   2.042   1.342  0.3421 -0.0304 -0.5030
  448SOL    HW1 1343   1.752   2.043   1.253  0.9750  1.3351  0.9494
  448SOL    HW2 1344   1.893   2.051   1.338 -0.3975 -1.4448  2.3208
  449SOL     OW 1345   0.898   1.515   3.004 -0.0282 -0.5526  0.5298
  449SOL    HW1 1346   0.938   1.443   2.942 -1.6904  0.2033 -1.3246
  449SOL    HW2 1347   0.965   1.547   3.071 -1.4459 -0.2260 -3.2731
  450SOL     OW 1348   2.339   2.718   2.411 -0.0793  0.4321  0.2545
  450SOL    HW1 1349   2.243   2.731   2.443 -0.0809  3.9733  0.4584
  450SOL    HW2 1350   2.369   2.793   2.353 -1.4646  1.7941  2.0683
  451SOL     OW 1351   2.261   0.917   2.719 -0.3096  0.3103 -0.1146
  451SOL    HW1 1352   2.179   0.968   2.755 -2.0706  1.6435 -0.0033
  451SOL    HW2 1353   2.262   0.932   2.617  2.4415 -1.6057 -0.0695
  452SOL     OW 1354   1.501   1.167   1.037  0.3884  0.0345  0.2441
  452SOL    HW1 1355   1.399   1.144   1.057 -0.2115  0.5324 -2.3328
  452SOL    HW2 1356   1.555   1.165   1.124  1.7876 -1.4722  1.3978
  453SOL     OW 1357   1.641   0.739   1.458 -0.7297 -0.0239 -0.0719
  453SOL    HW1 1358   1.676   0.685   1.539  0.6275 -1.2722 -0.0402
  453SOL    HW2 1359   1.608   0.826   1.490  2.7013 -4.1114 -2.3028
  454SOL     OW 1360   2.762   1.032   2.720  0.3507 -0.3595  0.1031
  454SOL    HW1 1361   2.814   0.946   2.725  1.1062 -0.1226  1.9373
  454SOL    HW2 1362   2.661   1.011   2.702 -2.5281  2.2088  0.3084
  455SOL     OW 1363   2.786   1.572   1.306 -0.5779 -0.3879  0.2957
  455SOL    HW1 1364   2.864   1.625   1.349  3.2200 -0.6573  0.6193
  455SOL    HW2 1365   2.819   1.480   1.269 -0.7976  0.4793 -1.9715
  456SOL     OW 1366   1.463   2.807   1.456  0.2226 -0.1588  0.0962
  456SOL    HW1 1367   1.504   2.840   1.547  1.1969 -1.0862  4.2085
  456SOL    HW2 1368   1.441   2.892   1.403 -0.1355 -1.2431 -0.3860
  457SOL     OW 1369   1.566   2.912   0.872 -0.0378  0.1814 -0.0552
  457SOL    HW1 1370   1.636   2.836   0.870  1.4873 -0.4764 -1.6330
  457SOL    HW2 1371   1.549   2.957   0.959 -3.5921 -0.9829 -2.9312
  458SOL     OW 1372   3.008   2.846   0.931  1.0747 -0.0515  0.0425
  458SOL    HW1 1373   2.916   2.816   0.902  1.1122 -3.7434 -2.1480
  458SOL    HW2 1374   2.998   2.939   0.973 -0.1754 -0.0453 -0.4721
  459SOL     OW 1375   1.411   0.861   0.287 -0.1695 -0.3014  0.3678
  459SOL    HW1 1376   1.390   0.833   0.186 -2.0732  1.4287 -0.3948
  459SOL    HW2 1377   1.499   0.823   0.322  0.8747 -0.2895 -0.1250
  460SOL     OW 1378   0.520   2.578   2.462 -0.6296 -0.4000  0.1036
  460SOL    HW1 1379   0.503   2.477   2.456 -1.0662 -1.4138 -4.3105
  460SOL    HW2 1380   0.560   2.601   2.555  2.4870  1.5227  1.6426
  461SOL     OW 1381   0.183   1.573   0.335 -0.3184  0.4274 -0.3562
  461SOL    HW1 1382   0.244   1.494   0.358 -1.5433  2.3657  0.8619
  461SOL    HW2 1383   0.240   1.649   0.298  0.4628 -1.1782 -1.5902
  462SOL     OW 1384   1.698   2.084   0.374  0.0545  0.0520 -0.0371
  462SOL    HW1 1385   1.738   2.027   0.445  0.0978  0.2529  1.7546
  462SOL    HW2 1386   1.670   2.036   0.290 -0.0538  2.5189 -0.0477
  463SOL     OW 1387   2.572   0.357   0.497 -0.3851  0.1145  0.3086
  463SOL    HW1 1388   2.505   0.422   0.467  2.1809 -0.5178 -0.7111
  463SOL    HW2 1389   2.619   0.320   0.417 -0.7578 -0.7955  1.8600
  464SOL     OW 1390   0.852   2.074   0.311 -0.0263 -0.0064  0.7778
  464SOL    HW1 1391   0.888   2.067   0.211  3.2128 -1.6018 -1.5617
  464SOL    HW2 1392   0.763   2.027   0.327  0.2632  1.0402  3.0464
  465SOL     OW 1393   2.166   0.542   1.283 -0.5341  0.5692  0.4091
  465SOL    HW1 1394   2.171   0.456   1.226  1.5992 -0.2351 -0.6737
  465SOL    HW2 1395   2.137   0.621   1.232  1.5339 -3.2455  0.6305
  466SOL     OW 1396   2.158   0.096   0.681 -0.3103  0.3271 -0.0077
  466SOL    HW1 1397   2.152   0.012   0.625 -0.4533  1.7779 -1.1558
  466SOL    HW2 1398   2.251   0.132   0.669 -1.2908 -1.8333  0.9462
  467SOL     OW 1399   1.045   0.557   2.177  0.3654 -0.1532 -0.4947
  467SOL    HW1 1400   0.980   0.633   2.158 -1.1999 -0.5157 -0.1655
  467SOL    HW2 1401   1.139   0.578   2.134  1.4232  1.0336 -2.3127
  468SOL     OW 1402   2.537   0.313   2.101  0.7742 -0.0350  0.1956
  468SOL    HW1 1403   2.503   0.357   2.014 -0.7361  0.7544 -0.8207
  468SOL    HW2 1404   2.603   0.374   2.146 -0.7299 -2.0358  2.2275
  469SOL     OW 1405   0.975   2.668   1.734  0.3805 -0.4998  0.0811
  469SOL    HW1 1406   1.048   2.699   1.669  0.6938  1.7230  0.6566
  469SOL    HW2 1407   0.898   2.733   1.737 -0.5717  3.3414 -1.9565
  470SOL     OW 1408   2.329   1.126   1.745  0.4226 -0.2504  0.3986
  470SOL    HW1 1409   2.228   1.130   1.763  0.1230  2.4595 -1.2694
  470SOL    HW2 1410   2.381   1.208   1.790  2.1819  1.0607  3.2864
  471SOL     OW 1411   2.780   1.563   3.080 -0.0013  0.5045  0.0459
  471SOL    HW1 1412   2.862   1.617   3.055 -0.5240 -2.2049  3.2927
  471SOL    HW2 1413   2.792   1.469   3.056  0.3450  2.3544  0.0915
  472SOL     OW 1414   0.395   2.164   0.620  0.1082 -0.2970 -0.4345
  472SOL    HW1 1415   0.413   2.068   0.591  1.3909 -0.0257 -1.6349
  472SOL    HW2 1416   0.470   2.221   0.592 -0.1017  0.9898  0.7428
  473SOL     OW 1417   1.113   2.376   2.040 -0.0938  0.1397 -0.0199
  473SOL    HW1 1418   1.054   2.456   2.023 -1.9993 -0.6818  1.2622
  473SOL    HW2 1419   1.061   2.311   2.103 -1.8986  0.8452 -0.9949
  474SOL     OW 1420   0.957   2.754   2.484  0.2104  0.3911 -0.5925
  474SOL    HW1 1421   0.944   2.658   2.456  1.1236  1.5290  2.3846
  474SOL    HW2 1422   0.993   2.750   2.580 -0.2376  0.2689  0.6851
  475SOL     OW 1423   0.909   2.064   0.041 -0.0010 -0.6710 -0.1172
  475SOL    HW1 1424   0.963   2.137   3.091 -0.0940  1.2267 -2.9956
  475SOL    HW2 1425   0.891   1.987   3.076  1.1551 -0.3817  0.4302
  476SOL     OW 1426   1.012   0.693   1.141 -0.1771 -0.1872 -0.0769
  476SOL    HW1 1427   0.974   0.649   1.057  0.5908 -0.8543 -1.7136
  476SOL    HW2 1428   0.949   0.670   1.222 -1.7185  0.3330  3.2804
  477SOL     OW 1429   2.054   2.067   1.264  0.2381 -0.3376  0.3701
  477SOL    HW1 1430   2.152   2.073   1.288  0.4055 -0.9197  1.0736
  477SOL    HW2 1431   2.005   2.152   1.227 -0.3209  3.1645 -1.5810
  478SOL     OW 1432   0.135   0.646   3.033  0.9507 -0.0457 -0.2695
  478SOL    HW1 1433   0.130   0.587   2.952 -0.1226  2.9782  0.8535
  478SOL    HW2 1434   0.080   0.607   0.007  1.4834 -0.7571  0.9915
  479SOL     OW 1435   0.884   0.007   1.342 -0.0407 -0.0308  0.0929
  479SOL    HW1 1436   0.946   0.081   1.305  4.2899  1.8058 -1.2926
  479SOL    HW2 1437   0.934   3.056   1.414 -1.6315  1.3338 -0.0623
  480SOL     OW 1438   2.556   2.367   0.445  0.2959 -0.3827  0.3825
  480SOL    HW1 1439   2.560   2.318   0.357  1.5062  1.4193  2.2736
  480SOL    HW2 1440   2.644   2.346   0.490  1.7514  1.6892 -1.4319
  481SOL     OW 1441   0.100   0.651   1.640 -0.0846 -0.2392  0.2268
  481SOL    HW1 1442   0.081   0.755   1.628 -1.0377  1.9963  1.8790
  481SOL    HW2 1443   0.034   0.601   1.691  1.4028  0.4425 -2.0348
  482SOL     OW 1444   1.065   3.079   1.041 -0.2621 -0.4415 -0.9412
  482SOL    HW1 1445   1.041   0.056   1.101 -0.2306 -2.2573 -3.3047
  482SOL    HW2 1446   1.015   2.994   1.069  0.0839  0.7042 -1.2047
  483SOL     OW 1447   0.109   1.545   2.605 -0.3788  0.3908  0.2896
  483SOL    HW1 1448   0.094   1.440   2.621  1.8689  0.8505 -1.7505
  483SOL    HW2 1449   0.030   1.597   2.627  0.2773 -2.7247 -2.1491
  484SOL     OW 1450   1.651   1.890   2.077 -0.1478  0.2053 -0.8832
  484SOL    HW1 1451   1.589   1.966   2.045  0.2582 -0.1475 -1.0343
  484SOL    HW2 1452   1.601   1.806   2.095  0.3018  1.4021  1.5151
  485SOL     OW 1453   0.253   3.030   2.468 -0.1292 -0.1758 -0.0536
  485SOL    HW1 1454   0.258   0.012   2.525 -1.9387 -2.5202 -1.1895
  485SOL    HW2 1455   0.167   2.978   2.478 -0.4307  2.5465 -2.6059
  486SOL     OW 1456   1.255   2.964   0.636 -0.3054  0.2632  0.5802
  486SOL    HW1 1457   1.274   2.913   0.723  0.9265 -0.7909  1.4364
  486SOL    HW2 1458   1.288   2.902   0.559 -1.3486 -0.6716  0.1856
  487SOL     OW 1459   1.480   0.206   0.698 -0.0291 -0.3244 -0.3235
  487SOL    HW1 1460   1.527   0.119   0.689 -1.6299  2.0243 -1.6546
  487SOL    HW2 1461   1.477   0.234   0.798 -0.1134  0.6410  2.1109
  488SOL     OW 1462   2.215   0.911   0.946 -0.1182  0.2695 -0.1499
  488SOL    HW1 1463   2.301   0.970   0.924 -1.9122 -1.8245 -0.9395
  488SOL    HW2 1464   2.132   0.973   0.935  2.5409 -2.6246  1.2684
  489SOL     OW 1465   1.217   0.082   1.364 -0.1948  0.0358 -0.5190
  489SOL    HW1 1466   1.282   0.013   1.327 -0.6332 -1.3866  0.2791
  489SOL    HW2 1467   1.149   0.112   1.293 -2.3758  0.5013 -0.8393
  490SOL     OW 1468   0.643   0.543   0.078  0.2736  0.3162 -0.0617
  490SOL    HW1 1469   0.658   0.506   0.172 -1.4641 -1.7385 -0.5446
  490SOL    HW2 1470   0.545   0.524   0.047 -0.7734 -2.2911  0.9462
  491SOL     OW 1471   1.026   2.879   0.316 -0.2368 -0.0829  0.1098
  491SOL    HW1 1472   1.092   2.882   0.395 -1.8485 -0.4434  2.8845
  491SOL    HW2 1473   1.083   2.864   0.235  0.4636 -0.9448  0.0902
  492SOL     OW 1474   1.292   1.593   1.554 -0.0032  0.5389  0.1820
  492SOL    HW1 1475   1.311   1.667   1.620  1.9958 -0.9381 -0.0146
  492SOL    HW2 1476   1.305   1.504   1.603 -0.6223  0.7117 -1.1203
  493SOL     OW 1477   0.384   1.736   0.251 -0.3118 -0.1327  0.2355
  493SOL    HW1 1478   0.342   1.816   0.294  1.8430 -3.1155 -1.0915
  493SOL    HW2 1479   0.387   1.732   0.149 -0.8473 -2.1751  2.4865
  494SOL     OW 1480   1.929   1.883   0.457 -0.4936  0.3765  0.0224
  494SOL    HW1 1481   2.019   1.853   0.497 -1.7032 -0.9962 -0.8167
  494SOL    HW2 1482   1.922   1.857   0.359 -0.2633  0.7279  0.7539
  495SOL     OW 1483   0.265   1.339   2.408  0.1985 -0.8119 -0.0219
  495SOL    HW1 1484   0.210   1.415   2.368 -0.0357 -1.1011 -0.0760
  495SOL    HW2 1485   0.232   1.246   2.384  1.9836 -0.8331 -0.2335
  496SOL     OW 1486   0.551   2.984   2.478 -0.0869  0.0418 -0.0697
  496SOL    HW1 1487   0.465   2.939   2.507 -1.0803 -3.7051  0.2314
  496SOL    HW2 1488   0.571   2.982   2.382 -0.9654 -1.2102  2.2552
  497SOL     OW 1489   1.472   1.131   0.604 -0.3053  0.1565  0.6774
  497SOL    HW1 1490   1.463   1.126   0.504 -2.8635 -1.3785  1.0514
  497SOL    HW2 1491   1.438   1.220   0.635 -0.5615 -0.0027  0.8987
  498SOL     OW 1492   2.835   2.743   0.247 -0.2617  0.4089 -0.1373
  498SOL    HW1 1493   2.878   2.670   0.193 -3.6036  1.0180  1.9705
  498SOL    HW2 1494   2.757   2.701   0.297  1.7756 -1.1944 -2.9352
  499SOL     OW 1495   2.035   2.404   0.499 -0.1289 -0.2884 -0.3238
  499SOL    HW1 1496   2.004   2.309   0.469 -1.4528 -0.1579 -0.6553
  499SOL    HW2 1497   2.134   2.425   0.473  0.6533  1.4219 -5.4103
  500SOL     OW 1498   0.462   0.628   2.737  0.3617 -0.2682 -0.6184
  500SOL    HW1 1499   0.470   0.705   2.801  1.9433 -0.7120  0.9025
  500SOL    HW2 1500   0.555   0.604   2.705  0.5207 -2.6579 -0.1548
  501SOL     OW 1501   1.407   2.874   1.748 -0.2762  0.4136 -0.0700
  501SOL    HW1 1502   1.499   2.829   1.760 -1.9050  0.6293 -2.2877
  501SOL    HW2 1503   1.328   2.821   1.786 -1.4291 -1.2198 -0.7197
  502SOL     OW 1504   0.040   0.225   2.507  0.3139 -0.3324 -0.3252
  502SOL    HW1 1505   3.053   0.180   2.520 -0.6364  3.1575 -1.0283
  502SOL    HW2 1506   0.113   0.188   2.570 -0.8959  3.5070  1.1866
  503SOL     OW 1507   1.729   2.472   2.188 -0.1111 -0.8089 -0.6241
  503SOL    HW1 1508   1.712   2.399   2.119  1.1045  0.6658  1.6183
  503SOL    HW2 1509   1.805   2.534   2.150  2.0059  2.0923 -1.8275
  504SOL     OW 1510   1.827   0.093   1.651 -0.1476 -0.1851 -0.0421
  504SOL    HW1 1511   1.725   0.106   1.632 -3.0773  1.4354  0.3687
  504SOL    HW2 1512   1.894   0.124   1.578  1.4731 -1.5705  0.9679
  505SOL     OW 1513   2.629   1.667   1.679  0.3697 -0.0332 -0.0520
  505SOL    HW1 1514   2.709   1.720   1.639 -0.7557  0.7625 -1.9088
  505SOL    HW2 1515   2.560   1.647   1.608  0.5152 -0.3643 -2.8131
  506SOL     OW 1516   0.231   1.394   1.838 -0.4986  0.3244 -0.1588
  506SOL    HW1 1517   0.135   1.363   1.850  3.6832  0.2419 -2.4760
  506SOL    HW2 1518   0.236   1.441   1.751  1.3211 -2.7992  0.2355
  507SOL     OW 1519   0.476   2.718   1.705 -0.2470 -0.5373  0.0616
  507SOL    HW1 1520   0.549   2.718   1.778 -0.2716  1.4060  1.0055
  507SOL    HW2 1521   0.522   2.713   1.618 -2.6734  1.2544  2.3995
  508SOL     OW 1522   0.960   0.697   1.507  0.0897 -0.3745 -0.2736
  508SOL    HW1 1523   0.907   0.675   1.588  1.2257 -1.1126  0.1883
  508SOL    HW2 1524   0.898   0.707   1.429 -0.7836  1.5682  1.1588
  509SOL     OW 1525   1.569   2.506   1.738  0.1626 -0.1392 -0.0435
  509SOL    HW1 1526   1.626   2.592   1.717 -0.6665  0.6992 -0.4955
  509SOL    HW2 1527   1.469   2.534   1.749 -2.6922 -0.0133  1.4478
  510SOL     OW 1528   2.495   1.043   2.688 -0.1073  0.2822  0.0295
  510SOL    HW1 1529   2.409   0.988   2.699 -1.2112 -1.8762 -0.6565
  510SOL    HW2 1530   2.467   1.137   2.688  1.2957 -2.2257 -0.1498
  511SOL     OW 1531   0.673   1.264   1.324  0.9382 -0.0225  0.1358
  511SOL    HW1 1532   0.714   1.258   1.229 -0.1003  0.8832  0.5875
  511SOL    HW2 1533   0.748   1.262   1.392  2.8177 -1.7538 -0.8347
  512SOL     OW 1534   2.599   1.699   0.581  0.5553  0.1521  0.0622
  512SOL    HW1 1535   2.690   1.749   0.587  2.5049 -0.9103 -2.7108
  512SOL    HW2 1536   2.555   1.708   0.493  1.7938 -0.0665  2.7898
  513SOL     OW 1537   0.730   1.674   2.433 -0.2859  0.0911 -0.4611
  513SOL    HW1 1538   0.806   1.737   2.463 -1.9231  2.5409 -1.0276
  513SOL    HW2 1539   0.755   1.597   2.368  0.3680  1.1591 -0.5857
  514SOL     OW 1540   0.079   2.307   1.655 -0.2255 -0.0158  0.4292
  514SOL    HW1 1541   0.016   2.329   1.577 -1.1435 -1.4641  0.1746
  514SOL    HW2 1542   0.047   2.215   1.689 -1.4942 -2.4842  0.6004
  515SOL     OW 1543   2.088   1.237   1.615 -0.1493  0.2739  0.2411
  515SOL    HW1 1544   2.167   1.282   1.658 -1.4188 -0.7458  0.8131
  515SOL    HW2 1545   2.011   1.299   1.588  1.9358 -0.0491 -0.7142
  516SOL     OW 1546   2.455   0.031   3.094  0.4149 -0.1411 -0.2708
  516SOL    HW1 1547   2.407   0.050   3.006  0.0498  1.3220  2.0009
  516SOL    HW2 1548   2.404   0.076   0.068 -0.7241 -0.3659  0.7041
  517SOL     OW 1549   1.191   1.648   2.870 -0.1676  0.4610  0.7194
  517SOL    HW1 1550   1.280   1.600   2.875  1.2552  1.9172 -0.3776
  517SOL    HW2 1551   1.131   1.627   2.951 -0.5865  0.9372 -4.9696
  518SOL     OW 1552   1.397   3.039   1.265 -0.2797 -0.3168 -0.1928
  518SOL    HW1 1553   1.471   0.004   1.294 -1.8446 -0.0169 -1.2147
  518SOL    HW2 1554   1.384   3.053   1.164 -0.8341 -0.8410 -1.3583
  519SOL     OW 1555   2.313   2.733   1.068  0.0822  0.3440 -0.1916
  519SOL    HW1 1556   2.226   2.779   1.100 -1.6255  0.7173 -2.9669
  519SOL    HW2 1557   2.372   2.798   1.014 -1.4975  2.1036  0.8888
  520SOL     OW 1558   2.826   2.270   2.115 -0.2462  0.3232 -0.6195
  520SOL    HW1 1559   2.823   2.372   2.099  1.4371  2.0274  2.3741
  520SOL    HW2 1560   2.783   2.245   2.204  0.6670 -0.5620 -0.5817
  521SOL     OW 1561   2.943   0.770   2.967  0.0206 -0.0536 -0.0780
  521SOL    HW1 1562   2.895   0.720   3.047 -2.8813  2.1853 -3.1114
  521SOL    HW2 1563   3.037   0.811   2.986  2.9006  3.2044  0.5292
  522SOL     OW 1564   0.885   0.692   2.690 -0.4554 -0.0598 -0.4105
  522SOL    HW1 1565   0.938   0.719   2.607  0.1852 -1.1936  1.2677
  522SOL    HW2 1566   0.854   0.594   2.689 -0.1416  2.7140  1.7458
  523SOL     OW 1567   0.110   2.299   0.828 -0.4181 -0.0825 -0.5183
  523SOL    HW1 1568   0.192   2.348   0.866 -0.2719  0.8229 -3.0426
  523SOL    HW2 1569   0.125   2.287   0.728 -0.3720 -1.3139 -1.4585
  524SOL     OW 1570   1.879   2.633   0.083  0.2764  0.3727 -0.7327
  524SOL    HW1 1571   1.865   2.578   0.168  0.9207 -0.4142 -3.7038
  524SOL    HW2 1572   1.975   2.630   0.055 -0.1894 -0.0106 -2.4508
  525SOL     OW 1573   2.433   0.512   1.300  0.3392 -0.5238 -0.1736
  525SOL    HW1 1574   2.474   0.602   1.277  1.7636 -0.6149  1.7828
  525SOL    HW2 1575   2.333   0.525   1.309  0.8274 -0.7620 -0.8047
  526SOL     OW 1576   1.152   2.605   0.378  0.9378 -0.0388 -0.2950
  526SOL    HW1 1577   1.088   2.545   0.429 -0.6294  1.4924  1.6957
  526SOL    HW2 1578   1.116   2.628   0.287 -0.6206  0.5364 -2.4719
  527SOL     OW 1579   2.226   2.813   0.646  0.2982 -0.5824  0.1050
  527SOL    HW1 1580   2.153   2.750   0.679 -1.4320  0.8132 -1.0831
  527SOL    HW2 1581   2.197   2.891   0.587 -1.6777 -1.8260 -2.1973
  528SOL     OW 1582   1.774   0.755   3.071 -0.1001 -0.3340 -0.5704
  528SOL    HW1 1583   1.722   0.731   2.988 -0.3695  0.8107  0.3338
  528SOL    HW2 1584   1.742   0.695   0.044  0.6741 -0.0194  0.4037
  529SOL     OW 1585   1.580   1.442   2.365  0.2343 -0.2314  0.2683
  529SOL    HW1 1586   1.603   1.433   2.464  1.8463 -1.0207  0.0331
  529SOL    HW2 1587   1.574   1.349   2.321  0.9245  0.3994 -1.6976
  530SOL     OW 1588   2.506   2.813   2.862 -1.0603  0.2228  0.3082
  530SOL    HW1 1589   2.405   2.802   2.859  1.2112  1.3940 -0.1127
  530SOL    HW2 1590   2.539   2.864   2.780 -1.2921 -2.3656 -2.1087
  531SOL     OW 1591   1.671   1.145   3.052 -0.0145  0.0668 -0.4260
  531SOL    HW1 1592   1.767   1.104   3.060  0.7952 -0.6172 -0.5065
  531SOL    HW2 1593   1.597   1.073   3.050 -3.4271 -1.2156  3.0562
  532SOL     OW 1594   1.627   0.329   0.934 -0.4953 -0.4169  0.1514
  532SOL    HW1 1595   1.541   0.360   0.982 -1.4742 -0.4943 -0.7856
  532SOL    HW2 1596   1.687   0.410   0.908  2.1852 -0.0215 -0.3174
  533SOL     OW 1597   0.557   1.040   2.769  0.4514  0.0655 -0.1821
  533SOL    HW1 1598   0.539   1.140   2.781  3.0747  0.5034 -0.9474
  533SOL    HW2 1599   0.658   1.025   2.755 -0.1579 -1.9769 -0.1542
  534SOL     OW 1600   1.433   0.420   0.191  0.2409 -0.1954  0.1429
  534SOL    HW1 1601   1.417   0.341   0.251  0.3401  0.9947 -1.6332
  534SOL    HW2 1602   1.409   0.393   0.095 -0.1318 -2.6189  1.9257
  535SOL     OW 1603   0.634   2.380   3.051  0.2311 -0.2588 -0.3907
  535SOL    HW1 1604   0.568   2.449   3.077  2.4767 -1.0019  1.1418
  535SOL    HW2 1605   0.616   2.291   3.098 -0.8274 -1.0486 -2.8190
  536SOL     OW 1606   0.566   2.905   0.374  0.4836 -0.4048 -0.0934
  536SOL    HW1 1607   0.571   3.007   0.372  1.4270  0.1816 -1.6403
  536SOL    HW2 1608   0.655   2.866   0.388  0.7198  2.7002 -0.5291
  537SOL     OW 1609   1.866   0.268   0.364  0.0414 -0.4196 -0.2209
  537SOL    HW1 1610   1.871   0.171   0.336  0.6862 -1.3233  0.9121
  537SOL    HW2 1611   1.780   0.287   0.416  3.0967 -0.3039 -1.8422
  538SOL     OW 1612   2.592   2.067   2.907 -0.0544  0.4984  0.0248
  538SOL    HW1 1613   2.544   2.154   2.887  1.4378 -1.6839  1.8581
  538SOL    HW2 1614   2.687   2.071   2.874  0.8201 -1.2316  0.9626
  539SOL     OW 1615   2.425   1.334   2.968 -0.3011  0.1099  0.5458
  539SOL    HW1 1616   2.343   1.276   2.997 -0.4992  0.2727 -0.3960
  539SOL    HW2 1617   2.509   1.317   3.025  0.8066  1.3135  0.7430
  540SOL     OW 1618   0.867   2.916   1.695 -0.1720  0.4471  0.2543
  540SOL    HW1 1619   0.917   2.933   1.780 -0.5897  0.6105  0.6763
  540SOL    HW2 1620   0.908   2.955   1.610  1.0006 -1.5034 -2.9640
  541SOL     OW 1621   2.373   3.095   2.418  0.0794  0.8044  0.0882
  541SOL    HW1 1622   2.269   0.007   2.423 -0.3728 -1.3831 -1.6068
  541SOL    HW2 1623   2.392   3.008   2.371 -0.8060 -1.1194  0.9363
  542SOL     OW 1624   0.219   0.936   3.015 -0.4690 -0.0322  0.1204
  542SOL    HW1 1625   0.177   0.842   3.031 -2.1876 -0.3978  0.0551
  542SOL    HW2 1626   0.151   0.998   3.060  2.7719  0.5522  0.6271
  543SOL     OW 1627   0.368   0.726   0.988 -0.2336  0.0793 -0.6046
  543SOL    HW1 1628   0.305   0.804   0.974  0.9413  0.4995 -1.8650
  543SOL    HW2 1629   0.351   0.646   0.928  2.9588  1.6752  0.2265
  544SOL     OW 1630   2.559   0.742   1.256 -0.2263  0.0327 -0.2847
  544SOL    HW1 1631   2.648   0.764   1.211 -2.1462  0.8957  0.2251
  544SOL    HW2 1632   2.516   0.822   1.305 -2.0621 -0.1359 -1.9019
  545SOL     OW 1633   1.334   1.767   0.398  0.0816  0.0997  0.6292
  545SOL    HW1 1634   1.394   1.830   0.447 -0.3231 -1.6680 -0.6601
  545SOL    HW2 1635   1.355   1.750   0.298  0.4046 -0.9250 -0.3796
  546SOL     OW 1636   2.310   2.623   1.592  0.2944 -0.0932  0.6164
  546SOL    HW1 1637   2.323   2.521   1.598  0.2765 -1.8199  0.0029
  546SOL    HW2 1638   2.340   2.652   1.494 -0.7592 -1.2312 -0.3158
  547SOL     OW 1639   0.779   2.289   2.205 -0.0373  0.6676  0.4265
  547SOL    HW1 1640   0.863   2.231   2.199  1.9099  0.0361 -0.0657
  547SOL    HW2 1641   0.760   2.304   2.302  0.3816  1.5142  2.1615
  548SOL     OW 1642   1.149   0.714   2.831  0.3062  0.1288 -0.0069
  548SOL    HW1 1643   1.060   0.754   2.859  0.8617 -1.4694 -0.6550
  548SOL    HW2 1644   1.190   0.659   2.906  1.2215  0.0655 -0.5913
  549SOL     OW 1645   2.563   0.614   0.216 -0.1066  0.7314  0.1248
  549SOL    HW1 1646   2.531   0.584   0.309 -0.2635 -0.7678  1.5846
  549SOL    HW2 1647   2.551   0.715   0.211 -0.3989  0.9831 -0.3845
  550SOL     OW 1648   2.202   1.030   0.347  0.0808  0.4794 -0.5208
  550SOL    HW1 1649   2.253   1.107   0.305  1.1951 -1.4053  1.1763
  550SOL    HW2 1650   2.152   1.058   0.434 -1.0302 -0.8264 -2.0221
  551SOL     OW 1651   1.544   0.375   1.243 -0.2224 -0.0652  0.1341
  551SOL    HW1 1652   1.481   0.411   1.313  0.7490  1.8683  3.0635
  551SOL    HW2 1653   1.624   0.440   1.243  0.2838 -1.3540 -2.4329
  552SOL     OW 1654   1.981   3.080   2.643  0.0900  0.0477  0.6988
  552SOL    HW1 1655   1.984   0.078   2.663 -0.1075 -1.5544 -1.7375
  552SOL    HW2 1656   1.971   3.021   2.728 -1.4503  1.1649  0.8169
  553SOL     OW 1657   0.635   2.942   2.230  0.3549  0.0592 -0.3874
  553SOL    HW1 1658   0.641   2.838   2.204  0.9045  0.3933 -0.5314
  553SOL    HW2 1659   0.663   3.001   2.146  1.0860  1.5203 -0.8332
  554SOL     OW 1660   0.233   0.041   1.472  0.2106  0.3087  0.1588
  554SOL    HW1 1661   0.222   0.135   1.440 -1.9998 -1.2230 -1.7820
  554SOL    HW2 1662   0.327   0.020   1.510 -0.3844  0.3550  1.4534
  555SOL     OW 1663   2.463   1.729   2.133 -0.5110  0.4650 -0.1520
  555SOL    HW1 1664   2.420   1.812   2.167  1.9032 -1.2786 -2.1368
  555SOL    HW2 1665   2.560   1.750   2.105 -1.4401  2.2026 -0.6708
  556SOL     OW 1666   1.100   0.358   3.072 -0.1316 -0.5436 -0.1244
  556SOL    HW1 1667   1.120   0.270   0.019 -0.0301 -1.6346  0.3621
  556SOL    HW2 1668   0.999   0.364   3.058 -1.3409  1.5700  3.2282
  557SOL     OW 1669   0.214   2.098   2.349 -1.1765  0.0731  0.6434
  557SOL    HW1 1670   0.313   2.073   2.326  3.6469  1.2018  0.5479
  557SOL    HW2 1671   0.173   2.118   2.260  1.5001  3.3913  1.7556
  558SOL     OW 1672   1.880   0.632   2.688 -0.1853 -0.3879 -0.3575
  558SOL    HW1 1673   1.910   0.621   2.594  2.2001  1.5588  1.3197
  558SOL    HW2 1674   1.946   0.692   2.741  0.1504  1.0887  0.0017
  559SOL     OW 1675   2.242   2.027   1.656  0.2688 -0.4019  0.3274
  559SOL    HW1 1676   2.169   1.964   1.680  0.1842  2.0938 -0.1343
  559SOL    HW2 1677   2.232   2.109   1.715 -0.8889 -0.1898 -0.7371
  560SOL     OW 1678   2.152   0.906   2.007 -1.0747  0.6751 -0.8000
  560SOL    HW1 1679   2.225   0.899   1.931  2.5938  2.8695 -0.7400
  560SOL    HW2 1680   2.069   0.938   1.962 -0.9779 -0.6167  1.4379
  561SOL     OW 1681   0.136   0.159   2.893 -0.0529  0.1748  0.4654
  561SOL    HW1 1682   0.047   0.105   2.879 -4.2412  2.2999  2.8013
  561SOL    HW2 1683   0.198   0.121   2.964 -2.7539  0.8188 -1.6431
  562SOL     OW 1684   0.982   1.770   1.507 -0.2574  0.1655  0.1408
  562SOL    HW1 1685   1.052   1.772   1.435 -2.7949 -1.8406  0.4356
  562SOL    HW2 1686   0.886   1.770   1.460 -3.3929  0.8752  2.3419
  563SOL     OW 1687   0.974   0.071   2.950  0.1488  0.1418 -0.5018
  563SOL    HW1 1688   1.033   0.056   3.032 -1.2158 -0.6643 -2.5294
  563SOL    HW2 1689   0.879   0.070   2.975  2.6948 -0.9677 -2.9679
  564SOL     OW 1690   2.984   2.430   0.962  0.1157 -0.8203 -0.1011
  564SOL    HW1 1691   3.046   2.376   0.901 -3.3906  0.9593 -0.7038
  564SOL    HW2 1692   2.908   2.469   0.911  2.7654  1.3095 -0.1099
  565SOL     OW 1693   0.763   2.222   1.290 -0.3929 -0.2287 -1.4538
  565SOL    HW1 1694   0.766   2.237   1.392 -1.5591  2.1554 -0.0077
  565SOL    HW2 1695   0.680   2.266   1.248 -0.4864 -0.6983 -1.9610
  566SOL     OW 1696   1.236   0.015   2.550  0.6780  0.1991 -0.5360
  566SOL    HW1 1697   1.261   3.024   2.578 -1.4759  0.2621  0.0917
  566SOL    HW2 1698   1.136   0.034   2.559 -1.5181 -0.8954  0.9735
  567SOL     OW 1699   2.436   2.877   0.808  0.1058 -0.4158  0.7102
  567SOL    HW1 1700   2.440   2.970   0.852 -1.0187  3.2456 -0.6764
  567SOL    HW2 1701   2.343   2.861   0.762 -1.7927  1.6209 -1.5776
  568SOL     OW 1702   1.380   1.373   0.724 -0.3685  0.4832  0.2904
  568SOL    HW1 1703   1.378   1.438   0.805  0.9993  1.9632 -0.5906
  568SOL    HW2 1704   1.391   1.421   0.634  0.2594  1.1280 -0.0432
  569SOL     OW 1705   2.693   1.289   2.532 -0.6871  0.1044 -0.4893
  569SOL    HW1 1706   2.622   1.297   2.605 -1.7250 -1.6538  1.3080
  569SOL    HW2 1707   2.735   1.195   2.530 -0.8829 -1.3790 -1.4313
  570SOL     OW 1708   0.008   0.302   1.971 -0.4423 -0.1056  0.4493
  570SOL    HW1 1709   0.076   0.226   1.979  0.7063  0.3733 -0.4775
  570SOL    HW2 1710   3.051   0.299   1.887 -0.2792  1.0372 -0.4403
  571SOL     OW 1711   0.432   3.040   1.874  0.0732  0.0922  0.4725
  571SOL    HW1 1712   0.433   0.035   1.871 -1.7084 -1.6076  1.4483
  571SOL    HW2 1713   0.365   2.993   1.816  0.8590  0.0621  1.5795
  572SOL     OW 1714   3.029   2.367   1.432 -0.0659 -0.1245 -0.1047
  572SOL    HW1 1715   2.946   2.366   1.369  1.0602 -0.5187 -0.8449
  572SOL    HW2 1716   3.092   2.435   1.393 -3.3864 -3.3952 -2.1153
  573SOL     OW 1717   0.913   0.708   3.008  0.4157 -0.0982  0.3395
  573SOL    HW1 1718   0.827   0.747   3.050  0.3435 -1.6183  0.8394
  573SOL    HW2 1719   0.894   0.624   2.955  1.2166  2.5061 -0.0093
  574SOL     OW 1720   2.307   2.521   2.749 -0.5369 -0.1379 -0.4266
  574SOL    HW1 1721   2.370   2.503   2.674  0.1598  0.8657 -2.0162
  574SOL    HW2 1722   2.300   2.620   2.775 -3.0687 -1.3530  1.2311
  575SOL     OW 1723   1.329   2.771   0.873 -0.4252 -0.0620  0.4887
  575SOL    HW1 1724   1.286   2.768   0.963  0.2394 -0.4157 -1.0938
  575SOL    HW2 1725   1.421   2.819   0.877 -1.0028  2.3902 -0.9403
  576SOL     OW 1726   1.081   0.369   0.963 -0.0487 -0.2260 -0.1164
  576SOL    HW1 1727   1.102   0.319   0.878 -0.1017 -0.3428  1.5718
  576SOL    HW2 1728   1.018   0.449   0.944  1.6954  0.7747 -0.6311
  577SOL     OW 1729   2.330   1.213   0.664  0.1386 -0.0893  0.3154
  577SOL    HW1 1730   2.325   1.306   0.626 -3.2139  2.0946 -1.6092
  577SOL    HW2 1731   2.237   1.172   0.635 -1.8373 -0.8027  1.3966
  578SOL     OW 1732   2.050   0.602   0.919  0.7621 -0.0615  0.1172
  578SOL    HW1 1733   2.133   0.545   0.905 -2.0463 -0.3789  1.8264
  578SOL    HW2 1734   2.064   0.659   1.003  1.9339 -1.5218 -1.8664
  579SOL     OW 1735   1.655   0.690   2.838 -0.6843  0.4980 -0.3532
  579SOL    HW1 1736   1.608   0.601   2.852 -0.5562 -1.7423  2.2434
  579SOL    HW2 1737   1.741   0.676   2.783  1.7525  0.6990 -3.6906
  580SOL     OW 1738   1.562   0.924   1.989  0.0630  0.1192 -1.0739
  580SOL    HW1 1739   1.485   0.983   1.960  2.2024 -3.4857  0.5546
  580SOL    HW2 1740   1.557   0.895   2.087 -1.1868  2.3010  0.9805
  581SOL     OW 1741   0.289   0.516   0.852  0.2732 -0.1576  0.2007
  581SOL    HW1 1742   0.281   0.446   0.927 -0.4465  0.7737  0.6118
  581SOL    HW2 1743   0.224   0.500   0.778  1.8946  0.4562  1.7286
  582SOL     OW 1744   2.836   0.458   1.857 -0.2009 -0.3770 -0.8656
  582SOL    HW1 1745   2.842   0.553   1.821 -3.6667 -2.3840  0.5297
  582SOL    HW2 1746   2.835   0.463   1.957  2.4506  2.8661 -1.7901
  583SOL     OW 1747   0.282   0.472   2.610 -0.1518  0.2965  0.2443
  583SOL    HW1 1748   0.344   0.539   2.659 -2.1575 -0.7881  0.1524
  583SOL    HW2 1749   0.338   0.401   2.557  1.0909 -4.4811 -0.3541
  584SOL     OW 1750   2.029   2.121   0.150  0.2046 -0.4159 -0.1229
  584SOL    HW1 1751   2.124   2.097   0.118 -1.7276  4.5781  0.4285
  584SOL    HW2 1752   1.959   2.118   0.074 -0.3998  1.5440 -0.1454
  585SOL     OW 1753   0.240   2.239   0.044 -0.1736 -0.5427 -0.2324
  585SOL    HW1 1754   0.217   2.138   0.032 -1.3106 -2.0878  1.1718
  585SOL    HW2 1755   0.293   2.244   0.131 -1.9976 -1.2959 -1.2018
  586SOL     OW 1756   1.978   1.561   2.314 -0.5578  0.3530 -0.3015
  586SOL    HW1 1757   1.942   1.595   2.227  0.6744  0.3970  2.1574
  586SOL    HW2 1758   2.063   1.509   2.287  1.3764  1.0743 -2.6072
  587SOL     OW 1759   2.570   1.781   2.751 -0.3994 -0.0743  0.3064
  587SOL    HW1 1760   2.522   1.728   2.825 -0.8375 -0.8511 -0.6893
  587SOL    HW2 1761   2.601   1.723   2.673  0.2444  0.2473  0.5892
  588SOL     OW 1762   2.927   0.278   1.317  0.3367  0.2028  0.4616
  588SOL    HW1 1763   2.893   0.337   1.244 -3.0372 -1.0406 -1.4564
  588SOL    HW2 1764   3.030   0.269   1.304  2.0325  0.6205  1.4737
  589SOL     OW 1765   0.922   0.225   0.338  0.3093  0.2781 -0.1951
  589SOL    HW1 1766   0.943   0.314   0.290  0.1779  0.8517 -0.6572
  589SOL    HW2 1767   0.849   0.252   0.405  2.0214 -1.1333  0.2408
  590SOL     OW 1768   2.422   1.995   0.492  0.3538  0.0535 -0.6809
  590SOL    HW1 1769   2.366   2.065   0.442 -0.3037  1.2126  2.5728
  590SOL    HW2 1770   2.519   1.996   0.474 -3.7215  1.3471  1.2843
  591SOL     OW 1771   0.576   2.726   1.145  0.6163 -0.1723  0.3078
  591SOL    HW1 1772   0.652   2.666   1.157 -1.7066  3.4856 -1.7410
  591SOL    HW2 1773   0.519   2.693   1.068 -1.9939  1.7038  0.8765
  592SOL     OW 1774   1.249   1.117   1.128 -0.1142 -0.1132 -0.3079
  592SOL    HW1 1775   1.264   1.182   1.208  0.7802  0.0256  0.4883
  592SOL    HW2 1776   1.249   1.023   1.162  0.6265  3.5726 -0.5157
  593SOL     OW 1777   1.001   2.365   1.656  0.4572 -0.0443 -0.4349
  593SOL    HW1 1778   1.052   2.394   1.572 -1.4561 -1.0397 -1.3079
  593SOL    HW2 1779   0.976   2.448   1.712  1.0027  0.3564  1.7086
  594SOL     OW 1780   1.117   1.557   0.076  0.0199 -0.1536 -0.3196
  594SOL    HW1 1781   1.102   1.485   0.148 -0.0982  2.7529 -0.4332
  594SOL    HW2 1782   1.192   1.616   0.100 -1.8607 -0.1756  0.6824
  595SOL     OW 1783   1.491   1.237   1.447 -0.0041  0.3634  0.1437
  595SOL    HW1 1784   1.534   1.328   1.426  2.8027 -0.3718 -2.5268
  595SOL    HW2 1785   1.399   1.249   1.403 -1.4827  1.0424  0.9703
  596SOL     OW 1786   0.021   0.912   1.854 -0.7646  0.2601 -0.0788
  596SOL    HW1 1787   0.032   0.810   1.860 -1.4389 -1.3302  4.9063
  596SOL    HW2 1788   3.043   0.946   1.798  2.5261 -0.8692  1.4384
  597SOL     OW 1789   1.220   2.757   1.892  0.8615  0.0804 -0.0040
  597SOL    HW1 1790   1.129   2.809   1.903 -0.5065  0.5267  1.4215
  597SOL    HW2 1791   1.270   2.774   1.980  0.5561 -0.7523 -0.4229
  598SOL     OW 1792   2.610   1.344   1.526 -0.0285  0.2405 -0.3881
  598SOL    HW1 1793   2.590   1.391   1.441  2.0580 -1.8216  0.7349
  598SOL    HW2 1794   2.610   1.407   1.607  2.6214  0.8307 -0.4529
  599SOL     OW 1795   0.843   2.691   0.004  0.1636 -0.6499 -0.4402
  599SOL    HW1 1796   0.764   2.690   0.066  1.5634  0.4223 -0.0861
  599SOL    HW2 1797   0.860   2.604   3.051  1.8494  3.4229 -0.1506
  600SOL     OW 1798   2.981   2.287   0.248  0.2677  0.1738 -0.3997
  600SOL    HW1 1799   2.947   2.234   0.328  1.2434 -1.0369 -1.3652
  600SOL    HW2 1800   2.965   2.235   0.160  0.4418 -0.0772 -2.8581
  601SOL     OW 1801   0.556   0.826   1.500  0.3230 -0.6732 -0.0379
  601SOL    HW1 1802   0.471   0.800   1.456  0.6151  3.8779 -1.2768
  601SOL    HW2 1803   0.606   0.741   1.524 -1.3209  0.8975 -0.9608
  602SOL     OW 1804   0.566   0.190   1.031 -0.4215 -0.5614 -0.1754
  602SOL    HW1 1805   0.613   0.164   1.121  3.6561  3.0809  0.9045
  602SOL    HW2 1806   0.596   0.121   0.961  0.5888 -2.5684 -3.3576
  603SOL     OW 1807   0.266   0.149   2.646 -0.1171  0.0491  0.0032
  603SOL    HW1 1808   0.212   0.157   2.727 -1.7344 -1.3450 -0.0545
  603SOL    HW2 1809   0.368   0.138   2.659 -0.3498 -0.6647  3.5799
  604SOL     OW 1810   1.103   2.444   1.431 -0.2539  0.6404  0.0076
  604SOL    HW1 1811   1.187   2.395   1.401 -1.4184 -0.5721 -2.2557
  604SOL    HW2 1812   1.026   2.420   1.370 -1.9708  2.0239  0.9755
  605SOL     OW 1813   1.574   1.256   2.049  0.0630 -0.0868  0.3783
  605SOL    HW1 1814   1.492   1.306   2.075  1.6191  1.3911  0.8285
  605SOL    HW2 1815   1.540   1.202   1.968  0.6357 -0.1428 -0.1899
  606SOL     OW 1816   2.127   2.898   3.050 -0.0170  0.5035  0.0891
  606SOL    HW1 1817   2.145   2.833   0.030  1.8698  0.7902  0.2941
  606SOL    HW2 1818   2.118   2.989   3.091  0.1579 -1.8538 -0.3076
  607SOL     OW 1819   0.819   0.092   1.847  0.4910 -0.0011  0.4024
  607SOL    HW1 1820   0.918   0.104   1.852 -2.1237  0.7869 -0.0150
  607SOL    HW2 1821   0.779   0.130   1.763  1.3568  3.5299  0.5881
  608SOL     OW 1822   0.150   2.459   2.257  0.1033 -0.4113 -0.2562
  608SOL    HW1 1823   0.187   2.423   2.172  1.7984 -0.4654 -0.8629
  608SOL    HW2 1824   0.211   2.543   2.273 -1.0550  2.0586 -1.0769
  609SOL     OW 1825   1.158   1.102   0.144  0.0290 -0.2479 -0.2881
  609SOL    HW1 1826   1.133   1.109   0.239  2.7388 -2.5652 -1.3872
  609SOL    HW2 1827   1.145   1.004   0.120 -1.4000  0.0497 -2.5396
  610SOL     OW 1828   0.238   2.941   1.121 -0.7137 -0.4093 -0.8913
  610SOL    HW1 1829   0.333   2.973   1.135 -1.5025 -0.0917  2.4155
  610SOL    HW2 1830   0.189   2.943   1.209  1.5598  1.3260 -2.9726
  611SOL     OW 1831   1.052   1.138   0.391  0.1596 -0.3542  0.5760
  611SOL    HW1 1832   0.959   1.100   0.367  1.7240 -0.4096  0.6186
  611SOL    HW2 1833   1.104   1.083   0.457  0.8765 -0.2051 -2.3032
  612SOL     OW 1834   2.128   1.777   0.066 -0.1476  0.4473  0.2032
  612SOL    HW1 1835   2.191   1.858   0.074  0.0472  3.0572  1.3673
  612SOL    HW2 1836   2.042   1.785   0.119 -1.1387  0.7816 -2.8456
  613SOL     OW 1837   1.758   1.558   0.123 -0.6569 -0.1742  0.2552
  613SOL    HW1 1838   1.698   1.488   0.156  3.5118 -0.2013 -0.3621
  613SOL    HW2 1839   1.763   1.559   0.020  1.5145 -1.3846 -1.0434
  614SOL     OW 1840   2.719   0.236   2.551  0.1294 -0.0520  0.2221
  614SOL    HW1 1841   2.659   0.243   2.469  0.6862 -0.0396  1.2385
  614SOL    HW2 1842   2.731   0.329   2.594  0.3894  0.8371  1.5429
  615SOL     OW 1843   0.767   1.534   0.310  0.0331 -0.7418  0.2834
  615SOL    HW1 1844   0.730   1.513   0.218  0.7400 -0.0155 -0.6699
  615SOL    HW2 1845   0.846   1.476   0.326 -1.7099 -0.7784 -0.5465
  616SOL     OW 1846   1.512   0.926   2.959 -0.2562 -0.7183 -0.2553
  616SOL    HW1 1847   1.548   0.867   2.881 -0.1601  1.4610 -1.5730
  616SOL    HW2 1848   1.469   0.864   3.033  1.3609 -0.3799 -0.4883
  617SOL     OW 1849   1.401   0.209   0.423  0.0978  0.3321  0.5598
  617SOL    HW1 1850   1.421   0.237   0.519  1.0521  0.4092  0.3254
  617SOL    HW2 1851   1.314   0.168   0.407  2.4941  0.5597  0.1668
  618SOL     OW 1852   3.036   1.972   2.472  0.0737  0.2402 -0.0887
  618SOL    HW1 1853   3.013   1.908   2.548  0.0977  3.1831  0.9599
  618SOL    HW2 1854   3.099   2.042   2.507 -2.1505 -1.8303 -1.4111
  619SOL     OW 1855   2.285   1.703   0.985  0.6129  0.1213 -0.2514
  619SOL    HW1 1856   2.202   1.765   1.003  0.0125 -1.0992  0.7787
  619SOL    HW2 1857   2.359   1.767   0.951 -1.1922 -1.2207 -1.3649
  620SOL     OW 1858   2.410   0.180   1.399 -0.3828  0.2427  0.1162
  620SOL    HW1 1859   2.361   0.263   1.376  0.7976 -1.7447 -0.0499
  620SOL    HW2 1860   2.346   0.119   1.446 -1.3257  0.9486 -2.0747
  621SOL     OW 1861   0.009   2.028   0.876 -0.1726  0.0165  0.1894
  621SOL    HW1 1862   3.068   2.029   0.970  0.4560  1.1430 -0.8563
  621SOL    HW2 1863   0.050   2.121   0.860 -0.9699 -0.8515 -2.5526
  622SOL     OW 1864   0.742   1.503   2.237 -0.4407 -0.1006  0.1092
  622SOL    HW1 1865   0.651   1.454   2.244  0.9114 -2.2128  0.3404
  622SOL    HW2 1866   0.782   1.471   2.145  0.1124 -1.1309 -1.8653
  623SOL     OW 1867   2.475   2.529   2.533  0.4187  0.1616  0.0755
  623SOL    HW1 1868   2.413   2.590   2.480 -1.9484 -3.3437  0.8192
  623SOL    HW2 1869   2.566   2.575   2.538  0.9798 -0.9663 -0.1092
  624SOL     OW 1870   0.862   1.775   0.199 -0.7328  0.3748 -0.6188
  624SOL    HW1 1871   0.834   1.680   0.232 -1.3731  2.3684  2.9725
  624SOL    HW2 1872   0.935   1.810   0.263  1.7396  2.4088  0.9391
  625SOL     OW 1873   0.698   1.843   2.224 -0.0101 -0.3162 -0.0052
  625SOL    HW1 1874   0.683   1.775   2.296  0.9621 -0.6291 -0.4181
  625SOL    HW2 1875   0.775   1.817   2.158 -0.3916 -1.7824 -1.9976
  626SOL     OW 1876   0.072   2.438   0.413  0.1696  0.7187 -0.1498
  626SOL    HW1 1877   0.123   2.374   0.475  2.0762  1.1894  2.0481
  626SOL    HW2 1878   0.010   2.392   0.345 -2.1151 -1.5771 -0.5825
  627SOL     OW 1879   1.074   1.729   2.384  0.1028  0.5861  0.0824
  627SOL    HW1 1880   1.073   1.624   2.370  1.7982 -2.9146  0.5092
  627SOL    HW2 1881   1.093   1.753   2.481 -0.8010 -1.3247 -1.3727
  628SOL     OW 1882   1.437   1.976   0.541 -0.2211  0.2216  0.1172
  628SOL    HW1 1883   1.437   2.074   0.526  0.9269 -1.8490 -1.7234
  628SOL    HW2 1884   1.532   1.945   0.569  2.4767  0.4312 -1.7773
  629SOL     OW 1885   0.826   0.673   1.762 -0.1309 -0.7646 -0.4644
  629SOL    HW1 1886   0.730   0.686   1.798 -3.9654 -2.9390  2.0591
  629SOL    HW2 1887   0.900   0.688   1.837  1.7018  0.8209  1.8125
  630SOL     OW 1888   2.601   0.364   1.488 -0.3205 -0.0545  0.4040
  630SOL    HW1 1889   2.579   0.409   1.401  0.9309  0.9340  0.6181
  630SOL    HW2 1890   2.554   0.272   1.489 -4.2315 -0.2092  1.0926
  631SOL     OW 1891   1.383   0.699   0.766 -0.3195 -1.0187  0.5407
  631SOL    HW1 1892   1.332   0.783   0.785  0.9080  0.0283  0.9678
  631SOL    HW2 1893   1.318   0.629   0.726  1.8638 -0.0461 -1.4727
  632SOL     OW 1894   2.220   0.536   1.989  0.4780 -0.0757  0.0481
  632SOL    HW1 1895   2.266   0.604   2.050  2.8313 -1.6442 -1.2958
  632SOL    HW2 1896   2.290   0.477   1.942  0.3053 -0.8069 -1.8631
  633SOL     OW 1897   1.323   1.107   2.892 -0.2640  0.3807  0.1437
  633SOL    HW1 1898   1.267   1.100   2.810  0.9478 -1.4543 -1.4419
  633SOL    HW2 1899   1.400   1.038   2.881  3.1323  0.7139 -1.7760
  634SOL     OW 1900   0.442   2.187   0.220  0.0428  0.7534 -0.7184
  634SOL    HW1 1901   0.477   2.274   0.268 -1.0069  1.9846  2.5826
  634SOL    HW2 1902   0.517   2.140   0.161 -0.0544  2.8183  0.5612
  635SOL     OW 1903   2.861   1.516   1.998 -0.0180  0.0135 -0.0657
  635SOL    HW1 1904   2.902   1.465   2.077  2.2761  0.2387 -1.3312
  635SOL    HW2 1905   2.785   1.460   1.969  3.3034  1.0382  1.2016
  636SOL     OW 1906   0.469   1.916   3.062 -0.6015  0.1436  0.3779
  636SOL    HW1 1907   0.474   1.814   3.070  3.5311  1.6595 -0.5828
  636SOL    HW2 1908   0.372   1.955   3.082 -1.1559  1.2337  0.4967
  637SOL     OW 1909   0.014   2.011   0.443 -0.2918 -0.0470 -0.1158
  637SOL    HW1 1910   0.005   1.909   0.457 -2.0553  0.2583 -0.1484
  637SOL    HW2 1911   3.021   2.053   0.439 -1.4160 -1.0916  0.7238
  638SOL     OW 1912   2.638   2.645   0.410  0.1335  0.4165  0.0536
  638SOL    HW1 1913   2.625   2.711   0.492 -2.4453  0.7986 -1.2420
  638SOL    HW2 1914   2.605   2.552   0.439  2.7691  1.6833 -1.0460
  639SOL     OW 1915   0.980   0.454   0.213  0.1247  0.3469  0.4736
  639SOL    HW1 1916   1.010   0.439   0.113 -0.6655  0.0625 -0.8187
  639SOL    HW2 1917   0.920   0.533   0.223 -0.4965 -1.5237 -0.2476
  640SOL     OW 1918   2.410   2.368   1.851 -0.3321 -0.1714  0.0851
  640SOL    HW1 1919   2.502   2.322   1.843 -1.3536  0.1192  0.8832
  640SOL    HW2 1920   2.357   2.359   1.765  0.8935 -0.0750  1.6114
  641SOL     OW 1921   2.504   2.907   1.482 -0.0403  0.5918  0.6112
  641SOL    HW1 1922   2.421   2.945   1.440 -0.6590  1.2482  0.7679
  641SOL    HW2 1923   2.558   2.976   1.526 -2.7457 -1.7159  0.4717
  642SOL     OW 1924   1.339   0.918   1.504  0.2102 -0.1823 -0.3133
  642SOL    HW1 1925   1.373   0.992   1.443  1.1924 -0.1106  1.0954
  642SOL    HW2 1926   1.349   0.826   1.462 -2.0117  0.8516 -0.7241
  643SOL     OW 1927   1.077   1.398   2.094  0.3137 -0.2958 -0.4198
  643SOL    HW1 1928   0.984   1.353   2.083 -1.0981  0.3313 -3.5574
  643SOL    HW2 1929   1.079   1.488   2.047 -2.7477 -3.6881  0.9360
  644SOL     OW 1930   1.443   0.426   2.035 -0.0942  0.1867 -0.1020
  644SOL    HW1 1931   1.367   0.371   2.081 -2.9975  0.1936 -0.4905
  644SOL    HW2 1932   1.534   0.389   2.057  1.5935  1.3864 -0.1519
  645SOL     OW 1933   1.892   1.415   1.604  0.1760 -0.0672  0.0022
  645SOL    HW1 1934   1.819   1.425   1.537 -0.0341 -0.3028  0.3935
  645SOL    HW2 1935   1.947   1.499   1.624 -1.3806  2.6965 -0.3310
  646SOL     OW 1936   1.449   2.182   0.051 -0.2349 -0.4036 -0.6134
  646SOL    HW1 1937   1.466   2.209   3.055 -1.3708  2.7872  0.0087
  646SOL    HW2 1938   1.427   2.081   0.047  4.5842 -0.9286  0.4077
  647SOL     OW 1939   1.749   2.702   0.909  0.1509  0.4704 -0.1812
  647SOL    HW1 1940   1.802   2.630   0.864 -1.5361 -3.5662  1.4019
  647SOL    HW2 1941   1.699   2.665   0.990  0.8543  0.3621  2.4552
  648SOL     OW 1942   0.063   2.622   1.631 -0.0193  0.5708  0.4665
  648SOL    HW1 1943   3.083   2.656   1.691 -0.4101 -0.6599 -0.6419
  648SOL    HW2 1944   0.088   2.527   1.658 -1.3220 -0.4633 -1.1376
  649SOL     OW 1945   1.150   2.480   2.731 -0.3784  0.2974 -0.4106
  649SOL    HW1 1946   1.177   2.379   2.748 -1.8277 -4.1767  2.0390
  649SOL    HW2 1947   1.229   2.539   2.697 -0.0800 -0.9197  0.9085
  650SOL     OW 1948   2.700   1.745   0.166 -0.5419 -0.3407  0.0652
  650SOL    HW1 1949   2.783   1.753   0.223 -1.2266  0.8126  1.0396
  650SOL    HW2 1950   2.718   1.671   0.096  2.0065 -1.5180  1.4421
  651SOL     OW 1951   2.674   2.020   2.323  0.3344  0.1059  0.3048
  651SOL    HW1 1952   2.631   2.048   2.235 -2.2440  0.8748 -2.2098
  651SOL    HW2 1953   2.729   2.096   2.368  0.0358  2.6670  1.1047
  652SOL     OW 1954   2.283   2.449   0.435  0.1544 -0.4601  0.3573
  652SOL    HW1 1955   2.310   2.532   0.375  0.4836  4.4058  1.3410
  652SOL    HW2 1956   2.364   2.418   0.490 -2.0829 -3.4221 -1.0683
  653SOL     OW 1957   2.918   1.746   1.565 -0.1335 -0.0757  0.5782
  653SOL    HW1 1958   2.945   1.714   1.656  1.3902  1.5939 -2.7919
  653SOL    HW2 1959   2.986   1.714   1.495 -3.3395 -0.5986  0.3881
  654SOL     OW 1960   0.756   1.091   0.024  0.1097  0.4931 -0.1351
  654SOL    HW1 1961   0.836   1.135   3.076  1.2012  2.8724 -2.1888
  654SOL    HW2 1962   0.746   0.990   0.012  1.4870 -1.9571 -0.9900
  655SOL     OW 1963   1.035   1.219   0.977 -0.1414 -0.0170  0.1639
  655SOL    HW1 1964   1.116   1.184   1.031  2.1041  0.2586  0.7413
  655SOL    HW2 1965   1.070   1.243   0.887  0.3400  0.2610  2.3972
  656SOL     OW 1966   1.572   2.744   2.209 -0.7385 -0.5918 -0.3997
  656SOL    HW1 1967   1.477   2.765   2.173  1.6020 -0.5058  2.2094
  656SOL    HW2 1968   1.595   2.646   2.194 -2.7815 -1.2770  1.9140
  657SOL     OW 1969   2.057   1.337   0.286 -0.3024 -0.1537 -0.4313
  657SOL    HW1 1970   1.995   1.255   0.293  0.2067  2.3915  3.3483
  657SOL    HW2 1971   2.069   1.371   0.188  0.4315  0.0935 -0.7615
  658SOL     OW 1972   1.890   2.686   1.483 -0.2376 -0.3513 -0.1384
  658SOL    HW1 1973   1.937   2.642   1.562  0.0410 -0.1712 -0.9418
  658SOL    HW2 1974   1.863   2.786   1.501  1.1492  1.6777  1.8529
  659SOL     OW 1975   2.913   1.752   0.346 -0.4497  0.2342 -0.2038
  659SOL    HW1 1976   2.953   1.659   0.333  1.3688  0.7592  1.3846
  659SOL    HW2 1977   2.898   1.775   0.441  1.5423 -0.8166 -2.1161
  660SOL     OW 1978   1.175   0.260   0.708  1.1031 -0.2831  0.6016
  660SOL    HW1 1979   1.120   0.178   0.679  1.2208  0.6257 -0.0621
  660SOL    HW2 1980   1.269   0.232   0.713 -2.3920  0.5990 -0.5689
  661SOL     OW 1981   1.930   0.418   0.024  0.3126  0.1102 -0.1254
  661SOL    HW1 1982   1.962   0.448   0.117  1.2057 -1.2926  0.4312
  661SOL    HW2 1983   1.923   0.316   0.020  0.5336 -1.2388  1.3558
  662SOL     OW 1984   0.528   0.219   0.584 -0.1318  0.1564 -0.2974
  662SOL    HW1 1985   0.511   0.180   0.678 -1.2647 -1.3252  3.5660
  662SOL    HW2 1986   0.544   0.147   0.517  1.2313  0.8098  1.0892
  663SOL     OW 1987   1.400   2.526   2.640 -0.4124  0.1591 -0.1718
  663SOL    HW1 1988   1.445   2.601   2.588 -0.2157  0.2021  1.5342
  663SOL    HW2 1989   1.440   2.438   2.604 -0.2215  0.8642 -0.4452
  664SOL     OW 1990   0.523   2.422   1.541  0.0773 -0.3336 -0.4665
  664SOL    HW1 1991   0.463   2.359   1.486  0.2015 -1.0455 -2.5233
  664SOL    HW2 1992   0.529   2.515   1.498 -0.1954  0.0282 -0.0549
  665SOL     OW 1993   1.627   2.598   1.156  0.2393 -0.6587  0.0109
  665SOL    HW1 1994   1.542   2.608   1.210  2.5028 -2.2472  1.5046
  665SOL    HW2 1995   1.693   2.541   1.210 -0.4431 -0.7741  1.3001
  666SOL     OW 1996   0.997   2.498   2.367 -0.0667 -0.3764  0.0877
  666SOL    HW1 1997   1.088   2.503   2.315  1.0572 -0.8780  1.2465
  666SOL    HW2 1998   0.922   2.522   2.298 -1.4133  1.0269 -2.0853
  667SOL     OW 1999   2.911   0.703   1.493 -0.4020 -0.0962  0.4395
  667SOL    HW1 2000   2.999   0.745   1.473 -0.8818  0.1698  1.8982
  667SOL    HW2 2001   2.931   0.602   1.525  1.2217 -2.2067  1.8069
  668SOL     OW 2002   1.128   0.205   1.598 -0.2741 -0.1094 -0.7282
  668SOL    HW1 2003   1.164   0.159   1.517  1.0179  1.5593  1.2356
  668SOL    HW2 2004   1.204   0.256   1.648 -0.2145  2.1071 -0.9840
  669SOL     OW 2005   2.015   2.638   1.223 -0.4602  0.6338  0.0750
  669SOL    HW1 2006   1.963   2.648   1.308  0.7702  3.7984 -1.2439
  669SOL    HW2 2007   1.975   2.682   1.143  0.2274 -0.6245  3.0859
  670SOL     OW 2008   1.520   2.279   2.906  0.1994 -0.2187  0.7301
  670SOL    HW1 2009   1.529   2.379   2.907 -1.6807 -0.8134 -0.4738
  670SOL    HW2 2010   1.595   2.233   2.853  1.8062 -0.0941 -1.7020
  671SOL     OW 2011   0.355   1.197   0.140 -0.0117  0.0521  0.3668
  671SOL    HW1 2012   0.436   1.224   0.086  2.2523  0.2999 -0.4613
  671SOL    HW2 2013   0.322   1.102   0.125  0.5167 -0.9559 -0.4640
  672SOL     OW 2014   2.862   0.500   3.019  0.9123 -0.6341  0.1165
  672SOL    HW1 2015   2.930   0.478   2.947 -1.6233  2.0332 -0.5716
  672SOL    HW2 2016   2.821   0.415   3.062 -2.8539 -1.6972  2.2372
  673SOL     OW 2017   0.110   1.872   1.375 -0.1983  0.4823 -0.1015
  673SOL    HW1 2018   0.045   1.952   1.386 -2.3404  1.0988  2.7507
  673SOL    HW2 2019   0.189   1.881   1.441 -0.1493  0.8066 -0.8367
  674SOL     OW 2020   1.388   2.142   1.529  0.0402 -0.8116  0.1505
  674SOL    HW1 2021   1.310   2.167   1.593 -2.3604  0.3268  2.4450
  674SOL    HW2 2022   1.427   2.049   1.550  1.1400 -4.9779  1.7566
  675SOL     OW 2023   1.113   1.471   1.178  0.5548  0.9136 -0.2826
  675SOL    HW1 2024   1.141   1.558   1.223 -1.7479 -0.4217  3.0329
  675SOL    HW2 2025   1.031   1.478   1.118  0.2509  1.7233 -2.9524
  676SOL     OW 2026   2.358   0.694   1.000 -0.4692 -0.1784  0.2420
  676SOL    HW1 2027   2.307   0.779   0.977 -0.1816  1.4939 -1.7871
  676SOL    HW2 2028   2.440   0.724   1.052 -1.0745 -1.6816 -2.8385
  677SOL     OW 2029   2.688   0.260   0.244  0.8481 -0.2101 -0.2175
  677SOL    HW1 2030   2.696   0.168   0.290 -0.5554 -0.5379  0.1202
  677SOL    HW2 2031   2.733   0.255   0.150 -0.3983 -2.6379 -0.6415
  678SOL     OW 2032   2.398   1.450   1.105 -0.2514 -0.7529  0.0127
  678SOL    HW1 2033   2.454   1.368   1.078  0.9727 -0.8902 -0.3111
  678SOL    HW2 2034   2.325   1.473   1.041  1.0944  3.7007  1.5431
  679SOL     OW 2035   2.607   0.585   3.034  0.4259 -0.0785 -0.1376
  679SOL    HW1 2036   2.600   0.577   0.032 -1.5547 -0.1474 -2.3471
  679SOL    HW2 2037   2.705   0.574   3.008 -0.7427 -0.9777  1.1462
  680SOL     OW 2038   0.551   1.271   2.286 -0.5813  0.0068 -0.0729
  680SOL    HW1 2039   0.582   1.174   2.267  4.5227 -2.6972  0.5704
  680SOL    HW2 2040   0.464   1.268   2.336  0.5863 -2.5327 -1.2877
  681SOL     OW 2041   2.654   2.128   1.662  0.2479  0.5491  0.2891
  681SOL    HW1 2042   2.667   2.191   1.747 -2.1902 -0.3179  1.0861
  681SOL    HW2 2043   2.610   2.040   1.688  0.0490  0.7619  2.2552
  682SOL     OW 2044   0.596   1.876   2.801  0.4420  0.3079 -0.1682
  682SOL    HW1 2045   0.579   1.843   2.896 -2.1582  1.0877  0.8727
  682SOL    HW2 2046   0.547   1.959   2.775  1.7476 -0.7162 -2.3952
  683SOL     OW 2047   2.651   2.035   1.326 -0.5853  0.3426  0.3573
  683SOL    HW1 2048   2.556   2.021   1.363  2.1977 -1.4705  0.4101
  683SOL    HW2 2049   2.693   2.123   1.356 -2.5824 -2.3321  0.5468
  684SOL     OW 2050   2.833   1.242   1.786  0.1179  0.0662  0.3460
  684SOL    HW1 2051   2.741   1.286   1.776 -0.6408  1.7358 -3.7936
  684SOL    HW2 2052   2.843   1.190   1.874 -1.3277  3.1477 -0.4117
  685SOL     OW 2053   0.981   0.930   0.936 -0.2469  0.3014 -0.1573
  685SOL    HW1 2054   0.946   1.027   0.946 -1.2941  2.9450 -0.2133
  685SOL    HW2 2055   0.960   0.870   1.013 -1.4839  0.2958 -0.5059
  686SOL     OW 2056   0.703   0.070   3.000 -0.4651  0.1625 -0.1051
  686SOL    HW1 2057   0.678   3.079   2.961 -2.0557  1.6097 -0.2361
  686SOL    HW2 2058   0.622   0.114   3.041  1.2660  0.6337 -0.8650
  687SOL     OW 2059   0.668   2.031   2.032  0.0117 -0.3136 -0.1827
  687SOL    HW1 2060   0.619   2.122   2.049  0.9305 -0.0198  0.6013
  687SOL    HW2 2061   0.675   1.972   2.112  1.6861  3.3526 -0.9661
  688SOL     OW 2062   1.972   0.186   1.452  0.7797  0.3534  0.3681
  688SOL    HW1 2063   1.915   0.223   1.371 -1.4679  3.9707 -0.1903
  688SOL    HW2 2064   2.032   0.264   1.482 -0.2893 -3.1389 -1.9327
  689SOL     OW 2065   2.091   0.771   0.671 -0.0050  0.3738 -0.3583
  689SOL    HW1 2066   2.081   0.762   0.771  1.7818  3.1996  0.4250
  689SOL    HW2 2067   2.148   0.694   0.638  0.5915 -0.9546 -0.1302
  690SOL     OW 2068   2.987   1.018   1.263 -0.3353  0.1815  0.6298
  690SOL    HW1 2069   2.988   1.059   1.355  1.1869  1.0093  1.6696
  690SOL    HW2 2070   2.919   0.943   1.244 -1.4117 -1.4618 -0.3624
  691SOL     OW 2071   0.275   1.017   1.764  0.4105  0.1037  0.0366
  691SOL    HW1 2072   0.262   1.064   1.674 -1.6037  2.9394  0.1847
  691SOL    HW2 2073   0.201   0.956   1.790  0.3294 -0.4901 -2.6043
  692SOL     OW 2074   0.672   0.939   2.027 -0.1518 -0.2199 -0.1123
  692SOL    HW1 2075   0.583   0.985   2.043 -0.6372  1.9023 -3.3784
  692SOL    HW2 2076   0.671   0.887   1.941  1.4146 -1.9139  2.2365
  693SOL     OW 2077   0.431   1.299   1.991 -0.2578 -0.4328  0.1971
  693SOL    HW1 2078   0.354   1.335   1.934 -1.1200  0.6601 -2.0021
  693SOL    HW2 2079   0.435   1.354   2.080 -3.2485  1.5434  3.0965
  694SOL     OW 2080   1.414   1.496   0.480 -0.5727 -0.1069  0.0919
  694SOL    HW1 2081   1.515   1.501   0.501  1.6959  1.3195  1.8008
  694SOL    HW2 2082   1.384   1.596   0.468  0.8407  2.3043  0.4978
  695SOL     OW 2083   0.219   0.978   0.963 -0.1710  0.2102  0.0886
  695SOL    HW1 2084   0.280   1.059   0.967 -0.0135  2.7096  2.8051
  695SOL    HW2 2085   0.194   0.935   0.868 -1.3139  0.9555 -1.2946
  696SOL     OW 2086   0.591   2.323   0.544  0.5385 -0.1853 -0.2379
  696SOL    HW1 2087   0.540   2.347   0.459  2.8902  0.5278 -2.0430
  696SOL    HW2 2088   0.683   2.286   0.524  0.8243  0.5950  1.0492
  697SOL     OW 2089   1.210   0.597   1.631  0.3227 -0.3449  0.5220
  697SOL    HW1 2090   1.283   0.641   1.575 -1.4381  0.5842 -0.3516
  697SOL    HW2 2091   1.119   0.636   1.592 -3.7598 -2.0700  0.9337
  698SOL     OW 2092   1.632   1.625   1.704 -0.0016  0.1757  0.3037
  698SOL    HW1 2093   1.539   1.582   1.732 -1.8304 -1.7768 -3.2381
  698SOL    HW2 2094   1.648   1.603   1.606 -4.1971  2.4075 -0.4481
  699SOL     OW 2095   0.094   0.559   2.447 -0.1575 -0.8489  0.2850
  699SOL    HW1 2096   0.109   0.502   2.361 -0.5279 -0.9139 -0.5757
  699SOL    HW2 2097   0.169   0.529   2.518  0.6786 -2.4596  0.2149
  700SOL     OW 2098   1.677   2.257   0.789  0.0490 -0.0498  0.5778
  700SOL    HW1 2099   1.656   2.332   0.857  0.7902 -0.1722  0.2898
  700SOL    HW2 2100   1.644   2.170   0.818  1.9252  1.7689 -1.1976
  701SOL     OW 2101   0.238   1.706   2.438  0.1024  0.3170  0.5823
  701SOL    HW1 2102   0.210   1.636   2.508 -2.7278 -3.0011  1.8960
  701SOL    HW2 2103   0.246   1.798   2.480 -0.6053  0.6303  0.2247
  702SOL     OW 2104   0.484   0.200   3.084  0.0045 -0.2866  0.4543
  702SOL    HW1 2105   0.421   0.123   3.085  0.6025  0.1346 -0.0076
  702SOL    HW2 2106   0.458   0.268   3.015  2.9260 -0.2498  2.4058
  703SOL     OW 2107   1.520   0.427   2.902  0.5235  0.0228 -0.1968
  703SOL    HW1 2108   1.621   0.423   2.891 -0.3256 -0.7139  0.5255
  703SOL    HW2 2109   1.490   0.340   2.863  3.0278 -0.3974 -0.1792
  704SOL     OW 2110   2.687   1.773   0.919 -0.6006 -0.2912  0.2892
  704SOL    HW1 2111   2.707   1.790   1.019  0.2329 -1.9182  0.4380
  704SOL    HW2 2112   2.746   1.836   0.858  0.1990  2.3511 -0.4783
  705SOL     OW 2113   2.732   1.798   2.087  0.3912  0.1588 -0.2952
  705SOL    HW1 2114   2.776   1.714   2.047 -1.6758 -5.2053  0.4347
  705SOL    HW2 2115   2.798   1.831   2.159  0.6800 -1.2966  0.1048
  706SOL     OW 2116   3.084   2.723   1.169  0.1919 -0.2193 -0.1138
  706SOL    HW1 2117   3.066   2.741   1.071 -1.2370  0.2968 -0.4056
  706SOL    HW2 2118   0.057   2.784   1.208  1.1704  2.8890 -0.9216
  707SOL     OW 2119   0.832   3.090   0.298 -0.6678 -0.5359 -0.1178
  707SOL    HW1 2120   0.895   3.004   0.313 -1.9102 -2.5948 -0.0346
  707SOL    HW2 2121   0.879   0.081   0.314 -1.2002  0.7104 -0.1188
  708SOL     OW 2122   0.767   2.261   1.545 -0.5188  0.3181  0.6132
  708SOL    HW1 2123   0.841   2.319   1.591  2.0899 -1.5623  2.3877
  708SOL    HW2 2124   0.684   2.311   1.537  6.3781 -1.3326  0.9966
  709SOL     OW 2125   1.825   0.252   2.270  0.1415  0.3122 -0.2449
  709SOL    HW1 2126   1.757   0.261   2.343  0.6258  1.3685 -2.0734
  709SOL    HW2 2127   1.907   0.311   2.290  0.7063  0.5359 -1.2622
  710SOL     OW 2128   1.305   2.858   2.669 -0.2247 -0.3597  0.2626
  710SOL    HW1 2129   1.218   2.821   2.702  0.7396 -0.2838 -2.4072
  710SOL    HW2 2130   1.379   2.876   2.739  0.9203 -0.9180 -0.4784
  711SOL     OW 2131   1.162   2.215   2.480  0.1383 -0.2971  0.3337
  711SOL    HW1 2132   1.250   2.194   2.529  0.1472 -1.6317 -0.0599
  711SOL    HW2 2133   1.150   2.315   2.472  1.6196  1.9337 -0.2631
  712SOL     OW 2134   1.196   1.980   2.762  0.4239  0.9210 -0.2946
  712SOL    HW1 2135   1.151   1.907   2.703  1.1198 -3.1100  2.7241
  712SOL    HW2 2136   1.182   1.955   2.864 -2.2445  0.7720  3.2914
  713SOL     OW 2137   0.989   0.927   1.976 -0.1038  0.2008 -0.4216
  713SOL    HW1 2138   0.926   0.965   1.907  0.4530  2.0652  1.0349
  713SOL    HW2 2139   1.046   0.850   1.945  0.6305 -0.4752  2.1056
  714SOL     OW 2140   1.433   1.742   1.039 -0.0322  0.0200 -0.0157
  714SOL    HW1 2141   1.524   1.698   1.008  3.6234 -0.7471  0.2372
  714SOL    HW2 2142   1.436   1.801   1.125 -0.7518  1.9538  0.7862
  715SOL     OW 2143   2.746   0.265   0.697 -0.4255 -0.2114  0.4128
  715SOL    HW1 2144   2.714   0.326   0.768  1.8951 -1.8081 -3.4156
  715SOL    HW2 2145   2.700   0.290   0.608  1.4257 -0.2226 -0.6269
  716SOL     OW 2146   0.784   2.731   0.407  0.0277  0.0638 -0.6876
  716SOL    HW1 2147   0.877   2.758   0.373  2.0617 -0.8124 -0.0297
  716SOL    HW2 2148   0.787   2.681   0.495  0.0640 -0.0056  0.3235
  717SOL     OW 2149   2.863   0.505   0.268 -0.3883 -0.0475  0.4409
  717SOL    HW1 2150   2.909   0.414   0.285  1.8483 -0.6239 -2.7498
  717SOL    HW2 2151   2.782   0.495   0.205 -0.8282 -0.5369  0.5437
  718SOL     OW 2152   1.737   1.971   0.832 -0.5203  0.2645  0.5808
  718SOL    HW1 2153   1.793   1.884   0.836  0.6520 -0.0166 -0.5608
  718SOL    HW2 2154   1.741   2.032   0.914 -2.8886  1.7999  1.3834
  719SOL     OW 2155   2.883   2.357   1.202 -0.6048  0.0967  0.3538
  719SOL    HW1 2156   2.804   2.303   1.174  2.0359  4.2818  0.1874
  719SOL    HW2 2157   2.936   2.384   1.116 -1.8205  1.5683 -0.4722
  720SOL     OW 2158   0.769   1.197   1.074 -0.1557  0.4366  0.0497
  720SOL    HW1 2159   0.871   1.193   1.048  1.1579 -0.2317  0.4606
  720SOL    HW2 2160   0.715   1.179   0.994  0.3129  1.3819  3.1056
  721SOL     OW 2161   1.435   0.681   1.060  0.1409 -0.1530 -0.4696
  721SOL    HW1 2162   1.457   0.665   0.963 -0.9871  0.0859  3.8282
  721SOL    HW2 2163   1.512   0.725   1.109 -3.2889  1.1869 -3.3418
  722SOL     OW 2164   1.189   1.133   1.710  0.4049 -0.4219 -0.0754
  722SOL    HW1 2165   1.212   1.057   1.647  1.2421  0.2010 -1.4564
  722SOL    HW2 2166   1.161   1.217   1.658  2.4512 -1.1619 -1.6964
  723SOL     OW 2167   1.053   2.969   1.495 -0.4543 -0.0718 -0.1965
  723SOL    HW1 2168   1.123   3.043   1.478  0.8014  0.8271 -0.1204
  723SOL    HW2 2169   1.093   2.877   1.487 -0.6142  5.0286 -3.0422
  724SOL     OW 2170   2.072   2.295   1.621  0.0386  0.0683 -0.1168
  724SOL    HW1 2171   2.073   2.345   1.708 -1.8166 -1.5800 -1.5509
  724SOL    HW2 2172   1.978   2.267   1.602  1.9265  0.2038 -0.8368
  725SOL     OW 2173   0.986   2.821   1.116  0.1398  0.1932  0.2834
  725SOL    HW1 2174   0.926   2.789   1.192  2.1077  0.0763  0.8205
  725SOL    HW2 2175   1.082   2.815   1.147 -2.9485  1.8644  0.8120
  726SOL     OW 2176   1.537   3.032   0.127  0.1518  0.5668 -0.3994
  726SOL    HW1 2177   1.551   3.069   0.222 -0.3993  0.2944  0.2691
  726SOL    HW2 2178   1.609   2.974   0.089 -2.7928 -0.3904  2.6613
  727SOL     OW 2179   1.202   1.907   0.676 -0.8247  0.1554 -0.3668
  727SOL    HW1 2180   1.291   1.915   0.627 -1.3817 -1.9258 -0.4170
  727SOL    HW2 2181   1.175   1.809   0.683 -1.2367  1.5673  2.3363
  728SOL     OW 2182   2.008   0.118   2.080  0.6956  0.2158  0.0778
  728SOL    HW1 2183   1.918   0.167   2.078 -0.5497 -2.6831 -0.7007
  728SOL    HW2 2184   2.086   0.179   2.094 -1.1205 -2.4767  1.6101
  729SOL     OW 2185   2.417   1.633   1.531 -0.2478 -0.0806  0.1300
  729SOL    HW1 2186   2.329   1.609   1.576  3.8768 -1.2826 -0.3298
  729SOL    HW2 2187   2.409   1.646   1.431 -0.0822  2.3102 -0.4605
  730SOL     OW 2188   1.969   0.656   2.440  0.1401  0.2961  0.5779
  730SOL    HW1 2189   2.064   0.691   2.456 -2.6114  1.0762 -1.5784
  730SOL    HW2 2190   1.920   0.717   2.373 -3.2977  0.2206 -2.9703
  731SOL     OW 2191   0.586   0.371   1.408  0.2618  0.2655 -0.1851
  731SOL    HW1 2192   0.603   0.458   1.464  1.7424  1.9639  1.1765
  731SOL    HW2 2193   0.490   0.375   1.372 -0.7454  1.0106 -0.8739
  732SOL     OW 2194   1.873   0.325   1.211  0.7678 -0.3901 -0.5201
  732SOL    HW1 2195   1.845   0.424   1.237  0.6137  0.3795  2.3571
  732SOL    HW2 2196   1.827   0.295   1.124 -2.5242 -0.2666 -1.9519
  733SOL     OW 2197   0.884   1.156   1.484 -0.1277 -0.3537 -0.0891
  733SOL    HW1 2198   0.843   1.130   1.573 -2.7833 -0.4011  0.1039
  733SOL    HW2 2199   0.938   1.074   1.458  0.2007 -0.4608 -1.0782
  734SOL     OW 2200   2.484   1.641   0.311 -0.1682 -0.3131  0.1065
  734SOL    HW1 2201   2.398   1.613   0.260 -2.3074 -0.1649 -0.7922
  734SOL    HW2 2202   2.542   1.686   0.243 -1.8497 -1.1800  1.0349
  735SOL     OW 2203   0.359   0.719   0.202  0.3132  0.1459 -0.0177
  735SOL    HW1 2204   0.376   0.651   0.131 -0.2679  0.9955 -0.1756
  735SOL    HW2 2205   0.442   0.768   0.240  1.1239 -2.1550 -1.4314
  736SOL     OW 2206   1.770   2.529   2.872 -0.0544  0.4719  0.2831
  736SOL    HW1 2207   1.833   2.550   2.951 -1.0780  0.8456 -1.4953
  736SOL    HW2 2208   1.671   2.530   2.896  0.5899  0.3363  0.4566
  737SOL     OW 2209   0.961   1.926   0.802  0.4703 -0.3787 -0.1959
  737SOL    HW1 2210   0.993   1.937   0.898  1.6453  0.2983 -0.8180
  737SOL    HW2 2211   1.046   1.913   0.742  0.8940 -1.4245  1.6479
  738SOL     OW 2212   2.084   0.023   2.402  0.1903  0.1899 -0.4819
  738SOL    HW1 2213   2.028   0.089   2.350  2.9341 -1.5814  2.0705
  738SOL    HW2 2214   2.041   3.097   2.495 -1.4465 -2.6908  1.4003
  739SOL     OW 2215   1.861   2.169   2.376  0.4992  0.0053  0.8485
  739SOL    HW1 2216   1.861   2.141   2.278 -2.1308 -0.7129  0.7877
  739SOL    HW2 2217   1.783   2.238   2.393 -3.5849  0.6622  1.7555
  740SOL     OW 2218   1.681   2.327   1.945 -0.1774  0.1849 -0.0014
  740SOL    HW1 2219   1.633   2.369   1.867  2.1237  0.9742 -0.0058
  740SOL    HW2 2220   1.749   2.256   1.913  0.4517 -2.4589  1.0452
  741SOL     OW 2221   2.315   1.458   2.542 -0.0176 -0.1223 -0.3802
  741SOL    HW1 2222   2.229   1.464   2.486 -0.5039 -1.2183 -1.7054
  741SOL    HW2 2223   2.365   1.540   2.516 -1.3780 -1.1222  1.8770
  742SOL     OW 2224   1.047   1.329   2.801  0.0865 -0.3544 -0.0286
  742SOL    HW1 2225   1.132   1.302   2.750  0.4464 -2.8729  1.0717
  742SOL    HW2 2226   0.973   1.386   2.752 -1.7878  0.3180 -2.6030
  743SOL     OW 2227   1.685   1.033   2.328 -0.3702 -0.4564  0.1567
  743SOL    HW1 2228   1.724   1.124   2.310 -1.5643 -3.2009 -0.1146
  743SOL    HW2 2229   1.602   1.059   2.385 -1.0499  0.2422 -1.7569
  744SOL     OW 2230   2.253   2.941   1.372 -0.1915 -0.5807  0.4602
  744SOL    HW1 2231   2.278   2.844   1.372  3.4150  3.3865  2.3957
  744SOL    HW2 2232   2.233   2.973   1.277 -0.2560 -3.2509  0.9960
  745SOL     OW 2233   2.417   1.058   0.889  0.0239 -0.1466 -0.6890
  745SOL    HW1 2234   2.457   1.116   0.963  1.0448 -0.4593  2.2026
  745SOL    HW2 2235   2.380   1.121   0.821  0.7135 -2.9781  5.4541
  746SOL     OW 2236   2.299   1.823   1.259  0.0258 -0.0384 -0.0885
  746SOL    HW1 2237   2.374   1.770   1.207  1.4157  0.1567 -0.3905
  746SOL    HW2 2238   2.344   1.889   1.324  0.0499 -2.5690  0.1582
  747SOL     OW 2239   1.990   2.857   0.323  0.2477  0.2257  0.0432
  747SOL    HW1 2240   1.896   2.831   0.337  1.6864  1.2084 -0.7143
  747SOL    HW2 2241   2.046   2.804   0.253 -0.0752  1.9133 -0.2439
  748SOL     OW 2242   0.894   1.821   3.032 -0.3805 -0.1122 -0.3520
  748SOL    HW1 2243   0.889   1.811   0.033  1.2197  2.5992 -1.9824
  748SOL    HW2 2244   0.834   1.758   2.984  0.6617 -0.0612  0.7971
  749SOL     OW 2245   2.921   0.387   2.133  0.2612  0.1985 -0.1372
  749SOL    HW1 2246   2.926   0.480   2.180  0.0412 -0.2355 -2.8027
  749SOL    HW2 2247   3.008   0.367   2.076  0.4593  0.1143 -1.4240
  750SOL     OW 2248   1.080   0.679   1.889  0.3120  0.1394 -0.2560
  750SOL    HW1 2249   1.160   0.653   1.954  0.8566  0.3631  0.6066
  750SOL    HW2 2250   1.122   0.709   1.803  1.4021  0.5891  1.0468
  751SOL     OW 2251   2.408   2.626   1.981  0.5575 -0.0397  0.4223
  751SOL    HW1 2252   2.393   2.533   1.940 -1.2621  0.6385  0.0947
  751SOL    HW2 2253   2.424   2.694   1.904  0.6259 -0.9893 -2.1316
  752SOL     OW 2254   2.024   1.430   1.166 -0.2506  0.0662  0.1041
  752SOL    HW1 2255   1.997   1.335   1.183  1.1388  1.5880 -1.6123
  752SOL    HW2 2256   2.070   1.432   1.076  0.3318  2.9045  2.5742
  753SOL     OW 2257   1.180   1.020   2.177  0.1545 -0.3731 -0.4180
  753SOL    HW1 2258   1.090   0.991   2.138 -1.4741 -0.8738  3.1405
  753SOL    HW2 2259   1.231   0.939   2.212  1.4496  0.9696  1.3729
  754SOL     OW 2260   0.331   2.440   0.929 -0.4618  0.1543  0.0431
  754SOL    HW1 2261   0.313   2.533   0.965 -2.1410 -0.1154 -0.3555
  754SOL    HW2 2262   0.378   2.389   1.002 -1.2420  1.3846  0.0121
  755SOL     OW 2263   2.536   0.073   1.189 -0.2426 -0.5467  0.5054
  755SOL    HW1 2264   2.637   0.065   1.196  0.8132 -0.9384 -2.5742
  755SOL    HW2 2265   2.495   0.107   1.272 -0.1115 -0.2487 -2.6533
  756SOL     OW 2266   1.818   2.095   2.140  0.0158 -0.2669 -0.4356
  756SOL    HW1 2267   1.887   2.134   2.072  1.2550  1.4808 -0.3705
  756SOL    HW2 2268   1.768   2.017   2.101  1.5788 -0.0255 -0.0379
  757SOL     OW 2269   3.013   3.086   2.011  0.6044 -0.0220 -0.7574
  757SOL    HW1 2270   3.024   0.034   1.919 -0.4055  0.4476 -1.3361
  757SOL    HW2 2271   2.946   0.027   2.077 -0.0149  0.8830  2.1502
  758SOL     OW 2272   0.495   2.685   1.414 -0.1790  0.5182 -0.4650
  758SOL    HW1 2273   0.517   2.698   1.316 -1.6523 -0.8693 -0.5419
  758SOL    HW2 2274   0.392   2.685   1.423 -1.5795 -0.7583  1.8403
  759SOL     OW 2275   1.972   1.068   0.888 -0.3207  0.0807 -0.2129
  759SOL    HW1 2276   1.906   0.994   0.877  2.9271 -0.5360 -0.6823
  759SOL    HW2 2277   1.944   1.156   0.842 -1.2126  1.8680  0.3266
  760SOL     OW 2278   1.469   0.425   1.601 -0.4077  0.1160 -0.0939
  760SOL    HW1 2279   1.391   0.409   1.667  0.5198  1.8969  1.2574
  760SOL    HW2 2280   1.444   0.505   1.546 -1.3489 -1.2158  1.7185
  761SOL     OW 2281   2.134   0.312   1.126  0.5425  0.0344 -0.1922
  761SOL    HW1 2282   2.146   0.249   1.047 -1.8031  0.2100  0.4353
  761SOL    HW2 2283   2.041   0.288   1.167  0.8064 -1.0465  2.8595
  762SOL     OW 2284   1.730   2.809   0.374 -0.5552 -0.0030 -0.1961
  762SOL    HW1 2285   1.676   2.891   0.349 -0.6255 -2.6347 -2.3981
  762SOL    HW2 2286   1.680   2.718   0.363  0.0394 -0.8127 -1.3460
  763SOL     OW 2287   0.938   0.422   1.333  0.1148 -0.0889  0.3286
  763SOL    HW1 2288   0.956   0.439   1.432  3.2167  2.3223 -3.2486
  763SOL    HW2 2289   0.848   0.462   1.306  0.9420 -3.2664  0.5515
  764SOL     OW 2290   2.548   2.506   2.200 -0.5446 -0.1016  0.0504
  764SOL    HW1 2291   2.575   2.530   2.299 -1.6876 -0.1685  2.0809
  764SOL    HW2 2292   2.472   2.562   2.161  0.7361  0.1495 -0.5871
  765SOL     OW 2293   2.978   1.155   2.432  0.0592 -0.7177 -0.0775
  765SOL    HW1 2294   2.933   1.067   2.411 -0.0770  3.5962  0.6787
  765SOL    HW2 2295   2.992   1.187   2.526  2.7869 -1.4028 -1.1898
  766SOL     OW 2296   2.904   1.328   2.202  0.0337 -0.5234  0.3771
  766SOL    HW1 2297   2.950   1.290   2.289  0.6559 -1.5154 -0.0384
  766SOL    HW2 2298   2.878   1.249   2.144 -0.6403  1.4562 -0.5944
  767SOL     OW 2299   0.453   2.084   1.699  0.1848  0.2555  0.1718
  767SOL    HW1 2300   0.546   2.060   1.666 -1.8013  2.2579  0.4932
  767SOL    HW2 2301   0.436   2.055   1.797 -2.1005  1.6288  2.4119
  768SOL     OW 2302   0.670   0.824   3.097  0.4862  0.2272  0.1287
  768SOL    HW1 2303   0.596   0.838   3.029 -0.3313 -0.8119 -3.1802
  768SOL    HW2 2304   0.656   0.732   0.046  3.0169 -3.0072  0.8000
  769SOL     OW 2305   1.250   2.516   3.009  0.2385  0.1007  0.2338
  769SOL    HW1 2306   1.215   2.506   2.915  3.2968  0.0513 -1.1775
  769SOL    HW2 2307   1.232   2.431   3.063 -2.3918  0.6527  1.5303
  770SOL     OW 2308   0.967   0.063   2.534 -0.0328  0.3868  0.2499
  770SOL    HW1 2309   0.991   0.067   2.437 -1.7744 -0.1745 -1.5740
  770SOL    HW2 2310   0.902   3.086   2.552  0.1253 -1.6218 -0.3037
  771SOL     OW 2311   0.892   2.921   0.694  0.0609 -0.0922 -0.1453
  771SOL    HW1 2312   0.849   2.845   0.643  1.2318  1.0717  0.9727
  771SOL    HW2 2313   0.860   2.912   0.791 -0.2032 -1.2777  1.1339
  772SOL     OW 2314   2.505   0.891   0.198  0.5523 -0.3370  0.0553
  772SOL    HW1 2315   2.481   0.917   0.295 -1.2414  1.7091  3.2049
  772SOL    HW2 2316   2.531   0.982   0.147 -1.6915  3.1286  0.6111
  773SOL     OW 2317   2.019   1.021   1.747 -0.3444 -0.0681  0.3243
  773SOL    HW1 2318   2.040   0.932   1.704 -0.1230  1.1975 -0.5322
  773SOL    HW2 2319   2.035   1.096   1.679  0.3675  2.2396 -1.9205
  774SOL     OW 2320   0.787   0.356   0.569 -0.2001 -0.2320  0.3011
  774SOL    HW1 2321   0.825   0.302   0.642 -1.8171  3.1834 -2.8915
  774SOL    HW2 2322   0.691   0.377   0.599  0.1042  1.3544 -0.7947
  775SOL     OW 2323   1.583   0.000   0.392 -0.8767  0.0251 -0.0941
  775SOL    HW1 2324   1.586   3.056   0.486 -0.1747 -1.8313  1.0287
  775SOL    HW2 2325   1.521   0.084   0.399 -0.5826  1.2969 -1.9570
  776SOL     OW 2326   2.512   0.239   2.354  0.4729 -0.3016  0.3132
  776SOL    HW1 2327   2.522   0.255   2.254 -4.3805 -1.8994  0.3748
  776SOL    HW2 2328   2.453   0.154   2.363 -4.1145 -0.7004 -1.1065
  777SOL     OW 2329   1.419   1.550   3.048  0.9425 -0.7512  0.1037
  777SOL    HW1 2330   1.506   1.525   2.999  0.8004 -0.8620 -2.7780
  777SOL    HW2 2331   1.369   1.467   3.078  0.6502  4.3095 -0.9939
  778SOL     OW 2332   0.279   2.608   0.426  0.4060 -0.1774  0.0512
  778SOL    HW1 2333   0.187   2.560   0.415  0.0697  0.1554 -0.4953
  778SOL    HW2 2334   0.271   2.707   0.395 -1.5241  2.0014 -0.4893
  779SOL     OW 2335   3.030   1.499   0.218  0.3612 -0.4987  0.0870
  779SOL    HW1 2336   3.024   1.540   0.123  1.5582 -1.1797  0.5799
  779SOL    HW2 2337   0.020   1.508   0.263 -0.1920 -0.8200 -0.9411
  780SOL     OW 2338   1.850   0.343   1.792 -0.3326  0.1472  0.3753
  780SOL    HW1 2339   1.777   0.344   1.867 -1.2095  0.1856 -0.9990
  780SOL    HW2 2340   1.870   0.250   1.752 -0.2428  2.3080 -3.1670
  781SOL     OW 2341   1.646   1.465   1.378  0.3408 -0.1926 -0.1539
  781SOL    HW1 2342   1.559   1.473   1.319 -1.6072  0.8532 -1.9412
  781SOL    HW2 2343   1.723   1.524   1.346  1.5343  0.0275 -0.4357
  782SOL     OW 2344   2.107   2.364   1.902  0.1996  0.3385 -0.0009
  782SOL    HW1 2345   2.083   2.428   1.978  0.5091  0.6963  0.2589
  782SOL    HW2 2346   2.114   2.272   1.943  4.2282  1.8772  0.1152
  783SOL     OW 2347   1.265   0.644   2.079  0.2914 -0.3668  0.4607
  783SOL    HW1 2348   1.296   0.701   2.156  2.2517  0.4470  1.9944
  783SOL    HW2 2349   1.338   0.581   2.057 -1.3207  1.7116  0.5424
  784SOL     OW 2350   1.775   1.262   2.218  0.1190  0.0810 -0.2612
  784SOL    HW1 2351   1.724   1.273   2.130  1.5080  0.1415  1.7856
  784SOL    HW2 2352   1.877   1.259   2.210 -1.4738  0.1479 -1.7588
  785SOL     OW 2353   2.026   0.481   0.269 -0.3851 -0.2626  0.5065
  785SOL    HW1 2354   1.987   0.559   0.324 -0.2475 -0.6569  1.3825
  785SOL    HW2 2355   2.012   0.395   0.320  0.7281  2.3547  1.1621
  786SOL     OW 2356   2.930   1.430   0.665  0.1469 -0.7815  0.7274
  786SOL    HW1 2357   2.849   1.433   0.607  1.6163  1.1101 -1.9989
  786SOL    HW2 2358   2.990   1.348   0.644 -0.9589 -1.0973 -1.8511
  787SOL     OW 2359   1.883   1.811   0.200  0.7402  0.3112 -0.6107
  787SOL    HW1 2360   1.814   1.884   0.186  0.6298 -0.3235  0.8527
  787SOL    HW2 2361   1.837   1.723   0.186  0.8380  0.7873  6.4329
  788SOL     OW 2362   2.321   1.346   1.347 -0.8345  0.6167  0.1137
  788SOL    HW1 2363   2.376   1.382   1.269 -1.2524 -1.3301  0.8139
  788SOL    HW2 2364   2.253   1.417   1.373  0.9690 -0.0031 -0.9010
  789SOL     OW 2365   2.880   1.611   2.368 -0.4252  0.3347  0.5610
  789SOL    HW1 2366   2.816   1.556   2.311 -0.2082  1.0183 -3.3008
  789SOL    HW2 2367   2.976   1.614   2.335 -1.6154  2.0530  4.3862
  790SOL     OW 2368   0.797   2.944   2.573 -0.4412  0.1549 -0.0502
  790SOL    HW1 2369   0.853   2.860   2.543  2.8852 -2.0356 -1.4739
  790SOL    HW2 2370   0.716   2.953   2.515  0.9332 -1.8695 -0.8169
  791SOL     OW 2371   0.637   2.630   2.703  0.0180 -0.3002  0.6143
  791SOL    HW1 2372   0.726   2.579   2.700 -1.0767  1.3603 -0.0460
  791SOL    HW2 2373   0.639   2.717   2.748 -0.6534  0.9449 -1.6348
  792SOL     OW 2374   1.728   0.382   2.041 -0.7823 -0.0760  0.2661
  792SOL    HW1 2375   1.755   0.306   2.101  0.4552  0.9387 -0.2522
  792SOL    HW2 2376   1.726   0.474   2.089 -1.0223  0.5212  1.7978
  793SOL     OW 2377   2.862   0.131   2.173  0.3342  0.5724  0.2864
  793SOL    HW1 2378   2.853   0.232   2.166 -4.4740  1.1844  0.8705
  793SOL    HW2 2379   2.888   0.109   2.269  2.1380 -0.6405 -0.7176
  794SOL     OW 2380   0.584   0.704   1.857  0.1143  0.0726 -0.2024
  794SOL    HW1 2381   0.567   0.642   1.937  0.0424 -0.8358  1.6123
  794SOL    HW2 2382   0.509   0.691   1.784  3.1742  1.8843  2.3389
  795SOL     OW 2383   2.688   1.455   0.527 -0.1362 -0.1772  0.0106
  795SOL    HW1 2384   2.640   1.546   0.532  0.7969 -1.0306 -0.1966
  795SOL    HW2 2385   2.695   1.423   0.431 -0.8020  0.5966  0.6345
  796SOL     OW 2386   2.806   2.550   2.755  0.0070 -0.6122  0.3331
  796SOL    HW1 2387   2.760   2.462   2.740 -1.3750 -0.7359 -0.4174
  796SOL    HW2 2388   2.900   2.543   2.707  0.2680 -1.6241 -0.2362
  797SOL     OW 2389   2.642   2.214   0.175  0.3199  0.0756 -0.0225
  797SOL    HW1 2390   2.732   2.167   0.146  0.9686 -0.2541 -2.2433
  797SOL    HW2 2391   2.611   2.279   0.104 -1.8479 -0.8400  0.5834
  798SOL     OW 2392   0.395   0.573   1.643  0.1054 -0.0003  0.0222
  798SOL    HW1 2393   0.383   0.475   1.670  1.7732 -0.1917  0.4466
  798SOL    HW2 2394   0.303   0.617   1.633 -5.2138  2.6765  0.5231
  799SOL     OW 2395   2.678   0.548   2.217 -0.0870  0.0597  0.6135
  799SOL    HW1 2396   2.766   0.588   2.206 -1.3050 -0.4958 -0.0433
  799SOL    HW2 2397   2.634   0.564   2.308  0.2697 -0.5947 -2.3490
  800SOL     OW 2398   2.777   2.331   0.600 -0.6712  0.0627 -0.5874
  800SOL    HW1 2399   2.728   2.281   0.678 -1.0957 -0.2833  2.1915
  800SOL    HW2 2400   2.812   2.414   0.643 -2.5016 -2.4435 -0.8744
  801SOL     OW 2401   1.279   0.943   0.849  0.1131 -0.2592  0.1304
  801SOL    HW1 2402   1.211   0.949   0.926  0.3846  0.2355  0.4670
  801SOL    HW2 2403   1.370   0.981   0.871  1.5267 -1.2165  0.2159
  802SOL     OW 2404   1.441   2.019   0.890  0.4364  0.1592  0.3602
  802SOL    HW1 2405   1.525   1.971   0.855 -0.3126 -1.6287 -0.9907
  802SOL    HW2 2406   1.355   1.967   0.877  3.4354  0.3572  0.8572
  803SOL     OW 2407   0.060   1.712   0.579 -0.1858 -0.5491  0.1765
  803SOL    HW1 2408   0.099   1.648   0.513  1.5214 -0.9892 -0.8272
  803SOL    HW2 2409   0.125   1.755   0.645 -1.5972 -1.7970  2.9578
  804SOL     OW 2410   1.391   2.478   0.491 -0.2658  0.0493 -0.1079
  804SOL    HW1 2411   1.307   2.535   0.468 -3.1999  0.9402  0.2187
  804SOL    HW2 2412   1.404   2.468   0.595  0.2806  2.8230 -0.6182
  805SOL     OW 2413   1.446   1.816   2.426 -0.1518 -0.4153 -0.1589
  805SOL    HW1 2414   1.384   1.832   2.346 -0.6786 -3.1907 -0.0513
  805SOL    HW2 2415   1.545   1.830   2.397  1.4698  0.8587 -1.6710
  806SOL     OW 2416   1.591   0.127   1.310  0.2006 -0.3731 -0.2355
  806SOL    HW1 2417   1.589   0.137   1.411  0.7871  0.8316  1.5361
  806SOL    HW2 2418   1.596   0.221   1.269 -2.4973 -0.1083 -1.9148
  807SOL     OW 2419   2.094   0.044   0.049 -0.3710  0.1828 -0.2314
  807SOL    HW1 2420   1.992   0.065   0.050  1.5850  1.6281 -0.9799
  807SOL    HW2 2421   2.141   0.112   3.092 -2.3491  0.6370  0.9525
  808SOL     OW 2422   0.445   1.648   3.084 -0.2728  0.0131 -0.5387
  808SOL    HW1 2423   0.407   1.603   2.996 -0.6389  1.4305 -2.9539
  808SOL    HW2 2424   0.517   1.586   0.016  2.3731 -2.2265  0.4605
  809SOL     OW 2425   2.993   0.730   2.460  0.2408 -0.4015 -0.5161
  809SOL    HW1 2426   3.077   0.673   2.457 -2.0684 -0.9529 -2.1076
  809SOL    HW2 2427   2.939   0.720   2.545 -1.1635 -2.8861 -0.5836
  810SOL     OW 2428   2.801   0.476   2.611  0.2843 -0.3290  0.8032
  810SOL    HW1 2429   2.716   0.516   2.569  0.0043 -0.2034  0.8319
  810SOL    HW2 2430   2.857   0.556   2.644  2.0036  0.7957 -0.4870
  811SOL     OW 2431   2.042   2.605   1.689  0.2003 -0.5930  1.4654
  811SOL    HW1 2432   2.043   2.527   1.752  1.2175 -1.3094 -2.6246
  811SOL    HW2 2433   2.129   2.607   1.636  0.9992 -4.2162 -3.6580
  812SOL     OW 2434   1.220   0.526   0.339 -0.4945  0.3353 -0.1458
  812SOL    HW1 2435   1.147   0.472   0.295 -0.5369 -0.7393  2.2048
  812SOL    HW2 2436   1.303   0.518   0.281 -0.4751  0.9549  1.0209
  813SOL     OW 2437   1.714   0.713   1.889 -0.0250 -0.0727 -0.1428
  813SOL    HW1 2438   1.642   0.772   1.920  0.0271 -0.8350  0.7307
  813SOL    HW2 2439   1.690   0.661   1.805  0.1120  1.4206 -0.1952
  814SOL     OW 2440   1.994   1.162   1.145 -0.3077 -0.2441 -0.3187
  814SOL    HW1 2441   2.064   1.125   1.210  0.6734 -2.4783 -0.6498
  814SOL    HW2 2442   2.006   1.131   1.046  0.1505 -0.3067 -1.6363
  815SOL     OW 2443   0.544   0.988   0.645 -0.5968 -0.5902  0.1596
  815SOL    HW1 2444   0.598   0.901   0.641 -1.6580  4.0657  0.8725
  815SOL    HW2 2445   0.449   0.983   0.603  3.1491  3.1915  0.1857
  816SOL     OW 2446   2.120   2.134   2.959 -0.5408 -0.1200  0.4373
  816SOL    HW1 2447   2.150   2.226   2.922 -0.9893  2.7286 -2.2850
  816SOL    HW2 2448   2.194   2.094   3.017  1.0107  1.3882  1.6561
  817SOL     OW 2449   2.952   2.676   1.404  0.4033 -0.6972 -0.0412
  817SOL    HW1 2450   3.006   2.707   1.324 -0.9248 -0.8142  0.4747
  817SOL    HW2 2451   3.006   2.656   1.489  3.0217  1.2067 -0.2179
  818SOL     OW 2452   1.299   0.553   3.010 -0.2995  0.5266 -0.1049
  818SOL    HW1 2453   1.235   0.480   3.052 -2.2380  0.1707 -0.3090
  818SOL    HW2 2454   1.374   0.507   2.956 -1.6872 -1.7170 -2.5439
  819SOL     OW 2455   0.528   0.507   0.673  0.5007  0.1537  0.5262
  819SOL    HW1 2456   0.473   0.527   0.756 -1.3295  1.1066  0.4975
  819SOL    HW2 2457   0.482   0.428   0.626 -0.5034 -1.2086 -0.4481
  820SOL     OW 2458   2.068   0.754   1.165 -0.3212 -0.0014  0.0368
  820SOL    HW1 2459   2.133   0.825   1.137 -1.2825  0.4287  0.7224
  820SOL    HW2 2460   2.014   0.781   1.247 -0.3621  1.5202  0.3762
  821SOL     OW 2461   2.885   3.085   0.623 -0.1402  0.4626  0.2099
  821SOL    HW1 2462   2.800   3.051   0.669 -0.3777  0.4502  2.0166
  821SOL    HW2 2463   2.965   3.042   0.672  1.2369 -1.7700  2.1757
  822SOL     OW 2464   0.768   2.345   2.464  0.4659 -0.4558  0.6226
  822SOL    HW1 2465   0.837   2.416   2.452 -0.8572 -4.2118  1.4315
  822SOL    HW2 2466   0.704   2.360   2.543 -0.6428 -0.4176 -0.8971
  823SOL     OW 2467   3.084   1.319   1.906  0.1497  0.3815  0.2903
  823SOL    HW1 2468   2.983   1.339   1.893 -2.0743  2.0450  3.5058
  823SOL    HW2 2469   3.100   1.254   1.987  0.0795 -2.3308  1.1399
  824SOL     OW 2470   0.946   2.922   2.252  1.1685 -0.2664  0.4614
  824SOL    HW1 2471   0.956   2.857   2.330 -1.9944  1.6171  0.3145
  824SOL    HW2 2472   0.846   2.947   2.250 -0.1755 -0.0901  1.0560
  825SOL     OW 2473   1.456   1.942   2.991 -0.1394 -0.0553 -0.1509
  825SOL    HW1 2474   1.358   1.949   2.971  0.9103 -1.2714  4.2740
  825SOL    HW2 2475   1.500   1.881   2.921 -0.7990 -1.2925  1.3462
  826SOL     OW 2476   1.268   2.255   2.810  0.5009  0.2572 -0.2848
  826SOL    HW1 2477   1.363   2.270   2.833 -1.2770  1.7412 -0.1487
  826SOL    HW2 2478   1.248   2.156   2.793  0.0296  0.4997  2.4479
  827SOL     OW 2479   0.363   1.938   1.923  0.0140 -0.1197  0.2598
  827SOL    HW1 2480   0.287   1.887   1.880  0.9805 -0.1529 -0.4870
  827SOL    HW2 2481   0.410   1.874   1.988  0.6465  1.8392  1.2528
  828SOL     OW 2482   0.248   1.838   1.128  0.3163  0.2278 -0.1895
  828SOL    HW1 2483   0.336   1.888   1.127  2.0713  0.9356  2.9921
  828SOL    HW2 2484   0.198   1.857   1.218 -1.2914 -0.6351 -0.5324
  829SOL     OW 2485   2.909   2.513   0.094  0.4361  0.1640 -0.8463
  829SOL    HW1 2486   2.946   2.453   0.169 -0.3131 -1.3456 -3.2976
  829SOL    HW2 2487   2.847   2.454   0.040  1.4346  0.0742 -2.2589
  830SOL     OW 2488   1.130   0.975   0.618 -0.3121 -0.4371 -0.3072
  830SOL    HW1 2489   1.153   0.900   0.551  0.0829  0.2836  1.9903
  830SOL    HW2 2490   1.187   0.967   0.704 -0.0692 -1.5698  0.9823
  831SOL     OW 2491   2.769   2.370   2.989  0.3748  0.2143 -0.1426
  831SOL    HW1 2492   2.814   2.292   2.940 -1.1851 -0.4521 -0.8196
  831SOL    HW2 2493   2.686   2.400   2.938 -2.2076 -2.2802  1.0095
  832SOL     OW 2494   1.664   2.315   0.233  0.4977 -0.1683  0.2285
  832SOL    HW1 2495   1.592   2.297   0.166  1.9003 -0.1043  1.9523
  832SOL    HW2 2496   1.671   2.230   0.292 -1.4397 -2.5872  2.2454
  833SOL     OW 2497   0.432   0.927   2.540  0.2237  0.5368 -0.2497
  833SOL    HW1 2498   0.458   0.969   2.632 -2.0686 -0.8022  0.7704
  833SOL    HW2 2499   0.513   0.878   2.499 -0.2321  0.2793  1.2550
  834SOL     OW 2500   2.935   0.621   0.812 -0.7955  0.0609 -0.5922
  834SOL    HW1 2501   2.955   0.634   0.911 -0.6917 -2.1862 -1.4332
  834SOL    HW2 2502   2.846   0.579   0.801 -0.0709  0.3157  2.1584
  835SOL     OW 2503   2.284   0.731   2.181  0.1154  0.1713  0.4699
  835SOL    HW1 2504   2.267   0.720   2.279 -1.0287  0.9133 -3.3198
  835SOL    HW2 2505   2.223   0.808   2.138 -1.7664  0.6993 -2.0419
  836SOL     OW 2506   0.636   1.901   0.352 -0.1993 -0.0230  0.3623
  836SOL    HW1 2507   0.555   1.845   0.344 -0.3349  2.7020  1.6654
  836SOL    HW2 2508   0.707   1.849   0.306 -1.9911 -1.9102 -0.2199
  837SOL     OW 2509   2.376   1.365   1.916 -0.1348 -0.4720 -0.1006
  837SOL    HW1 2510   2.393   1.436   1.987 -1.0706  1.6982 -1.4193
  837SOL    HW2 2511   2.275   1.358   1.915  2.5055 -0.8164 -0.5408
  838SOL     OW 2512   0.135   1.114   2.358  0.0380  0.0343  0.2471
  838SOL    HW1 2513   0.158   1.014   2.374 -2.5336  0.4293 -1.9544
  838SOL    HW2 2514   0.038   1.130   2.392  2.1351  0.3848 -0.4142
  839SOL     OW 2515   0.420   2.941   2.941  0.1862  0.3775 -0.1981
  839SOL    HW1 2516   0.347   2.905   2.878  1.4931  0.2573  1.5269
  839SOL    HW2 2517   0.511   2.937   2.900 -2.2551 -1.7103 -0.3332
  840SOL     OW 2518   3.088   1.274   2.695 -0.1628 -0.1507 -0.2492
  840SOL    HW1 2519   0.055   1.241   2.761 -0.3605 -0.7762  0.6462
  840SOL    HW2 2520   3.002   1.291   2.749  0.6599  0.4972 -1.6273
  841SOL     OW 2521   0.452   2.100   2.723  0.5478  0.3013  0.3894
  841SOL    HW1 2522   0.384   2.151   2.786 -0.5914  1.2553 -0.0297
  841SOL    HW2 2523   0.543   2.143   2.719 -2.1005 -0.4749  1.1108
  842SOL     OW 2524   1.021   0.223   1.185  0.3036  0.0758  0.1861
  842SOL    HW1 2525   1.072   0.270   1.113 -1.8096 -0.6043  0.4172
  842SOL    HW2 2526   0.989   0.298   1.248 -0.8847 -1.3763  1.3414
  843SOL     OW 2527   0.039   1.656   2.251  0.0182  0.0365 -0.0629
  843SOL    HW1 2528   0.094   1.623   2.171  0.8555  0.9492  0.6100
  843SOL    HW2 2529   0.103   1.688   2.325  0.6722  1.4228  2.5584
  844SOL     OW 2530   1.684   1.937   2.358 -0.0628 -0.3710 -0.3731
  844SOL    HW1 2531   1.648   1.926   2.265  2.6329 -0.1536  0.2111
  844SOL    HW2 2532   1.742   2.021   2.358 -0.3784 -0.0979 -0.1950
  845SOL     OW 2533   2.100   2.785   2.482 -0.0138  0.3139 -0.0416
  845SOL    HW1 2534   2.075   2.760   2.579 -2.7021  0.3974  1.8817
  845SOL    HW2 2535   2.087   2.883   2.477  3.9093 -0.0179  1.5370
  846SOL     OW 2536   2.504   1.609   2.949  0.3012 -0.1743  0.4406
  846SOL    HW1 2537   2.453   1.674   3.010 -0.8656 -1.2286 -0.1600
  846SOL    HW2 2538   2.454   1.517   2.945 -1.4612 -2.9884  1.1719
  847SOL     OW 2539   2.254   0.168   2.727 -0.1007  0.0761 -0.1618
  847SOL    HW1 2540   2.206   0.211   2.648 -0.1038  1.9070 -2.5579
  847SOL    HW2 2541   2.355   0.165   2.709  0.3256 -0.9862 -0.1545
  848SOL     OW 2542   2.277   0.561   0.169 -0.1667 -0.2633  0.4351
  848SOL    HW1 2543   2.179   0.550   0.191 -1.2308 -1.7694  0.4825
  848SOL    HW2 2544   2.324   0.630   0.229 -0.7628 -0.6612 -1.4712
  849SOL     OW 2545   1.407   0.171   2.779  0.3817  0.2940  0.4133
  849SOL    HW1 2546   1.323   0.165   2.723 -0.2649  2.4392 -2.0261
  849SOL    HW2 2547   1.492   0.134   2.733  0.2427  0.9464 -1.1587
  850SOL     OW 2548   2.865   0.661   0.501 -0.1238  0.1472 -0.7080
  850SOL    HW1 2549   2.880   0.596   0.426  0.4555  1.2278  0.9818
  850SOL    HW2 2550   2.905   0.625   0.585  0.0097 -0.0678 -1.6054
  851SOL     OW 2551   0.163   1.318   1.255  0.6829  0.8803  0.1922
  851SOL    HW1 2552   0.261   1.294   1.246  0.3788  3.8968  2.8137
  851SOL    HW2 2553   0.119   1.347   1.170  0.1266 -1.0508  2.7951
  852SOL     OW 2554   1.343   0.791   2.283  0.0690  0.4193  1.2644
  852SOL    HW1 2555   1.444   0.767   2.285  0.2114 -3.4908 -1.6591
  852SOL    HW2 2556   1.304   0.797   2.375  2.0679  1.2713 -1.5328
  853SOL     OW 2557   2.118   1.389   0.020 -0.0623  0.1790  0.0100
  853SOL    HW1 2558   2.159   1.304   3.084 -1.8960 -1.7035 -2.1856
  853SOL    HW2 2559   2.076   1.437   3.043 -0.2851  0.4517  0.0842
  854SOL     OW 2560   1.338   1.079   1.954 -0.6094 -0.0104 -0.1048
  854SOL    HW1 2561   1.299   1.079   1.858  0.1292 -1.1317  0.9645
  854SOL    HW2 2562   1.263   1.038   2.011 -0.3419 -0.9826 -4.0668
  855SOL     OW 2563   0.368   2.527   1.962  0.6247 -0.2867 -0.5802
  855SOL    HW1 2564   0.421   2.557   1.879  2.7156  2.0392 -1.5127
  855SOL    HW2 2565   0.268   2.552   1.942 -0.0658 -0.2990 -0.1855
  856SOL     OW 2566   0.904   1.059   2.461 -0.1589 -0.1023 -0.2710
  856SOL    HW1 2567   1.002   1.057   2.438 -1.6948  0.6254  0.7499
  856SOL    HW2 2568   0.887   1.033   2.556 -0.2408 -2.3630 -0.7017
  857SOL     OW 2569   0.856   0.959   2.729 -0.9237  0.3115  0.6168
  857SOL    HW1 2570   0.902   0.995   2.815  0.1987 -0.2589  1.9736
  857SOL    HW2 2571   0.861   0.858   2.736 -1.5854 -1.7151  4.1839
  858SOL     OW 2572   0.265   0.347   1.771 -0.0682 -0.2961  0.3546
  858SOL    HW1 2573   0.322   0.275   1.724  1.0301  0.8767 -2.8006
  858SOL    HW2 2574   0.169   0.342   1.730 -0.9319  0.2551 -3.1241
  859SOL     OW 2575   2.403   0.275   0.684  0.4303  0.3787 -0.0716
  859SOL    HW1 2576   2.470   0.300   0.620 -4.2309  0.5746  3.6363
  859SOL    HW2 2577   2.374   0.348   0.745 -2.4951 -2.6921  0.8532
  860SOL     OW 2578   1.050   0.942   1.479 -0.5231 -0.2623 -0.6560
  860SOL    HW1 2579   1.006   0.848   1.490 -1.1166 -1.1733  0.1599
  860SOL    HW2 2580   1.152   0.936   1.466  0.1023 -0.4395 -0.2790
  861SOL     OW 2581   1.710   1.021   1.281 -0.4049  0.3327 -0.0897
  861SOL    HW1 2582   1.788   1.075   1.242 -2.2011 -0.2604  1.9201
  861SOL    HW2 2583   1.712   1.031   1.383 -3.2186  0.5817  2.9091
  862SOL     OW 2584   1.036   0.065   2.231 -0.4070  0.0803  0.3317
  862SOL    HW1 2585   1.008   3.069   2.227  0.5718  1.8472  0.6590
  862SOL    HW2 2586   0.955   0.125   2.207 -1.7877 -1.2801 -0.5458
  863SOL     OW 2587   2.869   0.403   1.538 -0.2271 -0.2416  0.1694
  863SOL    HW1 2588   2.770   0.399   1.532 -0.2932 -0.2905  1.9924
  863SOL    HW2 2589   2.911   0.369   1.446 -0.1163  1.3190  1.6488
  864SOL     OW 2590   2.715   2.985   2.206  0.0760  0.1325  0.0915
  864SOL    HW1 2591   2.624   3.022   2.221  2.5102 -0.2288 -0.7270
  864SOL    HW2 2592   2.768   3.059   2.162 -1.9000  1.3684 -2.3050
  865SOL     OW 2593   1.178   1.076   2.463 -0.0711  0.2736 -0.2132
  865SOL    HW1 2594   1.244   1.147   2.493  0.7848 -0.8883  0.3492
  865SOL    HW2 2595   1.183   1.069   2.363  0.4198  2.5857  2.4380
  866SOL     OW 2596   2.738   2.646   1.131 -0.2566 -0.1242  0.4153
  866SOL    HW1 2597   2.665   2.660   1.202 -3.6694 -2.1602 -1.0705
  866SOL    HW2 2598   2.779   2.556   1.145 -0.3153  0.8920  2.7658
  867SOL     OW 2599   2.589   2.662   1.359 -0.5127 -0.5446  0.2847
  867SOL    HW1 2600   2.579   2.762   1.395 -0.7283  0.5138  1.7262
  867SOL    HW2 2601   2.657   2.616   1.426  0.5272 -2.3349  0.9167
  868SOL     OW 2602   0.061   1.471   1.442 -0.5952  0.3620  0.3076
  868SOL    HW1 2603   0.103   1.412   1.373  0.3081 -1.4927  0.9239
  868SOL    HW2 2604   0.017   1.556   1.399  0.5122  1.0228  0.8234
  869SOL     OW 2605   2.145   1.835   2.040 -0.3475  0.0383 -0.1409
  869SOL    HW1 2606   2.236   1.833   2.082 -1.8621 -1.6844  1.2853
  869SOL    HW2 2607   2.092   1.767   2.097 -0.7605 -1.0753 -0.1015
  870SOL     OW 2608   1.559   1.001   0.819 -0.4882 -0.2657 -0.3391
  870SOL    HW1 2609   1.579   1.070   0.887  0.7162 -2.6146 -1.4285
  870SOL    HW2 2610   1.526   1.054   0.735  0.2656  0.7159  0.2879
  871SOL     OW 2611   2.629   1.419   1.789 -0.0904  0.6463  0.3479
  871SOL    HW1 2612   2.548   1.409   1.851  0.4755 -3.4580  0.2483
  871SOL    HW2 2613   2.642   1.514   1.759 -0.2075  0.0834 -1.1769
  872SOL     OW 2614   1.438   1.450   2.734  0.4213  0.5414 -0.6112
  872SOL    HW1 2615   1.528   1.435   2.790  1.3158 -1.0218  0.9329
  872SOL    HW2 2616   1.432   1.546   2.707  0.8504 -1.1806  1.9436
  873SOL     OW 2617   1.104   1.354   1.583  0.4200  0.5175  0.2336
  873SOL    HW1 2618   1.064   1.439   1.625  0.3294  1.8037  0.1985
  873SOL    HW2 2619   1.032   1.290   1.544  0.4330 -2.6630 -1.7188
  874SOL     OW 2620   1.244   1.288   1.342  0.5050  0.1720  0.0868
  874SOL    HW1 2621   1.215   1.307   1.437  0.7570 -1.0327 -3.0090
  874SOL    HW2 2622   1.201   1.355   1.280 -1.7547 -0.8629 -1.0191
  875SOL     OW 2623   2.505   0.094   2.670 -0.2138  0.3162  0.6493
  875SOL    HW1 2624   2.568   0.159   2.628 -0.8939  1.2079 -0.1318
  875SOL    HW2 2625   2.537   0.001   2.650 -0.0993  0.8321  1.5066
  876SOL     OW 2626   0.579   0.770   0.352  0.3805 -0.3234  0.3414
  876SOL    HW1 2627   0.600   0.811   0.444  1.1995  3.4328 -0.1402
  876SOL    HW2 2628   0.594   0.668   0.348  0.5391  1.6575 -0.2596
  877SOL     OW 2629   1.867   2.859   0.625 -0.5185  0.3558 -0.5152
  877SOL    HW1 2630   1.799   2.832   0.558  0.4251 -0.2113 -0.3225
  877SOL    HW2 2631   1.921   2.777   0.654  2.0166 -0.9613 -1.1225
  878SOL     OW 2632   2.664   1.994   0.338  0.6814 -0.0567  0.4030
  878SOL    HW1 2633   2.660   1.911   0.275 -0.7089 -2.2430 -2.6474
  878SOL    HW2 2634   2.634   2.074   0.279  0.6841  0.7886 -0.9371
  879SOL     OW 2635   0.008   2.375   1.918 -0.1658  0.1471  0.1256
  879SOL    HW1 2636   3.047   2.305   1.945  3.0521  0.6512  1.9848
  879SOL    HW2 2637   0.044   2.351   1.824  1.6113  1.0485  1.7241
  880SOL     OW 2638   0.390   1.642   0.880  0.0193 -0.5317  0.0020
  880SOL    HW1 2639   0.433   1.665   0.970 -0.4448 -0.0204 -0.4423
  880SOL    HW2 2640   0.454   1.666   0.805 -1.2640  1.6941  1.0637
  881SOL     OW 2641   1.365   0.234   2.467 -0.1496 -0.1160  0.2800
  881SOL    HW1 2642   1.330   0.147   2.511  0.8560  2.9863  2.8951
  881SOL    HW2 2643   1.297   0.311   2.484 -1.3916 -0.8246  1.8778
  882SOL     OW 2644   2.560   1.214   0.520 -0.5077 -0.6790  0.0282
  882SOL    HW1 2645   2.606   1.307   0.527 -0.4227  4.8004  0.2390
  882SOL    HW2 2646   2.470   1.211   0.569  2.0011  1.0689  1.0561
  883SOL     OW 2647   1.518   0.556   2.555 -0.2111  0.2895  0.6765
  883SOL    HW1 2648   1.446   0.560   2.631 -0.4017  0.0512 -0.9637
  883SOL    HW2 2649   1.492   0.603   2.469  1.1446 -0.5869  1.0115
  884SOL     OW 2650   0.158   0.093   2.064  0.2708 -0.4763 -0.7777
  884SOL    HW1 2651   0.068   0.060   2.030  0.4697  0.7032  2.3398
  884SOL    HW2 2652   0.205   0.020   2.121 -0.1595  0.4138  0.2972
  885SOL     OW 2653   2.167   1.136   2.142  0.0008  0.4977  0.4308
  885SOL    HW1 2654   2.178   1.041   2.108  0.3983 -0.7817 -1.5771
  885SOL    HW2 2655   2.132   1.134   2.236  2.0612  1.4862  3.0404
  886SOL     OW 2656   1.801   0.427   2.847  0.3695 -1.1875 -0.0314
  886SOL    HW1 2657   1.852   0.429   2.935 -1.1656 -4.9317 -0.5715
  886SOL    HW2 2658   1.841   0.494   2.780 -0.5064  1.2893 -1.8967
  887SOL     OW 2659   1.169   2.718   1.533  0.5386 -0.3937 -0.3554
  887SOL    HW1 2660   1.265   2.741   1.544 -1.1905  1.9750  0.2944
  887SOL    HW2 2661   1.153   2.623   1.495  0.2367 -1.8732  2.1617
  888SOL     OW 2662   2.417   0.938   1.387 -0.2237  0.0979  0.4101
  888SOL    HW1 2663   2.340   0.986   1.337  0.7907 -1.2772  1.5015
  888SOL    HW2 2664   2.438   0.986   1.474 -2.9055 -0.7701  0.4925
  889SOL     OW 2665   1.924   2.867   1.053  0.0110  0.2477  0.3431
  889SOL    HW1 2666   1.891   2.812   0.974  1.1494  2.8780  3.5120
  889SOL    HW2 2667   1.846   2.925   1.087  0.2602 -0.3685  0.5670
  890SOL     OW 2668   1.026   2.483   0.593 -0.4427  0.3292 -0.1759
  890SOL    HW1 2669   1.072   2.399   0.617 -1.4016  0.1565  0.9853
  890SOL    HW2 2670   1.059   2.562   0.652 -0.3425  1.2523 -2.7374
  891SOL     OW 2671   2.580   1.191   0.076 -0.0268 -0.7499 -0.0961
  891SOL    HW1 2672   2.628   1.259   0.135 -0.7697 -0.9855 -0.3453
  891SOL    HW2 2673   2.649   1.115   0.049 -2.1762 -1.4529  1.3477
  892SOL     OW 2674   2.438   1.727   2.452 -0.5341 -0.0072 -0.3997
  892SOL    HW1 2675   2.481   1.767   2.369  0.6965  0.6546  0.2560
  892SOL    HW2 2676   2.337   1.749   2.456  0.1827 -0.1467  0.5435
  893SOL     OW 2677   2.438   2.412   1.045  0.4038 -0.2804 -0.5160
  893SOL    HW1 2678   2.432   2.331   0.980 -1.1466 -2.7753 -3.3950
  893SOL    HW2 2679   2.470   2.495   0.994  1.2578  0.4040  0.4298
  894SOL     OW 2680   0.159   0.818   0.754 -0.4375 -0.6942  0.0206
  894SOL    HW1 2681   0.183   0.720   0.745 -0.3805  0.9234 -0.7794
  894SOL    HW2 2682   0.055   0.829   0.750 -0.8600  1.5767  1.8347
  895SOL     OW 2683   2.841   2.241   2.437  0.0562  0.2394 -0.2283
  895SOL    HW1 2684   2.805   2.243   2.530  2.3310 -0.5512  1.2946
  895SOL    HW2 2685   2.939   2.214   2.446 -1.7476  0.1593  0.5613
  896SOL     OW 2686   1.887   2.715   2.703  0.1142 -0.2127 -0.0757
  896SOL    HW1 2687   1.853   2.655   2.776 -1.3559  0.7700 -0.8531
  896SOL    HW2 2688   1.852   2.688   2.610  0.1523 -0.4930  0.3262
  897SOL     OW 2689   0.156   1.790   1.803  0.3549  0.1807  0.0721
  897SOL    HW1 2690   0.146   1.706   1.748  2.2943 -0.9963 -0.9772
  897SOL    HW2 2691   0.100   1.860   1.759  0.9942 -1.2093 -1.0793
  898SOL     OW 2692   0.443   2.258   2.073 -0.1589 -0.2077  0.6304
  898SOL    HW1 2693   0.344   2.228   2.066 -1.5008  0.5984 -1.3020
  898SOL    HW2 2694   0.446   2.356   2.047 -1.4983 -2.8832  0.6267
  899SOL     OW 2695   1.554   0.170   1.586  0.2940  0.4456  0.1488
  899SOL    HW1 2696   1.523   0.269   1.582  2.0195 -3.2679 -1.4356
  899SOL    HW2 2697   1.491   0.109   1.640  2.6926  0.5441  3.9930
  900SOL     OW 2698   1.430   1.128   0.325  0.0914  0.0255  0.4385
  900SOL    HW1 2699   1.423   1.029   0.314 -1.1925  1.7122 -2.9244
  900SOL    HW2 2700   1.346   1.174   0.295 -1.3344 -1.4757  1.5027
  901SOL     OW 2701   1.479   1.113   2.506 -0.2176 -0.0988 -0.3303
  901SOL    HW1 2702   1.411   1.180   2.543 -2.2427 -1.7283 -0.4853
  901SOL    HW2 2703   1.470   1.025   2.557 -1.7450 -0.5769 -2.6911
  902SOL     OW 2704   0.111   2.508   1.279  0.0715 -0.6180  0.0604
  902SOL    HW1 2705   0.164   2.567   1.347  2.7681  1.8181 -2.5534
  902SOL    HW2 2706   0.062   2.567   1.212 -0.7114 -1.3115 -2.9907
  903SOL     OW 2707   2.660   1.422   2.314  0.5337 -0.4351 -0.6353
  903SOL    HW1 2708   2.642   1.362   2.398  1.1096  0.2561 -0.7501
  903SOL    HW2 2709   2.740   1.378   2.267  3.6691  2.5096 -0.6711
  904SOL     OW 2710   1.352   1.745   0.118  0.2915 -0.1256 -0.5327
  904SOL    HW1 2711   1.399   1.692   0.043 -0.5006  2.0950 -0.3102
  904SOL    HW2 2712   1.322   1.836   0.084  0.2069 -2.1317  1.5315
  905SOL     OW 2713   2.074   2.868   1.824 -1.1714 -0.6072 -0.4177
  905SOL    HW1 2714   2.094   2.770   1.807  1.6497 -0.4872  1.3203
  905SOL    HW2 2715   2.156   2.924   1.801  0.9234 -0.7798 -1.5984
  906SOL     OW 2716   1.743   2.853   0.005  0.1593 -0.4202 -0.0038
  906SOL    HW1 2717   1.792   2.782   0.059 -2.4034 -0.1698  0.5454
  906SOL    HW2 2718   1.801   2.896   3.037 -0.1814  1.3278  0.8319
  907SOL     OW 2719   0.359   2.703   0.977  1.0630  0.2867 -0.2524
  907SOL    HW1 2720   0.314   2.763   1.043  3.3207 -1.8933 -0.0148
  907SOL    HW2 2721   0.334   2.716   0.879  0.3900  0.4859  0.3800
  908SOL     OW 2722   0.667   2.726   1.874 -0.1074  0.0880 -0.6522
  908SOL    HW1 2723   0.701   2.817   1.896  0.9591 -3.7679  0.5744
  908SOL    HW2 2724   0.667   2.671   1.956 -0.3637  1.6322  0.6683
  909SOL     OW 2725   1.758   0.553   1.252 -0.3554  0.0049 -0.3055
  909SOL    HW1 2726   1.769   0.593   1.343  0.8138 -0.6082  0.8297
  909SOL    HW2 2727   1.761   0.628   1.183  1.0386 -1.3451  2.2411
  910SOL     OW 2728   0.666   0.516   0.367  0.5092 -0.1603 -0.2508
  910SOL    HW1 2729   0.629   0.421   0.366  3.1404 -3.5458 -2.1120
  910SOL    HW2 2730   0.732   0.532   0.446 -0.1426  2.6403  4.0751
  911SOL     OW 2731   0.267   0.013   3.077 -0.3402 -0.4328  0.3707
  911SOL    HW1 2732   0.213   3.078   0.052 -0.4159  1.2192 -1.1966
  911SOL    HW2 2733   0.314   3.039   3.027 -2.9724  2.0435  0.1228
  912SOL     OW 2734   0.010   2.209   2.723 -0.4249 -0.2299 -0.0856
  912SOL    HW1 2735   0.063   2.269   2.789  0.7392  2.2527 -1.6678
  912SOL    HW2 2736   0.019   2.246   2.627  0.7302 -0.9077  0.8051
  913SOL     OW 2737   2.392   2.734   0.352  0.0006  0.2548 -0.1869
  913SOL    HW1 2738   2.367   2.782   0.435 -0.4024  0.9992 -2.9645
  913SOL    HW2 2739   2.495   2.711   0.348  0.4338  0.2120 -2.9960
  914SOL     OW 2740   1.327   1.688   2.026  0.0600 -0.1274 -0.0028
  914SOL    HW1 2741   1.417   1.651   2.058  0.2783 -2.4225  2.6810
  914SOL    HW2 2742   1.294   1.771   2.082  0.2645 -0.3447  1.3560
  915SOL     OW 2743   2.794   2.500   2.350  0.0862 -0.0800  0.0267
  915SOL    HW1 2744   2.877   2.545   2.308 -0.9104  0.5136  0.3596
  915SOL    HW2 2745   2.820   2.405   2.383  0.1889 -2.1151 -0.0957
  916SOL     OW 2746   2.978   0.652   2.189 -0.1574 -0.0147 -0.0857
  916SOL    HW1 2747   2.982   0.696   2.280  1.4968 -0.6100  0.7658
  916SOL    HW2 2748   3.073   0.618   2.170  0.4309  1.9460  1.9188
  917SOL     OW 2749   1.824   0.102   0.034  0.1379  0.1791 -0.2551
  917SOL    HW1 2750   1.824   0.090   0.138 -0.0135 -0.1840  0.4887
  917SOL    HW2 2751   1.747   0.058   3.089 -0.6101  1.2707  1.9052
  918SOL     OW 2752   2.028   2.562   2.282  0.4345 -0.6590  0.2253
  918SOL    HW1 2753   2.063   2.626   2.353  2.2804 -2.2474  1.5033
  918SOL    HW2 2754   2.053   2.465   2.300  2.6832 -1.0958  1.1996
  919SOL     OW 2755   1.592   2.346   1.529 -0.3944 -0.3367 -0.2926
  919SOL    HW1 2756   1.563   2.401   1.607 -1.2331  1.0359 -3.3517
  919SOL    HW2 2757   1.523   2.272   1.523 -1.8237 -0.5523  1.1261
  920SOL     OW 2758   0.013   1.034   0.045  0.1930  0.1462 -0.3535
  920SOL    HW1 2759   0.035   0.947   0.102  0.0060 -1.6204  0.4194
  920SOL    HW2 2760   3.045   1.096   0.097 -3.1118  3.2424  3.3531
  921SOL     OW 2761   2.590   0.845   2.488 -0.0869 -0.3417 -0.4049
  921SOL    HW1 2762   2.682   0.880   2.461 -0.0066 -0.1653 -2.0327
  921SOL    HW2 2763   2.566   0.868   2.585  1.2232  2.6112 -1.6255
  922SOL     OW 2764   1.068   1.756   2.655  0.0923 -0.2067 -0.5432
  922SOL    HW1 2765   0.971   1.783   2.662  2.7156  0.8593  1.6021
  922SOL    HW2 2766   1.105   1.691   2.724 -0.5540  0.7135  0.5161
  923SOL     OW 2767   0.759   1.090   2.244  0.6512 -0.1535 -0.1004
  923SOL    HW1 2768   0.822   1.056   2.322  1.6446  2.1758 -1.1730
  923SOL    HW2 2769   0.727   1.018   2.180  1.7915  1.4226  1.9602
  924SOL     OW 2770   0.493   2.398   2.800 -0.4383 -0.1102 -0.6105
  924SOL    HW1 2771   0.556   2.382   2.885  1.2844 -2.3317  2.1677
  924SOL    HW2 2772   0.518   2.489   2.765  2.7186  1.2561 -0.6392
  925SOL     OW 2773   1.610   1.382   0.880 -0.4886  0.2777  0.5309
  925SOL    HW1 2774   1.547   1.311   0.922  1.0389 -1.9447 -0.2173
  925SOL    HW2 2775   1.567   1.432   0.808  2.5357 -1.6278 -0.7688
  926SOL     OW 2776   1.634   0.305   2.451  0.0559  0.1154 -0.3035
  926SOL    HW1 2777   1.539   0.272   2.414 -0.5079 -0.1419  0.1275
  926SOL    HW2 2778   1.629   0.403   2.485  0.2368  1.0429 -1.8609
  927SOL     OW 2779   2.377   2.914   2.216 -0.2724 -0.0486  0.7016
  927SOL    HW1 2780   2.416   2.868   2.139 -0.1097  0.8015  2.6418
  927SOL    HW2 2781   2.275   2.935   2.204 -2.0962 -1.0667  1.1656
  928SOL     OW 2782   0.587   1.308   2.832  0.3983 -0.2903  0.1207
  928SOL    HW1 2783   0.498   1.329   2.790  0.9556 -1.7648  1.7509
  928SOL    HW2 2784   0.661   1.357   2.783  1.1503 -1.2304 -0.4253
  929SOL     OW 2785   3.069   0.227   0.927 -0.1386  0.2664 -0.0130
  929SOL    HW1 2786   3.082   0.290   0.848 -0.6011 -1.4272  0.8274
  929SOL    HW2 2787   0.042   0.158   0.948  1.2270  1.6968  0.7604
  930SOL     OW 2788   2.438   0.399   1.875 -0.3158 -0.2525  0.3449
  930SOL    HW1 2789   2.397   0.332   1.817 -0.9656  1.2633  1.6104
  930SOL    HW2 2790   2.489   0.467   1.816  1.4081 -1.3968  0.4821
  931SOL     OW 2791   2.261   1.137   3.036  0.4683  0.3275 -0.3836
  931SOL    HW1 2792   2.191   1.094   2.980  1.4461  0.1741 -0.9270
  931SOL    HW2 2793   2.337   1.069   3.050  0.1886 -2.0865 -0.3412
  932SOL     OW 2794   2.521   1.625   1.270  0.2497  0.0594  0.3117
  932SOL    HW1 2795   2.619   1.626   1.275 -1.7693  0.1375 -1.4682
  932SOL    HW2 2796   2.483   1.565   1.195 -0.3708  1.3099 -0.6941
  933SOL     OW 2797   2.933   2.701   1.771  0.1409  0.1355  0.4236
  933SOL    HW1 2798   2.922   2.635   1.847  3.3837 -1.4743  0.6498
  933SOL    HW2 2799   2.841   2.737   1.750 -0.7181  2.4286  0.7465
  934SOL     OW 2800   0.480   2.985   1.205 -0.5213 -0.1312  0.0529
  934SOL    HW1 2801   0.523   2.894   1.194 -1.1343 -0.0958 -2.9856
  934SOL    HW2 2802   0.551   3.058   1.204  1.3115 -0.6791 -1.6360
  935SOL     OW 2803   2.525   0.725   2.055  0.7095  0.3754 -0.0760
  935SOL    HW1 2804   2.456   0.734   2.130 -0.5985  1.8667  0.0488
  935SOL    HW2 2805   2.593   0.645   2.072  2.5544 -3.1812  1.1889
  936SOL     OW 2806   2.376   0.830   1.855 -0.1030 -0.1449 -0.0397
  936SOL    HW1 2807   2.365   0.813   1.754 -4.9909 -0.7885 -1.5458
  936SOL    HW2 2808   2.448   0.761   1.898  1.8211 -4.6612  1.9147
  937SOL     OW 2809   1.859   1.321   1.870  0.3048  0.1454  0.1847
  937SOL    HW1 2810   1.830   1.225   1.891 -1.8745 -0.1653 -0.2860
  937SOL    HW2 2811   1.856   1.340   1.770  2.7681 -2.9688  0.7186
  938SOL     OW 2812   0.439   2.557   3.076  0.2701 -0.2894  0.2013
  938SOL    HW1 2813   0.461   2.649   3.039 -3.0356 -1.9702  2.6770
  938SOL    HW2 2814   0.363   2.553   0.044 -0.2488  0.8452 -4.4737
  939SOL     OW 2815   2.123   0.478   2.813 -0.6104  0.6278 -0.2375
  939SOL    HW1 2816   2.055   0.552   2.840  0.2035  2.2456 -0.8044
  939SOL    HW2 2817   2.200   0.467   2.882  1.3136  2.8835 -0.0924
  940SOL     OW 2818   1.146   2.246   0.640  0.0748 -0.2944  0.3182
  940SOL    HW1 2819   1.146   2.242   0.744 -0.4630  0.6460  0.8218
  940SOL    HW2 2820   1.114   2.161   0.602  5.8017  3.1437 -1.3617
  941SOL     OW 2821   1.162   2.169   1.684 -0.2456  0.1321 -0.3062
  941SOL    HW1 2822   1.098   2.247   1.669  2.2510  0.5281 -0.6574
  941SOL    HW2 2823   1.111   2.079   1.687  0.3085 -1.0663  1.1203
  942SOL     OW 2824   2.859   2.102   0.051 -0.3912  0.1678 -0.2118
  942SOL    HW1 2825   2.918   2.028   0.091 -0.1968 -1.5214 -1.4648
  942SOL    HW2 2826   2.883   2.131   3.057 -0.5685 -2.7536 -0.4137
  943SOL     OW 2827   2.207   0.025   1.549 -0.4497  0.4242 -0.0256
  943SOL    HW1 2828   2.230   3.056   1.473  3.8414  1.9962 -0.5935
  943SOL    HW2 2829   2.108   0.043   1.536 -0.3682  0.6526 -1.8376
  944SOL     OW 2830   1.732   2.129   2.789 -0.0161  0.3763  0.3830
  944SOL    HW1 2831   1.721   2.048   2.729 -0.6580 -2.0518 -1.8312
  944SOL    HW2 2832   1.796   2.201   2.749 -1.0576 -0.4924 -1.2263
  945SOL     OW 2833   2.646   2.208   0.796 -0.3865 -0.0738 -0.7033
  945SOL    HW1 2834   2.679   2.236   0.892  2.7891 -0.7918  0.3096
  945SOL    HW2 2835   2.547   2.177   0.798  0.9437 -1.5990 -2.5071
  946SOL     OW 2836   1.289   1.307   2.549 -0.0902  1.1769  0.0250
  946SOL    HW1 2837   1.237   1.357   2.478 -1.9036  2.0915  1.0590
  946SOL    HW2 2838   1.330   1.369   2.623  0.3397  2.7590 -0.6593
  947SOL     OW 2839   0.109   0.557   2.148 -0.4162 -0.1658 -0.1827
  947SOL    HW1 2840   0.200   0.593   2.120  1.1250  0.9628  0.1705
  947SOL    HW2 2841   0.113   0.456   2.172  0.6631 -0.0438  1.5431
  948SOL     OW 2842   3.063   1.177   0.630 -0.0561  0.2006 -0.0495
  948SOL    HW1 2843   0.057   1.215   0.624 -1.8023  0.1126  0.2228
  948SOL    HW2 2844   3.062   1.085   0.674 -0.4882 -3.9908  0.8193
  949SOL     OW 2845   0.675   0.478   2.679 -0.3445  0.2380 -0.6924
  949SOL    HW1 2846   0.667   0.464   2.580 -0.6963 -1.0507  0.0723
  949SOL    HW2 2847   0.701   0.389   2.726  0.4434 -1.8243  3.0715
  950SOL     OW 2848   0.181   0.560   1.393 -0.7536 -0.7200  0.1080
  950SOL    HW1 2849   0.154   0.598   1.486  1.1358  1.5403  1.7876
  950SOL    HW2 2850   0.228   0.636   1.344 -0.6760  0.4049 -0.6074
  951SOL     OW 2851   0.345   1.298   2.683 -0.3218 -0.4607 -0.4058
  951SOL    HW1 2852   0.323   1.309   2.583 -0.9620  2.0149  2.5261
  951SOL    HW2 2853   0.283   1.233   2.730 -2.3036  0.3543  1.4372
  952SOL     OW 2854   1.749   2.144   1.045 -0.7318 -0.0234  0.3514
  952SOL    HW1 2855   1.660   2.197   1.025 -1.8318 -2.3154  0.1467
  952SOL    HW2 2856   1.819   2.196   1.093  0.6375  1.2638  0.4585
  953SOL     OW 2857   0.472   2.827   0.109 -0.2207 -0.3602 -0.0605
  953SOL    HW1 2858   0.488   2.880   0.195  2.5672  1.1560 -1.0510
  953SOL    HW2 2859   0.473   2.883   0.025 -1.2407  0.9842 -0.8613
  954SOL     OW 2860   2.674   1.120   1.262 -0.3414 -0.3193 -0.1888
  954SOL    HW1 2861   2.772   1.132   1.292 -0.5718  1.1127 -1.0747
  954SOL    HW2 2862   2.608   1.158   1.332  0.2277  1.6895 -1.7496
  955SOL     OW 2863   1.653   1.347   2.843  0.5633 -0.2030 -0.0847
  955SOL    HW1 2864   1.700   1.428   2.891  1.2937  1.2479  0.1073
  955SOL    HW2 2865   1.645   1.263   2.901  2.1519  0.1723 -1.2206
  956SOL     OW 2866   1.253   0.797   2.547  0.1606  0.3373  0.0544
  956SOL    HW1 2867   1.230   0.710   2.596 -1.8282 -3.0977  0.3611
  956SOL    HW2 2868   1.165   0.842   2.516 -1.4884  1.2022  1.0572
  957SOL     OW 2869   0.977   0.401   1.606  0.1822 -0.4907  0.2251
  957SOL    HW1 2870   1.038   0.468   1.652  0.0192 -0.7731  1.0164
  957SOL    HW2 2871   1.033   0.315   1.600  1.8626 -0.5854  1.6724
  958SOL     OW 2872   0.379   1.905   0.574 -0.2203  0.2398 -0.3336
  958SOL    HW1 2873   0.315   1.872   0.645 -0.8699 -0.3430  0.8269
  958SOL    HW2 2874   0.348   1.891   0.478  2.5773  1.6321  2.6442
  959SOL     OW 2875   2.087   0.778   1.626  0.5946  0.5394  0.0151
  959SOL    HW1 2876   2.188   0.792   1.604  0.2037 -1.8091 -1.1320
  959SOL    HW2 2877   2.077   0.681   1.656 -0.9748  1.4734  0.7040
  960SOL     OW 2878   0.102   1.555   2.935  0.0171  0.9531 -0.1230
  960SOL    HW1 2879   0.194   1.573   2.894 -0.2402 -0.7242  1.6758
  960SOL    HW2 2880   0.094   1.455   2.962 -2.2191 -1.1393  0.2079
  961SOL     OW 2881   0.775   1.734   0.838  0.1181 -0.1985 -0.1230
  961SOL    HW1 2882   0.681   1.761   0.802 -1.0111  1.3343 -0.2826
  961SOL    HW2 2883   0.848   1.806   0.828  0.3207 -1.0623 -0.4358
  962SOL     OW 2884   0.627   1.547   1.308 -0.7996  0.5928  0.4455
  962SOL    HW1 2885   0.619   1.597   1.219 -1.6359 -1.4241  2.5010
  962SOL    HW2 2886   0.687   1.465   1.307 -1.7246 -2.1658 -1.2839
  963SOL     OW 2887   1.519   2.301   2.545  0.1982  0.0263  0.0135
  963SOL    HW1 2888   1.497   2.205   2.572  0.1100  2.7970 -3.3415
  963SOL    HW2 2889   1.607   2.336   2.585  1.7372 -0.3028  0.1195
  964SOL     OW 2890   0.103   2.810   2.515 -0.1065  0.2674 -1.0180
  964SOL    HW1 2891   0.012   2.811   2.472  1.9790  1.3502  1.8880
  964SOL    HW2 2892   0.173   2.764   2.458  0.7626 -0.5432  0.4886
  965SOL     OW 2893   2.889   2.117   2.855  0.5444  0.9790  0.1149
  965SOL    HW1 2894   2.943   2.158   2.779 -1.9080 -0.3933  3.7124
  965SOL    HW2 2895   2.871   2.018   2.842  0.9025 -0.1546  0.4914
  966SOL     OW 2896   2.720   1.531   2.802  0.3123  0.5654  0.0494
  966SOL    HW1 2897   2.668   1.521   2.714 -1.4835  1.1998  1.8711
  966SOL    HW2 2898   2.660   1.575   2.872  1.2832  0.0341  2.5875
  967SOL     OW 2899   1.845   0.010   0.279  0.3374  0.3715  0.2757
  967SOL    HW1 2900   1.758   0.011   0.332 -2.2514  0.4649 -2.0044
  967SOL    HW2 2901   1.894   3.023   0.292 -2.7135  2.0595 -1.2588
  968SOL     OW 2902   2.691   0.028   0.817 -0.2140  0.0128 -0.1819
  968SOL    HW1 2903   2.600   0.048   0.857 -0.9165  0.8778  1.4854
  968SOL    HW2 2904   2.725   0.104   0.755 -0.8161  1.1116  2.1557
  969SOL     OW 2905   0.438   1.041   2.022 -0.1566 -0.2898  0.4083
  969SOL    HW1 2906   0.387   1.009   1.940 -0.6644  0.7203  1.4550
  969SOL    HW2 2907   0.420   1.143   2.024 -2.2834 -0.3200 -0.1108
  970SOL     OW 2908   1.906   1.703   2.700  0.1125  0.5133  0.3213
  970SOL    HW1 2909   1.909   1.608   2.667  0.0974  0.5703 -0.0831
  970SOL    HW2 2910   1.927   1.712   2.800 -1.7619  1.5375 -0.0250
  971SOL     OW 2911   2.281   0.247   1.705 -0.5438  0.2291  0.3474
  971SOL    HW1 2912   2.276   0.160   1.651  2.8731 -1.1440 -2.0120
  971SOL    HW2 2913   2.205   0.311   1.676 -1.5416 -1.0458 -0.8964
  972SOL     OW 2914   2.913   0.404   1.087  0.6081  0.2318  0.0422
  972SOL    HW1 2915   2.822   0.429   1.044 -0.0550  1.9258 -0.0274
  972SOL    HW2 2916   2.958   0.327   1.036  1.1390 -0.8464  0.4002
  973SOL     OW 2917   0.420   0.312   2.422  0.5844  0.3450 -0.4797
  973SOL    HW1 2918   0.324   0.283   2.392 -4.5977 -0.4316 -2.5863
  973SOL    HW2 2919   0.468   0.229   2.452  0.4932  0.9727  0.2851
  974SOL     OW 2920   2.939   1.018   1.692 -0.2463 -0.3558  0.9161
  974SOL    HW1 2921   2.926   1.121   1.698  1.2458  2.8502  2.3021
  974SOL    HW2 2922   2.846   0.978   1.704  0.6245 -1.7472 -2.2336
  975SOL     OW 2923   1.653   3.009   2.200 -0.3702 -0.9087 -0.2178
  975SOL    HW1 2924   1.722   3.027   2.129  0.5703 -1.0678  2.6571
  975SOL    HW2 2925   1.635   2.910   2.208  1.0764  2.3731  2.1263
  976SOL     OW 2926   2.092   1.620   1.627  0.1575  0.0981 -0.0508
  976SOL    HW1 2927   2.112   1.624   1.528 -1.8536 -0.3550  3.6792
  976SOL    HW2 2928   2.085   1.703   1.676  0.1793 -4.1395 -0.6536
  977SOL     OW 2929   0.059   2.765   0.037 -0.1093  0.3218 -0.1908
  977SOL    HW1 2930   3.070   2.757   3.091  3.0896 -2.7285  1.9334
  977SOL    HW2 2931   0.120   2.709   3.083 -1.3707  2.0173  0.8241
  978SOL     OW 2932   2.122   1.286   1.930  0.2857  0.7367  0.2207
  978SOL    HW1 2933   2.027   1.294   1.897 -0.4276 -1.2369 -0.4035
  978SOL    HW2 2934   2.127   1.225   2.015 -3.2542 -1.8994  1.0308
  979SOL     OW 2935   0.986   0.773   2.453  0.4808  0.3049 -0.1623
  979SOL    HW1 2936   0.945   0.858   2.489 -0.5787  2.3843 -0.0321
  979SOL    HW2 2937   0.949   0.760   2.362  0.8930 -3.1094 -0.9788
  980SOL     OW 2938   1.756   1.914   2.618 -0.2741  0.4526  0.9127
  980SOL    HW1 2939   1.752   1.916   2.514 -1.4133  0.2953 -1.4464
  980SOL    HW2 2940   1.811   1.831   2.644  1.0404  0.1202  1.6565
  981SOL     OW 2941   1.752   1.061   1.836  0.1155  0.5047  0.4638
  981SOL    HW1 2942   1.831   1.008   1.792  2.6310  1.1576  0.1020
  981SOL    HW2 2943   1.693   0.997   1.885  1.1307  0.7719  1.5505
  982SOL     OW 2944   0.512   0.289   0.231  0.2052  0.4974  0.2944
  982SOL    HW1 2945   0.432   0.350   0.266 -1.7933  1.4007  2.3161
  982SOL    HW2 2946   0.493   0.250   0.142 -1.0851 -1.2495  2.5222
  983SOL     OW 2947   2.018   0.710   2.914 -0.9637  0.7108  0.5487
  983SOL    HW1 2948   2.108   0.735   2.956 -1.1724  3.1744 -0.4849
  983SOL    HW2 2949   1.940   0.730   2.967  1.6620 -1.3720 -0.8077
  984SOL     OW 2950   1.022   0.229   2.730  0.4318  0.8435 -0.0291
  984SOL    HW1 2951   0.987   0.161   2.661 -0.4887 -0.1370  0.5793
  984SOL    HW2 2952   1.024   0.195   2.828  0.2500 -1.1037  1.2502
  985SOL     OW 2953   1.293   2.528   1.767 -0.0490  0.7985 -0.3772
  985SOL    HW1 2954   1.259   2.442   1.813  0.1900  1.3134  0.7272
  985SOL    HW2 2955   1.249   2.611   1.803  1.8326  0.1994 -1.9780
  986SOL     OW 2956   2.292   3.034   1.806  0.5355 -0.1613  0.0677
  986SOL    HW1 2957   2.286   3.056   1.705 -3.2513 -0.3457  0.4859
  986SOL    HW2 2958   2.316   0.012   1.865 -3.0390  0.7645  1.8085
  987SOL     OW 2959   1.847   1.305   0.776  0.0539 -0.2157 -0.0071
  987SOL    HW1 2960   1.752   1.332   0.807  0.2070  0.7427 -0.3966
  987SOL    HW2 2961   1.896   1.391   0.744 -2.1783  1.9506 -4.1643
  988SOL     OW 2962   2.537   1.061   1.595 -0.0121  0.1820  0.9558
  988SOL    HW1 2963   2.462   1.070   1.663 -2.2521 -1.4631 -0.7368
  988SOL    HW2 2964   2.551   1.151   1.547  1.1123 -0.4188 -3.8823
  989SOL     OW 2965   1.881   2.034   3.003 -0.2686  0.2961  0.1328
  989SOL    HW1 2966   1.823   2.092   2.941 -1.4952  3.2017  1.1940
  989SOL    HW2 2967   1.980   2.064   2.997  0.1958 -0.5483  1.4897
  990SOL     OW 2968   1.622   0.761   2.259 -0.3353 -0.3307  0.2042
  990SOL    HW1 2969   1.702   0.707   2.223 -1.4671  2.3641 -1.7188
  990SOL    HW2 2970   1.647   0.858   2.289  0.5475 -0.8464 -2.2632
  991SOL     OW 2971   0.929   0.776   0.720 -0.4371 -0.1973 -0.5509
  991SOL    HW1 2972   1.014   0.774   0.669 -2.7225 -0.3876  0.8401
  991SOL    HW2 2973   0.948   0.848   0.797  0.3067  1.6318  1.8585
  992SOL     OW 2974   0.090   0.854   1.166  0.0553  0.6605  0.1146
  992SOL    HW1 2975   0.021   0.906   1.221  0.0190  0.1087 -0.9801
  992SOL    HW2 2976   0.137   0.909   1.094 -0.1800  1.2778  1.1819
  993SOL     OW 2977   2.086   0.518   1.752 -0.2246  0.3961 -0.0906
  993SOL    HW1 2978   2.128   0.538   1.846  0.2683 -0.4478  0.1693
  993SOL    HW2 2979   2.009   0.450   1.763 -1.3063 -0.0718 -3.3465
  994SOL     OW 2980   1.333   1.792   1.752  0.1015 -0.1409 -0.7179
  994SOL    HW1 2981   1.337   1.751   1.844  1.5154 -2.1515 -2.5863
  994SOL    HW2 2982   1.238   1.829   1.740 -0.5932  1.1258  2.7063
  995SOL     OW 2983   2.255   1.761   2.860 -0.7342  0.1721  0.9275
  995SOL    HW1 2984   2.199   1.830   2.907  0.0906  0.7452 -1.8480
  995SOL    HW2 2985   2.313   1.801   2.784 -1.1000  0.6380 -1.0697
  996SOL     OW 2986   2.191   1.848   0.497 -0.3107 -0.6557 -0.3265
  996SOL    HW1 2987   2.278   1.904   0.477  1.6495  0.6698  0.7571
  996SOL    HW2 2988   2.212   1.780   0.567  0.6813  1.3056 -1.4988
  997SOL     OW 2989   1.867   0.652   2.093 -0.2351  0.6324  0.2672
  997SOL    HW1 2990   1.807   0.680   2.012 -0.0232 -1.8286  1.3715
  997SOL    HW2 2991   1.961   0.631   2.061  1.6112  1.4741  1.2391
  998SOL     OW 2992   2.637   0.623   0.733 -0.6428 -0.0857 -0.3167
  998SOL    HW1 2993   2.625   0.726   0.730 -0.2154 -1.9006 -0.7172
  998SOL    HW2 2994   2.603   0.568   0.654  0.8926 -3.0970 -1.6000
  999SOL     OW 2995   2.422   1.197   0.283  1.0455 -0.0735 -0.7593
  999SOL    HW1 2996   2.471   1.201   0.195 -0.4030 -2.7908 -1.0683
  999SOL    HW2 2997   2.485   1.201   0.364  2.0712 -0.8807 -0.2272
 1000SOL     OW 2998   0.676   1.237   1.807  0.0155  0.1491  0.0833
 1000SOL    HW1 2999   0.603   1.269   1.867 -0.8229  1.9797 -0.3410
 1000SOL    HW2 3000   0.639   1.177   1.731 -1.7197  1.8880  0.2254
   3.10085   3.10085   3.10085
