1000 SPC/Fw water molecules t=  16.00000 step= 16000
 3000
    1SOL     OW    1   1.739   2.658   0.268 -0.9944  0.1800  0.4508
    1SOL    HW1    2   1.710   2.758   0.251 -0.9469  3.8807  0.2063
    1SOL    HW2    3   1.682   2.592   0.221 -1.4366 -0.1579  0.3921
    2SOL     OW    4   1.093   0.649   1.967 -0.2095 -0.5982  0.2120
    2SOL    HW1    5   1.163   0.626   1.896 -1.1160 -2.7534  0.4900
    2SOL    HW2    6   1.126   0.684   2.059  2.4646  2.1808  2.1630
    3SOL     OW    7   0.710   3.061   2.799 -0.2779  0.4453  0.1625
    3SOL    HW1    8   0.705   0.082   2.752  1.1371  3.9509 -2.1120
    3SOL    HW2    9   0.613   3.025   2.812  2.3913  1.8572  3.6263
    4SOL     OW   10   1.534   1.546   3.011  0.2281  0.2221 -0.7501
    4SOL    HW1   11   1.467   1.475   2.988 -0.1850  2.2196 -1.1642
    4SOL    HW2   12   1.500   1.640   2.978 -1.7921  0.8964 -0.8088
    5SOL     OW   13   0.796   0.936   2.238 -0.2251  0.6668  0.3462
    5SOL    HW1   14   0.791   0.842   2.288 -0.1575 -4.3527  1.6929
    5SOL    HW2   15   0.743   1.008   2.292  1.5579 -1.7698 -4.4838
    6SOL     OW   16   2.079   0.799   2.559  0.1650 -0.1946  0.2192
    6SOL    HW1   17   2.049   0.748   2.476  1.3324  3.4876  1.2929
    6SOL    HW2   18   2.122   0.890   2.531 -0.9091  1.8654  0.0980
    7SOL     OW   19   0.476   0.978   1.278 -0.7382 -0.1145  0.0830
    7SOL    HW1   20   0.530   0.951   1.195  0.4376  3.4634  1.3130
    7SOL    HW2   21   0.436   1.071   1.256  0.0617  2.6440  2.6181
    8SOL     OW   22   2.023   2.696   1.895 -0.1388  0.2240  0.6217
    8SOL    HW1   23   1.976   2.671   1.807  0.2659  0.5073  0.0012
    8SOL    HW2   24   1.996   2.792   1.924 -0.5427  1.7633 -1.0491
    9SOL     OW   25   0.002   2.587   0.653 -0.0705  0.0348  0.1139
    9SOL    HW1   26   0.032   2.511   0.593 -3.1209  0.2169 -0.7066
    9SOL    HW2   27   0.086   2.622   0.701  0.9291 -0.6781  0.0139
   10SOL     OW   28   3.065   2.288   2.472  0.6062  0.7351  0.6261
   10SOL    HW1   29   0.011   2.334   2.385  0.0259 -5.1754 -0.2584
   10SOL    HW2   30   3.053   2.189   2.455 -0.1149  1.2717 -0.9383
   11SOL     OW   31   0.430   1.561   0.107  0.2577 -0.5768  0.2720
   11SOL    HW1   32   0.459   1.486   0.169 -0.5046 -2.5503 -1.1712
   11SOL    HW2   33   0.473   1.653   0.141  3.2645  3.5880  1.2769
   12SOL     OW   34   1.993   2.598   0.703  0.0003 -0.2621  0.0847
   12SOL    HW1   35   1.900   2.574   0.735  2.2720  1.1716  0.7672
   12SOL    HW2   36   2.005   2.697   0.678 -3.2277  2.5896 -0.5395
   13SOL     OW   37   0.105   0.338   2.711 -0.4001  0.7530  0.0630
   13SOL    HW1   38   0.186   0.279   2.734 -0.0518  0.9967 -1.2468
   13SOL    HW2   39   0.133   0.438   2.700  0.4595  1.4790  1.2340
   14SOL     OW   40   1.243   1.131   1.670 -1.0526 -0.2451  0.0539
   14SOL    HW1   41   1.202   1.064   1.730 -0.8233 -1.3873 -1.8451
   14SOL    HW2   42   1.203   1.226   1.678  0.4612 -1.6280  0.7636
   15SOL     OW   43   0.585   1.377   2.055 -0.2866  0.2419 -0.0888
   15SOL    HW1   44   0.529   1.417   1.980 -2.1778 -0.1499  1.1175
   15SOL    HW2   45   0.526   1.315   2.111  0.8436 -2.0329 -0.0715
   16SOL     OW   46   1.550   0.981   2.837 -0.2351  0.7697  0.2375
   16SOL    HW1   47   1.514   1.053   2.773 -2.4569 -0.9283 -2.1842
   16SOL    HW2   48   1.538   1.009   2.934  1.4280  1.2000 -2.4702
   17SOL     OW   49   0.055   2.424   2.231  0.3440 -0.8276 -0.8044
   17SOL    HW1   50   0.019   2.516   2.201 -0.1903  0.0761 -0.7502
   17SOL    HW2   51   0.080   2.370   2.151 -0.7769  2.2138  1.5582
   18SOL     OW   52   1.421   1.336   0.660 -0.0800 -0.5632  0.1157
   18SOL    HW1   53   1.451   1.248   0.623 -0.0187  4.1312  1.5951
   18SOL    HW2   54   1.338   1.324   0.720 -1.2693  2.3790 -1.7233
   19SOL     OW   55   0.150   1.302   1.933 -0.3342  0.0641 -0.1037
   19SOL    HW1   56   0.247   1.331   1.961  0.0105  0.2093  1.3448
   19SOL    HW2   57   0.155   1.215   1.875 -0.0380  0.7432 -2.0989
   20SOL     OW   58   2.004   2.100   2.855 -0.0877  0.1361  0.2371
   20SOL    HW1   59   2.065   2.141   2.924 -0.7291  1.4548 -1.1717
   20SOL    HW2   60   1.974   2.168   2.788  1.0381  2.0235  0.5130
   21SOL     OW   61   1.819   1.805   1.061  0.1990 -0.3335 -0.0611
   21SOL    HW1   62   1.808   1.850   1.152  1.6439  1.2740  1.9274
   21SOL    HW2   63   1.869   1.717   1.065  0.1717  2.8520 -0.8170
   22SOL     OW   64   1.930   2.214   1.326 -0.1459 -0.3033  0.0362
   22SOL    HW1   65   1.851   2.190   1.386  3.7215  2.0108  0.7184
   22SOL    HW2   66   1.909   2.302   1.278  0.4819  2.5633 -1.2168
   23SOL     OW   67   2.981   1.183   1.570 -0.1264 -0.3820  0.2566
   23SOL    HW1   68   2.987   1.139   1.478 -0.0637 -0.4519 -0.0364
   23SOL    HW2   69   2.884   1.194   1.601  1.1200 -1.3685  1.2993
   24SOL     OW   70   1.660   1.274   1.842  0.0564 -0.5441 -0.1145
   24SOL    HW1   71   1.615   1.237   1.755 -2.1591 -0.7329 -3.2589
   24SOL    HW2   72   1.714   1.355   1.816 -0.0609 -4.6066 -0.5893
   25SOL     OW   73   1.881   0.058   2.192 -0.0594  0.0123  0.6043
   25SOL    HW1   74   1.963   0.100   2.241  3.7474  0.0239  3.2218
   25SOL    HW2   75   1.795   0.117   2.187 -1.3798  1.8487 -0.6873
   26SOL     OW   76   0.676   2.984   0.629 -0.3992 -0.4200  0.4160
   26SOL    HW1   77   0.750   2.983   0.701  0.2643 -2.1042 -0.9777
   26SOL    HW2   78   0.711   2.972   0.533 -1.6807  1.9525  0.9401
   27SOL     OW   79   1.412   1.166   0.986 -0.0643  0.3640 -0.2197
   27SOL    HW1   80   1.488   1.221   0.950  1.0506 -0.2200  1.3436
   27SOL    HW2   81   1.327   1.220   1.008  1.3287  0.1604 -1.3530
   28SOL     OW   82   2.230   2.427   0.959 -0.0506  0.4571  0.8788
   28SOL    HW1   83   2.236   2.454   0.861 -0.0764 -0.7243  1.8771
   28SOL    HW2   84   2.241   2.505   1.027 -1.3851  2.1855 -0.4588
   29SOL     OW   85   2.164   2.862   2.298 -0.5162 -0.2144 -0.0942
   29SOL    HW1   86   2.126   2.791   2.365 -2.8701 -3.2126  2.2120
   29SOL    HW2   87   2.198   2.942   2.350 -0.9264  0.0389  0.9501
   30SOL     OW   88   0.119   2.696   1.907 -0.4479  0.4877 -0.6161
   30SOL    HW1   89   0.051   2.767   1.865 -0.4776  0.6583 -1.6143
   30SOL    HW2   90   0.208   2.742   1.937 -2.4841 -0.6062 -0.5137
   31SOL     OW   91   2.995   1.792   2.039  0.3560  0.8086  0.0881
   31SOL    HW1   92   3.067   1.854   2.082  1.3025  1.3214  1.9280
   31SOL    HW2   93   3.018   1.751   1.951 -0.6780 -0.0797  0.6592
   32SOL     OW   94   1.186   2.046   2.357 -0.4902  0.4027 -0.7870
   32SOL    HW1   95   1.210   2.034   2.260 -1.1753 -0.0688  1.3857
   32SOL    HW2   96   1.262   2.082   2.410 -1.0534  0.4730 -0.8890
   33SOL     OW   97   0.275   0.371   3.016  0.4184 -0.4015 -0.3815
   33SOL    HW1   98   0.325   0.352   0.027 -0.3344 -0.5125 -2.9951
   33SOL    HW2   99   0.240   0.467   3.025  0.2654  0.3954  1.8216
   34SOL     OW  100   2.800   0.131   0.105 -0.0659 -0.0966 -0.0058
   34SOL    HW1  101   2.885   0.112   0.052 -0.2728  0.2905  0.1522
   34SOL    HW2  102   2.737   0.152   0.025 -1.2131 -0.7086 -1.7650
   35SOL     OW  103   2.951   2.603   1.588 -0.9210 -0.0867  0.4551
   35SOL    HW1  104   2.978   2.550   1.670  2.6014 -0.5453 -0.9167
   35SOL    HW2  105   2.879   2.675   1.607  1.0181  0.9294 -1.6045
   36SOL     OW  106   2.255   0.008   2.432 -0.1879  0.3005 -0.9165
   36SOL    HW1  107   2.334   0.019   2.495  2.2456  3.8819 -1.1094
   36SOL    HW2  108   2.205   0.094   2.416 -0.7178  1.1662  1.5380
   37SOL     OW  109   1.630   2.861   2.971 -0.4465 -0.2705 -0.1536
   37SOL    HW1  110   1.716   2.816   2.941 -1.7018  0.7830  0.2821
   37SOL    HW2  111   1.602   2.943   2.916 -0.9780 -1.6875  0.7128
   38SOL     OW  112   0.327   0.638   0.520  0.5811 -0.1867  0.0060
   38SOL    HW1  113   0.336   0.545   0.563  2.3769 -0.2186  2.1653
   38SOL    HW2  114   0.310   0.710   0.590 -2.0289 -0.9584  0.0352
   39SOL     OW  115   1.043   1.823   2.087 -0.0507 -1.0848  0.1203
   39SOL    HW1  116   1.087   1.736   2.109  0.1867 -1.6564  1.6438
   39SOL    HW2  117   1.106   1.906   2.080  0.3194 -2.3926  0.5598
   40SOL     OW  118   3.033   0.799   2.717 -0.2562  0.3832  0.0555
   40SOL    HW1  119   2.977   0.844   2.640 -2.2965  1.5761 -0.0533
   40SOL    HW2  120   3.072   0.867   2.777 -3.9161  0.8618 -1.1478
   41SOL     OW  121   1.288   0.598   1.791 -0.0087 -0.1548  1.0273
   41SOL    HW1  122   1.360   0.667   1.767  3.3274  1.6079  0.5067
   41SOL    HW2  123   1.332   0.507   1.798 -3.2285  3.6566 -1.2934
   42SOL     OW  124   2.248   0.202   1.073  0.4576 -0.3592  0.1398
   42SOL    HW1  125   2.234   0.213   0.971 -1.6692  0.2725 -1.7642
   42SOL    HW2  126   2.259   0.296   1.116 -0.2530  2.5938  2.0402
   43SOL     OW  127   1.422   0.771   1.613  0.4177 -0.0161 -0.1151
   43SOL    HW1  128   1.473   0.826   1.546 -1.6061 -1.8410  1.5338
   43SOL    HW2  129   1.440   0.669   1.599  1.0469  0.2765  1.5877
   44SOL     OW  130   0.262   0.641   0.055  0.2407  0.0560 -0.3341
   44SOL    HW1  131   0.241   0.622   0.154 -1.2008 -0.8198 -0.7103
   44SOL    HW2  132   0.218   0.725   0.020 -1.2160  3.0133 -3.5540
   45SOL     OW  133   0.521   1.782   1.851  0.3827 -0.1652  0.2722
   45SOL    HW1  134   0.608   1.797   1.900 -0.9523 -2.7825 -2.6392
   45SOL    HW2  135   0.538   1.760   1.753  0.6365  0.8780  2.6070
   46SOL     OW  136   2.271   2.637   2.000  0.1350  0.1949 -0.0115
   46SOL    HW1  137   2.317   2.706   2.049 -0.5556  0.0640 -4.2349
   46SOL    HW2  138   2.194   2.668   1.947  2.5786  2.1157  3.6783
   47SOL     OW  139   0.175   1.856   1.564 -0.3924 -0.0383 -0.0553
   47SOL    HW1  140   0.191   1.758   1.584 -1.5512  3.5786  0.4716
   47SOL    HW2  141   0.232   1.913   1.626 -0.3404 -1.1555 -0.1593
   48SOL     OW  142   1.137   2.544   2.766 -0.3143 -0.0042  0.7235
   48SOL    HW1  143   1.128   2.456   2.716 -0.1759  1.7875  1.7860
   48SOL    HW2  144   1.067   2.545   2.843  0.1384  0.3909  0.4543
   49SOL     OW  145   2.468   1.606   1.794 -0.4355 -0.0873  0.1233
   49SOL    HW1  146   2.539   1.668   1.758  0.4525  0.2879  0.4670
   49SOL    HW2  147   2.513   1.539   1.857 -0.0209  1.0543  2.3354
   50SOL     OW  148   1.059   2.925   0.533 -0.0261  0.6613  0.2360
   50SOL    HW1  149   1.107   2.941   0.619  1.2220 -2.6193 -2.2057
   50SOL    HW2  150   1.002   3.008   0.512 -1.6573 -2.5564  1.8500
   51SOL     OW  151   1.184   0.452   1.314 -0.6600 -0.0053  0.2096
   51SOL    HW1  152   1.216   0.453   1.409 -1.6983  0.5374 -1.3406
   51SOL    HW2  153   1.117   0.375   1.304 -2.7728  0.3861 -0.3690
   52SOL     OW  154   0.495   1.004   0.476 -0.3671 -0.0838 -0.4547
   52SOL    HW1  155   0.548   0.977   0.394  0.6137 -0.8645 -2.6058
   52SOL    HW2  156   0.438   1.085   0.462  1.2132 -0.6277 -2.2480
   53SOL     OW  157   1.261   0.016   2.699 -0.1195  0.1524 -0.3705
   53SOL    HW1  158   1.163   3.063   2.709 -1.0893  0.3057  1.0464
   53SOL    HW2  159   1.295   0.045   2.608 -1.8063 -2.4717  3.0426
   54SOL     OW  160   2.169   0.400   2.175  0.4122  0.3357  0.0563
   54SOL    HW1  161   2.267   0.405   2.143  0.4981 -0.7237 -1.7804
   54SOL    HW2  162   2.110   0.431   2.098 -0.5573 -0.5133  1.7614
   55SOL     OW  163   2.886   2.428   0.170  0.1202  0.1237  0.0862
   55SOL    HW1  164   2.952   2.387   0.106  0.4180 -0.6345 -0.0158
   55SOL    HW2  165   2.917   2.515   0.203 -2.0289 -0.8763 -1.2126
   56SOL     OW  166   0.682   0.199   1.848  0.0108 -0.1622  0.0817
   56SOL    HW1  167   0.653   0.111   1.885  3.3271  0.7103  0.0854
   56SOL    HW2  168   0.750   0.238   1.915 -0.3896  2.7826  0.9894
   57SOL     OW  169   1.737   0.831   2.411 -0.1855 -0.1094 -0.3289
   57SOL    HW1  170   1.749   0.934   2.391 -1.1383  1.4457  0.3367
   57SOL    HW2  171   1.818   0.776   2.378 -0.1546 -2.3474 -2.4859
   58SOL     OW  172   2.907   1.029   2.225 -0.2931 -0.0578  0.5099
   58SOL    HW1  173   2.842   1.014   2.149  0.0932 -2.1001  1.1482
   58SOL    HW2  174   2.984   0.964   2.212 -0.1336  0.7278 -1.6342
   59SOL     OW  175   0.457   2.539   1.494  0.2882 -0.1368  0.0306
   59SOL    HW1  176   0.485   2.630   1.532  0.2932  0.5451 -1.1765
   59SOL    HW2  177   0.503   2.530   1.407 -1.5748  0.9466  0.9149
   60SOL     OW  178   2.064   2.836   0.350 -0.1247  0.0981 -0.0922
   60SOL    HW1  179   2.031   2.750   0.387  1.0490  1.8093 -0.9767
   60SOL    HW2  180   2.167   2.842   0.361  0.1334  0.7401 -3.2104
   61SOL     OW  181   1.477   2.344   0.385  0.2739  0.0145 -0.7254
   61SOL    HW1  182   1.540   2.290   0.444 -2.0925  0.9673  0.0362
   61SOL    HW2  183   1.530   2.389   0.311 -0.1072 -1.9631 -0.6294
   62SOL     OW  184   1.872   2.728   2.922 -0.2677  0.1783  0.0033
   62SOL    HW1  185   1.941   2.735   2.854 -1.3952 -0.2811  0.8099
   62SOL    HW2  186   1.823   2.637   2.917 -2.6537 -0.5152  0.4072
   63SOL     OW  187   2.177   0.747   0.570  0.0949 -0.8349  0.1743
   63SOL    HW1  188   2.178   0.793   0.479 -4.1876  0.1028 -0.0450
   63SOL    HW2  189   2.084   0.715   0.586  1.9864  2.8463  0.2175
   64SOL     OW  190   1.545   1.077   0.040  0.2053  0.2424  0.1040
   64SOL    HW1  191   1.584   1.161   0.081  0.0601 -0.0744 -0.1908
   64SOL    HW2  192   1.446   1.088   0.032 -0.7142  1.1836  1.2567
   65SOL     OW  193   0.723   2.429   1.481  0.6219 -0.0637 -0.2360
   65SOL    HW1  194   0.662   2.354   1.447  1.0995  0.7871  0.4838
   65SOL    HW2  195   0.673   2.509   1.517 -1.5330  0.2476 -1.0778
   66SOL     OW  196   1.029   1.310   1.427 -0.3898 -0.3625  0.1952
   66SOL    HW1  197   1.125   1.288   1.418 -2.7572  3.2595  3.3571
   66SOL    HW2  198   1.005   1.288   1.523  0.3831 -0.6549  0.8625
   67SOL     OW  199   2.274   1.991   1.748 -0.0940  0.5951  0.3537
   67SOL    HW1  200   2.304   1.946   1.662  0.3424 -0.0425 -1.4850
   67SOL    HW2  201   2.209   1.920   1.792 -2.7381 -1.2994  2.4259
   68SOL     OW  202   0.833   1.655   1.737 -0.2674 -0.0897 -0.1059
   68SOL    HW1  203   0.782   1.563   1.728 -2.4326 -1.1922 -0.0046
   68SOL    HW2  204   0.799   1.713   1.818  0.0183  0.0176  0.4315
   69SOL     OW  205   0.056   2.755   0.043 -0.3018  0.4330  0.2360
   69SOL    HW1  206   0.103   2.727   0.128  0.7832 -0.0394  0.3935
   69SOL    HW2  207   3.030   2.757   0.045  3.4571 -1.1993 -0.3573
   70SOL     OW  208   2.204   1.017   2.481  0.4355 -0.1916  0.8751
   70SOL    HW1  209   2.161   1.060   2.397 -3.0301  0.8998 -1.5488
   70SOL    HW2  210   2.306   1.001   2.468  0.8815 -2.1318 -1.2275
   71SOL     OW  211   0.856   2.122   1.039 -0.0587  0.2053  0.2929
   71SOL    HW1  212   0.910   2.053   1.093  0.9244  0.2066 -0.4263
   71SOL    HW2  213   0.794   2.072   0.977 -0.6368  0.3498  3.6767
   72SOL     OW  214   2.564   2.120   0.500  0.6001  0.3782 -0.3976
   72SOL    HW1  215   2.632   2.169   0.445 -4.8428 -0.0457 -0.5876
   72SOL    HW2  216   2.580   2.128   0.603 -0.2354 -0.9260  0.9104
   73SOL     OW  217   1.554   0.737   0.708 -0.1002 -0.1625 -0.1241
   73SOL    HW1  218   1.600   0.789   0.783  0.9257  0.0181 -2.3019
   73SOL    HW2  219   1.503   0.659   0.738  1.4280  1.1933  2.0205
   74SOL     OW  220   2.555   2.178   2.022 -0.2738 -0.1930  0.5664
   74SOL    HW1  221   2.643   2.222   1.994  2.2408 -1.5690 -2.8407
   74SOL    HW2  222   2.558   2.155   2.120  1.4552  1.3569 -0.3553
   75SOL     OW  223   1.462   1.892   1.910  1.3127  0.3278  0.2651
   75SOL    HW1  224   1.444   1.892   1.810 -1.0144 -1.4425  0.6929
   75SOL    HW2  225   1.446   1.795   1.939 -0.7517  1.0884  2.6251
   76SOL     OW  226   1.570   1.437   1.332  0.1601 -0.1824  0.5425
   76SOL    HW1  227   1.536   1.343   1.302 -1.7087 -0.3765 -0.0725
   76SOL    HW2  228   1.593   1.484   1.244  2.4679 -0.5238  0.2675
   77SOL     OW  229   2.443   1.217   1.639 -0.2419 -0.0393  0.4724
   77SOL    HW1  230   2.445   1.315   1.614  3.3877 -1.3611 -1.9149
   77SOL    HW2  231   2.427   1.162   1.557 -0.7562 -0.4528 -0.1733
   78SOL     OW  232   1.571   0.600   0.340 -0.1066 -0.0130 -0.3284
   78SOL    HW1  233   1.557   0.668   0.270  1.3371 -2.0371  1.8488
   78SOL    HW2  234   1.486   0.591   0.399 -1.4532  1.6027  0.2541
   79SOL     OW  235   1.013   1.405   2.119 -0.5121 -0.4454 -0.1691
   79SOL    HW1  236   1.006   1.364   2.027 -1.2878  0.7469 -1.0280
   79SOL    HW2  237   0.926   1.444   2.158  2.0205 -0.0577 -0.5509
   80SOL     OW  238   1.001   0.281   1.561  0.0151  0.5404 -0.4154
   80SOL    HW1  239   0.999   0.381   1.567 -2.4338  1.8668  1.5892
   80SOL    HW2  240   1.089   0.234   1.582 -0.4762  0.5594  0.5237
   81SOL     OW  241   0.621   2.359   0.187  0.1466  0.5091 -0.5422
   81SOL    HW1  242   0.685   2.362   0.108  2.4311 -2.2444  1.7780
   81SOL    HW2  243   0.667   2.345   0.280  2.5434  2.9585  0.5225
   82SOL     OW  244   1.177   0.082   1.640  0.1104 -0.4719  0.6107
   82SOL    HW1  245   1.108   0.048   1.702  3.1451 -0.6667 -4.5101
   82SOL    HW2  246   1.260   0.015   1.644  1.8293 -3.3395  2.7708
   83SOL     OW  247   0.384   2.144   0.998  0.1247 -0.3916  0.0762
   83SOL    HW1  248   0.285   2.129   1.027 -0.2612  1.6054 -2.3781
   83SOL    HW2  249   0.395   2.240   0.969 -0.2754  2.1561 -1.1873
   84SOL     OW  250   2.822   1.597   0.914 -0.0224 -0.3805 -0.4169
   84SOL    HW1  251   2.831   1.497   0.894 -0.2418  2.0063  1.0878
   84SOL    HW2  252   2.915   1.640   0.925  0.2506  0.4305 -0.0046
   85SOL     OW  253   2.054   2.020   1.152  0.6368 -0.0151 -0.2325
   85SOL    HW1  254   2.013   2.073   1.226 -1.3289 -3.3673 -3.5147
   85SOL    HW2  255   2.031   1.921   1.168 -3.5388 -2.8012  0.0540
   86SOL     OW  256   1.353   2.334   2.022  0.4315  0.0501  0.5795
   86SOL    HW1  257   1.254   2.341   1.995  1.2699 -2.0276  0.4522
   86SOL    HW2  258   1.373   2.392   2.102 -0.7363 -0.0138 -2.1291
   87SOL     OW  259   2.261   1.630   0.695  0.4150  0.2156 -0.0844
   87SOL    HW1  260   2.278   1.600   0.597  2.7248  2.4988 -1.3819
   87SOL    HW2  261   2.311   1.717   0.705  1.2653  0.9703  1.0778
   88SOL     OW  262   0.346   3.010   0.889  0.1110 -0.0168  0.4101
   88SOL    HW1  263   0.360   2.928   0.826  1.7155  1.4644 -0.0924
   88SOL    HW2  264   0.432   3.063   0.891 -2.0055 -3.0127  2.8296
   89SOL     OW  265   0.312   0.682   2.041 -0.5049  0.0855  0.5127
   89SOL    HW1  266   0.345   0.771   2.074 -0.3558 -0.3380 -1.9592
   89SOL    HW2  267   0.379   0.649   1.973  0.6180 -1.3312  1.0580
   90SOL     OW  268   2.881   1.976   0.336  0.3335  0.6994 -0.2096
   90SOL    HW1  269   2.846   2.068   0.358  3.2715  0.0596 -0.6357
   90SOL    HW2  270   2.879   1.910   0.419 -0.1870  1.4847  3.1961
   91SOL     OW  271   0.953   1.902   1.184  0.4413  0.2933  0.2942
   91SOL    HW1  272   0.998   1.989   1.217  0.0495 -3.9357 -1.9846
   91SOL    HW2  273   0.883   1.873   1.253 -0.7499 -4.1868  2.4080
   92SOL     OW  274   2.159   3.049   1.828 -0.4459 -0.2678  0.2544
   92SOL    HW1  275   2.260   3.070   1.853  1.8918 -0.3431  0.3883
   92SOL    HW2  276   2.109   3.000   1.903  0.9678 -1.0244  0.8774
   93SOL     OW  277   0.410   1.570   2.903 -0.1357 -0.1613  0.2204
   93SOL    HW1  278   0.426   1.568   3.001 -0.2717  1.2857  0.8645
   93SOL    HW2  279   0.498   1.593   2.856  1.5276  1.2481 -1.9908
   94SOL     OW  280   2.426   0.004   1.927 -0.0504  0.2269 -0.5713
   94SOL    HW1  281   2.442   0.072   2.007  3.5055  0.1320  1.4088
   94SOL    HW2  282   2.515   3.038   1.888  0.1354  0.1591 -1.5818
   95SOL     OW  283   1.860   0.381   1.878  0.3592 -0.1158  0.1480
   95SOL    HW1  284   1.850   0.304   1.941 -0.2145  0.8719 -1.8419
   95SOL    HW2  285   1.870   0.343   1.786 -1.7709 -0.9714  0.5079
   96SOL     OW  286   0.289   0.326   1.713 -0.1463 -0.1585 -0.2586
   96SOL    HW1  287   0.302   0.297   1.613 -0.9019  0.7325 -0.2096
   96SOL    HW2  288   0.208   0.388   1.710  1.5395  0.0039 -2.2386
   97SOL     OW  289   1.892   0.244   1.601  0.0454  0.0519 -0.0904
   97SOL    HW1  290   1.878   0.299   1.517 -2.5183  0.3420 -0.4786
   97SOL    HW2  291   1.803   0.197   1.626  0.7534  2.8961  1.3312
   98SOL     OW  292   1.983   2.337   1.815 -0.4734 -0.1477  0.4958
   98SOL    HW1  293   2.064   2.310   1.757  4.8265  0.6771 -2.8127
   98SOL    HW2  294   2.003   2.314   1.914  0.7585 -0.9368 -3.0665
   99SOL     OW  295   0.585   0.877   1.048  0.1508  0.2496  0.4097
   99SOL    HW1  296   0.523   0.927   0.986 -1.4082  0.8793 -1.9938
   99SOL    HW2  297   0.593   0.778   1.024  2.5607  0.6853  0.3182
  100SOL     OW  298   2.722   1.909   2.035  0.4343 -0.0782 -0.1122
  100SOL    HW1  299   2.734   1.978   2.110  0.8332 -0.4653 -0.8483
  100SOL    HW2  300   2.810   1.853   2.030  0.7785  2.3235  0.6546
  101SOL     OW  301   1.738   0.159   0.041 -0.3276  0.3785 -0.3026
  101SOL    HW1  302   1.714   0.259   0.029  0.3391 -0.3315 -0.6738
  101SOL    HW2  303   1.844   0.149   0.038  2.5297 -0.1118 -0.0712
  102SOL     OW  304   3.046   0.003   1.144  0.2098  0.1824 -0.1390
  102SOL    HW1  305   2.998   3.036   1.067 -0.1079  1.2125  2.6368
  102SOL    HW2  306   0.075   0.010   1.132 -0.4578  1.6522  1.8565
  103SOL     OW  307   0.228   2.919   2.267 -0.1803 -0.0931 -0.4683
  103SOL    HW1  308   0.134   2.910   2.310 -3.9809  1.6233  2.6013
  103SOL    HW2  309   0.290   2.839   2.295  0.6907 -2.0845  1.2836
  104SOL     OW  310   0.387   2.170   1.555  0.0066 -0.5424  0.6484
  104SOL    HW1  311   0.308   2.167   1.492  1.4486 -1.1106  0.0879
  104SOL    HW2  312   0.463   2.225   1.514  0.3276 -0.1213 -1.2769
  105SOL     OW  313   0.609   1.988   2.071 -0.1867  0.0682  0.7439
  105SOL    HW1  314   0.540   1.930   2.119  2.4793 -0.6958  1.9709
  105SOL    HW2  315   0.621   2.081   2.106  1.1105  0.1169 -1.3656
  106SOL     OW  316   2.507   0.019   0.482 -0.3431 -0.4528  0.4201
  106SOL    HW1  317   2.489   0.000   0.580 -0.8185  1.2262  0.7814
  106SOL    HW2  318   2.594   3.052   0.445 -2.5633  1.7226 -0.2094
  107SOL     OW  319   0.688   1.337   1.130 -0.2613  0.3840 -0.8908
  107SOL    HW1  320   0.611   1.275   1.140  2.9676  0.8671  1.0007
  107SOL    HW2  321   0.769   1.298   1.168 -2.6948 -0.4829  0.5109
  108SOL     OW  322   2.773   1.095   1.996 -0.1421 -0.3699  0.7319
  108SOL    HW1  323   2.680   1.114   1.967  0.8733 -0.4067  0.9435
  108SOL    HW2  324   2.836   1.171   1.964 -0.7445  1.5484  1.1081
  109SOL     OW  325   2.047   2.884   3.045  0.3845  0.2828  0.2572
  109SOL    HW1  326   2.030   2.988   3.061  0.5094  3.5540 -2.4371
  109SOL    HW2  327   1.963   2.839   3.015  1.3116 -0.0002 -0.4158
  110SOL     OW  328   0.232   2.014   2.757 -0.1762 -0.3899 -0.0278
  110SOL    HW1  329   0.131   2.021   2.779 -2.5987  1.1886 -0.2702
  110SOL    HW2  330   0.282   1.965   2.836  2.5255 -2.4044  2.4209
  111SOL     OW  331   2.661   0.813   2.281  0.1965  0.6153 -0.1941
  111SOL    HW1  332   2.726   0.782   2.214 -1.3585  1.9731 -2.0893
  111SOL    HW2  333   2.713   0.830   2.368  0.5640 -1.0601 -2.0294
  112SOL     OW  334   2.397   2.719   1.606 -0.1771 -0.0885  0.2743
  112SOL    HW1  335   2.335   2.801   1.593 -0.6555 -0.0094  0.7504
  112SOL    HW2  336   2.454   2.720   1.689 -1.2139 -1.0197 -0.7331
  113SOL     OW  337   2.172   1.985   2.667 -0.4031  0.0243  0.4115
  113SOL    HW1  338   2.181   1.883   2.648  2.1916  1.5747  4.1149
  113SOL    HW2  339   2.110   2.004   2.743 -0.0042 -1.6958 -0.6756
  114SOL     OW  340   0.571   0.228   0.524 -0.1128 -0.1164 -0.1000
  114SOL    HW1  341   0.607   0.226   0.432 -0.5943  0.8778  0.8546
  114SOL    HW2  342   0.645   0.243   0.590 -0.2223  0.8475  2.1485
  115SOL     OW  343   0.176   1.825   0.098 -0.0598 -0.1450 -0.1700
  115SOL    HW1  344   0.170   1.728   0.130 -0.8435  1.1291 -0.9186
  115SOL    HW2  345   0.231   1.835   0.008 -0.8293  0.5302 -1.8105
  116SOL     OW  346   2.938   1.295   1.894 -0.5142 -0.2637  0.5976
  116SOL    HW1  347   3.036   1.284   1.917 -2.4989 -1.0733  1.9232
  116SOL    HW2  348   2.911   1.381   1.850  0.5845 -1.0631 -1.5396
  117SOL     OW  349   1.871   0.376   1.353 -0.4914 -0.0835  0.1997
  117SOL    HW1  350   1.953   0.418   1.306  1.5732 -0.6286 -2.2554
  117SOL    HW2  351   1.785   0.417   1.319  2.8972 -0.6501  0.7379
  118SOL     OW  352   2.775   2.650   2.010  0.3633 -0.1546  0.5136
  118SOL    HW1  353   2.718   2.596   1.947  0.7819 -0.0487 -1.1894
  118SOL    HW2  354   2.856   2.602   2.047  1.9349 -1.1437  1.2730
  119SOL     OW  355   0.435   1.638   1.499  0.3302  0.0745 -0.1520
  119SOL    HW1  356   0.516   1.590   1.452 -3.0506 -1.6781 -2.3282
  119SOL    HW2  357   0.470   1.732   1.528 -0.5863  1.1580 -0.8668
  120SOL     OW  358   0.433   1.472   1.812  0.3572  0.7461 -0.8670
  120SOL    HW1  359   0.512   1.468   1.747 -0.7247 -0.1943  2.2349
  120SOL    HW2  360   0.349   1.511   1.768 -1.9994  1.5639  1.0794
  121SOL     OW  361   1.550   1.069   0.624  0.0159 -0.1553  0.2907
  121SOL    HW1  362   1.575   0.993   0.564 -0.7509 -0.2520  2.0909
  121SOL    HW2  363   1.485   1.049   0.697  0.1030 -0.2504  0.1582
  122SOL     OW  364   2.378   2.411   2.856 -0.3841  0.3151  0.0038
  122SOL    HW1  365   2.309   2.485   2.864 -1.9855  0.3571  0.9891
  122SOL    HW2  366   2.366   2.357   2.769  0.2359 -0.8717 -1.0317
  123SOL     OW  367   0.094   3.060   0.188  0.1081 -0.8812 -0.0093
  123SOL    HW1  368   0.096   3.069   0.284 -1.2454 -2.3591 -3.3344
  123SOL    HW2  369   0.159   2.981   0.157 -0.3919 -2.9271 -1.4101
  124SOL     OW  370   1.639   1.305   0.166 -0.6204 -0.2846 -0.4417
  124SOL    HW1  371   1.730   1.350   0.175 -0.0640 -2.3590  1.6228
  124SOL    HW2  372   1.576   1.313   0.245 -1.3059 -1.3643  0.3374
  125SOL     OW  373   0.147   0.952   2.171  0.0198  0.3925 -0.1983
  125SOL    HW1  374   0.128   0.924   2.270  1.8194  1.8358 -0.0169
  125SOL    HW2  375   0.249   0.976   2.162  0.4977  0.4948 -1.8096
  126SOL     OW  376   0.128   2.627   2.900  0.0668  0.3580  0.2963
  126SOL    HW1  377   0.043   2.596   2.852 -1.8870 -0.6780 -0.7394
  126SOL    HW2  378   0.108   2.685   2.981  1.9365 -1.8311 -1.5715
  127SOL     OW  379   2.791   1.868   0.089  0.1162  0.3946  0.1247
  127SOL    HW1  380   2.826   1.904   0.177 -1.0915 -0.0591  0.7350
  127SOL    HW2  381   2.763   1.944   0.024  3.3356  1.6141  0.2823
  128SOL     OW  382   1.134   0.957   1.034  0.0269 -0.3907 -0.4289
  128SOL    HW1  383   1.189   0.963   0.949 -1.1175 -2.4163 -0.7697
  128SOL    HW2  384   1.043   0.994   1.022  3.0910  2.8524  0.5497
  129SOL     OW  385   2.268   2.180   1.051  0.3933 -0.1615 -0.1969
  129SOL    HW1  386   2.190   2.138   1.106  0.3261 -2.1002 -0.0896
  129SOL    HW2  387   2.248   2.270   1.013  2.7926 -3.0366  2.9981
  130SOL     OW  388   1.943   0.769   0.301  0.4576  0.7174  0.4235
  130SOL    HW1  389   2.017   0.833   0.308 -2.8707 -2.0296  1.1540
  130SOL    HW2  390   1.863   0.807   0.259  2.3929 -1.3823  1.1796
  131SOL     OW  391   2.933   1.483   2.683 -0.3261 -0.1900  0.0342
  131SOL    HW1  392   2.940   1.519   2.590 -0.4010  3.2229  3.0010
  131SOL    HW2  393   2.966   1.544   2.754 -0.9403  0.3140 -3.7759
  132SOL     OW  394   1.080   0.973   2.087  1.1828 -0.3105  0.1631
  132SOL    HW1  395   1.004   1.014   2.137  1.3282  0.4537 -1.2406
  132SOL    HW2  396   1.059   0.953   1.988  0.7232  0.8036 -3.0301
  133SOL     OW  397   0.417   1.309   0.740 -0.6351 -0.2504 -0.0348
  133SOL    HW1  398   0.502   1.251   0.766 -0.5142  1.5187  1.1052
  133SOL    HW2  399   0.433   1.406   0.754 -3.4648 -1.6027  0.5947
  134SOL     OW  400   3.063   1.512   0.020 -0.5126  0.0337 -0.3209
  134SOL    HW1  401   0.054   1.520   0.102 -1.0686  1.5889 -0.2616
  134SOL    HW2  402   0.025   1.433   3.041  1.4440  0.3427  3.0135
  135SOL     OW  403   1.584   0.746   0.090 -0.2576 -0.3290 -0.0876
  135SOL    HW1  404   1.517   0.781   0.021  2.2527 -0.8050  0.3380
  135SOL    HW2  405   1.669   0.719   0.036  0.2600 -2.5876 -1.1241
  136SOL     OW  406   2.088   1.832   1.396  0.1264 -0.2190  0.5889
  136SOL    HW1  407   2.094   1.733   1.379 -1.2494  0.8187 -2.2792
  136SOL    HW2  408   1.996   1.867   1.376 -0.7210 -1.5248  0.8193
  137SOL     OW  409   2.342   2.528   0.702  0.0041 -0.4328 -0.3121
  137SOL    HW1  410   2.304   2.623   0.693  1.6441  0.4488  0.4534
  137SOL    HW2  411   2.303   2.468   0.625 -1.4812 -2.0529 -2.8003
  138SOL     OW  412   2.230   0.480   1.771  0.5858 -0.5986 -0.2360
  138SOL    HW1  413   2.185   0.510   1.856  1.4647 -0.1084  2.6896
  138SOL    HW2  414   2.214   0.382   1.747 -1.5092 -0.3056 -0.4390
  139SOL     OW  415   2.693   2.482   2.856  0.0514  0.2781  0.0248
  139SOL    HW1  416   2.630   2.553   2.891  1.1766 -0.6401 -0.6718
  139SOL    HW2  417   2.660   2.454   2.764 -3.1391  1.0334  0.9848
  140SOL     OW  418   1.578   2.028   2.305 -0.0843  0.0767 -0.1490
  140SOL    HW1  419   1.653   2.080   2.261  0.2001  0.3783  0.6044
  140SOL    HW2  420   1.555   1.942   2.262 -0.5752 -0.9309  0.0891
  141SOL     OW  421   1.018   0.991   2.456 -0.4727 -0.0435  0.5824
  141SOL    HW1  422   1.043   1.079   2.411  3.5974 -0.0822 -1.9211
  141SOL    HW2  423   1.093   0.922   2.450 -2.3497 -2.5490 -0.0039
  142SOL     OW  424   1.893   2.522   2.088  0.3157  0.0122 -0.1761
  142SOL    HW1  425   1.904   2.421   2.067  0.8852 -3.4676  1.0476
  142SOL    HW2  426   1.916   2.587   2.012 -1.4678  1.3464  0.0756
  143SOL     OW  427   1.203   2.322   0.403 -0.1242 -0.2152 -0.2713
  143SOL    HW1  428   1.294   2.361   0.378  2.1778  3.8892 -0.6705
  143SOL    HW2  429   1.178   2.348   0.501 -1.3649 -0.3811  0.7796
  144SOL     OW  430   0.887   2.694   0.501  0.4133  1.2321 -0.5078
  144SOL    HW1  431   0.908   2.786   0.476  0.7003 -1.1223 -0.6724
  144SOL    HW2  432   0.929   2.628   0.433 -0.7834  2.1850 -0.6861
  145SOL     OW  433   1.704   2.532   2.591  0.0422  0.3043  0.1438
  145SOL    HW1  434   1.621   2.591   2.594  0.3156  1.8071 -0.6125
  145SOL    HW2  435   1.793   2.570   2.624  0.3662 -1.0576 -2.5006
  146SOL     OW  436   1.987   2.641   0.146 -0.4111 -0.3621 -0.2663
  146SOL    HW1  437   2.026   2.732   0.128 -0.0522 -0.2948  0.8547
  146SOL    HW2  438   1.901   2.651   0.204  2.8698 -1.0694 -2.7794
  147SOL     OW  439   0.205   1.598   1.655  0.0855  0.0459 -0.9932
  147SOL    HW1  440   0.283   1.614   1.594  0.5343  1.0412  0.0996
  147SOL    HW2  441   0.134   1.537   1.615  3.4043  2.5575  0.8977
  148SOL     OW  442   1.650   2.894   0.179  0.5656  0.1725  0.5311
  148SOL    HW1  443   1.733   2.948   0.209 -0.0969  0.2918  1.5261
  148SOL    HW2  444   1.641   2.890   0.076 -1.3743 -2.5968  0.7684
  149SOL     OW  445   0.528   1.961   0.007  0.2032  0.1888  0.3430
  149SOL    HW1  446   0.628   1.962   3.070 -0.8668 -1.5922  0.3593
  149SOL    HW2  447   0.489   2.055   0.029 -0.1445  2.5234 -0.6279
  150SOL     OW  448   0.198   2.643   1.037  0.0853  0.2637  0.0870
  150SOL    HW1  449   0.253   2.690   1.104  0.5652 -1.5230  0.7307
  150SOL    HW2  450   0.102   2.681   1.029  1.1095  1.7988 -1.6253
  151SOL     OW  451   0.413   1.228   3.007  0.0408  0.4909 -0.5043
  151SOL    HW1  452   0.459   1.222   2.916 -1.6595 -1.7686  0.1414
  151SOL    HW2  453   0.487   1.243   0.006  0.1764 -1.6194 -2.2305
  152SOL     OW  454   3.045   2.178   0.855  0.4630 -0.0985 -0.0322
  152SOL    HW1  455   2.967   2.108   0.852 -1.3333  0.5172  0.7380
  152SOL    HW2  456   3.010   2.273   0.865 -0.1996  1.0941  0.9838
  153SOL     OW  457   1.525   2.210   0.664 -0.0363  0.4866  0.0900
  153SOL    HW1  458   1.601   2.163   0.615  0.4367  2.5417 -1.3300
  153SOL    HW2  459   1.446   2.147   0.678  0.1492 -1.6364  0.1315
  154SOL     OW  460   0.610   3.018   1.486  0.0198 -0.3726  0.4662
  154SOL    HW1  461   0.526   3.054   1.442 -0.1430  0.5249 -1.9141
  154SOL    HW2  462   0.669   0.017   1.531  0.4744  2.0327  0.3140
  155SOL     OW  463   2.793   2.236   0.364 -0.9540  0.1200 -0.3367
  155SOL    HW1  464   2.803   2.255   0.466 -0.9845  1.1902  0.1360
  155SOL    HW2  465   2.820   2.319   0.308  1.3425  0.1968 -1.4579
  156SOL     OW  466   2.339   2.031   0.380 -0.4087  0.4793 -0.5463
  156SOL    HW1  467   2.348   2.120   0.336 -0.7874  0.0058  1.3526
  156SOL    HW2  468   2.418   2.007   0.441  1.9812 -1.5015 -0.1341
  157SOL     OW  469   0.623   2.789   1.842  0.4512 -0.0556  0.0725
  157SOL    HW1  470   0.603   2.890   1.857  1.4982  1.7538 -0.0368
  157SOL    HW2  471   0.649   2.744   1.929 -2.1151 -0.2914 -1.6109
  158SOL     OW  472   1.146   0.692   1.091 -0.4409  0.0889  0.7379
  158SOL    HW1  473   1.150   0.791   1.071 -0.3364 -2.4396 -2.5568
  158SOL    HW2  474   1.062   0.675   1.142 -0.2789 -0.5839 -3.1857
  159SOL     OW  475   1.809   0.970   0.081 -0.1639  0.7863 -0.1750
  159SOL    HW1  476   1.720   1.016   0.064  2.7755  0.4750  1.0917
  159SOL    HW2  477   1.824   0.899   0.009 -2.6159  0.7869  1.4321
  160SOL     OW  478   1.050   1.976   0.482 -0.1273  0.2982 -0.4399
  160SOL    HW1  479   1.145   1.994   0.441  0.3900 -0.1274  1.5159
  160SOL    HW2  480   1.002   2.059   0.517 -0.8682  0.9965  2.8759
  161SOL     OW  481   2.557   1.906   2.509 -0.5875  0.3173  0.5932
  161SOL    HW1  482   2.658   1.915   2.525 -0.9361  2.0060 -0.5158
  161SOL    HW2  483   2.525   1.813   2.532  2.0631 -0.9710  0.0544
  162SOL     OW  484   0.164   2.230   1.394 -0.0917 -0.3352 -0.1755
  162SOL    HW1  485   0.072   2.199   1.429 -0.9482  1.2822  0.9528
  162SOL    HW2  486   0.150   2.305   1.325  0.4225  2.4367  0.8734
  163SOL     OW  487   0.132   0.600   2.740  0.4364  0.2604 -0.0688
  163SOL    HW1  488   0.213   0.635   2.789  2.6390  1.3808  3.1637
  163SOL    HW2  489   0.071   0.679   2.710  0.3635 -0.3077 -1.1222
  164SOL     OW  490   0.272   2.583   2.668 -0.0976  0.4629  0.0013
  164SOL    HW1  491   0.290   2.484   2.654  2.7156 -0.0318  0.9896
  164SOL    HW2  492   0.229   2.599   2.762 -0.9915 -0.9333 -0.2640
  165SOL     OW  493   2.472   0.903   1.624  0.0224  0.1129  0.2316
  165SOL    HW1  494   2.447   0.958   1.543  3.2911 -1.3365  0.0575
  165SOL    HW2  495   2.574   0.907   1.646  1.6894  2.3638  1.2973
  166SOL     OW  496   2.068   1.562   1.330  0.8744 -0.1205  0.3858
  166SOL    HW1  497   2.086   1.485   1.396 -0.6115 -1.2394  5.5699
  166SOL    HW2  498   1.996   1.532   1.261 -0.3922 -0.4955  2.8900
  167SOL     OW  499   0.141   0.900   2.439  0.0493 -0.0938 -0.0044
  167SOL    HW1  500   0.074   0.824   2.450 -0.3557  1.3914 -0.9036
  167SOL    HW2  501   0.112   0.990   2.483 -0.7800  0.4022  2.4962
  168SOL     OW  502   2.038   0.305   2.625  0.6574  0.0062 -0.0894
  168SOL    HW1  503   1.941   0.286   2.641  1.2134 -1.8609 -1.9524
  168SOL    HW2  504   2.039   0.378   2.560 -0.8736  0.6019  0.1342
  169SOL     OW  505   0.691   1.035   2.951  0.0486 -0.5746 -0.0689
  169SOL    HW1  506   0.642   1.015   3.042 -0.7119  0.2810  1.8039
  169SOL    HW2  507   0.630   1.098   2.897 -0.3893  0.7969 -0.5170
  170SOL     OW  508   0.939   1.277   1.687 -0.3655 -0.0383 -0.1162
  170SOL    HW1  509   0.900   1.241   1.774  0.7512 -2.1776 -0.3913
  170SOL    HW2  510   1.019   1.337   1.707  2.3012 -1.1455  1.1682
  171SOL     OW  511   1.282   2.637   1.125 -0.3790 -0.3937  0.2602
  171SOL    HW1  512   1.234   2.687   1.201  4.5982 -0.9912  1.3589
  171SOL    HW2  513   1.378   2.608   1.154 -0.5042  1.1761  0.3821
  172SOL     OW  514   0.913   2.822   1.725 -0.0572 -0.1500  0.0532
  172SOL    HW1  515   0.814   2.831   1.722  1.2249 -0.1082  1.1206
  172SOL    HW2  516   0.938   2.724   1.731 -0.3348  3.6069  0.9562
  173SOL     OW  517   0.630   2.677   0.678 -0.5308 -0.0954  0.1049
  173SOL    HW1  518   0.716   2.708   0.632 -1.4037 -0.1647  3.6957
  173SOL    HW2  519   0.656   2.662   0.777 -1.4340 -0.4557  0.9177
  174SOL     OW  520   2.188   0.022   0.450  0.5142  0.3558  1.1095
  174SOL    HW1  521   2.102   3.052   0.479  3.6153 -1.8005 -1.4478
  174SOL    HW2  522   2.254   3.020   0.430  0.4190  0.0701 -1.5335
  175SOL     OW  523   1.179   1.304   1.006 -0.1789  0.0908  0.4587
  175SOL    HW1  524   1.188   1.407   1.030  2.7383 -0.1060 -0.4483
  175SOL    HW2  525   1.090   1.287   0.955  3.7041 -2.7150 -0.6590
  176SOL     OW  526   1.144   1.810   1.018 -0.7728  0.3810  0.4834
  176SOL    HW1  527   1.124   1.875   0.941  0.3673  0.0642  1.1104
  176SOL    HW2  528   1.066   1.821   1.080  0.6585  0.6638  0.4366
  177SOL     OW  529   1.642   1.286   0.914 -0.0610 -0.0739 -0.5746
  177SOL    HW1  530   1.699   1.201   0.910  1.6004 -3.2970 -0.9833
  177SOL    HW2  531   1.662   1.356   0.839 -0.7461 -0.6853 -0.6198
  178SOL     OW  532   2.287   1.550   0.443 -0.0307  0.0277  0.2367
  178SOL    HW1  533   2.383   1.566   0.411  4.6470 -0.3315 -1.9419
  178SOL    HW2  534   2.254   1.462   0.409 -0.5895  0.9192 -0.6097
  179SOL     OW  535   1.297   2.984   0.140 -0.1616 -0.2156  0.5060
  179SOL    HW1  536   1.328   2.904   0.190  0.0813 -0.3943 -1.7234
  179SOL    HW2  537   1.365   3.020   0.072 -0.0464  0.6642 -0.4418
  180SOL     OW  538   1.926   1.202   1.234 -0.1457  0.7831  0.0930
  180SOL    HW1  539   1.886   1.266   1.303 -1.2930  0.3285  0.9279
  180SOL    HW2  540   1.946   1.254   1.150 -1.9797  0.2787  0.2973
  181SOL     OW  541   0.711   0.852   1.793  0.0492  0.0163 -0.2320
  181SOL    HW1  542   0.788   0.856   1.731 -0.5537 -1.0315 -2.1911
  181SOL    HW2  543   0.670   0.758   1.787  1.8134 -2.3260 -0.3020
  182SOL     OW  544   2.909   0.974   2.553 -0.0884  0.0232  0.1458
  182SOL    HW1  545   2.819   0.932   2.542  1.8003  1.1431 -1.7250
  182SOL    HW2  546   2.900   1.071   2.570 -4.0245 -0.5910 -1.4622
  183SOL     OW  547   1.486   0.348   2.092 -0.0707 -0.4154 -0.0996
  183SOL    HW1  548   1.582   0.322   2.117 -1.7229  0.2357  0.2585
  183SOL    HW2  549   1.464   0.446   2.119  0.3565  1.3146 -2.0314
  184SOL     OW  550   0.667   0.481   1.201 -0.3904 -0.6413  0.6329
  184SOL    HW1  551   0.748   0.500   1.140  1.3595 -1.4757 -2.7028
  184SOL    HW2  552   0.693   0.408   1.265  2.2534  2.1049  0.9656
  185SOL     OW  553   2.321   1.109   0.411  0.5259  0.1881  0.6264
  185SOL    HW1  554   2.420   1.139   0.427  2.5768  3.2977  0.2608
  185SOL    HW2  555   2.272   1.182   0.356 -0.0327  1.0228  0.4727
  186SOL     OW  556   0.342   2.102   0.346 -0.2551 -0.1992 -0.0713
  186SOL    HW1  557   0.260   2.039   0.367 -0.1347 -1.0771  2.0439
  186SOL    HW2  558   0.360   2.113   0.244  0.0658 -0.1772 -2.4578
  187SOL     OW  559   1.764   2.025   2.999 -0.1241  0.3239 -0.2202
  187SOL    HW1  560   1.799   1.951   3.063  0.5279 -0.6169  2.6052
  187SOL    HW2  561   1.835   2.071   2.936 -0.4821 -2.2445 -3.2549
  188SOL     OW  562   1.344   2.314   1.407  0.3359 -0.4306 -0.1041
  188SOL    HW1  563   1.435   2.350   1.433  1.4291  0.4757  1.6733
  188SOL    HW2  564   1.357   2.239   1.334  1.0694  0.3706 -1.4178
  189SOL     OW  565   2.526   1.307   2.642 -0.4689 -0.9807  0.2232
  189SOL    HW1  566   2.421   1.320   2.640 -0.8543 -1.2273 -1.2577
  189SOL    HW2  567   2.559   1.306   2.544  0.5324 -0.7061 -0.8423
  190SOL     OW  568   0.930   2.694   2.194  0.1577  0.8522 -0.2664
  190SOL    HW1  569   0.861   2.670   2.121 -2.0842  1.0272 -1.7473
  190SOL    HW2  570   0.906   2.767   2.257  1.8079 -1.9813 -1.5331
  191SOL     OW  571   2.538   1.262   1.213 -0.2886 -0.3847 -0.3185
  191SOL    HW1  572   2.601   1.319   1.271 -0.6165  1.2974 -1.6084
  191SOL    HW2  573   2.450   1.310   1.212  2.8278  0.6586 -0.0178
  192SOL     OW  574   2.174   0.526   0.986 -0.0314 -0.3934  0.1521
  192SOL    HW1  575   2.142   0.502   1.079  1.8403 -1.8373  0.2375
  192SOL    HW2  576   2.170   0.440   0.926  0.3690 -0.2397  1.2355
  193SOL     OW  577   0.870   0.233   0.298  0.0218 -0.0691  0.0017
  193SOL    HW1  578   0.944   0.246   0.225  0.4029 -0.8938 -2.9062
  193SOL    HW2  579   0.790   0.194   0.248  1.7990  1.6175 -1.7091
  194SOL     OW  580   1.569   2.373   1.059  0.5755 -0.0312  0.1104
  194SOL    HW1  581   1.575   2.421   0.970  1.4961 -1.4127 -1.8624
  194SOL    HW2  582   1.604   2.273   1.043  1.7252 -4.5587 -1.0402
  195SOL     OW  583   2.766   1.051   0.587 -0.5740  0.3143  0.0946
  195SOL    HW1  584   2.755   1.048   0.688  0.8294  1.9400 -2.7989
  195SOL    HW2  585   2.727   0.963   0.548 -0.7605 -0.6283  1.3056
  196SOL     OW  586   0.518   2.335   1.823 -0.7064 -0.5257 -0.5177
  196SOL    HW1  587   0.465   2.334   1.735 -1.2327  0.1386 -2.7715
  196SOL    HW2  588   0.465   2.383   1.895 -2.1455 -0.5692 -2.2672
  197SOL     OW  589   2.900   0.501   2.322 -0.2202  0.0459 -0.1623
  197SOL    HW1  590   2.925   0.404   2.315  0.6079  1.1856 -0.6827
  197SOL    HW2  591   2.857   0.522   2.417  1.1769 -0.4911  2.3338
  198SOL     OW  592   2.212   1.312   0.290  0.1940  0.1162  0.2760
  198SOL    HW1  593   2.219   1.332   0.193  0.0230 -0.9133  0.5205
  198SOL    HW2  594   2.123   1.337   0.336  1.3237 -1.9866  0.8163
  199SOL     OW  595   2.472   0.594   1.891  0.1534 -0.0674  0.1222
  199SOL    HW1  596   2.577   0.594   1.891 -0.2605  1.1788 -1.7156
  199SOL    HW2  597   2.421   0.552   1.810  0.0488  1.5288 -2.0554
  200SOL     OW  598   1.922   0.150   2.861 -0.3076 -0.2584  0.2564
  200SOL    HW1  599   1.993   0.217   2.891  1.9591 -2.4685  0.1575
  200SOL    HW2  600   1.824   0.177   2.873 -2.0131  1.6605 -0.0055
  201SOL     OW  601   2.558   0.213   1.118  0.6882 -1.0703 -0.0068
  201SOL    HW1  602   2.463   0.237   1.092 -0.4521  2.3801 -2.5349
  201SOL    HW2  603   2.618   0.291   1.095 -1.9949 -2.4821  2.6953
  202SOL     OW  604   2.978   2.689   0.323  0.2024 -0.3584  0.6434
  202SOL    HW1  605   0.006   2.697   0.336 -4.0092  1.4994 -0.6702
  202SOL    HW2  606   2.916   2.727   0.395 -1.1507  0.8108 -0.8331
  203SOL     OW  607   1.744   1.823   0.589 -0.0638  0.6355 -0.0946
  203SOL    HW1  608   1.668   1.828   0.656  0.3543  0.3655  0.5151
  203SOL    HW2  609   1.779   1.914   0.557  1.9223 -0.1600  0.5000
  204SOL     OW  610   0.339   1.648   2.061 -0.4700  0.0254  0.2257
  204SOL    HW1  611   0.396   1.627   1.979  1.1128 -0.2909  0.3163
  204SOL    HW2  612   0.246   1.598   2.057 -0.9164  0.6800  2.3395
  205SOL     OW  613   0.611   0.647   0.916  0.2740  0.3696 -0.4345
  205SOL    HW1  614   0.613   0.706   0.834 -1.1465 -0.4093  3.1078
  205SOL    HW2  615   0.696   0.590   0.922  1.8824 -0.2511 -1.5151
  206SOL     OW  616   0.346   0.701   2.873  0.5263 -0.2681 -0.0049
  206SOL    HW1  617   0.337   0.675   2.972  1.7590 -0.8955 -1.0675
  206SOL    HW2  618   0.351   0.801   2.861  0.7905 -1.8070 -0.8783
  207SOL     OW  619   1.222   2.398   1.659  0.6915  0.2608 -0.2008
  207SOL    HW1  620   1.236   2.308   1.700  0.9977  1.7846  0.1917
  207SOL    HW2  621   1.267   2.411   1.570  1.3268 -0.6650 -1.0926
  208SOL     OW  622   2.387   0.141   1.558  0.2490 -0.7173  0.4552
  208SOL    HW1  623   2.480   0.150   1.601  2.3549 -2.3677 -0.9968
  208SOL    HW2  624   2.314   0.190   1.607 -0.8917 -2.2561  1.9585
  209SOL     OW  625   1.915   0.670   0.600 -0.5585  0.1805 -0.1021
  209SOL    HW1  626   1.930   0.708   0.694 -0.3820  0.3355 -0.9684
  209SOL    HW2  627   1.838   0.715   0.552 -2.4355 -0.6262 -2.3142
  210SOL     OW  628   2.584   1.195   0.455  0.4487 -0.1180 -0.3991
  210SOL    HW1  629   2.651   1.139   0.507 -1.3451 -0.7997  1.9117
  210SOL    HW2  630   2.591   1.289   0.495 -1.0428  1.2260  0.2438
  211SOL     OW  631   1.084   0.008   3.048  0.6044 -0.6151 -0.4718
  211SOL    HW1  632   1.079   0.105   0.013  0.7933  1.1703 -1.3950
  211SOL    HW2  633   1.163   3.036   0.024 -0.7913 -1.0864 -0.4285
  212SOL     OW  634   1.963   1.999   0.511 -0.2668  0.4214 -0.1786
  212SOL    HW1  635   2.011   2.029   0.596  0.8005  2.1341  1.4202
  212SOL    HW2  636   2.012   1.929   0.457  0.7653  0.4626 -0.3727
  213SOL     OW  637   2.430   2.972   0.078  0.1149  0.3054  0.2888
  213SOL    HW1  638   2.391   2.924   3.072 -0.4971 -1.2515 -0.2873
  213SOL    HW2  639   2.394   3.065   0.078  3.0417 -5.3124 -1.0241
  214SOL     OW  640   1.098   2.315   2.245  0.6884 -0.6737  0.1710
  214SOL    HW1  641   1.149   2.398   2.223  0.2075 -2.8207 -1.1174
  214SOL    HW2  642   1.160   2.241   2.273 -0.5691  3.7845 -4.1284
  215SOL     OW  643   0.367   1.432   1.034 -0.3442  0.2279 -0.1080
  215SOL    HW1  644   0.260   1.429   1.033 -0.4859  1.8294  0.2744
  215SOL    HW2  645   0.404   1.449   0.944  0.4386 -0.5178 -0.2592
  216SOL     OW  646   0.499   2.715   2.582 -0.4052  0.0611  0.9462
  216SOL    HW1  647   0.582   2.658   2.617 -0.8949 -0.2197 -0.1378
  216SOL    HW2  648   0.406   2.672   2.596 -3.9295 -0.0550 -2.3556
  217SOL     OW  649   2.721   1.327   1.395  0.0523 -0.2088 -0.2745
  217SOL    HW1  650   2.739   1.426   1.406  1.1494  0.1906  1.5316
  217SOL    HW2  651   2.745   1.273   1.474 -0.3851 -0.3442 -2.7550
  218SOL     OW  652   0.921   2.241   1.522  0.4879 -0.5820 -0.0375
  218SOL    HW1  653   0.843   2.305   1.510  2.7836  1.1834 -1.2180
  218SOL    HW2  654   0.959   2.233   1.616 -3.5221  0.0921  2.3940
  219SOL     OW  655   2.058   1.641   0.192  0.5594  0.3187  0.5816
  219SOL    HW1  656   2.074   1.714   0.258  1.3578 -1.7057 -2.0943
  219SOL    HW2  657   2.122   1.650   0.111  1.9502  0.3438 -0.8906
  220SOL     OW  658   2.122   0.301   2.963 -0.1662 -0.3653  0.0433
  220SOL    HW1  659   2.131   0.406   2.955  1.2889  5.1416 -1.4067
  220SOL    HW2  660   2.180   0.248   2.900 -1.5543 -2.1092 -2.9829
  221SOL     OW  661   2.979   0.888   0.173  0.6561 -0.2487  0.0931
  221SOL    HW1  662   2.975   0.811   0.237  1.6593 -1.0027 -4.9552
  221SOL    HW2  663   3.067   0.876   0.125 -1.2819 -2.1638  1.3462
  222SOL     OW  664   1.722   1.459   0.717  0.3640 -0.3333  0.3500
  222SOL    HW1  665   1.741   1.376   0.659 -0.5464 -0.9318 -1.3039
  222SOL    HW2  666   1.789   1.537   0.702  2.0293 -0.2747 -1.2889
  223SOL     OW  667   1.085   0.298   2.814 -0.2280  0.5497  0.0214
  223SOL    HW1  668   1.173   0.262   2.850 -2.1224  0.3971 -1.7468
  223SOL    HW2  669   1.002   0.253   2.861  1.0600  0.0812  1.0822
  224SOL     OW  670   0.872   2.833   1.064  0.0469 -0.2591  0.2049
  224SOL    HW1  671   0.861   2.866   1.163  4.4338 -0.4941  0.8696
  224SOL    HW2  672   0.973   2.805   1.050  0.2874 -2.5779 -1.5769
  225SOL     OW  673   0.865   0.002   2.084 -0.5152  0.0212 -0.0546
  225SOL    HW1  674   0.777   3.033   2.062  2.1569  2.5685  1.4165
  225SOL    HW2  675   0.846   0.092   2.131 -1.9008  0.5203  1.5068
  226SOL     OW  676   1.405   1.622   0.597 -0.2229  0.0193  0.0869
  226SOL    HW1  677   1.475   1.672   0.653  1.1675 -2.4350 -1.7586
  226SOL    HW2  678   1.395   1.527   0.625  0.9191  0.8045 -2.9575
  227SOL     OW  679   0.547   1.932   1.294  0.0536  0.1232  0.1084
  227SOL    HW1  680   0.450   1.954   1.308  1.1580  1.6838 -4.1306
  227SOL    HW2  681   0.558   1.863   1.218 -2.6775 -1.1397  0.4990
  228SOL     OW  682   0.070   1.824   0.613  0.3706  0.1216 -0.3850
  228SOL    HW1  683   0.148   1.766   0.580  1.1058  2.1690 -0.3052
  228SOL    HW2  684   0.086   1.922   0.601 -0.2754  1.1643  4.5406
  229SOL     OW  685   2.645   0.118   2.956 -0.6658 -0.2139  0.1608
  229SOL    HW1  686   2.569   0.188   2.941  0.8445 -3.3380 -0.1370
  229SOL    HW2  687   2.636   0.036   2.891  0.2699  0.4896 -1.4458
  230SOL     OW  688   2.608   0.572   0.341  0.0289 -0.0891 -0.2025
  230SOL    HW1  689   2.683   0.574   0.271  0.3448 -0.8969  2.2379
  230SOL    HW2  690   2.550   0.487   0.326 -4.8312  0.8666 -0.0855
  231SOL     OW  691   1.928   1.416   0.117 -0.3064 -0.2541  0.1459
  231SOL    HW1  692   1.875   1.448   0.033 -1.8739  1.1689 -1.5628
  231SOL    HW2  693   1.972   1.490   0.172 -0.5805 -0.6900  0.6341
  232SOL     OW  694   1.882   2.029   0.904  0.5018  0.4618  0.2601
  232SOL    HW1  695   1.886   1.956   0.975 -1.5956 -2.0324 -0.6550
  232SOL    HW2  696   1.963   2.028   0.844 -2.1604 -1.5009 -0.4223
  233SOL     OW  697   0.125   2.687   1.430  0.3216 -0.1964 -0.1265
  233SOL    HW1  698   0.146   2.603   1.484  0.9021  0.6272 -1.5703
  233SOL    HW2  699   0.027   2.707   1.418 -0.1590  1.1441  2.5040
  234SOL     OW  700   0.687   0.199   2.628  0.1422  0.1808  0.1098
  234SOL    HW1  701   0.782   0.229   2.607  0.9959  2.6952 -1.4485
  234SOL    HW2  702   0.629   0.283   2.646 -1.4915 -0.7242  1.1691
  235SOL     OW  703   2.515   1.116   1.880 -0.0439  0.3386 -0.3432
  235SOL    HW1  704   2.450   1.087   1.951  0.4410 -0.8868 -2.1833
  235SOL    HW2  705   2.465   1.150   1.798  1.6592 -0.1227  1.7785
  236SOL     OW  706   1.285   2.774   1.530 -0.0563  0.3161  0.1569
  236SOL    HW1  707   1.267   2.789   1.432  1.4793 -1.0517 -4.3061
  236SOL    HW2  708   1.340   2.690   1.536 -0.8610 -0.7413  0.1563
  237SOL     OW  709   0.715   1.401   2.689  0.0890 -0.2845  0.1207
  237SOL    HW1  710   0.747   1.400   2.588  0.8085 -0.6993 -2.4549
  237SOL    HW2  711   0.729   1.490   2.738  1.8410 -0.7274 -2.0515
  238SOL     OW  712   0.821   0.685   2.339 -0.1656 -0.1426  0.6036
  238SOL    HW1  713   0.918   0.670   2.355 -1.9339  1.5951 -0.9270
  238SOL    HW2  714   0.764   0.601   2.358 -0.0199  0.9328  1.5566
  239SOL     OW  715   0.685   1.731   2.348  0.5679  0.1566  0.5392
  239SOL    HW1  716   0.611   1.787   2.312 -0.1560  0.4588  0.9256
  239SOL    HW2  717   0.768   1.780   2.378 -2.7095 -0.3986  1.8640
  240SOL     OW  718   2.351   2.903   0.341 -0.4604 -0.4950 -1.1713
  240SOL    HW1  719   2.385   2.907   0.247  0.1062  0.5034  1.6547
  240SOL    HW2  720   2.423   2.936   0.404 -0.5726  0.6876  0.0790
  241SOL     OW  721   0.342   1.101   0.218 -0.1036 -0.4691 -0.0354
  241SOL    HW1  722   0.376   1.142   0.306  1.3515  2.1128  1.3922
  241SOL    HW2  723   0.277   1.168   0.174  0.6011  0.4987 -0.0040
  242SOL     OW  724   1.515   2.578   1.485  0.1225 -0.2731 -0.0104
  242SOL    HW1  725   1.602   2.528   1.506  0.7322 -0.4710  1.3048
  242SOL    HW2  726   1.521   2.627   1.396  1.6045 -0.7986  1.6362
  243SOL     OW  727   0.788   2.427   1.862 -0.3201 -0.4514  0.2591
  243SOL    HW1  728   0.826   2.467   1.779 -3.3290 -1.8120 -0.9257
  243SOL    HW2  729   0.690   2.398   1.847 -4.1436 -3.3351 -0.3829
  244SOL     OW  730   2.370   0.658   2.593 -0.0811 -0.3313 -0.0464
  244SOL    HW1  731   2.282   0.624   2.633  0.8277  0.4270 -2.3886
  244SOL    HW2  732   2.394   0.750   2.628 -2.2844  2.6957  1.3927
  245SOL     OW  733   1.536   2.598   1.211  0.0208 -0.4461 -0.2212
  245SOL    HW1  734   1.552   2.509   1.168  0.6977 -1.1724  1.9058
  245SOL    HW2  735   1.612   2.665   1.197 -0.9377 -0.9213  1.0033
  246SOL     OW  736   1.311   0.110   0.306  0.2802  0.0266 -0.0771
  246SOL    HW1  737   1.293   0.036   0.231 -1.5590 -1.0774  0.8260
  246SOL    HW2  738   1.268   0.076   0.389  1.2186  0.4306  1.0588
  247SOL     OW  739   1.666   0.608   1.756 -0.2613  0.2322  0.6039
  247SOL    HW1  740   1.604   0.580   1.679  2.2332  0.3904  1.8892
  247SOL    HW2  741   1.738   0.539   1.762 -1.7515  0.5932 -1.7811
  248SOL     OW  742   0.106   2.058   1.881  0.5389 -0.1798 -0.3072
  248SOL    HW1  743   0.193   2.017   1.842  1.9025 -1.9420  0.3105
  248SOL    HW2  744   0.018   2.016   1.837 -2.4342 -1.8275 -2.2685
  249SOL     OW  745   0.247   0.341   0.232  0.4257 -0.9598 -0.0438
  249SOL    HW1  746   0.195   0.425   0.245 -0.1217 -1.8882 -0.5652
  249SOL    HW2  747   0.223   0.277   0.309 -0.0269 -0.7174  1.4645
  250SOL     OW  748   2.571   0.029   2.293  0.1098 -0.8333  0.9353
  250SOL    HW1  749   2.526   0.015   2.380  1.8325 -0.4263 -1.0177
  250SOL    HW2  750   2.515   0.089   2.233  0.1157  0.5804 -3.1151
  251SOL     OW  751   1.434   0.496   0.031 -0.3486 -0.5273 -0.5176
  251SOL    HW1  752   1.338   0.483   0.046  2.5805  0.6859 -0.3965
  251SOL    HW2  753   1.452   0.594   0.032  1.7186 -1.0380 -1.4920
  252SOL     OW  754   1.202   2.583   2.225  0.2150 -0.2077  0.1730
  252SOL    HW1  755   1.103   2.606   2.209 -3.8088 -0.1140 -0.0095
  252SOL    HW2  756   1.270   2.630   2.156  0.1228  0.3301 -1.5624
  253SOL     OW  757   2.611   2.562   0.623  0.3508  0.2283  0.4890
  253SOL    HW1  758   2.517   2.555   0.664  0.6677  0.4913 -3.7724
  253SOL    HW2  759   2.595   2.562   0.520  0.3624  0.8066 -0.0748
  254SOL     OW  760   2.247   1.152   1.088  0.1304 -0.1073 -0.0103
  254SOL    HW1  761   2.259   1.233   1.142 -0.0136 -0.0418 -0.0931
  254SOL    HW2  762   2.295   1.161   1.000  0.7532  0.1254 -2.0586
  255SOL     OW  763   0.566   2.662   1.266 -0.1023 -0.1018 -0.2535
  255SOL    HW1  764   0.649   2.718   1.262 -2.3709  0.9101  1.8049
  255SOL    HW2  765   0.547   2.603   1.186 -1.6001  0.6747 -0.3765
  256SOL     OW  766   1.855   1.658   1.548  0.2793 -0.4901 -0.1426
  256SOL    HW1  767   1.860   1.594   1.634 -0.1509 -0.7149  2.6919
  256SOL    HW2  768   1.941   1.662   1.501 -3.9472 -0.9610  0.1804
  257SOL     OW  769   0.418   2.210   2.474 -0.6658 -0.2325  0.4011
  257SOL    HW1  770   0.497   2.277   2.480  2.1138  0.0933  0.3099
  257SOL    HW2  771   0.434   2.132   2.532 -4.5347 -2.4395 -2.6942
  258SOL     OW  772   0.704   2.678   0.927 -0.1460  0.1361  0.0335
  258SOL    HW1  773   0.748   2.748   0.988 -0.1876  0.9186 -0.3743
  258SOL    HW2  774   0.619   2.647   0.972  1.6564 -1.3309  0.5688
  259SOL     OW  775   1.405   0.593   2.630  0.1128  0.5167  0.0453
  259SOL    HW1  776   1.459   0.674   2.657 -1.5374 -0.3407 -1.4019
  259SOL    HW2  777   1.308   0.605   2.647  2.2798  0.1374 -0.5657
  260SOL     OW  778   0.255   0.347   1.010 -0.3445 -0.3253  0.0686
  260SOL    HW1  779   0.323   0.383   0.945  1.7565  0.3487  1.4195
  260SOL    HW2  780   0.186   0.282   0.966  0.6706 -3.2429 -0.4509
  261SOL     OW  781   0.690   0.109   2.324  0.1700  0.1514 -0.3010
  261SOL    HW1  782   0.648   0.022   2.304 -0.9334  1.0922 -0.4393
  261SOL    HW2  783   0.788   0.099   2.354 -0.0387  2.3604  0.9204
  262SOL     OW  784   0.981   2.552   1.698  0.4748  0.0107 -0.2353
  262SOL    HW1  785   0.960   2.580   1.603  0.4111  1.7690  3.2068
  262SOL    HW2  786   1.067   2.499   1.701 -2.4219  0.8923  1.6013
  263SOL     OW  787   0.798   1.978   2.968  0.0836  0.3182 -0.1600
  263SOL    HW1  788   0.793   2.002   2.871  2.4450  1.8249 -1.6061
  263SOL    HW2  789   0.862   2.042   3.015 -0.9623  0.0928  0.8366
  264SOL     OW  790   1.617   1.511   1.080  0.0997  0.3635 -0.2789
  264SOL    HW1  791   1.633   1.585   1.010  3.5385  2.4770 -2.7805
  264SOL    HW2  792   1.605   1.422   1.034 -1.2239  0.3902 -0.6643
  265SOL     OW  793   0.961   2.295   0.301  0.1531  0.0554 -0.0532
  265SOL    HW1  794   1.043   2.275   0.357  1.3738  0.7767 -1.2781
  265SOL    HW2  795   0.966   2.398   0.282  1.5676 -0.6910  1.6232
  266SOL     OW  796   2.858   0.800   0.929  0.7849 -0.1053  0.9559
  266SOL    HW1  797   2.788   0.773   0.857  1.9687 -2.0864 -2.6532
  266SOL    HW2  798   2.911   0.715   0.949  1.3424 -1.7371 -2.4041
  267SOL     OW  799   0.165   1.484   0.240 -1.1295 -0.0117 -0.3574
  267SOL    HW1  800   0.165   1.480   0.345  0.8278  0.2344  1.1128
  267SOL    HW2  801   0.260   1.494   0.201 -1.1926  0.3370 -4.0777
  268SOL     OW  802   1.394   0.372   0.315  0.3731  0.5262 -0.2843
  268SOL    HW1  803   1.463   0.432   0.278 -0.9862 -0.8239  0.4942
  268SOL    HW2  804   1.400   0.271   0.294 -1.6144  1.4407  0.6140
  269SOL     OW  805   2.864   0.707   2.132  0.6654  0.0746  0.1925
  269SOL    HW1  806   2.855   0.691   2.032  0.6870  1.9960 -1.7348
  269SOL    HW2  807   2.863   0.622   2.189  1.0363 -1.6695 -0.6649
  270SOL     OW  808   2.975   1.184   0.461  0.5153 -0.2671  0.1326
  270SOL    HW1  809   2.901   1.147   0.514  3.6794  1.1256 -0.8820
  270SOL    HW2  810   2.950   1.206   0.365 -0.2783  2.0726 -2.1673
  271SOL     OW  811   2.858   1.500   2.117 -0.3169 -0.6435  0.1880
  271SOL    HW1  812   2.826   1.579   2.173  1.2903 -0.4997  2.2413
  271SOL    HW2  813   2.911   1.541   2.039  2.0351  0.1853 -1.9597
  272SOL     OW  814   2.340   2.398   1.907 -0.4532  0.0678  0.1164
  272SOL    HW1  815   2.380   2.335   1.975  0.8191  0.0058 -2.3321
  272SOL    HW2  816   2.308   2.483   1.948  2.6858 -0.4566  1.2204
  273SOL     OW  817   0.346   2.480   0.194 -0.2621  0.3403 -0.3317
  273SOL    HW1  818   0.446   2.465   0.196  0.5086  0.1334 -0.0147
  273SOL    HW2  819   0.291   2.405   0.234  0.7698 -0.4304  0.2293
  274SOL     OW  820   0.754   2.413   0.681 -0.2077  0.0417 -0.4115
  274SOL    HW1  821   0.707   2.499   0.675  0.5438  0.8557 -0.4657
  274SOL    HW2  822   0.832   2.420   0.743  1.1397  2.9238  0.8651
  275SOL     OW  823   1.605   1.972   2.790 -0.0456  0.5329 -0.3607
  275SOL    HW1  824   1.664   1.982   2.878 -0.6204 -1.1474  0.7926
  275SOL    HW2  825   1.666   1.956   2.712 -1.4505 -0.5621  0.5215
  276SOL     OW  826   2.435   1.453   2.169 -0.5768 -0.0955  0.5159
  276SOL    HW1  827   2.459   1.409   2.081  1.6344 -0.2807 -0.9599
  276SOL    HW2  828   2.469   1.553   2.166 -0.0685 -0.1021  0.9981
  277SOL     OW  829   2.165   0.065   0.782  0.1002  0.0565  0.1948
  277SOL    HW1  830   2.102   0.115   0.720  0.7787 -1.0225  2.0964
  277SOL    HW2  831   2.110   3.066   0.836 -0.8203  2.4535 -1.3357
  278SOL     OW  832   1.528   0.556   2.389  0.0086 -0.4587  0.1797
  278SOL    HW1  833   1.480   0.586   2.310 -2.2089 -1.6531  0.9395
  278SOL    HW2  834   1.478   0.578   2.478 -2.6703  0.3476  3.0709
  279SOL     OW  835   1.110   2.779   0.952  0.6497  0.1434  0.1795
  279SOL    HW1  836   1.165   2.713   0.997 -3.2771 -0.6298 -1.3566
  279SOL    HW2  837   1.085   2.761   0.856 -2.1392  1.2441 -0.9243
  280SOL     OW  838   1.178   1.219   0.717 -0.1177 -0.1504 -0.1737
  280SOL    HW1  839   1.200   1.139   0.661 -0.1691 -0.1651  2.1077
  280SOL    HW2  840   1.095   1.211   0.776 -0.0849  0.2257 -1.6294
  281SOL     OW  841   2.153   1.814   0.388  0.2768  0.0197  0.0211
  281SOL    HW1  842   2.198   1.727   0.410 -0.4130  1.5818 -0.1054
  281SOL    HW2  843   2.222   1.889   0.406  1.2156 -0.1389 -0.0119
  282SOL     OW  844   2.903   1.428   0.593  0.0254 -0.1174 -0.0472
  282SOL    HW1  845   2.943   1.338   0.583 -0.0619  3.1875  2.3391
  282SOL    HW2  846   2.910   1.477   0.512  0.7252 -1.4174  0.9204
  283SOL     OW  847   1.673   2.945   2.554 -0.1735  0.7864 -0.1970
  283SOL    HW1  848   1.727   2.898   2.480  0.8598  0.4241 -2.4233
  283SOL    HW2  849   1.706   3.038   2.560 -2.8677 -2.0675 -0.9448
  284SOL     OW  850   0.424   0.112   2.574 -0.3066 -0.1043 -0.5597
  284SOL    HW1  851   0.524   0.142   2.580  2.7472  0.4819  0.7732
  284SOL    HW2  852   0.379   0.122   2.666 -2.4050 -1.6641  0.9283
  285SOL     OW  853   1.803   1.520   2.973  0.0010  0.1329  0.4008
  285SOL    HW1  854   1.698   1.531   2.991 -2.5452  2.2798  3.7038
  285SOL    HW2  855   1.838   1.569   2.890  1.6908 -2.1891 -0.9058
  286SOL     OW  856   1.685   2.191   1.465 -0.0106 -0.2662  0.3165
  286SOL    HW1  857   1.627   2.126   1.411 -1.0478  0.2725  0.0970
  286SOL    HW2  858   1.706   2.161   1.560  0.8398  0.0298 -3.1968
  287SOL     OW  859   1.616   0.114   1.626  0.5474  0.5403  0.5899
  287SOL    HW1  860   1.644   0.115   1.723  1.2690  1.4122 -0.0735
  287SOL    HW2  861   1.530   0.158   1.606  0.6495  0.5587 -0.6917
  288SOL     OW  862   0.460   2.620   2.124  0.3938  0.2373  0.0252
  288SOL    HW1  863   0.411   2.539   2.083 -0.4676 -0.4373  1.0867
  288SOL    HW2  864   0.411   2.654   2.210 -0.5201  1.5725 -0.0338
  289SOL     OW  865   0.354   1.808   0.822 -0.2083 -0.7990  0.4312
  289SOL    HW1  866   0.301   1.811   0.905 -1.8323 -0.2341 -3.4213
  289SOL    HW2  867   0.356   1.899   0.773  0.6868  0.3306 -1.6769
  290SOL     OW  868   0.958   2.072   1.851 -0.2857  0.1856 -0.0080
  290SOL    HW1  869   0.894   1.997   1.832 -2.0899  0.1102  1.0790
  290SOL    HW2  870   0.921   2.127   1.930  0.7110 -1.1461  3.4454
  291SOL     OW  871   1.617   0.157   0.285  0.1736 -0.3936  0.3390
  291SOL    HW1  872   1.540   0.097   0.285  0.7995 -2.1307 -2.1879
  291SOL    HW2  873   1.660   0.151   0.193  0.4077  1.1957  1.9234
  292SOL     OW  874   0.407   0.310   1.454  0.3236  0.3066  0.5901
  292SOL    HW1  875   0.385   0.366   1.370 -1.1759 -0.2945  3.3279
  292SOL    HW2  876   0.485   0.349   1.506 -0.5241  1.5839 -2.3208
  293SOL     OW  877   2.430   1.572   1.078  0.2267 -0.1118 -0.5176
  293SOL    HW1  878   2.519   1.616   1.105 -2.2256 -0.6655  2.3316
  293SOL    HW2  879   2.440   1.524   0.985  1.6866 -2.8301 -2.1630
  294SOL     OW  880   0.216   0.082   2.391 -0.4330  0.2133  0.0399
  294SOL    HW1  881   0.211   3.068   2.333  1.0294 -0.6231  0.1864
  294SOL    HW2  882   0.297   0.081   2.452 -1.2187  0.6072 -0.2168
  295SOL     OW  883   0.825   1.349   0.614 -0.0287  0.3724 -0.6117
  295SOL    HW1  884   0.914   1.401   0.626 -0.3185  2.8473  4.0295
  295SOL    HW2  885   0.816   1.302   0.524 -0.1807 -1.8232 -1.5744
  296SOL     OW  886   2.373   1.173   0.841  0.1292  0.3412  0.1913
  296SOL    HW1  887   2.302   1.168   0.768  2.0565 -0.1269  0.0373
  296SOL    HW2  888   2.417   1.267   0.836  0.4454 -2.1018  0.5039
  297SOL     OW  889   1.728   0.527   2.609 -0.7227  0.9215  0.2651
  297SOL    HW1  890   1.733   0.620   2.570  1.9837  0.7435  3.1067
  297SOL    HW2  891   1.646   0.486   2.567 -3.6510  0.5177  2.7538
  298SOL     OW  892   0.957   0.239   2.553  0.2084 -0.4309  0.1253
  298SOL    HW1  893   1.009   0.260   2.639  0.6618  1.4918 -1.0918
  298SOL    HW2  894   0.995   0.286   2.469 -1.3179 -0.5616  2.5820
  299SOL     OW  895   0.839   0.548   1.909  0.4683  0.0470  0.8157
  299SOL    HW1  896   0.805   0.562   1.814 -1.6424  0.6820  0.3710
  299SOL    HW2  897   0.933   0.579   1.916 -0.6644 -1.8596  0.8916
  300SOL     OW  898   2.670   0.094   1.623 -0.8241 -0.1842 -0.0923
  300SOL    HW1  899   2.674   0.134   1.529 -0.7985 -3.3248  2.2365
  300SOL    HW2  900   2.739   0.146   1.680 -2.5047 -0.7733  0.7408
  301SOL     OW  901   1.786   0.825   1.619  0.4111  0.0036 -0.3388
  301SOL    HW1  902   1.720   0.892   1.583  0.3241  1.1419 -1.1415
  301SOL    HW2  903   1.749   0.775   1.700  2.5934 -1.0490  1.4364
  302SOL     OW  904   0.769   2.800   2.806 -0.2438 -0.3660  0.0237
  302SOL    HW1  905   0.863   2.824   2.788  0.2825  3.4224  2.3083
  302SOL    HW2  906   0.723   2.889   2.815  1.0294  2.4537 -1.7828
  303SOL     OW  907   1.805   1.865   1.741 -0.7126  0.1672 -0.3386
  303SOL    HW1  908   1.790   1.968   1.727 -1.3691 -0.0116 -0.3005
  303SOL    HW2  909   1.853   1.817   1.665  0.0522  0.8349  0.2182
  304SOL     OW  910   0.433   0.003   0.571  0.4943 -0.0172 -0.0245
  304SOL    HW1  911   0.441   0.106   0.572  0.7759  3.6147 -0.3474
  304SOL    HW2  912   0.522   3.027   0.593  1.8640 -1.9637  1.5903
  305SOL     OW  913   1.231   0.699   0.267 -0.0359  0.0506 -0.1355
  305SOL    HW1  914   1.295   0.761   0.223  0.9369  0.1603 -0.0298
  305SOL    HW2  915   1.225   0.719   0.363 -0.8118 -0.0795 -0.3875
  306SOL     OW  916   0.625   1.270   0.100  0.5382  0.2697  0.2612
  306SOL    HW1  917   0.715   1.316   0.096 -0.6040  0.3223  2.2096
  306SOL    HW2  918   0.566   1.316   0.171  1.2667  3.1909  5.5870
  307SOL     OW  919   0.528   0.649   1.885  0.5960  0.0841 -0.2588
  307SOL    HW1  920   0.571   0.675   1.973 -0.0395 -0.0029 -0.2204
  307SOL    HW2  921   0.548   0.555   1.860  1.8365 -0.8272 -1.5629
  308SOL     OW  922   0.628   0.037   1.185 -0.1587  0.1856 -0.1884
  308SOL    HW1  923   0.610   0.049   1.086  1.4063 -1.5083 -1.6028
  308SOL    HW2  924   0.547   3.070   1.228  5.5037 -0.4007 -0.5847
  309SOL     OW  925   2.299   0.926   0.057  0.3384  0.4953  0.1860
  309SOL    HW1  926   2.386   0.879   0.031  0.0325  0.3472 -0.4806
  309SOL    HW2  927   2.299   1.017   0.013  0.3685 -0.8579  1.8550
  310SOL     OW  928   1.278   1.409   0.029 -0.5013  0.1603 -0.4566
  310SOL    HW1  929   1.245   1.453   3.017  2.3404  1.4769 -0.7433
  310SOL    HW2  930   1.257   1.465   0.107  1.6479 -2.3051 -4.2021
  311SOL     OW  931   1.883   2.475   2.383 -0.1548 -0.4087 -0.0351
  311SOL    HW1  932   1.880   2.501   2.286  0.1869  3.0625  2.1381
  311SOL    HW2  933   1.788   2.479   2.427 -0.6177 -1.5892 -0.0264
  312SOL     OW  934   2.299   2.852   2.951  0.0291 -0.7089 -0.2187
  312SOL    HW1  935   2.288   2.910   2.867 -2.4853  1.1721 -0.4998
  312SOL    HW2  936   2.212   2.850   2.997 -0.4245  1.6179  0.3293
  313SOL     OW  937   0.543   0.738   0.310  0.3701  0.1684 -0.0548
  313SOL    HW1  938   0.475   0.723   0.388 -0.1473 -0.1067  0.6755
  313SOL    HW2  939   0.635   0.740   0.349 -1.7108 -1.7123 -1.4459
  314SOL     OW  940   2.613   1.470   3.052 -0.5499  0.0625 -0.5084
  314SOL    HW1  941   2.652   1.466   2.953  1.5820 -2.7746 -4.1325
  314SOL    HW2  942   2.682   1.520   0.039  1.8934  1.4732  1.5231
  315SOL     OW  943   1.574   0.730   2.002  0.4661  0.3298 -0.0944
  315SOL    HW1  944   1.618   0.690   1.917  1.2236  2.2608 -3.3865
  315SOL    HW2  945   1.630   0.808   2.039  1.8512 -0.6383  0.5192
  316SOL     OW  946   0.049   0.837   0.698 -0.3380 -0.0983 -0.0065
  316SOL    HW1  947   0.143   0.871   0.675 -0.6386 -1.0690 -0.3077
  316SOL    HW2  948   3.064   0.913   0.727 -1.4425  0.1332  3.3119
  317SOL     OW  949   0.692   0.138   0.124 -0.4073  0.1859 -0.0583
  317SOL    HW1  950   0.681   0.234   0.088  0.5645  4.3696  0.0966
  317SOL    HW2  951   0.605   0.087   0.125 -1.4046  0.2487  2.0957
  318SOL     OW  952   2.333   2.618   1.167  0.5936 -0.1948 -0.3501
  318SOL    HW1  953   2.431   2.603   1.178 -1.4228 -1.0991 -0.0424
  318SOL    HW2  954   2.282   2.591   1.254 -1.3990 -0.0138  2.1568
  319SOL     OW  955   1.060   1.514   0.623  0.0955 -0.1219  0.0437
  319SOL    HW1  956   1.139   1.468   0.664  0.8961 -0.1411 -1.8983
  319SOL    HW2  957   1.100   1.576   0.552  1.8242  1.2174 -4.4876
  320SOL     OW  958   0.630   2.263   1.118  0.4306 -0.3416 -0.4670
  320SOL    HW1  959   0.560   2.216   1.068  1.0004 -0.0920 -0.5049
  320SOL    HW2  960   0.711   2.203   1.133  0.6054 -0.9957 -0.0509
  321SOL     OW  961   2.268   2.447   2.220  0.7564  0.5711 -0.2618
  321SOL    HW1  962   2.251   2.344   2.234  3.8549 -0.8388  1.8516
  321SOL    HW2  963   2.230   2.475   2.130  1.2243 -0.7575 -0.2128
  322SOL     OW  964   2.833   2.168   2.627 -0.4182 -0.8944 -0.5682
  322SOL    HW1  965   2.904   2.222   2.573 -0.3970  0.5864 -2.1898
  322SOL    HW2  966   2.749   2.229   2.630 -2.1882  1.7069  0.1348
  323SOL     OW  967   2.702   0.724   0.715  0.3689  0.0797  0.1018
  323SOL    HW1  968   2.664   0.765   0.633  2.4431  1.8866  0.7054
  323SOL    HW2  969   2.646   0.646   0.745 -0.6109 -0.6406 -0.1770
  324SOL     OW  970   2.338   2.052   2.479  0.2059  0.3247 -0.0997
  324SOL    HW1  971   2.416   1.991   2.480 -2.5736  1.8808  1.5828
  324SOL    HW2  972   2.278   2.041   2.559  0.0005 -2.1515  0.1195
  325SOL     OW  973   1.106   0.601   2.405 -0.2440 -0.0021  0.4672
  325SOL    HW1  974   1.144   0.679   2.349  1.9268  0.2627 -0.1912
  325SOL    HW2  975   1.120   0.608   2.504  2.5199  1.7784 -1.1169
  326SOL     OW  976   2.859   2.374   0.582  0.0794 -0.7306  0.3235
  326SOL    HW1  977   2.799   2.449   0.553  0.8752 -2.0168  1.3062
  326SOL    HW2  978   2.956   2.398   0.552  0.3270 -0.9430  1.7615
  327SOL     OW  979   2.668   2.969   2.797 -0.2905  0.4391 -0.0279
  327SOL    HW1  980   2.620   2.876   2.802 -3.2518 -2.9275  0.3663
  327SOL    HW2  981   2.760   2.960   2.835  1.0806  2.8619  0.8917
  328SOL     OW  982   1.046   0.413   0.440  0.2204 -0.1911  0.1942
  328SOL    HW1  983   0.963   0.394   0.381  0.5644  0.6204 -0.4146
  328SOL    HW2  984   1.107   0.484   0.396  1.4015  0.4255 -0.0739
  329SOL     OW  985   2.136   0.721   1.351 -0.6262 -0.5940  0.4288
  329SOL    HW1  986   2.185   0.786   1.287  1.9391  0.0860 -2.4684
  329SOL    HW2  987   2.177   0.701   1.442  2.0599 -1.9434 -1.0389
  330SOL     OW  988   1.063   0.387   0.751  0.1558 -0.7945  0.2179
  330SOL    HW1  989   1.065   0.419   0.650 -1.0595  1.9499 -2.6097
  330SOL    HW2  990   1.130   0.451   0.799  1.9586 -0.3331  0.6720
  331SOL     OW  991   0.631   2.083   1.785 -0.8473  0.1258  0.0790
  331SOL    HW1  992   0.623   2.035   1.873  1.0268 -1.0817 -0.0983
  331SOL    HW2  993   0.598   2.179   1.800 -2.9913  1.7674  1.0264
  332SOL     OW  994   2.242   2.266   1.691  0.1462  0.1242  0.3016
  332SOL    HW1  995   2.297   2.330   1.751 -1.8388  0.2298 -2.2396
  332SOL    HW2  996   2.249   2.168   1.719  0.8404 -0.3770 -0.7721
  333SOL     OW  997   2.911   3.035   0.897 -0.1228  0.2285  0.5256
  333SOL    HW1  998   2.853   3.041   0.981  1.8558  0.6277 -0.0429
  333SOL    HW2  999   2.854   3.021   0.814 -0.0040  2.3376 -2.7647
  334SOL     OW 1000   0.017   1.701   0.863  0.4106 -0.2074  0.3493
  334SOL    HW1 1001   0.084   1.751   0.915  1.4023 -0.0093 -2.8725
  334SOL    HW2 1002   0.029   1.728   0.764 -0.9194 -1.3198 -0.8002
  335SOL     OW 1003   0.671   2.544   2.700 -0.3389  0.7176  0.0260
  335SOL    HW1 1004   0.664   2.466   2.766  2.1039  0.7588  1.7532
  335SOL    HW2 1005   0.710   2.626   2.749 -0.2869  1.3296  1.6267
  336SOL     OW 1006   0.033   2.479   1.778 -0.1908 -0.0220  0.1235
  336SOL    HW1 1007   0.093   2.470   1.692  1.3988  0.4760 -0.4390
  336SOL    HW2 1008   0.072   2.552   1.837  0.1397 -0.0953 -0.1666
  337SOL     OW 1009   0.933   1.946   2.329  0.1346 -1.4520  0.1161
  337SOL    HW1 1010   0.943   1.905   2.233  2.7882 -1.8530 -0.2450
  337SOL    HW2 1011   1.019   1.996   2.350 -0.4473  1.1132 -1.1453
  338SOL     OW 1012   0.962   0.020   2.386 -0.3679 -0.0404 -0.3524
  338SOL    HW1 1013   1.048   0.019   2.331  1.3128  1.3848  1.3588
  338SOL    HW2 1014   0.968   0.088   2.460 -0.7812 -0.9832  0.1765
  339SOL     OW 1015   0.174   1.359   2.951 -0.5724 -0.4975  0.1978
  339SOL    HW1 1016   0.176   1.408   2.860 -0.4193  2.1704 -0.5050
  339SOL    HW2 1017   0.270   1.333   2.976 -0.2997  1.6536 -1.5285
  340SOL     OW 1018   2.113   0.475   1.239  0.2068  0.0661 -0.2958
  340SOL    HW1 1019   2.120   0.566   1.287  1.5686 -0.4527 -0.5833
  340SOL    HW2 1020   2.192   0.418   1.274 -1.5115 -0.6317 -0.1112
  341SOL     OW 1021   1.841   1.069   0.835 -0.2051 -0.2065 -0.1360
  341SOL    HW1 1022   1.840   1.103   0.737  0.3446  1.2732 -2.5219
  341SOL    HW2 1023   1.936   1.036   0.860 -0.0449  0.8933 -1.3019
  342SOL     OW 1024   2.142   2.572   2.824 -0.7921  0.5522 -0.1674
  342SOL    HW1 1025   2.158   2.584   2.926  2.2477  0.5126 -1.4600
  342SOL    HW2 1026   2.121   2.659   2.779  1.1905  1.2264 -0.8479
  343SOL     OW 1027   3.020   2.716   1.023  0.0045  0.1001 -0.1550
  343SOL    HW1 1028   2.973   2.738   1.109  1.3313  0.4317 -0.7037
  343SOL    HW2 1029   2.997   2.625   0.986  2.2458 -1.8792 -0.4547
  344SOL     OW 1030   2.285   2.794   0.721 -0.4750  0.0557  0.2599
  344SOL    HW1 1031   2.330   2.884   0.737  0.1555 -0.4090  2.3990
  344SOL    HW2 1032   2.244   2.754   0.803 -0.2867  0.8864 -2.6792
  345SOL     OW 1033   2.422   2.275   0.248  0.3163  0.0811  0.4785
  345SOL    HW1 1034   2.420   2.260   0.148  0.7597 -0.9824  1.1339
  345SOL    HW2 1035   2.491   2.346   0.280 -0.0262  3.2835  0.2412
  346SOL     OW 1036   1.210   2.146   1.802 -0.1198 -0.1391  0.3913
  346SOL    HW1 1037   1.108   2.121   1.806 -3.3488  0.4340  0.3899
  346SOL    HW2 1038   1.258   2.071   1.755 -2.6282 -0.8843  0.3628
  347SOL     OW 1039   1.252   1.998   2.079  0.9505  0.1542 -0.1795
  347SOL    HW1 1040   1.316   1.936   2.039 -2.4239 -0.0206 -1.7852
  347SOL    HW2 1041   1.265   2.092   2.037 -2.6081 -1.7971  1.8987
  348SOL     OW 1042   0.793   1.763   1.363 -0.0553 -0.0766 -0.1754
  348SOL    HW1 1043   0.717   1.784   1.299  1.6566  0.1796 -0.6854
  348SOL    HW2 1044   0.794   1.833   1.436 -2.9784 -2.2096  1.3287
  349SOL     OW 1045   1.830   1.363   1.437 -0.0719  0.4528  0.2931
  349SOL    HW1 1046   1.783   1.338   1.525 -0.6254  2.6606 -0.9847
  349SOL    HW2 1047   1.771   1.437   1.397 -0.1591  1.5474 -0.8965
  350SOL     OW 1048   2.498   2.333   0.830  0.1327  0.2738  0.5543
  350SOL    HW1 1049   2.480   2.368   0.923 -2.8378 -1.5418  0.3769
  350SOL    HW2 1050   2.459   2.392   0.758 -0.0376 -1.5563 -1.5793
  351SOL     OW 1051   0.309   3.003   1.807 -0.3213 -0.9903 -0.1089
  351SOL    HW1 1052   0.283   2.951   1.721 -1.1585  2.7397 -0.9456
  351SOL    HW2 1053   0.332   2.944   1.886 -0.7823 -0.7041  0.5180
  352SOL     OW 1054   0.772   1.008   0.243 -0.4746  0.7467 -0.0774
  352SOL    HW1 1055   0.787   0.921   0.296 -0.5787  0.2600  0.5838
  352SOL    HW2 1056   0.695   0.999   0.174 -2.4784 -1.8951 -2.6609
  353SOL     OW 1057   0.924   1.413   2.890 -0.3337  0.0853 -0.1934
  353SOL    HW1 1058   0.962   1.503   2.906 -1.0310  0.1872  0.9037
  353SOL    HW2 1059   0.879   1.405   2.797  1.8950  1.2140 -0.8591
  354SOL     OW 1060   1.933   2.572   1.653 -0.1934 -0.2103  0.5463
  354SOL    HW1 1061   1.872   2.535   1.580 -1.1398  0.3332 -1.0134
  354SOL    HW2 1062   1.963   2.500   1.717 -1.2862  0.6475 -2.3038
  355SOL     OW 1063   2.153   0.826   2.883 -0.2392 -0.0991 -0.0152
  355SOL    HW1 1064   2.061   0.852   2.850 -0.8665  0.2458 -0.5890
  355SOL    HW2 1065   2.184   0.872   2.970  0.6990 -0.7231  1.2723
  356SOL     OW 1066   0.611   2.215   1.374  0.1829  0.2721 -0.1754
  356SOL    HW1 1067   0.604   2.245   1.278  1.0726  0.8080 -0.7187
  356SOL    HW2 1068   0.595   2.117   1.374  0.2903  4.9612 -1.4797
  357SOL     OW 1069   3.035   2.878   1.794  0.1190  0.8148 -0.7794
  357SOL    HW1 1070   2.947   2.861   1.742  1.0243 -0.7928  2.5484
  357SOL    HW2 1071   0.007   2.964   1.758 -0.7091 -0.7876  1.1421
  358SOL     OW 1072   2.325   1.908   1.476 -0.3836  0.1468  0.7902
  358SOL    HW1 1073   2.352   1.999   1.431  0.1378  0.0334 -0.7780
  358SOL    HW2 1074   2.236   1.875   1.438  4.2603 -0.9457  2.2511
  359SOL     OW 1075   2.074   2.280   2.462 -0.2005 -0.1994 -0.4586
  359SOL    HW1 1076   2.022   2.343   2.403  0.8450 -0.8897 -0.0419
  359SOL    HW2 1077   2.038   2.287   2.557  1.2841 -0.2933 -1.7791
  360SOL     OW 1078   1.351   2.676   0.706 -0.1396  0.5636  0.2435
  360SOL    HW1 1079   1.250   2.670   0.710 -0.9492 -1.4070 -0.7316
  360SOL    HW2 1080   1.391   2.765   0.673  1.3113 -0.8858  2.1631
  361SOL     OW 1081   1.851   0.026   0.472  0.0962 -0.0466 -0.1688
  361SOL    HW1 1082   1.852   0.009   0.367 -0.7540 -2.5257 -0.5919
  361SOL    HW2 1083   1.755   0.038   0.502 -1.0344  0.5000  0.7426
  362SOL     OW 1084   1.611   0.982   1.489 -0.2505 -0.3146 -0.0234
  362SOL    HW1 1085   1.625   0.996   1.390 -0.4060  0.6496  0.0748
  362SOL    HW2 1086   1.581   1.072   1.529 -2.2727 -1.0514  0.5937
  363SOL     OW 1087   1.795   1.561   2.033 -0.5820 -0.7269  0.5213
  363SOL    HW1 1088   1.729   1.509   2.090  1.2228  2.6374 -0.0670
  363SOL    HW2 1089   1.885   1.534   2.063 -3.4434  0.7928 -1.3273
  364SOL     OW 1090   0.700   0.715   1.401  0.2777 -0.3296 -0.2399
  364SOL    HW1 1091   0.671   0.661   1.321 -1.1170  2.6874  0.9898
  364SOL    HW2 1092   0.721   0.814   1.373  0.9917 -0.4457  0.6791
  365SOL     OW 1093   0.360   0.562   2.476  0.9225 -0.2067 -0.2076
  365SOL    HW1 1094   0.271   0.566   2.529 -2.8738  1.2175  2.3529
  365SOL    HW2 1095   0.329   0.543   2.380  0.0191  2.7875  0.0060
  366SOL     OW 1096   2.160   1.471   2.938  0.0377 -0.1045 -0.8715
  366SOL    HW1 1097   2.069   1.470   2.984 -1.0065  0.3860  0.0995
  366SOL    HW2 1098   2.230   1.513   2.999 -0.7829 -1.8450  1.8889
  367SOL     OW 1099   2.943   2.569   2.813  0.0568 -0.3835 -0.3179
  367SOL    HW1 1100   2.847   2.530   2.823 -2.6341  0.4417 -2.2082
  367SOL    HW2 1101   2.942   2.626   2.732  1.5446 -0.4725 -0.6740
  368SOL     OW 1102   2.989   1.200   1.104  0.5433 -0.5017  0.5498
  368SOL    HW1 1103   2.963   1.128   1.166 -1.2129  2.3938 -1.2864
  368SOL    HW2 1104   2.923   1.276   1.106 -0.4149 -0.8759 -0.8084
  369SOL     OW 1105   0.592   2.881   2.192 -0.0104  0.0360 -0.0742
  369SOL    HW1 1106   0.672   2.821   2.203  0.0413 -1.4796 -0.1319
  369SOL    HW2 1107   0.521   2.877   2.271 -0.9723  0.8229 -2.1372
  370SOL     OW 1108   2.938   0.372   0.540 -0.4652 -0.2005  0.4249
  370SOL    HW1 1109   2.953   0.353   0.437 -1.4375  1.3658 -1.6334
  370SOL    HW2 1110   2.934   0.472   0.554 -0.1852 -0.1775 -1.0532
  371SOL     OW 1111   1.104   2.441   1.377 -0.9812  0.0280 -0.2410
  371SOL    HW1 1112   1.198   2.399   1.388  2.3741 -1.0015  1.1437
  371SOL    HW2 1113   1.040   2.418   1.450  2.1275  2.3489 -1.1867
  372SOL     OW 1114   2.664   0.317   2.462  0.2317 -0.0287 -0.7369
  372SOL    HW1 1115   2.703   0.227   2.455  1.0682  1.1577  0.9050
  372SOL    HW2 1116   2.645   0.358   2.371 -0.7615 -0.1085 -0.4954
  373SOL     OW 1117   0.109   2.123   0.625  0.2186  0.6381 -0.0158
  373SOL    HW1 1118   0.205   2.108   0.660  0.4233 -0.7923 -0.7308
  373SOL    HW2 1119   0.057   2.128   0.713  1.1064 -0.9383 -0.4621
  374SOL     OW 1120   0.071   0.082   2.631  0.8386 -0.0148 -0.4148
  374SOL    HW1 1121   0.051   0.175   2.657  2.0538  0.3708  0.9232
  374SOL    HW2 1122   0.100   0.080   2.531  0.6759  0.1365 -0.9178
  375SOL     OW 1123   0.552   0.423   2.618  0.4131  0.0291 -0.1120
  375SOL    HW1 1124   0.476   0.468   2.569  1.7445  1.9159 -1.2749
  375SOL    HW2 1125   0.579   0.480   2.698 -0.0725 -2.5326 -1.8888
  376SOL     OW 1126   2.811   2.277   1.893  0.6599 -0.0700 -0.1930
  376SOL    HW1 1127   2.764   2.356   1.859  1.4859 -3.0530  1.1744
  376SOL    HW2 1128   2.910   2.284   1.892 -0.5836  1.9597  1.0391
  377SOL     OW 1129   1.334   0.183   2.896 -0.1102  0.1355 -0.1380
  377SOL    HW1 1130   1.319   0.115   2.819 -1.1737 -3.1156 -2.1039
  377SOL    HW2 1131   1.402   0.253   2.876 -0.1022  1.8820  0.0317
  378SOL     OW 1132   2.656   0.834   2.547 -0.3528 -0.0996  0.2501
  378SOL    HW1 1133   2.699   0.752   2.584  0.8057  0.2429 -2.3266
  378SOL    HW2 1134   2.565   0.845   2.590  0.0865  0.0264  0.8963
  379SOL     OW 1135   1.111   0.752   3.012  0.3716 -0.2419 -0.1193
  379SOL    HW1 1136   1.059   0.755   2.922  2.1338 -0.5245  2.0415
  379SOL    HW2 1137   1.066   0.815   0.004  0.0157 -0.4753 -2.0611
  380SOL     OW 1138   3.071   1.695   1.795  0.2895  0.1886  0.3214
  380SOL    HW1 1139   3.053   1.786   1.761 -3.4343 -1.8083  2.4162
  380SOL    HW2 1140   0.086   1.654   1.759 -0.5215 -0.4167 -0.0271
  381SOL     OW 1141   0.065   1.137   2.510 -0.0732  0.1911 -0.2339
  381SOL    HW1 1142   0.075   1.161   2.411 -1.4132 -2.1699 -1.3574
  381SOL    HW2 1143   3.040   1.140   2.527  1.1934  0.1418  1.5357
  382SOL     OW 1144   2.327   2.302   0.528 -0.4486 -0.0239  0.4566
  382SOL    HW1 1145   2.359   2.306   0.430  0.4753 -0.2198 -1.2814
  382SOL    HW2 1146   2.342   2.210   0.572 -0.9090  0.3791  3.7732
  383SOL     OW 1147   0.774   1.630   0.267  0.1113  0.0095  0.0030
  383SOL    HW1 1148   0.841   1.706   0.278  2.3793 -0.3752  2.8659
  383SOL    HW2 1149   0.740   1.598   0.356 -0.1365  3.2167  1.0043
  384SOL     OW 1150   0.867   2.191   2.493 -0.1835 -0.5222 -0.3070
  384SOL    HW1 1151   0.952   2.244   2.516  1.0878  0.7421  1.7105
  384SOL    HW2 1152   0.886   2.115   2.433 -2.9213  2.4330  0.9582
  385SOL     OW 1153   2.402   2.098   0.777  0.3978  0.4950 -0.6522
  385SOL    HW1 1154   2.390   2.033   0.858 -3.1792 -1.5001 -0.1367
  385SOL    HW2 1155   2.443   2.187   0.804  0.8927  1.5953  0.6552
  386SOL     OW 1156   2.266   0.899   1.174 -0.1899 -0.2104 -0.4677
  386SOL    HW1 1157   2.267   0.832   1.094 -3.1303  1.5600 -0.5685
  386SOL    HW2 1158   2.274   0.997   1.144  0.4132 -0.7722  1.0568
  387SOL     OW 1159   0.087   0.859   1.924  0.3453  0.2861  0.0655
  387SOL    HW1 1160   0.109   0.887   2.017 -2.0090  3.4391 -2.5085
  387SOL    HW2 1161   0.143   0.780   1.904 -2.2236  4.5505 -1.3279
  388SOL     OW 1162   0.769   1.502   2.217  0.3455  0.3052 -0.2908
  388SOL    HW1 1163   0.736   1.591   2.249 -0.4277 -2.4879 -0.6367
  388SOL    HW2 1164   0.707   1.469   2.145  1.8717 -0.0430 -0.3903
  389SOL     OW 1165   0.681   1.005   2.003 -0.2473  0.1972  0.1466
  389SOL    HW1 1166   0.735   0.987   2.091  3.4396 -1.6035  3.3973
  389SOL    HW2 1167   0.693   0.928   1.936  0.0657  0.1104  1.0658
  390SOL     OW 1168   2.714   2.976   0.717  0.1027  0.3873 -0.3812
  390SOL    HW1 1169   2.672   3.064   0.756 -0.5291 -0.6494 -2.3628
  390SOL    HW2 1170   2.694   2.969   0.617  2.2645 -1.0435 -0.1641
  391SOL     OW 1171   1.913   1.549   1.084 -0.3069  0.2642  0.4815
  391SOL    HW1 1172   1.818   1.516   1.071  0.1376 -0.0508 -1.3363
  391SOL    HW2 1173   1.978   1.469   1.067  0.1948 -0.1743 -3.2246
  392SOL     OW 1174   2.845   2.735   3.036  0.5115  0.3647  0.7379
  392SOL    HW1 1175   2.855   2.833   3.022 -0.0461 -2.2635  0.7409
  392SOL    HW2 1176   2.861   2.677   2.955 -0.5915 -0.7719 -2.2086
  393SOL     OW 1177   1.653   2.271   2.611  0.3334  0.4965 -0.4235
  393SOL    HW1 1178   1.696   2.202   2.554  1.1200 -0.2630  2.9887
  393SOL    HW2 1179   1.683   2.365   2.590  1.6329 -1.0455 -0.3378
  394SOL     OW 1180   0.252   2.311   2.710  0.3384  0.3793  0.1855
  394SOL    HW1 1181   0.268   2.235   2.645 -0.7993 -2.2852 -1.7468
  394SOL    HW2 1182   0.163   2.305   2.761  0.9888 -1.5834  0.2102
  395SOL     OW 1183   0.155   0.252   0.480 -0.1233 -0.0919 -0.3418
  395SOL    HW1 1184   0.053   0.256   0.475  3.5503 -2.1179  1.4622
  395SOL    HW2 1185   0.181   0.156   0.504 -4.0011 -1.0026  1.7871
  396SOL     OW 1186   2.192   0.297   0.444  0.5382  0.1285 -0.5559
  396SOL    HW1 1187   2.107   0.349   0.462  0.7395  0.3202 -1.7053
  396SOL    HW2 1188   2.171   0.197   0.430  1.4457  0.0340 -1.9297
  397SOL     OW 1189   0.046   0.622   2.407  0.4216 -0.4942 -0.8743
  397SOL    HW1 1190   0.125   0.590   2.355 -5.6759  1.6312  3.6098
  397SOL    HW2 1191   3.033   0.588   2.366  1.3095 -1.4360 -2.6743
  398SOL     OW 1192   0.881   3.012   0.169 -0.3215  0.0991  0.0488
  398SOL    HW1 1193   0.818   0.020   0.156 -0.9229 -0.5681 -0.5576
  398SOL    HW2 1194   0.955   3.010   0.095  0.8446 -1.8639 -0.8960
  399SOL     OW 1195   2.041   0.561   1.983 -0.1346 -0.2915  0.4210
  399SOL    HW1 1196   2.040   0.665   1.988 -0.7993  1.9806  0.1537
  399SOL    HW2 1197   1.966   0.522   1.929  0.2949 -1.1677 -0.5255
  400SOL     OW 1198   1.126   1.954   2.762 -0.0102  0.0830 -0.0880
  400SOL    HW1 1199   1.217   1.980   2.738 -2.8913 -1.0103  3.5891
  400SOL    HW2 1200   1.071   2.038   2.789 -0.6759 -2.0541 -0.8464
  401SOL     OW 1201   0.290   1.281   2.538  0.5653  0.0585  0.1513
  401SOL    HW1 1202   0.289   1.363   2.600  2.6242 -0.2600 -1.2448
  401SOL    HW2 1203   0.199   1.240   2.551 -1.4290 -0.0689  1.4770
  402SOL     OW 1204   0.393   2.856   0.360  0.1954 -0.2334  0.1793
  402SOL    HW1 1205   0.404   2.774   0.417  0.0464  1.5120 -1.1579
  402SOL    HW2 1206   0.462   2.928   0.383 -2.1076 -0.6174 -0.4452
  403SOL     OW 1207   0.659   1.107   1.659  0.2407 -0.0920 -0.0379
  403SOL    HW1 1208   0.678   1.035   1.731  1.6398 -2.6519 -1.1938
  403SOL    HW2 1209   0.559   1.141   1.662 -2.2929  1.3577  0.4540
  404SOL     OW 1210   2.532   2.434   2.312 -0.4458 -0.6495 -0.2447
  404SOL    HW1 1211   2.563   2.521   2.260 -1.0131  0.6304  0.5031
  404SOL    HW2 1212   2.436   2.433   2.336  2.0806  0.7357  1.2522
  405SOL     OW 1213   2.888   0.211   1.710 -0.0440  0.5298  0.7464
  405SOL    HW1 1214   2.898   0.176   1.806 -1.9529 -1.1189 -0.2744
  405SOL    HW2 1215   2.981   0.236   1.669  0.7533 -0.8909  0.2177
  406SOL     OW 1216   1.188   1.374   2.710  0.4379 -0.1592  0.1896
  406SOL    HW1 1217   1.103   1.409   2.666 -1.8076  1.1300 -0.8505
  406SOL    HW2 1218   1.232   1.441   2.774  1.4441  1.2132 -0.9108
  407SOL     OW 1219   1.875   0.886   2.737 -0.6517  0.0898  0.1092
  407SOL    HW1 1220   1.946   0.854   2.667  1.8019 -1.5629 -1.2880
  407SOL    HW2 1221   1.879   0.988   2.743  1.7825 -0.2770 -0.2541
  408SOL     OW 1222   0.351   2.696   2.352  0.4662  0.3609 -0.6138
  408SOL    HW1 1223   0.401   2.717   2.441  2.4113  0.6399  1.0608
  408SOL    HW2 1224   0.302   2.604   2.363 -2.7327 -3.2477  1.2182
  409SOL     OW 1225   0.138   2.416   1.199  0.2811  0.3377  0.2393
  409SOL    HW1 1226   0.042   2.420   1.234  0.2935 -0.6802 -1.9546
  409SOL    HW2 1227   0.179   2.498   1.157 -2.7531  2.0320 -2.8428
  410SOL     OW 1228   2.901   1.788   0.523 -0.5013 -0.5594 -0.7855
  410SOL    HW1 1229   2.994   1.803   0.565  2.3109  1.2178  0.1990
  410SOL    HW2 1230   2.897   1.707   0.460  0.3816 -1.4123  3.1619
  411SOL     OW 1231   2.689   3.020   1.116 -0.2213  0.0009 -0.2352
  411SOL    HW1 1232   2.645   2.952   1.055 -0.0404  0.7586 -1.1845
  411SOL    HW2 1233   2.640   0.032   1.122  1.5520 -2.6239 -0.7781
  412SOL     OW 1234   2.155   0.224   1.727 -0.7206  0.6586 -0.1342
  412SOL    HW1 1235   2.162   0.123   1.751  1.4531 -1.7348 -1.4631
  412SOL    HW2 1236   2.060   0.243   1.686 -1.3558  1.0931 -2.6775
  413SOL     OW 1237   3.068   0.248   2.094 -0.9445 -0.3009 -0.6672
  413SOL    HW1 1238   3.046   0.246   2.195  0.2104  0.2861 -2.4442
  413SOL    HW2 1239   0.097   0.228   2.078 -0.2213  1.5165  0.4118
  414SOL     OW 1240   2.918   1.188   2.950  0.0039  0.1418 -0.0136
  414SOL    HW1 1241   2.891   1.286   2.938 -2.4314  0.2049  1.2176
  414SOL    HW2 1242   2.838   1.129   2.981 -4.7920 -0.3823 -0.8261
  415SOL     OW 1243   1.000   2.550   2.988  0.8480  0.7477 -0.4600
  415SOL    HW1 1244   1.075   2.507   3.041  1.6239  2.9941 -0.0914
  415SOL    HW2 1245   0.958   2.625   3.044  0.8299 -1.3966  0.9351
  416SOL     OW 1246   1.421   2.961   2.299 -0.6073 -0.5367  0.1011
  416SOL    HW1 1247   1.373   2.882   2.339  1.2806  0.1865 -3.1933
  416SOL    HW2 1248   1.492   2.931   2.235 -3.0121 -0.6581 -0.9260
  417SOL     OW 1249   0.246   0.690   1.156 -0.3218 -0.3402 -0.1107
  417SOL    HW1 1250   0.320   0.634   1.196  0.4037  3.9631  3.5634
  417SOL    HW2 1251   0.235   0.668   1.059  1.3740 -0.5375  4.9733
  418SOL     OW 1252   2.618   0.161   0.810  0.5033 -0.3921  0.4938
  418SOL    HW1 1253   2.638   0.196   0.904  1.7825  1.7104 -0.6058
  418SOL    HW2 1254   2.651   0.222   0.738  0.2875 -0.3191  0.6218
  419SOL     OW 1255   0.324   2.921   0.102  0.4488 -0.5495  0.0469
  419SOL    HW1 1256   0.351   2.840   0.050 -0.1533  2.5746 -0.5999
  419SOL    HW2 1257   0.354   2.905   0.197 -0.3502 -1.5329  0.2950
  420SOL     OW 1258   0.335   1.091   1.673  0.4436  0.0991 -0.1686
  420SOL    HW1 1259   0.308   1.003   1.624 -2.6080 -2.6749 -1.7325
  420SOL    HW2 1260   0.266   1.118   1.741  2.1988  0.0256 -2.9037
  421SOL     OW 1261   1.775   2.520   0.815 -0.1427  0.5056 -0.3372
  421SOL    HW1 1262   1.820   2.460   0.882 -0.3814  1.7324  1.0107
  421SOL    HW2 1263   1.683   2.478   0.798  0.3149 -2.5386  3.2616
  422SOL     OW 1264   0.066   0.447   1.189 -0.2195  0.8751 -0.4342
  422SOL    HW1 1265   0.129   0.402   1.120 -2.9681  0.5700 -0.3854
  422SOL    HW2 1266   0.112   0.503   1.258 -3.4114 -0.5687 -1.8414
  423SOL     OW 1267   0.803   1.227   1.921  0.0895  0.0688 -0.3206
  423SOL    HW1 1268   0.760   1.142   1.964 -0.0731 -0.3992  1.4553
  423SOL    HW2 1269   0.754   1.316   1.943 -1.4881  4.7268 -0.8821
  424SOL     OW 1270   1.721   2.115   0.498 -0.3045 -0.0837 -0.3667
  424SOL    HW1 1271   1.717   2.144   0.403  2.7409 -0.1174  3.6938
  424SOL    HW2 1272   1.815   2.088   0.523  1.2981  1.5113 -2.5878
  425SOL     OW 1273   2.655   2.977   1.825  0.1162 -0.3340  0.2282
  425SOL    HW1 1274   2.669   3.041   1.741  1.3710  0.9748 -1.4658
  425SOL    HW2 1275   2.736   2.988   1.888  1.7304  0.9295 -0.0748
  426SOL     OW 1276   0.028   2.584   2.517 -0.2754 -0.5595  0.1245
  426SOL    HW1 1277   0.121   2.582   2.551  2.7254 -0.3096  0.4888
  426SOL    HW2 1278   3.062   2.490   2.517  0.1873  2.2736 -0.1793
  427SOL     OW 1279   0.936   0.119   0.526  0.8498  0.3885  0.3246
  427SOL    HW1 1280   0.906   0.157   0.439 -0.1564  1.0283  1.8204
  427SOL    HW2 1281   0.885   0.158   0.606 -1.9454  3.2662  1.8524
  428SOL     OW 1282   2.577   0.432   1.497 -0.2822 -0.1188 -0.3990
  428SOL    HW1 1283   2.623   0.351   1.460 -0.3765  1.3408  1.2042
  428SOL    HW2 1284   2.534   0.478   1.420 -1.6535  0.9825 -0.4179
  429SOL     OW 1285   2.014   2.954   0.912 -0.4327  0.0471  0.1234
  429SOL    HW1 1286   1.953   2.901   0.854 -0.0354  0.6157  0.9359
  429SOL    HW2 1287   2.088   2.892   0.943 -0.3398  1.1167  0.8117
  430SOL     OW 1288   1.007   1.531   2.608 -0.3247 -0.6466 -0.4201
  430SOL    HW1 1289   0.987   1.635   2.619 -0.4860  3.8768  0.6012
  430SOL    HW2 1290   0.936   1.480   2.551 -1.8057 -3.5669 -0.8843
  431SOL     OW 1291   0.278   1.981   1.338  0.3846  0.1512  0.0781
  431SOL    HW1 1292   0.243   1.933   1.421 -2.4331 -1.0370 -0.0063
  431SOL    HW2 1293   0.208   2.040   1.293  2.3108  3.5754 -1.8556
  432SOL     OW 1294   1.512   2.722   2.609  0.0316  0.3615 -0.0582
  432SOL    HW1 1295   1.564   2.808   2.583  3.6992 -0.2772 -0.6348
  432SOL    HW2 1296   1.448   2.698   2.536 -0.4322  2.5347  0.5422
  433SOL     OW 1297   1.104   0.325   2.345 -0.2265  0.7845  0.4453
  433SOL    HW1 1298   1.114   0.300   2.246  0.3595 -0.0781 -1.2619
  433SOL    HW2 1299   1.107   0.426   2.364 -1.7022 -0.7570 -1.1233
  434SOL     OW 1300   0.714   2.619   2.052 -0.4300 -0.0712 -0.3625
  434SOL    HW1 1301   0.743   2.544   1.987  0.3816  1.7247  1.6361
  434SOL    HW2 1302   0.617   2.613   2.089 -2.4318  1.3265  1.5737
  435SOL     OW 1303   0.425   0.092   0.124  0.0854 -0.0946 -0.1068
  435SOL    HW1 1304   0.369   0.007   0.117 -0.2179 -4.5062  0.3461
  435SOL    HW2 1305   0.372   0.170   0.160 -0.1690  1.9596  3.0707
  436SOL     OW 1306   0.521   1.225   2.405  0.1078 -0.1391 -0.0150
  436SOL    HW1 1307   0.439   1.254   2.458 -1.2664  1.6555 -0.6860
  436SOL    HW2 1308   0.576   1.153   2.454  0.1294 -1.9229  0.8666
  437SOL     OW 1309   1.108   2.340   2.598 -0.3624 -0.7426  0.8099
  437SOL    HW1 1310   1.196   2.317   2.552  2.6491  0.8550  0.2728
  437SOL    HW2 1311   1.067   2.417   2.544  0.3736  1.1075 -3.3354
  438SOL     OW 1312   0.815   0.927   0.769 -0.2785 -0.5035 -0.1057
  438SOL    HW1 1313   0.834   0.948   0.867  2.4668  1.0182  2.2284
  438SOL    HW2 1314   0.894   0.878   0.721 -0.6261 -2.3159 -2.8566
  439SOL     OW 1315   2.828   1.286   2.298 -0.5279  0.7501  0.0953
  439SOL    HW1 1316   2.858   1.190   2.263  3.8631 -2.6003 -2.2694
  439SOL    HW2 1317   2.873   1.362   2.244  3.4105 -0.6517 -0.4317
  440SOL     OW 1318   2.922   0.571   2.953 -0.6964  0.7958 -0.1704
  440SOL    HW1 1319   2.894   0.509   2.876  3.6419  2.3020  1.5618
  440SOL    HW2 1320   2.957   0.665   2.924 -0.6280  0.9369 -1.0179
  441SOL     OW 1321   0.909   1.887   1.557 -0.0734  0.1368 -0.0202
  441SOL    HW1 1322   0.880   1.971   1.614 -0.2034  0.1705  1.2110
  441SOL    HW2 1323   0.879   1.806   1.611  0.6242 -1.0006  1.6886
  442SOL     OW 1324   2.025   1.368   0.749 -0.7969  0.0408  0.1817
  442SOL    HW1 1325   1.927   1.350   0.716  0.9284  0.8247 -0.5945
  442SOL    HW2 1326   2.047   1.462   0.720 -0.7183  1.1428 -1.6020
  443SOL     OW 1327   2.332   1.962   2.957  0.0581 -0.0052 -0.0929
  443SOL    HW1 1328   2.409   1.909   2.916  0.8777 -1.3401  0.1305
  443SOL    HW2 1329   2.244   1.914   2.939  0.9268  0.3845  0.0645
  444SOL     OW 1330   1.855   1.402   2.701  0.2308  0.3487  0.7165
  444SOL    HW1 1331   1.918   1.370   2.629  1.6814 -0.6113  0.0165
  444SOL    HW2 1332   1.879   1.500   2.722 -1.7121 -0.2445 -0.3065
  445SOL     OW 1333   0.411   2.218   2.205 -0.0372  0.3822  0.6219
  445SOL    HW1 1334   0.418   2.219   2.308 -0.5463  0.6800  0.2926
  445SOL    HW2 1335   0.510   2.231   2.172  1.3047  0.5533 -0.8204
  446SOL     OW 1336   0.890   0.876   1.593 -0.2329 -0.4912  0.4633
  446SOL    HW1 1337   0.819   0.887   1.526  1.7756 -2.1979 -0.5780
  446SOL    HW2 1338   0.966   0.843   1.537 -2.7743 -1.0286  2.0368
  447SOL     OW 1339   1.000   0.866   0.577 -0.3661  0.1713 -0.1036
  447SOL    HW1 1340   1.031   0.943   0.518 -0.4552 -4.4674  0.7402
  447SOL    HW2 1341   1.087   0.823   0.615  3.0113  0.4973  2.0326
  448SOL     OW 1342   1.103   1.232   2.324  0.1171  0.0394  0.3243
  448SOL    HW1 1343   1.180   1.275   2.372  2.2083 -1.8082 -0.4357
  448SOL    HW2 1344   1.059   1.304   2.268 -1.6956  0.7371  2.4144
  449SOL     OW 1345   0.241   1.675   2.456  0.5196  0.1023  0.1475
  449SOL    HW1 1346   0.201   1.612   2.387  0.3371 -2.3950  0.6687
  449SOL    HW2 1347   0.179   1.753   2.477 -2.9774  0.8358 -2.2761
  450SOL     OW 1348   2.063   1.495   2.078  0.4803  0.1342 -0.0746
  450SOL    HW1 1349   2.107   1.495   2.167  0.8371  0.3254 -2.4864
  450SOL    HW2 1350   2.119   1.542   2.005 -0.6273 -0.8339  1.5178
  451SOL     OW 1351   2.296   1.372   1.224  0.2531  0.1434  0.3666
  451SOL    HW1 1352   2.347   1.456   1.202 -0.1493 -1.0407  0.4291
  451SOL    HW2 1353   2.223   1.393   1.284  0.4866  0.8736 -2.0231
  452SOL     OW 1354   0.861   1.189   1.254  0.4450  0.0031 -0.3863
  452SOL    HW1 1355   0.818   1.116   1.312  1.1022 -1.8461 -1.9995
  452SOL    HW2 1356   0.934   1.231   1.311  1.6136  1.2596  3.9745
  453SOL     OW 1357   0.638   1.970   0.963  0.2529 -0.5640 -0.0929
  453SOL    HW1 1358   0.546   2.018   0.964 -1.1771  2.7233  1.2957
  453SOL    HW2 1359   0.644   1.905   0.886  1.2627  0.0783  3.2570
  454SOL     OW 1360   1.290   1.636   0.210 -0.3962  0.1495  0.7297
  454SOL    HW1 1361   1.391   1.626   0.206 -1.0517  1.3049  1.0357
  454SOL    HW2 1362   1.257   1.671   0.299  1.2260  1.6360 -1.9207
  455SOL     OW 1363   1.842   0.531   0.938 -0.0110  0.2579  0.2844
  455SOL    HW1 1364   1.899   0.447   0.932  0.6759  0.5730  1.6519
  455SOL    HW2 1365   1.900   0.606   0.896 -1.2216 -1.6995  0.1957
  456SOL     OW 1366   1.905   2.902   0.649  0.0955  0.4162  0.0756
  456SOL    HW1 1367   1.857   2.821   0.611 -1.7979 -0.9293 -1.7012
  456SOL    HW2 1368   1.885   2.984   0.591 -3.1818 -0.7054  1.0588
  457SOL     OW 1369   1.980   0.728   2.283 -0.2410  0.3502  0.5077
  457SOL    HW1 1370   2.076   0.736   2.253 -2.3402  0.0658 -2.2889
  457SOL    HW2 1371   1.918   0.690   2.214  0.2576  0.6506  4.5255
  458SOL     OW 1372   2.525   0.454   2.661  0.7084 -0.1762  0.1081
  458SOL    HW1 1373   2.470   0.536   2.630  2.6832  0.4087 -0.0414
  458SOL    HW2 1374   2.584   0.424   2.588 -2.5735  0.6762  0.6768
  459SOL     OW 1375   2.576   1.338   2.382 -0.3428  0.0641  0.0629
  459SOL    HW1 1376   2.525   1.392   2.311  0.7498  0.2098  1.8053
  459SOL    HW2 1377   2.671   1.314   2.351 -1.3709  0.8974 -1.9161
  460SOL     OW 1378   0.671   0.839   2.758  0.6059  0.1753 -0.0490
  460SOL    HW1 1379   0.695   0.900   2.838 -0.5960 -0.3791 -0.0698
  460SOL    HW2 1380   0.608   0.887   2.698  1.9794 -1.7754 -0.6883
  461SOL     OW 1381   0.443   2.218   0.063 -0.5050 -0.4256  0.0789
  461SOL    HW1 1382   0.502   2.282   0.119 -1.0763  0.1374  2.0275
  461SOL    HW2 1383   0.408   2.271   3.057  0.7282  1.5588 -2.2023
  462SOL     OW 1384   1.119   3.062   2.155 -0.0284  0.1513 -0.4923
  462SOL    HW1 1385   1.197   3.035   2.094 -2.3157  1.1209  1.5379
  462SOL    HW2 1386   1.041   3.000   2.143  0.7114  2.3521 -0.5338
  463SOL     OW 1387   1.985   2.266   2.078 -0.1950  0.0780  0.2235
  463SOL    HW1 1388   1.905   2.208   2.093 -1.9799  0.4396 -0.1966
  463SOL    HW2 1389   2.067   2.232   2.135  2.7113  0.0318 -2.4088
  464SOL     OW 1390   2.741   2.602   0.858 -0.0976 -0.6673  0.0826
  464SOL    HW1 1391   2.692   2.674   0.906  1.0829  3.3824 -1.6016
  464SOL    HW2 1392   2.700   2.580   0.768 -0.3504  0.5310  1.4735
  465SOL     OW 1393   2.968   0.237   1.279  0.7648 -0.0197 -0.3325
  465SOL    HW1 1394   2.990   0.158   1.214 -1.0224 -1.6069  0.8138
  465SOL    HW2 1395   3.021   0.324   1.260  0.4186  0.8883 -1.3116
  466SOL     OW 1396   1.329   2.646   2.449  0.1905 -0.2016  0.2808
  466SOL    HW1 1397   1.260   2.675   2.517  2.4378 -0.7762  0.2785
  466SOL    HW2 1398   1.282   2.621   2.365 -0.6478  2.3569  2.1925
  467SOL     OW 1399   0.122   2.296   0.250  0.0748  0.0876 -0.1821
  467SOL    HW1 1400   0.089   2.202   0.233 -2.8882 -3.6704 -1.8921
  467SOL    HW2 1401   0.132   2.350   0.163  0.1183 -3.6205  0.8486
  468SOL     OW 1402   2.060   1.847   2.947 -1.1683  0.0998  0.5066
  468SOL    HW1 1403   1.977   1.793   2.922 -2.1851  2.0430 -0.3015
  468SOL    HW2 1404   2.045   1.946   2.933 -1.2485  2.0287 -1.4595
  469SOL     OW 1405   0.932   2.196   0.590 -0.1053  0.1387 -0.2520
  469SOL    HW1 1406   1.017   2.247   0.626  0.3536  2.0807  0.4446
  469SOL    HW2 1407   0.849   2.257   0.590  1.7580 -0.6015  1.3466
  470SOL     OW 1408   2.011   0.723   0.850 -0.7351  0.5858 -0.5796
  470SOL    HW1 1409   2.062   0.649   0.905  2.3385 -0.9130  0.8672
  470SOL    HW2 1410   2.057   0.814   0.866  2.3622 -0.4747  0.4791
  471SOL     OW 1411   0.577   1.942   0.439  0.8040 -0.3770  0.0441
  471SOL    HW1 1412   0.540   1.884   0.358 -2.9019 -2.0032 -2.2604
  471SOL    HW2 1413   0.532   2.034   0.440 -0.1767  0.7834  3.3060
  472SOL     OW 1414   2.538   1.635   2.538 -0.1183 -0.0653  0.1992
  472SOL    HW1 1415   2.589   1.622   2.621 -0.9027 -0.0886 -0.2023
  472SOL    HW2 1416   2.568   1.564   2.471 -0.4671 -2.4319 -1.5576
  473SOL     OW 1417   1.510   1.824   0.751  0.0175  0.5015  0.2663
  473SOL    HW1 1418   1.429   1.871   0.712 -0.9451 -0.4704 -0.2950
  473SOL    HW2 1419   1.527   1.848   0.849  0.1526  0.2542  1.3845
  474SOL     OW 1420   2.673   0.434   0.994 -0.4544 -0.3745  0.0108
  474SOL    HW1 1421   2.621   0.464   0.910 -0.2602  1.4958 -0.4501
  474SOL    HW2 1422   2.760   0.486   1.006  0.8383  0.5257  1.4992
  475SOL     OW 1423   2.608   2.852   1.329  0.7644 -0.0525 -0.2588
  475SOL    HW1 1424   2.525   2.902   1.368 -2.2900  1.2976 -1.5838
  475SOL    HW2 1425   2.656   2.914   1.262  2.8012  1.3197 -3.4460
  476SOL     OW 1426   0.481   0.388   0.869  0.5811 -0.3226  0.0887
  476SOL    HW1 1427   0.448   0.386   0.774 -1.5738 -1.6518 -2.3050
  476SOL    HW2 1428   0.523   0.482   0.884  1.8105 -1.3714  0.6170
  477SOL     OW 1429   1.277   2.387   1.010 -0.1942 -0.4017  0.5101
  477SOL    HW1 1430   1.378   2.379   0.989  1.1251 -0.9963 -0.8521
  477SOL    HW2 1431   1.249   2.486   1.019  3.2173 -3.0499 -0.0071
  478SOL     OW 1432   1.415   2.577   2.827 -0.1616 -0.5548 -0.2386
  478SOL    HW1 1433   1.315   2.574   2.814 -0.9542  0.0046  0.3559
  478SOL    HW2 1434   1.459   2.633   2.749 -2.1817  1.2815 -3.4995
  479SOL     OW 1435   2.336   0.831   1.882  0.1021  0.0546  0.3543
  479SOL    HW1 1436   2.398   0.756   1.912  1.2519 -0.8012 -1.1262
  479SOL    HW2 1437   2.384   0.877   1.803  1.5213  0.6323 -1.0970
  480SOL     OW 1438   2.798   1.909   2.658  0.0101 -0.3534 -0.2693
  480SOL    HW1 1439   2.815   2.010   2.641  0.4317 -2.2936 -1.5162
  480SOL    HW2 1440   2.870   1.878   2.723 -1.5167  1.0663  3.3562
  481SOL     OW 1441   1.732   0.082   1.875  0.0499  1.0012 -0.1052
  481SOL    HW1 1442   1.748   3.059   1.844  1.8909  3.0338 -0.9777
  481SOL    HW2 1443   1.659   0.089   1.941  1.5698 -1.7170 -2.1937
  482SOL     OW 1444   1.508   2.454   2.299  0.3075 -0.4075  0.0009
  482SOL    HW1 1445   1.559   2.483   2.219 -0.6698 -1.2929 -1.3958
  482SOL    HW2 1446   1.474   2.535   2.350 -0.6450 -0.3671 -0.0089
  483SOL     OW 1447   1.142   2.773   2.634 -0.2218 -0.4435  0.1280
  483SOL    HW1 1448   1.136   2.683   2.684  1.1042  1.5634 -0.7593
  483SOL    HW2 1449   1.105   2.850   2.688 -1.9211 -1.8191 -0.3833
  484SOL     OW 1450   2.400   2.998   1.420 -0.3903 -0.3186  0.1771
  484SOL    HW1 1451   2.314   2.950   1.457 -2.7787 -0.2555 -3.0096
  484SOL    HW2 1452   2.417   0.004   1.478  0.5696 -0.3525 -0.3608
  485SOL     OW 1453   1.973   0.438   0.490  0.0914  0.5777  0.6394
  485SOL    HW1 1454   1.967   0.533   0.538 -1.3747 -0.5891 -0.3727
  485SOL    HW2 1455   1.902   0.426   0.417 -1.3636  0.9562 -0.3360
  486SOL     OW 1456   2.324   2.556   2.485  0.0908 -0.1515  0.3107
  486SOL    HW1 1457   2.332   2.638   2.547 -0.2084 -0.6585 -2.2753
  486SOL    HW2 1458   2.319   2.572   2.389 -2.0688 -1.6085  0.5010
  487SOL     OW 1459   1.333   0.559   0.496 -0.1657 -0.1471 -0.4472
  487SOL    HW1 1460   1.367   0.514   0.584  0.6344  1.5185  0.3324
  487SOL    HW2 1461   1.335   0.491   0.424 -0.3034 -1.0165 -0.4557
  488SOL     OW 1462   2.651   2.750   2.472 -0.2374  0.0462  0.0007
  488SOL    HW1 1463   2.632   2.712   2.379 -2.4447 -3.7608 -2.6831
  488SOL    HW2 1464   2.561   2.752   2.522  3.0048 -1.6206 -1.9723
  489SOL     OW 1465   1.460   2.795   0.319  0.4863 -0.1176 -0.2686
  489SOL    HW1 1466   1.455   2.823   0.422 -1.2998  0.5216  2.8307
  489SOL    HW2 1467   1.537   2.835   0.266  1.5106 -0.3319  2.6691
  490SOL     OW 1468   1.686   0.400   0.021  0.1340 -0.5856  0.2728
  490SOL    HW1 1469   1.724   0.432   3.002  0.9264  2.6502 -0.1458
  490SOL    HW2 1470   1.594   0.441   0.043  1.1629 -0.1854  0.1406
  491SOL     OW 1471   0.797   2.925   1.299  0.4192 -0.4407 -0.4146
  491SOL    HW1 1472   0.740   2.997   1.260  1.7103 -1.4545 -0.4775
  491SOL    HW2 1473   0.856   2.961   1.371  0.6872  0.5038 -1.5841
  492SOL     OW 1474   1.743   2.705   0.549 -0.0915 -0.1429 -0.0949
  492SOL    HW1 1475   1.701   2.638   0.613 -0.7420 -2.7174 -0.7511
  492SOL    HW2 1476   1.731   2.667   0.454 -2.2015 -1.2470 -1.0911
  493SOL     OW 1477   1.254   2.235   2.953  0.2195 -0.5445 -0.4680
  493SOL    HW1 1478   1.340   2.250   2.904 -0.7087  0.5470  1.3852
  493SOL    HW2 1479   1.241   2.308   3.029 -0.3520  2.7558  0.0301
  494SOL     OW 1480   0.811   0.783   0.398  0.0883  0.5862 -0.1225
  494SOL    HW1 1481   0.833   0.688   0.373 -2.4657 -2.5594 -1.6420
  494SOL    HW2 1482   0.870   0.810   0.482 -1.7134  1.3347  3.4970
  495SOL     OW 1483   2.771   0.445   1.671  0.4599  0.1329 -0.2659
  495SOL    HW1 1484   2.802   0.348   1.699  1.7481 -2.3933  0.7293
  495SOL    HW2 1485   2.681   0.455   1.624  0.1138  0.4272 -1.0162
  496SOL     OW 1486   2.375   2.304   2.610 -0.2924 -0.1669 -0.0412
  496SOL    HW1 1487   2.309   2.358   2.551 -0.1729 -1.1906 -2.3704
  496SOL    HW2 1488   2.364   2.204   2.579  0.5509 -0.0977 -0.1885
  497SOL     OW 1489   1.667   1.349   2.488 -0.7073 -0.3256 -0.0256
  497SOL    HW1 1490   1.716   1.369   2.578  3.5271  1.5697  0.1549
  497SOL    HW2 1491   1.570   1.314   2.504 -2.8696 -1.8526  0.7793
  498SOL     OW 1492   0.920   2.513   0.890  0.0531 -0.3317 -0.6342
  498SOL    HW1 1493   0.843   2.572   0.909 -0.4697 -1.5213 -0.2366
  498SOL    HW2 1494   0.948   2.455   0.970  2.0734  4.7857 -0.3389
  499SOL     OW 1495   0.130   2.155   1.086  0.2061  0.0361  0.1452
  499SOL    HW1 1496   0.070   2.165   1.005 -2.4645  0.4185  0.4721
  499SOL    HW2 1497   0.126   2.236   1.147  1.0843  2.1626 -2.1304
  500SOL     OW 1498   0.849   2.727   0.083  0.3508 -0.0825 -0.4936
  500SOL    HW1 1499   0.766   2.704   0.023 -0.0361  2.8343  0.1482
  500SOL    HW2 1500   0.837   2.815   0.137 -3.0844  1.4828  3.1954
  501SOL     OW 1501   1.890   3.000   0.218  0.0663  0.0784  0.5009
  501SOL    HW1 1502   1.965   2.948   0.264 -1.9201  2.5848 -0.4099
  501SOL    HW2 1503   1.929   3.070   0.155  0.1147 -3.5104 -2.6189
  502SOL     OW 1504   3.065   0.344   0.780  0.3184  0.0307  0.5339
  502SOL    HW1 1505   3.024   0.342   0.685 -0.2110 -1.0513 -2.3220
  502SOL    HW2 1506   0.028   0.251   0.803  2.3593  0.6975  0.1524
  503SOL     OW 1507   2.047   2.948   2.050  0.2608 -0.0238 -0.1881
  503SOL    HW1 1508   2.098   2.930   2.138  1.8243 -3.1985 -0.1554
  503SOL    HW2 1509   1.964   3.010   2.060  1.2851  0.0316  0.2338
  504SOL     OW 1510   2.122   1.066   1.839  0.6774 -0.1838 -0.0144
  504SOL    HW1 1511   2.100   1.006   1.763  0.0201  0.4844 -0.7459
  504SOL    HW2 1512   2.202   1.033   1.890 -1.5073  3.5043  0.0756
  505SOL     OW 1513   1.774   2.883   2.315  0.2345 -0.2294  0.1322
  505SOL    HW1 1514   1.818   2.967   2.283  0.2885  1.8212 -4.5157
  505SOL    HW2 1515   1.735   2.829   2.238 -0.0340 -1.5914  2.1083
  506SOL     OW 1516   3.064   0.505   1.984 -0.3378 -0.3745  0.5635
  506SOL    HW1 1517   3.057   0.411   2.026  0.3909 -2.8413 -0.1993
  506SOL    HW2 1518   3.063   0.585   2.044  1.2397 -2.6787  1.4017
  507SOL     OW 1519   1.771   0.407   0.329  0.1173 -0.4997  0.4060
  507SOL    HW1 1520   1.701   0.486   0.324 -3.6584  0.6890 -0.6292
  507SOL    HW2 1521   1.735   0.326   0.278 -1.9938 -0.2320  0.0267
  508SOL     OW 1522   2.029   0.841   2.010  0.2239 -0.0125  0.1867
  508SOL    HW1 1523   2.043   0.922   1.949 -1.2637 -2.4305 -1.1641
  508SOL    HW2 1524   2.120   0.822   2.053  1.8324 -0.9351  4.0743
  509SOL     OW 1525   0.670   1.650   2.773  0.1866 -0.0695  0.1691
  509SOL    HW1 1526   0.751   1.710   2.786  0.4004 -1.4278 -2.2709
  509SOL    HW2 1527   0.601   1.676   2.701 -5.6270 -0.4112 -0.1300
  510SOL     OW 1528   0.197   1.060   1.078 -0.0701  0.1601  0.0711
  510SOL    HW1 1529   0.158   0.964   1.099  1.8200 -1.0337 -1.4762
  510SOL    HW2 1530   0.136   1.126   1.118 -0.3771 -2.8393  2.5645
  511SOL     OW 1531   1.520   1.220   1.647  0.2551  0.1702  0.0979
  511SOL    HW1 1532   1.426   1.180   1.661  0.8089 -0.6114 -0.4837
  511SOL    HW2 1533   1.514   1.321   1.620 -1.1237  0.1845 -2.2276
  512SOL     OW 1534   0.361   2.053   0.715 -0.4029 -0.2673 -0.1699
  512SOL    HW1 1535   0.409   2.084   0.634  0.9666 -0.3428  0.9368
  512SOL    HW2 1536   0.361   2.116   0.794  0.5737 -1.3023 -0.5990
  513SOL     OW 1537   0.249   2.608   0.760 -0.1477 -0.6159  0.2594
  513SOL    HW1 1538   0.292   2.692   0.713 -0.6861 -0.9065 -2.7821
  513SOL    HW2 1539   0.238   2.624   0.862 -1.2212 -0.7979 -1.6113
  514SOL     OW 1540   0.772   1.970   0.589 -0.3405 -0.2434  0.3502
  514SOL    HW1 1541   0.838   2.048   0.585  1.6656 -0.3604  0.7485
  514SOL    HW2 1542   0.704   1.958   0.512  1.6189  0.8952 -0.9892
  515SOL     OW 1543   0.298   0.178   2.818 -0.1572 -0.2710  0.3346
  515SOL    HW1 1544   0.287   0.077   2.853 -0.7190  1.6843  0.2708
  515SOL    HW2 1545   0.304   0.243   2.896 -1.3024 -0.0664 -1.2650
  516SOL     OW 1546   2.042   0.158   1.252 -0.1907 -0.3030  1.1329
  516SOL    HW1 1547   2.017   0.205   1.338 -0.5987 -0.2148  0.5221
  516SOL    HW2 1548   2.139   0.168   1.222  5.2916 -2.2034 -0.5250
  517SOL     OW 1549   1.925   1.623   0.642 -0.4033  0.5386 -0.2174
  517SOL    HW1 1550   1.856   1.691   0.600  0.8163 -0.8568  1.4949
  517SOL    HW2 1551   2.002   1.675   0.687  1.4241 -0.9831  0.5060
  518SOL     OW 1552   1.709   2.821   0.894 -0.8312  0.2395  0.3419
  518SOL    HW1 1553   1.716   2.750   0.831 -2.0295 -2.8132 -2.9332
  518SOL    HW2 1554   1.690   2.912   0.848 -1.9308  2.4548 -0.7739
  519SOL     OW 1555   0.070   2.393   0.001  0.0918 -0.9892 -0.2680
  519SOL    HW1 1556   0.052   2.334   2.993 -1.1598 -0.1156  2.8083
  519SOL    HW2 1557   0.137   2.471   3.051 -0.0489  1.4893 -0.9802
  520SOL     OW 1558   2.037   1.839   2.240 -0.2820 -0.5045 -0.1947
  520SOL    HW1 1559   1.997   1.887   2.318  0.6938 -0.5945 -3.3364
  520SOL    HW2 1560   1.968   1.815   2.165 -2.3415 -1.9308 -0.5520
  521SOL     OW 1561   1.272   2.987   1.936  0.3164 -0.5233  0.1626
  521SOL    HW1 1562   1.329   2.957   1.860 -1.1111 -1.3320 -0.3507
  521SOL    HW2 1563   1.180   3.017   1.899 -0.8000  2.6213 -0.5793
  522SOL     OW 1564   0.332   2.412   2.027 -0.4157 -0.1247 -0.5674
  522SOL    HW1 1565   0.236   2.408   2.003  0.9212  0.1625  0.0543
  522SOL    HW2 1566   0.348   2.338   2.093  0.2037  0.6580  0.7081
  523SOL     OW 1567   0.908   2.253   2.047 -0.5870  0.0225 -0.3384
  523SOL    HW1 1568   0.861   2.331   1.996 -1.1054  1.2516  3.2774
  523SOL    HW2 1569   0.961   2.278   2.130 -0.1766 -2.0706 -0.2976
  524SOL     OW 1570   2.073   2.055   0.247  0.3283 -0.0215  0.5260
  524SOL    HW1 1571   2.084   2.137   0.296 -2.1445 -4.5384  1.0419
  524SOL    HW2 1572   2.143   1.986   0.281 -0.5181  1.4298  1.6298
  525SOL     OW 1573   2.770   0.923   2.882  0.2407  0.3074 -0.4543
  525SOL    HW1 1574   2.717   0.993   2.829 -0.0191 -0.7392 -0.1411
  525SOL    HW2 1575   2.843   0.891   2.822 -1.6448 -0.1407 -0.0231
  526SOL     OW 1576   0.386   2.831   0.699 -0.0003 -0.6155  0.4963
  526SOL    HW1 1577   0.475   2.779   0.686 -0.2859  0.3498  0.2164
  526SOL    HW2 1578   0.393   2.919   0.656 -0.3063 -2.7434  1.0670
  527SOL     OW 1579   3.064   1.067   0.827  0.5032  0.0876  0.4042
  527SOL    HW1 1580   0.017   1.100   0.924 -1.5443  2.5358  2.6146
  527SOL    HW2 1581   2.967   1.036   0.820  0.7056 -2.8068  0.6365
  528SOL     OW 1582   0.777   1.119   2.514 -0.5876  0.2597 -0.5338
  528SOL    HW1 1583   0.790   1.158   2.609  0.3594  0.5856  2.6399
  528SOL    HW2 1584   0.840   1.038   2.491  0.4171 -2.1215  0.2707
  529SOL     OW 1585   0.866   1.259   0.355 -0.3472 -0.6291 -0.1534
  529SOL    HW1 1586   0.809   1.176   0.321 -1.6758  2.0441 -2.3045
  529SOL    HW2 1587   0.861   1.337   0.284 -0.9557  0.8376 -0.7467
  530SOL     OW 1588   1.061   0.901   1.818  0.5846 -0.0806  0.0692
  530SOL    HW1 1589   1.000   0.934   1.744 -2.4024  0.1535 -0.0385
  530SOL    HW2 1590   1.042   0.803   1.836 -0.2680 -0.9735 -1.7970
  531SOL     OW 1591   1.203   2.458   0.078 -0.9262 -0.3741  0.2240
  531SOL    HW1 1592   1.138   2.454   0.156 -0.7663 -0.0221 -1.8527
  531SOL    HW2 1593   1.272   2.537   0.091 -0.5814  0.9901 -0.7264
  532SOL     OW 1594   2.458   0.638   2.327 -0.1148  0.5475  0.0367
  532SOL    HW1 1595   2.542   0.691   2.298 -1.0613  2.5977 -1.4056
  532SOL    HW2 1596   2.430   0.656   2.420 -0.0558 -2.8238 -4.2000
  533SOL     OW 1597   2.905   0.092   1.962  0.3417  0.6248 -0.2106
  533SOL    HW1 1598   2.979   0.141   2.016  2.1309 -0.0033 -0.7618
  533SOL    HW2 1599   2.888   3.069   2.000  2.4930 -0.2388  0.1501
  534SOL     OW 1600   2.668   2.974   0.170  0.3923 -0.3619  0.3340
  534SOL    HW1 1601   2.719   3.060   0.156 -0.5998  0.0255  2.3647
  534SOL    HW2 1602   2.575   2.980   0.124  0.6789 -0.4920 -1.4236
  535SOL     OW 1603   0.507   0.477   0.228  0.0634  0.8152  0.2605
  535SOL    HW1 1604   0.514   0.579   0.240 -1.6034 -1.9930  0.0755
  535SOL    HW2 1605   0.418   0.437   0.269  0.5765 -2.9488  3.2175
  536SOL     OW 1606   1.312   2.161   1.134  0.1130  0.4268  0.3103
  536SOL    HW1 1607   1.265   2.100   1.069  0.7216 -1.4069  1.8036
  536SOL    HW2 1608   1.304   2.257   1.097 -2.7383  1.2390  0.0347
  537SOL     OW 1609   2.813   2.390   1.494  0.3148  0.6691 -0.0032
  537SOL    HW1 1610   2.873   2.471   1.517  1.7698  0.2439 -1.6828
  537SOL    HW2 1611   2.718   2.424   1.504  2.7381  2.1373  0.3350
  538SOL     OW 1612   0.720   2.320   0.428 -0.2238  0.3379  0.0009
  538SOL    HW1 1613   0.802   2.283   0.382 -1.2048 -1.9324  0.7712
  538SOL    HW2 1614   0.749   2.382   0.504  0.2856  0.4694 -1.8403
  539SOL     OW 1615   2.018   1.127   2.298  0.4213  0.7886 -0.3225
  539SOL    HW1 1616   1.933   1.090   2.325 -0.2098  1.9989  0.1745
  539SOL    HW2 1617   2.014   1.162   2.202 -0.5888  0.5702  2.5750
  540SOL     OW 1618   1.780   0.754   2.975 -0.3690 -0.4766 -0.1332
  540SOL    HW1 1619   1.804   0.655   2.952  1.0434 -2.0133 -0.0502
  540SOL    HW2 1620   1.809   0.802   2.889 -2.0374  1.3140 -4.2358
  541SOL     OW 1621   0.401   0.815   2.394  0.3547  0.3293  0.2296
  541SOL    HW1 1622   0.416   0.715   2.401 -2.3669  1.2650 -0.1498
  541SOL    HW2 1623   0.306   0.833   2.419  1.4210  0.8843 -1.9241
  542SOL     OW 1624   1.330   2.639   1.783  0.5210  0.2205 -0.1041
  542SOL    HW1 1625   1.312   2.538   1.750  0.3003 -1.2762  0.3358
  542SOL    HW2 1626   1.280   2.698   1.720  4.0168 -2.6535  0.1984
  543SOL     OW 1627   0.629   2.622   0.320 -0.1786  0.3014  0.5554
  543SOL    HW1 1628   0.629   2.540   0.257 -1.0821 -2.0742 -1.7773
  543SOL    HW2 1629   0.557   2.602   0.387  0.1249 -1.2826 -2.5225
  544SOL     OW 1630   2.817   1.995   2.286  0.0788  0.0409 -0.0157
  544SOL    HW1 1631   2.742   2.066   2.295 -0.3378  0.8349 -0.0667
  544SOL    HW2 1632   2.911   2.032   2.309 -0.1579  2.9853  0.3994
  545SOL     OW 1633   1.383   1.726   1.605  0.1599 -0.0044 -0.7281
  545SOL    HW1 1634   1.369   1.816   1.558  1.7450  1.5935  0.9887
  545SOL    HW2 1635   1.292   1.692   1.634  0.2122 -0.6267  0.0631
  546SOL     OW 1636   2.897   0.395   2.739 -0.1046  0.7900 -0.0963
  546SOL    HW1 1637   2.853   0.306   2.723 -1.2221 -0.2224  0.2001
  546SOL    HW2 1638   2.996   0.389   2.710  2.5673  0.6682  1.5391
  547SOL     OW 1639   1.474   2.974   1.096 -0.0382  0.3911 -0.2157
  547SOL    HW1 1640   1.447   3.031   1.176  2.6649 -1.6789  2.5686
  547SOL    HW2 1641   1.535   2.903   1.134 -0.0866 -0.3182 -1.4565
  548SOL     OW 1642   1.306   1.982   3.042 -0.3247  0.4919 -1.0130
  548SOL    HW1 1643   1.389   1.995   0.029 -2.9360  1.9552 -2.0908
  548SOL    HW2 1644   1.276   2.073   3.011  0.6291  1.2457  0.5579
  549SOL     OW 1645   2.079   0.566   2.974  0.4472  0.3782  0.1968
  549SOL    HW1 1646   2.025   0.545   3.060 -1.3519 -1.8486 -0.3014
  549SOL    HW2 1647   2.135   0.653   2.979  0.2917  3.5791  0.1882
  550SOL     OW 1648   2.828   2.005   0.860 -0.3977 -0.1583  0.3894
  550SOL    HW1 1649   2.779   2.080   0.814 -1.8867 -2.3281  0.6030
  550SOL    HW2 1650   2.810   1.920   0.809  0.4021 -2.4183 -2.1553
  551SOL     OW 1651   1.005   0.241   1.202  0.2727 -0.6648 -0.2229
  551SOL    HW1 1652   0.911   0.274   1.227  0.5890  0.0400  2.1638
  551SOL    HW2 1653   1.015   0.215   1.104  0.1387  1.6037 -0.5608
  552SOL     OW 1654   3.049   1.640   2.850 -0.4188 -0.7135 -0.4158
  552SOL    HW1 1655   0.062   1.619   2.806 -0.7951  1.7606  2.1410
  552SOL    HW2 1656   3.050   1.607   2.952 -2.0862 -0.0906  0.4940
  553SOL     OW 1657   2.598   2.513   0.359 -0.8039  0.2666  0.2742
  553SOL    HW1 1658   2.643   2.567   0.287 -2.1422 -4.1642  1.0925
  553SOL    HW2 1659   2.504   2.547   0.373 -1.0765  0.9079  2.1994
  554SOL     OW 1660   2.138   1.093   1.420 -0.6342 -0.4436  0.3299
  554SOL    HW1 1661   2.062   1.096   1.352  2.2126 -2.2317  1.7895
  554SOL    HW2 1662   2.132   1.015   1.488  3.3100 -1.0449  1.3709
  555SOL     OW 1663   0.647   2.376   2.471  0.5195 -0.0721 -0.1495
  555SOL    HW1 1664   0.655   2.461   2.527 -0.7699 -0.9133  0.4642
  555SOL    HW2 1665   0.731   2.323   2.485  0.2282 -0.3986 -0.5166
  556SOL     OW 1666   1.188   1.387   1.743  0.1843  0.5858  0.5213
  556SOL    HW1 1667   1.274   1.387   1.804  0.9335 -0.0695 -0.9685
  556SOL    HW2 1668   1.170   1.485   1.719 -0.8641 -0.5800  3.0016
  557SOL     OW 1669   1.354   0.001   1.346  0.2988  0.5717 -0.2624
  557SOL    HW1 1670   1.389   0.094   1.320 -0.3358 -0.7468 -2.2348
  557SOL    HW2 1671   1.250   3.062   1.335 -0.1863 -1.2688 -0.0153
  558SOL     OW 1672   0.247   0.517   2.240 -0.3473  0.0146 -0.5999
  558SOL    HW1 1673   0.258   0.420   2.214 -1.2131 -0.7234  1.0720
  558SOL    HW2 1674   0.276   0.579   2.165  0.0134 -2.7401  0.4790
  559SOL     OW 1675   1.183   2.718   0.359 -0.1146  0.0134  0.7583
  559SOL    HW1 1676   1.146   2.781   0.434 -0.3310  0.1021  1.2159
  559SOL    HW2 1677   1.285   2.727   0.356  0.9855 -2.0618  1.2564
  560SOL     OW 1678   1.493   1.997   0.188  0.1192  0.2696  0.1325
  560SOL    HW1 1679   1.556   1.939   0.243  0.9902 -1.8399 -1.9310
  560SOL    HW2 1680   1.548   2.078   0.147  3.3747  1.1929 -1.2749
  561SOL     OW 1681   1.221   3.017   0.725 -0.1608 -0.3789 -0.0760
  561SOL    HW1 1682   1.218   0.033   0.672 -0.7733  1.9177 -1.1438
  561SOL    HW2 1683   1.223   3.039   0.825  2.8749  0.8394  0.1029
  562SOL     OW 1684   0.437   0.917   2.144 -0.1259 -0.1417 -0.1950
  562SOL    HW1 1685   0.522   0.922   2.089 -1.3257  0.7927 -0.5739
  562SOL    HW2 1686   0.457   0.886   2.241 -0.0486 -2.0378  0.5977
  563SOL     OW 1687   1.386   2.074   2.692  0.0044  0.1826 -0.4357
  563SOL    HW1 1688   1.396   2.144   2.621 -1.2084  2.7597 -0.6309
  563SOL    HW2 1689   1.475   2.037   2.732 -0.0118 -0.1774 -0.5143
  564SOL     OW 1690   2.494   0.789   1.278  0.2475  0.0821  0.4488
  564SOL    HW1 1691   2.405   0.830   1.252  1.8436 -1.4710  1.8754
  564SOL    HW2 1692   2.577   0.834   1.244  0.8376  0.6380  0.8216
  565SOL     OW 1693   1.316   1.131   0.334 -0.4154  0.6966  0.1533
  565SOL    HW1 1694   1.302   1.126   0.229  0.0852  0.3951 -0.6933
  565SOL    HW2 1695   1.363   1.218   0.367 -1.1561  0.0368 -0.7251
  566SOL     OW 1696   2.212   2.545   0.023  0.4576 -0.0945 -0.4505
  566SOL    HW1 1697   2.309   2.532   0.057 -2.3479 -2.1386  1.7696
  566SOL    HW2 1698   2.149   2.550   0.105  1.5756 -0.2385 -0.4930
  567SOL     OW 1699   1.650   0.892   0.916  0.1171  0.4680  0.4470
  567SOL    HW1 1700   1.731   0.956   0.914  0.8496  0.2911  1.8859
  567SOL    HW2 1701   1.659   0.831   0.998 -0.0267  0.5018  0.4783
  568SOL     OW 1702   1.210   1.581   2.450  0.0454  0.3400  0.1221
  568SOL    HW1 1703   1.141   1.544   2.516  1.5001  0.4255 -2.1162
  568SOL    HW2 1704   1.244   1.671   2.480  1.8985 -0.8293  1.6724
  569SOL     OW 1705   2.068   1.749   0.822  0.0770 -0.3741 -0.9443
  569SOL    HW1 1706   2.144   1.689   0.788  1.9853  0.4666  0.1021
  569SOL    HW2 1707   2.071   1.748   0.924  1.6342 -0.5090 -0.2630
  570SOL     OW 1708   2.595   2.152   2.296 -0.1904  0.6722 -0.4259
  570SOL    HW1 1709   2.592   2.250   2.317 -2.9965 -0.2143 -2.1619
  570SOL    HW2 1710   2.522   2.102   2.349 -3.9214 -0.8916  0.7914
  571SOL     OW 1711   2.716   1.934   1.747 -0.5033  0.4192  0.1807
  571SOL    HW1 1712   2.720   1.954   1.842  0.0487 -1.6642 -1.6649
  571SOL    HW2 1713   2.663   1.997   1.689  0.2395  2.6877  1.5390
  572SOL     OW 1714   1.498   2.321   2.828 -0.0733 -0.3919 -0.3223
  572SOL    HW1 1715   1.464   2.415   2.813 -0.9987  1.2092  0.9083
  572SOL    HW2 1716   1.568   2.290   2.760 -2.0202 -0.9960  1.3838
  573SOL     OW 1717   1.618   2.118   0.990  0.4122 -0.4972 -0.0797
  573SOL    HW1 1718   1.549   2.045   0.991 -1.3058 -0.4348  1.0722
  573SOL    HW2 1719   1.704   2.084   0.943 -0.7870 -0.6811  0.7909
  574SOL     OW 1720   1.127   2.788   1.293 -0.3943  0.0051 -0.4186
  574SOL    HW1 1721   1.061   2.742   1.355 -0.9867 -0.9275  0.4812
  574SOL    HW2 1722   1.110   2.890   1.291 -2.6656 -0.7460  1.0943
  575SOL     OW 1723   0.809   0.441   0.956 -0.1802  0.2093 -0.0689
  575SOL    HW1 1724   0.769   0.347   0.952 -1.0697  1.8021  0.4260
  575SOL    HW2 1725   0.905   0.443   0.931 -4.9899 -1.0511 -1.3338
  576SOL     OW 1726   2.344   0.354   1.295  0.6360  0.0284 -0.7356
  576SOL    HW1 1727   2.400   0.426   1.267 -0.7679 -1.3038  1.3925
  576SOL    HW2 1728   2.389   0.304   1.368  0.5126 -1.2512 -2.7349
  577SOL     OW 1729   2.271   0.235   2.720  0.5968 -0.0583  0.2500
  577SOL    HW1 1730   2.332   0.319   2.721 -2.3750  1.7057  1.1000
  577SOL    HW2 1731   2.181   0.260   2.677 -1.2868  1.0839  0.3269
  578SOL     OW 1732   1.841   1.841   2.009 -0.0826 -0.3056  0.2157
  578SOL    HW1 1733   1.807   1.751   2.033  2.6023  3.6315 -2.6503
  578SOL    HW2 1734   1.816   1.855   1.910  1.4349 -0.0538  0.7628
  579SOL     OW 1735   0.639   1.745   1.118 -0.4150 -0.3802  0.3032
  579SOL    HW1 1736   0.638   1.819   1.047 -1.9170  3.6792 -2.1103
  579SOL    HW2 1737   0.695   1.661   1.086  2.2380 -3.3522 -1.3861
  580SOL     OW 1738   1.526   3.021   2.764 -0.0623  0.0698  0.5931
  580SOL    HW1 1739   1.425   3.015   2.765 -1.6769  0.4072 -2.6568
  580SOL    HW2 1740   1.566   2.991   2.674  1.1226 -0.6851 -0.0601
  581SOL     OW 1741   0.685   0.688   2.097 -0.1350  0.5372  0.1766
  581SOL    HW1 1742   0.749   0.651   2.029 -0.8611  2.3783 -0.3419
  581SOL    HW2 1743   0.715   0.674   2.195 -0.1956  1.3761  0.7076
  582SOL     OW 1744   0.302   0.891   0.674  0.0444  0.2994  0.1319
  582SOL    HW1 1745   0.348   0.912   0.761 -2.7111 -1.7083 -0.1207
  582SOL    HW2 1746   0.301   0.975   0.618  0.3773  0.3805 -0.9189
  583SOL     OW 1747   0.790   1.837   1.929  0.3102 -0.0200  0.1366
  583SOL    HW1 1748   0.721   1.889   1.989  0.7437  1.4756  1.7484
  583SOL    HW2 1749   0.883   1.840   1.966  0.8529  3.3221  1.6124
  584SOL     OW 1750   2.350   2.618   0.375 -0.1985 -0.0788 -0.2171
  584SOL    HW1 1751   2.256   2.581   0.395 -0.7333 -0.1145  1.8778
  584SOL    HW2 1752   2.345   2.716   0.355  1.3945 -0.4114 -1.7112
  585SOL     OW 1753   2.136   0.579   2.702  0.2706 -0.1918 -0.0648
  585SOL    HW1 1754   2.102   0.658   2.645 -0.6343 -2.5425 -0.7235
  585SOL    HW2 1755   2.131   0.604   2.799  1.6884 -3.5301 -0.1151
  586SOL     OW 1756   0.485   1.403   0.344  0.5265 -0.4053 -0.1556
  586SOL    HW1 1757   0.538   1.446   0.417 -2.2429 -2.8050 -0.3980
  586SOL    HW2 1758   0.413   1.345   0.386 -0.4700 -0.1926  1.8060
  587SOL     OW 1759   1.528   1.875   1.020  0.5092  0.3442 -0.3906
  587SOL    HW1 1760   1.627   1.854   1.035  0.5927  0.1796  3.5959
  587SOL    HW2 1761   1.475   1.827   1.093  0.9978  1.4834 -1.7242
  588SOL     OW 1762   0.410   0.443   1.219 -0.5320  0.8017  0.4675
  588SOL    HW1 1763   0.508   0.461   1.188 -0.5442 -0.1396 -2.0704
  588SOL    HW2 1764   0.363   0.404   1.141 -0.4872  1.0547  0.6965
  589SOL     OW 1765   1.710   2.810   1.159 -0.0054 -0.3073  0.0839
  589SOL    HW1 1766   1.721   2.814   1.054  1.3006  0.2758  0.0730
  589SOL    HW2 1767   1.798   2.807   1.208 -0.6557 -0.7325 -0.4347
  590SOL     OW 1768   1.462   0.898   0.297 -0.4052  0.0299 -0.4084
  590SOL    HW1 1769   1.514   0.906   0.206 -1.6674  0.8180  0.3592
  590SOL    HW2 1770   1.407   0.981   0.320  0.8935 -1.3826 -1.4113
  591SOL     OW 1771   2.221   2.173   2.226  0.2743  0.2530 -0.2364
  591SOL    HW1 1772   2.219   2.140   2.321 -0.5980  0.4756  1.1357
  591SOL    HW2 1773   2.265   2.110   2.157 -1.9766 -2.0563 -1.3071
  592SOL     OW 1774   1.525   2.027   1.318 -0.5400  0.1722 -0.4525
  592SOL    HW1 1775   1.509   1.928   1.329 -0.1885  0.7744 -0.5993
  592SOL    HW2 1776   1.488   2.058   1.233  0.7650 -0.1424  0.0730
  593SOL     OW 1777   0.590   0.101   0.909  0.7861 -0.3820 -0.3309
  593SOL    HW1 1778   0.633   0.063   0.824 -2.6774 -0.2547  1.2984
  593SOL    HW2 1779   0.543   0.191   0.892 -4.0010  1.7806 -1.1895
  594SOL     OW 1780   2.900   0.874   1.882  0.3794  0.1599 -0.2298
  594SOL    HW1 1781   2.864   0.951   1.940 -0.5950 -1.5009  1.6063
  594SOL    HW2 1782   3.003   0.871   1.900  2.9288  0.8920  0.5277
  595SOL     OW 1783   0.069   2.839   0.567  0.0036  0.9220 -0.3827
  595SOL    HW1 1784   0.010   2.759   0.549  1.1254 -0.6497  1.0249
  595SOL    HW2 1785   0.073   2.867   0.666 -0.8976  1.5043 -3.2284
  596SOL     OW 1786   0.022   0.287   1.558 -0.2080 -0.1622 -0.0488
  596SOL    HW1 1787   0.024   0.382   1.596  1.8314  0.8555  0.6282
  596SOL    HW2 1788   0.001   0.290   1.461  2.8195 -2.3868  1.3150
  597SOL     OW 1789   2.218   0.874   0.343  0.3014 -0.2504 -0.2188
  597SOL    HW1 1790   2.245   0.872   0.244 -0.5367 -0.3564 -0.2131
  597SOL    HW2 1791   2.252   0.964   0.386  3.2343 -2.3777  0.2110
  598SOL     OW 1792   0.577   3.033   1.969  0.1071  0.8362 -0.4278
  598SOL    HW1 1793   0.490   0.011   1.981  0.5561  0.3237 -2.8724
  598SOL    HW2 1794   0.589   2.969   2.049  1.5075  0.7633  1.1859
  599SOL     OW 1795   2.481   1.823   0.201  0.3396  0.0355  0.3194
  599SOL    HW1 1796   2.450   1.919   0.228  0.0049 -0.6630  4.2514
  599SOL    HW2 1797   2.550   1.824   0.124  2.1432  1.1112  0.1103
  600SOL     OW 1798   1.042   0.998   0.097  0.3752  0.3014 -0.6014
  600SOL    HW1 1799   0.993   1.059   0.026  0.5857  0.7136 -0.4781
  600SOL    HW2 1800   0.994   1.002   0.186 -0.1958 -1.0584  0.9609
  601SOL     OW 1801   1.279   1.139   0.047 -0.1950 -0.1827  0.6621
  601SOL    HW1 1802   1.275   1.237   0.036 -0.2136 -0.6784  1.2899
  601SOL    HW2 1803   1.190   1.095   0.033  0.5225 -0.3448 -1.5756
  602SOL     OW 1804   0.930   3.020   1.513  0.5599 -0.4505  0.3679
  602SOL    HW1 1805   0.940   2.932   1.564 -2.2565 -0.1088 -0.5426
  602SOL    HW2 1806   0.876   0.013   1.565 -1.7398  1.3909  0.2034
  603SOL     OW 1807   0.822   2.872   2.379 -0.3065  0.1621  0.5221
  603SOL    HW1 1808   0.787   2.858   2.471  1.5552 -0.6213  0.4593
  603SOL    HW2 1809   0.880   2.955   2.369 -2.5644  0.4485  0.6551
  604SOL     OW 1810   2.812   2.924   2.046  0.2759  0.1791 -0.3203
  604SOL    HW1 1811   2.836   2.918   2.144 -0.3161 -0.4771  2.7258
  604SOL    HW2 1812   2.782   2.837   2.009  0.4985 -1.3546 -1.2714
  605SOL     OW 1813   2.587   2.586   1.275  0.2105 -0.1632  0.1109
  605SOL    HW1 1814   2.564   2.525   1.353  0.6226  2.5663 -0.6883
  605SOL    HW2 1815   2.604   2.687   1.299  0.0355  3.0710 -0.6978
  606SOL     OW 1816   3.027   1.923   2.823 -0.9616 -0.2139 -0.1377
  606SOL    HW1 1817   3.009   1.994   2.898  0.8110  1.4319 -0.5726
  606SOL    HW2 1818   3.021   1.823   2.848  0.0450 -1.1200  1.6780
  607SOL     OW 1819   0.788   0.284   0.697  0.4403 -0.2682  0.1321
  607SOL    HW1 1820   0.755   0.379   0.680  2.8842  1.3805 -1.0002
  607SOL    HW2 1821   0.884   0.287   0.732 -1.0912  1.2194  2.3529
  608SOL     OW 1822   1.525   1.722   2.179  0.1780  0.0007  0.2116
  608SOL    HW1 1823   1.448   1.670   2.144  0.1003  0.4416  3.1024
  608SOL    HW2 1824   1.588   1.655   2.220  0.4166 -1.0621 -2.6505
  609SOL     OW 1825   2.931   0.493   0.989  0.6471  0.4042  0.2605
  609SOL    HW1 1826   2.966   0.430   0.916  0.0657  1.2553  2.5910
  609SOL    HW2 1827   2.999   0.499   1.062  2.0309  2.2925  0.7365
  610SOL     OW 1828   0.829   2.351   0.003 -0.3192  0.0835  0.1380
  610SOL    HW1 1829   0.884   2.413   3.017 -0.8960  1.6688  1.4055
  610SOL    HW2 1830   0.878   2.263   0.021  1.2339  0.5363 -2.6079
  611SOL     OW 1831   1.772   1.220   0.601  0.3437 -0.2414 -0.0376
  611SOL    HW1 1832   1.814   1.200   0.510 -0.3101 -0.0669  0.1391
  611SOL    HW2 1833   1.685   1.163   0.605 -3.3110  0.6440 -2.1756
  612SOL     OW 1834   0.995   2.559   2.469 -0.3901  0.1935 -0.5882
  612SOL    HW1 1835   0.985   2.646   2.515  0.2775  0.2818  1.5959
  612SOL    HW2 1836   0.949   2.568   2.379  2.4319  0.4669  0.1400
  613SOL     OW 1837   1.194   1.712   0.464  0.5475 -0.4003 -0.6688
  613SOL    HW1 1838   1.277   1.706   0.517 -1.1421  0.3919  3.5899
  613SOL    HW2 1839   1.126   1.775   0.503  2.2897  0.2130  0.2777
  614SOL     OW 1840   2.577   2.261   1.714 -0.1376 -0.5327 -0.0938
  614SOL    HW1 1841   2.570   2.198   1.639  2.7032  3.2817  0.1780
  614SOL    HW2 1842   2.597   2.223   1.804  0.8808 -0.5025 -0.4130
  615SOL     OW 1843   2.506   1.216   0.009 -0.1898 -0.3397 -0.0705
  615SOL    HW1 1844   2.556   1.303   0.007 -1.8108  0.2942 -1.4574
  615SOL    HW2 1845   2.421   1.214   3.030  0.5495  0.1627 -0.1547
  616SOL     OW 1846   1.538   0.069   0.877  0.6298  0.0489  0.0857
  616SOL    HW1 1847   1.517   3.068   0.941 -0.6615 -1.6820 -2.3626
  616SOL    HW2 1848   1.559   0.156   0.926 -0.3887  1.1093  0.4995
  617SOL     OW 1849   0.534   1.206   2.778  0.2414  0.1167 -0.1358
  617SOL    HW1 1850   0.592   1.277   2.733  0.2255  0.4946 -2.2685
  617SOL    HW2 1851   0.498   1.145   2.704  0.1504  0.5518  1.9555
  618SOL     OW 1852   0.271   0.710   1.707  0.7084 -0.1979  0.1919
  618SOL    HW1 1853   0.297   0.787   1.640 -0.5733  0.3231 -1.2980
  618SOL    HW2 1854   0.356   0.683   1.761  0.5580  0.9561 -1.3042
  619SOL     OW 1855   2.769   0.886   1.636 -0.2032 -0.0712 -0.4168
  619SOL    HW1 1856   2.820   0.801   1.605  3.1880 -2.4934 -2.7497
  619SOL    HW2 1857   2.812   0.913   1.723  1.1526  0.1872  0.6488
  620SOL     OW 1858   2.003   1.182   0.007 -0.5995 -0.1355  0.4844
  620SOL    HW1 1859   1.951   1.102   0.037 -1.0546  1.1048 -1.4613
  620SOL    HW2 1860   1.965   1.271   0.053 -1.3487  4.0466  1.7788
  621SOL     OW 1861   2.267   2.997   1.136  0.5018 -0.1299  0.2389
  621SOL    HW1 1862   2.262   0.024   1.108  0.3868  2.5480 -1.1392
  621SOL    HW2 1863   2.305   2.995   1.226 -0.4486  0.1612 -4.8576
  622SOL     OW 1864   1.403   0.610   2.146 -0.3153 -0.3419 -0.6357
  622SOL    HW1 1865   1.467   0.658   2.084 -1.0652 -0.7959  0.0788
  622SOL    HW2 1866   1.320   0.670   2.167  0.4971 -0.1248 -1.4979
  623SOL     OW 1867   0.966   0.789   2.775  0.3029  0.3925 -0.2878
  623SOL    HW1 1868   0.866   0.796   2.755  0.3193 -1.1107 -0.6404
  623SOL    HW2 1869   1.020   0.844   2.712  2.1523  0.5584 -0.1688
  624SOL     OW 1870   1.961   0.207   0.639 -0.3070  0.3099 -0.0622
  624SOL    HW1 1871   1.921   0.134   0.578 -1.0610 -4.4331 -2.3462
  624SOL    HW2 1872   1.981   0.295   0.587  1.3124  1.3113 -2.9889
  625SOL     OW 1873   0.632   1.533   0.546  0.4834 -0.1878  0.3577
  625SOL    HW1 1874   0.709   1.464   0.554  2.2236  0.4085  2.3101
  625SOL    HW2 1875   0.590   1.560   0.636  0.7969 -1.3222  0.9320
  626SOL     OW 1876   1.745   1.122   2.345 -0.0865 -0.7147  0.0525
  626SOL    HW1 1877   1.709   1.128   2.249 -0.5345  0.6267 -0.0934
  626SOL    HW2 1878   1.724   1.204   2.401  4.0278  0.6234  5.2482
  627SOL     OW 1879   0.528   0.406   1.773  0.0549 -0.2932  0.5566
  627SOL    HW1 1880   0.593   0.326   1.777  1.2576  0.0207 -2.6823
  627SOL    HW2 1881   0.433   0.362   1.762 -2.2993 -1.1705  1.2672
  628SOL     OW 1882   2.060   0.498   2.436  0.1726  0.6591  0.2859
  628SOL    HW1 1883   2.031   0.527   2.339  3.1703  5.3521 -1.5674
  628SOL    HW2 1884   2.163   0.486   2.444  0.9161 -0.5254  0.2169
  629SOL     OW 1885   0.858   1.427   0.115 -0.6361  0.0081  0.5518
  629SOL    HW1 1886   0.841   1.515   0.167  1.7271 -0.5825  1.2204
  629SOL    HW2 1887   0.923   1.434   0.033  0.2030  1.3789 -1.0855
  630SOL     OW 1888   0.832   0.315   2.028 -0.2935 -0.1317 -0.2161
  630SOL    HW1 1889   0.823   0.409   1.983 -1.4713  0.1002 -0.4742
  630SOL    HW2 1890   0.800   0.334   2.120  2.7339 -0.6739  3.6661
  631SOL     OW 1891   2.544   1.057   1.014  0.1463 -0.0405 -0.8680
  631SOL    HW1 1892   2.566   1.136   1.079  2.7995 -1.9251  0.4680
  631SOL    HW2 1893   2.470   1.082   0.949 -0.8387  1.1929  1.1771
  632SOL     OW 1894   2.429   1.438   0.812 -0.6855  0.1181  0.1064
  632SOL    HW1 1895   2.512   1.446   0.748  2.9588 -0.9163 -2.1312
  632SOL    HW2 1896   2.363   1.499   0.767 -0.8036 -3.3394 -2.0706
  633SOL     OW 1897   0.949   1.254   0.869  0.2668 -0.0910 -0.2273
  633SOL    HW1 1898   0.920   1.162   0.898 -2.1576  1.7060  0.0257
  633SOL    HW2 1899   0.888   1.296   0.801  0.5778  2.0240  0.6229
  634SOL     OW 1900   1.604   0.055   0.596 -0.2442 -0.1433 -0.1199
  634SOL    HW1 1901   1.564   0.139   0.554 -0.5186  0.3199  0.6640
  634SOL    HW2 1902   1.590   0.049   0.699 -0.3631 -1.0603  2.7791
  635SOL     OW 1903   1.861   0.703   1.356 -0.3207 -0.1428 -0.0538
  635SOL    HW1 1904   1.969   0.700   1.348 -0.0246  1.9978 -0.2039
  635SOL    HW2 1905   1.836   0.751   1.435 -0.7527  1.6823 -1.6191
  636SOL     OW 1906   1.262   0.795   0.622  0.3150 -0.1528 -0.0358
  636SOL    HW1 1907   1.321   0.830   0.697  1.0583 -0.8922 -0.3137
  636SOL    HW2 1908   1.299   0.703   0.589 -2.7339 -2.4862  1.3617
  637SOL     OW 1909   1.600   2.204   0.002  0.0892 -0.0326 -0.1591
  637SOL    HW1 1910   1.567   2.250   2.992  1.2469 -0.6855  1.3519
  637SOL    HW2 1911   1.659   2.121   3.046  0.7070 -3.1843 -1.8326
  638SOL     OW 1912   0.982   2.998   2.798 -0.1614 -0.1344 -0.0010
  638SOL    HW1 1913   1.010   3.036   2.891 -1.0814  1.0534 -2.0353
  638SOL    HW2 1914   0.891   3.033   2.772 -0.4681 -2.6503  0.3832
  639SOL     OW 1915   1.330   2.037   1.581 -0.7138  0.1334 -0.1973
  639SOL    HW1 1916   1.358   2.125   1.542  2.4611  0.5247 -1.6328
  639SOL    HW2 1917   1.257   1.997   1.518 -1.5434  2.5074 -0.8139
  640SOL     OW 1918   0.481   2.888   2.825  0.0609 -0.0382  0.9453
  640SOL    HW1 1919   0.462   2.851   2.735 -1.9842  1.5442  1.0313
  640SOL    HW2 1920   0.402   2.939   2.860 -1.1576  2.1229 -2.0903
  641SOL     OW 1921   0.157   0.612   0.313 -0.0071  0.1270  0.3020
  641SOL    HW1 1922   0.059   0.638   0.317  2.4866  0.0370  0.2883
  641SOL    HW2 1923   0.201   0.621   0.401  1.2316  1.3704 -1.3150
  642SOL     OW 1924   0.285   1.627   1.244 -0.2052 -0.1229 -0.6672
  642SOL    HW1 1925   0.334   1.608   1.333  3.3328  0.0083  1.0229
  642SOL    HW2 1926   0.316   1.570   1.166 -0.7043 -2.7458 -0.5933
  643SOL     OW 1927   0.500   1.730   2.559 -0.1010 -0.2852  0.0537
  643SOL    HW1 1928   0.564   1.722   2.482 -0.1505 -0.6377  0.9616
  643SOL    HW2 1929   0.410   1.679   2.535 -2.6338 -1.3139 -1.1313
  644SOL     OW 1930   1.566   2.478   0.145 -0.2424 -0.1887  0.4074
  644SOL    HW1 1931   1.605   2.417   0.071  0.4011 -1.2755  0.4573
  644SOL    HW2 1932   1.482   2.525   0.114 -1.4357 -2.7324  0.9282
  645SOL     OW 1933   1.745   2.139   1.731 -0.2131  0.0422 -0.0820
  645SOL    HW1 1934   1.662   2.163   1.786  0.7062 -1.0235  0.2690
  645SOL    HW2 1935   1.822   2.190   1.765  0.8257  2.6436 -4.4744
  646SOL     OW 1936   1.001   2.555   0.245  0.4365 -0.4516  0.2761
  646SOL    HW1 1937   1.060   2.634   0.272 -1.7211  0.4418  1.1960
  646SOL    HW2 1938   0.938   2.598   0.174  0.5738 -1.5467  1.7262
  647SOL     OW 1939   0.322   2.839   2.009  0.2539 -0.6277 -0.2051
  647SOL    HW1 1940   0.281   2.878   2.094  0.4438  2.7228  0.3308
  647SOL    HW2 1941   0.393   2.772   2.042 -0.0358 -1.6170  2.7504
  648SOL     OW 1942   2.791   1.038   0.874 -0.1895  0.1311  0.1696
  648SOL    HW1 1943   2.809   0.943   0.899 -0.0503 -0.4335 -0.5335
  648SOL    HW2 1944   2.709   1.076   0.925 -0.0027  0.2510 -0.1543
  649SOL     OW 1945   2.043   2.783   2.710  0.3074 -0.0115  0.2058
  649SOL    HW1 1946   2.018   2.755   2.616 -0.6518  2.1412  1.2415
  649SOL    HW2 1947   2.025   2.879   2.722  1.0721 -1.3521 -0.3417
  650SOL     OW 1948   2.214   1.540   1.863 -0.2326  0.1093  0.2450
  650SOL    HW1 1949   2.166   1.469   1.806 -1.9431 -0.1272  1.5502
  650SOL    HW2 1950   2.306   1.569   1.829 -2.8748  2.8379  0.6925
  651SOL     OW 1951   1.240   1.584   2.868 -0.8503  0.1977 -0.7893
  651SOL    HW1 1952   1.162   1.646   2.866  1.0116  0.1361 -0.0201
  651SOL    HW2 1953   1.324   1.637   2.883 -0.5803  0.1965  1.0428
  652SOL     OW 1954   0.509   2.945   2.435 -0.4074  0.3922 -0.3800
  652SOL    HW1 1955   0.528   2.877   2.512 -1.3534 -0.3186  0.5756
  652SOL    HW2 1956   0.482   3.032   2.480 -3.0393 -0.8121 -1.3429
  653SOL     OW 1957   2.318   1.934   0.979 -0.1026  0.0379 -0.1413
  653SOL    HW1 1958   2.269   1.873   1.043  0.8604  2.2665  0.0058
  653SOL    HW2 1959   2.321   2.029   1.010  1.1576 -1.6715 -0.2588
  654SOL     OW 1960   2.402   2.859   2.113  0.0637  0.1386 -0.3132
  654SOL    HW1 1961   2.327   2.865   2.181 -0.3658  2.2508  0.8540
  654SOL    HW2 1962   2.430   2.953   2.085  0.4574  0.9822  0.7252
  655SOL     OW 1963   2.528   2.172   1.131 -0.3482 -0.0295 -0.4604
  655SOL    HW1 1964   2.577   2.257   1.108 -0.4558 -2.4031 -2.4104
  655SOL    HW2 1965   2.433   2.172   1.085 -2.5967 -0.1240 -1.3212
  656SOL     OW 1966   2.553   1.880   2.828  0.3051  0.5718 -0.1057
  656SOL    HW1 1967   2.592   1.900   2.732 -1.1007  3.3562 -2.3491
  656SOL    HW2 1968   2.621   1.893   2.896 -0.7313 -1.2894 -2.3161
  657SOL     OW 1969   0.111   1.145   0.614  0.3978  0.0235  0.1885
  657SOL    HW1 1970   0.037   1.148   0.538 -1.0699  0.5468 -2.0204
  657SOL    HW2 1971   0.075   1.115   0.706  0.6103 -0.6301  0.7148
  658SOL     OW 1972   1.446   1.462   1.566  0.0684  0.7128  0.3634
  658SOL    HW1 1973   1.497   1.460   1.478  0.6043 -3.3602 -0.2082
  658SOL    HW2 1974   1.451   1.554   1.608 -0.3159 -2.4145  0.0343
  659SOL     OW 1975   1.080   3.050   1.300 -0.0137 -0.3645 -0.0092
  659SOL    HW1 1976   1.049   0.059   1.250  0.7739 -1.8357  1.4231
  659SOL    HW2 1977   1.025   3.041   1.387  0.1199 -3.3708  2.0090
  660SOL     OW 1978   2.307   0.762   0.934  0.0193 -0.5089  0.3094
  660SOL    HW1 1979   2.404   0.763   0.903 -1.5435  1.5840  0.2597
  660SOL    HW2 1980   2.286   0.660   0.947  1.8680 -2.1962 -0.0234
  661SOL     OW 1981   0.537   1.787   0.220  0.3203  0.0702 -0.2513
  661SOL    HW1 1982   0.632   1.748   0.227 -0.4165  0.2226  2.9971
  661SOL    HW2 1983   0.514   1.848   0.140  1.1504 -0.1531 -1.9489
  662SOL     OW 1984   2.254   0.772   2.174  0.0335 -0.0183  0.1085
  662SOL    HW1 1985   2.304   0.718   2.246 -0.4604 -0.2368 -2.7678
  662SOL    HW2 1986   2.323   0.817   2.116  0.0359  1.0951 -0.8701
  663SOL     OW 1987   2.031   1.310   1.018 -0.3440 -0.1830  0.2498
  663SOL    HW1 1988   2.021   1.315   0.918  0.4271 -0.8865 -2.9944
  663SOL    HW2 1989   2.119   1.258   1.040  1.6739 -2.5773  0.0780
  664SOL     OW 1990   0.244   3.042   1.142  0.3831  0.9396 -0.2354
  664SOL    HW1 1991   0.282   3.043   1.047  0.9782  0.2974 -3.0495
  664SOL    HW2 1992   0.265   2.945   1.182  0.5492 -1.7417  1.3299
  665SOL     OW 1993   1.465   0.409   2.815 -0.2952  0.4435  0.2450
  665SOL    HW1 1994   1.462   0.462   2.901  0.7472 -1.9434 -0.6924
  665SOL    HW2 1995   1.442   0.469   2.734  1.1298  2.3746  0.1978
  666SOL     OW 1996   0.299   0.254   2.197  0.0658 -0.0481 -0.4379
  666SOL    HW1 1997   0.262   0.203   2.279 -1.8585 -1.1386 -1.7514
  666SOL    HW2 1998   0.305   0.194   2.116  1.2135 -0.4836  1.8952
  667SOL     OW 1999   1.633   1.789   1.504  0.0647 -0.7214 -0.1644
  667SOL    HW1 2000   1.704   1.715   1.516 -0.7276 -2.2280  0.9557
  667SOL    HW2 2001   1.576   1.805   1.587 -0.9002 -0.5337  0.5937
  668SOL     OW 2002   0.115   1.506   2.288  0.9101  0.0979 -0.2430
  668SOL    HW1 2003   0.121   1.404   2.299  2.4749  1.6708  0.9938
  668SOL    HW2 2004   0.111   1.535   2.192  0.6666 -0.1336  1.8012
  669SOL     OW 2005   2.495   2.504   0.049  0.0592  0.2925 -0.4386
  669SOL    HW1 2006   2.554   2.442   3.059  0.8227 -0.6883 -1.9897
  669SOL    HW2 2007   2.553   2.577   0.092 -3.2761 -0.2816  0.7085
  670SOL     OW 2008   2.595   1.373   1.958  0.6442  0.3212 -0.3157
  670SOL    HW1 2009   2.557   1.279   1.926 -2.4386 -2.8391  1.4232
  670SOL    HW2 2010   2.689   1.384   1.990 -0.8979  0.2121 -3.1452
  671SOL     OW 2011   2.482   1.849   0.663 -0.2063 -0.2908 -0.4443
  671SOL    HW1 2012   2.579   1.847   0.698  1.6843 -3.0720  0.4821
  671SOL    HW2 2013   2.447   1.938   0.682  0.3853  0.2396  0.1986
  672SOL     OW 2014   1.309   1.111   2.015  0.4420 -0.3368 -0.2039
  672SOL    HW1 2015   1.356   1.050   1.940 -0.6383 -0.5788 -1.9652
  672SOL    HW2 2016   1.229   1.068   2.061 -0.1315  1.7823 -0.7418
  673SOL     OW 2017   2.637   2.058   1.522 -0.0450 -0.1666 -0.5140
  673SOL    HW1 2018   2.557   2.059   1.458  1.0607 -0.9470  1.0728
  673SOL    HW2 2019   2.727   2.042   1.480 -2.4526 -0.0015  1.9251
  674SOL     OW 2020   1.118   1.656   1.653 -0.0244  0.0650  0.1444
  674SOL    HW1 2021   1.053   1.704   1.718 -1.3835 -1.3662  1.4455
  674SOL    HW2 2022   1.069   1.640   1.567  0.0080  1.5825  1.5416
  675SOL     OW 2023   0.030   0.845   1.238 -0.4997  0.1103  0.1515
  675SOL    HW1 2024   0.104   0.784   1.199  0.5181 -5.5707  0.2987
  675SOL    HW2 2025   3.024   0.793   1.277  1.8854  2.0024 -0.6583
  676SOL     OW 2026   2.930   1.037   1.308 -0.1849  0.2827 -0.6008
  676SOL    HW1 2027   3.009   0.978   1.294 -0.2258  1.0827 -0.7573
  676SOL    HW2 2028   2.838   0.985   1.304 -0.3981 -0.8419 -0.8364
  677SOL     OW 2029   2.014   1.330   2.497 -0.1842 -0.3283 -0.1176
  677SOL    HW1 2030   2.000   1.260   2.422 -0.6582 -0.2433 -1.2093
  677SOL    HW2 2031   2.089   1.391   2.473 -2.1908  0.8206  2.1845
  678SOL     OW 2032   2.676   1.677   1.146  0.7112  0.0531  0.5621
  678SOL    HW1 2033   2.721   1.628   1.069  3.0473 -0.0991  1.3096
  678SOL    HW2 2034   2.702   1.771   1.136  0.1152 -1.5430 -0.9824
  679SOL     OW 2035   0.433   2.614   0.501  0.2874  0.1196  0.2099
  679SOL    HW1 2036   0.495   2.620   0.583  1.1480 -1.8739  2.3110
  679SOL    HW2 2037   0.362   2.546   0.517  0.5535  1.8990  1.8258
  680SOL     OW 2038   0.184   1.846   1.036 -0.1330 -0.0438 -0.3420
  680SOL    HW1 2039   0.199   1.930   1.090  0.4830 -0.5918  0.6625
  680SOL    HW2 2040   0.193   1.774   1.103 -0.6274 -2.0045 -1.5049
  681SOL     OW 2041   1.035   0.182   0.926 -0.3432  0.2434  0.6540
  681SOL    HW1 2042   1.057   0.255   0.859  2.2218 -0.1252 -1.0401
  681SOL    HW2 2043   1.113   0.120   0.949  0.3950 -0.2025  2.4242
  682SOL     OW 2044   1.924   2.852   1.631 -0.1010 -0.3124 -0.0772
  682SOL    HW1 2045   1.927   2.746   1.620 -2.7672 -1.6253 -1.9201
  682SOL    HW2 2046   1.892   2.892   1.547  2.1455 -2.7566 -0.3364
  683SOL     OW 2047   2.419   1.473   1.569  0.3437  0.0356  0.2275
  683SOL    HW1 2048   2.454   1.543   1.506  2.9921  0.1274  1.0923
  683SOL    HW2 2049   2.439   1.514   1.659  1.5027 -0.9014  0.6319
  684SOL     OW 2050   2.851   1.538   1.778  0.1121  0.5241 -0.0920
  684SOL    HW1 2051   2.788   1.579   1.711  1.3883 -3.0808  3.7845
  684SOL    HW2 2052   2.936   1.592   1.786 -1.2302  1.1257 -1.1794
  685SOL     OW 2053   1.558   1.602   0.202  0.5588 -0.0526 -0.0386
  685SOL    HW1 2054   1.616   1.676   0.238  0.2751 -0.2538  0.4197
  685SOL    HW2 2055   1.574   1.585   0.104  0.7859 -0.4983 -1.6731
  686SOL     OW 2056   2.946   0.642   1.590  0.2343 -0.3131  0.5199
  686SOL    HW1 2057   3.029   0.633   1.646 -2.5917  0.6946 -2.2017
  686SOL    HW2 2058   2.889   0.560   1.595  2.7102  1.5562 -0.3715
  687SOL     OW 2059   1.642   0.205   2.795  0.1414 -0.3745 -0.2607
  687SOL    HW1 2060   1.586   0.123   2.818  0.7773  0.4285 -0.0866
  687SOL    HW2 2061   1.578   0.285   2.798  3.2426 -1.7619 -0.4198
  688SOL     OW 2062   1.281   1.840   2.505  0.4073 -0.7042  0.2384
  688SOL    HW1 2063   1.358   1.873   2.560  0.5940  2.0104  1.4670
  688SOL    HW2 2064   1.242   1.906   2.438 -1.2944 -0.2797  1.3870
  689SOL     OW 2065   2.064   1.347   1.738  0.0730 -0.1076 -0.2352
  689SOL    HW1 2066   2.090   1.250   1.763 -1.9763 -3.9932  0.9643
  689SOL    HW2 2067   2.062   1.358   1.636 -3.1593 -0.5244 -1.8931
  690SOL     OW 2068   2.197   2.315   1.403  0.6163  0.3600 -0.5230
  690SOL    HW1 2069   2.220   2.291   1.502 -1.0677  0.3287  0.2584
  690SOL    HW2 2070   2.106   2.276   1.382 -0.7577  0.1756  1.4320
  691SOL     OW 2071   0.313   1.710   0.518  0.1239 -0.0629 -0.5064
  691SOL    HW1 2072   0.385   1.694   0.451 -0.2324  0.1814 -0.8091
  691SOL    HW2 2073   0.360   1.752   0.600  0.3807 -1.0927 -1.3658
  692SOL     OW 2074   2.907   2.742   2.605  0.0391 -0.1363 -0.3202
  692SOL    HW1 2075   2.812   2.758   2.576  2.3052  0.9164 -2.6144
  692SOL    HW2 2076   2.966   2.682   2.547 -1.3789  1.2670  0.3104
  693SOL     OW 2077   0.089   1.551   2.017 -0.0906 -0.4461 -0.5217
  693SOL    HW1 2078   0.055   1.604   1.938  0.2974 -0.2876  1.1959
  693SOL    HW2 2079   0.105   1.453   1.997  1.2104  3.3597 -0.4187
  694SOL     OW 2080   2.484   0.186   2.106 -0.6682  0.1984  1.0808
  694SOL    HW1 2081   2.584   0.201   2.084  2.0358  0.2312  1.4532
  694SOL    HW2 2082   2.437   0.279   2.114 -0.0402 -0.9313 -0.5384
  695SOL     OW 2083   1.231   0.807   2.254 -0.0878  0.1913 -0.2395
  695SOL    HW1 2084   1.306   0.853   2.307  2.1909 -0.1039  1.4150
  695SOL    HW2 2085   1.179   0.873   2.200  0.7148  0.8975  2.6173
  696SOL     OW 2086   2.192   2.896   1.586  0.1586  0.2335 -0.1254
  696SOL    HW1 2087   2.204   2.928   1.679 -2.8549 -0.5271  0.6755
  696SOL    HW2 2088   2.094   2.869   1.575 -1.9138 -1.0639 -0.4974
  697SOL     OW 2089   1.101   0.247   2.058 -0.0669  0.5714  0.0002
  697SOL    HW1 2090   1.106   0.154   2.091  0.4130  0.8755 -0.3545
  697SOL    HW2 2091   1.004   0.266   2.032 -0.4098 -2.3045 -0.3904
  698SOL     OW 2092   2.295   1.700   2.432  0.7306  0.3784 -0.1168
  698SOL    HW1 2093   2.296   1.743   2.339  2.2881  1.2971  1.9320
  698SOL    HW2 2094   2.390   1.666   2.467  4.9496 -0.2613  3.8352
  699SOL     OW 2095   1.996   0.528   0.164  0.2144 -0.4300 -0.1156
  699SOL    HW1 2096   1.995   0.609   0.226 -2.0511 -1.9432 -0.2831
  699SOL    HW2 2097   1.912   0.470   0.187 -2.5075 -1.5507  1.0614
  700SOL     OW 2098   1.233   0.011   1.004  0.5203  0.2494  0.5314
  700SOL    HW1 2099   1.328   3.064   1.031 -1.8643 -0.4625 -0.0474
  700SOL    HW2 2100   1.173   3.015   1.042  1.4203 -0.3316 -1.4177
  701SOL     OW 2101   2.954   0.639   0.588 -0.0671  0.3895  0.0041
  701SOL    HW1 2102   2.868   0.670   0.633 -0.1652 -2.2949 -0.0971
  701SOL    HW2 2103   3.033   0.694   0.621 -0.2289  0.8238  1.6607
  702SOL     OW 2104   1.700   3.033   1.436  0.0150  0.1990 -0.0371
  702SOL    HW1 2105   1.625   3.000   1.376 -0.8790 -0.6529 -0.6017
  702SOL    HW2 2106   1.660   0.020   1.507 -2.7492 -1.5839  0.1147
  703SOL     OW 2107   2.887   0.742   1.336 -0.3881  0.4139  0.0627
  703SOL    HW1 2108   2.797   0.703   1.308  0.0574 -4.5553  0.4210
  703SOL    HW2 2109   2.900   0.728   1.435 -0.9426 -0.4577 -2.3201
  704SOL     OW 2110   0.917   2.673   1.446  1.0326  0.3262 -0.2096
  704SOL    HW1 2111   0.884   2.595   1.391  2.8261 -0.0714 -2.5167
  704SOL    HW2 2112   0.836   2.722   1.484  0.1334 -1.4435 -0.5883
  705SOL     OW 2113   0.336   1.835   2.927 -0.5163 -0.0808 -0.1421
  705SOL    HW1 2114   0.365   1.740   2.901  0.1193 -1.7645 -0.7580
  705SOL    HW2 2115   0.414   1.884   2.971 -1.5271  0.2853  0.8810
  706SOL     OW 2116   3.032   0.097   3.066  0.3447 -0.4795 -0.0493
  706SOL    HW1 2117   3.046   0.199   3.063  0.9259 -0.5911 -0.9448
  706SOL    HW2 2118   0.031   0.058   0.059  1.6196 -0.3268  0.8419
  707SOL     OW 2119   1.584   2.888   2.078 -0.4363  0.1117 -0.2051
  707SOL    HW1 2120   1.540   2.977   2.050  0.6442 -0.0423  0.6654
  707SOL    HW2 2121   1.670   2.875   2.017  0.0146 -1.1606  1.7807
  708SOL     OW 2122   0.261   2.911   1.564 -0.0643 -0.0958 -0.1710
  708SOL    HW1 2123   0.302   2.980   1.505 -1.5994  1.1136  0.0113
  708SOL    HW2 2124   0.212   2.834   1.515 -2.1213  1.6308 -1.8889
  709SOL     OW 2125   0.086   0.515   1.729 -0.0006 -0.9040 -0.2731
  709SOL    HW1 2126   0.145   0.595   1.713 -0.2418  1.8844 -1.4164
  709SOL    HW2 2127   0.059   0.511   1.830  0.6613 -0.7198  2.3978
  710SOL     OW 2128   0.392   1.031   0.900  0.1464 -0.1329  0.2626
  710SOL    HW1 2129   0.419   1.121   0.866 -1.7300 -2.8184  1.1925
  710SOL    HW2 2130   0.320   1.031   0.974 -1.2568 -1.3376  0.9692
  711SOL     OW 2131   2.534   2.728   1.849  0.3288 -0.2371 -1.3954
  711SOL    HW1 2132   2.482   2.705   1.938 -0.6321 -0.8545 -0.5207
  711SOL    HW2 2133   2.573   2.822   1.860  1.7482  0.2790  0.8919
  712SOL     OW 2134   0.257   2.437   2.402  0.1648 -0.1101  0.4693
  712SOL    HW1 2135   0.171   2.437   2.340 -0.9730  0.4247 -1.1396
  712SOL    HW2 2136   0.291   2.347   2.434  0.0511 -0.3807  0.7305
  713SOL     OW 2137   2.658   0.322   0.608  0.0913  0.6570 -0.2998
  713SOL    HW1 2138   2.580   0.295   0.547  0.7587  1.8091  1.4767
  713SOL    HW2 2139   2.748   0.335   0.560 -2.7396  1.3129  1.4873
  714SOL     OW 2140   1.740   1.936   2.553  0.3503 -0.0427 -0.2719
  714SOL    HW1 2141   1.682   1.949   2.470  0.7479 -0.7328 -1.3604
  714SOL    HW2 2142   1.825   1.993   2.551 -1.2939 -2.1794 -0.5356
  715SOL     OW 2143   0.164   0.658   0.902 -0.1024  0.4582 -0.0704
  715SOL    HW1 2144   0.143   0.567   0.871  3.9188  2.8670 -1.8311
  715SOL    HW2 2145   0.139   0.724   0.826 -1.2907 -1.8839 -2.7514
  716SOL     OW 2146   0.723   0.591   1.655 -0.6534  0.0736  0.1766
  716SOL    HW1 2147   0.742   0.630   1.558  1.7373  0.2397 -1.5753
  716SOL    HW2 2148   0.631   0.556   1.659  1.4838  3.5724 -1.5360
  717SOL     OW 2149   0.678   0.476   2.378 -0.2213  0.2412  0.1360
  717SOL    HW1 2150   0.658   0.394   2.320  0.6287 -2.6651 -0.0432
  717SOL    HW2 2151   0.630   0.473   2.468  1.8183  1.3677 -1.3887
  718SOL     OW 2152   1.207   0.163   0.577  0.1148 -0.1795 -0.3977
  718SOL    HW1 2153   1.255   0.249   0.554 -0.6767 -0.8109  0.0066
  718SOL    HW2 2154   1.108   0.159   0.553  3.0271  0.2813 -0.3155
  719SOL     OW 2155   3.065   2.303   2.806  0.3098  0.5410 -0.0812
  719SOL    HW1 2156   3.007   2.226   2.778 -0.9921 -1.2195 -1.4977
  719SOL    HW2 2157   3.024   2.393   2.784  1.0243  0.7850  1.8423
  720SOL     OW 2158   1.079   0.530   1.596 -0.0523  0.1877 -0.0722
  720SOL    HW1 2159   1.161   0.500   1.647 -2.2426  1.7251 -4.3267
  720SOL    HW2 2160   1.096   0.625   1.559 -2.4268  3.5126  0.4987
  721SOL     OW 2161   0.045   2.892   0.853 -0.4128 -0.5062 -0.3699
  721SOL    HW1 2162   0.018   2.820   0.915 -0.3035  2.2975  0.9799
  721SOL    HW2 2163   3.052   2.968   0.867  1.2168 -0.9045 -0.1482
  722SOL     OW 2164   0.941   1.155   2.965 -0.4086  0.1162 -0.1165
  722SOL    HW1 2165   0.943   1.254   2.933  0.6899  0.2553 -1.0830
  722SOL    HW2 2166   0.846   1.121   2.980  0.0372 -0.9138  1.2501
  723SOL     OW 2167   2.429   1.073   1.406  0.1457  0.2977  0.6314
  723SOL    HW1 2168   2.486   1.121   1.337  1.0243 -1.5122 -4.5627
  723SOL    HW2 2169   2.354   1.019   1.363  0.1392 -2.0773  0.4496
  724SOL     OW 2170   0.938   1.843   0.247 -0.2743  0.4996 -0.1135
  724SOL    HW1 2171   0.989   1.839   0.163  0.7563  0.6080  2.4697
  724SOL    HW2 2172   0.979   1.897   0.322 -2.5853 -1.6921 -0.9117
  725SOL     OW 2173   0.295   0.876   1.507 -0.1796  0.3127  0.4261
  725SOL    HW1 2174   0.387   0.856   1.467  0.8843 -0.6012  1.1606
  725SOL    HW2 2175   0.221   0.892   1.438  1.9211  0.5730 -2.5870
  726SOL     OW 2176   2.596   1.115   2.820 -0.2925  0.1364 -0.1702
  726SOL    HW1 2177   2.546   1.143   2.908 -1.1819  2.1672 -0.0738
  726SOL    HW2 2178   2.576   1.183   2.745 -1.7792 -0.4904  0.6248
  727SOL     OW 2179   1.909   1.142   2.809 -0.8832 -0.0499 -0.3768
  727SOL    HW1 2180   1.949   1.170   2.897 -0.4196  0.1741 -1.5232
  727SOL    HW2 2181   1.906   1.221   2.743 -0.8056  1.3974 -0.9420
  728SOL     OW 2182   1.882   2.464   1.224 -0.1671 -0.1939  0.1720
  728SOL    HW1 2183   1.936   2.550   1.234  1.1747  1.0140  2.0654
  728SOL    HW2 2184   1.877   2.428   1.125  1.3198  0.2984 -0.4751
  729SOL     OW 2185   1.776   0.873   2.087 -0.8318  0.0749  0.4340
  729SOL    HW1 2186   1.869   0.833   2.067  2.3832 -2.7066 -0.1287
  729SOL    HW2 2187   1.768   0.974   2.087 -0.9108 -0.5193 -0.6919
  730SOL     OW 2188   1.209   0.462   0.977 -0.2552  0.0006 -0.0730
  730SOL    HW1 2189   1.193   0.557   1.012  0.8558  2.0359 -0.1475
  730SOL    HW2 2190   1.216   0.390   1.050 -0.2515 -0.8736 -0.4818
  731SOL     OW 2191   0.605   0.568   2.846 -1.0123 -0.5043  0.1070
  731SOL    HW1 2192   0.677   0.637   2.834 -0.2930 -0.6633 -1.2601
  731SOL    HW2 2193   0.512   0.610   2.857  0.0718 -1.0744  0.5218
  732SOL     OW 2194   0.601   0.782   0.681  0.1340  0.0354  0.3913
  732SOL    HW1 2195   0.686   0.842   0.693  1.8623  0.9328 -2.6749
  732SOL    HW2 2196   0.518   0.825   0.637  0.8959 -2.6159  1.7036
  733SOL     OW 2197   1.370   1.603   1.990  0.5115  0.1143  0.5636
  733SOL    HW1 2198   1.296   1.607   2.064  1.8916 -0.5595  2.0095
  733SOL    HW2 2199   1.381   1.508   1.963 -2.1318  1.5655 -1.4650
  734SOL     OW 2200   0.411   2.356   2.907  0.0288  0.0684 -0.4836
  734SOL    HW1 2201   0.360   2.333   2.822  1.0311  4.3885  1.4653
  734SOL    HW2 2202   0.508   2.369   2.896 -3.2321  0.7615  0.0285
  735SOL     OW 2203   2.531   0.526   0.768 -0.2135 -0.0118  0.4630
  735SOL    HW1 2204   2.493   0.593   0.701  2.0524  2.7428  0.0150
  735SOL    HW2 2205   2.564   0.440   0.725 -0.3985  1.5757 -0.7089
  736SOL     OW 2206   2.187   1.478   2.316 -0.0447  0.3241 -0.2307
  736SOL    HW1 2207   2.269   1.444   2.268 -0.8800 -1.2556  1.3465
  736SOL    HW2 2208   2.198   1.566   2.367 -1.9732 -1.9962  1.1944
  737SOL     OW 2209   2.954   0.655   0.322 -0.2845  0.3278  0.0556
  737SOL    HW1 2210   2.894   0.593   0.265 -0.9691  0.3109  2.6820
  737SOL    HW2 2211   2.944   0.636   0.420 -2.9349  0.8239 -1.8371
  738SOL     OW 2212   1.036   2.126   1.288  0.1408  0.0787  0.2484
  738SOL    HW1 2213   1.114   2.190   1.271  1.6597  0.8869  0.2551
  738SOL    HW2 2214   1.004   2.147   1.383 -0.2274 -1.3267  2.1732
  739SOL     OW 2215   1.387   2.703   2.063  0.1142  0.9371 -0.0022
  739SOL    HW1 2216   1.357   2.694   1.970  0.7527 -2.6871  2.4297
  739SOL    HW2 2217   1.479   2.746   2.065 -0.8372 -0.2848  2.2590
  740SOL     OW 2218   2.191   2.579   1.393 -0.3984  0.2502  0.3112
  740SOL    HW1 2219   2.182   2.477   1.396  2.3793 -1.7346  0.6054
  740SOL    HW2 2220   2.224   2.616   1.481  2.3768 -1.6201 -0.1263
  741SOL     OW 2221   2.250   0.420   0.193 -0.6506  0.3200 -0.4747
  741SOL    HW1 2222   2.262   0.380   0.289 -0.3933  0.4344  1.9531
  741SOL    HW2 2223   2.156   0.464   0.186 -0.8020  0.3649 -2.4793
  742SOL     OW 2224   1.387   2.654   0.082 -0.3308  0.4005  0.4123
  742SOL    HW1 2225   1.428   2.712   0.151 -0.3975  1.2536 -0.5654
  742SOL    HW2 2226   1.379   2.699   3.065 -0.5353 -1.5066  1.3490
  743SOL     OW 2227   2.345   1.066   2.094 -0.4320  0.2020 -0.5859
  743SOL    HW1 2228   2.401   1.029   2.171 -0.4790 -0.4600 -1.5312
  743SOL    HW2 2229   2.253   1.085   2.131  0.6720 -2.4540 -1.8072
  744SOL     OW 2230   3.002   0.290   0.292 -0.3323 -0.2190 -0.1498
  744SOL    HW1 2231   2.940   0.219   0.252 -2.6163 -1.2162 -1.0173
  744SOL    HW2 2232   3.030   0.348   0.219  0.9948 -1.6604  3.0413
  745SOL     OW 2233   2.166   1.369   1.480 -0.3054 -0.0880  0.0477
  745SOL    HW1 2234   2.160   1.271   1.474 -0.0022  2.2892 -0.0239
  745SOL    HW2 2235   2.253   1.395   1.522 -1.9058  1.3605 -3.2254
  746SOL     OW 2236   0.954   1.649   0.823 -0.5359 -0.5646  0.5726
  746SOL    HW1 2237   1.028   1.689   0.874 -2.2854  2.1384  2.3125
  746SOL    HW2 2238   0.986   1.598   0.746 -0.7254  3.9936  1.2817
  747SOL     OW 2239   1.021   1.585   1.375  0.0930  0.2528  0.5005
  747SOL    HW1 2240   0.929   1.628   1.354  1.5969 -0.0941  0.7781
  747SOL    HW2 2241   1.020   1.482   1.375 -1.8137  0.3381  0.4145
  748SOL     OW 2242   0.233   2.985   2.898 -0.2104 -0.0502 -0.1011
  748SOL    HW1 2243   0.174   2.969   2.816  1.9295 -3.2043  1.7826
  748SOL    HW2 2244   0.194   2.943   2.980 -1.6926  0.6350  0.1163
  749SOL     OW 2245   0.023   1.048   2.798  0.0206  0.0453  0.2396
  749SOL    HW1 2246   3.032   1.108   2.853  1.9173 -1.3137 -0.8139
  749SOL    HW2 2247   0.069   1.103   2.722 -0.8914  0.0980 -0.6260
  750SOL     OW 2248   1.437   0.926   1.836 -0.0752  0.4348 -0.1195
  750SOL    HW1 2249   1.416   0.876   1.749 -0.1590  0.8686  3.7163
  750SOL    HW2 2250   1.483   0.866   1.906 -0.4260 -0.7917 -1.0040
  751SOL     OW 2251   2.660   0.814   0.444 -0.6078  0.0780  0.1014
  751SOL    HW1 2252   2.671   0.883   0.374 -0.0119  0.6380 -2.8389
  751SOL    HW2 2253   2.649   0.720   0.403  1.7575  0.9478  0.3411
  752SOL     OW 2254   2.570   2.834   0.938 -0.2147 -0.1877 -0.0882
  752SOL    HW1 2255   2.471   2.818   0.951  1.3205 -1.2571  0.2470
  752SOL    HW2 2256   2.595   2.864   0.841  4.0484 -0.5351  0.0552
  753SOL     OW 2257   1.006   2.396   1.132 -0.6833  0.0696 -0.0207
  753SOL    HW1 2258   1.057   2.410   1.219  1.4758 -1.5748 -2.0408
  753SOL    HW2 2259   0.938   2.326   1.147 -1.4343  0.7236  0.1788
  754SOL     OW 2260   3.047   2.661   2.132  0.4342  0.3124 -0.2178
  754SOL    HW1 2261   3.050   2.738   2.200 -4.3521  0.6375 -1.9481
  754SOL    HW2 2262   0.017   2.688   2.042  0.4053  2.0605  2.2373
  755SOL     OW 2263   2.399   0.562   0.003  0.2620 -0.1769  0.0052
  755SOL    HW1 2264   2.438   0.654   0.033  0.1520  0.8643  0.3871
  755SOL    HW2 2265   2.352   0.514   0.080 -1.7856 -1.3071  3.9171
  756SOL     OW 2266   1.906   2.404   0.007 -0.1491  0.0135  0.3847
  756SOL    HW1 2267   1.919   2.501   0.040  0.0442 -0.1547 -1.0791
  756SOL    HW2 2268   1.999   2.354   0.008  0.5746  2.8444  2.1729
  757SOL     OW 2269   2.453   0.269   0.433  0.3906  0.0585 -0.4886
  757SOL    HW1 2270   2.356   0.288   0.446  0.2811 -0.8660 -1.1774
  757SOL    HW2 2271   2.460   0.163   0.427 -0.2935 -2.3449  0.6470
  758SOL     OW 2272   2.059   0.899   1.644 -0.4277  0.0864 -0.2200
  758SOL    HW1 2273   1.960   0.870   1.639  1.8195  0.6161  2.5799
  758SOL    HW2 2274   2.121   0.817   1.624  1.1269 -0.9178 -0.2028
  759SOL     OW 2275   2.502   0.538   1.196 -0.3927 -0.4178 -0.0731
  759SOL    HW1 2276   2.500   0.637   1.223  0.8125 -0.5104  1.1558
  759SOL    HW2 2277   2.580   0.521   1.133 -0.1627  0.1112  2.4462
  760SOL     OW 2278   0.259   1.303   1.465  0.1831  0.0911  0.2089
  760SOL    HW1 2279   0.294   1.259   1.548 -4.4628 -0.5888 -2.5346
  760SOL    HW2 2280   0.159   1.324   1.467 -0.1966  0.0578 -2.9518
  761SOL     OW 2281   1.107   0.470   3.026  0.0653 -0.4575  0.0065
  761SOL    HW1 2282   1.105   0.411   2.943 -0.3685  0.8697  0.6750
  761SOL    HW2 2283   1.112   0.573   3.009  0.2442  0.5185  0.0001
  762SOL     OW 2284   1.164   1.901   1.426 -0.7263 -0.3192 -0.3072
  762SOL    HW1 2285   1.183   1.835   1.355 -1.6458  3.3934 -1.8021
  762SOL    HW2 2286   1.067   1.902   1.456  3.7405  1.5055  0.5722
  763SOL     OW 2287   1.129   0.769   1.479 -0.5640 -0.3969 -0.0238
  763SOL    HW1 2288   1.205   0.793   1.534 -2.1308 -1.1476 -3.8945
  763SOL    HW2 2289   1.139   0.831   1.400 -0.0676 -1.3804  0.7571
  764SOL     OW 2290   0.359   2.666   3.063  0.0679  0.2725  0.3619
  764SOL    HW1 2291   0.292   2.676   2.990  0.9269  0.7328  0.2312
  764SOL    HW2 2292   0.365   2.584   0.050  1.6424  2.6595  0.1594
  765SOL     OW 2293   0.659   2.762   1.586  0.0789 -0.0429  0.2254
  765SOL    HW1 2294   0.627   2.769   1.684  1.2010 -2.4366 -1.8517
  765SOL    HW2 2295   0.645   2.849   1.530  0.3756  1.0106  0.3662
  766SOL     OW 2296   2.553   1.700   2.121  0.4953 -0.1903  0.3785
  766SOL    HW1 2297   2.471   1.757   2.136  2.7927  0.0275  0.4774
  766SOL    HW2 2298   2.618   1.742   2.055  0.0860 -0.3616  2.1441
  767SOL     OW 2299   1.475   1.192   2.222 -0.0703  0.5228  0.6445
  767SOL    HW1 2300   1.437   1.221   2.313  0.0906  1.3924 -0.4853
  767SOL    HW2 2301   1.397   1.158   2.166  3.0371 -1.5650 -0.2055
  768SOL     OW 2302   1.698   1.843   0.327 -0.0938  0.6341  0.1881
  768SOL    HW1 2303   1.732   1.816   0.420  1.4549  0.1813  3.1036
  768SOL    HW2 2304   1.773   1.891   0.280 -1.1095 -1.4391  2.8668
  769SOL     OW 2305   0.493   1.569   0.802  0.3663 -0.4134  0.1679
  769SOL    HW1 2306   0.440   1.659   0.806  0.2527  0.5697 -2.7811
  769SOL    HW2 2307   0.586   1.590   0.838  1.0755  2.8938 -2.1696
  770SOL     OW 2308   1.479   0.911   2.291 -0.0937 -0.4116 -0.2223
  770SOL    HW1 2309   1.561   0.852   2.303 -0.4440  1.1764 -1.2409
  770SOL    HW2 2310   1.496   1.008   2.274  0.1153  0.2811  1.0263
  771SOL     OW 2311   2.777   2.935   2.334 -0.0816 -0.6411 -0.2093
  771SOL    HW1 2312   2.702   3.007   2.312 -1.9999 -1.0355 -3.3083
  771SOL    HW2 2313   2.739   2.868   2.397 -0.0620  5.6249 -4.1442
  772SOL     OW 2314   2.304   1.830   2.177  0.9429 -0.2791  0.2666
  772SOL    HW1 2315   2.202   1.834   2.203  1.4914 -0.3081 -0.4638
  772SOL    HW2 2316   2.315   1.910   2.112  0.3112  1.1059  0.4746
  773SOL     OW 2317   0.647   1.424   1.665  0.0176 -0.4917 -0.6321
  773SOL    HW1 2318   0.661   1.329   1.697 -1.1927  3.8224  0.1759
  773SOL    HW2 2319   0.648   1.429   1.565  0.6167  1.5573  0.0063
  774SOL     OW 2320   1.373   0.753   2.959 -0.0999  0.1996 -0.2611
  774SOL    HW1 2321   1.394   0.832   2.898 -2.2591 -0.4146  1.0627
  774SOL    HW2 2322   1.276   0.749   2.981  1.7253 -1.4605  0.0244
  775SOL     OW 2323   1.757   2.442   2.865  0.3749  0.7234 -0.4909
  775SOL    HW1 2324   1.805   2.426   2.955  1.6418  0.5547  0.2076
  775SOL    HW2 2325   1.661   2.475   2.885  0.9577 -0.2035 -0.1260
  776SOL     OW 2326   0.078   1.097   1.784 -0.5622 -0.1258  0.1208
  776SOL    HW1 2327   0.074   0.996   1.806  0.6528 -2.0575  0.1447
  776SOL    HW2 2328   0.011   1.119   1.706 -2.9826  1.3127 -2.0823
  777SOL     OW 2329   2.346   2.024   2.005 -0.0059 -0.0251  0.4432
  777SOL    HW1 2330   2.420   2.098   2.001  2.3191  4.3477 -0.1753
  777SOL    HW2 2331   2.298   2.008   1.914  0.3070 -1.8629 -0.4340
  778SOL     OW 2332   1.754   1.125   2.054  0.4523  0.6628 -0.3562
  778SOL    HW1 2333   1.692   1.160   1.982  0.6015 -0.6122  0.6603
  778SOL    HW2 2334   1.834   1.186   2.058 -0.1684 -1.0446 -1.1238
  779SOL     OW 2335   2.905   1.164   0.203  0.5577 -0.0792 -0.5646
  779SOL    HW1 2336   2.945   1.073   0.184 -1.1394  0.7546  1.0773
  779SOL    HW2 2337   2.807   1.155   0.202  1.9002 -0.1251  0.4151
  780SOL     OW 2338   2.253   3.022   2.729  0.3676 -0.2251  0.0679
  780SOL    HW1 2339   2.157   3.031   2.695 -1.7545  2.4255  2.1575
  780SOL    HW2 2340   2.298   0.043   2.737  0.4869  3.6668  0.2393
  781SOL     OW 2341   2.872   1.604   1.340  0.5060 -0.3186  0.3460
  781SOL    HW1 2342   2.953   1.566   1.292  0.2079 -0.5893  0.3238
  781SOL    HW2 2343   2.797   1.616   1.271  1.3646  0.4522  2.5710
  782SOL     OW 2344   2.668   2.068   3.037  0.0109  0.7080  0.4250
  782SOL    HW1 2345   2.737   2.145   3.044  0.1998 -1.5330  0.3530
  782SOL    HW2 2346   2.574   2.099   3.028 -0.4806  1.4029 -2.9601
  783SOL     OW 2347   0.723   1.536   0.941  0.0387 -0.3704 -0.7716
  783SOL    HW1 2348   0.691   1.454   0.997 -2.1461 -1.6379  2.0012
  783SOL    HW2 2349   0.823   1.537   0.930  1.0639 -1.0408 -0.6973
  784SOL     OW 2350   2.633   1.071   0.203  0.0082  0.0150 -0.1470
  784SOL    HW1 2351   2.568   1.097   0.126 -0.8394  3.2485 -0.9883
  784SOL    HW2 2352   2.614   1.125   0.288  1.1260  1.7712  2.2058
  785SOL     OW 2353   2.096   2.556   0.442  0.3666  0.2593 -0.5627
  785SOL    HW1 2354   2.027   2.561   0.520 -0.7716  0.0202  0.1090
  785SOL    HW2 2355   2.079   2.468   0.399 -0.6311  0.1008  1.7839
  786SOL     OW 2356   0.733   2.041   2.691 -0.5751 -0.6105  0.5705
  786SOL    HW1 2357   0.762   2.114   2.621  0.8278  0.7185 -0.0845
  786SOL    HW2 2358   0.636   2.013   2.668 -2.6971  0.1206 -2.3483
  787SOL     OW 2359   1.394   0.602   1.192 -0.0647 -0.9125  0.0219
  787SOL    HW1 2360   1.332   0.533   1.232  1.5188  2.3206  1.2821
  787SOL    HW2 2361   1.345   0.668   1.129  2.2274  3.0849 -2.8908
  788SOL     OW 2362   0.534   0.942   0.126  0.2689  0.1943  0.3933
  788SOL    HW1 2363   0.546   0.851   0.171 -1.4416 -0.6103  0.3951
  788SOL    HW2 2364   0.449   0.993   0.150  3.3768 -1.9958 -0.8912
  789SOL     OW 2365   2.834   1.961   1.350 -0.2313  0.4710  0.2286
  789SOL    HW1 2366   2.889   1.880   1.354  0.8382  1.7704  1.3544
  789SOL    HW2 2367   2.801   1.976   1.252 -2.0533  0.6057 -1.8477
  790SOL     OW 2368   1.314   0.331   1.876 -0.0864 -0.4492 -0.2632
  790SOL    HW1 2369   1.380   0.334   1.949 -1.3294  1.6263 -0.1855
  790SOL    HW2 2370   1.230   0.299   1.921  2.0803 -0.0649 -0.4010
  791SOL     OW 2371   0.991   0.580   0.187 -0.2875 -0.3086  0.6559
  791SOL    HW1 2372   1.009   0.527   0.103  1.1391 -1.0018 -1.2014
  791SOL    HW2 2373   1.070   0.630   0.228 -2.7491  0.0010 -1.6239
  792SOL     OW 2374   1.398   2.969   1.690  0.3991  0.0749  0.5357
  792SOL    HW1 2375   1.352   2.901   1.628  1.1577  0.8040  0.2804
  792SOL    HW2 2376   1.467   3.026   1.643  1.4283  0.7278  0.8515
  793SOL     OW 2377   0.858   3.012   0.843 -0.4779  0.0718 -0.2965
  793SOL    HW1 2378   0.925   0.012   0.862 -3.0023  1.1514 -0.4580
  793SOL    HW2 2379   0.844   2.948   0.921 -0.8458 -0.9466 -0.5086
  794SOL     OW 2380   0.396   1.212   2.157  0.0228  0.3915  0.0290
  794SOL    HW1 2381   0.446   1.123   2.137  2.2327 -0.3848  0.1513
  794SOL    HW2 2382   0.424   1.248   2.244 -0.5681 -2.2721 -5.4642
  795SOL     OW 2383   2.965   1.595   2.444 -0.4598  0.0624  0.0978
  795SOL    HW1 2384   2.882   1.629   2.396 -1.1707 -0.9158  0.2643
  795SOL    HW2 2385   3.035   1.560   2.379  1.0920 -0.8322 -2.2794
  796SOL     OW 2386   2.011   1.228   2.047 -0.1822 -0.0524  0.0119
  796SOL    HW1 2387   2.046   1.192   1.959 -0.6736 -3.5490  0.2847
  796SOL    HW2 2388   2.051   1.322   2.061  0.1875  0.0626 -0.2492
  797SOL     OW 2389   0.045   2.918   2.720  0.7969  0.0302 -0.3981
  797SOL    HW1 2390   0.062   3.012   2.678 -1.0063  1.4903  2.6031
  797SOL    HW2 2391   3.058   2.851   2.671 -1.1911 -0.8691  0.0286
  798SOL     OW 2392   0.206   2.013   2.175 -0.3178 -0.1182 -0.0461
  798SOL    HW1 2393   0.179   2.005   2.076  0.4609 -0.5330  3.6035
  798SOL    HW2 2394   0.283   2.081   2.193 -0.1174 -0.4521  0.0557
  799SOL     OW 2395   2.794   2.299   3.032  0.4058 -0.5751 -0.3530
  799SOL    HW1 2396   2.786   2.360   0.042 -1.4870 -0.0272  3.1652
  799SOL    HW2 2397   2.774   2.344   2.946  0.0516 -2.5182  1.3123
  800SOL     OW 2398   1.194   1.551   1.069  0.1293  0.0959 -0.5203
  800SOL    HW1 2399   1.187   1.651   1.053  0.9281  0.8999  0.1343
  800SOL    HW2 2400   1.241   1.527   1.157 -1.2114  1.5311  0.0631
  801SOL     OW 2401   2.433   0.687   0.584 -0.6318 -0.0451 -0.0436
  801SOL    HW1 2402   2.337   0.721   0.585  1.7553 -2.4825 -1.6685
  801SOL    HW2 2403   2.471   0.687   0.487 -2.1689  0.3940  2.2974
  802SOL     OW 2404   2.527   1.680   0.447  0.5194  0.1441 -0.7144
  802SOL    HW1 2405   2.523   1.724   0.355  1.6779  0.4506 -2.2149
  802SOL    HW2 2406   2.535   1.744   0.528  0.5030  1.9264  1.6864
  803SOL     OW 2407   1.434   1.773   2.897 -0.1271 -0.4928 -0.7258
  803SOL    HW1 2408   1.521   1.810   2.855  0.0276 -0.9975  1.0201
  803SOL    HW2 2409   1.373   1.854   2.927  0.9671  0.3008  1.9724
  804SOL     OW 2410   1.881   1.898   0.143  0.7974  0.4155  0.7419
  804SOL    HW1 2411   1.951   1.963   0.172 -1.9044 -0.1896 -3.1092
  804SOL    HW2 2412   1.921   1.803   0.146  3.3868 -1.7571  0.4105
  805SOL     OW 2413   2.420   1.625   2.882  0.2033 -0.5387  0.5229
  805SOL    HW1 2414   2.481   1.701   2.842 -1.1366  1.4618 -0.0447
  805SOL    HW2 2415   2.474   1.553   2.919 -0.4253  3.1307  0.6762
  806SOL     OW 2416   0.687   0.522   0.579 -0.2423  0.6078 -0.1355
  806SOL    HW1 2417   0.708   0.521   0.480  0.3990  1.1290 -1.2941
  806SOL    HW2 2418   0.647   0.611   0.607 -1.8596 -0.1590 -0.1312
  807SOL     OW 2419   2.241   1.383   2.687 -0.1413 -0.0614  0.5895
  807SOL    HW1 2420   2.215   1.423   2.774 -1.4592 -0.6789 -0.2991
  807SOL    HW2 2421   2.203   1.289   2.686  1.8048  1.2041  1.7252
  808SOL     OW 2422   0.155   1.483   0.509  0.4128  0.3664  0.5787
  808SOL    HW1 2423   0.107   1.460   0.594 -0.4599  2.4402  1.6247
  808SOL    HW2 2424   0.224   1.559   0.529  1.5992  6.0086  1.9404
  809SOL     OW 2425   2.434   0.900   2.725  0.5126  0.1727 -0.5470
  809SOL    HW1 2426   2.500   0.963   2.763 -1.6990  0.0379 -1.8846
  809SOL    HW2 2427   2.355   0.891   2.793 -0.8665  2.0864  0.8039
  810SOL     OW 2428   1.053   1.078   0.421  0.2404  0.3397  0.4299
  810SOL    HW1 2429   1.149   1.105   0.407 -1.4331  1.8658 -2.0940
  810SOL    HW2 2430   0.990   1.159   0.412  0.3638 -1.8954 -1.2800
  811SOL     OW 2431   1.534   2.458   0.755 -0.0914 -0.5267 -0.6090
  811SOL    HW1 2432   1.471   2.534   0.717 -0.8544  2.4221  0.3030
  811SOL    HW2 2433   1.515   2.365   0.720 -1.6343 -1.4413  0.5885
  812SOL     OW 2434   0.213   2.455   1.564  0.2631 -0.0803 -0.0209
  812SOL    HW1 2435   0.210   2.367   1.508 -2.7012  1.8500  1.2007
  812SOL    HW2 2436   0.300   2.502   1.530 -0.1190  0.5738  1.5363
  813SOL     OW 2437   1.023   3.036   1.833 -0.4470  0.2286  0.1858
  813SOL    HW1 2438   0.977   2.966   1.777  0.4090  2.9061  0.3093
  813SOL    HW2 2439   0.977   3.044   1.923  0.4113  0.7186 -1.4211
  814SOL     OW 2440   1.336   0.123   2.430  0.1741  0.0626 -0.4303
  814SOL    HW1 2441   1.345   0.035   2.370  1.0353  0.3972 -2.7141
  814SOL    HW2 2442   1.258   0.182   2.393 -2.7744  0.7326  0.1324
  815SOL     OW 2443   0.281   0.161   1.945  0.3192 -0.3617  0.1547
  815SOL    HW1 2444   0.262   0.065   1.924 -1.0720 -0.6050 -0.0023
  815SOL    HW2 2445   0.299   0.223   1.863 -0.6217  4.5522  0.3131
  816SOL     OW 2446   2.368   0.163   0.061 -0.1988  0.1524  0.4304
  816SOL    HW1 2447   2.465   0.200   0.054  2.2672  1.6930 -2.2207
  816SOL    HW2 2448   2.299   0.233   0.086 -3.7688  1.0430  3.1539
  817SOL     OW 2449   1.744   0.112   2.563  0.0377 -0.6031  0.5033
  817SOL    HW1 2450   1.675   0.147   2.490 -2.1799  0.9087 -2.2580
  817SOL    HW2 2451   1.710   0.130   2.655  2.1278 -0.5406 -4.3581
  818SOL     OW 2452   2.050   0.123   0.082 -0.0364 -0.0447  0.0480
  818SOL    HW1 2453   2.133   0.119   0.141  1.9126  0.1641 -1.6591
  818SOL    HW2 2454   2.063   0.187   0.002 -1.7389  0.2360  0.3015
  819SOL     OW 2455   2.291   1.659   0.035  0.4832  0.4412  0.6666
  819SOL    HW1 2456   2.354   1.721   0.084 -2.3970 -0.8534 -0.9495
  819SOL    HW2 2457   2.335   1.646   3.017 -0.7910 -1.1347  0.0701
  820SOL     OW 2458   0.036   2.054   0.179 -0.3410  0.1466 -0.2420
  820SOL    HW1 2459   0.069   1.968   0.143 -0.9068 -0.2315  4.1640
  820SOL    HW2 2460   3.033   2.036   0.244  3.1703  1.2086 -1.1989
  821SOL     OW 2461   2.895   2.820   1.248  0.5517  0.1644  0.1994
  821SOL    HW1 2462   2.806   2.818   1.290  2.7693 -0.8023 -0.7655
  821SOL    HW2 2463   2.923   2.916   1.254 -0.3337 -2.7529 -0.4924
  822SOL     OW 2464   2.634   2.379   2.600 -0.4560  0.7345  0.2333
  822SOL    HW1 2465   2.538   2.341   2.625 -3.4763 -2.0872  2.5053
  822SOL    HW2 2466   2.630   2.420   2.507  1.9090 -0.7043  1.1805
  823SOL     OW 2467   1.577   0.266   2.432 -0.4667  0.8896  0.0921
  823SOL    HW1 2468   1.563   0.367   2.433 -0.1864  1.1035  2.8692
  823SOL    HW2 2469   1.489   0.217   2.445  1.1827 -0.4523  0.5304
  824SOL     OW 2470   2.504   1.718   1.404 -0.0828  0.0900 -0.5535
  824SOL    HW1 2471   2.442   1.794   1.432  1.7894 -0.5451  0.4694
  824SOL    HW2 2472   2.544   1.729   1.312 -0.0935  0.8864  1.8462
  825SOL     OW 2473   2.772   1.713   2.300  0.4561 -0.3236  0.7511
  825SOL    HW1 2474   2.679   1.720   2.256 -1.7186  0.5918  0.3232
  825SOL    HW2 2475   2.821   1.806   2.302 -0.9764  1.3610  3.1991
  826SOL     OW 2476   2.476   1.029   2.328 -0.7802 -0.6417  0.0957
  826SOL    HW1 2477   2.531   1.113   2.321 -0.2023 -2.4140  2.4237
  826SOL    HW2 2478   2.541   0.952   2.349 -1.4297 -2.3760  3.1818
  827SOL     OW 2479   2.503   2.455   1.509 -0.4689 -0.3339  0.5987
  827SOL    HW1 2480   2.493   2.379   1.574  0.3250 -1.9909 -3.2706
  827SOL    HW2 2481   2.448   2.535   1.541 -1.6763  0.9651 -1.5684
  828SOL     OW 2482   2.803   2.836   1.604  0.0217  0.5715 -0.1374
  828SOL    HW1 2483   2.865   2.898   1.551  2.4054 -0.3967  0.3546
  828SOL    HW2 2484   2.704   2.864   1.585  0.9141 -0.6762  0.3733
  829SOL     OW 2485   1.391   2.224   2.404 -0.2791  0.1607 -0.0742
  829SOL    HW1 2486   1.431   2.312   2.371  0.0052  0.1046 -0.5911
  829SOL    HW2 2487   1.455   2.151   2.376 -1.7152  1.0297  1.8320
  830SOL     OW 2488   1.678   0.394   0.603 -0.4754 -0.4684 -0.2313
  830SOL    HW1 2489   1.749   0.434   0.663 -0.4652  0.5247 -1.9964
  830SOL    HW2 2490   1.710   0.414   0.510 -0.2981  0.1888  1.4656
  831SOL     OW 2491   2.617   1.445   0.596  0.1411  0.4092  0.4424
  831SOL    HW1 2492   2.713   1.457   0.609 -3.8749  1.8199 -3.3469
  831SOL    HW2 2493   2.577   1.524   0.542  3.3036  0.5406 -0.2272
  832SOL     OW 2494   1.640   2.650   1.789 -0.3634  0.2039 -0.2095
  832SOL    HW1 2495   1.541   2.660   1.756 -0.7308 -0.4044  2.6973
  832SOL    HW2 2496   1.701   2.599   1.731 -1.6177  0.1092  0.3885
  833SOL     OW 2497   3.042   2.842   2.346 -0.5592 -0.4358 -0.5336
  833SOL    HW1 2498   3.038   2.755   2.401 -0.4423 -0.9747 -0.6576
  833SOL    HW2 2499   2.953   2.890   2.350  1.6174 -1.2741  0.7915
  834SOL     OW 2500   1.174   0.957   1.301  0.2026  0.2361  0.3709
  834SOL    HW1 2501   1.173   0.953   1.200  0.0620  2.6468  1.8633
  834SOL    HW2 2502   1.201   1.052   1.330 -0.1234  2.6246 -1.1073
  835SOL     OW 2503   2.834   0.602   2.579 -0.5763  0.1536  0.0097
  835SOL    HW1 2504   2.926   0.647   2.576  3.5291 -0.6543  5.0976
  835SOL    HW2 2505   2.829   0.534   2.655 -1.5647 -0.9930 -0.1114
  836SOL     OW 2506   1.083   2.214   0.922  0.4471 -0.4468 -0.0789
  836SOL    HW1 2507   1.008   2.176   0.975 -1.1480  2.3189  0.0415
  836SOL    HW2 2508   1.129   2.299   0.965 -1.1143 -0.6009  1.4113
  837SOL     OW 2509   2.117   0.974   0.870 -0.1406 -0.8434 -0.0620
  837SOL    HW1 2510   2.154   1.008   0.776 -0.9529  0.0989 -0.9574
  837SOL    HW2 2511   2.181   0.915   0.913 -2.1949  1.0720 -1.4932
  838SOL     OW 2512   1.378   1.313   2.454 -0.5007  0.0775  0.2658
  838SOL    HW1 2513   1.390   1.263   2.546  3.4720  0.6571  0.0398
  838SOL    HW2 2514   1.353   1.412   2.472 -3.5684  0.7355 -1.4385
  839SOL     OW 2515   0.679   2.308   2.839 -0.6837  0.0834 -0.6105
  839SOL    HW1 2516   0.696   2.209   2.806  1.3320  0.3279  0.4282
  839SOL    HW2 2517   0.751   2.323   2.910  0.8109 -0.3814 -0.3963
  840SOL     OW 2518   0.617   2.688   3.023  0.0917  0.2686  0.7882
  840SOL    HW1 2519   0.518   2.689   3.052 -0.1273 -1.6042  2.5654
  840SOL    HW2 2520   0.631   2.737   2.934 -0.6278 -2.8736 -0.0746
  841SOL     OW 2521   1.750   2.207   0.238  0.1459  0.5034  0.3548
  841SOL    HW1 2522   1.687   2.220   0.155 -0.8563 -0.6439 -1.8497
  841SOL    HW2 2523   1.846   2.244   0.224  2.9549  0.5233 -2.2222
  842SOL     OW 2524   1.225   0.872   2.678  0.5188 -0.1609 -0.0876
  842SOL    HW1 2525   1.202   0.955   2.738 -0.5766  1.0322  0.3491
  842SOL    HW2 2526   1.322   0.870   2.647  0.8428 -1.0100 -0.9593
  843SOL     OW 2527   1.433   2.882   0.574  0.3693 -0.0560 -0.1366
  843SOL    HW1 2528   1.504   2.955   0.576 -0.3986 -0.4675 -0.9409
  843SOL    HW2 2529   1.347   2.917   0.626 -1.9375  1.9525  0.4273
  844SOL     OW 2530   2.439   2.789   2.621  0.4008 -0.2758  0.1837
  844SOL    HW1 2531   2.371   2.865   2.629 -0.1756 -1.7723  1.7046
  844SOL    HW2 2532   2.440   2.729   2.705  1.1155 -0.4744  3.4338
  845SOL     OW 2533   2.614   2.423   1.073 -0.1791 -0.6493  0.2914
  845SOL    HW1 2534   2.611   2.478   1.161 -1.1647 -2.0534 -0.2629
  845SOL    HW2 2535   2.675   2.457   0.996 -0.6667  0.0869 -2.4178
  846SOL     OW 2536   3.061   2.041   2.394 -0.1749  0.1776  0.4198
  846SOL    HW1 2537   0.058   2.039   2.319  0.0657  0.7350  1.0294
  846SOL    HW2 2538   3.064   1.956   2.451 -0.7324 -1.3865  0.8278
  847SOL     OW 2539   1.511   0.529   1.557  0.2409 -0.5467  1.2211
  847SOL    HW1 2540   1.556   0.536   1.466 -0.6451 -0.9460 -1.0829
  847SOL    HW2 2541   1.487   0.432   1.571  0.5584  3.0508 -0.1870
  848SOL     OW 2542   3.060   0.391   0.021  0.2839  0.0989  0.1081
  848SOL    HW1 2543   0.085   0.372   3.071 -1.2548 -2.2880 -0.5452
  848SOL    HW2 2544   3.023   0.464   3.035  1.2465 -0.1568  1.0242
  849SOL     OW 2545   0.624   0.389   3.060 -0.5128 -0.2840 -0.1658
  849SOL    HW1 2546   0.613   0.441   2.975  0.2478 -0.2681  2.3540
  849SOL    HW2 2547   0.567   0.430   0.063  0.8812 -1.7212  1.6508
  850SOL     OW 2548   0.492   2.513   1.021 -0.5526  0.0784  0.2833
  850SOL    HW1 2549   0.549   2.432   1.056  1.5641 -2.1634 -0.4675
  850SOL    HW2 2550   0.449   2.481   0.934 -0.6266  0.3752 -2.1098
  851SOL     OW 2551   2.091   0.195   2.322  0.3045  0.2436 -0.1161
  851SOL    HW1 2552   2.111   0.285   2.278 -1.2110 -0.3287  0.8925
  851SOL    HW2 2553   2.037   0.198   2.409  2.6426 -0.3554  0.5254
  852SOL     OW 2554   1.647   1.417   2.215  0.1942 -0.0650 -0.3892
  852SOL    HW1 2555   1.680   1.411   2.313  0.9160  0.6293  0.4973
  852SOL    HW2 2556   1.570   1.347   2.206  2.9009  0.5255  1.8099
  853SOL     OW 2557   2.866   2.737   0.584 -0.1949 -0.3913 -0.4518
  853SOL    HW1 2558   2.933   2.669   0.619  1.3370 -0.4324 -0.8610
  853SOL    HW2 2559   2.774   2.733   0.629  0.0503  0.2869 -0.4267
  854SOL     OW 2560   2.283   0.304   0.833  0.3596 -0.1714 -0.2683
  854SOL    HW1 2561   2.240   0.224   0.787 -0.3512 -0.0027 -0.0565
  854SOL    HW2 2562   2.293   0.380   0.765 -0.9627 -1.7742 -0.7752
  855SOL     OW 2563   1.322   2.014   0.663  0.2484 -0.9987 -0.2410
  855SOL    HW1 2564   1.304   2.055   0.574 -2.0670 -0.5925  2.6439
  855SOL    HW2 2565   1.237   1.992   0.709 -1.1013  4.1052  0.3839
  856SOL     OW 2566   2.634   0.309   0.218 -0.3265  0.1020 -0.4145
  856SOL    HW1 2567   2.573   0.280   0.295 -1.0346  1.1558  1.2064
  856SOL    HW2 2568   2.697   0.236   0.185 -2.1894 -2.4155  2.4368
  857SOL     OW 2569   1.778   2.868   1.868 -0.0908 -0.0721 -0.3794
  857SOL    HW1 2570   1.849   2.875   1.797  3.4130  2.2422 -0.7604
  857SOL    HW2 2571   1.695   2.807   1.843  0.2517 -1.2165  3.8681
  858SOL     OW 2572   2.415   2.126   1.362 -0.2440  0.4668  0.3920
  858SOL    HW1 2573   2.460   2.129   1.265  0.5504  0.9725 -3.6393
  858SOL    HW2 2574   2.373   2.218   1.370 -3.2781  0.2505 -0.5830
  859SOL     OW 2575   1.120   2.347   0.680 -0.0171 -0.5534  0.0671
  859SOL    HW1 2576   1.137   2.445   0.707  0.4932 -1.8474 -0.8838
  859SOL    HW2 2577   1.118   2.292   0.767  0.3507  3.9876  0.9070
  860SOL     OW 2578   2.108   2.209   0.008  0.0635  0.0795 -0.2750
  860SOL    HW1 2579   2.205   2.239   0.018  1.3166 -2.9010 -0.7248
  860SOL    HW2 2580   2.071   2.160   0.088 -1.1939 -0.3861 -1.0256
  861SOL     OW 2581   1.982   2.721   1.281 -0.3211  0.0309 -0.3322
  861SOL    HW1 2582   2.075   2.706   1.315 -2.8793 -0.0008  0.2303
  861SOL    HW2 2583   1.955   2.823   1.291 -1.6491  2.9789 -0.4216
  862SOL     OW 2584   1.990   3.051   2.673 -0.1585  0.2425 -0.0921
  862SOL    HW1 2585   1.913   3.040   2.609 -2.1753  0.3000 -0.9523
  862SOL    HW2 2586   1.973   0.049   2.747 -0.0388  1.7713 -1.4875
  863SOL     OW 2587   0.367   0.378   0.598 -0.5215  0.1411 -0.1788
  863SOL    HW1 2588   0.448   0.345   0.552  0.9340 -0.5152  1.1040
  863SOL    HW2 2589   0.284   0.334   0.558  0.0685  0.9265  1.7459
  864SOL     OW 2590   2.664   2.501   1.813  0.1709  0.4869 -0.2936
  864SOL    HW1 2591   2.603   2.424   1.794  2.7884  1.4510 -0.5691
  864SOL    HW2 2592   2.623   2.591   1.788 -2.1382 -0.3563 -0.1224
  865SOL     OW 2593   3.006   2.120   3.023 -0.3935 -0.1002 -0.3490
  865SOL    HW1 2594   3.037   2.108   0.047 -2.3896  0.5502  1.5046
  865SOL    HW2 2595   2.933   2.193   3.025 -2.9369 -1.0232 -3.1147
  866SOL     OW 2596   2.503   0.368   2.926  0.0153  0.3293 -0.6326
  866SOL    HW1 2597   2.522   0.415   2.836  0.4554 -0.5724  1.6182
  866SOL    HW2 2598   2.466   0.440   2.991 -1.3500 -1.6922 -1.2432
  867SOL     OW 2599   2.845   0.121   2.435 -0.2428 -0.1827  0.3820
  867SOL    HW1 2600   2.838   0.033   2.390 -2.5722  0.6481  3.4988
  867SOL    HW2 2601   2.836   0.113   2.537 -2.1114  2.1730  0.9081
  868SOL     OW 2602   1.078   2.628   0.709 -0.5001  0.3958 -0.1762
  868SOL    HW1 2603   1.019   2.578   0.780  2.3157 -0.5142  1.4519
  868SOL    HW2 2604   1.020   2.663   0.634 -2.3742  1.2322  6.3878
  869SOL     OW 2605   1.509   1.176   1.235  0.4289  0.1420  0.0164
  869SOL    HW1 2606   1.453   1.180   1.149 -2.8908  0.6186  0.1297
  869SOL    HW2 2607   1.580   1.103   1.220 -0.2301 -1.6514 -0.6212
  870SOL     OW 2608   1.814   1.905   1.313 -0.0792 -0.5893 -0.0685
  870SOL    HW1 2609   1.793   1.995   1.276 -0.8332 -0.9047  2.5145
  870SOL    HW2 2610   1.742   1.876   1.376  0.2982 -1.3565 -2.2954
  871SOL     OW 2611   1.283   1.539   1.349 -0.2256  0.4161 -0.1822
  871SOL    HW1 2612   1.189   1.580   1.368 -1.7378 -1.2007  2.0421
  871SOL    HW2 2613   1.318   1.476   1.422 -1.8185 -2.5477  1.4663
  872SOL     OW 2614   1.386   0.954   0.834  0.4287 -0.1553 -0.3655
  872SOL    HW1 2615   1.485   0.917   0.845  2.9850  1.0988 -1.4717
  872SOL    HW2 2616   1.378   1.036   0.896 -2.4819  4.2465  3.2058
  873SOL     OW 2617   1.530   0.821   2.611  0.3850  0.8426  0.1542
  873SOL    HW1 2618   1.562   0.854   2.702  0.4972 -1.3605 -3.2015
  873SOL    HW2 2619   1.600   0.841   2.542 -0.5553 -0.1224  0.6938
  874SOL     OW 2620   0.396   1.240   1.241  0.6781 -0.0795 -0.4714
  874SOL    HW1 2621   0.339   1.260   1.322  0.9438  2.2437  0.6104
  874SOL    HW2 2622   0.394   1.314   1.172 -2.3494 -0.9823  2.0668
  875SOL     OW 2623   2.661   2.696   0.159 -0.1017  0.0324 -0.1722
  875SOL    HW1 2624   2.663   2.800   0.165 -0.5382  4.4326 -0.3149
  875SOL    HW2 2625   2.743   2.671   0.102 -0.9602  1.2142  2.7223
  876SOL     OW 2626   1.109   0.560   2.697 -0.1786 -0.9432 -0.4312
  876SOL    HW1 2627   1.089   0.470   2.741 -2.1407 -0.0546 -1.3316
  876SOL    HW2 2628   1.065   0.642   2.732  1.2331 -2.4149 -1.6404
  877SOL     OW 2629   2.921   3.042   1.474  0.5171  0.1447  0.0539
  877SOL    HW1 2630   2.986   3.055   1.547 -0.8879  0.6146 -0.3364
  877SOL    HW2 2631   2.910   0.044   1.404 -0.3369 -1.5100 -1.0260
  878SOL     OW 2632   1.972   2.348   2.720  0.4316  0.0800  0.2124
  878SOL    HW1 2633   1.879   2.379   2.757 -0.9398 -0.5107  0.2140
  878SOL    HW2 2634   2.052   2.412   2.745 -1.8536  0.1753  0.8188
  879SOL     OW 2635   2.114   1.813   1.867 -0.4103  0.1610  0.6147
  879SOL    HW1 2636   2.021   1.806   1.904  1.6319 -0.4884  1.0330
  879SOL    HW2 2637   2.151   1.716   1.868 -1.5732 -1.8750 -1.1774
  880SOL     OW 2638   0.866   1.024   1.024  0.4828 -0.2026 -0.1092
  880SOL    HW1 2639   0.877   1.103   1.092 -1.4050 -1.6346 -0.8676
  880SOL    HW2 2640   0.776   0.985   1.046  1.8053  1.1846  0.4642
  881SOL     OW 2641   1.125   1.810   0.051 -0.1705 -0.0495  0.2119
  881SOL    HW1 2642   1.195   1.877   0.017  1.3584  0.8878  2.0746
  881SOL    HW2 2643   1.175   1.733   0.095  0.1415 -1.3527  2.8535
  882SOL     OW 2644   1.646   0.265   1.064 -1.1549  0.2100 -0.0731
  882SOL    HW1 2645   1.693   0.351   1.047 -0.9607 -1.8143 -1.4053
  882SOL    HW2 2646   1.712   0.192   1.079 -1.2726 -1.5049  0.4273
  883SOL     OW 2647   1.754   0.580   2.202  0.0872 -0.1198 -0.0015
  883SOL    HW1 2648   1.696   0.568   2.283  1.1700  2.0445 -0.4677
  883SOL    HW2 2649   1.708   0.651   2.140 -0.7979 -2.7589 -1.1905
  884SOL     OW 2650   2.786   0.524   0.160 -0.1946  0.6574  0.0196
  884SOL    HW1 2651   2.817   0.561   0.068 -0.1104  0.2422 -1.3220
  884SOL    HW2 2652   2.730   0.435   0.156 -0.0111 -1.1466  0.2138
  885SOL     OW 2653   1.067   1.943   0.789 -0.2544  0.4634 -0.9079
  885SOL    HW1 2654   0.987   1.907   0.743  2.9037 -0.0414  1.3575
  885SOL    HW2 2655   1.054   2.042   0.814 -1.4292  0.5547  0.8693
  886SOL     OW 2656   1.446   1.192   2.703  0.3395  0.4918  0.2099
  886SOL    HW1 2657   1.511   1.243   2.766 -0.3383 -2.2895  5.2907
  886SOL    HW2 2658   1.361   1.161   2.755  0.1472 -0.7928 -0.8249
  887SOL     OW 2659   1.386   0.264   1.634 -0.1417  0.0877  0.3911
  887SOL    HW1 2660   1.307   0.215   1.585 -2.1117 -0.2504 -3.1367
  887SOL    HW2 2661   1.363   0.274   1.736  0.0624  0.2343  1.6652
  888SOL     OW 2662   2.687   1.698   1.647  0.2894  0.2250  0.7362
  888SOL    HW1 2663   2.690   1.790   1.684 -0.4696 -1.1412 -0.3979
  888SOL    HW2 2664   2.661   1.706   1.550 -0.2980  0.7713  2.0743
  889SOL     OW 2665   2.975   2.470   0.893  0.0702 -0.4668 -0.4248
  889SOL    HW1 2666   3.051   2.517   0.841  2.6424  0.7950 -1.9390
  889SOL    HW2 2667   2.885   2.508   0.867  3.6503 -0.0327  0.5609
  890SOL     OW 2668   0.451   1.839   2.227  0.2433  0.3303  0.8100
  890SOL    HW1 2669   0.415   1.758   2.174 -0.6563 -2.4087  1.1121
  890SOL    HW2 2670   0.370   1.887   2.266  2.5323  2.6973 -0.0819
  891SOL     OW 2671   0.714   1.804   0.771  0.6740 -0.1319  0.3039
  891SOL    HW1 2672   0.736   1.866   0.692 -1.5350 -1.3390 -2.6643
  891SOL    HW2 2673   0.790   1.746   0.796 -0.8118  4.6192  0.8787
  892SOL     OW 2674   2.975   2.140   1.487 -0.4607  0.2736 -0.2934
  892SOL    HW1 2675   2.930   2.218   1.525  3.2579 -0.1949 -1.4107
  892SOL    HW2 2676   2.916   2.094   1.420 -0.3555  2.4300  2.1964
  893SOL     OW 2677   0.072   0.042   1.664 -0.4206 -0.5601 -0.2964
  893SOL    HW1 2678   0.070   0.128   1.606 -1.3938  2.3298  0.1188
  893SOL    HW2 2679   0.161   0.026   1.708 -1.0291  0.6255 -0.7079
  894SOL     OW 2680   2.732   1.770   0.731  0.9380  0.1716  0.2567
  894SOL    HW1 2681   2.793   1.759   0.649 -0.3954 -0.4258  0.0407
  894SOL    HW2 2682   2.757   1.705   0.806  1.3182 -0.2900 -0.2178
  895SOL     OW 2683   1.760   2.444   1.483  0.0815 -0.7609 -0.0615
  895SOL    HW1 2684   1.708   2.356   1.478 -2.3743  0.5005 -0.8232
  895SOL    HW2 2685   1.830   2.444   1.409 -0.3785 -0.2141  2.8512
  896SOL     OW 2686   0.369   0.017   1.367 -0.1965  0.0386  0.3038
  896SOL    HW1 2687   0.316   0.005   1.284  0.6981  2.8574  3.7631
  896SOL    HW2 2688   0.397   0.113   1.380 -2.7985 -0.3198  0.5733
  897SOL     OW 2689   1.273   1.191   1.399 -0.2208  0.1361 -0.1098
  897SOL    HW1 2690   1.371   1.216   1.378 -1.8342 -0.0201 -1.4254
  897SOL    HW2 2691   1.266   1.152   1.495 -2.4964 -1.3767 -2.6701
  898SOL     OW 2692   0.765   0.164   1.605 -0.0731 -0.1518  0.3131
  898SOL    HW1 2693   0.723   0.177   1.697  0.9828 -0.9723 -0.5720
  898SOL    HW2 2694   0.841   0.232   1.590 -3.2145  0.9038  1.6290
  899SOL     OW 2695   1.494   0.049   0.005  0.0796  0.1770  0.1999
  899SOL    HW1 2696   1.575   0.105   0.020 -2.2565 -2.8565  0.5625
  899SOL    HW2 2697   1.425   0.099   3.022  1.3104 -0.4571  3.8701
  900SOL     OW 2698   0.567   0.305   2.208 -0.3859  0.1116 -0.2233
  900SOL    HW1 2699   0.612   0.238   2.273 -2.1214 -2.0414 -0.5620
  900SOL    HW2 2700   0.469   0.280   2.196  3.1377  1.5124  0.0343
  901SOL     OW 2701   0.933   2.109   0.095 -0.0551 -0.6363 -0.2177
  901SOL    HW1 2702   0.929   2.017   0.133 -0.5419  3.1685  0.1152
  901SOL    HW2 2703   0.945   2.180   0.164 -0.9420 -0.9290  0.1076
  902SOL     OW 2704   1.998   0.319   0.870 -0.1753 -0.2095  0.1029
  902SOL    HW1 2705   1.977   0.259   0.794  0.0374 -2.0021  0.4138
  902SOL    HW2 2706   1.963   0.260   0.949 -0.4736  0.0637  1.7254
  903SOL     OW 2707   2.889   1.244   2.570  0.0842 -0.2372 -0.4404
  903SOL    HW1 2708   2.915   1.323   2.629  2.5483  2.3984  0.5519
  903SOL    HW2 2709   2.849   1.278   2.482 -3.8839  0.2968  1.5227
  904SOL     OW 2710   1.464   1.382   0.365  0.4649  0.4285 -0.1625
  904SOL    HW1 2711   1.494   1.464   0.309 -3.3145 -0.4678 -1.9385
  904SOL    HW2 2712   1.430   1.409   0.456 -0.9598 -0.4758 -2.3016
  905SOL     OW 2713   1.947   2.980   1.341 -0.8399 -0.2064  0.0494
  905SOL    HW1 2714   1.848   3.000   1.350  2.2593 -0.7715  2.5281
  905SOL    HW2 2715   1.996   3.047   1.280 -0.6347 -1.0370 -1.5700
  906SOL     OW 2716   2.249   2.785   0.993 -0.2851  0.3111 -0.7903
  906SOL    HW1 2717   2.286   2.716   1.060 -2.1106 -1.4067  2.0134
  906SOL    HW2 2718   2.235   2.869   1.047 -2.6170  0.4449 -1.9101
  907SOL     OW 2719   1.863   1.149   0.346 -0.2217  0.0424  0.2068
  907SOL    HW1 2720   1.914   1.073   0.391  1.6290  0.2838  0.0391
  907SOL    HW2 2721   1.804   1.120   0.266  0.5970 -0.4345 -1.5113
  908SOL     OW 2722   1.652   0.533   1.284  0.2356  0.4900  0.0017
  908SOL    HW1 2723   1.581   0.587   1.228 -0.3398  1.5699 -0.6262
  908SOL    HW2 2724   1.724   0.599   1.317 -1.5691 -2.1220 -1.0393
  909SOL     OW 2725   2.415   3.052   0.748 -0.2982 -0.2053 -0.3384
  909SOL    HW1 2726   2.472   0.051   0.791  0.6563  1.3938  1.0258
  909SOL    HW2 2727   2.320   0.018   0.732 -1.5253 -1.5075 -0.9618
  910SOL     OW 2728   2.431   0.460   2.131 -0.2533 -0.1710  0.5900
  910SOL    HW1 2729   2.452   0.520   2.048  0.9731 -0.2957 -0.2357
  910SOL    HW2 2730   2.459   0.512   2.218  2.3097  0.6224  1.4828
  911SOL     OW 2731   2.508   0.043   2.568  0.4319 -0.1564 -0.2314
  911SOL    HW1 2732   2.490   0.141   2.584 -2.7272 -0.7104  0.2927
  911SOL    HW2 2733   2.548   3.069   2.648 -2.5790  0.6068 -0.8246
  912SOL     OW 2734   0.726   1.004   1.395  0.4690 -0.0326 -0.3881
  912SOL    HW1 2735   0.731   1.041   1.489  0.5701  1.8687 -3.1150
  912SOL    HW2 2736   0.625   1.002   1.369 -2.4812 -2.9114  0.5025
  913SOL     OW 2737   2.927   2.371   1.254 -0.2165 -0.2095  0.1269
  913SOL    HW1 2738   2.889   2.364   1.351  0.2074 -1.4793  1.6001
  913SOL    HW2 2739   2.863   2.396   1.179  1.5483 -3.8678 -1.2163
  914SOL     OW 2740   1.739   0.745   1.133  0.0609  0.4056  0.2037
  914SOL    HW1 2741   1.783   0.731   1.222 -0.7305  0.7984  0.5397
  914SOL    HW2 2742   1.751   0.665   1.070  0.1535  2.0977 -0.7391
  915SOL     OW 2743   0.023   1.511   1.181 -0.1776 -0.8933  0.5234
  915SOL    HW1 2744   0.108   1.556   1.223  3.1122 -0.9108  0.9312
  915SOL    HW2 2745   0.047   1.454   1.098  2.0555  0.1932  1.5330
  916SOL     OW 2746   1.935   2.354   0.973 -0.2061  0.5694  0.5076
  916SOL    HW1 2747   2.026   2.380   0.937  0.1702 -1.3213 -1.1044
  916SOL    HW2 2748   1.931   2.249   0.966 -0.0883 -2.9061  0.5983
  917SOL     OW 2749   1.624   2.492   2.056  0.3052  0.2315 -0.0458
  917SOL    HW1 2750   1.721   2.516   2.079  4.6893 -0.5007 -1.8195
  917SOL    HW2 2751   1.581   2.553   1.984 -0.2747  1.5158  0.1583
  918SOL     OW 2752   1.974   2.045   2.485  0.1045  0.1860  0.1726
  918SOL    HW1 2753   1.998   2.137   2.452  0.1831 -0.6987  0.2392
  918SOL    HW2 2754   2.062   2.009   2.527 -0.4441 -0.8734 -0.4353
  919SOL     OW 2755   0.757   0.256   1.329  0.2537 -0.3344 -0.2948
  919SOL    HW1 2756   0.704   0.181   1.279 -1.2536 -1.5796 -2.2619
  919SOL    HW2 2757   0.798   0.219   1.416  2.2565  3.4178 -1.2710
  920SOL     OW 2758   2.729   0.276   2.059  0.0599  0.1178 -0.1369
  920SOL    HW1 2759   2.786   0.196   2.026 -1.9605 -1.5330  1.2786
  920SOL    HW2 2760   2.771   0.365   2.047  0.0251 -3.2881 -3.0301
  921SOL     OW 2761   2.711   1.168   1.634 -0.3891  0.4177  0.0348
  921SOL    HW1 2762   2.729   1.070   1.628 -0.3311  1.2046  1.7065
  921SOL    HW2 2763   2.612   1.179   1.670 -0.9740 -1.0188 -0.3116
  922SOL     OW 2764   2.721   2.212   0.762  0.1281 -0.2793  0.5817
  922SOL    HW1 2765   2.646   2.267   0.798  0.3238 -0.6897 -2.0741
  922SOL    HW2 2766   2.768   2.276   0.698 -2.1365 -3.1319  1.8170
  923SOL     OW 2767   0.457   2.235   0.534  0.0717 -0.1930  0.6058
  923SOL    HW1 2768   0.396   2.204   0.460  0.1223  1.1480 -0.8430
  923SOL    HW2 2769   0.543   2.267   0.499 -0.4381 -0.7685  0.8417
  924SOL     OW 2770   1.177   1.124   2.804  0.4002  0.1179  0.2284
  924SOL    HW1 2771   1.113   1.109   2.880  3.1802 -0.1760 -2.7886
  924SOL    HW2 2772   1.167   1.219   2.769 -0.6268 -2.9457 -1.5218
  925SOL     OW 2773   2.867   1.342   0.843  0.0298  0.6712  0.0786
  925SOL    HW1 2774   2.896   1.245   0.859  1.7627  1.1360  1.0333
  925SOL    HW2 2775   2.854   1.365   0.740 -0.0837 -0.6288 -2.1605
  926SOL     OW 2776   0.113   0.123   0.871 -0.1264 -0.2041 -0.0854
  926SOL    HW1 2777   0.195   0.071   0.845 -0.1103 -2.3666  0.7432
  926SOL    HW2 2778   0.039   0.057   0.881  0.9963  3.1684  0.3231
  927SOL     OW 2779   0.469   1.978   2.621  0.0546 -0.4881 -0.1682
  927SOL    HW1 2780   0.374   1.989   2.664 -1.4721 -0.5236 -0.0284
  927SOL    HW2 2781   0.484   1.881   2.599  0.6917  0.9592  2.4919
  928SOL     OW 2782   3.046   0.270   2.352  0.1588  0.0588 -0.4374
  928SOL    HW1 2783   0.050   0.280   2.419  0.4774 -3.0544 -3.1198
  928SOL    HW2 2784   2.970   0.211   2.392 -2.7748 -2.9524  0.3408
  929SOL     OW 2785   2.703   1.959   1.082  0.2299 -0.5283 -0.3215
  929SOL    HW1 2786   2.623   2.021   1.093 -0.7995  1.4222 -3.0790
  929SOL    HW2 2787   2.764   1.979   1.000  1.9071  0.3337 -0.8820
  930SOL     OW 2788   1.716   0.290   2.190  0.2405  0.1300 -0.2935
  930SOL    HW1 2789   1.660   0.285   2.277  1.0920  0.0835  1.6093
  930SOL    HW2 2790   1.756   0.386   2.181  0.1192 -1.5417 -1.7453
  931SOL     OW 2791   2.269   1.145   2.980  0.5078 -0.0112 -0.0271
  931SOL    HW1 2792   2.188   1.169   3.040 -0.9631 -1.2315 -0.3501
  931SOL    HW2 2793   2.238   1.142   2.884  2.5841  0.2945 -1.0115
  932SOL     OW 2794   1.694   0.841   0.513  0.4715  0.4068 -0.3275
  932SOL    HW1 2795   1.638   0.801   0.589  0.1194 -0.4539 -1.6989
  932SOL    HW2 2796   1.667   0.794   0.425  1.9719 -1.4349 -2.1937
  933SOL     OW 2797   2.174   1.147   0.643  0.2749 -0.5372  0.1202
  933SOL    HW1 2798   2.211   1.133   0.550 -0.0421  1.7776  0.1735
  933SOL    HW2 2799   2.140   1.239   0.657 -1.3177 -0.9120 -0.5361
  934SOL     OW 2800   2.170   1.104   2.739 -0.7791  0.3284  0.0990
  934SOL    HW1 2801   2.070   1.107   2.738  2.6219 -1.1221 -2.1318
  934SOL    HW2 2802   2.204   1.071   2.648 -0.2260 -2.0491 -0.2725
  935SOL     OW 2803   0.092   1.450   0.931 -0.5756 -0.4488  0.3480
  935SOL    HW1 2804   0.053   1.539   0.891  0.3346 -0.1342 -1.7835
  935SOL    HW2 2805   0.047   1.373   0.889  1.0821  0.9959  0.3717
  936SOL     OW 2806   0.179   2.712   0.273  0.0914 -0.0635 -0.1731
  936SOL    HW1 2807   0.229   2.791   0.310 -1.5165  0.7700 -2.1082
  936SOL    HW2 2808   0.241   2.641   0.233 -1.3656 -0.8294  1.5779
  937SOL     OW 2809   0.093   2.304   1.957  0.8898 -0.4465 -0.0739
  937SOL    HW1 2810   0.060   2.366   1.889  0.9681 -1.0077  1.9779
  937SOL    HW2 2811   0.102   2.210   1.916 -1.8236  0.7474  0.2294
  938SOL     OW 2812   2.409   2.205   3.027 -0.8129 -0.8808 -0.0567
  938SOL    HW1 2813   2.400   2.284   2.966 -0.2958 -1.3075  2.9611
  938SOL    HW2 2814   2.368   2.122   2.977  1.1562 -2.2253  1.8173
  939SOL     OW 2815   0.945   0.580   1.236 -0.1402 -0.2255 -0.0085
  939SOL    HW1 2816   0.883   0.572   1.314  0.4331  1.6349  0.7303
  939SOL    HW2 2817   1.041   0.542   1.253  2.6343 -0.4332 -0.9956
  940SOL     OW 2818   2.495   2.698   2.887  0.2977  0.0619 -0.1177
  940SOL    HW1 2819   2.444   2.784   2.913 -3.8346  2.6807  0.5775
  940SOL    HW2 2820   2.456   2.618   2.934 -1.6850 -0.3397 -1.7504
  941SOL     OW 2821   2.586   2.667   2.193 -0.1348 -0.2110 -0.3420
  941SOL    HW1 2822   2.662   2.678   2.125 -1.0630 -0.6074  2.4063
  941SOL    HW2 2823   2.510   2.731   2.177 -0.1744 -1.4008  1.7205
  942SOL     OW 2824   1.420   0.244   1.218 -0.0910 -0.4963 -0.3467
  942SOL    HW1 2825   1.486   0.241   1.141  2.9749 -3.8370 -3.0121
  942SOL    HW2 2826   1.406   0.336   1.253  1.0989 -1.4624  0.6868
  943SOL     OW 2827   0.873   1.384   2.433  0.0322  0.0013 -0.7432
  943SOL    HW1 2828   0.853   1.281   2.437  0.8407 -2.7572 -0.4063
  943SOL    HW2 2829   0.844   1.425   2.346 -1.2435 -1.6622 -1.0570
  944SOL     OW 2830   2.713   0.864   1.146  0.4459 -0.4478 -0.2956
  944SOL    HW1 2831   2.797   0.852   1.083  2.4632 -0.6526 -1.7225
  944SOL    HW2 2832   2.650   0.935   1.104 -2.6264  2.0678  1.2968
  945SOL     OW 2833   2.805   0.146   2.724  0.3010  0.7891  0.3094
  945SOL    HW1 2834   2.736   0.162   2.792 -2.8354  0.1521 -1.2840
  945SOL    HW2 2835   2.871   0.079   2.760 -0.0813  0.7838 -0.7557
  946SOL     OW 2836   3.054   1.452   1.533 -0.1661 -0.1250 -0.1630
  946SOL    HW1 2837   2.983   1.500   1.479 -0.3978 -0.2263  1.1972
  946SOL    HW2 2838   3.033   1.354   1.547 -0.8257  0.5829 -1.3296
  947SOL     OW 2839   0.840   0.250   2.914 -0.5256  0.1197  0.3137
  947SOL    HW1 2840   0.803   0.342   2.934  0.4766  0.5637  0.2199
  947SOL    HW2 2841   0.790   0.174   2.949  2.4915  0.3866 -2.1915
  948SOL     OW 2842   2.197   1.723   1.113 -0.3263  0.1619  0.0669
  948SOL    HW1 2843   2.150   1.663   1.182  0.0276 -0.4071 -0.7799
  948SOL    HW2 2844   2.280   1.676   1.090 -3.6843  3.5404  2.9598
  949SOL     OW 2845   0.324   0.973   2.869  0.3291 -0.1329 -0.2576
  949SOL    HW1 2846   0.361   0.991   2.958 -0.7415 -0.4236  0.7989
  949SOL    HW2 2847   0.226   0.999   2.863  0.1754 -0.6535  0.2595
  950SOL     OW 2848   0.294   2.810   1.257  0.0491  0.0309 -0.7265
  950SOL    HW1 2849   0.217   2.793   1.323 -0.9080 -0.3217 -1.1581
  950SOL    HW2 2850   0.376   2.766   1.297 -1.8954 -0.1649 -2.4990
  951SOL     OW 2851   0.915   1.816   2.707 -0.1942 -0.9421  0.3971
  951SOL    HW1 2852   0.843   1.880   2.679  1.2679 -2.3149 -1.6847
  951SOL    HW2 2853   1.007   1.858   2.725  0.6305 -0.1078  0.6718
  952SOL     OW 2854   0.650   1.174   0.747  0.2328  0.5567 -0.2544
  952SOL    HW1 2855   0.666   1.076   0.720 -2.2946 -0.1625 -0.0726
  952SOL    HW2 2856   0.700   1.239   0.690 -0.4238  2.0799  1.3361
  953SOL     OW 2857   2.189   1.696   2.694 -0.0766  0.0680 -0.1308
  953SOL    HW1 2858   2.229   1.675   2.600 -0.0836  0.0047 -0.3040
  953SOL    HW2 2859   2.245   1.665   2.773  2.3627  0.3712 -0.6914
  954SOL     OW 2860   1.436   0.464   0.748 -0.1236  0.4163  0.3777
  954SOL    HW1 2861   1.521   0.427   0.713 -0.4079 -0.4808  0.0509
  954SOL    HW2 2862   1.409   0.420   0.833 -1.3093 -1.7515 -1.1113
  955SOL     OW 2863   0.982   1.676   2.915  0.1479 -0.7016  0.4253
  955SOL    HW1 2864   0.964   1.743   2.841 -1.3881  0.7916 -1.4991
  955SOL    HW2 2865   0.992   1.730   3.005  1.0089  3.4850  1.6162
  956SOL     OW 2866   2.763   0.651   1.863  0.2688  0.7265  0.1722
  956SOL    HW1 2867   2.812   0.739   1.862 -2.3001  1.5759  1.0903
  956SOL    HW2 2868   2.772   0.591   1.780 -0.8935 -0.8258  0.2158
  957SOL     OW 2869   1.765   2.105   2.115 -0.0597  0.7447  0.0423
  957SOL    HW1 2870   1.797   2.004   2.100  4.7381 -2.8480 -0.6339
  957SOL    HW2 2871   1.683   2.131   2.060  0.7234  0.2241 -1.5522
  958SOL     OW 2872   1.728   1.000   1.254  0.1189 -1.3611  0.4931
  958SOL    HW1 2873   1.802   1.066   1.234 -0.8611 -0.6749 -0.2136
  958SOL    HW2 2874   1.734   0.917   1.195  0.8307  0.1464  1.8845
  959SOL     OW 2875   1.552   2.156   1.930  0.4988 -0.1644 -0.2646
  959SOL    HW1 2876   1.524   2.063   1.914  2.8947  2.1253  0.1665
  959SOL    HW2 2877   1.475   2.221   1.944  0.4191  0.7073  0.2777
  960SOL     OW 2878   0.475   0.990   2.589 -0.1126 -0.0667  0.1811
  960SOL    HW1 2879   0.396   0.968   2.648 -0.2411  0.1558  0.2486
  960SOL    HW2 2880   0.477   0.923   2.514  0.9025  0.5199  3.0079
  961SOL     OW 2881   0.090   1.177   0.046 -0.0727 -0.0679  0.0737
  961SOL    HW1 2882   0.108   1.236   3.038 -1.1699  0.2148  0.3655
  961SOL    HW2 2883   3.071   1.200   0.089  1.1422 -0.2393  3.2841
  962SOL     OW 2884   1.006   2.196   2.824  0.3532  0.2198  0.2430
  962SOL    HW1 2885   1.095   2.194   2.877  0.2142 -1.1173  1.7610
  962SOL    HW2 2886   1.020   2.241   2.732 -1.1111  1.8090 -2.1297
  963SOL     OW 2887   2.809   1.588   0.101  0.8046 -0.2257  0.5606
  963SOL    HW1 2888   2.886   1.548   0.050 -1.1079 -0.4751  0.7447
  963SOL    HW2 2889   2.813   1.689   0.088  1.9950 -0.0296  2.3876
  964SOL     OW 2890   0.692   2.232   2.190  0.5075  0.0559 -0.0595
  964SOL    HW1 2891   0.780   2.251   2.142  1.6018  0.2471  1.8876
  964SOL    HW2 2892   0.687   2.252   2.294  0.5640  3.8780  1.1799
  965SOL     OW 2893   1.466   1.730   1.290  0.1414 -0.2480 -0.3788
  965SOL    HW1 2894   1.398   1.659   1.303  0.0036  1.6274 -1.5138
  965SOL    HW2 2895   1.533   1.734   1.364 -2.7900 -0.7607 -0.6673
  966SOL     OW 2896   2.922   1.530   0.357  0.6425 -0.3667 -0.7151
  966SOL    HW1 2897   3.011   1.532   0.304  0.0001  0.5532 -0.0627
  966SOL    HW2 2898   2.840   1.535   0.297 -0.3532  2.8247  0.9584
  967SOL     OW 2899   1.946   2.715   2.473 -0.3275 -0.2963  0.5321
  967SOL    HW1 2900   1.887   2.777   2.413 -0.9485  1.2817  4.1098
  967SOL    HW2 2901   1.937   2.611   2.452  0.1915 -4.0500 -2.5864
  968SOL     OW 2902   1.638   1.296   2.849  0.3077 -0.2324  0.4435
  968SOL    HW1 2903   1.724   1.322   2.805 -0.9925  1.2416 -0.0048
  968SOL    HW2 2904   1.664   1.272   2.944 -0.2011 -3.2533  1.9519
  969SOL     OW 2905   0.132   1.247   2.235  0.4449  0.3408 -0.0287
  969SOL    HW1 2906   0.081   1.168   2.191 -5.2577 -1.0465  0.3187
  969SOL    HW2 2907   0.227   1.252   2.197  0.4302  1.6585  0.9703
  970SOL     OW 2908   2.718   2.945   0.438 -0.3506  0.1308 -0.2670
  970SOL    HW1 2909   2.785   2.879   0.473 -2.2237 -0.9789 -0.5025
  970SOL    HW2 2910   2.720   2.949   0.338  2.8348  0.3689  0.4312
  971SOL     OW 2911   2.118   2.002   0.750 -0.5854  0.0270 -0.6439
  971SOL    HW1 2912   2.206   2.026   0.795  0.2415  2.0085  0.0334
  971SOL    HW2 2913   2.098   1.902   0.750  0.5047 -0.4389  2.2909
  972SOL     OW 2914   0.217   1.523   2.726 -0.0580  0.5938 -0.0136
  972SOL    HW1 2915   0.213   1.606   2.662  0.7327  0.6216  0.6685
  972SOL    HW2 2916   0.294   1.528   2.791 -1.9967  1.2207  1.5198
  973SOL     OW 2917   0.768   0.507   0.336 -0.0449  0.5124 -0.5688
  973SOL    HW1 2918   0.693   0.490   0.265 -1.3275  0.2875 -1.0348
  973SOL    HW2 2919   0.862   0.508   0.291  1.4844  0.8193 -0.5906
  974SOL     OW 2920   2.273   0.684   1.587  0.3171  0.2344 -0.1115
  974SOL    HW1 2921   2.273   0.611   1.658  3.0301 -0.4204 -0.6307
  974SOL    HW2 2922   2.356   0.748   1.597  1.2011  5.3579  2.0086
  975SOL     OW 2923   0.170   3.068   0.465  0.4731  0.7399 -0.0293
  975SOL    HW1 2924   0.271   3.063   0.493  4.6070 -1.1309 -0.7647
  975SOL    HW2 2925   0.121   2.981   0.497  0.0393 -3.1122  0.7141
  976SOL     OW 2926   0.648   1.516   1.364  0.9939  0.0704  0.0669
  976SOL    HW1 2927   0.624   1.451   1.287 -0.1021  2.4631  2.3404
  976SOL    HW2 2928   0.684   1.599   1.323  0.0979 -0.9373  1.6465
  977SOL     OW 2929   1.279   2.053   0.378  0.1883  0.2457 -0.4428
  977SOL    HW1 2930   1.354   2.031   0.316 -1.4091  2.3292  0.8205
  977SOL    HW2 2931   1.260   2.152   0.377 -0.7630  2.3924 -0.8838
  978SOL     OW 2932   0.161   0.925   0.075  0.2416 -0.9182 -0.4445
  978SOL    HW1 2933   0.125   1.013   0.041  1.8568 -0.1296 -0.2482
  978SOL    HW2 2934   0.235   0.943   0.147  0.8864  1.0118  1.4753
  979SOL     OW 2935   1.983   1.410   0.424 -0.2297 -0.0495  0.2235
  979SOL    HW1 2936   1.891   1.368   0.422  0.6424  0.8409 -2.9223
  979SOL    HW2 2937   1.985   1.499   0.474  0.0739  2.4094 -0.7770
  980SOL     OW 2938   0.531   1.880   1.580  0.0278 -0.0674 -0.5428
  980SOL    HW1 2939   0.565   1.939   1.655  0.2023 -0.5908  0.2298
  980SOL    HW2 2940   0.519   1.933   1.499 -1.9405  1.2072  1.1993
  981SOL     OW 2941   2.678   1.514   2.779  0.3444  0.1728  0.2298
  981SOL    HW1 2942   2.773   1.505   2.755 -1.6314  0.7677  0.3513
  981SOL    HW2 2943   2.617   1.444   2.737  1.3564  0.5454  1.7852
  982SOL     OW 2944   0.317   1.960   1.780 -0.0290  0.3332  0.0572
  982SOL    HW1 2945   0.368   2.031   1.731 -3.1739 -0.4172  3.3448
  982SOL    HW2 2946   0.377   1.883   1.809 -1.4033 -2.3407 -1.4936
  983SOL     OW 2947   1.487   0.064   2.000  0.3688  0.4020 -0.1199
  983SOL    HW1 2948   1.416   0.014   1.948 -0.4823  0.0631  1.3410
  983SOL    HW2 2949   1.451   0.153   2.034  0.8469  0.0725  0.8091
  984SOL     OW 2950   2.927   2.973   2.904  0.4664 -0.4609  0.1976
  984SOL    HW1 2951   2.965   3.033   2.977 -0.7700 -1.0495  1.5960
  984SOL    HW2 2952   3.000   2.939   2.840  1.3078  0.6868 -0.3198
  985SOL     OW 2953   1.398   1.337   1.911  0.4708 -0.0051  0.0936
  985SOL    HW1 2954   1.498   1.326   1.896  4.8240 -2.3407  1.1042
  985SOL    HW2 2955   1.354   1.254   1.956  0.5600  0.7900  1.0157
  986SOL     OW 2956   1.817   0.486   2.873  0.0577  0.2297 -0.0034
  986SOL    HW1 2957   1.917   0.482   2.861  0.1485  0.5467 -3.6136
  986SOL    HW2 2958   1.776   0.490   2.779  0.1427 -1.3132  1.0079
  987SOL     OW 2959   0.019   1.803   2.552 -0.3823  0.1270  0.1038
  987SOL    HW1 2960   0.006   1.852   2.640  0.6372  0.0851  0.2210
  987SOL    HW2 2961   3.024   1.724   2.536 -1.2392  0.9667 -1.4396
  988SOL     OW 2962   2.698   0.226   1.361  0.6804 -0.2703  0.1095
  988SOL    HW1 2963   2.795   0.246   1.340 -1.8589  1.2421 -0.7429
  988SOL    HW2 2964   2.647   0.206   1.275  0.6527 -2.4642  0.3103
  989SOL     OW 2965   1.891   0.136   1.027  0.1107  0.2174  0.1719
  989SOL    HW1 2966   1.905   0.034   1.006 -1.0959 -0.7826 -1.2212
  989SOL    HW2 2967   1.928   0.160   1.117  0.8007 -1.1326 -3.1231
  990SOL     OW 2968   2.567   0.851   0.012  0.1234  0.6549 -0.0566
  990SOL    HW1 2969   2.638   0.845   3.008 -1.0474  0.6266  1.0921
  990SOL    HW2 2970   2.599   0.921   0.077  0.8543  0.2043 -0.9083
  991SOL     OW 2971   0.348   1.225   0.490 -0.0422 -0.0897  0.5894
  991SOL    HW1 2972   0.243   1.233   0.489  0.6376 -1.3041 -1.1705
  991SOL    HW2 2973   0.392   1.247   0.582  1.1204 -1.4902 -0.4234
  992SOL     OW 2974   1.861   1.507   1.765  0.3675  0.1370 -0.5091
  992SOL    HW1 2975   1.837   1.541   1.860 -0.7955  0.0461  0.8695
  992SOL    HW2 2976   1.947   1.449   1.778  0.2617 -0.0513 -0.5451
  993SOL     OW 2977   0.420   2.374   0.782  0.3395  0.6830 -0.5102
  993SOL    HW1 2978   0.367   2.449   0.741  2.4042 -0.7682  1.0197
  993SOL    HW2 2979   0.469   2.324   0.711  1.3484 -0.6074 -0.4113
  994SOL     OW 2980   2.997   1.951   1.712 -0.2905  0.2913 -0.2140
  994SOL    HW1 2981   2.897   1.934   1.717  3.3309  1.4115 -1.4217
  994SOL    HW2 2982   3.026   1.979   1.616  0.5511  1.6365 -0.7372
  995SOL     OW 2983   1.924   1.645   2.749 -0.1011  0.3459 -0.3296
  995SOL    HW1 2984   1.876   1.696   2.675  1.9231  0.5279 -1.6508
  995SOL    HW2 2985   2.026   1.661   2.738 -1.4560 -1.1158  0.7204
  996SOL     OW 2986   2.059   2.234   0.434 -0.7799 -0.5419 -0.6756
  996SOL    HW1 2987   2.009   2.146   0.450  2.2853  1.3072 -0.1363
  996SOL    HW2 2988   2.104   2.264   0.518 -0.2541  0.3813  0.2515
  997SOL     OW 2989   1.171   1.601   2.171  0.5036  0.0698 -0.5039
  997SOL    HW1 2990   1.165   1.615   2.274 -0.8651  2.4353 -0.3851
  997SOL    HW2 2991   1.125   1.515   2.143 -0.0739 -2.4868  0.6731
  998SOL     OW 2992   0.067   2.385   0.495 -0.2418 -0.1538 -0.5804
  998SOL    HW1 2993   0.093   2.354   0.394 -1.3976  0.3778 -0.8680
  998SOL    HW2 2994   0.072   2.300   0.550  0.8060 -1.5254  0.2214
  999SOL     OW 2995   0.705   2.889   0.364 -0.7472  0.6781 -0.0615
  999SOL    HW1 2996   0.686   2.787   0.350 -1.1986 -0.7924  0.6766
  999SOL    HW2 2997   0.768   2.930   0.292 -0.0851  1.0979 -0.2390
 1000SOL     OW 2998   1.081   0.245   0.119 -0.2891  0.3981 -0.1929
 1000SOL    HW1 2999   1.153   0.212   0.180 -2.5738  0.1056 -0.6925
 1000SOL    HW2 3000   1.096   0.334   0.071 -1.7688  0.1826  1.3538
   3.07239   3.07239   3.07239
