1000 SPC/Fw water molecules t= 381.00000 step= 381000
 3000
    1SOL     OW    1   2.596   2.829   1.639 -0.1744  0.0529 -0.0253
    1SOL    HW1    2   2.578   2.909   1.701  1.6466 -3.2831  0.0522
    1SOL    HW2    3   2.538   2.820   1.555  1.3454 -1.1042 -1.1970
    2SOL     OW    4   2.273   2.483   0.573  0.0333  0.4274  0.4104
    2SOL    HW1    5   2.214   2.408   0.615 -1.2022 -3.1243 -1.3682
    2SOL    HW2    6   2.294   2.449   0.478  1.0111 -1.0384 -0.2060
    3SOL     OW    7   1.266   3.062   0.268  0.0061  0.0864  0.0830
    3SOL    HW1    8   1.201   0.026   0.245 -0.0253  1.3982 -2.3390
    3SOL    HW2    9   1.339   3.060   0.195  0.8956 -2.1993  0.3186
    4SOL     OW   10   1.176   0.026   2.212 -0.0313 -0.1077  0.2088
    4SOL    HW1   11   1.143   3.104   2.298 -2.4364  0.8383 -2.2314
    4SOL    HW2   12   1.223   3.062   2.162 -0.8985 -0.6226  1.3768
    5SOL     OW   13   2.215   0.378   1.508  0.4240 -0.1286  0.3739
    5SOL    HW1   14   2.192   0.335   1.416  1.8065  1.3846 -1.3326
    5SOL    HW2   15   2.135   0.367   1.576 -1.7346  0.4532 -1.2865
    6SOL     OW   16   2.089   2.038   0.540  0.1897 -0.1632  0.6521
    6SOL    HW1   17   2.165   2.062   0.472  3.6816 -1.4921 -1.6480
    6SOL    HW2   18   2.009   1.986   0.494 -4.0598 -3.2095 -1.1991
    7SOL     OW   19   2.115   1.141   0.850  0.4224  0.0455  0.0832
    7SOL    HW1   20   2.077   1.200   0.925 -2.1266 -1.0632 -1.2106
    7SOL    HW2   21   2.085   1.047   0.867 -1.4594  1.2753  0.9348
    8SOL     OW   22   0.709   1.426   1.079  0.0434  0.1007 -0.0573
    8SOL    HW1   23   0.685   1.510   1.134 -2.6063 -0.0092  0.6715
    8SOL    HW2   24   0.695   1.339   1.126  0.1430 -0.3428 -0.8404
    9SOL     OW   25   0.794   2.610   1.594 -0.3535 -0.2496  0.0247
    9SOL    HW1   26   0.732   2.692   1.596  0.8209 -1.7517  2.4668
    9SOL    HW2   27   0.739   2.527   1.624  0.4273  1.2276  0.4230
   10SOL     OW   28   1.255   2.479   0.537  0.8537 -0.0493 -0.2497
   10SOL    HW1   29   1.334   2.539   0.529  0.7013 -2.2444 -0.4197
   10SOL    HW2   30   1.281   2.383   0.514 -1.5167 -0.3323  0.9232
   11SOL     OW   31   1.743   1.620   1.357 -0.3298 -0.5493 -0.8029
   11SOL    HW1   32   1.722   1.718   1.372 -0.4477 -0.4866  0.9623
   11SOL    HW2   33   1.751   1.600   1.256 -1.0579  3.2140 -1.5289
   12SOL     OW   34   2.698   0.385   1.930 -0.0609  0.3912  0.1503
   12SOL    HW1   35   2.799   0.381   1.950  1.0654 -0.4733  0.0313
   12SOL    HW2   36   2.653   0.452   1.994 -0.4235  0.7253 -0.7441
   13SOL     OW   37   2.531   0.283   0.620 -0.3032 -0.1707  0.6329
   13SOL    HW1   38   2.496   0.214   0.552  1.5817 -0.1036  0.1238
   13SOL    HW2   39   2.464   0.316   0.688 -0.2095  1.7574 -1.9284
   14SOL     OW   40   1.791   1.255   3.038 -0.0096 -0.1720  0.2104
   14SOL    HW1   41   1.817   1.178   2.980 -0.0006  2.9771  1.0854
   14SOL    HW2   42   1.731   1.314   2.984 -1.6299 -2.0023  1.7496
   15SOL     OW   43   2.441   2.482   1.584 -0.0550  0.1403 -0.7941
   15SOL    HW1   44   2.415   2.566   1.538  1.3717 -3.9810  2.8216
   15SOL    HW2   45   2.388   2.476   1.672  0.8747  0.4195  0.3618
   16SOL     OW   46   2.280   2.964   1.137 -0.2010 -0.3453  0.0703
   16SOL    HW1   47   2.352   2.966   1.063 -1.6363  0.1800  3.1492
   16SOL    HW2   48   2.205   3.029   1.112 -0.8548 -0.4766  1.2134
   17SOL     OW   49   0.942   0.336   1.418 -0.4563  0.0088  0.5580
   17SOL    HW1   50   0.962   0.269   1.342 -0.6192 -0.0264 -0.6274
   17SOL    HW2   51   0.846   0.349   1.431  0.4892 -0.1128 -0.9236
   18SOL     OW   52   1.719   0.411   0.833  0.0751  0.1779  0.0779
   18SOL    HW1   53   1.655   0.417   0.917 -1.8424 -0.0582  2.1391
   18SOL    HW2   54   1.719   0.315   0.801  1.4214 -0.4784  0.8545
   19SOL     OW   55   2.142   1.461   0.255  0.3411  0.5619  0.5442
   19SOL    HW1   56   2.101   1.407   0.177 -0.0727 -1.9321 -2.4215
   19SOL    HW2   57   2.203   1.535   0.220  0.3714  0.7726  2.1890
   20SOL     OW   58   2.112   1.455   2.338 -0.2521 -0.6334 -0.4560
   20SOL    HW1   59   2.200   1.421   2.294 -0.1185  0.9793  0.5921
   20SOL    HW2   60   2.035   1.418   2.282  0.2683  2.3721 -1.7635
   21SOL     OW   61   1.251   0.450   0.720 -0.3320 -0.1616  0.2466
   21SOL    HW1   62   1.222   0.397   0.636  0.6770 -0.3184 -1.4977
   21SOL    HW2   63   1.347   0.492   0.712  5.8204 -1.0757 -1.3562
   22SOL     OW   64   2.637   0.802   0.964  0.0473  0.2314  0.2155
   22SOL    HW1   65   2.601   0.897   0.970 -0.9121  1.8833  1.6816
   22SOL    HW2   66   2.696   0.784   1.049  1.9684  2.8361  2.1941
   23SOL     OW   67   0.300   0.109   1.796  0.2691 -0.0665 -0.1827
   23SOL    HW1   68   0.340   0.202   1.792  1.2116 -0.3622  0.7948
   23SOL    HW2   69   0.374   0.037   1.816 -1.7674  2.2347  1.5813
   24SOL     OW   70   2.537   2.703   0.369  0.7503 -0.1293 -0.0820
   24SOL    HW1   71   2.466   2.736   0.302  0.4255  2.6321  1.4456
   24SOL    HW2   72   2.498   2.709   0.464  1.0937  0.4657  0.9312
   25SOL     OW   73   1.718   0.103   2.822  0.9328  0.5513  0.1294
   25SOL    HW1   74   1.741   0.006   2.799 -0.5069 -1.4536  2.8886
   25SOL    HW2   75   1.712   0.123   2.918  0.6140 -1.0275 -2.7708
   26SOL     OW   76   1.793   2.437   0.145  0.4985  0.0061  0.0167
   26SOL    HW1   77   1.787   2.537   0.119 -1.0829 -1.6643 -1.1054
   26SOL    HW2   78   1.746   2.430   0.237 -0.4230  0.0148 -1.1802
   27SOL     OW   79   1.218   0.691   1.179 -0.1962 -0.1722 -0.6967
   27SOL    HW1   80   1.212   0.729   1.084 -0.1474 -1.8452  0.2617
   27SOL    HW2   81   1.140   0.629   1.207  0.9436 -0.4120  0.4689
   28SOL     OW   82   1.193   1.522   0.953  0.2445  0.0418 -0.4096
   28SOL    HW1   83   1.196   1.542   0.857  2.2899 -1.9440 -1.0093
   28SOL    HW2   84   1.097   1.506   0.981  1.9227 -1.7532 -1.2740
   29SOL     OW   85   2.909   0.055   1.783 -0.7192 -0.0271 -0.3469
   29SOL    HW1   86   2.955   3.087   1.743 -1.5401 -0.6350 -0.2885
   29SOL    HW2   87   2.884   0.115   1.705 -0.4749 -0.3593 -2.9544
   30SOL     OW   88   1.125   3.050   1.277 -0.3265 -0.2301  0.4261
   30SOL    HW1   89   1.084   3.034   1.370  1.4839  1.0943  0.4622
   30SOL    HW2   90   1.227   3.046   1.279  0.5434  1.0442 -2.7887
   31SOL     OW   91   1.939   0.031   1.669  0.0707  0.2641  0.5375
   31SOL    HW1   92   1.874   0.036   1.747  1.1420 -1.8403  0.0722
   31SOL    HW2   93   1.926   3.058   1.618 -0.2492 -0.4253  0.0535
   32SOL     OW   94   1.040   1.797   0.008  0.2446 -0.3077 -0.4844
   32SOL    HW1   95   1.116   1.847   3.074 -1.0454 -2.1328 -0.3849
   32SOL    HW2   96   0.970   1.772   3.048 -1.1845  2.4981  0.2132
   33SOL     OW   97   2.973   0.692   2.205  0.2110 -0.3776 -0.8701
   33SOL    HW1   98   2.898   0.742   2.159 -0.8598  1.5158  1.6275
   33SOL    HW2   99   2.935   0.598   2.216  0.7731  0.3011  1.1503
   34SOL     OW  100   2.217   0.160   0.497 -0.1621 -0.0671  0.0090
   34SOL    HW1  101   2.187   0.255   0.489 -0.8532 -0.3209 -1.8752
   34SOL    HW2  102   2.150   0.103   0.446 -0.9009 -1.3189  2.0414
   35SOL     OW  103   2.395   2.473   1.845 -0.5290  0.1114  0.4043
   35SOL    HW1  104   2.473   2.485   1.910 -1.9023  1.4185  1.4739
   35SOL    HW2  105   2.308   2.443   1.888 -0.5276 -0.6153 -0.8064
   36SOL     OW  106   2.143   1.793   2.962 -0.1746 -0.1318 -0.2598
   36SOL    HW1  107   2.131   1.815   2.862 -1.5803  0.2861  0.6762
   36SOL    HW2  108   2.077   1.723   2.988  0.5646 -0.2546 -1.4823
   37SOL     OW  109   2.019   0.309   1.697  0.4358 -0.0863  0.2133
   37SOL    HW1  110   2.037   0.344   1.791  0.1049 -2.4963 -0.1617
   37SOL    HW2  111   1.995   0.209   1.700 -2.1238  0.8057  1.8183
   38SOL     OW  112   0.226   0.150   3.024  0.2047 -0.0029  0.2742
   38SOL    HW1  113   0.246   0.149   0.012 -0.6372  2.5915 -0.0240
   38SOL    HW2  114   0.223   0.054   2.992 -1.7784 -1.4507 -2.5502
   39SOL     OW  115   1.799   1.425   1.947  0.6151  0.3196  0.3968
   39SOL    HW1  116   1.817   1.405   2.045 -1.1883 -0.3259 -0.1366
   39SOL    HW2  117   1.853   1.503   1.907  2.1444  4.8637 -3.9084
   40SOL     OW  118   1.328   2.032   0.880 -0.0159 -0.0526  0.2143
   40SOL    HW1  119   1.398   1.975   0.830  1.1511  0.4761 -2.3166
   40SOL    HW2  120   1.367   2.124   0.884  1.3150 -0.0525 -0.0901
   41SOL     OW  121   1.953   1.947   0.913 -0.0968 -0.0998  0.1071
   41SOL    HW1  122   2.039   1.982   0.868  1.8581  1.0967 -0.6967
   41SOL    HW2  123   1.958   1.848   0.942  0.1183 -0.1349 -1.5722
   42SOL     OW  124   0.212   0.742   1.325 -0.2702 -0.0368  0.7386
   42SOL    HW1  125   0.196   0.657   1.375  0.3274  1.8016  1.4747
   42SOL    HW2  126   0.268   0.812   1.371  1.1941  0.2420 -1.5598
   43SOL     OW  127   0.159   1.615   2.816  0.2141 -0.1009  0.6120
   43SOL    HW1  128   0.108   1.669   2.887 -2.9178  1.6382  0.5876
   43SOL    HW2  129   0.229   1.555   2.862 -0.6498 -0.2693 -0.9907
   44SOL     OW  130   1.558   2.675   1.353  0.1017 -0.3347  0.0833
   44SOL    HW1  131   1.520   2.764   1.383  0.1291 -1.3621  1.8645
   44SOL    HW2  132   1.643   2.650   1.405  0.5594  0.7867  0.3696
   45SOL     OW  133   1.111   3.038   2.454  0.1624  0.5161  0.1261
   45SOL    HW1  134   1.120   2.937   2.437 -1.3143  1.3224  1.8684
   45SOL    HW2  135   1.111   3.060   2.554  1.2200  0.9743  1.4506
   46SOL     OW  136   0.871   2.557   2.394  0.2822  0.4864  0.1719
   46SOL    HW1  137   0.916   2.610   2.322 -0.8803 -3.1004  1.5567
   46SOL    HW2  138   0.832   2.620   2.465  0.0115  0.1619 -0.6339
   47SOL     OW  139   1.113   2.339   0.905 -0.0998  0.1574  0.7114
   47SOL    HW1  140   1.058   2.428   0.906 -1.6236  3.7632  1.9448
   47SOL    HW2  141   1.143   2.314   0.997 -1.6788  0.9935  0.4079
   48SOL     OW  142   0.968   2.162   1.180  0.7351  1.0295  0.1458
   48SOL    HW1  143   0.911   2.236   1.224  2.6845  0.4790  1.6770
   48SOL    HW2  144   0.914   2.101   1.116 -2.7020  2.0941 -0.0426
   49SOL     OW  145   2.518   0.408   3.023  0.2289  0.4136 -0.1141
   49SOL    HW1  146   2.458   0.475   3.065  1.4259 -3.1958 -0.5055
   49SOL    HW2  147   2.561   0.453   2.943  0.7625 -1.0029  0.6925
   50SOL     OW  148   1.847   0.290   0.322 -0.1043 -1.1177 -0.2203
   50SOL    HW1  149   1.939   0.298   0.279 -0.2911 -1.5093 -0.4342
   50SOL    HW2  150   1.824   0.380   0.366 -2.1449  3.5476  1.1194
   51SOL     OW  151   1.896   0.767   1.346  0.5215  0.5919  0.6170
   51SOL    HW1  152   1.961   0.696   1.306  2.1993 -2.3079 -1.4021
   51SOL    HW2  153   1.948   0.851   1.366  1.3487 -1.4899  1.0781
   52SOL     OW  154   0.419   1.707   0.201  0.1286  0.0219 -0.0258
   52SOL    HW1  155   0.391   1.611   0.172  0.8806  2.0927 -0.0062
   52SOL    HW2  156   0.448   1.765   0.123 -1.7386 -0.9560 -0.9289
   53SOL     OW  157   0.312   1.248   2.897 -0.2351  0.1499  0.5894
   53SOL    HW1  158   0.326   1.232   2.997 -1.3182  0.4552 -1.8331
   53SOL    HW2  159   0.362   1.334   2.869 -1.0200  2.0672  0.3777
   54SOL     OW  160   2.630   1.428   1.948 -0.2401  0.3203 -0.1988
   54SOL    HW1  161   2.571   1.508   1.955  1.6501 -2.3275 -3.0047
   54SOL    HW2  162   2.727   1.443   1.984  1.5737  2.5483  1.1958
   55SOL     OW  163   2.500   1.839   0.378  0.3581 -0.5449  0.1236
   55SOL    HW1  164   2.414   1.788   0.358  0.3868  0.4217  1.5092
   55SOL    HW2  165   2.508   1.856   0.474  1.4616  0.0584 -2.3518
   56SOL     OW  166   1.859   0.215   1.392  0.0973 -0.2798 -0.2566
   56SOL    HW1  167   1.887   0.245   1.301  2.4369 -0.7669 -0.3060
   56SOL    HW2  168   1.936   0.167   1.440  1.4122  1.8359  1.2292
   57SOL     OW  169   1.463   1.154   2.921  0.1217 -0.2567  0.2539
   57SOL    HW1  170   1.368   1.124   2.940  2.0534 -0.4657 -0.6072
   57SOL    HW2  171   1.530   1.081   2.955  1.7876 -2.4181  1.1627
   58SOL     OW  172   2.459   0.266   1.474 -0.0172  0.5423 -0.3730
   58SOL    HW1  173   2.523   0.302   1.542 -0.2772 -1.2303  2.0628
   58SOL    HW2  174   2.370   0.308   1.492  0.5119  0.4684 -2.3236
   59SOL     OW  175   1.476   2.663   3.100 -0.1233 -0.5089 -0.2822
   59SOL    HW1  176   1.447   2.721   3.024  1.6639 -0.3858  2.3209
   59SOL    HW2  177   1.421   2.685   0.069 -0.2538  0.5136  1.1733
   60SOL     OW  178   0.030   2.251   2.859  0.5560 -0.2608 -0.0649
   60SOL    HW1  179   3.056   2.291   2.901  0.3101 -3.4553  0.6210
   60SOL    HW2  180   0.055   2.164   2.907 -1.6058 -0.4238 -3.1591
   61SOL     OW  181   0.417   2.288   1.116  0.0448  0.0933  0.0216
   61SOL    HW1  182   0.511   2.319   1.111  0.2287  0.2366 -0.7235
   61SOL    HW2  183   0.363   2.316   1.033 -0.1222 -0.4115  1.4106
   62SOL     OW  184   1.902   1.856   2.538  0.1549 -0.7111  0.1931
   62SOL    HW1  185   1.852   1.905   2.463  2.8562 -0.0133 -0.8409
   62SOL    HW2  186   1.838   1.789   2.589 -0.1003 -0.7039  0.4647
   63SOL     OW  187   1.855   1.815   0.061 -0.1652 -0.5847  0.5139
   63SOL    HW1  188   1.894   1.802   0.156 -0.7003  0.0427 -2.9837
   63SOL    HW2  189   1.875   1.737   3.109  2.2166  1.7642  0.6120
   64SOL     OW  190   2.100   1.031   0.158  0.6009 -0.2001 -0.3753
   64SOL    HW1  191   2.158   1.114   0.172  1.1177  1.8931 -0.5506
   64SOL    HW2  192   2.001   1.045   0.180 -0.7530  1.4994 -0.2711
   65SOL     OW  193   2.212   2.183   1.895  0.1634 -0.1136  0.2990
   65SOL    HW1  194   2.261   2.111   1.944 -0.0625 -1.5033  2.7290
   65SOL    HW2  195   2.215   2.267   1.954  0.0894  0.0055 -1.6750
   66SOL     OW  196   0.483   0.871   1.447 -0.3320  0.2468 -0.1233
   66SOL    HW1  197   0.485   0.908   1.348 -1.0840  3.3527 -2.2163
   66SOL    HW2  198   0.479   0.955   1.499  2.5006 -1.6116 -1.6628
   67SOL     OW  199   2.331   0.026   0.019 -0.6031  0.4254 -0.1129
   67SOL    HW1  200   2.262   0.036   0.097  0.3666 -1.6414  1.6719
   67SOL    HW2  201   2.337   0.107   3.076  1.7936 -2.3505 -0.1216
   68SOL     OW  202   1.723   1.887   1.373  0.1864  0.6880  0.0580
   68SOL    HW1  203   1.813   1.909   1.414  0.7817  1.9991 -0.3237
   68SOL    HW2  204   1.696   1.959   1.308  1.8022 -0.7078 -1.3342
   69SOL     OW  205   2.968   2.640   0.037  0.0568  0.1093  0.1641
   69SOL    HW1  206   3.054   2.613   3.099  3.3395  1.5702  0.4909
   69SOL    HW2  207   2.936   2.562   0.093 -0.8886  0.1973  2.1651
   70SOL     OW  208   0.037   0.541   1.912 -0.0808  0.3504 -0.1265
   70SOL    HW1  209   0.086   0.481   1.842 -0.8860 -4.4356  0.4313
   70SOL    HW2  210   3.110   0.622   1.871  1.5909 -0.5393 -0.1517
   71SOL     OW  211   0.808   1.006   2.803 -0.4167 -0.2119  0.0066
   71SOL    HW1  212   0.879   1.007   2.879  2.1979  0.9420  3.1521
   71SOL    HW2  213   0.824   0.942   2.723  1.6449  1.2135  0.8900
   72SOL     OW  214   2.988   1.637   2.050  0.1526 -0.1759 -0.2242
   72SOL    HW1  215   2.917   1.680   1.993 -0.8217 -0.8412 -0.0798
   72SOL    HW2  216   2.968   1.539   2.047  1.0294 -0.1270 -2.8272
   73SOL     OW  217   1.217   1.846   0.197  0.3119  0.1141  0.5073
   73SOL    HW1  218   1.139   1.851   0.131 -0.8409  0.5733 -3.0457
   73SOL    HW2  219   1.218   1.746   0.229  1.7079 -2.9538 -1.0474
   74SOL     OW  220   2.342   2.951   2.894  0.4470  0.2123 -0.0164
   74SOL    HW1  221   2.349   2.983   2.799 -1.7289  2.4966 -0.0337
   74SOL    HW2  222   2.366   3.028   2.958 -0.9432  2.7615  1.7458
   75SOL     OW  223   1.669   2.317   0.767 -0.6196  0.1686 -0.2546
   75SOL    HW1  224   1.575   2.344   0.748  1.2134  0.7759  0.2550
   75SOL    HW2  225   1.682   2.217   0.756  2.8499  1.2166  0.6802
   76SOL     OW  226   2.556   2.010   2.304 -0.3809  0.1514 -0.5725
   76SOL    HW1  227   2.465   1.972   2.297  3.3318 -0.0574  1.6994
   76SOL    HW2  228   2.622   1.932   2.301 -0.5449 -0.6833 -0.2355
   77SOL     OW  229   0.312   2.659   1.635  0.1547 -0.9029 -0.5414
   77SOL    HW1  230   0.309   2.684   1.733  0.4236  1.4517 -1.6363
   77SOL    HW2  231   0.345   2.568   1.615  0.0587  1.7731  0.8081
   78SOL     OW  232   2.274   0.825   0.276  0.2441 -0.3010  0.7985
   78SOL    HW1  233   2.229   0.737   0.236 -2.4349 -0.2805  3.0198
   78SOL    HW2  234   2.226   0.906   0.230 -3.0409  0.3757 -2.4510
   79SOL     OW  235   3.100   1.471   2.463 -0.1032  0.2342  0.3365
   79SOL    HW1  236   0.050   1.552   2.457 -0.7591  2.4643 -0.2861
   79SOL    HW2  237   0.044   1.386   2.457  0.9632 -0.0462 -4.2534
   80SOL     OW  238   2.027   1.634   1.889  0.1524  0.0217 -0.3158
   80SOL    HW1  239   1.994   1.634   1.791 -0.7808  0.5743 -0.8404
   80SOL    HW2  240   2.093   1.712   1.903  0.2078  0.2546 -0.9424
   81SOL     OW  241   1.883   1.332   2.190 -0.4637 -0.6625  0.7877
   81SOL    HW1  242   1.956   1.271   2.154 -3.6750 -0.0012  0.3931
   81SOL    HW2  243   1.828   1.288   2.262  0.3983  1.4483  0.5444
   82SOL     OW  244   1.519   1.688   1.967 -0.4422  0.1372  0.6455
   82SOL    HW1  245   1.417   1.702   1.963 -2.2078  1.9162  0.4518
   82SOL    HW2  246   1.536   1.596   1.924  0.3849  0.1408  0.8773
   83SOL     OW  247   0.469   0.358   0.428  0.4057 -0.4898 -0.0838
   83SOL    HW1  248   0.405   0.337   0.503  2.4841  3.0567  0.1869
   83SOL    HW2  249   0.419   0.379   0.342  1.1836 -1.0016  0.6931
   84SOL     OW  250   0.119   0.454   0.454 -0.3170  0.5183  0.9883
   84SOL    HW1  251   0.069   0.407   0.378 -0.3153 -0.6062 -0.2321
   84SOL    HW2  252   0.150   0.543   0.417 -0.9647  0.7108 -0.7782
   85SOL     OW  253   2.247   2.435   1.321  0.4509 -0.2845  0.0595
   85SOL    HW1  254   2.190   2.415   1.402  0.7203  0.7061 -1.6071
   85SOL    HW2  255   2.252   2.532   1.299  1.0126 -2.9489  1.6576
   86SOL     OW  256   0.315   0.449   1.460  0.6863 -0.5363  0.3814
   86SOL    HW1  257   0.272   0.421   1.375  2.4751  1.5639  2.0459
   86SOL    HW2  258   0.362   0.363   1.484 -0.8484  0.1250  0.5579
   87SOL     OW  259   0.009   2.491   1.996 -0.2354 -0.0469  0.0692
   87SOL    HW1  260   0.020   2.413   1.931 -1.1137 -0.5596  1.4253
   87SOL    HW2  261   3.065   2.471   2.084  0.1562  0.7303  2.3984
   88SOL     OW  262   0.104   2.000   2.981 -0.1212  0.1937 -0.3667
   88SOL    HW1  263   0.050   1.920   2.963  2.5050  1.5207 -1.2365
   88SOL    HW2  264   0.115   2.010   3.085  0.5204 -0.9869  0.7236
   89SOL     OW  265   1.174   0.955   0.523  0.3272  0.0764 -0.1176
   89SOL    HW1  266   1.177   0.978   0.425  0.7133  1.5832  1.7807
   89SOL    HW2  267   1.098   0.891   0.548  1.1945 -1.5377 -0.0558
   90SOL     OW  268   0.180   1.486   2.124  0.0270 -0.4595 -0.1944
   90SOL    HW1  269   0.190   1.503   2.023 -0.1805  2.7670  4.1108
   90SOL    HW2  270   0.189   1.570   2.177 -0.6426  0.4272  1.2707
   91SOL     OW  271   1.625   0.811   0.826 -0.1307 -0.1100 -0.5350
   91SOL    HW1  272   1.547   0.746   0.851 -2.0619  1.0424 -4.1957
   91SOL    HW2  273   1.685   0.838   0.905 -1.2148  0.6383  0.8575
   92SOL     OW  274   2.365   1.411   0.808 -0.0177 -0.1256  0.5236
   92SOL    HW1  275   2.328   1.326   0.771 -1.3430  0.6554  1.7225
   92SOL    HW2  276   2.435   1.458   0.747  1.9772 -0.2527  1.6667
   93SOL     OW  277   0.164   1.167   2.680 -0.2240  0.0087 -0.2597
   93SOL    HW1  278   0.208   1.204   2.765 -0.7128 -0.7472  0.9902
   93SOL    HW2  279   0.198   1.218   2.600  1.6257 -0.9495 -0.4930
   94SOL     OW  280   1.894   2.269   2.503 -0.8466  0.8637  0.5394
   94SOL    HW1  281   1.800   2.268   2.536 -0.7327  0.4375  0.5813
   94SOL    HW2  282   1.900   2.254   2.400 -1.1011  0.1858  0.7966
   95SOL     OW  283   0.226   0.335   1.226 -0.0839 -0.4225  0.0472
   95SOL    HW1  284   0.124   0.354   1.235  0.4124 -0.5794 -0.7570
   95SOL    HW2  285   0.261   0.373   1.139 -1.2551 -0.3443  0.6386
   96SOL     OW  286   3.008   2.856   1.168  0.0266  0.2720 -0.6115
   96SOL    HW1  287   2.963   2.845   1.074 -0.7197  2.3374 -0.8745
   96SOL    HW2  288   2.949   2.900   1.237 -0.6391 -1.8721 -0.1124
   97SOL     OW  289   2.352   0.793   1.425 -0.0868  0.2980 -0.1842
   97SOL    HW1  290   2.399   0.870   1.467 -0.3511  0.2814  1.0226
   97SOL    HW2  291   2.296   0.744   1.496 -0.1194  1.3676  0.1774
   98SOL     OW  292   1.776   2.624   1.640  0.6209 -0.5743  0.4668
   98SOL    HW1  293   1.799   2.606   1.546  0.2748  0.5686  6.2069
   98SOL    HW2  294   1.685   2.671   1.642  0.1122 -0.9847  1.6828
   99SOL     OW  295   0.366   3.109   1.387  0.5641 -0.7584 -0.2663
   99SOL    HW1  296   0.277   0.011   1.437 -0.0090  0.4379 -2.8094
   99SOL    HW2  297   0.403   3.017   1.407  0.5092  2.1787  1.8958
  100SOL     OW  298   1.878   0.253   2.666  0.2568 -0.2209 -0.0440
  100SOL    HW1  299   1.800   0.192   2.675  0.8914 -0.6427 -2.3652
  100SOL    HW2  300   1.929   0.260   2.754  2.6272  0.7218  0.0305
  101SOL     OW  301   3.001   0.188   2.365  0.0187 -0.1695 -0.1895
  101SOL    HW1  302   3.041   0.130   2.295 -2.2646  0.4393  1.9802
  101SOL    HW2  303   3.041   0.282   2.363  1.8372  0.3020  3.7287
  102SOL     OW  304   0.418   0.662   1.611  0.0728 -0.3180  0.1490
  102SOL    HW1  305   0.377   0.582   1.561 -3.3714 -2.6613  2.1834
  102SOL    HW2  306   0.446   0.742   1.547  2.4351  0.1010 -0.3902
  103SOL     OW  307   0.847   0.380   2.810  0.0847  0.0546 -0.0322
  103SOL    HW1  308   0.905   0.376   2.730 -1.3795  0.9957  2.0114
  103SOL    HW2  309   0.846   0.476   2.841  2.4913 -0.2168  0.5729
  104SOL     OW  310   0.414   0.602   2.149 -0.0532  0.1180  0.1627
  104SOL    HW1  311   0.420   0.705   2.136 -1.9200  0.8935  3.1616
  104SOL    HW2  312   0.317   0.576   2.162  0.5748 -0.7262  0.6260
  105SOL     OW  313   2.470   2.064   1.331  0.3085 -0.0748 -0.0618
  105SOL    HW1  314   2.433   2.105   1.418 -1.3631  2.6476 -0.4385
  105SOL    HW2  315   2.423   2.099   1.250  0.7391 -0.5726 -0.3612
  106SOL     OW  316   1.463   0.229   0.509  0.2070  0.9354  0.1555
  106SOL    HW1  317   1.535   0.216   0.442 -0.0445  0.9348 -1.6992
  106SOL    HW2  318   1.370   0.228   0.468  1.0279 -0.4353  1.9491
  107SOL     OW  319   2.011   2.288   0.975  0.3909  0.3899  0.1571
  107SOL    HW1  320   1.943   2.234   1.029  1.9452  3.1544 -0.7267
  107SOL    HW2  321   2.023   2.381   1.012  1.4114 -1.2627  0.9743
  108SOL     OW  322   0.048   2.420   1.297 -0.1205 -0.0319 -0.1478
  108SOL    HW1  323   0.001   2.330   1.284  1.6186 -0.6037  0.4525
  108SOL    HW2  324   0.098   2.455   1.215  1.5514 -1.1697 -2.7969
  109SOL     OW  325   2.130   2.629   0.891 -0.1804  0.1340 -0.7493
  109SOL    HW1  326   2.088   2.650   0.800 -0.7953 -0.4453  1.9847
  109SOL    HW2  327   2.065   2.601   0.961  0.4547 -0.8981 -0.1412
  110SOL     OW  328   1.256   1.732   1.917 -0.8419 -0.3574 -0.4838
  110SOL    HW1  329   1.205   1.689   1.842  0.0676  0.4851 -1.0301
  110SOL    HW2  330   1.251   1.836   1.905 -0.8098 -2.2082 -0.5020
  111SOL     OW  331   1.805   2.414   2.098 -0.2536  0.2741 -0.4732
  111SOL    HW1  332   1.824   2.366   2.011  0.2560  0.1761 -0.1718
  111SOL    HW2  333   1.869   2.383   2.171 -0.3377 -2.1949 -0.1168
  112SOL     OW  334   1.571   1.904   3.110 -0.1662 -0.2685  0.4649
  112SOL    HW1  335   1.532   1.908   0.092  0.4246 -1.4369 -0.0818
  112SOL    HW2  336   1.671   1.876   3.110  0.2684 -0.0518 -1.7891
  113SOL     OW  337   1.832   1.890   1.736  0.8231 -0.0803  0.2171
  113SOL    HW1  338   1.821   1.788   1.724  0.6524 -3.2367 -0.6000
  113SOL    HW2  339   1.749   1.927   1.788  1.6178 -0.3910 -0.4402
  114SOL     OW  340   0.230   1.309   1.436  0.1331  0.4812 -0.1008
  114SOL    HW1  341   0.235   1.256   1.352 -0.0166 -2.1916 -1.0659
  114SOL    HW2  342   0.134   1.323   1.468  0.7709 -4.8830 -2.2976
  115SOL     OW  343   0.613   0.826   0.299 -0.4054  0.1672  0.0300
  115SOL    HW1  344   0.620   0.746   0.360  0.4770 -0.5029 -0.9711
  115SOL    HW2  345   0.594   0.787   0.204  2.2385  0.2725 -1.3996
  116SOL     OW  346   2.553   1.559   2.257  0.2440  0.5163  0.4555
  116SOL    HW1  347   2.463   1.521   2.272  0.0334 -1.5588 -0.7657
  116SOL    HW2  348   2.620   1.490   2.291  1.7987 -1.7214  1.8601
  117SOL     OW  349   2.895   2.510   0.360 -0.1727  0.4605  0.4980
  117SOL    HW1  350   2.955   2.583   0.388 -0.6199 -1.6679 -0.6593
  117SOL    HW2  351   2.866   2.449   0.437  0.8238 -2.2980  1.5828
  118SOL     OW  352   0.845   1.951   2.680 -0.0005  0.6283  0.0251
  118SOL    HW1  353   0.897   1.931   2.763 -2.6377  2.1279 -0.1411
  118SOL    HW2  354   0.744   1.940   2.699  0.0418 -0.1031 -2.8556
  119SOL     OW  355   0.830   2.386   0.666 -0.1736 -0.6070  0.1407
  119SOL    HW1  356   0.742   2.330   0.680 -0.4570  0.6015  2.3942
  119SOL    HW2  357   0.894   2.332   0.612 -0.1586 -0.6463  2.2035
  120SOL     OW  358   1.453   0.398   0.242 -0.2383 -0.2747  0.2676
  120SOL    HW1  359   1.502   0.312   0.247 -1.1525  1.3349 -0.5100
  120SOL    HW2  360   1.364   0.381   0.188 -2.3375 -0.2612 -0.8487
  121SOL     OW  361   1.376   2.311   0.782  0.4226 -0.5665 -0.3858
  121SOL    HW1  362   1.276   2.320   0.786  0.5343  4.0663  0.2144
  121SOL    HW2  363   1.402   2.267   0.697 -0.7636  2.7867  1.0764
  122SOL     OW  364   2.653   2.164   1.900  0.2609  0.6411  0.5035
  122SOL    HW1  365   2.627   2.256   1.931 -1.5925 -0.7427  2.2308
  122SOL    HW2  366   2.704   2.110   1.972  0.6250  0.9995 -0.0370
  123SOL     OW  367   0.989   1.705   0.794 -0.2607  0.9304  0.3179
  123SOL    HW1  368   1.058   1.763   0.846  3.6406  1.0207 -0.2695
  123SOL    HW2  369   0.964   1.748   0.706 -0.9221 -1.6750  0.8764
  124SOL     OW  370   2.993   0.745   0.347 -0.0745  0.1404  0.2822
  124SOL    HW1  371   2.985   0.846   0.371  2.0734 -1.1938  1.8380
  124SOL    HW2  372   2.906   0.714   0.298  0.9116 -1.7082  0.8223
  125SOL     OW  373   0.195   0.142   0.191  0.0688  0.6126 -0.0433
  125SOL    HW1  374   0.124   0.145   0.256  0.9732 -2.1169 -5.2149
  125SOL    HW2  375   0.249   0.230   0.187  2.1860 -0.9464 -0.3162
  126SOL     OW  376   3.076   1.786   0.593 -0.4034  0.0786 -0.3535
  126SOL    HW1  377   0.018   1.872   0.590  1.6599 -0.2433 -0.7385
  126SOL    HW2  378   2.975   1.799   0.573 -0.7280  0.2596 -0.5709
  127SOL     OW  379   1.254   2.604   1.534 -0.2524 -0.7508  0.6568
  127SOL    HW1  380   1.218   2.537   1.601  1.1986  0.5684 -0.2834
  127SOL    HW2  381   1.166   2.644   1.501  0.5238  1.9724  1.1034
  128SOL     OW  382   1.267   1.339   0.194  1.2266  0.0119 -0.2120
  128SOL    HW1  383   1.353   1.379   0.163 -0.4786 -2.8441  1.1783
  128SOL    HW2  384   1.280   1.239   0.197  1.9587  1.1114  2.5386
  129SOL     OW  385   1.847   2.197   1.386 -0.1996 -0.1897 -0.4396
  129SOL    HW1  386   1.885   2.173   1.299  1.5590  3.3495 -0.5158
  129SOL    HW2  387   1.778   2.271   1.379  2.0724 -1.1991 -0.0522
  130SOL     OW  388   1.953   1.973   1.511  0.7621 -0.2850 -0.0411
  130SOL    HW1  389   1.910   1.948   1.599  0.3083  0.5025  0.5406
  130SOL    HW2  390   1.939   2.069   1.486  1.8087  0.0531  0.7142
  131SOL     OW  391   2.816   2.709   2.533 -0.0712 -0.7016 -0.8699
  131SOL    HW1  392   2.791   2.800   2.571  1.6937 -0.4775 -1.8963
  131SOL    HW2  393   2.900   2.683   2.577 -0.1734 -0.1202 -2.8366
  132SOL     OW  394   3.015   2.138   0.462 -0.0835  0.4615 -0.0402
  132SOL    HW1  395   3.107   2.109   0.495 -0.1823  1.6416 -0.8523
  132SOL    HW2  396   2.970   2.197   0.536 -1.5063  3.0364 -0.5139
  133SOL     OW  397   0.464   0.324   1.818  0.1661 -0.2110 -1.5754
  133SOL    HW1  398   0.509   0.345   1.906  1.0490 -0.0080 -4.6518
  133SOL    HW2  399   0.532   0.315   1.743 -0.2389 -0.7763 -0.0733
  134SOL     OW  400   2.777   2.044   0.124 -0.0414  0.7388 -0.3959
  134SOL    HW1  401   2.878   2.075   0.128  2.2302 -0.7451 -0.7959
  134SOL    HW2  402   2.718   2.125   0.144  3.1641 -1.0609 -1.4537
  135SOL     OW  403   1.559   1.046   2.552 -0.3225  0.4844  0.6430
  135SOL    HW1  404   1.470   0.998   2.575 -0.5079 -1.2715 -2.0334
  135SOL    HW2  405   1.569   1.135   2.598 -2.3704  0.3233 -1.4552
  136SOL     OW  406   2.461   1.720   0.995 -0.7113  0.2500 -0.2458
  136SOL    HW1  407   2.390   1.703   0.920  1.5514  1.4561 -0.3680
  136SOL    HW2  408   2.557   1.718   0.961 -0.3514  1.6519  1.5563
  137SOL     OW  409   2.827   1.583   0.709 -0.5012  0.5179  0.1507
  137SOL    HW1  410   2.868   1.525   0.634 -0.4711  0.2225  0.3886
  137SOL    HW2  411   2.793   1.670   0.676  0.8646 -2.1940  0.0983
  138SOL     OW  412   2.675   0.366   0.878 -0.9856 -0.2050  0.1466
  138SOL    HW1  413   2.601   0.391   0.938  3.3816  0.5945 -2.1784
  138SOL    HW2  414   2.737   0.445   0.853  0.0543  4.0302 -2.1821
  139SOL     OW  415   0.059   2.571   3.011  0.2439 -0.0120 -0.3940
  139SOL    HW1  416   0.127   2.504   3.038 -0.8045  1.9468  2.8579
  139SOL    HW2  417   0.064   2.596   2.913 -0.4158  0.2490  4.3492
  140SOL     OW  418   0.918   2.010   1.828  0.3801 -0.4423  0.2791
  140SOL    HW1  419   1.016   2.025   1.850 -1.3489  0.1591 -2.3560
  140SOL    HW2  420   0.862   1.954   1.899 -1.0461  0.6379  0.1466
  141SOL     OW  421   1.508   1.856   0.785 -0.1404  0.1271  0.2502
  141SOL    HW1  422   1.520   1.786   0.707  1.1003 -1.1797  0.4454
  141SOL    HW2  423   1.541   1.819   0.875  0.1566  1.7309  1.3756
  142SOL     OW  424   1.139   0.841   0.946 -0.0411 -0.6001  0.5457
  142SOL    HW1  425   1.041   0.814   0.945  2.8098 -1.3948 -0.9527
  142SOL    HW2  426   1.150   0.940   0.976  0.6855  1.0379  1.1797
  143SOL     OW  427   0.734   1.219   3.009  0.6898  0.0418  0.2391
  143SOL    HW1  428   0.745   1.143   2.940  0.7266  1.5399 -0.6163
  143SOL    HW2  429   0.674   1.187   3.081  0.5837 -2.2851 -2.6613
  144SOL     OW  430   2.092   0.012   1.058  0.2144 -0.1114  0.2400
  144SOL    HW1  431   2.061   0.038   0.965  0.0492  2.2602  1.8854
  144SOL    HW2  432   2.012   3.111   1.125 -1.6259 -0.7489  3.0398
  145SOL     OW  433   2.261   0.565   2.610  1.2087  0.3120  0.1007
  145SOL    HW1  434   2.257   0.589   2.711  2.4936 -0.7986  1.9255
  145SOL    HW2  435   2.348   0.521   2.582  0.8946 -0.0302  1.3145
  146SOL     OW  436   2.915   2.627   0.781  0.7953 -0.0317  0.0693
  146SOL    HW1  437   2.815   2.610   0.769 -2.5669 -0.0813  3.5957
  146SOL    HW2  438   2.946   2.714   0.729  1.9159  0.0088 -0.8685
  147SOL     OW  439   1.305   0.942   2.569  0.3076  0.3304 -0.4094
  147SOL    HW1  440   1.227   1.007   2.564 -1.9461  1.0889  1.2089
  147SOL    HW2  441   1.320   0.894   2.481 -1.3262 -0.8550  1.6535
  148SOL     OW  442   1.233   0.465   2.512  0.0927  0.1392 -0.1107
  148SOL    HW1  443   1.276   0.510   2.437 -0.0160 -1.6909  1.3403
  148SOL    HW2  444   1.282   0.384   2.544  3.2102  2.6289 -0.1718
  149SOL     OW  445   2.104   0.090   2.143 -0.1588  0.0172 -0.0873
  149SOL    HW1  446   2.194   0.136   2.126 -1.0487 -1.3223  0.4894
  149SOL    HW2  447   2.111   3.105   2.116 -0.0694  1.8731  2.1697
  150SOL     OW  448   2.304   2.701   2.992  0.0221  0.2108 -0.3877
  150SOL    HW1  449   2.317   2.799   2.955 -1.4227 -3.0182  1.6982
  150SOL    HW2  450   2.399   2.671   3.004 -0.8459  0.2978  0.3777
  151SOL     OW  451   0.443   1.501   2.895 -0.8141  0.8007 -0.2414
  151SOL    HW1  452   0.475   1.479   2.991  0.0131  1.4662  2.5621
  151SOL    HW2  453   0.465   1.590   2.864 -4.1183 -4.7169  0.4455
  152SOL     OW  454   0.069   0.065   1.226  0.7233 -0.4710 -0.3014
  152SOL    HW1  455   0.082   0.045   1.321  1.6753 -1.5908 -2.2944
  152SOL    HW2  456   0.122   0.144   1.195 -0.4021  0.1924 -0.3252
  153SOL     OW  457   2.227   0.095   1.692  0.2601  0.3792  0.1776
  153SOL    HW1  458   2.136   0.058   1.722 -0.5291 -1.2678 -2.7128
  153SOL    HW2  459   2.254   0.050   1.602  0.6413 -2.7890 -1.8728
  154SOL     OW  460   1.801   0.257   2.378 -0.2072 -0.3769  0.0272
  154SOL    HW1  461   1.827   0.285   2.474  1.0489 -0.4578  1.1171
  154SOL    HW2  462   1.753   0.329   2.323 -0.2532 -1.7723  0.8428
  155SOL     OW  463   0.119   1.667   0.422 -0.2585 -0.1628 -0.5481
  155SOL    HW1  464   0.210   1.708   0.443 -2.0566  0.3831  2.3080
  155SOL    HW2  465   0.041   1.706   0.472  2.4932 -2.4970 -4.5908
  156SOL     OW  466   2.823   1.505   0.014  0.1122 -0.6164  0.2783
  156SOL    HW1  467   2.804   1.590   3.065  1.5557 -2.3197 -2.9714
  156SOL    HW2  468   2.823   1.522   0.113  1.9366 -2.2094 -1.9016
  157SOL     OW  469   0.569   0.368   0.771  0.2779 -0.0239  0.5609
  157SOL    HW1  470   0.544   0.275   0.735 -2.9068 -0.8987 -1.2417
  157SOL    HW2  471   0.659   0.375   0.824 -1.1591 -0.5110  1.0772
  158SOL     OW  472   2.006   1.005   1.358 -0.5141  0.0560 -0.0930
  158SOL    HW1  473   1.987   1.106   1.372  0.9607 -0.3034  3.6753
  158SOL    HW2  474   2.105   0.993   1.326  0.8225  1.7971  0.4984
  159SOL     OW  475   0.263   0.345   0.649  0.2462  0.0864 -0.1863
  159SOL    HW1  476   0.272   0.411   0.727 -2.3008 -3.1458 -1.9104
  159SOL    HW2  477   0.197   0.381   0.581 -0.9982  0.9071 -1.0138
  160SOL     OW  478   2.152   2.185   1.636 -0.2608  0.2537 -0.2652
  160SOL    HW1  479   2.182   2.207   1.734  0.4647  0.0614  1.0681
  160SOL    HW2  480   2.089   2.104   1.626  0.8118  0.2538 -0.2035
  161SOL     OW  481   0.097   0.704   2.590 -0.1141 -0.0565 -0.0701
  161SOL    HW1  482   0.139   0.614   2.609  0.2930 -0.9114  1.4670
  161SOL    HW2  483   0.104   0.766   2.673 -0.1491 -0.0814 -0.6918
  162SOL     OW  484   0.649   2.871   1.613  0.8271 -0.0752 -0.1383
  162SOL    HW1  485   0.687   2.886   1.707  3.1503 -2.6717 -1.9357
  162SOL    HW2  486   0.707   2.925   1.551  1.3547  0.5182 -0.4367
  163SOL     OW  487   2.738   0.162   2.355  0.5645 -0.0073  0.1747
  163SOL    HW1  488   2.738   0.061   2.349 -0.9905  3.1046 -1.9821
  163SOL    HW2  489   2.833   0.202   2.361 -0.4753  2.9475  0.0141
  164SOL     OW  490   2.262   1.729   0.245  0.5109  0.3770 -0.4661
  164SOL    HW1  491   2.169   1.769   0.232  0.9692 -0.8585 -2.1529
  164SOL    HW2  492   2.315   1.748   0.160 -3.0658 -1.0570  0.3781
  165SOL     OW  493   3.092   0.260   1.490 -1.2305  0.4039  0.0324
  165SOL    HW1  494   0.057   0.194   1.512 -1.2100 -3.3085 -1.0255
  165SOL    HW2  495   3.001   0.225   1.518 -4.9023 -1.1339 -1.0234
  166SOL     OW  496   1.974   0.810   0.415 -0.3015 -0.5202 -1.0436
  166SOL    HW1  497   1.939   0.886   0.364 -0.1964 -1.7541  3.6820
  166SOL    HW2  498   1.923   0.796   0.506 -2.4270  0.1339  0.5808
  167SOL     OW  499   2.465   0.801   2.900 -0.0568  0.0407 -0.2276
  167SOL    HW1  500   2.370   0.791   2.875  3.4996 -0.4281 -2.1806
  167SOL    HW2  501   2.487   0.800   2.999  0.5945 -1.1280 -0.0719
  168SOL     OW  502   1.740   0.219   3.088  0.0911 -0.0769  0.3881
  168SOL    HW1  503   1.748   0.206   0.072  0.6567 -0.4896 -1.4335
  168SOL    HW2  504   1.681   0.297   3.059  0.7549 -3.0803 -0.9382
  169SOL     OW  505   0.234   1.804   0.927  0.3211 -0.1656  0.3074
  169SOL    HW1  506   0.227   1.774   1.022 -0.5969 -0.3757  0.3780
  169SOL    HW2  507   0.179   1.748   0.874  1.4477  1.9412 -0.7660
  170SOL     OW  508   2.987   1.192   0.935 -0.3179 -0.5140 -0.1750
  170SOL    HW1  509   2.888   1.212   0.951  1.9936  1.2286  0.6140
  170SOL    HW2  510   3.001   1.197   0.835 -0.3576  0.8450 -0.8303
  171SOL     OW  511   2.571   1.741   2.038  0.4798  0.0092  0.0873
  171SOL    HW1  512   2.499   1.702   1.975 -1.2820 -0.2149 -0.7884
  171SOL    HW2  513   2.578   1.682   2.123  0.1389 -1.8025  0.1403
  172SOL     OW  514   0.429   2.081   1.553 -0.6204 -0.2341  0.1488
  172SOL    HW1  515   0.395   2.093   1.455 -2.1570 -1.1226 -1.0823
  172SOL    HW2  516   0.534   2.076   1.547  1.9680  0.2897 -1.5318
  173SOL     OW  517   1.592   1.436   2.938 -0.0780  0.0664 -0.2173
  173SOL    HW1  518   1.531   1.394   2.873 -0.2225  1.9868  2.9140
  173SOL    HW2  519   1.591   1.537   2.929 -0.2912  0.0704  1.9072
  174SOL     OW  520   1.173   0.594   2.904 -0.2861 -0.2287  0.1923
  174SOL    HW1  521   1.251   0.531   2.896 -2.1057 -0.3373  2.0562
  174SOL    HW2  522   1.156   0.641   2.816  1.0860 -0.8691  1.1290
  175SOL     OW  523   1.267   1.416   1.364  0.5552  0.3706 -0.2492
  175SOL    HW1  524   1.262   1.472   1.448  0.6670  1.2829 -0.3163
  175SOL    HW2  525   1.175   1.380   1.332 -1.2916  0.7634 -0.0640
  176SOL     OW  526   1.188   0.288   0.535 -0.3204  0.0156  0.0288
  176SOL    HW1  527   1.159   0.192   0.520  0.8927  1.7563  2.1218
  176SOL    HW2  528   1.169   0.340   0.450  0.1796  0.8463  1.9446
  177SOL     OW  529   0.372   0.967   0.292  1.0276 -0.7038 -0.2101
  177SOL    HW1  530   0.293   0.919   0.339 -2.5317  1.8096 -0.5859
  177SOL    HW2  531   0.454   0.909   0.292  1.4987  0.7246 -0.4026
  178SOL     OW  532   2.595   2.343   2.267  0.1159 -0.7082  0.0817
  178SOL    HW1  533   2.655   2.374   2.342  2.5161 -0.3961 -2.0463
  178SOL    HW2  534   2.607   2.240   2.262  0.7576 -0.5259 -0.9127
  179SOL     OW  535   2.999   0.008   2.590 -0.6203  0.7925 -0.4293
  179SOL    HW1  536   2.925   3.055   2.553 -0.0884 -1.7169  1.1715
  179SOL    HW2  537   3.040   0.066   2.517  0.1039  0.2611  2.3649
  180SOL     OW  538   2.080   0.556   1.163  0.0211  0.6311 -0.7010
  180SOL    HW1  539   2.177   0.548   1.203  2.5253  0.1325  1.4285
  180SOL    HW2  540   2.089   0.597   1.069 -0.8917 -3.1106  0.0696
  181SOL     OW  541   2.230   0.832   2.542  0.3208  0.0957 -0.3100
  181SOL    HW1  542   2.226   0.732   2.545  1.4668  0.8622  1.5980
  181SOL    HW2  543   2.223   0.881   2.631 -0.6276 -0.7476 -3.3529
  182SOL     OW  544   2.619   2.410   2.003  0.3513 -0.6294 -0.0131
  182SOL    HW1  545   2.695   2.478   1.988 -1.3324  0.6003 -0.5348
  182SOL    HW2  546   2.603   2.400   2.103 -0.4116  2.1128  0.5734
  183SOL     OW  547   2.021   0.693   1.835  0.0103  0.1403  0.0907
  183SOL    HW1  548   2.047   0.613   1.889 -0.0283  0.9934  2.2210
  183SOL    HW2  549   2.080   0.703   1.751  0.0736  1.0813 -0.3202
  184SOL     OW  550   0.251   1.698   1.169  0.3385 -0.4111  0.3134
  184SOL    HW1  551   0.276   1.598   1.167 -1.9787 -1.1756  1.6026
  184SOL    HW2  552   0.177   1.704   1.237  2.7285  0.5088  2.5806
  185SOL     OW  553   2.260   0.188   0.895  0.5871 -0.1174  0.2019
  185SOL    HW1  554   2.295   0.213   0.984 -2.3153 -2.6705 -1.8525
  185SOL    HW2  555   2.305   0.101   0.870 -0.6905 -1.3991  0.0360
  186SOL     OW  556   2.289   2.493   2.628 -0.2061  0.1060  0.4394
  186SOL    HW1  557   2.381   2.536   2.647  1.4110 -0.5700  0.9613
  186SOL    HW2  558   2.268   2.418   2.689 -0.1199  4.2156 -0.8563
  187SOL     OW  559   0.505   1.553   0.595  0.1859  0.1928  0.3349
  187SOL    HW1  560   0.447   1.467   0.598  3.1414 -0.4616  0.7274
  187SOL    HW2  561   0.497   1.613   0.680 -2.3351  2.6778 -0.6999
  188SOL     OW  562   2.026   1.305   1.015  0.2662  0.3451 -1.1421
  188SOL    HW1  563   2.100   1.372   1.029 -0.1106 -1.2410 -1.5134
  188SOL    HW2  564   1.981   1.289   1.106 -0.2833 -1.1372  0.2229
  189SOL     OW  565   0.122   0.792   2.326  0.2599  0.2060 -0.1816
  189SOL    HW1  566   0.216   0.820   2.304 -2.3234 -0.5430  3.9694
  189SOL    HW2  567   0.116   0.752   2.419 -1.9196  0.6954 -5.3852
  190SOL     OW  568   1.887   0.828   2.024  0.2169 -0.5556  0.8577
  190SOL    HW1  569   1.860   0.920   1.980 -0.6513  2.2379  0.2230
  190SOL    HW2  570   1.940   0.766   1.959 -0.8507 -0.2481  1.7182
  191SOL     OW  571   0.987   0.230   2.223 -0.0971 -0.4059  0.3314
  191SOL    HW1  572   0.912   0.189   2.279 -2.2007  2.2276  0.5183
  191SOL    HW2  573   1.056   0.158   2.219 -1.1492  2.2752 -1.6576
  192SOL     OW  574   1.219   2.030   1.829 -0.3403 -0.0831  0.1037
  192SOL    HW1  575   1.203   2.094   1.749 -0.8005 -0.6976 -1.0319
  192SOL    HW2  576   1.274   2.088   1.894 -0.6065 -2.1833 -0.8463
  193SOL     OW  577   1.417   0.150   0.753 -0.3507  0.1792 -0.1540
  193SOL    HW1  578   1.418   0.173   0.653 -0.4794  2.3012 -0.6892
  193SOL    HW2  579   1.325   0.128   0.787  1.0611 -0.8922  1.6810
  194SOL     OW  580   1.174   2.195   1.624 -0.0715  0.3856 -0.1670
  194SOL    HW1  581   1.074   2.206   1.603 -2.2465  0.6762 -1.3609
  194SOL    HW2  582   1.219   2.143   1.549 -0.4293 -0.7299  0.0164
  195SOL     OW  583   1.533   0.486   0.620 -0.7895  0.5159 -0.4712
  195SOL    HW1  584   1.525   0.390   0.583  1.4938  1.6773 -0.8435
  195SOL    HW2  585   1.597   0.485   0.700 -0.5878 -1.5276  1.3087
  196SOL     OW  586   0.750   1.285   2.372 -0.0555  0.6902  0.8291
  196SOL    HW1  587   0.824   1.308   2.439 -2.1181 -1.1684 -1.4006
  196SOL    HW2  588   0.777   1.289   2.272  2.3559 -0.1861 -1.5934
  197SOL     OW  589   0.641   0.660   1.794  0.6351  0.0529  0.6075
  197SOL    HW1  590   0.714   0.693   1.732  0.3869  1.0510 -2.2286
  197SOL    HW2  591   0.551   0.664   1.741 -3.8873  0.7842  1.4850
  198SOL     OW  592   0.689   0.784   0.904  0.3951  0.2116 -0.5175
  198SOL    HW1  593   0.746   0.858   0.863  0.2863  3.7305  1.0145
  198SOL    HW2  594   0.632   0.730   0.841 -0.7006  1.7864  3.1132
  199SOL     OW  595   0.650   2.396   1.693 -0.0006  0.1631  0.1449
  199SOL    HW1  596   0.657   2.335   1.773 -0.4539 -1.7141  1.3328
  199SOL    HW2  597   0.560   2.395   1.647  2.1584  1.7751  2.4771
  200SOL     OW  598   1.691   1.209   2.331 -0.2282  0.2379  0.1828
  200SOL    HW1  599   1.661   1.167   2.243 -1.7329 -0.1268  0.1981
  200SOL    HW2  600   1.644   1.144   2.395 -2.9753  0.8461 -0.9317
  201SOL     OW  601   0.725   2.212   1.880  0.0909  0.4011  0.0347
  201SOL    HW1  602   0.813   2.159   1.872  1.8746  0.8674 -1.2918
  201SOL    HW2  603   0.642   2.163   1.862  2.9190  0.3088 -0.0445
  202SOL     OW  604   1.310   2.715   0.214 -0.3740 -0.0823 -0.6677
  202SOL    HW1  605   1.344   2.776   0.290  2.4066 -1.5710  0.6701
  202SOL    HW2  606   1.211   2.709   0.207 -0.2245  1.8319  0.8456
  203SOL     OW  607   1.438   0.148   2.270 -0.1605  0.1066  0.4277
  203SOL    HW1  608   1.340   0.118   2.266  0.0172  1.3052  0.2834
  203SOL    HW2  609   1.503   0.074   2.246 -2.0985  1.7688 -0.7699
  204SOL     OW  610   0.791   1.597   2.080 -0.1372 -0.3323 -0.2006
  204SOL    HW1  611   0.800   1.597   1.977 -0.7848 -1.6172 -2.4520
  204SOL    HW2  612   0.835   1.512   2.119  1.2323 -3.3039  0.3582
  205SOL     OW  613   2.205   1.080   2.748  0.5122  0.6225 -0.3711
  205SOL    HW1  614   2.126   1.095   2.686  0.9891  0.1545  0.1973
  205SOL    HW2  615   2.291   1.076   2.696  0.8611 -2.5266  0.4359
  206SOL     OW  616   0.159   1.693   2.559 -0.1819  0.7449  0.5968
  206SOL    HW1  617   0.147   1.797   2.571  3.4358  0.8228  0.5746
  206SOL    HW2  618   0.184   1.658   2.650 -0.4108  0.3354 -1.6603
  207SOL     OW  619   1.091   2.922   1.614  0.1110  0.3706 -0.3301
  207SOL    HW1  620   1.127   2.872   1.695  0.8203  0.3446 -3.2405
  207SOL    HW2  621   1.054   3.010   1.646 -0.0847 -0.4966  0.4183
  208SOL     OW  622   0.440   2.488   1.302 -0.5374 -0.3440 -0.1223
  208SOL    HW1  623   0.390   2.571   1.274  0.2758 -3.0144  1.8632
  208SOL    HW2  624   0.432   2.413   1.232 -0.6318 -3.7034 -1.7298
  209SOL     OW  625   1.302   2.888   0.459 -0.3810  0.5149 -0.0789
  209SOL    HW1  626   1.210   2.861   0.488  0.1623  0.1589 -1.5745
  209SOL    HW2  627   1.291   2.955   0.384 -0.6206 -0.7465 -0.6729
  210SOL     OW  628   2.972   1.509   1.150  0.1745  0.6197  0.1816
  210SOL    HW1  629   2.906   1.567   1.099  3.4577  0.4166  0.7273
  210SOL    HW2  630   3.044   1.479   1.088 -2.1487  3.6317  0.0352
  211SOL     OW  631   0.751   0.845   1.961  0.8529 -0.3861 -0.4069
  211SOL    HW1  632   0.702   0.781   1.897 -0.4697 -2.9190  0.3864
  211SOL    HW2  633   0.787   0.790   2.036 -2.5126  1.1075  0.2077
  212SOL     OW  634   1.531   2.265   1.615  0.7737 -0.0171 -0.4979
  212SOL    HW1  635   1.504   2.333   1.545 -2.1821  3.3193 -3.0762
  212SOL    HW2  636   1.513   2.169   1.580 -0.0860 -0.0447 -1.5999
  213SOL     OW  637   2.827   0.200   1.554  0.1786  0.5455 -0.4274
  213SOL    HW1  638   2.783   0.286   1.525 -0.0905 -0.1844 -0.3916
  213SOL    HW2  639   2.749   0.130   1.557 -1.1917  0.7299 -1.4447
  214SOL     OW  640   0.987   2.595   1.836  0.2274  0.2827 -0.2322
  214SOL    HW1  641   1.041   2.510   1.847 -1.8477  2.2418  0.0737
  214SOL    HW2  642   0.922   2.588   1.760 -0.1216 -0.3832  0.1655
  215SOL     OW  643   2.679   1.891   1.311  0.2662 -0.4790 -0.5942
  215SOL    HW1  644   2.601   1.956   1.319 -3.0416 -1.2090  1.0640
  215SOL    HW2  645   2.639   1.797   1.318 -0.9632 -0.0205  0.5794
  216SOL     OW  646   0.173   0.951   1.714  0.0116  0.0192 -0.2266
  216SOL    HW1  647   0.198   0.868   1.763  0.5964 -1.3106  1.1305
  216SOL    HW2  648   0.077   0.943   1.684  2.0122 -0.8763 -0.1951
  217SOL     OW  649   2.599   0.393   1.212  0.8105 -0.5507 -0.3606
  217SOL    HW1  650   2.681   0.373   1.152  3.1917  2.8907  0.9958
  217SOL    HW2  651   2.619   0.387   1.308  0.1514 -0.6718 -1.6061
  218SOL     OW  652   1.440   2.253   1.133 -0.3927 -0.1497  0.2559
  218SOL    HW1  653   1.464   2.281   1.043  0.5563 -1.9052  2.4554
  218SOL    HW2  654   1.345   2.292   1.149 -0.0520 -0.9124 -0.8450
  219SOL     OW  655   1.603   2.447   0.351 -0.4631 -0.6964 -0.1593
  219SOL    HW1  656   1.563   2.518   0.413  0.9579 -2.7752  0.3948
  219SOL    HW2  657   1.529   2.411   0.295  0.2684  1.1334  2.0761
  220SOL     OW  658   2.002   2.320   0.275 -0.0316  0.2942 -0.4023
  220SOL    HW1  659   2.052   2.364   0.350 -1.2607  0.9054  2.2451
  220SOL    HW2  660   1.926   2.376   0.242  0.3788  0.9149 -0.3195
  221SOL     OW  661   2.695   2.165   0.898 -0.2059  0.1120 -0.0849
  221SOL    HW1  662   2.642   2.127   0.818 -1.6891  0.8708 -2.2495
  221SOL    HW2  663   2.786   2.206   0.879 -0.2595 -1.8440  0.0331
  222SOL     OW  664   0.978   2.124   0.824 -0.4153 -0.0975  0.1741
  222SOL    HW1  665   1.024   2.213   0.843 -1.4881  0.2266 -0.5140
  222SOL    HW2  666   0.896   2.098   0.881  0.7802  0.7979 -2.3306
  223SOL     OW  667   1.172   2.746   2.418  0.2776 -0.4868  1.0152
  223SOL    HW1  668   1.250   2.684   2.409 -1.4121 -0.1667  1.1625
  223SOL    HW2  669   1.149   2.773   2.321 -0.2840  1.7084 -2.1715
  224SOL     OW  670   2.592   1.143   1.050  0.4685  0.1912 -0.0864
  224SOL    HW1  671   2.647   1.199   0.984  1.5699 -1.1945 -1.8871
  224SOL    HW2  672   2.499   1.131   1.012 -1.6024 -3.1668  0.8904
  225SOL     OW  673   2.813   1.680   0.995 -0.1021  0.2706  0.2481
  225SOL    HW1  674   2.808   1.671   0.894  0.4085 -3.6534  2.6516
  225SOL    HW2  675   2.830   1.778   1.022 -0.5006 -0.9961 -0.2732
  226SOL     OW  676   1.213   2.612   0.795 -0.1577  0.0493 -0.2171
  226SOL    HW1  677   1.210   2.559   0.709  1.7171 -0.8896 -0.5457
  226SOL    HW2  678   1.313   2.618   0.814 -2.0330 -0.2937 -1.2694
  227SOL     OW  679   1.003   1.381   1.299 -0.1291 -0.1941 -0.7159
  227SOL    HW1  680   1.015   1.284   1.323 -3.6199  2.9414 -1.2008
  227SOL    HW2  681   0.913   1.410   1.340 -1.0299  1.9119 -0.2082
  228SOL     OW  682   1.460   0.412   2.133  0.3309  0.1153  0.1250
  228SOL    HW1  683   1.457   0.331   2.186 -1.9436  2.7209  0.9389
  228SOL    HW2  684   1.408   0.411   2.042 -1.7128 -2.6254 -1.5071
  229SOL     OW  685   2.962   0.765   2.477 -0.1262  0.1640 -0.2074
  229SOL    HW1  686   2.987   0.752   2.378  3.1840  0.7751  0.4176
  229SOL    HW2  687   3.044   0.741   2.535 -1.0103  0.8394  1.1264
  230SOL     OW  688   0.606   1.396   0.832  0.2159 -0.6626  0.4200
  230SOL    HW1  689   0.662   1.419   0.921  3.4919  0.2793 -0.4856
  230SOL    HW2  690   0.548   1.483   0.806 -3.9764  1.3713  2.2915
  231SOL     OW  691   2.312   3.022   2.624 -0.1075 -0.1731 -0.5553
  231SOL    HW1  692   2.247   2.967   2.567  2.3925  1.4121  0.8348
  231SOL    HW2  693   2.293   0.013   2.625  0.2392  1.4699 -1.3151
  232SOL     OW  694   0.478   1.856   3.097 -0.2232  0.0614  0.3128
  232SOL    HW1  695   0.516   1.826   3.009 -1.7864  1.5288  2.8123
  232SOL    HW2  696   0.425   1.939   3.088  0.7995  0.7515  0.0560
  233SOL     OW  697   1.515   2.571   2.774  0.6481  0.3618 -0.3397
  233SOL    HW1  698   1.549   2.552   2.867 -2.3535  1.9465  0.0442
  233SOL    HW2  699   1.524   2.670   2.756 -1.6262 -1.0173 -1.2353
  234SOL     OW  700   1.147   1.435   1.987 -0.7291 -0.0023  0.4492
  234SOL    HW1  701   1.242   1.417   2.023  1.2682 -2.0602  1.5500
  234SOL    HW2  702   1.082   1.377   2.037  1.3108  2.1658 -0.3080
  235SOL     OW  703   0.495   2.051   1.837  0.1359  0.2426  0.4957
  235SOL    HW1  704   0.469   2.062   1.741  0.4147  1.0961 -0.0525
  235SOL    HW2  705   0.491   1.952   1.871 -2.5992 -1.0209  1.6449
  236SOL     OW  706   1.759   1.962   2.812 -0.0607  0.1000 -0.2840
  236SOL    HW1  707   1.836   2.026   2.828  1.6614 -0.3183 -1.7308
  236SOL    HW2  708   1.792   1.870   2.772  2.2796 -3.0771  0.4564
  237SOL     OW  709   1.480   0.407   0.991  0.9119  0.0374 -0.3294
  237SOL    HW1  710   1.493   0.466   1.073 -0.7798  0.3804  2.0707
  237SOL    HW2  711   1.379   0.394   0.985 -3.0529  1.3879 -1.6585
  238SOL     OW  712   0.973   0.391   2.550  0.3068 -0.9375  0.0164
  238SOL    HW1  713   0.929   0.309   2.508  3.3254 -1.2830 -1.3728
  238SOL    HW2  714   1.070   0.394   2.527  1.2077 -0.7569 -1.0690
  239SOL     OW  715   0.727   2.926   1.866  0.1258 -0.3373 -0.2796
  239SOL    HW1  716   0.740   2.833   1.910  0.7579  1.2106  1.0463
  239SOL    HW2  717   0.794   2.988   1.913  1.7224  2.6107  0.9885
  240SOL     OW  718   2.425   2.706   0.632 -0.3459 -0.4721 -1.0388
  240SOL    HW1  719   2.377   2.794   0.635 -1.4258  1.5228 -1.2350
  240SOL    HW2  720   2.361   2.627   0.622 -2.7576 -0.7960  1.7357
  241SOL     OW  721   1.132   1.548   1.738 -0.2508  0.0252 -0.1710
  241SOL    HW1  722   1.040   1.580   1.710  1.7656 -0.9006 -2.1463
  241SOL    HW2  723   1.129   1.516   1.836  0.5659  1.8090 -1.3141
  242SOL     OW  724   3.036   0.631   0.585 -0.7872 -0.3398  0.1502
  242SOL    HW1  725   3.021   0.684   0.501  1.5414 -3.7163  2.2122
  242SOL    HW2  726   3.050   0.533   0.554 -1.7689 -1.8155 -2.2514
  243SOL     OW  727   0.684   0.661   1.433  0.5878 -0.4787 -0.4453
  243SOL    HW1  728   0.607   0.735   1.436  0.2651  3.7383 -0.8568
  243SOL    HW2  729   0.745   0.667   1.511 -0.5815 -0.4484 -2.4667
  244SOL     OW  730   1.240   0.360   0.066 -0.4918 -0.2287  0.1499
  244SOL    HW1  731   1.267   0.311   3.096 -2.8351 -0.9381 -0.4885
  244SOL    HW2  732   1.193   0.446   0.041  0.2250  1.2088  2.6874
  245SOL     OW  733   2.102   0.307   0.240  0.4366  0.1799 -0.1443
  245SOL    HW1  734   2.130   0.213   0.212 -1.0893 -1.1663  1.2742
  245SOL    HW2  735   2.181   0.365   0.267  1.3123  0.8879 -1.9819
  246SOL     OW  736   0.843   0.736   1.642  0.6059  0.1005  0.4142
  246SOL    HW1  737   0.849   0.831   1.667  0.5972  0.5758  0.7103
  246SOL    HW2  738   0.932   0.690   1.658 -1.3532  0.1293 -0.7251
  247SOL     OW  739   0.742   2.929   2.155 -0.1835 -0.4097 -0.1091
  247SOL    HW1  740   0.646   2.961   2.134  0.7359  1.6335 -2.4415
  247SOL    HW2  741   0.815   2.993   2.118  2.6507  1.8905  0.1588
  248SOL     OW  742   0.178   1.597   1.872  0.0251 -0.5398 -0.2963
  248SOL    HW1  743   0.094   1.593   1.816 -1.0545 -0.0745 -0.3784
  248SOL    HW2  744   0.193   1.690   1.918  1.0830 -0.9970 -0.2623
  249SOL     OW  745   3.044   2.968   2.986 -0.2476  0.6526  0.3653
  249SOL    HW1  746   0.032   2.947   2.979  1.8820 -3.2536 -0.2794
  249SOL    HW2  747   2.991   2.885   3.023  1.2844 -1.6905  2.5097
  250SOL     OW  748   2.904   0.230   0.240  0.5376 -0.0987  0.1980
  250SOL    HW1  749   2.832   0.295   0.195 -2.6566  3.3537 -0.3217
  250SOL    HW2  750   2.923   0.141   0.192  0.9304 -0.3288  2.0304
  251SOL     OW  751   0.518   1.488   1.285  0.1453 -0.0339  0.1400
  251SOL    HW1  752   0.466   1.415   1.240  3.2128  0.1705  0.6027
  251SOL    HW2  753   0.455   1.528   1.358 -0.6434 -1.7871  3.7383
  252SOL     OW  754   1.627   3.045   1.615  0.1373 -0.2312  0.0793
  252SOL    HW1  755   1.609   3.030   1.714 -0.8929 -3.4845 -0.8067
  252SOL    HW2  756   1.705   2.987   1.587 -1.4007  0.6853  1.1566
  253SOL     OW  757   2.129   1.851   2.686 -0.1656  0.1715  0.1115
  253SOL    HW1  758   2.195   1.928   2.688  1.4411  2.7137  3.6820
  253SOL    HW2  759   2.042   1.869   2.641  3.3328 -1.0640  2.4428
  254SOL     OW  760   0.466   1.797   1.927  0.2829 -0.0170  0.3207
  254SOL    HW1  761   0.455   1.735   1.847 -0.9419  0.9921  0.1715
  254SOL    HW2  762   0.561   1.793   1.967 -0.4385 -0.7771  0.6091
  255SOL     OW  763   1.054   0.063   1.739 -0.1095  0.7096 -0.0540
  255SOL    HW1  764   1.150   0.087   1.718  0.4140  1.5970  0.2059
  255SOL    HW2  765   1.000   0.140   1.783 -2.5670 -0.9314 -1.2370
  256SOL     OW  766   2.325   2.213   0.902 -0.3233  0.0241 -0.2563
  256SOL    HW1  767   2.249   2.256   0.850 -1.4384 -0.4783  0.7417
  256SOL    HW2  768   2.391   2.281   0.944  1.1449  1.1944  1.4180
  257SOL     OW  769   0.397   2.155   0.042 -0.1102  0.1494 -0.5507
  257SOL    HW1  770   0.403   2.242   0.089 -3.2721 -2.1598  2.0024
  257SOL    HW2  771   0.465   2.153   3.075  1.7448  1.1069 -0.2460
  258SOL     OW  772   0.868   2.260   2.366  0.5200  0.0251  0.0794
  258SOL    HW1  773   0.860   2.361   2.364  1.8131  0.0137 -1.8763
  258SOL    HW2  774   0.897   2.228   2.457  0.7498 -1.1364 -3.4332
  259SOL     OW  775   1.104   1.957   2.724 -0.4953 -0.0631 -0.1437
  259SOL    HW1  776   1.140   2.049   2.738  0.6550 -0.2696 -2.3627
  259SOL    HW2  777   1.037   1.965   2.650  1.0561  0.7379 -1.9169
  260SOL     OW  778   2.594   1.155   2.004  0.2512 -0.3805  0.0040
  260SOL    HW1  779   2.600   1.252   1.976 -0.1382 -0.0526  0.5758
  260SOL    HW2  780   2.562   1.136   2.099  1.5559 -0.9980 -0.5235
  261SOL     OW  781   1.393   0.697   0.893  0.3328 -0.1139  0.1328
  261SOL    HW1  782   1.377   0.608   0.939 -1.2073  2.7734  2.0491
  261SOL    HW2  783   1.303   0.751   0.900 -0.2970 -1.0206  0.6428
  262SOL     OW  784   1.556   2.119   2.475 -0.1860 -0.0970 -0.0416
  262SOL    HW1  785   1.606   2.034   2.440 -0.3720 -1.9592  0.4934
  262SOL    HW2  786   1.575   2.139   2.576 -0.1832 -1.1782 -0.1399
  263SOL     OW  787   0.083   1.701   0.150 -0.1683  0.0391 -0.0300
  263SOL    HW1  788   0.079   1.682   0.248 -1.0053 -1.9163 -1.3102
  263SOL    HW2  789   0.143   1.627   0.108  1.9739 -1.6728 -1.4651
  264SOL     OW  790   0.643   2.003   0.749 -0.3694  0.3207  0.2575
  264SOL    HW1  791   0.637   2.100   0.725 -0.8448  1.4841 -1.4294
  264SOL    HW2  792   0.592   1.979   0.837 -3.9302  0.4692  5.4812
  265SOL     OW  793   0.607   1.361   0.298  0.5092 -0.0316 -0.3504
  265SOL    HW1  794   0.538   1.311   0.350  2.1577 -2.4096 -1.9045
  265SOL    HW2  795   0.652   1.432   0.355 -2.7114 -1.8908 -2.5660
  266SOL     OW  796   1.242   1.583   3.096  0.1899  0.2392 -0.0878
  266SOL    HW1  797   1.259   1.683   3.085  0.3263  1.3819 -0.5479
  266SOL    HW2  798   1.160   1.564   0.037  2.6232 -3.6452  0.3200
  267SOL     OW  799   0.932   0.658   2.385 -0.1552 -0.1373 -0.1210
  267SOL    HW1  800   0.897   0.565   2.371  0.8003  4.5110 -1.5973
  267SOL    HW2  801   1.021   0.671   2.430 -5.9961  3.2174 -0.5985
  268SOL     OW  802   0.476   0.500   2.767 -0.0735 -0.2512 -0.2101
  268SOL    HW1  803   0.492   0.588   2.722  2.2456 -0.9135 -1.0682
  268SOL    HW2  804   0.421   0.508   2.855  2.1660 -0.1032 -3.2790
  269SOL     OW  805   1.945   2.958   2.522  0.3118  0.1274  0.0376
  269SOL    HW1  806   1.949   3.003   2.611 -1.5049 -0.5323 -2.8887
  269SOL    HW2  807   1.868   2.988   2.466 -1.3785  1.4977  3.1210
  270SOL     OW  808   0.981   1.387   2.507  0.0901 -0.1934  0.2454
  270SOL    HW1  809   1.019   1.467   2.461 -0.0778 -2.7332 -0.0404
  270SOL    HW2  810   0.984   1.394   2.607 -2.0578 -1.2484 -0.5920
  271SOL     OW  811   0.197   2.973   3.025  0.2481  0.0815 -0.1595
  271SOL    HW1  812   0.263   2.963   2.945 -1.5938 -1.1690 -0.1511
  271SOL    HW2  813   0.240   3.004   0.000 -0.3814  0.8657  0.8587
  272SOL     OW  814   2.503   0.680   0.353  0.2446  0.0081  0.3161
  272SOL    HW1  815   2.516   0.673   0.454  0.5378  1.0324  0.2737
  272SOL    HW2  816   2.417   0.734   0.339  1.5883 -1.5979 -2.3914
  273SOL     OW  817   0.458   3.020   1.864  0.4572 -0.3558  0.5331
  273SOL    HW1  818   0.399   2.938   1.860  0.3193  2.0091  2.3666
  273SOL    HW2  819   0.556   2.990   1.859  1.0995  2.1444  0.3215
  274SOL     OW  820   2.961   0.359   2.005  0.1237  0.2498  1.5238
  274SOL    HW1  821   3.003   0.433   1.948  1.9646  0.1551  0.5942
  274SOL    HW2  822   3.008   0.275   1.983  0.7381  2.3885  1.9254
  275SOL     OW  823   1.463   1.704   0.559  0.2148  0.0289  0.3094
  275SOL    HW1  824   1.501   1.609   0.556 -0.9793 -0.2837 -1.4414
  275SOL    HW2  825   1.365   1.711   0.536  2.5146  1.0976  2.8422
  276SOL     OW  826   0.906   1.052   2.109 -0.3343 -0.0852 -0.7170
  276SOL    HW1  827   0.867   0.984   2.046  0.3613 -1.0219 -0.0929
  276SOL    HW2  828   0.878   1.028   2.201  0.5727  1.5123 -1.8422
  277SOL     OW  829   1.628   2.587   2.020  0.3760  0.0910 -0.6658
  277SOL    HW1  830   1.576   2.529   1.955  2.0945  0.1991 -1.9890
  277SOL    HW2  831   1.696   2.528   2.074  0.1619  0.4418  1.9570
  278SOL     OW  832   2.049   2.935   2.162 -0.1237  0.7816 -0.7767
  278SOL    HW1  833   2.002   2.932   2.254 -2.1584  1.1120  2.2364
  278SOL    HW2  834   2.123   2.867   2.158 -1.8571 -2.1393 -1.2421
  279SOL     OW  835   1.656   1.165   0.155 -0.3156 -0.3852 -0.3297
  279SOL    HW1  836   1.711   1.198   0.070  0.5621 -0.1142 -1.2747
  279SOL    HW2  837   1.569   1.120   0.128  2.4216 -3.0104 -3.5647
  280SOL     OW  838   0.561   1.440   0.042 -0.2184 -0.0477  0.3310
  280SOL    HW1  839   0.568   1.401   0.135  0.6417  2.0349 -1.1231
  280SOL    HW2  840   0.660   1.464   0.019  1.7542  0.0998  0.6298
  281SOL     OW  841   0.154   0.044   1.529 -0.7784 -0.1678 -0.7336
  281SOL    HW1  842   0.100   3.083   1.579 -1.4131  0.4817  2.5351
  281SOL    HW2  843   0.219   0.082   1.599  2.2469 -0.5363 -0.6581
  282SOL     OW  844   0.028   2.479   0.776 -0.2454  0.0192 -0.5286
  282SOL    HW1  845   3.059   2.537   0.792  0.6657 -1.6681 -0.4298
  282SOL    HW2  846   0.064   2.496   0.683 -0.3816 -0.2626  0.8229
  283SOL     OW  847   1.303   2.007   2.472  0.2870  0.0546 -0.5066
  283SOL    HW1  848   1.389   2.061   2.482 -1.4938 -0.3234 -0.8420
  283SOL    HW2  849   1.321   1.907   2.482  0.6628  1.4092  2.0572
  284SOL     OW  850   1.884   0.177   0.578 -0.6089 -0.5360  0.6152
  284SOL    HW1  851   1.893   0.213   0.480  0.8183  0.3406  0.0358
  284SOL    HW2  852   1.789   0.176   0.617 -1.6944 -0.8773 -2.3774
  285SOL     OW  853   0.028   2.552   2.463  0.0065 -0.4769 -0.1239
  285SOL    HW1  854   0.044   2.617   2.537 -1.8129  1.6410 -2.9246
  285SOL    HW2  855   0.038   2.455   2.496 -2.5056  0.6057 -1.8500
  286SOL     OW  856   2.673   2.620   1.329 -0.0648 -0.0946 -0.4766
  286SOL    HW1  857   2.680   2.634   1.430 -0.7271  0.2648 -4.0828
  286SOL    HW2  858   2.765   2.597   1.294 -3.2378  0.6987  1.6663
  287SOL     OW  859   0.543   1.714   0.797 -0.2223  0.4974  0.2271
  287SOL    HW1  860   0.467   1.783   0.814  1.2928  1.1412  0.3583
  287SOL    HW2  861   0.624   1.744   0.848 -0.2554  1.4097 -0.1526
  288SOL     OW  862   2.287   2.066   2.674  0.2672 -0.3795 -0.2769
  288SOL    HW1  863   2.378   2.025   2.653 -1.3338  1.1973  1.1314
  288SOL    HW2  864   2.297   2.127   2.751  0.7077  1.4684  0.3855
  289SOL     OW  865   0.001   1.738   2.990 -0.5080 -0.3333 -0.1839
  289SOL    HW1  866   3.012   1.731   2.999 -1.2632  0.7815 -0.5319
  289SOL    HW2  867   0.036   1.736   3.084 -0.9044 -1.3453 -0.8216
  290SOL     OW  868   1.083   1.764   1.165  0.0074  0.4655 -0.1343
  290SOL    HW1  869   1.177   1.725   1.187  0.9593  1.0539  0.1448
  290SOL    HW2  870   1.082   1.817   1.081 -1.2346  0.3189  1.1000
  291SOL     OW  871   1.615   0.952   2.986 -0.4018  0.4975  0.3868
  291SOL    HW1  872   1.553   0.933   2.907 -0.4280 -0.4897  0.0004
  291SOL    HW2  873   1.596   0.886   3.056  0.2104  4.6533  0.0024
  292SOL     OW  874   1.181   1.579   0.357  0.3870 -0.7451 -0.2457
  292SOL    HW1  875   1.196   1.525   0.440 -0.4927 -2.9590  2.5036
  292SOL    HW2  876   1.112   1.540   0.294 -0.0204  0.1270 -3.0689
  293SOL     OW  877   1.108   2.741   1.033  0.4243  0.2167  0.8660
  293SOL    HW1  878   1.184   2.810   1.040  0.8826  1.2286  0.6520
  293SOL    HW2  879   1.102   2.696   0.941  1.0927 -2.0650  0.4465
  294SOL     OW  880   2.426   1.182   2.970  0.4949 -0.0311  0.2251
  294SOL    HW1  881   2.456   1.112   2.902 -0.6356  0.4573 -0.9935
  294SOL    HW2  882   2.514   1.230   2.999 -1.2145  0.9510 -0.3436
  295SOL     OW  883   1.567   1.707   2.916 -0.4101  0.6470  0.1952
  295SOL    HW1  884   1.577   1.771   2.995 -2.5961  0.9847 -1.5600
  295SOL    HW2  885   1.514   1.751   2.841 -0.1645  0.9213  1.7470
  296SOL     OW  886   1.656   0.582   1.764  0.5274  0.2232 -1.0062
  296SOL    HW1  887   1.750   0.621   1.772  0.1088  0.7134 -1.2991
  296SOL    HW2  888   1.653   0.493   1.714 -1.2643 -6.0881  0.2263
  297SOL     OW  889   0.108   0.556   2.170  0.3670  0.2063  0.2914
  297SOL    HW1  890   0.079   0.636   2.218  0.2439 -0.9377  0.1747
  297SOL    HW2  891   0.067   0.562   2.076  2.1942 -0.1004 -2.1288
  298SOL     OW  892   1.172   2.423   1.775  0.6028 -0.6149  0.5892
  298SOL    HW1  893   1.163   2.343   1.719  2.1768  0.4776  1.6430
  298SOL    HW2  894   1.236   2.398   1.848 -0.7981 -2.0123 -1.1386
  299SOL     OW  895   1.309   2.948   2.668  0.6374  0.7181  0.2009
  299SOL    HW1  896   1.356   2.932   2.577  0.3799 -1.5329 -0.6849
  299SOL    HW2  897   1.224   2.885   2.680 -4.7402  0.3415  1.8926
  300SOL     OW  898   0.110   0.905   2.783  0.1203  0.4953  0.4292
  300SOL    HW1  899   0.083   0.890   2.880  0.8882 -0.9446 -1.2349
  300SOL    HW2  900   0.139   0.999   2.766  0.3944  1.1204 -0.6766
  301SOL     OW  901   1.817   1.090   1.951  0.0874 -0.2326 -0.1236
  301SOL    HW1  902   1.739   1.106   2.013 -1.0591  0.4885  0.0243
  301SOL    HW2  903   1.870   1.176   1.943  1.2806  2.4884 -1.9461
  302SOL     OW  904   2.586   1.779   2.591 -0.1997 -0.2663 -0.1467
  302SOL    HW1  905   2.632   1.773   2.502 -0.5807  1.3564  2.5029
  302SOL    HW2  906   2.545   1.870   2.608 -1.2154  1.1324  2.4254
  303SOL     OW  907   0.302   2.341   2.172  0.4254 -0.1419  0.5249
  303SOL    HW1  908   0.313   2.297   2.079  1.4673  0.0617 -0.2279
  303SOL    HW2  909   0.205   2.349   2.199 -1.0574 -3.2747 -2.2847
  304SOL     OW  910   3.097   0.826   1.217 -0.3760  0.1590  0.2137
  304SOL    HW1  911   0.008   0.914   1.172  0.3287 -0.9094 -0.4108
  304SOL    HW2  912   0.068   0.788   1.263 -0.6848  0.5900 -0.1602
  305SOL     OW  913   2.864   0.887   1.854 -0.1107 -0.1675 -0.4725
  305SOL    HW1  914   2.928   0.840   1.790  0.2301  1.5574  0.2024
  305SOL    HW2  915   2.885   0.983   1.875 -1.4241 -1.7293 -1.0648
  306SOL     OW  916   2.446   1.246   1.503  0.0986  0.6188  0.2681
  306SOL    HW1  917   2.385   1.165   1.536 -3.1536 -2.8904  4.1353
  306SOL    HW2  918   2.414   1.327   1.548 -2.3599 -2.6654 -1.8264
  307SOL     OW  919   2.412   3.045   0.878  0.1306 -0.0231 -0.2079
  307SOL    HW1  920   2.408   3.015   0.779  0.7664 -0.5503 -2.9066
  307SOL    HW2  921   2.498   3.084   0.906 -0.5956  0.9411 -0.9819
  308SOL     OW  922   0.068   1.972   1.856  0.6121 -0.2323 -0.2298
  308SOL    HW1  923   0.110   1.915   1.930 -1.9398 -0.0487  1.2585
  308SOL    HW2  924   0.098   1.944   1.767  1.4604 -0.1317  2.4841
  309SOL     OW  925   2.404   2.214   1.556  0.0115 -0.3401 -0.0856
  309SOL    HW1  926   2.421   2.316   1.561  1.3800 -2.6758 -1.0745
  309SOL    HW2  927   2.312   2.196   1.600 -0.4685  0.4806  2.5710
  310SOL     OW  928   2.207   1.348   2.948  0.1476 -0.3906 -0.3570
  310SOL    HW1  929   2.173   1.378   2.858 -0.6702  0.4215  0.7060
  310SOL    HW2  930   2.268   1.269   2.933 -1.3398 -0.4061 -2.4684
  311SOL     OW  931   1.839   1.052   2.874 -0.9324  0.0987 -0.3004
  311SOL    HW1  932   1.765   0.990   2.909 -0.0738  1.3284  2.6978
  311SOL    HW2  933   1.893   0.999   2.806 -0.0150  1.9170 -0.4417
  312SOL     OW  934   1.142   2.263   2.231 -0.6041 -0.1950  0.3580
  312SOL    HW1  935   1.136   2.169   2.190 -0.6040 -0.5233 -0.5394
  312SOL    HW2  936   1.056   2.283   2.278  0.9792  0.2757 -0.1133
  313SOL     OW  937   0.035   0.396   0.865 -0.0126  0.2657  0.0158
  313SOL    HW1  938   3.077   0.355   0.805  3.3360 -0.3480  1.5574
  313SOL    HW2  939   0.102   0.326   0.891  1.4751 -0.7600 -1.2176
  314SOL     OW  940   0.514   1.997   0.989  0.0523 -0.2655 -0.2663
  314SOL    HW1  941   0.453   2.073   0.970  3.5296 -1.9015 -2.5218
  314SOL    HW2  942   0.477   1.947   1.068 -1.3698  2.9953 -2.5360
  315SOL     OW  943   0.574   2.282   2.177 -0.4484  0.3327  0.3465
  315SOL    HW1  944   0.471   2.305   2.175  1.0116  0.6570  0.8810
  315SOL    HW2  945   0.632   2.358   2.194 -1.1405 -2.7706 -0.0020
  316SOL     OW  946   0.271   2.355   0.903  0.3018 -0.1114  0.6640
  316SOL    HW1  947   0.283   2.260   0.872 -0.1150  1.0324 -3.8238
  316SOL    HW2  948   0.186   2.394   0.856 -1.1151  1.1020 -0.1042
  317SOL     OW  949   1.951   0.559   0.781  0.7073  0.1881  0.1318
  317SOL    HW1  950   2.023   0.562   0.857  3.9485 -1.4575  1.5420
  317SOL    HW2  951   1.867   0.498   0.808 -0.7384 -3.0576  0.6191
  318SOL     OW  952   2.294   2.263   0.091  0.5447  0.4822  0.2784
  318SOL    HW1  953   2.237   2.205   0.151  0.1038  1.1050  0.2719
  318SOL    HW2  954   2.350   2.204   0.033  1.6184  1.4759  0.8559
  319SOL     OW  955   1.466   1.470   0.054 -0.1285 -0.1501  0.2540
  319SOL    HW1  956   1.370   1.503   0.037 -0.8172 -2.8967  1.0753
  319SOL    HW2  957   1.510   1.441   3.078  0.6947 -1.1279  1.4777
  320SOL     OW  958   0.415   2.685   2.698  0.0851  0.8590 -0.1435
  320SOL    HW1  959   0.428   2.596   2.753 -0.0434  0.4268  0.2591
  320SOL    HW2  960   0.461   2.680   2.603 -0.4948 -0.9642 -0.1116
  321SOL     OW  961   1.139   2.733   2.682 -0.4814 -0.8448 -0.6423
  321SOL    HW1  962   1.182   2.642   2.710  2.0730 -0.3975  1.3342
  321SOL    HW2  963   1.141   2.736   2.580 -0.9773 -1.0748  1.1579
  322SOL     OW  964   2.272   0.629   2.070  0.3569  0.2168  0.6962
  322SOL    HW1  965   2.211   0.551   2.068 -1.1370  2.6624 -2.9342
  322SOL    HW2  966   2.350   0.611   2.139  1.3646 -1.3182  0.2265
  323SOL     OW  967   0.070   1.279   0.709 -0.4889  0.0589 -0.1412
  323SOL    HW1  968   0.049   1.186   0.674  3.9611  1.2754 -0.6335
  323SOL    HW2  969   0.008   1.350   0.667  0.0674  0.0017 -0.1377
  324SOL     OW  970   0.248   0.736   1.854 -0.3812 -0.0059 -0.1741
  324SOL    HW1  971   0.202   0.659   1.898  0.9708 -0.4949  1.1985
  324SOL    HW2  972   0.317   0.703   1.786 -0.7383  1.0389  1.3211
  325SOL     OW  973   0.552   0.252   2.191  0.0909 -0.4165  0.0225
  325SOL    HW1  974   0.595   0.341   2.160 -2.5600  1.2682 -1.7894
  325SOL    HW2  975   0.574   0.237   2.293  0.9390  2.1987  1.7066
  326SOL     OW  976   2.309   2.437   0.289  0.3988  0.4177  0.0198
  326SOL    HW1  977   2.341   2.532   0.260 -0.6995  0.4181  0.6381
  326SOL    HW2  978   2.315   2.371   0.209 -0.1056 -0.0913 -2.8847
  327SOL     OW  979   2.464   1.530   0.579  0.4040 -0.3356  0.3389
  327SOL    HW1  980   2.380   1.484   0.551  2.3100  0.9234  0.2639
  327SOL    HW2  981   2.441   1.623   0.612  0.0742 -1.7638  0.2010
  328SOL     OW  982   2.952   1.831   2.275  0.1530 -0.7978 -0.4138
  328SOL    HW1  983   2.991   1.755   2.220  2.7819 -1.4699 -0.7876
  328SOL    HW2  984   2.930   1.910   2.213  0.5817  1.9159 -2.8951
  329SOL     OW  985   0.419   2.388   1.553  0.3733 -0.0957 -0.4622
  329SOL    HW1  986   0.390   2.293   1.586  1.7023  0.1247  1.2692
  329SOL    HW2  987   0.406   2.408   1.456  0.6713  0.3191 -1.0569
  330SOL     OW  988   2.486   1.316   2.504 -0.7829 -0.0239 -0.5502
  330SOL    HW1  989   2.469   1.397   2.566 -2.0678  0.6594  1.3424
  330SOL    HW2  990   2.533   1.346   2.418  0.5028 -2.0200  1.4276
  331SOL     OW  991   2.630   2.566   0.743 -0.2580  0.8176 -0.4360
  331SOL    HW1  992   2.601   2.551   0.839 -0.1427 -1.9730 -1.0904
  331SOL    HW2  993   2.553   2.623   0.712  1.8774 -1.6148  1.1424
  332SOL     OW  994   0.402   3.004   0.694 -0.0412  0.0517  0.5912
  332SOL    HW1  995   0.311   2.976   0.729 -1.1115  0.1079 -0.0193
  332SOL    HW2  996   0.471   2.929   0.717 -1.6414 -1.3278  0.3285
  333SOL     OW  997   2.181   2.559   2.388  0.2592 -0.1158  0.6117
  333SOL    HW1  998   2.246   2.511   2.322 -1.9454 -0.3563  1.6974
  333SOL    HW2  999   2.215   2.556   2.482 -0.7414 -0.6353 -3.0875
  334SOL     OW 1000   0.877   1.252   0.268 -0.3716  0.1323 -0.7316
  334SOL    HW1 1001   0.907   1.206   0.355 -4.0455  0.4555  0.2013
  334SOL    HW2 1002   0.781   1.281   0.291  2.0061 -3.5771  1.2312
  335SOL     OW 1003   2.796   1.811   1.909 -0.1763 -0.6757  0.4208
  335SOL    HW1 1004   2.785   1.806   1.807 -0.3861 -0.7511  1.7327
  335SOL    HW2 1005   2.708   1.778   1.953 -0.0522 -1.2292 -3.2843
  336SOL     OW 1006   2.761   3.011   2.346  0.2043 -0.0358  0.0832
  336SOL    HW1 1007   2.666   2.984   2.358 -1.7846  1.9850 -1.4231
  336SOL    HW2 1008   2.808   2.956   2.274 -0.8369 -0.2423 -2.1686
  337SOL     OW 1009   0.904   1.234   0.838  0.1082  0.1657  0.1188
  337SOL    HW1 1010   0.921   1.298   0.762 -1.9288 -2.7001  3.8231
  337SOL    HW2 1011   0.904   1.284   0.931 -0.2873  0.9861  1.7053
  338SOL     OW 1012   1.100   1.907   0.931 -0.0884  0.0499  0.4431
  338SOL    HW1 1013   1.199   1.931   0.928  1.4432 -0.3552 -2.1547
  338SOL    HW2 1014   1.052   1.976   0.872 -0.5947 -0.6792 -0.7621
  339SOL     OW 1015   0.348   1.535   1.520  0.1477  0.3611 -0.0638
  339SOL    HW1 1016   0.325   1.443   1.488  2.8089  0.8166  1.1023
  339SOL    HW2 1017   0.263   1.586   1.536  1.8827 -1.0257  0.6016
  340SOL     OW 1018   1.742   2.827   1.987  0.4159  0.2518 -0.2276
  340SOL    HW1 1019   1.829   2.839   2.033 -0.3328  1.1413  1.0433
  340SOL    HW2 1020   1.699   2.734   2.000 -0.6877 -3.6121  2.7156
  341SOL     OW 1021   1.764   1.611   1.068  0.1952 -0.3956  0.0603
  341SOL    HW1 1022   1.713   1.591   0.982 -0.2908 -0.3053 -0.1977
  341SOL    HW2 1023   1.864   1.612   1.053 -0.2070  0.4167  1.0918
  342SOL     OW 1024   0.064   1.422   0.969  0.4170 -0.0835  0.7331
  342SOL    HW1 1025   0.027   1.338   0.930 -1.2712  2.2238 -0.1619
  342SOL    HW2 1026   0.089   1.482   0.894  0.0636  0.7047  0.2613
  343SOL     OW 1027   2.737   0.499   1.465 -0.2360  0.3970  0.1430
  343SOL    HW1 1028   2.670   0.472   1.534  1.0125  0.0685 -0.5442
  343SOL    HW2 1029   2.703   0.579   1.414  1.0222  0.1187  3.0858
  344SOL     OW 1030   1.570   0.178   1.110 -0.3456 -0.0972 -0.1654
  344SOL    HW1 1031   1.589   0.189   1.211 -2.1952 -1.9048  2.2054
  344SOL    HW2 1032   1.527   0.259   1.070  1.2230 -2.2924  0.6883
  345SOL     OW 1033   0.708   2.935   2.426 -0.4386 -0.5358 -0.0398
  345SOL    HW1 1034   0.755   3.008   2.480  0.8115 -1.5432  1.3620
  345SOL    HW2 1035   0.723   2.940   2.331 -1.3656  0.4392 -0.2281
  346SOL     OW 1036   2.529   1.847   0.669  0.0397  0.2357  0.5816
  346SOL    HW1 1037   2.495   1.948   0.674  0.4039  0.6891  0.7534
  346SOL    HW2 1038   2.452   1.795   0.706  1.1368  4.5585 -1.3804
  347SOL     OW 1039   2.288   0.302   1.864  0.4285 -0.2873  0.5250
  347SOL    HW1 1040   2.271   0.227   1.796  1.6779  2.4818 -0.7131
  347SOL    HW2 1041   2.327   0.264   1.952 -1.8961 -0.3927 -1.2669
  348SOL     OW 1042   1.134   1.062   1.656 -0.1434  0.0623  0.0626
  348SOL    HW1 1043   1.042   1.044   1.697 -0.0593  0.0187 -0.0156
  348SOL    HW2 1044   1.210   1.001   1.692  2.7352  0.6928  0.5403
  349SOL     OW 1045   2.598   0.909   1.740  0.3705  0.7975 -0.3788
  349SOL    HW1 1046   2.668   0.929   1.804 -3.3414 -1.6864 -3.7326
  349SOL    HW2 1047   2.524   0.847   1.783 -2.4324 -0.5782  0.4072
  350SOL     OW 1048   2.198   2.103   0.299 -0.4329  0.3600  0.5508
  350SOL    HW1 1049   2.131   2.179   0.285  3.8287 -2.1510  0.2227
  350SOL    HW2 1050   2.191   2.026   0.231 -1.1914 -2.1190 -1.5410
  351SOL     OW 1051   0.808   0.447   2.264 -0.2384  0.9699 -0.2170
  351SOL    HW1 1052   0.865   0.356   2.264  1.0123 -2.2297  1.0627
  351SOL    HW2 1053   0.784   0.464   2.168  1.3419 -0.9991  2.5315
  352SOL     OW 1054   1.991   2.570   1.804  0.0483  0.0624 -0.3424
  352SOL    HW1 1055   1.989   2.622   1.892 -3.1426  1.4538 -0.1993
  352SOL    HW2 1056   1.898   2.581   1.758  0.6627  0.2121  1.5704
  353SOL     OW 1057   0.608   0.711   2.625 -0.0938  0.6992  0.6064
  353SOL    HW1 1058   0.708   0.741   2.638  3.3096  1.1334 -0.4701
  353SOL    HW2 1059   0.602   0.676   2.530  0.5847  0.4489 -1.0185
  354SOL     OW 1060   0.551   2.112   2.912 -0.7289 -0.0181  0.4110
  354SOL    HW1 1061   0.627   2.075   2.967 -3.4419 -1.3406  3.7425
  354SOL    HW2 1062   0.575   2.197   2.856 -0.9136  1.1781  1.0738
  355SOL     OW 1063   1.552   2.644   1.089  0.2078  0.0064 -0.0177
  355SOL    HW1 1064   1.554   2.745   1.071  1.8297  0.8724 -1.5774
  355SOL    HW2 1065   1.530   2.627   1.191 -0.5466  0.1664  0.3492
  356SOL     OW 1066   2.488   1.011   0.251 -0.4747  0.2043 -0.1200
  356SOL    HW1 1067   2.423   1.057   0.191  0.2101  0.6416 -1.3419
  356SOL    HW2 1068   2.443   0.970   0.331  0.2491 -0.9301 -1.1219
  357SOL     OW 1069   0.020   0.129   1.914 -0.0406 -0.2500  0.3356
  357SOL    HW1 1070   0.114   0.119   1.884 -0.3572 -0.7318 -1.5301
  357SOL    HW2 1071   3.067   0.109   1.837  2.1332 -2.0939 -0.8860
  358SOL     OW 1072   0.137   1.614   0.742 -0.5311  0.3537 -0.0405
  358SOL    HW1 1073   0.211   1.547   0.719 -0.5761  0.3270 -2.0846
  358SOL    HW2 1074   0.072   1.635   0.667  3.3748  0.2653 -2.9781
  359SOL     OW 1075   2.895   0.597   2.890 -0.4468 -0.0425  1.0708
  359SOL    HW1 1076   2.949   0.623   2.808  0.6908  0.5521 -0.5486
  359SOL    HW2 1077   2.795   0.619   2.875 -2.0361  1.8958 -2.0073
  360SOL     OW 1078   1.220   1.122   1.094 -0.5598  0.0001 -0.5692
  360SOL    HW1 1079   1.218   1.074   1.186 -0.3700 -0.2341  0.1482
  360SOL    HW2 1080   1.250   1.218   1.105  1.0358  1.9779  1.3375
  361SOL     OW 1081   2.609   2.803   1.075 -0.0429 -0.2336 -0.3115
  361SOL    HW1 1082   2.636   2.765   1.168 -0.1110 -0.2302  0.6642
  361SOL    HW2 1083   2.528   2.756   1.032  2.4626  1.0155  3.5241
  362SOL     OW 1084   1.194   0.367   0.971  0.6277 -0.8581  0.0605
  362SOL    HW1 1085   1.123   0.437   0.988 -0.6479 -1.7900 -1.8688
  362SOL    HW2 1086   1.218   0.380   0.873 -2.2922  2.3914 -0.4474
  363SOL     OW 1087   1.859   1.596   0.714 -0.3244 -0.0083  0.1689
  363SOL    HW1 1088   1.811   1.666   0.659 -1.8715 -0.7747  2.2433
  363SOL    HW2 1089   1.793   1.530   0.752  3.7976  2.4006  3.2878
  364SOL     OW 1090   0.671   0.387   1.431  0.2679 -0.6211  0.1365
  364SOL    HW1 1091   0.687   0.332   1.344 -0.5614 -2.0943 -0.7904
  364SOL    HW2 1092   0.675   0.488   1.414  1.8396  0.7571 -0.6383
  365SOL     OW 1093   0.269   0.253   0.944  0.0664 -0.4677  0.0579
  365SOL    HW1 1094   0.293   0.213   1.033 -1.5369  2.7357 -0.6624
  365SOL    HW2 1095   0.307   0.204   0.865  0.4077 -0.0536 -0.6623
  366SOL     OW 1096   2.916   1.112   3.063  0.1097 -0.5533  0.1006
  366SOL    HW1 1097   2.836   1.097   0.011  2.4993  2.0236 -1.7800
  366SOL    HW2 1098   2.931   1.215   3.048  3.6694  1.2785 -0.9107
  367SOL     OW 1099   2.219   2.197   2.448 -0.5435 -0.1247  0.4889
  367SOL    HW1 1100   2.254   2.154   2.535 -2.9259 -1.4559  0.5371
  367SOL    HW2 1101   2.125   2.233   2.456  0.5005  1.4601 -3.4723
  368SOL     OW 1102   2.304   1.736   0.764 -0.6806  0.2036  0.1297
  368SOL    HW1 1103   2.255   1.825   0.781  1.4024 -1.1963  2.7741
  368SOL    HW2 1104   2.232   1.667   0.730 -0.0710 -1.8979 -3.4707
  369SOL     OW 1105   2.013   0.394   2.863 -0.2528 -0.0514  0.4381
  369SOL    HW1 1106   2.083   0.464   2.879 -0.9767 -0.1839  1.4647
  369SOL    HW2 1107   1.935   0.417   2.927  1.7324  0.4434 -0.8780
  370SOL     OW 1108   0.485   0.520   0.997  0.4949  0.1956 -0.9701
  370SOL    HW1 1109   0.502   0.464   0.913 -2.8431  0.1979 -0.6028
  370SOL    HW2 1110   0.566   0.533   1.054 -0.2178  0.1178  1.5262
  371SOL     OW 1111   3.048   1.377   3.035 -0.2899  0.1204  0.3569
  371SOL    HW1 1112   3.055   1.406   2.939 -1.0149 -0.5886  3.1903
  371SOL    HW2 1113   2.974   1.420   3.084  4.1604 -2.5465 -0.1368
  372SOL     OW 1114   0.590   0.572   2.374 -0.1162 -0.1382 -0.8412
  372SOL    HW1 1115   0.669   0.516   2.336  3.2605  0.0282  0.1129
  372SOL    HW2 1116   0.504   0.569   2.317  0.2924 -0.6069  0.8587
  373SOL     OW 1117   0.618   2.959   3.003  0.2290 -0.0698 -0.2612
  373SOL    HW1 1118   0.613   2.887   3.071 -0.3212  1.7194  0.9084
  373SOL    HW2 1119   0.690   3.034   3.028  3.4850  1.5598  0.8508
  374SOL     OW 1120   0.810   1.483   3.070  0.0106  0.5283  0.1342
  374SOL    HW1 1121   0.882   1.498   0.024  0.1454 -0.0934 -2.7003
  374SOL    HW2 1122   0.807   1.386   3.045  0.1661 -0.2820  1.9006
  375SOL     OW 1123   0.980   0.429   2.040  0.5131  0.0909 -0.3040
  375SOL    HW1 1124   0.954   0.523   2.072  0.4821  0.7839 -0.7692
  375SOL    HW2 1125   0.995   0.360   2.112 -2.0179  1.8447 -2.7053
  376SOL     OW 1126   0.096   2.767   2.020 -0.0739  0.7654 -0.5250
  376SOL    HW1 1127   0.091   2.768   2.129  0.5322  0.4511  1.6985
  376SOL    HW2 1128   0.038   2.688   1.981  0.7488  1.6141 -3.1327
  377SOL     OW 1129   2.778   2.117   2.873 -0.2339 -0.4732 -0.6528
  377SOL    HW1 1130   2.747   2.171   2.792 -1.1928  0.0201  4.1120
  377SOL    HW2 1131   2.716   2.043   2.900 -0.4119 -0.4376 -1.1598
  378SOL     OW 1132   2.122   0.046   0.187 -0.4768 -0.7182  0.0207
  378SOL    HW1 1133   2.097   3.100   0.268 -0.5394 -0.4300 -0.0365
  378SOL    HW2 1134   2.065   0.030   0.104  2.5435  1.3745 -1.0244
  379SOL     OW 1135   1.814   0.763   0.633  0.3506  0.1773  0.2128
  379SOL    HW1 1136   1.870   0.687   0.673 -1.1783  0.8393  0.0144
  379SOL    HW2 1137   1.733   0.780   0.688  1.7360  0.7017 -0.2432
  380SOL     OW 1138   2.579   2.013   1.686  0.0987 -0.0202 -0.0654
  380SOL    HW1 1139   2.526   2.076   1.626 -0.5522  0.7346  1.3958
  380SOL    HW2 1140   2.593   2.057   1.777 -1.3886  0.7032 -1.3131
  381SOL     OW 1141   2.341   1.364   2.214 -0.4105 -0.5397 -0.8795
  381SOL    HW1 1142   2.308   1.366   2.120 -0.4163  1.4873 -0.3388
  381SOL    HW2 1143   2.371   1.267   2.237  2.0633  0.1427 -0.6579
  382SOL     OW 1144   2.944   2.600   2.789  0.8229  0.3116  0.0315
  382SOL    HW1 1145   3.040   2.634   2.792  0.6686 -0.8720 -0.4261
  382SOL    HW2 1146   2.940   2.509   2.842  2.7475 -4.4543  3.9086
  383SOL     OW 1147   0.995   1.056   2.993 -0.0588 -0.3909 -0.2298
  383SOL    HW1 1148   0.984   1.020   3.090  1.9970  0.5758  0.8644
  383SOL    HW2 1149   1.047   1.145   3.001  3.7543  1.5029  0.8895
  384SOL     OW 1150   1.716   1.909   2.348  0.3679  0.0380 -0.4069
  384SOL    HW1 1151   1.674   1.829   2.296 -0.6645  1.6141 -0.2697
  384SOL    HW2 1152   1.764   1.973   2.291  1.5645 -0.3481  4.9038
  385SOL     OW 1153   1.898   2.725   0.709  0.1921 -0.3812 -0.5413
  385SOL    HW1 1154   1.815   2.783   0.720 -1.0312  0.4961 -1.1144
  385SOL    HW2 1155   1.872   2.647   0.651  1.1748  2.1156  0.5537
  386SOL     OW 1156   1.814   1.172   0.542  0.0611 -0.5663  0.2112
  386SOL    HW1 1157   1.839   1.259   0.487 -0.1326 -0.1636 -2.5103
  386SOL    HW2 1158   1.805   1.192   0.643 -0.5497 -1.7965  1.8806
  387SOL     OW 1159   2.860   2.027   1.614 -0.1109 -0.3662  0.1791
  387SOL    HW1 1160   2.765   2.001   1.644 -0.7225  0.5101 -1.5578
  387SOL    HW2 1161   2.872   2.127   1.618 -0.7325  1.2427 -2.1395
  388SOL     OW 1162   0.393   1.106   1.566 -0.0804  0.0773 -0.1640
  388SOL    HW1 1163   0.334   1.182   1.529 -2.9440  1.3104  2.1182
  388SOL    HW2 1164   0.342   1.054   1.639  0.6878 -0.3230  1.8022
  389SOL     OW 1165   2.218   0.556   2.906 -0.2659  0.3798 -0.2811
  389SOL    HW1 1166   2.261   0.550   3.003  0.6718  1.6577  3.6359
  389SOL    HW2 1167   2.201   0.656   2.884  0.1454  0.9484  1.4962
  390SOL     OW 1168   0.832   1.722   2.947  0.5355 -0.5969  0.1361
  390SOL    HW1 1169   0.833   1.625   2.984  1.4348  0.5429  1.0908
  390SOL    HW2 1170   0.735   1.747   2.918 -1.1928  1.3163 -0.5515
  391SOL     OW 1171   0.922   2.170   0.206 -0.4507 -0.1938 -0.6942
  391SOL    HW1 1172   0.939   2.224   0.292 -3.0240  0.1494  0.2479
  391SOL    HW2 1173   0.825   2.137   0.202  2.7222  0.7075 -0.1918
  392SOL     OW 1174   2.986   2.455   2.231  0.3976 -0.1894  0.3964
  392SOL    HW1 1175   2.903   2.516   2.235  2.3725  1.4991 -0.0263
  392SOL    HW2 1176   3.048   2.482   2.306 -0.8128 -2.6295  0.8893
  393SOL     OW 1177   1.574   2.126   0.370  0.3508 -0.2304  0.4479
  393SOL    HW1 1178   1.672   2.136   0.362 -3.3482 -1.2197 -0.6112
  393SOL    HW2 1179   1.550   2.034   0.327 -0.3736 -1.4054  0.6731
  394SOL     OW 1180   0.580   0.260   2.466 -0.3379 -0.2556 -0.3836
  394SOL    HW1 1181   0.490   0.217   2.491 -0.2749  2.6448  2.1488
  394SOL    HW2 1182   0.564   0.361   2.455 -0.7366 -0.3808  1.9145
  395SOL     OW 1183   0.745   1.429   1.435 -0.3800  0.2450  0.0269
  395SOL    HW1 1184   0.749   1.524   1.473 -0.1100 -2.6599 -1.5406
  395SOL    HW2 1185   0.681   1.426   1.355 -2.4312  0.9424 -0.6578
  396SOL     OW 1186   1.832   1.233   2.690  0.5878 -0.3487 -0.1944
  396SOL    HW1 1187   1.877   1.188   2.607  0.6429 -0.3699 -0.0502
  396SOL    HW2 1188   1.814   1.163   2.759  2.2307 -0.8204 -3.1427
  397SOL     OW 1189   0.354   0.400   0.190  0.0236  0.0052  0.0929
  397SOL    HW1 1190   0.425   0.441   0.128 -0.3157  0.2325  0.2058
  397SOL    HW2 1191   0.262   0.448   0.188 -2.3163  1.6239 -1.5731
  398SOL     OW 1192   1.174   2.493   2.993 -0.5301  0.2065  0.1811
  398SOL    HW1 1193   1.202   2.500   2.895 -1.3524  0.8754 -0.8650
  398SOL    HW2 1194   1.248   2.448   3.049 -3.1592 -0.2297 -1.7695
  399SOL     OW 1195   1.953   2.232   2.245 -0.1605 -0.7676 -0.1138
  399SOL    HW1 1196   1.895   2.157   2.198 -0.7103  0.4537  0.3071
  399SOL    HW2 1197   2.039   2.255   2.203 -1.8493 -1.8699  2.0562
  400SOL     OW 1198   2.458   1.366   1.249 -0.1878 -0.3542  0.1517
  400SOL    HW1 1199   2.417   1.316   1.327  2.1887  0.4237  0.3615
  400SOL    HW2 1200   2.502   1.298   1.185 -0.7660  1.4980  0.1209
  401SOL     OW 1201   1.452   1.064   0.894 -0.5298  0.1841 -0.3475
  401SOL    HW1 1202   1.526   0.994   0.911  1.3421 -1.5837  0.8927
  401SOL    HW2 1203   1.377   1.059   0.965  1.5150  0.0062  0.2331
  402SOL     OW 1204   0.255   2.986   2.444  0.3262 -0.1866 -0.1764
  402SOL    HW1 1205   0.293   3.071   2.402  2.7345 -2.7721  0.4182
  402SOL    HW2 1206   0.330   2.920   2.451  1.6165  0.2175  0.1722
  403SOL     OW 1207   2.816   1.733   1.655  0.2499 -0.3148  0.1606
  403SOL    HW1 1208   2.772   1.655   1.605 -1.5350 -0.1140 -0.7746
  403SOL    HW2 1209   2.825   1.818   1.597  1.6094  1.8268  0.0237
  404SOL     OW 1210   2.352   1.682   1.467  0.2250 -0.5257  0.4785
  404SOL    HW1 1211   2.263   1.722   1.431 -1.9058 -0.6597  1.0507
  404SOL    HW2 1212   2.406   1.645   1.390  0.8071 -0.6740  0.1595
  405SOL     OW 1213   2.286   0.177   2.620  0.3303  0.2003  0.1931
  405SOL    HW1 1214   2.248   0.217   2.534  0.2741 -0.4669 -1.0422
  405SOL    HW2 1215   2.389   0.181   2.617 -1.8582  1.4185  1.2957
  406SOL     OW 1216   0.924   1.335   2.783 -0.5081  0.5405 -0.1360
  406SOL    HW1 1217   0.871   1.249   2.803 -0.2946  1.8057  5.1905
  406SOL    HW2 1218   0.996   1.347   2.852  0.1095 -1.6637  0.8896
  407SOL     OW 1219   2.136   2.273   0.690 -0.6046 -0.0998  0.4756
  407SOL    HW1 1220   2.058   2.274   0.758 -3.0144  2.2439  0.4508
  407SOL    HW2 1221   2.126   2.192   0.632  0.2734  1.9262  2.3673
  408SOL     OW 1222   0.145   2.943   0.844 -0.5914 -0.4180 -0.0680
  408SOL    HW1 1223   0.146   2.926   0.944 -1.3060  2.7454 -0.3341
  408SOL    HW2 1224   0.104   3.031   0.821  0.2262  0.0441 -0.9164
  409SOL     OW 1225   2.102   1.568   0.747  0.8538 -0.1363  0.6763
  409SOL    HW1 1226   2.002   1.563   0.711 -0.6154 -0.2118 -2.4576
  409SOL    HW2 1227   2.126   1.482   0.797  0.8972 -0.7566  1.8375
  410SOL     OW 1228   2.189   2.433   3.027  0.2666  0.1121 -0.1793
  410SOL    HW1 1229   2.228   2.525   3.021 -0.4662  0.9363  1.4169
  410SOL    HW2 1230   2.218   2.376   3.109 -0.5910  0.8203  2.0709
  411SOL     OW 1231   3.045   2.865   0.692  0.1806 -0.2609  0.0279
  411SOL    HW1 1232   0.013   2.884   0.745 -3.6189 -0.0964 -0.6585
  411SOL    HW2 1233   2.972   2.938   0.693  0.5987 -0.0042 -1.8301
  412SOL     OW 1234   1.485   2.651   0.543  0.0238  0.2998  0.0262
  412SOL    HW1 1235   1.447   2.741   0.514 -0.8475  1.3527 -2.0817
  412SOL    HW2 1236   1.489   2.645   0.642 -1.2128  2.6313  0.9258
  413SOL     OW 1237   1.741   3.112   2.398  0.6706 -0.3158  1.0631
  413SOL    HW1 1238   1.709   3.072   2.305  2.3025  0.4663 -2.3193
  413SOL    HW2 1239   1.757   0.097   2.384  1.2224 -0.6438  2.1725
  414SOL     OW 1240   0.352   0.788   0.631 -0.3354 -0.0600  0.0020
  414SOL    HW1 1241   0.425   0.717   0.638  0.3781 -2.3873 -1.1010
  414SOL    HW2 1242   0.275   0.769   0.693 -1.2037  1.9962  0.0242
  415SOL     OW 1243   0.251   1.146   1.214  0.2812  0.4611  0.2644
  415SOL    HW1 1244   0.175   1.102   1.165  3.4419  1.3174 -0.9024
  415SOL    HW2 1245   0.334   1.094   1.192 -2.0353 -1.5848  2.6229
  416SOL     OW 1246   0.380   3.065   0.133 -0.2508 -0.2382  0.4034
  416SOL    HW1 1247   0.314   0.016   0.175 -2.3558  0.2437  1.3914
  416SOL    HW2 1248   0.430   3.030   0.211 -1.3287  0.4768 -2.5409
  417SOL     OW 1249   2.171   0.473   0.597 -0.3095 -0.2017  0.3984
  417SOL    HW1 1250   2.239   0.449   0.673  4.3526 -1.8847  3.8277
  417SOL    HW2 1251   2.076   0.491   0.633 -0.7098  1.0908 -0.8307
  418SOL     OW 1252   0.594   0.273   2.862  0.3375  0.0817 -0.0545
  418SOL    HW1 1253   0.686   0.311   2.842 -2.5388 -1.0114  3.4586
  418SOL    HW2 1254   0.528   0.335   2.821  1.2306 -1.7668  0.7905
  419SOL     OW 1255   0.478   1.067   0.668  0.4089 -0.1905 -0.8449
  419SOL    HW1 1256   0.435   0.977   0.666 -0.6550  1.7694  1.5535
  419SOL    HW2 1257   0.466   1.116   0.756 -0.7597 -0.1906  0.2786
  420SOL     OW 1258   2.235   1.855   1.109  0.3145  0.3415  1.0354
  420SOL    HW1 1259   2.255   1.953   1.127 -1.1457 -0.0482  0.0721
  420SOL    HW2 1260   2.319   1.804   1.087  0.6513  0.1892  1.2538
  421SOL     OW 1261   1.376   1.798   2.742 -0.5775  0.3553  0.3879
  421SOL    HW1 1262   1.318   1.879   2.755  3.7036 -2.5916  0.4000
  421SOL    HW2 1263   1.353   1.744   2.660  0.1949 -1.3536  2.9755
  422SOL     OW 1264   2.839   0.762   0.014 -0.2668 -0.5165  0.5050
  422SOL    HW1 1265   2.862   0.713   3.037 -1.0828 -0.9010 -0.8169
  422SOL    HW2 1266   2.816   0.698   0.089 -1.3304 -0.4608  0.6484
  423SOL     OW 1267   1.920   1.852   0.436  0.2817 -0.1331 -0.3818
  423SOL    HW1 1268   1.987   1.779   0.464 -0.9923  0.8257  1.0854
  423SOL    HW2 1269   1.825   1.816   0.436  0.7943  1.3277 -0.7732
  424SOL     OW 1270   0.519   1.652   1.707 -0.0556  0.2122  0.4003
  424SOL    HW1 1271   0.597   1.674   1.651  0.0727 -4.1838  0.5381
  424SOL    HW2 1272   0.440   1.622   1.649 -2.6791 -1.2959 -0.7189
  425SOL     OW 1273   2.364   2.752   1.888  0.2758 -0.0619  0.3055
  425SOL    HW1 1274   2.448   2.802   1.870 -0.6333  0.8508  0.7211
  425SOL    HW2 1275   2.365   2.650   1.867 -0.2680 -1.3340 -3.2760
  426SOL     OW 1276   1.774   2.503   0.585  0.7158 -0.9395  0.3602
  426SOL    HW1 1277   1.705   2.453   0.524  1.7248 -1.6402 -2.5517
  426SOL    HW2 1278   1.770   2.455   0.671  0.5385 -0.2362 -1.0033
  427SOL     OW 1279   0.188   0.427   2.627  0.1684 -0.5052  0.1535
  427SOL    HW1 1280   0.290   0.401   2.618  1.7977 -1.5412 -1.8493
  427SOL    HW2 1281   0.139   0.353   2.682 -0.8159 -1.1629  1.4423
  428SOL     OW 1282   2.191   0.816   2.841 -0.3933  0.4833 -0.3421
  428SOL    HW1 1283   2.205   0.916   2.818  0.2392 -2.4478  0.6158
  428SOL    HW2 1284   2.095   0.785   2.838  0.9587 -1.8068  0.8191
  429SOL     OW 1285   3.008   0.304   0.656 -0.1462 -0.4256 -0.6060
  429SOL    HW1 1286   3.043   0.287   0.560  0.9109 -2.0556 -3.0337
  429SOL    HW2 1287   2.916   0.262   0.663 -3.2700 -3.2396 -1.5248
  430SOL     OW 1288   1.165   2.798   1.878 -0.3788 -0.2775 -0.1677
  430SOL    HW1 1289   1.087   2.739   1.846  1.2843 -0.1684  1.2061
  430SOL    HW2 1290   1.235   2.745   1.932 -0.8401  2.0905  1.8100
  431SOL     OW 1291   3.004   2.191   1.261 -0.6454  0.0630  0.3789
  431SOL    HW1 1292   2.908   2.213   1.271  3.7414  0.8237  0.5089
  431SOL    HW2 1293   3.025   2.107   1.309 -1.5092  1.1340  0.8972
  432SOL     OW 1294   2.292   2.730   2.150 -0.2988  0.3739 -0.5674
  432SOL    HW1 1295   2.329   2.743   2.057 -2.1991 -0.3400  4.6193
  432SOL    HW2 1296   2.364   2.696   2.216  0.2622  3.0848 -2.2017
  433SOL     OW 1297   1.184   2.109   0.278  0.5559  0.0784 -1.0207
  433SOL    HW1 1298   1.089   2.108   0.310  0.4322 -0.7087  1.4340
  433SOL    HW2 1299   1.209   2.015   0.252 -0.9506 -1.0917 -0.4111
  434SOL     OW 1300   0.061   2.268   2.584  0.8683 -0.3362 -0.1905
  434SOL    HW1 1301   3.086   2.249   2.537 -0.2722  1.0584  2.8204
  434SOL    HW2 1302   0.056   2.226   2.678  0.7919 -1.4923 -2.1084
  435SOL     OW 1303   0.172   0.845   0.436  0.7465  0.0097 -0.3153
  435SOL    HW1 1304   0.132   0.763   0.388 -0.7656  1.7768 -0.5006
  435SOL    HW2 1305   0.224   0.818   0.516  0.2788 -1.0135 -2.8074
  436SOL     OW 1306   0.574   2.610   1.960 -0.5506  0.3431  0.1081
  436SOL    HW1 1307   0.571   2.601   1.861 -3.7492 -0.8493 -0.4504
  436SOL    HW2 1308   0.659   2.576   2.000 -2.0542 -0.4722  1.9709
  437SOL     OW 1309   1.307   2.072   1.429  0.0059 -0.2268 -0.4058
  437SOL    HW1 1310   1.325   2.132   1.346 -1.4040  3.3837  0.9474
  437SOL    HW2 1311   1.396   2.027   1.454  0.5060 -1.1592 -0.6291
  438SOL     OW 1312   0.108   2.384   0.281  0.5019  0.5994  0.3700
  438SOL    HW1 1313   0.201   2.371   0.244 -1.0921  1.2324  1.2374
  438SOL    HW2 1314   0.044   2.302   0.267  1.2867  1.0005 -0.3360
  439SOL     OW 1315   0.385   0.080   1.128  0.1801  0.6475 -0.3098
  439SOL    HW1 1316   0.454   0.021   1.079  0.9884  1.0462  0.7452
  439SOL    HW2 1317   0.352   0.036   1.215 -0.0658 -0.2656 -0.9158
  440SOL     OW 1318   2.769   2.635   2.274  0.2674  0.4483  0.2892
  440SOL    HW1 1319   2.785   2.650   2.375  1.3110 -1.0710  0.5813
  440SOL    HW2 1320   2.799   2.715   2.217 -1.1650  0.7714  1.0108
  441SOL     OW 1321   3.000   0.531   1.488  0.3090 -0.0015  0.3664
  441SOL    HW1 1322   3.043   0.436   1.500  0.7805 -0.9837 -0.9571
  441SOL    HW2 1323   2.898   0.520   1.461 -2.8713 -3.7549  1.0434
  442SOL     OW 1324   1.946   2.311   3.067 -0.1495  0.5231 -0.0457
  442SOL    HW1 1325   2.036   2.355   3.058 -0.5140 -3.1061  0.8236
  442SOL    HW2 1326   1.889   2.363   0.017 -0.5485 -0.7840  0.8795
  443SOL     OW 1327   0.317   0.520   3.001  0.5446  0.3689  0.2520
  443SOL    HW1 1328   0.249   0.457   2.955  2.5660 -0.6822 -1.7241
  443SOL    HW2 1329   0.264   0.602   3.032  1.9552 -1.1592  1.4042
  444SOL     OW 1330   1.535   1.469   2.265  0.6608 -0.7172  0.1518
  444SOL    HW1 1331   1.596   1.388   2.269  0.7801  3.4399  0.4665
  444SOL    HW2 1332   1.581   1.559   2.254  1.0450  0.0096 -0.0025
  445SOL     OW 1333   0.187   2.556   1.108 -0.0308 -0.1825 -0.3901
  445SOL    HW1 1334   0.231   2.647   1.100  1.0019 -0.8048 -0.9790
  445SOL    HW2 1335   0.225   2.493   1.037  0.4752  0.4227  1.8000
  446SOL     OW 1336   2.708   1.570   1.467 -0.0203  0.0962 -0.3018
  446SOL    HW1 1337   2.759   1.488   1.428  0.8028  0.6514 -2.8439
  446SOL    HW2 1338   2.657   1.616   1.388 -2.0390  0.2330 -0.4863
  447SOL     OW 1339   0.177   0.634   0.222  0.1510  0.2599 -0.1881
  447SOL    HW1 1340   0.211   0.709   0.163 -0.0823  1.6329 -0.8760
  447SOL    HW2 1341   0.082   0.608   0.199  0.7106 -4.7392 -1.1219
  448SOL     OW 1342   1.410   2.156   1.994  0.4456  0.0623  0.1322
  448SOL    HW1 1343   1.458   2.242   1.954  1.7998 -0.4977 -4.3747
  448SOL    HW2 1344   1.420   2.171   2.092 -1.6772  1.4490 -1.6141
  449SOL     OW 1345   1.019   1.456   0.130  0.5602 -0.3861 -0.0032
  449SOL    HW1 1346   0.950   1.383   0.158 -0.8652 -0.4590 -0.5396
  449SOL    HW2 1347   1.115   1.422   0.155  0.0470  0.5530 -2.4476
  450SOL     OW 1348   2.966   1.990   2.035 -0.3799  0.4810 -0.2220
  450SOL    HW1 1349   3.048   1.986   1.979 -0.4220 -1.1405  2.8990
  450SOL    HW2 1350   2.898   1.930   1.997 -0.9029  1.5603  1.5522
  451SOL     OW 1351   2.584   0.848   2.433 -0.2527 -0.3244  0.0459
  451SOL    HW1 1352   2.506   0.888   2.487  0.9772 -0.5488  0.2429
  451SOL    HW2 1353   2.664   0.830   2.495 -1.4925  1.1315  1.8422
  452SOL     OW 1354   1.446   0.525   1.231 -0.0293  0.1566  0.6951
  452SOL    HW1 1355   1.366   0.585   1.246  2.6851 -1.6159  1.6685
  452SOL    HW2 1356   1.528   0.566   1.280  1.2356 -0.9760 -2.1252
  453SOL     OW 1357   1.570   0.955   1.226  0.2638 -0.0288 -0.2973
  453SOL    HW1 1358   1.520   0.920   1.309 -2.2172 -3.6875  1.3052
  453SOL    HW2 1359   1.563   1.054   1.223 -0.0118 -1.1917  0.6515
  454SOL     OW 1360   0.000   1.044   0.294  0.5194 -0.2275  0.2480
  454SOL    HW1 1361   0.072   1.017   0.361 -1.9960 -0.1153 -0.5038
  454SOL    HW2 1362   3.019   1.047   0.320  1.6722  0.4983 -1.1274
  455SOL     OW 1363   2.391   2.735   1.474 -0.1280 -0.3693 -0.1383
  455SOL    HW1 1364   2.312   2.731   1.540  0.2953 -0.4422  0.3731
  455SOL    HW2 1365   2.364   2.736   1.377 -2.4370  1.6566  3.4381
  456SOL     OW 1366   0.359   2.780   1.210  0.1718 -0.2090  0.1406
  456SOL    HW1 1367   0.380   2.807   1.312 -0.7872  0.8249  0.5655
  456SOL    HW2 1368   0.282   2.836   1.166 -0.9171 -1.3012 -1.0812
  457SOL     OW 1369   1.520   2.983   0.569 -0.4431  0.0323 -0.3916
  457SOL    HW1 1370   1.428   2.954   0.542  1.4254  0.8630  1.2243
  457SOL    HW2 1371   1.522   3.076   0.613  1.7233 -0.0812 -1.7313
  458SOL     OW 1372   2.624   3.107   1.082 -0.7609 -0.2251 -0.1737
  458SOL    HW1 1373   2.712   0.023   1.123  0.3978 -1.8546  0.2551
  458SOL    HW2 1374   2.616   3.008   1.102 -1.2058  0.5137  0.1491
  459SOL     OW 1375   2.636   0.584   2.828 -0.7249  0.2957 -0.3091
  459SOL    HW1 1376   2.586   0.668   2.849  1.3695 -0.8211  1.9390
  459SOL    HW2 1377   2.651   0.571   2.730 -1.0287 -1.5223  0.5538
  460SOL     OW 1378   2.650   2.474   2.887  0.2271  0.5582  0.2807
  460SOL    HW1 1379   2.601   2.550   2.937 -0.2313  0.1828  0.0856
  460SOL    HW2 1380   2.748   2.467   2.910 -0.3611  0.2596 -0.6018
  461SOL     OW 1381   0.665   2.022   0.253 -0.6242 -0.1523 -0.5337
  461SOL    HW1 1382   0.719   1.945   0.289 -1.7708  3.9044 -1.1168
  461SOL    HW2 1383   0.594   1.983   0.195 -0.8769  3.0271  2.0718
  462SOL     OW 1384   2.199   1.994   0.795 -0.4898 -0.7469  0.2761
  462SOL    HW1 1385   2.185   2.024   0.699  1.7049  2.5343 -0.5445
  462SOL    HW2 1386   2.256   2.066   0.845  1.1232 -0.3797 -0.8288
  463SOL     OW 1387   2.889   1.154   0.646  0.0275 -0.5185 -0.5134
  463SOL    HW1 1388   2.959   1.078   0.639  0.8899 -1.3906  1.4672
  463SOL    HW2 1389   2.816   1.143   0.580  0.3965 -0.3154 -0.9980
  464SOL     OW 1390   1.061   2.806   0.611 -0.0046  0.0028  0.3046
  464SOL    HW1 1391   0.983   2.848   0.563 -1.0305 -1.3985 -1.1007
  464SOL    HW2 1392   1.057   2.705   0.590 -0.4644 -2.1042 -0.3007
  465SOL     OW 1393   2.273   1.379   0.485  0.5683  0.6738 -0.1920
  465SOL    HW1 1394   2.222   1.296   0.515  1.0490  0.7032 -1.5677
  465SOL    HW2 1395   2.237   1.410   0.397 -2.5162 -0.8599 -0.4512
  466SOL     OW 1396   2.403   0.184   2.911  0.2172  0.3322 -0.5295
  466SOL    HW1 1397   2.307   0.205   2.903  3.5920 -0.6500 -0.2245
  466SOL    HW2 1398   2.457   0.267   2.922 -2.8051  1.0564 -2.4050
  467SOL     OW 1399   1.055   1.105   1.396 -0.4881 -0.6638 -0.5206
  467SOL    HW1 1400   1.076   1.105   1.497 -1.0642 -2.0454 -0.4767
  467SOL    HW2 1401   1.103   1.028   1.355 -2.2755  0.7159 -1.9935
  468SOL     OW 1402   0.414   0.911   2.194  0.3457  0.1409 -0.1758
  468SOL    HW1 1403   0.392   0.992   2.140  0.4101 -3.4614  2.2570
  468SOL    HW2 1404   0.495   0.925   2.256  0.0314  0.9632  1.1450
  469SOL     OW 1405   0.380   2.388   0.194 -0.2480 -0.2071  0.3216
  469SOL    HW1 1406   0.355   2.483   0.165 -0.5404  2.3702 -3.3926
  469SOL    HW2 1407   0.476   2.395   0.229  1.4806 -0.8612 -1.4060
  470SOL     OW 1408   2.586   1.026   2.804 -0.3433 -0.0443  0.0225
  470SOL    HW1 1409   2.563   0.930   2.826 -1.0102  2.1491  0.6799
  470SOL    HW2 1410   2.683   1.040   2.781  0.1166 -1.8392  0.9878
  471SOL     OW 1411   2.684   1.036   2.258  0.2818  0.5105 -0.0429
  471SOL    HW1 1412   2.776   1.068   2.292  2.0374 -0.1698 -0.0378
  471SOL    HW2 1413   2.655   0.953   2.312  0.0012 -0.3694  2.4858
  472SOL     OW 1414   0.366   2.423   0.623  0.7288  0.2963 -0.0182
  472SOL    HW1 1415   0.270   2.448   0.603 -0.0088  0.9421 -1.9001
  472SOL    HW2 1416   0.431   2.493   0.584 -1.2150  1.7219 -1.0235
  473SOL     OW 1417   0.535   0.142   0.007 -0.7400 -0.1682 -0.1030
  473SOL    HW1 1418   0.479   0.065   0.047  3.1642 -0.0965  0.1154
  473SOL    HW2 1419   0.544   0.141   3.017  1.5576 -1.5228 -4.0343
  474SOL     OW 1420   1.718   0.424   2.179  0.8161 -0.5112 -0.2403
  474SOL    HW1 1421   1.733   0.519   2.205  0.2177  0.1637  0.2891
  474SOL    HW2 1422   1.622   0.415   2.151 -0.7615  0.7951 -0.6414
  475SOL     OW 1423   1.066   2.598   0.140  0.4396 -0.2123 -0.1748
  475SOL    HW1 1424   1.087   2.506   0.175 -1.8134  1.3530  0.7835
  475SOL    HW2 1425   1.089   2.606   0.039 -1.5770  2.2581 -0.7578
  476SOL     OW 1426   0.469   1.182   0.915  0.1910  0.3355  0.2036
  476SOL    HW1 1427   0.546   1.163   0.978  2.7313 -1.2127  1.9430
  476SOL    HW2 1428   0.484   1.269   0.867 -0.3549 -1.5557  0.3202
  477SOL     OW 1429   1.679   2.385   1.290 -0.2556  0.2390  0.3371
  477SOL    HW1 1430   1.587   2.419   1.321 -1.1371  0.4997 -1.9359
  477SOL    HW2 1431   1.697   2.398   1.192 -0.7465  1.0411 -0.5752
  478SOL     OW 1432   0.555   1.450   2.433  0.5406 -0.3804 -0.1405
  478SOL    HW1 1433   0.624   1.378   2.407 -2.6563  0.8195  0.2833
  478SOL    HW2 1434   0.577   1.489   2.524  1.0334 -0.5094 -0.2602
  479SOL     OW 1435   0.155   2.923   1.120  0.0857  0.3921 -0.3729
  479SOL    HW1 1436   0.082   2.853   1.142 -0.2061 -3.5075  0.8624
  479SOL    HW2 1437   0.135   3.018   1.153  0.5808  3.6287  1.0720
  480SOL     OW 1438   2.714   2.990   0.240  0.1146  0.8768  0.1126
  480SOL    HW1 1439   2.659   3.071   0.227  2.2581  0.2418 -2.1984
  480SOL    HW2 1440   2.701   2.934   0.325 -0.1409 -0.4864  0.6966
  481SOL     OW 1441   2.855   2.841   0.933  0.2073 -0.4075 -0.5229
  481SOL    HW1 1442   2.879   2.748   0.904 -0.3458 -0.8681  0.0367
  481SOL    HW2 1443   2.761   2.837   0.967 -2.3173  0.3975  1.3588
  482SOL     OW 1444   1.569   2.254   2.235  0.2111  0.3416  0.2238
  482SOL    HW1 1445   1.580   2.214   2.329  0.3271  1.6414  1.4382
  482SOL    HW2 1446   1.660   2.294   2.212  0.9507  2.8406  0.1142
  483SOL     OW 1447   0.564   1.736   2.826 -0.9172 -0.2795 -0.4216
  483SOL    HW1 1448   0.604   1.654   2.776  0.9310 -4.1166  2.2578
  483SOL    HW2 1449   0.556   1.825   2.775 -0.2676  2.2172  0.7636
  484SOL     OW 1450   1.059   1.089   2.532  0.4170 -0.2679 -0.3284
  484SOL    HW1 1451   0.983   1.034   2.489 -0.4621  1.0090 -0.7781
  484SOL    HW2 1452   1.038   1.182   2.559  4.2207 -0.0825  0.1512
  485SOL     OW 1453   2.747   0.369   0.445  0.1820 -0.5690  0.2184
  485SOL    HW1 1454   2.701   0.329   0.526  0.2234 -2.0588  0.1177
  485SOL    HW2 1455   2.796   0.294   0.404 -1.4606  0.3225  1.2801
  486SOL     OW 1456   1.656   2.872   0.785  0.6029 -0.5823 -0.3033
  486SOL    HW1 1457   1.667   2.947   0.852  0.7276 -1.3697  0.6596
  486SOL    HW2 1458   1.589   2.900   0.715  1.9204 -0.9127  0.9768
  487SOL     OW 1459   0.676   2.416   1.083  0.1243  1.0036 -0.0986
  487SOL    HW1 1460   0.619   2.502   1.080 -0.8999  0.0623 -1.5659
  487SOL    HW2 1461   0.763   2.426   1.038  0.2139  0.5627 -0.1470
  488SOL     OW 1462   2.306   1.211   0.139  0.0388  0.3178 -0.1199
  488SOL    HW1 1463   2.296   1.306   0.172  0.0846 -0.5330  0.7702
  488SOL    HW2 1464   2.333   1.202   0.042  1.1974  0.1605 -2.3222
  489SOL     OW 1465   1.328   2.968   0.977 -0.1575  0.0813  0.0500
  489SOL    HW1 1466   1.358   3.032   1.049  1.7714  2.0218 -1.5655
  489SOL    HW2 1467   1.379   2.978   0.889 -1.3415  1.0798  1.0446
  490SOL     OW 1468   0.959   1.023   0.150  0.1443  0.1484 -0.0054
  490SOL    HW1 1469   1.035   1.003   0.216 -0.1693 -2.3248 -1.9585
  490SOL    HW2 1470   0.915   1.115   0.162 -1.0923  0.9756 -0.0797
  491SOL     OW 1471   0.821   3.062   0.847  0.2179  0.5227 -0.3580
  491SOL    HW1 1472   0.762   2.989   0.801 -1.6333 -3.1780  1.4436
  491SOL    HW2 1473   0.921   3.040   0.832 -1.8963  1.3561 -2.8813
  492SOL     OW 1474   1.391   1.372   2.067 -0.4005 -0.1310 -0.8596
  492SOL    HW1 1475   1.426   1.416   2.153  1.1664 -0.9916  1.2250
  492SOL    HW2 1476   1.454   1.405   1.988  1.4422  2.8061 -3.5063
  493SOL     OW 1477   0.122   2.514   0.530 -0.3595 -0.0580  0.0744
  493SOL    HW1 1478   0.127   2.454   0.449 -1.8542 -0.7724 -0.9051
  493SOL    HW2 1479   0.054   2.586   0.506  0.6862 -1.0706 -0.8660
  494SOL     OW 1480   2.391   1.777   3.091 -0.0910  0.2881  0.7804
  494SOL    HW1 1481   2.313   1.808   3.029 -0.3107  1.2034 -0.7714
  494SOL    HW2 1482   2.398   1.671   3.092 -0.0068 -2.3275  0.8034
  495SOL     OW 1483   2.628   1.359   3.019 -0.0806  0.0121 -0.4626
  495SOL    HW1 1484   2.640   1.340   2.921 -1.3048 -1.3105 -0.6064
  495SOL    HW2 1485   2.714   1.392   3.064  2.8783 -1.8900 -0.6036
  496SOL     OW 1486   2.627   0.033   1.511  0.1760  0.3540  0.5344
  496SOL    HW1 1487   2.568   3.106   1.585 -1.9738  0.8125 -2.3444
  496SOL    HW2 1488   2.570   0.073   1.439 -2.4193  2.2041 -0.5960
  497SOL     OW 1489   2.582   1.117   0.543  0.2823 -0.1426 -0.0527
  497SOL    HW1 1490   2.491   1.074   0.528  2.7941  2.1622 -1.6794
  497SOL    HW2 1491   2.586   1.207   0.500 -0.6075 -1.3796  0.0880
  498SOL     OW 1492   2.934   2.183   2.472 -0.1624  0.6240  0.4097
  498SOL    HW1 1493   2.939   2.083   2.501 -2.0012 -0.7275  0.7488
  498SOL    HW2 1494   2.923   2.185   2.371 -1.0116  1.1919 -1.3340
  499SOL     OW 1495   1.006   2.281   0.453  0.0180 -0.0241 -0.1313
  499SOL    HW1 1496   1.055   2.224   0.526 -0.8163  0.3082  0.2644
  499SOL    HW2 1497   1.076   2.323   0.395 -1.5661  1.0778  1.0718
  500SOL     OW 1498   0.922   0.041   2.659  0.1358 -0.2782  0.2363
  500SOL    HW1 1499   0.984   0.047   2.742 -1.1935 -0.6618  1.5988
  500SOL    HW2 1500   0.823   0.034   2.685 -0.7225  1.1646 -0.6993
  501SOL     OW 1501   1.394   3.086   1.280  0.1970  0.2771 -0.5703
  501SOL    HW1 1502   1.493   3.096   1.277  0.0861 -0.4028 -1.0432
  501SOL    HW2 1503   1.360   0.046   1.220 -0.5552 -1.5947 -0.7017
  502SOL     OW 1504   0.106   0.134   2.183 -0.0804  0.0363  0.0765
  502SOL    HW1 1505   0.180   0.206   2.200 -0.4016  3.5414  1.0476
  502SOL    HW2 1506   0.084   0.135   2.084 -1.8792  0.3073 -0.6674
  503SOL     OW 1507   2.281   1.947   2.295  0.1277  0.2838  0.2141
  503SOL    HW1 1508   2.211   1.874   2.310 -1.1494 -2.2177  1.5074
  503SOL    HW2 1509   2.245   2.030   2.337 -4.0202 -2.6088 -0.4583
  504SOL     OW 1510   1.431   0.639   1.853 -0.6348  0.8229  0.1935
  504SOL    HW1 1511   1.379   0.559   1.886 -0.8681 -1.1732  0.4218
  504SOL    HW2 1512   1.525   0.614   1.823 -0.3152  0.2837 -0.5011
  505SOL     OW 1513   2.958   0.955   1.414  0.0355  0.1956  0.1415
  505SOL    HW1 1514   2.890   1.005   1.355  1.7728  0.2732  0.9163
  505SOL    HW2 1515   3.030   0.920   1.350 -2.3937  1.0225 -1.5527
  506SOL     OW 1516   0.587   1.042   2.357 -0.2115  0.1928  0.2417
  506SOL    HW1 1517   0.521   1.066   2.429 -3.0723 -0.3590 -0.3016
  506SOL    HW2 1518   0.645   1.124   2.339 -2.5864  1.2729  0.1628
  507SOL     OW 1519   0.492   2.760   2.407  0.4258 -0.0929  0.2456
  507SOL    HW1 1520   0.562   2.832   2.394 -0.2065  5.0235 -1.0373
  507SOL    HW2 1521   0.494   2.681   2.343 -0.7848 -1.9598  1.4815
  508SOL     OW 1522   1.252   0.960   1.295  0.2442  0.9980 -0.1917
  508SOL    HW1 1523   1.313   0.948   1.376 -1.1134 -0.4516  0.7606
  508SOL    HW2 1524   1.214   0.866   1.274 -1.6872  0.0808 -0.5745
  509SOL     OW 1525   0.994   1.783   1.678 -0.4732  0.0371  0.1239
  509SOL    HW1 1526   0.966   1.866   1.734 -0.2212  1.4613  0.8158
  509SOL    HW2 1527   1.041   1.821   1.595  1.8905  0.2300 -1.4456
  510SOL     OW 1528   2.469   0.621   2.319 -0.1271  0.0894 -0.3205
  510SOL    HW1 1529   2.495   0.550   2.391  0.9289 -1.6684 -0.6923
  510SOL    HW2 1530   2.490   0.717   2.352  0.9576  1.2875 -1.9932
  511SOL     OW 1531   0.669   1.853   1.390  0.5099 -0.0115  0.0079
  511SOL    HW1 1532   0.683   1.936   1.445 -0.0018  1.3725  1.8770
  511SOL    HW2 1533   0.605   1.877   1.315  0.6156 -0.7522 -0.0297
  512SOL     OW 1534   2.445   2.112   0.681 -0.0076  0.0373  0.3272
  512SOL    HW1 1535   2.488   2.176   0.618  2.0971 -1.1357  1.6803
  512SOL    HW2 1536   2.406   2.161   0.758  1.0806  2.6587 -2.7578
  513SOL     OW 1537   2.703   1.351   2.764 -0.0254  0.1524  0.0800
  513SOL    HW1 1538   2.668   1.281   2.694  0.3612 -1.0382 -1.9543
  513SOL    HW2 1539   2.783   1.411   2.725  2.8723  2.8842 -2.2654
  514SOL     OW 1540   0.292   2.048   2.799  0.2635  0.2506 -0.5762
  514SOL    HW1 1541   0.215   2.046   2.867  1.6513  0.7628  1.1568
  514SOL    HW2 1542   0.377   2.035   2.849 -1.3992 -2.6274  0.3843
  515SOL     OW 1543   1.908   1.732   2.119  0.0790 -0.2703  0.9148
  515SOL    HW1 1544   1.969   1.695   2.045  2.5044  0.2966 -3.2227
  515SOL    HW2 1545   1.963   1.761   2.205  2.6441  1.8509  3.4542
  516SOL     OW 1546   2.300   2.268   2.848  0.1525 -0.1900  0.4313
  516SOL    HW1 1547   2.234   2.323   2.895  2.0679  0.1889  0.3914
  516SOL    HW2 1548   2.380   2.250   2.910  0.7048  0.2635  0.5428
  517SOL     OW 1549   1.357   1.097   0.239  0.7429  0.2532 -0.3648
  517SOL    HW1 1550   1.422   1.162   0.285 -0.4057  0.8852 -1.3386
  517SOL    HW2 1551   1.382   1.002   0.254 -0.2536  0.3183 -0.2301
  518SOL     OW 1552   2.596   2.985   2.080  0.6641 -0.5795 -0.2228
  518SOL    HW1 1553   2.606   3.082   2.055  0.7314 -0.5604 -0.5094
  518SOL    HW2 1554   2.545   2.967   2.167 -3.2107 -1.9714  0.0889
  519SOL     OW 1555   1.879   2.270   1.897 -0.0670  0.1452 -0.3873
  519SOL    HW1 1556   1.852   2.241   1.799 -1.5486 -1.0217  1.6272
  519SOL    HW2 1557   1.981   2.250   1.920  2.7986 -0.7918 -0.9877
  520SOL     OW 1558   2.754   2.995   2.679 -0.2235  0.2143  0.2364
  520SOL    HW1 1559   2.736   3.092   2.709 -2.5470  3.5680  0.3185
  520SOL    HW2 1560   2.748   2.928   2.755  0.2334  2.7142 -3.7904
  521SOL     OW 1561   0.382   1.360   2.256  0.5362 -0.0680 -0.3240
  521SOL    HW1 1562   0.324   1.426   2.204  0.7171 -1.8617  1.4047
  521SOL    HW2 1563   0.441   1.403   2.325 -2.2394 -0.5166 -3.0117
  522SOL     OW 1564   0.904   0.246   1.862 -0.1707 -0.2769 -0.3546
  522SOL    HW1 1565   0.939   0.332   1.911  0.0652 -0.7976 -0.9721
  522SOL    HW2 1566   0.834   0.265   1.791  1.6763 -0.7727 -0.0559
  523SOL     OW 1567   0.369   2.636   0.824  0.3490  0.0007 -0.4969
  523SOL    HW1 1568   0.341   2.663   0.732  2.1490 -3.2851  0.7621
  523SOL    HW2 1569   0.340   2.544   0.844  1.1119  3.3654  0.9343
  524SOL     OW 1570   1.511   2.627   0.817  0.3188  0.7358  0.1127
  524SOL    HW1 1571   1.548   2.720   0.803  0.1910 -0.5772 -0.6596
  524SOL    HW2 1572   1.534   2.593   0.914 -2.4991 -0.4982  1.7756
  525SOL     OW 1573   2.220   0.942   1.219 -0.0961 -0.2177 -0.3161
  525SOL    HW1 1574   2.278   0.879   1.276  0.8037  0.9084  0.9486
  525SOL    HW2 1575   2.274   0.990   1.146  0.0622 -0.3361 -3.0417
  526SOL     OW 1576   0.905   2.499   0.913  0.1504 -0.6458 -0.3017
  526SOL    HW1 1577   0.859   2.455   0.832  0.4950  1.5576 -2.4781
  526SOL    HW2 1578   0.873   2.594   0.924  1.9924 -1.3194 -0.0297
  527SOL     OW 1579   2.489   2.109   0.297  0.2724 -0.2134 -0.2007
  527SOL    HW1 1580   2.526   2.019   0.328 -2.1560  0.8595  0.8377
  527SOL    HW2 1581   2.388   2.112   0.310  0.0874 -1.0772  0.9517
  528SOL     OW 1582   2.221   0.743   0.550  0.4320 -0.2649 -0.0159
  528SOL    HW1 1583   2.197   0.644   0.560 -1.4925 -2.1404 -0.1337
  528SOL    HW2 1584   2.149   0.780   0.489  2.9106 -0.2260 -1.2693
  529SOL     OW 1585   1.158   1.351   2.271  0.0783  0.7901  0.9363
  529SOL    HW1 1586   1.129   1.327   2.362  2.3738 -0.4783 -0.7022
  529SOL    HW2 1587   1.167   1.454   2.272 -0.8864 -0.4794  0.6265
  530SOL     OW 1588   2.525   0.785   0.058  0.2573 -0.0987 -0.4142
  530SOL    HW1 1589   2.620   0.779   0.034 -2.9536  1.5840  1.8043
  530SOL    HW2 1590   2.508   0.864   0.124 -0.2631  0.3076  2.2642
  531SOL     OW 1591   1.204   0.869   0.243 -0.2373 -0.4949 -0.1220
  531SOL    HW1 1592   1.194   0.816   0.156 -1.7419  2.1605 -3.0183
  531SOL    HW2 1593   1.223   0.800   0.318 -1.2255  0.3322 -0.3573
  532SOL     OW 1594   2.027   0.102   0.804  0.1811  0.7841 -0.1725
  532SOL    HW1 1595   1.978   0.142   0.725  0.7532  0.2621 -0.6567
  532SOL    HW2 1596   2.101   0.167   0.842  2.1488  2.0313  2.7194
  533SOL     OW 1597   1.380   0.872   2.299 -0.1271 -0.2600 -0.0099
  533SOL    HW1 1598   1.306   0.940   2.272 -0.5661  0.8720 -0.1096
  533SOL    HW2 1599   1.446   0.861   2.218  0.2003  0.8193  1.2778
  534SOL     OW 1600   1.750   2.920   2.797  0.0118 -0.5787 -0.9386
  534SOL    HW1 1601   1.846   2.957   2.804  2.5732  0.8021 -0.4716
  534SOL    HW2 1602   1.748   2.821   2.789 -0.6330  1.9502 -1.4998
  535SOL     OW 1603   0.492   2.916   0.333 -0.0456  0.2768 -0.2202
  535SOL    HW1 1604   0.545   2.989   0.384  1.3925  0.2511 -0.2090
  535SOL    HW2 1605   0.405   2.886   0.385 -1.8489  0.5389  0.2556
  536SOL     OW 1606   0.771   2.738   0.932 -0.0240  0.0670  0.0511
  536SOL    HW1 1607   0.689   2.702   0.986 -2.7268 -0.9760  0.5356
  536SOL    HW2 1608   0.816   2.814   0.984 -3.8324  1.9237  0.1616
  537SOL     OW 1609   1.773   0.850   1.075  0.0636 -0.2195 -0.2839
  537SOL    HW1 1610   1.793   0.782   1.151  1.0165 -0.2618  1.2457
  537SOL    HW2 1611   1.719   0.925   1.123 -2.0527  2.8486  1.0985
  538SOL     OW 1612   2.662   2.553   0.205 -0.6282 -0.0317 -0.0828
  538SOL    HW1 1613   2.753   2.538   0.251  1.5761  0.1883  0.0762
  538SOL    HW2 1614   2.587   2.593   0.267 -0.9187  2.3518  0.6352
  539SOL     OW 1615   2.866   1.750   2.700 -0.3120  0.5452  0.0866
  539SOL    HW1 1616   2.774   1.751   2.669  1.9999  0.8736 -0.1372
  539SOL    HW2 1617   2.915   1.820   2.644  0.7588 -0.4079  0.9385
  540SOL     OW 1618   2.977   2.788   1.522 -0.5952  0.5292 -0.5608
  540SOL    HW1 1619   3.061   2.742   1.488 -1.8305 -2.4103 -0.0986
  540SOL    HW2 1620   2.900   2.724   1.544  1.9406  1.1800 -2.5551
  541SOL     OW 1621   2.520   3.046   1.797 -0.2954 -0.0361 -0.5381
  541SOL    HW1 1622   2.565   0.009   1.851  0.1045  1.6671 -0.4909
  541SOL    HW2 1623   2.421   3.057   1.794  2.1786  0.0841  1.5681
  542SOL     OW 1624   2.839   0.422   2.243  1.1092 -0.3904 -0.1333
  542SOL    HW1 1625   2.902   0.381   2.171  0.2792 -2.9684  0.3573
  542SOL    HW2 1626   2.752   0.380   2.227  2.7390  0.0632  0.7322
  543SOL     OW 1627   1.027   0.574   0.794 -0.3458 -0.1594  0.1599
  543SOL    HW1 1628   1.004   0.658   0.743 -1.5258 -2.1525 -0.3914
  543SOL    HW2 1629   1.100   0.521   0.749 -1.5128 -0.9231  0.4041
  544SOL     OW 1630   2.525   2.374   0.991  0.0191  0.2312 -0.2780
  544SOL    HW1 1631   2.598   2.307   0.964  1.0158  0.7278 -0.4835
  544SOL    HW2 1632   2.517   2.370   1.096  3.9217 -1.1367  1.6089
  545SOL     OW 1633   0.857   1.846   0.283  0.3783  0.0399 -0.1519
  545SOL    HW1 1634   0.908   1.879   0.204 -0.9742  1.1586  2.9641
  545SOL    HW2 1635   0.831   1.750   0.261  0.6718  1.9959 -0.6912
  546SOL     OW 1636   2.392   0.562   1.826 -0.0748 -0.6342 -0.2031
  546SOL    HW1 1637   2.369   0.466   1.837  1.8108  2.8844  0.8587
  546SOL    HW2 1638   2.382   0.618   1.910  0.0256  0.7586  1.8888
  547SOL     OW 1639   0.324   0.191   2.485  0.4701 -0.3011 -0.4440
  547SOL    HW1 1640   0.293   0.199   2.581  0.4788  1.4809 -1.6628
  547SOL    HW2 1641   0.262   0.247   2.423 -1.6284  0.8385  0.0636
  548SOL     OW 1642   2.090   1.750   2.337 -0.1736 -0.1608 -0.3466
  548SOL    HW1 1643   2.118   1.654   2.323 -2.4305  1.3770  1.5158
  548SOL    HW2 1644   2.025   1.748   2.417 -0.4136  0.7603 -0.2866
  549SOL     OW 1645   0.012   1.020   0.626  0.2172  0.0735 -0.7544
  549SOL    HW1 1646   3.107   0.944   0.693  1.9491 -0.9320 -1.1928
  549SOL    HW2 1647   0.087   0.994   0.563 -0.7804 -0.4677  0.9577
  550SOL     OW 1648   1.582   1.465   0.550  0.3250 -0.0245 -0.3633
  550SOL    HW1 1649   1.527   1.384   0.519 -2.3005 -0.2181 -0.2888
  550SOL    HW2 1650   1.677   1.463   0.520 -1.0706  0.6347 -0.9522
  551SOL     OW 1651   1.025   0.172   1.224 -0.0278  0.5015  0.6832
  551SOL    HW1 1652   0.958   0.193   1.151  0.5631 -0.2326 -0.1537
  551SOL    HW2 1653   1.047   0.072   1.233  1.8726 -0.2680  3.8811
  552SOL     OW 1654   2.159   2.380   2.058 -0.4246  0.2519 -0.2039
  552SOL    HW1 1655   2.100   2.461   2.068  2.7100 -1.7485  0.1485
  552SOL    HW2 1656   2.221   2.377   2.140 -2.7584  0.0202  1.1547
  553SOL     OW 1657   3.054   0.005   0.111  1.1066 -0.2342 -0.1736
  553SOL    HW1 1658   0.038   0.035   0.114  0.8103 -0.6243  3.0277
  553SOL    HW2 1659   3.028   3.083   0.020 -0.8504 -1.6644  0.1615
  554SOL     OW 1660   1.360   2.844   1.522 -0.2301 -0.9648  0.7821
  554SOL    HW1 1661   1.317   2.757   1.510 -3.4290  1.6633 -1.9243
  554SOL    HW2 1662   1.298   2.924   1.531  1.3347 -1.0190  2.8644
  555SOL     OW 1663   2.180   2.746   1.647 -0.0120 -0.1058 -0.4011
  555SOL    HW1 1664   2.092   2.700   1.665  0.2210 -2.2329  2.2346
  555SOL    HW2 1665   2.232   2.767   1.732  0.2172  1.7644 -0.1149
  556SOL     OW 1666   0.969   2.846   2.879 -0.3694 -0.0427  0.3226
  556SOL    HW1 1667   1.043   2.811   2.813  2.6895 -0.4307 -0.8998
  556SOL    HW2 1668   0.874   2.812   2.856  0.6536  2.6792 -0.6214
  557SOL     OW 1669   0.234   2.073   2.341 -0.5895 -0.2874  0.4347
  557SOL    HW1 1670   0.171   2.094   2.262 -1.2673 -0.3436  0.1508
  557SOL    HW2 1671   0.325   2.112   2.340 -2.1083 -0.0265 -1.4825
  558SOL     OW 1672   2.423   1.078   2.599 -1.0192  0.6927 -0.1994
  558SOL    HW1 1673   2.503   1.039   2.655  2.5531 -0.1745  1.5405
  558SOL    HW2 1674   2.454   1.171   2.565 -1.8347  0.5109  1.3865
  559SOL     OW 1675   2.330   2.368   2.269  0.8928 -0.0507 -0.2502
  559SOL    HW1 1676   2.433   2.361   2.269  0.5656 -0.0637  0.1153
  559SOL    HW2 1677   2.300   2.306   2.341  0.4974  4.3722 -0.1582
  560SOL     OW 1678   0.157   0.377   2.359 -0.2009 -0.0149 -0.0889
  560SOL    HW1 1679   0.137   0.454   2.296 -1.0052 -1.4500  1.7076
  560SOL    HW2 1680   0.164   0.406   2.453  0.6562  0.9260 -1.8386
  561SOL     OW 1681   0.648   0.605   0.429 -0.6335 -0.1654 -0.3437
  561SOL    HW1 1682   0.742   0.565   0.436  1.2356 -0.2235 -0.4661
  561SOL    HW2 1683   0.580   0.528   0.434  1.6412  1.5494 -0.0912
  562SOL     OW 1684   0.775   1.529   1.799 -0.2914 -0.3286  0.2076
  562SOL    HW1 1685   0.761   1.588   1.720 -0.9939  0.9049  2.0685
  562SOL    HW2 1686   0.718   1.445   1.785  0.1597 -1.2246  0.1908
  563SOL     OW 1687   1.752   2.668   3.094  0.2173  0.0764 -0.0709
  563SOL    HW1 1688   1.650   2.681   3.099  0.3719  1.8269 -1.4237
  563SOL    HW2 1689   1.803   2.753   0.000 -0.0633 -0.4609  0.4604
  564SOL     OW 1690   0.123   2.016   0.592  0.1291 -0.1405 -0.1328
  564SOL    HW1 1691   0.189   2.011   0.512  1.3916  0.9923 -3.6056
  564SOL    HW2 1692   0.173   2.019   0.678 -1.5492 -0.0103 -1.1600
  565SOL     OW 1693   0.279   2.443   2.527  0.0753 -0.6836  0.3449
  565SOL    HW1 1694   0.237   2.534   2.501  2.1899 -0.5297 -3.1037
  565SOL    HW2 1695   0.211   2.375   2.540 -0.7788  1.4490 -1.5478
  566SOL     OW 1696   1.382   2.558   2.413  0.0274 -0.3870  0.3878
  566SOL    HW1 1697   1.457   2.514   2.464 -0.2427  0.6585 -0.9813
  566SOL    HW2 1698   1.374   2.513   2.323 -1.7421 -0.5862  2.5014
  567SOL     OW 1699   1.874   2.096   1.112 -0.7025  0.2822  0.1542
  567SOL    HW1 1700   1.774   2.089   1.126  1.3545 -1.1797  1.3319
  567SOL    HW2 1701   1.899   2.029   1.040 -0.7210  1.6193  0.6824
  568SOL     OW 1702   2.107   0.601   0.170  0.2715 -0.0803 -0.3102
  568SOL    HW1 1703   2.042   0.547   0.221  2.4197 -0.3540 -3.0372
  568SOL    HW2 1704   2.064   0.659   0.100  1.1498 -0.7781 -1.6979
  569SOL     OW 1705   2.721   1.366   2.350 -1.2926  0.7808 -0.4536
  569SOL    HW1 1706   2.742   1.415   2.437  0.7945 -0.4977 -3.3567
  569SOL    HW2 1707   2.769   1.279   2.361  1.0802  2.0024 -1.4459
  570SOL     OW 1708   2.746   2.626   1.593 -0.2731  0.3517 -0.7005
  570SOL    HW1 1709   2.687   2.694   1.640 -2.3222 -1.3386 -0.8694
  570SOL    HW2 1710   2.750   2.538   1.644  2.0637  1.1154 -0.4098
  571SOL     OW 1711   0.219   0.448   1.745 -0.3810  0.1316  0.3330
  571SOL    HW1 1712   0.220   0.448   1.643  1.1853 -0.7693 -0.7158
  571SOL    HW2 1713   0.310   0.424   1.786  0.5722 -1.6813  1.2738
  572SOL     OW 1714   2.961   2.263   0.863  0.3063 -0.0078  0.0712
  572SOL    HW1 1715   3.026   2.339   0.854 -1.4070  1.8287 -0.4199
  572SOL    HW2 1716   3.004   2.173   0.855 -1.1020  0.4006  1.3840
  573SOL     OW 1717   0.843   0.756   0.059 -0.4270  0.2149 -0.1482
  573SOL    HW1 1718   0.868   0.853   0.087 -1.4337  0.3538  3.0357
  573SOL    HW2 1719   0.745   0.755   0.062  0.9845 -0.9957 -0.0675
  574SOL     OW 1720   2.567   2.661   3.079  0.2584  0.2454 -0.6638
  574SOL    HW1 1721   2.608   2.754   3.099  1.2387  0.6689 -0.0421
  574SOL    HW2 1722   2.588   2.609   0.051 -1.2719 -0.1520  1.6724
  575SOL     OW 1723   1.129   1.854   1.441  0.0992 -0.3567  0.1432
  575SOL    HW1 1724   1.105   1.814   1.344 -0.5507 -0.2464  0.0875
  575SOL    HW2 1725   1.196   1.930   1.426  0.0405  0.4706  1.0700
  576SOL     OW 1726   2.791   2.983   1.356 -0.3869 -0.3932 -0.3383
  576SOL    HW1 1727   2.745   3.055   1.410  0.0941 -0.4339 -2.1524
  576SOL    HW2 1728   2.826   2.906   1.411  1.3268 -2.6048 -0.7207
  577SOL     OW 1729   2.267   1.474   1.623 -0.3778  0.6901 -0.6567
  577SOL    HW1 1730   2.308   1.485   1.714  0.9331  1.0723 -2.5969
  577SOL    HW2 1731   2.319   1.539   1.560 -1.2149 -1.8762 -0.2236
  578SOL     OW 1732   1.391   3.077   0.040  0.4373  0.5243  0.1410
  578SOL    HW1 1733   1.481   3.049   3.108  2.0121  1.6260  0.9783
  578SOL    HW2 1734   1.323   0.010   3.093 -0.1110  0.0949 -0.3596
  579SOL     OW 1735   2.694   1.770   2.345  0.2123  0.4842  0.2010
  579SOL    HW1 1736   2.637   1.696   2.306 -1.1545 -2.2492 -0.5589
  579SOL    HW2 1737   2.791   1.768   2.313  0.3937  0.3085 -0.2324
  580SOL     OW 1738   1.459   0.935   1.491  0.1691 -0.1252 -0.2471
  580SOL    HW1 1739   1.431   0.910   1.587 -0.9545  1.3078 -0.3253
  580SOL    HW2 1740   1.559   0.933   1.484 -3.2972 -1.2207  3.0128
  581SOL     OW 1741   0.763   1.666   1.563 -0.0365 -0.3442  0.1311
  581SOL    HW1 1742   0.726   1.732   1.494  0.0166  0.2376  2.3666
  581SOL    HW2 1743   0.856   1.692   1.594 -0.9801 -0.5129  0.9449
  582SOL     OW 1744   2.833   2.866   2.106 -0.1126 -0.3004  0.2679
  582SOL    HW1 1745   2.912   2.921   2.068  0.9723  1.2510 -3.0823
  582SOL    HW2 1746   2.742   2.899   2.084  2.8862  0.1139  1.7647
  583SOL     OW 1747   2.103   1.231   1.599 -0.0497 -0.3972 -0.2105
  583SOL    HW1 1748   2.177   1.175   1.558 -1.1260 -1.5973  4.1173
  583SOL    HW2 1749   2.128   1.326   1.613 -0.0300 -0.1674 -2.5792
  584SOL     OW 1750   1.301   1.857   3.019  0.1013  0.7218  0.7336
  584SOL    HW1 1751   1.375   1.892   3.075 -0.6806 -0.0177  3.6912
  584SOL    HW2 1752   1.335   1.803   2.940 -1.6442  1.9947  1.5965
  585SOL     OW 1753   0.290   2.770   0.431 -0.0480  0.1584  0.0980
  585SOL    HW1 1754   0.258   2.729   0.521 -2.0541 -0.0274  1.6836
  585SOL    HW2 1755   0.222   2.747   0.357 -3.6745  0.6867 -0.3603
  586SOL     OW 1756   1.849   2.378   2.764 -0.2031  0.2777 -0.1324
  586SOL    HW1 1757   1.791   2.370   2.848  1.6803 -2.7580 -0.1285
  586SOL    HW2 1758   1.893   2.298   2.730 -0.2016  2.3800  2.4924
  587SOL     OW 1759   2.767   1.829   0.307  0.1090  0.6339 -0.3780
  587SOL    HW1 1760   2.794   1.899   0.238 -0.5383 -0.9314 -0.7473
  587SOL    HW2 1761   2.666   1.813   0.307  1.3407 -1.3948  0.3904
  588SOL     OW 1762   1.946   0.324   1.156  0.0731 -0.0838 -0.0122
  588SOL    HW1 1763   1.947   0.291   1.058 -0.1703  2.7227  1.2282
  588SOL    HW2 1764   1.957   0.425   1.165 -3.0088  0.8520  1.6407
  589SOL     OW 1765   0.951   0.755   0.579  0.0525 -0.1338  0.2133
  589SOL    HW1 1766   0.859   0.801   0.562 -4.1297  0.9819  3.0888
  589SOL    HW2 1767   0.956   0.661   0.535 -0.1254  1.3678 -0.4687
  590SOL     OW 1768   2.488   2.123   3.060  0.2051 -0.3275  0.0534
  590SOL    HW1 1769   2.530   2.033   3.060 -1.9130  0.6214  2.5072
  590SOL    HW2 1770   2.544   2.194   3.108  2.5668  1.1173 -2.3099
  591SOL     OW 1771   0.108   2.680   1.444  0.2533 -0.6542  0.2831
  591SOL    HW1 1772   0.088   2.610   1.370  0.1931  1.8275  0.1534
  591SOL    HW2 1773   0.186   2.651   1.502 -0.8971  0.3306  0.1298
  592SOL     OW 1774   0.803   1.148   1.304  0.0581 -0.0477 -0.3099
  592SOL    HW1 1775   0.741   1.147   1.383  0.4316  0.6905  0.0167
  592SOL    HW2 1776   0.898   1.138   1.336 -2.4226  0.7823  0.5329
  593SOL     OW 1777   0.820   1.684   1.219 -0.4039  0.4896  0.7061
  593SOL    HW1 1778   0.923   1.678   1.242 -0.7044  2.8532  1.1446
  593SOL    HW2 1779   0.759   1.717   1.296  0.1729 -1.1807  0.1751
  594SOL     OW 1780   0.568   1.944   2.682 -0.6552  0.1695  0.2975
  594SOL    HW1 1781   0.562   1.925   2.581  0.1596  1.5741 -2.0167
  594SOL    HW2 1782   0.520   2.028   2.712 -0.7190 -2.5568 -0.2991
  595SOL     OW 1783   1.277   0.165   1.141 -0.3424 -0.5608 -0.3364
  595SOL    HW1 1784   1.276   0.225   1.057  0.7049  1.5163 -0.3466
  595SOL    HW2 1785   1.181   0.169   1.174  3.2194 -1.0690 -0.9845
  596SOL     OW 1786   0.297   1.374   0.648 -1.0185 -0.2527 -0.4197
  596SOL    HW1 1787   0.210   1.354   0.691  1.8370  0.0807 -1.7422
  596SOL    HW2 1788   0.300   1.315   0.564  0.3005  4.0779  1.5434
  597SOL     OW 1789   0.246   2.332   3.008 -0.2900 -0.2864 -0.4190
  597SOL    HW1 1790   0.174   2.292   2.953 -0.9362  0.6964  1.7560
  597SOL    HW2 1791   0.296   2.266   3.069  0.1554  0.7873 -0.0366
  598SOL     OW 1792   2.376   1.973   2.034  0.6309 -0.2270 -0.3090
  598SOL    HW1 1793   2.328   1.977   2.125 -2.1354  1.5173  2.5369
  598SOL    HW2 1794   2.463   1.919   2.038 -3.3815  3.2803 -1.4459
  599SOL     OW 1795   1.145   0.472   0.332  0.1901 -0.3190  0.6605
  599SOL    HW1 1796   1.093   0.498   0.247 -2.2228 -1.3827  1.2853
  599SOL    HW2 1797   1.238   0.507   0.333  0.7602 -0.4513 -2.0714
  600SOL     OW 1798   0.506   2.651   0.543  0.3725 -0.4181  0.0840
  600SOL    HW1 1799   0.446   2.689   0.464 -1.9893  1.0882 -1.9533
  600SOL    HW2 1800   0.602   2.627   0.511  0.7203 -1.0674  0.0903
  601SOL     OW 1801   0.471   0.983   1.198  0.0749  0.1220 -0.0050
  601SOL    HW1 1802   0.553   1.037   1.169  5.4348  2.1081 -0.0508
  601SOL    HW2 1803   0.440   0.910   1.128 -3.2106 -0.6600 -0.8175
  602SOL     OW 1804   0.530   2.651   1.050  0.6979  0.1708 -0.6453
  602SOL    HW1 1805   0.487   2.711   1.119 -3.1416  1.3592 -1.8112
  602SOL    HW2 1806   0.488   2.662   0.959  0.5041  1.1243  2.3179
  603SOL     OW 1807   1.093   2.799   2.168 -0.3257 -0.6827 -0.3450
  603SOL    HW1 1808   0.996   2.769   2.147 -2.0853 -0.0463 -1.6121
  603SOL    HW2 1809   1.138   2.817   2.081  0.2027 -2.0546  0.8529
  604SOL     OW 1810   0.764   2.717   2.580  0.1042  0.3841 -0.1741
  604SOL    HW1 1811   0.740   2.756   2.669 -0.9573 -0.3605  0.4566
  604SOL    HW2 1812   0.744   2.787   2.509  0.2385  0.9889 -0.4043
  605SOL     OW 1813   1.539   0.795   2.089 -0.3860 -0.1845  0.0472
  605SOL    HW1 1814   1.499   0.744   2.014  0.3480  1.9980  0.3421
  605SOL    HW2 1815   1.623   0.746   2.115 -0.5580 -0.0844  0.9363
  606SOL     OW 1816   2.126   0.147   2.834  0.3403  0.1779  0.1666
  606SOL    HW1 1817   2.089   0.228   2.880 -2.8331  0.1042 -0.7257
  606SOL    HW2 1818   2.165   0.171   2.743  1.1441 -0.0087 -1.6618
  607SOL     OW 1819   0.719   0.644   1.159  0.0510 -0.1961  0.4261
  607SOL    HW1 1820   0.688   0.736   1.123 -0.1635 -0.1597 -1.2723
  607SOL    HW2 1821   0.715   0.643   1.260 -0.2535 -1.7142  0.4493
  608SOL     OW 1822   2.911   2.194   2.214  0.4522 -0.1055  0.2511
  608SOL    HW1 1823   2.929   2.289   2.177  2.5264  4.6464  0.0876
  608SOL    HW2 1824   2.932   2.125   2.141 -0.4839 -1.2129 -3.2504
  609SOL     OW 1825   1.561   0.521   3.099 -0.1157 -0.2622 -0.3399
  609SOL    HW1 1826   1.549   0.497   0.087  1.7424  0.6971  3.0966
  609SOL    HW2 1827   1.531   0.618   3.081  0.7088 -1.4038 -1.8559
  610SOL     OW 1828   0.765   3.016   1.391 -0.2452  0.2466 -0.2887
  610SOL    HW1 1829   0.718   3.009   1.302  0.3403 -2.8659  2.0737
  610SOL    HW2 1830   0.783   3.112   1.412 -3.0733 -2.5966 -1.8591
  611SOL     OW 1831   1.550   0.628   0.389 -0.1623 -1.0427  0.5279
  611SOL    HW1 1832   1.544   0.606   0.489 -1.0368  1.5476  0.2041
  611SOL    HW2 1833   1.520   0.554   0.328 -0.9330 -0.6895  1.6363
  612SOL     OW 1834   1.779   0.566   2.894  0.0666 -0.5205  0.2861
  612SOL    HW1 1835   1.724   0.579   2.805 -3.4018  1.1608  1.2831
  612SOL    HW2 1836   1.715   0.572   2.972  0.2575  0.7841  1.4536
  613SOL     OW 1837   2.363   0.799   0.799  0.5263  0.3191 -0.3474
  613SOL    HW1 1838   2.319   0.780   0.715  1.4174  1.3513  2.9114
  613SOL    HW2 1839   2.465   0.782   0.799 -1.9726 -2.7008  2.2688
  614SOL     OW 1840   2.554   0.235   2.176  0.0990 -0.3867 -0.4841
  614SOL    HW1 1841   2.578   0.199   2.086  1.4739  0.7929 -0.5283
  614SOL    HW2 1842   2.610   0.195   2.251 -1.1337 -2.4292  0.6583
  615SOL     OW 1843   0.792   2.026   1.022 -1.0335  0.4760 -1.0149
  615SOL    HW1 1844   0.822   1.928   1.011 -0.6637  1.3547 -0.2804
  615SOL    HW2 1845   0.694   2.034   1.043  2.7440  2.6040  3.5599
  616SOL     OW 1846   1.578   1.305   2.632  0.5899 -0.3040 -0.2189
  616SOL    HW1 1847   1.557   1.393   2.577 -2.5336  4.0798 -0.9120
  616SOL    HW2 1848   1.678   1.293   2.638 -1.8125  0.3185 -0.3083
  617SOL     OW 1849   1.789   2.944   0.099 -0.2964  0.0278 -0.6870
  617SOL    HW1 1850   1.765   2.952   0.199  1.9049 -2.2558 -0.5428
  617SOL    HW2 1851   1.866   3.006   0.063 -0.9098 -1.2981  0.0161
  618SOL     OW 1852   1.301   1.708   2.489 -0.1221 -0.2880  0.0494
  618SOL    HW1 1853   1.382   1.642   2.492  1.0176 -1.7408  0.5187
  618SOL    HW2 1854   1.213   1.668   2.450 -0.0886 -1.0028  0.1840
  619SOL     OW 1855   2.743   1.288   0.887 -0.0169 -0.5616  0.1463
  619SOL    HW1 1856   2.766   1.387   0.863 -0.4675  2.5173  0.5875
  619SOL    HW2 1857   2.730   1.238   0.800  0.3675 -0.2122 -2.0922
  620SOL     OW 1858   2.175   2.838   2.499  0.7940  0.1086  0.0840
  620SOL    HW1 1859   2.184   2.778   2.415 -0.2019  0.5200 -2.9663
  620SOL    HW2 1860   2.088   2.887   2.509  0.8143 -2.8069  0.5272
  621SOL     OW 1861   3.085   1.442   0.325 -0.2858  0.8490  0.4110
  621SOL    HW1 1862   0.005   1.381   0.249  1.3671 -1.5589 -0.0961
  621SOL    HW2 1863   0.039   1.513   0.354  1.0232  0.5167  0.7007
  622SOL     OW 1864   1.195   2.233   2.630 -0.7132 -0.5249  0.2892
  622SOL    HW1 1865   1.094   2.230   2.607 -0.6495 -0.3384 -0.3420
  622SOL    HW2 1866   1.244   2.162   2.572  2.6545 -0.8312 -2.1598
  623SOL     OW 1867   0.445   2.466   2.869 -0.1554 -0.5335 -0.4106
  623SOL    HW1 1868   0.485   2.399   2.810 -1.2139 -0.3939  1.1278
  623SOL    HW2 1869   0.366   2.426   2.916 -0.6490  2.9153  1.3258
  624SOL     OW 1870   0.714   2.728   2.849  0.1511  0.0455 -0.1946
  624SOL    HW1 1871   0.647   2.652   2.859  0.9420 -2.0194  3.8486
  624SOL    HW2 1872   0.681   2.812   2.903 -0.8723 -0.2813 -0.3520
  625SOL     OW 1873   0.946   2.227   2.611  0.1783  0.3432  0.3965
  625SOL    HW1 1874   0.886   2.308   2.638  1.4241  3.3404 -0.9161
  625SOL    HW2 1875   0.922   2.144   2.671  0.9026  1.7308  0.3905
  626SOL     OW 1876   3.101   0.412   0.165  0.1699  0.0024  0.0476
  626SOL    HW1 1877   3.035   0.339   0.179 -1.6548 -1.0443 -0.6806
  626SOL    HW2 1878   3.082   0.464   0.078 -1.3150 -2.1205 -2.8984
  627SOL     OW 1879   1.935   1.592   3.030 -0.1440 -0.7667 -0.4452
  627SOL    HW1 1880   1.931   1.570   2.930 -1.2892  1.4374 -1.1458
  627SOL    HW2 1881   1.954   1.511   3.084  0.0138  0.5366 -0.4164
  628SOL     OW 1882   1.283   1.263   2.707  0.1535 -0.4771  0.2300
  628SOL    HW1 1883   1.370   1.242   2.760  0.9450  3.3673  0.2061
  628SOL    HW2 1884   1.308   1.284   2.612  0.4717  0.1344  3.6724
  629SOL     OW 1885   0.523   3.101   2.122 -0.1870  0.1625 -0.2483
  629SOL    HW1 1886   0.485   3.067   2.032 -0.5312 -3.0398  0.7701
  629SOL    HW2 1887   0.513   0.089   2.140 -1.1735  1.3019  1.2210
  630SOL     OW 1888   2.375   0.979   1.880 -0.7021 -0.2655 -0.5221
  630SOL    HW1 1889   2.440   1.053   1.909  0.0372  1.0528  2.2386
  630SOL    HW2 1890   2.290   0.965   1.937  1.4310  0.6661  0.8978
  631SOL     OW 1891   1.689   0.159   0.750  0.1443  0.6964  0.0780
  631SOL    HW1 1892   1.711   0.072   0.796  1.0271 -0.3373  3.2066
  631SOL    HW2 1893   1.593   0.188   0.774  0.7438  2.7398  1.2195
  632SOL     OW 1894   3.033   0.818   1.628  0.0978  0.3598 -0.6337
  632SOL    HW1 1895   2.997   0.886   1.564  0.1881  0.0257  4.0567
  632SOL    HW2 1896   3.023   0.719   1.593  1.7551 -3.3012 -0.2864
  633SOL     OW 1897   0.928   0.336   3.080  0.0731 -0.2092 -0.3052
  633SOL    HW1 1898   0.884   0.280   0.038  0.3500  0.2271 -1.0115
  633SOL    HW2 1899   0.905   0.304   2.985  0.5684 -1.3828  0.5039
  634SOL     OW 1900   0.656   2.423   0.008  0.5393  0.2235  0.0484
  634SOL    HW1 1901   0.592   2.457   3.052  2.1541 -0.1741  0.5203
  634SOL    HW2 1902   0.744   2.432   3.071 -0.5279 -0.3117 -2.3491
  635SOL     OW 1903   0.057   1.040   1.075  0.2559  0.3754 -0.2102
  635SOL    HW1 1904   3.091   1.095   1.040 -1.7448  2.7387  1.2311
  635SOL    HW2 1905   0.116   1.014   0.998 -0.8306  0.6289  1.6704
  636SOL     OW 1906   0.264   1.494   0.070  0.0631  0.1586  0.8145
  636SOL    HW1 1907   0.352   1.446   0.051 -1.9086 -0.7460  1.1067
  636SOL    HW2 1908   0.188   1.424   0.059  0.2042  0.0605  1.3007
  637SOL     OW 1909   3.057   2.699   0.487 -0.4291 -0.6911  0.0102
  637SOL    HW1 1910   3.039   2.739   0.397 -2.5480 -3.2624 -0.9858
  637SOL    HW2 1911   3.057   2.775   0.557 -0.6002 -1.5053  1.7162
  638SOL     OW 1912   2.850   2.353   0.572  0.0441 -0.5380 -0.6073
  638SOL    HW1 1913   2.884   2.397   0.658  1.1986  1.6351 -0.1918
  638SOL    HW2 1914   2.755   2.320   0.586  1.0955 -0.7803 -1.4087
  639SOL     OW 1915   1.491   0.769   0.050  0.0985 -0.2441  0.2065
  639SOL    HW1 1916   1.388   0.757   0.048 -0.9383  0.9234 -0.3731
  639SOL    HW2 1917   1.525   0.813   0.136 -0.8556 -1.3089 -0.3033
  640SOL     OW 1918   1.797   2.186   1.654 -0.4020  0.1903 -0.3144
  640SOL    HW1 1919   1.826   2.190   1.556  0.0533  0.2407 -1.5678
  640SOL    HW2 1920   1.697   2.170   1.674  0.4139 -1.1500  2.0502
  641SOL     OW 1921   0.002   0.075   0.756 -0.5852  0.3712 -0.0750
  641SOL    HW1 1922   3.104   0.164   0.714 -1.5333  0.3861  1.4240
  641SOL    HW2 1923   3.027   0.044   0.800 -2.9844  0.0868  1.6401
  642SOL     OW 1924   1.364   0.871   1.727  0.2308  0.7901  0.3292
  642SOL    HW1 1925   1.385   0.784   1.781  0.6257 -3.6745  3.3437
  642SOL    HW2 1926   1.353   0.947   1.794 -1.8184  0.0738 -0.7645
  643SOL     OW 1927   0.795   2.445   2.692 -0.1002 -0.7861  0.5344
  643SOL    HW1 1928   0.835   2.498   2.768  1.9183  0.8644  0.3788
  643SOL    HW2 1929   0.804   2.505   2.607  1.7576  3.0150  1.9063
  644SOL     OW 1930   1.437   2.421   0.121 -0.4643 -0.0725 -0.7741
  644SOL    HW1 1931   1.484   2.506   0.097 -3.4033  1.8502  2.7945
  644SOL    HW2 1932   1.494   2.340   0.099 -0.4663  3.2464 -1.3893
  645SOL     OW 1933   1.557   1.444   1.878 -0.2373 -0.1469  0.0869
  645SOL    HW1 1934   1.649   1.408   1.896 -1.8496 -1.1046  1.3907
  645SOL    HW2 1935   1.525   1.460   1.783 -0.4232  1.3624 -1.7298
  646SOL     OW 1936   0.598   0.148   0.271 -0.9872 -0.2279 -0.4355
  646SOL    HW1 1937   0.578   0.230   0.327 -0.8124 -0.4301 -0.1434
  646SOL    HW2 1938   0.591   0.171   0.166 -0.4389  1.2338 -2.5486
  647SOL     OW 1939   1.065   0.039   0.554 -0.2200  0.0431 -0.5986
  647SOL    HW1 1940   1.005   3.097   0.489  1.2813 -0.4765 -4.0331
  647SOL    HW2 1941   1.054   0.000   0.645 -1.2089 -0.0452  0.2479
  648SOL     OW 1942   2.281   2.709   1.214  0.3350 -0.5790 -0.2249
  648SOL    HW1 1943   2.266   2.807   1.188 -0.5606  0.0651  0.4458
  648SOL    HW2 1944   2.340   2.671   1.142  1.7885  0.1502  0.7136
  649SOL     OW 1945   0.777   2.033   3.013  0.1061  0.5057 -0.0252
  649SOL    HW1 1946   0.865   2.095   3.019  1.4168  1.2984  0.3251
  649SOL    HW2 1947   0.809   1.936   3.027  2.4552 -0.8423  0.4510
  650SOL     OW 1948   2.183   1.850   1.899  0.1745  0.8489  0.1046
  650SOL    HW1 1949   2.258   1.897   1.953 -1.5227  1.9762 -0.1924
  650SOL    HW2 1950   2.212   1.850   1.801 -2.9508  1.2117 -1.1023
  651SOL     OW 1951   0.021   2.893   2.609 -0.2772  0.2580 -0.1788
  651SOL    HW1 1952   0.102   2.925   2.563 -2.0575 -2.8223  1.2162
  651SOL    HW2 1953   3.071   2.972   2.621  0.2476 -2.1532 -0.2479
  652SOL     OW 1954   2.791   1.827   0.590  0.0556 -0.2219 -0.8475
  652SOL    HW1 1955   2.694   1.856   0.603  0.1921 -0.4335 -0.3506
  652SOL    HW2 1956   2.813   1.847   0.496 -1.6560 -2.7809  1.4341
  653SOL     OW 1957   2.669   0.729   1.357  0.1803  0.6370 -0.2773
  653SOL    HW1 1958   2.626   0.818   1.381  1.2055 -1.7260 -0.9330
  653SOL    HW2 1959   2.743   0.743   1.294  1.6212  1.0923  2.9547
  654SOL     OW 1960   0.869   0.116   0.127 -0.3311 -0.0534  0.0389
  654SOL    HW1 1961   0.892   0.056   0.046 -0.0684 -0.3500 -0.7582
  654SOL    HW2 1962   0.785   0.073   0.164 -1.2596  2.3845 -3.0127
  655SOL     OW 1963   0.647   2.980   1.138  0.2370 -0.1729  0.1347
  655SOL    HW1 1964   0.633   3.041   1.057  2.1211  0.3481 -0.6859
  655SOL    HW2 1965   0.742   2.939   1.133  2.7299  0.7925  0.4851
  656SOL     OW 1966   0.119   2.770   2.284  0.3609  0.0278 -0.5908
  656SOL    HW1 1967   0.164   2.841   2.337 -0.8756 -0.5433 -1.0644
  656SOL    HW2 1968   0.068   2.695   2.336 -0.1853 -0.4687 -1.7980
  657SOL     OW 1969   2.348   0.562   0.042  0.0747  0.0304  0.8350
  657SOL    HW1 1970   2.269   0.538   0.098  1.5539 -0.8911 -1.9315
  657SOL    HW2 1971   2.380   0.661   0.045  0.8482  2.0419 -0.6350
  658SOL     OW 1972   2.012   1.694   0.998 -0.1174 -1.1545  0.4325
  658SOL    HW1 1973   2.033   1.681   0.896 -3.4685  0.5767 -4.7792
  658SOL    HW2 1974   2.095   1.713   1.050 -0.7721  1.8921 -3.5807
  659SOL     OW 1975   2.638   2.262   2.694  0.0817  0.4319 -0.3047
  659SOL    HW1 1976   2.599   2.324   2.761 -1.6317 -1.5266 -3.7482
  659SOL    HW2 1977   2.668   2.310   2.611 -3.0222  1.1747  0.1497
  660SOL     OW 1978   1.120   0.158   0.182  0.2209  0.1760 -0.1366
  660SOL    HW1 1979   1.162   0.242   0.149 -1.9492 -1.5175  3.7824
  660SOL    HW2 1980   1.022   0.139   0.154  1.6922  4.1083 -2.0806
  661SOL     OW 1981   2.449   0.074   0.437  0.4897 -0.1340 -0.5165
  661SOL    HW1 1982   2.357   0.115   0.449  0.7087 -1.8194  3.7538
  661SOL    HW2 1983   2.490   0.089   0.341  0.8161 -1.8414 -2.0874
  662SOL     OW 1984   0.631   0.188   1.240 -0.0117  0.0341 -0.1786
  662SOL    HW1 1985   0.690   0.190   1.158  0.9328 -0.0478  1.0834
  662SOL    HW2 1986   0.539   0.151   1.215 -0.1648 -2.0094 -1.3755
  663SOL     OW 1987   1.558   2.800   2.358 -0.2394  0.2547 -0.2740
  663SOL    HW1 1988   1.568   2.702   2.374  1.5420  0.2851 -0.1507
  663SOL    HW2 1989   1.566   2.852   2.448  0.2335 -0.2108 -1.2604
  664SOL     OW 1990   0.908   2.308   1.568  0.5043  0.1893 -0.0143
  664SOL    HW1 1991   0.831   2.345   1.623 -2.7004  2.2583 -1.0864
  664SOL    HW2 1992   0.885   2.321   1.469  0.8766  0.2185  0.0049
  665SOL     OW 1993   0.807   2.448   2.017 -0.0762  0.4402  0.4598
  665SOL    HW1 1994   0.759   2.365   1.993  1.6089  0.4658  3.6957
  665SOL    HW2 1995   0.876   2.483   1.952 -2.2674  1.6631 -1.3938
  666SOL     OW 1996   0.105   2.689   2.731 -0.2291 -0.5486  0.7584
  666SOL    HW1 1997   0.060   2.775   2.688 -0.3501  2.9522  0.1891
  666SOL    HW2 1998   0.204   2.689   2.716 -0.5989  0.0284  0.4640
  667SOL     OW 1999   1.574   1.548   1.554  0.2815 -0.2548 -0.1527
  667SOL    HW1 2000   1.480   1.570   1.522  0.2468 -1.7597  2.8030
  667SOL    HW2 2001   1.638   1.576   1.482 -1.9750 -0.5751 -0.0938
  668SOL     OW 2002   1.260   0.395   1.930  0.4143  0.1846  0.1146
  668SOL    HW1 2003   1.307   0.315   1.889  0.6328  3.1867  0.2521
  668SOL    HW2 2004   1.165   0.375   1.956  4.0102  1.4350 -2.2263
  669SOL     OW 2005   2.532   2.401   1.256 -0.7202 -0.2683  0.3858
  669SOL    HW1 2006   2.438   2.407   1.291  2.0207  1.2245  2.2677
  669SOL    HW2 2007   2.583   2.486   1.278 -0.0805 -4.1862  1.7601
  670SOL     OW 2008   1.631   2.200   0.070 -0.3162 -0.0260  0.4634
  670SOL    HW1 2009   1.596   2.113   0.107 -0.6673 -0.0879 -3.5531
  670SOL    HW2 2010   1.725   2.223   0.106 -2.5409  1.4474 -1.0407
  671SOL     OW 2011   1.283   1.177   0.692  0.4899 -0.1333  0.1434
  671SOL    HW1 2012   1.350   1.144   0.764 -1.2521  0.3703  0.7323
  671SOL    HW2 2013   1.243   1.094   0.645 -0.5785  0.6138  0.2236
  672SOL     OW 2014   3.011   1.234   2.640  0.6332  0.2996 -0.1483
  672SOL    HW1 2015   3.032   1.332   2.649 -1.0794  3.7536 -1.0580
  672SOL    HW2 2016   3.092   1.185   2.670 -1.0353  0.2134  1.0983
  673SOL     OW 2017   3.084   2.001   1.437 -0.1966 -0.4216  0.2908
  673SOL    HW1 2018   3.016   2.019   1.508  1.1390 -0.0733  0.2999
  673SOL    HW2 2019   0.062   1.974   1.476 -1.0304  1.5766 -2.9476
  674SOL     OW 2020   0.502   2.564   2.220  0.5583  0.0775  0.3074
  674SOL    HW1 2021   0.414   2.514   2.221  0.2426  0.2144  0.7688
  674SOL    HW2 2022   0.529   2.585   2.126 -2.0135 -0.6015  2.4755
  675SOL     OW 2023   0.863   0.998   1.737  0.1175 -0.0138  0.3068
  675SOL    HW1 2024   0.820   1.080   1.692 -1.9370 -0.2630 -0.5188
  675SOL    HW2 2025   0.856   1.004   1.837  1.5093  2.5548 -2.3651
  676SOL     OW 2026   2.473   0.558   0.993 -0.6359 -0.8274  0.4618
  676SOL    HW1 2027   2.525   0.647   0.988 -1.5608  0.4529  1.4680
  676SOL    HW2 2028   2.422   0.549   1.084 -1.6627  2.7600  0.6180
  677SOL     OW 2029   2.395   1.495   3.071  0.3997  0.2434  0.2119
  677SOL    HW1 2030   2.347   1.433   3.004 -2.6748 -1.1127 -0.3383
  677SOL    HW2 2031   2.486   1.453   3.093  0.2213  0.7665 -0.8463
  678SOL     OW 2032   2.860   0.735   1.154 -0.0497  0.0294 -0.1926
  678SOL    HW1 2033   2.866   0.652   1.097 -3.1248  0.5763  2.5528
  678SOL    HW2 2034   2.956   0.767   1.172  0.7425 -2.1918  0.7367
  679SOL     OW 2035   2.322   0.447   0.349 -0.4752 -0.8100 -0.7409
  679SOL    HW1 2036   2.409   0.503   0.354  0.0742 -0.1378 -0.1462
  679SOL    HW2 2037   2.274   0.437   0.440  0.6773 -0.0240 -0.6578
  680SOL     OW 2038   0.217   1.816   2.024  0.4183  0.1979  0.1517
  680SOL    HW1 2039   0.315   1.819   1.997  0.4184  3.1654 -1.6171
  680SOL    HW2 2040   0.204   1.810   2.126 -0.1070  0.0283  2.1084
  681SOL     OW 2041   2.254   2.140   1.155  0.0952 -0.3578  0.2363
  681SOL    HW1 2042   2.169   2.176   1.191 -0.4634 -2.0390 -1.1360
  681SOL    HW2 2043   2.276   2.182   1.064 -0.3047 -0.7825  0.7684
  682SOL     OW 2044   2.969   1.929   2.517  0.0915  0.2372 -0.4090
  682SOL    HW1 2045   2.962   1.899   2.421  0.4387  1.9778  1.6180
  682SOL    HW2 2046   3.066   1.915   2.551  0.4258 -4.3566 -0.5800
  683SOL     OW 2047   0.066   2.287   1.545 -0.3457 -0.5910 -0.2619
  683SOL    HW1 2048   0.069   2.357   1.472  2.3027 -1.1161  2.2621
  683SOL    HW2 2049   3.085   2.260   1.564  4.7619  0.9038 -0.7278
  684SOL     OW 2050   2.897   1.128   2.386  0.0582 -0.4564 -0.0673
  684SOL    HW1 2051   2.978   1.081   2.337 -1.0617  0.6258  1.0468
  684SOL    HW2 2052   2.940   1.160   2.472  2.1131 -0.0849  1.0891
  685SOL     OW 2053   1.451   1.243   0.461 -0.1072  0.2931  0.6992
  685SOL    HW1 2054   1.365   1.285   0.503  0.0938 -2.0508  1.7461
  685SOL    HW2 2055   1.482   1.156   0.507 -0.0402 -3.3560 -1.1582
  686SOL     OW 2056   0.445   0.150   0.701  0.0215  0.2365 -0.1215
  686SOL    HW1 2057   0.417   0.053   0.697  1.4599  1.3605 -1.2715
  686SOL    HW2 2058   0.371   0.218   0.671 -1.6048 -0.2131 -0.3020
  687SOL     OW 2059   1.530   1.569   2.518  0.3355  0.5803  0.2532
  687SOL    HW1 2060   1.606   1.606   2.572  1.3324 -1.7614  1.3682
  687SOL    HW2 2061   1.560   1.555   2.419  1.6645  0.3382 -1.0738
  688SOL     OW 2062   1.566   1.284   1.623 -0.5726 -0.2541  0.0859
  688SOL    HW1 2063   1.564   1.384   1.599 -0.4942  0.3356 -2.2722
  688SOL    HW2 2064   1.475   1.247   1.657  0.0641 -0.9631 -0.2801
  689SOL     OW 2065   2.201   0.267   1.276 -0.2780 -0.2208 -0.1514
  689SOL    HW1 2066   2.117   0.295   1.223 -1.6369 -1.5185 -1.8767
  689SOL    HW2 2067   2.280   0.255   1.214  0.4228  1.2077 -1.7867
  690SOL     OW 2068   0.279   1.412   1.159  0.1079  0.1842  0.0748
  690SOL    HW1 2069   0.210   1.429   1.087  0.3359  1.2684  0.4734
  690SOL    HW2 2070   0.277   1.314   1.187  0.8288 -0.8782  2.5225
  691SOL     OW 2071   0.332   2.128   1.316  0.3884 -0.8452  0.4053
  691SOL    HW1 2072   0.233   2.153   1.324  0.2153  1.3323  0.9187
  691SOL    HW2 2073   0.373   2.183   1.238  0.8170 -2.1483 -0.6398
  692SOL     OW 2074   2.228   0.644   1.612  0.1034  0.3365 -0.0767
  692SOL    HW1 2075   2.179   0.557   1.596  1.5722  2.8916  0.1362
  692SOL    HW2 2076   2.295   0.631   1.688  1.5207  1.9381 -1.7241
  693SOL     OW 2077   0.610   1.663   2.262  0.6242  0.1139  0.3274
  693SOL    HW1 2078   0.694   1.628   2.212  0.8788 -1.0592 -1.6883
  693SOL    HW2 2079   0.575   1.588   2.319 -0.2152  2.7328  3.8227
  694SOL     OW 2080   1.522   1.246   1.255 -0.3854  0.4164  0.1560
  694SOL    HW1 2081   1.595   1.230   1.323  3.4985 -0.2451 -0.9902
  694SOL    HW2 2082   1.441   1.271   1.308  0.4282 -1.5853  2.6559
  695SOL     OW 2083   0.940   1.491   0.646 -0.2190  0.0904  0.1184
  695SOL    HW1 2084   0.937   1.563   0.722 -2.3745  0.2268  1.3186
  695SOL    HW2 2085   0.861   1.500   0.579 -1.4961  1.4630  1.0067
  696SOL     OW 2086   0.895   2.801   0.173 -1.1658  0.0374 -0.3012
  696SOL    HW1 2087   0.956   2.726   0.143 -0.8793 -0.3359 -1.0691
  696SOL    HW2 2088   0.802   2.792   0.126 -0.7894  0.7911 -2.5845
  697SOL     OW 2089   1.441   0.601   1.535 -0.1652 -0.3422 -0.0523
  697SOL    HW1 2090   1.478   0.628   1.627  1.6425  1.4479 -0.2670
  697SOL    HW2 2091   1.345   0.571   1.540 -3.0784 -0.5573  1.1315
  698SOL     OW 2092   1.651   1.707   2.199  0.3856  0.2548 -0.8202
  698SOL    HW1 2093   1.744   1.729   2.164  0.5662 -0.5745  0.0451
  698SOL    HW2 2094   1.588   1.706   2.121  1.2384 -0.0769  1.9118
  699SOL     OW 2095   2.584   0.415   1.666  0.3759 -0.6278  0.4221
  699SOL    HW1 2096   2.506   0.472   1.702  0.0194  0.9680  0.7329
  699SOL    HW2 2097   2.653   0.408   1.738  0.3924 -0.8353 -1.9395
  700SOL     OW 2098   1.371   2.201   0.541 -0.2192  1.1323  0.0062
  700SOL    HW1 2099   1.448   2.174   0.478  0.0300 -1.1197  1.6275
  700SOL    HW2 2100   1.299   2.129   0.548  1.1889 -0.7340  1.2194
  701SOL     OW 2101   2.481   2.973   2.368 -0.0430  0.1206 -0.4730
  701SOL    HW1 2102   2.454   2.877   2.356 -2.1085 -2.3315 -0.3412
  701SOL    HW2 2103   2.444   3.016   2.451 -0.1220  0.8537 -2.4447
  702SOL     OW 2104   0.902   2.982   0.429 -0.7520  0.4684 -0.5043
  702SOL    HW1 2105   0.809   3.013   0.441  0.8580 -0.8540 -2.4921
  702SOL    HW2 2106   0.902   2.892   0.377  0.1657 -4.8333 -1.7074
  703SOL     OW 2107   2.294   0.308   2.121  0.4049  0.0893  0.0843
  703SOL    HW1 2108   2.246   0.313   2.215  3.8320 -0.2454  2.6418
  703SOL    HW2 2109   2.397   0.294   2.131  0.5430 -1.0232 -0.5959
  704SOL     OW 2110   2.617   2.279   0.124 -0.1965  0.0277  0.4558
  704SOL    HW1 2111   2.560   2.216   0.182 -0.7469 -0.4421  1.4768
  704SOL    HW2 2112   2.619   2.373   0.154 -1.1588 -2.3091 -2.7376
  705SOL     OW 2113   2.480   2.654   2.370  0.1710 -0.5829  0.1483
  705SOL    HW1 2114   2.481   2.614   2.461  1.1846 -0.1906  0.4825
  705SOL    HW2 2115   2.558   2.625   2.316 -1.6790 -0.7463 -0.4302
  706SOL     OW 2116   2.435   0.182   1.152 -0.3769  0.4614 -0.1923
  706SOL    HW1 2117   2.497   0.259   1.177  1.0903 -3.0204 -0.9579
  706SOL    HW2 2118   2.496   0.102   1.123  0.9154  0.7081 -0.9920
  707SOL     OW 2119   0.818   0.150   2.414 -0.1532 -0.2612  0.6682
  707SOL    HW1 2120   0.852   0.091   2.488  0.4413 -0.6184 -1.9520
  707SOL    HW2 2121   0.731   0.185   2.447  0.1426 -1.9618  0.7711
  708SOL     OW 2122   0.067   2.253   1.831 -0.0136 -0.5294  0.2536
  708SOL    HW1 2123   0.068   2.262   1.726 -0.6785 -0.9505  2.0782
  708SOL    HW2 2124   0.060   2.159   1.865 -1.4620 -1.0196  0.7700
  709SOL     OW 2125   1.354   0.087   1.613 -0.1321 -0.1406  0.2727
  709SOL    HW1 2126   1.330   0.146   1.530 -2.2316  0.5515 -1.3682
  709SOL    HW2 2127   1.441   0.042   1.606 -1.4950 -1.2309 -1.2873
  710SOL     OW 2128   1.450   2.830   2.890  0.0137  0.1079  0.0370
  710SOL    HW1 2129   1.500   2.904   2.939 -2.9276 -0.0478 -0.2745
  710SOL    HW2 2130   1.383   2.869   2.827  1.5483  1.1365 -0.4841
  711SOL     OW 2131   1.276   2.170   2.890  0.5607  0.2012  0.1281
  711SOL    HW1 2132   1.359   2.166   2.940 -2.2955  2.0528  0.3206
  711SOL    HW2 2133   1.278   2.212   2.801  1.6352 -0.5977  3.6969
  712SOL     OW 2134   0.990   2.182   3.061 -0.1556 -0.5395  0.3439
  712SOL    HW1 2135   1.087   2.211   3.038 -0.8144 -1.5474  0.3313
  712SOL    HW2 2136   0.965   2.185   0.045  0.9053  1.3777 -1.7515
  713SOL     OW 2137   2.094   1.204   2.072 -0.1613 -0.1348  0.9008
  713SOL    HW1 2138   2.147   1.266   2.010  1.5255  0.0859 -1.1555
  713SOL    HW2 2139   2.149   1.122   2.092 -1.5594  0.5858  0.2470
  714SOL     OW 2140   0.808   1.327   2.101 -0.3068 -0.6636  0.2775
  714SOL    HW1 2141   0.727   1.313   2.035 -2.3593 -3.8861 -1.4539
  714SOL    HW2 2142   0.874   1.247   2.082  1.0146 -1.7607  1.0707
  715SOL     OW 2143   2.754   0.631   0.239 -0.0798 -0.4709 -0.2335
  715SOL    HW1 2144   2.773   0.551   0.304  0.2841  1.6919  2.6505
  715SOL    HW2 2145   2.671   0.681   0.274 -2.5255 -1.1105 -0.4157
  716SOL     OW 2146   2.685   2.390   1.690  0.2378 -0.8632  0.0661
  716SOL    HW1 2147   2.612   2.409   1.626 -1.4880 -1.3750  1.2403
  716SOL    HW2 2148   2.643   2.350   1.770  0.4072  2.6511 -0.1549
  717SOL     OW 2149   2.370   1.039   0.909 -0.7181 -0.7618 -0.4671
  717SOL    HW1 2150   2.292   1.093   0.873 -2.6116 -2.0000 -1.2658
  717SOL    HW2 2151   2.370   0.943   0.877 -0.9419  1.8626  1.4590
  718SOL     OW 2152   1.276   1.654   1.546 -0.4278 -0.4089 -0.2466
  718SOL    HW1 2153   1.219   1.615   1.616  2.5623  1.7418 -1.1352
  718SOL    HW2 2154   1.231   1.730   1.499  1.4539  1.9612  2.0570
  719SOL     OW 2155   2.964   0.108   2.847 -0.6984  0.2885  0.0729
  719SOL    HW1 2156   2.966   0.090   2.744 -1.4867 -0.4455 -1.5711
  719SOL    HW2 2157   2.968   0.022   2.900  0.5852  0.8578 -1.8297
  720SOL     OW 2158   0.826   0.467   0.967  0.4201  0.4392  0.2517
  720SOL    HW1 2159   0.899   0.505   0.906 -0.9732 -1.4632  0.3369
  720SOL    HW2 2160   0.785   0.535   1.028  2.0383 -2.7350 -0.5863
  721SOL     OW 2161   2.831   0.994   0.368  0.1635  0.5736 -0.3898
  721SOL    HW1 2162   2.804   1.051   0.291 -1.1707  1.7761 -0.1265
  721SOL    HW2 2163   2.745   0.970   0.422 -1.4531 -0.7875  0.1216
  722SOL     OW 2164   0.495   2.246   2.469  0.3466  0.7113  0.1950
  722SOL    HW1 2165   0.538   2.263   2.379 -0.9436  1.3412  0.0526
  722SOL    HW2 2166   0.422   2.315   2.492  1.2758  1.9403 -2.1663
  723SOL     OW 2167   1.677   3.068   0.973  0.3951  0.4195 -0.1698
  723SOL    HW1 2168   1.627   0.037   1.009 -2.1414 -1.1550 -0.7472
  723SOL    HW2 2169   1.754   3.040   1.035  1.9270  1.7998  0.3502
  724SOL     OW 2170   1.570   1.970   1.863 -0.2884  0.0199 -0.2293
  724SOL    HW1 2171   1.501   2.024   1.906  1.3228 -0.8117 -1.3473
  724SOL    HW2 2172   1.549   1.873   1.885  0.8635 -0.1947  2.3292
  725SOL     OW 2173   1.047   2.574   1.243  0.8871  0.4447 -0.3661
  725SOL    HW1 2174   1.027   2.635   1.322 -0.1549 -0.3079  0.7267
  725SOL    HW2 2175   1.061   2.622   1.155  0.7067 -0.4827  0.9518
  726SOL     OW 2176   2.083   2.777   0.327  0.2899 -0.0110  0.1017
  726SOL    HW1 2177   2.044   2.769   0.231 -1.7787  0.8675 -0.0314
  726SOL    HW2 2178   2.059   2.689   0.385  1.1426 -4.1782  3.5859
  727SOL     OW 2179   1.571   1.799   1.061 -0.1712  0.3433 -0.2847
  727SOL    HW1 2180   1.662   1.750   1.090 -0.6873 -1.4737  0.1508
  727SOL    HW2 2181   1.495   1.747   1.099  3.0909 -0.8098 -0.2438
  728SOL     OW 2182   2.030   2.615   2.098 -0.3654 -0.0808 -0.3065
  728SOL    HW1 2183   1.949   2.672   2.125  0.2192  5.6746  2.2407
  728SOL    HW2 2184   2.112   2.649   2.145 -1.4408  1.0824 -0.6992
  729SOL     OW 2185   1.893   2.538   1.417  0.9902  0.0919  0.3106
  729SOL    HW1 2186   1.835   2.473   1.368  2.7432  0.6765  0.6294
  729SOL    HW2 2187   1.949   2.490   1.484 -3.3173 -0.0190 -3.4370
  730SOL     OW 2188   1.811   0.889   2.576  0.5395  0.3445  0.2962
  730SOL    HW1 2189   1.812   0.805   2.513  1.2596 -4.6478 -2.3851
  730SOL    HW2 2190   1.731   0.950   2.563 -0.5382 -1.0714  0.7070
  731SOL     OW 2191   0.901   2.888   1.102  0.4686  0.0337  0.4359
  731SOL    HW1 2192   0.907   2.941   1.184  1.5841 -1.6566 -0.2825
  731SOL    HW2 2193   0.997   2.850   1.079 -1.2377 -0.6314 -0.5082
  732SOL     OW 2194   1.077   3.006   0.798  0.1080  0.2803 -0.0756
  732SOL    HW1 2195   1.073   2.914   0.746  1.3869 -2.4056 -1.9930
  732SOL    HW2 2196   1.146   2.994   0.872  1.2405  0.2172  1.9468
  733SOL     OW 2197   1.194   1.402   0.581  0.2173 -0.4068 -0.2681
  733SOL    HW1 2198   1.096   1.428   0.595  0.0024  0.7173  2.1130
  733SOL    HW2 2199   1.223   1.306   0.613  1.8364 -0.6696 -0.9746
  734SOL     OW 2200   2.561   2.039   2.576 -0.2244 -0.0789  0.4674
  734SOL    HW1 2201   2.622   2.112   2.610  1.4511  1.7843 -0.0571
  734SOL    HW2 2202   2.550   2.050   2.475 -0.5925 -1.0130  1.7965
  735SOL     OW 2203   0.839   0.175   1.026  0.7368 -0.1176  0.2290
  735SOL    HW1 2204   0.847   0.108   0.953  3.1318  0.4952 -3.2674
  735SOL    HW2 2205   0.841   0.269   0.988  0.9514 -0.2884  0.0426
  736SOL     OW 2206   1.607   2.188   2.737  0.3208  0.2454  0.3568
  736SOL    HW1 2207   1.589   2.279   2.781  1.2250 -2.0497 -0.9005
  736SOL    HW2 2208   1.662   2.119   2.790  0.2408 -1.5832  1.6101
  737SOL     OW 2209   0.842   2.371   1.302  0.3869  0.1791 -0.3566
  737SOL    HW1 2210   0.765   2.366   1.237  1.0637  1.0053 -1.1753
  737SOL    HW2 2211   0.911   2.438   1.263 -0.6274  0.3708 -0.6685
  738SOL     OW 2212   1.580   2.970   2.576 -0.5246 -0.1035  0.5963
  738SOL    HW1 2213   1.638   3.032   2.519 -1.0360 -0.1347  3.7192
  738SOL    HW2 2214   1.615   2.947   2.671  0.0524 -0.2146 -0.9870
  739SOL     OW 2215   1.353   2.402   2.185 -0.3322 -0.2631 -0.0244
  739SOL    HW1 2216   1.266   2.344   2.185 -0.3036  1.0415 -1.1257
  739SOL    HW2 2217   1.433   2.338   2.190  1.0158  2.0926 -1.8103
  740SOL     OW 2218   1.409   2.411   1.404  0.1930 -0.0490  0.0491
  740SOL    HW1 2219   1.380   2.388   1.314  3.1219  0.2867  2.0580
  740SOL    HW2 2220   1.336   2.478   1.443  1.4827  0.3362  0.9646
  741SOL     OW 2221   2.702   1.168   0.196 -0.3661 -0.2823  0.1985
  741SOL    HW1 2222   2.692   1.247   0.259 -1.8799  0.7436 -1.0303
  741SOL    HW2 2223   2.616   1.111   0.200 -0.9348  2.0340  1.6143
  742SOL     OW 2224   0.602   1.895   2.425  0.3356 -0.6327  0.2615
  742SOL    HW1 2225   0.619   1.984   2.372  0.1046  2.1787  0.1258
  742SOL    HW2 2226   0.579   1.822   2.360  0.2783  1.5419 -0.9051
  743SOL     OW 2227   0.416   1.055   2.556 -0.5627 -0.4221 -0.1580
  743SOL    HW1 2228   0.481   1.030   2.632  0.0273 -0.5517  2.0306
  743SOL    HW2 2229   0.323   1.069   2.592 -0.3266 -0.9399  0.8990
  744SOL     OW 2230   2.404   2.632   0.964 -1.0277  0.5578 -0.2308
  744SOL    HW1 2231   2.424   2.534   0.992 -0.8255  0.2390 -0.6707
  744SOL    HW2 2232   2.311   2.638   0.936  2.9185 -0.3090  2.2027
  745SOL     OW 2233   2.140   1.801   1.368  0.2167  0.3375 -0.2973
  745SOL    HW1 2234   2.142   1.834   1.270  0.7819 -0.9693 -2.1977
  745SOL    HW2 2235   2.084   1.863   1.423  1.1659 -3.8861 -1.1983
  746SOL     OW 2236   2.126   1.178   0.594 -0.2893 -0.4934  0.2798
  746SOL    HW1 2237   2.032   1.160   0.561  0.1031  0.2709 -0.2271
  746SOL    HW2 2238   2.134   1.162   0.694 -1.1736 -1.5471 -1.7223
  747SOL     OW 2239   1.712   2.048   0.742 -0.2702 -0.2966 -0.0561
  747SOL    HW1 2240   1.644   1.978   0.759 -0.9173  0.4359  0.7818
  747SOL    HW2 2241   1.794   2.025   0.803  0.5299 -0.5574  1.9769
  748SOL     OW 2242   0.724   1.813   0.557 -0.6448 -0.0465 -0.0232
  748SOL    HW1 2243   0.767   1.877   0.490 -1.9947 -0.2438 -1.5509
  748SOL    HW2 2244   0.687   1.864   0.638 -0.8622 -0.5301  3.1520
  749SOL     OW 2245   3.055   2.975   1.955  0.1496 -0.4273  0.2850
  749SOL    HW1 2246   3.102   3.069   1.957  2.0431 -0.2401  2.9279
  749SOL    HW2 2247   0.010   2.901   1.970  3.1075 -2.2517  1.4109
  750SOL     OW 2248   1.603   0.321   1.380  0.1784  0.5795 -0.1613
  750SOL    HW1 2249   1.690   0.274   1.384 -1.5279  2.0865  1.0382
  750SOL    HW2 2250   1.619   0.417   1.410 -1.1325  1.5084  1.3357
  751SOL     OW 2251   2.031   2.723   0.019 -0.3100 -0.5654 -0.0313
  751SOL    HW1 2252   1.960   2.672   3.081  0.0432  1.2913  1.7509
  751SOL    HW2 2253   2.117   2.729   3.080 -0.2163  0.9503  1.6234
  752SOL     OW 2254   2.094   1.960   0.092 -0.1615  0.0095 -0.9118
  752SOL    HW1 2255   1.997   2.002   0.095 -2.0038  0.8864 -1.9581
  752SOL    HW2 2256   2.109   1.917   0.003 -2.4415  0.9957  1.5811
  753SOL     OW 2257   2.016   1.082   2.535  0.2145 -0.2279  0.0882
  753SOL    HW1 2258   1.960   0.999   2.522 -0.2145 -1.2279 -0.7823
  753SOL    HW2 2259   2.081   1.081   2.454  0.0202 -0.6137 -0.4443
  754SOL     OW 2260   2.937   2.594   1.255  0.2309  0.0030  0.3040
  754SOL    HW1 2261   3.015   2.531   1.254 -1.3880  0.0607  1.6047
  754SOL    HW2 2262   2.967   2.689   1.233  0.7511  0.0012 -2.9639
  755SOL     OW 2263   2.156   0.644   0.920 -0.9047  0.2860  1.0728
  755SOL    HW1 2264   2.250   0.658   0.880  2.6129  1.9019  2.1437
  755SOL    HW2 2265   2.115   0.734   0.933 -2.1733  0.3595  0.7363
  756SOL     OW 2266   1.150   1.299   2.943  0.1676  0.1772 -0.4117
  756SOL    HW1 2267   1.218   1.348   2.999 -0.5744 -0.2658  0.7103
  756SOL    HW2 2268   1.188   1.282   2.853  0.3338  0.9337  0.3135
  757SOL     OW 2269   2.069   2.897   1.409  0.1372 -0.1209  0.6568
  757SOL    HW1 2270   2.097   2.801   1.401  0.2002  2.2554 -1.4120
  757SOL    HW2 2271   2.149   2.958   1.420 -2.8727 -1.4162  2.4970
  758SOL     OW 2272   1.028   2.711   1.475 -0.2477 -0.1706  0.3042
  758SOL    HW1 2273   0.935   2.676   1.490  0.2085  2.2503 -0.6796
  758SOL    HW2 2274   1.046   2.795   1.531 -0.1305 -0.7691  0.3009
  759SOL     OW 2275   2.264   1.469   1.054 -0.4549  0.1733 -0.1082
  759SOL    HW1 2276   2.301   1.446   0.960  1.1361 -0.8003  0.0837
  759SOL    HW2 2277   2.330   1.468   1.129  1.3982 -0.0231  2.1903
  760SOL     OW 2278   1.884   1.068   1.654 -0.1714 -0.6488 -0.0581
  760SOL    HW1 2279   1.831   1.117   1.723  0.0405  1.0660  0.0892
  760SOL    HW2 2280   1.954   1.125   1.616 -1.2913 -0.9716 -0.8143
  761SOL     OW 2281   2.038   3.033   0.407  0.1080 -0.2620 -0.2753
  761SOL    HW1 2282   2.046   3.025   0.506  0.2134 -0.1714 -3.9367
  761SOL    HW2 2283   2.055   2.937   0.372  2.4840 -1.1011 -0.2793
  762SOL     OW 2284   1.967   2.120   2.848  0.5323 -0.0111  0.5884
  762SOL    HW1 2285   2.066   2.113   2.826 -3.2687 -0.1653  0.4150
  762SOL    HW2 2286   1.949   2.169   2.937  0.5289 -1.4475  2.3813
  763SOL     OW 2287   0.696   1.135   1.050  0.3982 -0.1488 -0.2054
  763SOL    HW1 2288   0.759   1.129   0.971 -2.1180  0.0641 -1.0532
  763SOL    HW2 2289   0.749   1.130   1.135 -0.6824 -0.2572  0.4622
  764SOL     OW 2290   2.885   2.384   2.971  0.1308  0.0195  0.1063
  764SOL    HW1 2291   2.897   2.402   3.070  0.9382  1.0113 -2.6552
  764SOL    HW2 2292   2.845   2.291   2.958  0.1294 -1.2743 -2.1976
  765SOL     OW 2293   0.919   0.000   2.040 -0.6631  0.3443 -0.3969
  765SOL    HW1 2294   1.016   0.010   2.069 -2.7474  0.2371  0.2379
  765SOL    HW2 2295   0.903   0.063   1.963  2.4168  0.0233  1.6604
  766SOL     OW 2296   2.836   1.536   2.540  0.0994  0.2063 -0.1914
  766SOL    HW1 2297   2.840   1.611   2.610 -1.6776  2.6888  0.9434
  766SOL    HW2 2298   2.931   1.515   2.511 -0.1911  2.1499  0.3444
  767SOL     OW 2299   0.117   1.659   1.552  0.0820 -0.0768  0.0959
  767SOL    HW1 2300   0.053   1.608   1.611 -0.8001 -0.4462 -0.7628
  767SOL    HW2 2301   0.076   1.680   1.464 -3.0873  0.5810  4.8338
  768SOL     OW 2302   0.899   0.648   2.915  0.3421  0.6443  0.7421
  768SOL    HW1 2303   0.850   0.682   3.001  1.0241 -1.6826 -2.0051
  768SOL    HW2 2304   0.996   0.624   2.932  0.7601  0.6315 -1.2849
  769SOL     OW 2305   2.023   2.532   0.481 -0.3512 -0.2311 -0.0839
  769SOL    HW1 2306   1.932   2.515   0.522  1.2972 -2.9864  0.1157
  769SOL    HW2 2307   2.095   2.536   0.547 -2.9028 -1.2146 -2.1445
  770SOL     OW 2308   2.824   0.319   2.916 -0.0074 -0.1341 -0.6844
  770SOL    HW1 2309   2.822   0.406   2.869  0.2734 -1.2311 -0.0178
  770SOL    HW2 2310   2.890   0.246   2.888 -2.6277  0.6754  1.1335
  771SOL     OW 2311   1.469   2.418   1.826  0.0525 -0.0502 -0.2096
  771SOL    HW1 2312   1.407   2.486   1.788 -1.0103  1.0548  1.8546
  771SOL    HW2 2313   1.511   2.362   1.754  1.2868 -1.2211  1.1183
  772SOL     OW 2314   0.562   0.453   0.001 -0.8705 -0.7244 -0.3085
  772SOL    HW1 2315   0.623   0.388   3.080 -2.0823  3.1570  2.5624
  772SOL    HW2 2316   0.486   0.462   3.051  1.6024  0.8227  2.3645
  773SOL     OW 2317   3.092   1.345   1.516  0.1713  0.4287 -0.3458
  773SOL    HW1 2318   3.007   1.350   1.461  0.6398  1.3111 -2.3043
  773SOL    HW2 2319   3.088   1.303   1.614  1.3042  0.8670  2.7072
  774SOL     OW 2320   1.529   0.887   0.313  0.1571  0.5243  0.1370
  774SOL    HW1 2321   1.539   0.793   0.350 -0.4886  0.2684 -1.1338
  774SOL    HW2 2322   1.560   0.960   0.374  0.4543 -0.7575 -2.1951
  775SOL     OW 2323   2.317   2.715   0.212 -0.4559  0.5516  0.0188
  775SOL    HW1 2324   2.294   2.719   0.112 -2.6235  1.1571 -0.6370
  775SOL    HW2 2325   2.233   2.732   0.266  1.6409 -0.9288 -0.5639
  776SOL     OW 2326   2.599   0.626   2.101  0.5159  0.1148 -0.2106
  776SOL    HW1 2327   2.680   0.690   2.101  0.6320 -1.6956  0.9682
  776SOL    HW2 2328   2.546   0.627   2.190  1.0659  1.2395  1.9407
  777SOL     OW 2329   0.187   1.269   2.418  0.1381 -0.0269  0.0814
  777SOL    HW1 2330   0.274   1.298   2.369  0.9741  0.4384 -2.5708
  777SOL    HW2 2331   0.136   1.192   2.370 -1.0764 -1.0902 -1.7684
  778SOL     OW 2332   0.905   0.478   0.469  0.1359 -0.3980 -0.2078
  778SOL    HW1 2333   0.907   0.384   0.509 -3.1337  0.3947 -0.8164
  778SOL    HW2 2334   0.976   0.490   0.392  2.1445 -1.5927  1.3284
  779SOL     OW 2335   0.544   0.954   2.758 -0.1058 -0.0100 -0.5335
  779SOL    HW1 2336   0.642   0.968   2.797  2.9709  0.5600  1.0548
  779SOL    HW2 2337   0.537   0.865   2.705  2.6949 -1.8980 -0.9910
  780SOL     OW 2338   2.168   1.003   2.334 -0.0036  0.0371  0.3955
  780SOL    HW1 2339   2.189   0.920   2.387 -0.7025  1.0553 -1.7569
  780SOL    HW2 2340   2.153   0.981   2.238  0.5476 -0.0707  1.5438
  781SOL     OW 2341   3.038   1.311   1.788  0.4535  0.0834  0.0765
  781SOL    HW1 2342   0.017   1.276   1.820 -1.1388  0.3957 -0.4032
  781SOL    HW2 2343   2.969   1.249   1.835  0.1705 -1.9631  2.4193
  782SOL     OW 2344   0.854   1.732   2.499  0.4705 -0.2278  0.3773
  782SOL    HW1 2345   0.793   1.774   2.431  0.9235 -1.8363  0.1132
  782SOL    HW2 2346   0.875   1.807   2.563 -3.0360  0.2748  0.3096
  783SOL     OW 2347   0.406   2.842   1.482 -0.3314 -0.4022 -0.1129
  783SOL    HW1 2348   0.349   2.771   1.534 -2.3903 -1.7234  2.7747
  783SOL    HW2 2349   0.494   2.864   1.533 -0.5387 -1.1681  1.6085
  784SOL     OW 2350   1.435   0.456   2.877 -0.2177 -0.1946 -0.0702
  784SOL    HW1 2351   1.487   0.495   2.799 -0.4606  0.9913  1.4466
  784SOL    HW2 2352   1.489   0.473   2.964  1.5968 -0.2435 -1.0023
  785SOL     OW 2353   1.307   0.224   2.940 -0.5188 -0.3441 -0.4963
  785SOL    HW1 2354   1.358   0.305   2.911 -3.5686 -1.8678 -0.3004
  785SOL    HW2 2355   1.351   0.140   2.897  2.8998 -1.4590  1.2826
  786SOL     OW 2356   0.394   1.772   0.455  0.3857 -0.1834  0.0963
  786SOL    HW1 2357   0.436   1.696   0.505  2.4735  2.7964 -3.8258
  786SOL    HW2 2358   0.417   1.761   0.355 -2.2014 -2.2114 -1.9935
  787SOL     OW 2359   1.842   1.433   0.471 -0.1093 -0.3062  0.0935
  787SOL    HW1 2360   1.919   1.495   0.496 -0.1490  0.7562 -0.1034
  787SOL    HW2 2361   1.781   1.466   0.396  1.4416  0.6564 -2.1617
  788SOL     OW 2362   2.000   1.561   1.371  0.4135 -0.0633 -0.5589
  788SOL    HW1 2363   1.899   1.577   1.379  0.7337 -0.9856 -0.5937
  788SOL    HW2 2364   2.052   1.649   1.365 -2.9794  0.2396 -0.4536
  789SOL     OW 2365   0.340   1.411   1.782  0.6498 -0.7549 -0.0300
  789SOL    HW1 2366   0.284   1.486   1.827 -0.1574  0.1334 -0.9206
  789SOL    HW2 2367   0.358   1.440   1.687 -2.5066 -1.0485 -0.2086
  790SOL     OW 2368   0.603   2.775   0.083 -0.2568 -0.1591  0.4808
  790SOL    HW1 2369   0.539   2.701   0.066 -0.1444  1.2138  0.3955
  790SOL    HW2 2370   0.560   2.835   0.153  2.4498  1.9961 -2.0952
  791SOL     OW 2371   0.660   0.065   2.702  0.3087  0.0031  0.7436
  791SOL    HW1 2372   0.669   0.166   2.722  0.2989  1.0823 -0.1754
  791SOL    HW2 2373   0.570   0.039   2.723 -0.9077  0.9264 -1.3925
  792SOL     OW 2374   2.027   0.461   2.503 -0.3269  0.3303  0.3226
  792SOL    HW1 2375   1.992   0.409   2.583  2.5757  0.2525 -0.4061
  792SOL    HW2 2376   2.118   0.494   2.532 -1.3462 -1.1078  0.4433
  793SOL     OW 2377   0.372   0.739   1.092  0.0145  0.3517 -0.1636
  793SOL    HW1 2378   0.421   0.654   1.053  0.9972 -1.6673 -0.2727
  793SOL    HW2 2379   0.292   0.718   1.148 -0.4213  0.7753 -2.0134
  794SOL     OW 2380   0.649   0.482   2.036 -0.3843  0.6401  0.0191
  794SOL    HW1 2381   0.666   0.509   1.938 -0.6472  0.9931 -0.9916
  794SOL    HW2 2382   0.571   0.539   2.075  0.6903 -1.5053  2.5070
  795SOL     OW 2383   0.097   1.225   0.110  0.3563 -0.2612  0.0484
  795SOL    HW1 2384   0.050   1.164   0.171  1.1539  1.9769  1.8027
  795SOL    HW2 2385   0.032   1.287   0.055 -1.1911  1.9331 -1.4260
  796SOL     OW 2386   3.040   2.812   0.237 -0.4533  0.2625 -0.0592
  796SOL    HW1 2387   3.050   2.907   0.209 -1.6833  0.5885  1.2981
  796SOL    HW2 2388   3.020   2.755   0.151  0.4337 -2.3848 -0.4138
  797SOL     OW 2389   1.657   2.581   2.509  0.1173 -0.3403 -0.1102
  797SOL    HW1 2390   1.757   2.566   2.499  0.0165  1.8705  0.7634
  797SOL    HW2 2391   1.631   2.584   2.608  0.4737 -0.5798 -1.6619
  798SOL     OW 2392   3.099   0.801   0.801 -0.2968 -0.4721  0.0116
  798SOL    HW1 2393   3.090   0.722   0.735  0.1797  1.1963  0.0501
  798SOL    HW2 2394   0.060   0.788   0.865 -1.0293 -0.2040 -2.2595
  799SOL     OW 2395   2.533   0.493   2.558 -0.1940 -0.3513 -0.1344
  799SOL    HW1 2396   2.515   0.396   2.552 -2.0131  1.6814  2.0712
  799SOL    HW2 2397   2.634   0.503   2.555 -1.8674 -1.5853 -0.5567
  800SOL     OW 2398   3.064   2.144   0.201  0.9921 -0.5098  0.4742
  800SOL    HW1 2399   3.035   2.140   0.305 -0.4863  3.7825  3.5137
  800SOL    HW2 2400   0.030   2.091   0.187 -0.7780  1.4511 -1.5852
  801SOL     OW 2401   1.320   1.627   1.188 -0.9220 -0.3077 -0.2416
  801SOL    HW1 2402   1.326   1.553   1.258 -3.0147  3.3106  1.2919
  801SOL    HW2 2403   1.296   1.596   1.096 -0.6310  0.4804 -0.9578
  802SOL     OW 2404   1.092   1.745   2.132 -0.5098  0.1045  0.7489
  802SOL    HW1 2405   1.008   1.791   2.103  0.3344 -1.5882 -0.4697
  802SOL    HW2 2406   1.143   1.706   2.049 -1.5861  0.6181  0.9294
  803SOL     OW 2407   0.203   2.075   0.867  0.0571  0.1896 -0.0197
  803SOL    HW1 2408   0.103   2.081   0.891  2.5127 -2.6515  1.8590
  803SOL    HW2 2409   0.239   1.988   0.903 -0.6327 -2.5107 -1.0325
  804SOL     OW 2410   1.186   2.329   1.189  0.2672  0.3222  0.0122
  804SOL    HW1 2411   1.146   2.417   1.207  0.6938 -2.5319 -0.6568
  804SOL    HW2 2412   1.109   2.262   1.188  1.2879 -0.0248  2.5576
  805SOL     OW 2413   2.026   1.359   0.034  0.2174  0.2225  0.4337
  805SOL    HW1 2414   2.094   1.350   3.070 -3.2303 -0.9100  3.2579
  805SOL    HW2 2415   1.942   1.308   0.010  0.9534  4.6624  1.7165
  806SOL     OW 2416   1.964   2.539   1.079 -0.2408 -0.5880  0.8439
  806SOL    HW1 2417   1.977   2.579   1.171 -1.6457 -2.6284  0.7584
  806SOL    HW2 2418   1.868   2.513   1.063 -2.2234 -1.8057  0.1862
  807SOL     OW 2419   2.766   0.829   2.630 -0.2775 -0.1064 -0.1652
  807SOL    HW1 2420   2.808   0.908   2.677  1.4569 -0.4068 -0.3787
  807SOL    HW2 2421   2.830   0.793   2.557  1.2001 -2.7970 -0.0927
  808SOL     OW 2422   0.415   1.215   0.423  0.3473  0.3637  0.1060
  808SOL    HW1 2423   0.452   1.178   0.510 -3.6967 -0.3599  0.0562
  808SOL    HW2 2424   0.377   1.139   0.363  0.0606  1.4237 -3.8598
  809SOL     OW 2425   2.764   0.826   2.101 -0.3079  0.2948 -0.2761
  809SOL    HW1 2426   2.727   0.900   2.153  4.0917 -2.2017 -1.9843
  809SOL    HW2 2427   2.780   0.847   2.001 -1.1708 -4.1997  0.9300
  810SOL     OW 2428   1.170   0.405   1.571 -0.0531  0.2446 -0.2313
  810SOL    HW1 2429   1.079   0.397   1.527  2.1584  2.6686  0.5940
  810SOL    HW2 2430   1.236   0.341   1.535 -0.4646  2.6717  0.7774
  811SOL     OW 2431   1.859   2.892   1.567  0.3107 -0.0945  0.4814
  811SOL    HW1 2432   1.937   2.890   1.500  1.2319  0.7255  0.1861
  811SOL    HW2 2433   1.850   2.814   1.627  1.5395  1.4839 -2.1460
  812SOL     OW 2434   1.661   2.430   2.966 -0.1333  0.2458 -0.1328
  812SOL    HW1 2435   1.649   2.337   3.003 -0.8707  2.8931  0.4057
  812SOL    HW2 2436   1.727   2.478   3.023 -0.3408 -0.6596 -3.1084
  813SOL     OW 2437   1.579   1.117   2.091 -0.0910  0.0148 -0.0788
  813SOL    HW1 2438   1.549   1.030   2.051 -1.0960 -0.1809 -0.3697
  813SOL    HW2 2439   1.502   1.183   2.100  1.0749  2.1728  2.2521
  814SOL     OW 2440   0.702   0.392   1.692  0.2967 -0.2296 -0.3084
  814SOL    HW1 2441   0.696   0.383   1.588 -1.7210 -1.3412 -3.7383
  814SOL    HW2 2442   0.670   0.481   1.728 -2.2371 -0.0514  2.4533
  815SOL     OW 2443   0.766   0.927   0.518  0.3990  0.1679  0.4980
  815SOL    HW1 2444   0.831   1.002   0.499  0.3852 -0.4121  2.0633
  815SOL    HW2 2445   0.707   0.903   0.439  1.3489 -2.0282 -0.0993
  816SOL     OW 2446   2.153   1.479   2.613 -0.0420 -0.2597 -0.2035
  816SOL    HW1 2447   2.125   1.461   2.514  0.0662  1.1029 -0.4845
  816SOL    HW2 2448   2.246   1.513   2.619 -0.6472  2.3952  1.9859
  817SOL     OW 2449   0.778   2.580   0.462  0.0599  0.3790  0.7123
  817SOL    HW1 2450   0.865   2.632   0.453 -0.3140 -0.4767 -1.5084
  817SOL    HW2 2451   0.773   2.514   0.540 -1.3053 -0.6867 -0.7569
  818SOL     OW 2452   1.950   0.011   3.080 -0.0835 -0.8138 -0.0872
  818SOL    HW1 2453   1.893   0.093   3.059 -0.7649 -2.9111  0.3984
  818SOL    HW2 2454   1.978   3.081   2.989  1.8594 -1.2621 -7.9522
  819SOL     OW 2455   1.616   0.177   0.262 -0.8079 -0.1347 -0.1820
  819SOL    HW1 2456   1.626   0.081   0.235  1.0827 -0.0685  0.4705
  819SOL    HW2 2457   1.709   0.223   0.272  0.3821  1.7658  0.9882
  820SOL     OW 2458   1.824   0.588   0.332 -0.2937 -0.1969  0.4085
  820SOL    HW1 2459   1.741   0.636   0.345  1.0683 -2.1897 -0.6251
  820SOL    HW2 2460   1.902   0.649   0.353 -0.7066 -1.5977  1.0828
  821SOL     OW 2461   2.684   0.349   0.132 -0.3442 -0.0431  0.4245
  821SOL    HW1 2462   2.657   0.430   0.187  1.3802  0.6144 -1.1043
  821SOL    HW2 2463   2.633   0.351   0.044  1.7614 -2.8482  1.5073
  822SOL     OW 2464   0.342   2.768   1.906 -0.2669 -0.5830 -0.0683
  822SOL    HW1 2465   0.400   2.698   1.950  0.0708  1.5089 -0.5573
  822SOL    HW2 2466   0.251   2.773   1.948 -1.1710  1.0289  0.5052
  823SOL     OW 2467   3.107   1.701   1.316 -0.1519  0.0585 -0.3631
  823SOL    HW1 2468   3.034   1.772   1.327 -1.2854 -1.8709 -0.0525
  823SOL    HW2 2469   3.067   1.625   1.258 -1.6035 -1.2696 -0.2374
  824SOL     OW 2470   1.590   3.020   2.198  0.4091  0.5294 -0.1703
  824SOL    HW1 2471   1.580   2.941   2.265  0.4170  3.3339  0.7113
  824SOL    HW2 2472   1.560   2.991   2.106  1.1861 -2.5406  3.0240
  825SOL     OW 2473   1.787   1.210   0.821  0.4533 -0.1477  0.2303
  825SOL    HW1 2474   1.864   1.268   0.845 -1.6461 -1.5604 -1.5103
  825SOL    HW2 2475   1.707   1.215   0.885  0.1793  1.7914  1.4396
  826SOL     OW 2476   2.043   0.810   0.014  0.2185  0.1666 -0.8465
  826SOL    HW1 2477   2.075   0.900   0.058  0.4801  1.1631 -0.4866
  826SOL    HW2 2478   1.983   0.830   3.053 -0.3460  0.3670  0.3355
  827SOL     OW 2479   0.672   1.197   1.556  0.3292  0.0908 -0.2886
  827SOL    HW1 2480   0.571   1.199   1.573 -0.9265  0.1070 -2.3209
  827SOL    HW2 2481   0.711   1.282   1.515 -0.6637  0.3338  3.8446
  828SOL     OW 2482   2.216   1.400   1.941 -0.1059 -0.5869 -0.1363
  828SOL    HW1 2483   2.133   1.409   1.884  2.6781 -2.0448 -2.1019
  828SOL    HW2 2484   2.278   1.478   1.929 -1.0528  1.4432  0.6487
  829SOL     OW 2485   0.161   1.981   0.136 -0.3751  0.0202 -0.3898
  829SOL    HW1 2486   0.146   1.883   0.135  1.8534 -3.6936  0.8706
  829SOL    HW2 2487   0.227   2.007   0.207 -1.5982  1.6732 -0.1890
  830SOL     OW 2488   1.578   1.025   0.568 -0.8225  0.2808 -0.4565
  830SOL    HW1 2489   1.674   1.066   0.570 -0.4526 -1.1535  0.5998
  830SOL    HW2 2490   1.566   0.951   0.637 -0.5007  1.4557  1.0741
  831SOL     OW 2491   2.636   1.905   3.043 -0.4035 -0.3000 -0.0890
  831SOL    HW1 2492   2.559   1.840   3.069 -0.4774  1.2628 -0.7632
  831SOL    HW2 2493   2.689   1.948   0.005 -2.3646 -2.1981 -1.9985
  832SOL     OW 2494   0.918   3.004   3.086  0.4755  0.4920 -0.1115
  832SOL    HW1 2495   0.942   2.932   0.049  0.1828 -0.1850  0.0473
  832SOL    HW2 2496   0.945   2.973   2.995 -0.7534 -0.4135 -0.0662
  833SOL     OW 2497   1.349   0.606   2.309  0.0959  0.6908 -0.1630
  833SOL    HW1 2498   1.381   0.705   2.300  1.0507  0.2501 -0.8760
  833SOL    HW2 2499   1.387   0.548   2.235 -1.8697 -0.8336  2.8147
  834SOL     OW 2500   3.095   0.454   1.225 -0.1644 -0.0701  0.5478
  834SOL    HW1 2501   3.060   0.502   1.308 -2.0632 -0.5519 -0.3453
  834SOL    HW2 2502   3.049   0.491   1.144 -0.0973 -0.7855  0.5738
  835SOL     OW 2503   2.909   0.003   0.921  0.0592 -0.0664 -0.1395
  835SOL    HW1 2504   2.879   3.017   0.928  1.4867  4.3862  0.4907
  835SOL    HW2 2505   2.898   0.054   1.009  0.8734 -0.5580 -0.0166
  836SOL     OW 2506   0.563   2.215   0.418  0.0230  0.2251 -0.1067
  836SOL    HW1 2507   0.578   2.132   0.362  1.7988 -0.7827  0.8309
  836SOL    HW2 2508   0.573   2.301   0.363  0.0903  3.0837  0.7746
  837SOL     OW 2509   1.749   1.693   2.710  0.0633  0.0114  0.2157
  837SOL    HW1 2510   1.696   1.711   2.793 -1.9309  1.2029  3.1334
  837SOL    HW2 2511   1.812   1.613   2.720 -0.8001  1.7937 -0.8469
  838SOL     OW 2512   0.394   1.162   2.085  0.1213  0.9301 -0.7868
  838SOL    HW1 2513   0.390   1.227   2.166 -3.2597  1.5113  2.9181
  838SOL    HW2 2514   0.331   1.191   2.013  1.4699 -2.3425 -3.4807
  839SOL     OW 2515   0.217   0.603   0.854  0.6081  0.1264 -0.4226
  839SOL    HW1 2516   0.138   0.541   0.878  1.0600  0.3648 -0.8151
  839SOL    HW2 2517   0.299   0.581   0.910  2.0033  1.6187  0.8914
  840SOL     OW 2518   2.564   0.184   2.584  0.0640 -0.1702 -0.4365
  840SOL    HW1 2519   2.601   0.141   2.669  1.5963 -0.1189 -1.5205
  840SOL    HW2 2520   2.631   0.175   2.509 -1.1430  1.7074 -1.8791
  841SOL     OW 2521   0.907   2.434   2.969 -0.3835 -0.0537  0.3495
  841SOL    HW1 2522   1.000   2.470   2.980 -1.6610 -1.5834  1.6392
  841SOL    HW2 2523   0.919   2.337   2.940 -0.8224  0.9031  0.8012
  842SOL     OW 2524   0.579   0.040   0.935 -0.1773 -0.3387  0.6385
  842SOL    HW1 2525   0.665   0.055   0.882  0.8207  0.2636 -2.5879
  842SOL    HW2 2526   0.502   0.066   0.876  0.3387  0.2066  1.2159
  843SOL     OW 2527   0.206   0.784   3.095 -0.3044 -0.6515 -0.4588
  843SOL    HW1 2528   0.109   0.817   3.084  1.2461 -0.7516 -1.4323
  843SOL    HW2 2529   0.272   0.855   3.065  1.2798  1.6331 -3.7577
  844SOL     OW 2530   1.258   2.482   2.744 -0.2300  0.2881 -0.0754
  844SOL    HW1 2531   1.234   2.401   2.694 -2.3971  1.2687  3.0322
  844SOL    HW2 2532   1.356   2.506   2.751  0.7077  1.2272  1.1196
  845SOL     OW 2533   2.647   0.105   2.823 -0.3398 -0.0514 -0.2987
  845SOL    HW1 2534   2.698   0.161   2.887 -2.9509 -0.3158 -4.7527
  845SOL    HW2 2535   2.544   0.108   2.843 -1.0142 -0.4462 -1.3460
  846SOL     OW 2536   1.914   1.493   2.742  0.3034  0.1074 -0.3242
  846SOL    HW1 2537   2.002   1.493   2.694 -0.8227 -0.5295  0.7772
  846SOL    HW2 2538   1.863   1.409   2.718 -0.1739  1.8737 -0.1091
  847SOL     OW 2539   2.570   0.098   0.202 -0.2635  0.6485 -0.3070
  847SOL    HW1 2540   2.505   0.077   0.126  0.2921  0.1199  0.9091
  847SOL    HW2 2541   2.611   0.191   0.188  1.9458  0.5282  1.0733
  848SOL     OW 2542   0.557   0.616   0.694 -0.0375  0.2081 -0.1994
  848SOL    HW1 2543   0.554   0.518   0.715 -0.5240  1.7423  1.0161
  848SOL    HW2 2544   0.634   0.625   0.627  0.2626 -2.5714 -0.3636
  849SOL     OW 2545   1.561   3.005   1.911 -0.6064 -0.1586 -0.0266
  849SOL    HW1 2546   1.625   2.932   1.945 -1.3358  0.7498 -0.6415
  849SOL    HW2 2547   1.598   3.101   1.902  0.3003 -1.8312 -2.4009
  850SOL     OW 2548   0.697   1.254   0.613 -0.0009  0.2333  0.7590
  850SOL    HW1 2549   0.641   1.169   0.623  1.6425  3.0552 -3.1788
  850SOL    HW2 2550   0.676   1.315   0.695  0.1248  2.3807 -0.1539
  851SOL     OW 2551   0.354   1.157   0.065 -0.4847  0.7949  0.8404
  851SOL    HW1 2552   0.387   1.099   0.139 -0.7358 -0.6368  0.8070
  851SOL    HW2 2553   0.262   1.201   0.079 -2.2242 -0.2254  1.4803
  852SOL     OW 2554   1.357   0.151   1.882  0.5746  0.2872 -0.3540
  852SOL    HW1 2555   1.345   0.070   1.941 -0.3056 -0.3879 -0.7560
  852SOL    HW2 2556   1.345   0.130   1.783 -1.6740 -0.8201 -0.3468
  853SOL     OW 2557   2.621   1.364   0.415 -0.1041  0.3307  0.2504
  853SOL    HW1 2558   2.691   1.416   0.369 -4.7098  0.1887  3.6761
  853SOL    HW2 2559   2.576   1.416   0.494 -2.2566  0.4465 -0.5531
  854SOL     OW 2560   1.180   1.091   2.159  0.1590  0.0841  0.1781
  854SOL    HW1 2561   1.082   1.066   2.164  0.3376  1.0567  1.3209
  854SOL    HW2 2562   1.186   1.189   2.192 -0.5256  1.9017 -2.2879
  855SOL     OW 2563   0.390   2.648   3.075  0.2887 -0.0076 -0.1476
  855SOL    HW1 2564   0.306   2.670   0.013  1.6841 -0.4411  1.6401
  855SOL    HW2 2565   0.374   2.640   2.975  0.6214 -2.0532  1.1389
  856SOL     OW 2566   0.945   0.708   2.113 -0.6707 -0.1854  0.2658
  856SOL    HW1 2567   1.015   0.754   2.055 -1.9514  1.2277  0.0941
  856SOL    HW2 2568   0.963   0.710   2.214 -0.7691  0.9419 -5.5164
  857SOL     OW 2569   1.150   0.684   2.656  0.5210  0.4650 -0.2273
  857SOL    HW1 2570   1.201   0.761   2.610 -0.4349  1.4103 -0.5890
  857SOL    HW2 2571   1.176   0.592   2.619  0.6577 -0.7652 -1.8494
  858SOL     OW 2572   0.033   1.261   2.078  0.2668  0.0957  0.2739
  858SOL    HW1 2573   0.086   1.347   2.092  1.1689  1.2772  0.1315
  858SOL    HW2 2574   0.070   1.190   2.012  0.2558 -1.6613  2.8206
  859SOL     OW 2575   2.354   0.440   0.790 -0.1690  0.1925 -0.2978
  859SOL    HW1 2576   2.321   0.350   0.825  0.7927 -0.9378 -3.2226
  859SOL    HW2 2577   2.407   0.488   0.866 -3.4531 -0.4849 -0.0552
  860SOL     OW 2578   1.728   2.984   0.352  0.1554  0.4317  0.2927
  860SOL    HW1 2579   1.820   3.019   0.383 -0.3631 -1.2782 -0.7417
  860SOL    HW2 2580   1.657   2.985   0.423  1.1577  0.4160 -1.2680
  861SOL     OW 2581   0.987   0.561   1.234  0.1932 -0.6435 -0.1742
  861SOL    HW1 2582   0.982   0.475   1.289 -1.1538  1.7604 -1.2010
  861SOL    HW2 2583   0.891   0.593   1.212 -0.3536  0.4918 -0.8839
  862SOL     OW 2584   1.435   0.061   2.788 -0.0918  0.4104  0.0058
  862SOL    HW1 2585   1.536   0.071   2.778  0.8449  3.1636 -1.1135
  862SOL    HW2 2586   1.384   3.101   2.738 -2.1420 -0.4125 -0.7136
  863SOL     OW 2587   2.549   2.349   0.566 -0.3251 -0.1240 -0.9444
  863SOL    HW1 2588   2.569   2.421   0.634 -0.2245 -0.8853 -3.0269
  863SOL    HW2 2589   2.482   2.371   0.494  1.0601 -1.5940  0.8008
  864SOL     OW 2590   2.688   0.121   1.929  0.4037 -0.4158  0.3125
  864SOL    HW1 2591   2.691   0.223   1.931  1.3333 -2.4133  1.4789
  864SOL    HW2 2592   2.760   0.088   1.866 -1.7220 -1.3971  2.4488
  865SOL     OW 2593   1.298   1.055   1.927  0.7938  0.1122 -0.1955
  865SOL    HW1 2594   1.263   1.063   2.022 -2.5418  0.0482 -0.6573
  865SOL    HW2 2595   1.310   1.150   1.890 -0.0480  0.8192 -0.4679
  866SOL     OW 2596   1.721   2.438   1.013 -0.5159  0.0888  0.0617
  866SOL    HW1 2597   1.702   2.377   0.937  1.6330  3.1663  3.7654
  866SOL    HW2 2598   1.646   2.505   1.029  0.5595  0.6397 -0.1865
  867SOL     OW 2599   2.315   2.956   0.602  0.3424 -0.1497  0.2411
  867SOL    HW1 2600   2.221   2.968   0.641 -0.1181  0.9073  0.6198
  867SOL    HW2 2601   2.333   3.030   0.533 -0.3795  2.3189 -1.7621
  868SOL     OW 2602   0.339   2.254   1.925  0.1734 -0.1312 -0.0121
  868SOL    HW1 2603   0.398   2.177   1.899  0.1437  0.9846 -0.5165
  868SOL    HW2 2604   0.248   2.258   1.880 -1.3039 -1.2826  1.1380
  869SOL     OW 2605   1.928   2.540   2.442  0.3054 -0.3388 -0.0415
  869SOL    HW1 2606   1.910   2.445   2.475 -0.7929 -1.2680  1.8515
  869SOL    HW2 2607   2.027   2.548   2.418  0.3680  0.1014  0.8324
  870SOL     OW 2608   1.627   1.490   0.836 -0.1891 -0.4299  0.6070
  870SOL    HW1 2609   1.578   1.473   0.750 -1.2674 -0.0037  0.4522
  870SOL    HW2 2610   1.622   1.406   0.895  1.3081 -2.8470 -0.2165
  871SOL     OW 2611   0.449   1.858   1.238 -0.2546  0.5452 -0.2073
  871SOL    HW1 2612   0.395   1.785   1.197  2.1234 -1.9797 -1.1892
  871SOL    HW2 2613   0.391   1.930   1.282 -1.7958 -0.4589  0.4277
  872SOL     OW 2614   0.709   1.565   2.671 -0.1743  0.1978 -0.1175
  872SOL    HW1 2615   0.771   1.502   2.717 -2.6590  0.3651  0.4040
  872SOL    HW2 2616   0.760   1.622   2.601 -0.1776 -0.7061 -2.2025
  873SOL     OW 2617   0.839   1.858   2.064 -0.3118  0.1914 -0.2022
  873SOL    HW1 2618   0.818   1.942   2.121 -1.7783  1.0660 -0.9302
  873SOL    HW2 2619   0.786   1.782   2.103 -0.9183  2.3692  2.3583
  874SOL     OW 2620   1.123   0.788   1.924  0.0434 -0.0066 -0.1959
  874SOL    HW1 2621   1.135   0.714   1.857  1.4088  1.5772 -1.3283
  874SOL    HW2 2622   1.180   0.873   1.908  3.2385  1.0785 -1.4036
  875SOL     OW 2623   3.085   0.172   0.433  0.2819  0.5346 -0.3810
  875SOL    HW1 2624   3.036   0.202   0.347 -0.2211 -1.8001 -1.0917
  875SOL    HW2 2625   3.066   0.074   0.458 -1.9178 -0.1634  0.7491
  876SOL     OW 2626   0.741   1.565   0.443  0.4194 -0.0426 -0.2704
  876SOL    HW1 2627   0.653   1.540   0.492  0.4014 -0.3970  0.2495
  876SOL    HW2 2628   0.765   1.660   0.480  1.9553  0.2104  2.1752
  877SOL     OW 2629   2.783   0.167   0.720 -0.1875  0.0595  0.1115
  877SOL    HW1 2630   2.718   0.238   0.761  1.7837  0.6269 -0.8648
  877SOL    HW2 2631   2.811   0.104   0.794  0.1543  1.7933  0.1298
  878SOL     OW 2632   2.081   1.610   0.476 -0.2002 -0.8295 -0.4617
  878SOL    HW1 2633   2.103   1.559   0.393 -3.1910  0.8437  3.5556
  878SOL    HW2 2634   2.131   1.576   0.559 -1.2706 -0.8206 -0.7165
  879SOL     OW 2635   2.560   1.647   1.253 -0.5242 -0.3180 -0.3644
  879SOL    HW1 2636   2.571   1.543   1.250 -0.3978 -1.0868 -0.8395
  879SOL    HW2 2637   2.512   1.675   1.166  0.2597  1.4906 -0.1022
  880SOL     OW 2638   0.595   2.267   0.678 -0.1701 -0.3405 -0.3329
  880SOL    HW1 2639   0.584   2.227   0.587 -1.4720 -0.7153  0.6951
  880SOL    HW2 2640   0.512   2.326   0.703 -1.1444 -0.2393  0.5806
  881SOL     OW 2641   0.804   0.988   0.773  0.0004  0.3899  0.1129
  881SOL    HW1 2642   0.774   0.978   0.675 -0.7314 -1.3072 -3.2296
  881SOL    HW2 2643   0.866   1.073   0.781 -1.5703  0.9858 -1.3379
  882SOL     OW 2644   2.343   0.982   0.498 -0.1203 -0.5620  0.2698
  882SOL    HW1 2645   2.257   1.030   0.525 -1.7093  0.8556 -1.1978
  882SOL    HW2 2646   2.321   0.880   0.487  2.5120 -3.8697  0.1837
  883SOL     OW 2647   1.719   0.332   1.661  0.2990 -0.4032  0.0035
  883SOL    HW1 2648   1.817   0.315   1.642 -1.5433  0.5531  0.9741
  883SOL    HW2 2649   1.662   0.292   1.585 -2.6466 -1.5866 -0.8671
  884SOL     OW 2650   2.894   0.062   1.194  0.1614  0.4202 -0.3866
  884SOL    HW1 2651   2.992   0.085   1.188 -1.0579 -0.4140 -1.6891
  884SOL    HW2 2652   2.881   3.102   1.263  2.3021  2.0333  2.7054
  885SOL     OW 2653   1.455   0.846   2.782  0.2864 -0.3384 -0.3108
  885SOL    HW1 2654   1.443   0.881   2.689 -0.4891 -0.2407  1.2697
  885SOL    HW2 2655   1.371   0.859   2.837 -0.6592  2.8474 -1.4741
  886SOL     OW 2656   1.817   0.625   2.484 -0.2985  0.0150 -0.0504
  886SOL    HW1 2657   1.900   0.564   2.490 -0.4462 -1.7697 -0.4960
  886SOL    HW2 2658   1.729   0.570   2.478 -1.8379 -2.2674  0.1588
  887SOL     OW 2659   1.321   0.285   1.397 -0.2970  0.0171 -0.4163
  887SOL    HW1 2660   1.299   0.248   1.307 -0.1323 -0.6284  1.7132
  887SOL    HW2 2661   1.415   0.318   1.390  0.1154  0.9333 -0.0160
  888SOL     OW 2662   2.404   1.590   1.844  0.3989  0.1587 -0.1138
  888SOL    HW1 2663   2.458   1.534   1.774  0.9609 -1.0920  1.5078
  888SOL    HW2 2664   2.392   1.683   1.804 -2.0658 -3.2683  0.1537
  889SOL     OW 2665   1.849   2.111   0.303 -0.0706  0.6168 -0.0926
  889SOL    HW1 2666   1.906   2.034   0.339  1.6605  1.1159 -2.7597
  889SOL    HW2 2667   1.898   2.196   0.298 -1.6569  0.3456 -0.9335
  890SOL     OW 2668   1.178   2.036   0.592  0.4279  0.3626 -0.1121
  890SOL    HW1 2669   1.122   1.959   0.554 -1.4139 -2.2537 -0.7369
  890SOL    HW2 2670   1.135   2.065   0.678  0.7970 -2.6940 -1.9081
  891SOL     OW 2671   2.863   1.040   2.781 -0.1334  0.2383 -0.4073
  891SOL    HW1 2672   2.933   1.096   2.727  3.9635  0.4356 -1.1622
  891SOL    HW2 2673   2.871   1.057   2.884  0.7488 -0.7116  1.8068
  892SOL     OW 2674   1.586   0.514   2.455 -0.5152  0.0640  0.2976
  892SOL    HW1 2675   1.572   0.416   2.477  0.3027 -0.0172 -1.4635
  892SOL    HW2 2676   1.514   0.544   2.390  1.7458 -1.5100  0.2803
  893SOL     OW 2677   1.682   0.006   1.351  0.2742 -0.2417  0.2469
  893SOL    HW1 2678   1.746   0.084   1.370  2.3636  0.0615 -1.4382
  893SOL    HW2 2679   1.637   3.084   1.436 -0.5108 -0.7760  1.1973
  894SOL     OW 2680   2.841   0.000   0.512 -0.0602  0.4101 -0.1181
  894SOL    HW1 2681   2.794   3.109   0.423  0.1744  1.7567 -1.7593
  894SOL    HW2 2682   2.805   0.070   0.576  1.3234 -1.4473 -2.1569
  895SOL     OW 2683   1.815   2.664   2.785 -0.5139  0.3693  1.1022
  895SOL    HW1 2684   1.809   2.564   2.768  2.5259  0.3532 -1.2705
  895SOL    HW2 2685   1.912   2.684   2.761  1.0714 -1.6001 -4.3376
  896SOL     OW 2686   2.146   0.250   2.361  0.1867  0.6246  0.4796
  896SOL    HW1 2687   2.094   0.171   2.326 -2.0442  0.4720 -0.4292
  896SOL    HW2 2688   2.077   0.321   2.390  0.9992  2.2612  1.4196
  897SOL     OW 2689   0.182   1.942   1.607 -0.3698  0.6117 -0.0552
  897SOL    HW1 2690   0.186   1.847   1.579 -0.8637 -1.4840 -1.1429
  897SOL    HW2 2691   0.260   2.006   1.586 -1.7547 -0.0411 -3.0550
  898SOL     OW 2692   2.408   1.807   1.694 -0.1828 -0.5960  0.6113
  898SOL    HW1 2693   2.384   1.776   1.600  1.1638 -1.1364  0.9274
  898SOL    HW2 2694   2.482   1.880   1.691 -0.4235  2.0324  1.1863
  899SOL     OW 2695   1.602   2.035   1.189 -0.5340  0.0000 -0.0608
  899SOL    HW1 2696   1.543   2.112   1.177 -0.9310 -3.5793 -0.8441
  899SOL    HW2 2697   1.567   1.955   1.139 -0.3122  3.1049  0.4002
  900SOL     OW 2698   1.066   0.066   2.886 -0.0270  0.1570 -0.0514
  900SOL    HW1 2699   1.019   0.047   2.974  0.4564  0.0968  1.9962
  900SOL    HW2 2700   1.147   0.133   2.902 -1.8004  1.9870  2.4205
  901SOL     OW 2701   1.077   1.640   2.373 -0.4521 -0.1625 -0.0632
  901SOL    HW1 2702   1.085   1.675   2.273 -2.4285 -3.1986 -1.4291
  901SOL    HW2 2703   0.993   1.681   2.417 -0.2577 -1.3304  0.6870
  902SOL     OW 2704   2.789   2.858   3.106  0.8463  0.0970  0.6877
  902SOL    HW1 2705   2.768   2.914   0.072 -0.1356 -4.1792 -4.2526
  902SOL    HW2 2706   2.817   2.764   0.018  2.8391 -2.8023  1.5533
  903SOL     OW 2707   2.178   0.900   2.062  0.1291  0.1028  0.0489
  903SOL    HW1 2708   2.075   0.888   2.041 -2.2404 -0.7504 -0.5560
  903SOL    HW2 2709   2.214   0.803   2.063 -2.1041 -3.3460 -2.2203
  904SOL     OW 2710   1.477   0.284   2.531 -1.1098  0.3174  0.5276
  904SOL    HW1 2711   1.465   0.219   2.608  0.9462 -2.3241  0.0302
  904SOL    HW2 2712   1.485   0.223   2.453 -0.0941  1.2450  0.4874
  905SOL     OW 2713   2.075   2.421   1.573 -0.4277 -0.1758  0.1558
  905SOL    HW1 2714   2.104   2.325   1.584 -0.8878  1.8483  1.2975
  905SOL    HW2 2715   2.052   2.457   1.665 -0.2341 -1.0636 -1.9056
  906SOL     OW 2716   1.458   1.914   0.255 -0.2482  0.6542  0.3053
  906SOL    HW1 2717   1.364   1.898   0.226 -0.9392  4.1308  0.7812
  906SOL    HW2 2718   1.489   1.846   0.323 -0.7531 -0.7512 -0.9476
  907SOL     OW 2719   0.600   2.831   0.742  0.2249  0.3208  0.2572
  907SOL    HW1 2720   0.662   2.799   0.813 -1.2022  1.0261  2.2466
  907SOL    HW2 2721   0.583   2.758   0.674  0.0306  0.6133  1.2402
  908SOL     OW 2722   1.350   2.629   2.005 -0.2102 -0.0173 -0.0103
  908SOL    HW1 2723   1.447   2.645   2.014 -1.4885  0.3513  1.6571
  908SOL    HW2 2724   1.317   2.561   2.078 -0.1130 -1.4303  1.3996
  909SOL     OW 2725   2.077   0.440   1.955 -0.0620  0.2323  0.1980
  909SOL    HW1 2726   2.156   0.376   1.944 -0.4101 -0.6076 -0.4767
  909SOL    HW2 2727   1.999   0.398   2.005 -0.8124  3.7176 -0.6499
  910SOL     OW 2728   1.209   0.719   0.019  0.1715  0.2080  0.4177
  910SOL    HW1 2729   1.207   0.679   3.037  1.9389 -1.8547 -0.3324
  910SOL    HW2 2730   1.121   0.695   0.061 -0.7893 -0.1832 -2.5757
  911SOL     OW 2731   3.084   0.893   3.041 -0.3877 -0.0482 -0.3318
  911SOL    HW1 2732   3.012   0.828   3.080 -1.2191 -0.9945 -0.6032
  911SOL    HW2 2733   3.055   0.986   3.055  1.4688 -1.7246 -0.8536
  912SOL     OW 2734   0.151   2.649   0.241 -0.3458  0.3429 -0.5926
  912SOL    HW1 2735   0.105   2.555   0.252 -2.1756 -1.8710 -0.6151
  912SOL    HW2 2736   0.084   2.722   0.231  0.1844 -1.6746 -0.9665
  913SOL     OW 2737   2.773   2.383   2.484  0.2850  0.1857 -0.3527
  913SOL    HW1 2738   2.841   2.302   2.492  0.6328 -0.2175  1.5263
  913SOL    HW2 2739   2.796   2.462   2.544 -2.5010 -0.4487 -0.6195
  914SOL     OW 2740   1.548   2.013   1.549  0.2155 -0.6074 -0.0140
  914SOL    HW1 2741   1.614   1.959   1.488  0.0006 -1.5874  0.1440
  914SOL    HW2 2742   1.561   1.973   1.643  0.3754 -0.1213 -1.2895
  915SOL     OW 2743   0.847   2.679   2.135  0.0054  0.2625 -0.3542
  915SOL    HW1 2744   0.833   2.580   2.117  0.9137  2.0740  1.6458
  915SOL    HW2 2745   0.758   2.724   2.160 -0.0082 -1.3645 -0.3329
  916SOL     OW 2746   0.627   1.093   1.960 -0.4955  0.3077 -0.0929
  916SOL    HW1 2747   0.540   1.116   2.011  0.5104  0.3592  1.4205
  916SOL    HW2 2748   0.656   0.998   1.972 -0.3640  0.6610 -3.0571
  917SOL     OW 2749   2.521   0.608   0.618 -0.0072 -0.2105 -0.7677
  917SOL    HW1 2750   2.451   0.575   0.686 -1.7144  0.7256  0.3110
  917SOL    HW2 2751   2.588   0.533   0.597 -0.1072 -1.5867 -2.2878
  918SOL     OW 2752   1.822   2.730   2.263 -0.3012  0.1556  0.2369
  918SOL    HW1 2753   1.871   2.653   2.314 -0.5189  1.6933 -1.1189
  918SOL    HW2 2754   1.723   2.741   2.289  0.8325  2.6889 -2.4039
  919SOL     OW 2755   1.543   2.746   1.685 -0.1599  0.1970 -0.4895
  919SOL    HW1 2756   1.490   2.791   1.610 -1.7775 -0.6038  2.1411
  919SOL    HW2 2757   1.489   2.740   1.770 -0.2717  0.4122  1.7345
  920SOL     OW 2758   0.570   0.736   0.062 -0.3491 -0.9653 -0.4530
  920SOL    HW1 2759   0.529   0.786   3.095  0.1482 -0.3662 -2.1419
  920SOL    HW2 2760   0.561   0.633   0.054  1.4019  0.4560 -0.0633
  921SOL     OW 2761   0.009   0.465   2.987  0.2545 -0.0422 -0.1108
  921SOL    HW1 2762   3.026   0.494   2.958 -0.0170 -0.9902 -0.3817
  921SOL    HW2 2763   0.051   0.406   2.912 -0.1742  0.7746 -5.2554
  922SOL     OW 2764   0.777   1.735   0.954 -0.0353  0.1540  0.2317
  922SOL    HW1 2765   0.801   1.726   1.059  0.0981 -0.7533  3.5579
  922SOL    HW2 2766   0.860   1.712   0.898  0.0238 -0.8788  0.0050
  923SOL     OW 2767   0.598   1.332   1.868  0.1463  0.4273  0.2608
  923SOL    HW1 2768   0.501   1.370   1.852 -3.4912 -2.4767 -0.0881
  923SOL    HW2 2769   0.598   1.228   1.875 -0.6370 -0.0572  0.6681
  924SOL     OW 2770   1.626   2.986   3.016 -0.1113  0.2656 -0.1171
  924SOL    HW1 2771   1.698   2.961   3.084  1.9275 -0.5670 -0.7974
  924SOL    HW2 2772   1.664   2.974   2.922 -0.6153 -1.5819  1.1689
  925SOL     OW 2773   2.869   1.352   1.344 -0.6908 -0.0001 -0.3271
  925SOL    HW1 2774   2.902   1.406   1.263 -0.5909 -1.5918  1.0950
  925SOL    HW2 2775   2.855   1.253   1.315  0.8449 -0.7309  1.6716
  926SOL     OW 2776   1.673   0.606   1.376 -0.2476 -0.4743 -0.1908
  926SOL    HW1 2777   1.756   0.664   1.388 -1.0926 -0.0378  1.9131
  926SOL    HW2 2778   1.603   0.619   1.449 -2.2121 -0.2212  2.7142
  927SOL     OW 2779   1.843   3.000   1.166 -0.1094  0.4155  0.7862
  927SOL    HW1 2780   1.913   2.940   1.209 -2.4267 -2.2350 -1.4195
  927SOL    HW2 2781   1.768   3.028   1.230  1.7524 -0.4412  2.1174
  928SOL     OW 2782   0.040   1.083   2.265 -0.1826  0.2489 -0.1908
  928SOL    HW1 2783   0.040   1.155   2.189  3.7641 -2.1069  1.9531
  928SOL    HW2 2784   0.091   1.000   2.237  1.8389 -2.0763 -0.7596
  929SOL     OW 2785   2.786   0.643   0.807 -0.5937 -0.8283  0.1091
  929SOL    HW1 2786   2.845   0.662   0.732  0.7383 -1.4005  1.3943
  929SOL    HW2 2787   2.746   0.730   0.844 -2.5439  0.8020 -0.0901
  930SOL     OW 2788   2.810   2.607   1.913 -0.1154  0.0534  0.5656
  930SOL    HW1 2789   2.829   2.692   1.967 -1.1053 -0.0079  1.3469
  930SOL    HW2 2790   2.893   2.556   1.881 -2.0727 -0.6781  3.2821
  931SOL     OW 2791   2.040   0.881   1.007 -0.0339 -0.2307  0.0239
  931SOL    HW1 2792   1.937   0.855   1.010 -3.6321 -2.3438 -2.0702
  931SOL    HW2 2793   2.071   0.905   1.099  2.7760 -0.3648  2.0445
  932SOL     OW 2794   0.174   1.177   1.859 -0.0234 -0.2169  0.1550
  932SOL    HW1 2795   0.188   1.083   1.816  1.2123 -0.3401 -1.7363
  932SOL    HW2 2796   0.215   1.253   1.800  1.3349 -1.4763 -2.8277
  933SOL     OW 2797   2.900   2.287   1.557 -0.0615 -0.7982  0.5378
  933SOL    HW1 2798   2.849   2.338   1.628  0.9245  0.0378 -3.0006
  933SOL    HW2 2799   2.839   2.266   1.475  2.1750  1.7308 -1.1506
  934SOL     OW 2800   0.733   2.053   1.570 -0.0067  0.1417  0.3806
  934SOL    HW1 2801   0.774   2.022   1.655 -1.8751  2.1503 -2.4778
  934SOL    HW2 2802   0.804   2.091   1.513 -1.4278  2.2634  3.7356
  935SOL     OW 2803   3.047   1.591   1.731  0.2016  0.2306 -0.0380
  935SOL    HW1 2804   3.022   1.492   1.745  0.9624  3.0040 -0.0627
  935SOL    HW2 2805   2.968   1.653   1.707 -0.3882  0.8984 -0.6501
  936SOL     OW 2806   2.565   1.471   1.676 -0.4335  0.0945  0.0135
  936SOL    HW1 2807   2.607   1.520   1.598 -1.3304  0.6482  1.8750
  936SOL    HW2 2808   2.628   1.397   1.714  1.7277  0.8936 -0.4197
  937SOL     OW 2809   1.722   0.907   1.521  0.2103  0.0166  0.2998
  937SOL    HW1 2810   1.786   0.879   1.443 -0.3901 -1.2269 -0.0829
  937SOL    HW2 2811   1.780   0.954   1.589  0.3023 -0.0346  2.3653
  938SOL     OW 2812   0.595   2.279   2.731  0.4587  0.7001  0.3130
  938SOL    HW1 2813   0.556   2.257   2.639  3.1819  0.2520  0.2918
  938SOL    HW2 2814   0.670   2.349   2.718  2.4996 -0.3101  0.9796
  939SOL     OW 2815   2.431   1.535   2.682 -0.2302 -0.3840 -0.1161
  939SOL    HW1 2816   2.438   1.534   2.785 -0.6900 -0.4929  2.5307
  939SOL    HW2 2817   2.473   1.621   2.648 -1.4967 -1.8279 -0.1224
  940SOL     OW 2818   1.674   1.752   0.408 -0.0541  0.1828 -0.0884
  940SOL    HW1 2819   1.593   1.740   0.468 -1.1440  1.4975  1.1486
  940SOL    HW2 2820   1.679   1.686   0.325  1.2204 -1.7296 -5.5251
  941SOL     OW 2821   2.081   2.751   2.754 -0.1347 -0.1408 -0.0433
  941SOL    HW1 2822   2.155   2.708   2.809  0.1614  3.3009 -1.3756
  941SOL    HW2 2823   2.106   2.755   2.654 -1.1034  0.0163  1.7551
  942SOL     OW 2824   1.048   2.629   0.417  0.2346 -0.0527 -0.0335
  942SOL    HW1 2825   1.130   2.575   0.447 -0.8489  0.4139  3.7502
  942SOL    HW2 2826   1.033   2.626   0.318 -0.1367 -2.0170  1.6546
  943SOL     OW 2827   2.281   1.004   1.626  0.2282  0.4700  0.3085
  943SOL    HW1 2828   2.320   1.003   1.724 -2.2858  0.4023  0.6701
  943SOL    HW2 2829   2.203   0.942   1.623  3.0973 -2.8272 -0.9082
  944SOL     OW 2830   1.235   0.942   2.955  0.1148  0.1516  0.2323
  944SOL    HW1 2831   1.235   0.884   3.034  1.9320 -1.2943 -0.8926
  944SOL    HW2 2832   1.144   0.984   2.939  0.0972 -0.1226  0.4224
  945SOL     OW 2833   2.715   2.213   1.373  0.0158 -0.3980  0.6552
  945SOL    HW1 2834   2.676   2.120   1.371 -0.9678 -1.3227  0.3957
  945SOL    HW2 2835   2.653   2.285   1.334 -1.5391  1.7028  2.2919
  946SOL     OW 2836   0.444   0.951   3.011  0.0285  0.1339 -0.0917
  946SOL    HW1 2837   0.412   1.034   3.064  1.2298  2.3494  1.7099
  946SOL    HW2 2838   0.482   0.975   2.920 -0.5974  0.5299  1.1086
  947SOL     OW 2839   1.885   0.253   2.048  0.4545  0.0911 -0.0099
  947SOL    HW1 2840   1.837   0.317   2.117 -0.2591  1.4059  2.2917
  947SOL    HW2 2841   1.953   0.192   2.089  0.0358  0.4613 -2.2691
  948SOL     OW 2842   3.028   2.002   0.865  0.1246 -0.3225 -0.0786
  948SOL    HW1 2843   2.991   1.982   0.956  2.7091  1.2829 -1.6572
  948SOL    HW2 2844   3.014   1.927   0.798 -0.1191 -2.6362  0.4219
  949SOL     OW 2845   1.296   1.273   1.717  0.6710  0.7584  0.0782
  949SOL    HW1 2846   1.225   1.200   1.693  1.5236  0.3194 -3.6364
  949SOL    HW2 2847   1.256   1.364   1.721 -0.4861 -3.5214  1.8895
  950SOL     OW 2848   0.258   0.991   0.904 -0.5881 -0.7459  0.7342
  950SOL    HW1 2849   0.296   0.902   0.891  0.9663  0.6533  2.9158
  950SOL    HW2 2850   0.328   1.061   0.920 -3.0144 -2.7237 -0.8670
  951SOL     OW 2851   0.262   1.717   2.283  0.1031  0.2831  0.2567
  951SOL    HW1 2852   0.234   1.692   2.380  0.4444 -0.0307 -0.3382
  951SOL    HW2 2853   0.349   1.768   2.284 -0.4666  0.3700  0.7503
  952SOL     OW 2854   1.703   1.438   0.245  0.0552 -0.5495 -0.3122
  952SOL    HW1 2855   1.699   1.340   0.252  0.0928  2.5764  1.9530
  952SOL    HW2 2856   1.629   1.469   0.190  1.8243 -0.1480  3.0247
  953SOL     OW 2857   1.011   0.555   0.103  0.0848  0.0749 -0.1023
  953SOL    HW1 2858   0.982   0.469   0.056  0.4537  0.6979  1.1859
  953SOL    HW2 2859   0.938   0.623   0.088 -1.4903 -2.1973  0.3986
  954SOL     OW 2860   1.848   1.044   0.308 -0.4793 -0.0848  0.5111
  954SOL    HW1 2861   1.821   1.095   0.394  0.0304 -0.0558  0.3174
  954SOL    HW2 2862   1.778   1.055   0.236  1.4571  0.2545  0.4301
  955SOL     OW 2863   2.585   2.594   2.633  0.4806  0.3357  0.7291
  955SOL    HW1 2864   2.663   2.626   2.577 -0.9179 -2.1349 -2.6762
  955SOL    HW2 2865   2.611   2.569   2.732  0.0249 -1.2562  0.8242
  956SOL     OW 2866   1.116   0.677   1.660 -0.7919 -0.0876  0.1677
  956SOL    HW1 2867   1.148   0.585   1.642  1.5843 -0.4735  0.3245
  956SOL    HW2 2868   1.178   0.744   1.618 -0.9190 -1.7964  0.9348
  957SOL     OW 2869   1.719   1.187   1.438 -0.1509  0.2014 -0.1024
  957SOL    HW1 2870   1.699   1.090   1.459 -2.9993 -0.3938  1.1628
  957SOL    HW2 2871   1.680   1.238   1.514 -2.4400  0.1175  1.7108
  958SOL     OW 2872   0.308   2.019   0.369  0.5360  0.7213  0.6300
  958SOL    HW1 2873   0.334   1.925   0.391 -0.6637  1.1097 -2.9727
  958SOL    HW2 2874   0.366   2.090   0.409  3.0427  0.4623 -1.8045
  959SOL     OW 2875   1.951   1.304   1.288  0.0708  0.5013  0.5876
  959SOL    HW1 2876   1.863   1.279   1.326 -0.1522 -0.3109 -1.1594
  959SOL    HW2 2877   1.989   1.392   1.325 -0.7918  1.4302  1.2089
  960SOL     OW 2878   3.040   1.480   2.780  0.2214  0.8411 -0.8767
  960SOL    HW1 2879   0.020   1.515   2.759 -1.6909 -1.2509  0.5635
  960SOL    HW2 2880   2.968   1.552   2.784  1.6062  0.3934  0.2167
  961SOL     OW 2881   1.035   1.797   0.507  0.0406 -0.8088  0.9898
  961SOL    HW1 2882   0.963   1.834   0.444 -0.6892 -0.3969 -1.4367
  961SOL    HW2 2883   1.088   1.720   0.468  1.3884  2.4322  0.5750
  962SOL     OW 2884   0.949   1.143   0.487  0.2464  0.0115  0.1623
  962SOL    HW1 2885   1.032   1.124   0.547  2.6752 -2.3582 -0.7530
  962SOL    HW2 2886   0.877   1.186   0.542  1.0527 -3.1728  0.6315
  963SOL     OW 2887   1.177   1.994   2.209  0.1505 -0.6884 -0.0131
  963SOL    HW1 2888   1.221   1.978   2.298 -2.1059 -0.2404 -0.7742
  963SOL    HW2 2889   1.143   1.902   2.171  1.5523 -0.7987 -0.0417
  964SOL     OW 2890   2.753   2.768   2.843 -0.1695  0.2958  0.0877
  964SOL    HW1 2891   2.764   2.794   2.939  0.4917 -0.0166  0.0180
  964SOL    HW2 2892   2.825   2.698   2.813  0.0341  2.5090 -0.3430
  965SOL     OW 2893   0.621   2.433   0.273 -0.4514  0.3273  0.3388
  965SOL    HW1 2894   0.655   2.433   0.171  2.6002 -1.8763 -2.3071
  965SOL    HW2 2895   0.686   2.491   0.325 -1.3437  0.4462 -0.8653
  966SOL     OW 2896   2.815   1.714   2.966  0.0574 -0.1960 -0.1119
  966SOL    HW1 2897   2.753   1.786   3.002 -0.9151 -0.2062  4.3923
  966SOL    HW2 2898   2.843   1.732   2.867  0.9393  1.5440  0.0295
  967SOL     OW 2899   1.993   3.019   2.808  0.0805  0.0650 -0.0666
  967SOL    HW1 2900   2.053   3.097   2.820 -3.2383 -2.1095 -1.9724
  967SOL    HW2 2901   2.049   2.930   2.800 -0.4335 -1.3689  0.8061
  968SOL     OW 2902   2.043   2.970   0.665 -0.2722  0.3485  0.2108
  968SOL    HW1 2903   1.996   2.883   0.695 -3.1238 -0.1644  3.1394
  968SOL    HW2 2904   2.045   3.037   0.743 -0.3016 -0.4306 -0.4474
  969SOL     OW 2905   0.859   0.948   2.368 -0.2528  0.2147 -0.0123
  969SOL    HW1 2906   0.869   0.860   2.420 -0.9751  2.4339 -1.8792
  969SOL    HW2 2907   0.762   0.977   2.364  0.1480  1.4963  2.8412
  970SOL     OW 2908   1.599   1.270   0.990 -0.0103  0.0383 -0.3850
  970SOL    HW1 2909   1.520   1.215   0.953  2.1015  0.3622 -2.0892
  970SOL    HW2 2910   1.599   1.268   1.092  1.5010  0.4363 -0.1223
  971SOL     OW 2911   2.251   3.112   1.393 -0.3849 -0.3118 -0.0215
  971SOL    HW1 2912   2.267   0.098   1.379 -0.9328  0.7682  0.3975
  971SOL    HW2 2913   2.276   3.068   1.308  1.3318  2.2464 -0.7240
  972SOL     OW 2914   3.093   2.983   1.663  0.8069 -0.3902 -0.2456
  972SOL    HW1 2915   0.006   2.955   1.755  1.3585 -2.6314 -1.7795
  972SOL    HW2 2916   3.051   2.904   1.612  2.9192  1.7474  0.8439
  973SOL     OW 2917   0.084   0.263   2.813  0.0105  0.6189  0.7707
  973SOL    HW1 2918   0.145   0.237   2.891 -4.1003  0.6295  0.2193
  973SOL    HW2 2919   3.101   0.234   2.828  2.2813  0.1942  0.7670
  974SOL     OW 2920   2.410   1.105   2.244  0.0973 -0.1262  0.6106
  974SOL    HW1 2921   2.488   1.070   2.294 -1.4227  1.3007  1.3730
  974SOL    HW2 2922   2.326   1.063   2.283  0.2188 -1.7326  0.2162
  975SOL     OW 2923   0.451   0.229   1.504  0.1692 -0.2895 -0.0284
  975SOL    HW1 2924   0.419   0.144   1.456 -1.6680 -1.0808 -1.8083
  975SOL    HW2 2925   0.551   0.239   1.517  0.1814  1.7088  2.4222
  976SOL     OW 2926   0.750   2.070   2.199  0.6423  0.5049 -0.5670
  976SOL    HW1 2927   0.671   2.133   2.174 -2.0765  0.5383  0.6348
  976SOL    HW2 2928   0.823   2.126   2.243 -0.3491 -1.6392  0.2574
  977SOL     OW 2929   0.648   3.094   0.477  0.3133  0.5527  0.2145
  977SOL    HW1 2930   0.639   0.048   0.400 -0.9494  0.2850 -0.5682
  977SOL    HW2 2931   0.591   0.010   0.557 -1.2308  2.8811  2.0814
  978SOL     OW 2932   2.890   1.380   2.117 -0.2970 -0.0074 -0.2321
  978SOL    HW1 2933   2.986   1.347   2.134  0.7142  0.9143  1.0730
  978SOL    HW2 2934   2.832   1.366   2.206 -3.7551 -1.2937  2.8305
  979SOL     OW 2935   1.713   0.121   1.872  0.0922  0.1327  0.0327
  979SOL    HW1 2936   1.678   0.199   1.811 -2.1652  1.3190  0.0329
  979SOL    HW2 2937   1.773   0.156   1.944 -1.0299  0.4477 -2.7468
  980SOL     OW 2938   1.859   1.613   1.641 -0.6212  0.2193 -0.5716
  980SOL    HW1 2939   1.919   1.602   1.555  0.7338 -1.8598 -2.7716
  980SOL    HW2 2940   1.761   1.584   1.632 -2.5629 -0.3785  2.3411
  981SOL     OW 2941   2.585   0.998   1.460 -0.6476  0.9144 -0.1038
  981SOL    HW1 2942   2.554   1.093   1.446  1.4523 -0.2444 -1.3190
  981SOL    HW2 2943   2.617   0.976   1.555 -0.3015 -1.6975  1.7297
  982SOL     OW 2944   0.404   2.956   2.833  0.2242  0.3410 -0.1780
  982SOL    HW1 2945   0.481   2.953   2.903  1.9117 -0.4721  1.5533
  982SOL    HW2 2946   0.395   2.871   2.782  1.3951  1.7607 -0.4906
  983SOL     OW 2947   2.798   0.523   2.496  0.0578  0.2748  0.1685
  983SOL    HW1 2948   2.849   0.612   2.501 -0.1389  1.8376 -0.6824
  983SOL    HW2 2949   2.803   0.480   2.407 -2.9920 -1.8263  3.9686
  984SOL     OW 2950   1.317   2.981   2.017 -0.4986 -0.0963 -0.4624
  984SOL    HW1 2951   1.407   3.008   1.972 -1.1448 -0.7844 -1.9809
  984SOL    HW2 2952   1.266   2.919   1.957 -1.0712 -0.9861  3.1061
  985SOL     OW 2953   1.817   2.057   2.112  0.1451 -0.1730 -0.1614
  985SOL    HW1 2954   1.742   2.089   2.049 -3.5850 -0.6308  0.7394
  985SOL    HW2 2955   1.871   1.989   2.059 -2.1418 -1.9888 -3.2618
  986SOL     OW 2956   2.341   0.571   1.252  0.4236  0.3674  0.3899
  986SOL    HW1 2957   2.396   0.490   1.271  0.9870 -0.0378 -3.5447
  986SOL    HW2 2958   2.370   0.637   1.323  2.8709 -0.4969 -1.9859
  987SOL     OW 2959   2.757   1.110   1.273  0.2006 -0.5338 -0.2205
  987SOL    HW1 2960   2.705   1.084   1.356 -0.9636 -1.4036  2.7823
  987SOL    HW2 2961   2.691   1.115   1.196 -1.7426 -2.4959 -1.8547
  988SOL     OW 2962   2.866   1.146   1.926  0.2197 -0.3163  0.6160
  988SOL    HW1 2963   2.892   1.225   1.980 -2.5705 -2.2104  0.0772
  988SOL    HW2 2964   2.764   1.129   1.942  0.2562 -0.2393  1.6087
  989SOL     OW 2965   1.198   2.384   0.250  0.3227  0.0177 -0.2516
  989SOL    HW1 2966   1.275   2.423   0.195  0.9299  0.2521  0.3090
  989SOL    HW2 2967   1.214   2.287   0.258 -1.6647  1.3736 -0.4075
  990SOL     OW 2968   1.571   0.609   2.708  0.0157  0.3442  0.2102
  990SOL    HW1 2969   1.570   0.582   2.608  0.1522  1.3439  0.6675
  990SOL    HW2 2970   1.527   0.701   2.727  1.5675  1.1649 -0.3016
  991SOL     OW 2971   1.301   0.702   0.427 -0.4679 -0.0560  0.1060
  991SOL    HW1 2972   1.300   0.741   0.522 -1.4596  1.4508  0.4063
  991SOL    HW2 2973   1.400   0.688   0.396  2.9133 -0.2109  1.6138
  992SOL     OW 2974   2.824   1.935   1.082  0.0414  0.0887 -0.2981
  992SOL    HW1 2975   2.781   2.026   1.060 -2.8215  0.2354  1.0534
  992SOL    HW2 2976   2.794   1.906   1.176  0.6444  1.6786  0.8715
  993SOL     OW 2977   2.950   0.528   0.990  0.2157 -0.2042  0.0198
  993SOL    HW1 2978   2.904   0.594   0.927 -0.1810  0.1599  0.3674
  993SOL    HW2 2979   3.021   0.465   0.951 -0.3374  0.9811 -0.0661
  994SOL     OW 2980   0.123   1.967   2.567 -0.2102  0.1703  0.6408
  994SOL    HW1 2981   0.175   2.016   2.634 -1.1062 -1.5223 -0.9859
  994SOL    HW2 2982   0.138   2.001   2.471  0.8589 -1.5113  0.1291
  995SOL     OW 2983   1.937   0.766   2.802 -0.4711 -0.4647 -0.0826
  995SOL    HW1 2984   1.881   0.689   2.842 -0.4662 -0.6098 -1.3654
  995SOL    HW2 2985   1.900   0.803   2.712 -0.6061  1.6379 -0.6932
  996SOL     OW 2986   2.984   1.382   0.567  0.0285 -0.2115  0.3340
  996SOL    HW1 2987   2.947   1.292   0.587  1.5562  1.4571  1.9534
  996SOL    HW2 2988   3.023   1.398   0.474 -0.3716  0.3858 -0.6022
  997SOL     OW 2989   1.775   0.679   2.215 -0.6907  0.1336 -0.3420
  997SOL    HW1 2990   1.822   0.678   2.301 -2.3866  0.7758 -1.2343
  997SOL    HW2 2991   1.811   0.749   2.151  2.4834  1.5772 -0.5523
  998SOL     OW 2992   2.823   1.545   0.290 -0.2400  0.4320  0.3246
  998SOL    HW1 2993   2.799   1.644   0.303  0.7501 -0.9466 -1.3924
  998SOL    HW2 2994   2.923   1.523   0.292 -2.4348  0.6679 -0.3872
  999SOL     OW 2995   2.940   2.386   0.136 -0.2249 -0.2831  0.1836
  999SOL    HW1 2996   2.981   2.294   0.131  1.4676  0.1236 -0.5300
  999SOL    HW2 2997   2.930   2.411   0.231 -1.3845 -0.9704 -0.8789
 1000SOL     OW 2998   0.875   0.777   2.673  0.1577 -0.0711  0.7902
 1000SOL    HW1 2999   0.880   0.741   2.766 -2.3813  3.0390  0.5226
 1000SOL    HW2 3000   0.943   0.747   2.607 -1.0294 -1.4214  1.2555
   3.11251   3.11251   3.11251
