1000 SPC/Fw water molecules t= 444.00000 step= 444000
 3000
    1SOL     OW    1   0.018   0.064   1.391  0.2074  0.2237 -0.1971
    1SOL    HW1    2   0.109   0.063   1.349 -1.4043 -0.4292  1.3745
    1SOL    HW2    3   3.109   3.093   1.397 -1.3908  0.1247  0.0445
    2SOL     OW    4   2.785   3.069   0.013 -0.2107  0.2601 -0.4384
    2SOL    HW1    5   2.875   3.036   0.052  0.1519 -0.1991  1.0345
    2SOL    HW2    6   2.730   3.096   0.092  0.8979  0.0009  1.3611
    3SOL     OW    7   1.191   2.700   0.152  0.1777 -0.3826  0.2696
    3SOL    HW1    8   1.189   2.627   0.078 -2.2589  0.3617 -1.0324
    3SOL    HW2    9   1.283   2.745   0.155  2.3293 -0.0397 -1.2320
    4SOL     OW   10   1.303   2.766   2.462 -0.7022 -0.0495 -0.0022
    4SOL    HW1   11   1.335   2.676   2.435 -2.1133  0.0107 -0.1282
    4SOL    HW2   12   1.226   2.754   2.532 -1.6692 -0.2042  2.1170
    5SOL     OW   13   2.282   0.473   1.578  0.2895 -0.4223 -0.0129
    5SOL    HW1   14   2.237   0.566   1.557  0.1059  0.9415 -0.8940
    5SOL    HW2   15   2.376   0.456   1.532  1.5999 -1.7140 -0.7564
    6SOL     OW   16   2.591   2.149   0.916 -0.0379 -0.6497  0.2274
    6SOL    HW1   17   2.692   2.153   0.909 -0.5349  0.0176  1.1358
    6SOL    HW2   18   2.559   2.131   1.008  0.7863  1.2948 -0.8468
    7SOL     OW   19   1.449   1.744   0.640 -0.4472 -0.2126 -0.2015
    7SOL    HW1   20   1.368   1.771   0.584 -1.1487  0.0760  0.0045
    7SOL    HW2   21   1.429   1.741   0.737 -1.6176  0.9731 -2.6473
    8SOL     OW   22   0.393   0.918   0.867 -0.5295 -0.1697 -0.5200
    8SOL    HW1   23   0.452   0.999   0.901  2.0986  0.8561  2.2049
    8SOL    HW2   24   0.410   0.903   0.769  0.1942 -2.2818  2.3465
    9SOL     OW   25   0.232   3.017   1.511  0.4207 -0.6517  0.1037
    9SOL    HW1   26   0.285   3.106   1.529  2.0656  1.6792 -2.2386
    9SOL    HW2   27   0.151   3.007   1.571  1.9564  1.2796 -0.6804
   10SOL     OW   28   1.232   2.368   0.600  0.4851  0.3713  0.4366
   10SOL    HW1   29   1.331   2.345   0.621  1.8688  0.5937 -0.1697
   10SOL    HW2   30   1.200   2.450   0.652  0.2366  1.9768 -0.3058
   11SOL     OW   31   2.017   1.402   1.165 -0.1392  0.2030  0.5185
   11SOL    HW1   32   1.977   1.355   1.084  0.4497  1.1482 -0.1972
   11SOL    HW2   33   1.975   1.497   1.183 -2.1340  0.7716  0.9533
   12SOL     OW   34   0.177   1.028   2.012  0.5906  0.4558  0.2519
   12SOL    HW1   35   0.176   1.037   1.909  0.7025  1.8531 -0.3350
   12SOL    HW2   36   0.237   0.952   2.042 -0.4258  1.6239  0.2843
   13SOL     OW   37   2.378   3.035   0.142 -0.3927 -0.0213 -0.2239
   13SOL    HW1   38   2.406   2.941   0.164 -0.1262  1.6126 -2.1983
   13SOL    HW2   39   2.342   3.043   0.047  0.6662 -0.1356  0.8691
   14SOL     OW   40   1.390   2.024   0.231  0.4830  0.3981 -0.2116
   14SOL    HW1   41   1.381   1.987   0.325  0.0930  0.4726 -1.3991
   14SOL    HW2   42   1.369   2.122   0.221  1.1456  0.0469  0.1345
   15SOL     OW   43   2.857   2.361   1.809  0.0160  0.3199 -0.2897
   15SOL    HW1   44   2.930   2.404   1.754 -3.3487 -1.2597 -0.1642
   15SOL    HW2   45   2.827   2.415   1.887 -0.7497 -0.7030  0.6840
   16SOL     OW   46   2.918   0.431   0.959 -0.4754 -0.3312  0.1809
   16SOL    HW1   47   2.973   0.351   0.982  0.0867 -2.2403  0.6150
   16SOL    HW2   48   2.880   0.480   1.039  2.6594 -0.7903  1.4183
   17SOL     OW   49   0.814   0.241   0.913  0.4474  0.0224  0.0432
   17SOL    HW1   50   0.891   0.270   0.851  0.7183  1.5411  1.7321
   17SOL    HW2   51   0.813   0.141   0.925  0.4504  2.1598  2.0963
   18SOL     OW   52   0.811   2.836   0.612  0.3625 -0.4127  0.0073
   18SOL    HW1   53   0.843   2.765   0.552  2.9096  0.9064  0.2560
   18SOL    HW2   54   0.851   2.817   0.701  1.2273  0.9264 -2.7419
   19SOL     OW   55   1.605   1.040   1.124  0.1868 -0.4271  0.1724
   19SOL    HW1   56   1.521   1.074   1.076  0.8377 -0.7092  4.0084
   19SOL    HW2   57   1.582   1.027   1.220  1.6156  0.2311 -1.8838
   20SOL     OW   58   2.211   1.770   2.681 -0.3869 -0.4620  0.3137
   20SOL    HW1   59   2.113   1.735   2.689 -0.4653 -0.7271 -1.0389
   20SOL    HW2   60   2.224   1.861   2.722  0.7341 -0.4341 -2.7034
   21SOL     OW   61   1.426   2.996   0.327 -0.3055  0.2789 -0.4990
   21SOL    HW1   62   1.443   2.912   0.274  4.5612  2.7817  0.1131
   21SOL    HW2   63   1.519   3.031   0.357  0.5102  2.6690  0.5222
   22SOL     OW   64   2.698   0.933   0.405 -1.0434  0.0745 -0.0121
   22SOL    HW1   65   2.665   0.897   0.495  1.0575  0.7305  2.8595
   22SOL    HW2   66   2.628   0.995   0.359 -3.0100  1.6226  1.4230
   23SOL     OW   67   0.847   0.311   1.884 -0.1636  0.5814  0.1780
   23SOL    HW1   68   0.935   0.323   1.839 -2.2211 -0.6175  0.0027
   23SOL    HW2   69   0.782   0.383   1.856  0.0666 -0.5330  4.2025
   24SOL     OW   70   1.898   2.405   0.470  0.1973 -0.0623 -0.2968
   24SOL    HW1   71   1.961   2.347   0.530 -0.5923 -0.4466  0.8968
   24SOL    HW2   72   1.822   2.348   0.426 -1.2966 -0.9378 -2.9311
   25SOL     OW   73   1.934   0.360   2.422  0.5638 -0.0210  0.0369
   25SOL    HW1   74   1.893   0.278   2.466 -2.4700  0.6139  1.5886
   25SOL    HW2   75   1.905   0.384   2.327 -1.3923  2.5565 -0.1246
   26SOL     OW   76   1.499   2.754   2.839  0.5192  0.6457 -0.1713
   26SOL    HW1   77   1.577   2.747   2.904 -0.4356 -2.2572 -0.1564
   26SOL    HW2   78   1.494   2.669   2.779  1.0201  1.0809 -1.7805
   27SOL     OW   79   1.348   0.370   1.146  0.0061 -0.0283 -0.1957
   27SOL    HW1   80   1.322   0.389   1.054  0.0805  0.0435  3.5708
   27SOL    HW2   81   1.269   0.363   1.203 -1.0167 -4.3045 -4.7515
   28SOL     OW   82   0.535   1.561   0.931  0.3989  0.1011  0.3534
   28SOL    HW1   83   0.585   1.491   0.984  2.0035 -0.9154 -0.9308
   28SOL    HW2   84   0.479   1.616   0.994  0.9042  4.1602 -0.7257
   29SOL     OW   85   2.495   0.609   1.212 -0.1056 -0.4597 -0.4963
   29SOL    HW1   86   2.540   0.663   1.138 -0.3498 -0.2301  3.1770
   29SOL    HW2   87   2.556   0.534   1.244  2.3364 -2.1131 -0.3898
   30SOL     OW   88   1.636   2.387   1.382 -0.0925  0.2013 -0.0817
   30SOL    HW1   89   1.596   2.295   1.407 -1.1572 -0.5079  1.1644
   30SOL    HW2   90   1.592   2.429   1.299 -0.4841  2.2479  0.7929
   31SOL     OW   91   1.728   2.790   1.398  1.0866  0.0595 -0.2573
   31SOL    HW1   92   1.781   2.707   1.423 -0.1626 -0.4811  1.8145
   31SOL    HW2   93   1.734   2.816   1.297 -2.4323  1.4524 -0.3741
   32SOL     OW   94   2.035   1.508   2.199 -0.5588  0.1066  0.0882
   32SOL    HW1   95   2.045   1.438   2.128  0.0346 -0.9897  2.2545
   32SOL    HW2   96   2.122   1.560   2.198  0.8136 -0.3673 -0.7099
   33SOL     OW   97   2.534   0.008   2.410 -0.2109 -0.4279 -0.5674
   33SOL    HW1   98   2.584   0.075   2.353  0.7867  0.2221  3.0219
   33SOL    HW2   99   2.479   3.060   2.364  0.6928 -0.2610 -1.3097
   34SOL     OW  100   2.078   0.375   0.721  0.3107  0.6492  0.8096
   34SOL    HW1  101   2.098   0.375   0.621  2.3716 -0.3092 -1.1345
   34SOL    HW2  102   1.994   0.428   0.744 -0.6305 -1.3471 -0.0615
   35SOL     OW  103   0.233   1.682   1.784  0.0540  0.5720 -0.5981
   35SOL    HW1  104   0.186   1.591   1.776  0.0676  0.3939 -1.4915
   35SOL    HW2  105   0.323   1.676   1.831 -0.0529 -0.1310 -0.0649
   36SOL     OW  106   2.551   2.214   2.741  0.8185 -0.0817 -0.4511
   36SOL    HW1  107   2.486   2.138   2.760 -0.1457 -0.8165  1.9102
   36SOL    HW2  108   2.593   2.254   2.825 -1.7478  0.6762  0.4759
   37SOL     OW  109   1.332   3.052   1.780 -0.2247 -0.2564 -0.2027
   37SOL    HW1  110   1.298   3.054   1.876  0.1920  0.0220  0.5564
   37SOL    HW2  111   1.407   2.988   1.767 -0.3494  2.2149  1.9783
   38SOL     OW  112   0.960   0.733   2.432 -0.6324  0.1986  0.5119
   38SOL    HW1  113   1.030   0.747   2.506 -1.1951 -0.2209  0.6658
   38SOL    HW2  114   0.983   0.794   2.352  0.4943  0.7302  0.4272
   39SOL     OW  115   1.821   0.894   1.565  0.0348 -0.2140 -0.2453
   39SOL    HW1  116   1.916   0.931   1.560 -1.0325 -0.7858  2.8042
   39SOL    HW2  117   1.757   0.967   1.587  1.4893  2.1265  1.4622
   40SOL     OW  118   0.841   2.393   0.737  0.3154  0.0685  0.3935
   40SOL    HW1  119   0.933   2.360   0.702 -0.3336  1.3611 -0.8752
   40SOL    HW2  120   0.791   2.322   0.782  2.1252  2.6628 -3.5167
   41SOL     OW  121   2.254   2.111   1.168  0.6204 -0.3296 -0.0698
   41SOL    HW1  122   2.240   2.201   1.119  2.4476  0.9196 -0.3136
   41SOL    HW2  123   2.261   2.041   1.100 -1.7920 -0.5119  2.0253
   42SOL     OW  124   2.801   0.380   0.288 -0.2674  0.2838  0.7434
   42SOL    HW1  125   2.729   0.352   0.353 -0.5035  1.3161 -1.6571
   42SOL    HW2  126   2.763   0.406   0.196  0.7146  1.0357 -0.2549
   43SOL     OW  127   0.837   1.084   2.614 -0.1218  0.0614  0.4938
   43SOL    HW1  128   0.791   1.008   2.663  1.4259  2.2310 -1.0179
   43SOL    HW2  129   0.768   1.153   2.578 -0.1204  0.3024  0.8426
   44SOL     OW  130   1.872   2.552   1.374 -0.1123 -0.4884  0.2867
   44SOL    HW1  131   1.802   2.481   1.376  0.8139  1.1154  1.6654
   44SOL    HW2  132   1.957   2.518   1.324  1.4192  0.5033  0.6117
   45SOL     OW  133   0.906   2.638   2.897  0.2196  0.5003 -0.0023
   45SOL    HW1  134   0.880   2.686   2.987 -0.4956 -0.2236  2.0064
   45SOL    HW2  135   0.907   2.707   2.821 -0.3114  1.9288 -0.8247
   46SOL     OW  136   0.408   2.710   2.086  0.1506  0.7866  0.4041
   46SOL    HW1  137   0.478   2.783   2.098 -1.7224  1.7479  0.9602
   46SOL    HW2  138   0.373   2.668   2.172  0.6314  0.1002 -3.5002
   47SOL     OW  139   0.487   1.992   0.525  0.2015  0.1107  0.1533
   47SOL    HW1  140   0.517   1.906   0.482 -0.8881 -1.9310  0.2494
   47SOL    HW2  141   0.440   1.979   0.612  2.3636  0.8159 -1.3786
   48SOL     OW  142   0.806   2.867   1.280 -0.6002 -0.3904  0.1856
   48SOL    HW1  143   0.817   2.810   1.364 -2.5019 -2.2771 -0.4830
   48SOL    HW2  144   0.768   2.812   1.201 -1.3295 -1.5446 -0.4732
   49SOL     OW  145   2.953   2.854   2.864 -0.1240 -0.1913  0.6575
   49SOL    HW1  146   2.876   2.875   2.794 -1.4359  1.0427 -1.4955
   49SOL    HW2  147   2.966   2.942   2.915 -0.8137 -0.1334  0.2691
   50SOL     OW  148   1.404   1.192   0.239  0.3856  0.6275  0.4582
   50SOL    HW1  149   1.342   1.204   0.160  2.7324 -0.2459  1.6008
   50SOL    HW2  150   1.409   1.097   0.274  0.0545  2.8300 -1.6756
   51SOL     OW  151   2.004   0.006   0.484 -0.2116  0.5629  0.2888
   51SOL    HW1  152   1.999   0.082   0.414  1.5728  3.4395  0.5539
   51SOL    HW2  153   2.018   0.051   0.573  0.7796  0.5737 -3.3324
   52SOL     OW  154   0.604   1.755   0.729 -0.3887 -0.4007 -0.1567
   52SOL    HW1  155   0.570   1.710   0.818 -0.5374  0.2588  0.5149
   52SOL    HW2  156   0.706   1.763   0.717 -1.6157 -1.2807  0.6821
   53SOL     OW  157   0.381   1.234   2.987  0.2946  0.1485 -0.3587
   53SOL    HW1  158   0.286   1.222   2.947 -1.4300  1.7531 -0.1256
   53SOL    HW2  159   0.371   1.218   3.090  0.3598 -0.9624 -1.9390
   54SOL     OW  160   2.500   1.996   3.059 -0.4483 -0.1377  0.4226
   54SOL    HW1  161   2.525   1.949   0.023  1.0878  0.2743 -1.7565
   54SOL    HW2  162   2.562   1.973   2.974  1.5900 -0.8416 -3.7933
   55SOL     OW  163   2.797   2.179   1.149 -0.6390  0.2998  0.0458
   55SOL    HW1  164   2.770   2.089   1.190 -1.8132  0.5232  0.1068
   55SOL    HW2  165   2.893   2.205   1.177 -0.2829 -3.8044  0.8657
   56SOL     OW  166   1.642   0.160   1.582  0.3242  0.4762 -0.3985
   56SOL    HW1  167   1.681   0.234   1.523  1.2676  0.3665  0.6399
   56SOL    HW2  168   1.673   0.167   1.681  0.6841 -0.4507  0.0229
   57SOL     OW  169   1.862   1.671   1.175 -0.4391  0.0795  0.5112
   57SOL    HW1  170   1.883   1.758   1.221  0.7773 -1.3055  0.4121
   57SOL    HW2  171   1.820   1.602   1.238  1.4619  1.9431  2.5516
   58SOL     OW  172   2.634   0.274   1.833  0.2897 -0.1801  0.8377
   58SOL    HW1  173   2.597   0.371   1.821 -0.2562  1.5830 -1.2714
   58SOL    HW2  174   2.713   0.280   1.894  1.7608  0.1745  0.8360
   59SOL     OW  175   1.091   2.520   2.144  0.0636  0.6260  0.5215
   59SOL    HW1  176   1.067   2.579   2.225 -2.0892 -0.0018  1.8402
   59SOL    HW2  177   1.011   2.470   2.100 -2.6291 -1.2721 -0.3722
   60SOL     OW  178   0.852   2.823   2.699 -0.4727  0.2020  0.1202
   60SOL    HW1  179   0.821   2.849   2.603  0.9052 -0.6028 -1.9006
   60SOL    HW2  180   0.777   2.853   2.762 -3.6245 -1.8047  2.3700
   61SOL     OW  181   0.607   2.199   0.421 -0.0047 -0.9030 -0.5040
   61SOL    HW1  182   0.623   2.174   0.323  0.1787  0.5505  1.0175
   61SOL    HW2  183   0.555   2.126   0.476  1.0765  0.6971  0.2971
   62SOL     OW  184   1.091   1.535   1.824  0.0336  0.1855 -0.5783
   62SOL    HW1  185   1.011   1.567   1.771  0.8045  0.5489 -0.5247
   62SOL    HW2  186   1.114   1.601   1.904  1.7174  3.6102  1.5850
   63SOL     OW  187   0.940   2.030   0.803 -0.1858  0.3946 -0.1680
   63SOL    HW1  188   0.912   1.931   0.785  0.3955  0.6203 -0.7098
   63SOL    HW2  189   0.962   2.073   0.711 -0.4444 -0.7186 -0.7873
   64SOL     OW  190   1.306   1.630   2.766  0.0060  0.2512 -0.0584
   64SOL    HW1  191   1.232   1.649   2.831  2.9207 -1.7979 -1.6661
   64SOL    HW2  192   1.293   1.533   2.737 -0.3019 -1.7441  1.2353
   65SOL     OW  193   1.510   2.163   2.315  0.3548 -0.0709  0.3984
   65SOL    HW1  194   1.570   2.097   2.258 -2.9046 -3.4163 -0.1740
   65SOL    HW2  195   1.525   2.154   2.416  1.9530 -0.7233 -3.6192
   66SOL     OW  196   0.041   0.716   1.022  0.1900 -0.1764 -0.1236
   66SOL    HW1  197   3.072   0.720   1.071 -2.2695  2.0571 -1.9642
   66SOL    HW2  198   0.058   0.620   0.985  1.7297 -5.7541  1.1099
   67SOL     OW  199   2.366   2.399   0.407 -0.0561 -0.5059  0.3230
   67SOL    HW1  200   2.318   2.312   0.409 -1.1671  1.1857  0.1107
   67SOL    HW2  201   2.324   2.457   0.337  0.8267 -0.8510 -1.0290
   68SOL     OW  202   2.660   2.614   1.292  0.0381  0.2166 -0.0551
   68SOL    HW1  203   2.749   2.661   1.297 -1.3740 -1.5221  1.7233
   68SOL    HW2  204   2.667   2.522   1.343 -2.4809 -1.6791  0.5380
   69SOL     OW  205   2.661   2.631   2.860 -0.2050 -0.0706 -0.3317
   69SOL    HW1  206   2.691   2.577   2.778 -2.3641 -0.0150 -1.6228
   69SOL    HW2  207   2.582   2.685   2.843 -1.0481 -0.1032 -1.0818
   70SOL     OW  208   0.481   1.364   2.717  0.1650  0.4524 -0.0444
   70SOL    HW1  209   0.565   1.338   2.668 -0.5935 -0.8595  3.1117
   70SOL    HW2  210   0.464   1.292   2.786  1.4552 -1.1507 -0.4084
   71SOL     OW  211   0.878   1.126   2.076  0.5812  0.3666  0.2122
   71SOL    HW1  212   0.800   1.107   2.019 -1.9602 -1.1916  2.8006
   71SOL    HW2  213   0.917   1.216   2.047  1.2495 -1.8761 -0.0242
   72SOL     OW  214   2.532   1.273   1.829 -0.5774  0.3947 -0.2158
   72SOL    HW1  215   2.555   1.191   1.884 -2.5580  2.7531  0.0091
   72SOL    HW2  216   2.606   1.347   1.840  0.4689  3.1877  1.6101
   73SOL     OW  217   0.633   2.030   2.702  0.3538 -0.1769  0.0450
   73SOL    HW1  218   0.585   2.087   2.638  0.8943 -1.9822  0.2667
   73SOL    HW2  219   0.670   1.949   2.655 -1.1936  0.7816  1.2084
   74SOL     OW  220   1.530   2.855   1.763  0.1354 -0.4649  0.1627
   74SOL    HW1  221   1.498   2.829   1.858  0.7272  0.6408  1.6267
   74SOL    HW2  222   1.630   2.842   1.747 -0.0091  0.3967  1.2829
   75SOL     OW  223   1.280   2.640   0.993  0.0487  0.2394  0.0969
   75SOL    HW1  224   1.272   2.550   1.046  1.4582 -2.3769  1.4036
   75SOL    HW2  225   1.375   2.673   0.987  0.1688 -1.4610  2.0984
   76SOL     OW  226   0.513   1.862   2.904 -0.0156  0.4631  1.0410
   76SOL    HW1  227   0.537   1.929   2.834 -1.5900 -2.9340 -1.5464
   76SOL    HW2  228   0.544   1.766   2.877 -0.7967 -4.5233 -0.3767
   77SOL     OW  229   0.481   2.531   1.198 -0.5791 -0.1047 -0.3299
   77SOL    HW1  230   0.476   2.628   1.165 -0.8957  0.1424  1.2595
   77SOL    HW2  231   0.576   2.498   1.205 -2.3085  1.9205 -1.4079
   78SOL     OW  232   2.731   1.290   0.197 -0.4209  0.2532 -0.6759
   78SOL    HW1  233   2.826   1.259   0.163  3.3811  2.7043  0.7254
   78SOL    HW2  234   2.733   1.378   0.252 -2.6963  0.4683  0.4193
   79SOL     OW  235   0.533   1.678   3.123  0.4584 -0.2431 -0.1431
   79SOL    HW1  236   0.532   1.584   3.084  0.2145 -2.3568 -0.0686
   79SOL    HW2  237   0.505   1.743   3.046 -0.8026 -0.5499 -3.6187
   80SOL     OW  238   1.893   1.782   1.640  0.3435  0.2181 -0.3742
   80SOL    HW1  239   1.864   1.762   1.735 -0.4418  0.7846  1.3307
   80SOL    HW2  240   1.834   1.858   1.602 -0.9495  0.9826  2.7495
   81SOL     OW  241   2.320   0.907   2.288  0.1447  0.3063  0.4372
   81SOL    HW1  242   2.274   0.830   2.336  1.8369 -2.0019 -1.7123
   81SOL    HW2  243   2.314   0.993   2.341  2.1584  0.4584 -2.9435
   82SOL     OW  244   1.578   1.509   1.596  0.1353 -0.2249 -0.2215
   82SOL    HW1  245   1.663   1.473   1.645 -1.1975  0.6032  1.5235
   82SOL    HW2  246   1.495   1.498   1.657 -1.4445  0.1273 -0.8756
   83SOL     OW  247   0.271   0.202   2.914 -0.1877  0.3216  0.1770
   83SOL    HW1  248   0.214   0.143   2.850 -0.9523 -2.2302  0.3930
   83SOL    HW2  249   0.292   0.145   2.998 -3.0878 -0.5830 -1.3538
   84SOL     OW  250   0.680   1.353   0.299 -0.1042 -0.1876  0.0809
   84SOL    HW1  251   0.691   1.268   0.243 -1.2670 -0.4339  1.2052
   84SOL    HW2  252   0.745   1.425   0.265 -1.3296 -0.9751  0.5336
   85SOL     OW  253   2.317   1.681   1.326 -0.0215  0.5133 -0.4024
   85SOL    HW1  254   2.306   1.580   1.321  0.0067  1.5844  2.3788
   85SOL    HW2  255   2.421   1.696   1.334  0.7601  0.9698 -1.3239
   86SOL     OW  256   0.654   0.605   1.121 -0.1529  1.0019  0.1805
   86SOL    HW1  257   0.678   0.693   1.077 -1.5916 -0.0794 -0.2512
   86SOL    HW2  258   0.673   0.617   1.219 -0.0518  0.7736 -1.9799
   87SOL     OW  259   2.558   2.229   2.473  0.2975 -0.2774  0.2392
   87SOL    HW1  260   2.568   2.250   2.572 -0.4976 -1.8470 -3.1189
   87SOL    HW2  261   2.471   2.177   2.468  1.8700 -0.5602 -1.6405
   88SOL     OW  262   0.157   3.002   0.096  0.2607 -0.3058  0.2260
   88SOL    HW1  263   0.203   3.082   0.053 -0.1238 -1.3607  1.1344
   88SOL    HW2  264   0.227   2.929   0.109 -1.3887  1.7090 -0.9851
   89SOL     OW  265   1.623   3.058   0.117 -0.5773  0.2463 -0.1639
   89SOL    HW1  266   1.525   3.083   0.090  0.4454 -1.2367  0.0004
   89SOL    HW2  267   1.643   3.100   0.207  1.4273 -1.4502 -2.3050
   90SOL     OW  268   3.018   1.526   2.371  0.4244 -0.1590 -0.4565
   90SOL    HW1  269   2.977   1.498   2.462 -0.4737  1.8606  2.4679
   90SOL    HW2  270   3.018   1.440   2.313  1.8012  1.3872 -0.7847
   91SOL     OW  271   2.085   2.860   1.082 -0.6236 -0.0597 -0.3939
   91SOL    HW1  272   2.146   2.848   1.159 -0.3698  1.2194  0.2433
   91SOL    HW2  273   2.132   2.839   0.995 -2.6474 -1.3385  1.0402
   92SOL     OW  274   1.661   1.302   0.837 -0.4456  0.0576  0.2463
   92SOL    HW1  275   1.618   1.211   0.818 -0.8183  0.6655  1.3891
   92SOL    HW2  276   1.602   1.363   0.895 -0.7470  0.4960 -1.3054
   93SOL     OW  277   0.232   1.604   0.098 -0.3668  0.6174 -0.5610
   93SOL    HW1  278   0.196   1.676   0.162 -0.2732  1.7625  3.0317
   93SOL    HW2  279   0.322   1.648   0.072 -0.0052  2.6427 -1.4854
   94SOL     OW  280   0.990   2.544   1.378  0.2589 -0.5110  0.2233
   94SOL    HW1  281   1.088   2.538   1.387 -0.9900  0.3631  1.1399
   94SOL    HW2  282   0.956   2.632   1.410  0.8073  0.0389  1.1194
   95SOL     OW  283   0.113   0.691   0.666  0.5535 -0.2505 -0.0455
   95SOL    HW1  284   0.109   0.784   0.712 -0.6493 -0.4734 -0.1042
   95SOL    HW2  285   0.098   0.623   0.735  1.2295  1.0125 -3.1405
   96SOL     OW  286   0.617   2.890   1.828 -0.3802 -0.6762  0.5092
   96SOL    HW1  287   0.717   2.873   1.802 -0.7308  2.9151 -0.4022
   96SOL    HW2  288   0.555   2.847   1.763 -0.1600  3.8352  0.1480
   97SOL     OW  289   2.265   0.618   0.791 -0.2313 -0.1882  0.1867
   97SOL    HW1  290   2.166   0.630   0.775  2.9369 -1.6967  0.9410
   97SOL    HW2  291   2.312   0.709   0.803 -0.6729  2.7242  1.6045
   98SOL     OW  292   3.068   2.490   1.626  0.2478 -0.4355 -0.3580
   98SOL    HW1  293   3.019   2.477   1.539  2.3939 -0.1390 -1.5732
   98SOL    HW2  294   0.004   2.567   1.621 -5.1831 -1.2999 -0.2246
   99SOL     OW  295   2.842   0.419   1.499  0.2961 -0.7543  0.3887
   99SOL    HW1  296   2.839   0.325   1.537 -0.0081  2.1376  1.0470
   99SOL    HW2  297   2.804   0.486   1.571  0.2393  1.8041  0.8984
  100SOL     OW  298   2.091   0.456   2.625 -0.6181  0.0211  0.2020
  100SOL    HW1  299   2.195   0.456   2.609  0.3605 -2.2096  0.2525
  100SOL    HW2  300   2.035   0.412   2.555 -0.6284  2.8305  0.6990
  101SOL     OW  301   0.830   0.013   2.268  0.7498  0.0528  0.1598
  101SOL    HW1  302   0.853   3.040   2.237 -0.1052  2.5837  1.5123
  101SOL    HW2  303   0.917   0.057   2.298 -0.7711  0.5573  3.1971
  102SOL     OW  304   0.919   0.710   1.726  0.1854  0.6536 -0.5384
  102SOL    HW1  305   1.012   0.668   1.713 -1.3252  1.1202  0.4427
  102SOL    HW2  306   0.881   0.758   1.643 -0.9809 -2.1723  1.6308
  103SOL     OW  307   1.014   0.774   2.804 -0.6398 -0.3454  0.0505
  103SOL    HW1  308   1.056   0.791   2.710 -0.1728  1.8071 -1.3895
  103SOL    HW2  309   0.925   0.737   2.802  3.8583  2.3945  1.3288
  104SOL     OW  310   0.472   0.259   1.945  0.5071  0.4209 -0.0585
  104SOL    HW1  311   0.549   0.264   2.008 -1.0203 -0.0402 -2.6626
  104SOL    HW2  312   0.480   0.181   1.883 -0.8239  0.4840  0.5949
  105SOL     OW  313   2.713   2.387   1.449  0.2894  0.4660  0.2350
  105SOL    HW1  314   2.699   2.285   1.441  1.7346 -0.5511 -0.1229
  105SOL    HW2  315   2.669   2.417   1.535 -0.1103 -4.1001 -2.0052
  106SOL     OW  316   1.017   3.114   0.572  0.2155  0.4457  0.1780
  106SOL    HW1  317   1.114   3.112   0.532  1.4736 -2.1960 -0.6276
  106SOL    HW2  318   0.989   3.018   0.599 -1.7231 -0.5224  0.0410
  107SOL     OW  319   2.972   1.903   1.176  0.4222 -0.3852 -0.5418
  107SOL    HW1  320   3.041   1.971   1.203  0.0575 -2.9554 -2.0982
  107SOL    HW2  321   2.976   1.904   1.070  2.2050 -0.0929 -0.0221
  108SOL     OW  322   0.014   2.252   0.523 -0.6435  0.6812 -0.3566
  108SOL    HW1  323   0.072   2.178   0.485  0.8399 -0.3590 -0.4485
  108SOL    HW2  324   0.071   2.306   0.586  0.3876 -0.2276 -2.1805
  109SOL     OW  325   1.545   0.109   0.657  0.3314 -0.0367  0.4577
  109SOL    HW1  326   1.470   0.075   0.721 -0.7945 -1.7325  2.7346
  109SOL    HW2  327   1.578   0.202   0.676  2.4243 -0.4645  1.2578
  110SOL     OW  328   1.522   1.463   1.024  0.0750 -0.2593 -0.5797
  110SOL    HW1  329   1.535   1.562   1.058  1.3637 -0.0826 -0.8043
  110SOL    HW2  330   1.436   1.426   1.055 -0.8933 -0.2997  0.0207
  111SOL     OW  331   1.755   2.522   1.830 -0.2838  0.3023  0.3829
  111SOL    HW1  332   1.804   2.432   1.820 -3.1435  0.0977 -0.0062
  111SOL    HW2  333   1.751   2.542   1.926  1.0028  0.2895 -2.3407
  112SOL     OW  334   1.817   2.106   2.770  0.1047 -0.6536 -0.1614
  112SOL    HW1  335   1.828   2.078   2.869 -1.3647 -0.7477  1.0136
  112SOL    HW2  336   1.845   2.202   2.764 -0.1217 -0.9478  0.2368
  113SOL     OW  337   2.067   1.900   2.036 -0.0024 -0.5223 -0.1035
  113SOL    HW1  338   2.139   1.830   2.061 -0.1132 -0.9461  0.1782
  113SOL    HW2  339   2.073   1.907   1.932 -1.3765 -0.6854 -1.0424
  114SOL     OW  340   0.171   1.027   1.084  0.0890  0.3438 -0.5931
  114SOL    HW1  341   0.185   0.927   1.086 -1.4998  2.6201  0.4667
  114SOL    HW2  342   0.082   1.053   1.037 -1.9044  1.3043 -0.3437
  115SOL     OW  343   2.860   0.847   2.784  0.2077 -0.0287 -0.1842
  115SOL    HW1  344   2.924   0.927   2.775  0.1789  0.3997  1.9430
  115SOL    HW2  345   2.812   0.826   2.694  1.7044  0.1051  0.7614
  116SOL     OW  346   2.778   0.355   2.869  0.3862 -0.4052 -0.2159
  116SOL    HW1  347   2.827   0.444   2.847 -2.5053  2.1514 -0.1750
  116SOL    HW2  348   2.765   0.306   2.783 -1.6372  0.4455 -0.1569
  117SOL     OW  349   2.661   2.832   0.401 -0.0487 -0.4037  0.6739
  117SOL    HW1  350   2.664   2.756   0.465 -0.8171  2.0231  0.0619
  117SOL    HW2  351   2.674   2.793   0.305  0.3620 -2.6891  1.1342
  118SOL     OW  352   0.457   2.002   2.271  0.1378 -0.2431  0.2683
  118SOL    HW1  353   0.447   2.096   2.317  0.5494  4.1470 -0.4412
  118SOL    HW2  354   0.505   2.012   2.179  2.4437 -0.3907 -3.5136
  119SOL     OW  355   0.562   3.060   0.430  0.0287 -0.0251 -0.2594
  119SOL    HW1  356   0.648   3.109   0.408  0.0612 -1.8087 -0.8098
  119SOL    HW2  357   0.568   2.992   0.509 -0.0564 -2.6652 -0.0609
  120SOL     OW  358   1.500   0.799   0.463 -0.1513  0.1225  0.4173
  120SOL    HW1  359   1.411   0.793   0.512  2.7241 -0.5161  2.4457
  120SOL    HW2  360   1.528   0.900   0.457 -0.2628  1.4835 -0.9524
  121SOL     OW  361   1.848   0.498   0.831  0.1035 -0.0156  0.4009
  121SOL    HW1  362   1.848   0.463   0.928  1.9476 -1.7281  1.6046
  121SOL    HW2  363   1.909   0.580   0.829 -0.1400 -0.2292 -0.4513
  122SOL     OW  364   2.005   1.387   2.432  0.4892 -0.4055  0.1726
  122SOL    HW1  365   1.956   1.459   2.488 -0.1471 -3.6928  2.8154
  122SOL    HW2  366   2.018   1.421   2.340 -0.2419 -0.7691 -1.3589
  123SOL     OW  367   1.013   1.072   0.921 -0.2185  0.2697 -0.0287
  123SOL    HW1  368   1.065   0.989   0.895  0.6795 -2.2146  0.7053
  123SOL    HW2  369   0.962   1.110   0.842 -0.3568  1.3423 -0.5607
  124SOL     OW  370   0.802   0.627   2.751  0.2130  0.1327  0.1493
  124SOL    HW1  371   0.706   0.602   2.722 -1.8762 -3.3481 -1.6054
  124SOL    HW2  372   0.858   0.547   2.764  0.2265  1.2127  2.0592
  125SOL     OW  373   0.952   0.276   0.133 -0.3558 -0.4272  0.4002
  125SOL    HW1  374   0.873   0.257   0.076  0.4445  1.1500  2.0345
  125SOL    HW2  375   0.928   0.293   0.229 -0.1619 -1.1508 -5.0003
  126SOL     OW  376   0.549   1.751   0.414  0.2020 -0.3638 -0.6022
  126SOL    HW1  377   0.498   1.670   0.389  0.6264  1.5113  1.3232
  126SOL    HW2  378   0.614   1.735   0.488  1.8870  2.4319  0.1627
  127SOL     OW  379   0.962   2.548   1.768  0.4191  0.2113 -0.2216
  127SOL    HW1  380   0.902   2.623   1.751 -0.1321 -1.0451 -1.4144
  127SOL    HW2  381   1.061   2.575   1.760 -1.3638 -0.7340 -0.8623
  128SOL     OW  382   0.995   1.884   0.459 -0.0389 -0.3175 -0.0995
  128SOL    HW1  383   0.993   1.795   0.409  1.2596 -0.2835 -1.4761
  128SOL    HW2  384   0.993   1.960   0.391  1.7686 -2.7599 -1.4572
  129SOL     OW  385   1.696   1.492   2.311 -0.2141  0.6219  0.3082
  129SOL    HW1  386   1.599   1.472   2.282 -0.6578 -1.2118  0.7266
  129SOL    HW2  387   1.762   1.506   2.238  0.6147 -2.2007  0.5732
  130SOL     OW  388   2.094   1.922   1.771  0.1100 -0.0557 -0.1688
  130SOL    HW1  389   2.137   1.982   1.700 -0.0932  2.2605 -0.2914
  130SOL    HW2  390   2.030   1.853   1.725 -0.8798 -0.5420 -0.3848
  131SOL     OW  391   0.298   2.273   2.079  0.0252  0.5251  0.2506
  131SOL    HW1  392   0.276   2.176   2.066 -0.4344  1.5013 -3.5749
  131SOL    HW2  393   0.227   2.322   2.134  1.6353  0.5429 -3.8222
  132SOL     OW  394   2.484   1.661   0.574  0.2436  0.3458  0.1456
  132SOL    HW1  395   2.571   1.601   0.594  1.1003 -1.4865  1.0144
  132SOL    HW2  396   2.520   1.754   0.545 -0.2477 -2.0876  2.5469
  133SOL     OW  397   0.433   1.081   1.789 -0.4031 -0.3289  0.2260
  133SOL    HW1  398   0.496   1.115   1.864  0.0888 -0.0267  0.3577
  133SOL    HW2  399   0.331   1.084   1.811 -1.0923  1.5796  3.6789
  134SOL     OW  400   2.880   1.329   0.740  0.0683 -0.6873 -0.7209
  134SOL    HW1  401   2.919   1.235   0.744  0.2609 -2.4792  0.7788
  134SOL    HW2  402   2.938   1.391   0.688 -0.0932  1.0570  1.7694
  135SOL     OW  403   1.940   1.045   2.935  0.0993 -0.0033  0.3075
  135SOL    HW1  404   1.896   1.126   2.982 -0.8779  0.6372 -1.2948
  135SOL    HW2  405   1.885   1.004   2.860 -0.3626 -0.9811  0.1097
  136SOL     OW  406   2.818   1.633   1.070 -0.4584  0.3135  0.5913
  136SOL    HW1  407   2.792   1.662   0.973 -0.7191  0.0232 -3.1561
  136SOL    HW2  408   2.754   1.679   1.133 -3.8172  0.5721  1.0038
  137SOL     OW  409   2.200   1.670   0.545  0.0822 -0.4998 -0.2601
  137SOL    HW1  410   2.157   1.584   0.579  1.5646 -0.0846 -3.0920
  137SOL    HW2  411   2.298   1.662   0.557 -1.8390 -0.4274  1.0612
  138SOL     OW  412   2.624   0.376   0.527  0.1591  0.3422 -0.3195
  138SOL    HW1  413   2.628   0.296   0.592 -1.4899  1.2851 -1.2010
  138SOL    HW2  414   2.553   0.439   0.562 -0.4817 -1.4239  4.4623
  139SOL     OW  415   3.021   0.069   2.908  0.1846 -0.8279  0.0683
  139SOL    HW1  416   2.976   0.089   2.994  2.7399 -0.2533 -3.4847
  139SOL    HW2  417   2.952   0.073   2.831  2.4869  2.5738  0.9119
  140SOL     OW  418   0.782   1.254   1.736  0.3341 -0.1033 -0.0761
  140SOL    HW1  419   0.833   1.230   1.822  4.7033  0.5574  2.5236
  140SOL    HW2  420   0.703   1.316   1.757  0.7294 -1.2363 -0.4059
  141SOL     OW  421   1.240   1.500   0.885 -0.4601 -0.9291 -0.0027
  141SOL    HW1  422   1.261   1.456   0.972  0.4882  1.7285 -1.2090
  141SOL    HW2  423   1.285   1.591   0.878 -1.5040  1.9454  1.1077
  142SOL     OW  424   1.329   0.839   1.216 -0.0554  0.1150  0.6594
  142SOL    HW1  425   1.392   0.757   1.232 -0.9377 -0.6535  0.1691
  142SOL    HW2  426   1.332   0.865   1.116  0.6545 -1.6850 -0.7759
  143SOL     OW  427   0.694   0.906   2.734 -0.2991  0.3809 -0.1927
  143SOL    HW1  428   0.657   0.949   2.823  1.8297  1.7147 -1.2429
  143SOL    HW2  429   0.758   0.824   2.744 -1.6611  0.9822  0.8106
  144SOL     OW  430   2.609   0.036   0.185  0.2414 -0.1696  0.1677
  144SOL    HW1  431   2.533   3.117   0.136 -0.1562 -0.2107  2.4770
  144SOL    HW2  432   2.587   0.110   0.250 -0.6126 -1.2496 -3.5676
  145SOL     OW  433   2.187   0.066   2.573 -0.7152 -0.6582  0.2799
  145SOL    HW1  434   2.243   0.100   2.650  2.0142 -1.7311 -2.5394
  145SOL    HW2  435   2.222   0.112   2.490  0.8531  0.0367 -0.7502
  146SOL     OW  436   3.031   3.024   0.323 -0.2729  0.0678 -0.3447
  146SOL    HW1  437   3.030   2.986   0.226 -1.0395 -2.4062 -0.1443
  146SOL    HW2  438   3.030   0.003   0.332  0.4945 -1.3990  0.0528
  147SOL     OW  439   1.427   0.862   2.812 -0.2346 -0.5224  0.0411
  147SOL    HW1  440   1.519   0.815   2.839  1.7224 -2.1021  0.3741
  147SOL    HW2  441   1.394   0.926   2.884 -0.9643  1.7642  1.6789
  148SOL     OW  442   1.262   0.040   0.465  0.1099 -0.3010  0.1716
  148SOL    HW1  443   1.334   0.072   0.525 -2.6800 -1.9551 -1.8285
  148SOL    HW2  444   1.298   3.089   0.403  0.0215  1.1305  0.2413
  149SOL     OW  445   1.428   0.903   2.250  0.1575 -0.2870  0.6353
  149SOL    HW1  446   1.350   0.969   2.264 -0.0315 -2.0079  0.9235
  149SOL    HW2  447   1.498   0.912   2.320 -1.8424 -1.2486 -1.8894
  150SOL     OW  448   1.855   3.083   2.797 -0.2064  0.2605  0.0920
  150SOL    HW1  449   1.820   0.004   2.883 -1.1840  0.1765  1.3406
  150SOL    HW2  450   1.867   2.984   2.810 -0.2659  2.2079 -0.3471
  151SOL     OW  451   0.448   1.497   0.352 -0.0765  0.0891 -0.1489
  151SOL    HW1  452   0.356   1.458   0.317 -1.5070 -0.9419  1.5316
  151SOL    HW2  453   0.526   1.449   0.303 -4.0275 -2.4368 -2.0154
  152SOL     OW  454   0.724   0.612   1.396  0.3379 -0.1402  0.1206
  152SOL    HW1  455   0.647   0.603   1.462 -0.7955  0.6051  1.5883
  152SOL    HW2  456   0.776   0.526   1.379  1.1295 -0.7093 -0.2834
  153SOL     OW  457   2.518   2.952   2.052  0.3236  0.0362 -0.4239
  153SOL    HW1  458   2.526   3.053   2.035  1.6224 -0.5868 -1.0316
  153SOL    HW2  459   2.436   2.929   2.110 -1.3397 -0.1101  0.2256
  154SOL     OW  460   2.075   3.060   2.135 -0.0777  0.1113  0.0675
  154SOL    HW1  461   2.140   0.011   2.103  0.3676  3.3791  1.0018
  154SOL    HW2  462   2.063   2.992   2.063 -0.6096  2.6846  0.9879
  155SOL     OW  463   0.145   0.944   0.772 -0.3713  0.1522 -0.3366
  155SOL    HW1  464   0.065   0.994   0.813 -1.1755 -0.4113  1.2441
  155SOL    HW2  465   0.230   0.960   0.828  0.5224 -0.6304  2.0939
  156SOL     OW  466   2.136   1.420   0.571  0.2445  0.6941  0.1995
  156SOL    HW1  467   2.221   1.360   0.574 -0.6258 -1.8653  0.3387
  156SOL    HW2  468   2.067   1.383   0.508  1.5752 -0.7860  0.3721
  157SOL     OW  469   0.930   0.194   2.939  0.4524 -0.0994  0.2015
  157SOL    HW1  470   0.953   0.100   2.972  1.5381  2.9069 -1.1099
  157SOL    HW2  471   0.844   0.228   2.983 -0.8738  0.2605  0.6095
  158SOL     OW  472   1.873   1.234   1.406  1.2624 -0.5512  0.5697
  158SOL    HW1  473   1.947   1.300   1.422 -2.5246 -2.4621 -0.3415
  158SOL    HW2  474   1.835   1.240   1.309 -1.8990  1.2955  1.5666
  159SOL     OW  475   0.120   0.393   0.308  0.0540 -0.3011 -0.7841
  159SOL    HW1  476   0.180   0.314   0.338  0.5206  3.0837  1.3338
  159SOL    HW2  477   0.036   0.413   0.370 -2.1036 -1.7278  0.0668
  160SOL     OW  478   2.435   2.226   1.802 -0.2947 -0.3126  0.4879
  160SOL    HW1  479   2.493   2.310   1.776  1.5834  1.1488 -1.0699
  160SOL    HW2  480   2.411   2.237   1.899  2.5786  0.9647 -2.6924
  161SOL     OW  481   0.548   0.782   2.969 -0.5525 -0.0053 -0.1372
  161SOL    HW1  482   0.574   0.870   3.008  2.6778 -2.2362  1.7892
  161SOL    HW2  483   0.443   0.772   2.962 -0.6910 -0.1525 -2.0257
  162SOL     OW  484   0.727   0.503   1.748 -0.1431 -0.3581  0.4153
  162SOL    HW1  485   0.638   0.529   1.707  0.2740  3.1537 -0.4179
  162SOL    HW2  486   0.779   0.586   1.763 -0.7480  0.0821 -1.9533
  163SOL     OW  487   2.879   0.006   2.402  0.2257 -0.0742  0.0251
  163SOL    HW1  488   2.812   3.059   2.378  1.8269 -1.2564  2.5806
  163SOL    HW2  489   2.887   0.082   2.336  1.4358 -1.8154 -0.5866
  164SOL     OW  490   2.216   1.730   0.271 -0.5644  0.1529  0.1407
  164SOL    HW1  491   2.158   1.800   0.229 -0.8474 -0.6840 -0.3821
  164SOL    HW2  492   2.202   1.731   0.369  0.3388 -0.3790  0.0627
  165SOL     OW  493   0.461   0.007   1.100 -0.0296 -0.1141 -0.4762
  165SOL    HW1  494   0.506   0.047   1.021 -1.0035  1.3259  1.5983
  165SOL    HW2  495   0.529   0.013   1.173  1.2255 -0.3680 -2.3982
  166SOL     OW  496   2.827   0.220   3.074  0.0518 -0.4383 -0.2451
  166SOL    HW1  497   2.808   0.268   2.982 -0.3380  2.4764 -0.9475
  166SOL    HW2  498   2.769   0.134   3.080 -1.6240 -2.5537  2.7943
  167SOL     OW  499   2.104   0.566   0.278  0.3098 -0.6035  0.0659
  167SOL    HW1  500   2.108   0.654   0.327 -1.8326 -0.3083 -1.0294
  167SOL    HW2  501   2.166   0.567   0.197  1.9971  0.6963 -2.3522
  168SOL     OW  502   1.538   3.123   2.200  0.4439  0.1288  0.2140
  168SOL    HW1  503   1.537   0.045   2.288 -3.4989 -0.2730 -0.6585
  168SOL    HW2  504   1.451   3.073   2.180 -1.1278  1.3535 -2.3927
  169SOL     OW  505   0.314   2.007   0.719 -0.0231  0.0129 -0.3647
  169SOL    HW1  506   0.279   1.928   0.773  0.1098  1.1456 -1.7749
  169SOL    HW2  507   0.324   2.091   0.775  0.8172  1.2439 -1.4244
  170SOL     OW  508   0.347   0.367   1.569 -0.4718 -0.5239  0.1658
  170SOL    HW1  509   0.258   0.372   1.620 -0.4583 -1.5555  2.0363
  170SOL    HW2  510   0.372   0.266   1.560 -2.0629 -1.8085 -1.1200
  171SOL     OW  511   2.638   1.573   2.520 -0.0789  0.7339  0.0380
  171SOL    HW1  512   2.694   1.552   2.435 -0.7526 -1.6450 -1.7164
  171SOL    HW2  513   2.605   1.670   2.524 -1.9142  0.2704  3.8069
  172SOL     OW  514   0.802   1.604   1.245  0.1586  0.2827  0.3179
  172SOL    HW1  515   0.839   1.539   1.181 -3.4087  0.1185  2.2014
  172SOL    HW2  516   0.853   1.607   1.334  0.9000  1.4184 -1.0878
  173SOL     OW  517   1.921   2.098   3.052  0.4321 -0.1970 -0.3761
  173SOL    HW1  518   1.848   2.038   3.085 -2.5029  0.1554  1.3962
  173SOL    HW2  519   1.924   2.177   3.114  2.8876 -1.4708  1.0925
  174SOL     OW  520   1.795   0.697   0.060  0.0102 -0.0683  0.1098
  174SOL    HW1  521   1.814   0.600   0.033 -2.9203 -0.4616 -0.7973
  174SOL    HW2  522   1.706   0.688   0.117 -3.3304 -0.5510  2.5551
  175SOL     OW  523   0.484   1.717   1.907 -0.3339 -0.4491  0.2750
  175SOL    HW1  524   0.485   1.802   1.855 -0.2469 -1.6470 -0.0352
  175SOL    HW2  525   0.420   1.719   1.986 -0.9235  1.2482  0.0253
  176SOL     OW  526   0.635   0.551   0.489 -0.1513  0.2335 -0.2678
  176SOL    HW1  527   0.711   0.608   0.457 -2.0532 -0.5214  1.3408
  176SOL    HW2  528   0.655   0.518   0.585 -0.5047 -3.6173  1.6892
  177SOL     OW  529   0.061   1.493   3.037 -0.3446 -0.5800  0.3136
  177SOL    HW1  530   0.006   1.410   3.020  1.8220  1.6184  0.3166
  177SOL    HW2  531   0.136   1.476   3.100 -3.3963  0.0533 -2.2333
  178SOL     OW  532   0.073   2.180   2.309 -0.2228  0.1933 -0.0408
  178SOL    HW1  533   0.115   2.088   2.327  0.6774 -3.3976  0.1269
  178SOL    HW2  534   0.033   2.186   2.213 -0.1767  0.3703 -2.0516
  179SOL     OW  535   2.363   0.072   2.797  0.2763  0.2537 -0.0268
  179SOL    HW1  536   2.422   0.154   2.784  1.0833  0.6337 -1.2355
  179SOL    HW2  537   2.280   0.084   2.861  0.7795  3.3881 -0.8242
  180SOL     OW  538   2.490   0.492   0.892 -0.1372 -0.0553 -0.1192
  180SOL    HW1  539   2.400   0.537   0.916  2.3817  0.6712  0.7968
  180SOL    HW2  540   2.508   0.488   0.790  1.2372 -0.3258 -5.0724
  181SOL     OW  541   0.016   3.101   2.488  0.2817 -0.3800  0.5298
  181SOL    HW1  542   3.042   3.097   2.469  2.5809 -2.6729  0.2578
  181SOL    HW2  543   0.056   3.016   2.448 -0.3023  1.0019 -0.1017
  182SOL     OW  544   2.281   2.475   2.473 -0.6012  0.1100 -0.2343
  182SOL    HW1  545   2.331   2.492   2.563  3.8588  1.6929 -0.5510
  182SOL    HW2  546   2.295   2.378   2.449  0.5646 -0.1538  0.0900
  183SOL     OW  547   2.644   1.248   1.561 -0.3487  0.2023  0.1056
  183SOL    HW1  548   2.597   1.247   1.651 -1.4624  1.8014  1.5762
  183SOL    HW2  549   2.575   1.236   1.482 -0.5769  0.1344 -2.6966
  184SOL     OW  550   2.811   1.356   1.004  0.1723  0.4540  0.0807
  184SOL    HW1  551   2.806   1.454   1.021  0.2138 -0.2561  0.8515
  184SOL    HW2  552   2.827   1.335   0.907 -2.1445 -2.8687 -1.4783
  185SOL     OW  553   0.081   0.218   0.738 -0.7447 -0.1463  0.0640
  185SOL    HW1  554   0.171   0.221   0.687 -0.5268 -0.6628 -2.2712
  185SOL    HW2  555   0.064   0.128   0.783  0.3927  1.7794 -2.9669
  186SOL     OW  556   2.209   2.719   2.364  0.0435  0.6183 -0.1619
  186SOL    HW1  557   2.127   2.772   2.403 -1.1823 -0.2124  2.8665
  186SOL    HW2  558   2.229   2.627   2.407  2.6290 -0.5382 -0.0790
  187SOL     OW  559   0.404   1.578   0.640  0.1697  0.1370  0.6383
  187SOL    HW1  560   0.436   1.549   0.545  1.4705  1.0347  3.0028
  187SOL    HW2  561   0.474   1.638   0.681  1.2085 -0.3325 -2.4479
  188SOL     OW  562   1.708   1.702   0.562 -0.0357 -0.4726 -0.2919
  188SOL    HW1  563   1.718   1.601   0.570  1.2234 -2.9254  0.8898
  188SOL    HW2  564   1.607   1.725   0.590 -1.1845 -1.0926  1.3864
  189SOL     OW  565   2.989   1.312   2.950  0.1887  0.3461  0.2998
  189SOL    HW1  566   3.024   1.272   2.863 -0.6628  1.1265 -1.6085
  189SOL    HW2  567   2.899   1.356   2.927 -2.0622  0.1743  0.1730
  190SOL     OW  568   2.624   0.229   2.234  0.0615 -0.0788  0.0668
  190SOL    HW1  569   2.567   0.311   2.248 -0.2228  1.1104  1.1061
  190SOL    HW2  570   2.719   0.259   2.201  4.4304  1.4716 -1.2139
  191SOL     OW  571   0.993   0.880   2.169  0.1679 -0.3773 -0.0709
  191SOL    HW1  572   0.896   0.866   2.191 -0.4018 -0.4248 -1.6298
  191SOL    HW2  573   0.990   0.958   2.110  0.7634 -0.5604 -0.3275
  192SOL     OW  574   1.447   1.427   2.188 -0.1585  0.1503  0.0954
  192SOL    HW1  575   1.449   1.448   2.085 -0.5175  0.2398 -1.8727
  192SOL    HW2  576   1.435   1.330   2.208 -0.8915 -0.6640 -0.4554
  193SOL     OW  577   1.532   2.733   0.975 -0.3572 -0.3277 -0.1795
  193SOL    HW1  578   1.555   2.830   1.001 -0.0416  0.0506 -0.6833
  193SOL    HW2  579   1.543   2.722   0.874 -0.7108 -3.1921 -1.2624
  194SOL     OW  580   1.529   1.492   1.940  0.3455  0.2077 -0.3188
  194SOL    HW1  581   1.625   1.485   1.899 -0.8981  0.4233  1.9447
  194SOL    HW2  582   1.454   1.494   1.872 -1.3921  1.9911  0.3150
  195SOL     OW  583   2.063   0.085   0.740 -0.0915  0.5726  0.2513
  195SOL    HW1  584   2.069   0.186   0.736  0.5061 -1.4268  3.6085
  195SOL    HW2  585   2.008   0.066   0.828 -2.9556 -1.0218  2.3736
  196SOL     OW  586   1.271   1.358   2.670 -0.1392 -0.4424 -0.5679
  196SOL    HW1  587   1.209   1.328   2.593 -0.9846  2.1687 -1.5541
  196SOL    HW2  588   1.290   1.278   2.731  0.8419  0.7085 -0.5839
  197SOL     OW  589   0.357   0.191   2.195 -0.3790 -0.0858  0.2391
  197SOL    HW1  590   0.353   0.200   2.093 -1.5626  0.3615 -2.4338
  197SOL    HW2  591   0.401   0.103   2.220 -0.3357 -0.9042 -2.2399
  198SOL     OW  592   3.060   1.111   0.973 -0.3876 -0.2643 -0.5926
  198SOL    HW1  593   2.998   1.100   0.895  1.6931 -0.7050  1.5484
  198SOL    HW2  594   3.102   1.202   0.980 -0.2191 -0.6277 -1.9349
  199SOL     OW  595   0.396   2.206   0.889 -0.8164 -0.0795  0.0025
  199SOL    HW1  596   0.408   2.281   0.825  0.2070 -0.8029  1.1079
  199SOL    HW2  597   0.364   2.236   0.984  1.1858 -2.5448  0.0073
  200SOL     OW  598   2.597   1.870   2.809 -0.2231 -1.1716 -0.0102
  200SOL    HW1  599   2.680   1.905   2.753  0.8173  1.4553 -1.3488
  200SOL    HW2  600   2.590   1.769   2.792 -1.6166 -1.7022 -1.1160
  201SOL     OW  601   0.867   2.054   1.262  0.2978  0.3482  0.5095
  201SOL    HW1  602   0.831   2.079   1.354 -2.7500  0.5587 -3.2099
  201SOL    HW2  603   0.794   1.993   1.218  0.5988 -0.8019  0.5549
  202SOL     OW  604   0.989   2.374   0.054 -0.1066 -0.6545 -0.0659
  202SOL    HW1  605   0.959   2.429   0.136 -1.6506  0.5930  0.5599
  202SOL    HW2  606   1.053   2.431   3.116  1.6241  0.1882 -1.2270
  203SOL     OW  607   1.842   0.423   2.157  0.0819  0.0593 -0.0634
  203SOL    HW1  608   1.923   0.376   2.110 -0.3711 -0.6792  1.3388
  203SOL    HW2  609   1.757   0.369   2.150 -0.6443 -1.9738  4.3242
  204SOL     OW  610   0.231   1.265   1.581  0.4648 -0.4546 -0.1090
  204SOL    HW1  611   0.164   1.326   1.530  2.1888 -1.1194  0.3820
  204SOL    HW2  612   0.302   1.227   1.513  1.5155  0.4334 -1.6976
  205SOL     OW  613   2.607   1.606   2.794  0.2368  0.1307 -0.3025
  205SOL    HW1  614   2.607   1.588   2.691 -1.1475  0.2545 -2.0126
  205SOL    HW2  615   2.517   1.585   2.838 -0.9999  0.9476  0.3026
  206SOL     OW  616   3.021   2.131   2.501  0.0011  0.0313 -0.2836
  206SOL    HW1  617   3.011   2.029   2.490 -0.2266  0.8059  0.7092
  206SOL    HW2  618   3.094   2.168   2.438  0.6992 -0.1467  0.6507
  207SOL     OW  619   0.854   2.927   1.722  0.2566  0.4902 -0.1588
  207SOL    HW1  620   0.954   2.910   1.738 -1.1780  2.0099 -1.0576
  207SOL    HW2  621   0.822   3.023   1.737  0.2132  2.6112  0.1958
  208SOL     OW  622   0.618   2.523   1.496 -0.2177  0.5146  0.3329
  208SOL    HW1  623   0.609   2.456   1.573  1.7101 -0.7104 -3.2121
  208SOL    HW2  624   0.630   2.485   1.399 -0.9808  0.3939 -2.4593
  209SOL     OW  625   1.113   2.751   2.658 -0.6945  0.0795 -0.6954
  209SOL    HW1  626   1.010   2.773   2.664 -0.9963  1.3835 -0.0190
  209SOL    HW2  627   1.165   2.819   2.720  3.1350  2.2927  1.6495
  210SOL     OW  628   2.809   1.678   2.217 -0.2482 -0.4827  0.6929
  210SOL    HW1  629   2.860   1.626   2.280  1.9976  2.9065 -1.5730
  210SOL    HW2  630   2.838   1.778   2.215  2.2586  0.1930 -1.3587
  211SOL     OW  631   1.203   0.015   2.025 -0.3428 -0.7229  0.4394
  211SOL    HW1  632   1.178   0.038   2.119  3.9694 -0.4269  1.0688
  211SOL    HW2  633   1.265   0.082   1.980  0.7048 -0.8595  0.4951
  212SOL     OW  634   1.295   2.510   1.751 -0.4317 -0.2517  0.0872
  212SOL    HW1  635   1.301   2.513   1.856  0.9312  1.2156  2.6584
  212SOL    HW2  636   1.394   2.499   1.729  0.3049  1.6246  0.4478
  213SOL     OW  637   2.482   0.869   1.800 -0.4298  0.1973 -0.0293
  213SOL    HW1  638   2.406   0.931   1.777  0.2675 -0.9327 -0.4012
  213SOL    HW2  639   2.544   0.846   1.724  2.1515 -0.0387 -0.8896
  214SOL     OW  640   0.789   1.861   1.681  0.3897 -0.0429  0.4064
  214SOL    HW1  641   0.782   1.955   1.642  1.8961  1.9709 -1.1549
  214SOL    HW2  642   0.781   1.868   1.782 -1.7057 -2.3528 -2.1854
  215SOL     OW  643   2.453   2.057   0.706  0.3372 -0.8111 -0.3111
  215SOL    HW1  644   2.540   2.074   0.758  0.1620 -0.5543  0.3927
  215SOL    HW2  645   2.373   2.037   0.768 -2.0844 -1.1080  2.1114
  216SOL     OW  646   0.053   0.811   1.347 -0.0051  0.4782 -0.5880
  216SOL    HW1  647   3.111   0.731   1.337  0.4752  1.8185 -2.0665
  216SOL    HW2  648   0.006   0.892   1.305 -4.1176  0.2563 -0.3978
  217SOL     OW  649   2.006   0.249   1.314 -0.1301 -0.3254 -0.8730
  217SOL    HW1  650   2.112   0.242   1.301  4.2002  1.1272  0.3339
  217SOL    HW2  651   1.956   0.169   1.279  1.2354  3.4497 -0.9853
  218SOL     OW  652   1.776   2.373   1.081 -0.7101  0.3246  0.0253
  218SOL    HW1  653   1.815   2.467   1.054  1.5454  0.1867 -1.6469
  218SOL    HW2  654   1.698   2.381   1.141  1.8317 -1.8421 -0.2226
  219SOL     OW  655   1.338   2.268   0.110 -0.1817  0.4100  0.3812
  219SOL    HW1  656   1.405   2.331   0.065  0.2441  0.6907 -0.4299
  219SOL    HW2  657   1.262   2.312   0.157 -0.7484 -0.8643  0.3089
  220SOL     OW  658   1.506   2.362   2.857 -0.4022 -0.0172 -0.7172
  220SOL    HW1  659   1.473   2.418   2.775  0.6876  0.7712 -4.5735
  220SOL    HW2  660   1.486   2.266   2.846  0.6899 -0.3686  0.2271
  221SOL     OW  661   0.220   2.518   1.288 -1.4026 -0.2301 -0.2078
  221SOL    HW1  662   0.308   2.533   1.243  0.1454  0.1314  1.7574
  221SOL    HW2  663   0.237   2.452   1.360  1.0447  1.5388 -2.8645
  222SOL     OW  664   2.092   2.502   0.881  0.7643 -0.0302 -0.5606
  222SOL    HW1  665   2.004   2.527   0.931 -1.2059  1.0810  2.0396
  222SOL    HW2  666   2.145   2.586   0.866 -3.3442 -1.0045  0.4179
  223SOL     OW  667   0.664   2.283   2.029 -0.1853 -0.1941  0.3404
  223SOL    HW1  668   0.608   2.199   2.021 -0.6290  3.4116 -0.1031
  223SOL    HW2  669   0.597   2.357   2.014  0.2113 -0.4997 -0.4057
  224SOL     OW  670   2.955   2.465   1.358 -0.4810 -0.0031  0.2837
  224SOL    HW1  671   2.952   2.541   1.295  0.8851 -3.5493  1.2433
  224SOL    HW2  672   2.864   2.431   1.379  2.8608  1.8326  2.6815
  225SOL     OW  673   2.248   2.149   0.525 -0.0949  0.1184  0.1575
  225SOL    HW1  674   2.333   2.152   0.579 -0.0271 -2.2104  0.4267
  225SOL    HW2  675   2.190   2.069   0.550 -0.8986  2.3557 -1.6125
  226SOL     OW  676   1.481   2.353   0.366  0.3757 -0.0237 -0.7804
  226SOL    HW1  677   1.381   2.370   0.337  1.9858 -2.8311 -1.6175
  226SOL    HW2  678   1.491   2.348   0.467  2.6615  0.3230  1.3320
  227SOL     OW  679   1.984   1.024   0.820  0.5240 -0.0756 -0.4453
  227SOL    HW1  680   1.914   0.983   0.880  0.1514  2.1819 -2.2907
  227SOL    HW2  681   1.935   1.017   0.731 -2.0817  0.2395  1.7274
  228SOL     OW  682   1.360   0.638   2.219  0.0181 -0.1382  0.2893
  228SOL    HW1  683   1.383   0.609   2.314  0.5736 -1.2582  0.0785
  228SOL    HW2  684   1.383   0.739   2.209  1.2935  1.8913 -0.5112
  229SOL     OW  685   0.163   1.184   2.840  0.4131  0.0034 -0.1575
  229SOL    HW1  686   0.117   1.095   2.812  1.8381 -2.0869 -1.9938
  229SOL    HW2  687   0.191   1.226   2.751 -1.9711 -0.6181 -2.3371
  230SOL     OW  688   0.727   1.258   1.335  0.1799  0.1999 -0.3023
  230SOL    HW1  689   0.740   1.161   1.307 -2.7641 -0.1546 -1.3533
  230SOL    HW2  690   0.817   1.296   1.370 -0.6093  1.7500  0.0106
  231SOL     OW  691   2.549   3.080   2.670 -0.1622  0.4115  0.5374
  231SOL    HW1  692   2.468   3.119   2.723 -4.2031  0.5043 -0.3290
  231SOL    HW2  693   2.531   3.094   2.569  0.6879 -0.2236  1.1048
  232SOL     OW  694   0.290   2.374   0.195  0.7172 -0.2967 -0.3208
  232SOL    HW1  695   0.361   2.443   0.185  0.0862 -1.4179  0.4961
  232SOL    HW2  696   0.329   2.279   0.187 -4.6240 -0.6782  1.0517
  233SOL     OW  697   1.119   2.283   2.279  0.2055  0.3865  0.0519
  233SOL    HW1  698   1.118   2.376   2.239  0.3756 -1.7103 -0.0615
  233SOL    HW2  699   1.162   2.278   2.372 -0.0273  0.0071 -0.2850
  234SOL     OW  700   1.356   1.422   1.729 -0.0739  0.5596  0.1089
  234SOL    HW1  701   1.349   1.338   1.667  1.4184 -0.9466  0.9789
  234SOL    HW2  702   1.260   1.463   1.748 -1.9409 -1.8490 -2.0277
  235SOL     OW  703   0.813   1.998   1.931  0.5202  0.0740 -0.2147
  235SOL    HW1  704   0.887   2.056   1.890  2.5756 -1.2487 -3.5444
  235SOL    HW2  705   0.856   1.922   1.983 -1.2191  0.3767  0.1180
  236SOL     OW  706   1.578   2.992   2.692  0.0940  0.1630 -0.0398
  236SOL    HW1  707   1.676   3.012   2.701 -1.2554  1.2622  1.3732
  236SOL    HW2  708   1.556   2.903   2.738 -0.4729 -0.3488  1.4161
  237SOL     OW  709   1.149   0.343   1.428 -0.3597 -0.4334  0.4648
  237SOL    HW1  710   1.238   0.379   1.454  0.8352 -1.3411  0.3789
  237SOL    HW2  711   1.161   0.248   1.395 -1.8980  2.1314  0.2965
  238SOL     OW  712   1.396   0.467   2.950  0.3071 -0.3257  0.3823
  238SOL    HW1  713   1.451   0.473   2.862 -1.2493 -0.8596  3.4933
  238SOL    HW2  714   1.305   0.506   2.924  0.1994  1.0638 -0.3738
  239SOL     OW  715   0.009   0.960   2.425 -0.3796 -0.6041  0.4948
  239SOL    HW1  716   3.036   0.983   2.455 -1.7033  2.5251  3.2560
  239SOL    HW2  717   0.068   1.043   2.410 -2.2125 -0.3370  0.4390
  240SOL     OW  718   2.434   2.515   0.649  0.6031 -0.8646 -0.1316
  240SOL    HW1  719   2.393   2.473   0.733 -0.5092 -0.5173  2.3556
  240SOL    HW2  720   2.404   2.478   0.560 -2.2341  0.2322 -0.9436
  241SOL     OW  721   1.071   1.224   1.145  0.1208  0.1263  0.2503
  241SOL    HW1  722   1.115   1.169   1.216 -2.3906  0.4581 -1.1082
  241SOL    HW2  723   1.036   1.165   1.073 -1.6244 -1.2441  3.8002
  242SOL     OW  724   0.609   0.679   0.778 -0.1305 -0.9483 -0.3232
  242SOL    HW1  725   0.636   0.769   0.815 -1.3913  0.8207  0.9220
  242SOL    HW2  726   0.537   0.688   0.702  1.1192 -1.8660 -2.5305
  243SOL     OW  727   0.360   0.476   1.012  0.0986  0.1209 -0.0208
  243SOL    HW1  728   0.333   0.569   1.025 -1.0778 -0.0822 -2.0681
  243SOL    HW2  729   0.456   0.463   1.038 -0.5890 -0.1610 -0.2799
  244SOL     OW  730   0.800   0.318   0.366  0.4369  0.6638 -0.1372
  244SOL    HW1  731   0.717   0.371   0.400 -1.7185  0.2607  0.3205
  244SOL    HW2  732   0.884   0.350   0.418 -0.1492 -2.5001  1.9554
  245SOL     OW  733   2.099   0.823   0.302 -0.3830 -0.1756  0.1839
  245SOL    HW1  734   2.043   0.835   0.217  0.8933  0.6752 -1.7898
  245SOL    HW2  735   2.170   0.899   0.302 -1.1397  0.2044 -1.1072
  246SOL     OW  736   0.122   0.675   1.611 -0.0930 -0.0776  0.1838
  246SOL    HW1  737   0.215   0.695   1.645  0.6831 -2.8496  0.3898
  246SOL    HW2  738   0.094   0.738   1.528 -0.7950 -1.4743 -1.4428
  247SOL     OW  739   0.603   2.914   2.100  0.5833  0.1671  0.1257
  247SOL    HW1  740   0.618   2.924   1.997 -1.3638  1.3721 -4.4037
  247SOL    HW2  741   0.692   2.910   2.153  1.6416  4.8791 -0.9068
  248SOL     OW  742   0.486   1.367   2.376 -0.0020 -0.4409 -0.4992
  248SOL    HW1  743   0.557   1.379   2.448  0.2792 -1.2932  2.8845
  248SOL    HW2  744   0.476   1.266   2.371  0.5145  2.5383 -0.5816
  249SOL     OW  745   0.715   2.908   2.898 -0.5795 -0.2996  0.2351
  249SOL    HW1  746   0.641   2.979   2.893 -1.7240  3.1289  0.3379
  249SOL    HW2  747   0.712   2.855   2.982  0.3224  1.4835 -2.9496
  250SOL     OW  748   0.592   0.408   2.351 -0.0267  0.6428 -0.5365
  250SOL    HW1  749   0.694   0.422   2.369  1.0933  0.4478 -1.3237
  250SOL    HW2  750   0.582   0.345   2.270  0.6595 -0.8089 -0.4328
  251SOL     OW  751   3.087   1.637   1.180 -0.2680 -0.0216 -0.0952
  251SOL    HW1  752   3.018   1.709   1.178  0.0720 -0.2644  2.7274
  251SOL    HW2  753   3.051   1.543   1.178 -0.1633  1.8145 -0.6568
  252SOL     OW  754   1.848   2.985   1.909  0.0100  0.3437  0.1171
  252SOL    HW1  755   1.812   2.934   1.829  2.7550  0.7646 -2.3117
  252SOL    HW2  756   1.948   2.962   1.921 -0.5899 -3.1163 -1.1770
  253SOL     OW  757   2.279   1.514   2.700  0.4685  0.1052  0.6518
  253SOL    HW1  758   2.295   1.511   2.799  0.6856  0.0799 -1.1880
  253SOL    HW2  759   2.237   1.604   2.672 -1.1643  3.0995  0.5067
  254SOL     OW  760   0.665   1.557   2.029  0.1202  0.4306  0.7442
  254SOL    HW1  761   0.612   1.609   1.958 -0.9873  0.8823  0.0923
  254SOL    HW2  762   0.603   1.493   2.072 -2.7553  3.9382  2.1325
  255SOL     OW  763   0.838   0.070   1.745 -0.0264 -0.8766 -0.2512
  255SOL    HW1  764   0.928   0.063   1.706 -4.4292 -0.2634  0.6130
  255SOL    HW2  765   0.817   0.143   1.816 -3.0826 -0.2369  0.5884
  256SOL     OW  766   0.202   2.354   0.687 -0.2515  0.6722  0.3163
  256SOL    HW1  767   0.298   2.346   0.657 -0.2253 -1.5631 -1.2454
  256SOL    HW2  768   0.185   2.290   0.764 -0.3182 -1.3544  3.5706
  257SOL     OW  769   0.252   2.632   2.315 -0.0214 -0.6364 -0.4543
  257SOL    HW1  770   0.196   2.547   2.308 -3.3381 -1.1734 -1.3811
  257SOL    HW2  771   0.315   2.630   2.400 -0.8864 -1.4342  0.3612
  258SOL     OW  772   1.578   1.766   1.963  0.7454  0.3823  0.0571
  258SOL    HW1  773   1.557   1.671   1.998 -0.8401 -0.6998 -3.3526
  258SOL    HW2  774   1.500   1.810   1.910 -0.3113  0.9445 -2.8297
  259SOL     OW  775   1.074   1.427   2.213  0.7578 -0.2274 -0.2612
  259SOL    HW1  776   1.011   1.409   2.133 -0.0076  1.5642 -2.4182
  259SOL    HW2  777   1.091   1.524   2.232  1.0666 -2.3599 -0.8321
  260SOL     OW  778   2.477   0.490   2.264 -0.1068 -0.3727 -0.2698
  260SOL    HW1  779   2.546   0.557   2.292  2.0986 -1.5838 -3.2987
  260SOL    HW2  780   2.431   0.504   2.180  2.1914  0.1241  0.0754
  261SOL     OW  781   0.923   1.171   0.668  0.2556 -0.0052  0.0846
  261SOL    HW1  782   0.840   1.229   0.682  1.9097  2.8293  2.5570
  261SOL    HW2  783   0.898   1.082   0.621 -0.0180 -0.8904  1.4911
  262SOL     OW  784   2.374   2.010   2.754 -0.7074 -0.6728 -0.0566
  262SOL    HW1  785   2.443   1.933   2.765  1.4664 -1.0622 -1.1195
  262SOL    HW2  786   2.290   1.997   2.813 -2.5858  3.5907 -0.7935
  263SOL     OW  787   0.786   2.282   1.073 -0.0734 -0.7613  0.2067
  263SOL    HW1  788   0.824   2.195   1.117 -1.2063 -2.8645 -0.2216
  263SOL    HW2  789   0.718   2.253   1.002  0.0667 -0.5188 -2.9447
  264SOL     OW  790   2.956   2.350   0.344  0.2986 -0.0589  0.5442
  264SOL    HW1  791   2.951   2.449   0.351 -0.0272  0.0949 -2.5369
  264SOL    HW2  792   3.027   2.312   0.406 -1.3989  1.3350 -1.5725
  265SOL     OW  793   1.371   1.185   3.052 -0.0806 -0.0784 -0.0981
  265SOL    HW1  794   1.381   1.095   3.097  3.6340  0.3428  2.2252
  265SOL    HW2  795   1.308   1.174   2.972  2.8602 -2.1101  0.8372
  266SOL     OW  796   0.743   1.967   2.313 -0.4781  0.1167  0.3156
  266SOL    HW1  797   0.789   2.060   2.289 -0.5330  2.4268 -1.8178
  266SOL    HW2  798   0.640   1.963   2.321 -2.5566  0.7215  1.7165
  267SOL     OW  799   2.309   1.144   2.407 -0.1573 -0.0013 -0.6607
  267SOL    HW1  800   2.376   1.159   2.481 -1.9559  0.3284 -1.4208
  267SOL    HW2  801   2.231   1.202   2.436 -2.9363  0.3741  1.9461
  268SOL     OW  802   0.997   1.425   0.277  0.2120  0.0181 -0.2078
  268SOL    HW1  803   1.005   1.353   0.205 -0.1963  2.3288  1.5395
  268SOL    HW2  804   1.015   1.395   0.373  0.4031 -0.0363 -3.3124
  269SOL     OW  805   2.754   1.932   2.537  0.1118 -0.4721 -0.3015
  269SOL    HW1  806   2.762   1.993   2.621 -0.6908 -0.9195  1.0727
  269SOL    HW2  807   2.846   1.888   2.515  2.2243  0.0764 -0.7149
  270SOL     OW  808   0.618   2.342   0.012  0.6303  0.6013 -0.5396
  270SOL    HW1  809   0.538   2.317   3.083 -1.8656 -0.5543 -0.1421
  270SOL    HW2  810   0.707   2.354   3.083  1.0099 -1.1648 -1.5164
  271SOL     OW  811   0.288   0.504   0.116  0.3406 -0.0278 -0.9307
  271SOL    HW1  812   0.210   0.469   0.176  1.2909 -1.0533 -2.3322
  271SOL    HW2  813   0.260   0.510   0.017 -0.7905  0.5708 -2.9568
  272SOL     OW  814   2.919   0.145   0.360 -0.3220  0.1743  0.4705
  272SOL    HW1  815   2.907   0.158   0.460  0.2146 -0.7632 -2.5936
  272SOL    HW2  816   2.890   0.222   0.307  2.2657 -1.9683  1.6546
  273SOL     OW  817   0.427   0.009   1.785  0.0389  0.0187  0.3995
  273SOL    HW1  818   0.503   3.074   1.815  2.0819 -1.1474 -0.8913
  273SOL    HW2  819   0.337   3.101   1.823  1.1088 -0.0070  2.9543
  274SOL     OW  820   3.049   0.517   1.343  0.0337 -0.2372 -0.3479
  274SOL    HW1  821   2.979   0.482   1.409 -0.5888 -2.5336 -2.2622
  274SOL    HW2  822   0.022   0.498   1.366  0.1939 -2.8299 -2.4647
  275SOL     OW  823   0.642   1.324   1.046 -0.2103 -0.4447  0.0745
  275SOL    HW1  824   0.729   1.370   1.016 -0.4405 -0.6913  0.7670
  275SOL    HW2  825   0.650   1.308   1.146  1.6257  0.1284  1.1502
  276SOL     OW  826   0.605   1.196   2.000 -0.2515  0.1044 -0.1349
  276SOL    HW1  827   0.571   1.283   2.038  1.0390  1.1178 -0.2606
  276SOL    HW2  828   0.584   1.112   2.057 -2.3214 -0.5962 -0.4907
  277SOL     OW  829   1.190   1.952   1.954  0.2339  0.0968 -0.1267
  277SOL    HW1  830   1.229   1.997   2.037 -0.2527  3.4216  2.3454
  277SOL    HW2  831   1.111   2.012   1.924  0.8233 -1.7006  1.1621
  278SOL     OW  832   2.526   2.559   2.360  0.0003 -0.0270 -0.7358
  278SOL    HW1  833   2.526   2.472   2.309  0.2394 -0.8596 -2.0364
  278SOL    HW2  834   2.431   2.576   2.398 -0.3689 -0.4299  0.8535
  279SOL     OW  835   1.165   1.876   0.042  0.2284  0.6272 -0.1747
  279SOL    HW1  836   1.227   1.907   0.112 -1.7198 -0.6869 -0.6534
  279SOL    HW2  837   1.092   1.945   0.022 -0.5405  0.8574  0.8093
  280SOL     OW  838   1.261   0.372   0.357  0.9798  0.3359 -0.3533
  280SOL    HW1  839   1.283   0.297   0.291 -0.4831  1.0857 -1.0964
  280SOL    HW2  840   1.327   0.377   0.436  0.1681 -0.6093 -1.8348
  281SOL     OW  841   0.528   0.603   1.574  0.3724  0.4630  0.3744
  281SOL    HW1  842   0.463   0.677   1.598  1.5027  0.3446 -0.5238
  281SOL    HW2  843   0.477   0.515   1.557 -1.5089 -2.0402 -0.0300
  282SOL     OW  844   0.209   2.663   0.530  0.2223 -0.3927  0.1502
  282SOL    HW1  845   0.151   2.620   0.599  0.3114  0.8829  1.3034
  282SOL    HW2  846   0.169   2.645   0.434 -0.7306 -0.2366  1.8077
  283SOL     OW  847   1.370   1.855   1.768 -0.7412 -0.3594  0.0539
  283SOL    HW1  848   1.321   1.850   1.682  0.9386 -1.9857  1.3203
  283SOL    HW2  849   1.302   1.879   1.843 -0.1955  1.4024  2.6513
  284SOL     OW  850   2.773   2.826   1.512 -0.0198 -0.1962 -0.7266
  284SOL    HW1  851   2.743   2.921   1.500  0.2729 -0.8191  0.9459
  284SOL    HW2  852   2.826   2.795   1.429  1.1951  2.0970 -1.6673
  285SOL     OW  853   0.119   2.572   0.279  0.5972 -0.3741  0.1391
  285SOL    HW1  854   0.038   2.611   0.225 -0.3091  0.7237 -0.7104
  285SOL    HW2  855   0.168   2.496   0.228  1.4562 -0.4746 -0.0971
  286SOL     OW  856   0.492   2.809   1.158  0.0167 -0.0325  0.0844
  286SOL    HW1  857   0.484   2.811   1.260 -1.4432 -0.4328  0.5703
  286SOL    HW2  858   0.464   2.902   1.111  0.2964  4.4976 -0.7179
  287SOL     OW  859   0.738   1.374   0.704  0.3115 -0.3830  0.0208
  287SOL    HW1  860   0.687   1.346   0.619  0.2580 -1.8384  1.8052
  287SOL    HW2  861   0.716   1.460   0.743  1.3452 -2.2196  0.4408
  288SOL     OW  862   1.572   2.073   2.581 -0.2065 -0.5766 -0.5527
  288SOL    HW1  863   1.538   1.983   2.615 -2.0377 -1.5780  0.2337
  288SOL    HW2  864   1.645   2.105   2.648 -0.2004  2.3091 -0.0938
  289SOL     OW  865   2.477   1.629   0.196 -0.0820 -0.3947 -0.1167
  289SOL    HW1  866   2.387   1.642   0.244  4.0110  0.9785  1.6089
  289SOL    HW2  867   2.483   1.538   0.155 -2.6945 -0.5192 -0.7953
  290SOL     OW  868   1.294   1.373   1.135  0.0434  0.4042 -0.1158
  290SOL    HW1  869   1.336   1.399   1.224 -1.3003  1.1540 -0.2273
  290SOL    HW2  870   1.215   1.312   1.153 -1.6386  0.1009  0.1452
  291SOL     OW  871   1.384   0.941   0.049 -0.2075 -0.7011 -0.0875
  291SOL    HW1  872   1.379   0.851   3.122  3.4915 -0.1042 -0.0511
  291SOL    HW2  873   1.477   0.960   0.095  3.8684  0.2826  3.2602
  292SOL     OW  874   1.279   1.598   0.324 -0.3476 -0.7668 -0.1192
  292SOL    HW1  875   1.181   1.572   0.317  0.2351  1.1117 -0.4728
  292SOL    HW2  876   1.325   1.609   0.232  0.7857 -2.0749  0.6837
  293SOL     OW  877   1.379   0.010   1.120  0.1808  0.5551 -0.0750
  293SOL    HW1  878   1.394   0.016   1.220 -0.2738 -1.3631 -0.3525
  293SOL    HW2  879   1.281   3.117   1.094  2.4521  1.2543 -1.3894
  294SOL     OW  880   2.139   1.011   2.726 -0.5447  0.3432 -0.0218
  294SOL    HW1  881   2.093   1.002   2.812  0.8538 -1.5449 -1.3732
  294SOL    HW2  882   2.114   1.100   2.679 -0.3069  0.6575  3.3918
  295SOL     OW  883   1.658   1.958   3.039  0.3412  0.3250  0.5539
  295SOL    HW1  884   1.618   1.912   3.120  0.7100  0.6769  0.1430
  295SOL    HW2  885   1.696   1.886   2.976  1.2359 -3.1891 -0.4383
  296SOL     OW  886   1.215   1.069   1.342 -0.2513  0.6913  0.1645
  296SOL    HW1  887   1.174   1.030   1.426 -0.4387  0.4065 -0.9899
  296SOL    HW2  888   1.268   0.988   1.305  1.8705  1.7900  3.5662
  297SOL     OW  889   0.348   0.813   2.044  0.0546 -0.7965  0.0429
  297SOL    HW1  890   0.393   0.755   1.973  2.8371  1.1056  1.1033
  297SOL    HW2  891   0.281   0.762   2.102 -1.6864 -0.3960 -0.8650
  298SOL     OW  892   1.487   1.746   1.418 -0.1679  0.1265 -0.2056
  298SOL    HW1  893   1.409   1.811   1.435 -0.4484 -1.5051  3.9838
  298SOL    HW2  894   1.500   1.693   1.498 -2.7895  0.6948 -0.3014
  299SOL     OW  895   1.147   0.057   2.534 -0.0416  0.4606 -0.1495
  299SOL    HW1  896   1.229   3.114   2.527  3.6483 -1.2091  1.3318
  299SOL    HW2  897   1.073   0.030   2.597  0.5793 -0.4322  0.3875
  300SOL     OW  898   2.734   2.123   0.430 -0.3299 -0.5823 -0.0338
  300SOL    HW1  899   2.799   2.147   0.509  0.4922  0.9481  1.7511
  300SOL    HW2  900   2.700   2.213   0.390 -0.6667  1.6215  2.9415
  301SOL     OW  901   2.341   0.423   2.567  0.4280 -0.1448  0.4607
  301SOL    HW1  902   2.316   0.366   2.483 -2.9101 -0.2776 -2.8717
  301SOL    HW2  903   2.398   0.367   2.636  1.8023 -2.7017  0.3099
  302SOL     OW  904   2.351   2.208   2.981  0.1689  0.1864  0.0816
  302SOL    HW1  905   2.402   2.127   3.013  0.6719 -0.2308 -1.1241
  302SOL    HW2  906   2.414   2.289   2.970 -2.2209  1.6366 -0.0362
  303SOL     OW  907   0.084   2.458   2.611 -0.0937  0.1759  0.1120
  303SOL    HW1  908   0.109   2.543   2.668  2.8567 -0.6243 -1.3674
  303SOL    HW2  909   0.076   2.372   2.661  0.2580  0.4178  1.5391
  304SOL     OW  910   0.169   1.552   1.043 -0.2050 -0.2329 -0.0908
  304SOL    HW1  911   0.095   1.587   1.109 -0.0506  2.4166  0.7501
  304SOL    HW2  912   0.266   1.586   1.067  1.1037  2.0591 -0.8192
  305SOL     OW  913   3.004   0.714   1.733  0.4465  0.0329  0.2015
  305SOL    HW1  914   3.086   0.682   1.678 -0.1085 -1.5920  0.3828
  305SOL    HW2  915   2.928   0.643   1.743 -0.2582 -0.2253  1.8850
  306SOL     OW  916   1.314   1.357   0.637  0.0573 -0.0371 -0.9201
  306SOL    HW1  917   1.333   1.431   0.702  1.0030 -0.8047 -0.7782
  306SOL    HW2  918   1.374   1.366   0.554  0.8893  0.3518 -0.5617
  307SOL     OW  919   0.336   3.101   0.681  0.0073 -0.1778 -0.3724
  307SOL    HW1  920   0.249   3.052   0.667  2.5879  0.0071  1.8743
  307SOL    HW2  921   0.397   3.105   0.600  0.3846  0.1892 -0.1596
  308SOL     OW  922   0.129   1.266   2.179 -0.5783  0.5614  0.0066
  308SOL    HW1  923   0.132   1.243   2.277  0.1995 -2.0329  0.8949
  308SOL    HW2  924   0.150   1.183   2.123 -0.4915 -2.7516 -0.2771
  309SOL     OW  925   3.014   1.856   2.493 -0.2474  0.0573  0.1238
  309SOL    HW1  926   3.051   1.835   2.403 -0.5565  0.8922  3.1245
  309SOL    HW2  927   3.055   1.790   2.559  0.9021 -0.6641 -0.6905
  310SOL     OW  928   2.275   0.583   0.060 -0.2288  0.2498 -0.3204
  310SOL    HW1  929   2.374   0.608   0.075  2.4506  0.6331  1.3850
  310SOL    HW2  930   2.248   0.626   3.095 -0.4286  1.1044  1.3522
  311SOL     OW  931   1.965   0.903   0.088  0.3204  0.0146  0.5469
  311SOL    HW1  932   2.002   0.934   3.123  1.1111 -0.0906  1.0431
  311SOL    HW2  933   1.881   0.845   0.078 -1.5754  0.5729  0.1715
  312SOL     OW  934   1.449   1.871   2.685  0.2780 -0.3414 -0.5379
  312SOL    HW1  935   1.423   1.839   2.592  0.0090 -0.5330  0.9738
  312SOL    HW2  936   1.391   1.809   2.744 -2.5107  1.3081  0.6740
  313SOL     OW  937   0.291   0.733   0.460  0.3748  0.3578  0.2692
  313SOL    HW1  938   0.307   0.647   0.408  2.8097 -0.9209  0.2937
  313SOL    HW2  939   0.237   0.709   0.542 -0.4138 -1.5242 -2.7081
  314SOL     OW  940   0.555   1.632   1.366  0.1479 -0.1607 -0.1506
  314SOL    HW1  941   0.652   1.637   1.333  1.0013  0.1580  0.4159
  314SOL    HW2  942   0.533   1.537   1.395  1.9766  0.4275  0.9328
  315SOL     OW  943   0.846   1.795   2.125  0.4358  0.3680 -0.2196
  315SOL    HW1  944   0.786   1.714   2.107 -0.1924  0.8095  0.0931
  315SOL    HW2  945   0.806   1.859   2.191 -0.1545 -0.6427  0.4894
  316SOL     OW  946   0.459   2.650   0.612 -0.3655  0.2860  0.1222
  316SOL    HW1  947   0.359   2.655   0.579 -0.9321  1.1369  0.6695
  316SOL    HW2  948   0.505   2.737   0.616 -1.2224 -4.0018 -0.0683
  317SOL     OW  949   2.267   0.287   1.236  0.5863 -0.3923 -0.0538
  317SOL    HW1  950   2.313   0.209   1.183 -0.0351 -3.0036 -3.3301
  317SOL    HW2  951   2.240   0.365   1.176  0.2820 -1.3959 -2.0656
  318SOL     OW  952   1.676   3.124   0.391 -0.2103  0.0329  0.2198
  318SOL    HW1  953   1.626   0.034   0.471 -0.2549  1.1701 -1.2146
  318SOL    HW2  954   1.774   3.123   0.412  0.8469  1.7880  1.4046
  319SOL     OW  955   1.781   0.588   2.747 -0.2347  0.0372  0.4598
  319SOL    HW1  956   1.782   0.576   2.646  0.2735  0.7269 -2.1201
  319SOL    HW2  957   1.871   0.568   2.787 -0.8236  2.0910 -0.7425
  320SOL     OW  958   2.824   2.082   1.773 -0.6626  0.3911 -0.4072
  320SOL    HW1  959   2.861   2.181   1.765 -1.2311 -1.4464 -1.0940
  320SOL    HW2  960   2.753   2.092   1.840  3.8564 -1.8443 -2.1306
  321SOL     OW  961   0.165   2.476   2.992  0.1856 -0.0910 -0.2338
  321SOL    HW1  962   0.183   2.552   3.061  1.1262  0.2456  3.4841
  321SOL    HW2  963   0.072   2.442   3.008  0.7932  0.3456  0.4888
  322SOL     OW  964   2.583   0.552   2.602  0.1794 -0.4690  0.5822
  322SOL    HW1  965   2.485   0.535   2.584 -0.9609 -1.2092  0.1246
  322SOL    HW2  966   2.642   0.471   2.588 -1.8028 -2.6339  1.6364
  323SOL     OW  967   2.323   1.261   0.676 -0.4798  0.4461 -0.0606
  323SOL    HW1  968   2.420   1.277   0.710 -0.6159 -0.5857 -1.3460
  323SOL    HW2  969   2.304   1.166   0.645 -1.2590  0.8165  1.7220
  324SOL     OW  970   0.156   0.313   1.120  0.4289  0.4042  0.3795
  324SOL    HW1  971   0.218   0.355   1.052  3.1523 -0.8999 -1.2432
  324SOL    HW2  972   0.157   0.360   1.214 -1.5546  3.8275 -0.8358
  325SOL     OW  973   2.535   0.135   1.631  0.3570  0.4318  0.2430
  325SOL    HW1  974   2.585   0.184   1.710  1.2942  1.5690  2.3017
  325SOL    HW2  975   2.496   0.205   1.567 -0.7183  3.2981  2.5517
  326SOL     OW  976   1.449   2.778   0.181 -0.4257  0.1911  0.1167
  326SOL    HW1  977   1.471   2.699   0.248  0.5425 -1.7066  0.4147
  326SOL    HW2  978   1.522   2.778   0.109  0.7707 -1.0693 -2.8605
  327SOL     OW  979   1.790   1.867   0.345 -0.3111  0.5784  0.1596
  327SOL    HW1  980   1.766   1.962   0.367  2.6215 -1.7554  1.0653
  327SOL    HW2  981   1.746   1.802   0.406  2.9617  1.5860 -2.9888
  328SOL     OW  982   3.015   2.208   2.049 -0.1852  0.5490  0.2914
  328SOL    HW1  983   3.054   2.214   1.957  0.9290  3.7000 -0.7357
  328SOL    HW2  984   2.913   2.201   2.045 -1.1293 -1.8695  0.4716
  329SOL     OW  985   3.074   2.247   1.206  0.1987  0.6121 -0.2845
  329SOL    HW1  986   3.075   2.341   1.244 -1.6168 -1.0092 -1.1029
  329SOL    HW2  987   3.098   2.177   1.277  1.9483  0.7506  2.1791
  330SOL     OW  988   2.700   0.798   2.541 -0.3175  0.0126 -0.0465
  330SOL    HW1  989   2.651   0.711   2.557  3.0849  4.8026 -1.4889
  330SOL    HW2  990   2.666   0.845   2.455 -1.4034 -1.3004  1.1619
  331SOL     OW  991   2.436   1.789   0.846  0.6398  0.2181  0.1993
  331SOL    HW1  992   2.367   1.867   0.834 -2.4233  2.2816 -3.1792
  331SOL    HW2  993   2.454   1.743   0.757  0.2858 -2.5358  1.0913
  332SOL     OW  994   0.417   2.930   0.873  0.6513 -0.4602  0.6254
  332SOL    HW1  995   0.387   2.994   0.801  2.0160 -1.1234 -1.0056
  332SOL    HW2  996   0.341   2.882   0.918  1.8298  2.0132 -2.2977
  333SOL     OW  997   2.804   1.949   2.242  0.1842 -0.1628 -0.4106
  333SOL    HW1  998   2.847   2.040   2.231 -0.1722  1.0194 -0.3787
  333SOL    HW2  999   2.785   1.931   2.341 -2.4537 -2.4325  4.3324
  334SOL     OW 1000   0.703   0.937   0.808 -0.4712  0.6607 -0.2320
  334SOL    HW1 1001   0.750   0.921   0.896  0.6324 -0.3241 -1.8274
  334SOL    HW2 1002   0.638   1.015   0.820  1.1520  0.4305 -0.3706
  335SOL     OW 1003   3.124   1.754   2.243  1.0672 -0.3548  0.7120
  335SOL    HW1 1004   3.095   1.657   2.254 -2.3330  1.0145 -0.8570
  335SOL    HW2 1005   0.016   1.775   2.144 -0.6774  0.6180 -1.3451
  336SOL     OW 1006   2.321   2.952   2.301  0.4523  0.0522 -0.2876
  336SOL    HW1 1007   2.301   2.854   2.327 -3.2494 -0.0106 -1.1591
  336SOL    HW2 1008   2.240   2.999   2.264  2.4257  1.1569 -0.5245
  337SOL     OW 1009   0.861   0.581   0.791  0.4475  0.3498  0.6774
  337SOL    HW1 1010   0.765   0.621   0.790 -1.9707  0.6330 -1.1456
  337SOL    HW2 1011   0.895   0.567   0.888  0.0761 -1.7575  3.2257
  338SOL     OW 1012   1.567   1.746   1.109 -0.3621 -0.3246  0.6203
  338SOL    HW1 1013   1.545   1.766   1.207 -2.5915  0.0049 -0.1180
  338SOL    HW2 1014   1.662   1.781   1.077 -1.5908 -2.1975 -2.2629
  339SOL     OW 1015   0.393   1.675   1.111  0.3906 -0.0315 -0.4145
  339SOL    HW1 1016   0.407   1.660   1.209 -0.1836 -2.1136  1.9828
  339SOL    HW2 1017   0.405   1.769   1.077 -1.1459 -2.2826 -0.8290
  340SOL     OW 1018   1.056   2.909   1.991  0.3936 -0.1613 -0.5166
  340SOL    HW1 1019   1.090   2.883   1.897 -0.3859  0.0751 -4.4197
  340SOL    HW2 1020   1.083   3.006   2.017 -0.2838  0.4116 -0.5507
  341SOL     OW 1021   2.039   1.535   0.828 -0.4455  0.0456  0.0241
  341SOL    HW1 1022   1.960   1.477   0.852  0.3547  2.5109  0.6767
  341SOL    HW2 1023   2.093   1.488   0.752  0.9970 -2.6520 -2.3573
  342SOL     OW 1024   2.299   1.050   0.350 -0.2860  0.3752 -0.0049
  342SOL    HW1 1025   2.378   1.031   0.286 -1.8357 -2.5970  0.4188
  342SOL    HW2 1026   2.244   1.124   0.309 -0.1139 -0.1892  0.5232
  343SOL     OW 1027   1.966   0.025   0.991 -0.0377  0.3761 -0.3285
  343SOL    HW1 1028   1.918   0.065   1.070  0.7310 -0.5925 -1.3487
  343SOL    HW2 1029   2.034   3.077   1.018  0.7329  2.1486 -1.0425
  344SOL     OW 1030   2.672   0.446   0.041  0.0706 -0.1947 -0.6331
  344SOL    HW1 1031   2.739   0.366   0.037 -0.8291 -1.3098  1.4300
  344SOL    HW2 1032   2.581   0.415   0.075 -3.1599  0.3946 -2.8294
  345SOL     OW 1033   0.915   2.383   2.006  0.0797 -0.2243 -0.7287
  345SOL    HW1 1034   0.929   2.447   1.928  2.6734 -1.6542 -0.1662
  345SOL    HW2 1035   0.815   2.366   2.032  0.3960  0.7816  0.6950
  346SOL     OW 1036   2.428   2.372   0.908  0.5650 -0.4812 -0.0812
  346SOL    HW1 1037   2.376   2.373   0.999 -2.0971 -2.1681  0.6443
  346SOL    HW2 1038   2.492   2.296   0.909 -0.0921  0.6617 -0.1767
  347SOL     OW 1039   2.042   3.113   1.592  1.0215  0.3533 -0.2078
  347SOL    HW1 1040   2.082   0.080   1.583 -0.8854 -3.3051  3.3529
  347SOL    HW2 1041   1.956   3.101   1.539  2.5635  1.8413  1.3394
  348SOL     OW 1042   0.827   0.831   1.509 -0.7830  0.1492  0.3492
  348SOL    HW1 1043   0.755   0.887   1.545 -1.3426 -1.4490 -3.2448
  348SOL    HW2 1044   0.790   0.741   1.477  4.8297 -1.9799 -1.1825
  349SOL     OW 1045   2.503   0.497   2.939 -0.0991 -0.4689  0.3095
  349SOL    HW1 1046   2.528   0.594   2.930  0.0173 -0.8085  1.1074
  349SOL    HW2 1047   2.550   0.452   3.022 -0.6060 -1.5989  1.8500
  350SOL     OW 1048   2.166   2.011   2.936  0.1962  0.2966 -0.7278
  350SOL    HW1 1049   2.072   2.044   2.948  1.7288 -0.2816 -2.2946
  350SOL    HW2 1050   2.238   2.088   2.951  1.8943  2.2289 -1.5132
  351SOL     OW 1051   1.015   0.409   0.481  0.1167 -0.4547 -0.3892
  351SOL    HW1 1052   1.023   0.508   0.509 -0.7892  1.9731  0.6292
  351SOL    HW2 1053   1.101   0.379   0.428  0.0498 -0.9594 -2.0696
  352SOL     OW 1054   1.470   2.074   2.861  0.2109  0.2367  0.2387
  352SOL    HW1 1055   1.527   2.043   2.942  0.4134 -1.1721  0.3078
  352SOL    HW2 1056   1.452   1.998   2.796 -1.6125  1.1444 -0.0223
  353SOL     OW 1057   0.564   1.051   2.982  0.0552  0.6708 -0.0357
  353SOL    HW1 1058   0.485   1.118   2.972  0.9421  0.2792 -0.8240
  353SOL    HW2 1059   0.644   1.099   3.024 -0.6112 -0.4928  0.5480
  354SOL     OW 1060   0.589   2.651   2.741 -0.1431  0.6175 -0.6304
  354SOL    HW1 1061   0.567   2.550   2.744 -1.7406  1.9214  0.4315
  354SOL    HW2 1062   0.688   2.669   2.730  0.2738 -1.0805  0.6803
  355SOL     OW 1063   2.603   2.679   1.677 -0.3897  0.4936  0.0853
  355SOL    HW1 1064   2.609   2.709   1.776 -1.0341  0.9833 -0.8062
  355SOL    HW2 1065   2.687   2.714   1.632  1.0747 -0.3338 -0.5165
  356SOL     OW 1066   2.865   1.193   1.395 -0.1758  0.1362  0.6118
  356SOL    HW1 1067   2.808   1.218   1.470 -0.6537  1.4518 -2.1932
  356SOL    HW2 1068   2.799   1.198   1.316  0.0761  1.5704  0.2101
  357SOL     OW 1069   2.682   0.408   1.278  0.4135 -0.0784 -0.1899
  357SOL    HW1 1070   2.755   0.415   1.352  1.7616  0.0233  0.4241
  357SOL    HW2 1071   2.698   0.319   1.226 -0.3705 -0.1951  1.2739
  358SOL     OW 1072   0.473   1.932   1.749  0.3860 -0.6442  0.3609
  358SOL    HW1 1073   0.495   1.919   1.651  1.5120  0.8448  1.7760
  358SOL    HW2 1074   0.384   1.978   1.769  1.7984 -1.3084  0.6034
  359SOL     OW 1075   2.742   2.895   2.696  0.3094  0.1163  0.4740
  359SOL    HW1 1076   2.651   2.946   2.698 -0.8483 -1.2037 -1.1472
  359SOL    HW2 1077   2.748   2.835   2.613 -0.8854  1.5571 -1.2822
  360SOL     OW 1078   1.177   0.879   1.802 -0.1214  0.4918 -0.1642
  360SOL    HW1 1079   1.090   0.835   1.835 -0.5747 -2.2024 -1.1917
  360SOL    HW2 1080   1.260   0.818   1.810 -2.2352 -1.1665 -3.2011
  361SOL     OW 1081   2.330   0.020   0.803 -1.0303  0.0114 -0.0917
  361SOL    HW1 1082   2.238   0.033   0.771  0.9816  1.9820  0.8999
  361SOL    HW2 1083   2.384   3.083   0.742  0.2368 -0.9940  1.1302
  362SOL     OW 1084   0.811   0.035   0.389 -0.5404  0.1988  0.2882
  362SOL    HW1 1085   0.817   0.136   0.363  1.0138  1.6648 -2.2971
  362SOL    HW2 1086   0.899   0.006   0.433  2.1454 -0.8440  0.3037
  363SOL     OW 1087   0.987   1.525   0.799  0.3098 -0.1323 -0.7551
  363SOL    HW1 1088   0.957   1.452   0.735  0.1739 -1.3816  1.6350
  363SOL    HW2 1089   1.091   1.512   0.819  4.9474 -2.5658 -0.0349
  364SOL     OW 1090   0.375   0.827   1.683 -0.2461 -0.0755 -0.0709
  364SOL    HW1 1091   0.396   0.769   1.765  1.2642  0.9773 -1.8039
  364SOL    HW2 1092   0.369   0.924   1.699 -0.6722 -1.6371 -0.2622
  365SOL     OW 1093   2.908   0.801   0.808  0.5073  0.7901 -0.4738
  365SOL    HW1 1094   2.961   0.768   0.883 -0.5612 -0.1390  2.4329
  365SOL    HW2 1095   2.861   0.723   0.768  2.7972  2.1345 -0.8511
  366SOL     OW 1096   2.708   1.523   0.634 -0.2041 -0.5396  0.1220
  366SOL    HW1 1097   2.721   1.543   0.535 -0.9186 -0.4993 -0.7024
  366SOL    HW2 1098   2.748   1.435   0.657 -0.8117  1.7909  2.0239
  367SOL     OW 1099   2.160   2.079   2.218  0.5172 -0.2131  0.3185
  367SOL    HW1 1100   2.134   2.025   2.137 -1.8178 -0.7838  0.0636
  367SOL    HW2 1101   2.078   2.087   2.283  1.2668 -2.5990  4.0513
  368SOL     OW 1102   2.716   1.721   0.842 -0.0132  0.5285  0.1574
  368SOL    HW1 1103   2.721   1.660   0.761  1.5430  0.7885  0.6824
  368SOL    HW2 1104   2.625   1.763   0.863 -1.3363  0.9725  0.0155
  369SOL     OW 1105   2.051   2.461   2.856 -0.1553  0.4700 -0.0353
  369SOL    HW1 1106   2.052   2.557   2.892  1.9862 -2.9344 -1.7843
  369SOL    HW2 1107   1.959   2.414   2.853 -1.2860 -0.9834 -1.1281
  370SOL     OW 1108   0.201   0.044   1.217 -0.0990  0.3397  0.0628
  370SOL    HW1 1109   0.182   0.137   1.180  2.1285 -3.8495  1.0915
  370SOL    HW2 1110   0.294   0.018   1.188  1.6182 -0.7789 -1.0978
  371SOL     OW 1111   0.690   2.132   0.182  0.0355 -0.2133 -0.1835
  371SOL    HW1 1112   0.676   2.197   0.104 -0.1611 -1.8601 -4.1920
  371SOL    HW2 1113   0.631   2.053   0.170  2.1802 -1.2931 -0.4788
  372SOL     OW 1114   1.024   1.223   0.105  0.1636 -0.0916  0.2307
  372SOL    HW1 1115   1.020   1.123   0.096  0.8098  1.6258 -3.7572
  372SOL    HW2 1116   1.043   1.265   0.014  0.5704  0.4862 -0.6537
  373SOL     OW 1117   1.363   2.496   2.403  0.0091 -0.0043  0.1228
  373SOL    HW1 1118   1.312   2.411   2.434  0.6331 -1.8073 -1.5798
  373SOL    HW2 1119   1.438   2.469   2.337 -0.2533  0.7303 -0.1900
  374SOL     OW 1120   0.389   2.288   3.002 -0.6367 -0.4107  0.0364
  374SOL    HW1 1121   0.360   2.216   3.069  1.2741  1.1947 -0.4759
  374SOL    HW2 1122   0.322   2.360   2.995  1.8862 -0.8195 -1.8073
  375SOL     OW 1123   0.640   1.018   1.623 -0.7956  0.6468  0.0373
  375SOL    HW1 1124   0.716   1.084   1.639  0.5406 -1.4026  1.2849
  375SOL    HW2 1125   0.566   1.038   1.691 -1.1933  2.9619  1.2057
  376SOL     OW 1126   0.583   2.398   1.723 -0.0837  0.8003 -0.0770
  376SOL    HW1 1127   0.532   2.432   1.802  0.6626 -1.2636 -0.3031
  376SOL    HW2 1128   0.679   2.369   1.748  2.5803  1.1512 -2.2071
  377SOL     OW 1129   2.910   1.462   2.620 -0.0972  0.0766  0.3503
  377SOL    HW1 1130   2.830   1.467   2.682  0.1444 -1.7046  2.2979
  377SOL    HW2 1131   2.965   1.373   2.629 -0.1800 -1.8793  1.3243
  378SOL     OW 1132   1.388   3.123   0.016 -0.1476 -0.4275  0.5132
  378SOL    HW1 1133   1.397   3.119   3.039  0.3609  3.3310  0.7147
  378SOL    HW2 1134   1.314   3.059   0.041 -0.3700  1.7841 -1.9846
  379SOL     OW 1135   2.007   0.714   0.802 -0.4497 -0.0193  0.1977
  379SOL    HW1 1136   2.005   0.806   0.841 -3.8288  0.6202  3.8359
  379SOL    HW2 1137   2.018   0.707   0.702  0.0553 -1.7442  1.0458
  380SOL     OW 1138   0.248   2.118   1.309  0.8372  0.2112  0.1540
  380SOL    HW1 1139   0.165   2.073   1.339  2.6285  1.4312 -1.3293
  380SOL    HW2 1140   0.326   2.068   1.351  0.2158 -0.4627  0.2609
  381SOL     OW 1141   2.516   1.817   2.504 -0.5703 -0.5242  0.3829
  381SOL    HW1 1142   2.602   1.878   2.517 -1.2914  5.9828 -0.7301
  381SOL    HW2 1143   2.430   1.858   2.545  1.7974  1.1129  1.1475
  382SOL     OW 1144   0.038   0.260   2.500  0.1570 -0.1052  0.1123
  382SOL    HW1 1145   0.058   0.161   2.518 -0.9519 -2.4328 -0.2550
  382SOL    HW2 1146   0.089   0.301   2.421 -2.7232  0.7529 -0.0154
  383SOL     OW 1147   1.785   1.291   3.019  0.1777  0.5732  0.2980
  383SOL    HW1 1148   1.855   1.364   3.038 -0.3038 -0.4650 -0.6570
  383SOL    HW2 1149   1.706   1.309   3.078 -0.8540 -1.6191 -0.6213
  384SOL     OW 1150   1.156   2.127   1.532  0.2993  0.0241  0.3131
  384SOL    HW1 1151   1.088   2.202   1.554 -0.1511  4.2911  0.5026
  384SOL    HW2 1152   1.247   2.167   1.542 -1.1736  1.4545  0.2775
  385SOL     OW 1153   1.856   2.590   0.982  0.0017  0.2064  0.0203
  385SOL    HW1 1154   1.830   2.684   1.020  0.4048 -0.2118 -1.2109
  385SOL    HW2 1155   1.834   2.576   0.881 -0.6799  0.3474 -0.6021
  386SOL     OW 1156   1.917   2.136   1.101 -0.2519 -0.1919  0.1875
  386SOL    HW1 1157   1.956   2.109   1.007  1.6953 -0.3609  0.4152
  386SOL    HW2 1158   1.878   2.230   1.096  1.3097  1.5137 -1.4399
  387SOL     OW 1159   2.904   2.068   1.494  0.2107 -0.2387 -0.4653
  387SOL    HW1 1160   2.917   2.039   1.592 -1.5849 -2.3558 -1.7296
  387SOL    HW2 1161   2.807   2.103   1.481  0.6674  0.0850  1.9976
  388SOL     OW 1162   2.716   0.864   1.603  0.1977  0.2924 -0.3942
  388SOL    HW1 1163   2.786   0.903   1.673  0.2831  3.3513  1.1370
  388SOL    HW2 1164   2.757   0.877   1.509  1.1088 -1.1160  0.8610
  389SOL     OW 1165   1.964   0.750   0.523  0.4309  0.6293 -0.5785
  389SOL    HW1 1166   1.990   0.783   0.430  0.2877  1.2297 -1.8481
  389SOL    HW2 1167   1.870   0.711   0.527 -1.0981 -0.7626 -1.5923
  390SOL     OW 1168   1.082   1.927   2.708 -0.0776  0.1106  0.5086
  390SOL    HW1 1169   1.025   1.989   2.761 -0.6663 -0.8743  0.1103
  390SOL    HW2 1170   1.035   1.918   2.618  0.2761  1.2074  0.9008
  391SOL     OW 1171   1.009   2.096   3.106 -0.4018 -0.3222 -0.2302
  391SOL    HW1 1172   0.960   2.181   0.014 -0.2276  4.2108 -2.1568
  391SOL    HW2 1173   1.085   2.126   3.048 -0.2804  1.4363  0.9136
  392SOL     OW 1174   0.075   2.733   1.629  0.1719 -0.1294 -0.8810
  392SOL    HW1 1175   0.154   2.732   1.699  1.9154  1.3304  0.6222
  392SOL    HW2 1176   3.111   2.776   1.663 -3.4842 -0.3216 -0.1886
  393SOL     OW 1177   1.621   2.574   0.251 -0.1507  0.3279  0.1744
  393SOL    HW1 1178   1.685   2.546   0.176  0.4516  1.0579 -2.7547
  393SOL    HW2 1179   1.575   2.491   0.284 -0.3067  0.2767 -0.0287
  394SOL     OW 1180   0.493   0.636   2.262 -0.0986 -0.3888  0.4152
  394SOL    HW1 1181   0.396   0.658   2.286 -0.7685  2.4358 -0.2684
  394SOL    HW2 1182   0.526   0.550   2.311 -0.4288 -2.0062 -1.4411
  395SOL     OW 1183   0.419   1.138   1.108  0.2802  0.6414  0.1051
  395SOL    HW1 1184   0.321   1.120   1.107  1.0166 -1.1285  1.5923
  395SOL    HW2 1185   0.448   1.226   1.063  1.3078  0.9516 -2.4770
  396SOL     OW 1186   1.843   1.171   2.328 -0.0826 -0.5688 -0.5233
  396SOL    HW1 1187   1.896   1.245   2.365 -0.5543 -1.4947  0.7335
  396SOL    HW2 1188   1.832   1.094   2.393  2.4063  2.7345 -0.6941
  397SOL     OW 1189   0.723   0.289   3.097  0.0435 -0.0840 -0.0387
  397SOL    HW1 1190   0.729   0.383   3.058  2.1460 -0.9960 -0.8705
  397SOL    HW2 1191   0.628   0.259   3.117  1.1585 -1.4901  2.4722
  398SOL     OW 1192   0.887   2.141   2.798 -0.2365  0.1353  0.6273
  398SOL    HW1 1193   0.867   2.207   2.874 -0.2388  0.5090 -0.8004
  398SOL    HW2 1194   0.800   2.102   2.758 -2.5607 -0.0176  0.5808
  399SOL     OW 1195   2.389   1.458   2.455  0.2909 -0.7422  0.1237
  399SOL    HW1 1196   2.481   1.501   2.441 -1.3551 -0.6136  0.1827
  399SOL    HW2 1197   2.342   1.474   2.547 -0.1491  0.6730 -0.2658
  400SOL     OW 1198   2.259   1.424   1.276  0.3563 -0.4887 -0.1982
  400SOL    HW1 1199   2.333   1.418   1.207 -2.4954 -0.1309  0.2078
  400SOL    HW2 1200   2.166   1.436   1.231  0.7222  1.6671 -1.3020
  401SOL     OW 1201   1.132   1.717   1.332  0.2591  0.0434  0.0464
  401SOL    HW1 1202   1.177   1.655   1.264  2.5215 -0.6383  2.7221
  401SOL    HW2 1203   1.063   1.663   1.384  0.7617  1.7124  0.6504
  402SOL     OW 1204   0.151   2.510   1.978  0.0769  0.4796  0.1885
  402SOL    HW1 1205   0.061   2.528   2.022  0.1766 -0.6072 -0.1603
  402SOL    HW2 1206   0.196   2.597   1.949 -0.9076  2.0706 -2.6257
  403SOL     OW 1207   0.184   1.172   2.447 -0.9955 -0.0640  0.0840
  403SOL    HW1 1208   0.194   1.244   2.516  0.4759  0.3866 -0.7980
  403SOL    HW2 1209   0.275   1.144   2.412 -1.5318 -1.9794 -0.9565
  404SOL     OW 1210   2.153   1.899   1.319  0.1411  0.6381 -0.2047
  404SOL    HW1 1211   2.190   1.987   1.292  1.2108  0.0745  1.8366
  404SOL    HW2 1212   2.223   1.826   1.317 -0.1096  0.7634 -2.2548
  405SOL     OW 1213   2.733   0.296   2.562  0.1121  0.3760  0.0076
  405SOL    HW1 1214   2.792   0.326   2.482  0.4429 -0.6971 -0.2260
  405SOL    HW2 1215   2.776   0.212   2.603 -0.3378 -1.0957  0.0728
  406SOL     OW 1216   0.764   1.303   3.063 -0.0948  0.0264  0.4453
  406SOL    HW1 1217   0.702   1.382   3.036 -0.4611 -0.5324  0.5727
  406SOL    HW2 1218   0.848   1.299   3.002 -0.3983  1.8329  1.7527
  407SOL     OW 1219   1.790   2.405   2.886  0.2111 -0.1797  0.4371
  407SOL    HW1 1220   1.699   2.357   2.865 -1.6957 -0.7097 -2.0879
  407SOL    HW2 1221   1.774   2.506   2.894  1.2843  2.1096 -0.8844
  408SOL     OW 1222   0.364   0.029   3.089  0.4462  0.0991 -0.2157
  408SOL    HW1 1223   0.415   0.045   0.049 -1.1618 -0.1468 -2.7372
  408SOL    HW2 1224   0.423   3.123   3.012 -1.8067  2.6176  0.4718
  409SOL     OW 1225   2.262   1.591   0.970  0.5494 -0.1488 -0.2688
  409SOL    HW1 1226   2.168   1.570   0.930 -2.0481 -1.1309 -1.9323
  409SOL    HW2 1227   2.310   1.673   0.929  0.4111  0.5853 -1.4119
  410SOL     OW 1228   2.287   1.795   3.106  0.2419 -0.4388  0.2051
  410SOL    HW1 1229   2.338   1.751   0.059  1.4970 -2.2529  0.4702
  410SOL    HW2 1230   2.337   1.879   3.061  0.1722 -1.2953 -0.9258
  411SOL     OW 1231   0.104   1.314   0.944 -0.1734  0.0979 -0.1273
  411SOL    HW1 1232   0.119   1.402   0.989 -1.1139 -0.4097  1.5253
  411SOL    HW2 1233   0.178   1.286   0.880 -1.3294  0.7699  0.4887
  412SOL     OW 1234   1.723   2.731   0.493 -0.3664  0.1717 -0.1749
  412SOL    HW1 1235   1.809   2.782   0.496  0.5089  1.0154  1.7574
  412SOL    HW2 1236   1.706   2.685   0.405 -3.1866 -0.0136 -4.4523
  413SOL     OW 1237   2.063   0.677   2.236 -0.4639  0.0321  0.5575
  413SOL    HW1 1238   2.039   0.773   2.238  1.5650 -2.1876  0.1367
  413SOL    HW2 1239   1.993   0.626   2.186  0.5608  1.3655  0.2540
  414SOL     OW 1240   3.012   0.431   0.452  0.8725 -0.1300  0.5730
  414SOL    HW1 1241   2.948   0.424   0.374 -2.0160 -3.3379  1.0408
  414SOL    HW2 1242   3.001   0.349   0.514 -2.7307  0.1772  3.3482
  415SOL     OW 1243   0.840   1.598   1.702 -0.3142 -0.7379 -0.3206
  415SOL    HW1 1244   0.814   1.698   1.697 -2.0628 -0.8096 -0.1818
  415SOL    HW2 1245   0.760   1.533   1.700 -1.5568  0.0122  0.6359
  416SOL     OW 1246   0.535   3.099   2.862 -0.1990 -0.4648  0.1913
  416SOL    HW1 1247   0.578   0.053   2.811  1.4775  1.0406 -1.6575
  416SOL    HW2 1248   0.449   3.072   2.811 -1.6152 -0.7643 -2.3577
  417SOL     OW 1249   2.466   2.986   1.200 -0.0728 -0.5270 -0.3951
  417SOL    HW1 1250   2.408   2.908   1.229 -2.6079 -2.3066 -0.3611
  417SOL    HW2 1251   2.546   3.009   1.258  1.3842 -0.4027  0.2541
  418SOL     OW 1252   0.546   0.532   2.603 -0.1787 -0.0514 -0.3830
  418SOL    HW1 1253   0.475   0.482   2.659  0.2439 -0.1591  0.2107
  418SOL    HW2 1254   0.565   0.486   2.515 -1.6731  1.7961  0.4559
  419SOL     OW 1255   0.056   1.434   1.423  0.0250 -0.3635 -0.3566
  419SOL    HW1 1256   0.033   1.527   1.459 -0.5890  2.7757  0.7484
  419SOL    HW2 1257   0.002   1.418   1.336 -2.4505  1.9137 -0.9440
  420SOL     OW 1258   0.679   1.903   1.150  0.1605 -0.2946 -0.1366
  420SOL    HW1 1259   0.683   1.806   1.122 -0.4491  0.2314  0.0531
  420SOL    HW2 1260   0.604   1.953   1.109 -0.1134  1.2685  0.0517
  421SOL     OW 1261   1.922   2.147   2.339 -0.0325  0.3683  0.0396
  421SOL    HW1 1262   1.891   2.161   2.240 -1.7149  2.7155 -2.5890
  421SOL    HW2 1263   1.905   2.237   2.385  0.7217 -1.2778  1.7070
  422SOL     OW 1264   0.018   0.530   2.613 -0.5322  0.1150  0.2621
  422SOL    HW1 1265   0.028   0.425   2.608 -2.1213 -1.1018  0.9768
  422SOL    HW2 1266   3.076   0.545   2.685  0.0736 -1.2943 -1.8758
  423SOL     OW 1267   1.400   2.106   0.967 -0.0194 -0.1039 -0.3134
  423SOL    HW1 1268   1.318   2.053   0.931 -3.0547  1.3120  1.6578
  423SOL    HW2 1269   1.401   2.114   1.068 -2.0163 -2.2351 -0.8230
  424SOL     OW 1270   0.602   1.480   1.676 -0.7458 -0.0472 -0.5457
  424SOL    HW1 1271   0.518   1.526   1.717 -1.4783  0.0780  0.6937
  424SOL    HW2 1272   0.573   1.432   1.585  2.5487 -0.4551 -1.4542
  425SOL     OW 1273   2.944   2.786   2.001 -0.1462 -0.3382  0.3860
  425SOL    HW1 1274   2.998   2.715   2.042 -1.8573 -0.0488  0.6502
  425SOL    HW2 1275   2.953   2.784   1.898  0.9583  2.0902 -2.2745
  426SOL     OW 1276   1.673   0.348   0.635  0.2531 -0.0576 -0.0271
  426SOL    HW1 1277   1.690   0.360   0.532  1.4832 -2.4663  0.1370
  426SOL    HW2 1278   1.731   0.400   0.699 -1.6807 -0.8799  0.4743
  427SOL     OW 1279   1.131   0.565   2.935 -0.6482  0.4534 -0.2049
  427SOL    HW1 1280   1.094   0.580   3.027 -0.2896  1.8133  0.6532
  427SOL    HW2 1281   1.110   0.645   2.873  2.6545  1.6492 -0.4312
  428SOL     OW 1282   1.696   1.188   0.198 -0.5207 -0.2828 -0.1122
  428SOL    HW1 1283   1.622   1.254   0.168 -2.6883 -2.7005  1.1623
  428SOL    HW2 1284   1.683   1.103   0.145 -0.9627  2.6877 -1.6019
  429SOL     OW 1285   2.996   2.847   0.567 -0.1210 -0.6402 -0.2017
  429SOL    HW1 1286   3.063   2.894   0.631  0.5685 -0.5587 -2.1178
  429SOL    HW2 1287   2.988   2.899   0.480  0.3736  0.9980 -0.4048
  430SOL     OW 1288   0.431   3.044   2.259 -0.4174 -0.4576  0.3256
  430SOL    HW1 1289   0.444   3.031   2.361  1.7796 -0.9956 -0.0210
  430SOL    HW2 1290   0.509   3.003   2.202  1.5285 -0.4407 -1.7206
  431SOL     OW 1291   2.549   0.949   1.345 -0.7370 -0.4885 -0.1943
  431SOL    HW1 1292   2.524   0.865   1.399  1.8376  2.1926 -1.8346
  431SOL    HW2 1293   2.483   1.026   1.368 -0.4745 -2.0422  1.7263
  432SOL     OW 1294   2.097   2.663   2.114  0.0297 -0.1463 -0.4124
  432SOL    HW1 1295   2.140   2.670   2.208 -1.8114 -0.3857 -3.1311
  432SOL    HW2 1296   2.128   2.580   2.063 -0.3586  1.4037 -0.8427
  433SOL     OW 1297   1.527   2.374   0.649  0.0292  0.5368  0.0013
  433SOL    HW1 1298   1.557   2.327   0.734  1.1515  0.2420  2.7067
  433SOL    HW2 1299   1.584   2.455   0.635  2.4578 -1.3581  0.1393
  434SOL     OW 1300   0.214   2.007   2.048 -0.5869 -0.2955  0.0412
  434SOL    HW1 1301   0.272   1.931   2.083 -0.3784 -0.3659  2.3901
  434SOL    HW2 1302   0.129   1.970   2.011 -0.3556  2.4832  1.7435
  435SOL     OW 1303   0.283   0.968   0.347 -0.1365 -0.4293 -0.2390
  435SOL    HW1 1304   0.289   0.878   0.399  1.0343 -0.7417  0.2159
  435SOL    HW2 1305   0.372   0.985   0.299  0.9151  1.0983  1.3612
  436SOL     OW 1306   0.302   2.727   1.846 -0.1118 -0.1013 -0.3588
  436SOL    HW1 1307   0.338   2.709   1.940  0.9353  0.8593 -1.0126
  436SOL    HW2 1308   0.378   2.735   1.782  0.4580 -1.5039  2.8512
  437SOL     OW 1309   1.549   2.472   1.655 -0.5012 -0.1929  0.5142
  437SOL    HW1 1310   1.604   2.479   1.570  0.7746 -0.8768  0.0899
  437SOL    HW2 1311   1.610   2.475   1.733  0.5327  0.7337 -0.0391
  438SOL     OW 1312   0.155   1.771   0.294 -0.2353  0.0985  0.3936
  438SOL    HW1 1313   0.199   1.792   0.379 -4.2011 -1.4523 -1.4242
  438SOL    HW2 1314   0.075   1.836   0.274 -0.6820  0.2376 -1.8731
  439SOL     OW 1315   0.115   0.495   0.865 -0.0459  0.0123  0.0209
  439SOL    HW1 1316   0.211   0.521   0.856 -0.5846 -1.7767  2.2750
  439SOL    HW2 1317   0.097   0.400   0.836  2.5897  2.0815 -1.7717
  440SOL     OW 1318   0.055   2.807   2.463  0.0438  0.1844  0.2014
  440SOL    HW1 1319   0.043   2.778   2.557 -1.0156  2.0087  0.2770
  440SOL    HW2 1320   0.133   2.764   2.416  1.5140 -2.3255  2.5734
  441SOL     OW 1321   2.958   0.214   0.615  0.5359  0.0065 -0.0709
  441SOL    HW1 1322   3.050   0.221   0.663  0.3659  2.6044  1.3901
  441SOL    HW2 1323   2.885   0.173   0.671 -2.2112 -2.2379 -0.4304
  442SOL     OW 1324   1.264   2.233   2.502  0.1682  0.2172  0.4550
  442SOL    HW1 1325   1.228   2.224   2.598  0.0819 -0.5411  4.4197
  442SOL    HW2 1326   1.342   2.171   2.484  0.3409  2.2788  0.0619
  443SOL     OW 1327   0.744   1.134   0.148 -0.4583 -0.0296  0.1788
  443SOL    HW1 1328   0.768   1.210   0.081  0.3112 -0.9269  0.6868
  443SOL    HW2 1329   0.801   1.051   0.125  1.4044  1.5733 -0.1238
  444SOL     OW 1330   1.659   1.340   2.784 -0.4598 -0.0392 -0.2204
  444SOL    HW1 1331   1.622   1.431   2.811  0.0029 -1.0280  0.7525
  444SOL    HW2 1332   1.691   1.307   2.876 -2.4890  1.0996  1.7875
  445SOL     OW 1333   3.092   3.107   0.857  0.1890 -0.1043 -0.2128
  445SOL    HW1 1334   0.031   3.029   0.838 -1.1191 -0.6494  1.2690
  445SOL    HW2 1335   2.999   3.089   0.827 -2.0670  2.4683  0.8959
  446SOL     OW 1336   2.135   0.481   1.013 -0.6570 -0.5627  0.3692
  446SOL    HW1 1337   2.135   0.457   0.912 -1.5684  0.9169  2.1220
  446SOL    HW2 1338   2.046   0.460   1.056  1.2632  1.4632 -2.2292
  447SOL     OW 1339   0.282   0.739   2.969 -0.1205 -0.0952 -0.0898
  447SOL    HW1 1340   0.235   0.650   2.970  0.8847  0.8266  0.6724
  447SOL    HW2 1341   0.219   0.814   2.992 -0.5855  0.6999 -0.5863
  448SOL     OW 1342   1.543   2.026   1.640  0.0643  0.0227 -0.1897
  448SOL    HW1 1343   1.631   1.996   1.606  1.4449  0.8905  0.8974
  448SOL    HW2 1344   1.476   1.953   1.668 -1.9419  0.5009 -1.6404
  449SOL     OW 1345   0.870   1.441   1.034  0.3283 -0.8536 -0.3086
  449SOL    HW1 1346   0.945   1.373   1.058 -2.3201 -0.4972 -1.2733
  449SOL    HW2 1347   0.904   1.505   0.966 -1.6297 -2.9355 -0.6323
  450SOL     OW 1348   2.808   2.411   2.189 -0.8016  0.2723  0.3059
  450SOL    HW1 1349   2.710   2.410   2.196  0.8539 -1.9112 -0.3408
  450SOL    HW2 1350   2.839   2.329   2.244  0.1018 -2.0425 -2.0061
  451SOL     OW 1351   2.484   1.221   2.642 -0.3184 -0.5730  0.1658
  451SOL    HW1 1352   2.524   1.180   2.726 -0.6895  0.0688  0.8711
  451SOL    HW2 1353   2.541   1.289   2.596 -1.3594 -1.3610  0.9076
  452SOL     OW 1354   1.928   0.948   1.204  0.0825  0.0433  0.2268
  452SOL    HW1 1355   1.884   1.030   1.250  1.1213 -0.3770 -0.5328
  452SOL    HW2 1356   2.027   0.956   1.218  1.2292  2.6788  2.1179
  453SOL     OW 1357   2.089   0.961   1.598  0.0412  0.7452  0.0962
  453SOL    HW1 1358   2.151   0.985   1.679  1.0518  1.8607  0.4352
  453SOL    HW2 1359   2.088   1.028   1.523 -1.2890 -0.8491  1.4891
  454SOL     OW 1360   0.053   1.024   0.207  0.1898 -0.0353  0.1397
  454SOL    HW1 1361   0.139   1.023   0.266 -0.0383 -0.6101  1.2185
  454SOL    HW2 1362   3.098   1.032   0.269  2.1345 -0.2293  0.6559
  455SOL     OW 1363   2.458   1.465   1.082  0.2610 -0.2029 -0.1837
  455SOL    HW1 1364   2.466   1.387   1.021 -2.1301  1.3658  0.6449
  455SOL    HW2 1365   2.383   1.519   1.041 -0.2392  0.7045  1.5918
  456SOL     OW 1366   0.822   0.391   1.522  0.5000  0.1391 -0.0229
  456SOL    HW1 1367   0.771   0.426   1.606 -1.4764  2.4708 -0.1489
  456SOL    HW2 1368   0.913   0.345   1.540  0.3411  0.4759 -2.0367
  457SOL     OW 1369   1.794   2.835   1.139  0.1752  0.4412 -0.0031
  457SOL    HW1 1370   1.892   2.848   1.134 -1.1457  1.8737  0.1244
  457SOL    HW2 1371   1.733   2.892   1.075 -4.0982 -0.8520 -2.2410
  458SOL     OW 1372   2.475   0.237   0.355 -0.0705 -0.1346 -0.1922
  458SOL    HW1 1373   2.512   0.306   0.425 -1.1982  5.0810 -1.1265
  458SOL    HW2 1374   2.416   0.168   0.397  0.6108  0.3505  0.3773
  459SOL     OW 1375   1.563   0.679   0.190  0.1323  0.3257 -0.1083
  459SOL    HW1 1376   1.551   0.732   0.273  2.3866 -0.7562 -1.8139
  459SOL    HW2 1377   1.480   0.672   0.139 -1.5899  0.8336  0.2490
  460SOL     OW 1378   0.041   2.728   2.731 -0.4933 -0.5104  0.5690
  460SOL    HW1 1379   3.084   2.759   2.782  0.1147  0.8079  2.3798
  460SOL    HW2 1380   0.127   2.752   2.781  1.1155  0.7197  0.1659
  461SOL     OW 1381   0.474   1.873   0.170  0.1869 -0.7499 -0.6387
  461SOL    HW1 1382   0.509   1.851   0.263 -4.2390 -2.2717 -1.4989
  461SOL    HW2 1383   0.481   1.791   0.106 -2.1801  0.0249  0.0754
  462SOL     OW 1384   2.057   2.312   0.674 -0.0724 -0.1340 -0.7498
  462SOL    HW1 1385   2.149   2.287   0.635 -0.4018  0.5915  0.3476
  462SOL    HW2 1386   2.061   2.374   0.755 -2.6551 -1.3984  1.2594
  463SOL     OW 1387   3.072   0.721   0.446  0.7193  0.4303  0.2009
  463SOL    HW1 1388   0.023   0.712   0.518  3.3903  0.4563 -0.5146
  463SOL    HW2 1389   3.021   0.634   0.431  1.6958 -0.4393 -1.2671
  464SOL     OW 1390   0.611   2.621   0.358  0.2179  0.0141 -0.5759
  464SOL    HW1 1391   0.582   2.607   0.459 -1.6063 -0.6963 -0.2518
  464SOL    HW2 1392   0.695   2.579   0.335 -2.3502  0.9550  1.6160
  465SOL     OW 1393   2.369   0.472   0.598  0.3783 -0.3066  0.2469
  465SOL    HW1 1394   2.325   0.494   0.684  1.5574 -1.6561 -4.0377
  465SOL    HW2 1395   2.306   0.412   0.543  1.0184  0.0242 -3.0868
  466SOL     OW 1396   1.998   0.173   0.271  0.0276 -0.1561 -0.1220
  466SOL    HW1 1397   1.953   0.260   0.234  0.6501 -1.1828 -0.9580
  466SOL    HW2 1398   1.994   0.095   0.201  0.2794  1.4833 -0.2141
  467SOL     OW 1399   1.296   0.269   1.975  0.2773 -0.0929  0.0912
  467SOL    HW1 1400   1.264   0.279   2.069  0.6129  0.4459  3.6110
  467SOL    HW2 1401   1.365   0.341   1.949  1.3868  1.2225  2.0064
  468SOL     OW 1402   3.082   0.929   2.151  0.1546 -0.0090 -0.6122
  468SOL    HW1 1403   0.014   0.988   2.092 -0.1258  1.9845  0.5567
  468SOL    HW2 1404   3.104   0.929   2.250 -0.1515 -0.3850  1.4575
  469SOL     OW 1405   0.846   2.429   2.391 -0.2213 -0.3022 -0.4359
  469SOL    HW1 1406   0.846   2.413   2.494  0.0325  1.1579  1.5084
  469SOL    HW2 1407   0.831   2.347   2.336 -0.6414  2.3071 -0.9504
  470SOL     OW 1408   2.089   1.281   2.028  0.1874 -0.1809 -0.3942
  470SOL    HW1 1409   2.163   1.332   1.979  1.1598 -3.2004 -1.2124
  470SOL    HW2 1410   2.118   1.182   2.040  0.9521  1.1566  3.5567
  471SOL     OW 1411   2.958   1.154   0.052 -0.0874 -0.2460 -0.0160
  471SOL    HW1 1412   2.957   1.205   3.087 -1.8112 -0.1527  0.6284
  471SOL    HW2 1413   3.052   1.130   0.071 -0.5609  2.1671 -1.3136
  472SOL     OW 1414   0.405   2.872   0.296 -0.0186  0.0079  0.2945
  472SOL    HW1 1415   0.440   2.786   0.335  0.4027 -0.6033 -3.4637
  472SOL    HW2 1416   0.474   2.946   0.290 -1.6510  0.4204 -1.8029
  473SOL     OW 1417   0.952   2.667   2.343  0.3903  0.4195 -0.2116
  473SOL    HW1 1418   0.918   2.568   2.353  0.4159 -0.8642  1.6950
  473SOL    HW2 1419   0.992   2.708   2.429  0.5390  2.9373  2.6975
  474SOL     OW 1420   1.476   0.159   2.425  0.2789 -0.1742  0.1484
  474SOL    HW1 1421   1.422   0.093   2.475  2.4978  1.2391 -0.9840
  474SOL    HW2 1422   1.538   0.208   2.489 -2.9966 -0.9625  2.3257
  475SOL     OW 1423   0.963   2.502   0.281  0.2434  0.1628 -0.8669
  475SOL    HW1 1424   0.968   2.605   0.292 -0.4574  0.7442  0.0993
  475SOL    HW2 1425   0.892   2.466   0.351 -2.6562  1.4262  0.4337
  476SOL     OW 1426   0.683   0.335   1.133 -0.4614 -0.0845  0.1613
  476SOL    HW1 1427   0.659   0.437   1.133 -0.7270 -2.3974 -0.5059
  476SOL    HW2 1428   0.734   0.315   1.048  0.6481 -0.0609 -1.1677
  477SOL     OW 1429   1.886   1.925   1.281  0.1283  0.1736  0.1790
  477SOL    HW1 1430   1.876   2.001   1.215 -1.5520 -1.2938  0.5200
  477SOL    HW2 1431   1.983   1.915   1.312  0.2162  0.0883  2.6461
  478SOL     OW 1432   3.122   0.955   2.827  0.0565  0.1822 -0.1342
  478SOL    HW1 1433   0.041   0.885   2.769 -1.1662  0.1958  0.2806
  478SOL    HW2 1434   0.031   0.940   2.924 -1.4913  2.3898  1.6330
  479SOL     OW 1435   0.764   3.112   0.955 -0.2290  0.1293 -0.2065
  479SOL    HW1 1436   0.761   3.098   1.053  0.0533 -0.7236 -0.0750
  479SOL    HW2 1437   0.677   0.016   0.910 -1.3141  0.3081 -0.1528
  480SOL     OW 1438   2.667   2.697   0.155 -0.1484 -0.0838 -0.7313
  480SOL    HW1 1439   2.666   2.770   0.084 -2.1327 -0.5491  1.2036
  480SOL    HW2 1440   2.703   2.611   0.119 -2.8029 -2.7484  2.4305
  481SOL     OW 1441   2.904   0.651   1.161 -0.2259 -0.4955  0.1055
  481SOL    HW1 1442   2.860   0.718   1.228 -0.8330  0.7171  2.2762
  481SOL    HW2 1443   2.961   0.586   1.218  1.4558  2.2786  0.0525
  482SOL     OW 1444   1.245   2.533   1.471 -0.4563  0.4150 -0.2035
  482SOL    HW1 1445   1.303   2.454   1.443 -1.1354  1.5271  0.9741
  482SOL    HW2 1446   1.247   2.535   1.571 -2.0037 -0.3369 -0.8059
  483SOL     OW 1447   0.563   1.449   2.990 -0.0500 -0.2797  0.3915
  483SOL    HW1 1448   0.545   1.463   2.893 -0.7254 -2.7489  2.4638
  483SOL    HW2 1449   0.510   1.366   3.021 -1.8723 -0.2870 -0.1979
  484SOL     OW 1450   1.343   1.542   2.464 -0.1824  0.3156 -0.6457
  484SOL    HW1 1451   1.334   1.471   2.532 -0.9690  1.6689  0.3110
  484SOL    HW2 1452   1.379   1.500   2.379  0.8721  1.0783  1.3819
  485SOL     OW 1453   0.207   0.388   2.291  0.8203 -0.3223  0.1733
  485SOL    HW1 1454   0.234   0.485   2.267 -1.5360  0.9165 -1.0152
  485SOL    HW2 1455   0.287   0.326   2.276  0.3360  0.7849 -0.6507
  486SOL     OW 1456   1.303   2.884   0.545 -0.8911  0.2626 -1.0093
  486SOL    HW1 1457   1.322   2.940   0.630 -0.7337 -0.9355 -0.5390
  486SOL    HW2 1458   1.359   2.914   0.466  3.0686  0.7466 -0.7536
  487SOL     OW 1459   1.595   2.997   1.009 -0.2260 -0.2749 -0.2192
  487SOL    HW1 1460   1.506   3.025   1.055 -0.9895  1.1769  1.6424
  487SOL    HW2 1461   1.657   3.074   0.987  1.7787 -2.7630  1.8743
  488SOL     OW 1462   2.372   0.875   0.808  0.6196  0.0866 -0.3399
  488SOL    HW1 1463   2.303   0.889   0.882 -0.2606 -0.8477  0.7580
  488SOL    HW2 1464   2.333   0.915   0.721 -1.4101 -1.9708 -0.3288
  489SOL     OW 1465   1.055   3.002   1.289  0.6263  0.4119 -0.6226
  489SOL    HW1 1466   1.108   2.944   1.353  0.7692  0.7123  0.6532
  489SOL    HW2 1467   0.973   2.953   1.256  3.7535 -1.2253  0.6654
  490SOL     OW 1468   0.829   0.729   0.433  0.2350 -0.5492 -0.2263
  490SOL    HW1 1469   0.800   0.828   0.432  1.5642  0.1357 -3.3698
  490SOL    HW2 1470   0.910   0.717   0.498  2.9637  2.1521  3.8314
  491SOL     OW 1471   0.978   2.762   0.324  0.2255 -0.1391  0.4529
  491SOL    HW1 1472   1.011   2.741   0.423  0.6329 -0.1700  1.2263
  491SOL    HW2 1473   1.054   2.756   0.257  0.7139 -0.7098 -0.7361
  492SOL     OW 1474   1.196   1.292   2.414  0.0913 -0.4030 -0.0143
  492SOL    HW1 1475   1.138   1.373   2.379 -0.5642  2.0733 -2.8345
  492SOL    HW2 1476   1.184   1.202   2.366 -0.8459 -0.5250  0.8599
  493SOL     OW 1477   3.104   1.936   0.176  0.5006  0.0227 -0.1698
  493SOL    HW1 1478   0.019   1.987   0.104 -1.1383 -2.3788  4.0448
  493SOL    HW2 1479   3.011   1.962   0.200  0.5667  2.0429 -1.3703
  494SOL     OW 1480   1.918   1.392   0.380 -0.6304  0.0039 -0.1608
  494SOL    HW1 1481   1.853   1.421   0.449  2.1521 -0.5419  0.2678
  494SOL    HW2 1482   1.916   1.288   0.367 -0.0176 -0.8693  2.0518
  495SOL     OW 1483   0.440   1.096   2.342  0.0765 -0.4072 -0.6992
  495SOL    HW1 1484   0.471   1.059   2.253  0.1138 -1.7806 -1.5095
  495SOL    HW2 1485   0.471   1.027   2.411 -0.3301  0.4808  3.2189
  496SOL     OW 1486   3.069   3.057   2.049 -0.3913  0.3846  0.5389
  496SOL    HW1 1487   0.028   3.036   2.106  1.1392 -3.0890 -0.2146
  496SOL    HW2 1488   3.017   2.970   2.042  4.0092  2.8905 -0.7920
  497SOL     OW 1489   2.245   1.009   0.600  0.0933 -0.4446 -0.4350
  497SOL    HW1 1490   2.276   1.020   0.502  0.0520 -0.7058  0.8134
  497SOL    HW2 1491   2.147   0.992   0.596  0.9711  1.0162  1.5650
  498SOL     OW 1492   2.888   2.638   3.020  0.9288 -0.2478  0.2871
  498SOL    HW1 1493   2.791   2.631   2.987 -3.7639  0.6202  2.8687
  498SOL    HW2 1494   2.930   2.726   2.990  1.6592  0.6917 -0.4778
  499SOL     OW 1495   1.837   2.580   0.697  0.2397 -0.2394  0.4015
  499SOL    HW1 1496   1.801   2.639   0.617 -3.7760  0.8561 -1.1187
  499SOL    HW2 1497   1.867   2.494   0.656  1.4775  0.8059 -0.6239
  500SOL     OW 1498   1.413   0.602   2.487  0.7554 -0.0626  0.2044
  500SOL    HW1 1499   1.423   0.531   2.559  1.5269  0.9810  1.1639
  500SOL    HW2 1500   1.451   0.695   2.515 -0.9814  3.7737  0.5674
  501SOL     OW 1501   1.191   0.077   1.399  0.2953  0.4189  0.3867
  501SOL    HW1 1502   1.291   0.052   1.394  1.7728  0.3291 -1.6140
  501SOL    HW2 1503   1.136   0.001   1.354  2.2696 -1.1612 -3.2287
  502SOL     OW 1504   0.026   3.053   1.714 -0.1308  0.1302  0.3712
  502SOL    HW1 1505   0.100   3.064   1.785  0.6249 -0.6722 -0.3158
  502SOL    HW2 1506   3.115   0.019   1.698 -0.4281 -3.1441 -0.1647
  503SOL     OW 1507   1.534   2.426   2.214  0.0871  0.4722 -0.5459
  503SOL    HW1 1508   1.599   2.460   2.145 -0.1710  0.0366  0.6396
  503SOL    HW2 1509   1.550   2.327   2.244 -2.4453 -3.4411  1.3496
  504SOL     OW 1510   1.953   0.261   1.802 -0.2506  0.0260 -0.0323
  504SOL    HW1 1511   2.000   0.247   1.711  0.9633  0.5816  1.4936
  504SOL    HW2 1512   1.879   0.193   1.820 -1.3624 -1.9559  0.7414
  505SOL     OW 1513   2.643   1.567   1.510  0.5123 -0.0534 -0.0142
  505SOL    HW1 1514   2.643   1.466   1.518 -0.1454 -0.3775  0.3732
  505SOL    HW2 1515   2.582   1.617   1.571 -1.2513  0.5757 -0.1020
  506SOL     OW 1516   0.220   1.470   2.030  0.0892  0.0366  0.1894
  506SOL    HW1 1517   0.189   1.401   2.094  0.0588 -1.1509 -3.3882
  506SOL    HW2 1518   0.174   1.457   1.938 -1.1808  1.1295 -0.5687
  507SOL     OW 1519   0.061   2.944   1.151  0.7772 -0.0565 -0.0099
  507SOL    HW1 1520   0.102   3.038   1.181 -0.6134 -1.1288  1.6923
  507SOL    HW2 1521   0.075   2.867   1.215 -2.0447  1.1035 -1.2971
  508SOL     OW 1522   1.393   0.801   1.512  0.5005  1.0616  0.1970
  508SOL    HW1 1523   1.317   0.750   1.462 -0.4058 -1.3576  1.5017
  508SOL    HW2 1524   1.390   0.781   1.610  0.1534 -0.7539 -0.6285
  509SOL     OW 1525   1.406   2.256   1.551  0.1485  0.1424  0.8651
  509SOL    HW1 1526   1.448   2.348   1.581  0.1930  2.2735  1.0732
  509SOL    HW2 1527   1.453   2.178   1.594 -1.3795 -0.5081 -1.3092
  510SOL     OW 1528   2.488   1.372   0.052 -0.2358  0.1182  0.5804
  510SOL    HW1 1529   2.575   1.339   0.088 -1.3987  0.3709 -0.9195
  510SOL    HW2 1530   2.426   1.296   0.032  1.0743  1.0173  0.8841
  511SOL     OW 1531   0.518   1.377   1.450  0.3045 -0.0466 -0.4495
  511SOL    HW1 1532   0.603   1.332   1.415 -1.2034 -1.7113  0.1486
  511SOL    HW2 1533   0.442   1.310   1.462 -0.0537 -1.4406 -1.0521
  512SOL     OW 1534   2.701   2.418   0.091 -0.0008 -0.1305 -0.7295
  512SOL    HW1 1535   2.778   2.349   0.076 -0.9854 -1.0141 -0.7137
  512SOL    HW2 1536   2.657   2.412   0.185 -0.1439 -0.4792 -0.7170
  513SOL     OW 1537   0.753   1.787   2.655  0.5384 -0.1712  0.2762
  513SOL    HW1 1538   0.807   1.780   2.743 -0.9078 -0.2038  0.3285
  513SOL    HW2 1539   0.819   1.784   2.579  1.5232 -0.7555 -0.6078
  514SOL     OW 1540   0.060   2.441   2.362 -0.3131  0.3485  0.4560
  514SOL    HW1 1541   0.057   2.340   2.347  0.8662  1.6388 -1.7712
  514SOL    HW2 1542   0.064   2.464   2.461 -0.6585  1.8568 -0.4890
  515SOL     OW 1543   1.988   1.357   1.759 -0.2260 -0.2984 -0.0541
  515SOL    HW1 1544   2.046   1.334   1.841  1.0231  0.6351 -0.5037
  515SOL    HW2 1545   2.025   1.335   1.666 -3.4929 -2.3053  0.5987
  516SOL     OW 1546   1.763   2.486   0.036 -0.1686 -0.3956  0.0955
  516SOL    HW1 1547   1.785   2.456   3.068 -1.6183 -1.8632  1.5771
  516SOL    HW2 1548   1.798   2.407   0.093  0.7917 -0.3314 -2.8676
  517SOL     OW 1549   0.880   1.784   0.707 -0.0899  0.0143 -0.0929
  517SOL    HW1 1550   0.907   1.801   0.611  0.0764 -2.2675 -0.6546
  517SOL    HW2 1551   0.917   1.699   0.751  0.5516 -0.5784  0.4707
  518SOL     OW 1552   2.077   2.453   1.737 -0.2483 -0.0181  0.1199
  518SOL    HW1 1553   2.026   2.538   1.715 -2.0134 -0.6395  1.3397
  518SOL    HW2 1554   2.006   2.376   1.746 -4.0948 -0.5863 -1.5469
  519SOL     OW 1555   2.228   2.349   1.077  0.1616 -0.3146  0.3605
  519SOL    HW1 1556   2.192   2.409   1.151 -1.5702  1.3705  0.8945
  519SOL    HW2 1557   2.188   2.379   0.988  0.7210 -1.7473 -0.9659
  520SOL     OW 1558   2.810   2.199   2.351 -0.2658  0.6110  0.0237
  520SOL    HW1 1559   2.725   2.172   2.398  3.2486 -1.4814  0.9105
  520SOL    HW2 1560   2.895   2.173   2.402  0.3829 -1.8368 -2.6889
  521SOL     OW 1561   2.766   1.196   2.378 -0.0168  0.3709 -0.1416
  521SOL    HW1 1562   2.821   1.206   2.295  2.2964 -2.1330 -1.1824
  521SOL    HW2 1563   2.703   1.276   2.394 -0.3098  0.1354  1.3617
  522SOL     OW 1564   0.935   0.427   2.117  0.2348 -0.1647  0.3276
  522SOL    HW1 1565   1.016   0.468   2.070  0.4844  0.9132  0.3493
  522SOL    HW2 1566   0.898   0.356   2.057 -2.0207 -0.4914  1.7599
  523SOL     OW 1567   0.400   1.923   1.032 -0.1211  0.8548  0.3930
  523SOL    HW1 1568   0.331   1.888   0.965 -3.3830 -0.5510  1.0366
  523SOL    HW2 1569   0.367   2.015   1.064 -0.2011 -0.4587  0.5077
  524SOL     OW 1570   1.984   2.788   0.082  0.3529 -0.4252  0.1585
  524SOL    HW1 1571   1.987   2.708   0.150  0.1090  0.1041 -1.8536
  524SOL    HW2 1572   2.065   2.779   0.015  3.0991 -2.7475  0.2095
  525SOL     OW 1573   2.215   0.950   1.264 -0.8278 -0.3667  0.7035
  525SOL    HW1 1574   2.204   0.850   1.252 -1.0177  1.2928 -0.8792
  525SOL    HW2 1575   2.269   0.997   1.186  1.5672  2.0526 -1.5448
  526SOL     OW 1576   1.078   2.559   0.782 -0.2540 -0.3590 -0.2150
  526SOL    HW1 1577   1.151   2.577   0.850  1.0485 -1.5535  0.6704
  526SOL    HW2 1578   1.002   2.503   0.818  1.4605  0.6090  0.2171
  527SOL     OW 1579   2.300   2.820   0.612  0.1557  0.4917  0.0407
  527SOL    HW1 1580   2.368   2.889   0.615  0.0511 -1.9561 -3.1561
  527SOL    HW2 1581   2.340   2.734   0.569 -0.2674 -1.7818 -1.6911
  528SOL     OW 1582   1.713   0.640   0.505 -0.2797 -0.7240  0.1042
  528SOL    HW1 1583   1.624   0.690   0.501 -0.1417 -2.9604 -0.3193
  528SOL    HW2 1584   1.697   0.558   0.446 -2.0360  0.6449  1.5273
  529SOL     OW 1585   1.568   1.614   2.775  0.2314  0.0343  0.3392
  529SOL    HW1 1586   1.469   1.631   2.770 -1.8123 -3.4260 -0.7582
  529SOL    HW2 1587   1.618   1.604   2.685  3.7605  0.2390  0.7794
  530SOL     OW 1588   2.408   0.355   0.129 -0.4516 -0.2826 -0.1649
  530SOL    HW1 1589   2.315   0.399   0.151 -2.9501  0.3995  0.2451
  530SOL    HW2 1590   2.446   0.317   0.219  0.0459 -1.3396  1.6438
  531SOL     OW 1591   1.660   0.793   2.904 -0.1880 -0.4657 -0.0501
  531SOL    HW1 1592   1.719   0.861   2.849  1.7251 -0.7214 -0.7715
  531SOL    HW2 1593   1.718   0.732   2.960 -1.3365  1.2261  1.7763
  532SOL     OW 1594   1.623   0.675   0.914  0.1092 -0.4159 -0.1382
  532SOL    HW1 1595   1.668   0.760   0.949 -4.4882 -0.2660  1.1946
  532SOL    HW2 1596   1.684   0.617   0.858 -0.5028 -0.9148 -3.0054
  533SOL     OW 1597   0.545   0.884   2.477 -0.3477  0.1964 -0.0830
  533SOL    HW1 1598   0.613   0.848   2.412  0.9125 -1.3625 -1.2831
  533SOL    HW2 1599   0.589   0.892   2.572  1.3814  0.2695  1.7232
  534SOL     OW 1600   1.651   0.257   2.624  0.5371 -0.3217  0.5203
  534SOL    HW1 1601   1.733   0.218   2.575  2.3896  0.7037 -2.0639
  534SOL    HW2 1602   1.663   0.235   2.722  1.2814  1.4232 -3.3438
  535SOL     OW 1603   0.313   2.995   2.766  0.3712 -0.4242  0.1424
  535SOL    HW1 1604   0.295   2.907   2.812 -0.2516 -0.0251 -1.8607
  535SOL    HW2 1605   0.234   3.051   2.747  3.9782 -4.5678  1.8399
  536SOL     OW 1606   0.352   0.303   0.625 -0.2459 -0.1864  0.2175
  536SOL    HW1 1607   0.357   0.376   0.551 -0.3309 -0.2872 -1.7514
  536SOL    HW2 1608   0.437   0.308   0.681 -1.1069  0.6317  3.7177
  537SOL     OW 1609   1.518   0.264   0.161 -0.1948  0.2536  0.8158
  537SOL    HW1 1610   1.580   0.278   0.082  1.1462  0.9921  2.2225
  537SOL    HW2 1611   1.423   0.235   0.130 -0.5789 -0.7932 -1.7592
  538SOL     OW 1612   2.798   2.067   2.757 -0.4829 -0.0332 -0.1334
  538SOL    HW1 1613   2.859   2.030   2.830 -0.4929 -2.3535 -1.2360
  538SOL    HW2 1614   2.740   2.137   2.800  1.8669 -2.2494  1.0197
  539SOL     OW 1615   2.012   1.920   0.170 -0.2185  0.4551 -0.1721
  539SOL    HW1 1616   1.947   1.892   0.242 -1.4964 -0.1523  0.3802
  539SOL    HW2 1617   2.003   1.862   0.085  2.0697 -0.4892  2.3978
  540SOL     OW 1618   0.486   2.732   1.641 -0.1400  0.4732  0.4409
  540SOL    HW1 1619   0.489   2.633   1.612  1.7339 -0.7253 -2.8684
  540SOL    HW2 1620   0.473   2.783   1.555  1.0646 -3.0064 -1.0631
  541SOL     OW 1621   2.276   0.152   2.098 -0.1996 -0.3827 -0.2437
  541SOL    HW1 1622   2.374   0.124   2.069  3.7416  1.4081 -0.1912
  541SOL    HW2 1623   2.224   0.209   2.033 -1.4690 -0.6543 -0.0251
  542SOL     OW 1624   0.134   0.777   2.692 -0.1409  0.3565  0.2631
  542SOL    HW1 1625   0.092   0.691   2.656  1.4280 -0.0300 -0.4002
  542SOL    HW2 1626   0.211   0.757   2.757  1.0374  2.0929 -0.9526
  543SOL     OW 1627   0.291   0.694   1.316 -0.7245  0.0530  0.4236
  543SOL    HW1 1628   0.332   0.688   1.223  0.0237  3.3580 -1.7005
  543SOL    HW2 1629   0.222   0.767   1.319  0.6163 -3.2169  1.8082
  544SOL     OW 1630   2.653   0.708   1.024 -0.1600 -0.3836 -0.6877
  544SOL    HW1 1631   2.739   0.678   1.066 -1.9604  0.3758  1.9918
  544SOL    HW2 1632   2.629   0.638   0.954 -0.8977 -0.0622  1.9609
  545SOL     OW 1633   1.666   2.065   0.612  0.1053 -0.8120 -0.2767
  545SOL    HW1 1634   1.738   2.012   0.656 -0.0921  0.5583  1.3387
  545SOL    HW2 1635   1.623   2.128   0.678 -0.9914 -3.2769 -3.3182
  546SOL     OW 1636   2.235   2.921   1.610  0.1866  0.3125 -0.0945
  546SOL    HW1 1637   2.316   2.958   1.656 -0.1311  0.6951 -2.3763
  546SOL    HW2 1638   2.161   2.989   1.593  3.3837 -3.3165  2.1378
  547SOL     OW 1639   0.466   2.990   2.527 -0.3979  0.1234 -0.3500
  547SOL    HW1 1640   0.422   2.965   2.616 -0.1644 -0.0318  2.6969
  547SOL    HW2 1641   0.534   3.067   2.544  0.3323 -1.7316  2.2249
  548SOL     OW 1642   1.649   0.970   0.043 -0.4478 -0.1484 -0.0142
  548SOL    HW1 1643   1.638   0.960   3.064 -0.7477 -0.8296 -1.3133
  548SOL    HW2 1644   1.671   0.879   0.083 -0.8861 -0.2607 -0.2471
  549SOL     OW 1645   2.963   0.992   0.403 -0.3762 -0.0750 -0.3510
  549SOL    HW1 1646   3.009   0.905   0.421  0.3969  1.6213  1.6437
  549SOL    HW2 1647   2.864   0.977   0.381  2.2970 -0.9687 -0.3247
  550SOL     OW 1648   1.852   1.881   0.710 -0.5837  0.2239 -0.3501
  550SOL    HW1 1649   1.804   1.806   0.660  0.0701 -0.3098 -0.0741
  550SOL    HW2 1650   1.899   1.843   0.792 -1.7161 -0.0282 -0.7591
  551SOL     OW 1651   1.369   3.004   0.788 -0.2582  0.8906  0.1124
  551SOL    HW1 1652   1.440   2.977   0.860  1.1363 -2.0460 -0.2182
  551SOL    HW2 1653   1.277   2.969   0.816  1.0243 -2.4603  1.1315
  552SOL     OW 1654   2.908   2.817   2.304  0.0262  0.2655  0.6232
  552SOL    HW1 1655   2.994   2.818   2.358 -0.3837  1.2196 -1.0718
  552SOL    HW2 1656   2.927   2.857   2.214 -0.4514 -1.3912 -2.4028
  553SOL     OW 1657   0.185   2.980   2.155  0.0888  0.3183 -0.0571
  553SOL    HW1 1658   0.180   2.879   2.170  1.1619  3.2453 -0.1303
  553SOL    HW2 1659   0.274   3.019   2.188  2.0386 -2.4314 -1.0982
  554SOL     OW 1660   0.641   3.103   1.327  0.1412 -0.2865  0.1690
  554SOL    HW1 1661   0.688   0.069   1.344  0.6688 -0.1131 -3.3566
  554SOL    HW2 1662   0.707   3.026   1.315 -2.1257  1.2990 -1.1954
  555SOL     OW 1663   2.537   2.330   2.214 -0.0490  0.3055 -0.2311
  555SOL    HW1 1664   2.551   2.280   2.302 -0.1959 -0.6751 -0.0319
  555SOL    HW2 1665   2.454   2.298   2.161  0.5514 -0.4012 -0.2494
  556SOL     OW 1666   1.311   0.241   2.729 -0.7014 -0.3279  0.2355
  556SOL    HW1 1667   1.249   0.292   2.786 -1.5318  0.8504  1.7061
  556SOL    HW2 1668   1.259   0.188   2.661  0.5060 -0.6698 -2.2711
  557SOL     OW 1669   0.340   1.659   2.354 -0.2043  0.7632 -0.2640
  557SOL    HW1 1670   0.337   1.675   2.456 -1.9477  1.9916  2.0148
  557SOL    HW2 1671   0.381   1.570   2.330 -2.9685  0.7525 -1.8945
  558SOL     OW 1672   2.394   0.897   3.065  0.0299 -0.1127 -0.1449
  558SOL    HW1 1673   2.381   0.867   2.967 -0.2797  2.1177  1.0055
  558SOL    HW2 1674   2.456   0.830   3.114 -2.3871  2.0107 -0.7578
  559SOL     OW 1675   2.532   1.987   1.668 -0.1937 -0.4038  0.3576
  559SOL    HW1 1676   2.602   2.036   1.609  2.3093 -2.5579  0.0771
  559SOL    HW2 1677   2.491   2.052   1.730  1.5826 -2.9789 -0.8806
  560SOL     OW 1678   2.582   1.055   2.024 -0.6020 -0.2696  0.2853
  560SOL    HW1 1679   2.551   1.001   1.943 -0.6823 -0.2173  0.9423
  560SOL    HW2 1680   2.687   1.037   2.038  0.6943 -5.9218 -1.1198
  561SOL     OW 1681   0.106   0.042   2.742  0.2252 -0.0170 -0.6612
  561SOL    HW1 1682   0.077   0.013   2.648  0.7072 -1.3939  1.8094
  561SOL    HW2 1683   0.021   0.043   2.801 -1.9856 -1.1741  0.1578
  562SOL     OW 1684   0.928   1.268   1.520  0.2089 -0.3340  0.3830
  562SOL    HW1 1685   0.978   1.178   1.522  1.0673 -1.0725 -0.5080
  562SOL    HW2 1686   0.880   1.287   1.607  1.4453  0.5243  2.2119
  563SOL     OW 1687   1.443   0.042   2.887 -0.4213 -0.1080  0.1814
  563SOL    HW1 1688   1.473   3.100   2.812 -0.6351  1.6115 -0.1865
  563SOL    HW2 1689   1.385   0.117   2.844 -0.0692  1.8960 -0.0352
  564SOL     OW 1690   0.015   2.273   0.932 -0.3990  0.3268  0.0168
  564SOL    HW1 1691   0.005   2.278   1.032 -1.0981 -1.3946 -1.2375
  564SOL    HW2 1692   3.044   2.268   0.889 -0.3490  1.0152  1.3031
  565SOL     OW 1693   0.629   2.127   1.481 -0.4936  0.2017  0.0769
  565SOL    HW1 1694   0.576   2.195   1.536 -0.2028 -0.9028 -0.2815
  565SOL    HW2 1695   0.566   2.060   1.437  2.8475 -2.0555 -0.1945
  566SOL     OW 1696   1.358   2.526   2.030  0.3889 -0.0191  0.1205
  566SOL    HW1 1697   1.268   2.556   2.054  2.1155 -3.2760 -0.5537
  566SOL    HW2 1698   1.396   2.471   2.102 -1.8182  0.3324 -1.0258
  567SOL     OW 1699   2.280   2.700   0.913  0.3955 -0.1193 -0.1208
  567SOL    HW1 1700   2.329   2.643   0.983 -1.2585 -1.6581  1.0053
  567SOL    HW2 1701   2.345   2.723   0.835  3.0843  2.0505  2.0717
  568SOL     OW 1702   1.864   1.028   0.560  0.7825 -0.6375 -0.5004
  568SOL    HW1 1703   1.891   0.930   0.545 -1.0114  1.1358 -1.3459
  568SOL    HW2 1704   1.884   1.078   0.475  1.9039 -2.3140 -0.8555
  569SOL     OW 1705   3.095   1.665   2.678  0.1637  0.3018  0.0440
  569SOL    HW1 1706   3.089   1.705   2.771  1.3810 -1.3449 -1.2536
  569SOL    HW2 1707   3.030   1.587   2.657  2.6694  1.2386 -0.8946
  570SOL     OW 1708   2.863   0.102   1.363  0.4087  0.2381  0.2260
  570SOL    HW1 1709   2.823   0.123   1.269 -2.4077 -1.3144 -1.4109
  570SOL    HW2 1710   2.963   0.124   1.374 -1.2587  3.1712  1.4495
  571SOL     OW 1711   0.121   0.434   1.698  0.2648 -0.4303  0.5116
  571SOL    HW1 1712   0.173   0.431   1.788 -0.3213  2.1827  4.7281
  571SOL    HW2 1713   0.110   0.532   1.667 -1.5690  1.6917 -0.6721
  572SOL     OW 1714   0.107   2.516   1.019 -0.2090  0.3190 -0.1938
  572SOL    HW1 1715   0.077   2.437   0.959 -1.3181  3.1516  2.0074
  572SOL    HW2 1716   0.175   2.490   1.092 -2.3705 -0.0317  1.4761
  573SOL     OW 1717   0.977   0.540   0.037 -0.1833 -0.5124  0.1053
  573SOL    HW1 1718   0.887   0.578   0.019  0.4056 -0.1914 -1.6421
  573SOL    HW2 1719   0.974   0.443   0.071 -0.2569  2.7734  0.0833
  574SOL     OW 1720   2.648   2.859   3.075  0.3854  0.7926  0.1753
  574SOL    HW1 1721   2.676   2.804   2.997  2.5702 -0.5519  1.8596
  574SOL    HW2 1722   2.693   2.949   3.077 -0.3829 -3.7043  0.8218
  575SOL     OW 1723   1.551   2.496   1.153  0.0836 -0.6622  0.9407
  575SOL    HW1 1724   1.458   2.467   1.121  2.4508  0.3450  1.8718
  575SOL    HW2 1725   1.584   2.576   1.096 -0.3603  1.0600 -1.7006
  576SOL     OW 1726   1.161   2.885   0.898  0.0739  0.5043 -0.7157
  576SOL    HW1 1727   1.190   2.797   0.948 -0.5031 -4.5587  1.4559
  576SOL    HW2 1728   1.059   2.886   0.886  1.4988 -2.4047 -2.7092
  577SOL     OW 1729   2.560   1.280   0.808 -0.9183 -0.4927 -0.3756
  577SOL    HW1 1730   2.619   1.362   0.793  0.3991  2.0440 -0.5999
  577SOL    HW2 1731   2.629   1.207   0.828 -1.0082 -2.6589 -0.0330
  578SOL     OW 1732   1.387   0.370   0.600 -0.2222  0.2009 -0.8567
  578SOL    HW1 1733   1.488   0.372   0.623  2.1367  0.8169 -1.8664
  578SOL    HW2 1734   1.333   0.364   0.687  2.4202 -0.7242 -0.9842
  579SOL     OW 1735   2.262   0.640   2.905 -0.3247  0.0129 -0.1892
  579SOL    HW1 1736   2.333   0.563   2.901  2.1642 -0.1806  0.2389
  579SOL    HW2 1737   2.290   0.715   2.841  0.8893  0.4388 -1.0322
  580SOL     OW 1738   1.770   0.761   2.443  0.2325  0.2137 -0.7840
  580SOL    HW1 1739   1.867   0.775   2.462  0.9367  1.0319 -1.1159
  580SOL    HW2 1740   1.704   0.800   2.509 -0.2894  1.2682 -1.6533
  581SOL     OW 1741   0.295   0.732   1.049  0.1315  0.1718  0.1317
  581SOL    HW1 1742   0.352   0.797   0.997 -0.4165  0.5331  1.6928
  581SOL    HW2 1743   0.192   0.755   1.039 -0.3526  3.1507  2.2343
  582SOL     OW 1744   2.998   0.192   1.933  0.6476 -0.0885  0.5846
  582SOL    HW1 1745   3.010   0.101   1.973  2.5123 -2.8222 -3.3872
  582SOL    HW2 1746   3.012   0.196   1.829  1.9754 -0.5320 -2.2997
  583SOL     OW 1747   0.292   0.434   1.902 -0.0601  0.0186  0.1764
  583SOL    HW1 1748   0.223   0.435   1.981  1.7258 -0.0363 -0.6871
  583SOL    HW2 1749   0.358   0.356   1.916  0.8228  0.2919  0.3291
  584SOL     OW 1750   1.223   2.200   2.986 -0.1779  0.7770 -0.3994
  584SOL    HW1 1751   1.302   2.163   2.927  0.7411 -0.0572 -0.6127
  584SOL    HW2 1752   1.264   2.213   3.082 -1.2185 -0.8845 -0.7036
  585SOL     OW 1753   0.306   2.753   2.878  0.0648  0.0858  0.6641
  585SOL    HW1 1754   0.298   2.739   2.980  2.2272 -2.3460  0.2411
  585SOL    HW2 1755   0.391   2.709   2.840  0.8360 -3.6028 -0.9068
  586SOL     OW 1756   1.946   1.689   2.678 -0.0945  0.4620 -0.4228
  586SOL    HW1 1757   1.948   1.777   2.631  2.4995 -4.0578  1.4039
  586SOL    HW2 1758   1.883   1.622   2.631 -1.8967  1.5514 -2.6193
  587SOL     OW 1759   2.157   2.320   0.052 -0.1481  0.4749  0.0021
  587SOL    HW1 1760   2.204   2.309   3.086 -0.3908 -0.4771  0.8824
  587SOL    HW2 1761   2.172   2.246   0.118 -0.1266  1.6805 -1.3893
  588SOL     OW 1762   2.583   0.248   0.958 -0.0595  0.0276  0.0982
  588SOL    HW1 1763   2.504   0.190   0.994 -2.9552 -4.8319 -0.5499
  588SOL    HW2 1764   2.568   0.349   0.956  1.5515 -1.7999  1.6538
  589SOL     OW 1765   0.494   0.853   0.581 -0.2992 -0.2397  0.1174
  589SOL    HW1 1766   0.569   0.893   0.521  2.0859  2.1421 -1.6436
  589SOL    HW2 1767   0.423   0.799   0.532  1.4996 -0.1733  0.9583
  590SOL     OW 1768   2.176   2.130   0.239 -0.1590  0.1549 -0.3284
  590SOL    HW1 1769   2.216   2.117   0.331  0.6354 -2.3856 -0.3070
  590SOL    HW2 1770   2.120   2.048   0.218 -0.2629  0.0934 -1.3627
  591SOL     OW 1771   0.350   2.295   1.125  0.1243  0.1731  0.0908
  591SOL    HW1 1772   0.307   2.245   1.205 -3.6309  0.6151  2.3871
  591SOL    HW2 1773   0.372   2.392   1.144  0.8753  1.8757  1.9622
  592SOL     OW 1774   1.162   0.668   1.437  0.1453  0.0473  0.3204
  592SOL    HW1 1775   1.111   0.659   1.351 -0.2045 -2.3837  1.1284
  592SOL    HW2 1776   1.141   0.593   1.510 -0.4080 -1.2448  2.8219
  593SOL     OW 1777   0.979   1.555   1.474 -0.2311  0.1989 -0.5830
  593SOL    HW1 1778   1.010   1.457   1.476  2.2094  0.5171 -2.8414
  593SOL    HW2 1779   0.930   1.587   1.557  0.7754  3.9254 -0.5695
  594SOL     OW 1780   1.008   2.182   0.586  0.2053  0.0320 -0.0917
  594SOL    HW1 1781   0.976   2.161   0.489 -1.4845 -0.9407 -0.8924
  594SOL    HW2 1782   1.103   2.216   0.583 -0.5143 -1.7324  1.5728
  595SOL     OW 1783   1.630   0.711   1.419  0.4509 -0.3782 -0.7385
  595SOL    HW1 1784   1.708   0.768   1.454 -1.5601 -1.4499 -1.5385
  595SOL    HW2 1785   1.543   0.758   1.452 -0.8709  1.6342  1.7646
  596SOL     OW 1786   2.815   0.846   1.316 -0.5492  0.0160 -0.0379
  596SOL    HW1 1787   2.871   0.920   1.276  0.5907 -4.2231  0.9876
  596SOL    HW2 1788   2.717   0.874   1.320  1.2192  1.5758  1.0638
  597SOL     OW 1789   0.590   2.500   2.455  0.2530  0.7840  0.7248
  597SOL    HW1 1790   0.559   2.589   2.493 -0.0092  2.2121  0.9877
  597SOL    HW2 1791   0.693   2.498   2.436  2.7399  3.1015 -2.8409
  598SOL     OW 1792   2.468   1.710   1.710  0.2199  0.2686  0.6669
  598SOL    HW1 1793   2.470   1.811   1.690  2.2855 -0.9713 -0.3871
  598SOL    HW2 1794   2.381   1.680   1.749  1.7815  1.3734  3.1865
  599SOL     OW 1795   0.919   3.059   3.023 -0.1239  0.2036 -0.2158
  599SOL    HW1 1796   0.878   3.010   2.946 -2.3419 -1.2576  0.7430
  599SOL    HW2 1797   0.864   3.042   3.111  1.2735 -2.1172  1.7827
  600SOL     OW 1798   0.024   2.228   2.730 -0.1152  0.2599 -0.1556
  600SOL    HW1 1799   3.124   2.244   2.829  0.5230  1.9139 -0.6896
  600SOL    HW2 1800   3.075   2.190   2.667 -0.3051 -1.1657  2.8043
  601SOL     OW 1801   0.502   0.897   1.416 -0.1373  0.2017  0.7628
  601SOL    HW1 1802   0.461   0.806   1.403 -0.3839 -0.2465 -0.0801
  601SOL    HW2 1803   0.528   0.902   1.515 -0.7715  0.2066 -0.4127
  602SOL     OW 1804   0.571   0.367   0.773  0.1493 -0.2346 -0.0577
  602SOL    HW1 1805   0.568   0.466   0.795  3.6922 -3.7347 -2.3499
  602SOL    HW2 1806   0.666   0.336   0.787  1.9091  1.4562  2.8181
  603SOL     OW 1807   0.404   0.326   2.735 -0.2658  0.5482  0.7487
  603SOL    HW1 1808   0.347   0.286   2.665 -0.8169  1.1905 -0.7655
  603SOL    HW2 1809   0.379   0.286   2.824 -1.1520  0.3493  0.3984
  604SOL     OW 1810   0.803   2.740   1.503 -0.0792  0.4242  0.1675
  604SOL    HW1 1811   0.787   2.810   1.575  0.3086 -1.0483 -1.5530
  604SOL    HW2 1812   0.737   2.660   1.517 -1.7769 -1.4019 -1.9156
  605SOL     OW 1813   1.435   1.133   2.482  0.4199 -0.2951  0.0941
  605SOL    HW1 1814   1.341   1.176   2.489  0.0206 -0.2602  0.0058
  605SOL    HW2 1815   1.496   1.169   2.408 -0.7135 -0.8154  3.4394
  606SOL     OW 1816   2.228   2.793   3.026 -0.3980 -0.3784  0.6201
  606SOL    HW1 1817   2.292   2.767   3.102 -1.4471 -0.3764 -1.6549
  606SOL    HW2 1818   2.284   2.822   2.943  0.6075  2.2938  0.4024
  607SOL     OW 1819   0.997   0.361   1.200 -0.0906  0.0707  0.3470
  607SOL    HW1 1820   1.052   0.375   1.285 -2.8243  0.9332  0.3975
  607SOL    HW2 1821   0.922   0.300   1.223 -0.1946  1.8613  0.8497
  608SOL     OW 1822   0.242   1.659   2.613  0.2957 -0.9653  0.2851
  608SOL    HW1 1823   0.278   1.754   2.614  1.2354 -0.1716  0.5426
  608SOL    HW2 1824   0.146   1.658   2.653  2.1193  2.1387  0.8861
  609SOL     OW 1825   1.453   1.418   0.411 -0.7307  0.3026 -0.0904
  609SOL    HW1 1826   1.387   1.491   0.393 -1.1580  0.4657  2.1231
  609SOL    HW2 1827   1.440   1.339   0.346 -4.5393 -1.4608 -2.8248
  610SOL     OW 1828   3.040   0.176   1.046  0.5704 -0.0215  0.4423
  610SOL    HW1 1829   3.074   0.097   0.984 -0.3383 -2.5333  1.5868
  610SOL    HW2 1830   3.113   0.243   1.068  0.0147 -0.8037 -2.5054
  611SOL     OW 1831   1.212   1.086   0.678  0.2939  0.6721 -0.7244
  611SOL    HW1 1832   1.263   1.174   0.684 -0.1507  0.0900  2.3661
  611SOL    HW2 1833   1.122   1.108   0.634 -0.9205  0.0190 -1.0865
  612SOL     OW 1834   2.114   1.483   0.213  0.0270  0.4264  0.0113
  612SOL    HW1 1835   2.032   1.472   0.273  1.2829 -1.0720 -0.3452
  612SOL    HW2 1836   2.170   1.564   0.243  0.6957 -0.2292  0.5034
  613SOL     OW 1837   1.587   1.046   0.403 -0.2784  0.6466 -0.2355
  613SOL    HW1 1838   1.572   1.070   0.500 -0.6306 -2.1384  1.3164
  613SOL    HW2 1839   1.638   1.119   0.350  0.0670 -0.9228  0.3866
  614SOL     OW 1840   2.817   0.329   2.072 -0.6215  0.1201  0.5870
  614SOL    HW1 1841   2.894   0.272   2.031  1.5277  2.1466 -0.0119
  614SOL    HW2 1842   2.852   0.406   2.129  2.3169 -0.4708 -0.6868
  615SOL     OW 1843   0.674   2.172   0.847  0.0240 -0.4455  0.6724
  615SOL    HW1 1844   0.721   2.079   0.832  0.9922  2.1935 -0.3429
  615SOL    HW2 1845   0.571   2.159   0.852  1.7151 -1.2365  1.2364
  616SOL     OW 1846   1.849   0.920   2.714  0.2289 -0.4627 -0.1396
  616SOL    HW1 1847   1.805   1.002   2.668  0.1063  0.8910 -0.9638
  616SOL    HW2 1848   1.930   0.882   2.655 -2.0631 -0.6371  0.8257
  617SOL     OW 1849   1.253   0.221   0.106 -0.2320 -0.4059  0.1340
  617SOL    HW1 1850   1.151   0.230   0.085  2.2325 -1.0642  1.2974
  617SOL    HW2 1851   1.284   0.131   0.061 -0.4748 -0.4501  0.5342
  618SOL     OW 1852   2.327   2.069   2.461  0.0631 -0.1873 -1.4755
  618SOL    HW1 1853   2.244   2.083   2.406  1.8198 -0.5089  0.5573
  618SOL    HW2 1854   2.315   2.087   2.563 -0.0448  2.2561  1.5884
  619SOL     OW 1855   2.216   1.948   0.861 -0.2935 -0.5502 -0.0715
  619SOL    HW1 1856   2.145   2.021   0.839  0.3729  0.2298 -0.8330
  619SOL    HW2 1857   2.163   1.866   0.891 -3.8088 -1.3632 -2.9356
  620SOL     OW 1858   2.082   2.866   1.953 -0.0707  0.5144 -0.1370
  620SOL    HW1 1859   2.149   2.844   1.877  0.1209 -0.7201  0.2962
  620SOL    HW2 1860   2.075   2.784   2.016 -1.8120  1.9191  0.1294
  621SOL     OW 1861   0.009   1.759   0.727  0.3567 -0.0149 -0.3645
  621SOL    HW1 1862   0.064   1.681   0.698 -0.4740  1.2048 -1.4253
  621SOL    HW2 1863   3.094   1.811   0.652  0.9954 -1.5622  1.7901
  622SOL     OW 1864   1.105   1.767   2.923 -0.0290 -0.4575 -0.0871
  622SOL    HW1 1865   1.088   1.817   2.834  0.8262 -0.8631  1.7043
  622SOL    HW2 1866   1.132   1.830   3.002  1.4808  1.9347 -0.8302
  623SOL     OW 1867   2.722   2.713   2.481 -0.2327 -0.4221 -0.0322
  623SOL    HW1 1868   2.650   2.661   2.423  1.3273  1.3706 -1.8317
  623SOL    HW2 1869   2.789   2.748   2.410  2.8906  1.4464 -0.3882
  624SOL     OW 1870   0.784   2.407   0.449  0.3391  0.4176 -0.2776
  624SOL    HW1 1871   0.798   2.414   0.552  0.2648 -2.6366  0.2044
  624SOL    HW2 1872   0.713   2.332   0.437 -2.5125 -0.9989 -1.5913
  625SOL     OW 1873   0.214   1.925   2.389  0.1996 -0.3360  0.0771
  625SOL    HW1 1874   0.167   1.856   2.333  2.9230  0.4808  0.5773
  625SOL    HW2 1875   0.310   1.939   2.356  0.5693  0.4370 -1.5160
  626SOL     OW 1876   0.759   2.744   0.027  0.2932  0.2974 -0.3398
  626SOL    HW1 1877   0.766   2.813   0.103  0.4022  1.3659 -0.0213
  626SOL    HW2 1878   0.688   2.674   0.047 -0.7772  2.7047  1.4478
  627SOL     OW 1879   1.424   1.649   0.067 -0.4130 -0.8869  0.8415
  627SOL    HW1 1880   1.343   1.671   0.006 -2.5612 -0.7874 -1.0817
  627SOL    HW2 1881   1.483   1.730   0.091  0.9793  1.4654 -2.3081
  628SOL     OW 1882   1.636   2.246   0.871  0.3476 -0.2201 -0.4101
  628SOL    HW1 1883   1.580   2.170   0.906  3.7796 -2.5168 -2.1465
  628SOL    HW2 1884   1.697   2.297   0.939 -0.2832 -1.4427 -0.9122
  629SOL     OW 1885   0.421   0.106   1.529 -0.2310  0.3136  0.4620
  629SOL    HW1 1886   0.437   0.093   1.627  2.5137  0.6577 -2.5148
  629SOL    HW2 1887   0.501   0.092   1.465  1.6771 -0.4224  0.7083
  630SOL     OW 1888   2.439   0.718   1.454  0.5892  0.1413  0.3595
  630SOL    HW1 1889   2.335   0.729   1.462 -0.8012  0.0186  0.8989
  630SOL    HW2 1890   2.459   0.679   1.361 -0.1051  0.2273 -0.3064
  631SOL     OW 1891   1.466   0.621   1.115 -0.0930  0.4492  0.1711
  631SOL    HW1 1892   1.538   0.629   1.045  3.4099 -1.2245 -1.4045
  631SOL    HW2 1893   1.447   0.527   1.130 -0.5826  3.6693 -2.8867
  632SOL     OW 1894   2.840   1.020   2.037  0.4615  0.2143  0.3913
  632SOL    HW1 1895   2.862   0.987   1.940 -0.2143  0.7725 -1.6578
  632SOL    HW2 1896   2.904   0.983   2.108  1.8739 -2.5501  0.2629
  633SOL     OW 1897   1.367   0.681   3.113 -0.3567  0.0869 -0.2000
  633SOL    HW1 1898   1.298   0.632   0.047 -1.0788  0.8202 -0.4364
  633SOL    HW2 1899   1.393   0.619   3.036 -3.3737 -0.3225  2.3260
  634SOL     OW 1900   0.492   2.545   0.125  0.4379  0.5274  0.1584
  634SOL    HW1 1901   0.542   2.595   0.202 -0.1242 -0.0809  2.7912
  634SOL    HW2 1902   0.557   2.477   0.081 -0.1838 -2.6173 -1.3032
  635SOL     OW 1903   2.894   1.648   1.572 -0.5395 -0.0866 -0.1851
  635SOL    HW1 1904   2.803   1.626   1.535  0.4447 -0.6613  0.7746
  635SOL    HW2 1905   2.892   1.692   1.664 -2.2802 -1.8016  1.7678
  636SOL     OW 1906   3.045   1.686   0.129 -0.8021 -0.7075 -0.4591
  636SOL    HW1 1907   3.091   1.637   0.052 -1.7805 -1.3978  0.2312
  636SOL    HW2 1908   3.076   1.782   0.147  0.2048  1.4004  0.4712
  637SOL     OW 1909   2.920   2.604   0.388 -0.1697  0.1750  0.1567
  637SOL    HW1 1910   2.956   2.671   0.451 -0.6760 -0.0253 -1.9867
  637SOL    HW2 1911   2.829   2.578   0.422 -1.4208 -2.2357 -0.7410
  638SOL     OW 1912   3.018   2.927   0.075  0.0957 -0.4043 -0.4651
  638SOL    HW1 1913   3.028   2.828   0.095  2.7538 -0.2511 -1.0084
  638SOL    HW2 1914   3.109   2.970   0.079  0.0758 -0.7571  0.8401
  639SOL     OW 1915   1.598   0.274   3.001  0.4166  0.1471  0.1694
  639SOL    HW1 1916   1.550   0.360   2.998  1.9083 -1.5739  0.3137
  639SOL    HW2 1917   1.547   0.199   2.954  0.2170  0.9850 -2.0311
  640SOL     OW 1918   2.370   2.184   1.396 -0.4575  0.6226 -0.2849
  640SOL    HW1 1919   2.319   2.153   1.313 -0.3305 -1.4291  3.1679
  640SOL    HW2 1920   2.332   2.276   1.427 -1.6301  0.7161 -0.8686
  641SOL     OW 1921   2.946   2.893   1.052 -0.5850 -0.1431  0.5894
  641SOL    HW1 1922   3.030   2.944   1.082  0.9745  1.6349 -1.5364
  641SOL    HW2 1923   2.880   2.957   1.010 -0.5206  2.1726 -2.4056
  642SOL     OW 1924   1.676   1.124   1.565  0.2521  0.2882 -1.0455
  642SOL    HW1 1925   1.752   1.158   1.506 -0.8469 -0.2102  0.1865
  642SOL    HW2 1926   1.715   1.116   1.660 -0.7600  2.5816  0.8149
  643SOL     OW 1927   0.940   1.848   2.475 -0.1619  0.3139 -0.8865
  643SOL    HW1 1928   1.027   1.863   2.430  1.5405 -0.4056 -0.0771
  643SOL    HW2 1929   0.866   1.906   2.432 -1.2628 -0.3284  0.3997
  644SOL     OW 1930   1.871   3.106   2.310 -0.4596 -0.7608 -0.7387
  644SOL    HW1 1931   1.953   3.095   2.248 -1.1659 -0.6151  1.4358
  644SOL    HW2 1932   1.795   3.038   2.290 -0.1410 -1.7829  0.4466
  645SOL     OW 1933   1.539   1.090   1.981  0.0136  0.1744 -0.3692
  645SOL    HW1 1934   1.453   1.107   1.933  0.5077  1.0711 -0.6531
  645SOL    HW2 1935   1.618   1.136   1.934 -1.8206  0.9530  1.5697
  646SOL     OW 1936   1.210   2.524   3.064 -0.2994  0.2789  0.3541
  646SOL    HW1 1937   1.213   2.532   2.962 -0.3165  0.9820  1.5021
  646SOL    HW2 1938   1.304   2.501   3.103  1.6294  0.7874  1.8197
  647SOL     OW 1939   1.278   2.396   1.140 -0.0104  0.6133 -0.2137
  647SOL    HW1 1940   1.182   2.398   1.102 -0.5013 -0.1404  0.0091
  647SOL    HW2 1941   1.297   2.306   1.185 -1.7355  0.0566 -1.6696
  648SOL     OW 1942   2.924   2.774   1.285 -0.1408  1.0753 -0.2164
  648SOL    HW1 1943   3.024   2.767   1.314  1.2330 -0.6768  0.3240
  648SOL    HW2 1944   2.909   2.803   1.192  0.7610  0.3387  0.7235
  649SOL     OW 1945   0.764   2.380   2.643 -0.0111 -0.0335  0.4466
  649SOL    HW1 1946   0.809   2.339   2.724  2.2020  0.0272  0.1246
  649SOL    HW2 1947   0.660   2.394   2.651  0.4200  1.3983  0.0294
  650SOL     OW 1948   2.949   1.912   2.934 -0.3479  0.1119 -0.0892
  650SOL    HW1 1949   2.902   1.848   3.001  0.2349 -1.3373 -0.3339
  650SOL    HW2 1950   3.046   1.908   2.958 -1.6407  1.5576 -1.1437
  651SOL     OW 1951   2.335   2.267   2.059 -0.0303  0.3438  0.3136
  651SOL    HW1 1952   2.270   2.206   2.105  0.6757  2.5633 -0.2123
  651SOL    HW2 1953   2.290   2.349   2.015  1.9945  1.0942  0.4940
  652SOL     OW 1954   2.311   2.740   1.248 -0.0432 -0.1803 -0.2957
  652SOL    HW1 1955   2.331   2.710   1.344 -2.7806 -1.9732  0.2353
  652SOL    HW2 1956   2.378   2.704   1.179  1.2360  0.8461 -0.6047
  653SOL     OW 1957   2.989   1.383   1.226 -0.3846  0.1494 -0.1504
  653SOL    HW1 1958   2.951   1.312   1.286  1.6480 -0.2114 -0.4040
  653SOL    HW2 1959   2.946   1.388   1.133  0.3502  1.2012 -1.0766
  654SOL     OW 1960   0.990   0.389   2.786 -0.1810 -0.6259 -0.6625
  654SOL    HW1 1961   1.049   0.450   2.848  0.1319  1.3686  1.7842
  654SOL    HW2 1962   0.954   0.311   2.841  0.7009  1.3562 -0.7804
  655SOL     OW 1963   0.987   0.581   1.021 -0.4567  0.4098  0.3911
  655SOL    HW1 1964   1.005   0.667   1.077 -0.7446  0.8639  0.2978
  655SOL    HW2 1965   0.990   0.496   1.078  0.5277  0.0679 -2.6054
  656SOL     OW 1966   0.459   2.462   1.972 -0.1175 -0.4253  0.4742
  656SOL    HW1 1967   0.389   2.392   1.995  0.7680 -2.0374  3.1067
  656SOL    HW2 1968   0.433   2.555   2.009 -2.2549  0.3485  5.0000
  657SOL     OW 1969   2.551   1.059   0.196 -0.2166 -0.1852  0.1819
  657SOL    HW1 1970   2.544   1.007   0.109  0.3205 -0.3598 -1.4466
  657SOL    HW2 1971   2.610   1.139   0.179  1.8794  1.1719 -2.2828
  658SOL     OW 1972   1.784   1.995   1.514  0.1873 -0.5668 -0.3170
  658SOL    HW1 1973   1.858   2.055   1.562  1.6071  1.1625  1.7565
  658SOL    HW2 1974   1.824   1.974   1.421  1.3353  1.1800  0.4088
  659SOL     OW 1975   2.642   1.846   0.120 -0.2519 -0.4026  0.3071
  659SOL    HW1 1976   2.717   1.788   0.075  4.0030 -0.9101  0.2181
  659SOL    HW2 1977   2.567   1.787   0.153  2.5143  1.6583 -1.2464
  660SOL     OW 1978   0.992   0.253   0.705 -0.6867 -0.2003 -0.0748
  660SOL    HW1 1979   1.014   0.157   0.669  1.0694 -3.1147 -0.3358
  660SOL    HW2 1980   0.985   0.309   0.623 -1.2091  1.1126  3.3274
  661SOL     OW 1981   1.666   0.388   0.361  0.1329  0.0080  0.0662
  661SOL    HW1 1982   1.603   0.334   0.302 -0.9827  2.3407  2.7025
  661SOL    HW2 1983   1.752   0.406   0.311  0.6305 -0.3596 -0.7570
  662SOL     OW 1984   0.538   0.106   0.853  0.6227  0.3104 -0.1697
  662SOL    HW1 1985   0.532   0.209   0.836  0.9699  2.3991 -0.1023
  662SOL    HW2 1986   0.466   0.049   0.810  3.4002  1.7756  2.7363
  663SOL     OW 1987   1.329   2.902   2.213 -0.0211  0.2340 -0.3882
  663SOL    HW1 1988   1.233   2.905   2.199  2.0877  1.5701 -0.0194
  663SOL    HW2 1989   1.351   2.872   2.305  0.7615 -1.9696 -1.1022
  664SOL     OW 1990   0.992   2.332   1.598 -0.5031  0.2347  0.0171
  664SOL    HW1 1991   0.948   2.366   1.519  0.2883  0.0298  1.4080
  664SOL    HW2 1992   0.957   2.386   1.678 -1.3582 -2.3216  0.2820
  665SOL     OW 1993   1.014   2.145   1.846 -0.1082 -0.4160 -0.2174
  665SOL    HW1 1994   1.014   2.234   1.890 -0.9482 -0.3882  0.6492
  665SOL    HW2 1995   1.059   2.147   1.754 -0.2580 -1.0894 -1.8611
  666SOL     OW 1996   0.754   2.880   2.458  0.0151  0.1311 -0.1518
  666SOL    HW1 1997   0.777   2.854   2.361  0.9163  0.5753 -0.4980
  666SOL    HW2 1998   0.701   2.969   2.466 -2.9939  3.2029 -2.1679
  667SOL     OW 1999   2.468   1.255   1.367 -0.0506 -0.2362  0.4248
  667SOL    HW1 2000   2.549   1.267   1.311 -0.3563 -0.2548  1.7568
  667SOL    HW2 2001   2.386   1.312   1.337 -0.7480 -1.8352 -0.6986
  668SOL     OW 2002   1.752   0.105   1.861  0.2603  0.1615  0.0892
  668SOL    HW1 2003   1.798   0.017   1.883  0.0053 -1.8673  1.2526
  668SOL    HW2 2004   1.698   0.144   1.942 -1.1357  1.2333 -0.3328
  669SOL     OW 2005   2.511   2.686   1.080  0.4170  0.0703  0.5462
  669SOL    HW1 2006   2.568   2.641   1.152 -1.1473  0.9485  1.5710
  669SOL    HW2 2007   2.546   2.684   0.983  0.0169  0.0787 -0.9192
  670SOL     OW 2008   1.454   2.530   2.664 -0.6594 -0.4035  0.1631
  670SOL    HW1 2009   1.357   2.542   2.709  0.2007 -1.4708  2.0784
  670SOL    HW2 2010   1.451   2.536   2.562 -1.0683  0.8021  1.2478
  671SOL     OW 2011   0.573   1.230   0.509 -0.0831  0.2977  0.0440
  671SOL    HW1 2012   0.604   1.272   0.420  0.0355 -0.3619  1.2828
  671SOL    HW2 2013   0.469   1.208   0.505 -2.4860  0.8743  0.9401
  672SOL     OW 2014   2.561   1.164   2.904 -0.0707  0.3141  0.4609
  672SOL    HW1 2015   2.482   1.183   2.968  0.3615  0.6620 -0.4822
  672SOL    HW2 2016   2.629   1.097   2.945  0.1387  0.6675  0.9405
  673SOL     OW 2017   0.006   2.004   1.361 -0.1227 -0.0702 -0.0623
  673SOL    HW1 2018   3.049   2.051   1.400 -1.0939  1.5595 -1.7811
  673SOL    HW2 2019   0.009   1.908   1.395 -1.1876  0.7094  3.0608
  674SOL     OW 2020   0.869   2.181   2.196 -0.1342  0.1643 -0.4507
  674SOL    HW1 2021   0.963   2.204   2.213 -2.5154  0.4549 -2.7152
  674SOL    HW2 2022   0.834   2.196   2.104 -1.3058 -0.4790  1.1314
  675SOL     OW 2023   1.016   1.022   1.560  0.6188 -0.0823 -0.1074
  675SOL    HW1 2024   1.073   0.985   1.639 -2.2750 -0.2953 -0.6384
  675SOL    HW2 2025   0.943   0.952   1.527 -1.6660  0.3700 -1.7962
  676SOL     OW 2026   1.813   0.065   1.221 -0.0427 -0.0473 -0.1737
  676SOL    HW1 2027   1.730   0.119   1.197  0.3294  0.8571  0.1729
  676SOL    HW2 2028   1.790   0.023   1.315  0.5057 -0.5168  0.2007
  677SOL     OW 2029   2.804   0.854   0.124  0.6762  0.6729  0.4301
  677SOL    HW1 2030   2.887   0.796   0.141 -0.0730  3.7994 -2.1555
  677SOL    HW2 2031   2.766   0.902   0.208 -0.7969  2.4434 -0.5946
  678SOL     OW 2032   2.686   1.217   1.196  0.3210 -0.4168 -0.6169
  678SOL    HW1 2033   2.748   1.271   1.132  0.1137  0.2056  0.4357
  678SOL    HW2 2034   2.626   1.156   1.144 -0.8771  0.7233  2.0206
  679SOL     OW 2035   2.962   0.573   2.842 -0.1377 -0.5784 -0.3496
  679SOL    HW1 2036   2.938   0.672   2.842  1.0100  2.1879 -1.3660
  679SOL    HW2 2037   3.007   0.556   2.927  1.7633  0.0354  0.1682
  680SOL     OW 2038   0.469   1.406   2.111  0.3660  0.0334 -0.1586
  680SOL    HW1 2039   0.479   1.374   2.211 -1.0418  0.3494  0.7803
  680SOL    HW2 2040   0.372   1.436   2.089  1.2695 -1.8331  1.4514
  681SOL     OW 2041   2.641   2.138   1.419 -0.0799 -0.2769 -0.5266
  681SOL    HW1 2042   2.540   2.155   1.412  1.9744  2.3782  1.3134
  681SOL    HW2 2043   2.666   2.075   1.345 -0.2729  0.4251  0.5732
  682SOL     OW 2044   0.096   2.088   3.107  0.3672 -0.5284  0.0472
  682SOL    HW1 2045   0.080   2.190   3.083  0.3506  0.7789  1.0864
  682SOL    HW2 2046   0.146   2.056   3.029  0.4095 -2.0430  0.6895
  683SOL     OW 2047   2.882   2.152   0.899  0.7304 -0.1115  0.3922
  683SOL    HW1 2048   2.898   2.053   0.884  0.9188 -1.4981 -0.6680
  683SOL    HW2 2049   2.851   2.176   0.996 -2.5592 -0.8527  0.6346
  684SOL     OW 2050   2.982   1.278   2.186  0.0678  0.0131 -0.4366
  684SOL    HW1 2051   3.081   1.262   2.161  3.8518  0.4499 -1.3704
  684SOL    HW2 2052   2.918   1.233   2.124 -0.8625  2.5222 -0.3643
  685SOL     OW 2053   1.336   0.664   0.852  0.1810 -0.4260 -0.0489
  685SOL    HW1 2054   1.329   0.578   0.802  0.8804  2.7780  0.8194
  685SOL    HW2 2055   1.429   0.684   0.876 -1.9390  0.1274  0.5432
  686SOL     OW 2056   0.399   0.492   0.412  0.4602  0.3879  0.1523
  686SOL    HW1 2057   0.492   0.519   0.445 -1.6418 -1.0620  0.6938
  686SOL    HW2 2058   0.401   0.452   0.315 -0.7118  2.2012 -0.6336
  687SOL     OW 2059   0.416   2.197   2.607  0.1103 -0.5313 -0.4952
  687SOL    HW1 2060   0.443   2.216   2.509  1.6362 -0.2951 -1.0114
  687SOL    HW2 2061   0.321   2.169   2.612  0.3078  0.1260  1.7183
  688SOL     OW 2062   1.949   0.521   1.396  0.0709 -0.2504 -0.4102
  688SOL    HW1 2063   1.977   0.426   1.373 -0.2065 -0.1356  3.2682
  688SOL    HW2 2064   1.892   0.566   1.329  1.0890  1.8126  1.3134
  689SOL     OW 2065   1.804   0.904   0.984 -0.0037  0.1996  0.2089
  689SOL    HW1 2066   1.865   0.924   1.061 -2.4295 -0.7789 -2.3052
  689SOL    HW2 2067   1.720   0.963   1.000 -1.4403 -2.2423 -0.3227
  690SOL     OW 2068   3.018   1.002   1.237 -0.3881  0.0133 -0.6091
  690SOL    HW1 2069   2.998   1.077   1.307 -1.5951 -1.0280  0.1131
  690SOL    HW2 2070   3.033   1.044   1.146 -0.5142  0.4303  0.9958
  691SOL     OW 2071   2.961   1.398   1.742  0.7524 -0.3880 -0.5820
  691SOL    HW1 2072   2.925   1.465   1.672 -0.1801 -1.4259 -0.4206
  691SOL    HW2 2073   2.899   1.387   1.823 -0.0149  0.7442  1.1334
  692SOL     OW 2074   1.151   0.534   1.656 -0.1265 -0.7370  0.1539
  692SOL    HW1 2075   1.253   0.553   1.643  1.9564  0.4209  0.4830
  692SOL    HW2 2076   1.136   0.451   1.712 -0.6802  2.0126 -2.5128
  693SOL     OW 2077   0.856   1.243   2.341  0.0520 -0.1672 -0.6275
  693SOL    HW1 2078   0.901   1.324   2.297 -1.2760 -0.9790 -0.4379
  693SOL    HW2 2079   0.831   1.180   2.264 -2.0209 -0.6168  0.7071
  694SOL     OW 2080   1.689   1.425   0.588  0.0775 -0.4972 -0.1749
  694SOL    HW1 2081   1.674   1.391   0.683 -1.8204 -1.0563 -0.0383
  694SOL    HW2 2082   1.612   1.402   0.527  2.5892 -1.1954 -1.0579
  695SOL     OW 2083   0.639   1.030   1.205 -0.2044  0.9990  0.0564
  695SOL    HW1 2084   0.563   1.068   1.146 -0.3948  0.5575  2.3042
  695SOL    HW2 2085   0.593   0.972   1.274 -1.6079  0.5546 -0.4779
  696SOL     OW 2086   0.160   3.028   0.428  0.5237  0.2474  0.0693
  696SOL    HW1 2087   0.070   3.015   0.378  2.4300 -0.0149  0.6968
  696SOL    HW2 2088   0.239   2.987   0.383 -2.0497  0.2750 -2.3302
  697SOL     OW 2089   1.873   0.420   1.106  0.1547 -0.2261  0.2512
  697SOL    HW1 2090   1.835   0.514   1.119  2.7923  1.5788 -0.0649
  697SOL    HW2 2091   1.806   0.352   1.122  2.6729  3.7288 -1.9046
  698SOL     OW 2092   1.770   1.505   1.808  0.0583  0.1060 -0.0794
  698SOL    HW1 2093   1.793   1.601   1.815  0.6264 -3.2495 -0.7052
  698SOL    HW2 2094   1.863   1.459   1.803 -0.1075 -1.3899  1.2132
  699SOL     OW 2095   0.084   0.374   2.058 -0.6891 -0.0815  0.5955
  699SOL    HW1 2096   0.126   0.366   2.151  0.2963  1.1523 -2.8241
  699SOL    HW2 2097   0.014   0.306   2.048  4.2400  5.8596 -1.7537
  700SOL     OW 2098   1.552   2.738   0.693 -0.8190 -0.2590  0.9819
  700SOL    HW1 2099   1.616   2.740   0.614  1.1160  1.8770  2.5380
  700SOL    HW2 2100   1.459   2.776   0.669 -1.5211 -2.0775  0.9559
  701SOL     OW 2101   0.237   1.392   2.613 -0.3919  0.5234  0.0634
  701SOL    HW1 2102   0.236   1.493   2.594 -0.4607  1.8696  3.5268
  701SOL    HW2 2103   0.328   1.382   2.661 -2.0792  2.3004 -0.7378
  702SOL     OW 2104   0.481   0.280   0.072 -0.0895  0.7027 -0.9417
  702SOL    HW1 2105   0.408   0.351   0.090  1.4392  1.9116  0.1910
  702SOL    HW2 2106   0.481   0.202   0.139 -0.0717 -0.5080 -1.3097
  703SOL     OW 2107   1.878   0.121   2.561 -0.6301  0.4914 -0.2691
  703SOL    HW1 2108   1.910   0.075   2.644 -0.0275 -2.3041  0.1115
  703SOL    HW2 2109   1.889   0.062   2.480  0.6487  1.9802  2.4851
  704SOL     OW 2110   2.586   1.900   0.521 -0.4008 -0.3062  0.2574
  704SOL    HW1 2111   2.518   1.950   0.577 -0.7704  1.3199  1.1651
  704SOL    HW2 2112   2.645   1.971   0.470  1.2590 -1.1078 -3.0995
  705SOL     OW 2113   2.684   2.158   2.009  0.0948 -0.1726  0.1683
  705SOL    HW1 2114   2.646   2.069   2.025 -1.4484  1.7088  2.2650
  705SOL    HW2 2115   2.652   2.232   2.073 -0.2667 -0.0601  0.8079
  706SOL     OW 2116   2.845   2.685   0.716 -0.2189 -0.4176 -0.5690
  706SOL    HW1 2117   2.899   2.675   0.800 -0.5122  0.3991  0.4892
  706SOL    HW2 2118   2.900   2.745   0.649 -1.9688  5.0945  0.9861
  707SOL     OW 2119   0.843   2.983   0.181  0.6935 -0.1826 -0.0521
  707SOL    HW1 2120   0.915   2.927   0.227 -2.2686  1.5161 -0.6294
  707SOL    HW2 2121   0.817   3.061   0.242  1.5076 -1.0092  1.2718
  708SOL     OW 2122   0.284   2.357   1.500  0.1164 -0.1052 -0.3585
  708SOL    HW1 2123   0.266   2.369   1.600 -0.5184  1.0290 -0.0461
  708SOL    HW2 2124   0.269   2.261   1.475  1.2452  0.7484  1.9240
  709SOL     OW 2125   1.423   2.804   1.991  0.2334  0.4277  0.6285
  709SOL    HW1 2126   1.436   2.700   2.002 -0.6101 -0.0776 -0.2228
  709SOL    HW2 2127   1.381   2.842   2.079  0.4195 -2.2814  0.7978
  710SOL     OW 2128   1.846   2.639   2.347 -0.3294 -0.3370 -0.3941
  710SOL    HW1 2129   1.878   2.719   2.401 -1.6279 -0.8326 -1.5860
  710SOL    HW2 2130   1.759   2.658   2.302  0.5055  0.9722 -4.0348
  711SOL     OW 2131   1.199   2.524   2.773 -0.3360  0.2693 -0.3900
  711SOL    HW1 2132   1.144   2.606   2.747  2.0950 -0.3482 -2.1000
  711SOL    HW2 2133   1.150   2.440   2.737  0.2066 -0.5495  1.5246
  712SOL     OW 2134   1.116   2.271   2.744  0.0699 -0.0720  0.0494
  712SOL    HW1 2135   1.164   2.247   2.834  1.2585  1.9140  0.8008
  712SOL    HW2 2136   1.027   2.221   2.737  0.3217  2.1953  1.7632
  713SOL     OW 2137   1.314   1.098   1.810  0.0378  0.0452  0.4553
  713SOL    HW1 2138   1.343   1.135   1.721 -0.8711  0.3008  2.0688
  713SOL    HW2 2139   1.269   1.008   1.795  2.8445  5.0139 -2.0799
  714SOL     OW 2140   1.376   1.204   1.563  0.3316 -0.3998  0.3396
  714SOL    HW1 2141   1.338   1.190   1.466  1.4767  0.4920 -1.8037
  714SOL    HW2 2142   1.480   1.190   1.561  2.7613  0.2421  0.3772
  715SOL     OW 2143   2.748   3.037   0.540 -0.0210 -0.2973 -0.5746
  715SOL    HW1 2144   2.738   0.004   0.505 -2.0131 -2.6053  2.1306
  715SOL    HW2 2145   2.728   2.962   0.472  0.5878  0.4385  3.3392
  716SOL     OW 2146   0.725   2.730   1.050 -0.3250  0.2112  0.2135
  716SOL    HW1 2147   0.715   2.664   0.972  0.8227  3.0846 -1.7710
  716SOL    HW2 2148   0.632   2.749   1.086 -0.8974  0.8715  0.2679
  717SOL     OW 2149   3.055   0.425   0.033  0.4419  0.1079  0.2107
  717SOL    HW1 2150   2.972   0.372   0.001 -1.7282  0.3362  0.3198
  717SOL    HW2 2151   3.094   0.395   0.121  1.8564 -0.0074 -0.1294
  718SOL     OW 2152   1.740   1.514   1.361  0.3929  0.0793 -1.2746
  718SOL    HW1 2153   1.689   1.541   1.448  1.6758 -1.2959  3.0023
  718SOL    HW2 2154   1.740   1.412   1.354  1.1340  1.1676  0.6018
  719SOL     OW 2155   3.029   2.661   0.140 -0.5546  0.3492  0.1632
  719SOL    HW1 2156   2.970   2.641   0.059 -1.6993 -2.5975  1.1592
  719SOL    HW2 2157   2.977   2.647   0.229 -0.4909 -1.1041  0.6032
  720SOL     OW 2158   1.184   0.852   0.921  0.5102 -0.1560 -0.2370
  720SOL    HW1 2159   1.247   0.776   0.896  0.1067  1.3278  1.6524
  720SOL    HW2 2160   1.139   0.833   1.010 -2.6026  0.0163 -3.0389
  721SOL     OW 2161   1.609   0.229   1.075  0.0859 -0.5244  0.4367
  721SOL    HW1 2162   1.650   0.183   0.994 -0.8138  2.1069  1.9133
  721SOL    HW2 2163   1.509   0.209   1.077  0.1897 -0.0489  1.6296
  722SOL     OW 2164   1.084   1.717   2.035  0.1668 -0.3938  0.3497
  722SOL    HW1 2165   0.991   1.744   2.072  0.8442  1.1275 -1.6081
  722SOL    HW2 2166   1.139   1.802   2.028 -0.0197 -2.4132 -1.1913
  723SOL     OW 2167   1.130   0.072   1.660 -0.2290 -0.1041 -0.0051
  723SOL    HW1 2168   1.143   0.107   1.564 -0.1302  1.8255  1.2437
  723SOL    HW2 2169   1.213   0.027   1.700 -0.8955 -0.3076  0.1669
  724SOL     OW 2170   1.866   2.123   2.062  0.2775 -0.4048 -0.6643
  724SOL    HW1 2171   1.770   2.095   2.067 -0.6367 -1.0873  0.1334
  724SOL    HW2 2172   1.928   2.055   2.023  0.5260  0.3543  0.4028
  725SOL     OW 2173   1.218   2.821   1.455 -0.3488 -0.4123 -0.4666
  725SOL    HW1 2174   1.308   2.854   1.429 -3.9975 -1.5660  1.5611
  725SOL    HW2 2175   1.219   2.719   1.460 -0.9357  1.1744 -0.4980
  726SOL     OW 2176   1.704   2.830   0.041  0.4387  0.0226  0.5010
  726SOL    HW1 2177   1.683   2.927   0.064  1.9595  1.1300  0.0087
  726SOL    HW2 2178   1.803   2.818   0.065  0.5173 -0.9576  2.3445
  727SOL     OW 2179   1.369   1.735   0.902  0.0034 -0.0258 -0.2690
  727SOL    HW1 2180   1.333   1.832   0.904  0.7750  1.5763  0.0341
  727SOL    HW2 2181   1.444   1.718   0.968 -1.7628 -0.7296 -1.0347
  728SOL     OW 2182   1.994   2.861   2.451 -0.7222  0.3977 -0.7234
  728SOL    HW1 2183   1.975   2.941   2.389  0.5623  1.9007 -0.6256
  728SOL    HW2 2184   2.048   2.889   2.530  0.0416  0.2635 -1.2915
  729SOL     OW 2185   2.247   2.111   1.623  0.1194  0.1855 -0.4303
  729SOL    HW1 2186   2.320   2.147   1.687 -1.5547  0.8920  1.8271
  729SOL    HW2 2187   2.295   2.086   1.538 -1.3155  0.5063  0.1723
  730SOL     OW 2188   2.271   0.662   2.425  0.1619 -0.2104  0.5342
  730SOL    HW1 2189   2.199   0.656   2.355 -2.3779 -1.6110 -0.3407
  730SOL    HW2 2190   2.317   0.571   2.437  1.6161  0.2228  2.5672
  731SOL     OW 2191   0.793   0.215   1.328 -0.0140  0.1968  0.2490
  731SOL    HW1 2192   0.803   0.282   1.408 -1.0964  1.9396 -1.3816
  731SOL    HW2 2193   0.734   0.258   1.250  0.4638  3.0631  0.5697
  732SOL     OW 2194   1.706   0.106   0.883 -0.5281 -0.0320 -0.0175
  732SOL    HW1 2195   1.667   0.092   0.787 -1.0313 -1.0781  1.0828
  732SOL    HW2 2196   1.802   0.079   0.898 -1.8201  0.9290  0.8458
  733SOL     OW 2197   0.816   0.944   1.052 -0.2171 -0.2217  0.6725
  733SOL    HW1 2198   0.750   0.993   1.111  0.6817 -2.7029  0.0622
  733SOL    HW2 2199   0.893   1.008   1.015  1.7340  2.0014 -0.2954
  734SOL     OW 2200   2.624   2.379   0.368  0.4406  0.1919  0.2513
  734SOL    HW1 2201   2.526   2.358   0.386  1.0330 -0.5351  0.8509
  734SOL    HW2 2202   2.667   2.456   0.428  3.5699  0.1931  4.7814
  735SOL     OW 2203   0.467   0.746   0.100  0.2378 -0.5631 -0.1706
  735SOL    HW1 2204   0.510   0.745   0.011  0.3710  0.1864  0.4864
  735SOL    HW2 2205   0.401   0.668   0.110 -0.4408  2.0502  0.6859
  736SOL     OW 2206   1.866   2.384   2.441  0.4557  0.1408  0.3418
  736SOL    HW1 2207   1.841   2.477   2.407 -0.0964  1.5292 -0.1159
  736SOL    HW2 2208   1.911   2.400   2.527 -0.4425 -2.2117 -3.4529
  737SOL     OW 2209   1.383   2.135   1.231 -0.5690 -0.2989  0.3598
  737SOL    HW1 2210   1.299   2.077   1.228 -0.4139  2.6069 -0.0439
  737SOL    HW2 2211   1.409   2.153   1.332  3.9479  0.0778  3.6223
  738SOL     OW 2212   1.687   2.916   2.128  0.2156  0.0936 -0.3543
  738SOL    HW1 2213   1.626   2.996   2.158 -2.1797 -1.8890  1.4053
  738SOL    HW2 2214   1.753   2.947   2.053  0.0269  1.8615 -2.5740
  739SOL     OW 2215   1.273   2.090   2.190  0.0697 -0.3136  0.1501
  739SOL    HW1 2216   1.359   2.130   2.229  2.1535  1.3817 -1.5789
  739SOL    HW2 2217   1.192   2.154   2.206  1.2944  2.0386  3.6221
  740SOL     OW 2218   1.991   2.156   1.586  0.1759 -0.2000 -0.5288
  740SOL    HW1 2219   2.091   2.144   1.597  0.3593 -1.1015  2.6405
  740SOL    HW2 2220   1.979   2.198   1.496 -0.6157 -1.1580  3.3971
  741SOL     OW 2221   2.009   1.720   3.088 -0.3518  0.0229 -0.0965
  741SOL    HW1 2222   1.955   1.765   3.016 -1.0982 -1.2212  3.0152
  741SOL    HW2 2223   2.108   1.736   3.070 -2.7049 -1.6681  0.2985
  742SOL     OW 2224   0.971   1.265   2.898 -0.3489  0.0088  0.0325
  742SOL    HW1 2225   0.950   1.313   2.808  2.0529  1.3147 -4.8695
  742SOL    HW2 2226   0.940   1.168   2.892 -0.4398  3.4472 -1.9004
  743SOL     OW 2227   2.368   0.846   2.754  0.1708 -0.1894  0.6734
  743SOL    HW1 2228   2.467   0.864   2.720  1.2797 -1.4262 -3.6338
  743SOL    HW2 2229   2.304   0.891   2.691  0.7416 -3.1114 -0.1351
  744SOL     OW 2230   2.029   2.702   1.614  0.1651  0.3088 -1.0894
  744SOL    HW1 2231   2.002   2.647   1.535  2.4317  1.8885 -0.3231
  744SOL    HW2 2232   2.085   2.783   1.589  0.7447 -1.2738  1.6298
  745SOL     OW 2233   2.716   1.927   1.251 -0.2472  0.2876 -0.0360
  745SOL    HW1 2234   2.814   1.904   1.237 -0.0024  0.7858  3.8014
  745SOL    HW2 2235   2.654   1.844   1.242  0.7363  0.5701  0.9867
  746SOL     OW 2236   2.949   1.892   0.902  0.4313 -0.2089  0.2262
  746SOL    HW1 2237   2.865   1.840   0.886  3.2318  2.4619 -1.7494
  746SOL    HW2 2238   3.029   1.845   0.854  1.9483 -0.4080  1.2736
  747SOL     OW 2239   1.990   2.616   0.312  0.1867 -0.0881  0.2891
  747SOL    HW1 2240   1.943   2.539   0.368 -1.0675 -1.6654  1.3376
  747SOL    HW2 2241   1.983   2.713   0.348  0.2188  2.0118 -3.4683
  748SOL     OW 2242   0.952   2.136   0.313 -0.5291  0.0973 -0.2353
  748SOL    HW1 2243   1.009   2.189   0.245  1.4234  2.6320  1.9152
  748SOL    HW2 2244   0.851   2.138   0.296 -2.1400 -0.1717  2.5560
  749SOL     OW 2245   2.926   0.309   2.367  0.0934 -0.1451  0.4635
  749SOL    HW1 2246   3.010   0.279   2.420 -0.1150 -2.7732  0.5505
  749SOL    HW2 2247   2.955   0.389   2.304  2.1523  2.4431 -1.1553
  750SOL     OW 2248   1.397   0.725   1.775 -0.0940  0.2406 -0.0172
  750SOL    HW1 2249   1.471   0.759   1.838  0.5360  1.3305 -1.5021
  750SOL    HW2 2250   1.421   0.639   1.737 -2.1641  1.3437  1.9388
  751SOL     OW 2251   2.232   2.500   1.959 -0.2347  0.2780  0.0993
  751SOL    HW1 2252   2.168   2.472   1.881  1.2590  0.8618 -1.0125
  751SOL    HW2 2253   2.282   2.585   1.928  0.8086 -1.4139 -0.7779
  752SOL     OW 2254   1.971   1.774   0.938  0.2394  0.2675  0.0548
  752SOL    HW1 2255   1.929   1.747   1.028 -1.0130 -1.1627  0.8489
  752SOL    HW2 2256   2.006   1.689   0.893  0.0284  0.2922 -0.8223
  753SOL     OW 2257   1.477   0.879   2.544  0.7856  0.1852 -0.4407
  753SOL    HW1 2258   1.460   0.980   2.524 -2.2765 -0.8910  0.9392
  753SOL    HW2 2259   1.458   0.865   2.642  0.4729  1.1698 -0.2851
  754SOL     OW 2260   0.209   2.788   0.972  0.3074  0.0300 -0.5354
  754SOL    HW1 2261   0.164   2.850   1.040 -1.3478 -0.4933  1.4701
  754SOL    HW2 2262   0.204   2.692   1.005  1.3765  0.8057  0.7081
  755SOL     OW 2263   2.107   0.266   1.586 -0.0743  0.0441 -0.0665
  755SOL    HW1 2264   2.195   0.325   1.596 -3.1821  1.8322  1.5126
  755SOL    HW2 2265   2.066   0.300   1.498 -0.1823  0.6470  0.3204
  756SOL     OW 2266   1.703   1.125   2.623 -0.1770  0.0663  1.1541
  756SOL    HW1 2267   1.702   1.200   2.693 -0.4302 -1.8475  1.4160
  756SOL    HW2 2268   1.607   1.107   2.596 -2.1011  3.0755  0.5949
  757SOL     OW 2269   2.955   2.830   1.730 -0.4917 -0.9072  0.1002
  757SOL    HW1 2270   2.993   2.923   1.751  0.4367 -0.5028 -0.6590
  757SOL    HW2 2271   2.886   2.838   1.659  1.6893  2.7747  0.3388
  758SOL     OW 2272   0.445   2.914   1.406  0.1086  0.0862 -0.1071
  758SOL    HW1 2273   0.354   2.946   1.441  1.6744  0.8878 -2.1927
  758SOL    HW2 2274   0.492   2.989   1.355 -0.9161  1.7978 -2.2538
  759SOL     OW 2275   2.258   1.273   0.948  0.1919 -0.0687  0.0484
  759SOL    HW1 2276   2.183   1.338   0.956 -0.4688 -4.3366  1.6329
  759SOL    HW2 2277   2.284   1.262   0.849  2.1802 -1.9757  3.2249
  760SOL     OW 2278   1.632   0.240   2.079  0.6253  0.5375  0.0769
  760SOL    HW1 2279   1.565   0.314   2.063 -0.3710  0.5471  0.2274
  760SOL    HW2 2280   1.583   0.154   2.113 -1.4460 -2.7693 -0.2354
  761SOL     OW 2281   2.131   0.347   0.441 -0.2552  0.2348  0.5141
  761SOL    HW1 2282   2.096   0.269   0.384  0.7898 -0.4423 -1.6588
  761SOL    HW2 2283   2.142   0.432   0.379  0.9040  0.4626 -0.0264
  762SOL     OW 2284   2.397   2.742   0.118 -0.3846 -0.3165 -0.2404
  762SOL    HW1 2285   2.499   2.743   0.124  2.0240 -1.8202  1.2572
  762SOL    HW2 2286   2.360   2.665   0.171  0.8847  2.2486  0.3993
  763SOL     OW 2287   1.059   0.804   1.161 -0.1471  0.1996  0.3398
  763SOL    HW1 2288   1.140   0.831   1.216 -2.4290 -0.3217 -1.7416
  763SOL    HW2 2289   0.983   0.868   1.177  1.6192  0.3892 -0.7175
  764SOL     OW 2290   2.406   2.505   2.717 -0.2640  0.1463  0.1818
  764SOL    HW1 2291   2.495   2.457   2.694 -2.4085 -1.4288  2.7969
  764SOL    HW2 2292   2.372   2.477   2.808  0.9846  2.3298 -0.8389
  765SOL     OW 2293   0.191   0.666   2.205  0.4063  0.5988 -0.2109
  765SOL    HW1 2294   0.087   0.662   2.194 -0.1493  0.7010  0.3011
  765SOL    HW2 2295   0.212   0.715   2.289 -2.1768 -0.9330 -2.8650
  766SOL     OW 2296   2.739   1.387   2.890  0.0501 -0.0128  0.3727
  766SOL    HW1 2297   2.682   1.463   2.865 -0.0345  1.3879 -0.4264
  766SOL    HW2 2298   2.685   1.302   2.903  0.0452  1.1577  0.6938
  767SOL     OW 2299   0.024   1.816   1.957  0.1472 -0.1585 -0.1360
  767SOL    HW1 2300   3.064   1.841   1.905 -0.2880 -0.7639  0.9345
  767SOL    HW2 2301   0.086   1.757   1.905 -2.2687  0.0804  0.4293
  768SOL     OW 2302   0.887   0.912   0.101 -0.6262  0.4551 -0.2266
  768SOL    HW1 2303   0.819   0.834   0.103  0.2425  0.5901  0.9104
  768SOL    HW2 2304   0.972   0.860   0.120 -2.5012 -0.3945 -0.6155
  769SOL     OW 2305   1.761   2.678   2.922 -0.0515 -0.3123  0.9174
  769SOL    HW1 2306   1.836   2.742   2.888  0.8530 -0.1032  0.8343
  769SOL    HW2 2307   1.737   2.696   3.017  1.1632  0.3270  0.9243
  770SOL     OW 2308   0.660   0.052   2.499  0.4942 -0.3447 -0.1217
  770SOL    HW1 2309   0.711   0.066   2.415 -0.6641 -1.4916 -0.1556
  770SOL    HW2 2310   0.656   0.130   2.565  0.5953 -0.5787  0.7073
  771SOL     OW 2311   0.634   2.557   0.858  0.2776  0.5174 -0.4028
  771SOL    HW1 2312   0.556   2.586   0.798  2.2449 -1.2868 -2.8539
  771SOL    HW2 2313   0.702   2.514   0.799 -1.1573 -0.6388  2.9018
  772SOL     OW 2314   3.072   0.704   0.156  0.3839  0.3095 -0.1242
  772SOL    HW1 2315   3.063   0.602   0.152  2.5354 -1.1795 -0.7824
  772SOL    HW2 2316   3.089   0.731   0.253  1.2116 -0.0387 -2.1452
  773SOL     OW 2317   1.946   0.955   2.170 -0.3572 -0.1798  0.2523
  773SOL    HW1 2318   1.893   0.912   2.094  0.9165  2.0521  0.2647
  773SOL    HW2 2319   1.894   1.033   2.211 -4.1169 -1.4984  0.6783
  774SOL     OW 2320   0.745   0.998   0.555 -0.2302  0.2534  0.8195
  774SOL    HW1 2321   0.680   1.070   0.533  2.8148 -1.8022 -2.2283
  774SOL    HW2 2322   0.744   0.972   0.658  1.5036 -3.0433  1.5292
  775SOL     OW 2323   1.791   0.039   3.043  0.2983 -0.5618  0.4279
  775SOL    HW1 2324   1.730   3.113   3.109 -1.4897  3.1204 -2.4311
  775SOL    HW2 2325   1.764   0.139   3.053 -1.0910  3.3115 -1.7735
  776SOL     OW 2326   2.254   0.261   2.366  0.1445  0.5433  0.6258
  776SOL    HW1 2327   2.153   0.259   2.378  0.4342 -0.1297 -0.5977
  776SOL    HW2 2328   2.278   0.238   2.272 -1.7051 -1.0225  1.6573
  777SOL     OW 2329   0.801   1.677   0.051 -0.5312 -0.3460 -0.1290
  777SOL    HW1 2330   0.821   1.719   0.141 -1.1864  0.7132  1.2989
  777SOL    HW2 2331   0.701   1.668   0.032 -0.4499  1.4522 -1.1258
  778SOL     OW 2332   0.265   2.707   0.034 -0.3427 -0.0324 -0.2704
  778SOL    HW1 2333   0.226   2.742   0.121 -0.5916  1.1098 -1.4597
  778SOL    HW2 2334   0.337   2.632   0.046  0.8458  0.1154  2.8871
  779SOL     OW 2335   0.331   1.218   0.124 -0.3383 -0.0258  0.3911
  779SOL    HW1 2336   0.286   1.289   0.184  2.3226 -1.2589  0.4387
  779SOL    HW2 2337   0.300   1.124   0.149  0.4262 -0.4736  1.3872
  780SOL     OW 2338   2.066   0.339   2.030  0.1286  0.5551  0.0966
  780SOL    HW1 2339   2.141   0.405   2.040 -1.6097 -0.0013 -0.6857
  780SOL    HW2 2340   2.040   0.325   1.934  0.2728 -0.4590  0.6347
  781SOL     OW 2341   1.759   1.163   1.835  0.5947  0.4816  0.1850
  781SOL    HW1 2342   1.840   1.227   1.838 -1.7484  1.5145  0.5923
  781SOL    HW2 2343   1.781   1.070   1.872 -0.9848  0.1617  0.2089
  782SOL     OW 2344   1.731   1.773   2.369 -0.1456  0.6466  0.6258
  782SOL    HW1 2345   1.780   1.827   2.442 -2.4529 -0.2622 -1.4706
  782SOL    HW2 2346   1.760   1.674   2.364 -4.3031 -2.1933  1.5892
  783SOL     OW 2347   1.456   0.009   1.396 -0.1904  0.0123 -0.2468
  783SOL    HW1 2348   1.494   0.080   1.462  1.2620  1.0508 -0.7636
  783SOL    HW2 2349   1.472   3.041   1.437 -0.4376  1.2116 -0.3146
  784SOL     OW 2350   2.052   0.830   2.537  0.5947 -0.3163 -0.2026
  784SOL    HW1 2351   2.089   0.899   2.604 -1.3864  0.9548  0.5242
  784SOL    HW2 2352   2.124   0.762   2.511 -0.4234  0.5159 -0.1304
  785SOL     OW 2353   1.893   0.415   0.182  0.0194  0.1996 -0.2375
  785SOL    HW1 2354   1.866   0.425   0.085  0.7446 -0.6228  1.0588
  785SOL    HW2 2355   1.961   0.482   0.217  2.9235  0.9268  2.6794
  786SOL     OW 2356   3.049   1.920   0.512 -0.8921  0.5437 -0.0727
  786SOL    HW1 2357   2.978   1.985   0.540  0.8332 -3.5268 -0.5072
  786SOL    HW2 2358   0.015   1.967   0.494  1.8243  1.4025  0.7237
  787SOL     OW 2359   1.739   2.182   0.380  0.2868  0.1851 -0.5103
  787SOL    HW1 2360   1.715   2.143   0.471 -0.6492  0.9628 -1.5802
  787SOL    HW2 2361   1.654   2.194   0.325 -2.0471 -0.4474  1.3497
  788SOL     OW 2362   2.079   1.613   1.507  0.2537 -0.3558  0.4550
  788SOL    HW1 2363   2.142   1.659   1.438  2.3211  0.3728 -0.8749
  788SOL    HW2 2364   1.997   1.676   1.529 -1.9289  1.3919 -0.9951
  789SOL     OW 2365   3.055   1.256   2.652 -0.0655  0.1633 -0.2087
  789SOL    HW1 2366   0.004   1.294   2.591  1.5537  2.6481 -1.3700
  789SOL    HW2 2367   3.038   1.159   2.635  1.1963  1.7974  0.0418
  790SOL     OW 2368   0.628   0.205   2.728 -0.0011 -0.2229  0.0284
  790SOL    HW1 2369   0.546   0.267   2.726 -2.6455  1.5528 -0.5867
  790SOL    HW2 2370   0.713   0.252   2.688  0.4415  0.6070 -0.1900
  791SOL     OW 2371   0.927   0.047   2.695  0.8585 -0.6474  0.5134
  791SOL    HW1 2372   0.967   0.100   2.773 -0.3556  1.1602 -0.3797
  791SOL    HW2 2373   0.867   0.102   2.636 -0.4349 -0.8630  0.2169
  792SOL     OW 2374   1.748   0.699   2.175  0.3796  0.1852 -0.5259
  792SOL    HW1 2375   1.758   0.598   2.170  0.9320  0.4333  3.6043
  792SOL    HW2 2376   1.752   0.720   2.277  1.0156  3.1780  2.5963
  793SOL     OW 2377   2.756   0.592   1.688 -0.1775 -0.3550  0.0697
  793SOL    HW1 2378   2.727   0.679   1.649  0.5469 -0.6201  1.9889
  793SOL    HW2 2379   2.700   0.569   1.771  1.0146 -0.8477  0.7454
  794SOL     OW 2380   0.457   0.640   1.877 -0.0493  0.2415  0.1471
  794SOL    HW1 2381   0.533   0.619   1.945  0.1877 -0.5806  0.6052
  794SOL    HW2 2382   0.389   0.564   1.881  0.3966  1.2076 -0.6740
  795SOL     OW 2383   3.035   1.476   0.584 -0.1476  0.3497 -0.1343
  795SOL    HW1 2384   2.994   1.546   0.519 -1.8163  0.2835 -2.1520
  795SOL    HW2 2385   0.000   1.506   0.617  0.1535  0.2347 -0.2922
  796SOL     OW 2386   3.063   2.307   2.981 -0.2559  0.6428 -0.0174
  796SOL    HW1 2387   3.003   2.279   3.056 -2.2820 -1.7097  0.5527
  796SOL    HW2 2388   3.018   2.374   2.923  0.9093 -1.2437 -0.1271
  797SOL     OW 2389   2.232   2.529   0.228 -0.3401 -0.0059  0.3906
  797SOL    HW1 2390   2.151   2.584   0.254  2.2919  2.0957 -0.8000
  797SOL    HW2 2391   2.210   2.468   0.150  0.7810 -1.5588  0.9904
  798SOL     OW 2392   0.370   1.136   1.387  0.7476  0.8032  0.7288
  798SOL    HW1 2393   0.411   1.045   1.409 -3.5917 -1.0131 -0.2486
  798SOL    HW2 2394   0.379   1.149   1.286  2.0716 -1.1941  3.3723
  799SOL     OW 2395   2.940   0.514   2.217 -0.0683 -0.1466  0.2136
  799SOL    HW1 2396   2.963   0.576   2.299 -0.4149  0.7652 -1.8340
  799SOL    HW2 2397   2.992   0.549   2.134  0.3631  3.8285 -1.9207
  800SOL     OW 2398   2.896   2.169   0.627  0.5234 -0.1238  0.2186
  800SOL    HW1 2399   2.972   2.222   0.586  1.6651  0.4854  1.1173
  800SOL    HW2 2400   2.897   2.178   0.729  0.3018  0.6178 -0.0372
  801SOL     OW 2401   1.373   1.106   1.018  0.7583  0.0429 -0.1563
  801SOL    HW1 2402   1.296   1.050   0.974  1.5018 -0.8094  1.3223
  801SOL    HW2 2403   1.342   1.199   1.047  0.3886  0.8880 -0.5817
  802SOL     OW 2404   1.256   1.875   1.523  0.0554  0.2437  0.6217
  802SOL    HW1 2405   1.204   1.791   1.486 -0.7154 -3.7468  0.7225
  802SOL    HW2 2406   1.187   1.954   1.531 -2.2007  1.3913 -0.0759
  803SOL     OW 2407   2.991   1.680   0.408 -0.1502 -0.0331  0.0506
  803SOL    HW1 2408   3.043   1.668   0.317 -0.9477  0.4524 -0.5067
  803SOL    HW2 2409   3.016   1.770   0.448  0.6851  0.5497  2.8507
  804SOL     OW 2410   1.019   2.454   1.091  0.1019  0.3034 -0.0273
  804SOL    HW1 2411   1.022   2.490   1.186  2.4410 -0.1532 -0.4348
  804SOL    HW2 2412   0.935   2.413   1.055  1.8183 -0.4708  2.9369
  805SOL     OW 2413   1.546   1.373   0.024 -0.0337 -0.4292 -0.1223
  805SOL    HW1 2414   1.489   1.451   0.061 -0.6081 -0.1396  1.3590
  805SOL    HW2 2415   1.481   1.312   3.098  1.0974  0.2854  0.8119
  806SOL     OW 2416   1.478   2.885   1.484 -0.0133  0.4295  0.4581
  806SOL    HW1 2417   1.468   2.870   1.586  0.7586 -2.0447 -1.7610
  806SOL    HW2 2418   1.559   2.831   1.451 -1.7955 -0.9048 -0.7635
  807SOL     OW 2419   1.997   2.816   2.843  0.4445  0.7418 -0.0439
  807SOL    HW1 2420   2.049   2.847   2.762 -2.2468  0.6607 -0.0343
  807SOL    HW2 2421   2.058   2.815   2.924 -1.2236  1.6315  2.3057
  808SOL     OW 2422   0.211   1.408   0.276  1.0604  0.2065  0.0332
  808SOL    HW1 2423   0.138   1.375   0.340 -0.4311  2.7113 -1.8016
  808SOL    HW2 2424   0.196   1.502   0.232  1.6720 -0.0173  0.8152
  809SOL     OW 2425   2.594   0.885   2.307 -0.2105 -0.5108 -0.6687
  809SOL    HW1 2426   2.626   0.952   2.233 -0.6451  0.1949  0.3402
  809SOL    HW2 2427   2.496   0.870   2.308  4.1985  0.3312  3.2093
  810SOL     OW 2428   2.531   0.090   2.026  0.4919  0.3310 -0.4343
  810SOL    HW1 2429   2.555   0.132   2.115 -0.7849  1.0603  3.5713
  810SOL    HW2 2430   2.552   0.160   1.954 -0.9739  2.4227  0.7800
  811SOL     OW 2431   2.245   2.425   1.493  0.3741  0.0543  0.5893
  811SOL    HW1 2432   2.186   2.390   1.572 -0.0183  0.2193 -0.3386
  811SOL    HW2 2433   2.290   2.513   1.509 -1.2975 -0.6534  0.2080
  812SOL     OW 2434   1.804   0.431   3.055  0.1207 -0.4058  0.0869
  812SOL    HW1 2435   1.737   0.372   3.010 -1.0559  1.5530  1.4575
  812SOL    HW2 2436   1.880   0.458   2.992 -0.3446  0.1821  0.3260
  813SOL     OW 2437   1.670   0.510   1.821 -0.0399  0.3615  0.3092
  813SOL    HW1 2438   1.721   0.435   1.865 -1.8691 -0.7304 -0.9809
  813SOL    HW2 2439   1.739   0.578   1.794  0.4262 -0.0591 -0.1161
  814SOL     OW 2440   2.116   1.328   1.508  0.0415  0.2644 -0.3279
  814SOL    HW1 2441   2.170   1.305   1.425 -2.7230  2.5000  1.0118
  814SOL    HW2 2442   2.130   1.423   1.532  0.6027 -2.7565 -0.6572
  815SOL     OW 2443   0.267   1.166   0.545 -0.4173 -0.3502 -0.5893
  815SOL    HW1 2444   0.172   1.184   0.566  3.1943 -2.4170  3.6732
  815SOL    HW2 2445   0.280   1.083   0.486  0.4272  0.6437 -0.5451
  816SOL     OW 2446   1.776   1.762   2.880  0.1223 -0.5259 -0.3398
  816SOL    HW1 2447   1.855   1.718   2.829  1.8280 -0.8338  0.7003
  816SOL    HW2 2448   1.689   1.712   2.858  1.9816 -0.5583 -1.6070
  817SOL     OW 2449   0.102   2.888   0.733 -0.1578  0.1943 -0.5364
  817SOL    HW1 2450   0.151   2.840   0.806  0.8317 -0.8559 -1.0314
  817SOL    HW2 2451   0.140   2.853   0.644 -1.3979 -0.5073 -1.1732
  818SOL     OW 2452   1.523   0.487   2.724 -0.3601  0.1990 -0.6922
  818SOL    HW1 2453   1.604   0.542   2.753  3.2829 -0.0030  0.9821
  818SOL    HW2 2454   1.555   0.395   2.681  2.1936 -2.4914  0.8112
  819SOL     OW 2455   1.052   1.067   0.386 -0.3062 -0.7437  0.2543
  819SOL    HW1 2456   1.080   0.990   0.324  0.7839 -0.9032 -1.2931
  819SOL    HW2 2457   0.970   1.117   0.346 -3.3468 -1.4978 -2.5611
  820SOL     OW 2458   2.332   1.039   1.044 -0.6923 -0.3416  0.0686
  820SOL    HW1 2459   2.423   1.018   1.003  0.7865 -0.8994 -2.8970
  820SOL    HW2 2460   2.306   1.133   1.005 -2.6447 -1.3726 -0.2622
  821SOL     OW 2461   2.311   0.027   0.422  0.0785 -0.0625  0.8419
  821SOL    HW1 2462   2.313   0.006   0.323 -0.2126 -2.3488 -0.5830
  821SOL    HW2 2463   2.219   0.038   0.460  1.5545  1.6934  1.8456
  822SOL     OW 2464   0.421   2.726   2.517  0.1323  0.0581  0.2726
  822SOL    HW1 2465   0.491   2.702   2.595  0.1793 -0.9311  3.8346
  822SOL    HW2 2466   0.429   2.829   2.492 -0.0941  0.3381 -2.2559
  823SOL     OW 2467   0.155   2.355   1.753  0.3572  0.2015 -0.6114
  823SOL    HW1 2468   0.079   2.387   1.696  2.1016 -1.9432  0.4674
  823SOL    HW2 2469   0.152   2.398   1.847  0.6984  0.5768  1.2891
  824SOL     OW 2470   0.867   2.874   2.191  0.2414 -0.2702 -0.6531
  824SOL    HW1 2471   0.940   2.890   2.120 -0.2660 -1.9651 -1.4056
  824SOL    HW2 2472   0.895   2.793   2.246  0.6390 -2.1741 -2.0320
  825SOL     OW 2473   1.256   1.827   0.463  0.1699 -0.1038 -0.1036
  825SOL    HW1 2474   1.274   1.759   0.389 -1.5024 -1.1144 -1.8786
  825SOL    HW2 2475   1.155   1.848   0.471  0.5229 -2.6669 -2.1099
  826SOL     OW 2476   1.151   2.983   3.092  0.1703  0.2804 -0.0373
  826SOL    HW1 2477   1.071   3.040   3.057  1.0303 -0.8054 -0.8961
  826SOL    HW2 2478   1.120   2.913   0.033 -0.8459  2.7313  2.2938
  827SOL     OW 2479   0.243   1.837   1.570  0.0913 -0.5292 -0.7506
  827SOL    HW1 2480   0.175   1.811   1.500 -2.1424  1.8293  1.6289
  827SOL    HW2 2481   0.217   1.795   1.660 -1.3219 -2.0127 -2.5836
  828SOL     OW 2482   2.591   1.650   1.259 -0.2678  0.6880  0.0069
  828SOL    HW1 2483   2.551   1.582   1.190 -1.2720 -1.4758  0.4718
  828SOL    HW2 2484   2.644   1.607   1.335  0.1815 -1.6610 -0.8855
  829SOL     OW 2485   2.920   2.254   0.097  0.2428  0.3111 -0.1674
  829SOL    HW1 2486   2.942   2.298   0.190  0.8421 -1.9470 -1.3377
  829SOL    HW2 2487   2.902   2.154   0.111 -3.2933 -2.5056  1.8628
  830SOL     OW 2488   1.034   0.668   0.594 -0.0126 -0.0595  0.1730
  830SOL    HW1 2489   1.126   0.720   0.610  2.8743  0.4129 -2.7491
  830SOL    HW2 2490   0.989   0.643   0.683  1.0672  0.4304 -1.0858
  831SOL     OW 2491   2.820   2.018   0.211  0.1551 -0.0302 -0.5360
  831SOL    HW1 2492   2.756   1.962   0.156  2.1635  0.6220  0.7943
  831SOL    HW2 2493   2.786   2.050   0.303 -1.2463 -2.1200 -0.1372
  832SOL     OW 2494   1.083   2.746   0.569 -0.9359  0.1282 -0.0216
  832SOL    HW1 2495   1.101   2.676   0.643 -0.3458 -2.6715  0.0284
  832SOL    HW2 2496   1.166   2.809   0.561  0.4215  2.2309 -2.8460
  833SOL     OW 2497   1.191   0.744   2.584 -0.4672 -0.3503  0.0839
  833SOL    HW1 2498   1.247   0.815   2.627  0.0393  0.4531  0.4224
  833SOL    HW2 2499   1.244   0.679   2.522 -0.3082 -0.9247 -2.1936
  834SOL     OW 2500   2.770   0.548   0.705 -0.1921 -0.7515 -0.3653
  834SOL    HW1 2501   2.752   0.488   0.620 -4.1031  0.1544 -3.0535
  834SOL    HW2 2502   2.835   0.507   0.770  0.4599  0.6788 -1.1284
  835SOL     OW 2503   2.571   0.539   1.867 -0.0077  0.0480 -0.1736
  835SOL    HW1 2504   2.480   0.574   1.834  1.3802 -2.8405 -0.2602
  835SOL    HW2 2505   2.614   0.608   1.930  2.7262  0.6025  0.0003
  836SOL     OW 2506   0.447   2.352   0.629 -0.8669  0.3707  0.0615
  836SOL    HW1 2507   0.463   2.452   0.637 -0.9153  3.3062 -2.1315
  836SOL    HW2 2508   0.501   2.317   0.551  0.5845  0.0884  0.5615
  837SOL     OW 2509   2.385   1.866   2.255 -0.0051  0.6103  0.5751
  837SOL    HW1 2510   2.440   1.840   2.339  0.8154 -0.7588  1.4663
  837SOL    HW2 2511   2.336   1.949   2.278  0.7962 -0.3477 -0.3018
  838SOL     OW 2512   0.107   1.415   1.786 -0.0261  0.3225  0.6787
  838SOL    HW1 2513   0.149   1.348   1.722  2.2662  1.3555 -1.6169
  838SOL    HW2 2514   0.004   1.415   1.781  0.2284 -0.7839  1.3145
  839SOL     OW 2515   0.247   0.173   0.404  0.1538 -0.2235 -0.5250
  839SOL    HW1 2516   0.297   0.202   0.486 -1.3823  0.5631 -5.0628
  839SOL    HW2 2517   0.221   0.077   0.420  0.4868 -1.9302  0.5578
  840SOL     OW 2518   3.057   0.680   2.388 -0.0495  0.2994 -0.1141
  840SOL    HW1 2519   3.063   0.782   2.401  0.6836  1.4672  0.5524
  840SOL    HW2 2520   3.098   0.640   2.467 -1.2746  1.3542 -1.2650
  841SOL     OW 2521   0.507   2.399   2.764 -0.1512  0.3482  0.3084
  841SOL    HW1 2522   0.479   2.359   2.851 -1.7606  0.3831  0.2978
  841SOL    HW2 2523   0.457   2.347   2.688  1.1043 -0.3647 -1.1633
  842SOL     OW 2524   0.895   2.875   0.873  0.5698  0.2678  0.6705
  842SOL    HW1 2525   0.864   2.807   0.940 -0.3234 -0.3808 -0.8370
  842SOL    HW2 2526   0.851   2.964   0.885  0.6897 -1.1283 -0.6476
  843SOL     OW 2527   0.556   1.637   2.763 -0.4029  0.0320  0.5898
  843SOL    HW1 2528   0.631   1.672   2.703  1.1257 -1.2510 -4.4839
  843SOL    HW2 2529   0.505   1.560   2.718  2.1131 -1.1907  0.5596
  844SOL     OW 2530   1.195   1.885   2.372 -0.1675  0.3926 -0.8847
  844SOL    HW1 2531   1.219   1.966   2.313  0.8118 -0.7387  0.5934
  844SOL    HW2 2532   1.281   1.845   2.416  1.2963  1.3288 -0.1370
  845SOL     OW 2533   2.366   2.779   2.742 -0.7120 -0.5390  0.3901
  845SOL    HW1 2534   2.451   2.804   2.695 -0.7065  0.3759  0.3193
  845SOL    HW2 2535   2.355   2.675   2.744 -0.0755  1.6683 -2.3932
  846SOL     OW 2536   1.989   1.460   3.098  0.0750 -0.0088  0.2524
  846SOL    HW1 2537   1.967   1.559   3.078 -1.4291  0.2274  2.8629
  846SOL    HW2 2538   2.024   1.453   0.069 -0.0618 -0.4079 -1.4357
  847SOL     OW 2539   2.508   0.291   2.757  0.1387  0.6069 -0.0895
  847SOL    HW1 2540   2.584   0.296   2.688 -0.1520  1.6801 -3.5972
  847SOL    HW2 2541   2.519   0.373   2.815  1.3341 -0.4007 -0.1984
  848SOL     OW 2542   0.068   0.889   3.094 -0.2303 -0.0775  0.2362
  848SOL    HW1 2543   0.077   0.955   0.048  1.9070  0.1378 -1.7808
  848SOL    HW2 2544   0.027   0.804   0.005  0.9703  0.5651  0.9960
  849SOL     OW 2545   1.296   0.323   2.251 -0.4290  0.1732 -0.0384
  849SOL    HW1 2546   1.370   0.280   2.306  0.1984  1.6940  0.2736
  849SOL    HW2 2547   1.313   0.423   2.240 -0.0632 -0.9374 -0.4628
  850SOL     OW 2548   2.998   1.051   0.710  0.4727  0.3557  0.1934
  850SOL    HW1 2549   2.978   0.952   0.732  0.1074 -1.8422  0.4549
  850SOL    HW2 2550   2.995   1.055   0.607  3.0063  1.6385  0.1621
  851SOL     OW 2551   0.321   1.322   0.764  0.6065 -0.3845 -0.0550
  851SOL    HW1 2552   0.313   1.271   0.678  1.5241  1.1303 -2.1236
  851SOL    HW2 2553   0.359   1.417   0.746 -1.2957  1.0289 -1.0532
  852SOL     OW 2554   1.205   1.194   2.034  0.0694  0.3006  0.2952
  852SOL    HW1 2555   1.189   1.291   2.053  1.8108  1.8078 -2.3399
  852SOL    HW2 2556   1.250   1.173   1.948 -0.4050 -0.4809  0.7450
  853SOL     OW 2557   2.156   1.223   0.176  0.6912 -0.6914  0.7925
  853SOL    HW1 2558   2.183   1.203   0.080 -0.1690  0.3099  1.5021
  853SOL    HW2 2559   2.139   1.326   0.186  2.2680 -0.3830 -0.6969
  854SOL     OW 2560   1.575   1.192   2.259  0.3142  0.0091  0.8327
  854SOL    HW1 2561   1.679   1.172   2.264  2.9085  2.2692 -0.9753
  854SOL    HW2 2562   1.543   1.184   2.161 -2.0155  1.0157 -2.0971
  855SOL     OW 2563   0.474   2.272   2.338 -0.4088 -0.1693 -0.0949
  855SOL    HW1 2564   0.449   2.303   2.250  3.6106 -3.7464  1.0050
  855SOL    HW2 2565   0.505   2.358   2.390 -1.5066 -0.7505  0.3214
  856SOL     OW 2566   1.189   1.063   2.275  0.2176 -0.1954  0.8027
  856SOL    HW1 2567   1.140   0.974   2.251 -2.4432 -0.6572  0.8242
  856SOL    HW2 2568   1.197   1.125   2.194  1.5560 -0.8401 -0.7466
  857SOL     OW 2569   1.098   1.073   2.622 -0.1385 -0.5286 -0.3603
  857SOL    HW1 2570   0.997   1.093   2.614 -0.7247  0.7618  0.9429
  857SOL    HW2 2571   1.144   1.058   2.530  0.7281 -1.8009  1.7528
  858SOL     OW 2572   2.937   0.950   1.764  0.4411  0.2895 -0.5042
  858SOL    HW1 2573   2.991   1.002   1.693 -0.9398  3.2105  0.0308
  858SOL    HW2 2574   2.971   0.856   1.765 -1.7228 -1.0094  0.4754
  859SOL     OW 2575   2.629   2.975   0.950  0.2354 -0.2411  0.0790
  859SOL    HW1 2576   2.588   2.892   0.908  0.7006  3.9884  0.0774
  859SOL    HW2 2577   2.572   3.005   1.030  0.1202 -0.0835 -0.6185
  860SOL     OW 2578   1.568   0.424   1.371 -0.0145 -0.5982  0.1745
  860SOL    HW1 2579   1.601   0.519   1.354 -0.6403 -0.2280 -1.3886
  860SOL    HW2 2580   1.529   0.381   1.286  1.7267  1.8401 -0.9578
  861SOL     OW 2581   1.805   0.679   1.209 -0.4134  0.2533 -0.5027
  861SOL    HW1 2582   1.845   0.756   1.158 -1.2052 -1.9206  1.2178
  861SOL    HW2 2583   1.740   0.715   1.276 -2.1504  0.7292  0.1766
  862SOL     OW 2584   1.365   3.024   2.527 -0.0881 -0.2255  0.2104
  862SOL    HW1 2585   1.368   2.932   2.482  1.5634 -0.4105  0.8654
  862SOL    HW2 2586   1.444   3.033   2.592  1.8564  0.4514 -2.4398
  863SOL     OW 2587   2.691   3.072   1.506  0.9659  0.1203 -0.2400
  863SOL    HW1 2588   2.623   3.124   1.563  0.2726  0.1524 -1.9742
  863SOL    HW2 2589   2.751   0.006   1.440  1.9590 -0.5797 -2.8120
  864SOL     OW 2590   2.625   2.721   1.953 -0.4448 -0.6368 -0.0609
  864SOL    HW1 2591   2.688   2.665   2.005  0.5110  1.2479 -0.4268
  864SOL    HW2 2592   2.608   2.815   1.979  1.0566 -0.3214  1.2849
  865SOL     OW 2593   1.215   1.153   2.855  0.6702  0.3351  0.1115
  865SOL    HW1 2594   1.119   1.200   2.869 -2.7056  1.2785 -1.2337
  865SOL    HW2 2595   1.196   1.071   2.800 -0.8520 -0.8898  2.7834
  866SOL     OW 2596   2.354   0.065   1.071  0.2545  0.6220  0.0672
  866SOL    HW1 2597   2.360   0.051   0.969 -2.7341 -0.2979 -1.5197
  866SOL    HW2 2598   2.387   3.111   1.128 -0.4191  1.5751 -1.4931
  867SOL     OW 2599   3.018   2.658   0.920 -0.0023 -0.0370 -0.3210
  867SOL    HW1 2600   3.095   2.622   0.970 -0.3480 -0.2667 -0.7562
  867SOL    HW2 2601   2.993   2.754   0.951  0.0320  1.9891 -0.9632
  868SOL     OW 2602   3.122   1.747   1.437  0.1489  0.2443  0.1424
  868SOL    HW1 2603   3.091   1.743   1.341 -3.0038 -1.8242  0.0876
  868SOL    HW2 2604   3.048   1.720   1.498 -1.3251 -0.5645 -0.3105
  869SOL     OW 2605   1.902   1.915   2.546  0.0081  1.1167  0.2171
  869SOL    HW1 2606   1.871   1.961   2.633 -0.8358 -0.0261  1.4097
  869SOL    HW2 2607   1.907   1.993   2.478 -1.7510  1.7243 -0.0639
  870SOL     OW 2608   1.281   0.813   0.622  0.2301  0.3859 -0.4769
  870SOL    HW1 2609   1.250   0.908   0.634 -0.6077 -0.8797 -2.2589
  870SOL    HW2 2610   1.293   0.771   0.717  0.2442  0.5031  1.4757
  871SOL     OW 2611   2.664   1.698   1.903  0.5256  0.2679  0.1492
  871SOL    HW1 2612   2.599   1.726   1.828  1.7711  3.3159  0.9725
  871SOL    HW2 2613   2.639   1.760   1.979 -0.0522  2.7780  0.2711
  872SOL     OW 2614   0.876   1.645   2.918  0.2716 -0.0486  0.2495
  872SOL    HW1 2615   0.973   1.680   2.920  3.6495 -0.2704  0.8496
  872SOL    HW2 2616   0.834   1.658   3.008 -0.5257 -2.1147 -0.7546
  873SOL     OW 2617   0.921   1.397   1.988  0.1697 -0.3264  0.3006
  873SOL    HW1 2618   0.832   1.444   1.997  1.2209 -1.2743 -0.2384
  873SOL    HW2 2619   0.985   1.438   1.921 -0.6311 -0.4455  2.4903
  874SOL     OW 2620   1.516   1.011   1.378  0.2568  0.0169 -0.1026
  874SOL    HW1 2621   1.577   1.041   1.454  5.2719  2.0927 -2.5700
  874SOL    HW2 2622   1.457   0.937   1.409 -2.5793  1.2924 -1.4331
  875SOL     OW 2623   2.803   0.062   2.673  0.3925  0.1929 -0.5754
  875SOL    HW1 2624   2.714   0.007   2.684  0.1180 -0.2716 -2.7335
  875SOL    HW2 2625   2.848   0.033   2.588 -2.8892  1.3913 -1.1165
  876SOL     OW 2626   1.073   1.348   0.521 -0.4635 -0.0606 -0.3585
  876SOL    HW1 2627   1.039   1.268   0.575  1.1254  1.6266 -0.1118
  876SOL    HW2 2628   1.167   1.379   0.549  0.5843 -0.3568  0.9670
  877SOL     OW 2629   2.015   2.861   0.479  0.3198 -0.3117  0.3028
  877SOL    HW1 2630   2.009   2.962   0.463 -0.1836  0.0490  1.6643
  877SOL    HW2 2631   2.100   2.835   0.534  4.0967 -1.9495 -0.7310
  878SOL     OW 2632   1.920   2.276   0.135 -0.2491  0.5227  0.2759
  878SOL    HW1 2633   2.013   2.298   0.101  0.0581 -1.4284 -0.9216
  878SOL    HW2 2634   1.934   2.235   0.225 -0.7980  1.3491 -0.3371
  879SOL     OW 2635   0.257   2.068   1.802 -0.0852 -0.4183  0.2983
  879SOL    HW1 2636   0.217   2.154   1.764 -2.3596 -0.9962 -3.0108
  879SOL    HW2 2637   0.231   2.060   1.902 -0.1290 -2.8365  1.7617
  880SOL     OW 2638   0.195   1.793   0.921 -0.3352 -0.2466 -0.1768
  880SOL    HW1 2639   0.196   1.713   0.985 -0.1285  2.0737 -0.6144
  880SOL    HW2 2640   0.112   1.794   0.863 -0.8990  0.0683  0.0003
  881SOL     OW 2641   1.095   0.109   2.274 -0.2111 -0.9399  0.0750
  881SOL    HW1 2642   1.120   0.097   2.374 -0.3088 -0.1966  1.4435
  881SOL    HW2 2643   1.119   0.201   2.244 -0.4913  0.2536  2.6014
  882SOL     OW 2644   2.746   1.066   0.866  0.1594  0.5854 -0.0030
  882SOL    HW1 2645   2.815   1.000   0.831 -0.3046  2.6200 -1.5042
  882SOL    HW2 2646   2.693   1.022   0.941 -0.2223  0.5163  0.4129
  883SOL     OW 2647   1.515   0.472   2.058 -0.3172 -0.3406  0.1123
  883SOL    HW1 2648   1.460   0.541   2.105  1.6731  0.2462  0.9914
  883SOL    HW2 2649   1.566   0.519   1.979  0.3170 -2.7962  0.1062
  884SOL     OW 2650   3.108   0.203   1.656 -1.1397 -0.2480  0.6644
  884SOL    HW1 2651   3.123   0.183   1.555  0.0791 -2.8435  0.5608
  884SOL    HW2 2652   0.019   0.293   1.683 -0.5000  0.0818 -1.8305
  885SOL     OW 2653   2.129   1.264   2.651  0.4155  0.1628 -0.3050
  885SOL    HW1 2654   2.214   1.312   2.696  1.9957  2.3188  0.0086
  885SOL    HW2 2655   2.093   1.317   2.573 -0.5285 -1.4088  0.3633
  886SOL     OW 2656   2.197   0.293   2.967 -0.7157 -0.0620 -0.8794
  886SOL    HW1 2657   2.245   0.328   3.049  1.4144  0.3826  3.6828
  886SOL    HW2 2658   2.129   0.359   2.935  1.0661 -1.0269  1.5900
  887SOL     OW 2659   1.138   2.879   1.708 -0.0162  0.0618 -0.1115
  887SOL    HW1 2660   1.221   2.933   1.730  1.2540 -1.2048  0.0146
  887SOL    HW2 2661   1.145   2.836   1.612  1.2519  1.4300 -3.1264
  888SOL     OW 2662   2.255   1.708   2.087 -0.0334 -0.2299 -0.6223
  888SOL    HW1 2663   2.294   1.779   2.152  1.8097  1.5926  1.2021
  888SOL    HW2 2664   2.296   1.616   2.104 -1.0025  1.2319  0.7818
  889SOL     OW 2665   2.032   2.236   1.336  0.1497  0.1340 -0.2012
  889SOL    HW1 2666   2.095   2.303   1.298 -0.0514 -0.1876  0.6176
  889SOL    HW2 2667   1.968   2.201   1.264  0.1978 -2.3822  1.2824
  890SOL     OW 2668   1.151   1.978   0.954  0.1666  0.1999 -0.1548
  890SOL    HW1 2669   1.134   1.960   1.051 -0.5594  0.2652 -0.3234
  890SOL    HW2 2670   1.073   2.022   0.903 -0.5038  2.4004 -2.2984
  891SOL     OW 2671   3.117   1.245   0.462  0.5036  0.0029  0.1298
  891SOL    HW1 2672   3.046   1.180   0.424 -0.0363  0.1480 -1.1335
  891SOL    HW2 2673   3.070   1.320   0.512  0.3032  1.6090  0.1290
  892SOL     OW 2674   2.385   1.558   2.958  0.2786 -0.2316 -0.3328
  892SOL    HW1 2675   2.440   1.493   3.014 -1.7964  1.4772 -0.4442
  892SOL    HW2 2676   2.348   1.630   3.014 -0.3786  0.5063 -0.2009
  893SOL     OW 2677   2.132   2.516   1.266  0.1967 -0.5336 -0.1269
  893SOL    HW1 2678   2.149   2.615   1.245  2.1056  3.0016 -1.6972
  893SOL    HW2 2679   2.167   2.479   1.357  0.3011 -0.3637  1.3593
  894SOL     OW 2680   2.628   0.171   0.689 -0.1271 -0.0978  0.0823
  894SOL    HW1 2681   2.570   0.088   0.679  0.3935  0.0806  0.4859
  894SOL    HW2 2682   2.615   0.203   0.785 -1.3677  0.9326  0.7647
  895SOL     OW 2683   2.671   2.476   2.628  0.2560 -0.0994  0.6051
  895SOL    HW1 2684   2.697   2.553   2.570 -1.3620 -2.8442 -1.3266
  895SOL    HW2 2685   2.749   2.410   2.624 -1.4256  0.0453  0.9036
  896SOL     OW 2686   2.148   2.931   2.652  0.3974  0.4548  0.7961
  896SOL    HW1 2687   2.225   2.877   2.689 -0.9163 -0.0704 -0.9917
  896SOL    HW2 2688   2.177   3.024   2.626 -0.0056  0.7531  0.3218
  897SOL     OW 2689   0.282   1.730   2.097 -0.8275  0.0592 -0.0853
  897SOL    HW1 2690   0.212   1.666   2.063 -0.6094 -0.0646  1.0406
  897SOL    HW2 2691   0.316   1.701   2.189 -1.7670  1.4243 -2.3573
  898SOL     OW 2692   2.924   1.837   1.808 -0.2850  0.0832  0.0696
  898SOL    HW1 2693   2.857   1.801   1.874  0.5585  1.1699 -0.7546
  898SOL    HW2 2694   2.891   1.930   1.777 -0.3414  0.0001 -1.8528
  899SOL     OW 2695   1.788   3.074   1.477  0.7476  0.8828  0.3877
  899SOL    HW1 2696   1.711   3.121   1.522 -0.2383 -0.2286  0.4371
  899SOL    HW2 2697   1.764   2.973   1.471  1.4439 -0.2079  1.3594
  900SOL     OW 2698   1.156   0.872   0.185 -0.1894  0.6710  0.4045
  900SOL    HW1 2699   1.189   0.783   0.216 -0.7735 -0.3114  1.1669
  900SOL    HW2 2700   1.224   0.910   0.121 -1.2591  0.6160  2.5156
  901SOL     OW 2701   0.926   0.996   2.950 -0.3396 -0.4246 -0.6476
  901SOL    HW1 2702   0.909   0.961   3.043  1.2920 -2.3342 -1.1241
  901SOL    HW2 2703   0.962   0.910   2.904 -1.0282  0.8249 -0.1960
  902SOL     OW 2704   2.677   2.599   0.538 -0.0707  0.7135  0.2096
  902SOL    HW1 2705   2.738   2.641   0.604 -3.6276  2.0963 -3.8189
  902SOL    HW2 2706   2.596   2.554   0.588 -0.1378 -1.7666 -2.3698
  903SOL     OW 2707   2.746   1.426   1.928  0.0966 -0.1914  0.3787
  903SOL    HW1 2708   2.727   1.525   1.904  0.1426  2.0846 -0.7140
  903SOL    HW2 2709   2.757   1.419   2.030 -1.1508  0.1438 -0.2347
  904SOL     OW 2710   1.635   1.045   0.723  0.4387  0.4541  0.0421
  904SOL    HW1 2711   1.612   0.951   0.752 -0.4229 -1.1748 -2.2362
  904SOL    HW2 2712   1.715   1.046   0.665 -3.2845 -3.5315  3.0262
  905SOL     OW 2713   2.358   2.676   1.523  0.1752 -0.1881 -0.8504
  905SOL    HW1 2714   2.322   2.773   1.521 -2.0509  0.3057 -3.5216
  905SOL    HW2 2715   2.441   2.669   1.577  0.4200  0.5368 -0.0172
  906SOL     OW 2716   1.484   2.459   3.099 -0.2563  0.0193  0.0902
  906SOL    HW1 2717   1.575   2.477   0.022 -0.5548 -0.3685 -1.2142
  906SOL    HW2 2718   1.505   2.423   3.004 -0.9812  0.6038 -3.3840
  907SOL     OW 2719   0.569   2.912   0.654 -0.8411 -0.3416  0.0181
  907SOL    HW1 2720   0.663   2.870   0.652 -1.1775 -0.2152 -1.8291
  907SOL    HW2 2721   0.542   2.933   0.753  1.4099  1.8666  1.0306
  908SOL     OW 2722   0.703   0.229   2.131  0.5089 -0.0265  0.2471
  908SOL    HW1 2723   0.707   0.135   2.173  0.8381 -3.2443  0.5797
  908SOL    HW2 2724   0.762   0.236   2.047  0.2461 -0.2224 -1.4763
  909SOL     OW 2725   2.141   0.687   1.519 -0.0590  0.6075  0.4788
  909SOL    HW1 2726   2.066   0.626   1.487  0.6645 -0.3062 -0.9024
  909SOL    HW2 2727   2.114   0.780   1.543  1.7648 -1.0782  0.9903
  910SOL     OW 2728   1.193   0.589   0.189  0.1705  0.3477 -0.3299
  910SOL    HW1 2729   1.107   0.568   0.141  0.2151  0.1073  0.5157
  910SOL    HW2 2730   1.214   0.515   0.254 -3.5246  1.8012 -0.4033
  911SOL     OW 2731   0.170   0.467   3.014  0.1997  0.3116  0.1462
  911SOL    HW1 2732   0.078   0.460   3.053  2.8657 -1.4501  0.3625
  911SOL    HW2 2733   0.189   0.377   2.965  0.2410 -0.7811  0.1711
  912SOL     OW 2734   2.984   2.488   2.788 -0.9174  0.5326  0.1593
  912SOL    HW1 2735   3.001   2.577   2.832  0.6633 -0.9816 -1.4110
  912SOL    HW2 2736   3.043   2.483   2.700 -0.2126 -0.2996  0.8690
  913SOL     OW 2737   2.535   2.397   2.985  0.2490 -0.5329 -0.0174
  913SOL    HW1 2738   2.571   2.398   3.079 -3.6450  1.0196  0.9118
  913SOL    HW2 2739   2.581   2.471   2.931 -0.6509 -1.3647 -2.9304
  914SOL     OW 2740   1.838   1.743   1.920 -0.1207 -0.4742  0.3096
  914SOL    HW1 2741   1.739   1.764   1.942  0.5497 -0.8603  0.7627
  914SOL    HW2 2742   1.897   1.777   1.991 -0.5921  0.4383 -4.3753
  915SOL     OW 2743   3.042   2.581   2.146 -0.0319  0.0553 -0.5163
  915SOL    HW1 2744   3.089   2.551   2.229 -1.8463 -0.0001 -2.0640
  915SOL    HW2 2745   2.947   2.551   2.142  0.8039  0.3150 -1.6300
  916SOL     OW 2746   3.021   1.148   1.608  0.1960  0.1134  0.0828
  916SOL    HW1 2747   3.003   1.229   1.669 -0.1180  0.9704  0.9890
  916SOL    HW2 2748   2.958   1.154   1.527 -1.2782  0.0089 -1.4935
  917SOL     OW 2749   2.207   0.040   3.056  0.5969  0.1956  0.1396
  917SOL    HW1 2750   2.126   0.018   3.114  1.5500 -2.4677 -2.8229
  917SOL    HW2 2751   2.201   0.132   3.015 -1.0680  1.0815  0.1471
  918SOL     OW 2752   1.792   2.660   2.059 -0.1240  0.2590 -0.4258
  918SOL    HW1 2753   1.893   2.658   2.079  2.2154  0.3674 -2.1003
  918SOL    HW2 2754   1.755   2.755   2.078 -0.7236  0.5669  2.1403
  919SOL     OW 2755   1.904   2.270   1.832  0.4122 -0.0701  0.0940
  919SOL    HW1 2756   1.939   2.206   1.758 -1.1869  1.6908  0.7353
  919SOL    HW2 2757   1.923   2.229   1.925  1.9528  0.5914  0.7773
  920SOL     OW 2758   0.560   0.933   0.268  0.0762  0.6656  0.1082
  920SOL    HW1 2759   0.609   0.985   0.191  1.7346  3.6679  0.0321
  920SOL    HW2 2760   0.508   0.853   0.231  0.5745 -0.0915 -0.2987
  921SOL     OW 2761   2.877   1.000   2.510 -0.0708 -0.3519  0.4816
  921SOL    HW1 2762   2.808   0.923   2.522  0.2529 -2.6677  0.6953
  921SOL    HW2 2763   2.831   1.081   2.464  1.9320  2.4006 -0.9781
  922SOL     OW 2764   0.350   2.094   0.092 -0.4461 -0.5980  0.3639
  922SOL    HW1 2765   0.250   2.073   0.078  1.6755 -1.6418 -0.3872
  922SOL    HW2 2766   0.404   2.006   0.111 -3.0685  1.0102 -1.3378
  923SOL     OW 2767   0.562   0.967   2.139  0.4350  0.1863 -0.2722
  923SOL    HW1 2768   0.476   0.908   2.128  0.9304 -0.8681 -0.7448
  923SOL    HW2 2769   0.648   0.908   2.136  0.6947 -3.0141  0.8328
  924SOL     OW 2770   1.254   2.868   2.868 -0.1989 -0.0204  0.1055
  924SOL    HW1 2771   1.212   2.922   2.944  2.6829  0.0359  1.9737
  924SOL    HW2 2772   1.343   2.827   2.894 -1.5837 -1.4085  0.8338
  925SOL     OW 2773   1.923   1.279   0.922 -0.6271  0.6852  0.4248
  925SOL    HW1 2774   1.822   1.277   0.903 -0.0283  0.9834 -1.0282
  925SOL    HW2 2775   1.975   1.202   0.877  2.5316  1.7254 -0.3447
  926SOL     OW 2776   1.833   0.864   1.927  0.2360 -0.2225  0.0192
  926SOL    HW1 2777   1.902   0.804   1.889 -4.7494  1.3758  1.3403
  926SOL    HW2 2778   1.747   0.812   1.951  0.7157  0.2006 -0.4093
  927SOL     OW 2779   2.610   2.415   1.711  0.5453  0.2269 -0.3359
  927SOL    HW1 2780   2.704   2.394   1.740  0.6109  2.0048  0.9814
  927SOL    HW2 2781   2.594   2.513   1.710  1.7359 -1.3178  0.4386
  928SOL     OW 2782   0.284   0.777   2.462 -0.4026 -0.0062  0.6390
  928SOL    HW1 2783   0.225   0.777   2.541  0.0395 -1.4505 -1.0849
  928SOL    HW2 2784   0.381   0.801   2.492  0.7753  0.9237  1.0180
  929SOL     OW 2785   2.844   3.051   0.782 -0.0804  0.2727  0.0922
  929SOL    HW1 2786   2.754   3.025   0.827 -0.1532 -1.2951 -1.6668
  929SOL    HW2 2787   2.833   3.055   0.681 -0.8245 -2.6232  0.8450
  930SOL     OW 2788   2.461   0.300   1.438  0.4981  0.1667 -0.7648
  930SOL    HW1 2789   2.384   0.280   1.377  2.1202  0.1695  1.4675
  930SOL    HW2 2790   2.536   0.352   1.386  1.4274  0.9729 -1.3860
  931SOL     OW 2791   2.322   1.165   3.067 -0.1521 -0.1073  0.1819
  931SOL    HW1 2792   2.323   1.063   3.073 -1.3941  0.9502 -0.1760
  931SOL    HW2 2793   2.248   1.208   3.005 -0.5498 -2.8866 -0.3201
  932SOL     OW 2794   2.233   1.615   1.761  0.6673  0.1879  0.5147
  932SOL    HW1 2795   2.229   1.663   1.847  1.8813 -1.8878 -0.1907
  932SOL    HW2 2796   2.153   1.639   1.700 -0.9631  1.6375 -0.8550
  933SOL     OW 2797   0.071   2.743   1.345 -0.2376 -0.0998  0.3817
  933SOL    HW1 2798   0.112   2.655   1.309 -1.8312  1.3205 -3.6245
  933SOL    HW2 2799   0.108   2.768   1.441  1.1334  1.2551  1.9268
  934SOL     OW 2800   0.728   2.454   1.260 -0.2870  0.4497 -0.0826
  934SOL    HW1 2801   0.755   2.394   1.185 -0.2232  0.4865  4.0915
  934SOL    HW2 2802   0.811   2.496   1.300 -3.6882  0.1991  1.9324
  935SOL     OW 2803   2.331   1.470   2.189 -0.6450  0.0027  0.5922
  935SOL    HW1 2804   2.336   1.481   2.292 -0.3048  0.5481  1.3680
  935SOL    HW2 2805   2.338   1.375   2.153  0.7973  0.2455 -0.5145
  936SOL     OW 2806   2.285   1.365   1.851 -0.3630  0.2758  0.0144
  936SOL    HW1 2807   2.274   1.452   1.802  1.7627 -0.2623 -0.1613
  936SOL    HW2 2808   2.382   1.337   1.846 -1.6588 -0.8771  0.0891
  937SOL     OW 2809   2.191   0.999   2.059  0.3286 -0.4470 -0.3476
  937SOL    HW1 2810   2.100   1.000   2.108  2.3370 -0.6020 -0.1251
  937SOL    HW2 2811   2.258   0.968   2.126 -3.1270 -0.0464 -2.3564
  938SOL     OW 2812   0.835   2.364   2.952  0.4127 -0.1238 -0.4064
  938SOL    HW1 2813   0.892   2.352   3.040  0.6185  0.4074  5.1216
  938SOL    HW2 2814   0.837   2.469   2.933 -0.4094  1.7936 -0.1156
  939SOL     OW 2815   2.723   0.938   3.008 -0.5003 -0.2160  0.4247
  939SOL    HW1 2816   2.793   0.910   2.939 -0.6694 -0.9939  0.0687
  939SOL    HW2 2817   2.760   0.934   3.104  2.2940 -3.0927  2.6637
  940SOL     OW 2818   1.137   1.976   1.219 -0.4259 -0.0620 -0.4412
  940SOL    HW1 2819   1.158   1.881   1.240  3.6803  0.4911  0.7893
  940SOL    HW2 2820   1.040   1.998   1.235  0.0625 -1.4619  0.3712
  941SOL     OW 2821   0.553   2.053   2.003 -0.3163  0.0088 -0.0096
  941SOL    HW1 2822   0.499   2.036   1.918 -1.2693 -0.5153 -0.5941
  941SOL    HW2 2823   0.651   2.027   1.982  1.4731 -1.1671 -1.7499
  942SOL     OW 2824   0.260   1.950   2.913  0.4022 -0.1683 -0.2976
  942SOL    HW1 2825   0.234   1.986   2.823  2.3615 -4.1528  1.8108
  942SOL    HW2 2826   0.353   1.912   2.910  0.9734  1.3959  1.2374
  943SOL     OW 2827   1.784   2.769   1.712  0.2304 -0.3323  0.1488
  943SOL    HW1 2828   1.770   2.677   1.752 -1.4043 -2.5253  1.9529
  943SOL    HW2 2829   1.879   2.779   1.671 -0.8108  2.0756  0.1419
  944SOL     OW 2830   1.012   1.697   0.260 -0.1380 -0.6061  1.1784
  944SOL    HW1 2831   1.055   1.731   0.177 -2.3752  1.2097 -1.1211
  944SOL    HW2 2832   0.987   1.600   0.246  0.4499  0.9953 -1.0277
  945SOL     OW 2833   2.595   2.669   0.823 -0.2683 -0.1117 -0.4442
  945SOL    HW1 2834   2.694   2.681   0.806  2.1410 -1.4227  0.7478
  945SOL    HW2 2835   2.553   2.589   0.776 -1.4255 -1.0645 -2.3636
  946SOL     OW 2836   0.866   1.477   2.702  0.1473  0.0188  0.0551
  946SOL    HW1 2837   0.925   1.526   2.632  1.7989  1.5397  1.8309
  946SOL    HW2 2838   0.859   1.532   2.786 -0.4986 -2.9625 -0.3964
  947SOL     OW 2839   3.027   0.695   2.012 -0.2880  0.3522  0.0932
  947SOL    HW1 2840   3.062   0.780   2.059  0.6462 -2.8962  2.1503
  947SOL    HW2 2841   3.013   0.711   1.913  2.8834 -0.1034 -4.0419
  948SOL     OW 2842   0.155   1.547   0.697 -0.0858 -0.0625 -0.0938
  948SOL    HW1 2843   0.254   1.571   0.671 -0.7088 -0.1913 -0.4355
  948SOL    HW2 2844   0.151   1.494   0.786  2.2874  0.6588  0.0068
  949SOL     OW 2845   0.738   0.794   2.293 -0.4467 -0.0739  0.5398
  949SOL    HW1 2846   0.659   0.729   2.295 -0.9891 -1.0992 -1.0618
  949SOL    HW2 2847   0.808   0.753   2.358  1.8628 -1.8958  1.7211
  950SOL     OW 2848   0.182   0.447   1.367  0.0001 -0.5695 -0.0542
  950SOL    HW1 2849   0.232   0.537   1.355  0.7229  1.4417 -0.1630
  950SOL    HW2 2850   0.227   0.386   1.434 -0.4324 -0.0666 -0.4372
  951SOL     OW 2851   0.702   1.346   2.535  0.3809 -0.3146  0.3610
  951SOL    HW1 2852   0.767   1.400   2.591  2.3927  1.2826  0.8959
  951SOL    HW2 2853   0.752   1.297   2.462 -1.8464 -1.0449  1.3922
  952SOL     OW 2854   1.985   2.102   0.826 -0.0687 -0.3284 -0.1590
  952SOL    HW1 2855   1.941   2.023   0.781 -0.8169 -0.2740  1.3637
  952SOL    HW2 2856   2.007   2.176   0.762 -0.3924  1.0863  1.1027
  953SOL     OW 2857   0.724   0.716   0.180  0.0787 -0.0971 -0.6855
  953SOL    HW1 2858   0.770   0.687   0.262 -2.1624 -1.9309  0.5861
  953SOL    HW2 2859   0.626   0.724   0.199  0.8091  0.3105 -0.7538
  954SOL     OW 2860   2.219   0.657   1.191 -0.7802 -0.0765  0.0696
  954SOL    HW1 2861   2.315   0.636   1.205  0.5895 -1.0091 -1.7993
  954SOL    HW2 2862   2.181   0.590   1.125  0.5958 -2.5343  1.2671
  955SOL     OW 2863   1.929   1.138   0.312  0.3625 -0.2262  0.1443
  955SOL    HW1 2864   2.008   1.124   0.249 -0.2291 -2.1872 -0.7117
  955SOL    HW2 2865   1.844   1.162   0.261  0.2669  2.5317  0.5352
  956SOL     OW 2866   1.148   0.578   2.024 -0.0529  0.1538  0.6520
  956SOL    HW1 2867   1.085   0.652   2.020 -0.1890 -1.9964  1.1326
  956SOL    HW2 2868   1.220   0.583   2.096 -0.9898 -0.5336  1.7516
  957SOL     OW 2869   1.486   0.495   1.646 -0.0895 -0.5900 -0.3851
  957SOL    HW1 2870   1.563   0.484   1.706 -0.2432 -3.0797  1.5813
  957SOL    HW2 2871   1.510   0.460   1.551 -0.9204  0.8017 -2.3294
  958SOL     OW 2872   0.180   2.016   0.474  0.7750  0.1927 -0.0505
  958SOL    HW1 2873   0.238   2.029   0.390 -0.9505  2.2029  0.4265
  958SOL    HW2 2874   0.243   2.022   0.557  1.9687 -0.5451 -0.3521
  959SOL     OW 2875   2.253   1.059   1.803  0.4755  0.0582  0.1292
  959SOL    HW1 2876   2.276   1.159   1.798 -0.9646  3.2845 -1.2017
  959SOL    HW2 2877   2.226   1.037   1.897  0.4313 -1.8678 -1.4544
  960SOL     OW 2878   0.049   1.743   2.974  0.2819  0.2030 -0.5631
  960SOL    HW1 2879   0.135   1.795   2.975  0.2422  1.1154 -1.2427
  960SOL    HW2 2880   0.062   1.644   2.987 -0.0076  0.7327  0.8077
  961SOL     OW 2881   0.461   1.913   1.436  0.2423 -0.2153 -0.0446
  961SOL    HW1 2882   0.370   1.881   1.472 -0.1020 -0.5912  0.4480
  961SOL    HW2 2883   0.524   1.843   1.399 -1.8154 -0.6362 -0.7495
  962SOL     OW 2884   0.541   1.142   0.833 -1.0272 -0.1705  0.2183
  962SOL    HW1 2885   0.486   1.196   0.762  0.1318 -0.2181  0.0268
  962SOL    HW2 2886   0.593   1.209   0.893  2.3925  0.7274  1.0496
  963SOL     OW 2887   1.442   1.777   2.439 -0.3377  0.4629 -0.1042
  963SOL    HW1 2888   1.416   1.675   2.447 -0.4412 -1.6676 -0.3158
  963SOL    HW2 2889   1.537   1.780   2.404 -0.9483 -1.1794 -0.2253
  964SOL     OW 2890   0.229   2.997   1.888 -0.2198 -0.1948  0.9817
  964SOL    HW1 2891   0.256   2.899   1.876  0.8539  1.7125 -0.8759
  964SOL    HW2 2892   0.189   3.013   1.977 -1.4922 -2.4362 -0.4770
  965SOL     OW 2893   0.189   2.023   2.649 -0.4647 -0.2891  0.0303
  965SOL    HW1 2894   0.129   2.107   2.671 -2.2529  3.3816  1.3302
  965SOL    HW2 2895   0.177   1.972   2.559  0.8017  1.9905  2.1832
  966SOL     OW 2896   2.815   1.700   3.105  0.2707 -0.0431 -0.5138
  966SOL    HW1 2897   2.798   1.623   3.041 -0.2158  0.4945 -0.1373
  966SOL    HW2 2898   2.896   1.685   0.041  1.1650  2.0772 -1.2114
  967SOL     OW 2899   1.997   3.079   0.098  1.1179 -0.2134 -0.2215
  967SOL    HW1 2900   2.021   2.983   0.113 -2.7537  1.1853 -1.9325
  967SOL    HW2 2901   1.950   3.093   0.010 -0.5471 -0.0120 -1.5246
  968SOL     OW 2902   2.481   3.025   0.606 -0.8541 -0.2006  0.0810
  968SOL    HW1 2903   2.583   3.005   0.589  2.8256  2.3092 -0.9041
  968SOL    HW2 2904   2.430   3.056   0.522  1.5937 -1.2809  0.2603
  969SOL     OW 2905   0.160   1.044   1.727 -0.0068 -0.0706 -0.1229
  969SOL    HW1 2906   0.071   1.020   1.694  2.2298  0.5488 -0.5522
  969SOL    HW2 2907   0.187   1.129   1.675  0.6535  0.8581 -1.3250
  970SOL     OW 2908   1.568   1.853   0.150  0.0659 -0.1876  0.0828
  970SOL    HW1 2909   1.635   1.851   0.225 -0.7541  0.2017 -0.7578
  970SOL    HW2 2910   1.503   1.928   0.171 -1.3942 -1.5654 -1.4028
  971SOL     OW 2911   2.441   3.022   1.741  0.6505  0.0065 -0.1220
  971SOL    HW1 2912   2.469   3.114   1.705  0.3738 -0.5425 -1.0453
  971SOL    HW2 2913   2.479   2.998   1.827  1.2037  1.7983 -2.1937
  972SOL     OW 2914   2.767   0.185   1.129  0.5012  0.1132 -0.0853
  972SOL    HW1 2915   2.860   0.175   1.090 -0.7804 -0.8292 -1.7133
  972SOL    HW2 2916   2.705   0.213   1.048  0.7451  1.1195 -0.4165
  973SOL     OW 2917   0.836   0.507   2.369 -0.4293 -0.2456  0.1790
  973SOL    HW1 2918   0.871   0.484   2.278 -1.6093  2.7684 -0.5179
  973SOL    HW2 2919   0.891   0.586   2.408 -0.9471 -1.8629 -0.5530
  974SOL     OW 2920   2.648   1.457   2.270  0.1962  0.3632 -0.0531
  974SOL    HW1 2921   2.556   1.434   2.224 -1.6754 -1.3524  0.1072
  974SOL    HW2 2922   2.690   1.537   2.230 -1.2382 -5.1305  1.2348
  975SOL     OW 2923   1.094   0.298   1.784  0.1020  0.2530 -0.0911
  975SOL    HW1 2924   1.165   0.295   1.858 -1.1896 -2.2315  0.3783
  975SOL    HW2 2925   1.091   0.210   1.733  0.2515  0.1764  0.3437
  976SOL     OW 2926   1.411   1.484   1.354 -0.0652 -0.2533 -0.2741
  976SOL    HW1 2927   1.445   1.580   1.344  0.1189 -1.7344 -1.6439
  976SOL    HW2 2928   1.450   1.443   1.433  0.0673  2.7358 -3.1082
  977SOL     OW 2929   0.445   0.092   0.255  1.0903 -0.1803  0.3645
  977SOL    HW1 2930   0.358   0.122   0.303  1.7028  2.8938  1.0835
  977SOL    HW2 2931   0.506   0.040   0.316 -0.3620  0.9252 -0.7924
  978SOL     OW 2932   2.400   1.213   2.140  0.0736 -0.2505 -0.1066
  978SOL    HW1 2933   2.458   1.148   2.088  0.2971 -1.0334  0.8245
  978SOL    HW2 2934   2.377   1.182   2.237  0.1858 -0.0174  3.9982
  979SOL     OW 2935   1.557   0.789   2.004  0.3382 -0.2342 -0.2898
  979SOL    HW1 2936   1.610   0.762   2.089  2.1909 -0.1601 -2.1525
  979SOL    HW2 2937   1.498   0.869   2.022  3.7976  2.6762  2.6534
  980SOL     OW 2938   1.759   1.500   2.583  0.0377 -0.6689  0.1012
  980SOL    HW1 2939   1.706   1.492   2.492  0.9189  2.3344 -2.5847
  980SOL    HW2 2940   1.738   1.423   2.643 -2.3575  2.7861  0.7081
  981SOL     OW 2941   1.855   0.655   1.700  0.0287 -0.2118 -0.1356
  981SOL    HW1 2942   1.855   0.753   1.661 -1.9273  2.9283 -0.5515
  981SOL    HW2 2943   1.853   0.591   1.628 -1.6725  0.9769  2.1182
  982SOL     OW 2944   0.707   0.563   3.056  0.3623  0.0688  0.0441
  982SOL    HW1 2945   0.667   0.600   0.018 -0.3006  1.0078 -0.2655
  982SOL    HW2 2946   0.675   0.613   2.972  1.2875  0.2725  2.1880
  983SOL     OW 2947   2.575   0.711   0.040 -0.0337 -0.1388  0.0189
  983SOL    HW1 2948   2.649   0.776   0.074 -0.4781  4.0894  1.1590
  983SOL    HW2 2949   2.608   0.619   0.015 -0.5610 -0.8188 -3.1493
  984SOL     OW 2950   0.838   0.330   2.587 -0.3007 -0.0584  0.0726
  984SOL    HW1 2951   0.910   0.342   2.664  1.3084  0.3767  2.0334
  984SOL    HW2 2952   0.865   0.390   2.512  0.3394 -2.5560  0.5231
  985SOL     OW 2953   1.641   1.977   2.154 -0.4729  0.5476 -0.7772
  985SOL    HW1 2954   1.607   1.919   2.082 -0.3289  1.6343  0.4610
  985SOL    HW2 2955   1.669   1.926   2.238  0.1377 -1.9278  1.9692
  986SOL     OW 2956   2.329   2.740   1.840 -0.4174  0.3972  0.1800
  986SOL    HW1 2957   2.308   2.742   1.738  0.0502  1.5444 -0.9327
  986SOL    HW2 2958   2.406   2.794   1.878  2.3127 -1.9989  1.1774
  987SOL     OW 2959   1.712   1.284   1.180 -0.4193  0.2507 -0.0334
  987SOL    HW1 2960   1.657   1.361   1.142  3.0647 -1.2119 -1.0837
  987SOL    HW2 2961   1.661   1.198   1.156  0.7660 -0.8771  0.1976
  988SOL     OW 2962   2.598   1.911   2.065 -0.1661 -0.2594  0.1410
  988SOL    HW1 2963   2.676   1.928   2.131 -1.7508  0.2715 -0.5023
  988SOL    HW2 2964   2.507   1.905   2.112 -2.9214  3.1525 -0.6638
  989SOL     OW 2965   1.206   2.384   0.327 -0.2030 -0.5048  0.0220
  989SOL    HW1 2966   1.113   2.414   0.295 -2.2387 -1.3684  0.8668
  989SOL    HW2 2967   1.197   2.371   0.425  1.3054  0.5522  0.2606
  990SOL     OW 2968   2.009   0.496   2.874 -0.2403  0.1690  0.7442
  990SOL    HW1 2969   2.077   0.559   2.919  2.6322  2.5659 -2.0682
  990SOL    HW2 2970   2.036   0.476   2.775 -0.6496 -0.8364 -1.5677
  991SOL     OW 2971   1.151   0.416   0.868 -0.4401  0.1138 -0.1578
  991SOL    HW1 2972   1.097   0.359   0.802 -0.2219 -1.2530  1.7285
  991SOL    HW2 2973   1.087   0.482   0.915 -1.0596 -0.4717 -2.6671
  992SOL     OW 2974   2.602   0.969   1.078  0.1760  0.2747 -0.2875
  992SOL    HW1 2975   2.589   0.966   1.182 -0.2600 -0.3288  2.2736
  992SOL    HW2 2976   2.603   0.871   1.050 -1.5188  1.3303  5.0237
  993SOL     OW 2977   2.316   0.622   1.839  0.6118 -0.2015  0.3831
  993SOL    HW1 2978   2.288   0.563   1.761  1.9759  0.4438  1.5380
  993SOL    HW2 2979   2.280   0.721   1.826 -0.7566  1.7392 -0.2893
  994SOL     OW 2980   1.044   1.598   2.527  0.3549 -0.3181  0.5381
  994SOL    HW1 2981   1.144   1.594   2.539  0.1432 -2.0678 -0.2481
  994SOL    HW2 2982   1.018   1.691   2.491  1.6000 -0.3761 -1.0497
  995SOL     OW 2983   2.142   1.306   2.923  0.3364  0.1128 -0.3159
  995SOL    HW1 2984   2.088   1.310   2.840 -0.0509  0.2569  2.5302
  995SOL    HW2 2985   2.105   1.380   2.988 -2.4225  2.1790  0.6185
  996SOL     OW 2986   2.090   1.919   0.566  0.0941  0.2180  0.3673
  996SOL    HW1 2987   1.990   1.912   0.584  0.9348 -1.9335  1.0406
  996SOL    HW2 2988   2.142   1.831   0.576  0.8087  2.9585  1.0090
  997SOL     OW 2989   2.244   0.532   2.082 -0.9256  0.1326  0.2502
  997SOL    HW1 2990   2.195   0.594   2.143 -1.0211 -0.5597 -1.0609
  997SOL    HW2 2991   2.271   0.584   1.999 -0.9436 -2.5186  1.4491
  998SOL     OW 2992   2.612   0.803   0.642  0.4454 -0.1235  0.2705
  998SOL    HW1 2993   2.652   0.712   0.662 -1.0882  1.4588  0.5208
  998SOL    HW2 2994   2.530   0.831   0.699 -0.4216  1.9233  1.5294
  999SOL     OW 2995   2.726   1.574   0.360 -0.5968  0.2480 -0.6659
  999SOL    HW1 2996   2.644   1.609   0.307 -0.8941  0.7540  0.3556
  999SOL    HW2 2997   2.807   1.636   0.353 -0.9107 -1.5750 -1.6704
 1000SOL     OW 2998   0.657   0.584   2.047  0.1102 -0.0236 -0.2091
 1000SOL    HW1 2999   0.711   0.509   2.086 -0.8802  1.2099  2.6382
 1000SOL    HW2 3000   0.603   0.623   2.122  0.1354 -0.4690 -2.5810
   3.12462   3.12462   3.12462
