1000 SPC/Fw water molecules t= 276.00000 step= 276000
 3000
    1SOL     OW    1   2.718   2.705   0.891  0.2273  0.4221  0.2577
    1SOL    HW1    2   2.795   2.656   0.938 -0.1359  0.1120  2.2868
    1SOL    HW2    3   2.684   2.778   0.955 -0.5552 -1.4261  0.7247
    2SOL     OW    4   2.035   1.949   0.987 -0.0809 -0.4640  0.2370
    2SOL    HW1    5   2.106   2.022   0.974 -0.0678  1.2322  0.4895
    2SOL    HW2    6   1.991   1.946   1.081 -0.2361  0.8506  0.9324
    3SOL     OW    7   1.019   2.635   3.073  0.1153  0.6674 -0.2501
    3SOL    HW1    8   1.024   2.715   3.005  0.0620  0.9637  0.6575
    3SOL    HW2    9   1.061   2.550   3.033 -0.0548 -0.2949  1.3549
    4SOL     OW   10   1.886   1.864   1.230 -0.4503  0.2451 -0.1950
    4SOL    HW1   11   1.940   1.796   1.286 -0.6923 -1.5269 -0.9335
    4SOL    HW2   12   1.918   1.958   1.254  0.5757 -1.8394 -0.3762
    5SOL     OW   13   1.369   1.034   1.461  0.0912 -0.1565  0.4010
    5SOL    HW1   14   1.462   1.055   1.490  1.0899 -1.0471 -2.4334
    5SOL    HW2   15   1.337   1.095   1.384 -0.0363 -0.0475  2.5920
    6SOL     OW   16   2.657   0.007   0.149 -0.3866 -0.3683 -0.1531
    6SOL    HW1   17   2.577   3.063   0.165  0.2668 -1.5026  0.7852
    6SOL    HW2   18   2.730   3.080   0.102 -1.1109  2.3495  2.3301
    7SOL     OW   19   2.746   1.257   1.266  0.4076  0.0271 -0.8349
    7SOL    HW1   20   2.651   1.287   1.305 -3.9888 -1.7258  1.2739
    7SOL    HW2   21   2.749   1.261   1.165 -3.6903 -0.2973 -0.0785
    8SOL     OW   22   1.102   2.763   1.047 -0.7633 -0.0679 -0.3962
    8SOL    HW1   23   1.083   2.835   0.977 -1.1039  0.7763 -2.3658
    8SOL    HW2   24   1.087   2.797   1.139  2.6665 -1.2693 -0.7245
    9SOL     OW   25   1.822   0.098   2.016  0.2945 -0.1143 -0.1892
    9SOL    HW1   26   1.732   0.070   2.050  1.1189 -0.4099  2.0683
    9SOL    HW2   27   1.845   0.199   2.020 -0.3442 -1.7632  3.3361
   10SOL     OW   28   0.835   2.371   0.814 -0.9891  0.7484 -0.1424
   10SOL    HW1   29   0.751   2.422   0.785 -1.0201  0.7734  0.6627
   10SOL    HW2   30   0.877   2.418   0.893  1.2606 -1.0831 -0.5373
   11SOL     OW   31   1.614   1.502   0.705 -0.1737 -0.0362 -0.5672
   11SOL    HW1   32   1.716   1.495   0.722  2.6166  4.0284 -0.2903
   11SOL    HW2   33   1.570   1.462   0.788 -1.7583  0.3355 -0.3620
   12SOL     OW   34   2.917   2.623   1.759 -0.4857  0.2559 -0.7209
   12SOL    HW1   35   2.887   2.581   1.671 -1.0380  1.6097  0.3898
   12SOL    HW2   36   2.981   2.563   1.814  2.3375 -1.1445  0.0125
   13SOL     OW   37   2.262   0.123   0.408 -0.3316 -0.8423  0.0912
   13SOL    HW1   38   2.167   0.140   0.432  1.2271 -0.6571 -3.1229
   13SOL    HW2   39   2.289   0.036   0.443 -2.1991  1.6766 -2.8859
   14SOL     OW   40   1.309   2.590   1.128 -0.4837  0.4190 -0.6233
   14SOL    HW1   41   1.396   2.572   1.076  0.7438 -3.2242 -1.4275
   14SOL    HW2   42   1.250   2.659   1.081  3.0083  2.3399  0.7153
   15SOL     OW   43   3.052   1.919   1.399  0.3385 -0.0869 -0.2971
   15SOL    HW1   44   3.085   2.011   1.423  0.4917 -2.3663  0.8665
   15SOL    HW2   45   0.001   1.855   1.354 -1.7141 -0.1226  0.4474
   16SOL     OW   46   2.024   2.312   0.504  0.0355 -0.4206 -0.8830
   16SOL    HW1   47   2.029   2.327   0.608 -0.3569  0.7586  2.6886
   16SOL    HW2   48   2.021   2.213   0.476 -0.5735 -2.0714 -1.0357
   17SOL     OW   49   0.869   3.052   1.629 -0.0484 -0.1372 -0.1072
   17SOL    HW1   50   0.838   3.099   1.714  2.6579 -0.5069  0.6240
   17SOL    HW2   51   0.859   3.108   1.543  0.2571  1.7533 -3.3430
   18SOL     OW   52   1.210   0.903   0.155  0.6427  0.0344  0.1661
   18SOL    HW1   53   1.201   0.978   0.083  1.6053 -0.0464 -0.3810
   18SOL    HW2   54   1.285   0.928   0.218 -0.1800  2.1956 -1.8893
   19SOL     OW   55   1.716   1.950   0.114 -0.3178 -0.3219 -0.3690
   19SOL    HW1   56   1.767   1.867   0.142 -0.9281 -0.3444  1.4242
   19SOL    HW2   57   1.754   2.009   0.038  1.8111 -0.8066  0.4923
   20SOL     OW   58   2.356   1.971   1.723 -0.1467 -0.3582  0.4960
   20SOL    HW1   59   2.275   1.983   1.784  1.2183 -1.1489  1.0052
   20SOL    HW2   60   2.405   1.886   1.744 -2.5391  0.6866 -2.0286
   21SOL     OW   61   0.712   1.403   0.603  0.5775  0.2812  0.3869
   21SOL    HW1   62   0.742   1.346   0.524 -0.0301 -1.8548 -2.8785
   21SOL    HW2   63   0.670   1.490   0.576 -0.8190  1.1427  0.9318
   22SOL     OW   64   2.270   2.966   1.382 -0.0909  0.4365 -0.1466
   22SOL    HW1   65   2.295   3.063   1.371  1.2198  1.3536  2.8928
   22SOL    HW2   66   2.329   2.923   1.457  3.2646 -2.6854  2.9729
   23SOL     OW   67   2.994   0.734   1.980  0.8091  0.7874  0.1103
   23SOL    HW1   68   2.956   0.758   1.888  0.8954  0.0827  0.6718
   23SOL    HW2   69   2.956   0.795   2.054  2.5050 -1.9086 -2.0557
   24SOL     OW   70   2.197   2.524   0.445  0.0432  0.6888 -0.8000
   24SOL    HW1   71   2.227   2.494   0.355  1.9615  2.4951  1.7920
   24SOL    HW2   72   2.150   2.445   0.493 -1.7086 -0.7319 -1.9595
   25SOL     OW   73   1.623   0.049   2.387  0.0044  0.7651 -0.0438
   25SOL    HW1   74   1.570   0.087   2.464  1.1294  1.0422 -0.5193
   25SOL    HW2   75   1.710   0.099   2.377 -1.4836 -1.6519  0.9511
   26SOL     OW   76   1.681   2.378   0.137 -0.2065  0.4830 -0.1847
   26SOL    HW1   77   1.739   2.315   0.082  0.8567  2.1864  2.0923
   26SOL    HW2   78   1.627   2.438   0.079  2.4649 -1.3262  2.4365
   27SOL     OW   79   2.705   2.012   3.114  0.1627 -0.1418  0.0794
   27SOL    HW1   80   2.736   2.000   3.015 -1.7395  0.5409 -1.4402
   27SOL    HW2   81   2.656   2.104   0.007 -1.1344  0.7119 -0.1676
   28SOL     OW   82   0.144   1.130   1.831 -0.4237  0.3602  0.5715
   28SOL    HW1   83   0.068   1.181   1.787  2.8592 -0.3565 -0.6509
   28SOL    HW2   84   0.117   1.044   1.884 -0.4874 -2.0434  1.6837
   29SOL     OW   85   2.298   2.355   1.495  0.1273 -0.3966  0.1651
   29SOL    HW1   86   2.225   2.428   1.506  0.2738  3.5201  2.1902
   29SOL    HW2   87   2.364   2.362   1.575  2.9601  0.4345 -0.6458
   30SOL     OW   88   1.528   0.389   0.664  0.1232 -0.0724  0.7938
   30SOL    HW1   89   1.534   0.378   0.561  0.1552  0.4064  1.9304
   30SOL    HW2   90   1.464   0.462   0.691 -0.7763 -1.8816 -2.1378
   31SOL     OW   91   2.434   2.431   1.954  1.2249 -0.4282 -0.1515
   31SOL    HW1   92   2.354   2.379   1.992 -1.7852 -0.1789 -2.2744
   31SOL    HW2   93   2.419   2.534   1.965  0.2828  0.4330  2.7615
   32SOL     OW   94   0.756   2.065   1.201  0.0767 -0.8219  0.5698
   32SOL    HW1   95   0.790   2.087   1.104 -1.9765 -3.1377 -0.7677
   32SOL    HW2   96   0.728   2.155   1.250  1.5752  0.0848 -1.1074
   33SOL     OW   97   0.605   3.049   2.566  0.3776  0.5634 -0.0574
   33SOL    HW1   98   0.585   3.055   2.467  0.2329 -0.1026  3.3693
   33SOL    HW2   99   0.512   3.033   2.612 -0.3567  0.3810 -2.3067
   34SOL     OW  100   1.383   2.857   0.487  0.0269  0.0095  0.8263
   34SOL    HW1  101   1.354   2.873   0.584  2.3918 -1.7227  1.7033
   34SOL    HW2  102   1.450   2.929   0.460 -0.6881  0.3377  2.7251
   35SOL     OW  103   2.182   2.846   1.166  0.3754  0.1601 -0.4912
   35SOL    HW1  104   2.267   2.854   1.111 -0.7425 -0.4793  2.6562
   35SOL    HW2  105   2.200   2.878   1.261  0.1533  0.7946  0.1791
   36SOL     OW  106   1.923   2.333   2.385 -0.0779 -0.0681 -0.2490
   36SOL    HW1  107   1.892   2.292   2.477 -2.2479  0.1675  1.3408
   36SOL    HW2  108   1.904   2.437   2.381  0.0279  1.1903 -3.7592
   37SOL     OW  109   1.025   0.154   2.182  0.2634  0.7964 -0.4854
   37SOL    HW1  110   1.023   0.130   2.084 -0.4974  1.7534 -0.2008
   37SOL    HW2  111   0.991   0.251   2.201  0.4917  0.4944 -2.7545
   38SOL     OW  112   0.252   2.697   2.724 -0.2825 -0.1472 -0.5037
   38SOL    HW1  113   0.191   2.762   2.780  1.6066 -1.1889  1.4185
   38SOL    HW2  114   0.272   2.734   2.630  0.1272 -3.8524 -1.3773
   39SOL     OW  115   2.390   0.952   1.859 -0.2135  0.5100 -0.1996
   39SOL    HW1  116   2.404   1.009   1.778  0.3494  1.9678  1.6370
   39SOL    HW2  117   2.307   0.972   1.908  1.4123 -1.1197 -0.0269
   40SOL     OW  118   1.042   3.041   0.116  0.2160 -0.1230  0.5857
   40SOL    HW1  119   0.953   3.080   0.145  0.3237  0.0770 -1.9604
   40SOL    HW2  120   1.076   3.084   0.030  0.0500 -2.4574 -0.1783
   41SOL     OW  121   2.110   1.170   1.191 -0.4076  0.3175  0.0736
   41SOL    HW1  122   2.211   1.150   1.168 -2.3456  2.0047 -0.6857
   41SOL    HW2  123   2.084   1.265   1.175 -3.6234  0.8504 -0.4593
   42SOL     OW  124   0.519   0.535   1.029 -0.4354  0.8951 -0.0998
   42SOL    HW1  125   0.552   0.630   1.024  2.4154  0.2982 -1.4634
   42SOL    HW2  126   0.494   0.513   1.125  3.5313 -0.8533  2.3140
   43SOL     OW  127   2.445   1.593   2.771  0.0706 -0.5698  0.1645
   43SOL    HW1  128   2.436   1.507   2.824  1.1204 -0.5613 -2.9323
   43SOL    HW2  129   2.352   1.614   2.741  0.0499 -1.2849  0.2196
   44SOL     OW  130   2.743   2.932   1.546  0.5009  0.7063  0.2315
   44SOL    HW1  131   2.799   2.916   1.633 -0.5055 -1.8638 -2.0755
   44SOL    HW2  132   2.685   3.017   1.543 -1.9851  0.9125  1.0577
   45SOL     OW  133   0.484   2.859   1.688 -0.1187  0.0493 -0.1986
   45SOL    HW1  134   0.402   2.829   1.631 -1.3147 -2.8666  1.3754
   45SOL    HW2  135   0.560   2.890   1.630 -2.0913  0.8377  2.4891
   46SOL     OW  136   2.062   0.122   2.414  0.4960  0.4316 -0.1112
   46SOL    HW1  137   2.154   0.126   2.370 -0.7550  0.2803  0.2076
   46SOL    HW2  138   2.037   0.027   2.448  1.3283 -0.0002 -1.1956
   47SOL     OW  139   1.806   1.864   0.640 -0.5994 -0.1923  0.0715
   47SOL    HW1  140   1.804   1.801   0.714  0.4767  0.4146 -2.4604
   47SOL    HW2  141   1.721   1.888   0.591  0.9300 -2.7080  2.6443
   48SOL     OW  142   0.807   2.020   0.507  0.1208 -0.5102  0.2310
   48SOL    HW1  143   0.777   2.085   0.438 -0.0717  1.3143  3.8014
   48SOL    HW2  144   0.845   1.931   0.479 -1.9338  1.1724  0.6259
   49SOL     OW  145   2.450   0.328   2.592 -0.6781 -0.4909  0.3943
   49SOL    HW1  146   2.422   0.372   2.680  1.6197  1.2340 -2.1662
   49SOL    HW2  147   2.423   0.229   2.589 -2.3810  0.8086 -2.0605
   50SOL     OW  148   2.010   0.560   0.139  0.1525  0.4242  0.4841
   50SOL    HW1  149   2.046   0.627   0.209  1.1454  0.5871 -1.1800
   50SOL    HW2  150   1.910   0.547   0.149  1.8925  0.9055  1.7389
   51SOL     OW  151   1.959   0.744   1.049 -0.5600 -0.0691 -0.5987
   51SOL    HW1  152   1.912   0.810   0.984 -1.2647  1.5130 -1.5490
   51SOL    HW2  153   1.987   0.658   1.001  0.8254 -0.4720 -0.2993
   52SOL     OW  154   1.205   1.454   1.658  0.1287 -0.3450 -0.3174
   52SOL    HW1  155   1.275   1.395   1.699  0.0709  0.6198 -1.5481
   52SOL    HW2  156   1.145   1.403   1.592 -2.3782 -0.2649  1.2292
   53SOL     OW  157   0.893   1.699   2.146 -0.3055 -0.0101 -0.1533
   53SOL    HW1  158   0.927   1.628   2.074 -1.6214 -2.0828 -0.5556
   53SOL    HW2  159   0.917   1.795   2.125 -3.2821  0.3033  0.2636
   54SOL     OW  160   2.371   0.092   1.435  0.6897  0.5082  0.1473
   54SOL    HW1  161   2.326   0.140   1.512 -1.4361  0.6995  1.4697
   54SOL    HW2  162   2.390   0.156   1.359 -2.4249 -1.0347 -0.3706
   55SOL     OW  163   2.433   2.064   0.881 -0.2129 -0.3539 -0.1721
   55SOL    HW1  164   2.460   2.123   0.804  2.1465 -0.5207  1.3859
   55SOL    HW2  165   2.416   1.967   0.850 -1.5996 -1.5225  1.5353
   56SOL     OW  166   1.063   0.050   1.938  0.0560 -0.0410  0.1053
   56SOL    HW1  167   1.081   3.075   1.976  0.0151 -0.7596  0.6048
   56SOL    HW2  168   1.145   0.074   1.881 -4.3635 -1.4671 -0.1201
   57SOL     OW  169   1.282   1.487   0.248  0.6900  0.3726  0.1198
   57SOL    HW1  170   1.313   1.519   0.341 -1.1735  0.1579 -2.3819
   57SOL    HW2  171   1.283   1.381   0.253 -0.7542 -1.9733  0.8285
   58SOL     OW  172   0.413   0.877   2.044 -0.2580  0.2647  0.2130
   58SOL    HW1  173   0.316   0.903   2.035 -1.7720 -0.8260  1.1802
   58SOL    HW2  174   0.471   0.951   2.090 -2.2869  0.7292  0.4860
   59SOL     OW  175   1.288   3.062   2.718  0.2894 -0.2836 -0.0753
   59SOL    HW1  176   1.277   0.041   2.733 -0.3036 -2.2169 -0.6555
   59SOL    HW2  177   1.385   3.037   2.750  2.1563 -3.0496 -0.5035
   60SOL     OW  178   2.923   2.071   0.207 -0.4100 -0.3933 -0.6449
   60SOL    HW1  179   2.830   2.042   0.219 -0.3191  0.3362 -2.1457
   60SOL    HW2  180   2.931   2.169   0.232 -2.6562 -3.5160 -0.1854
   61SOL     OW  181   1.006   2.225   0.316 -0.2269  0.0185  0.0163
   61SOL    HW1  182   1.018   2.209   0.417  1.4535 -2.4776 -4.0387
   61SOL    HW2  183   1.021   2.327   0.295  0.9177 -1.0539 -0.2736
   62SOL     OW  184   2.142   2.090   2.685 -0.4834  0.5799  0.1743
   62SOL    HW1  185   2.137   1.987   2.665 -3.2306 -2.3920  0.4301
   62SOL    HW2  186   2.051   2.132   2.673  0.6291  1.5807  1.3043
   63SOL     OW  187   2.306   1.985   0.556 -0.5455  0.0084  0.0777
   63SOL    HW1  188   2.216   2.032   0.541  1.7044  1.5211 -1.1539
   63SOL    HW2  189   2.344   1.955   0.464  0.2217 -1.0733  0.0133
   64SOL     OW  190   1.895   1.232   2.778  0.3723 -0.2331 -0.0883
   64SOL    HW1  191   1.837   1.239   2.865 -0.8520  0.7742  0.6027
   64SOL    HW2  192   1.950   1.149   2.779 -0.5058  1.7889  0.6456
   65SOL     OW  193   1.368   2.021   2.877 -0.2321 -0.3598 -0.4146
   65SOL    HW1  194   1.408   2.020   2.968  1.9877 -1.7628  0.2737
   65SOL    HW2  195   1.284   1.971   2.873  2.8422 -0.2013 -1.4417
   66SOL     OW  196   0.266   1.502   2.437 -0.2781  0.1792 -0.7396
   66SOL    HW1  197   0.189   1.567   2.450 -1.4562  2.5953 -1.9840
   66SOL    HW2  198   0.281   1.477   2.339  0.8909 -0.6708  0.8185
   67SOL     OW  199   2.888   2.814   2.889 -0.7992  0.4026 -0.1243
   67SOL    HW1  200   2.788   2.809   2.882 -0.2311  1.4360  0.9483
   67SOL    HW2  201   2.938   2.821   2.800  0.5516  2.2031  0.7723
   68SOL     OW  202   0.710   2.551   1.509  0.0873  0.5765 -0.0719
   68SOL    HW1  203   0.618   2.579   1.481  0.2838 -0.7579  2.1208
   68SOL    HW2  204   0.782   2.554   1.436  0.7372  0.2861 -0.1680
   69SOL     OW  205   0.809   2.710   0.597  0.1658  0.0945  0.0267
   69SOL    HW1  206   0.747   2.641   0.642 -2.1823 -1.8553  2.0468
   69SOL    HW2  207   0.909   2.681   0.591  0.0198 -0.1280  1.9992
   70SOL     OW  208   2.521   0.696   2.680  0.2849  0.4051 -0.2765
   70SOL    HW1  209   2.569   0.731   2.595 -0.5211  0.7618  1.8231
   70SOL    HW2  210   2.573   0.620   2.721  2.5176 -0.8120  0.2977
   71SOL     OW  211   0.783   1.077   2.589  0.0191 -0.3037  0.1322
   71SOL    HW1  212   0.844   1.153   2.626  2.7068  0.0327 -1.0258
   71SOL    HW2  213   0.747   1.024   2.663  1.0621  1.0325 -1.1817
   72SOL     OW  214   3.116   1.892   0.282 -0.5306  0.1007  0.0171
   72SOL    HW1  215   0.090   1.909   0.251 -0.4752 -0.9922  1.1526
   72SOL    HW2  216   3.040   1.958   0.253 -1.0713  0.4513  2.5973
   73SOL     OW  217   0.912   1.410   0.814  0.4890 -0.4318  0.2540
   73SOL    HW1  218   0.955   1.499   0.783  0.4031  2.1435 -1.4531
   73SOL    HW2  219   0.847   1.388   0.738  1.3557  1.2638 -2.7258
   74SOL     OW  220   2.377   2.642   0.143  0.1099 -0.0084 -0.0458
   74SOL    HW1  221   2.458   2.675   0.196 -0.7127  0.4840  0.8915
   74SOL    HW2  222   2.294   2.706   0.147 -2.4265  2.3903  0.5313
   75SOL     OW  223   2.019   1.687   1.517 -0.4573  0.4300  0.6412
   75SOL    HW1  224   1.945   1.623   1.501  0.4417  1.0736 -0.5898
   75SOL    HW2  225   2.103   1.647   1.483 -0.8244  1.4359  0.8059
   76SOL     OW  226   1.908   2.576   1.765 -0.3228  0.0377  0.6046
   76SOL    HW1  227   1.845   2.535   1.694 -0.1094 -0.6006  1.7337
   76SOL    HW2  228   1.862   2.585   1.858 -0.0412  0.4927  0.3341
   77SOL     OW  229   2.272   0.199   2.031 -0.5502 -0.1880  0.4563
   77SOL    HW1  230   2.222   0.260   2.098 -0.1304  0.8900 -1.4627
   77SOL    HW2  231   2.348   0.155   2.077 -1.8774 -0.1787 -1.0086
   78SOL     OW  232   1.596   1.020   3.026  0.2788 -0.3037 -0.2229
   78SOL    HW1  233   1.634   0.942   3.076 -1.4143  2.0755 -2.3048
   78SOL    HW2  234   1.574   0.996   2.930  3.5086 -0.8693  1.4735
   79SOL     OW  235   2.674   1.746   1.943 -0.0244  0.2314  0.4629
   79SOL    HW1  236   2.741   1.777   1.871  2.1887  3.0758 -0.8966
   79SOL    HW2  237   2.719   1.756   2.036  0.1179 -2.5054  0.4854
   80SOL     OW  238   2.141   1.379   1.545 -0.2280 -0.2637  0.0018
   80SOL    HW1  239   2.180   1.289   1.506  1.0887 -1.7386 -0.5639
   80SOL    HW2  240   2.203   1.461   1.530  0.8563 -1.5239 -2.1797
   81SOL     OW  241   1.631   0.629   1.769  0.6562  0.1167 -0.0020
   81SOL    HW1  242   1.571   0.570   1.827  1.2251  0.5902 -0.9778
   81SOL    HW2  243   1.597   0.723   1.764  2.3458 -2.3564  0.0119
   82SOL     OW  244   1.242   2.518   1.379 -0.1059  0.4713 -0.6756
   82SOL    HW1  245   1.248   2.549   1.281 -1.0703  0.9390 -0.3802
   82SOL    HW2  246   1.198   2.588   1.434 -0.5823  3.0451  1.5217
   83SOL     OW  247   0.061   0.275   0.489  0.5011 -0.0276 -0.1122
   83SOL    HW1  248   0.012   0.185   0.486  0.9873  0.0636 -1.4538
   83SOL    HW2  249   0.001   0.359   0.479 -0.6298  2.4420  1.0210
   84SOL     OW  250   0.434   1.207   2.986  0.1658 -0.4732  0.0048
   84SOL    HW1  251   0.361   1.245   2.927 -0.2816 -0.9736 -0.9996
   84SOL    HW2  252   0.454   1.269   3.065 -0.3379  1.1437 -1.1241
   85SOL     OW  253   2.785   1.935   1.754  0.5639  0.0320 -0.2887
   85SOL    HW1  254   2.787   1.903   1.656 -1.2381 -1.8646 -2.1356
   85SOL    HW2  255   2.699   1.987   1.774 -1.4250 -0.8540 -2.2889
   86SOL     OW  256   2.804   2.286   1.630 -0.6979 -0.1129  0.5082
   86SOL    HW1  257   2.726   2.236   1.597  1.2296 -0.3231 -2.4680
   86SOL    HW2  258   2.825   2.250   1.726  1.3304 -1.1051  2.4614
   87SOL     OW  259   0.907   0.258   2.740  0.1192 -0.1773 -0.0764
   87SOL    HW1  260   0.828   0.232   2.678 -2.3509  0.3876  2.6398
   87SOL    HW2  261   0.871   0.252   2.836  0.4592  2.0672  4.0493
   88SOL     OW  262   0.217   2.315   1.193  0.0260 -0.0460 -0.5558
   88SOL    HW1  263   0.318   2.321   1.180  0.1633  0.4393  2.5310
   88SOL    HW2  264   0.205   2.236   1.261 -1.0182 -1.9351  2.0590
   89SOL     OW  265   0.983   0.889   1.713  0.8559 -0.1945 -0.2955
   89SOL    HW1  266   0.954   0.839   1.627  0.8289 -0.1419 -2.0710
   89SOL    HW2  267   0.991   0.827   1.791 -0.0882 -1.6128 -1.5845
   90SOL     OW  268   2.776   1.619   1.599 -0.5386 -0.2955  0.3698
   90SOL    HW1  269   2.782   1.699   1.540 -0.1095  0.9460  3.0138
   90SOL    HW2  270   2.851   1.606   1.667 -2.1137  0.8124 -1.3377
   91SOL     OW  271   1.319   1.316   0.683 -0.2484  0.0096  0.0295
   91SOL    HW1  272   1.273   1.278   0.765  1.8655  0.6680  0.2780
   91SOL    HW2  273   1.257   1.296   0.605  0.0635  0.0437 -1.0027
   92SOL     OW  274   2.393   0.722   0.933 -0.0013 -0.0800 -0.1853
   92SOL    HW1  275   2.338   0.750   1.018 -1.1570  0.1975  1.5088
   92SOL    HW2  276   2.348   0.649   0.877  1.1155 -1.7055  1.0913
   93SOL     OW  277   1.984   0.835   2.960 -0.0859  0.2000  0.6743
   93SOL    HW1  278   1.909   0.826   3.030  0.0661 -0.0250 -3.1478
   93SOL    HW2  279   1.963   0.782   2.873 -1.0530 -1.0716 -2.1197
   94SOL     OW  280   2.567   1.785   2.343 -0.2437 -0.5473  0.2205
   94SOL    HW1  281   2.517   1.703   2.318  3.5976  0.9963  1.9191
   94SOL    HW2  282   2.506   1.848   2.395  0.1625 -0.0607  1.2924
   95SOL     OW  283   2.212   0.490   1.073 -1.0626  0.4842  0.9467
   95SOL    HW1  284   2.242   0.576   1.122 -2.1282  2.1680  0.5727
   95SOL    HW2  285   2.190   0.512   0.974 -0.1614  1.0046 -0.7742
   96SOL     OW  286   2.529   0.131   2.157 -0.7252 -0.1434 -0.2527
   96SOL    HW1  287   2.586   0.061   2.105  0.0068  1.3666 -0.9549
   96SOL    HW2  288   2.546   0.224   2.117  0.7981 -1.0101 -0.8788
   97SOL     OW  289   2.275   0.204   1.154 -0.2221  0.4727  0.4239
   97SOL    HW1  290   2.240   0.297   1.123  0.4692  0.5129 -0.8485
   97SOL    HW2  291   2.227   0.174   1.238 -1.8148 -3.1494  0.0288
   98SOL     OW  292   1.477   2.511   1.641  0.4049  0.1837  0.0650
   98SOL    HW1  293   1.405   2.472   1.579  1.7070  2.1287 -0.6620
   98SOL    HW2  294   1.569   2.496   1.607  0.0746 -0.6943 -1.3167
   99SOL     OW  295   2.346   2.085   1.473 -0.0269 -0.2006 -0.0644
   99SOL    HW1  296   2.309   2.177   1.494  1.7635 -1.1207 -1.2134
   99SOL    HW2  297   2.369   2.034   1.560  0.1211  0.8460  1.0069
  100SOL     OW  298   0.499   0.784   2.852  0.2360  0.1271 -0.3830
  100SOL    HW1  299   0.537   0.747   2.939 -1.7592  2.0127  0.4784
  100SOL    HW2  300   0.438   0.861   2.865  1.5065 -3.5372 -0.1382
  101SOL     OW  301   2.006   0.341   2.904 -0.5908  0.4368  0.5198
  101SOL    HW1  302   2.037   0.268   2.967  2.2313 -1.1435 -1.5563
  101SOL    HW2  303   2.052   0.430   2.926  1.2065  0.3348 -2.5556
  102SOL     OW  304   0.135   0.705   1.642  0.0065 -0.4155  0.0795
  102SOL    HW1  305   0.114   0.622   1.698  0.8471  0.0981  1.2533
  102SOL    HW2  306   0.196   0.677   1.563  2.9397 -2.8145  1.1218
  103SOL     OW  307   2.817   0.937   2.690  0.4333 -0.4754 -0.1916
  103SOL    HW1  308   2.851   1.003   2.620  1.0734  0.9001 -0.4419
  103SOL    HW2  309   2.845   0.836   2.678  3.2274  0.7007  1.4174
  104SOL     OW  310   0.618   0.500   2.494 -0.0348  0.0828  0.3927
  104SOL    HW1  311   0.691   0.564   2.468 -0.0366 -1.8780  2.2383
  104SOL    HW2  312   0.566   0.480   2.409  1.3773  2.4149 -1.8062
  105SOL     OW  313   2.440   1.740   1.802  0.2382 -0.1209 -0.8114
  105SOL    HW1  314   2.407   1.643   1.812  1.3132 -0.7579  0.0341
  105SOL    HW2  315   2.527   1.762   1.845 -1.1338 -0.7521  0.2090
  106SOL     OW  316   1.838   0.566   0.549  0.1679 -0.0841 -0.2753
  106SOL    HW1  317   1.783   0.643   0.522  0.4948 -1.0596  2.7338
  106SOL    HW2  318   1.784   0.487   0.525 -0.1979  1.6519  2.3468
  107SOL     OW  319   0.279   1.497   0.780  0.3740 -0.0299 -0.0365
  107SOL    HW1  320   0.255   1.458   0.874 -1.2176 -2.2540  1.0605
  107SOL    HW2  321   0.271   1.598   0.779 -3.1928 -1.9540 -1.7735
  108SOL     OW  322   2.816   2.530   1.500  0.1233  0.1795  0.7373
  108SOL    HW1  323   2.804   2.435   1.542  0.8253  1.4774  0.5348
  108SOL    HW2  324   2.776   2.535   1.405  0.7067  0.7632 -0.3771
  109SOL     OW  325   2.066   0.168   0.802  0.1489 -0.2336 -0.2308
  109SOL    HW1  326   2.158   0.218   0.809  4.7088  0.0513 -0.4763
  109SOL    HW2  327   1.987   0.222   0.840 -0.7745  0.5446  1.6173
  110SOL     OW  328   0.419   2.115   2.598 -0.0230 -0.3065 -0.0376
  110SOL    HW1  329   0.394   2.111   2.500  0.5780 -1.4902  4.1820
  110SOL    HW2  330   0.422   2.027   2.646 -0.5931  2.7315 -0.7588
  111SOL     OW  331   1.443   2.772   1.734  0.8976  0.3320  0.6926
  111SOL    HW1  332   1.460   2.672   1.718  1.3125  1.7562  0.7813
  111SOL    HW2  333   1.428   2.819   1.649  0.7018 -0.1252 -1.6380
  112SOL     OW  334   1.966   2.685   3.090 -0.3815 -0.2016  0.4024
  112SOL    HW1  335   1.911   2.760   3.063  4.7100 -1.1897  0.1154
  112SOL    HW2  336   1.972   2.680   0.073 -1.3253  0.0495 -0.5438
  113SOL     OW  337   1.731   2.463   1.579 -0.2634 -0.8838 -0.1700
  113SOL    HW1  338   1.792   2.382   1.582  0.6763  1.5046 -0.8219
  113SOL    HW2  339   1.712   2.481   1.480  0.6926 -0.2073  2.0809
  114SOL     OW  340   2.922   0.892   0.916  0.1183  0.1635 -0.3403
  114SOL    HW1  341   2.848   0.857   0.981 -0.2362 -1.2286 -0.7213
  114SOL    HW2  342   2.922   0.833   0.829 -1.7231 -0.5276 -2.1657
  115SOL     OW  343   0.701   0.914   0.023 -0.1407 -0.2015 -0.4370
  115SOL    HW1  344   0.631   0.951   0.089  0.1862  1.3266  0.1031
  115SOL    HW2  345   0.693   0.817   3.113  3.5422  0.1170 -0.8813
  116SOL     OW  346   2.789   1.758   2.174  0.6582 -0.4556  0.0925
  116SOL    HW1  347   2.832   1.678   2.217 -0.5162  2.2468 -0.5315
  116SOL    HW2  348   2.702   1.788   2.223 -0.3170 -0.7135  0.9279
  117SOL     OW  349   2.922   2.511   0.511  0.3452  0.0498  0.3132
  117SOL    HW1  350   2.966   2.459   0.589  2.9548  1.5655 -0.4895
  117SOL    HW2  351   2.824   2.521   0.533  0.3759  0.8639  1.1690
  118SOL     OW  352   0.979   1.959   2.127 -0.0408  0.4385 -0.1386
  118SOL    HW1  353   0.955   2.022   2.199  0.7012 -1.0481 -1.5323
  118SOL    HW2  354   0.963   2.006   2.039 -0.5198  1.1094  0.1362
  119SOL     OW  355   0.170   2.102   3.111  0.1533 -0.3710  0.0752
  119SOL    HW1  356   0.083   2.046   0.005 -2.6215  0.2687  0.9127
  119SOL    HW2  357   0.206   2.099   3.018 -0.0510 -0.1613  2.1878
  120SOL     OW  358   1.181   0.755   3.002 -0.1676  0.0744 -0.4560
  120SOL    HW1  359   1.173   0.854   3.022 -0.6766 -0.5207  1.5807
  120SOL    HW2  360   1.268   0.730   2.957 -0.5453 -0.6970  0.7922
  121SOL     OW  361   1.510   2.922   0.862  0.3752  0.2455 -0.3396
  121SOL    HW1  362   1.438   2.919   0.791  1.5681  0.6032  1.1374
  121SOL    HW2  363   1.485   2.971   0.948  1.6818 -0.3799 -0.6618
  122SOL     OW  364   2.501   2.377   1.703 -0.2951 -0.5100  0.9043
  122SOL    HW1  365   2.454   2.384   1.793 -0.8624  0.8807  0.1994
  122SOL    HW2  366   2.563   2.450   1.689 -3.0738 -0.6969 -1.0924
  123SOL     OW  367   0.264   2.566   0.718 -0.4584 -0.1563 -0.1564
  123SOL    HW1  368   0.273   2.601   0.625  1.4258  1.0461  0.6777
  123SOL    HW2  369   0.259   2.464   0.724 -1.6463  2.1834  0.6433
  124SOL     OW  370   2.353   1.024   2.762  0.3403  0.6170  0.3553
  124SOL    HW1  371   2.414   1.097   2.726 -1.0950  0.6413 -1.1682
  124SOL    HW2  372   2.397   0.974   2.838  1.2879  1.7002 -0.2521
  125SOL     OW  373   0.568   0.879   0.437 -0.8288  0.1961  0.1238
  125SOL    HW1  374   0.528   0.833   0.516 -0.2141 -0.7440 -1.3861
  125SOL    HW2  375   0.654   0.932   0.453  1.7595  0.3490 -2.2284
  126SOL     OW  376   0.123   1.249   0.358  0.0481 -0.4830 -0.1230
  126SOL    HW1  377   0.126   1.352   0.378  2.7982  1.6413 -1.5691
  126SOL    HW2  378   0.171   1.200   0.437  0.3879 -0.1870  0.9489
  127SOL     OW  379   0.468   1.913   2.167 -0.3662 -1.0009  0.6721
  127SOL    HW1  380   0.551   1.874   2.207  0.9052 -4.0516 -1.3068
  127SOL    HW2  381   0.383   1.897   2.218 -1.0851  0.8982 -0.3083
  128SOL     OW  382   0.940   1.097   0.087 -0.3209 -0.2278  0.1705
  128SOL    HW1  383   1.000   1.080   0.003 -0.1489 -0.2000  0.9554
  128SOL    HW2  384   0.870   1.026   0.089 -1.0001  1.9129  1.4172
  129SOL     OW  385   2.660   1.233   0.815  0.4799  0.1596  0.1302
  129SOL    HW1  386   2.563   1.226   0.849 -0.2782 -3.6356  0.4626
  129SOL    HW2  387   2.719   1.225   0.898 -1.6172 -1.2447  1.8410
  130SOL     OW  388   2.427   0.981   1.545  0.6765 -0.1427 -0.1017
  130SOL    HW1  389   2.514   1.026   1.558 -2.5240  0.0592 -1.6977
  130SOL    HW2  390   2.357   1.045   1.496 -3.3768 -0.4958 -1.5558
  131SOL     OW  391   2.811   0.000   2.794 -0.6749  0.2594 -0.0909
  131SOL    HW1  392   2.738   3.104   2.862  0.6521  1.4459 -1.5629
  131SOL    HW2  393   2.898   3.079   2.828  0.3185 -1.7764 -1.6037
  132SOL     OW  394   0.095   1.687   1.113  0.1690 -0.0376  0.0835
  132SOL    HW1  395   0.132   1.604   1.066  1.4612 -1.7509  1.1536
  132SOL    HW2  396   0.034   1.741   1.050  1.3018  2.2035  0.5753
  133SOL     OW  397   0.865   0.526   1.241  0.4803  0.2054  0.0228
  133SOL    HW1  398   0.945   0.518   1.301 -0.3470 -0.5745  1.7952
  133SOL    HW2  399   0.782   0.488   1.288 -0.7264 -0.0571  2.1762
  134SOL     OW  400   0.073   1.542   0.129  0.3735 -0.3936  0.2536
  134SOL    HW1  401   0.038   1.453   0.090  0.2987  1.9276 -2.2929
  134SOL    HW2  402   0.043   1.619   0.069 -0.9821  0.5151 -1.1604
  135SOL     OW  403   1.855   0.872   1.471 -0.2567  0.6812  0.3186
  135SOL    HW1  404   1.818   0.776   1.463 -0.7025 -1.0729 -0.2607
  135SOL    HW2  405   1.903   0.898   1.383 -4.4509  0.0207 -1.1782
  136SOL     OW  406   0.251   1.113   0.175 -0.6884  0.3503  0.6018
  136SOL    HW1  407   0.221   1.193   0.232 -1.7361 -2.6908 -1.9997
  136SOL    HW2  408   0.178   1.052   0.137  2.0022 -4.1542 -1.0045
  137SOL     OW  409   2.853   1.198   1.007  0.1003 -0.3502 -0.1575
  137SOL    HW1  410   2.897   1.109   1.018  0.9686  0.4322 -0.1454
  137SOL    HW2  411   2.926   1.264   0.984  1.2198  2.2679 -0.7626
  138SOL     OW  412   1.464   0.797   1.220 -0.1896 -0.0031  0.7281
  138SOL    HW1  413   1.456   0.806   1.322  0.5471 -1.9353  3.3978
  138SOL    HW2  414   1.544   0.854   1.193  0.3967  1.3809  2.5337
  139SOL     OW  415   1.863   2.944   3.053  0.2718  0.2688 -0.1327
  139SOL    HW1  416   1.847   2.975   0.030  0.9114 -0.2252  2.7408
  139SOL    HW2  417   1.781   2.955   2.998  0.3463  1.2246  1.9550
  140SOL     OW  418   1.255   1.649   1.488 -0.4794  0.5618 -0.3490
  140SOL    HW1  419   1.308   1.726   1.533 -0.2055  0.7894 -1.6127
  140SOL    HW2  420   1.229   1.576   1.556  0.7239 -2.2289  2.5268
  141SOL     OW  421   1.623   1.954   0.473 -0.3645  0.2771 -0.0198
  141SOL    HW1  422   1.658   2.013   0.400  0.0250  0.8371 -1.2321
  141SOL    HW2  423   1.525   1.944   0.487  0.7296 -0.6791  1.0175
  142SOL     OW  424   0.973   0.608   3.109  0.0683 -0.5602  0.2269
  142SOL    HW1  425   0.961   0.662   0.075  3.4170  1.0916  1.2328
  142SOL    HW2  426   1.063   0.629   3.069  0.1943 -0.0309  2.0857
  143SOL     OW  427   0.287   2.185   0.221  0.1245 -0.0916 -0.1427
  143SOL    HW1  428   0.255   2.150   0.130 -1.4941 -2.1307 -1.8243
  143SOL    HW2  429   0.217   2.250   0.257  2.9538 -0.2987  1.1384
  144SOL     OW  430   1.477   3.020   1.114  0.1393  0.2737 -0.5277
  144SOL    HW1  431   1.400   3.088   1.133 -1.1710 -0.3228 -1.4637
  144SOL    HW2  432   1.506   2.969   1.198 -1.0804  0.4250 -0.2826
  145SOL     OW  433   2.078   1.147   0.277  0.1156  0.4522 -0.1443
  145SOL    HW1  434   2.145   1.081   0.244  0.7924 -2.1380  0.5231
  145SOL    HW2  435   2.004   1.144   0.207 -2.2609 -1.4261  2.1396
  146SOL     OW  436   2.992   2.061   0.498  0.3172  0.4256  0.1073
  146SOL    HW1  437   2.985   1.974   0.549  1.5381 -0.5127 -0.4550
  146SOL    HW2  438   2.916   2.078   0.435  4.1996  0.9699 -0.2159
  147SOL     OW  439   2.518   2.890   1.764  0.3698 -0.2254  0.2687
  147SOL    HW1  440   2.507   2.866   1.666  3.4882 -0.2755 -3.5128
  147SOL    HW2  441   2.619   2.885   1.781  3.0697 -1.3394 -0.7971
  148SOL     OW  442   1.484   0.013   1.842 -0.3684  0.1125  0.2610
  148SOL    HW1  443   1.558   3.078   1.791 -1.5064  0.3887  1.9741
  148SOL    HW2  444   1.474   3.105   1.937  0.7887  1.2269 -0.3744
  149SOL     OW  445   1.799   0.783   2.152  0.0036 -0.5612  0.6921
  149SOL    HW1  446   1.873   0.761   2.221 -0.1926  1.8334  0.9281
  149SOL    HW2  447   1.840   0.803   2.063 -0.7977 -2.8532  3.3528
  150SOL     OW  448   0.285   0.034   0.192  0.0425 -0.6767  0.3734
  150SOL    HW1  449   0.379   0.059   0.223  1.1133 -0.6269 -1.5525
  150SOL    HW2  450   0.219   0.096   0.239 -0.9745 -2.3125  0.3463
  151SOL     OW  451   0.146   2.109   0.478  0.6398  0.5948 -0.4439
  151SOL    HW1  452   0.045   2.109   0.491  1.4123  1.3938 -1.4699
  151SOL    HW2  453   0.170   2.178   0.414 -1.1027  0.3349  0.8433
  152SOL     OW  454   2.944   3.095   0.659 -0.1685  0.4551  0.6170
  152SOL    HW1  455   3.011   3.102   0.738  2.1212 -0.1750  1.0866
  152SOL    HW2  456   2.888   3.012   0.668  1.2380 -0.7002  0.9135
  153SOL     OW  457   2.419   0.005   0.893 -0.3300  0.3778 -0.2280
  153SOL    HW1  458   2.344   3.080   0.834  0.1036 -0.8671 -0.2129
  153SOL    HW2  459   2.496   0.028   0.831 -1.8871  0.7643  0.2778
  154SOL     OW  460   0.984   0.513   1.744 -0.0060 -0.0040  0.1272
  154SOL    HW1  461   1.067   0.458   1.771  4.4143  2.7063 -0.4711
  154SOL    HW2  462   0.958   0.583   1.811  0.8507 -1.2217 -1.8041
  155SOL     OW  463   0.015   1.196   1.210 -0.2661  0.1806  0.2850
  155SOL    HW1  464   0.022   1.247   1.120  1.5454  0.9288 -2.5163
  155SOL    HW2  465   3.102   1.259   1.287 -0.0171  2.0112  2.0281
  156SOL     OW  466   3.032   1.996   3.095 -0.0866 -0.2070  0.7889
  156SOL    HW1  467   2.969   2.008   0.053  2.3821 -1.0846  0.6478
  156SOL    HW2  468   2.994   2.051   3.017  2.1498  0.7002 -1.0354
  157SOL     OW  469   0.958   0.770   0.213 -0.0877 -0.4885  0.0560
  157SOL    HW1  470   0.995   0.693   0.267  3.1519  1.6988 -0.9409
  157SOL    HW2  471   1.028   0.848   0.211 -0.5753 -0.5662  0.8248
  158SOL     OW  472   2.464   2.968   2.727 -0.7019  0.7749  0.2605
  158SOL    HW1  473   2.431   2.964   2.820 -1.7386 -0.1721  2.3099
  158SOL    HW2  474   2.390   3.021   2.677 -0.7873 -2.6421  1.0681
  159SOL     OW  475   0.988   0.291   0.450 -0.2956  0.2592  0.8185
  159SOL    HW1  476   1.059   0.218   0.457  0.6068 -0.7012  0.1028
  159SOL    HW2  477   1.019   0.366   0.392  0.6381  0.8653  1.2170
  160SOL     OW  478   1.150   1.883   2.829  0.1865 -0.4068  0.0362
  160SOL    HW1  479   1.155   1.780   2.813 -0.7381 -1.4677 -2.3759
  160SOL    HW2  480   1.065   1.908   2.883  1.7178 -0.4139  0.6590
  161SOL     OW  481   2.959   1.575   2.506  0.0284 -0.0420  0.5079
  161SOL    HW1  482   2.906   1.663   2.513 -0.5244  0.6485 -1.0787
  161SOL    HW2  483   2.957   1.517   2.587  2.5047  2.3258 -0.0173
  162SOL     OW  484   0.484   2.652   1.436  0.0604  0.4346 -0.0348
  162SOL    HW1  485   0.427   2.730   1.472 -1.1375 -2.4752  1.4722
  162SOL    HW2  486   0.480   2.661   1.334 -1.7465  2.1023 -1.9174
  163SOL     OW  487   2.449   0.533   2.389 -0.7881  0.0793 -0.3973
  163SOL    HW1  488   2.498   0.617   2.423  0.4508  2.1484  0.7827
  163SOL    HW2  489   2.460   0.458   2.454  0.1838  1.6479 -0.4642
  164SOL     OW  490   2.616   1.313   0.557  0.9231  0.4456  0.3223
  164SOL    HW1  491   2.520   1.343   0.539  0.9548 -0.1721  2.1318
  164SOL    HW2  492   2.631   1.290   0.656 -0.7890  0.4884 -0.3915
  165SOL     OW  493   0.098   0.366   1.411  0.0944 -0.5186  0.9540
  165SOL    HW1  494   0.140   0.293   1.351  1.9977  1.3513 -1.3787
  165SOL    HW2  495   0.159   0.452   1.412  0.1766  1.2626  0.5190
  166SOL     OW  496   1.836   0.942   0.893  0.3785 -0.3715  0.3959
  166SOL    HW1  497   1.791   1.032   0.902  1.4154 -0.9113  2.7104
  166SOL    HW2  498   1.918   0.944   0.831  1.8435  0.7183  0.0362
  167SOL     OW  499   0.387   0.655   0.297 -0.3801  0.3488  0.3277
  167SOL    HW1  500   0.307   0.624   0.240 -1.9125 -0.5302 -0.6143
  167SOL    HW2  501   0.456   0.706   0.242 -1.4354  2.6196 -0.0567
  168SOL     OW  502   1.870   2.948   1.994 -0.5925  0.4508  0.6448
  168SOL    HW1  503   1.869   3.052   2.011  0.2045  3.5958  3.5596
  168SOL    HW2  504   1.956   2.927   1.944  1.9940  2.2914  0.0606
  169SOL     OW  505   0.807   1.027   0.967  0.3146 -0.1282  0.0877
  169SOL    HW1  506   0.850   0.941   1.001 -0.5017 -1.2503  0.9728
  169SOL    HW2  507   0.740   1.066   1.037 -2.5819 -0.0674  2.2060
  170SOL     OW  508   2.952   0.334   1.379 -0.1903  0.1810  0.4427
  170SOL    HW1  509   3.053   0.334   1.395  1.5915 -0.5517 -2.7321
  170SOL    HW2  510   2.918   0.239   1.381 -0.6319  0.9209  1.4797
  171SOL     OW  511   1.337   2.747   2.538  0.3464  0.1916  0.6437
  171SOL    HW1  512   1.307   2.720   2.441 -2.8875 -1.6461 -1.8742
  171SOL    HW2  513   1.257   2.763   2.599 -1.0935  0.8569  0.5563
  172SOL     OW  514   0.185   2.756   1.267 -0.3860 -0.5674 -0.1512
  172SOL    HW1  515   0.259   2.775   1.205 -1.6716 -1.9762  1.8217
  172SOL    HW2  516   0.113   2.835   1.265 -0.5589 -0.2235 -0.8457
  173SOL     OW  517   1.409   0.637   2.902  0.0606 -0.5205 -0.1538
  173SOL    HW1  518   1.357   0.553   2.893  0.6345  2.7067 -2.4280
  173SOL    HW2  519   1.498   0.632   2.854 -2.0281  0.0562 -3.5982
  174SOL     OW  520   1.832   3.034   2.687 -0.0178 -0.1169 -0.4375
  174SOL    HW1  521   1.775   3.029   2.774 -2.6927  2.5961  2.4029
  174SOL    HW2  522   1.850   0.010   2.660 -0.0520  0.3513 -0.3465
  175SOL     OW  523   1.887   2.482   0.324 -0.0768  0.1890 -0.2974
  175SOL    HW1  524   1.825   2.427   0.264  2.2896 -2.1502  2.3442
  175SOL    HW2  525   1.951   2.418   0.373  2.6889  1.6568  1.8888
  176SOL     OW  526   2.092   0.132   3.076 -0.2343  0.5891  0.0577
  176SOL    HW1  527   2.170   0.143   0.025  4.3198  0.1302  0.3938
  176SOL    HW2  528   2.108   0.050   3.012 -2.6253 -1.6204 -1.0176
  177SOL     OW  529   0.979   1.682   0.714 -0.1587 -0.5463  0.1574
  177SOL    HW1  530   1.022   1.672   0.622 -1.7462  0.7671 -0.8623
  177SOL    HW2  531   0.886   1.723   0.698  0.1510  2.0542  0.3980
  178SOL     OW  532   2.635   2.388   2.905  0.9889  0.0998 -0.1847
  178SOL    HW1  533   2.602   2.362   2.811 -0.8498  3.6666 -1.0282
  178SOL    HW2  534   2.718   2.449   2.897  0.9693  1.1045 -0.1325
  179SOL     OW  535   0.551   2.934   2.892  0.5071  0.0097  0.2520
  179SOL    HW1  536   0.589   2.844   2.913 -1.8473  2.8389  3.8439
  179SOL    HW2  537   0.498   2.940   2.804 -0.4311  1.4504  1.6371
  180SOL     OW  538   1.511   1.378   0.938 -0.4129  0.2812 -0.4273
  180SOL    HW1  539   1.524   1.444   1.013 -0.6582  1.3797 -1.3210
  180SOL    HW2  540   1.418   1.337   0.932  2.9064 -0.9391 -0.8983
  181SOL     OW  541   2.248   1.040   2.301 -0.3271 -0.1759  0.1370
  181SOL    HW1  542   2.180   1.039   2.368  1.7193  0.7763 -0.8327
  181SOL    HW2  543   2.247   0.948   2.251  1.9411 -4.3179  0.4380
  182SOL     OW  544   0.110   2.742   2.235  0.1867  0.1510  0.3329
  182SOL    HW1  545   0.046   2.820   2.225  1.4728 -2.1609  0.2813
  182SOL    HW2  546   0.195   2.755   2.178 -1.4718  2.4017 -2.1708
  183SOL     OW  547   1.343   0.904   2.205  0.1512 -0.0454 -0.2447
  183SOL    HW1  548   1.440   0.908   2.172 -1.1611  0.8259  0.1880
  183SOL    HW2  549   1.303   0.813   2.228 -0.4379 -1.8697  0.2035
  184SOL     OW  550   0.376   1.024   1.585  0.2937  0.3652  0.4690
  184SOL    HW1  551   0.443   1.097   1.568 -0.6482 -1.9285 -1.3329
  184SOL    HW2  552   0.280   1.062   1.579  0.2096  1.5798 -0.6625
  185SOL     OW  553   2.035   0.771   0.352 -0.0169  0.1383  0.0235
  185SOL    HW1  554   1.957   0.830   0.329  4.1503 -0.3831  1.7120
  185SOL    HW2  555   2.108   0.829   0.392 -1.2083 -1.6719 -0.0170
  186SOL     OW  556   0.339   2.489   0.136  0.3782  0.0667 -0.6140
  186SOL    HW1  557   0.254   2.464   0.084  1.0128  2.2675  1.9221
  186SOL    HW2  558   0.327   2.480   0.239  1.7427 -0.2127 -0.5356
  187SOL     OW  559   2.484   1.223   0.175 -0.0293 -0.3457 -0.3527
  187SOL    HW1  560   2.404   1.163   0.158  2.8446  0.5730  0.3915
  187SOL    HW2  561   2.540   1.191   0.255 -2.9804  0.5154  1.3134
  188SOL     OW  562   3.024   1.575   0.829 -0.9209 -0.0243 -0.7608
  188SOL    HW1  563   3.027   1.585   0.725  0.1327  0.6340 -0.8294
  188SOL    HW2  564   3.015   1.671   0.875  0.4671  1.7302 -0.2399
  189SOL     OW  565   2.787   0.202   0.291  0.0413 -0.0214  0.3703
  189SOL    HW1  566   2.887   0.204   0.273 -2.7075 -0.8161 -0.0589
  189SOL    HW2  567   2.736   0.138   0.227  1.0593  0.2861 -2.0777
  190SOL     OW  568   1.428   1.522   2.058  0.1406 -0.0409  0.3223
  190SOL    HW1  569   1.349   1.510   2.122  2.9426  0.0629  0.2556
  190SOL    HW2  570   1.459   1.430   2.019 -0.1402  2.6375 -0.2988
  191SOL     OW  571   2.831   0.313   1.740  0.5018  0.4431  0.2926
  191SOL    HW1  572   2.821   0.411   1.762  1.3698 -0.5720 -1.8467
  191SOL    HW2  573   2.746   0.258   1.755 -3.5440  0.7697 -0.7441
  192SOL     OW  574   1.934   1.449   1.038  0.3173 -0.1627  0.0608
  192SOL    HW1  575   1.998   1.463   1.118 -1.6906  2.5248  2.0023
  192SOL    HW2  576   1.946   1.528   0.971 -0.9123 -0.3407 -1.9085
  193SOL     OW  577   1.062   0.835   1.005 -0.2678  0.2949 -0.0298
  193SOL    HW1  578   1.032   0.762   0.940 -1.1333  0.1267 -2.8162
  193SOL    HW2  579   1.017   0.828   1.098 -1.4069  2.1038  2.5071
  194SOL     OW  580   1.026   2.403   1.520  0.3718  0.0074 -0.1316
  194SOL    HW1  581   1.119   2.417   1.480 -1.2304 -1.0291 -2.1500
  194SOL    HW2  582   1.016   2.465   1.599  1.3960  0.2603 -0.2823
  195SOL     OW  583   2.383   0.472   2.805  0.0675 -0.4231 -0.4026
  195SOL    HW1  584   2.435   0.472   2.887 -1.8637  1.6651 -1.9748
  195SOL    HW2  585   2.293   0.518   2.816  0.2511  0.9993  0.2573
  196SOL     OW  586   1.077   2.578   1.712  0.1117  0.4134  0.2942
  196SOL    HW1  587   1.163   2.583   1.767 -0.7509  1.5733  2.0990
  196SOL    HW2  588   1.002   2.629   1.754  0.5883 -1.9724 -0.7580
  197SOL     OW  589   0.803   2.811   0.998 -0.4747 -0.0574 -0.4456
  197SOL    HW1  590   0.741   2.845   0.921 -2.9461  3.1882 -0.5845
  197SOL    HW2  591   0.901   2.794   0.976 -0.9891 -0.3810 -0.4196
  198SOL     OW  592   0.925   0.896   0.653 -0.0615  0.3393 -0.2773
  198SOL    HW1  593   0.859   0.847   0.716  1.0091  1.1623  2.9385
  198SOL    HW2  594   0.871   0.924   0.570 -1.4429  1.3005 -1.0844
  199SOL     OW  595   0.151   3.094   1.917  0.3893  0.3946 -0.0741
  199SOL    HW1  596   0.081   0.027   1.863 -1.2774 -1.4246  2.7303
  199SOL    HW2  597   0.113   2.996   1.930  1.7143 -1.5049  0.0190
  200SOL     OW  598   2.097   1.858   2.267  0.7340 -0.4978  0.0517
  200SOL    HW1  599   2.145   1.795   2.210  2.0297  0.7482 -0.6491
  200SOL    HW2  600   2.134   1.952   2.254 -1.7520  2.0337 -1.3237
  201SOL     OW  601   3.026   2.249   1.423 -0.6055 -0.6126  0.2460
  201SOL    HW1  602   3.015   2.335   1.368  1.4754  0.2813 -1.3237
  201SOL    HW2  603   2.962   2.246   1.508 -1.1166 -2.1853  1.2247
  202SOL     OW  604   2.598   3.116   0.442 -0.2933  0.1601  0.0499
  202SOL    HW1  605   2.627   0.073   0.379  0.5719  2.2733  2.6540
  202SOL    HW2  606   2.662   3.035   0.435  1.1059  1.2920  1.5814
  203SOL     OW  607   1.384   2.130   2.248  0.0209 -0.7984 -0.1213
  203SOL    HW1  608   1.335   2.071   2.308  0.0648  1.9750 -1.1006
  203SOL    HW2  609   1.486   2.130   2.265 -1.6482  2.3515 -1.5208
  204SOL     OW  610   1.398   2.049   1.359 -0.7165 -0.3474  0.1491
  204SOL    HW1  611   1.404   2.150   1.352 -1.5932 -2.8494  0.2308
  204SOL    HW2  612   1.489   2.006   1.330  1.8173  1.5219 -0.6019
  205SOL     OW  613   1.241   1.818   1.936 -0.2450  0.0621  0.0886
  205SOL    HW1  614   1.338   1.792   1.920 -0.0405 -1.4241 -0.8146
  205SOL    HW2  615   1.208   1.812   2.033 -1.3641 -0.8688  0.4413
  206SOL     OW  616   0.361   0.797   2.623 -0.0149  0.5157 -0.2655
  206SOL    HW1  617   0.413   0.764   2.706  1.6772  1.3773 -0.4684
  206SOL    HW2  618   0.408   0.776   2.535 -2.1543 -0.0557  1.7014
  207SOL     OW  619   0.801   0.089   1.874  0.0777 -0.1301  0.3206
  207SOL    HW1  620   0.792   0.190   1.849  0.7963  2.0699 -3.9562
  207SOL    HW2  621   0.895   0.072   1.906  0.0654  0.0283  1.9250
  208SOL     OW  622   0.631   2.554   1.869 -0.5061  0.3808 -0.6868
  208SOL    HW1  623   0.718   2.606   1.891  1.8342  1.3538  0.4706
  208SOL    HW2  624   0.656   2.465   1.824  0.8375 -1.5908  3.0632
  209SOL     OW  625   1.523   0.512   0.022  0.1300  0.3770 -0.3024
  209SOL    HW1  626   1.504   0.553   3.050  1.4098 -0.2459  1.7117
  209SOL    HW2  627   1.434   0.480   0.061 -1.1266 -0.4281  0.7413
  210SOL     OW  628   3.044   0.444   0.818  0.0610  0.1756 -0.5921
  210SOL    HW1  629   2.983   0.478   0.893  0.0218 -1.0139 -0.7091
  210SOL    HW2  630   3.008   0.366   0.758 -1.9999 -0.0152 -0.8951
  211SOL     OW  631   0.536   0.710   1.293  0.6145  0.2876 -0.2838
  211SOL    HW1  632   0.568   0.629   1.342  0.7064  2.2992 -0.6255
  211SOL    HW2  633   0.456   0.762   1.329  0.7457  0.7960  0.6137
  212SOL     OW  634   1.335   1.688   1.013 -0.6343  0.0046 -0.2416
  212SOL    HW1  635   1.244   1.732   1.015  2.3057 -1.1839 -0.2976
  212SOL    HW2  636   1.349   1.621   1.092 -0.6898  1.6864 -0.9732
  213SOL     OW  637   2.051   0.007   1.599 -0.4871 -0.6058  0.0782
  213SOL    HW1  638   2.125   3.066   1.635  1.2752  0.8159  2.6278
  213SOL    HW2  639   1.973   3.066   1.574  1.6598  0.0444 -0.6693
  214SOL     OW  640   1.124   2.482   2.753  0.5961  0.6091 -0.3127
  214SOL    HW1  641   1.120   2.445   2.848 -0.0789  0.6209  1.7868
  214SOL    HW2  642   1.176   2.422   2.691  0.8424  1.2153 -1.2678
  215SOL     OW  643   2.657   1.817   1.234  0.6250 -0.0413  0.1830
  215SOL    HW1  644   2.622   1.907   1.201  1.5848 -1.1596  1.2439
  215SOL    HW2  645   2.686   1.762   1.157 -2.4966  1.2958 -0.7851
  216SOL     OW  646   0.340   0.600   2.052 -0.6545  0.1143  0.1644
  216SOL    HW1  647   0.265   0.581   1.990 -0.8153 -0.6872 -0.0293
  216SOL    HW2  648   0.358   0.701   2.061  2.4080  2.3325  2.2403
  217SOL     OW  649   3.049   0.162   0.214  0.1086 -0.2232 -0.2697
  217SOL    HW1  650   0.018   0.207   0.195  1.1362  0.5056  1.1038
  217SOL    HW2  651   3.063   0.110   0.301  0.0173 -0.7810  2.1125
  218SOL     OW  652   1.610   1.896   1.334 -0.0546  0.2999 -0.1178
  218SOL    HW1  653   1.578   1.809   1.369  1.4250 -0.4114 -2.1706
  218SOL    HW2  654   1.698   1.884   1.282 -3.4563  2.4500  0.2907
  219SOL     OW  655   1.728   0.534   0.192  0.1159 -0.0411 -0.2801
  219SOL    HW1  656   1.705   0.494   0.284  0.3150  3.3003  1.5365
  219SOL    HW2  657   1.643   0.525   0.133  0.9562  1.6691  1.3066
  220SOL     OW  658   1.500   1.982   1.007 -0.3782  0.2393  0.2848
  220SOL    HW1  659   1.497   2.075   1.051  0.4318 -1.0271  2.2332
  220SOL    HW2  660   1.427   1.921   1.041 -1.9500 -1.3580 -1.1070
  221SOL     OW  661   0.192   0.554   0.143 -0.3062  0.0452 -0.0087
  221SOL    HW1  662   0.247   0.593   0.067  1.9723  2.2272  1.0246
  221SOL    HW2  663   0.089   0.560   0.136 -1.0097 -1.3595  0.3735
  222SOL     OW  664   0.877   2.794   1.709 -0.0912  0.0737  0.1815
  222SOL    HW1  665   0.899   2.892   1.675 -3.3825 -0.1899 -0.5365
  222SOL    HW2  666   0.814   2.745   1.644  1.1947 -0.7481 -0.0053
  223SOL     OW  667   1.323   0.367   2.887  0.2137  0.5956 -0.0246
  223SOL    HW1  668   1.404   0.308   2.905  0.8639 -1.0307  2.1673
  223SOL    HW2  669   1.267   0.322   2.813  1.4368 -0.1605  1.3872
  224SOL     OW  670   2.683   0.362   1.066 -0.1918  0.0925  0.3103
  224SOL    HW1  671   2.644   0.435   1.122 -1.1854 -2.2700  0.4029
  224SOL    HW2  672   2.623   0.279   1.082 -0.1956 -2.7204  1.4577
  225SOL     OW  673   0.774   1.280   1.665  0.3794 -0.0065 -0.1014
  225SOL    HW1  674   0.778   1.303   1.568 -1.5583 -2.0504 -0.9249
  225SOL    HW2  675   0.701   1.338   1.708 -0.4250  0.7046 -0.7938
  226SOL     OW  676   0.715   0.024   0.530  0.2422  0.0255 -0.4533
  226SOL    HW1  677   0.637   0.089   0.534 -1.2464 -2.1259 -1.1316
  226SOL    HW2  678   0.806   0.068   0.528 -1.1597 -1.1523  3.6950
  227SOL     OW  679   0.895   1.821   1.576  0.6862 -0.2890  0.1754
  227SOL    HW1  680   0.893   1.855   1.479  2.4732 -0.2174  0.4980
  227SOL    HW2  681   0.961   1.869   1.632 -0.7493 -1.5054  1.2856
  228SOL     OW  682   0.403   2.948   1.932  0.2591  0.8819 -0.1120
  228SOL    HW1  683   0.320   3.009   1.928 -2.6815 -1.2833 -0.6280
  228SOL    HW2  684   0.434   2.924   1.837  0.8555 -0.6095  0.4209
  229SOL     OW  685   2.613   0.762   0.580 -0.2020 -0.6363 -0.3904
  229SOL    HW1  686   2.664   0.696   0.638 -0.6047  5.3184 -2.9247
  229SOL    HW2  687   2.680   0.830   0.541 -2.2319  0.2881 -0.1805
  230SOL     OW  688   0.226   1.471   2.134  0.2449  0.0857 -0.1672
  230SOL    HW1  689   0.192   1.558   2.096  1.5639 -2.0494  0.7857
  230SOL    HW2  690   0.268   1.412   2.067  0.6635  0.8043  2.2014
  231SOL     OW  691   1.046   2.871   1.290  0.3364 -0.0765 -0.2040
  231SOL    HW1  692   0.948   2.843   1.301  0.1125 -0.7178 -1.0247
  231SOL    HW2  693   1.098   2.839   1.370  0.1146  1.0291 -1.8486
  232SOL     OW  694   2.382   2.392   0.210 -0.1033 -0.3370  0.3049
  232SOL    HW1  695   2.378   2.491   0.174 -3.6269  0.8618 -0.3646
  232SOL    HW2  696   2.319   2.328   0.163  0.4593  1.8535  1.0366
  233SOL     OW  697   1.108   2.771   0.161  0.1157  0.4054  0.3052
  233SOL    HW1  698   1.094   2.871   0.155 -1.1588  0.5522 -1.9919
  233SOL    HW2  699   1.065   2.721   0.080 -2.3208 -0.6044 -2.7881
  234SOL     OW  700   0.940   0.884   2.117  0.0698  0.0214 -0.4417
  234SOL    HW1  701   0.974   0.880   2.212 -0.5164 -2.5171 -0.9327
  234SOL    HW2  702   0.981   0.973   2.087  1.3944 -2.7988  2.1261
  235SOL     OW  703   0.077   2.352   0.326 -0.3162  0.8750 -0.1005
  235SOL    HW1  704   0.094   2.439   0.373  0.5491  2.4891 -1.6988
  235SOL    HW2  705   3.101   2.353   0.285 -2.4393 -0.3734 -0.2868
  236SOL     OW  706   2.082   2.709   2.537 -0.3767 -0.5755  0.1610
  236SOL    HW1  707   2.168   2.699   2.485  0.6570 -1.9198 -0.9956
  236SOL    HW2  708   2.011   2.651   2.491 -3.0763 -1.0947  3.0926
  237SOL     OW  709   1.983   1.043   1.615  0.6885  0.2113 -0.5163
  237SOL    HW1  710   1.923   0.979   1.558 -1.9971  1.0830 -2.7092
  237SOL    HW2  711   1.945   1.048   1.709  2.8195 -2.0722 -0.3187
  238SOL     OW  712   1.835   0.216   2.309  0.0320  0.4110  0.2882
  238SOL    HW1  713   1.928   0.201   2.355  3.5820  1.3940  0.3708
  238SOL    HW2  714   1.847   0.187   2.211  0.4401 -0.0183  0.4065
  239SOL     OW  715   0.903   2.116   1.905  0.2892  0.2469  0.0929
  239SOL    HW1  716   0.800   2.114   1.896  0.7145 -0.3036 -0.0338
  239SOL    HW2  717   0.957   2.137   1.817 -0.9738 -1.5848  1.2708
  240SOL     OW  718   2.854   2.817   0.671  0.2834 -0.3293 -0.5334
  240SOL    HW1  719   2.950   2.779   0.665 -1.2201  1.3909 -0.6385
  240SOL    HW2  720   2.821   2.777   0.761  1.0259  0.3710  4.6157
  241SOL     OW  721   1.250   1.891   0.304  0.7149 -0.4006  0.1473
  241SOL    HW1  722   1.271   1.903   0.402  0.1494 -0.1257  1.2086
  241SOL    HW2  723   1.250   1.975   0.250  1.2519 -3.0261 -1.6506
  242SOL     OW  724   2.280   1.014   0.143 -0.5351 -0.2368  0.1604
  242SOL    HW1  725   2.331   0.926   0.154 -0.9033  1.4386 -0.7179
  242SOL    HW2  726   2.231   1.008   0.055 -0.9739  0.5279  0.1315
  243SOL     OW  727   0.659   0.563   1.917 -0.3174  0.6516 -0.4648
  243SOL    HW1  728   0.644   0.473   1.875 -0.1231 -1.5365  1.8612
  243SOL    HW2  729   0.581   0.624   1.896  1.0187 -1.1059  0.5228
  244SOL     OW  730   1.646   2.613   2.824  0.2867 -0.0399 -0.1730
  244SOL    HW1  731   1.578   2.681   2.803  0.0246 -0.1075 -0.2913
  244SOL    HW2  732   1.733   2.646   2.790 -0.9904 -2.6275 -3.8340
  245SOL     OW  733   1.648   3.007   2.892  0.2263  0.1060 -0.2429
  245SOL    HW1  734   1.604   3.078   2.946  1.5316 -0.5380 -1.7968
  245SOL    HW2  735   1.590   2.932   2.856  3.3208  0.3041  0.9971
  246SOL     OW  736   1.325   1.108   2.593  0.0552  0.3004 -0.7674
  246SOL    HW1  737   1.382   1.170   2.536  0.0596 -2.4847  1.5513
  246SOL    HW2  738   1.252   1.157   2.649  1.5328 -1.2247  1.3305
  247SOL     OW  739   2.861   0.463   2.071 -0.3485  0.4194  0.2180
  247SOL    HW1  740   2.937   0.394   2.074 -1.3463 -1.7622  1.2769
  247SOL    HW2  741   2.891   0.546   2.020 -1.9476  0.1919 -0.4053
  248SOL     OW  742   0.314   1.320   1.906  0.5606 -0.1027  0.1971
  248SOL    HW1  743   0.259   1.242   1.873  2.9087  3.7714  1.3602
  248SOL    HW2  744   0.413   1.299   1.895 -2.9634  0.5632 -0.4365
  249SOL     OW  745   2.753   0.477   0.178 -0.0241 -0.1944 -0.1110
  249SOL    HW1  746   2.677   0.492   0.244  2.0676 -3.1239 -2.1079
  249SOL    HW2  747   2.777   0.381   0.175  0.3121 -0.1844 -0.2352
  250SOL     OW  748   2.895   0.244   0.709  0.1794  0.5913  0.0382
  250SOL    HW1  749   2.829   0.281   0.642 -1.8102  3.1183 -1.6455
  250SOL    HW2  750   2.901   0.143   0.696  0.4259 -1.3560 -1.2699
  251SOL     OW  751   0.751   1.271   2.175 -0.0160 -0.0073  0.1335
  251SOL    HW1  752   0.804   1.225   2.248 -1.2196  0.0691  0.3724
  251SOL    HW2  753   0.792   1.252   2.084 -0.0004  2.0402 -0.5584
  252SOL     OW  754   1.508   1.713   1.884  0.5229 -0.0623 -0.0736
  252SOL    HW1  755   1.476   1.650   1.960  1.9511  1.3464 -3.2017
  252SOL    HW2  756   1.526   1.653   1.803 -1.5611 -0.2766  2.8418
  253SOL     OW  757   1.462   2.476   1.972 -0.3011  0.0329  0.3134
  253SOL    HW1  758   1.490   2.378   1.989 -0.3498  0.7976  2.5920
  253SOL    HW2  759   1.438   2.495   1.878 -2.0352  1.3496  0.0225
  254SOL     OW  760   0.816   2.131   2.327  0.6050 -0.1042 -0.2959
  254SOL    HW1  761   0.733   2.137   2.269  1.7146  0.1173 -1.6457
  254SOL    HW2  762   0.889   2.189   2.292 -0.4461 -1.9725  2.4275
  255SOL     OW  763   1.333   0.580   0.729  0.3083  0.5098  0.2922
  255SOL    HW1  764   1.240   0.620   0.706  1.0303  3.2359  0.1403
  255SOL    HW2  765   1.363   0.594   0.828  1.6530  0.7000  1.1378
  256SOL     OW  766   1.841   2.338   1.142 -0.4343 -0.0000  0.0674
  256SOL    HW1  767   1.931   2.374   1.110  2.8051  0.0733  0.8431
  256SOL    HW2  768   1.767   2.362   1.076  0.8172 -1.6254  1.2967
  257SOL     OW  769   0.248   2.225   2.771 -0.3456 -0.4934  0.7123
  257SOL    HW1  770   0.325   2.206   2.707 -2.9076  1.3948  4.7075
  257SOL    HW2  771   0.162   2.176   2.731  0.3789  0.1942  1.6787
  258SOL     OW  772   0.420   1.101   2.441  0.5257 -0.3324 -0.4047
  258SOL    HW1  773   0.347   1.033   2.450  2.1090  3.2029  0.2217
  258SOL    HW2  774   0.455   1.133   2.529 -1.1824 -0.4842 -1.4771
  259SOL     OW  775   1.283   0.847   2.488 -0.0863 -0.2028  0.2001
  259SOL    HW1  776   1.297   0.946   2.507  0.1218 -3.6031 -0.7299
  259SOL    HW2  777   1.372   0.800   2.481 -1.3470 -0.6165  1.0914
  260SOL     OW  778   2.113   0.628   0.595 -0.5701  0.3430 -0.4270
  260SOL    HW1  779   2.107   0.717   0.549  0.9356 -0.3648 -0.6133
  260SOL    HW2  780   2.030   0.572   0.576  0.2883 -0.8932  0.2503
  261SOL     OW  781   0.979   0.340   3.106  0.2623  0.0270  0.2380
  261SOL    HW1  782   0.892   0.307   3.070 -0.0367  3.3654  2.3140
  261SOL    HW2  783   0.970   0.443   3.116 -0.8151  0.6375  2.5193
  262SOL     OW  784   2.183   2.791   2.767 -0.4999 -0.2337 -0.4004
  262SOL    HW1  785   2.235   2.701   2.780 -1.8701  1.4312 -0.1888
  262SOL    HW2  786   2.126   2.786   2.680  0.4406  3.2175 -0.2638
  263SOL     OW  787   0.897   1.920   2.934 -0.2692  0.5158  0.3536
  263SOL    HW1  788   0.918   1.838   2.875  0.1504  0.2870  0.2411
  263SOL    HW2  789   0.836   1.990   2.894 -0.9905  1.6840  1.9090
  264SOL     OW  790   0.444   1.798   1.729 -0.3188  0.1604 -0.0716
  264SOL    HW1  791   0.487   1.731   1.791  0.8509 -0.5000  1.9559
  264SOL    HW2  792   0.424   1.882   1.782  1.4318 -1.0996 -0.5818
  265SOL     OW  793   0.776   1.055   0.471  0.1219 -0.3215  0.2748
  265SOL    HW1  794   0.747   1.083   0.562 -0.8004  0.8834 -4.0820
  265SOL    HW2  795   0.803   1.134   0.409  0.3260 -2.5237 -1.3083
  266SOL     OW  796   1.644   1.607   0.245  0.2956  0.4809  0.2117
  266SOL    HW1  797   1.732   1.662   0.242  0.7833  2.0828 -1.6411
  266SOL    HW2  798   1.559   1.662   0.227 -1.5275 -2.1516  0.1990
  267SOL     OW  799   2.734   0.291   3.044  0.4292  0.0975  0.1572
  267SOL    HW1  800   2.827   0.258   3.069  0.4514 -0.5671 -1.1318
  267SOL    HW2  801   2.713   0.259   2.950 -0.9923  0.6814  1.1863
  268SOL     OW  802   0.567   0.386   2.735 -0.5937  0.1806 -0.0116
  268SOL    HW1  803   0.595   0.453   2.659 -0.3826  1.1383  1.2725
  268SOL    HW2  804   0.590   0.288   2.706  1.5951 -1.8602 -1.4778
  269SOL     OW  805   1.524   0.615   2.529  0.1143  0.2137 -0.4101
  269SOL    HW1  806   1.577   0.553   2.469  0.4503 -1.4920  0.6456
  269SOL    HW2  807   1.426   0.577   2.539 -0.7738 -1.2896  1.3150
  270SOL     OW  808   1.035   0.883   2.381 -0.2604  0.3730  0.3782
  270SOL    HW1  809   1.133   0.859   2.394 -2.1964  0.4010  2.8320
  270SOL    HW2  810   0.973   0.827   2.443 -2.0076 -2.6571  0.0557
  271SOL     OW  811   2.801   0.889   0.049  0.6245 -0.5582 -0.2758
  271SOL    HW1  812   2.739   0.931   3.094 -3.3497 -3.8745 -2.3783
  271SOL    HW2  813   2.817   0.791   0.022 -1.4726  1.4531  1.3168
  272SOL     OW  814   2.477   1.904   2.746  0.6283  0.2809  0.0791
  272SOL    HW1  815   2.470   1.914   2.642  0.6049  1.2957 -2.0098
  272SOL    HW2  816   2.455   1.806   2.775  1.1237 -0.3001 -1.6798
  273SOL     OW  817   2.726   0.564   2.781 -0.0597 -0.8567 -0.1259
  273SOL    HW1  818   2.744   0.465   2.786  0.0209  0.7040 -0.9443
  273SOL    HW2  819   2.800   0.615   2.733 -0.9332  1.1179 -0.9826
  274SOL     OW  820   0.106   0.061   1.510  0.1570  0.3382 -0.2441
  274SOL    HW1  821   0.101   3.083   1.546 -2.0862  2.3841 -1.8223
  274SOL    HW2  822   0.029   0.074   1.446  0.7916  1.2390  0.2287
  275SOL     OW  823   2.060   1.269   0.690 -0.3302 -0.5687 -0.1880
  275SOL    HW1  824   2.139   1.214   0.725  0.5476 -0.9965 -2.6580
  275SOL    HW2  825   1.994   1.207   0.632  1.7087  1.5540 -1.5664
  276SOL     OW  826   0.254   1.325   2.652  0.1212 -0.0125  0.0247
  276SOL    HW1  827   0.338   1.271   2.669 -1.9729 -0.8181 -3.3653
  276SOL    HW2  828   0.278   1.396   2.584 -0.0590  0.6676 -1.0822
  277SOL     OW  829   1.747   2.505   1.977  0.0228 -0.0479  0.6784
  277SOL    HW1  830   1.648   2.518   1.991  0.2468  1.8548  1.0299
  277SOL    HW2  831   1.792   2.429   2.026 -0.4285 -0.8996 -2.1885
  278SOL     OW  832   2.070   0.194   1.375  0.4245 -0.1859 -0.2578
  278SOL    HW1  833   2.055   0.121   1.446 -1.3251  1.2244  3.2896
  278SOL    HW2  834   2.010   0.189   1.291 -0.6794  0.8504  1.5532
  279SOL     OW  835   1.329   1.143   2.963  0.1656 -0.0968 -0.4718
  279SOL    HW1  836   1.380   1.073   2.912  2.0665  2.8485  0.8448
  279SOL    HW2  837   1.363   1.150   3.057 -0.0438 -1.7751 -0.5947
  280SOL     OW  838   0.545   1.617   1.161 -0.0538 -0.6792 -0.1912
  280SOL    HW1  839   0.617   1.623   1.089  1.1062 -0.6924 -1.8733
  280SOL    HW2  840   0.522   1.712   1.198  0.0678  0.7680 -0.7408
  281SOL     OW  841   0.223   0.185   2.504 -0.6884  0.0819 -0.1853
  281SOL    HW1  842   0.272   0.164   2.417  0.5902  2.0563  1.1265
  281SOL    HW2  843   0.156   0.107   2.525 -0.9909  0.9168 -1.2246
  282SOL     OW  844   0.122   1.078   1.474 -0.5599 -0.1146 -0.0812
  282SOL    HW1  845   0.076   1.165   1.461 -1.3850 -2.0237  1.1498
  282SOL    HW2  846   0.088   1.017   1.403  0.4360  1.1671  1.1186
  283SOL     OW  847   1.521   2.214   2.554  0.1064 -0.2721  0.1389
  283SOL    HW1  848   1.557   2.211   2.460  0.0241 -0.9938 -1.9961
  283SOL    HW2  849   1.427   2.185   2.572 -0.2702 -0.1006  0.2870
  284SOL     OW  850   1.852   1.178   0.152 -0.0811 -0.6078  0.2597
  284SOL    HW1  851   1.825   1.242   0.224  0.3779 -0.2604 -1.5583
  284SOL    HW2  852   1.835   1.214   0.059 -0.0427 -2.5322  0.8657
  285SOL     OW  853   0.004   0.006   2.920 -0.0968  0.1675  0.0603
  285SOL    HW1  854   3.050   0.036   2.985  1.7997  0.1007  0.6315
  285SOL    HW2  855   0.087   0.063   2.926  1.4071 -3.6059 -1.8751
  286SOL     OW  856   1.917   2.826   1.301 -0.3560  0.4843 -0.5775
  286SOL    HW1  857   1.896   2.874   1.388 -3.0160  0.6902  0.8497
  286SOL    HW2  858   2.013   2.848   1.270  0.9652  0.6189  0.2863
  287SOL     OW  859   0.694   0.919   1.348  0.2261  0.0272 -0.4585
  287SOL    HW1  860   0.630   0.840   1.328  1.5625  0.5879 -1.8656
  287SOL    HW2  861   0.721   0.926   1.442  0.0394 -4.2023 -2.5768
  288SOL     OW  862   1.444   2.725   0.096  0.1873 -0.2176  0.0081
  288SOL    HW1  863   1.481   2.659   0.028 -1.7721 -1.4154 -0.6234
  288SOL    HW2  864   1.381   2.681   0.161  0.2550  1.2791 -1.6535
  289SOL     OW  865   0.074   1.768   3.091  0.2543  0.0938 -0.5243
  289SOL    HW1  866   0.170   1.791   3.073 -0.4663 -2.5814 -0.2693
  289SOL    HW2  867   0.012   1.847   3.102 -0.0487 -1.7221 -0.5716
  290SOL     OW  868   1.077   2.652   0.612  0.3597  0.6677 -0.1041
  290SOL    HW1  869   1.117   2.679   0.525  1.0015 -0.6115  2.4527
  290SOL    HW2  870   1.138   2.591   0.668  1.0630  0.4054 -2.5316
  291SOL     OW  871   2.089   2.129   0.160 -0.5540 -0.1026 -0.0653
  291SOL    HW1  872   2.126   2.205   0.096 -0.6165 -0.2128  3.0554
  291SOL    HW2  873   2.149   2.050   0.147 -3.3748  0.8876 -0.2277
  292SOL     OW  874   0.861   1.265   1.933 -0.6722 -0.5441 -0.1821
  292SOL    HW1  875   0.925   1.188   1.953 -1.2627 -0.4233  0.5781
  292SOL    HW2  876   0.853   1.259   1.832  0.5127 -0.4785 -1.2376
  293SOL     OW  877   2.290   2.669   0.802  0.0797 -0.2969  0.1488
  293SOL    HW1  878   2.328   2.575   0.818  0.0928 -3.0718  0.2704
  293SOL    HW2  879   2.212   2.692   0.859 -0.1825 -0.0260 -2.6332
  294SOL     OW  880   3.054   0.614   2.411 -0.0317  0.0693 -0.6573
  294SOL    HW1  881   3.095   0.706   2.389 -0.7333  0.6813  1.4246
  294SOL    HW2  882   3.117   0.545   2.383 -4.4781  1.8683 -0.1878
  295SOL     OW  883   0.812   1.796   0.290  0.0456 -0.3545  0.2993
  295SOL    HW1  884   0.735   1.733   0.280 -1.1274  0.8534  1.3481
  295SOL    HW2  885   0.809   1.870   0.217 -1.1718  0.0184  0.6041
  296SOL     OW  886   2.102   1.811   2.689  0.4930 -0.6933  0.3146
  296SOL    HW1  887   2.151   1.722   2.670 -1.7309 -1.7843 -0.9196
  296SOL    HW2  888   2.062   1.811   2.784 -0.5773  1.7158  0.9434
  297SOL     OW  889   2.839   0.625   3.053  0.4906 -0.0257  0.3103
  297SOL    HW1  890   2.798   0.629   2.957 -0.1505 -0.8554  0.4783
  297SOL    HW2  891   2.778   0.584   0.004  1.4773  1.6142 -3.1788
  298SOL     OW  892   0.838   2.238   3.067 -0.3235 -0.0404  0.4411
  298SOL    HW1  893   0.830   2.193   2.973  0.0994 -0.8271  0.1326
  298SOL    HW2  894   0.752   2.280   3.096  5.0554 -3.4239 -0.8438
  299SOL     OW  895   1.721   2.925   2.472 -0.4125  0.6230  0.1698
  299SOL    HW1  896   1.673   3.002   2.421 -0.1452  3.6996 -1.5958
  299SOL    HW2  897   1.750   2.950   2.569  0.3289 -0.4233 -1.7512
  300SOL     OW  898   2.737   0.357   0.506 -0.4188  0.3056  0.5432
  300SOL    HW1  899   2.649   0.404   0.492  1.7208  1.0835 -1.6958
  300SOL    HW2  900   2.765   0.298   0.426  1.1373  0.2102  0.8800
  301SOL     OW  901   1.082   1.159   1.711  0.1970 -0.8730 -0.1061
  301SOL    HW1  902   1.018   1.083   1.688 -1.2829 -0.6150 -1.1769
  301SOL    HW2  903   1.063   1.229   1.643 -0.6910 -1.7937  0.2684
  302SOL     OW  904   0.162   2.395   3.061 -0.0869  0.1430  0.2900
  302SOL    HW1  905   0.169   2.295   3.069 -0.9926  0.9387  1.6659
  302SOL    HW2  906   0.226   2.418   2.984  0.8968 -1.6392 -0.7371
  303SOL     OW  907   3.115   0.048   2.645  0.5150  0.0696  0.1990
  303SOL    HW1  908   0.001   0.065   2.749  0.2613  0.5845  1.2946
  303SOL    HW2  909   3.031   0.085   2.605  2.2450 -1.6204 -4.8616
  304SOL     OW  910   2.733   0.563   1.762  0.6653  0.2036 -0.0259
  304SOL    HW1  911   2.783   0.641   1.797 -1.9785 -1.8684  1.0330
  304SOL    HW2  912   2.694   0.594   1.675  0.6100 -0.4478 -1.7029
  305SOL     OW  913   0.621   2.677   2.264 -0.1998  0.3533  0.2830
  305SOL    HW1  914   0.669   2.752   2.220 -1.5477 -0.4422 -0.2377
  305SOL    HW2  915   0.674   2.644   2.348  2.5566 -0.6924  0.1237
  306SOL     OW  916   2.650   1.146   1.533  0.4849  0.4350 -0.0888
  306SOL    HW1  917   2.681   1.092   1.452  0.7445 -0.0453  0.9740
  306SOL    HW2  918   2.691   1.237   1.538  0.2051  1.2851  0.7793
  307SOL     OW  919   1.126   0.501   1.369 -0.3232 -0.0117  0.3459
  307SOL    HW1  920   1.192   0.533   1.443  2.7485  1.3176  1.0923
  307SOL    HW2  921   1.163   0.519   1.274 -0.4914  0.0052 -1.5297
  308SOL     OW  922   2.565   2.038   1.130 -0.3974  0.1297 -0.1223
  308SOL    HW1  923   2.586   2.128   1.175  1.8525  0.6191  2.8070
  308SOL    HW2  924   2.512   2.048   1.042 -0.8194 -2.7486  1.2260
  309SOL     OW  925   2.281   1.610   1.449 -0.3409  0.1902 -0.1728
  309SOL    HW1  926   2.310   1.664   1.365  0.7879 -0.3621 -0.3809
  309SOL    HW2  927   2.366   1.588   1.501 -0.3168 -2.4616  0.3116
  310SOL     OW  928   2.695   1.777   0.118  0.3745 -0.7029  0.3521
  310SOL    HW1  929   2.734   1.698   0.063  2.5155 -1.9121  1.9806
  310SOL    HW2  930   2.699   1.866   0.065  0.6030  0.7177  0.5518
  311SOL     OW  931   2.314   2.079   2.896 -0.1580  0.6929 -0.2329
  311SOL    HW1  932   2.239   2.064   2.833  1.3482 -1.1633  1.5201
  311SOL    HW2  933   2.403   2.044   2.853  0.8145  0.8207 -0.3581
  312SOL     OW  934   2.378   1.784   1.235  0.2716 -0.2877  0.2680
  312SOL    HW1  935   2.313   1.861   1.260 -0.2351 -2.2113  0.8733
  312SOL    HW2  936   2.477   1.808   1.232  2.4854 -0.9944 -1.0296
  313SOL     OW  937   2.334   2.313   1.224 -0.2624 -0.0451  0.3209
  313SOL    HW1  938   2.432   2.287   1.212  0.3668 -0.8084  0.6391
  313SOL    HW2  939   2.302   2.312   1.323 -1.4584  0.3762 -0.4970
  314SOL     OW  940   0.963   2.212   0.597  0.3392 -0.0178  0.1859
  314SOL    HW1  941   0.912   2.262   0.670  2.3347 -0.6585 -2.4439
  314SOL    HW2  942   0.898   2.151   0.555  0.4210 -1.0575 -0.1303
  315SOL     OW  943   0.640   2.669   2.988  0.0127 -0.2644 -0.0390
  315SOL    HW1  944   0.727   2.667   3.035 -1.1184  2.2399 -3.9164
  315SOL    HW2  945   0.626   2.595   2.921  0.5186  2.7096  3.6771
  316SOL     OW  946   0.164   0.735   0.527  0.0351  0.5472  0.6201
  316SOL    HW1  947   0.136   0.833   0.523  0.2344 -0.7009 -1.4798
  316SOL    HW2  948   0.238   0.707   0.460  2.4765 -0.4800  0.3079
  317SOL     OW  949   1.635   0.500   0.921  0.2373  0.3104 -0.0633
  317SOL    HW1  950   1.570   0.572   0.957  1.5522  0.7559 -1.0991
  317SOL    HW2  951   1.621   0.476   0.824  2.0493  0.0253 -1.7081
  318SOL     OW  952   0.045   2.641   0.416  0.2124  0.0766  0.2214
  318SOL    HW1  953   0.030   2.736   0.384  0.9068 -0.5540  0.1018
  318SOL    HW2  954   3.083   2.610   0.469  1.4141  1.1632  1.7062
  319SOL     OW  955   0.637   1.696   2.869  0.7932 -0.2381 -0.5186
  319SOL    HW1  956   0.732   1.709   2.832 -1.2397 -0.7785  2.4418
  319SOL    HW2  957   0.617   1.765   2.935  1.3113  2.8007 -2.1441
  320SOL     OW  958   0.732   2.574   2.513 -0.0101 -0.8750  0.0706
  320SOL    HW1  959   0.807   2.646   2.499  2.1159 -0.1167 -1.2565
  320SOL    HW2  960   0.759   2.486   2.554 -2.0388 -0.6434  0.4361
  321SOL     OW  961   1.304   2.858   2.983  0.0598 -0.1910  0.5154
  321SOL    HW1  962   1.334   2.832   3.072 -1.6713  2.3470 -1.3171
  321SOL    HW2  963   1.202   2.849   2.973  2.7542 -1.6820 -0.3230
  322SOL     OW  964   2.566   1.507   2.036 -0.4946 -0.4965 -0.0120
  322SOL    HW1  965   2.628   1.570   1.985 -0.7397  0.0055  0.7478
  322SOL    HW2  966   2.611   1.417   2.042 -0.7718  0.3434 -0.3331
  323SOL     OW  967   2.569   0.582   0.354  0.4712 -0.1931 -0.0688
  323SOL    HW1  968   2.471   0.580   0.370  0.4487  0.5302  0.0293
  323SOL    HW2  969   2.608   0.670   0.391  0.3396 -0.0481 -0.5563
  324SOL     OW  970   0.368   3.047   2.705 -0.1113 -0.3291 -0.5794
  324SOL    HW1  971   0.341   3.094   2.790  1.2900  1.3045 -1.2856
  324SOL    HW2  972   0.294   3.029   2.642  2.8035  2.5548 -0.4121
  325SOL     OW  973   1.642   0.414   2.390 -0.0502  0.4089 -0.3614
  325SOL    HW1  974   1.715   0.342   2.379 -1.1247 -0.4206 -2.1385
  325SOL    HW2  975   1.546   0.385   2.399 -0.6609 -1.9990 -0.0836
  326SOL     OW  976   2.443   2.573   1.322 -0.0846 -0.2301  0.4178
  326SOL    HW1  977   2.399   2.494   1.372 -0.0663 -2.5339 -0.7322
  326SOL    HW2  978   2.438   2.567   1.217 -0.3493  1.7534 -0.2835
  327SOL     OW  979   1.554   0.226   2.927  0.0173 -0.3534 -0.5670
  327SOL    HW1  980   1.555   0.203   3.027  1.5187  0.0831  0.6506
  327SOL    HW2  981   1.639   0.282   2.910 -1.1615 -1.3010 -1.0539
  328SOL     OW  982   2.716   1.349   2.551  0.8193  0.2501  0.6996
  328SOL    HW1  983   2.669   1.376   2.462  1.1677 -2.1478  1.5546
  328SOL    HW2  984   2.731   1.430   2.608 -1.2608  0.8833 -3.8389
  329SOL     OW  985   1.693   2.909   1.780  0.2077 -0.2659  0.1698
  329SOL    HW1  986   1.762   2.932   1.854 -1.6843 -2.2845 -2.7291
  329SOL    HW2  987   1.626   2.839   1.808 -0.3624  0.1017 -0.3046
  330SOL     OW  988   2.502   1.506   1.596  0.3018  0.5995 -0.2361
  330SOL    HW1  989   2.448   1.494   1.686 -1.3906  1.4565  3.1570
  330SOL    HW2  990   2.590   1.559   1.612  2.1689 -0.2001  1.5809
  331SOL     OW  991   0.179   1.671   1.381  0.4376  0.4121  0.1600
  331SOL    HW1  992   0.150   1.655   1.285  0.0498  1.4489  0.8033
  331SOL    HW2  993   0.198   1.768   1.398 -0.1328  1.9245  0.3394
  332SOL     OW  994   0.607   0.192   1.250  0.1218  0.1253  0.0053
  332SOL    HW1  995   0.631   0.186   1.150 -0.2911  0.7960 -0.0329
  332SOL    HW2  996   0.559   0.104   1.274 -0.0217  0.1493 -2.2812
  333SOL     OW  997   2.060   2.514   2.113  0.4751 -1.1341 -0.7196
  333SOL    HW1  998   2.132   2.564   2.158 -0.6871  0.6600 -1.7161
  333SOL    HW2  999   1.969   2.562   2.110 -3.8364 -0.0658 -2.9274
  334SOL     OW 1000   1.216   1.212   1.271  0.4150 -0.2392 -0.6046
  334SOL    HW1 1001   1.130   1.249   1.236  1.1322  0.4790 -0.5366
  334SOL    HW2 1002   1.250   1.127   1.227  0.0826  0.9933 -2.6050
  335SOL     OW 1003   1.032   2.856   2.908  0.2085 -0.2758  0.7055
  335SOL    HW1 1004   0.970   2.938   2.900 -0.8012  1.6313 -0.1968
  335SOL    HW2 1005   1.070   2.827   2.818  4.1184 -0.3638 -0.2396
  336SOL     OW 1006   2.808   2.599   2.105 -0.2058  0.3105 -0.0605
  336SOL    HW1 1007   2.881   2.628   2.038 -0.4176 -0.4985 -1.1300
  336SOL    HW2 1008   2.778   2.504   2.075  0.4534 -1.6707 -2.2164
  337SOL     OW 1009   2.478   1.602   0.659  0.1875  0.3904  0.2171
  337SOL    HW1 1010   2.412   1.527   0.652  1.1660 -0.0770 -0.5366
  337SOL    HW2 1011   2.504   1.638   0.570 -0.4336  2.7574  0.8772
  338SOL     OW 1012   0.925   1.912   1.334 -0.2359  0.5485  0.0960
  338SOL    HW1 1013   1.013   1.940   1.286 -0.3114  1.7623  1.8368
  338SOL    HW2 1014   0.852   1.973   1.301  0.0080 -2.3505  2.1301
  339SOL     OW 1015   0.083   0.842   2.382 -0.0586 -0.2648  0.1834
  339SOL    HW1 1016   0.066   0.914   2.310 -0.0912  2.3578  1.4016
  339SOL    HW2 1017   0.100   0.891   2.471 -0.6083 -1.4252 -0.8673
  340SOL     OW 1018   1.491   2.785   1.257  0.5899  0.4894 -0.4127
  340SOL    HW1 1019   1.581   2.757   1.217  0.7235  0.2470  2.8576
  340SOL    HW2 1020   1.415   2.730   1.222  0.4264  1.5911 -2.2232
  341SOL     OW 1021   1.881   1.455   0.709 -0.0400 -0.2675  0.3165
  341SOL    HW1 1022   1.944   1.376   0.724 -1.2456 -0.8683  0.0786
  341SOL    HW2 1023   1.902   1.540   0.770  0.0445  0.3464  2.3907
  342SOL     OW 1024   0.489   1.303   0.741 -0.2826  0.0097  0.2538
  342SOL    HW1 1025   0.565   1.325   0.679 -2.2884  4.1886  0.3204
  342SOL    HW2 1026   0.424   1.379   0.754  0.2715 -1.1059  3.2549
  343SOL     OW 1027   2.350   0.563   1.362  0.1204  0.4705 -0.5212
  343SOL    HW1 1028   2.328   0.509   1.445 -1.5488 -0.4339  0.5234
  343SOL    HW2 1029   2.309   0.653   1.365 -2.7680  0.7830  2.5533
  344SOL     OW 1030   2.111   2.723   0.601  0.2204  0.3305 -0.1497
  344SOL    HW1 1031   2.133   2.650   0.532  1.1708 -2.4867 -0.9703
  344SOL    HW2 1032   2.177   2.714   0.680  0.0035  2.9297  1.4080
  345SOL     OW 1033   0.004   2.502   2.829 -0.5540  0.0621 -0.2023
  345SOL    HW1 1034   0.083   2.539   2.775 -0.2363 -1.6078 -1.8191
  345SOL    HW2 1035   0.028   2.419   2.882  0.0215  1.9178 -0.1056
  346SOL     OW 1036   2.941   0.771   0.415 -0.1074  0.8089 -0.2608
  346SOL    HW1 1037   3.020   0.832   0.412  1.2396 -0.2990 -1.0125
  346SOL    HW2 1038   2.859   0.816   0.378  1.9833 -4.1806  1.6190
  347SOL     OW 1039   1.721   2.722   1.158  0.4047  0.0000 -0.3405
  347SOL    HW1 1040   1.792   2.760   1.215 -0.1413 -0.0621 -5.4905
  347SOL    HW2 1041   1.746   2.720   1.060 -0.8738  2.8032  0.0467
  348SOL     OW 1042   1.372   1.541   2.550  0.2662  1.2320 -0.3264
  348SOL    HW1 1043   1.423   1.454   2.552  1.2379 -0.2442 -1.3323
  348SOL    HW2 1044   1.386   1.600   2.466 -0.6851  2.2053  2.2510
  349SOL     OW 1045   2.573   1.413   2.350  0.1199  0.3773  0.1661
  349SOL    HW1 1046   2.505   1.479   2.305 -2.0404 -0.9695  0.0121
  349SOL    HW2 1047   2.535   1.320   2.325 -2.1734  0.9095 -0.4648
  350SOL     OW 1048   0.291   1.981   1.055 -0.0493  0.2265 -0.6708
  350SOL    HW1 1049   0.284   1.910   1.125  0.3128  2.1472  0.0302
  350SOL    HW2 1050   0.198   2.019   1.043 -0.5889 -0.8360 -0.6709
  351SOL     OW 1051   0.945   0.387   2.321 -0.0151  0.0822 -0.0280
  351SOL    HW1 1052   0.961   0.382   2.422 -0.4072  1.1913 -0.3331
  351SOL    HW2 1053   0.881   0.458   2.288  0.1278  0.3792 -1.4679
  352SOL     OW 1054   0.891   2.702   1.961 -0.6009  0.0256 -0.0331
  352SOL    HW1 1055   0.860   2.744   2.049 -0.6310  0.5280 -1.0445
  352SOL    HW2 1056   0.886   2.765   1.879 -0.5738  1.1145 -0.3722
  353SOL     OW 1057   0.750   1.510   2.538  1.3281 -0.3313  0.6663
  353SOL    HW1 1058   0.714   1.439   2.480  3.5151  0.4593  1.5269
  353SOL    HW2 1059   0.683   1.586   2.552  1.2690  1.4057 -1.4687
  354SOL     OW 1060   1.898   1.129   0.533 -0.3754  0.3246 -0.2884
  354SOL    HW1 1061   1.802   1.169   0.529 -2.3908 -1.1997 -1.5363
  354SOL    HW2 1062   1.945   1.117   0.442 -1.3774  1.1823  0.5069
  355SOL     OW 1063   2.322   0.281   0.791 -0.5635 -0.7680 -0.3362
  355SOL    HW1 1064   2.345   0.193   0.828 -0.3037  2.1144 -0.3849
  355SOL    HW2 1065   2.352   0.278   0.692  0.3649  0.1583 -2.2632
  356SOL     OW 1066   0.090   1.211   2.451  0.2257  0.2159 -0.7271
  356SOL    HW1 1067   0.096   1.127   2.506 -0.7618  3.2636 -0.7632
  356SOL    HW2 1068   0.138   1.287   2.501  2.8217  1.3237  1.4821
  357SOL     OW 1069   0.044   2.902   1.621 -0.5626  0.2931 -0.3950
  357SOL    HW1 1070   0.051   2.888   1.720  0.7835 -1.0978 -2.3605
  357SOL    HW2 1071   0.000   2.823   1.569  0.8723  2.0261 -2.6416
  358SOL     OW 1072   2.987   1.429   2.738  0.4147 -0.3088 -0.2955
  358SOL    HW1 1073   3.033   1.492   2.802 -3.5268 -0.6911 -1.1952
  358SOL    HW2 1074   2.898   1.394   2.785 -0.1050  0.5778 -1.6074
  359SOL     OW 1075   2.669   2.547   2.578 -0.4046 -0.7532  0.0075
  359SOL    HW1 1076   2.664   2.626   2.638  0.4236  0.9573 -1.4287
  359SOL    HW2 1077   2.747   2.558   2.506  4.9428  0.9959  0.3134
  360SOL     OW 1078   1.286   1.200   0.965  0.5939  0.5013  0.1905
  360SOL    HW1 1079   1.338   1.119   1.013  2.0274 -5.2977  1.4299
  360SOL    HW2 1080   1.197   1.168   0.927  1.0732 -0.0384 -0.4546
  361SOL     OW 1081   2.100   2.394   1.048 -0.5607  0.4949  0.5193
  361SOL    HW1 1082   2.183   2.378   1.108 -0.8967  0.7771  0.0065
  361SOL    HW2 1083   2.097   2.489   1.015 -0.4857 -2.3878 -1.4946
  362SOL     OW 1084   1.781   1.226   0.953 -0.1986  0.4125 -0.1049
  362SOL    HW1 1085   1.865   1.284   0.962  3.1338  0.2247 -1.4822
  362SOL    HW2 1086   1.712   1.262   0.889  2.1571 -0.8064  2.9971
  363SOL     OW 1087   2.443   1.890   0.295 -0.1793  0.0517  1.0722
  363SOL    HW1 1088   2.518   1.948   0.272  0.8982  0.7249  0.5488
  363SOL    HW2 1089   2.478   1.798   0.316 -1.1764  2.6085 -1.1654
  364SOL     OW 1090   2.285   3.012   1.719 -0.2318  0.1003 -0.4353
  364SOL    HW1 1091   2.369   2.967   1.752 -2.3465  0.0402  0.3866
  364SOL    HW2 1092   2.278   3.108   1.760 -1.3997  0.6959  0.1425
  365SOL     OW 1093   3.055   2.689   1.430  0.1990 -0.0015 -0.2169
  365SOL    HW1 1094   2.976   2.627   1.452  0.2975  2.2527 -1.2743
  365SOL    HW2 1095   0.022   2.632   1.441 -3.7291 -2.8953  1.0173
  366SOL     OW 1096   0.008   1.319   3.106 -0.0494  0.5523 -0.3086
  366SOL    HW1 1097   0.048   1.280   3.017  0.2819 -1.3451 -0.4215
  366SOL    HW2 1098   3.066   1.246   0.028  0.0084  0.2778 -1.8458
  367SOL     OW 1099   2.421   2.657   2.963  0.0413 -0.1281  0.7486
  367SOL    HW1 1100   2.372   2.584   2.907 -2.8531 -1.8054 -0.0991
  367SOL    HW2 1101   2.411   2.635   3.061 -2.3681 -0.3390  1.6946
  368SOL     OW 1102   2.962   1.791   1.032  0.1012  0.1470  0.3278
  368SOL    HW1 1103   2.967   1.890   1.061  0.1950 -0.3423 -1.6925
  368SOL    HW2 1104   2.860   1.780   1.016 -0.3372 -1.8046  0.6973
  369SOL     OW 1105   0.708   0.440   0.627 -0.8980  0.2583  0.6375
  369SOL    HW1 1106   0.622   0.476   0.584 -0.5416  0.7748 -1.4858
  369SOL    HW2 1107   0.788   0.470   0.572 -2.8228  0.7816 -1.5442
  370SOL     OW 1108   0.623   0.350   0.875 -0.0189 -0.5177 -0.7267
  370SOL    HW1 1109   0.583   0.425   0.932 -3.2796 -1.3186  2.1443
  370SOL    HW2 1110   0.647   0.378   0.784 -0.7326  0.7027  1.8619
  371SOL     OW 1111   2.272   1.466   0.129 -0.4819 -0.2664  0.3284
  371SOL    HW1 1112   2.228   1.437   0.213 -0.8918  1.6058 -1.5889
  371SOL    HW2 1113   2.362   1.500   0.154 -0.0031 -1.1871 -0.6030
  372SOL     OW 1114   0.134   0.975   2.601 -0.0867 -0.2520  0.5199
  372SOL    HW1 1115   0.066   0.974   2.678  0.5966  0.9892  1.3430
  372SOL    HW2 1116   0.222   0.935   2.634  0.1873  0.9918 -0.8653
  373SOL     OW 1117   2.989   1.087   0.109 -0.0845 -0.2557  0.3628
  373SOL    HW1 1118   2.984   1.126   0.200 -2.4007 -1.6797 -2.5912
  373SOL    HW2 1119   2.931   1.005   0.111  1.3303 -1.4333 -0.2132
  374SOL     OW 1120   0.590   2.381   3.111  0.0899 -0.0843 -0.2340
  374SOL    HW1 1121   0.506   2.397   0.040  0.2563  3.9993  0.0312
  374SOL    HW2 1122   0.646   2.458   0.021 -0.7980 -2.1143  1.1264
  375SOL     OW 1123   1.391   0.283   0.243 -0.0197  0.2664 -0.4663
  375SOL    HW1 1124   1.334   0.332   0.176 -1.0764  1.4856  2.3751
  375SOL    HW2 1125   1.331   0.241   0.315 -0.8590 -0.9245 -1.3408
  376SOL     OW 1126   0.097   2.789   1.884  0.4220  0.0315  0.3051
  376SOL    HW1 1127   0.022   2.736   1.937 -0.8562 -2.4009  3.4127
  376SOL    HW2 1128   0.189   2.740   1.874 -0.6277 -1.0493 -0.7550
  377SOL     OW 1129   2.927   2.129   2.868 -0.2857 -0.7070 -0.0203
  377SOL    HW1 1130   2.879   2.219   2.853 -0.1844  0.9658  0.5235
  377SOL    HW2 1131   2.866   2.048   2.846  1.6207 -1.2403  0.2436
  378SOL     OW 1132   1.662   0.804   0.487  0.3453 -0.0353 -0.7504
  378SOL    HW1 1133   1.570   0.773   0.450 -1.3599  0.1030 -4.5079
  378SOL    HW2 1134   1.679   0.790   0.586 -1.1868 -0.6039  1.0503
  379SOL     OW 1135   1.336   1.549   0.502  0.3115 -0.0043  0.5078
  379SOL    HW1 1136   1.335   1.478   0.575 -0.7214 -2.3242  1.9395
  379SOL    HW2 1137   1.345   1.635   0.545  0.3528 -2.9560 -1.6696
  380SOL     OW 1138   2.132   2.295   1.803  0.0954  0.2426 -0.5348
  380SOL    HW1 1139   2.089   2.379   1.768 -0.7272 -1.3214 -1.7539
  380SOL    HW2 1140   2.174   2.305   1.897  0.3202 -1.0741 -1.2563
  381SOL     OW 1141   2.927   0.944   2.140  0.1066  0.1355  0.0961
  381SOL    HW1 1142   3.018   0.981   2.169  1.7819 -2.0430  1.9836
  381SOL    HW2 1143   2.899   1.000   2.060 -1.1689  0.2433 -2.3108
  382SOL     OW 1144   2.985   2.604   0.053 -0.0507  0.0271 -0.8262
  382SOL    HW1 1145   2.930   2.557   3.096  0.9047  0.9206  1.4825
  382SOL    HW2 1146   3.070   2.632   0.010  0.1687 -0.0417  2.3495
  383SOL     OW 1147   1.768   1.231   2.088  0.2857  0.1106 -0.0522
  383SOL    HW1 1148   1.853   1.283   2.067 -1.0785 -0.4520  1.2817
  383SOL    HW2 1149   1.685   1.284   2.070  0.7389 -0.9877 -0.5868
  384SOL     OW 1150   0.833   2.104   2.589 -0.1540 -0.0085  0.4688
  384SOL    HW1 1151   0.815   2.124   2.489  0.5300 -1.9914 -0.3574
  384SOL    HW2 1152   0.918   2.055   2.593 -1.4206 -2.2228 -2.5830
  385SOL     OW 1153   2.509   2.141   0.603  0.6522  0.3114  0.6165
  385SOL    HW1 1154   2.513   2.215   0.528  0.4581  1.5305 -3.2487
  385SOL    HW2 1155   2.434   2.069   0.576 -1.7344 -1.0173  1.4719
  386SOL     OW 1156   1.513   1.165   0.342  0.5052  0.1103  0.0803
  386SOL    HW1 1157   1.561   1.159   0.431 -2.4925  0.9881  1.2459
  386SOL    HW2 1158   1.439   1.095   0.348  0.9083 -2.0338 -1.2474
  387SOL     OW 1159   2.836   0.602   1.348 -0.6953  0.0621 -0.1141
  387SOL    HW1 1160   2.918   0.657   1.375 -2.2288  1.5130  0.6348
  387SOL    HW2 1161   2.844   0.505   1.379  2.0520 -2.7387  1.8970
  388SOL     OW 1162   2.805   1.007   1.324 -0.0958  0.2856  0.1552
  388SOL    HW1 1163   2.778   1.100   1.293  1.3058 -4.0045  1.0230
  388SOL    HW2 1164   2.904   0.986   1.302  1.5268  0.4852  0.4034
  389SOL     OW 1165   1.724   1.336   2.588  0.3048  0.2440 -0.8849
  389SOL    HW1 1166   1.772   1.290   2.668  0.4669 -0.2660 -0.5728
  389SOL    HW2 1167   1.787   1.385   2.525  1.3090  1.9604  0.2619
  390SOL     OW 1168   1.673   2.343   0.471 -0.0953 -0.4006  0.2167
  390SOL    HW1 1169   1.735   2.411   0.429 -0.7080  0.2752 -1.2481
  390SOL    HW2 1170   1.679   2.263   0.412 -0.9860  2.8173  1.1917
  391SOL     OW 1171   1.187   2.309   0.948 -0.1730  0.1987 -0.7732
  391SOL    HW1 1172   1.162   2.213   0.937  1.1114  1.9398  0.0903
  391SOL    HW2 1173   1.265   2.312   1.016 -0.5873  0.3657  0.4446
  392SOL     OW 1174   2.490   2.778   1.492  0.3897  0.1352 -0.1252
  392SOL    HW1 1175   2.479   2.699   1.433  0.2392  0.5604  0.3719
  392SOL    HW2 1176   2.572   2.833   1.459 -0.2760  1.1042 -1.1161
  393SOL     OW 1177   1.877   2.611   2.389 -0.0550 -0.4571 -0.1821
  393SOL    HW1 1178   1.899   2.679   2.316 -0.1343 -2.9978  1.6355
  393SOL    HW2 1179   1.785   2.638   2.430 -3.4642 -0.3334  0.2209
  394SOL     OW 1180   0.296   2.772   2.481  0.2348 -0.2947 -0.4850
  394SOL    HW1 1181   0.265   2.729   2.394 -1.5367 -0.0898  0.9829
  394SOL    HW2 1182   0.245   2.859   2.502 -1.8987 -0.4717  0.1094
  395SOL     OW 1183   0.252   1.067   1.180  0.0586 -0.7010 -0.4040
  395SOL    HW1 1184   0.306   1.108   1.099  1.1742 -0.1053 -1.1678
  395SOL    HW2 1185   0.169   1.123   1.202 -0.8126  3.8730  1.6161
  396SOL     OW 1186   2.108   1.077   2.632  0.1712  0.3524  0.3619
  396SOL    HW1 1187   2.127   1.178   2.613 -1.6785  0.6767 -0.1168
  396SOL    HW2 1188   2.201   1.040   2.667  2.4713 -0.5462  1.0203
  397SOL     OW 1189   2.920   0.693   2.635  0.4497 -0.2255 -0.3884
  397SOL    HW1 1190   2.982   0.719   2.714 -1.1692 -1.3713 -0.4427
  397SOL    HW2 1191   2.970   0.662   2.551  0.4209 -1.6652  0.7599
  398SOL     OW 1192   1.749   3.077   0.154 -0.0248 -0.2282  0.1596
  398SOL    HW1 1193   1.811   3.115   0.226  1.8327  0.0099 -0.3229
  398SOL    HW2 1194   1.710   2.988   0.183  5.6926  0.1527 -3.0162
  399SOL     OW 1195   2.189   2.292   2.056 -0.2876  0.4806 -0.4317
  399SOL    HW1 1196   2.171   2.213   2.115 -0.4559  2.0545 -2.0811
  399SOL    HW2 1197   2.120   2.361   2.078  1.0192 -0.4823 -0.5687
  400SOL     OW 1198   0.119   2.127   2.208  0.4989 -0.0361  0.0600
  400SOL    HW1 1199   0.117   2.024   2.227 -0.7885 -0.6911  0.0119
  400SOL    HW2 1200   0.101   2.146   2.108 -1.7736  2.2570 -1.1351
  401SOL     OW 1201   0.483   0.768   0.674 -0.6982 -0.6601  0.1580
  401SOL    HW1 1202   0.434   0.678   0.658  1.3985  0.3009  2.5413
  401SOL    HW2 1203   0.419   0.839   0.707  1.8716  0.3747  2.9665
  402SOL     OW 1204   0.787   2.846   2.166 -0.2949  0.0790 -0.0374
  402SOL    HW1 1205   0.829   2.907   2.242  1.1280  0.0059  0.1739
  402SOL    HW2 1206   0.726   2.907   2.111  1.6474  0.6820  1.9375
  403SOL     OW 1207   3.051   1.547   2.149 -0.7841 -0.0183  0.0099
  403SOL    HW1 1208   0.009   1.509   2.208  0.6721 -2.1800  2.1105
  403SOL    HW2 1209   2.959   1.507   2.179 -2.5898 -1.9967 -0.3300
  404SOL     OW 1210   3.011   2.005   2.435 -0.3903 -0.0303  0.5345
  404SOL    HW1 1211   3.093   2.067   2.436 -0.0583 -3.9178 -1.2472
  404SOL    HW2 1212   2.925   2.045   2.458  0.6421 -0.8073 -1.0553
  405SOL     OW 1213   2.312   0.031   2.569 -0.3994 -0.2043  0.6103
  405SOL    HW1 1214   2.231   0.090   2.551  0.4655 -2.1619  0.4690
  405SOL    HW2 1215   2.337   3.092   2.489  3.2401 -1.0557  0.0945
  406SOL     OW 1216   1.397   2.310   0.548  0.1886 -0.0522 -0.2455
  406SOL    HW1 1217   1.486   2.332   0.504  1.3258  0.7299  1.4688
  406SOL    HW2 1218   1.421   2.243   0.620 -0.9497 -1.5059  0.2205
  407SOL     OW 1219   1.714   1.363   0.299 -0.1770  1.3537  0.1823
  407SOL    HW1 1220   1.693   1.458   0.270  2.8246 -0.8471 -2.1931
  407SOL    HW2 1221   1.626   1.316   0.311 -1.3909 -0.0957  0.9223
  408SOL     OW 1222   0.134   0.864   1.936  0.0853  0.0110 -0.0261
  408SOL    HW1 1223   0.136   0.828   1.844 -3.9293  1.1710 -0.0709
  408SOL    HW2 1224   0.060   0.814   1.985 -1.6201 -0.3608  1.5606
  409SOL     OW 1225   2.754   1.304   2.861  0.2940 -0.1046  0.5931
  409SOL    HW1 1226   2.700   1.289   2.777 -2.2267 -0.0573  0.4481
  409SOL    HW2 1227   2.736   1.242   2.940 -1.0917  0.0226  1.1849
  410SOL     OW 1228   2.712   1.768   0.949  0.3670  0.3531  0.2086
  410SOL    HW1 1229   2.700   1.830   0.870 -0.3326 -1.2598  0.1593
  410SOL    HW2 1230   2.664   1.676   0.928  0.8792  1.4548  0.2487
  411SOL     OW 1231   2.975   0.477   0.499  0.1930  0.0524  0.0974
  411SOL    HW1 1232   3.000   0.576   0.495 -0.1362  2.8014  0.6799
  411SOL    HW2 1233   2.877   0.461   0.517  3.2465 -0.8557  0.1138
  412SOL     OW 1234   1.813   0.212   0.377 -0.5834 -0.1595  0.0762
  412SOL    HW1 1235   1.886   0.174   0.436  0.7632  0.9586  1.0354
  412SOL    HW2 1236   1.856   0.236   0.283  0.4214 -0.9342 -2.1077
  413SOL     OW 1237   1.184   0.368   1.841  1.0817  0.2318 -0.4514
  413SOL    HW1 1238   1.205   0.379   1.936 -1.6633 -0.4668 -0.2820
  413SOL    HW2 1239   1.214   0.273   1.815  1.2021 -2.9117  0.4614
  414SOL     OW 1240   0.517   1.028   0.192 -0.0043  0.8495 -0.2730
  414SOL    HW1 1241   0.419   1.043   0.166  0.8004  0.1135 -2.1569
  414SOL    HW2 1242   0.523   0.972   0.283 -0.6983 -0.7727  2.5284
  415SOL     OW 1243   2.989   1.192   0.378 -0.1352  0.1047 -0.2517
  415SOL    HW1 1244   3.089   1.221   0.358  0.3441  1.8533 -1.3479
  415SOL    HW2 1245   2.944   1.263   0.429  0.9616 -2.2449 -2.0165
  416SOL     OW 1246   2.401   0.782   0.169  0.3049 -0.0393  0.1246
  416SOL    HW1 1247   2.408   0.719   0.088  1.2063 -3.3762  0.4465
  416SOL    HW2 1248   2.495   0.798   0.206 -0.1248  1.1890  0.7359
  417SOL     OW 1249   2.913   2.822   0.196 -0.0861  0.0406  0.5985
  417SOL    HW1 1250   2.869   2.878   0.122 -2.0641 -2.2602 -2.0577
  417SOL    HW2 1251   2.954   2.738   0.155  2.3289  0.6961 -1.3789
  418SOL     OW 1252   3.024   0.581   0.167 -0.1641 -0.0147  0.3559
  418SOL    HW1 1253   2.986   0.621   0.254 -1.7214 -1.0109 -1.0276
  418SOL    HW2 1254   2.946   0.529   0.124  1.0138 -3.2617 -3.1170
  419SOL     OW 1255   0.744   0.744   0.811 -0.1923 -0.0102  0.0922
  419SOL    HW1 1256   0.664   0.724   0.755  1.8186  1.1880 -0.8048
  419SOL    HW2 1257   0.714   0.773   0.903 -0.1799  2.3637  0.5144
  420SOL     OW 1258   0.308   0.977   0.804  0.3253 -0.1484  0.0100
  420SOL    HW1 1259   0.216   0.943   0.842 -2.3132  0.4507  3.4119
  420SOL    HW2 1260   0.355   1.038   0.867  1.0951 -0.7520 -1.7843
  421SOL     OW 1261   0.339   1.911   0.529  0.1168  0.2763 -0.0442
  421SOL    HW1 1262   0.366   1.846   0.454 -0.0545  2.3493 -2.3113
  421SOL    HW2 1263   0.273   1.982   0.496 -0.7978  1.4051  0.9968
  422SOL     OW 1264   2.587   0.202   1.793  0.0352 -0.6099 -0.2386
  422SOL    HW1 1265   2.596   0.282   1.857 -0.4428 -0.3080  0.9594
  422SOL    HW2 1266   2.488   0.172   1.790 -1.2982 -3.6535  0.4697
  423SOL     OW 1267   1.881   1.754   0.205 -0.0920  0.1023  0.1709
  423SOL    HW1 1268   1.915   1.766   0.299 -0.7849  0.4508 -1.1678
  423SOL    HW2 1269   1.959   1.729   0.142  2.3023  0.9523 -0.3947
  424SOL     OW 1270   1.711   1.767   2.864  0.1189  0.6508 -0.0642
  424SOL    HW1 1271   1.703   1.686   2.803 -0.7659 -0.3057  1.6257
  424SOL    HW2 1272   1.808   1.780   2.887 -0.0096 -1.0651  1.7757
  425SOL     OW 1273   0.232   0.229   2.027 -0.0813  0.0391  0.3097
  425SOL    HW1 1274   0.217   0.133   2.001 -0.6842  0.0386  0.1456
  425SOL    HW2 1275   0.237   0.286   1.942  1.1287 -1.2698 -0.5940
  426SOL     OW 1276   2.199   2.855   0.121  0.2674  0.1263  0.2526
  426SOL    HW1 1277   2.118   2.817   0.175 -0.1420 -0.7751  0.3653
  426SOL    HW2 1278   2.166   2.886   0.026 -1.1370  2.7588  0.7963
  427SOL     OW 1279   0.482   1.720   2.477  0.1012 -0.6065 -0.1135
  427SOL    HW1 1280   0.532   1.752   2.391 -1.6348 -0.1809 -1.8520
  427SOL    HW2 1281   0.421   1.650   2.447 -0.2608  0.3738 -1.8871
  428SOL     OW 1282   2.196   1.573   2.659 -0.7397  0.6067 -0.6309
  428SOL    HW1 1283   2.194   1.504   2.580 -1.2631 -0.8811 -2.8848
  428SOL    HW2 1284   2.147   1.533   2.740 -1.4636  1.9910  1.4907
  429SOL     OW 1285   2.350   2.996   0.518 -0.2068 -0.6335  0.2643
  429SOL    HW1 1286   2.345   2.899   0.497 -0.7778  0.6636  0.0002
  429SOL    HW2 1287   2.449   3.032   0.520 -0.1824  1.1326  1.0782
  430SOL     OW 1288   1.763   1.760   1.975 -0.5347  0.0693  0.4735
  430SOL    HW1 1289   1.677   1.738   1.926 -0.1343 -1.6662 -1.5814
  430SOL    HW2 1290   1.766   1.853   2.009  0.5465 -0.7199 -0.3707
  431SOL     OW 1291   3.050   1.827   1.851  0.2740  0.6015  0.3820
  431SOL    HW1 1292   2.967   1.880   1.831 -0.1395 -2.0904  2.5813
  431SOL    HW2 1293   0.002   1.837   1.774 -0.1933  0.5697 -4.0934
  432SOL     OW 1294   1.239   2.380   2.280  0.8259  0.0117  0.9042
  432SOL    HW1 1295   1.148   2.352   2.238 -1.8956  0.6730 -0.1020
  432SOL    HW2 1296   1.309   2.305   2.253  0.0151 -1.1966 -2.0817
  433SOL     OW 1297   1.048   2.860   0.803  0.5623 -0.2161 -0.4434
  433SOL    HW1 1298   1.020   2.786   0.739  0.4370 -1.5546 -0.2910
  433SOL    HW2 1299   0.987   2.942   0.777  1.3304 -0.3409 -1.7435
  434SOL     OW 1300   0.361   2.135   2.339 -0.3969 -0.5557 -0.7662
  434SOL    HW1 1301   0.277   2.137   2.287  2.5784  2.1822  1.9731
  434SOL    HW2 1302   0.440   2.138   2.272 -1.6243  1.8240  2.9553
  435SOL     OW 1303   0.337   1.496   0.523 -0.0547 -0.1403 -0.6354
  435SOL    HW1 1304   0.257   1.528   0.468  1.1153  0.7232 -0.8651
  435SOL    HW2 1305   0.314   1.490   0.623  0.7962  1.4516  3.0038
  436SOL     OW 1306   0.637   2.145   1.875  0.4967 -0.5818 -0.3239
  436SOL    HW1 1307   0.553   2.085   1.876 -0.6676  3.7742  1.9781
  436SOL    HW2 1308   0.621   2.208   1.797 -2.2188 -0.9932 -0.8923
  437SOL     OW 1309   1.079   0.536   0.353  0.0376  0.1404  0.2002
  437SOL    HW1 1310   1.085   0.563   0.450  0.9021  0.4637 -1.8049
  437SOL    HW2 1311   1.146   0.586   0.295 -1.4017 -0.2826  0.5205
  438SOL     OW 1312   0.467   2.120   0.912 -0.2137  0.4155 -0.2883
  438SOL    HW1 1313   0.407   2.059   0.966  1.2829 -1.3583 -0.0778
  438SOL    HW2 1314   0.535   2.059   0.867 -0.7829 -2.4205 -1.6013
  439SOL     OW 1315   1.212   2.355   1.884 -0.4838  0.1395  0.3981
  439SOL    HW1 1316   1.151   2.296   1.830 -0.3532  0.9180  0.9375
  439SOL    HW2 1317   1.164   2.423   1.946  0.0719 -0.8479  2.6129
  440SOL     OW 1318   1.588   0.221   1.518 -0.8822  0.1171 -0.0630
  440SOL    HW1 1319   1.584   0.254   1.617  1.2217  0.0388  2.5329
  440SOL    HW2 1320   1.653   0.274   1.465 -1.8824  1.1913 -1.3528
  441SOL     OW 1321   0.459   3.093   1.385  0.1603 -0.0206  0.8896
  441SOL    HW1 1322   0.429   0.043   1.458 -0.3240  2.7308  1.0787
  441SOL    HW2 1323   0.543   3.039   1.414  1.4590 -0.7622  0.8641
  442SOL     OW 1324   2.056   2.069   0.429 -0.5199  0.4176  0.0789
  442SOL    HW1 1325   2.039   1.970   0.433 -1.8202 -1.7319  1.4358
  442SOL    HW2 1326   2.074   2.105   0.334  0.2678 -0.9419 -1.5750
  443SOL     OW 1327   2.707   0.314   2.512  0.0185  0.3085 -0.2421
  443SOL    HW1 1328   2.605   0.303   2.518 -1.5032 -2.4120 -1.2150
  443SOL    HW2 1329   2.737   0.394   2.449 -1.2141  5.4908 -3.5735
  444SOL     OW 1330   2.227   1.341   2.230  1.0142 -0.5677 -0.2358
  444SOL    HW1 1331   2.186   1.255   2.258  2.1583  0.9506 -2.3044
  444SOL    HW2 1332   2.286   1.321   2.151 -2.6140 -0.3863  0.3221
  445SOL     OW 1333   2.639   2.128   1.466 -0.0435 -0.0423  0.7936
  445SOL    HW1 1334   2.537   2.111   1.463  0.1549  1.8908 -1.3566
  445SOL    HW2 1335   2.688   2.039   1.469 -2.1536  1.5656  1.8061
  446SOL     OW 1336   0.019   0.968   0.534  0.0768 -0.4011  0.2523
  446SOL    HW1 1337   0.110   1.007   0.568 -1.0467  1.0031 -0.5128
  446SOL    HW2 1338   3.056   1.032   0.561 -3.8146  2.7909  1.1457
  447SOL     OW 1339   0.731   1.588   0.965 -0.2283 -0.1736 -0.0917
  447SOL    HW1 1340   0.811   1.523   0.966  0.8195  0.0225  0.9615
  447SOL    HW2 1341   0.712   1.634   0.874 -1.6366 -0.7086 -1.5227
  448SOL     OW 1342   1.495   1.264   1.990  0.7003 -0.4058 -0.1914
  448SOL    HW1 1343   1.453   1.263   1.891 -1.9560  0.4313 -1.6108
  448SOL    HW2 1344   1.432   1.204   2.052  0.4514 -0.8984 -0.5506
  449SOL     OW 1345   0.312   1.653   0.165  0.1134  0.2053  0.1412
  449SOL    HW1 1346   0.214   1.622   0.159 -2.0081 -1.5554  0.7533
  449SOL    HW2 1347   0.332   1.703   0.076 -1.2534  0.0769 -0.1803
  450SOL     OW 1348   2.675   2.356   2.043 -0.0714 -0.3422  0.3239
  450SOL    HW1 1349   2.581   2.386   2.013 -0.7793  1.7352 -0.1238
  450SOL    HW2 1350   2.682   2.278   2.107  1.2950 -1.0318  2.2304
  451SOL     OW 1351   2.117   0.372   2.178 -0.1983  0.0926  0.1971
  451SOL    HW1 1352   2.121   0.425   2.266  1.6951  3.2120  1.5091
  451SOL    HW2 1353   2.025   0.359   2.143  0.3065  1.5395 -1.5487
  452SOL     OW 1354   1.014   0.030   1.254 -0.1103  0.0850 -0.3899
  452SOL    HW1 1355   1.021   3.049   1.270 -0.6721 -1.5717 -0.2201
  452SOL    HW2 1356   0.940   0.074   1.311  0.2751  2.3254 -0.6658
  453SOL     OW 1357   1.018   1.337   1.155 -0.5616  0.6689 -0.2512
  453SOL    HW1 1358   0.984   1.279   1.079  1.8713 -0.2488  1.0344
  453SOL    HW2 1359   0.959   1.415   1.167  2.8825  0.7972  0.2361
  454SOL     OW 1360   0.034   1.167   0.744 -0.0034 -0.1750  0.6564
  454SOL    HW1 1361   0.029   1.066   0.769  2.4453  3.5759 -0.3824
  454SOL    HW2 1362   0.112   1.184   0.676 -0.3337 -1.8127  0.3809
  455SOL     OW 1363   0.039   2.891   0.322 -0.8613  0.2504 -0.0624
  455SOL    HW1 1364   3.070   2.859   0.280  0.1140 -0.7744 -0.1308
  455SOL    HW2 1365   0.111   2.878   0.254 -1.8387  0.3386  2.0802
  456SOL     OW 1366   2.055   2.306   0.775 -0.5518 -0.7698 -0.6371
  456SOL    HW1 1367   2.081   2.324   0.873 -0.9327 -0.5408  1.2070
  456SOL    HW2 1368   2.022   2.209   0.766  0.2242  1.1377  0.6840
  457SOL     OW 1369   1.556   0.139   0.065 -0.8950  0.4447 -0.0428
  457SOL    HW1 1370   1.637   0.083   0.099 -1.6524 -1.7757  2.7960
  457SOL    HW2 1371   1.521   0.202   0.137 -1.1037 -0.2434 -1.1896
  458SOL     OW 1372   2.764   2.899   0.392  0.1279  0.2837 -0.2191
  458SOL    HW1 1373   2.805   2.856   0.478  1.4839 -0.8968 -1.2877
  458SOL    HW2 1374   2.806   2.868   0.303  0.7300  0.8200  0.3616
  459SOL     OW 1375   2.086   0.288   2.646  0.2440  0.9141 -0.1894
  459SOL    HW1 1376   2.015   0.248   2.584 -0.4524  0.1590 -1.3113
  459SOL    HW2 1377   2.054   0.291   2.745 -1.8590  2.6259  1.1125
  460SOL     OW 1378   2.946   0.119   3.088  0.2469  0.0518  0.2382
  460SOL    HW1 1379   2.996   0.156   0.053  0.3857 -0.2678  1.6937
  460SOL    HW2 1380   2.917   0.023   3.104  1.2246  0.2051 -0.3140
  461SOL     OW 1381   0.580   1.356   1.228 -0.0052  0.1938 -0.6784
  461SOL    HW1 1382   0.519   1.337   1.308  2.9283 -0.8888 -1.0828
  461SOL    HW2 1383   0.589   1.458   1.215  0.5432 -0.5940 -0.1215
  462SOL     OW 1384   2.796   2.850   1.804 -0.3128 -0.3085  0.6140
  462SOL    HW1 1385   2.847   2.761   1.784  2.2847 -0.7201 -1.2809
  462SOL    HW2 1386   2.828   2.898   1.889 -2.2534 -0.5152 -0.8033
  463SOL     OW 1387   2.583   1.205   3.044 -0.4991 -0.2347 -0.1193
  463SOL    HW1 1388   2.559   1.196   0.024  0.0200 -0.9321 -2.1394
  463SOL    HW2 1389   2.612   1.115   3.010  0.3753 -1.2513 -0.5707
  464SOL     OW 1390   0.061   2.534   1.141  0.0158  0.3692 -0.4488
  464SOL    HW1 1391   0.113   2.458   1.186 -2.8984  2.8779  1.7062
  464SOL    HW2 1392   0.092   2.620   1.186  0.0941  1.1554  1.8892
  465SOL     OW 1393   0.269   1.105   0.579 -0.2066  0.2144  0.2682
  465SOL    HW1 1394   0.343   1.160   0.535  1.0347  2.7518 -2.3212
  465SOL    HW2 1395   0.303   1.065   0.667 -2.3850  1.0701 -1.0025
  466SOL     OW 1396   1.584   0.043   2.116  0.0545 -0.0946 -0.2890
  466SOL    HW1 1397   1.508   3.096   2.110  1.1575  1.4098  0.2817
  466SOL    HW2 1398   1.607   0.060   2.211 -0.0154 -0.0007  0.9657
  467SOL     OW 1399   0.794   0.559   2.204  0.2849 -0.0066  0.0422
  467SOL    HW1 1400   0.775   0.549   2.104  2.8737  0.1513 -3.1713
  467SOL    HW2 1401   0.732   0.631   2.247  0.6590  0.4070  3.5788
  468SOL     OW 1402   0.040   1.068   2.200  0.2239 -0.2952  0.2308
  468SOL    HW1 1403   0.063   1.134   2.270 -0.3293 -0.7939 -0.3183
  468SOL    HW2 1404   0.107   1.053   2.126 -1.6748 -0.3315 -0.4679
  469SOL     OW 1405   0.265   1.806   0.785  0.2141  0.0418  0.1736
  469SOL    HW1 1406   0.293   1.847   0.694 -0.7044  1.9798  1.2161
  469SOL    HW2 1407   0.278   1.866   0.863 -3.9410 -0.6572 -4.9003
  470SOL     OW 1408   2.809   1.786   2.485  0.2303  0.2903  0.2769
  470SOL    HW1 1409   2.879   1.857   2.469 -0.1517  1.4079 -1.9069
  470SOL    HW2 1410   2.718   1.809   2.447  1.7768 -0.5451  0.2974
  471SOL     OW 1411   1.590   0.937   2.086  0.2344  0.1031 -0.0365
  471SOL    HW1 1412   1.667   0.875   2.117  1.0753  1.0521  1.4220
  471SOL    HW2 1413   1.620   1.032   2.087 -2.2179 -1.2466 -0.8759
  472SOL     OW 1414   0.788   2.754   1.276  0.3921 -0.1456 -0.0574
  472SOL    HW1 1415   0.824   2.655   1.279 -2.0455 -0.6357  1.5004
  472SOL    HW2 1416   0.757   2.782   1.182 -1.3296  0.9094  0.6583
  473SOL     OW 1417   0.694   0.178   2.601 -0.0501  0.1478 -0.4663
  473SOL    HW1 1418   0.702   0.205   2.506  1.1603  0.1571 -0.1081
  473SOL    HW2 1419   0.657   0.083   2.602 -0.7224  2.1065 -0.6141
  474SOL     OW 1420   1.724   3.108   1.331  0.2568 -0.4932 -0.1836
  474SOL    HW1 1421   1.644   0.054   1.318 -2.0846  1.9180  1.1320
  474SOL    HW2 1422   1.803   0.040   1.292 -0.1184  1.6362 -3.8962
  475SOL     OW 1423   1.955   0.399   1.073 -0.3199  0.0626  0.2894
  475SOL    HW1 1424   1.900   0.472   1.031 -0.5198  2.1710 -1.6914
  475SOL    HW2 1425   2.044   0.440   1.100 -0.7510  2.9611 -1.0780
  476SOL     OW 1426   0.636   0.802   1.065 -0.3626 -0.3606  0.4185
  476SOL    HW1 1427   0.589   0.892   1.053  1.6010 -2.7062  0.9239
  476SOL    HW2 1428   0.599   0.762   1.151 -0.5389 -0.7435 -1.4781
  477SOL     OW 1429   1.263   2.658   0.354  0.4919 -0.3622 -0.1344
  477SOL    HW1 1430   1.208   2.709   0.284  1.9931 -2.2161  0.9799
  477SOL    HW2 1431   1.319   2.723   0.412 -1.1296  3.5309  1.2729
  478SOL     OW 1432   0.271   2.402   2.487  0.3871 -0.1862 -0.3707
  478SOL    HW1 1433   0.337   2.470   2.524  1.0909 -1.2907 -1.4532
  478SOL    HW2 1434   0.325   2.317   2.462  2.0616 -2.5483  1.6521
  479SOL     OW 1435   2.712   0.021   1.302 -0.3416  0.3959 -0.1942
  479SOL    HW1 1436   2.686   0.031   1.400 -1.6794 -0.1998  3.0173
  479SOL    HW2 1437   2.641   0.060   1.241 -1.8313  1.0392 -2.4952
  480SOL     OW 1438   0.507   2.343   0.511  0.3767 -0.3150  0.5903
  480SOL    HW1 1439   0.593   2.368   0.464  0.7200  0.0147  1.9941
  480SOL    HW2 1440   0.424   2.373   0.458 -0.3563  0.8447  0.0778
  481SOL     OW 1441   1.930   2.142   1.296 -0.0984 -0.0169  0.5292
  481SOL    HW1 1442   1.942   2.185   1.391 -0.5389  1.0277 -2.8861
  481SOL    HW2 1443   1.906   2.206   1.221 -1.0395 -2.4247  0.7651
  482SOL     OW 1444   1.082   2.383   3.024  0.6335  0.0082 -0.0587
  482SOL    HW1 1445   1.163   2.322   3.027  3.8456  0.3803  0.1254
  482SOL    HW2 1446   1.003   2.329   3.065 -3.3080 -2.7668 -0.1930
  483SOL     OW 1447   1.022   2.266   2.147 -0.2226  0.4675 -0.3043
  483SOL    HW1 1448   1.033   2.366   2.134 -2.1038 -0.0843  1.2826
  483SOL    HW2 1449   0.955   2.226   2.082  0.7187 -2.2307 -0.5416
  484SOL     OW 1450   0.965   0.720   1.501  0.0014 -0.0066  1.2788
  484SOL    HW1 1451   1.017   0.644   1.537 -1.7688 -1.1347  2.7477
  484SOL    HW2 1452   0.968   0.733   1.399 -0.6234 -1.4951  0.9562
  485SOL     OW 1453   1.641   0.609   2.776 -0.1617  0.0820  0.2497
  485SOL    HW1 1454   1.706   0.690   2.782  2.8751  3.3251  0.6572
  485SOL    HW2 1455   1.623   0.591   2.677 -0.9001  1.6879  1.3951
  486SOL     OW 1456   2.443   2.591   1.060 -0.1442 -0.0857  0.6456
  486SOL    HW1 1457   2.405   2.532   0.991 -3.2217  1.2737  1.8389
  486SOL    HW2 1458   2.449   2.690   1.037 -1.6915 -2.6649 -1.2477
  487SOL     OW 1459   0.691   2.293   1.332  0.5928 -0.1707 -0.0978
  487SOL    HW1 1460   0.760   2.362   1.369 -0.6084 -0.4340  3.1009
  487SOL    HW2 1461   0.666   2.236   1.412 -1.5091  1.1945 -0.5392
  488SOL     OW 1462   2.289   1.917   0.089 -0.1396 -0.3295 -0.2576
  488SOL    HW1 1463   2.347   1.910   0.174  2.6705  1.9469 -1.1007
  488SOL    HW2 1464   2.336   1.944   0.003 -0.9967 -0.1160  1.0950
  489SOL     OW 1465   2.062   3.066   1.023  0.8587 -0.4232  0.2005
  489SOL    HW1 1466   2.116   3.081   0.941 -1.5178  0.4383  1.9159
  489SOL    HW2 1467   2.094   2.987   1.085  1.4900 -2.7929  0.7167
  490SOL     OW 1468   0.987   1.492   0.334  0.1276 -0.2898  0.5058
  490SOL    HW1 1469   0.994   1.581   0.384 -0.5617  1.3062  2.2146
  490SOL    HW2 1470   1.016   1.506   0.242  0.4641 -2.6788  1.6586
  491SOL     OW 1471   0.161   2.155   1.390  0.0757  0.1313 -0.5679
  491SOL    HW1 1472   0.079   2.208   1.419 -0.8066 -0.3442 -0.6769
  491SOL    HW2 1473   0.235   2.170   1.458  1.6678  1.8901 -1.5923
  492SOL     OW 1474   0.837   1.600   1.731  0.2262 -0.0192 -0.7438
  492SOL    HW1 1475   0.892   1.520   1.702 -0.1450 -4.2192 -2.0461
  492SOL    HW2 1476   0.860   1.679   1.666 -0.1464  0.2277 -0.3453
  493SOL     OW 1477   2.787   2.207   0.934  0.0929 -0.2588 -0.1806
  493SOL    HW1 1478   2.764   2.130   0.867  1.4299  1.1704 -1.1527
  493SOL    HW2 1479   2.837   2.176   1.015  3.9822 -1.4613  0.9082
  494SOL     OW 1480   2.692   1.994   0.759 -0.6126  0.3469 -0.5814
  494SOL    HW1 1481   2.627   2.033   0.691 -1.3861 -2.1724  2.2582
  494SOL    HW2 1482   2.768   1.946   0.711 -0.0566  0.9375  0.2952
  495SOL     OW 1483   2.830   2.990   3.099 -0.6881  0.0677 -0.2794
  495SOL    HW1 1484   2.909   2.948   3.048  1.3660  2.0970 -3.8595
  495SOL    HW2 1485   2.748   3.009   3.038 -3.8410 -0.2263 -3.9012
  496SOL     OW 1486   2.425   2.871   1.024  0.5222 -0.3956  0.2967
  496SOL    HW1 1487   2.399   2.953   0.963 -1.4709  1.2502  0.3808
  496SOL    HW2 1488   2.518   2.880   1.066  1.8370  0.9800  1.3734
  497SOL     OW 1489   2.503   1.239   2.665  0.3898 -0.2218 -0.3951
  497SOL    HW1 1490   2.574   1.276   2.604  0.5384  2.0649 -0.2778
  497SOL    HW2 1491   2.481   1.309   2.732  3.0931  0.4742 -5.6215
  498SOL     OW 1492   2.884   2.136   1.169  0.2177 -0.4555 -0.0141
  498SOL    HW1 1493   2.939   2.207   1.218 -1.5499 -0.1216 -0.0685
  498SOL    HW2 1494   2.790   2.129   1.212 -2.8866  0.9079 -1.5028
  499SOL     OW 1495   0.831   2.388   2.681 -0.5691  0.2188 -0.1764
  499SOL    HW1 1496   0.826   2.286   2.660  0.2196 -3.1427  0.2810
  499SOL    HW2 1497   0.927   2.418   2.694  2.1500 -1.0451  0.8556
  500SOL     OW 1498   1.799   0.923   0.279  0.8879  0.3414 -0.4102
  500SOL    HW1 1499   1.783   1.024   0.282 -1.3172 -1.4172 -1.4160
  500SOL    HW2 1500   1.741   0.863   0.340  0.4579  0.4897  0.5568
  501SOL     OW 1501   1.573   0.278   1.775  0.1525 -0.8351  0.3663
  501SOL    HW1 1502   1.541   0.357   1.830 -1.5869 -2.0580 -0.5994
  501SOL    HW2 1503   1.568   0.193   1.829  0.0681 -0.7574 -0.3740
  502SOL     OW 1504   2.607   0.745   1.546  0.5407  0.0613  0.3993
  502SOL    HW1 1505   2.518   0.759   1.501 -1.7010  2.2666  0.8157
  502SOL    HW2 1506   2.688   0.762   1.490  1.6303 -0.0352 -1.4917
  503SOL     OW 1507   2.408   1.587   2.230  0.0322 -0.0014 -0.8107
  503SOL    HW1 1508   2.309   1.591   2.188 -4.6939 -0.3238 -0.8706
  503SOL    HW2 1509   2.469   1.566   2.150  0.5125 -1.4837 -0.6538
  504SOL     OW 1510   1.388   1.246   1.750 -0.4987  0.2685 -0.1829
  504SOL    HW1 1511   1.442   1.263   1.664  0.3577  0.4405 -2.5217
  504SOL    HW2 1512   1.298   1.195   1.733 -2.1946  3.0565 -0.5926
  505SOL     OW 1513   0.417   0.565   1.670 -0.1079  0.0394  0.1841
  505SOL    HW1 1514   0.374   0.597   1.586 -1.8745 -1.7284  0.8218
  505SOL    HW2 1515   0.439   0.646   1.729 -0.6200 -0.0423  2.0940
  506SOL     OW 1516   0.516   0.439   3.006  0.2039 -0.2298 -0.7093
  506SOL    HW1 1517   0.465   0.529   3.030 -1.0285  1.6760  0.8373
  506SOL    HW2 1518   0.529   0.438   2.905  1.8441  0.7740  1.8233
  507SOL     OW 1519   0.805   0.046   0.101  0.7315  0.6181  0.4375
  507SOL    HW1 1520   0.743   0.041   0.022 -0.1187  0.0536  1.4296
  507SOL    HW2 1521   0.805   0.133   0.150 -2.3238  0.4793  0.9015
  508SOL     OW 1522   0.893   0.669   1.940  0.1239 -0.4354  0.1430
  508SOL    HW1 1523   0.800   0.635   1.945  1.3887 -0.2892 -1.0064
  508SOL    HW2 1524   0.907   0.743   2.011 -0.1745 -2.7248 -1.2210
  509SOL     OW 1525   1.439   2.241   1.090  0.1180 -0.4823 -0.3117
  509SOL    HW1 1526   1.467   2.267   1.187 -0.7439 -1.4002 -1.2345
  509SOL    HW2 1527   1.508   2.289   1.031 -0.6198  0.2682 -2.5040
  510SOL     OW 1528   2.841   1.363   1.516 -0.4441 -0.4909 -0.1002
  510SOL    HW1 1529   2.801   1.458   1.533 -1.5393  0.2676 -1.5637
  510SOL    HW2 1530   2.830   1.337   1.418  0.1724 -2.8270  0.6158
  511SOL     OW 1531   1.157   1.982   1.242 -0.0431 -0.0005  0.6620
  511SOL    HW1 1532   1.250   2.013   1.273  0.4908  0.1416 -1.1313
  511SOL    HW2 1533   1.151   1.997   1.142  2.2870  0.9374  0.2138
  512SOL     OW 1534   2.970   1.604   0.541 -0.1851  0.3595  0.0968
  512SOL    HW1 1535   2.931   1.511   0.525 -2.0858 -1.1770 -1.4931
  512SOL    HW2 1536   2.939   1.671   0.474  2.1250 -1.6589  2.7812
  513SOL     OW 1537   0.012   1.675   2.862  0.1186 -0.3960 -0.3049
  513SOL    HW1 1538   0.065   1.731   2.798  0.5127  0.7623  2.4050
  513SOL    HW2 1539   0.026   1.714   2.959 -0.1079 -1.0282  0.0959
  514SOL     OW 1540   2.301   2.314   2.606  0.0150 -0.1025  0.0888
  514SOL    HW1 1541   2.246   2.234   2.645 -0.7107 -1.7229 -1.5603
  514SOL    HW2 1542   2.253   2.351   2.525  2.0718  0.1989  2.6817
  515SOL     OW 1543   2.397   0.872   0.676  0.5670 -0.4332 -0.4688
  515SOL    HW1 1544   2.385   0.832   0.774  1.1642 -2.6743  4.4092
  515SOL    HW2 1545   2.482   0.838   0.634  0.2048  0.6369  0.0811
  516SOL     OW 1546   2.582   2.240   0.008 -0.4901  0.2166  0.3322
  516SOL    HW1 1547   2.496   2.274   0.057 -2.9257 -0.5217  0.8830
  516SOL    HW2 1548   2.603   2.288   3.036  3.0036 -1.5793  0.3631
  517SOL     OW 1549   0.557   1.462   2.754 -0.0599 -0.2281  0.2262
  517SOL    HW1 1550   0.631   1.521   2.781  1.3201 -0.7365 -0.0268
  517SOL    HW2 1551   0.468   1.495   2.792 -0.0654 -2.7014 -2.9626
  518SOL     OW 1552   2.909   0.088   2.451 -0.1111 -0.1907 -0.6955
  518SOL    HW1 1553   2.838   0.149   2.491 -0.4989  4.3255 -1.7962
  518SOL    HW2 1554   2.887   3.107   2.472 -2.1741 -2.4375  1.5098
  519SOL     OW 1555   1.747   1.230   3.013 -0.2575 -0.2179 -0.2367
  519SOL    HW1 1556   1.681   1.152   3.022 -2.5607 -2.0380 -2.7027
  519SOL    HW2 1557   1.696   1.312   3.050 -0.6692  1.7564  1.7501
  520SOL     OW 1558   2.877   2.927   2.455  0.0172  0.0476  0.0697
  520SOL    HW1 1559   2.780   2.899   2.440  0.8517  0.0807 -3.5315
  520SOL    HW2 1560   2.910   2.880   2.545  1.0247  0.1358  1.7516
  521SOL     OW 1561   0.681   1.839   2.292  0.3516  0.0409  0.3712
  521SOL    HW1 1562   0.748   1.790   2.241 -1.3449  0.2155  1.3273
  521SOL    HW2 1563   0.735   1.887   2.360 -0.9287 -1.0785 -2.3649
  522SOL     OW 1564   1.128   2.931   2.050 -0.2655 -0.0890 -0.0524
  522SOL    HW1 1565   1.086   2.894   2.137  1.4825  2.5563  2.0824
  522SOL    HW2 1566   1.152   2.855   1.985 -0.3429 -0.1745  0.9143
  523SOL     OW 1567   2.231   2.132   1.016 -0.0447 -0.2984 -0.3868
  523SOL    HW1 1568   2.290   2.087   0.950  0.6098 -1.1870  1.2458
  523SOL    HW2 1569   2.282   2.210   1.053  1.0731 -0.4505  0.9998
  524SOL     OW 1570   1.203   2.064   0.687 -0.6045 -0.1585 -0.4048
  524SOL    HW1 1571   1.267   2.140   0.666  1.9999  0.6462 -0.4602
  524SOL    HW2 1572   1.109   2.086   0.669  1.9124 -1.3575  0.6791
  525SOL     OW 1573   2.734   0.617   0.780  0.2971 -0.2349  0.3200
  525SOL    HW1 1574   2.677   0.530   0.777 -0.0752 -0.8188  0.3672
  525SOL    HW2 1575   2.724   0.650   0.877 -2.1330 -0.8266 -1.5203
  526SOL     OW 1576   1.768   3.006   0.808  0.1027 -0.3098 -0.0764
  526SOL    HW1 1577   1.676   2.963   0.795  0.6374 -2.3694  0.5480
  526SOL    HW2 1578   1.760   3.066   0.888  1.0549 -0.5099  2.0419
  527SOL     OW 1579   1.909   1.683   0.873 -0.8740  0.0668  0.5672
  527SOL    HW1 1580   1.836   1.734   0.922  1.1752 -0.6873  1.2659
  527SOL    HW2 1581   1.997   1.732   0.870  0.6608 -3.2751  0.7473
  528SOL     OW 1582   3.033   2.825   2.669 -0.0443 -0.4477 -0.1006
  528SOL    HW1 1583   3.071   2.760   2.600 -0.7331  1.6560  0.5961
  528SOL    HW2 1584   3.097   2.874   2.725 -0.6396  1.5864  2.2484
  529SOL     OW 1585   1.165   1.283   2.723  0.0725  0.3369  0.7378
  529SOL    HW1 1586   1.209   1.347   2.786 -0.2196  0.6284 -0.3000
  529SOL    HW2 1587   1.075   1.315   2.691 -0.1721  0.2400  2.3925
  530SOL     OW 1588   2.018   1.249   2.394  0.0974  0.0126 -0.1711
  530SOL    HW1 1589   1.975   1.340   2.399 -0.0748  0.7128  2.2087
  530SOL    HW2 1590   1.941   1.182   2.390 -1.2400  0.0506  0.4123
  531SOL     OW 1591   0.363   0.955   3.016  0.0352  0.5079 -0.4293
  531SOL    HW1 1592   0.421   1.041   3.018 -0.0062  0.0157 -1.6245
  531SOL    HW2 1593   0.276   0.976   3.069  0.9583  1.7613 -0.8588
  532SOL     OW 1594   1.642   1.228   0.595 -0.0986  0.1199 -0.2837
  532SOL    HW1 1595   1.573   1.170   0.645  1.6799  0.2799  3.2419
  532SOL    HW2 1596   1.628   1.326   0.614 -1.8450 -3.0296 -2.1983
  533SOL     OW 1597   0.134   0.394   2.340  0.0566 -0.1229  0.3703
  533SOL    HW1 1598   0.165   0.330   2.411  0.9027  0.8084 -2.9644
  533SOL    HW2 1599   0.214   0.451   2.307 -0.0998  0.7339 -0.2254
  534SOL     OW 1600   1.264   0.561   2.541  0.0493  0.2884 -0.1937
  534SOL    HW1 1601   1.197   0.525   2.609 -1.5864  0.6286  1.8905
  534SOL    HW2 1602   1.233   0.654   2.516  0.8591 -0.9598  2.7727
  535SOL     OW 1603   0.686   0.437   0.125  0.2143 -0.4983 -0.4137
  535SOL    HW1 1604   0.691   0.520   0.181 -1.4384 -1.3758  1.2657
  535SOL    HW2 1605   0.658   0.463   0.031  2.9323 -2.1663  1.9775
  536SOL     OW 1606   0.728   0.663   3.005 -0.4022  0.2635 -0.4946
  536SOL    HW1 1607   0.726   0.698   2.909 -0.5506 -0.7416  0.8567
  536SOL    HW2 1608   0.819   0.628   3.032 -0.4412 -0.8835  1.9049
  537SOL     OW 1609   1.360   0.073   1.466 -0.0325  0.3697  0.3200
  537SOL    HW1 1610   1.331   0.056   1.368  1.1360 -0.4847 -2.8399
  537SOL    HW2 1611   1.447   0.125   1.480  1.9421  0.9108 -0.1268
  538SOL     OW 1612   0.456   2.759   0.076 -0.3296 -0.5625  0.3854
  538SOL    HW1 1613   0.520   2.754   3.112  1.2700  1.7806 -0.5117
  538SOL    HW2 1614   0.430   2.661   0.098  0.9084 -1.4683  0.3337
  539SOL     OW 1615   2.938   1.277   1.764  0.0899  0.2520 -0.4636
  539SOL    HW1 1616   2.886   1.287   1.678 -3.0045 -1.9064 -0.9172
  539SOL    HW2 1617   2.958   1.369   1.803 -1.3760 -0.7056 -3.0292
  540SOL     OW 1618   1.791   1.525   1.422 -0.3335 -0.2422  0.2980
  540SOL    HW1 1619   1.776   1.432   1.376 -0.4195 -1.7689 -2.8955
  540SOL    HW2 1620   1.707   1.580   1.404  1.2291 -0.8536 -1.3323
  541SOL     OW 1621   0.576   2.138   1.541 -0.1324  0.5481 -0.5146
  541SOL    HW1 1622   0.478   2.133   1.558  1.6030  0.5989 -1.2580
  541SOL    HW2 1623   0.612   2.046   1.513 -0.1477  1.8943 -1.4523
  542SOL     OW 1624   2.151   1.035   1.969  0.5671  0.0122  0.6508
  542SOL    HW1 1625   2.058   1.066   1.929 -1.6963 -1.0199 -1.3888
  542SOL    HW2 1626   2.144   0.958   2.027 -0.2626  2.9709  0.6581
  543SOL     OW 1627   1.075   0.661   0.618 -0.2850 -0.2044  0.6521
  543SOL    HW1 1628   1.027   0.752   0.613 -0.6424  2.0096  0.4713
  543SOL    HW2 1629   1.064   0.608   0.703  1.0778 -0.1043 -0.1941
  544SOL     OW 1630   1.968   1.904   1.676 -0.1005  0.3733 -0.1454
  544SOL    HW1 1631   1.881   1.945   1.639 -0.4329 -0.8053 -0.9266
  544SOL    HW2 1632   2.011   1.848   1.605  0.0137 -0.5825  1.8748
  545SOL     OW 1633   1.672   1.555   1.113  0.0772 -0.0596  0.0958
  545SOL    HW1 1634   1.688   1.652   1.083 -0.6083 -2.1758 -0.3729
  545SOL    HW2 1635   1.759   1.498   1.113  1.7655 -1.1989  1.5247
  546SOL     OW 1636   0.237   0.128   2.932  0.1866  0.6322 -0.0669
  546SOL    HW1 1637   0.247   0.190   2.853 -1.0228 -0.2439  1.5789
  546SOL    HW2 1638   0.308   0.149   3.005  4.4208 -1.0369  3.3814
  547SOL     OW 1639   2.406   0.603   3.102  0.2893  0.4077 -0.0966
  547SOL    HW1 1640   2.312   0.596   3.063  0.5224 -3.0012  0.7675
  547SOL    HW2 1641   2.438   0.507   3.115  0.6247  4.2902 -1.3488
  548SOL     OW 1642   2.166   2.123   2.260  0.5161 -0.6304 -0.3385
  548SOL    HW1 1643   2.109   2.167   2.333  1.0302 -2.2968  0.7630
  548SOL    HW2 1644   2.266   2.128   2.286 -1.9052  1.4442 -1.2272
  549SOL     OW 1645   2.212   3.020   0.748  0.0862  0.1483  0.8160
  549SOL    HW1 1646   2.266   3.001   0.663 -0.5162  3.6346 -1.7467
  549SOL    HW2 1647   2.114   3.006   0.725 -0.5327 -2.3469  0.1639
  550SOL     OW 1648   2.185   1.320   3.031 -0.2629  0.2482  0.0188
  550SOL    HW1 1649   2.174   1.221   3.027  1.3567  1.0938 -1.5479
  550SOL    HW2 1650   2.203   1.346   0.011 -0.8110  0.0730  1.5090
  551SOL     OW 1651   1.249   0.113   1.746  0.5185 -0.0690  0.2350
  551SOL    HW1 1652   1.337   0.063   1.760  1.5832  0.6079 -3.7925
  551SOL    HW2 1653   1.214   0.081   1.655  0.8853 -0.1154 -1.9826
  552SOL     OW 1654   2.868   2.528   2.901  0.0008 -0.1600 -0.1515
  552SOL    HW1 1655   2.960   2.504   2.862  0.8413 -1.0663 -0.0173
  552SOL    HW2 1656   2.856   2.623   2.874  1.1674 -0.9866  0.9705
  553SOL     OW 1657   0.533   0.217   0.569  0.0784 -0.1751 -0.1389
  553SOL    HW1 1658   0.448   0.245   0.619  1.9032  0.7484 -0.9546
  553SOL    HW2 1659   0.599   0.288   0.569 -1.6933 -2.2584  2.5270
  554SOL     OW 1660   1.896   2.251   1.598 -0.1449  0.1675 -0.1449
  554SOL    HW1 1661   1.832   2.178   1.601  1.9597  1.0070 -0.6190
  554SOL    HW2 1662   1.979   2.234   1.660 -1.2844 -1.6811 -0.7332
  555SOL     OW 1663   1.355   1.891   1.572 -0.1302 -0.3986  0.4173
  555SOL    HW1 1664   1.389   1.922   1.661 -1.8774  1.6996 -2.3848
  555SOL    HW2 1665   1.369   1.959   1.496  0.3056  1.3986  1.8755
  556SOL     OW 1666   1.922   1.493   0.430 -0.4082  0.1626 -0.1954
  556SOL    HW1 1667   1.908   1.488   0.534  0.2827 -2.7590  2.7266
  556SOL    HW2 1668   1.845   1.451   0.383 -1.6506  0.6757  3.0051
  557SOL     OW 1669   1.442   2.191   1.986  0.7731 -0.4147 -0.4213
  557SOL    HW1 1670   1.356   2.242   1.956  0.4992  0.8628 -2.1211
  557SOL    HW2 1671   1.416   2.146   2.071  1.7997  1.1196 -0.0128
  558SOL     OW 1672   3.094   0.313   2.124  0.0865 -0.7790  0.0515
  558SOL    HW1 1673   0.049   0.272   2.066  3.0978 -3.9634 -0.5550
  558SOL    HW2 1674   0.022   0.358   2.206 -0.9360 -3.7798  3.0104
  559SOL     OW 1675   2.442   2.707   1.998 -0.1008  0.5382 -0.0908
  559SOL    HW1 1676   2.459   2.771   1.920  1.0321  0.0934 -0.0348
  559SOL    HW2 1677   2.522   2.707   2.064 -1.0187  0.2876  1.3955
  560SOL     OW 1678   0.625   0.047   3.033 -0.8515 -0.2816 -0.0596
  560SOL    HW1 1679   0.599   3.068   3.008  0.2335  0.5151  0.2035
  560SOL    HW2 1680   0.546   0.089   3.079  1.7110  3.5863 -1.6469
  561SOL     OW 1681   1.328   0.979   0.379  0.4511  0.0920  0.0559
  561SOL    HW1 1682   1.361   0.894   0.425  0.6303 -0.4684  0.3919
  561SOL    HW2 1683   1.238   1.006   0.421 -0.7811  1.1891 -1.8035
  562SOL     OW 1684   0.923   1.129   2.358 -0.2703 -0.5334  0.7161
  562SOL    HW1 1685   0.858   1.124   2.435  1.6360  0.9179 -1.4435
  562SOL    HW2 1686   0.970   1.038   2.352  1.2842 -0.0095 -0.3159
  563SOL     OW 1687   1.695   2.351   2.732  0.2443  0.1842  0.0325
  563SOL    HW1 1688   1.618   2.312   2.671  0.6579 -1.3557  3.7549
  563SOL    HW2 1689   1.673   2.446   2.764 -1.2046 -2.6652  0.2828
  564SOL     OW 1690   2.872   1.753   0.333  0.4312  0.2714 -0.3281
  564SOL    HW1 1691   2.961   1.801   0.315  1.0616  0.6569  0.0974
  564SOL    HW2 1692   2.809   1.770   0.255 -0.1921  0.4431  0.6537
  565SOL     OW 1693   1.484   2.829   2.793 -0.0557  0.1075  0.2412
  565SOL    HW1 1694   1.453   2.822   2.694 -1.3252  1.3517  0.6080
  565SOL    HW2 1695   1.404   2.828   2.861 -1.5244 -0.3255  1.6784
  566SOL     OW 1696   2.000   2.979   2.450  0.2325 -1.0439 -0.1547
  566SOL    HW1 1697   2.052   2.905   2.505  1.8431  1.0488  0.9943
  566SOL    HW2 1698   1.901   2.949   2.444  3.5539  1.0047 -3.1405
  567SOL     OW 1699   2.417   1.254   0.948 -0.0212  0.3915  0.5095
  567SOL    HW1 1700   2.406   1.210   1.037  0.6461  2.4506 -3.0306
  567SOL    HW2 1701   2.348   1.331   0.938  1.2306  2.3550 -0.0383
  568SOL     OW 1702   2.027   1.462   2.841  0.2536  0.1895  0.0649
  568SOL    HW1 1703   1.976   1.393   2.785  0.0981 -2.2481 -0.4991
  568SOL    HW2 1704   2.050   1.422   2.934 -1.4784 -3.1108  1.2141
  569SOL     OW 1705   2.395   1.924   2.497 -0.8259 -0.0105 -0.0854
  569SOL    HW1 1706   2.408   2.015   2.450  0.4001  0.3848  2.3529
  569SOL    HW2 1707   2.314   1.874   2.457 -4.0149  1.5220  0.0099
  570SOL     OW 1708   3.073   2.447   1.861 -0.0675 -0.1939 -0.6092
  570SOL    HW1 1709   0.052   2.445   1.888  0.0452 -1.2879  0.9570
  570SOL    HW2 1710   3.030   2.355   1.862  0.4359 -0.1509  0.2451
  571SOL     OW 1711   0.602   3.109   2.278  0.5762  0.6064  0.1869
  571SOL    HW1 1712   0.696   3.111   2.317 -0.0492  1.1377 -0.4332
  571SOL    HW2 1713   0.609   3.096   2.178  2.2158 -4.0248 -1.0053
  572SOL     OW 1714   1.014   1.786   0.975  0.2453  0.3494  0.0117
  572SOL    HW1 1715   0.947   1.755   1.046  0.7219 -1.5722 -0.0680
  572SOL    HW2 1716   0.992   1.737   0.888 -0.8477  1.2897 -2.3200
  573SOL     OW 1717   1.244   0.425   0.031  0.7525  0.1763 -0.5502
  573SOL    HW1 1718   1.143   0.409   0.043  0.1245  0.2412  2.0394
  573SOL    HW2 1719   1.273   0.401   3.053  2.3794 -0.1651 -3.1332
  574SOL     OW 1720   0.522   0.130   0.303 -0.2454  0.2838  0.0048
  574SOL    HW1 1721   0.617   0.163   0.297 -0.1488 -0.7346 -1.4463
  574SOL    HW2 1722   0.481   0.158   0.393 -1.1848  0.5688  2.5025
  575SOL     OW 1723   0.203   1.457   1.545 -0.0280 -0.3947 -0.1816
  575SOL    HW1 1724   0.189   1.486   1.644 -0.5666  2.1145  1.3113
  575SOL    HW2 1725   0.204   1.543   1.487 -1.6799  0.8980 -0.2090
  576SOL     OW 1726   2.323   0.155   1.773  0.0768  0.2490 -0.0275
  576SOL    HW1 1727   2.278   0.216   1.702 -0.1734  0.1844 -0.9113
  576SOL    HW2 1728   2.285   0.177   1.869  1.4654 -0.2965  1.7741
  577SOL     OW 1729   3.019   1.580   1.772  0.1424 -0.3082 -0.2357
  577SOL    HW1 1730   3.032   1.670   1.822  0.7249  0.1315  0.3082
  577SOL    HW2 1731   3.113   1.548   1.742  0.8876  1.2053 -1.2834
  578SOL     OW 1732   1.383   2.997   2.084  0.2335  0.3767 -0.0527
  578SOL    HW1 1733   1.290   3.015   2.050 -0.3181 -2.0556 -0.8805
  578SOL    HW2 1734   1.390   2.897   2.108 -1.5938  1.7330 -0.7953
  579SOL     OW 1735   1.927   2.023   2.063  0.3316  0.8153  0.2879
  579SOL    HW1 1736   1.985   2.037   1.983 -2.8032 -2.3467  0.8580
  579SOL    HW2 1737   1.968   1.946   2.117  2.5918 -1.3116  0.1977
  580SOL     OW 1738   1.993   1.357   2.036 -0.5307  0.0884 -0.2633
  580SOL    HW1 1739   2.076   1.359   2.100  2.4619  0.9782  0.0266
  580SOL    HW2 1740   2.029   1.383   1.940 -0.0008 -0.0739 -3.0473
  581SOL     OW 1741   1.500   1.248   2.453 -0.0683 -0.4611 -0.2274
  581SOL    HW1 1742   1.495   1.210   2.358  0.4635 -0.4175 -1.1777
  581SOL    HW2 1743   1.592   1.250   2.494  1.3592 -4.0870 -0.1554
  582SOL     OW 1744   3.102   2.091   1.962 -0.0358 -0.2914  0.4514
  582SOL    HW1 1745   3.105   1.987   1.956  0.6427  0.2854  1.7806
  582SOL    HW2 1746   3.009   2.115   1.994  0.1344  1.0219 -1.1310
  583SOL     OW 1747   1.658   0.770   0.761  0.4011 -0.0677 -0.1847
  583SOL    HW1 1748   1.564   0.798   0.795 -0.4516 -2.4406  1.1113
  583SOL    HW2 1749   1.733   0.815   0.811  0.6922 -0.3171  2.0218
  584SOL     OW 1750   1.010   2.504   0.329 -0.1675 -0.0394  0.3727
  584SOL    HW1 1751   1.103   2.534   0.362  2.7149  1.5869  1.9380
  584SOL    HW2 1752   0.966   2.578   0.268  2.9980  0.1622  2.2215
  585SOL     OW 1753   0.095   2.724   3.078 -0.0762 -0.3385 -0.3725
  585SOL    HW1 1754   0.141   2.792   0.021  0.3284 -4.5324 -1.3618
  585SOL    HW2 1755   0.153   2.641   3.064 -1.2665 -0.5705 -1.1410
  586SOL     OW 1756   2.280   1.130   0.728 -0.2456 -0.0517 -0.3713
  586SOL    HW1 1757   2.342   1.057   0.698  0.6730  1.2806 -0.3441
  586SOL    HW2 1758   2.327   1.185   0.797  0.9991  0.2923  1.5670
  587SOL     OW 1759   0.582   1.287   0.193 -0.0458 -0.6900 -0.8467
  587SOL    HW1 1760   0.558   1.185   0.177  0.2397 -0.6131  2.2266
  587SOL    HW2 1761   0.679   1.292   0.228  1.5873 -0.3432  3.3462
  588SOL     OW 1762   0.295   0.322   0.660  0.1539 -0.0059  0.6436
  588SOL    HW1 1763   0.204   0.304   0.618  3.7369 -1.5918  1.8916
  588SOL    HW2 1764   0.283   0.400   0.730 -1.2373 -0.3108  0.0603
  589SOL     OW 1765   1.289   2.933   0.721  0.0964 -0.0014 -0.6381
  589SOL    HW1 1766   1.195   2.906   0.757  0.2943 -2.4227 -0.7014
  589SOL    HW2 1767   1.303   3.035   0.720 -3.2815 -1.1830 -1.4762
  590SOL     OW 1768   2.554   2.338   0.405  0.4852 -0.3612 -0.0363
  590SOL    HW1 1769   2.578   2.402   0.483  0.8730  1.8236  0.7937
  590SOL    HW2 1770   2.495   2.375   0.328 -3.1553  1.8345  1.2793
  591SOL     OW 1771   0.260   2.438   2.191 -0.1734  0.5597  0.2349
  591SOL    HW1 1772   0.212   2.457   2.278  0.5979  0.5595  0.6728
  591SOL    HW2 1773   0.356   2.465   2.190 -1.1832 -0.4597 -2.0284
  592SOL     OW 1774   0.135   1.860   2.226  0.6495  0.2151 -0.2528
  592SOL    HW1 1775   0.141   1.804   2.142  0.4195 -0.8162  0.7593
  592SOL    HW2 1776   0.123   1.797   2.303 -1.8514  0.3520 -0.2337
  593SOL     OW 1777   1.540   1.629   1.353 -0.1884 -0.4890  0.0766
  593SOL    HW1 1778   1.576   1.615   1.260 -1.1866 -0.2357  0.8551
  593SOL    HW2 1779   1.440   1.614   1.363  0.2002  4.0314  1.3902
  594SOL     OW 1780   0.491   1.195   2.694 -0.9817 -0.2600  0.1608
  594SOL    HW1 1781   0.525   1.132   2.772 -0.6731 -1.2721  3.9866
  594SOL    HW2 1782   0.519   1.293   2.710 -0.2994  0.3110  0.8007
  595SOL     OW 1783   1.434   0.696   0.978 -0.0892 -0.1994 -0.4680
  595SOL    HW1 1784   1.460   0.739   1.066  3.7702 -1.6557 -0.3831
  595SOL    HW2 1785   1.383   0.762   0.914 -1.2410 -0.4734 -1.6326
  596SOL     OW 1786   0.428   1.173   0.973  0.5219 -0.2840 -0.1541
  596SOL    HW1 1787   0.509   1.170   1.033  1.5221  2.7180  0.1543
  596SOL    HW2 1788   0.445   1.226   0.886 -1.1825 -0.4367 -0.9116
  597SOL     OW 1789   0.528   2.489   2.132  0.8238 -0.5072  0.0090
  597SOL    HW1 1790   0.562   2.558   2.203  1.6218  0.5424  1.6880
  597SOL    HW2 1791   0.563   2.509   2.040  2.0170 -1.6698 -1.1261
  598SOL     OW 1792   2.182   2.394   2.376 -0.7234 -0.4300  0.1798
  598SOL    HW1 1793   2.081   2.382   2.371 -1.3949  0.7800 -3.1370
  598SOL    HW2 1794   2.212   2.478   2.326  1.6060  5.1597  0.2359
  599SOL     OW 1795   1.142   1.303   0.464 -0.0009 -0.0379  0.0260
  599SOL    HW1 1796   1.104   1.395   0.428 -3.0205 -0.1031  0.3734
  599SOL    HW2 1797   1.156   1.242   0.385 -1.7033  0.4602  1.5992
  600SOL     OW 1798   1.589   0.382   0.400  0.2035  0.2567 -0.5922
  600SOL    HW1 1799   1.520   0.343   0.339  2.1619 -1.3528  0.2395
  600SOL    HW2 1800   1.664   0.313   0.402  0.0736 -0.5784 -2.3830
  601SOL     OW 1801   0.565   0.356   1.595 -0.2111 -0.1649 -0.4158
  601SOL    HW1 1802   0.516   0.270   1.569 -0.1481 -2.3115 -1.2611
  601SOL    HW2 1803   0.502   0.437   1.621 -1.9316  3.0536  0.7332
  602SOL     OW 1804   0.400   2.310   0.748  0.0567 -0.2845  0.7158
  602SOL    HW1 1805   0.452   2.248   0.813  0.7551 -0.6622  3.4279
  602SOL    HW2 1806   0.455   2.325   0.660  0.6904  1.7000 -1.4252
  603SOL     OW 1807   1.117   2.732   2.679 -0.4286  0.1533 -0.3534
  603SOL    HW1 1808   1.150   2.640   2.702 -0.2492  0.2486  2.3955
  603SOL    HW2 1809   1.051   2.728   2.605  3.1614 -0.7147 -2.7420
  604SOL     OW 1810   0.734   2.213   0.271  0.0984 -0.1007  0.2304
  604SOL    HW1 1811   0.837   2.211   0.255 -1.4403 -0.3753 -1.9052
  604SOL    HW2 1812   0.708   2.293   0.329 -2.1945  2.8335  0.7405
  605SOL     OW 1813   1.591   1.279   1.549  0.1274 -0.0479 -0.3684
  605SOL    HW1 1814   1.615   1.183   1.580  0.8935  1.4707  0.9336
  605SOL    HW2 1815   1.619   1.303   1.452 -0.2684 -2.3913 -1.5448
  606SOL     OW 1816   0.779   1.020   2.903  0.4012  0.5726 -0.1792
  606SOL    HW1 1817   0.737   0.970   2.984 -0.5384  0.7161 -0.1389
  606SOL    HW2 1818   0.764   1.121   2.909  0.6528 -0.8838 -1.7020
  607SOL     OW 1819   0.931   0.791   1.242 -0.2249  0.3093  0.4407
  607SOL    HW1 1820   0.852   0.847   1.276 -1.6069  1.8297  0.2604
  607SOL    HW2 1821   0.900   0.693   1.222 -1.6087 -2.1879  1.7430
  608SOL     OW 1822   2.843   2.222   1.900 -0.4496 -0.4103  0.3185
  608SOL    HW1 1823   2.809   2.125   1.890 -2.9192 -0.9973  0.6261
  608SOL    HW2 1824   2.779   2.276   1.955  0.3229 -2.2908 -1.2103
  609SOL     OW 1825   2.330   0.113   0.138  0.1857 -0.1840  0.4136
  609SOL    HW1 1826   2.314   0.114   0.237  0.0886 -1.3836  1.0418
  609SOL    HW2 1827   2.365   0.023   0.104  0.6982 -1.1711  0.2224
  610SOL     OW 1828   0.355   2.457   1.583  0.6407  0.4952 -0.0394
  610SOL    HW1 1829   0.383   2.499   1.671 -0.4107 -0.1241  1.5002
  610SOL    HW2 1830   0.387   2.517   1.507 -0.5496  2.4399  0.9851
  611SOL     OW 1831   1.436   1.689   0.747  0.1322  0.2561  0.1316
  611SOL    HW1 1832   1.402   1.672   0.839  0.6238  2.2913 -0.4204
  611SOL    HW2 1833   1.504   1.614   0.722 -0.6860 -3.4789  0.4233
  612SOL     OW 1834   0.448   0.459   2.280 -0.2764  0.5876  0.0408
  612SOL    HW1 1835   0.448   0.496   2.189  4.0066 -1.2196  2.1991
  612SOL    HW2 1836   0.429   0.359   2.271  0.7615  0.8061  1.4556
  613SOL     OW 1837   2.686   1.147   0.358 -0.0340  0.0081  0.3621
  613SOL    HW1 1838   2.649   1.196   0.437 -1.2010 -0.8736 -1.4510
  613SOL    HW2 1839   2.783   1.133   0.360  0.1193 -0.6624 -2.0762
  614SOL     OW 1840   1.856   0.249   1.731 -0.2673 -0.2285  0.5496
  614SOL    HW1 1841   1.896   0.184   1.661 -2.4229 -1.1412 -1.5063
  614SOL    HW2 1842   1.752   0.228   1.731 -1.0648 -2.3413  0.3938
  615SOL     OW 1843   0.808   1.381   1.407  0.3041  0.2999 -0.7403
  615SOL    HW1 1844   0.835   1.473   1.382  0.7208 -1.4329 -2.3902
  615SOL    HW2 1845   0.730   1.348   1.352  1.3070 -0.4375  0.8460
  616SOL     OW 1846   1.476   2.101   0.058  0.1021  0.3698 -0.1260
  616SOL    HW1 1847   1.406   2.125   0.125 -2.9222 -0.6262  2.5040
  616SOL    HW2 1848   1.533   2.026   0.095 -0.2534  3.6536 -1.7316
  617SOL     OW 1849   2.431   2.972   0.203  0.2914 -0.2296 -0.3954
  617SOL    HW1 1850   2.342   2.931   0.180  0.8786  0.2108 -0.0420
  617SOL    HW2 1851   2.461   2.958   0.299  1.3609  1.4726  2.6886
  618SOL     OW 1852   0.809   0.716   2.510 -0.2643  0.0491 -0.9851
  618SOL    HW1 1853   0.775   0.737   2.606 -1.4751  1.2120 -0.5467
  618SOL    HW2 1854   0.764   0.763   2.433 -0.1935 -1.6380 -0.0546
  619SOL     OW 1855   2.602   1.521   0.890 -0.0846 -0.2891 -0.3932
  619SOL    HW1 1856   2.660   1.445   0.855  0.2703  2.8042  1.1209
  619SOL    HW2 1857   2.535   1.550   0.816  0.2286 -0.2418 -0.1707
  620SOL     OW 1858   2.400   2.954   2.984 -0.5907  0.0346  0.2789
  620SOL    HW1 1859   2.438   2.859   2.986  0.7006 -1.1932 -2.7848
  620SOL    HW2 1860   2.297   2.946   2.968 -0.2366  1.2539 -3.2149
  621SOL     OW 1861   2.426   1.362   2.902 -0.4159  0.5953 -0.4422
  621SOL    HW1 1862   2.341   1.362   2.961 -0.4987 -1.1253 -0.6252
  621SOL    HW2 1863   2.499   1.298   2.941  1.1195  1.4604  2.1157
  622SOL     OW 1864   1.474   2.723   2.173  0.4036 -0.8107  0.0060
  622SOL    HW1 1865   1.555   2.742   2.232 -0.8065  0.5987  0.5463
  622SOL    HW2 1866   1.488   2.652   2.100 -0.8446  0.3178  1.2863
  623SOL     OW 1867   1.048   1.755   0.461 -0.0619 -0.5604  0.3506
  623SOL    HW1 1868   1.137   1.797   0.442  1.6006 -1.3751  1.5435
  623SOL    HW2 1869   0.971   1.794   0.407 -0.3752  0.9588  0.8467
  624SOL     OW 1870   0.408   0.185   3.117  0.0282 -0.9643  0.1672
  624SOL    HW1 1871   0.349   0.160   0.077  1.5295 -0.1923  0.2672
  624SOL    HW2 1872   0.438   0.283   0.008  0.0843 -0.8771  0.9690
  625SOL     OW 1873   0.691   1.748   0.740  0.1329 -0.4413 -0.1687
  625SOL    HW1 1874   0.660   1.843   0.719  0.6488 -1.2607  1.0824
  625SOL    HW2 1875   0.640   1.694   0.665  0.4030 -0.7859 -1.4560
  626SOL     OW 1876   0.104   2.878   2.865 -0.0541 -0.6591 -0.3334
  626SOL    HW1 1877   0.073   2.814   2.936  0.9647 -1.9401 -0.6831
  626SOL    HW2 1878   0.083   2.976   2.895 -1.6357  0.6922  0.0575
  627SOL     OW 1879   1.199   1.619   2.751  1.0300 -0.7923 -0.1467
  627SOL    HW1 1880   1.236   1.600   2.658 -0.8502  0.8179  3.1957
  627SOL    HW2 1881   1.227   1.557   2.823  2.9357  1.9921  0.3635
  628SOL     OW 1882   0.297   0.304   2.739  0.2413  0.4604  0.2870
  628SOL    HW1 1883   0.393   0.327   2.750 -0.2043 -3.2878 -1.4792
  628SOL    HW2 1884   0.288   0.249   2.654  1.5945  2.0788  2.1217
  629SOL     OW 1885   0.369   2.792   2.157  0.0012 -0.1813  0.1880
  629SOL    HW1 1886   0.400   2.855   2.082  1.4190 -0.7555 -2.7327
  629SOL    HW2 1887   0.446   2.765   2.217 -1.2223 -0.1789 -0.6122
  630SOL     OW 1888   1.656   1.022   1.598  0.3835  0.0629 -0.6494
  630SOL    HW1 1889   1.731   0.966   1.558  1.5082  0.8320 -2.2886
  630SOL    HW2 1890   1.607   0.972   1.673 -0.0346 -0.6847  1.4880
  631SOL     OW 1891   2.230   0.923   0.448 -0.2888  0.3666  0.3263
  631SOL    HW1 1892   2.242   1.021   0.423  0.4029 -2.2275  0.2382
  631SOL    HW2 1893   2.293   0.894   0.523  0.2626 -1.5699  0.1567
  632SOL     OW 1894   2.337   0.548   2.132 -0.1700 -0.1561  0.2216
  632SOL    HW1 1895   2.389   0.559   2.218 -1.0116 -1.1252  1.2251
  632SOL    HW2 1896   2.275   0.467   2.133 -0.0353  0.2399  1.6176
  633SOL     OW 1897   0.720   2.471   0.386  0.6501 -0.1806  0.3529
  633SOL    HW1 1898   0.819   2.480   0.401 -0.8272  2.7452 -1.9900
  633SOL    HW2 1899   0.673   2.563   0.365 -0.7826 -0.2352 -1.6799
  634SOL     OW 1900   1.619   2.704   2.407 -0.4424  0.4175  0.0216
  634SOL    HW1 1901   1.533   2.723   2.460 -1.0753 -1.9606 -0.3367
  634SOL    HW2 1902   1.683   2.781   2.416 -0.7184 -1.6742 -2.3489
  635SOL     OW 1903   2.488   0.360   0.046  0.4126 -0.2188  0.7933
  635SOL    HW1 1904   2.584   0.356   0.017 -3.0849 -0.7251 -1.4581
  635SOL    HW2 1905   2.451   0.269   0.069  1.3565  0.9406  0.7356
  636SOL     OW 1906   0.668   1.102   0.717 -0.1510  0.2715  0.5786
  636SOL    HW1 1907   0.586   1.161   0.732 -3.2854 -2.0544 -0.3385
  636SOL    HW2 1908   0.716   1.087   0.809 -0.5966 -0.7534 -0.9502
  637SOL     OW 1909   3.115   1.974   0.808  0.9263 -0.0554 -0.7201
  637SOL    HW1 1910   0.022   2.038   0.883 -1.0932 -2.3072 -2.8926
  637SOL    HW2 1911   0.047   1.887   0.810 -0.8026  2.8391  0.0209
  638SOL     OW 1912   0.864   3.076   2.891 -0.4961  0.1462 -0.1278
  638SOL    HW1 1913   0.771   3.106   2.891  1.9788 -2.8889 -0.6439
  638SOL    HW2 1914   0.918   0.029   2.940 -1.1083  0.5016  2.8780
  639SOL     OW 1915   1.389   1.709   0.164 -0.1042 -0.2744  0.3371
  639SOL    HW1 1916   1.361   1.617   0.197  0.8713 -1.5252 -0.6963
  639SOL    HW2 1917   1.340   1.786   0.209 -0.5805 -1.4860 -2.2061
  640SOL     OW 1918   1.816   2.730   0.892  0.1017  0.2068 -0.2639
  640SOL    HW1 1919   1.814   2.671   0.810 -0.3593 -1.5640 -1.1985
  640SOL    HW2 1920   1.802   2.826   0.869  1.4122 -2.1323  2.3084
  641SOL     OW 1921   3.114   2.724   0.692 -0.3626 -0.2562 -0.4755
  641SOL    HW1 1922   0.054   2.644   0.678 -1.4786  3.6060 -1.1407
  641SOL    HW2 1923   0.053   2.805   0.720  2.9075  4.5916 -0.9645
  642SOL     OW 1924   0.763   0.334   1.797 -0.3764 -0.2329 -0.6362
  642SOL    HW1 1925   0.712   0.341   1.709  0.6006  5.4791  0.0978
  642SOL    HW2 1926   0.828   0.417   1.796 -0.4627  0.8019 -0.6071
  643SOL     OW 1927   0.617   2.212   2.156  0.1260 -0.1067 -0.1360
  643SOL    HW1 1928   0.602   2.308   2.181  0.1853 -2.5644 -1.8019
  643SOL    HW2 1929   0.644   2.205   2.059 -4.4908  1.4980  1.1309
  644SOL     OW 1930   0.661   2.894   0.458 -0.0745 -0.2730 -0.4636
  644SOL    HW1 1931   0.659   2.996   0.471 -0.6273 -2.4863  0.3603
  644SOL    HW2 1932   0.727   2.852   0.523  2.4071  1.1186  0.6997
  645SOL     OW 1933   1.095   1.851   0.061  0.1414 -0.5397 -0.7866
  645SOL    HW1 1934   1.034   1.920   0.021 -0.0669  0.5619  3.1877
  645SOL    HW2 1935   1.144   1.885   0.146 -0.3772  0.9002 -1.4167
  646SOL     OW 1936   0.417   1.431   0.049 -0.0019  0.1069 -0.3434
  646SOL    HW1 1937   0.458   1.368   0.120  0.7108 -0.6469  1.7879
  646SOL    HW2 1938   0.372   1.512   0.094 -0.6634 -3.7337 -1.2358
  647SOL     OW 1939   0.947   0.121   1.017  0.0797  0.0884  0.0806
  647SOL    HW1 1940   0.961   0.223   1.008  0.1788  0.0750 -0.7027
  647SOL    HW2 1941   0.960   0.090   1.113  0.8278 -1.0799 -1.5810
  648SOL     OW 1942   2.609   0.048   1.559 -0.5145  0.4225  0.1602
  648SOL    HW1 1943   2.509   0.052   1.549  0.0559 -0.7408  0.1263
  648SOL    HW2 1944   2.625   0.073   1.659 -0.7851  1.5792  0.8361
  649SOL     OW 1945   0.751   2.099   2.831 -0.3693 -0.7070 -0.2829
  649SOL    HW1 1946   0.776   2.115   2.732  1.8231 -3.2229 -0.6236
  649SOL    HW2 1947   0.661   2.143   2.850  0.2702  1.0815  0.1263
  650SOL     OW 1948   0.132   1.812   1.664 -0.2150  0.4288 -0.1781
  650SOL    HW1 1949   0.113   1.763   1.578  0.4149 -0.7801  0.1538
  650SOL    HW2 1950   0.233   1.796   1.679  2.3336 -1.3438 -0.8302
  651SOL     OW 1951   1.059   0.116   2.994 -0.4839 -0.6603 -0.0283
  651SOL    HW1 1952   1.154   0.088   3.017 -1.3460  0.2860 -1.6475
  651SOL    HW2 1953   1.028   0.206   3.039  2.9984  0.0744  1.1308
  652SOL     OW 1954   2.636   2.103   0.264 -0.2973 -0.5512  0.1985
  652SOL    HW1 1955   2.629   2.126   0.165  0.6039  1.5037  0.0068
  652SOL    HW2 1956   2.613   2.175   0.331 -2.8507  2.9828  1.0129
  653SOL     OW 1957   0.039   0.230   0.984  0.2632 -0.0670 -0.0724
  653SOL    HW1 1958   0.020   0.147   0.928 -2.2637 -0.5378 -0.9540
  653SOL    HW2 1959   0.034   0.308   0.921  0.0674  0.2388  0.9244
  654SOL     OW 1960   1.825   0.190   2.624 -0.1197  0.1498 -0.0440
  654SOL    HW1 1961   1.826   0.255   2.704 -0.0002  3.1293 -1.0556
  654SOL    HW2 1962   1.729   0.165   2.592  0.7242 -0.8447 -0.1089
  655SOL     OW 1963   0.461   2.491   0.970 -0.5961  0.6304  0.5235
  655SOL    HW1 1964   0.393   2.473   0.901  2.6028  2.1697  2.2791
  655SOL    HW2 1965   0.450   2.437   1.054  4.1906  1.2004  0.3514
  656SOL     OW 1966   3.073   0.405   1.672 -0.1469 -0.3585 -0.4561
  656SOL    HW1 1967   2.981   0.371   1.680  1.9635  1.5557  1.6294
  656SOL    HW2 1968   3.099   0.413   1.574 -1.7227 -0.5210 -0.8771
  657SOL     OW 1969   2.199   0.805   2.156 -0.4174 -0.1192  0.2137
  657SOL    HW1 1970   2.253   0.716   2.141  2.5289  1.1421 -0.4205
  657SOL    HW2 1971   2.113   0.791   2.215 -1.5135 -1.4957 -0.3643
  658SOL     OW 1972   2.238   1.685   0.981  0.0988  0.1023 -0.4612
  658SOL    HW1 1973   2.229   1.727   1.072  0.7261 -0.2192  0.2254
  658SOL    HW2 1974   2.289   1.747   0.915  0.1264 -1.5078 -0.2584
  659SOL     OW 1975   2.609   3.114   2.985  0.2687  0.8343  0.2005
  659SOL    HW1 1976   2.523   3.062   2.962  0.5203 -1.8204  1.0562
  659SOL    HW2 1977   2.607   0.040   3.076 -1.4769 -0.6971 -1.8082
  660SOL     OW 1978   1.267   1.427   2.935  0.1119  0.3803 -0.4286
  660SOL    HW1 1979   1.315   1.486   3.005  1.0608  2.7611  0.9432
  660SOL    HW2 1980   1.299   1.329   2.946 -1.3629 -2.0584 -2.8490
  661SOL     OW 1981   2.618   2.422   0.889 -0.3373 -0.5596  0.1122
  661SOL    HW1 1982   2.673   2.347   0.936 -2.3528 -0.7157 -1.0658
  661SOL    HW2 1983   2.647   2.516   0.916  2.2371  2.6572 -2.0926
  662SOL     OW 1984   0.697   0.690   0.257  0.3317 -0.4068 -0.2840
  662SOL    HW1 1985   0.782   0.740   0.226  3.0326  2.3101 -0.2079
  662SOL    HW2 1986   0.658   0.741   0.336 -1.5932 -2.3335  2.7802
  663SOL     OW 1987   1.693   2.148   0.293  0.2201 -0.4306  0.1471
  663SOL    HW1 1988   1.659   2.219   0.229 -0.3907 -1.3750 -0.8871
  663SOL    HW2 1989   1.718   2.061   0.245 -1.6161  1.5397  2.0513
  664SOL     OW 1990   0.660   2.355   1.679  0.2613  0.2486 -0.2728
  664SOL    HW1 1991   0.679   2.441   1.634 -0.2588  1.5913  3.9055
  664SOL    HW2 1992   0.632   2.279   1.614 -1.0000 -0.3449 -0.0713
  665SOL     OW 1993   2.127   2.026   1.847  0.5951 -0.0782 -0.3043
  665SOL    HW1 1994   2.108   2.128   1.846 -1.3620 -1.6742  1.6692
  665SOL    HW2 1995   2.081   1.981   1.767  1.0069  0.4495 -1.0829
  666SOL     OW 1996   0.506   2.720   0.339 -0.3351 -0.8835  0.0031
  666SOL    HW1 1997   0.550   2.797   0.394 -1.7145 -0.0678  0.7940
  666SOL    HW2 1998   0.484   2.756   0.246  0.1167 -0.8660  2.9036
  667SOL     OW 1999   2.100   1.461   1.799 -0.2187 -0.0486 -0.1158
  667SOL    HW1 2000   2.096   1.435   1.701  3.7243  0.8790  1.0594
  667SOL    HW2 2001   2.068   1.558   1.814 -1.3776 -0.5299 -1.9605
  668SOL     OW 2002   0.458   0.761   2.379 -0.1961  0.5053  1.2972
  668SOL    HW1 2003   0.533   0.790   2.315  0.6713  0.8064 -0.4431
  668SOL    HW2 2004   0.385   0.709   2.326 -1.2502  0.6696  1.6970
  669SOL     OW 2005   1.874   2.164   2.618  0.4698 -0.1214 -0.2451
  669SOL    HW1 2006   1.800   2.228   2.659  0.6080  0.2675 -0.6531
  669SOL    HW2 2007   1.830   2.085   2.579 -2.1144  1.7964  2.1365
  670SOL     OW 2008   2.224   2.275   3.075  0.0223 -0.0019  0.1717
  670SOL    HW1 2009   2.249   2.222   2.989  1.3988 -1.0143 -1.8570
  670SOL    HW2 2010   2.197   2.372   3.052  0.0419  1.4508  1.5229
  671SOL     OW 2011   0.618   1.103   1.174 -0.2017  0.9913 -0.2107
  671SOL    HW1 2012   0.630   1.201   1.203 -0.5295 -2.6208 -0.5480
  671SOL    HW2 2013   0.646   1.046   1.254  0.0439 -1.7414  0.8339
  672SOL     OW 2014   2.742   0.992   2.362  0.3923  0.3662  0.2113
  672SOL    HW1 2015   2.787   0.962   2.278 -1.0419 -0.0794  0.8044
  672SOL    HW2 2016   2.795   1.057   2.413 -0.9943 -0.9545 -1.3159
  673SOL     OW 2017   2.711   2.164   2.245  0.2782  0.3351  0.0928
  673SOL    HW1 2018   2.747   2.083   2.198  2.6185 -0.5942  1.3713
  673SOL    HW2 2019   2.775   2.194   2.319  1.1825 -0.6541  0.5744
  674SOL     OW 2020   1.101   2.879   2.318 -0.3205 -0.4438 -0.5023
  674SOL    HW1 2021   1.131   2.949   2.385 -1.6184 -2.4011  1.0380
  674SOL    HW2 2022   1.171   2.805   2.301 -1.7524 -0.4849 -1.1447
  675SOL     OW 2023   0.768   1.028   1.619  0.2652  0.1064  0.1758
  675SOL    HW1 2024   0.842   0.987   1.671 -0.0584  0.0094 -0.5870
  675SOL    HW2 2025   0.753   1.124   1.639 -1.1980 -1.3211 -2.7956
  676SOL     OW 2026   2.024   0.932   0.708 -0.5469  0.5971  0.0515
  676SOL    HW1 2027   1.966   0.982   0.643 -0.4453 -2.0280  0.4021
  676SOL    HW2 2028   2.124   0.939   0.689  1.6689  2.1978 -0.4241
  677SOL     OW 2029   2.858   1.702   2.859  0.2430  0.0582  0.6358
  677SOL    HW1 2030   2.805   1.661   2.780  0.3383 -1.1689 -2.9308
  677SOL    HW2 2031   2.956   1.674   2.843  1.2835  1.1354 -4.0665
  678SOL     OW 2032   2.950   2.431   1.222 -0.0413  0.4204 -0.1165
  678SOL    HW1 2033   3.040   2.473   1.193 -0.6806  0.0475 -0.1426
  678SOL    HW2 2034   2.878   2.500   1.217  4.7259 -0.7285 -1.7391
  679SOL     OW 2035   1.915   2.571   0.688  0.0639 -0.0318 -0.1595
  679SOL    HW1 2036   1.972   2.637   0.636 -1.8308 -0.2603  2.9583
  679SOL    HW2 2037   1.959   2.490   0.716 -2.9067  3.1929  0.9399
  680SOL     OW 2038   0.463   2.563   2.568  0.0762 -0.0432  0.0943
  680SOL    HW1 2039   0.404   2.643   2.554 -0.5488 -3.4224 -2.1277
  680SOL    HW2 2040   0.552   2.572   2.519 -1.6740  0.9768  0.7158
  681SOL     OW 2041   3.097   1.339   1.435 -0.3148 -0.0949  0.1758
  681SOL    HW1 2042   0.054   1.404   1.459  1.6145  2.1059  0.4403
  681SOL    HW2 2043   3.003   1.362   1.472  0.5965 -0.4383  0.8512
  682SOL     OW 2044   0.277   1.913   1.345 -0.0957 -0.0666 -0.7853
  682SOL    HW1 2045   0.226   2.004   1.349  1.3381  0.7622 -0.4544
  682SOL    HW2 2046   0.374   1.919   1.310  0.1841  0.1176 -3.0921
  683SOL     OW 2047   2.503   1.380   1.339  0.0625 -0.0737  0.6330
  683SOL    HW1 2048   2.498   1.454   1.270  1.1558  0.8741 -0.5424
  683SOL    HW2 2049   2.492   1.415   1.435 -0.1703  3.0608 -0.4075
  684SOL     OW 2050   2.741   1.540   3.078 -0.6409  0.2510  0.1086
  684SOL    HW1 2051   2.750   1.436   3.067 -2.4285 -0.3267  0.7687
  684SOL    HW2 2052   2.763   1.591   2.991  1.6832 -2.5098 -2.5946
  685SOL     OW 2053   1.198   1.213   0.204  0.4598 -0.1419 -0.0854
  685SOL    HW1 2054   1.109   1.193   0.163  1.5325 -2.1289 -2.0831
  685SOL    HW2 2055   1.273   1.180   0.144 -1.1589 -0.4716  0.3105
  686SOL     OW 2056   0.204   0.216   1.182  0.3354 -0.0633 -0.2260
  686SOL    HW1 2057   0.254   0.133   1.170  3.0009  1.5523  1.3375
  686SOL    HW2 2058   0.130   0.226   1.109 -1.4638  2.4462  0.0483
  687SOL     OW 2059   1.150   1.266   2.335  0.4417  0.1174 -0.2865
  687SOL    HW1 2060   1.068   1.219   2.379  1.7363  0.5256 -1.1880
  687SOL    HW2 2061   1.214   1.306   2.399 -0.0977 -0.8071 -1.2257
  688SOL     OW 2062   0.557   1.868   1.273 -0.1308  0.1989  0.1458
  688SOL    HW1 2063   0.630   1.924   1.225  1.5634 -1.1258 -1.0881
  688SOL    HW2 2064   0.585   1.853   1.368  0.5185  1.0508  1.4847
  689SOL     OW 2065   1.384   0.715   1.490  0.0506  0.7669 -0.0963
  689SOL    HW1 2066   1.329   0.793   1.522 -1.5432  3.9555 -1.3942
  689SOL    HW2 2067   1.367   0.629   1.543  1.2539 -0.5978  4.0894
  690SOL     OW 2068   2.523   0.920   1.226 -0.4788 -0.1008  0.0671
  690SOL    HW1 2069   2.521   0.868   1.139  1.6871  3.8692 -2.9678
  690SOL    HW2 2070   2.613   0.911   1.272 -0.9999 -0.6254  1.0697
  691SOL     OW 2071   0.197   2.185   1.850 -0.0846  0.3192  0.0524
  691SOL    HW1 2072   0.213   2.289   1.868  0.8807  1.6630  1.0497
  691SOL    HW2 2073   0.103   2.156   1.877  0.1892  2.3429  0.1979
  692SOL     OW 2074   1.677   0.052   1.001 -0.0308 -0.5094 -0.7592
  692SOL    HW1 2075   1.753   0.079   1.060 -0.4841  0.6748 -0.9914
  692SOL    HW2 2076   1.604   3.112   1.045 -1.3244  0.1752 -0.6839
  693SOL     OW 2077   0.081   1.707   2.449  0.4182  0.4039  0.3162
  693SOL    HW1 2078   0.101   1.770   2.525  1.1713  0.2218 -0.5406
  693SOL    HW2 2079   0.005   1.645   2.477  0.0700  0.8309 -2.0136
  694SOL     OW 2080   2.216   0.787   1.148  0.1099 -0.3187 -0.1471
  694SOL    HW1 2081   2.232   0.831   1.240  1.4671  1.6534  1.0839
  694SOL    HW2 2082   2.121   0.772   1.122  1.4028 -0.6912 -0.2953
  695SOL     OW 2083   1.072   1.315   1.476 -0.2272 -0.2899  0.3528
  695SOL    HW1 2084   0.975   1.324   1.448  0.1896 -0.1780 -1.2996
  695SOL    HW2 2085   1.131   1.282   1.398 -1.0447  0.2108 -0.2538
  696SOL     OW 2086   1.555   3.053   0.520  0.1475 -0.4022 -0.3161
  696SOL    HW1 2087   1.601   3.105   0.596  0.4143  0.3517 -0.8492
  696SOL    HW2 2088   1.557   3.107   0.430  0.4418  1.5976 -0.6079
  697SOL     OW 2089   0.667   0.109   0.988  0.1848  0.1646  0.2456
  697SOL    HW1 2090   0.643   0.180   0.921 -0.5211 -1.4521  1.3863
  697SOL    HW2 2091   0.764   0.112   1.014 -2.2813 -0.2231 -1.3467
  698SOL     OW 2092   1.652   1.588   2.678  0.4034  0.1796 -0.4316
  698SOL    HW1 2093   1.569   1.613   2.625 -1.9898 -0.3849 -0.0353
  698SOL    HW2 2094   1.666   1.489   2.658  2.9989  0.3628 -0.5017
  699SOL     OW 2095   1.275   0.976   1.124 -0.2881 -0.4409 -0.2261
  699SOL    HW1 2096   1.330   0.899   1.160 -2.6223 -0.9983  0.6097
  699SOL    HW2 2097   1.193   0.941   1.066 -3.5193  2.9685 -1.5616
  700SOL     OW 2098   1.196   3.075   0.337 -0.2792  0.0124 -0.2352
  700SOL    HW1 2099   1.126   3.079   0.261 -0.4834 -3.5500  2.1649
  700SOL    HW2 2100   1.208   2.980   0.371 -0.5936 -0.0184 -1.9623
  701SOL     OW 2101   2.626   2.748   2.784 -0.2537  0.0507 -0.3444
  701SOL    HW1 2102   2.566   2.695   2.847 -0.8828 -1.9167  1.1071
  701SOL    HW2 2103   2.574   2.831   2.755  2.2235  2.2015 -1.2426
  702SOL     OW 2104   1.250   0.175   0.450 -0.2986 -0.2705  0.6680
  702SOL    HW1 2105   1.236   0.083   0.406 -2.5761 -1.7909  1.0494
  702SOL    HW2 2106   1.265   0.166   0.549  0.6514  0.1474  0.9312
  703SOL     OW 2107   2.574   0.378   2.036 -0.2431  0.1360 -0.3231
  703SOL    HW1 2108   2.520   0.464   2.028  0.3760  0.9848  1.4793
  703SOL    HW2 2109   2.673   0.404   2.035  1.6748 -0.6682 -1.3534
  704SOL     OW 2110   2.916   1.846   0.687 -0.5426 -0.1284 -0.2592
  704SOL    HW1 2111   2.949   1.753   0.669  0.9820  2.6556  2.2546
  704SOL    HW2 2112   2.989   1.905   0.732  1.3403  0.9398 -1.2267
  705SOL     OW 2113   3.097   2.952   2.284 -0.0800  0.2143  0.4448
  705SOL    HW1 2114   3.056   3.042   2.249  0.7704  0.6861 -1.8920
  705SOL    HW2 2115   3.026   2.916   2.353  0.3674 -1.8188  2.0189
  706SOL     OW 2116   2.372   2.409   0.847  0.0208 -0.2612 -0.5258
  706SOL    HW1 2117   2.470   2.407   0.868 -2.5657 -0.2785 -2.4687
  706SOL    HW2 2118   2.337   2.316   0.831 -0.2420  2.1016  2.4324
  707SOL     OW 2119   1.035   2.195   1.701 -0.4408  0.1151  0.6283
  707SOL    HW1 2120   1.060   2.100   1.674 -0.7825 -0.5887 -1.2580
  707SOL    HW2 2121   1.022   2.255   1.614  0.4272  0.8545 -2.1865
  708SOL     OW 2122   0.230   2.461   1.935 -0.3214 -0.5080 -0.2879
  708SOL    HW1 2123   0.293   2.522   1.884 -0.7648  1.9552 -1.6838
  708SOL    HW2 2124   0.252   2.467   2.033  2.1191 -2.6775 -0.0820
  709SOL     OW 2125   2.259   2.939   2.128  0.4000 -0.6022  0.1491
  709SOL    HW1 2126   2.189   2.875   2.092  1.8473  0.2861  1.3953
  709SOL    HW2 2127   2.323   2.965   2.051 -1.1851  2.0451  0.1488
  710SOL     OW 2128   1.870   0.745   2.715 -0.1654 -0.4430 -0.3799
  710SOL    HW1 2129   1.945   0.674   2.711  0.3558  0.7562  1.6117
  710SOL    HW2 2130   1.877   0.805   2.630 -0.2453  1.3500 -1.6563
  711SOL     OW 2131   0.840   1.967   0.089  0.2123 -0.3411 -0.2833
  711SOL    HW1 2132   0.800   2.060   0.110  0.2828 -1.2373  2.3444
  711SOL    HW2 2133   0.837   1.940   3.110 -0.5699  1.2739  1.7900
  712SOL     OW 2134   0.602   2.496   2.795 -0.1071  0.4500 -0.2897
  712SOL    HW1 2135   0.697   2.470   2.767 -0.3199  0.5189  1.6905
  712SOL    HW2 2136   0.546   2.505   2.713  1.6402 -2.4038 -1.8926
  713SOL     OW 2137   1.619   1.457   3.092 -0.0109  0.0167 -0.3351
  713SOL    HW1 2138   1.566   1.526   3.045  2.3511 -0.0357  0.2352
  713SOL    HW2 2139   1.653   1.498   0.064  0.3788  1.3871  0.9609
  714SOL     OW 2140   0.903   1.609   1.278 -0.2143  0.4798 -0.0631
  714SOL    HW1 2141   0.856   1.692   1.309  2.1615  0.2828 -0.5611
  714SOL    HW2 2142   1.000   1.628   1.249 -0.1267  0.0862  0.0634
  715SOL     OW 2143   1.753   0.359   2.828  0.0054 -0.5026  0.0819
  715SOL    HW1 2144   1.725   0.454   2.812  0.9461 -1.1787 -1.0010
  715SOL    HW2 2145   1.836   0.351   2.884 -2.9496  1.3741 -0.8618
  716SOL     OW 2146   0.001   2.657   2.463 -0.4412 -0.2918  0.7510
  716SOL    HW1 2147   0.068   2.596   2.508 -0.2413  0.2027  0.9722
  716SOL    HW2 2148   0.036   2.703   2.378 -1.4837  2.2306 -0.9157
  717SOL     OW 2149   2.918   0.557   1.079  0.5291  0.3970  0.1541
  717SOL    HW1 2150   2.907   0.583   1.179 -0.0608  1.9355 -1.8129
  717SOL    HW2 2151   2.860   0.476   1.061  1.2343 -0.2682  2.5831
  718SOL     OW 2152   0.887   1.341   2.692  0.3748 -0.2015 -0.1635
  718SOL    HW1 2153   0.825   1.332   2.773  2.1587 -0.4994  0.6298
  718SOL    HW2 2154   0.856   1.417   2.633  2.2178 -1.7173 -2.2056
  719SOL     OW 2155   2.126   1.063   2.944 -0.0045 -0.8390  0.5864
  719SOL    HW1 2156   2.081   0.974   2.965  0.5201 -0.1714  0.8391
  719SOL    HW2 2157   2.175   1.061   2.851 -1.1132  2.6970  2.0119
  720SOL     OW 2158   0.979   0.619   0.890  0.4390  0.1253 -0.2534
  720SOL    HW1 2159   0.970   0.522   0.923  0.9942 -1.7081  1.1416
  720SOL    HW2 2160   0.886   0.649   0.856 -0.3246  0.5525 -0.6646
  721SOL     OW 2161   2.618   0.089   0.728 -0.2351 -0.4589 -0.1140
  721SOL    HW1 2162   2.644   0.188   0.728 -1.1810 -0.1751 -0.8076
  721SOL    HW2 2163   2.615   0.056   0.632  0.4770  1.7125 -2.4145
  722SOL     OW 2164   2.093   0.610   2.714 -0.3165 -0.3869  0.2293
  722SOL    HW1 2165   2.126   0.513   2.707  2.7815 -2.6731  1.4928
  722SOL    HW2 2166   2.156   0.670   2.660  1.1649 -0.2403 -1.8190
  723SOL     OW 2167   2.403   0.325   0.521  0.6374  0.0703 -0.4454
  723SOL    HW1 2168   2.354   0.253   0.467  0.0519 -1.5125 -2.2133
  723SOL    HW2 2169   2.393   0.407   0.464 -1.0732 -3.3455 -1.4368
  724SOL     OW 2170   0.964   1.505   1.986  0.0785  0.7917  0.1195
  724SOL    HW1 2171   0.915   1.416   1.973 -0.6134 -1.4282  1.9561
  724SOL    HW2 2172   0.957   1.564   1.907 -1.5838 -2.0736  0.9252
  725SOL     OW 2173   1.608   0.382   1.187 -0.1356 -0.3863 -0.6188
  725SOL    HW1 2174   1.689   0.380   1.257  0.6124 -0.6275  0.7440
  725SOL    HW2 2175   1.642   0.407   1.094  1.0556  3.6148  1.2070
  726SOL     OW 2176   1.999   2.745   0.266 -0.1426  0.5265  0.3081
  726SOL    HW1 2177   1.951   2.822   0.307  2.0301 -0.6069  0.7550
  726SOL    HW2 2178   1.956   2.656   0.292  0.5779  0.5012  1.7697
  727SOL     OW 2179   1.632   1.550   1.700 -0.6213  0.4658 -0.3121
  727SOL    HW1 2180   1.711   1.590   1.660 -1.4442  0.2141  1.8453
  727SOL    HW2 2181   1.612   1.458   1.664  1.4571 -1.5398  0.3308
  728SOL     OW 2182   2.067   2.533   1.545 -0.1944  0.3061 -0.0745
  728SOL    HW1 2183   2.040   2.593   1.621  0.6983 -0.5959 -2.3934
  728SOL    HW2 2184   2.026   2.566   1.456 -0.8384  0.8972  1.3550
  729SOL     OW 2185   2.366   1.821   0.768  0.0822 -0.1249 -0.1398
  729SOL    HW1 2186   2.337   1.884   0.694 -1.0200  0.6139 -1.6751
  729SOL    HW2 2187   2.419   1.743   0.723  1.0288 -1.3685 -1.1205
  730SOL     OW 2188   0.740   0.790   2.766  0.0956 -0.3975 -0.6644
  730SOL    HW1 2189   0.639   0.785   2.783  1.1158  1.0813  2.7185
  730SOL    HW2 2190   0.776   0.869   2.817  1.0269 -1.5587 -2.1558
  731SOL     OW 2191   0.242   0.075   0.781 -0.0892  0.1490 -0.4812
  731SOL    HW1 2192   0.268   0.165   0.741 -0.7126  2.5337  0.0290
  731SOL    HW2 2193   0.322   0.026   0.820 -0.5598 -0.7038 -1.4377
  732SOL     OW 2194   1.388   0.721   0.445 -0.1832 -0.3689  0.2878
  732SOL    HW1 2195   1.336   0.684   0.366  0.3859 -0.9407 -2.4765
  732SOL    HW2 2196   1.380   0.667   0.530 -3.8132 -1.0261  1.0224
  733SOL     OW 2197   0.492   2.297   1.146  0.2185  0.4458 -0.0807
  733SOL    HW1 2198   0.575   2.301   1.205 -1.8771  0.1212  0.7044
  733SOL    HW2 2199   0.512   2.244   1.061  2.3364  0.2289 -1.5385
  734SOL     OW 2200   0.304   2.559   0.400  0.0747 -0.7047 -0.0833
  734SOL    HW1 2201   0.383   2.620   0.399 -1.2392 -1.2783  0.0345
  734SOL    HW2 2202   0.217   2.609   0.395  1.6460 -0.2714  2.5103
  735SOL     OW 2203   1.286   0.072   1.201  0.5218 -0.3645 -0.1801
  735SOL    HW1 2204   1.182   0.060   1.200 -0.0439 -2.2219 -1.7469
  735SOL    HW2 2205   1.320   0.138   1.131  0.2680  3.0374 -1.0280
  736SOL     OW 2206   2.080   2.468   2.958 -0.0932  0.2706 -0.5389
  736SOL    HW1 2207   2.041   2.548   3.006 -1.2384 -1.0475 -0.6988
  736SOL    HW2 2208   2.018   2.384   2.956 -3.6946 -1.5682  1.6283
  737SOL     OW 2209   0.042   0.925   0.843 -0.9026  0.0817  0.3229
  737SOL    HW1 2210   3.078   0.958   0.896 -1.4368  1.5408  1.3317
  737SOL    HW2 2211   0.019   0.846   0.783  0.3613 -1.8848 -1.2406
  738SOL     OW 2212   2.635   2.788   2.194  0.6393 -0.0365  0.0845
  738SOL    HW1 2213   2.704   2.723   2.164 -0.5812  0.9644 -1.6584
  738SOL    HW2 2214   2.560   2.747   2.253 -0.7616 -0.4371  2.7325
  739SOL     OW 2215   1.385   2.284   2.988  0.0825 -0.1824 -0.5891
  739SOL    HW1 2216   1.361   2.223   2.910  1.8541 -1.1631  1.5787
  739SOL    HW2 2217   1.410   2.231   3.072 -0.0686 -0.0463  0.0462
  740SOL     OW 2218   1.400   0.280   1.073 -0.4912 -0.1849  0.3904
  740SOL    HW1 2219   1.463   0.330   1.141 -0.8544 -0.2839  2.1658
  740SOL    HW2 2220   1.449   0.272   0.986 -2.9950 -1.4385  0.8583
  741SOL     OW 2221   2.910   0.775   0.682  0.0966 -0.3837  0.1593
  741SOL    HW1 2222   2.936   0.762   0.586 -2.2658  0.0210  1.1237
  741SOL    HW2 2223   2.845   0.708   0.714  1.1299 -0.6030 -0.8090
  742SOL     OW 2224   0.762   1.309   2.916 -0.0424 -0.0814  0.4532
  742SOL    HW1 2225   0.823   1.368   2.974  1.1818 -0.5032  1.2236
  742SOL    HW2 2226   0.670   1.343   2.912  1.6464 -0.0530  1.8793
  743SOL     OW 2227   1.150   0.646   2.252 -1.5055  0.3606 -0.1051
  743SOL    HW1 2228   1.092   0.572   2.292 -1.9150  0.5849  1.0803
  743SOL    HW2 2229   1.096   0.709   2.195  0.5926  1.6889  0.9452
  744SOL     OW 2230   2.040   0.543   1.371 -0.1787 -0.2722  0.4118
  744SOL    HW1 2231   2.134   0.532   1.337 -1.4876  0.1045 -1.2240
  744SOL    HW2 2232   2.045   0.560   1.471 -3.3295  1.2268 -0.3800
  745SOL     OW 2233   1.629   1.308   1.261  1.1458 -0.0979  0.1355
  745SOL    HW1 2234   1.530   1.328   1.235 -1.4861  0.0751  1.5789
  745SOL    HW2 2235   1.684   1.261   1.188  0.0376 -2.4818  0.2070
  746SOL     OW 2236   2.213   1.422   0.898 -0.1428  0.1123  0.3188
  746SOL    HW1 2237   2.203   1.513   0.939 -1.4193 -1.8348  1.1237
  746SOL    HW2 2238   2.137   1.405   0.834 -0.4619 -2.7568  1.4131
  747SOL     OW 2239   2.482   1.541   1.136  0.6440  0.1284  0.2245
  747SOL    HW1 2240   2.531   1.540   1.047 -1.2074  2.7752  1.7383
  747SOL    HW2 2241   2.396   1.601   1.129 -0.9669 -2.1136 -1.2650
  748SOL     OW 2242   0.854   2.111   0.941 -0.4490  0.3748  0.4303
  748SOL    HW1 2243   0.864   2.206   0.908 -1.7181 -1.9469  2.5630
  748SOL    HW2 2244   0.938   2.053   0.930  3.4990 -2.3902 -2.3548
  749SOL     OW 2245   2.497   2.666   2.407 -0.4784 -0.1213  0.1222
  749SOL    HW1 2246   2.546   2.596   2.467 -2.1096  2.3373  1.0821
  749SOL    HW2 2247   2.522   2.758   2.443  2.0249  0.1058 -2.8122
  750SOL     OW 2248   2.239   0.545   0.814 -0.4811 -0.3322  0.1404
  750SOL    HW1 2249   2.257   0.444   0.806 -0.5387  0.0518  2.2796
  750SOL    HW2 2250   2.206   0.582   0.727  1.9321  0.4814 -0.6348
  751SOL     OW 2251   2.437   2.707   0.434  0.2421  0.2600 -0.1591
  751SOL    HW1 2252   2.466   2.707   0.532  1.8677 -1.3148 -1.5739
  751SOL    HW2 2253   2.357   2.640   0.421  1.9792 -0.6999  2.3268
  752SOL     OW 2254   3.098   3.106   0.881  0.3926 -0.7555  0.4939
  752SOL    HW1 2255   3.079   3.017   0.929  0.5259 -1.8228 -1.6705
  752SOL    HW2 2256   0.077   3.103   0.842  1.5746 -0.3261  1.6737
  753SOL     OW 2257   1.798   1.059   2.291  0.1491 -0.1823 -0.4751
  753SOL    HW1 2258   1.801   1.134   2.217  1.4292  4.1313 -1.8596
  753SOL    HW2 2259   1.771   0.965   2.267  1.3279  2.7168 -1.7550
  754SOL     OW 2260   1.733   1.999   1.569 -0.0189  0.2569  0.3486
  754SOL    HW1 2261   1.666   1.983   1.646  1.1148 -1.9714 -0.6557
  754SOL    HW2 2262   1.683   1.998   1.480 -2.9860  1.2321  2.9115
  755SOL     OW 2263   2.644   0.738   1.019 -0.5140  0.2084 -0.7131
  755SOL    HW1 2264   2.646   0.669   1.100  0.6596  0.2611 -1.4607
  755SOL    HW2 2265   2.553   0.735   0.974  3.0102 -0.8486  0.7100
  756SOL     OW 2266   0.958   1.484   2.987 -0.2843  0.3797  0.1173
  756SOL    HW1 2267   1.037   1.442   2.944 -0.0118  0.0522 -0.7338
  756SOL    HW2 2268   0.987   1.534   3.072  1.1035  1.5890 -0.0724
  757SOL     OW 2269   1.498   2.621   0.901 -0.3824  0.5489  0.0044
  757SOL    HW1 2270   1.520   2.721   0.897 -0.6849  0.6638  0.1522
  757SOL    HW2 2271   1.422   2.596   0.837  1.9305  0.6376  0.7920
  758SOL     OW 2272   1.157   2.758   1.506  0.4842  0.7232  0.2334
  758SOL    HW1 2273   1.247   2.802   1.514  2.0738  0.0849  0.3255
  758SOL    HW2 2274   1.112   2.769   1.596  1.5520  1.4185 -0.0951
  759SOL     OW 2275   0.088   0.663   0.782 -0.7143  0.2381  0.4943
  759SOL    HW1 2276   0.017   0.590   0.778 -0.5016 -0.4504  2.0670
  759SOL    HW2 2277   0.115   0.692   0.685 -0.9929  3.1659 -0.6838
  760SOL     OW 2278   2.383   1.153   1.196  0.0031 -0.3700 -0.1583
  760SOL    HW1 2279   2.431   1.061   1.203  1.5639  0.9113 -2.7681
  760SOL    HW2 2280   2.429   1.220   1.256  1.4574 -1.8815  3.0737
  761SOL     OW 2281   2.018   0.112   0.539 -0.2208  0.5556 -0.1709
  761SOL    HW1 2282   2.008   0.013   0.566 -0.5970  0.6759 -1.0102
  761SOL    HW2 2283   2.028   0.164   0.626  0.2027  0.3368  0.9524
  762SOL     OW 2284   2.098   1.725   0.068  0.5614  0.2067  0.5124
  762SOL    HW1 2285   2.136   1.630   0.071  2.2410 -0.4178 -1.4768
  762SOL    HW2 2286   2.172   1.796   0.082  1.5250 -0.6759  0.7253
  763SOL     OW 2287   0.636   1.865   1.524  0.1407  0.5027 -0.4632
  763SOL    HW1 2288   0.734   1.836   1.545  1.6034 -1.3611 -0.8518
  763SOL    HW2 2289   0.567   1.860   1.602 -0.4239  3.0648  0.6351
  764SOL     OW 2290   2.767   2.045   2.572  0.1266 -0.4364  0.0826
  764SOL    HW1 2291   2.734   2.052   2.667  0.6972 -1.4932  0.5056
  764SOL    HW2 2292   2.726   2.126   2.516 -2.7679  1.9531 -6.3771
  765SOL     OW 2293   0.505   2.743   1.130  0.4045 -0.3485  0.5352
  765SOL    HW1 2294   0.536   2.830   1.088  0.7872 -0.9900  0.6067
  765SOL    HW2 2295   0.503   2.659   1.065 -0.8160 -2.0526 -2.3160
  766SOL     OW 2296   0.042   2.252   2.432 -0.3250 -0.2063  0.7052
  766SOL    HW1 2297   0.106   2.312   2.487  2.0305 -2.8576  0.6549
  766SOL    HW2 2298   0.085   2.223   2.343  0.3702 -0.4308  0.7729
  767SOL     OW 2299   2.283   0.758   2.567 -0.2946  0.2474 -0.4994
  767SOL    HW1 2300   2.275   0.858   2.560 -0.6832 -0.6308 -1.5789
  767SOL    HW2 2301   2.371   0.732   2.609 -1.1426  0.1803 -0.3260
  768SOL     OW 2302   1.547   0.164   2.625  0.1579 -0.4806  0.4572
  768SOL    HW1 2303   1.477   0.226   2.587 -2.9295 -0.9543  0.2270
  768SOL    HW2 2304   1.561   0.185   2.725  0.9573  0.1068  0.0917
  769SOL     OW 2305   2.958   2.612   0.961  0.5446 -0.1059  0.9182
  769SOL    HW1 2306   2.968   2.598   0.860 -1.0364 -0.6795 -1.4693
  769SOL    HW2 2307   3.026   2.556   1.012  0.6380  3.0241 -1.0333
  770SOL     OW 2308   0.755   0.274   2.967 -0.5400 -0.4523 -0.2069
  770SOL    HW1 2309   0.689   0.352   2.975  1.4164 -0.1491  0.8614
  770SOL    HW2 2310   0.711   0.193   3.016 -0.7564 -0.6904  2.3967
  771SOL     OW 2311   1.401   1.730   2.342 -0.9615 -0.5968 -0.5397
  771SOL    HW1 2312   1.486   1.724   2.286 -0.6959  3.1049 -2.7260
  771SOL    HW2 2313   1.323   1.723   2.282  0.9506 -1.2116  2.9739
  772SOL     OW 2314   1.953   2.800   2.227  0.3629 -0.5136 -0.6696
  772SOL    HW1 2315   2.017   2.867   2.275  3.5188  0.5255  1.7363
  772SOL    HW2 2316   1.898   2.839   2.150  0.3177  1.3298 -2.5999
  773SOL     OW 2317   1.692   0.626   1.497  0.0484 -0.3830  0.0244
  773SOL    HW1 2318   1.632   0.631   1.418 -1.7726 -0.3346 -0.6894
  773SOL    HW2 2319   1.637   0.627   1.584  1.1616 -0.7332  3.5088
  774SOL     OW 2320   1.000   0.383   1.033  0.1834 -0.2714 -0.0541
  774SOL    HW1 2321   1.096   0.410   1.039 -2.8021 -2.8538  0.9054
  774SOL    HW2 2322   0.951   0.428   1.105  2.1816  0.1012 -1.4565
  775SOL     OW 2323   2.121   2.965   2.965 -1.0320  0.0449 -0.1793
  775SOL    HW1 2324   2.027   2.967   3.000  2.4154 -1.3489  3.0391
  775SOL    HW2 2325   2.127   2.911   2.874 -3.2059  1.1907 -2.5132
  776SOL     OW 2326   2.150   0.554   1.651 -0.1957  0.2154  0.2135
  776SOL    HW1 2327   2.068   0.537   1.702  0.8131  1.3914  0.8570
  776SOL    HW2 2328   2.213   0.616   1.698 -0.1393 -0.1554  0.7512
  777SOL     OW 2329   2.828   1.487   2.277 -0.1041  0.7221  0.4295
  777SOL    HW1 2330   2.859   1.525   2.367  0.7166 -1.0148 -2.0984
  777SOL    HW2 2331   2.731   1.453   2.291  2.3193  0.6739 -2.7400
  778SOL     OW 2332   2.926   1.138   2.521 -0.4969  0.3348  0.0327
  778SOL    HW1 2333   3.019   1.170   2.493  0.4279 -0.6498  0.4258
  778SOL    HW2 2334   2.860   1.213   2.534  2.7115 -2.3258  4.0250
  779SOL     OW 2335   3.055   0.699   2.877  0.3606 -0.0177  0.5194
  779SOL    HW1 2336   0.020   0.642   2.857  1.2390 -0.8184  2.1287
  779SOL    HW2 2337   2.997   0.661   2.952  0.8525  1.8810  0.7020
  780SOL     OW 2338   2.444   2.139   2.316  0.4929  0.3037 -0.5378
  780SOL    HW1 2339   2.537   2.136   2.272 -1.3902 -0.3631 -0.4856
  780SOL    HW2 2340   2.429   2.231   2.348 -2.0810 -1.9126 -3.2343
  781SOL     OW 2341   2.831   1.098   1.929 -0.3088 -0.2667  0.2448
  781SOL    HW1 2342   2.881   1.162   1.866 -0.6767  0.0777  1.3083
  781SOL    HW2 2343   2.761   1.040   1.879 -0.8972 -2.0949 -0.4506
  782SOL     OW 2344   1.096   2.036   2.603  0.2719  0.6195 -1.0906
  782SOL    HW1 2345   1.177   2.020   2.544  0.7522 -1.5612  3.0584
  782SOL    HW2 2346   1.115   1.974   2.688  0.4759 -3.7919  2.8368
  783SOL     OW 2347   0.977   2.495   1.017 -0.4435 -0.3191 -0.0310
  783SOL    HW1 2348   1.054   2.433   0.989 -0.4790 -1.3353  0.8218
  783SOL    HW2 2349   0.996   2.593   0.998  0.2361  0.0291  0.2804
  784SOL     OW 2350   1.951   0.685   2.351 -0.1182  0.2168  0.2445
  784SOL    HW1 2351   2.015   0.611   2.388  3.0211 -1.9648 -0.5311
  784SOL    HW2 2352   1.934   0.758   2.423 -0.5299 -1.1202  2.9299
  785SOL     OW 2353   3.092   0.109   1.742 -0.3959 -0.1580  0.1516
  785SOL    HW1 2354   3.010   0.157   1.708  1.5080  0.1316 -0.9799
  785SOL    HW2 2355   0.037   0.103   1.661 -1.6042 -0.9758  3.4504
  786SOL     OW 2356   1.245   2.143   0.189  0.0498  0.1472  0.7484
  786SOL    HW1 2357   1.143   2.149   0.203 -2.5011  0.3719  1.5108
  786SOL    HW2 2358   1.282   2.233   0.220 -2.0467  0.9052  3.0392
  787SOL     OW 2359   0.880   3.069   0.818 -0.2748  0.1693 -0.2992
  787SOL    HW1 2360   0.783   3.036   0.825  0.6333  0.3355 -2.4307
  787SOL    HW2 2361   0.904   0.020   0.891 -1.1341  2.3388 -1.6921
  788SOL     OW 2362   3.102   1.334   0.958 -0.1461 -0.6725  0.2014
  788SOL    HW1 2363   3.065   1.428   0.943 -0.4985  2.1868 -0.1488
  788SOL    HW2 2364   0.006   1.289   0.872 -2.6547  0.3099  2.2262
  789SOL     OW 2365   2.516   1.148   2.277 -0.0733  0.4440  0.1718
  789SOL    HW1 2366   2.420   1.128   2.294  1.2482  0.5311  1.7345
  789SOL    HW2 2367   2.574   1.072   2.312  2.2085 -1.0857 -0.5333
  790SOL     OW 2368   1.195   0.243   2.683  0.2740 -0.7580  0.3773
  790SOL    HW1 2369   1.196   0.210   2.589 -0.7070  0.4507  0.8001
  790SOL    HW2 2370   1.095   0.245   2.709 -2.8728 -1.2217  0.9791
  791SOL     OW 2371   0.240   2.898   0.125  0.3324  0.2006  0.2395
  791SOL    HW1 2372   0.249   2.998   0.148  0.1117 -0.8422  1.3716
  791SOL    HW2 2373   0.332   2.854   0.121 -2.3602  0.8044 -0.9583
  792SOL     OW 2374   1.518   0.885   1.787  0.1205 -0.4107 -0.1447
  792SOL    HW1 2375   1.518   0.902   1.889  2.1434 -0.7962  1.9213
  792SOL    HW2 2376   1.428   0.869   1.744  2.3918  0.1606 -0.7967
  793SOL     OW 2377   2.904   0.173   1.069 -0.8866  0.0084 -0.0565
  793SOL    HW1 2378   2.996   0.213   1.048 -0.7084 -1.3635  2.3016
  793SOL    HW2 2379   2.838   0.248   1.092 -1.1459 -2.3437 -0.5538
  794SOL     OW 2380   0.408   0.195   2.249 -0.1470  0.3376  0.2619
  794SOL    HW1 2381   0.477   0.122   2.249  1.2645  0.8011  0.0086
  794SOL    HW2 2382   0.339   0.184   2.176 -1.4406  1.4945  1.7127
  795SOL     OW 2383   0.565   1.634   0.530  0.2903  0.5648  0.5128
  795SOL    HW1 2384   0.482   1.577   0.512 -0.4458 -0.1461 -1.2941
  795SOL    HW2 2385   0.568   1.703   0.453  0.7266  1.9863 -0.5132
  796SOL     OW 2386   3.067   0.990   2.807 -0.4768 -0.5165 -0.0963
  796SOL    HW1 2387   3.058   0.897   2.840  0.5038  1.9456  0.9238
  796SOL    HW2 2388   2.978   1.030   2.773  1.9883  1.6352  2.8052
  797SOL     OW 2389   2.426   3.044   2.323  0.1280 -0.5549  0.8903
  797SOL    HW1 2390   2.364   2.987   2.265  1.7469  0.2196 -0.1130
  797SOL    HW2 2391   2.459   0.007   2.261  0.8505  3.9887 -1.5143
  798SOL     OW 2392   0.040   2.996   1.219 -0.2151 -0.1538 -0.3048
  798SOL    HW1 2393   0.011   2.966   1.127 -0.2244  1.2816 -3.3258
  798SOL    HW2 2394   3.094   3.060   1.267  0.3254  1.5126 -1.1929
  799SOL     OW 2395   2.892   0.798   1.742  0.0932  0.3348 -0.2257
  799SOL    HW1 2396   2.934   0.784   1.653 -0.5453 -0.8535  0.8035
  799SOL    HW2 2397   2.828   0.874   1.738 -1.2907 -0.6731 -3.4060
  800SOL     OW 2398   0.448   1.257   0.443  0.0216 -0.3588 -0.1452
  800SOL    HW1 2399   0.422   1.349   0.474 -0.3773 -0.6022  0.4563
  800SOL    HW2 2400   0.481   1.257   0.349  0.2312 -4.3823  0.7056
  801SOL     OW 2401   1.982   1.775   0.452 -0.5816 -0.0612 -0.2016
  801SOL    HW1 2402   1.920   1.808   0.526  3.3646  4.8447  0.6846
  801SOL    HW2 2403   1.996   1.677   0.449  2.3153  0.0523 -1.0794
  802SOL     OW 2404   1.439   0.952   2.795 -0.3273  0.2713 -0.3959
  802SOL    HW1 2405   1.397   1.005   2.720  1.1176 -2.5476  1.6709
  802SOL    HW2 2406   1.434   0.853   2.775  1.2741 -0.2621 -0.5860
  803SOL     OW 2407   1.109   1.925   1.711  0.3680 -0.7390  0.1359
  803SOL    HW1 2408   1.193   1.911   1.654 -3.0218  1.4342 -0.0975
  803SOL    HW2 2409   1.133   1.891   1.805 -2.1265  1.3199  0.9785
  804SOL     OW 2410   1.651   2.405   0.972  0.2296 -0.1447  0.0975
  804SOL    HW1 2411   1.675   2.354   0.887  0.2388  1.1113 -0.1532
  804SOL    HW2 2412   1.614   2.498   0.942 -2.6393 -1.4157  1.7119
  805SOL     OW 2413   2.877   2.312   2.423 -1.1344  0.1519  0.5882
  805SOL    HW1 2414   2.979   2.298   2.418 -1.1024  2.1543 -0.2903
  805SOL    HW2 2415   2.863   2.414   2.431  0.4690  1.9968 -0.0853
  806SOL     OW 2416   3.082   0.018   0.435  0.0624  0.0481 -0.0661
  806SOL    HW1 2417   3.042   3.116   0.526 -0.8121 -1.4953 -0.6426
  806SOL    HW2 2418   3.114   3.049   0.391 -0.8401 -0.0788  1.6710
  807SOL     OW 2419   2.455   0.815   2.918 -0.7311  0.0845  0.1714
  807SOL    HW1 2420   2.478   0.784   2.821 -0.2436 -1.1579  1.3759
  807SOL    HW2 2421   2.425   0.741   2.979  1.2715  3.6519  0.9433
  808SOL     OW 2422   1.286   2.473   0.752 -0.2305  1.1416  0.0031
  808SOL    HW1 2423   1.339   2.422   0.682 -1.7791 -0.5367  0.9506
  808SOL    HW2 2424   1.269   2.413   0.836 -1.0873 -1.5230  3.7680
  809SOL     OW 2425   2.768   0.276   2.778  0.2898 -0.4337  0.0311
  809SOL    HW1 2426   2.777   0.177   2.796  0.8218  1.2477 -1.1174
  809SOL    HW2 2427   2.767   0.296   2.677  0.4405 -1.7253  0.8666
  810SOL     OW 2428   1.453   1.064   0.685  0.6056  0.3839 -0.0711
  810SOL    HW1 2429   1.403   1.151   0.687 -0.3994 -1.8488 -0.1725
  810SOL    HW2 2430   1.411   0.997   0.747 -0.7263  0.8553 -0.8278
  811SOL     OW 2431   1.833   2.969   1.546  0.2241  0.2779  0.0790
  811SOL    HW1 2432   1.773   3.010   1.477  0.2054 -0.5445  1.7399
  811SOL    HW2 2433   1.782   2.938   1.626  1.1412  3.4587 -0.0890
  812SOL     OW 2434   1.645   2.847   0.227  0.2536  0.2489  0.6000
  812SOL    HW1 2435   1.645   2.786   0.311 -0.7935  0.9716  3.1474
  812SOL    HW2 2436   1.571   2.813   0.167 -1.9243  0.9444  2.6825
  813SOL     OW 2437   1.275   0.408   2.106  0.0780  0.0811 -0.2213
  813SOL    HW1 2438   1.270   0.498   2.155  0.8353  2.7410 -1.1807
  813SOL    HW2 2439   1.294   0.327   2.163 -0.6275  0.4814  0.6466
  814SOL     OW 2440   0.292   3.068   1.161  0.2793 -0.1317 -0.4860
  814SOL    HW1 2441   0.198   3.052   1.194  0.9182 -1.0823 -1.1360
  814SOL    HW2 2442   0.360   3.058   1.239 -1.0922  0.1358  2.3090
  815SOL     OW 2443   0.202   2.828   0.812 -0.1608 -0.2302 -0.6250
  815SOL    HW1 2444   0.247   2.742   0.784  1.7612  2.5561  1.0796
  815SOL    HW2 2445   0.269   2.904   0.811 -0.8568  1.5234 -1.0644
  816SOL     OW 2446   2.693   1.602   2.659 -0.3048  0.0351 -0.0928
  816SOL    HW1 2447   2.605   1.598   2.710 -1.3692  0.4854 -1.3511
  816SOL    HW2 2448   2.696   1.690   2.608 -2.3925  3.3652  0.2697
  817SOL     OW 2449   1.329   0.015   3.079  0.1078  0.1394  0.4634
  817SOL    HW1 2450   1.408   0.023   0.025 -0.6902  1.7541 -0.0012
  817SOL    HW2 2451   1.328   3.049   3.025  0.9282 -3.1897 -2.7102
  818SOL     OW 2452   1.770   0.802   0.042  0.7802  0.1149  0.2748
  818SOL    HW1 2453   1.797   0.853   0.126  1.4060 -3.0361 -0.6812
  818SOL    HW2 2454   1.743   0.709   0.067  1.1378 -0.1890  2.2054
  819SOL     OW 2455   1.884   2.705   2.750  0.1288 -0.2086  0.2716
  819SOL    HW1 2456   1.959   2.659   2.701 -0.4267  0.5357 -1.8977
  819SOL    HW2 2457   1.927   2.762   2.826 -0.7408  2.0543 -0.1870
  820SOL     OW 2458   1.411   1.127   0.092  0.2987 -0.1037  0.0846
  820SOL    HW1 2459   1.490   1.092   0.030  1.8272 -0.2604 -2.9580
  820SOL    HW2 2460   1.452   1.151   0.184  0.1523 -1.4398  2.1767
  821SOL     OW 2461   0.274   0.616   1.434 -0.3545 -0.0072  0.1271
  821SOL    HW1 2462   0.266   0.711   1.394  1.3052  0.2815 -0.2480
  821SOL    HW2 2463   0.304   0.553   1.357  0.9514 -0.4498 -0.4243
  822SOL     OW 2464   1.246   2.641   2.263  0.1639 -0.5615  0.1861
  822SOL    HW1 2465   1.329   2.656   2.204  2.3078  2.0967 -1.9711
  822SOL    HW2 2466   1.240   2.540   2.286  3.4208 -0.3058  1.2145
  823SOL     OW 2467   0.650   1.548   2.114 -0.3037  0.6692  0.1971
  823SOL    HW1 2468   0.732   1.605   2.129 -1.6648  0.2672 -1.0256
  823SOL    HW2 2469   0.674   1.451   2.128  0.7169 -1.7383  2.1120
  824SOL     OW 2470   2.094   2.861   1.878 -0.1980 -0.2524 -0.2094
  824SOL    HW1 2471   2.100   2.762   1.883 -0.5997  1.9531  3.2430
  824SOL    HW2 2472   2.130   2.890   1.789  2.3869 -0.8041  1.5038
  825SOL     OW 2473   0.844   1.254   0.300  0.3205 -0.2029 -0.2118
  825SOL    HW1 2474   0.910   1.325   0.328 -0.1327  0.8211 -3.4092
  825SOL    HW2 2475   0.883   1.194   0.228 -1.0488  0.3185 -0.6941
  826SOL     OW 2476   2.134   0.496   2.429 -0.2228  0.4505  0.2223
  826SOL    HW1 2477   2.228   0.539   2.421  0.1332  1.1601 -0.2294
  826SOL    HW2 2478   2.135   0.425   2.504  1.3287  2.7248 -0.0162
  827SOL     OW 2479   0.524   2.211   2.900 -0.0470 -0.7305 -0.2044
  827SOL    HW1 2480   0.536   2.272   2.982 -0.4384  0.6078  1.9505
  827SOL    HW2 2481   0.454   2.251   2.836 -1.1725  1.4634 -0.9388
  828SOL     OW 2482   2.980   0.059   1.317  0.8547 -0.2293 -0.0244
  828SOL    HW1 2483   2.961   0.109   1.231  1.0977 -0.9081 -1.1623
  828SOL    HW2 2484   2.901   0.003   1.342 -0.1492  2.5775  0.7686
  829SOL     OW 2485   1.321   1.462   1.204  0.3168 -0.3693 -0.1616
  829SOL    HW1 2486   1.234   1.511   1.226 -1.5671  0.4309  0.4382
  829SOL    HW2 2487   1.293   1.367   1.195 -0.2563  2.3647  0.8140
  830SOL     OW 2488   0.521   1.404   1.701 -0.3241  0.2058  0.0171
  830SOL    HW1 2489   0.545   1.485   1.761  1.5093  1.3398  0.0401
  830SOL    HW2 2490   0.488   1.433   1.609 -0.5261 -1.7319  0.5952
  831SOL     OW 2491   0.524   1.812   0.311  0.4297  0.4859 -0.6040
  831SOL    HW1 2492   0.455   1.757   0.262  0.5639  2.0399  0.4048
  831SOL    HW2 2493   0.528   1.901   0.262 -0.6516 -1.9470  1.0679
  832SOL     OW 2494   0.836   2.948   2.640 -0.0447  0.4507  0.3074
  832SOL    HW1 2495   0.864   3.004   2.725  4.5102  0.5396  0.6230
  832SOL    HW2 2496   0.739   2.975   2.611 -0.2804 -0.4913  1.1592
  833SOL     OW 2497   0.073   0.529   1.888  0.0783 -0.3472 -0.3793
  833SOL    HW1 2498   0.017   0.475   1.822 -1.6316  0.2758 -0.7662
  833SOL    HW2 2499   0.016   0.563   1.967 -0.7434  0.1977  2.3550
  834SOL     OW 2500   0.042   0.673   1.075  0.0569 -0.2722 -0.1249
  834SOL    HW1 2501   0.081   0.689   0.982 -0.2041 -2.0000  0.4477
  834SOL    HW2 2502   3.070   0.624   1.071  2.0174  0.1801  1.7054
  835SOL     OW 2503   2.673   2.882   1.103 -0.2918  0.3491  0.1877
  835SOL    HW1 2504   2.705   2.968   1.051  1.6411  3.0571 -0.6506
  835SOL    HW2 2505   2.734   2.860   1.177 -1.9495 -0.4100 -1.6531
  836SOL     OW 2506   0.549   1.957   3.039  0.3069  0.1108  0.4312
  836SOL    HW1 2507   0.549   1.997   0.016  1.1996  1.4718  1.1894
  836SOL    HW2 2508   0.552   2.039   2.978 -0.5070 -0.9844 -0.4116
  837SOL     OW 2509   1.846   2.179   0.020 -0.2825 -0.5949 -0.0553
  837SOL    HW1 2510   1.851   2.203   3.038  1.1861 -0.4652  0.0188
  837SOL    HW2 2511   1.935   2.147   0.054 -1.8135  1.0287 -1.4837
  838SOL     OW 2512   2.631   1.257   2.055  0.4434 -0.4809 -0.3658
  838SOL    HW1 2513   2.603   1.210   2.142  2.7751 -0.7898  0.3942
  838SOL    HW2 2514   2.705   1.200   2.012 -0.0421 -1.9109 -0.8068
  839SOL     OW 2515   1.146   1.039   0.579  0.0370  0.2030  0.1481
  839SOL    HW1 2516   1.060   0.994   0.611  3.3469 -0.8695  1.8400
  839SOL    HW2 2517   1.123   1.136   0.555  1.7799 -2.8316  0.7940
  840SOL     OW 2518   1.931   0.574   0.820  1.0268 -0.0639 -0.2938
  840SOL    HW1 2519   2.002   0.588   0.749 -1.7458 -0.0144  1.1848
  840SOL    HW2 2520   1.835   0.577   0.781 -0.5936  2.5941  0.9625
  841SOL     OW 2521   0.631   2.941   0.791  0.2479 -0.1878 -0.3579
  841SOL    HW1 2522   0.556   2.983   0.841 -0.0345 -1.3801  0.0408
  841SOL    HW2 2523   0.624   2.965   0.693 -1.9018 -0.6963  0.4266
  842SOL     OW 2524   0.459   0.506   0.529  0.0833  0.2544 -0.3254
  842SOL    HW1 2525   0.377   0.453   0.558 -0.8579 -1.3668 -0.1354
  842SOL    HW2 2526   0.439   0.563   0.444  1.3118  1.7806 -0.2004
  843SOL     OW 2527   0.473   0.794   1.787 -0.1961 -0.1249 -0.2018
  843SOL    HW1 2528   0.457   0.874   1.727 -0.4653  1.6980 -1.7993
  843SOL    HW2 2529   0.486   0.830   1.884  0.5041  0.3051  0.3099
  844SOL     OW 2530   1.533   2.526   3.059  0.4375  0.3000 -0.1086
  844SOL    HW1 2531   1.590   2.560   2.986  0.0185 -0.0615  0.2891
  844SOL    HW2 2532   1.462   2.462   3.022  0.4336  0.6350  2.5702
  845SOL     OW 2533   2.849   2.584   2.392 -0.4669  0.1759  0.0164
  845SOL    HW1 2534   2.946   2.610   2.415  0.9856  0.3003 -0.7157
  845SOL    HW2 2535   2.817   2.609   2.298 -3.1709  0.2434  0.1087
  846SOL     OW 2536   1.575   1.891   2.677 -0.7001  0.3735  0.4454
  846SOL    HW1 2537   1.511   1.937   2.741  1.8538  0.6940  0.7546
  846SOL    HW2 2538   1.642   1.837   2.732 -2.5881 -0.8824 -0.3796
  847SOL     OW 2539   2.308   2.619   2.231  0.2435 -0.1400 -0.3641
  847SOL    HW1 2540   2.383   2.625   2.301  2.1550  0.0070  0.5882
  847SOL    HW2 2541   2.335   2.668   2.142  1.3598  2.3092 -1.7621
  848SOL     OW 2542   0.775   0.269   0.293  0.4521  0.0382  0.0324
  848SOL    HW1 2543   0.753   0.350   0.237  1.0204  1.0661  1.5305
  848SOL    HW2 2544   0.862   0.280   0.347 -0.7451  1.4266 -1.1395
  849SOL     OW 2545   0.675   2.928   1.482 -0.1078  0.0335  0.0454
  849SOL    HW1 2546   0.701   2.860   1.411 -1.0231  1.4957  1.7110
  849SOL    HW2 2547   0.759   2.967   1.524  1.3379 -0.9442 -0.9591
  850SOL     OW 2548   0.093   1.535   0.392  0.1750 -0.1972 -0.1235
  850SOL    HW1 2549   0.082   1.550   0.288  0.0675  1.1703  1.2101
  850SOL    HW2 2550   0.020   1.582   0.443 -0.5706 -2.0479  0.5675
  851SOL     OW 2551   0.318   0.653   3.042 -0.9241 -0.1033  0.6556
  851SOL    HW1 2552   0.327   0.751   3.048  1.7129  0.7438  0.5080
  851SOL    HW2 2553   0.265   0.630   2.954 -2.2658 -0.4065 -3.9728
  852SOL     OW 2554   1.519   1.971   1.790 -0.9091 -0.1359 -0.2303
  852SOL    HW1 2555   1.506   1.880   1.833  0.1165  0.5326  0.8360
  852SOL    HW2 2556   1.500   2.040   1.860 -1.7192 -1.6696 -1.0838
  853SOL     OW 2557   0.559   1.992   0.654 -0.2373 -0.5614 -0.4875
  853SOL    HW1 2558   0.610   2.055   0.587  3.9405  2.1041 -0.7890
  853SOL    HW2 2559   0.474   1.953   0.613  0.8377 -0.7500  2.8854
  854SOL     OW 2560   2.198   1.127   1.468 -0.9128  0.5425  0.3570
  854SOL    HW1 2561   2.131   1.100   1.543  0.2912  2.8600 -2.6048
  854SOL    HW2 2562   2.158   1.133   1.377  0.6386 -0.5395  0.3625
  855SOL     OW 2563   0.534   2.057   0.186 -0.4518 -0.2653 -0.3353
  855SOL    HW1 2564   0.442   2.093   0.207 -0.3567  0.4991 -1.3109
  855SOL    HW2 2565   0.602   2.130   0.219 -3.1607 -0.1438  1.3711
  856SOL     OW 2566   2.970   3.059   1.948  0.0597  0.5605  0.1320
  856SOL    HW1 2567   2.993   3.100   2.036  1.2179 -0.2556 -0.1515
  856SOL    HW2 2568   2.968   0.005   1.869 -0.3349  1.3595 -1.5359
  857SOL     OW 2569   0.254   0.342   1.762 -0.4344  0.2993  0.6423
  857SOL    HW1 2570   0.164   0.353   1.720  2.3538 -0.0918 -2.0466
  857SOL    HW2 2571   0.302   0.429   1.765  1.6937  0.8348 -1.0648
  858SOL     OW 2572   2.911   1.987   2.162 -0.4292 -0.7411  0.0461
  858SOL    HW1 2573   2.886   1.889   2.171 -0.5837  2.1865 -0.1659
  858SOL    HW2 2574   2.978   2.015   2.236  0.6362 -0.7696  1.5025
  859SOL     OW 2575   1.970   2.974   0.623 -0.3840 -0.3698  0.5419
  859SOL    HW1 2576   1.903   2.989   0.696  3.2964 -3.0889 -1.5349
  859SOL    HW2 2577   2.011   2.883   0.616  0.6130 -1.8916  0.1320
  860SOL     OW 2578   1.905   0.248   0.140  0.0078  0.0115 -0.1518
  860SOL    HW1 2579   1.965   0.189   0.082  0.0448  1.9859  0.7286
  860SOL    HW2 2580   1.924   0.340   0.103 -0.1618  0.0420 -2.6903
  861SOL     OW 2581   0.301   0.505   0.832  0.4780 -0.1689  0.1332
  861SOL    HW1 2582   0.213   0.555   0.823 -0.5711 -0.0463 -0.6268
  861SOL    HW2 2583   0.360   0.534   0.909 -2.1176 -2.1009 -2.8003
  862SOL     OW 2584   2.233   0.306   1.548 -0.4346  0.5598 -0.3243
  862SOL    HW1 2585   2.161   0.267   1.496  0.2725  1.0820  2.9079
  862SOL    HW2 2586   2.193   0.390   1.587 -1.7099 -1.8185 -0.9549
  863SOL     OW 2587   0.292   1.476   1.068 -0.3065  0.0164  0.6028
  863SOL    HW1 2588   0.374   1.534   1.077 -0.5474 -0.5848 -1.8610
  863SOL    HW2 2589   0.320   1.381   1.079 -0.2774 -0.0454  0.2120
  864SOL     OW 2590   2.684   3.053   2.084  0.2876  0.6383 -0.4910
  864SOL    HW1 2591   2.777   3.086   2.101  0.0587  0.6640  2.3855
  864SOL    HW2 2592   2.667   2.961   2.122 -1.0068 -1.4294  5.1189
  865SOL     OW 2593   1.311   0.463   1.572  0.1708 -0.2912  0.1043
  865SOL    HW1 2594   1.363   0.391   1.519 -2.2819 -0.3292 -0.7688
  865SOL    HW2 2595   1.266   0.424   1.653 -0.7644 -1.4987 -1.4919
  866SOL     OW 2596   2.524   2.762   0.693 -1.0840 -0.2353  0.4561
  866SOL    HW1 2597   2.605   2.768   0.754 -0.1585  0.4036 -3.4970
  866SOL    HW2 2598   2.436   2.765   0.748 -0.4500  3.7858 -0.6908
  867SOL     OW 2599   2.654   2.518   0.619  0.2118  0.7122  0.4335
  867SOL    HW1 2600   2.647   2.491   0.719 -0.7246  0.4668 -0.1035
  867SOL    HW2 2601   2.619   2.610   0.595  1.7734  2.0299 -0.2738
  868SOL     OW 2602   1.334   1.970   2.496 -0.2673 -0.0691  0.2911
  868SOL    HW1 2603   1.346   1.890   2.434  0.3146  3.3641  1.5645
  868SOL    HW2 2604   1.394   1.955   2.575 -1.5281  0.8881 -0.8543
  869SOL     OW 2605   2.333   1.383   0.577  0.0366  0.6522 -0.3085
  869SOL    HW1 2606   2.294   1.401   0.481 -0.3979  0.0721 -1.1742
  869SOL    HW2 2607   2.276   1.303   0.620 -1.6905 -4.0559 -1.0782
  870SOL     OW 2608   2.567   1.658   0.382 -0.2320 -0.1909  0.2207
  870SOL    HW1 2609   2.538   1.590   0.314  0.3562  1.5486  0.4054
  870SOL    HW2 2610   2.667   1.681   0.369  1.3358 -0.0080  2.0289
  871SOL     OW 2611   3.047   0.764   1.463  0.5702 -0.3592 -0.0956
  871SOL    HW1 2612   3.066   0.840   1.393 -2.2036  0.9406 -2.4005
  871SOL    HW2 2613   0.005   0.752   1.531 -1.7393 -1.6751 -2.3365
  872SOL     OW 2614   0.427   1.864   2.691 -0.2100 -0.1249  0.3518
  872SOL    HW1 2615   0.447   1.809   2.773 -2.1655 -1.6408 -0.7255
  872SOL    HW2 2616   0.447   1.813   2.600  1.3626 -1.1319 -2.3251
  873SOL     OW 2617   0.379   2.640   1.825 -0.4607  0.0125 -0.4250
  873SOL    HW1 2618   0.465   2.597   1.867  3.3608 -2.5430  0.5106
  873SOL    HW2 2619   0.417   2.731   1.793  1.5663 -1.4417 -0.2243
  874SOL     OW 2620   1.304   1.151   2.127 -0.3878 -0.4327 -0.0433
  874SOL    HW1 2621   1.236   1.198   2.187  2.2907 -0.9780  2.2879
  874SOL    HW2 2622   1.320   1.056   2.155  1.5741 -0.1254 -0.2888
  875SOL     OW 2623   2.837   2.821   1.312  0.2156 -0.7243 -0.3268
  875SOL    HW1 2624   2.935   2.789   1.333  1.1498 -1.1832 -1.9765
  875SOL    HW2 2625   2.806   2.866   1.396  1.6977 -1.1046  4.5006
  876SOL     OW 2626   1.039   1.173   0.862 -0.6715  0.1845 -0.0975
  876SOL    HW1 2627   0.967   1.104   0.883 -3.2844 -1.8849 -1.7057
  876SOL    HW2 2628   0.998   1.254   0.827  2.5745 -3.7468  2.6531
  877SOL     OW 2629   0.641   0.458   1.353  0.2802 -0.3083  0.2688
  877SOL    HW1 2630   0.619   0.440   1.450  0.8179  1.7613 -0.4986
  877SOL    HW2 2631   0.630   0.376   1.296  0.8437  0.5134 -2.4639
  878SOL     OW 2632   2.727   1.927   2.843 -0.2819  0.0535 -0.2384
  878SOL    HW1 2633   2.781   1.836   2.840  3.7267 -1.0292  1.5243
  878SOL    HW2 2634   2.629   1.913   2.807 -1.0946  0.0581  1.8193
  879SOL     OW 2635   2.189   1.985   1.254  0.3910  0.4270  0.1357
  879SOL    HW1 2636   2.226   2.014   1.344 -0.8773 -0.4016  0.3027
  879SOL    HW2 2637   2.219   2.043   1.174 -1.0255  0.5130 -2.9073
  880SOL     OW 2638   0.900   2.510   1.290  0.0404 -0.0443  0.8524
  880SOL    HW1 2639   0.962   2.478   1.373  2.9280  2.1565  3.6613
  880SOL    HW2 2640   0.933   2.486   1.198 -1.7988  0.2418 -2.6757
  881SOL     OW 2641   1.203   1.980   0.956 -0.1231 -0.3719  0.2548
  881SOL    HW1 2642   1.243   1.996   0.864  1.6770 -1.1414  0.7224
  881SOL    HW2 2643   1.142   1.894   0.952 -0.2398 -4.2822 -0.6817
  882SOL     OW 2644   1.941   1.768   2.463  0.1705 -0.2942  0.2844
  882SOL    HW1 2645   2.001   1.767   2.544 -1.5151 -2.2984  0.3566
  882SOL    HW2 2646   1.994   1.811   2.388  1.1288 -0.8534  0.8156
  883SOL     OW 2647   1.240   0.501   1.075 -0.3010  0.1198  0.3164
  883SOL    HW1 2648   1.281   0.588   1.050 -0.1223  0.5110  0.5663
  883SOL    HW2 2649   1.309   0.424   1.075  2.8184  0.5201 -0.3972
  884SOL     OW 2650   3.094   2.853   0.984  0.4939  0.1886  0.1580
  884SOL    HW1 2651   0.064   2.845   0.934  1.3060 -0.6822  2.9660
  884SOL    HW2 2652   3.041   2.766   0.981 -0.5500  0.3035 -1.4508
  885SOL     OW 2653   1.092   1.085   1.968 -0.4123 -0.6697 -0.2164
  885SOL    HW1 2654   1.109   1.093   1.864  0.0297 -0.7785 -1.6358
  885SOL    HW2 2655   1.175   1.119   2.019  1.9540 -0.5454 -0.4154
  886SOL     OW 2656   1.074   1.014   2.995  0.1439 -0.2777 -0.0970
  886SOL    HW1 2657   1.004   1.020   2.924  2.8138  0.9187  4.1656
  886SOL    HW2 2658   1.157   1.065   2.964  2.4814  1.5320  1.3900
  887SOL     OW 2659   1.547   0.117   0.767  0.3953 -0.5270 -0.0197
  887SOL    HW1 2660   1.564   0.216   0.734  0.9385  0.1255 -1.4626
  887SOL    HW2 2661   1.607   0.087   0.842  0.0593 -1.5757 -2.9290
  888SOL     OW 2662   2.366   1.244   1.987  0.5866 -0.1419 -0.6293
  888SOL    HW1 2663   2.319   1.152   1.997  1.8085 -2.7376 -1.0222
  888SOL    HW2 2664   2.465   1.241   2.001 -0.4589 -1.3574 -0.8115
  889SOL     OW 2665   0.026   2.118   1.035  0.4364 -0.0592 -0.0102
  889SOL    HW1 2666   0.057   2.214   1.032 -0.2557  0.3840 -1.2336
  889SOL    HW2 2667   3.059   2.112   1.087  2.0973 -0.9857  2.8282
  890SOL     OW 2668   1.297   2.388   0.316  0.1181 -0.3003 -0.4919
  890SOL    HW1 2669   1.315   2.352   0.410 -2.2045  0.8499  0.8814
  890SOL    HW2 2670   1.306   2.489   0.309 -1.4003 -2.3704 -1.8970
  891SOL     OW 2671   2.796   0.520   2.335  0.1918 -0.0201 -0.1170
  891SOL    HW1 2672   2.804   0.484   2.242 -1.4425  0.4292  0.7332
  891SOL    HW2 2673   2.886   0.548   2.368  0.3898 -0.9170  1.2398
  892SOL     OW 2674   0.105   2.499   1.483  0.4776 -0.2090 -0.1066
  892SOL    HW1 2675   0.202   2.476   1.514  1.0227  1.1945  0.0325
  892SOL    HW2 2676   0.034   2.446   1.534  3.3163 -0.4640  1.7353
  893SOL     OW 2677   0.941   0.345   1.520  0.4824  0.2610  0.3063
  893SOL    HW1 2678   1.014   0.393   1.463 -1.1246  1.2499  0.4527
  893SOL    HW2 2679   0.935   0.395   1.606  4.8974  0.0018 -2.7747
  894SOL     OW 2680   2.756   3.086   0.949 -0.3503  0.1438  0.1205
  894SOL    HW1 2681   2.824   0.033   0.977 -2.4722 -0.8797  0.4026
  894SOL    HW2 2682   2.724   3.106   0.854  1.7836 -0.2751  2.1457
  895SOL     OW 2683   1.759   1.956   2.496  0.5030  0.2176 -0.3374
  895SOL    HW1 2684   1.819   1.873   2.472  0.2717 -3.2333 -1.5100
  895SOL    HW2 2685   1.684   1.930   2.561 -0.9278  0.4411  2.5668
  896SOL     OW 2686   1.787   0.397   1.386 -0.9947  0.1217 -0.7815
  896SOL    HW1 2687   1.755   0.487   1.418  0.5119  0.7484 -1.5160
  896SOL    HW2 2688   1.887   0.405   1.368 -1.8683 -0.4136 -2.1512
  897SOL     OW 2689   0.595   1.606   1.858 -0.2922  0.1059 -0.1784
  897SOL    HW1 2690   0.683   1.625   1.806 -0.3243  4.7816 -1.9906
  897SOL    HW2 2691   0.613   1.592   1.961 -0.6302 -0.4203  0.4039
  898SOL     OW 2692   1.823   2.270   2.112  0.0679 -0.0181  0.7674
  898SOL    HW1 2693   1.856   2.184   2.071 -1.0576  1.3410  0.3418
  898SOL    HW2 2694   1.862   2.287   2.205  0.5669  0.7880 -1.8149
  899SOL     OW 2695   1.485   2.152   0.750 -0.1759  0.1997 -0.1242
  899SOL    HW1 2696   1.502   2.079   0.819  0.3186  0.7264  2.3100
  899SOL    HW2 2697   1.567   2.211   0.750 -0.5700 -0.5402  1.4943
  900SOL     OW 2698   0.878   3.075   2.326  0.4328  0.5560 -0.5014
  900SOL    HW1 2699   0.939   3.066   2.410  4.1066 -0.0518  2.7385
  900SOL    HW2 2700   0.919   0.022   2.261  0.6557 -2.2805  1.4988
  901SOL     OW 2701   1.196   1.518   2.214 -0.0572  0.2142  0.2272
  901SOL    HW1 2702   1.150   1.525   2.124  0.5678  1.8602  0.7851
  901SOL    HW2 2703   1.160   1.439   2.270 -0.2006  1.8421  0.6156
  902SOL     OW 2704   2.158   0.585   3.021 -0.1224 -0.3210 -0.1053
  902SOL    HW1 2705   2.111   0.658   2.968  3.3626 -0.9251  0.0972
  902SOL    HW2 2706   2.112   0.575   3.113  0.2601  0.0428  2.2491
  903SOL     OW 2707   1.930   0.917   2.497  0.1329  1.0107 -0.1610
  903SOL    HW1 2708   1.993   0.977   2.550  3.0190 -2.0878 -1.2661
  903SOL    HW2 2709   1.867   0.968   2.433 -0.0630 -1.9079 -0.7584
  904SOL     OW 2710   1.904   1.083   1.889 -0.0265 -0.2581  0.0474
  904SOL    HW1 2711   1.874   0.993   1.934 -1.5141 -0.7357  1.0280
  904SOL    HW2 2712   1.849   1.161   1.917  0.0911 -0.0088  1.3401
  905SOL     OW 2713   2.581   0.372   0.789  0.2529 -0.0450  0.3814
  905SOL    HW1 2714   2.480   0.398   0.796 -0.0150  0.7250 -1.4954
  905SOL    HW2 2715   2.607   0.347   0.884 -1.3535  2.9287 -0.5351
  906SOL     OW 2716   2.882   1.354   0.564 -0.2578 -0.2748  0.2055
  906SOL    HW1 2717   2.901   1.281   0.636  0.4671 -0.3983  1.5736
  906SOL    HW2 2718   2.782   1.356   0.554  0.3087  0.2430 -0.5144
  907SOL     OW 2719   1.279   0.092   0.710  0.4495  0.4152  0.1119
  907SOL    HW1 2720   1.380   0.102   0.714 -2.7159 -0.0219 -1.2962
  907SOL    HW2 2721   1.236   0.126   0.795 -0.8747 -3.1722 -2.4711
  908SOL     OW 2722   1.247   2.751   1.904 -0.0888 -0.2695 -0.1636
  908SOL    HW1 2723   1.222   2.654   1.923 -0.2490 -2.1951 -0.4882
  908SOL    HW2 2724   1.343   2.764   1.865  0.1662 -1.0494  0.6407
  909SOL     OW 2725   2.668   0.974   1.772 -0.1265 -0.0371 -0.0131
  909SOL    HW1 2726   2.596   0.904   1.781  0.1541  1.2074 -0.3377
  909SOL    HW2 2727   2.640   1.038   1.700 -5.2517 -0.4320 -0.2445
  910SOL     OW 2728   1.144   0.143   2.429  0.6537 -0.3711  0.1307
  910SOL    HW1 2729   1.107   0.157   2.333 -3.0257 -0.0130 -0.5039
  910SOL    HW2 2730   1.132   0.052   2.470 -1.1237 -2.3006  0.5796
  911SOL     OW 2731   2.275   1.331   2.527 -0.3322 -0.6300  0.2758
  911SOL    HW1 2732   2.285   1.351   2.425 -0.1261 -1.3320 -2.0656
  911SOL    HW2 2733   2.363   1.308   2.574 -0.3813 -0.6566 -1.6758
  912SOL     OW 2734   2.631   2.287   1.252  0.1789  0.0814  0.5283
  912SOL    HW1 2735   2.658   2.258   1.343  0.0356  3.7309 -2.2070
  912SOL    HW2 2736   2.673   2.376   1.230  0.8157 -0.2070  1.0220
  913SOL     OW 2737   2.581   2.113   1.819  0.4270 -0.1854 -0.5586
  913SOL    HW1 2738   2.579   2.215   1.808 -0.2668  0.0846  1.4345
  913SOL    HW2 2739   2.499   2.066   1.786 -2.3972 -0.7567  3.8264
  914SOL     OW 2740   1.921   2.069   0.771  0.5403 -0.1161 -0.2749
  914SOL    HW1 2741   1.960   2.018   0.852 -1.3148  2.0000 -1.1304
  914SOL    HW2 2742   1.864   2.001   0.722 -0.8274 -0.5778 -3.0845
  915SOL     OW 2743   1.081   2.526   2.061  0.3393  0.3567  0.4208
  915SOL    HW1 2744   1.017   2.604   2.030  0.4037 -0.6568  0.8427
  915SOL    HW2 2745   1.127   2.561   2.146  1.4258 -0.3257  2.6312
  916SOL     OW 2746   0.142   2.250   0.743  0.4017  1.0950 -0.2246
  916SOL    HW1 2747   0.233   2.273   0.779  0.0252 -0.0216 -0.2615
  916SOL    HW2 2748   0.150   2.188   0.658  0.2629 -2.7910 -4.5440
  917SOL     OW 2749   2.682   0.950   2.925 -0.0560  0.2350  0.2545
  917SOL    HW1 2750   2.597   0.890   2.925 -0.2769 -0.5144 -1.4344
  917SOL    HW2 2751   2.727   0.945   2.833 -2.4178  0.2058 -1.6158
  918SOL     OW 2752   1.644   2.121   2.297 -0.0798 -0.1771 -0.0122
  918SOL    HW1 2753   1.715   2.168   2.244 -1.3174 -0.5111  1.8543
  918SOL    HW2 2754   1.690   2.047   2.348 -3.1172  0.4022 -0.3355
  919SOL     OW 2755   1.726   2.280   0.720 -0.3000 -0.0282  0.1928
  919SOL    HW1 2756   1.717   2.298   0.620 -0.0946 -0.6951 -1.9576
  919SOL    HW2 2757   1.804   2.217   0.732 -2.7079 -1.4305 -0.4635
  920SOL     OW 2758   1.374   0.331   2.466 -0.2885  0.1773  0.0126
  920SOL    HW1 2759   1.301   0.261   2.448 -2.3747 -1.1976  1.2192
  920SOL    HW2 2760   1.344   0.413   2.518  0.9334  0.9143  2.8688
  921SOL     OW 2761   0.211   0.586   2.785  0.6478  0.4671 -0.8982
  921SOL    HW1 2762   0.259   0.642   2.718  1.8122  0.4344  0.8776
  921SOL    HW2 2763   0.225   0.487   2.758  0.3400 -0.9530 -1.1320
  922SOL     OW 2764   2.786   1.883   1.465 -0.3364  0.2524  0.4510
  922SOL    HW1 2765   2.886   1.912   1.447  1.4961 -0.3497 -0.3011
  922SOL    HW2 2766   2.744   1.846   1.377  0.6600 -1.6658 -0.1293
  923SOL     OW 2767   0.136   1.851   2.685 -0.0834  0.8390 -0.1825
  923SOL    HW1 2768   0.098   1.948   2.682 -0.0934  0.5975  2.4736
  923SOL    HW2 2769   0.237   1.850   2.710  1.9076 -1.8911  1.6869
  924SOL     OW 2770   1.669   0.538   2.153 -0.2865 -0.1897 -0.2608
  924SOL    HW1 2771   1.683   0.497   2.249  1.7502  0.0579  0.4546
  924SOL    HW2 2772   1.689   0.638   2.152  1.5559 -0.1364  0.5387
  925SOL     OW 2773   0.074   0.940   0.016 -0.8293  0.4147  0.0824
  925SOL    HW1 2774   0.040   0.856   3.090  0.2637 -0.5480  0.8581
  925SOL    HW2 2775   0.000   1.004   0.041 -0.2346  0.1885 -1.9119
  926SOL     OW 2776   2.537   0.144   1.111 -0.8961  0.2332  0.1232
  926SOL    HW1 2777   2.570   0.067   1.050 -0.9135 -1.4405 -1.8964
  926SOL    HW2 2778   2.440   0.164   1.094 -0.5564 -1.7951  1.5736
  927SOL     OW 2779   1.251   0.867   0.787  0.0291 -0.2870 -0.0020
  927SOL    HW1 2780   1.224   0.916   0.701  0.8871 -0.1231  1.6899
  927SOL    HW2 2781   1.188   0.879   0.865  0.2332  0.0618 -3.1007
  928SOL     OW 2782   2.958   0.080   2.192 -0.5429 -0.2953  0.1673
  928SOL    HW1 2783   2.931   0.090   2.291  0.8223  0.7780  2.2678
  928SOL    HW2 2784   3.002   0.162   2.160 -0.6535 -2.2974 -0.3357
  929SOL     OW 2785   2.247   0.810   1.424 -0.4600 -0.4199  0.3667
  929SOL    HW1 2786   2.160   0.795   1.463  4.0300 -1.5686 -0.1289
  929SOL    HW2 2787   2.302   0.884   1.467 -2.0097  1.9978  2.5454
  930SOL     OW 2788   2.071   2.651   1.001  0.3751 -0.1569  0.1925
  930SOL    HW1 2789   1.988   2.683   0.948 -1.2782  0.0350  0.7642
  930SOL    HW2 2790   2.095   2.711   1.079 -0.1097  0.2617  0.0254
  931SOL     OW 2791   1.944   0.929   1.236 -0.5856  0.6205 -0.4636
  931SOL    HW1 2792   1.951   0.845   1.173 -0.5606 -2.2079 -2.7259
  931SOL    HW2 2793   1.990   1.009   1.196 -1.4432  0.0487  1.3072
  932SOL     OW 2794   3.067   0.954   1.281 -0.2953  0.2938  0.1147
  932SOL    HW1 2795   3.107   1.034   1.238 -1.9771 -1.1624 -0.0156
  932SOL    HW2 2796   3.065   0.879   1.218  0.1201  2.1981 -0.4014
  933SOL     OW 2797   2.179   1.622   2.127 -0.5872  0.3386 -0.2651
  933SOL    HW1 2798   2.142   1.538   2.167  0.5800 -0.1612  0.0991
  933SOL    HW2 2799   2.121   1.656   2.055  1.6651 -2.6369  0.3132
  934SOL     OW 2800   1.387   2.904   1.494  0.1975  0.0486 -0.3663
  934SOL    HW1 2801   1.413   2.860   1.406 -3.1398  1.3805 -0.0886
  934SOL    HW2 2802   1.381   3.007   1.478 -2.2633  0.2775 -1.4357
  935SOL     OW 2803   0.313   0.861   1.361  0.1376 -0.1439  0.2054
  935SOL    HW1 2804   0.290   0.927   1.285  1.2912  2.0909 -1.2463
  935SOL    HW2 2805   0.348   0.917   1.442  1.0922  1.2203 -0.9244
  936SOL     OW 2806   2.601   0.557   1.229  0.9737 -0.2857  0.6006
  936SOL    HW1 2807   2.510   0.550   1.277 -0.9771  0.9005 -0.1534
  936SOL    HW2 2808   2.673   0.584   1.298  1.8029 -0.8216  1.5634
  937SOL     OW 2809   0.817   0.118   1.413 -0.2015 -0.1112  0.0136
  937SOL    HW1 2810   0.731   0.153   1.385  1.5328  1.6654  0.6334
  937SOL    HW2 2811   0.878   0.194   1.444 -5.2271 -3.1853  0.4218
  938SOL     OW 2812   3.037   2.388   0.733 -0.3286  0.2509 -0.3083
  938SOL    HW1 2813   2.955   2.329   0.732  2.3635 -2.7614 -0.3300
  938SOL    HW2 2814   0.004   2.333   0.754  0.3237 -1.5226 -2.2059
  939SOL     OW 2815   0.007   2.092   2.686  0.1601  0.7481  0.2918
  939SOL    HW1 2816   3.082   2.136   2.608 -0.2948  2.9916 -0.2536
  939SOL    HW2 2817   3.051   2.076   2.754 -0.6905  0.4799  1.0906
  940SOL     OW 2818   1.908   2.274   2.888  0.3650  0.2068 -0.7908
  940SOL    HW1 2819   1.817   2.318   2.864 -0.6895  1.0406  1.1396
  940SOL    HW2 2820   1.943   2.213   2.813 -0.6300 -0.0726  0.2002
  941SOL     OW 2821   1.737   2.758   0.469 -0.3587 -0.6610  0.2256
  941SOL    HW1 2822   1.719   2.845   0.518 -1.2782  0.1844  0.7178
  941SOL    HW2 2823   1.795   2.698   0.528 -1.3418  1.1169  0.1877
  942SOL     OW 2824   1.724   1.814   1.002 -0.4242  0.2285 -0.2527
  942SOL    HW1 2825   1.779   1.848   1.082 -1.2466 -0.2973  0.4714
  942SOL    HW2 2826   1.643   1.872   0.981 -1.2617 -1.9950  1.0129
  943SOL     OW 2827   1.921   0.800   1.891 -0.4589 -0.2471 -0.4534
  943SOL    HW1 2828   1.877   0.713   1.868  1.9666  0.7369  1.5151
  943SOL    HW2 2829   2.005   0.796   1.837  1.1224  1.1343 -1.9831
  944SOL     OW 2830   1.895   0.517   1.728  0.7070 -0.1387 -0.2526
  944SOL    HW1 2831   1.813   0.575   1.701  2.5810 -0.6218 -0.0433
  944SOL    HW2 2832   1.889   0.416   1.711  0.5032  2.3223 -3.4540
  945SOL     OW 2833   2.723   2.583   1.256 -0.1748  0.3840 -0.6126
  945SOL    HW1 2834   2.624   2.599   1.254  0.5657  2.1351  1.6075
  945SOL    HW2 2835   2.773   2.672   1.261 -2.5557  1.5950 -1.2684
  946SOL     OW 2836   0.407   1.281   1.433 -0.2533 -0.3747  0.6308
  946SOL    HW1 2837   0.359   1.368   1.467 -3.2556  1.0151 -0.5108
  946SOL    HW2 2838   0.335   1.210   1.411 -1.1724 -1.5720  0.3911
  947SOL     OW 2839   0.628   2.522   0.706  0.0768  0.6997 -0.2714
  947SOL    HW1 2840   0.560   2.536   0.784 -1.2077  0.7996  3.8744
  947SOL    HW2 2841   0.581   2.479   0.625 -0.1582  0.7338  1.8543
  948SOL     OW 2842   0.163   1.514   1.792  0.5416 -0.2134 -0.6214
  948SOL    HW1 2843   0.217   1.435   1.833  3.9185  1.7999 -0.4270
  948SOL    HW2 2844   0.157   1.583   1.868 -2.2009  0.4857  2.6984
  949SOL     OW 2845   0.689   0.833   2.244 -0.2137 -0.3014 -0.1353
  949SOL    HW1 2846   0.761   0.823   2.173  0.8385 -1.0279  0.7930
  949SOL    HW2 2847   0.657   0.933   2.246 -2.6754  0.4233  0.8945
  950SOL     OW 2848   0.291   0.516   1.198  0.1043 -0.1593  0.5375
  950SOL    HW1 2849   0.219   0.584   1.182  1.0447  1.8203 -0.8596
  950SOL    HW2 2850   0.257   0.421   1.173  1.3230 -0.7661 -0.9608
  951SOL     OW 2851   1.170   1.777   2.194 -0.2428  0.1732 -0.2120
  951SOL    HW1 2852   1.168   1.675   2.221 -0.4907 -4.4568  1.4297
  951SOL    HW2 2853   1.087   1.828   2.213  2.0422 -0.0802 -0.7897
  952SOL     OW 2854   1.085   1.573   0.072  0.0903  0.3525  0.1849
  952SOL    HW1 2855   1.103   1.670   0.050 -0.8757 -0.5125 -0.0626
  952SOL    HW2 2856   1.168   1.538   0.116  0.1835  2.3527 -0.6516
  953SOL     OW 2857   1.080   3.033   2.544  0.1744  0.1084 -0.1694
  953SOL    HW1 2858   0.991   3.003   2.590 -3.0018  1.1110  1.4924
  953SOL    HW2 2859   1.159   3.029   2.608 -2.1139 -0.2445 -2.0078
  954SOL     OW 2860   2.151   1.373   0.376  0.3648  0.1673 -0.5987
  954SOL    HW1 2861   2.069   1.435   0.402  0.6682 -0.2000  0.7491
  954SOL    HW2 2862   2.120   1.284   0.335  0.6094  0.5110 -0.6630
  955SOL     OW 2863   0.352   2.517   2.914  1.1622 -0.0920  0.1079
  955SOL    HW1 2864   0.455   2.521   2.915  0.5504 -1.3245  0.7345
  955SOL    HW2 2865   0.313   2.581   2.843  0.9444 -0.2792  2.6777
  956SOL     OW 2866   1.280   0.919   1.675 -0.1285  0.1690  0.0457
  956SOL    HW1 2867   1.182   0.922   1.699 -3.4670 -0.8864  0.6753
  956SOL    HW2 2868   1.303   0.977   1.596  1.2703 -1.2579  1.0599
  957SOL     OW 2869   2.025   1.712   1.901  0.0901 -0.2238 -0.5214
  957SOL    HW1 2870   1.924   1.718   1.930 -1.6957 -0.0975 -0.6024
  957SOL    HW2 2871   2.032   1.782   1.829 -0.0715  0.6955  0.4357
  958SOL     OW 2872   1.449   2.336   1.354 -0.0868  0.0970  0.6704
  958SOL    HW1 2873   1.374   2.406   1.361  0.8298 -1.4678 -1.8890
  958SOL    HW2 2874   1.537   2.387   1.358 -0.4796  0.5774 -1.0758
  959SOL     OW 2875   1.156   1.697   1.251  0.3218 -0.2331 -0.0976
  959SOL    HW1 2876   1.167   1.797   1.247 -0.6122  1.4120  3.2943
  959SOL    HW2 2877   1.203   1.671   1.337 -0.4918  1.4601 -0.9398
  960SOL     OW 2878   0.107   1.219   2.857 -0.1358  0.2211  0.1697
  960SOL    HW1 2879   0.054   1.137   2.825 -2.7304 -2.0646 -1.1252
  960SOL    HW2 2880   0.154   1.256   2.773  1.3251 -0.6039 -1.9767
  961SOL     OW 2881   0.578   1.056   2.205  0.0076  0.7105 -0.8543
  961SOL    HW1 2882   0.517   1.071   2.286 -0.2044 -1.4364 -0.6094
  961SOL    HW2 2883   0.626   1.144   2.183  1.2018 -0.9883 -1.8816
  962SOL     OW 2884   1.346   1.874   0.550 -0.2742  0.2259  0.3790
  962SOL    HW1 2885   1.278   1.940   0.590  1.7635 -2.7157  0.5777
  962SOL    HW2 2886   1.385   1.824   0.630 -2.1080  0.6919  2.2647
  963SOL     OW 2887   1.189   2.307   2.550  0.0615 -0.3593 -0.2376
  963SOL    HW1 2888   1.205   2.345   2.457  0.1127 -1.3760 -0.2048
  963SOL    HW2 2889   1.126   2.228   2.545  0.8990  1.0273 -0.2007
  964SOL     OW 2890   0.785   2.861   0.204 -0.4506  0.1272  0.4249
  964SOL    HW1 2891   0.743   2.878   0.295 -0.8622  0.1673  0.1300
  964SOL    HW2 2892   0.790   2.943   0.146  1.2767  0.8387 -3.0418
  965SOL     OW 2893   0.453   3.072   0.939  0.0361 -0.0126  0.3261
  965SOL    HW1 2894   0.538   0.010   0.961  1.5209  0.2044 -0.6267
  965SOL    HW2 2895   0.392   3.072   1.018  0.2096 -0.6910 -2.5639
  966SOL     OW 2896   0.339   1.495   2.923  0.3000  0.0753  0.1051
  966SOL    HW1 2897   0.367   1.461   3.018 -0.3076  2.0847  2.0846
  966SOL    HW2 2898   0.237   1.509   2.919  0.4950  0.0378 -1.4803
  967SOL     OW 2899   0.911   2.765   2.470 -0.0619 -0.2940 -0.2102
  967SOL    HW1 2900   0.858   2.842   2.515  1.4888 -0.2531  1.0214
  967SOL    HW2 2901   0.969   2.805   2.395  2.3578  1.7073 -2.7669
  968SOL     OW 2902   2.289   0.586   0.359  0.0092  0.2547 -0.1965
  968SOL    HW1 2903   2.192   0.572   0.395 -2.4206  0.5546 -2.2017
  968SOL    HW2 2904   2.302   0.660   0.296  2.4615 -1.2830 -2.3336
  969SOL     OW 2905   0.108   1.693   2.002 -0.0780  0.3457 -0.4900
  969SOL    HW1 2906   0.078   1.771   1.944  1.0907 -1.9795 -1.6449
  969SOL    HW2 2907   0.029   1.639   2.038  1.2718 -0.5311 -1.1962
  970SOL     OW 2908   2.166   1.427   1.191 -0.0989  0.2386 -0.1880
  970SOL    HW1 2909   2.240   1.401   1.130 -0.4681  0.2115  0.7385
  970SOL    HW2 2910   2.195   1.467   1.280 -0.9436  0.3777  0.9342
  971SOL     OW 2911   1.898   0.132   1.150  0.2777 -0.8410 -0.3385
  971SOL    HW1 2912   1.922   0.223   1.114 -2.7598 -1.2807 -1.0559
  971SOL    HW2 2913   1.967   0.063   1.117 -2.4886  1.7693 -0.6722
  972SOL     OW 2914   0.385   0.148   1.558  0.1507 -0.4386  0.7524
  972SOL    HW1 2915   0.393   0.154   1.653 -1.3365  0.4285 -3.2235
  972SOL    HW2 2916   0.285   0.155   1.542  0.3284 -0.9706  4.3996
  973SOL     OW 2917   2.700   0.877   0.313 -0.4087  0.5789 -0.4845
  973SOL    HW1 2918   2.727   0.862   0.214  2.0039 -2.0926 -1.2014
  973SOL    HW2 2919   2.646   0.963   0.320 -0.6391  0.3122  1.0209
  974SOL     OW 2920   1.865   1.478   2.391  0.3721 -0.0298 -0.8394
  974SOL    HW1 2921   1.903   1.561   2.441 -0.2356  3.1396  2.4637
  974SOL    HW2 2922   1.794   1.504   2.325  1.0748 -3.5067 -1.8716
  975SOL     OW 2923   0.282   2.808   1.530 -0.0261  0.6278  0.5582
  975SOL    HW1 2924   0.261   2.795   1.430  0.7851 -1.9981  0.1509
  975SOL    HW2 2925   0.202   2.853   1.572  0.3802 -0.4847 -1.7931
  976SOL     OW 2926   0.415   2.006   1.902 -0.2402 -0.9951  0.6552
  976SOL    HW1 2927   0.342   2.075   1.894  0.0892 -0.5268  1.0525
  976SOL    HW2 2928   0.426   1.970   1.996 -0.3794  0.7701  0.6015
  977SOL     OW 2929   0.804   2.587   0.113 -0.5851  0.3404  0.1196
  977SOL    HW1 2930   0.873   2.600   0.036  1.5269  1.7473 -0.7471
  977SOL    HW2 2931   0.794   2.679   0.154 -0.3115  1.1096 -0.2330
  978SOL     OW 2932   0.332   1.776   3.020  0.3017 -0.1511  0.0330
  978SOL    HW1 2933   0.412   1.839   3.007 -1.2668  2.4673  0.2314
  978SOL    HW2 2934   0.351   1.685   2.983 -0.6082 -0.9633  2.1450
  979SOL     OW 2935   1.705   2.496   1.312  0.5392  0.0300  0.2657
  979SOL    HW1 2936   1.711   2.592   1.276  1.4917 -2.2054  1.3825
  979SOL    HW2 2937   1.790   2.452   1.277 -2.8815 -0.8812  1.6794
  980SOL     OW 2938   0.915   1.682   2.766 -0.2122 -0.2345  0.1474
  980SOL    HW1 2939   0.950   1.628   2.841  2.1464 -0.9609  1.1847
  980SOL    HW2 2940   0.930   1.633   2.683 -1.4792  2.2261  0.5562
  981SOL     OW 2941   2.589   2.904   2.491 -0.6045  0.1234 -0.0559
  981SOL    HW1 2942   2.538   2.976   2.443  2.5276 -0.5686  1.3730
  981SOL    HW2 2943   2.577   2.917   2.592  1.9906  1.0850  1.8123
  982SOL     OW 2944   0.153   3.008   2.497  0.5017 -0.1971 -0.5421
  982SOL    HW1 2945   0.097   3.047   2.579 -0.5236  3.1112  1.4677
  982SOL    HW2 2946   0.089   2.994   2.419  0.4022  1.3211 -0.0924
  983SOL     OW 2947   2.373   1.446   1.810 -0.5716 -0.1911  0.0492
  983SOL    HW1 2948   2.399   1.399   1.900 -0.6908 -3.9856  0.5688
  983SOL    HW2 2949   2.276   1.422   1.798  1.0334 -0.4094  0.4095
  984SOL     OW 2950   1.479   0.484   1.940 -0.4120  0.6482  0.3151
  984SOL    HW1 2951   1.380   0.474   1.972 -1.7227  0.1463  3.2489
  984SOL    HW2 2952   1.545   0.498   2.018 -1.9267 -0.8964  1.6073
  985SOL     OW 2953   1.659   1.606   2.194 -0.2475 -0.5090  0.2343
  985SOL    HW1 2954   1.572   1.566   2.157  1.8554  5.0133  1.2646
  985SOL    HW2 2955   1.716   1.619   2.118 -1.1878  0.2480  2.0714
  986SOL     OW 2956   1.859   0.374   2.037  0.0787 -0.1194  0.0165
  986SOL    HW1 2957   1.848   0.365   1.935 -0.2863  0.7805 -0.6365
  986SOL    HW2 2958   1.790   0.440   2.073 -0.1577  0.3111 -1.7290
  987SOL     OW 2959   2.302   0.698   1.848  0.1899  0.5220 -0.1115
  987SOL    HW1 2960   2.302   0.646   1.935 -0.2895  0.1373 -0.5963
  987SOL    HW2 2961   2.350   0.788   1.858  1.0495  1.3915  1.2007
  988SOL     OW 2962   2.634   0.750   2.449 -0.8262  0.0206 -0.2267
  988SOL    HW1 2963   2.691   0.670   2.418 -3.6564  0.2456 -0.5274
  988SOL    HW2 2964   2.679   0.834   2.414  1.6234 -2.0862 -0.5227
  989SOL     OW 2965   2.277   2.510   2.783  0.4868 -0.4777 -0.7869
  989SOL    HW1 2966   2.307   2.428   2.724  1.1669 -1.8584 -1.1886
  989SOL    HW2 2967   2.186   2.491   2.833 -3.5162 -1.0059  1.4895
  990SOL     OW 2968   0.984   0.485   2.603 -0.5997 -0.0969  0.2939
  990SOL    HW1 2969   0.947   0.405   2.659  1.1131 -1.0067  2.4425
  990SOL    HW2 2970   0.913   0.550   2.569 -1.7226 -1.3139 -0.5673
  991SOL     OW 2971   1.274   0.646   0.208  0.2563  0.3881 -0.3922
  991SOL    HW1 2972   1.255   0.737   0.173 -2.3798  1.0973 -1.9538
  991SOL    HW2 2973   1.296   0.578   0.131  0.5199 -0.6983 -0.2353
  992SOL     OW 2974   2.588   2.276   2.611 -0.0473 -0.2555  0.1682
  992SOL    HW1 2975   2.488   2.271   2.614 -0.5885  2.2334  0.5353
  992SOL    HW2 2976   2.620   2.370   2.595  0.8427 -1.2042 -0.3465
  993SOL     OW 2977   0.172   0.306   0.254  0.0576  0.0062  0.4554
  993SOL    HW1 2978   0.181   0.401   0.225  1.2562 -1.2309  1.0775
  993SOL    HW2 2979   0.145   0.292   0.352  1.0274  1.5633  2.2188
  994SOL     OW 2980   0.315   2.182   1.590 -0.1418 -0.1889 -0.5903
  994SOL    HW1 2981   0.268   2.158   1.676  0.2296  1.0504  0.7768
  994SOL    HW2 2982   0.341   2.282   1.590 -1.0765  0.8807  0.0566
  995SOL     OW 2983   1.974   1.727   2.943 -0.3410 -0.2766  0.7924
  995SOL    HW1 2984   2.023   1.728   3.028 -2.3861 -1.2804 -3.2383
  995SOL    HW2 2985   1.955   1.631   2.916 -1.7369  1.3302  0.6459
  996SOL     OW 2986   1.440   1.625   3.030  0.5547  0.2799 -0.1961
  996SOL    HW1 2987   1.480   1.699   2.972  0.7757 -2.8328  2.5040
  996SOL    HW2 2988   1.410   1.664   0.006  1.0658 -0.6036 -0.3823
  997SOL     OW 2989   1.685   0.979   1.183  0.1926 -0.2872  0.2275
  997SOL    HW1 2990   1.718   1.044   1.252  0.8299 -2.4470  0.8009
  997SOL    HW2 2991   1.767   0.928   1.159 -3.7114  2.0899 -0.6964
  998SOL     OW 2992   2.536   1.503   0.163 -0.0030  0.7494 -0.2011
  998SOL    HW1 2993   2.523   1.402   0.169 -0.2925  2.7585  0.8132
  998SOL    HW2 2994   2.592   1.520   0.082 -0.2087 -1.6177 -1.1775
  999SOL     OW 2995   2.942   2.404   0.256  0.1313 -0.1289  0.1682
  999SOL    HW1 2996   2.913   2.465   0.332 -0.3632  1.4861  0.3552
  999SOL    HW2 2997   2.953   2.459   0.166  0.2106 -1.2429 -0.9513
 1000SOL     OW 2998   0.653   3.044   2.020  0.2874  0.4245  0.1830
 1000SOL    HW1 2999   0.564   3.019   1.976 -1.4348  0.4893 -1.8264
 1000SOL    HW2 3000   0.704   3.118   1.974  0.0245  0.4223 -0.8764
   3.11819   3.11819   3.11819
