1000 SPC/Fw water molecules t= 469.00000 step= 469000
 3000
    1SOL     OW    1   2.827   2.864   1.704 -0.3161  0.0209  0.1865
    1SOL    HW1    2   2.825   2.872   1.602 -0.4344  0.1526 -0.7461
    1SOL    HW2    3   2.762   2.934   1.739  1.0376 -1.9813 -1.1534
    2SOL     OW    4   2.730   2.836   3.038  0.4353 -0.5530  0.9523
    2SOL    HW1    5   2.757   2.867   0.038 -0.9835  0.8071  0.8994
    2SOL    HW2    6   2.809   2.803   2.980  0.6341  0.5597 -1.2786
    3SOL     OW    7   1.265   2.560   0.141  0.7021 -0.0782  0.7364
    3SOL    HW1    8   1.269   2.485   0.073 -0.0154  0.4170 -0.9892
    3SOL    HW2    9   1.291   2.526   0.235 -1.7425  0.0955  1.4244
    4SOL     OW   10   1.358   2.711   2.462 -0.3612  0.2692  0.2087
    4SOL    HW1   11   1.418   2.779   2.416 -0.5005 -0.8946 -1.0880
    4SOL    HW2   12   1.354   2.729   2.564 -1.3938 -1.5139 -0.1087
    5SOL     OW   13   2.024   0.220   2.244 -0.0423  0.1237  0.0542
    5SOL    HW1   14   2.051   0.137   2.189  0.6692 -1.9713 -1.1183
    5SOL    HW2   15   1.950   0.270   2.195  0.2357  1.6704 -0.1468
    6SOL     OW   16   2.982   1.605   1.225 -0.1755  0.0505 -0.6879
    6SOL    HW1   17   2.999   1.657   1.139 -0.4842 -0.3584 -0.1895
    6SOL    HW2   18   2.919   1.648   1.294 -1.4154 -1.7585  0.8771
    7SOL     OW   19   1.179   1.832   0.491  0.2726  0.0345 -0.5832
    7SOL    HW1   20   1.170   1.744   0.548 -0.6276  0.6225 -1.1964
    7SOL    HW2   21   1.272   1.849   0.456  0.3519 -1.9830 -1.1601
    8SOL     OW   22   0.221   0.592   0.450 -0.3602 -0.2168 -0.0613
    8SOL    HW1   23   0.321   0.579   0.430 -0.8046 -4.2559 -0.5749
    8SOL    HW2   24   0.178   0.651   0.373 -1.8383  2.2601 -1.9347
    9SOL     OW   25   0.271   3.010   1.661 -0.4368 -0.4478  0.5415
    9SOL    HW1   26   0.324   3.010   1.574 -0.0821  1.1514  0.8593
    9SOL    HW2   27   0.218   2.924   1.671  0.5447 -0.6785  0.7427
   10SOL     OW   28   1.139   2.065   0.303 -0.2278  0.6109  0.4984
   10SOL    HW1   29   1.113   1.985   0.362  0.8874 -0.9686  0.4409
   10SOL    HW2   30   1.230   2.106   0.315  0.5066 -2.0799 -0.8259
   11SOL     OW   31   2.126   0.836   1.355  0.5307  0.2442 -0.0226
   11SOL    HW1   32   2.209   0.793   1.392  3.4695  0.4988 -0.8818
   11SOL    HW2   33   2.053   0.840   1.423  4.1748 -0.1651 -0.8711
   12SOL     OW   34   0.387   0.763   2.138 -0.5015 -0.0256  0.7143
   12SOL    HW1   35   0.332   0.830   2.078 -1.7399  0.9871  0.2183
   12SOL    HW2   36   0.413   0.809   2.227 -2.0846  1.1888  0.7581
   13SOL     OW   37   1.962   2.948   0.404  0.2453  0.0169  0.1979
   13SOL    HW1   38   2.012   2.988   0.484 -2.1425 -0.4275  0.3026
   13SOL    HW2   39   2.027   2.927   0.325  0.2911 -0.3907 -3.5109
   14SOL     OW   40   2.120   1.944   0.189  0.5371  0.5061 -0.2834
   14SOL    HW1   41   2.120   2.041   0.175  1.4417 -3.2311  1.1249
   14SOL    HW2   42   2.070   1.918   0.275 -1.5276  1.2693 -0.1727
   15SOL     OW   43   2.917   0.014   3.058 -0.3423  0.2135  0.3881
   15SOL    HW1   44   2.835   0.018   0.027 -0.0947  0.4851  0.0146
   15SOL    HW2   45   2.984   3.030   0.002  1.3996 -2.1984  0.4672
   16SOL     OW   46   2.897   0.634   1.071  0.0826 -0.7851  0.2240
   16SOL    HW1   47   2.918   0.566   1.000  0.9632 -0.3051  0.4264
   16SOL    HW2   48   2.866   0.580   1.156  0.0832 -2.7536  1.5602
   17SOL     OW   49   0.502   0.446   0.908  0.2809  0.3430  0.3573
   17SOL    HW1   50   0.561   0.378   0.954  0.1557  1.3849  2.1036
   17SOL    HW2   51   0.486   0.526   0.965  0.1478  0.4456  1.2802
   18SOL     OW   52   2.965   3.066   0.806 -0.1271 -0.3930 -0.1336
   18SOL    HW1   53   2.905   3.052   0.721 -1.9758 -0.0923 -0.6118
   18SOL    HW2   54   3.041   0.040   0.781  2.0077 -0.1806 -1.1940
   19SOL     OW   55   1.724   1.315   1.222  0.5841  0.5113 -0.6543
   19SOL    HW1   56   1.702   1.336   1.127  0.6957  0.8675  2.3284
   19SOL    HW2   57   1.747   1.396   1.280 -1.8371  0.2873 -0.7652
   20SOL     OW   58   2.274   1.879   2.525  0.1094 -0.6289 -0.0838
   20SOL    HW1   59   2.361   1.847   2.477  1.6117  2.4019 -0.1051
   20SOL    HW2   60   2.206   1.807   2.531  3.0815  1.0002 -3.6706
   21SOL     OW   61   1.436   2.796   0.381 -0.3491 -0.1595 -0.1512
   21SOL    HW1   62   1.478   2.704   0.376 -2.1550 -1.2152  0.8366
   21SOL    HW2   63   1.340   2.807   0.341 -0.2593 -0.8944 -0.9357
   22SOL     OW   64   2.467   0.830   0.120  0.1408 -0.1581 -0.9212
   22SOL    HW1   65   2.479   0.878   0.035  1.8438 -2.9280  1.5779
   22SOL    HW2   66   2.561   0.806   0.154  4.4241  0.2927 -3.1208
   23SOL     OW   67   0.977   0.673   1.928  0.6601  0.0980  0.3214
   23SOL    HW1   68   0.977   0.586   1.879 -1.0503  0.4079  1.4391
   23SOL    HW2   69   1.048   0.671   1.998  1.4281 -1.2453  2.0503
   24SOL     OW   70   2.033   2.167   0.746  0.1731  0.0825 -0.3655
   24SOL    HW1   71   2.090   2.231   0.805 -0.5918  1.1483 -4.8891
   24SOL    HW2   72   1.945   2.208   0.726  1.6925 -2.2836 -1.0404
   25SOL     OW   73   1.386   3.060   2.982  0.3061 -0.4419  0.3780
   25SOL    HW1   74   1.410   0.061   2.940  0.4951  2.3859 -0.8122
   25SOL    HW2   75   1.474   3.002   2.991 -0.6702 -1.7844  0.6701
   26SOL     OW   76   1.141   2.994   2.766 -0.1200 -0.3878  0.0456
   26SOL    HW1   77   1.230   2.947   2.750 -0.6697 -0.1122  1.6321
   26SOL    HW2   78   1.086   2.954   2.842 -0.4156 -0.1309  1.1979
   27SOL     OW   79   1.114   0.502   1.044 -0.5732  0.1950  0.3029
   27SOL    HW1   80   1.089   0.464   0.954  1.1258 -0.7391  0.7790
   27SOL    HW2   81   1.042   0.502   1.115  0.1898  1.1024  2.8303
   28SOL     OW   82   0.225   1.896   0.981  0.2362 -0.3394  0.7491
   28SOL    HW1   83   0.316   1.937   0.941  1.0319 -2.4111  0.5859
   28SOL    HW2   84   0.223   1.921   1.083  1.2386  1.8109  0.9279
   29SOL     OW   85   2.436   1.171   1.180  0.2697  0.3888  0.0940
   29SOL    HW1   86   2.478   1.263   1.157 -1.3944  0.5224 -0.5022
   29SOL    HW2   87   2.462   1.134   1.273  0.1941  0.6124 -1.9280
   30SOL     OW   88   1.752   2.938   1.249  0.2768  0.1437 -0.0024
   30SOL    HW1   89   1.851   2.929   1.229  0.4078  0.6447 -1.7296
   30SOL    HW2   90   1.712   3.009   1.185  1.4430  2.2765 -2.1363
   31SOL     OW   91   1.263   0.024   1.075  0.2498 -0.1570 -0.1126
   31SOL    HW1   92   1.265   0.081   0.985  1.0771  0.3024  0.2651
   31SOL    HW2   93   1.319   3.030   1.068  1.4271  1.2733 -0.9896
   32SOL     OW   94   2.254   1.281   1.981  0.0901 -0.7990 -0.0250
   32SOL    HW1   95   2.257   1.256   1.884  2.1598  3.4030  1.0916
   32SOL    HW2   96   2.164   1.277   2.026  4.2597 -0.1865  1.8336
   33SOL     OW   97   2.292   2.851   2.780 -0.4626  0.1385  0.1290
   33SOL    HW1   98   2.192   2.860   2.765 -0.6951  0.1309  0.3563
   33SOL    HW2   99   2.336   2.897   2.703  0.8807 -2.2601 -0.2613
   34SOL     OW  100   2.032   0.821   3.067 -0.3321 -0.3920  0.9277
   34SOL    HW1  101   2.091   0.815   0.061 -0.1863  1.1885  0.6087
   34SOL    HW2  102   2.079   0.781   2.988  2.3534 -2.7809 -0.8229
   35SOL     OW  103   2.902   1.473   1.549 -0.4485 -0.9663 -0.2350
   35SOL    HW1  104   3.001   1.459   1.530 -2.8095 -2.0010  2.4051
   35SOL    HW2  105   2.860   1.409   1.614 -1.0304  2.1443 -1.1795
   36SOL     OW  106   2.432   2.340   2.818  0.0202  0.4304  0.1497
   36SOL    HW1  107   2.377   2.321   2.903 -0.2566  0.6360  1.3455
   36SOL    HW2  108   2.420   2.434   2.783  1.8169  1.0755 -1.9874
   37SOL     OW  109   1.753   2.892   1.891  0.3395  0.1137  0.4223
   37SOL    HW1  110   1.830   2.953   1.891 -2.7264 -0.7985 -0.6859
   37SOL    HW2  111   1.788   2.803   1.930  0.1641  1.1344  0.2901
   38SOL     OW  112   0.643   1.168   2.562  0.1800 -0.1416 -0.0317
   38SOL    HW1  113   0.693   1.117   2.493  0.4028 -0.8837 -2.0257
   38SOL    HW2  114   0.544   1.140   2.573 -0.8088 -0.5824  1.4924
   39SOL     OW  115   1.699   0.522   1.796  0.1569  0.4008  0.1230
   39SOL    HW1  116   1.660   0.583   1.867  2.2669  1.1726 -0.1125
   39SOL    HW2  117   1.641   0.444   1.767  2.1009  1.9593 -1.9132
   40SOL     OW  118   0.760   2.218   0.692 -0.0229 -0.0152 -0.5882
   40SOL    HW1  119   0.812   2.142   0.652  1.3676 -0.6246 -1.4105
   40SOL    HW2  120   0.822   2.291   0.722 -3.5287 -0.5381 -0.0480
   41SOL     OW  121   2.231   2.046   1.033 -0.0483 -0.3366 -0.7057
   41SOL    HW1  122   2.199   2.139   0.992 -2.1347  2.5255  1.5637
   41SOL    HW2  123   2.330   2.053   1.071  3.3957  2.3788  2.4251
   42SOL     OW  124   2.051   0.260   0.580  0.3791  0.5524  0.5670
   42SOL    HW1  125   2.057   0.308   0.492  1.9458 -1.4775  4.0835
   42SOL    HW2  126   2.138   0.230   0.616 -2.0831  0.5622 -2.2398
   43SOL     OW  127   0.767   1.421   2.543  0.4885 -0.3621  0.0868
   43SOL    HW1  128   0.734   1.470   2.461 -0.0708 -0.9452  0.9266
   43SOL    HW2  129   0.716   1.336   2.563 -0.0874  0.9516  1.0986
   44SOL     OW  130   1.990   2.804   1.194  0.3427  0.3819  0.3377
   44SOL    HW1  131   1.906   2.756   1.152  1.0171 -0.4365 -0.0437
   44SOL    HW2  132   2.052   2.847   1.122  1.8529 -0.3311 -0.1676
   45SOL     OW  133   0.531   2.180   2.785 -0.4904 -0.3324 -0.0161
   45SOL    HW1  134   0.430   2.185   2.771  0.6643  1.0358  2.2277
   45SOL    HW2  135   0.551   2.258   2.853 -1.1395 -0.0188 -0.4740
   46SOL     OW  136   0.757   2.679   2.443 -0.1718 -0.2501  0.1187
   46SOL    HW1  137   0.755   2.603   2.375 -1.9354  0.2029  2.3661
   46SOL    HW2  138   0.727   2.640   2.532  0.5234 -0.2061 -0.8734
   47SOL     OW  139   0.549   1.615   0.834  0.5045  0.2504 -0.5696
   47SOL    HW1  140   0.598   1.596   0.748 -1.1665 -1.7969  1.6405
   47SOL    HW2  141   0.551   1.714   0.847 -0.0805 -0.5641 -0.5184
   48SOL     OW  142   0.870   2.748   1.393 -0.3695  0.0396 -0.2422
   48SOL    HW1  143   0.931   2.671   1.415 -0.6315  0.5088 -0.0648
   48SOL    HW2  144   0.926   2.838   1.385  2.9000  2.7412  0.6343
   49SOL     OW  145   0.032   2.918   0.046 -0.1879 -0.0587  0.3810
   49SOL    HW1  146   0.000   2.869   0.127  1.5085 -0.0301  1.0556
   49SOL    HW2  147   0.127   2.887   0.011  1.9374 -0.9314 -1.4430
   50SOL     OW  148   1.641   0.598   0.459  0.6054  0.2271 -0.2837
   50SOL    HW1  149   1.542   0.588   0.429 -0.3399 -0.8292 -2.0919
   50SOL    HW2  150   1.651   0.671   0.533  0.6894  0.3543  0.3518
   51SOL     OW  151   1.895   2.927   0.851 -0.4378 -0.1099  0.7267
   51SOL    HW1  152   1.802   2.902   0.827 -0.9237  0.9111 -0.0916
   51SOL    HW2  153   1.943   2.989   0.784  1.1540 -2.2751 -0.3829
   52SOL     OW  154   0.345   1.553   1.340 -0.5439 -0.6186 -0.0979
   52SOL    HW1  155   0.397   1.466   1.358 -0.7803 -2.1428  0.3780
   52SOL    HW2  156   0.395   1.613   1.276  0.5060  0.5682  1.6028
   53SOL     OW  157   0.047   1.060   2.824 -0.3868 -0.2238  0.1072
   53SOL    HW1  158   3.087   1.075   2.911 -0.2210 -0.6113 -0.1576
   53SOL    HW2  159   0.132   1.115   2.818  0.4528  0.5113 -1.6178
   54SOL     OW  160   2.783   2.181   2.600  0.0583 -0.2542 -0.5826
   54SOL    HW1  161   2.733   2.199   2.690  0.2414  0.6874 -0.5481
   54SOL    HW2  162   2.726   2.131   2.537  2.7926  0.0431  1.3273
   55SOL     OW  163   2.461   2.174   1.337 -0.5971  0.0650  0.7036
   55SOL    HW1  164   2.518   2.262   1.334 -0.7982  2.5262 -0.6502
   55SOL    HW2  165   2.363   2.190   1.361  0.6625 -0.8612  1.2883
   56SOL     OW  166   1.487   0.658   1.289 -0.6126  0.4079  0.0870
   56SOL    HW1  167   1.536   0.744   1.318  2.4153  2.8068  0.2337
   56SOL    HW2  168   1.443   0.667   1.190 -1.4690  0.2476 -2.5698
   57SOL     OW  169   1.881   1.750   0.891 -0.2614  0.8200 -0.5489
   57SOL    HW1  170   1.944   1.826   0.866  0.2563  1.0069 -2.5003
   57SOL    HW2  171   1.934   1.669   0.905 -1.2822  0.6813 -1.8863
   58SOL     OW  172   2.317   0.101   2.188  0.1411  0.1528 -0.0565
   58SOL    HW1  173   2.272   0.131   2.275  1.5755  2.9141 -3.3137
   58SOL    HW2  174   2.276   0.136   2.102 -0.9253 -2.3770 -0.4933
   59SOL     OW  175   1.532   2.878   2.351  0.7285 -0.0489  0.0992
   59SOL    HW1  176   1.469   2.912   2.277  1.1809 -0.3230 -1.6323
   59SOL    HW2  177   1.627   2.875   2.313 -2.1055  0.0927 -1.9611
   60SOL     OW  178   1.239   1.866   2.832  0.2029 -0.0143  0.0310
   60SOL    HW1  179   1.278   1.938   2.770  2.2851 -0.8382  0.1179
   60SOL    HW2  180   1.142   1.878   2.856  0.2010 -0.0032  0.6458
   61SOL     OW  181   0.547   2.048   0.235  0.4755  0.5433 -0.7381
   61SOL    HW1  182   0.640   2.030   0.196 -0.4260 -0.9682 -1.1203
   61SOL    HW2  183   0.479   1.982   0.189 -0.3237  0.8255 -0.0421
   62SOL     OW  184   1.407   1.815   1.457 -0.4336  0.0552 -0.5896
   62SOL    HW1  185   1.351   1.806   1.539 -1.2575 -2.8622 -1.6782
   62SOL    HW2  186   1.507   1.802   1.472  0.5972 -0.8945  1.3392
   63SOL     OW  187   1.036   1.943   0.744 -0.2549 -0.5363 -0.7532
   63SOL    HW1  188   0.997   1.980   0.654 -0.7788  0.5829  0.7516
   63SOL    HW2  189   1.054   1.841   0.733  0.4343  0.4728 -0.5133
   64SOL     OW  190   1.919   1.550   2.601  0.0097  0.6078  0.2938
   64SOL    HW1  191   1.821   1.538   2.634 -1.0554 -1.0830 -1.2624
   64SOL    HW2  192   1.979   1.551   2.685  1.0130 -2.2786 -3.5043
   65SOL     OW  193   1.662   1.728   1.446 -0.3913 -0.1634 -0.4093
   65SOL    HW1  194   1.697   1.631   1.435  0.1009 -3.5146 -2.6984
   65SOL    HW2  195   1.727   1.787   1.399  2.5216 -0.6099  2.0816
   66SOL     OW  196   3.078   1.053   0.855  0.7662 -0.3049  0.4157
   66SOL    HW1  197   0.068   0.994   0.879  0.0697 -1.1779 -1.7935
   66SOL    HW2  198   2.995   0.991   0.846 -0.5612 -2.8607 -0.2756
   67SOL     OW  199   2.151   2.299   0.940  0.6800  0.6359  0.0546
   67SOL    HW1  200   2.144   2.340   1.035  0.5524  0.5525 -1.2100
   67SOL    HW2  201   2.232   2.336   0.889 -3.9451 -0.6865 -0.2772
   68SOL     OW  202   2.342   2.687   1.672 -0.6651 -0.1211 -0.2209
   68SOL    HW1  203   2.297   2.683   1.579 -1.3048  2.8619 -2.5578
   68SOL    HW2  204   2.307   2.763   1.727 -0.4286 -2.4396  0.3931
   69SOL     OW  205   2.455   2.876   3.044 -0.3909  0.1587  0.0438
   69SOL    HW1  206   2.418   2.876   2.947 -2.4410  0.3669 -0.4263
   69SOL    HW2  207   2.556   2.868   3.051  0.8080 -1.1478  2.2040
   70SOL     OW  208   0.981   1.599   2.523  0.0721 -0.1787 -0.4153
   70SOL    HW1  209   0.995   1.653   2.439 -0.1661 -0.0616 -0.8641
   70SOL    HW2  210   0.902   1.540   2.518  1.0341  0.2740  2.4889
   71SOL     OW  211   0.753   1.680   1.832  0.1554  0.5426  0.1843
   71SOL    HW1  212   0.744   1.596   1.775 -2.7611  0.4148  1.2850
   71SOL    HW2  213   0.763   1.760   1.770 -2.0923  2.3412  0.2320
   72SOL     OW  214   2.974   1.101   1.592  0.2175  0.3001  0.1365
   72SOL    HW1  215   2.892   1.155   1.618 -0.2692  3.4311  1.3659
   72SOL    HW2  216   3.007   1.148   1.508 -2.0537  0.2155 -0.5952
   73SOL     OW  217   0.878   2.035   2.561 -0.4229  0.2038  0.3570
   73SOL    HW1  218   0.914   2.013   2.469  1.9597 -0.6354  3.0290
   73SOL    HW2  219   0.941   2.103   2.610  1.2600 -0.8133  0.4801
   74SOL     OW  220   1.054   0.294   2.163 -0.0516  0.2852  0.4560
   74SOL    HW1  221   0.980   0.238   2.210 -0.2368  0.2227  1.5076
   74SOL    HW2  222   1.082   0.381   2.215  1.0175 -1.5940  2.5969
   75SOL     OW  223   1.104   3.027   0.591  0.6312  0.6003  0.5495
   75SOL    HW1  224   1.028   2.974   0.551 -0.3825 -0.2131  0.4246
   75SOL    HW2  225   1.178   2.966   0.630  0.1522 -0.2177  0.8454
   76SOL     OW  226   0.355   1.807   2.753 -0.1109 -0.8140 -0.5092
   76SOL    HW1  227   0.397   1.781   2.662  0.9107  0.8286  1.0349
   76SOL    HW2  228   0.329   1.911   2.751 -2.5909  1.3719  1.4073
   77SOL     OW  229   0.386   2.288   0.981  0.7079 -0.0060  0.2747
   77SOL    HW1  230   0.426   2.331   0.892 -0.5928  1.3900 -1.5808
   77SOL    HW2  231   0.314   2.345   1.023 -1.1924 -2.2156  0.2043
   78SOL     OW  232   2.658   1.385   0.080  0.5635 -0.1577 -0.3008
   78SOL    HW1  233   2.575   1.361   0.028 -2.2043 -1.6555  0.7776
   78SOL    HW2  234   2.625   1.416   0.175 -0.5832  2.3253  1.1998
   79SOL     OW  235   0.659   1.428   2.836  0.2802 -0.1149  0.1539
   79SOL    HW1  236   0.699   1.420   2.738  2.4763 -2.3901 -2.2634
   79SOL    HW2  237   0.678   1.519   2.887  0.5206  2.7778  2.5090
   80SOL     OW  238   2.100   1.174   1.468  0.1237  0.0686 -0.5819
   80SOL    HW1  239   2.048   1.188   1.555 -0.3283  2.8121 -2.4225
   80SOL    HW2  240   2.162   1.253   1.456  1.5933  0.2848  1.2421
   81SOL     OW  241   2.037   0.860   2.442 -0.0664 -0.0088 -0.1604
   81SOL    HW1  242   1.965   0.866   2.509  1.5773 -1.0908 -2.3852
   81SOL    HW2  243   2.001   0.860   2.348 -0.8107  0.2251  2.3306
   82SOL     OW  244   2.267   1.916   1.375  0.7708 -0.1813  0.0297
   82SOL    HW1  245   2.196   1.978   1.342 -1.5670  3.3863  0.9207
   82SOL    HW2  246   2.259   1.914   1.477 -0.2216  1.3834  1.2407
   83SOL     OW  247   2.146   2.840   3.073 -0.0357 -0.1303  0.0368
   83SOL    HW1  248   2.235   2.816   3.028  1.9034 -1.5421  1.4458
   83SOL    HW2  249   2.155   2.935   0.026 -2.4978 -1.7152 -0.1542
   84SOL     OW  250   0.792   0.402   0.491  0.5152 -0.1908  0.0684
   84SOL    HW1  251   0.777   0.316   0.540 -0.6010  0.8141 -1.0536
   84SOL    HW2  252   0.862   0.454   0.537 -1.6972 -0.9006  0.7192
   85SOL     OW  253   2.024   1.640   1.242  0.3764  0.6024  0.5379
   85SOL    HW1  254   1.998   1.608   1.147 -2.0910  1.3394  1.6678
   85SOL    HW2  255   2.118   1.678   1.242  1.8200 -0.5144  0.0534
   86SOL     OW  256   0.544   0.823   1.198  0.1391  0.1279 -0.0013
   86SOL    HW1  257   0.544   0.822   1.298 -3.8320 -0.2723  0.4091
   86SOL    HW2  258   0.546   0.917   1.163 -0.5277 -0.3461 -1.1884
   87SOL     OW  259   0.129   2.322   2.317  0.3598 -0.2048  0.0717
   87SOL    HW1  260   0.213   2.269   2.294 -0.2405 -0.6969  0.6520
   87SOL    HW2  261   0.068   2.338   2.239  1.1108 -1.3670  2.1680
   88SOL     OW  262   0.206   2.881   0.269  0.2165 -0.0018  0.0149
   88SOL    HW1  263   0.179   2.887   0.370 -1.4012  0.3680  1.5197
   88SOL    HW2  264   0.301   2.899   0.255 -3.4123  2.1360  1.3297
   89SOL     OW  265   1.268   0.197   0.856 -0.3651 -0.6330 -0.2807
   89SOL    HW1  266   1.329   0.133   0.805  0.8578  2.6830  0.9173
   89SOL    HW2  267   1.317   0.279   0.890 -0.8901  0.1874 -2.8342
   90SOL     OW  268   2.991   0.919   2.132  0.5355 -0.5962 -0.7925
   90SOL    HW1  269   3.011   0.982   2.210 -2.5408  2.1178 -1.1242
   90SOL    HW2  270   3.048   0.939   2.051 -1.3303 -2.4963  2.9299
   91SOL     OW  271   1.986   2.690   0.654  0.1921 -0.3821 -0.0231
   91SOL    HW1  272   1.993   2.612   0.590  2.0502 -1.2272  0.6452
   91SOL    HW2  273   2.022   2.662   0.750  0.9882 -0.4820  0.8353
   92SOL     OW  274   1.642   1.711   0.758 -0.2363  0.3338 -0.3846
   92SOL    HW1  275   1.730   1.722   0.809 -0.5356 -1.7036 -0.8630
   92SOL    HW2  276   1.666   1.660   0.671  1.2194 -2.5472 -2.0198
   93SOL     OW  277   0.587   1.338   0.488 -0.4329 -0.0078 -0.9102
   93SOL    HW1  278   0.669   1.278   0.496  0.8604  2.1473  1.1462
   93SOL    HW2  279   0.613   1.432   0.513  1.4512  0.9422 -0.4786
   94SOL     OW  280   0.734   2.547   1.187 -0.3260 -0.6318  0.6343
   94SOL    HW1  281   0.806   2.500   1.244 -1.7525 -0.7675 -0.0751
   94SOL    HW2  282   0.645   2.514   1.219  2.2465 -1.3637 -1.4824
   95SOL     OW  283   0.444   0.890   0.355 -0.1361  0.1152 -0.3879
   95SOL    HW1  284   0.389   0.921   0.435  1.2528 -0.2700  0.7820
   95SOL    HW2  285   0.443   0.790   0.347  1.2737  2.1690  1.2807
   96SOL     OW  286   0.709   2.525   2.222 -0.0681  0.1202  0.2720
   96SOL    HW1  287   0.674   2.428   2.225 -0.9938 -1.9764 -2.2378
   96SOL    HW2  288   0.717   2.549   2.121 -0.5154 -0.3230  0.1987
   97SOL     OW  289   2.592   0.900   0.961  0.3327  0.0286  0.2651
   97SOL    HW1  290   2.571   0.823   1.026 -1.9294 -1.2373  3.8889
   97SOL    HW2  291   2.511   0.964   0.953 -0.3598  1.0777 -1.5882
   98SOL     OW  292   0.353   1.959   1.941 -0.5338 -0.4776  0.0026
   98SOL    HW1  293   0.347   1.866   1.900 -0.0095 -0.9013 -0.5503
   98SOL    HW2  294   0.262   2.003   1.947 -1.5027 -1.6630  0.9669
   99SOL     OW  295   2.941   0.422   1.516 -0.2672 -0.4047  0.2799
   99SOL    HW1  296   3.023   0.364   1.500 -1.4711  0.0640 -1.0763
   99SOL    HW2  297   2.933   0.466   1.610 -0.4880  1.1850  0.6575
  100SOL     OW  298   2.223   0.227   2.409 -0.5855 -0.5943  0.2492
  100SOL    HW1  299   2.213   0.205   2.507  0.6992  0.1413 -1.9829
  100SOL    HW2  300   2.135   0.219   2.359  0.3560  0.5741  2.8140
  101SOL     OW  301   1.010   3.022   1.943 -0.8883  0.5288 -0.8727
  101SOL    HW1  302   1.018   0.031   1.921 -0.2487 -2.5218  0.6414
  101SOL    HW2  303   0.964   3.012   2.031  0.3716  2.4519 -0.2313
  102SOL     OW  304   0.652   0.702   1.706  0.1342  0.4611 -0.5020
  102SOL    HW1  305   0.636   0.690   1.803  0.0233  1.6755 -0.4030
  102SOL    HW2  306   0.752   0.693   1.684 -1.6938  0.2573 -0.0801
  103SOL     OW  307   0.448   0.781   2.956  0.1030 -0.1142  0.0730
  103SOL    HW1  308   0.348   0.785   2.970 -1.5376  2.0721 -0.1482
  103SOL    HW2  309   0.472   0.783   2.856  1.2866  1.5908 -0.7667
  104SOL     OW  310   0.735   0.250   1.905  0.0918 -0.2469  0.5155
  104SOL    HW1  311   0.766   0.172   1.847 -0.2889  0.0986 -1.6243
  104SOL    HW2  312   0.703   0.207   1.991 -1.9549 -2.4513 -1.4711
  105SOL     OW  313   2.540   2.545   1.983  0.4799 -0.0405 -0.7136
  105SOL    HW1  314   2.547   2.568   1.882  2.1687 -0.9632 -2.2459
  105SOL    HW2  315   2.531   2.449   2.003 -1.7132  3.0362  0.3776
  106SOL     OW  316   0.533   3.086   0.834 -0.1802  0.1438 -0.0823
  106SOL    HW1  317   0.624   3.066   0.792  1.5596 -0.7996 -2.1222
  106SOL    HW2  318   0.511   3.019   0.908  2.1565 -1.9775  0.4108
  107SOL     OW  319   2.826   1.962   1.143  0.5479 -0.2446 -0.3856
  107SOL    HW1  320   2.796   2.051   1.105  1.6976 -0.7777  0.8885
  107SOL    HW2  321   2.755   1.891   1.132 -0.7283 -3.0236 -1.6034
  108SOL     OW  322   0.168   2.483   0.683  0.1297 -0.1415 -0.6212
  108SOL    HW1  323   0.119   2.475   0.769  1.4809 -1.0910 -0.6480
  108SOL    HW2  324   0.207   2.396   0.656  0.7819 -0.8904 -1.2954
  109SOL     OW  325   1.552   2.722   0.766  0.6137  0.6743  0.0749
  109SOL    HW1  326   1.579   2.765   0.857 -2.0702 -2.1956 -2.1945
  109SOL    HW2  327   1.615   2.757   0.697 -0.6629 -2.3074 -0.9617
  110SOL     OW  328   1.737   2.064   0.675 -0.1079  0.4593 -0.3111
  110SOL    HW1  329   1.749   1.984   0.732 -1.0425  0.6699 -2.1505
  110SOL    HW2  330   1.711   2.146   0.727  0.6222 -1.6082 -0.4138
  111SOL     OW  331   1.837   2.632   1.987 -0.0283  0.2193 -0.2425
  111SOL    HW1  332   1.922   2.637   1.931 -1.9570 -2.5950  0.1046
  111SOL    HW2  333   1.867   2.595   2.079  0.4506 -0.2134  1.6702
  112SOL     OW  334   1.607   2.190   2.492  0.3789  0.3311  0.5897
  112SOL    HW1  335   1.634   2.211   2.587  1.5446  0.3328 -2.9192
  112SOL    HW2  336   1.548   2.266   2.455 -0.4620  1.8118  0.4603
  113SOL     OW  337   2.473   2.284   2.033 -0.0251 -0.5433  0.4724
  113SOL    HW1  338   2.406   2.303   2.104  1.9975 -0.2146 -0.6059
  113SOL    HW2  339   2.421   2.242   1.962  1.0623  2.0369  1.8966
  114SOL     OW  340   0.264   0.980   1.436  0.3111  0.1153 -0.0420
  114SOL    HW1  341   0.188   1.031   1.476 -0.7730  1.0798 -2.8492
  114SOL    HW2  342   0.231   0.917   1.363  0.9925  2.4678  1.4563
  115SOL     OW  343   2.549   0.549   2.770 -0.8187 -0.1332 -0.0807
  115SOL    HW1  344   2.516   0.633   2.718 -2.1366 -1.4455  1.0893
  115SOL    HW2  345   2.528   0.557   2.868 -1.3348  0.2220 -0.8178
  116SOL     OW  346   2.679   0.364   3.068  0.0261 -0.4877 -0.1825
  116SOL    HW1  347   2.712   0.302   0.056  0.2822 -0.8954  0.6678
  116SOL    HW2  348   2.676   0.323   2.974  0.3235  0.2296 -2.6248
  117SOL     OW  349   2.650   2.709   0.818  0.4638  0.4502 -0.2288
  117SOL    HW1  350   2.570   2.773   0.814 -0.1500  0.2240 -1.1378
  117SOL    HW2  351   2.623   2.626   0.873 -1.4917 -0.4809 -2.4171
  118SOL     OW  352   0.902   1.963   2.287  0.0731 -0.2135 -0.4713
  118SOL    HW1  353   0.955   1.877   2.284 -1.3521  0.2150  1.9593
  118SOL    HW2  354   0.938   2.035   2.224 -3.3369 -0.8565  1.4288
  119SOL     OW  355   0.673   2.620   0.346  0.1409  0.2024 -0.0306
  119SOL    HW1  356   0.685   2.596   0.242  0.9779 -0.9292 -1.9611
  119SOL    HW2  357   0.745   2.568   0.395 -2.2924  1.9572 -2.0702
  120SOL     OW  358   1.413   0.966   0.541 -0.0976 -0.0585 -0.5154
  120SOL    HW1  359   1.427   1.010   0.449 -0.2267  1.0056  0.4201
  120SOL    HW2  360   1.494   0.984   0.603 -0.7351 -0.1066 -1.2597
  121SOL     OW  361   1.778   0.711   1.035  0.3915 -0.8130  0.2746
  121SOL    HW1  362   1.874   0.685   1.056 -1.1470  1.3265 -1.7805
  121SOL    HW2  363   1.757   0.810   1.074  0.0274  1.4683 -0.7437
  122SOL     OW  364   2.080   1.730   2.128  0.0225 -0.0870  0.3398
  122SOL    HW1  365   2.119   1.815   2.170  1.8359 -3.5828  2.5149
  122SOL    HW2  366   1.993   1.745   2.069 -1.3498  0.3868 -1.0082
  123SOL     OW  367   0.290   0.956   0.595  1.0017 -0.3257  0.2916
  123SOL    HW1  368   0.295   1.058   0.608  2.0617  0.7110  1.0791
  123SOL    HW2  369   0.335   0.904   0.676  0.3896  1.5968  1.5608
  124SOL     OW  370   0.690   0.367   2.687 -0.1957 -0.4921 -0.3897
  124SOL    HW1  371   0.692   0.328   2.780  2.0251  1.3865  3.6629
  124SOL    HW2  372   0.783   0.364   2.640 -0.4851 -0.5291 -2.9330
  125SOL     OW  373   0.816   0.022   2.919 -0.4552  0.0022 -0.0367
  125SOL    HW1  374   0.899   3.061   2.953  1.4852  2.2428  0.2351
  125SOL    HW2  375   0.796   3.086   2.822  0.1677  1.5837 -1.5021
  126SOL     OW  376   0.776   1.246   0.192  0.4723 -0.0092 -0.3710
  126SOL    HW1  377   0.797   1.307   0.110  0.4384  2.0703 -0.8084
  126SOL    HW2  378   0.836   1.279   0.268 -0.2965 -0.2160 -0.9465
  127SOL     OW  379   1.057   2.596   0.941 -0.0599 -0.0425  0.0554
  127SOL    HW1  380   1.048   2.675   1.008 -0.7478  1.5590 -1.4276
  127SOL    HW2  381   1.155   2.583   0.920 -2.3941 -1.0425  1.5971
  128SOL     OW  382   1.540   1.939   0.153 -0.1852 -0.1340 -0.5423
  128SOL    HW1  383   1.456   1.931   0.091 -0.0007 -0.3911 -2.3124
  128SOL    HW2  384   1.604   1.992   0.093 -1.3953 -0.1092 -1.0120
  129SOL     OW  385   1.909   1.468   1.653 -0.1979 -0.2363  0.1928
  129SOL    HW1  386   1.930   1.370   1.663  1.8807 -1.3234  0.9856
  129SOL    HW2  387   1.820   1.489   1.700  0.8053  0.1725 -1.6631
  130SOL     OW  388   2.059   1.696   1.767 -0.2703  0.1681  0.0146
  130SOL    HW1  389   2.017   1.615   1.717 -0.2934 -1.3509  0.0980
  130SOL    HW2  390   2.127   1.665   1.837  2.3820  1.0369  1.6666
  131SOL     OW  391   0.888   2.339   1.979  0.9314  0.4429 -0.5132
  131SOL    HW1  392   0.960   2.383   1.928  0.0391 -1.1803  2.2914
  131SOL    HW2  393   0.793   2.366   1.950  0.2048 -2.0902  0.3769
  132SOL     OW  394   2.601   1.528   0.574  0.3898 -0.2935  0.5468
  132SOL    HW1  395   2.691   1.533   0.619 -3.5275 -0.9305  0.6417
  132SOL    HW2  396   2.557   1.615   0.548  1.6480 -2.4591 -1.2357
  133SOL     OW  397   0.756   1.937   1.745 -0.4174  0.6861 -0.4236
  133SOL    HW1  398   0.698   1.996   1.685  0.5174  3.1300  1.2002
  133SOL    HW2  399   0.747   1.968   1.844 -0.2409 -1.5231  0.4435
  134SOL     OW  400   2.991   1.747   0.773  0.3448  0.2830  0.1530
  134SOL    HW1  401   2.987   1.654   0.743 -2.1875  3.4768 -0.3932
  134SOL    HW2  402   3.013   1.755   0.868 -1.7729 -0.0384  0.1777
  135SOL     OW  403   2.083   1.353   2.921  0.3698  0.1931  0.4299
  135SOL    HW1  404   2.128   1.432   2.868  1.3913 -0.4032 -1.3724
  135SOL    HW2  405   2.106   1.265   2.880  2.0251  0.2449 -1.4674
  136SOL     OW  406   0.061   1.437   1.349 -0.6483  0.2035 -0.4961
  136SOL    HW1  407   0.164   1.438   1.377  1.4846  1.7621 -1.8526
  136SOL    HW2  408   0.032   1.491   1.265 -0.0181  0.7398  0.5701
  137SOL     OW  409   2.457   1.460   2.982 -0.8643 -0.4715  0.3271
  137SOL    HW1  410   2.457   1.365   2.940  0.5855 -0.8457 -0.1086
  137SOL    HW2  411   2.452   1.533   2.908 -2.1064  0.9917 -1.7500
  138SOL     OW  412   2.633   0.528   0.755  0.5866 -0.0092  0.6070
  138SOL    HW1  413   2.573   0.466   0.695  0.8326 -1.9538 -0.5841
  138SOL    HW2  414   2.620   0.624   0.733  0.5711 -2.2321 -0.5986
  139SOL     OW  415   2.215   2.473   2.585 -0.3511 -0.2015  0.6889
  139SOL    HW1  416   2.282   2.535   2.634  0.5235  0.2859 -0.5384
  139SOL    HW2  417   2.260   2.383   2.559  1.7006  2.3999 -0.8107
  140SOL     OW  418   0.735   1.462   0.964  0.1038  0.3471  0.0207
  140SOL    HW1  419   0.656   1.515   0.934 -0.1311 -1.1544  1.6971
  140SOL    HW2  420   0.731   1.376   0.908  0.0153 -0.1199 -2.0808
  141SOL     OW  421   1.031   1.251   0.893 -0.2547  0.0721  0.4154
  141SOL    HW1  422   1.079   1.224   0.980 -0.0236  0.9100  0.9094
  141SOL    HW2  423   1.082   1.214   0.810  1.8368  1.5986 -3.0991
  142SOL     OW  424   1.143   0.753   0.941 -0.2866 -0.2675 -0.1481
  142SOL    HW1  425   1.146   0.680   1.012  1.8029 -1.5418 -1.7463
  142SOL    HW2  426   1.207   0.728   0.864 -1.1132  0.5056 -0.1613
  143SOL     OW  427   0.278   0.481   3.008  0.2308 -0.0751 -0.0592
  143SOL    HW1  428   0.179   0.512   2.991 -1.1609 -6.0630 -2.4389
  143SOL    HW2  429   0.329   0.486   2.917 -0.7996  1.6957 -2.1024
  144SOL     OW  430   2.459   0.069   0.420 -0.4322 -0.7149  0.1738
  144SOL    HW1  431   2.443   3.086   0.355 -0.7677  2.4422 -0.3080
  144SOL    HW2  432   2.473   0.162   0.375  0.3119  4.8443 -0.9241
  145SOL     OW  433   2.344   3.021   2.492  0.7763 -0.0382  0.2140
  145SOL    HW1  434   2.432   3.063   2.457 -1.3395  2.9411 -2.1506
  145SOL    HW2  435   2.266   3.087   2.503 -1.3862 -0.7392  0.2708
  146SOL     OW  436   3.014   2.722   0.431  0.0735  0.0565  0.0693
  146SOL    HW1  437   3.072   2.639   0.406  2.6992 -3.9023  0.8151
  146SOL    HW2  438   2.932   2.724   0.375  3.1050  1.1156  1.2026
  147SOL     OW  439   1.457   0.747   0.019  0.2682 -0.2679 -0.2589
  147SOL    HW1  440   1.378   0.720   3.055  0.6112 -1.5440  0.7571
  147SOL    HW2  441   1.509   0.665   0.042 -1.5912  0.5931 -2.1355
  148SOL     OW  442   1.237   3.026   0.108 -0.2635 -0.3369 -0.0336
  148SOL    HW1  443   1.277   3.075   0.186 -2.6262 -0.1063 -1.7675
  148SOL    HW2  444   1.301   3.036   0.031 -0.8507  2.6565 -0.8006
  149SOL     OW  445   1.402   1.092   2.806 -0.4592 -0.0286  0.8148
  149SOL    HW1  446   1.455   1.038   2.869  1.2354 -1.5297  0.2178
  149SOL    HW2  447   1.358   1.038   2.730  1.9745  1.5194 -0.7393
  150SOL     OW  448   1.274   2.800   2.950  0.1569  0.1871  0.1610
  150SOL    HW1  449   1.337   2.736   2.989 -2.7132  0.8749 -3.1859
  150SOL    HW2  450   1.299   2.898   2.973 -1.0942  0.2706  1.5938
  151SOL     OW  451   0.103   1.294   0.014  0.6520 -0.0005  0.6265
  151SOL    HW1  452   0.033   1.292   0.093  0.0979  1.0754  2.0685
  151SOL    HW2  453   0.195   1.276   0.046 -2.1441  0.8399  0.4418
  152SOL     OW  454   0.718   0.300   1.378  0.1143 -0.1192 -0.6243
  152SOL    HW1  455   0.623   0.340   1.354 -1.5824  2.4224 -1.8436
  152SOL    HW2  456   0.714   0.197   1.383  3.1171 -4.8104  1.7732
  153SOL     OW  457   2.637   3.049   1.825  0.1667  0.3375 -0.1485
  153SOL    HW1  458   2.536   3.064   1.829  1.1026  0.1596 -0.3175
  153SOL    HW2  459   2.690   0.046   1.818  0.2339  1.2661 -0.1553
  154SOL     OW  460   2.374   3.036   1.950 -0.1975 -0.7076  0.4415
  154SOL    HW1  461   2.402   2.943   1.975  0.7936  0.2722  0.3901
  154SOL    HW2  462   2.361   0.001   2.035  0.8833 -0.2172 -1.3598
  155SOL     OW  463   0.115   1.247   0.404 -0.0539 -0.6376 -0.1332
  155SOL    HW1  464   0.172   1.172   0.361 -0.2093  1.5456 -2.2400
  155SOL    HW2  465   0.103   1.227   0.502  1.0669  0.5201  3.0634
  156SOL     OW  466   1.817   1.147   0.172  0.4489 -0.0144  0.1025
  156SOL    HW1  467   1.800   1.068   0.237 -0.2825 -1.5562  0.6813
  156SOL    HW2  468   1.828   1.111   0.076  1.1319  0.7572 -0.7602
  157SOL     OW  469   0.989   2.543   0.175  0.2973 -0.3526  0.0972
  157SOL    HW1  470   1.087   2.533   0.157 -1.1624  1.3601  0.6215
  157SOL    HW2  471   0.942   2.474   0.111 -0.6628  0.5783 -3.2422
  158SOL     OW  472   1.871   0.926   1.497 -0.3563 -0.1584  0.0948
  158SOL    HW1  473   1.861   0.977   1.587 -0.5340 -0.8972  0.1522
  158SOL    HW2  474   1.896   0.994   1.422  0.0531  1.9114 -1.8216
  159SOL     OW  475   3.018   3.081   0.283  0.4136  0.4624  0.6430
  159SOL    HW1  476   3.067   0.028   0.203 -3.0989  1.6070 -1.7554
  159SOL    HW2  477   2.974   0.066   0.340  0.3658 -0.4173 -2.6693
  160SOL     OW  478   2.479   2.019   1.795  0.1221  0.2182 -0.3626
  160SOL    HW1  479   2.577   2.028   1.773 -0.5003  0.9005  0.5405
  160SOL    HW2  480   2.442   1.923   1.774 -0.1357 -0.1148  0.1141
  161SOL     OW  481   3.032   0.305   0.200 -0.1946 -0.5555 -0.4695
  161SOL    HW1  482   0.007   0.278   0.128  0.6068  1.7579 -0.1554
  161SOL    HW2  483   3.076   0.331   0.291 -0.3387 -0.6897  2.4246
  162SOL     OW  484   0.621   0.719   2.004  0.1878  0.1864  0.1898
  162SOL    HW1  485   0.529   0.721   2.047 -1.3171 -0.8051 -1.1324
  162SOL    HW2  486   0.681   0.656   2.055 -1.0069 -0.5806  0.1531
  163SOL     OW  487   2.732   0.067   2.629 -0.8417  0.0940  0.2170
  163SOL    HW1  488   2.690   0.147   2.581 -0.6089  1.6139 -1.5387
  163SOL    HW2  489   2.770   0.003   2.561  1.5096  0.4000  1.1728
  164SOL     OW  490   2.529   1.668   0.042 -0.5766 -0.1743 -0.6787
  164SOL    HW1  491   2.432   1.698   0.056  1.5574  0.3045  0.3676
  164SOL    HW2  492   2.548   1.579   3.078  1.0667 -2.6284 -1.0502
  165SOL     OW  493   0.401   0.163   1.200 -0.0031  0.3327 -0.1792
  165SOL    HW1  494   0.414   0.260   1.235 -1.7292  1.6777  0.6950
  165SOL    HW2  495   0.471   0.096   1.234 -0.0938 -0.1064 -1.2292
  166SOL     OW  496   2.777   0.201   0.203  0.6299  0.2707 -0.0134
  166SOL    HW1  497   2.863   0.257   0.203 -1.4877  0.8798 -0.5945
  166SOL    HW2  498   2.778   0.133   0.281  1.7626 -0.7211 -0.8659
  167SOL     OW  499   2.067   0.616   0.667  0.9221 -0.3165 -0.3342
  167SOL    HW1  500   2.121   0.640   0.750 -2.1732 -1.2037  0.1208
  167SOL    HW2  501   1.994   0.544   0.690 -1.2862 -2.0507 -0.0308
  168SOL     OW  502   1.099   0.519   2.326  0.8228 -0.4757 -0.0512
  168SOL    HW1  503   1.101   0.584   2.402 -2.1582  1.6339 -2.7542
  168SOL    HW2  504   1.116   0.564   2.232 -0.3574  0.6799 -1.8526
  169SOL     OW  505   0.484   1.666   1.125 -0.0802 -0.5193  0.0187
  169SOL    HW1  506   0.469   1.764   1.143 -1.8632  1.2209  2.9590
  169SOL    HW2  507   0.487   1.649   1.024 -0.5779  1.9499 -1.4619
  170SOL     OW  508   0.034   0.089   1.686 -0.3916 -0.1005  0.0189
  170SOL    HW1  509   0.113   0.030   1.703 -3.2177  0.0232 -1.4083
  170SOL    HW2  510   3.047   0.041   1.634  0.4515 -1.3238 -1.6053
  171SOL     OW  511   2.430   1.365   2.177  0.0016  0.7882 -0.0198
  171SOL    HW1  512   2.523   1.401   2.162 -2.7985 -0.2777  1.4100
  171SOL    HW2  513   2.382   1.334   2.093  0.5624  0.4645 -0.9945
  172SOL     OW  514   1.397   2.145   1.109  0.3161 -0.3995 -0.3746
  172SOL    HW1  515   1.293   2.159   1.119 -2.1405  1.0489 -0.0625
  172SOL    HW2  516   1.427   2.047   1.090  4.3864 -1.5053 -0.2712
  173SOL     OW  517   2.281   2.288   3.039 -0.1654  0.1190 -0.7044
  173SOL    HW1  518   2.186   2.314   3.035  0.1845  0.6002  1.0588
  173SOL    HW2  519   2.323   2.333   0.033  2.3680 -1.1003 -1.1466
  174SOL     OW  520   1.807   0.702   0.255  0.4287  0.7667 -0.1560
  174SOL    HW1  521   1.749   0.655   0.321  2.4137 -2.1143 -0.9858
  174SOL    HW2  522   1.904   0.699   0.289  2.4662  3.3138  1.6025
  175SOL     OW  523   0.523   1.798   1.496  0.1919  0.0515  0.1642
  175SOL    HW1  524   0.444   1.739   1.516  1.5638  0.2847 -2.0134
  175SOL    HW2  525   0.612   1.749   1.492 -2.6510  0.0112 -0.2740
  176SOL     OW  526   0.315   0.038   0.643  0.0027  0.0071  0.2671
  176SOL    HW1  527   0.405   0.004   0.669  0.1727 -2.3669  1.3897
  176SOL    HW2  528   0.251   3.047   0.651 -2.1151 -0.4192  1.0776
  177SOL     OW  529   3.015   1.245   0.220 -0.3712  0.3788 -0.2277
  177SOL    HW1  530   2.924   1.199   0.236  3.0841 -0.7458 -1.5555
  177SOL    HW2  531   3.082   1.234   0.294  1.3626 -0.2025 -2.9317
  178SOL     OW  532   2.792   2.356   2.091  0.8867 -0.3000 -0.0583
  178SOL    HW1  533   2.723   2.423   2.053 -2.4059  0.7604 -0.1890
  178SOL    HW2  534   2.806   2.364   2.192  0.8506  2.9973 -3.2117
  179SOL     OW  535   2.157   3.087   0.104 -0.5578  0.3849 -0.2369
  179SOL    HW1  536   2.197   0.076   0.052  0.7389  3.1385  3.0348
  179SOL    HW2  537   2.054   0.006   0.109 -0.0158 -2.6110 -0.1454
  180SOL     OW  538   2.348   0.599   0.615 -0.6287 -0.2574 -0.2038
  180SOL    HW1  539   2.251   0.624   0.624 -0.1478  0.8334 -0.1518
  180SOL    HW2  540   2.417   0.669   0.654  3.4627  1.6864 -2.0934
  181SOL     OW  541   3.006   2.990   2.820 -0.0491  0.2989 -0.1259
  181SOL    HW1  542   2.968   3.024   2.911  1.3289  1.4344  0.7719
  181SOL    HW2  543   2.994   2.891   2.804  0.2556  0.3989  2.8125
  182SOL     OW  544   2.624   2.100   2.390 -0.2205  1.1662 -0.7522
  182SOL    HW1  545   2.590   2.195   2.404 -0.0917  0.4730 -0.4957
  182SOL    HW2  546   2.605   2.065   2.295 -0.1630 -1.9535 -1.2139
  183SOL     OW  547   2.751   0.907   1.490  0.5592  0.2694 -0.0310
  183SOL    HW1  548   2.821   0.871   1.420  0.1479 -1.7035 -0.5324
  183SOL    HW2  549   2.779   0.896   1.587 -3.5824  2.3648 -1.4241
  184SOL     OW  550   2.903   1.373   1.121 -0.6668  0.3839  0.0720
  184SOL    HW1  551   2.912   1.472   1.154  1.4780  1.7446 -1.5433
  184SOL    HW2  552   2.990   1.327   1.095 -3.8676 -1.5462  0.8850
  185SOL     OW  553   0.110   0.199   1.222  0.5994 -0.6328  0.0782
  185SOL    HW1  554   0.198   0.176   1.189  0.6378  0.4625  1.1898
  185SOL    HW2  555   0.068   0.270   1.158 -1.8578  4.8191 -1.0003
  186SOL     OW  556   2.283   2.230   2.250 -0.5357 -0.2889  0.2547
  186SOL    HW1  557   2.240   2.142   2.238 -1.1077 -0.7269 -1.8386
  186SOL    HW2  558   2.290   2.248   2.350  0.3476  0.1714 -1.7040
  187SOL     OW  559   0.356   1.219   0.607  0.2745 -0.8981  0.3207
  187SOL    HW1  560   0.441   1.246   0.557 -0.5237 -1.7480  1.8489
  187SOL    HW2  561   0.317   1.307   0.642 -0.5640 -0.5588 -1.0506
  188SOL     OW  562   1.709   1.768   3.015  0.9133 -0.1556  0.0746
  188SOL    HW1  563   1.707   1.874   3.041 -0.5171  4.2096 -1.1136
  188SOL    HW2  564   1.729   1.715   0.009  0.6188 -1.1825 -0.7116
  189SOL     OW  565   0.048   1.670   2.950 -0.2974 -0.2026  0.1372
  189SOL    HW1  566   0.008   1.576   2.954  0.9220  3.2475 -2.6844
  189SOL    HW2  567   0.150   1.654   2.933 -0.2429  1.8620  0.2707
  190SOL     OW  568   2.076   0.541   2.463 -0.7752 -0.1620  0.6734
  190SOL    HW1  569   2.119   0.592   2.384 -0.7030  1.1850 -1.7544
  190SOL    HW2  570   2.131   0.452   2.471 -0.3380 -1.6646 -0.4788
  191SOL     OW  571   0.932   1.332   2.197  0.2219  0.1155 -0.1724
  191SOL    HW1  572   0.874   1.327   2.117  1.6343  1.8184 -3.9728
  191SOL    HW2  573   0.957   1.244   2.235 -0.9362  1.4382 -1.2977
  192SOL     OW  574   1.723   1.392   1.973  0.4550 -0.3147 -0.4451
  192SOL    HW1  575   1.713   1.453   1.889 -1.6338 -1.8089 -1.0533
  192SOL    HW2  576   1.696   1.297   1.950  3.4777  3.5192 -0.3821
  193SOL     OW  577   0.799   3.068   0.746 -0.3016  0.3356  0.0781
  193SOL    HW1  578   0.847   2.985   0.704  3.6947 -3.6407  1.1492
  193SOL    HW2  579   0.866   0.022   0.807  1.5111  0.1786 -0.9810
  194SOL     OW  580   1.475   1.453   1.650  0.8859  0.1495  0.9033
  194SOL    HW1  581   1.434   1.445   1.559  1.0853 -0.7125 -3.5270
  194SOL    HW2  582   1.416   1.519   1.704 -1.9748  0.2990 -2.0962
  195SOL     OW  583   1.678   0.164   0.833  0.2691  0.7882 -0.3850
  195SOL    HW1  584   1.627   0.239   0.788  2.4687 -1.0287 -1.3326
  195SOL    HW2  585   1.744   0.205   0.902 -0.3343  1.6338  3.0536
  196SOL     OW  586   0.898   1.808   2.026 -0.4328 -0.1194  0.2703
  196SOL    HW1  587   0.865   1.901   2.005  1.3797 -0.2544 -1.7124
  196SOL    HW2  588   0.850   1.740   1.964  1.5282 -0.6352  0.2043
  197SOL     OW  589   0.468   0.262   2.529  0.2938  0.0889  0.3987
  197SOL    HW1  590   0.534   0.310   2.591  1.3102  0.3918  1.6191
  197SOL    HW2  591   0.514   0.175   2.495  0.0905 -1.6794  0.7752
  198SOL     OW  592   2.853   1.065   1.146  0.0827  0.2141 -0.4360
  198SOL    HW1  593   2.821   1.060   1.048 -0.2088 -2.3232 -0.2485
  198SOL    HW2  594   2.798   1.137   1.195  1.7557 -2.3138  0.3702
  199SOL     OW  595   0.534   2.183   1.182 -0.1715  0.3181 -0.6825
  199SOL    HW1  596   0.621   2.180   1.133 -1.1441  0.1832 -0.5639
  199SOL    HW2  597   0.465   2.220   1.120  3.1537 -2.2616  1.5159
  200SOL     OW  598   3.020   1.905   2.592 -0.7264 -0.1730  0.4581
  200SOL    HW1  599   3.023   1.815   2.541 -1.5693 -2.6834  0.5155
  200SOL    HW2  600   3.001   1.889   2.691  0.1608 -0.9522  1.5070
  201SOL     OW  601   1.005   2.527   1.391 -0.3399  0.2412 -0.0418
  201SOL    HW1  602   1.018   2.492   1.296  0.5963  0.7255 -0.3882
  201SOL    HW2  603   0.937   2.466   1.440  0.7483  2.3414 -2.5451
  202SOL     OW  604   0.884   2.476   0.421 -0.0444  0.2466  0.0757
  202SOL    HW1  605   0.887   2.376   0.420  1.7682  4.5570 -0.8995
  202SOL    HW2  606   0.916   2.512   0.326 -2.8008  0.1977 -1.3825
  203SOL     OW  607   2.088   3.042   2.359  0.1685 -0.5915  0.5102
  203SOL    HW1  608   2.051   3.032   2.265 -0.7917  2.0095  1.0987
  203SOL    HW2  609   2.070   2.956   2.410  0.3257 -2.7410  1.2523
  204SOL     OW  610   0.303   1.288   1.594  0.3571  0.1461 -0.3398
  204SOL    HW1  611   0.341   1.298   1.504 -1.7384  1.1642  1.4393
  204SOL    HW2  612   0.379   1.272   1.657 -2.8710  2.0095 -2.0121
  205SOL     OW  613   2.240   1.392   2.356 -0.1520 -0.4769 -0.2008
  205SOL    HW1  614   2.315   1.381   2.285  2.7914 -0.1936 -0.5205
  205SOL    HW2  615   2.148   1.396   2.316 -1.5660  0.7066 -0.8374
  206SOL     OW  616   0.251   2.072   2.698 -0.6065 -0.4403  0.0175
  206SOL    HW1  617   0.269   2.130   2.616 -1.0294  1.8725 -0.4564
  206SOL    HW2  618   0.158   2.094   2.735 -0.6835  2.3326 -1.1844
  207SOL     OW  619   0.711   2.858   1.804  0.3646 -0.2640 -0.1017
  207SOL    HW1  620   0.810   2.831   1.808  1.5368 -1.4532  0.8548
  207SOL    HW2  621   0.659   2.780   1.778 -0.3505  2.8471 -1.0811
  208SOL     OW  622   0.055   2.722   1.453 -0.0987  0.2877  0.4513
  208SOL    HW1  623   0.088   2.767   1.537  0.4785 -1.0530  1.8924
  208SOL    HW2  624   0.089   2.791   1.381  1.2862  2.2917  0.4914
  209SOL     OW  625   1.159   2.587   2.361  0.2914 -0.9769  0.0189
  209SOL    HW1  626   1.132   2.490   2.389 -2.8373 -0.1923 -0.3474
  209SOL    HW2  627   1.245   2.624   2.401  0.3124  0.1793  3.3743
  210SOL     OW  628   2.748   1.047   2.074  0.4385  0.6776 -0.1342
  210SOL    HW1  629   2.831   0.991   2.082 -2.1319  1.9584  2.3746
  210SOL    HW2  630   2.698   1.032   2.165 -1.8843  1.4001 -0.5117
  211SOL     OW  631   1.293   2.959   2.183  0.4856  0.3698  0.0249
  211SOL    HW1  632   1.348   2.941   2.100 -0.3624 -0.2224 -0.6147
  211SOL    HW2  633   1.202   2.914   2.181 -0.3252 -1.3120 -0.0772
  212SOL     OW  634   1.471   2.796   1.703 -0.2428  0.8055 -0.0255
  212SOL    HW1  635   1.409   2.872   1.689 -1.8475 -0.2198 -2.6455
  212SOL    HW2  636   1.560   2.794   1.654 -1.3533  0.6702 -1.0777
  213SOL     OW  637   2.305   0.636   1.700  0.5790  0.1269 -0.4693
  213SOL    HW1  638   2.308   0.661   1.601 -0.6475  2.6408 -2.8743
  213SOL    HW2  639   2.405   0.613   1.730  2.3124 -0.7281 -0.9068
  214SOL     OW  640   0.763   2.221   0.995 -0.2389  0.4648 -0.4294
  214SOL    HW1  641   0.822   2.141   0.975 -3.2485 -0.4271  0.2229
  214SOL    HW2  642   0.735   2.276   0.915  0.8723  2.0997  1.3609
  215SOL     OW  643   2.455   1.813   0.620 -0.4102  0.3399 -0.2866
  215SOL    HW1  644   2.532   1.815   0.686 -0.2321 -1.0247  1.4964
  215SOL    HW2  645   2.445   1.900   0.574 -0.3221 -1.9714  1.0258
  216SOL     OW  646   2.691   0.639   1.904 -0.4222 -0.0383 -0.2537
  216SOL    HW1  647   2.626   0.638   1.984 -2.9166  1.3911  3.3142
  216SOL    HW2  648   2.642   0.601   1.822 -0.9565  2.1364  1.5010
  217SOL     OW  649   2.165   0.461   1.279 -0.0613 -0.6942  0.0355
  217SOL    HW1  650   2.106   0.380   1.257  1.6504  0.8355  0.3019
  217SOL    HW2  651   2.144   0.541   1.223  1.0643  2.8213 -2.5645
  218SOL     OW  652   1.853   2.278   1.157 -0.8585 -0.3200 -0.2721
  218SOL    HW1  653   1.863   2.339   1.074  1.1895  0.5143 -0.6208
  218SOL    HW2  654   1.820   2.338   1.231  1.7202 -3.1293 -4.4228
  219SOL     OW  655   1.984   2.297   3.030  0.5426 -0.4577 -0.1774
  219SOL    HW1  656   1.973   2.281   2.929 -0.5810  0.5054 -0.0809
  219SOL    HW2  657   1.956   2.389   3.063  0.9801  1.8352  0.7853
  220SOL     OW  658   1.673   2.563   0.150 -0.1773 -0.1159 -0.3704
  220SOL    HW1  659   1.629   2.529   0.235 -1.3551  0.3046 -1.7267
  220SOL    HW2  660   1.764   2.519   0.134 -0.0791  0.5570  0.6972
  221SOL     OW  661   3.073   2.521   1.782  0.0792  0.3213  0.2829
  221SOL    HW1  662   3.044   2.440   1.734  0.6818  0.7985 -0.6051
  221SOL    HW2  663   2.993   2.588   1.784 -1.8966  2.7170  1.3649
  222SOL     OW  664   1.880   2.444   0.947 -0.1741  0.5010  0.1600
  222SOL    HW1  665   1.967   2.501   0.941  0.0883  2.3559 -0.6871
  222SOL    HW2  666   1.858   2.406   0.851 -0.6109  2.8110 -0.9325
  223SOL     OW  667   1.302   2.387   1.662  0.0251 -0.7247 -0.2694
  223SOL    HW1  668   1.368   2.430   1.725  1.0635  0.0997 -3.7493
  223SOL    HW2  669   1.329   2.291   1.651  0.8683  0.3823 -2.3037
  224SOL     OW  670   2.639   2.408   1.368  0.0197 -0.0460  0.6178
  224SOL    HW1  671   2.731   2.377   1.338  2.0083 -1.0965  0.1017
  224SOL    HW2  672   2.630   2.389   1.466 -0.0907 -0.0166 -0.1272
  225SOL     OW  673   2.166   2.092   0.522 -0.1174  0.0389  0.1785
  225SOL    HW1  674   2.115   2.005   0.513  0.6864  1.1884  0.5615
  225SOL    HW2  675   2.113   2.147   0.591  0.2314  0.4602  1.5449
  226SOL     OW  676   1.284   2.452   0.406  0.2380 -0.5220  0.3928
  226SOL    HW1  677   1.303   2.355   0.385  2.6593  0.1144 -2.6264
  226SOL    HW2  678   1.229   2.454   0.493  1.8728 -2.8685  2.2521
  227SOL     OW  679   2.056   1.110   0.585 -0.8087  0.1541  0.0057
  227SOL    HW1  680   1.985   1.178   0.601  1.1842 -0.7483 -1.5255
  227SOL    HW2  681   2.019   1.016   0.595 -1.7337 -0.1564 -0.7435
  228SOL     OW  682   1.798   0.373   3.050  0.0579 -0.2766 -0.0302
  228SOL    HW1  683   1.835   0.344   2.960 -0.3244 -1.3551 -3.6853
  228SOL    HW2  684   1.701   0.340   3.063 -2.7443 -0.0273  1.1227
  229SOL     OW  685   2.663   1.055   2.331  0.5144 -0.0280 -0.5985
  229SOL    HW1  686   2.648   0.982   2.401 -2.1391 -0.5842  2.1329
  229SOL    HW2  687   2.738   1.119   2.351 -2.1157  1.0135 -0.6127
  230SOL     OW  688   0.351   1.286   0.979 -0.1471  0.3393 -0.4719
  230SOL    HW1  689   0.392   1.272   1.071  0.6489  0.0128 -0.5942
  230SOL    HW2  690   0.399   1.221   0.914  1.9057 -1.7884 -0.7331
  231SOL     OW  691   2.404   0.327   2.700  0.1698 -0.4303  0.1029
  231SOL    HW1  692   2.454   0.395   2.759  0.6928  2.6986  0.0565
  231SOL    HW2  693   2.405   0.351   2.603  1.0068 -1.1149  3.1025
  232SOL     OW  694   2.909   2.165   0.513 -0.2947  0.2181  0.6655
  232SOL    HW1  695   2.939   2.116   0.601 -2.7844 -0.5348  1.3588
  232SOL    HW2  696   2.861   2.254   0.529 -2.2001  0.0459 -1.0917
  233SOL     OW  697   1.480   2.477   2.436  0.0012 -0.1124  0.4794
  233SOL    HW1  698   1.460   2.576   2.450 -1.9726 -2.6777  1.1518
  233SOL    HW2  699   1.507   2.459   2.336 -0.3249  0.7138 -1.1328
  234SOL     OW  700   1.274   1.760   1.217 -0.4682 -0.8883 -0.2194
  234SOL    HW1  701   1.332   1.764   1.305  0.7662 -1.4604 -0.1999
  234SOL    HW2  702   1.337   1.796   1.145  0.4008  0.5646 -0.1920
  235SOL     OW  703   0.992   1.886   1.558 -0.2983 -0.3884 -0.0903
  235SOL    HW1  704   0.912   1.873   1.625 -1.1790  0.5648 -0.4884
  235SOL    HW2  705   1.062   1.818   1.581  2.6035 -0.3189  0.2329
  236SOL     OW  706   1.003   2.734   2.789 -0.2013 -1.0732  1.0487
  236SOL    HW1  707   1.099   2.745   2.829  3.1390  1.9033  0.6548
  236SOL    HW2  708   0.997   2.653   2.733  2.9618  4.3099 -0.0038
  237SOL     OW  709   0.711   3.080   1.486 -0.4982 -0.0846 -0.7050
  237SOL    HW1  710   0.744   2.984   1.488  0.5951  1.3228  3.4427
  237SOL    HW2  711   0.727   0.021   1.583  0.4058 -1.0652  1.4751
  238SOL     OW  712   1.101   0.773   0.211 -0.3058  0.2329 -0.3362
  238SOL    HW1  713   1.174   0.786   0.280  0.0940 -0.2129  0.7006
  238SOL    HW2  714   1.022   0.836   0.226 -0.8906  2.1537 -0.3616
  239SOL     OW  715   2.481   0.812   2.752  0.3724  0.0419 -0.1459
  239SOL    HW1  716   2.379   0.801   2.764 -0.1905 -2.1836  0.8324
  239SOL    HW2  717   2.519   0.868   2.831 -0.8389 -0.4068 -1.2933
  240SOL     OW  718   2.619   2.006   0.893 -0.0169 -0.4105 -0.1972
  240SOL    HW1  719   2.583   2.014   0.993  3.8314 -1.8516 -0.5673
  240SOL    HW2  720   2.627   1.906   0.869 -1.3666  0.6608 -0.6605
  241SOL     OW  721   0.998   1.542   0.982 -0.2890  0.2030 -0.3040
  241SOL    HW1  722   1.034   1.448   1.006 -0.0723 -0.0469  1.3195
  241SOL    HW2  723   0.897   1.544   0.994 -0.7127  2.1331  2.0170
  242SOL     OW  724   1.011   0.400   0.815  0.3559 -0.2349  0.3348
  242SOL    HW1  725   0.988   0.474   0.751  2.5628 -0.9207  2.5211
  242SOL    HW2  726   1.072   0.330   0.775  0.5183 -2.5720  1.3568
  243SOL     OW  727   0.403   0.622   1.113 -0.1708 -0.1384 -0.1296
  243SOL    HW1  728   0.300   0.643   1.116 -1.5787 -1.0025 -0.6441
  243SOL    HW2  729   0.456   0.691   1.166  0.0155 -0.1731 -0.7963
  244SOL     OW  730   1.314   0.079   0.334 -0.9443 -0.1328  0.1517
  244SOL    HW1  731   1.310   0.064   0.435 -1.0481 -0.1152 -0.5282
  244SOL    HW2  732   1.240   0.139   0.299  2.7866 -0.6534 -1.6730
  245SOL     OW  733   2.043   0.664   0.390  1.2043  0.4461 -0.3134
  245SOL    HW1  734   2.054   0.656   0.492 -1.3573  0.2786  0.8838
  245SOL    HW2  735   2.101   0.734   0.348 -1.4170 -2.2196 -1.8364
  246SOL     OW  736   0.517   0.310   1.750  0.3548  0.2737  0.0654
  246SOL    HW1  737   0.589   0.272   1.815  0.0676 -0.4709  1.4653
  246SOL    HW2  738   0.548   0.395   1.705 -1.1514 -1.2996 -0.9100
  247SOL     OW  739   1.027   3.071   1.640 -0.3201  0.0560  0.3262
  247SOL    HW1  740   1.077   0.069   1.638  0.2061 -1.7495 -0.6053
  247SOL    HW2  741   1.093   2.984   1.637 -0.5165 -3.5308 -1.2449
  248SOL     OW  742   0.520   1.625   1.980 -0.4668 -0.3036 -0.1262
  248SOL    HW1  743   0.615   1.649   1.957  2.3434  0.7198  0.9726
  248SOL    HW2  744   0.503   1.598   2.075 -0.1034 -1.9260 -0.0585
  249SOL     OW  745   0.429   2.515   0.235 -0.5904 -0.1187  1.0016
  249SOL    HW1  746   0.334   2.547   0.213 -0.3772  0.1156  1.3604
  249SOL    HW2  747   0.488   2.573   0.299  1.5921  0.6751  2.7380
  250SOL     OW  748   0.962   0.426   1.827 -0.1717 -0.0117 -0.1353
  250SOL    HW1  749   0.905   0.358   1.879 -0.3230 -0.6241  2.1332
  250SOL    HW2  750   0.964   0.402   1.726  0.0051 -0.2761  0.8878
  251SOL     OW  751   2.700   1.996   1.445 -0.0417 -0.5558 -0.2400
  251SOL    HW1  752   2.650   1.912   1.426 -0.2037  3.2019  2.0156
  251SOL    HW2  753   2.637   2.071   1.418 -0.7601  0.5603  1.0183
  252SOL     OW  754   1.449   0.287   1.770 -0.3046  0.4608  0.3354
  252SOL    HW1  755   1.389   0.261   1.848  1.5700  1.4986 -1.7633
  252SOL    HW2  756   1.528   0.219   1.754  1.3089 -0.8120 -1.4260
  253SOL     OW  757   2.433   1.906   2.062 -0.4311  0.1362  0.3999
  253SOL    HW1  758   2.342   1.926   2.023  1.1666 -0.2594 -0.8187
  253SOL    HW2  759   2.500   1.985   2.050  1.8613  0.1161 -0.2345
  254SOL     OW  760   0.730   1.451   1.228  0.6231  0.0043  0.0107
  254SOL    HW1  761   0.657   1.520   1.244  2.0497  0.6688  1.7250
  254SOL    HW2  762   0.746   1.437   1.130 -1.6594  0.0334  1.7235
  255SOL     OW  763   0.458   2.959   1.875 -0.5852 -0.4607 -0.5194
  255SOL    HW1  764   0.548   2.907   1.863 -1.5223 -0.1653 -3.8290
  255SOL    HW2  765   0.403   2.964   1.792  0.0073 -0.1252  0.4128
  256SOL     OW  766   0.358   2.677   0.724  0.0947  0.3570  0.2511
  256SOL    HW1  767   0.303   2.592   0.704  1.4860  0.3720  2.3256
  256SOL    HW2  768   0.421   2.712   0.648 -0.2102  1.8212 -3.8629
  257SOL     OW  769   1.064   2.341   2.425  0.4922 -0.1622 -0.5479
  257SOL    HW1  770   1.155   2.317   2.464  1.6871 -2.9399 -0.9282
  257SOL    HW2  771   1.045   2.276   2.351  2.6846  1.3676 -0.6024
  258SOL     OW  772   1.441   2.099   1.813  0.1227 -0.3953  0.4540
  258SOL    HW1  773   1.372   2.058   1.878  0.5816 -0.7031 -2.0207
  258SOL    HW2  774   1.408   2.086   1.718  2.2520 -1.1680  0.9919
  259SOL     OW  775   0.802   0.944   2.352 -0.5327  0.3357 -0.9003
  259SOL    HW1  776   0.853   0.918   2.268 -0.6618  2.6928  0.4821
  259SOL    HW2  777   0.814   0.872   2.424  1.3986  2.5193 -3.0999
  260SOL     OW  778   2.740   0.532   2.572  0.6673  0.1868  0.5377
  260SOL    HW1  779   2.668   0.520   2.644 -1.1866 -0.5224 -0.7986
  260SOL    HW2  780   2.793   0.449   2.560 -0.1678  0.6202  0.7263
  261SOL     OW  781   0.766   1.195   0.849  0.2748 -0.2748 -0.1954
  261SOL    HW1  782   0.857   1.203   0.898  0.1923  1.4481  2.6896
  261SOL    HW2  783   0.786   1.193   0.748 -1.7682 -1.1626  0.5792
  262SOL     OW  784   2.327   2.059   2.719  0.5874  0.1630 -0.3088
  262SOL    HW1  785   2.288   1.986   2.653 -0.8766 -1.6662 -2.1866
  262SOL    HW2  786   2.359   2.020   2.807 -1.4497 -0.0973  1.5066
  263SOL     OW  787   0.696   2.787   1.044  0.5860  0.3047 -0.2624
  263SOL    HW1  788   0.782   2.843   1.045  1.4157 -0.5222 -0.3638
  263SOL    HW2  789   0.714   2.697   1.083 -0.5706  2.1420 -0.0154
  264SOL     OW  790   2.902   2.177   0.208  0.0623  0.2068  0.2695
  264SOL    HW1  791   2.914   2.152   0.305  1.9176 -1.0123  1.6020
  264SOL    HW2  792   2.888   2.095   0.152  0.3292  0.4680  0.5526
  265SOL     OW  793   2.110   1.101   2.722 -0.2837 -0.0271 -0.3304
  265SOL    HW1  794   2.024   1.151   2.702  1.2320  0.1056 -2.2860
  265SOL    HW2  795   2.190   1.138   2.666  0.1054 -0.7333  0.6304
  266SOL     OW  796   1.266   1.963   2.007 -0.5897 -0.4299  0.3088
  266SOL    HW1  797   1.241   2.001   2.101 -1.1043  1.5510  3.1466
  266SOL    HW2  798   1.193   1.974   1.938  1.7408 -1.4278  0.3565
  267SOL     OW  799   2.435   0.734   2.353  0.2589  0.5408  0.2945
  267SOL    HW1  800   2.456   0.663   2.418 -1.3905  0.6525  0.1166
  267SOL    HW2  801   2.398   0.820   2.385  0.7100 -0.5997 -1.9701
  268SOL     OW  802   0.986   1.165   2.931  0.2823  0.4966 -0.5994
  268SOL    HW1  803   0.908   1.231   2.952 -2.6603 -0.4533 -1.2228
  268SOL    HW2  804   1.071   1.218   2.907  1.8285  1.9411 -2.4015
  269SOL     OW  805   0.004   1.999   1.856 -0.0181  0.2312 -0.1009
  269SOL    HW1  806   0.009   1.956   1.765  1.3626  0.7471 -3.2159
  269SOL    HW2  807   3.007   1.968   1.901 -0.4112  0.2168  1.9441
  270SOL     OW  808   0.162   1.826   0.088 -0.1122  0.6337  0.3288
  270SOL    HW1  809   0.107   1.785   0.169 -1.6020 -1.3999  0.8566
  270SOL    HW2  810   0.139   1.781   3.087 -1.0168  1.9816 -1.8810
  271SOL     OW  811   0.091   0.341   0.411 -0.1348 -0.6366 -0.6201
  271SOL    HW1  812   0.166   0.271   0.435  2.4459 -1.4791  1.9081
  271SOL    HW2  813   0.132   0.434   0.426  0.0663  0.0565  0.4427
  272SOL     OW  814   0.067   2.928   0.520 -0.5616  0.0574  0.0464
  272SOL    HW1  815   0.033   3.003   0.462  0.9737 -0.6380  1.2934
  272SOL    HW2  816   0.025   2.835   0.498  0.5165 -1.0243 -0.0346
  273SOL     OW  817   0.390   2.879   2.145  0.0658 -0.1150  0.1358
  273SOL    HW1  818   0.289   2.890   2.165 -1.1420  0.5739 -0.5945
  273SOL    HW2  819   0.412   2.919   2.053  2.0623  3.2527 -1.4657
  274SOL     OW  820   0.119   0.546   1.209  0.0473  0.5326 -0.1169
  274SOL    HW1  821   0.072   0.490   1.139 -0.1702  0.8650 -0.9825
  274SOL    HW2  822   0.155   0.487   1.282  1.1429 -2.7634 -1.6180
  275SOL     OW  823   1.028   1.772   1.132  0.3084 -0.0038 -0.3971
  275SOL    HW1  824   1.122   1.768   1.169 -0.5021  2.8389 -2.2824
  275SOL    HW2  825   0.999   1.686   1.089 -0.9004  1.1655 -4.4451
  276SOL     OW  826   0.516   1.345   1.942  0.4372 -0.2691 -0.1922
  276SOL    HW1  827   0.476   1.436   1.931 -0.9242  1.4648  0.3115
  276SOL    HW2  828   0.445   1.273   1.956  0.0349  0.8237  0.0745
  277SOL     OW  829   1.059   2.040   1.850  0.0086  0.3059 -0.4557
  277SOL    HW1  830   0.974   2.017   1.889  0.1970  1.7819  0.3830
  277SOL    HW2  831   1.045   2.100   1.769 -1.4968 -0.1325 -0.6982
  278SOL     OW  832   2.194   2.764   2.129  0.2118  0.6939  0.0554
  278SOL    HW1  833   2.168   2.668   2.099 -1.5130 -3.7048  0.9870
  278SOL    HW2  834   2.205   2.771   2.231  1.0772 -0.5073 -0.1000
  279SOL     OW  835   1.686   1.535   2.888  0.1775  0.0084  0.3042
  279SOL    HW1  836   1.745   1.451   2.900 -2.2083 -0.6534  0.0697
  279SOL    HW2  837   1.720   1.622   2.934  1.6841  0.6938  1.7041
  280SOL     OW  838   1.655   0.310   0.451 -0.4628  0.1920  0.3691
  280SOL    HW1  839   1.626   0.279   0.541 -1.6980 -0.6741 -0.5075
  280SOL    HW2  840   1.674   0.409   0.457 -0.9067 -1.0211  1.7633
  281SOL     OW  841   0.476   0.505   1.555 -0.2473 -0.4495 -0.2724
  281SOL    HW1  842   0.373   0.524   1.565  0.0144 -1.8993 -3.3314
  281SOL    HW2  843   0.533   0.591   1.550 -1.8846  3.3522 -1.3618
  282SOL     OW  844   0.169   2.912   0.759  0.2793 -0.2262  0.3476
  282SOL    HW1  845   0.101   2.913   0.678 -2.8423 -0.0247 -1.9787
  282SOL    HW2  846   0.236   2.839   0.757 -0.8495  1.7049  0.9404
  283SOL     OW  847   1.440   2.227   1.360 -0.3495 -0.4519  0.2239
  283SOL    HW1  848   1.429   2.195   1.266  2.7159  3.0689  3.2949
  283SOL    HW2  849   1.420   2.152   1.426  0.6659  1.3498  0.1332
  284SOL     OW  850   2.402   2.708   1.186  0.1083 -0.5078  0.6452
  284SOL    HW1  851   2.501   2.688   1.180 -1.4102  3.4154  0.1776
  284SOL    HW2  852   2.351   2.643   1.125 -1.4158 -1.9392  1.9932
  285SOL     OW  853   0.407   2.057   0.847 -0.0151  0.1653  0.3475
  285SOL    HW1  854   0.413   2.141   0.906 -1.1169  1.5177  0.7274
  285SOL    HW2  855   0.459   2.070   0.758 -0.6178 -0.4808 -1.0708
  286SOL     OW  856   0.136   2.787   1.702 -0.6874  0.0485 -0.1418
  286SOL    HW1  857   0.065   2.806   1.773  1.1790 -1.5968 -0.1201
  286SOL    HW2  858   0.183   2.695   1.721  2.0239  1.3232  0.5317
  287SOL     OW  859   0.531   1.076   0.884 -0.0742 -0.1704 -0.6374
  287SOL    HW1  860   0.620   1.098   0.836  1.8500 -0.1732  2.0028
  287SOL    HW2  861   0.511   0.977   0.863  2.8450  0.0278  0.4199
  288SOL     OW  862   1.352   1.892   2.416 -0.0628 -0.0520 -0.3436
  288SOL    HW1  863   1.407   1.936   2.339  0.6692  0.5674  1.4164
  288SOL    HW2  864   1.341   1.790   2.401 -0.9587  2.3885  0.5791
  289SOL     OW  865   2.506   1.634   2.749 -0.0151  1.1425  0.2509
  289SOL    HW1  866   2.542   1.728   2.742  0.6848  0.2706 -2.3160
  289SOL    HW2  867   2.440   1.602   2.675 -2.3457 -0.8585 -1.7442
  290SOL     OW  868   1.189   1.220   1.135 -0.1957  0.4992 -0.5778
  290SOL    HW1  869   1.200   1.214   1.237  0.2034  2.4948 -2.4542
  290SOL    HW2  870   1.227   1.311   1.108  1.1954  1.0662  0.9489
  291SOL     OW  871   1.242   1.002   3.083 -0.2583  0.3601 -0.0155
  291SOL    HW1  872   1.272   0.907   3.088 -1.7169  1.5646 -0.9647
  291SOL    HW2  873   1.154   1.020   3.033 -1.7718  2.2944  0.8664
  292SOL     OW  874   1.802   1.633   0.137 -0.0343  0.0557  0.3876
  292SOL    HW1  875   1.896   1.606   0.168  0.8416 -1.3018  2.3765
  292SOL    HW2  876   1.740   1.551   0.132  0.8459  0.8446 -1.7367
  293SOL     OW  877   1.654   0.022   1.072  0.3368  0.1491 -0.3667
  293SOL    HW1  878   1.577   0.045   1.136 -2.0764  0.4170  2.1085
  293SOL    HW2  879   1.650   0.081   0.991  0.6068 -1.6671 -2.5131
  294SOL     OW  880   2.212   0.876   0.245 -0.3653  0.3011 -0.3343
  294SOL    HW1  881   2.305   0.849   0.218 -0.3839 -2.5663 -0.1367
  294SOL    HW2  882   2.219   0.948   0.318 -1.3757  0.4340  1.3373
  295SOL     OW  883   1.957   1.999   2.633 -0.2423 -0.1442  0.4575
  295SOL    HW1  884   1.918   1.903   2.650  0.3396 -1.1039  0.0620
  295SOL    HW2  885   1.931   2.042   2.544  1.6578  1.5406  0.2615
  296SOL     OW  886   1.382   1.455   1.386 -0.1960  0.2210  0.1925
  296SOL    HW1  887   1.398   1.468   1.283  1.7397 -2.1691 -0.3356
  296SOL    HW2  888   1.324   1.367   1.399 -1.6756 -1.8152  1.1973
  297SOL     OW  889   0.244   0.852   2.469  0.2796 -0.3047 -1.0898
  297SOL    HW1  890   0.302   0.767   2.485  1.8908 -0.7911 -1.8851
  297SOL    HW2  891   0.294   0.932   2.513  2.6884  0.3235 -0.5091
  298SOL     OW  892   1.685   2.405   1.329  0.8586 -0.0657 -0.1518
  298SOL    HW1  893   1.602   2.345   1.345  0.0059  0.1596 -2.3525
  298SOL    HW2  894   1.713   2.460   1.411 -0.2196  1.7307  0.6463
  299SOL     OW  895   1.097   0.644   2.601  0.0469  0.2927 -0.0219
  299SOL    HW1  896   1.172   0.697   2.647  3.4782  0.7401 -0.1985
  299SOL    HW2  897   1.085   0.561   2.659 -0.2575 -0.6041  2.9653
  300SOL     OW  898   2.327   1.435   0.328 -0.7241 -0.6493 -0.5150
  300SOL    HW1  899   2.424   1.461   0.311  1.2974 -2.3379  1.6702
  300SOL    HW2  900   2.291   1.389   0.246  0.8397 -1.8902  0.7046
  301SOL     OW  901   2.208   0.126   2.646 -0.0987 -0.3475 -0.3494
  301SOL    HW1  902   2.267   0.183   2.709 -1.2709  0.9997 -0.4812
  301SOL    HW2  903   2.128   0.087   2.696  2.4691  1.2556 -0.1166
  302SOL     OW  904   2.725   1.847   2.483  0.0290 -0.0179  0.0695
  302SOL    HW1  905   2.816   1.814   2.469 -2.0922  2.5644  2.7480
  302SOL    HW2  906   2.714   1.935   2.431  3.1537 -0.1236  0.5238
  303SOL     OW  907   0.302   2.542   2.388  0.2649 -0.6028  0.4448
  303SOL    HW1  908   0.380   2.501   2.436 -0.0332  0.4516  2.4699
  303SOL    HW2  909   0.243   2.462   2.362  1.4721  1.7980 -0.6907
  304SOL     OW  910   2.669   1.336   1.251  0.1811 -0.7305 -0.1320
  304SOL    HW1  911   2.670   1.256   1.316  0.3090 -1.9278 -1.4290
  304SOL    HW2  912   2.760   1.359   1.203  4.0012  2.3160 -2.7368
  305SOL     OW  913   0.421   0.241   2.119 -0.6732  0.3352 -0.2477
  305SOL    HW1  914   0.400   0.240   2.021 -3.4637 -5.0861 -1.0127
  305SOL    HW2  915   0.354   0.181   2.170 -1.8285 -2.6843 -0.5260
  306SOL     OW  916   1.294   1.532   0.655  0.0403 -0.2157 -0.5236
  306SOL    HW1  917   1.261   1.446   0.612  2.2875  1.0242 -1.0034
  306SOL    HW2  918   1.365   1.565   0.593  2.0825 -0.0523 -1.6089
  307SOL     OW  919   2.928   0.075   1.070 -0.2626 -0.3302  0.0303
  307SOL    HW1  920   2.899   0.064   0.973 -3.7656  1.6595  0.8364
  307SOL    HW2  921   3.024   0.042   1.080 -1.6937 -0.5848 -0.5244
  308SOL     OW  922   2.931   1.349   2.721  0.1981  0.1235  0.2369
  308SOL    HW1  923   2.844   1.387   2.684 -0.9336 -1.6750  0.5569
  308SOL    HW2  924   2.952   1.256   2.683 -1.0845  0.6032  1.8268
  309SOL     OW  925   0.121   1.980   2.416  0.3670 -0.4163  0.5245
  309SOL    HW1  926   0.133   1.896   2.358  1.3965  0.3203  1.9332
  309SOL    HW2  927   0.042   1.977   2.486 -0.6911 -5.3226  1.8947
  310SOL     OW  928   2.240   0.359   0.143 -0.2917 -0.2120  0.1126
  310SOL    HW1  929   2.237   0.451   0.093 -1.8630  1.2229  2.4177
  310SOL    HW2  930   2.174   0.365   0.219  2.0888  0.1699 -0.0571
  311SOL     OW  931   2.210   1.029   2.964  0.1391 -0.6420 -0.0224
  311SOL    HW1  932   2.160   1.047   2.875  0.1355 -2.5418  0.3373
  311SOL    HW2  933   2.151   0.977   3.032 -0.5593  0.1904 -0.2898
  312SOL     OW  934   1.336   1.500   1.886 -0.1522  0.2887  0.5276
  312SOL    HW1  935   1.379   1.578   1.937 -1.3016 -1.4333  0.4393
  312SOL    HW2  936   1.317   1.423   1.951 -0.3488  1.5034  2.8977
  313SOL     OW  937   0.116   0.680   0.215 -0.0112  0.4066 -0.2346
  313SOL    HW1  938   0.199   0.686   0.154  2.1891 -0.1848  3.1128
  313SOL    HW2  939   0.042   0.627   0.168  6.2030 -2.4665 -2.9515
  314SOL     OW  940   0.250   2.002   1.466 -0.6380  0.2749  0.2774
  314SOL    HW1  941   0.245   2.056   1.551 -2.5880 -0.8717  0.1156
  314SOL    HW2  942   0.232   1.905   1.487 -1.4426  2.3296  0.4398
  315SOL     OW  943   1.089   1.592   1.443 -0.0403 -0.7169  0.4076
  315SOL    HW1  944   1.113   1.556   1.534 -0.1400 -2.5180 -0.6991
  315SOL    HW2  945   1.173   1.630   1.396  0.3071 -0.6096  0.0535
  316SOL     OW  946   0.269   2.243   0.650 -0.0664  0.3729 -0.1400
  316SOL    HW1  947   0.210   2.202   0.577  1.0199  2.5370 -0.0726
  316SOL    HW2  948   0.369   2.218   0.639  0.5631  1.3881  0.2177
  317SOL     OW  949   2.568   0.172   1.259 -0.4646  0.4412 -0.0513
  317SOL    HW1  950   2.617   0.214   1.340 -0.3800  1.6780  2.3481
  317SOL    HW2  951   2.576   0.072   1.250 -1.2256 -0.7749 -0.2486
  318SOL     OW  952   1.188   2.804   0.254  0.5131 -0.0498 -0.3325
  318SOL    HW1  953   1.148   2.730   0.196  2.0513  1.1263  0.8124
  318SOL    HW2  954   1.226   2.876   0.189 -0.2194  0.1972 -3.0835
  319SOL     OW  955   1.646   0.174   2.642 -0.1618 -0.2495 -0.1011
  319SOL    HW1  956   1.647   0.259   2.589  1.1901  1.4585  1.3552
  319SOL    HW2  957   1.583   0.102   2.603 -0.2947  0.0342  1.5106
  320SOL     OW  958   2.741   2.034   1.710 -0.1590  0.1314 -0.2488
  320SOL    HW1  959   2.779   1.960   1.770  1.6764 -1.1100 -1.4768
  320SOL    HW2  960   2.746   1.998   1.614 -0.8341  1.0911 -1.5247
  321SOL     OW  961   0.193   2.533   3.011 -0.1790  0.3551 -0.1810
  321SOL    HW1  962   0.178   2.544   0.020  0.6845  1.0090 -0.4544
  321SOL    HW2  963   0.241   2.443   2.992  0.2846  0.6319 -2.9520
  322SOL     OW  964   2.520   0.627   2.110 -0.4433 -0.7349 -0.0758
  322SOL    HW1  965   2.494   0.666   2.201  1.4278 -1.3544 -3.3842
  322SOL    HW2  966   2.460   0.553   2.086 -1.6635  0.3352 -1.6143
  323SOL     OW  967   1.959   1.366   0.295 -0.2333 -0.5594 -0.8436
  323SOL    HW1  968   1.905   1.304   0.235  1.7606  0.6361 -2.5866
  323SOL    HW2  969   1.947   1.322   0.388  0.9024  0.3155  0.5137
  324SOL     OW  970   0.100   0.274   1.495  0.2288  0.1213 -0.0688
  324SOL    HW1  971   0.100   0.221   1.579 -0.6549  0.9723  0.6088
  324SOL    HW2  972   0.118   0.216   1.414 -1.7106  2.7173  0.0625
  325SOL     OW  973   2.722   3.054   1.478  0.0141  0.4537 -0.1069
  325SOL    HW1  974   2.743   3.022   1.387  1.6299 -1.8382  0.8995
  325SOL    HW2  975   2.758   0.059   1.489 -1.0581 -1.7517 -0.0663
  326SOL     OW  976   1.554   2.531   0.407 -0.1924  0.8755  0.8800
  326SOL    HW1  977   1.453   2.506   0.406 -3.1609 -0.1920 -1.9615
  326SOL    HW2  978   1.587   2.505   0.499  1.0545 -0.1542  0.3313
  327SOL     OW  979   1.944   2.278   0.301  0.5949  0.3243 -0.0343
  327SOL    HW1  980   1.883   2.213   0.345 -0.7991  1.9002 -3.2640
  327SOL    HW2  981   1.980   2.241   0.212 -0.6014  1.3584  0.4700
  328SOL     OW  982   2.839   2.264   1.834  0.0038 -0.2324 -0.2573
  328SOL    HW1  983   2.824   2.168   1.798 -1.9659 -3.0725 -3.8046
  328SOL    HW2  984   2.813   2.278   1.928 -3.4439  1.3338  0.9855
  329SOL     OW  985   0.183   2.361   1.189  0.3826  1.0855 -0.1463
  329SOL    HW1  986   0.124   2.386   1.271  0.7421 -1.3558  1.4426
  329SOL    HW2  987   0.168   2.264   1.161  3.2349 -0.5480 -0.1078
  330SOL     OW  988   2.284   0.965   2.432  0.6738  0.1776 -0.7678
  330SOL    HW1  989   2.193   0.924   2.432  0.4841 -0.3636 -0.7003
  330SOL    HW2  990   2.282   1.066   2.437 -1.0494 -0.2016 -1.2646
  331SOL     OW  991   2.381   1.356   0.586 -0.2518 -0.5338 -0.2439
  331SOL    HW1  992   2.342   1.381   0.496  0.3369  2.3737 -1.6530
  331SOL    HW2  993   2.470   1.412   0.598  0.1302  1.3444  0.7237
  332SOL     OW  994   0.199   2.925   1.276 -0.1253 -0.4127 -0.3488
  332SOL    HW1  995   0.193   2.925   1.171  0.6185 -1.3722  0.1794
  332SOL    HW2  996   0.293   2.944   1.308 -1.1462  0.3771 -2.4082
  333SOL     OW  997   0.128   1.620   2.062 -0.0019 -0.0472 -0.1889
  333SOL    HW1  998   0.195   1.663   1.999  2.3172  0.5354 -1.9707
  333SOL    HW2  999   0.112   1.521   2.048  1.6062 -0.4920  2.0623
  334SOL     OW 1000   0.150   0.798   1.242  0.1190  0.2195 -0.2052
  334SOL    HW1 1001   0.052   0.819   1.220  0.4893 -1.1963  2.8674
  334SOL    HW2 1002   0.149   0.698   1.278  0.7599 -2.1033 -1.0394
  335SOL     OW 1003   3.040   1.578   1.850 -0.4211  0.7188 -0.3742
  335SOL    HW1 1004   3.070   1.608   1.940  0.9308 -0.7359  0.9350
  335SOL    HW2 1005   2.940   1.599   1.832 -3.8678  1.0113  1.9723
  336SOL     OW 1006   1.997   2.780   2.494  0.2970 -1.0838  0.2204
  336SOL    HW1 1007   1.970   2.682   2.484  0.5783  2.1840 -1.0735
  336SOL    HW2 1008   1.976   2.817   2.585  0.6808 -0.5232 -2.0332
  337SOL     OW 1009   0.799   0.709   1.197  0.0958 -0.2282 -0.0627
  337SOL    HW1 1010   0.708   0.720   1.235  1.3496  0.2098 -1.4897
  337SOL    HW2 1011   0.797   0.724   1.098  1.2755 -2.1436 -0.8613
  338SOL     OW 1012   1.437   2.386   1.014 -0.0148  0.0680  0.5481
  338SOL    HW1 1013   1.486   2.450   1.075 -1.7311 -2.2148 -1.4768
  338SOL    HW2 1014   1.423   2.304   1.073 -0.3395  0.5132  0.0675
  339SOL     OW 1015   0.137   2.049   1.235 -0.4011 -0.2474  0.2842
  339SOL    HW1 1016   0.172   2.043   1.330  1.5030 -1.9866  1.4091
  339SOL    HW2 1017   0.034   2.042   1.235  1.1821 -1.2711  1.2277
  340SOL     OW 1018   0.625   0.061   2.147  0.3181 -0.0739 -0.3772
  340SOL    HW1 1019   0.619   3.059   2.181  1.0933  1.8755 -0.8059
  340SOL    HW2 1020   0.531   0.101   2.133 -0.3942  4.1283 -2.5394
  341SOL     OW 1021   1.907   1.554   0.535 -0.2862  0.3809  0.0586
  341SOL    HW1 1022   1.999   1.582   0.505 -1.0148  0.4014  1.6581
  341SOL    HW2 1023   1.907   1.463   0.578 -1.0609  0.1549 -2.5217
  342SOL     OW 1024   1.682   1.488   0.398 -0.2626  0.2099 -0.0462
  342SOL    HW1 1025   1.668   1.461   0.300 -2.5214  0.5405  0.3301
  342SOL    HW2 1026   1.775   1.525   0.421  1.3858  0.5061  2.7823
  343SOL     OW 1027   2.011   0.217   1.213  0.7425  0.0920 -0.5307
  343SOL    HW1 1028   2.071   0.136   1.225 -1.4720 -1.6275  1.1687
  343SOL    HW2 1029   1.918   0.199   1.254 -0.0811 -1.0808  0.5036
  344SOL     OW 1030   2.812   0.198   2.869 -0.3240  0.1628 -0.0797
  344SOL    HW1 1031   2.850   0.140   2.945 -1.7814 -1.1150  0.8814
  344SOL    HW2 1032   2.793   0.138   2.790  0.6476 -0.6464  0.7811
  345SOL     OW 1033   1.408   2.782   1.362  0.4234  0.1417  0.2943
  345SOL    HW1 1034   1.488   2.817   1.415 -0.6089 -0.8389 -1.0694
  345SOL    HW2 1035   1.337   2.740   1.419  1.9743 -0.6622 -0.3304
  346SOL     OW 1036   2.217   2.287   1.416 -0.1404 -0.2770 -0.2453
  346SOL    HW1 1037   2.140   2.222   1.387 -2.7902 -1.7959 -1.4341
  346SOL    HW2 1038   2.249   2.271   1.513 -3.3181  1.2517  3.0712
  347SOL     OW 1039   2.125   2.908   0.978  1.0815 -0.2120  0.4004
  347SOL    HW1 1040   2.044   2.913   0.917 -1.3297 -0.3628  3.5216
  347SOL    HW2 1041   2.156   3.003   0.981 -0.7408  0.7401  1.1046
  348SOL     OW 1042   0.745   1.051   1.429 -0.2180  0.1078 -0.4422
  348SOL    HW1 1043   0.756   1.080   1.333  1.5090  1.3654  1.9453
  348SOL    HW2 1044   0.689   0.964   1.439 -2.4006 -1.3330 -0.2627
  349SOL     OW 1045   2.261   0.182   3.031  0.1193 -0.8597  0.1141
  349SOL    HW1 1046   2.265   0.258   0.012 -1.1890 -2.2111 -0.6811
  349SOL    HW2 1047   2.343   0.172   2.966 -1.5530 -0.8924  2.5105
  350SOL     OW 1048   2.419   1.997   3.009  0.5337 -0.3337 -0.0440
  350SOL    HW1 1049   2.483   1.966   3.086  1.4279  0.0594 -2.6883
  350SOL    HW2 1050   2.373   2.084   3.036 -1.1295  0.3757 -1.2650
  351SOL     OW 1051   1.270   0.427   0.641 -0.6324 -0.1789 -0.2818
  351SOL    HW1 1052   1.207   0.345   0.643 -2.8968 -1.3812 -0.5918
  351SOL    HW2 1053   1.304   0.436   0.546  1.7252  0.7677  0.4113
  352SOL     OW 1054   1.870   2.146   2.407  0.4139  0.0028  0.0823
  352SOL    HW1 1055   1.783   2.188   2.441  1.6360  1.5612  1.2064
  352SOL    HW2 1056   1.913   2.200   2.334 -1.5757 -3.2232  0.9627
  353SOL     OW 1057   0.386   0.653   0.096 -0.4582  0.1376 -0.5643
  353SOL    HW1 1058   0.345   0.574   0.047 -0.9026  3.5807  0.2785
  353SOL    HW2 1059   0.437   0.708   0.027  0.4567 -0.5824  2.9357
  354SOL     OW 1060   1.146   2.075   0.030 -0.1934 -0.0172 -0.0557
  354SOL    HW1 1061   1.089   1.999   3.078 -0.1694 -1.6971  1.0514
  354SOL    HW2 1062   1.145   2.072   0.132  1.2534  1.5048 -1.3845
  355SOL     OW 1063   2.607   2.645   1.715  0.4276  0.3899  0.1153
  355SOL    HW1 1064   2.670   2.723   1.747  0.1284  3.9320  1.9981
  355SOL    HW2 1065   2.518   2.684   1.685 -2.5050 -0.8331 -2.3562
  356SOL     OW 1066   2.667   1.104   0.741  0.3169 -0.5338 -0.7577
  356SOL    HW1 1067   2.695   1.015   0.707  1.2364  0.0324  0.2804
  356SOL    HW2 1068   2.600   1.099   0.817 -0.6340  3.0523  2.4832
  357SOL     OW 1069   2.791   0.305   1.121 -0.3156 -0.0188 -0.5369
  357SOL    HW1 1070   2.702   0.256   1.144 -2.3200 -0.5012 -0.2905
  357SOL    HW2 1071   2.863   0.237   1.094 -1.5015  0.0737  2.9343
  358SOL     OW 1072   0.991   2.439   1.141 -0.2979 -1.1373  0.0818
  358SOL    HW1 1073   0.896   2.397   1.122  0.6380 -2.6340 -2.5778
  358SOL    HW2 1074   1.018   2.497   1.058 -0.8146  1.7819 -0.3441
  359SOL     OW 1075   0.140   2.562   2.744 -0.2016  0.2771  0.4452
  359SOL    HW1 1076   0.138   2.577   2.846 -1.1581  0.6931  1.3880
  359SOL    HW2 1077   0.148   2.651   2.695 -0.2973 -1.4223 -0.5617
  360SOL     OW 1078   0.867   1.068   1.863  0.1550  0.0475  0.3605
  360SOL    HW1 1079   0.889   1.070   1.765 -2.9815  3.4619 -0.1687
  360SOL    HW2 1080   0.777   1.028   1.870  3.1055 -1.7777  1.0448
  361SOL     OW 1081   2.269   0.098   0.636  0.5578 -0.1078 -0.3159
  361SOL    HW1 1082   2.316   0.116   0.725  0.4856 -0.5758  1.3278
  361SOL    HW2 1083   2.344   0.066   0.574  1.0483 -2.0152  0.1689
  362SOL     OW 1084   0.177   2.992   1.015  0.2460  0.2085  0.0018
  362SOL    HW1 1085   0.149   2.968   0.916  1.4877 -0.0363 -1.9752
  362SOL    HW2 1086   0.224   3.081   1.008 -1.4422 -1.0779  1.9905
  363SOL     OW 1087   0.826   1.158   0.583 -0.7068 -0.7820 -0.0173
  363SOL    HW1 1088   0.777   1.081   0.548  1.5085  1.6385  2.0591
  363SOL    HW2 1089   0.871   1.204   0.498  3.6735  0.9836 -0.9726
  364SOL     OW 1090   0.574   1.284   1.689  0.4685 -0.2078 -0.0038
  364SOL    HW1 1091   0.607   1.184   1.680  0.0635 -1.4826 -0.0628
  364SOL    HW2 1092   0.553   1.304   1.789  0.4766 -1.5745 -0.8446
  365SOL     OW 1093   2.774   1.143   0.184  0.2179  0.2031 -0.3583
  365SOL    HW1 1094   2.700   1.148   0.257 -1.7824  0.7674  1.5150
  365SOL    HW2 1095   2.751   1.203   0.107  0.7578 -3.1798  2.0084
  366SOL     OW 1096   2.635   1.773   1.146  0.2936  0.0516  0.1108
  366SOL    HW1 1097   2.588   1.702   1.094 -1.3079 -1.0027  0.9237
  366SOL    HW2 1098   2.686   1.736   1.228 -1.8927 -0.0779 -2.8054
  367SOL     OW 1099   2.242   2.103   1.961 -0.0448 -0.3017 -0.0595
  367SOL    HW1 1100   2.144   2.117   1.943 -0.4552 -0.1036 -3.5737
  367SOL    HW2 1101   2.296   2.087   1.872  1.6392  2.5269 -3.7671
  368SOL     OW 1102   2.771   1.419   0.873  0.0057  0.1170  0.1023
  368SOL    HW1 1103   2.828   1.415   0.787 -0.9461  0.9253 -0.8164
  368SOL    HW2 1104   2.814   1.368   0.948  0.4339  1.2380 -1.3675
  369SOL     OW 1105   2.355   2.437   0.179  0.2584  0.0108 -0.4031
  369SOL    HW1 1106   2.325   2.377   0.259 -1.3974  1.4027 -0.1281
  369SOL    HW2 1107   2.351   2.533   0.206 -0.4255 -0.6919 -1.3198
  370SOL     OW 1108   3.041   0.003   1.405 -0.0519 -0.0331  0.6126
  370SOL    HW1 1109   0.035   3.044   1.372  0.9433  0.7093  0.6187
  370SOL    HW2 1110   3.032   0.094   1.359 -0.2466 -1.8729 -0.5446
  371SOL     OW 1111   0.751   1.654   2.962 -0.2010  0.8013 -0.2812
  371SOL    HW1 1112   0.802   1.665   2.872  0.0177  1.1102 -0.0999
  371SOL    HW2 1113   0.707   1.741   2.992 -2.2443 -1.8982 -3.3870
  372SOL     OW 1114   0.893   0.948   0.245  0.0547 -0.1324 -0.0261
  372SOL    HW1 1115   0.801   0.985   0.275 -0.1365 -0.9348 -0.7331
  372SOL    HW2 1116   0.899   0.957   0.144 -1.4418  1.2051  1.8214
  373SOL     OW 1117   1.558   2.515   2.812  0.2562 -0.0933  0.3794
  373SOL    HW1 1118   1.622   2.592   2.827  0.2286 -0.5047 -2.0088
  373SOL    HW2 1119   1.455   2.542   2.813 -3.2471  1.3654  0.5306
  374SOL     OW 1120   0.163   2.073   0.224  0.1635  0.6449  0.2998
  374SOL    HW1 1121   0.241   2.121   0.181  0.5781  0.5062  1.7108
  374SOL    HW2 1122   0.103   2.012   0.164 -0.8017 -1.5827 -0.0668
  375SOL     OW 1123   0.770   1.462   1.684  0.0311  0.2021 -0.1667
  375SOL    HW1 1124   0.682   1.410   1.681 -3.7552 -2.7288 -0.3193
  375SOL    HW2 1125   0.851   1.408   1.705 -1.1396  0.9752 -2.8403
  376SOL     OW 1126   0.646   2.492   1.915  0.0129  0.9428 -0.8052
  376SOL    HW1 1127   0.642   2.548   1.832  3.6989  1.7833 -0.8916
  376SOL    HW2 1128   0.563   2.431   1.929 -0.7868  2.0814 -1.2355
  377SOL     OW 1129   2.699   1.454   2.201 -0.1186  0.4803 -0.0842
  377SOL    HW1 1130   2.664   1.549   2.179  2.3350  0.5184 -2.2920
  377SOL    HW2 1131   2.767   1.454   2.276 -0.7458 -1.2935 -1.4053
  378SOL     OW 1132   1.038   2.995   3.039  0.1067 -0.6979 -0.3298
  378SOL    HW1 1133   0.997   2.914   3.081 -1.6242 -2.5209 -0.3462
  378SOL    HW2 1134   1.114   3.025   0.010 -1.0135 -1.6004 -3.0174
  379SOL     OW 1135   1.944   0.404   0.775 -0.1218  1.0101  0.3719
  379SOL    HW1 1136   1.968   0.337   0.698 -1.6720  1.5476 -3.3293
  379SOL    HW2 1137   1.925   0.356   0.865 -0.0098 -2.0861  1.0376
  380SOL     OW 1138   2.982   2.101   1.400 -0.5178  0.3072  0.2722
  380SOL    HW1 1139   2.909   2.030   1.392 -0.5816  0.2284  2.9127
  380SOL    HW2 1140   2.955   2.179   1.346 -1.8302 -1.0573 -0.7484
  381SOL     OW 1141   1.833   1.841   1.761  0.1621  0.1332 -0.6693
  381SOL    HW1 1142   1.805   1.922   1.702  0.8334 -0.7946 -0.2055
  381SOL    HW2 1143   1.928   1.814   1.743 -2.3406 -2.4293 -0.0427
  382SOL     OW 1144   2.937   0.426   2.804 -0.4515 -0.0282  0.2875
  382SOL    HW1 1145   2.974   0.403   2.715 -0.5587  1.7427  2.3726
  382SOL    HW2 1146   2.903   0.342   2.851 -1.8817 -0.1470 -3.2120
  383SOL     OW 1147   1.653   1.517   2.622  0.5847 -0.3770  0.1140
  383SOL    HW1 1148   1.614   1.424   2.596 -3.1186  1.1090 -0.2440
  383SOL    HW2 1149   1.659   1.529   2.726  0.1140 -0.5305  3.2374
  384SOL     OW 1150   1.118   2.194   1.115 -0.5424  0.0926 -0.3018
  384SOL    HW1 1151   1.087   2.291   1.133 -0.3904  0.1180 -0.4764
  384SOL    HW2 1152   1.072   2.127   1.178 -1.9315  2.0859 -0.4190
  385SOL     OW 1153   1.841   2.370   0.687  0.1917 -0.1076  0.0183
  385SOL    HW1 1154   1.748   2.408   0.668  0.0841 -1.4125 -2.9863
  385SOL    HW2 1155   1.907   2.398   0.611  2.8243  0.3907  0.3579
  386SOL     OW 1156   2.102   1.903   0.841  0.1206  0.5885  0.1638
  386SOL    HW1 1157   2.072   1.977   0.773 -0.7934  0.3150  0.2461
  386SOL    HW2 1158   2.140   1.947   0.927  2.0499 -0.7990  1.9419
  387SOL     OW 1159   0.315   2.357   1.499 -0.0380  0.6531  0.6555
  387SOL    HW1 1160   0.228   2.337   1.448  2.5313 -1.9408  0.9496
  387SOL    HW2 1161   0.323   2.291   1.578  0.7413  2.1756  1.1941
  388SOL     OW 1162   2.917   0.534   1.771 -0.0074  0.3031  0.6409
  388SOL    HW1 1163   2.843   0.582   1.825  1.3748  1.8189  1.2674
  388SOL    HW2 1164   2.935   0.446   1.817  1.3512  1.2182 -0.5908
  389SOL     OW 1165   1.886   1.304   0.606 -0.1710  0.0922 -0.1442
  389SOL    HW1 1166   1.873   1.320   0.709  2.3162  0.9571  0.4431
  389SOL    HW2 1167   1.794   1.303   0.563  3.5835  0.0415  0.5931
  390SOL     OW 1168   1.013   2.177   2.741  0.4588 -0.2915 -0.2216
  390SOL    HW1 1169   1.035   2.272   2.774  0.1283 -0.9617 -0.6343
  390SOL    HW2 1170   1.099   2.126   2.715 -0.4394 -1.1804 -0.2490
  391SOL     OW 1171   0.790   2.125   2.968  0.6081 -0.3571 -0.9311
  391SOL    HW1 1172   0.721   2.050   2.959  2.5918 -1.8107 -0.4495
  391SOL    HW2 1173   0.823   2.155   2.878  1.8402 -1.0664  2.8870
  392SOL     OW 1174   3.044   2.847   1.894 -0.1898  0.3131  0.2655
  392SOL    HW1 1175   2.961   2.861   1.835 -0.8157 -2.1182  2.0508
  392SOL    HW2 1176   3.047   2.921   1.963 -0.4129  0.3150 -2.2123
  393SOL     OW 1177   1.932   2.486   0.129  0.7975 -0.2417 -0.7714
  393SOL    HW1 1178   1.948   2.428   0.213 -1.5460  2.6858 -0.6048
  393SOL    HW2 1179   1.965   2.580   0.146 -0.8758 -0.4440 -1.9714
  394SOL     OW 1180   0.737   0.504   2.168 -0.5116  0.2279 -0.0834
  394SOL    HW1 1181   0.644   0.466   2.193  0.7717 -1.2430  3.3596
  394SOL    HW2 1182   0.799   0.438   2.122 -0.4500 -1.1642 -1.5464
  395SOL     OW 1183   0.334   1.115   1.221 -0.2344 -0.0991 -0.0925
  395SOL    HW1 1184   0.296   1.085   1.308  1.1264 -0.2670 -1.8090
  395SOL    HW2 1185   0.437   1.121   1.233 -0.4109  0.1796  1.9278
  396SOL     OW 1186   1.652   1.634   2.114  0.0940 -0.0334 -0.4109
  396SOL    HW1 1187   1.681   1.549   2.064 -1.4314  0.8882 -1.2717
  396SOL    HW2 1188   1.642   1.617   2.216 -0.4736 -1.5220  0.2910
  397SOL     OW 1189   0.805   0.603   2.990  0.5179  0.6213  0.3587
  397SOL    HW1 1190   0.812   0.634   0.001  0.9491 -1.2929  2.8984
  397SOL    HW2 1191   0.746   0.522   2.979  0.5400 -2.5865  1.2151
  398SOL     OW 1192   0.498   1.769   2.538 -0.0511 -0.8534  0.4917
  398SOL    HW1 1193   0.544   1.837   2.599 -0.4523 -2.4882  0.7011
  398SOL    HW2 1194   0.536   1.781   2.443 -1.1423  0.0458 -0.7584
  399SOL     OW 1195   2.832   1.835   2.198 -0.4372  0.3347 -0.1773
  399SOL    HW1 1196   2.896   1.913   2.222 -0.5187 -0.5782 -1.6317
  399SOL    HW2 1197   2.852   1.751   2.251  0.8452 -0.4436 -0.1611
  400SOL     OW 1198   2.361   0.918   1.803  0.2398 -0.4295 -0.2147
  400SOL    HW1 1199   2.368   0.980   1.720 -0.1149  0.7637 -0.2013
  400SOL    HW2 1200   2.352   0.824   1.768  0.6476 -0.7571  0.1128
  401SOL     OW 1201   1.099   1.675   0.731  0.4387 -0.0996  0.1255
  401SOL    HW1 1202   1.052   1.649   0.817 -1.2933 -0.0708 -0.6210
  401SOL    HW2 1203   1.192   1.635   0.732  0.1642  0.5470 -0.7904
  402SOL     OW 1204   0.023   2.599   2.074  0.0420 -0.2643  0.3427
  402SOL    HW1 1205   0.000   2.640   1.985  1.0922  1.6974 -1.4632
  402SOL    HW2 1206   0.126   2.607   2.083  0.7735  0.5921  1.7455
  403SOL     OW 1207   0.452   1.513   2.198 -0.1459 -0.1285  0.3974
  403SOL    HW1 1208   0.400   1.561   2.271 -0.5793 -1.7655 -2.5758
  403SOL    HW2 1209   0.445   1.413   2.210  0.6359  4.2024  0.9462
  404SOL     OW 1210   1.774   2.050   1.624  0.0370 -0.0549 -0.2357
  404SOL    HW1 1211   1.715   2.122   1.663  0.5716 -0.8540 -0.5713
  404SOL    HW2 1212   1.759   2.037   1.527 -0.2269  2.7457  0.7849
  405SOL     OW 1213   2.931   2.723   2.899  0.4506 -0.5185  0.4545
  405SOL    HW1 1214   2.933   2.659   2.982  0.4447 -2.0357 -3.7002
  405SOL    HW2 1215   2.917   2.661   2.816 -0.4532 -0.6067  0.8174
  406SOL     OW 1216   0.633   1.078   0.002  0.2908  0.2093 -0.1151
  406SOL    HW1 1217   0.663   0.991   3.050  1.3421  2.5943  0.9134
  406SOL    HW2 1218   0.711   1.122   0.051  1.5631 -2.1755 -0.4359
  407SOL     OW 1219   2.022   2.369   2.749  0.2384  0.0890 -0.1131
  407SOL    HW1 1220   2.054   2.275   2.761 -0.3418 -0.3232 -0.7205
  407SOL    HW2 1221   2.091   2.418   2.698 -1.4788 -0.8705 -0.8466
  408SOL     OW 1222   2.809   2.918   0.194 -0.7638 -0.5753  0.5565
  408SOL    HW1 1223   2.800   2.819   0.217 -1.4653 -3.4896 -1.5793
  408SOL    HW2 1224   2.885   2.962   0.246  0.7800  1.6422  0.3867
  409SOL     OW 1225   2.300   1.458   0.894 -0.3642 -0.1414 -0.0393
  409SOL    HW1 1226   2.287   1.534   0.833  1.0251 -2.2473  1.3497
  409SOL    HW2 1227   2.260   1.372   0.851 -2.6503  0.8463 -1.0432
  410SOL     OW 1228   2.730   1.971   0.513 -0.3639 -0.0604 -0.0882
  410SOL    HW1 1229   2.638   2.003   0.521  4.0732  0.2014 -1.2474
  410SOL    HW2 1230   2.798   2.048   0.510  1.0763  0.0991 -1.8553
  411SOL     OW 1231   0.223   1.420   0.767  0.3344  0.1655  0.5133
  411SOL    HW1 1232   0.236   1.519   0.781  1.5384 -0.2999 -1.7391
  411SOL    HW2 1233   0.258   1.364   0.846 -2.1381 -4.0499 -2.4767
  412SOL     OW 1234   2.253   2.194   0.294  0.2394  0.1738 -0.2094
  412SOL    HW1 1235   2.338   2.155   0.250 -0.9900 -1.5281  1.5843
  412SOL    HW2 1236   2.231   2.152   0.388 -0.7195 -1.0517  3.5012
  413SOL     OW 1237   1.802   0.935   2.219 -0.0292  0.6198 -0.4380
  413SOL    HW1 1238   1.700   0.908   2.222 -2.7021 -0.9692 -0.9495
  413SOL    HW2 1239   1.849   0.892   2.142  0.7174  1.4897  1.8852
  414SOL     OW 1240   2.759   0.038   0.425 -0.2102 -0.4175  1.0210
  414SOL    HW1 1241   2.669   0.067   0.465  0.6690  1.9750  0.7807
  414SOL    HW2 1242   2.799   3.051   0.479 -4.5154 -2.1389  1.6419
  415SOL     OW 1243   0.924   2.072   1.320 -0.3353 -0.0641 -0.3535
  415SOL    HW1 1244   0.876   2.041   1.238 -0.5822 -1.2425 -2.1690
  415SOL    HW2 1245   0.956   1.988   1.373  2.1400 -3.3388 -0.2914
  416SOL     OW 1246   0.468   2.782   2.796  0.1711  0.1454  0.1604
  416SOL    HW1 1247   0.451   2.687   2.766  0.2251  1.9349 -0.3695
  416SOL    HW2 1248   0.568   2.790   2.814  0.0059 -0.2722  1.2467
  417SOL     OW 1249   2.599   0.468   1.017  0.9333  0.3332  0.3745
  417SOL    HW1 1250   2.617   0.507   0.924 -0.6738  2.4004 -1.9860
  417SOL    HW2 1251   2.671   0.405   1.047  2.2921 -2.0976  0.3249
  418SOL     OW 1252   0.032   0.556   2.963 -0.1824 -0.7156  0.2335
  418SOL    HW1 1253   0.014   0.653   2.978  1.0031 -2.4606  0.2147
  418SOL    HW2 1254   3.046   0.510   2.914  1.9272 -0.5495  0.2797
  419SOL     OW 1255   0.073   1.246   1.750 -0.6146  0.0706  0.3087
  419SOL    HW1 1256   0.006   1.188   1.704  2.7938 -2.1031  0.4748
  419SOL    HW2 1257   0.156   1.258   1.696  1.0260 -0.3963  2.0086
  420SOL     OW 1258   0.669   1.593   0.589  0.4113 -0.7709  0.3964
  420SOL    HW1 1259   0.611   1.657   0.540  1.7335  1.1563  0.1778
  420SOL    HW2 1260   0.765   1.583   0.556  0.5573  0.8574  1.6281
  421SOL     OW 1261   2.360   2.252   2.523 -0.0182  0.5354  0.0243
  421SOL    HW1 1262   2.360   2.204   2.615  0.3595  0.2178 -0.8771
  421SOL    HW2 1263   2.455   2.281   2.493 -1.0005 -1.9023 -0.6979
  422SOL     OW 1264   2.846   0.716   2.820 -0.9487  0.2632 -0.4011
  422SOL    HW1 1265   2.892   0.743   2.734 -1.3610  1.2810  4.0700
  422SOL    HW2 1266   2.837   0.616   2.826  0.6138  1.3772  0.0512
  423SOL     OW 1267   1.394   2.267   0.775  0.3260 -0.1354 -1.2593
  423SOL    HW1 1268   1.425   2.294   0.872 -1.3044  1.0750  1.7242
  423SOL    HW2 1269   1.294   2.247   0.779 -0.5197  0.1690  0.6605
  424SOL     OW 1270   0.561   2.058   1.585 -0.4076  0.3575 -0.6898
  424SOL    HW1 1271   0.557   2.139   1.526 -1.2945 -2.4811  1.1772
  424SOL    HW2 1272   0.539   1.973   1.533 -0.7602 -0.2163  1.2443
  425SOL     OW 1273   3.075   2.854   2.410  0.2352  0.2586  0.3930
  425SOL    HW1 1274   3.045   2.756   2.417 -2.4358 -1.5599  1.3641
  425SOL    HW2 1275   3.003   2.925   2.439 -2.5783  1.7328 -0.5122
  426SOL     OW 1276   1.684   0.780   0.643  0.5955 -0.1150 -0.0017
  426SOL    HW1 1277   1.704   0.706   0.708 -0.9908  2.6213 -0.9707
  426SOL    HW2 1278   1.662   0.862   0.694 -0.0495 -1.6588 -0.6207
  427SOL     OW 1279   0.399   1.196   0.065  0.3357  0.3664  0.6800
  427SOL    HW1 1280   0.345   1.138   0.135 -2.2456 -0.8430 -1.0582
  427SOL    HW2 1281   0.490   1.155   0.041 -1.4350 -1.9960 -2.3303
  428SOL     OW 1282   1.332   1.238   0.100 -0.4046  0.0356  0.8631
  428SOL    HW1 1283   1.315   1.147   0.066  0.8970 -0.4315  0.7590
  428SOL    HW2 1284   1.346   1.302   0.021  0.6459  0.2099  1.9442
  429SOL     OW 1285   2.946   2.527   0.721  0.0901  0.0123  0.0320
  429SOL    HW1 1286   2.920   2.611   0.775  2.6867 -0.7685  2.0636
  429SOL    HW2 1287   3.020   2.550   0.657 -2.0137  2.0071 -0.7520
  430SOL     OW 1288   0.818   2.505   2.675  0.0609 -0.1952  0.8879
  430SOL    HW1 1289   0.753   2.505   2.753  1.8690  0.0806 -1.5003
  430SOL    HW2 1290   0.774   2.452   2.602 -0.5797  0.0625  0.7372
  431SOL     OW 1291   2.819   1.264   0.545 -0.8184  0.2416 -0.6566
  431SOL    HW1 1292   2.766   1.225   0.624  2.4400  1.1433  0.2090
  431SOL    HW2 1293   2.920   1.250   0.556  0.4998  1.7493 -0.4560
  432SOL     OW 1294   2.201   2.482   2.076  0.0615 -0.1638 -0.0476
  432SOL    HW1 1295   2.256   2.457   1.997  1.9465  1.2836  1.2898
  432SOL    HW2 1296   2.222   2.423   2.157 -0.0191 -1.5575 -1.0090
  433SOL     OW 1297   1.322   2.585   0.877  0.6957  0.4990 -0.8308
  433SOL    HW1 1298   1.366   2.506   0.920  1.5865 -0.3438 -1.1564
  433SOL    HW2 1299   1.393   2.644   0.830  0.6854 -0.8251 -0.1051
  434SOL     OW 1300   0.779   2.098   1.977 -0.4953 -0.2443 -0.4083
  434SOL    HW1 1301   0.839   2.177   2.001 -0.0496  2.4153  0.1773
  434SOL    HW2 1302   0.681   2.114   1.989 -1.9036 -0.2977  1.5377
  435SOL     OW 1303   2.952   1.066   3.047 -0.1344  0.0568  0.7000
  435SOL    HW1 1304   2.950   1.119   0.042 -2.3379 -0.8747 -1.3797
  435SOL    HW2 1305   2.958   0.973   3.082  1.7787  3.0997  1.2179
  436SOL     OW 1306   0.286   2.602   2.127 -0.1002  0.0056 -0.1905
  436SOL    HW1 1307   0.341   2.679   2.086  1.0987 -1.4611  0.0890
  436SOL    HW2 1308   0.309   2.593   2.231  2.6239  0.7759  3.7819
  437SOL     OW 1309   1.864   2.759   1.635 -0.0261 -0.0259 -0.1749
  437SOL    HW1 1310   1.945   2.821   1.615  1.0916  2.2932 -0.8816
  437SOL    HW2 1311   1.820   2.785   1.725 -1.3409  1.6156 -0.1096
  438SOL     OW 1312   0.140   1.785   0.633  0.0005 -0.2226 -0.2861
  438SOL    HW1 1313   0.050   1.799   0.681 -2.0661 -0.6360  3.4635
  438SOL    HW2 1314   0.213   1.760   0.703 -0.7247  1.7984  0.0251
  439SOL     OW 1315   0.198   0.360   0.806 -0.0684  0.2379  0.0486
  439SOL    HW1 1316   0.274   0.425   0.790  0.8612  1.4396  0.5859
  439SOL    HW2 1317   0.230   0.271   0.840 -1.2337 -0.1907  0.4836
  440SOL     OW 1318   0.208   2.735   2.558 -0.1051  0.6833 -0.6899
  440SOL    HW1 1319   0.239   2.657   2.505 -3.6221  0.8181 -0.0293
  440SOL    HW2 1320   0.143   2.793   2.503 -0.0976 -0.9188 -1.1603
  441SOL     OW 1321   0.025   0.891   0.519  0.5217 -0.2919  0.0620
  441SOL    HW1 1322   0.114   0.904   0.566  1.1839  1.3379 -1.7898
  441SOL    HW2 1323   3.047   0.840   0.573 -0.1254  0.7509  0.0228
  442SOL     OW 1324   1.312   2.320   2.589  0.0484 -0.0181 -0.8490
  442SOL    HW1 1325   1.359   2.372   2.515  0.2920  0.9688  0.9603
  442SOL    HW2 1326   1.324   2.370   2.679  0.6846  0.9663  1.1716
  443SOL     OW 1327   0.648   0.029   0.317 -1.1463 -0.0248  0.2502
  443SOL    HW1 1328   0.749   0.020   0.308 -3.6030 -0.4768 -0.3846
  443SOL    HW2 1329   0.605   0.110   0.271 -1.5432  1.0474 -1.2601
  444SOL     OW 1330   1.603   1.646   2.386 -0.7449  0.7408  0.5057
  444SOL    HW1 1331   1.646   1.739   2.386 -0.1382  3.9312 -0.1039
  444SOL    HW2 1332   1.638   1.591   2.464  0.7937  2.2280 -0.9178
  445SOL     OW 1333   3.069   0.511   0.688  0.2836 -0.6075  0.9056
  445SOL    HW1 1334   0.060   0.470   0.737  0.3432  0.9925 -3.0934
  445SOL    HW2 1335   0.003   0.504   0.587  1.2282 -1.2878  0.1339
  446SOL     OW 1336   2.057   1.053   0.915  0.3305 -0.4179  0.3316
  446SOL    HW1 1337   2.120   1.117   0.873 -0.5657  1.4934 -1.9049
  446SOL    HW2 1338   2.096   1.024   1.004  0.1742  0.2998 -0.6501
  447SOL     OW 1339   3.085   0.894   0.250 -0.1003 -0.5376 -0.0185
  447SOL    HW1 1340   0.052   0.814   0.227 -0.6680  1.6763 -0.4277
  447SOL    HW2 1341   0.014   0.909   0.351  1.3321  1.2053  1.1609
  448SOL     OW 1342   1.810   1.937   1.366 -0.2677 -0.0096  0.2006
  448SOL    HW1 1343   1.760   1.947   1.279 -0.7115 -0.2535 -3.5129
  448SOL    HW2 1344   1.910   1.958   1.355  0.8449 -0.1657  3.2328
  449SOL     OW 1345   0.937   1.311   0.394  0.5170  0.5850 -0.0302
  449SOL    HW1 1346   1.033   1.284   0.370 -2.3404  0.3122  0.5439
  449SOL    HW2 1347   0.935   1.402   0.440  0.3301  0.4711 -0.2272
  450SOL     OW 1348   2.734   2.778   2.276 -0.0443 -0.2497 -0.1635
  450SOL    HW1 1349   2.654   2.719   2.297 -2.0291 -1.3935 -2.5478
  450SOL    HW2 1350   2.708   2.840   2.198 -3.9697 -2.9934 -1.0580
  451SOL     OW 1351   2.212   0.824   2.683  0.0329  0.7012  0.2458
  451SOL    HW1 1352   2.186   0.924   2.682  0.3825  2.6857 -2.8288
  451SOL    HW2 1353   2.178   0.776   2.601  1.7923  0.5335  1.8709
  452SOL     OW 1354   1.553   1.073   0.954 -0.0662  0.9258 -0.1707
  452SOL    HW1 1355   1.453   1.053   0.959  0.8522  1.3563 -1.4552
  452SOL    HW2 1356   1.602   1.009   1.020  0.6408  1.1123  1.7172
  453SOL     OW 1357   1.772   0.654   1.568 -0.5720 -0.3842 -0.1833
  453SOL    HW1 1358   1.732   0.626   1.657  1.1461 -2.1736 -0.0067
  453SOL    HW2 1359   1.780   0.755   1.553  1.2144  1.5608 -0.0925
  454SOL     OW 1360   2.564   1.168   2.656  0.4072 -0.3637 -1.0879
  454SOL    HW1 1361   2.603   1.075   2.627  0.2631  0.8215 -2.3259
  454SOL    HW2 1362   2.571   1.186   2.756 -0.8498 -1.2358  0.7203
  455SOL     OW 1363   2.766   1.678   1.391  0.3571 -0.7389 -0.5092
  455SOL    HW1 1364   2.735   1.589   1.424 -0.9614  2.4751  0.0176
  455SOL    HW2 1365   2.798   1.728   1.471  0.9856 -6.8867 -1.6181
  456SOL     OW 1366   1.379   3.052   1.659  0.1174 -0.4283  0.2009
  456SOL    HW1 1367   1.312   0.038   1.664  1.4903 -1.0257  3.7562
  456SOL    HW2 1368   1.474   3.089   1.654  0.1742 -1.1100  1.0755
  457SOL     OW 1369   1.634   2.845   0.976  0.2918  0.1269  0.1523
  457SOL    HW1 1370   1.695   2.804   1.044 -1.6836  1.9532  3.7457
  457SOL    HW2 1371   1.625   2.948   0.999  0.7126  0.2995  3.6260
  458SOL     OW 1372   2.907   2.798   0.838 -0.2026  0.3433 -0.6485
  458SOL    HW1 1373   2.805   2.784   0.826 -1.0254  0.8079 -0.8675
  458SOL    HW2 1374   2.934   2.896   0.819  1.4182  1.3969 -1.1896
  459SOL     OW 1375   1.599   0.891   0.242 -0.2766 -0.6892  0.3491
  459SOL    HW1 1376   1.542   0.863   0.169 -1.7903  1.8072  4.0250
  459SOL    HW2 1377   1.671   0.822   0.257 -0.1325 -2.5533 -2.1836
  460SOL     OW 1378   0.419   2.524   2.722  0.2647  0.2860 -0.0357
  460SOL    HW1 1379   0.315   2.525   2.724 -1.1752 -1.0398 -0.4533
  460SOL    HW2 1380   0.451   2.446   2.661  1.0079  0.1115  0.2772
  461SOL     OW 1381   0.470   1.403   0.242 -0.3522  0.0743  0.1156
  461SOL    HW1 1382   0.520   1.373   0.326  0.6419  1.7884 -1.7829
  461SOL    HW2 1383   0.433   1.326   0.184 -0.2822 -0.1167 -1.2519
  462SOL     OW 1384   1.757   2.093   0.422  0.3293  0.3997  0.0975
  462SOL    HW1 1385   1.773   2.088   0.523 -1.2473 -0.0048 -1.0307
  462SOL    HW2 1386   1.782   2.002   0.381 -0.9081 -0.4380 -3.2954
  463SOL     OW 1387   2.468   0.366   0.616 -0.0811 -0.7184  0.2998
  463SOL    HW1 1388   2.399   0.440   0.613  0.2266 -1.8888 -0.4398
  463SOL    HW2 1389   2.499   0.342   0.521 -1.4981  2.0170 -0.6094
  464SOL     OW 1390   0.887   2.026   0.533 -0.5094 -0.0098  0.0697
  464SOL    HW1 1391   0.876   2.118   0.485 -3.7594 -1.4264 -1.0460
  464SOL    HW2 1392   0.854   1.948   0.474 -0.0471  0.0140 -1.8206
  465SOL     OW 1393   2.410   0.241   1.075  0.4287 -0.6782 -0.3244
  465SOL    HW1 1394   2.393   0.339   1.090 -0.5235  0.4971 -2.7944
  465SOL    HW2 1395   2.482   0.203   1.138  1.5374 -0.1633 -2.2388
  466SOL     OW 1396   2.022   3.072   0.646 -0.3746 -0.3132 -0.3354
  466SOL    HW1 1397   1.982   0.069   0.620 -0.9913 -1.7307  1.6939
  466SOL    HW2 1398   2.127   0.002   0.639  1.3345 -0.2360  0.6718
  467SOL     OW 1399   1.176   0.659   2.104 -0.2552  0.2538 -0.3560
  467SOL    HW1 1400   1.192   0.759   2.112  0.9674  1.1649  0.9525
  467SOL    HW2 1401   1.237   0.617   2.035  0.0981  0.2903 -0.5860
  468SOL     OW 1402   2.663   0.330   2.105 -0.0822  0.0254 -0.0015
  468SOL    HW1 1403   2.583   0.320   2.164 -3.2549 -0.9634  1.0801
  468SOL    HW2 1404   2.736   0.391   2.140 -2.4599  1.1824  1.0961
  469SOL     OW 1405   1.115   2.455   1.848  0.2915  0.2807 -0.3980
  469SOL    HW1 1406   1.162   2.445   1.758 -0.4770 -0.0399 -2.2192
  469SOL    HW2 1407   1.103   2.553   1.871  1.9876  2.2596 -0.5208
  470SOL     OW 1408   2.010   1.081   1.965 -0.4150  0.6795 -0.3678
  470SOL    HW1 1409   2.094   1.032   1.994 -2.3713 -2.9842  0.5078
  470SOL    HW2 1410   1.969   1.137   2.038  0.7529  0.1354 -1.9295
  471SOL     OW 1411   3.026   1.437   2.948 -0.5980 -0.3301  0.4607
  471SOL    HW1 1412   2.982   1.395   2.861 -1.3706 -0.8338 -1.2600
  471SOL    HW2 1413   3.084   1.372   3.003  3.4941 -0.5857 -1.7700
  472SOL     OW 1414   0.514   2.132   0.605 -0.6124 -0.0269  0.2280
  472SOL    HW1 1415   0.490   2.068   0.529  0.5820 -2.3775  0.6546
  472SOL    HW2 1416   0.614   2.151   0.607 -1.8955  0.4435 -0.3389
  473SOL     OW 1417   1.022   2.189   2.200 -0.0430  0.1611  0.1703
  473SOL    HW1 1418   0.989   2.255   2.130  0.0485 -1.8528 -1.7890
  473SOL    HW2 1419   1.124   2.192   2.211 -1.1420 -0.5478 -0.3387
  474SOL     OW 1420   0.998   3.030   2.541  0.0179  0.7889  0.3814
  474SOL    HW1 1421   0.984   2.950   2.484  1.5456  2.7668  1.6513
  474SOL    HW2 1422   1.057   3.009   2.627  0.7472 -2.4505  0.3136
  475SOL     OW 1423   0.892   2.223   0.340  0.3840 -0.0459  0.1319
  475SOL    HW1 1424   0.994   2.220   0.333 -1.7027  2.4688  0.8160
  475SOL    HW2 1425   0.859   2.183   0.254  2.9712  0.0965 -2.0973
  476SOL     OW 1426   0.772   0.661   0.929  0.2200  0.2792  0.4229
  476SOL    HW1 1427   0.687   0.656   0.872 -1.7222  1.3178 -1.4332
  476SOL    HW2 1428   0.852   0.611   0.890  1.5685  0.0181  1.4408
  477SOL     OW 1429   2.053   2.093   1.268 -0.2053 -0.3164 -0.1040
  477SOL    HW1 1430   2.097   2.077   1.181 -2.1846  2.1765 -0.1447
  477SOL    HW2 1431   1.963   2.131   1.249  1.0019 -1.1542  0.8960
  478SOL     OW 1432   2.986   0.791   3.080  0.1092  0.7330  0.2476
  478SOL    HW1 1433   2.976   0.713   0.060 -1.4590 -1.0479  2.1087
  478SOL    HW2 1434   2.950   0.762   2.992 -0.8427  0.0690  1.3221
  479SOL     OW 1435   0.654   0.022   1.219  0.1260  0.3779  0.6841
  479SOL    HW1 1436   0.685   0.010   1.318  2.5059 -3.0854  2.9572
  479SOL    HW2 1437   0.721   3.065   1.159  1.0805  1.5953  3.0436
  480SOL     OW 1438   2.612   2.474   0.392 -0.7280 -0.5924  0.4773
  480SOL    HW1 1439   2.644   2.424   0.308 -1.5826 -2.8594  0.5550
  480SOL    HW2 1440   2.649   2.438   0.480 -2.4980  0.6064  2.2813
  481SOL     OW 1441   2.822   0.513   1.287 -0.0190 -0.1089  0.3124
  481SOL    HW1 1442   2.795   0.429   1.240 -0.8823 -0.4047 -0.2744
  481SOL    HW2 1443   2.889   0.493   1.367  3.4252 -1.1581  3.3242
  482SOL     OW 1444   0.898   2.990   1.097 -0.2045 -0.0751 -0.1374
  482SOL    HW1 1445   0.966   3.039   1.038  0.2211  0.3168 -0.3022
  482SOL    HW2 1446   0.948   2.917   1.150  0.0078 -1.9763 -0.8278
  483SOL     OW 1447   0.159   1.442   2.635  0.4305 -0.3055  0.3595
  483SOL    HW1 1448   0.225   1.410   2.703 -0.0446  1.4433 -2.6695
  483SOL    HW2 1449   0.063   1.440   2.664 -0.8782  0.0176 -2.1598
  484SOL     OW 1450   1.845   1.815   2.035 -0.0043  0.0676 -0.5085
  484SOL    HW1 1451   1.832   1.822   1.933 -0.3877 -0.4469  0.0004
  484SOL    HW2 1452   1.759   1.783   2.083  0.4775 -0.8615  0.3042
  485SOL     OW 1453   0.344   3.011   2.562  0.2908 -0.7110  0.4648
  485SOL    HW1 1454   0.285   3.065   2.627 -1.3264  2.4814  2.0333
  485SOL    HW2 1455   0.346   2.911   2.578 -1.1974  3.3794 -0.0409
  486SOL     OW 1456   1.355   2.854   0.634  0.0623 -0.2430  0.3396
  486SOL    HW1 1457   1.424   2.796   0.682 -0.9089 -0.3124 -1.9716
  486SOL    HW2 1458   1.361   2.832   0.532  0.0547 -1.6820  1.4211
  487SOL     OW 1459   1.439   0.034   0.698 -0.0434 -0.0039 -0.0218
  487SOL    HW1 1460   1.420   3.030   0.662  2.1328 -1.6862 -1.7206
  487SOL    HW2 1461   1.538   0.052   0.698 -1.7362  0.9106  1.9212
  488SOL     OW 1462   2.219   0.833   0.813  0.4187 -0.0423  0.6298
  488SOL    HW1 1463   2.293   0.905   0.808 -0.6837  1.9917  1.0902
  488SOL    HW2 1464   2.126   0.868   0.819  1.3440  1.2877 -1.1271
  489SOL     OW 1465   1.077   0.115   1.238  0.2529  0.3523 -0.1157
  489SOL    HW1 1466   1.148   0.075   1.176 -1.1020 -0.7566 -1.5021
  489SOL    HW2 1467   1.007   0.163   1.184 -0.9555  1.2475  2.4312
  490SOL     OW 1468   0.810   0.683   0.137  0.3961 -0.0018 -0.3423
  490SOL    HW1 1469   0.766   0.604   0.189 -1.9907 -3.3101 -0.3071
  490SOL    HW2 1470   0.843   0.753   0.203 -1.7953  0.3360 -0.0775
  491SOL     OW 1471   0.956   2.860   0.403  0.0574 -0.3589 -0.0019
  491SOL    HW1 1472   1.041   2.830   0.358 -1.9773  0.0236 -0.0039
  491SOL    HW2 1473   0.895   2.781   0.417  1.1947 -1.4219  2.5316
  492SOL     OW 1474   1.148   1.534   1.701 -0.3336  0.2180  0.3510
  492SOL    HW1 1475   1.218   1.518   1.783 -0.7869  0.5315  0.6690
  492SOL    HW2 1476   1.071   1.464   1.705  0.2074 -2.7551  0.1015
  493SOL     OW 1477   0.529   1.741   0.412  0.1166 -0.1635  0.7289
  493SOL    HW1 1478   0.471   1.826   0.412 -2.5439 -0.8003 -0.3688
  493SOL    HW2 1479   0.515   1.678   0.332  0.7279  1.1760 -2.3315
  494SOL     OW 1480   2.001   1.873   0.479 -0.0458 -0.1339  0.9711
  494SOL    HW1 1481   2.066   1.794   0.467  1.2779  0.1686  1.5051
  494SOL    HW2 1482   1.903   1.843   0.466  1.5590  1.3836  1.0277
  495SOL     OW 1483   0.253   1.270   2.450 -1.1010  0.0986  0.1274
  495SOL    HW1 1484   0.229   1.340   2.521 -1.0782 -2.9258 -2.9240
  495SOL    HW2 1485   0.169   1.247   2.398  2.9311 -0.6966  1.7664
  496SOL     OW 1486   0.574   3.077   2.462 -0.2568 -0.5744 -0.5138
  496SOL    HW1 1487   0.477   3.050   2.487  0.6295 -0.6709 -2.4931
  496SOL    HW2 1488   0.614   3.032   2.381  0.8433  0.0175  1.1938
  497SOL     OW 1489   1.612   1.264   0.517  0.5532 -0.1713 -0.4788
  497SOL    HW1 1490   1.561   1.208   0.448 -2.9429 -0.5298  0.3515
  497SOL    HW2 1491   1.615   1.362   0.483  2.9833  0.3450 -0.1979
  498SOL     OW 1492   2.818   2.660   0.232 -0.0421 -0.0271  0.1761
  498SOL    HW1 1493   2.849   2.613   0.145 -0.9401 -0.9036 -0.6653
  498SOL    HW2 1494   2.742   2.613   0.281  1.8340  1.4983 -3.5865
  499SOL     OW 1495   2.044   2.456   0.517 -0.5061  0.5742  0.0267
  499SOL    HW1 1496   2.020   2.402   0.433 -0.7449 -0.3081 -0.6040
  499SOL    HW2 1497   2.104   2.532   0.486 -1.1160  3.1363  0.0355
  500SOL     OW 1498   0.487   0.542   2.721  0.5459 -0.2772  0.0735
  500SOL    HW1 1499   0.523   0.635   2.733 -0.0549 -0.0177  0.2177
  500SOL    HW2 1500   0.564   0.475   2.730 -3.1719  1.7527  0.2477
  501SOL     OW 1501   1.632   0.094   1.762 -0.0214  0.1978 -0.2191
  501SOL    HW1 1502   1.665   0.044   1.845 -0.8903 -0.6772 -2.5749
  501SOL    HW2 1503   1.705   0.120   1.701 -1.4762 -0.4045  0.1138
  502SOL     OW 1504   0.229   0.136   2.284 -0.2819  0.3124 -0.2344
  502SOL    HW1 1505   0.217   0.168   2.379 -0.6560 -2.9292 -0.2631
  502SOL    HW2 1506   0.214   0.033   2.288 -2.8029 -2.3388  0.8849
  503SOL     OW 1507   1.573   2.389   2.188  0.5352 -0.0596 -0.0851
  503SOL    HW1 1508   1.664   2.430   2.209  0.8600  1.6528 -0.7332
  503SOL    HW2 1509   1.565   2.345   2.100 -0.2492 -0.5020  1.7384
  504SOL     OW 1510   1.941   0.434   1.626 -0.2058  0.7310 -0.3889
  504SOL    HW1 1511   1.875   0.353   1.612 -2.1987 -0.7594 -1.3698
  504SOL    HW2 1512   1.880   0.510   1.607  3.0350 -1.4837  1.3446
  505SOL     OW 1513   2.606   1.759   1.672 -0.0850 -0.1496 -0.6655
  505SOL    HW1 1514   2.710   1.755   1.666  2.8386  0.3183 -0.5896
  505SOL    HW2 1515   2.563   1.780   1.586 -2.4986 -2.8063  2.1000
  506SOL     OW 1516   0.073   1.331   2.004 -0.3565 -0.2192 -0.1350
  506SOL    HW1 1517   3.062   1.331   2.031 -1.0376  0.7716 -2.3682
  506SOL    HW2 1518   0.076   1.297   1.907  0.6620 -1.3143  1.2293
  507SOL     OW 1519   0.432   2.992   1.437 -0.0026  0.0479  0.5376
  507SOL    HW1 1520   0.467   0.000   1.453 -1.4553  1.3680  1.9215
  507SOL    HW2 1521   0.509   2.922   1.438  1.9984  1.4763 -1.2532
  508SOL     OW 1522   1.020   0.771   1.389  0.8356 -0.0148 -0.3215
  508SOL    HW1 1523   0.982   0.757   1.483 -1.1673  2.4314 -0.7823
  508SOL    HW2 1524   0.950   0.761   1.318  0.9891  0.3051  0.6322
  509SOL     OW 1525   1.455   2.554   1.815 -0.3318 -0.3212 -0.3655
  509SOL    HW1 1526   1.455   2.650   1.782  0.4835  3.3613 -1.2549
  509SOL    HW2 1527   1.436   2.544   1.913  1.1277 -2.5299 -0.5990
  510SOL     OW 1528   2.453   1.181   2.966 -0.6290 -0.2863  0.8421
  510SOL    HW1 1529   2.364   1.140   2.951  2.1243  2.3591  2.8334
  510SOL    HW2 1530   2.463   1.187   3.065  2.3277  1.0496 -0.1676
  511SOL     OW 1531   0.537   1.351   1.386 -0.2856  0.4890 -0.0148
  511SOL    HW1 1532   0.618   1.356   1.327 -0.4497  2.5627  0.5081
  511SOL    HW2 1533   0.574   1.349   1.479  0.3360 -2.3454 -3.2188
  512SOL     OW 1534   2.701   1.761   0.338  0.3237  0.0369  0.2767
  512SOL    HW1 1535   2.706   1.846   0.388  2.1543 -2.3591 -0.8308
  512SOL    HW2 1536   2.792   1.727   0.300  3.7265  0.3720  1.3323
  513SOL     OW 1537   0.660   1.827   2.263  0.4778 -0.2131  0.1982
  513SOL    HW1 1538   0.753   1.873   2.271  1.0861  0.4887  0.3967
  513SOL    HW2 1539   0.665   1.726   2.276 -0.5159 -1.8089  0.0755
  514SOL     OW 1540   3.014   2.287   1.629 -0.3268 -0.6107 -0.5171
  514SOL    HW1 1541   3.010   2.212   1.562 -1.2259 -0.1601 -0.7261
  514SOL    HW2 1542   2.946   2.283   1.705 -1.7788 -1.4746  1.1240
  515SOL     OW 1543   1.960   1.203   1.716 -0.1854 -0.0122 -0.0101
  515SOL    HW1 1544   1.981   1.168   1.806  0.2890 -3.1533 -1.4259
  515SOL    HW2 1545   1.866   1.178   1.690  0.9545  0.9964  0.3223
  516SOL     OW 1546   2.398   2.860   0.431  0.1048 -0.4495  0.0514
  516SOL    HW1 1547   2.426   2.905   0.343 -1.1789  0.4416 -1.0671
  516SOL    HW2 1548   2.476   2.822   0.479 -1.9447  1.3988 -1.5291
  517SOL     OW 1549   1.033   1.552   2.964 -0.1647 -0.2059  0.0697
  517SOL    HW1 1550   0.998   1.635   2.920 -2.3673 -0.2411  0.1377
  517SOL    HW2 1551   1.124   1.526   2.929  1.3590  1.2410  0.0898
  518SOL     OW 1552   1.664   2.829   1.481 -0.6663 -0.5849  0.1168
  518SOL    HW1 1553   1.717   2.863   1.397  2.8175 -0.4186 -1.6317
  518SOL    HW2 1554   1.731   2.792   1.551  0.7553  0.2980  1.9541
  519SOL     OW 1555   2.092   2.629   0.894  0.4885  0.0795  0.2673
  519SOL    HW1 1556   2.105   2.726   0.917  2.2819 -2.2516 -1.2490
  519SOL    HW2 1557   2.171   2.600   0.836 -1.0117 -1.1410 -0.6600
  520SOL     OW 1558   3.075   2.320   2.099 -0.4788 -0.3126 -0.1657
  520SOL    HW1 1559   2.972   2.303   2.096 -1.6448 -2.8858  2.3049
  520SOL    HW2 1560   0.005   2.417   2.069 -1.4458  2.0733 -1.1688
  521SOL     OW 1561   2.656   0.917   2.586 -0.0803 -0.2739 -0.3093
  521SOL    HW1 1562   2.579   0.861   2.627 -0.8533 -0.7761 -0.8542
  521SOL    HW2 1563   2.732   0.851   2.558  2.5449 -0.3313 -2.9652
  522SOL     OW 1564   0.853   0.767   2.582  0.1367 -0.4562 -0.6160
  522SOL    HW1 1565   0.944   0.716   2.573  0.5136 -2.0145  1.6870
  522SOL    HW2 1566   0.781   0.719   2.526  1.2267 -1.7507 -1.0632
  523SOL     OW 1567   0.118   2.130   0.848  0.7428 -0.5188 -0.3366
  523SOL    HW1 1568   0.148   2.040   0.891 -0.9912 -1.4777  1.6459
  523SOL    HW2 1569   0.185   2.179   0.792 -2.1902 -1.4182  3.0666
  524SOL     OW 1570   1.985   2.688   2.911 -0.3824 -0.2742  0.1920
  524SOL    HW1 1571   2.013   2.595   2.890  1.8971  1.5143 -0.4936
  524SOL    HW2 1572   2.056   2.725   2.979 -1.6837  1.2953 -1.3423
  525SOL     OW 1573   2.344   0.666   1.435  0.0052 -0.2281  0.3371
  525SOL    HW1 1574   2.444   0.670   1.412  0.1535 -1.4565 -0.4476
  525SOL    HW2 1575   2.308   0.583   1.393 -0.4670 -0.3170  0.9271
  526SOL     OW 1576   0.931   2.635   0.631  0.1482 -0.0583  0.3058
  526SOL    HW1 1577   0.880   2.631   0.714  1.0483 -0.5838 -1.7778
  526SOL    HW2 1578   0.897   2.577   0.555  1.1260 -0.6341  1.5497
  527SOL     OW 1579   2.227   2.820   0.645 -0.1651 -0.0155  0.3825
  527SOL    HW1 1580   2.131   2.791   0.631  1.2777  1.5654 -2.2470
  527SOL    HW2 1581   2.273   2.868   0.565  2.0844  2.2352 -2.0173
  528SOL     OW 1582   1.716   0.623   0.016  1.4566  0.1923  0.2041
  528SOL    HW1 1583   1.770   0.672   0.090 -2.0558  0.6266  2.2327
  528SOL    HW2 1584   1.748   0.528   3.087 -0.2103  1.1454 -0.0589
  529SOL     OW 1585   1.343   1.608   2.332  0.8231  0.6394  0.8297
  529SOL    HW1 1586   1.443   1.605   2.358 -0.3978 -0.4671  1.4577
  529SOL    HW2 1587   1.296   1.577   2.417 -1.5044  1.5161  0.5053
  530SOL     OW 1588   2.404   2.988   0.188  0.5686  0.6125  0.1396
  530SOL    HW1 1589   2.315   3.041   0.181 -2.6253 -1.9133 -0.4471
  530SOL    HW2 1590   2.447   2.968   0.100  1.0806 -1.2957  1.0524
  531SOL     OW 1591   1.827   1.000   3.031  0.2448  0.1706 -0.0158
  531SOL    HW1 1592   1.902   0.929   3.038 -0.1956  1.2514  0.0239
  531SOL    HW2 1593   1.738   0.961   2.999 -2.5719 -1.4851  1.0607
  532SOL     OW 1594   1.560   0.372   0.709  0.7973 -0.3572  0.1219
  532SOL    HW1 1595   1.459   0.383   0.716  1.3087  1.6370  0.4300
  532SOL    HW2 1596   1.608   0.459   0.726  2.7331  0.3803  0.8048
  533SOL     OW 1597   0.552   0.829   2.690 -0.1802 -0.1513 -0.5020
  533SOL    HW1 1598   0.620   0.885   2.736  0.7910 -0.3739 -1.4859
  533SOL    HW2 1599   0.515   0.872   2.609  1.6445 -0.3082  0.9547
  534SOL     OW 1600   1.558   0.290   0.032 -0.2733 -0.1009  0.5334
  534SOL    HW1 1601   1.559   0.216   0.104  0.5677  0.3950 -2.0145
  534SOL    HW2 1602   1.520   0.245   3.038  0.5994 -0.4892 -0.7951
  535SOL     OW 1603   0.862   2.376   0.009  0.0580 -0.3276 -0.1928
  535SOL    HW1 1604   0.784   2.435   0.025  3.0774 -1.1176  0.0851
  535SOL    HW2 1605   0.837   2.284   3.068  0.1965  0.0350  0.3416
  536SOL     OW 1606   0.464   2.902   0.352 -0.1950  0.4110  0.3525
  536SOL    HW1 1607   0.515   2.991   0.334 -0.0486 -0.4081  3.3702
  536SOL    HW2 1608   0.496   2.863   0.443  0.3154  0.1596 -0.2556
  537SOL     OW 1609   1.839   0.286   0.239 -0.1138 -0.1643  0.3856
  537SOL    HW1 1610   1.844   0.332   0.147  2.6202  1.1938  1.2853
  537SOL    HW2 1611   1.759   0.319   0.299 -3.0575  1.8627  2.2627
  538SOL     OW 1612   2.648   2.158   2.827  0.4291 -0.4806  0.2192
  538SOL    HW1 1613   2.573   2.228   2.829 -0.0874  0.8273 -1.5776
  538SOL    HW2 1614   2.610   2.071   2.798  0.0393  1.0402  1.6049
  539SOL     OW 1615   2.730   1.738   2.937 -0.1538  0.6441  0.9736
  539SOL    HW1 1616   2.677   1.754   3.021  0.5024  1.9158 -1.0916
  539SOL    HW2 1617   2.778   1.643   2.935  0.4837 -2.8386  0.6238
  540SOL     OW 1618   0.963   2.784   1.820 -0.1726  0.0610 -0.1646
  540SOL    HW1 1619   0.979   2.873   1.863  3.3966 -4.2267 -1.0972
  540SOL    HW2 1620   1.012   2.782   1.734 -1.0328 -1.0496 -0.1299
  541SOL     OW 1621   2.566   0.064   2.268  0.1301 -0.5763 -0.0662
  541SOL    HW1 1622   2.465   0.081   2.252 -2.2284  0.0793  1.1497
  541SOL    HW2 1623   2.594   3.070   2.217 -0.5459  1.6462  2.4767
  542SOL     OW 1624   0.188   0.865   2.990  0.5016  0.4376  0.1365
  542SOL    HW1 1625   0.162   0.914   2.906 -2.3894 -1.5644  1.2090
  542SOL    HW2 1626   0.107   0.885   3.052 -0.5235 -0.0822  2.4035
  543SOL     OW 1627   0.386   0.838   0.824  0.3573  0.4326  0.0638
  543SOL    HW1 1628   0.324   0.863   0.899  0.7142  0.6187 -0.8178
  543SOL    HW2 1629   0.377   0.742   0.805 -0.2861  1.8506  2.2223
  544SOL     OW 1630   2.627   0.671   1.393  0.1895 -0.1273  0.5448
  544SOL    HW1 1631   2.703   0.606   1.365 -0.8763  2.2547 -0.8258
  544SOL    HW2 1632   2.659   0.758   1.443 -0.5103 -0.0321 -0.7836
  545SOL     OW 1633   1.425   1.895   0.408  0.2274  0.2205  0.5139
  545SOL    HW1 1634   1.458   1.985   0.450 -2.5292  1.3645 -0.9210
  545SOL    HW2 1635   1.452   1.886   0.310 -1.5253  1.6290 -1.0493
  546SOL     OW 1636   2.233   2.649   1.421  0.1688 -0.8181  0.1114
  546SOL    HW1 1637   2.174   2.566   1.421 -1.5909 -1.4785  1.6176
  546SOL    HW2 1638   2.287   2.652   1.335 -0.2013  1.1397  2.6771
  547SOL     OW 1639   0.735   2.303   2.494  0.2614 -0.1547  0.4297
  547SOL    HW1 1640   0.752   2.209   2.523  1.7380  2.1571  3.7733
  547SOL    HW2 1641   0.771   2.324   2.399 -2.6752  1.3311 -5.9222
  548SOL     OW 1642   1.339   0.771   2.668  0.1690 -0.4115 -0.2307
  548SOL    HW1 1643   1.310   0.761   2.764 -0.2723 -0.2308  0.0142
  548SOL    HW2 1644   1.424   0.718   2.656  0.4171  2.5102 -2.1525
  549SOL     OW 1645   2.727   0.683   0.199 -0.0795  0.1372  0.0701
  549SOL    HW1 1646   2.689   0.631   0.281  0.2401  0.7246 -1.1035
  549SOL    HW2 1647   2.765   0.771   0.238  0.2041  2.2731  0.5660
  550SOL     OW 1648   2.261   1.121   0.386  0.1014 -0.3413  0.0984
  550SOL    HW1 1649   2.190   1.113   0.464 -2.4451  0.4227  1.8494
  550SOL    HW2 1650   2.296   1.219   0.380  0.8968 -0.4546 -1.7783
  551SOL     OW 1651   1.387   0.411   1.000 -0.0742 -0.1714 -0.3142
  551SOL    HW1 1652   1.317   0.401   1.075  1.8321  0.1242 -0.6036
  551SOL    HW2 1653   1.420   0.506   0.994  0.6269  0.8820 -0.3809
  552SOL     OW 1654   2.263   2.781   2.403  0.2335 -0.0541  0.2417
  552SOL    HW1 1655   2.193   2.754   2.465  1.2350  1.5487 -2.0093
  552SOL    HW2 1656   2.292   2.877   2.425  0.1434 -0.9339 -0.9760
  553SOL     OW 1657   0.635   2.895   2.274  0.4271  0.2632 -0.1383
  553SOL    HW1 1658   0.663   2.813   2.332  0.9735 -0.6447 -1.2889
  553SOL    HW2 1659   0.552   2.883   2.220 -1.9640  0.3703 -0.4716
  554SOL     OW 1660   0.465   0.163   1.518  0.1990 -0.7107 -0.1857
  554SOL    HW1 1661   0.372   0.185   1.488  2.2290  2.0241  1.0348
  554SOL    HW2 1662   0.493   0.219   1.596  0.2590 -0.4689 -0.9092
  555SOL     OW 1663   2.591   1.710   2.158  0.3211  0.3031  0.2641
  555SOL    HW1 1664   2.525   1.766   2.101  2.5925 -0.9374 -0.8136
  555SOL    HW2 1665   2.675   1.762   2.176 -1.0809 -0.9151 -0.0784
  556SOL     OW 1666   1.160   0.463   3.021 -0.1279 -0.3244 -0.5493
  556SOL    HW1 1667   1.161   0.362   3.006  2.0608 -0.7625  1.4851
  556SOL    HW2 1668   1.076   0.493   3.065 -0.2270 -1.8068  1.9037
  557SOL     OW 1669   0.334   2.142   2.338 -0.1107 -0.2861 -0.4921
  557SOL    HW1 1670   0.251   2.083   2.363  0.7883  2.0608  0.8193
  557SOL    HW2 1671   0.392   2.090   2.273 -1.4008  0.6624  2.4719
  558SOL     OW 1672   1.919   0.548   2.681 -0.3124  0.3214 -0.2052
  558SOL    HW1 1673   1.981   0.555   2.598 -0.2586  0.7529  2.7230
  558SOL    HW2 1674   1.896   0.447   2.702 -1.0416 -0.2151  2.4900
  559SOL     OW 1675   2.206   1.895   1.645 -0.2778  0.2448  0.5140
  559SOL    HW1 1676   2.151   1.834   1.703  0.4533  2.5693 -0.4407
  559SOL    HW2 1677   2.163   1.984   1.626  0.1718 -2.1476 -3.0972
  560SOL     OW 1678   2.017   0.781   2.084  0.0551  0.3663 -0.0705
  560SOL    HW1 1679   2.091   0.844   2.050 -1.2663 -1.3110 -1.4098
  560SOL    HW2 1680   1.989   0.715   2.006 -0.8089 -5.1484 -4.3167
  561SOL     OW 1681   0.185   0.027   2.747 -0.3157 -0.0079 -0.7275
  561SOL    HW1 1682   0.093   3.068   2.737 -0.0080 -0.3075  2.2935
  561SOL    HW2 1683   0.207   0.023   2.849  1.7286 -2.4406  0.2732
  562SOL     OW 1684   0.739   1.650   1.460 -0.1097  0.0350  0.1867
  562SOL    HW1 1685   0.825   1.648   1.402  1.1122 -2.2971  1.7133
  562SOL    HW2 1686   0.751   1.583   1.538 -3.1601 -2.2560 -1.2730
  563SOL     OW 1687   1.047   0.183   2.958 -0.5050 -0.3378  0.2269
  563SOL    HW1 1688   0.949   0.195   2.944 -0.9164 -1.0459 -0.2064
  563SOL    HW2 1689   1.064   0.086   2.986 -0.9310 -2.8089  1.4318
  564SOL     OW 1690   3.005   2.323   0.899 -0.6860  0.2360 -0.1638
  564SOL    HW1 1691   3.085   2.271   0.869  0.0677  0.5203 -2.3014
  564SOL    HW2 1692   2.979   2.395   0.829 -0.0188  0.5574 -2.4473
  565SOL     OW 1693   0.441   1.902   1.231  0.2247  0.4860  0.2434
  565SOL    HW1 1694   0.440   1.865   1.329  2.2020  1.4989  2.5768
  565SOL    HW2 1695   0.448   2.001   1.227 -2.1148  0.0065 -1.0234
  566SOL     OW 1696   1.445   0.061   2.504 -0.2393 -0.3543 -0.1845
  566SOL    HW1 1697   1.426   0.114   2.416 -0.6536  2.3199 -1.1281
  566SOL    HW2 1698   1.418   3.054   2.490 -1.1629  0.4470  2.1473
  567SOL     OW 1699   2.404   2.873   0.845  0.2399 -0.2774 -0.5204
  567SOL    HW1 1700   2.366   2.879   0.943  1.6922 -1.4564  0.0671
  567SOL    HW2 1701   2.335   2.847   0.774 -1.1999  2.2422 -1.4016
  568SOL     OW 1702   1.473   1.525   0.877  0.1900  0.6697  0.5652
  568SOL    HW1 1703   1.424   1.499   0.794  1.6020 -0.5395  0.3818
  568SOL    HW2 1704   1.525   1.615   0.864  1.5497  2.7336 -3.8992
  569SOL     OW 1705   2.680   1.408   2.638  0.6917 -0.4846  0.0937
  569SOL    HW1 1706   2.622   1.494   2.655  1.4404  0.9924 -0.3546
  569SOL    HW2 1707   2.617   1.330   2.635  2.3941  2.0931  0.2496
  570SOL     OW 1708   3.027   0.299   1.843 -0.1651 -0.5385  0.5641
  570SOL    HW1 1709   3.076   0.285   1.932  0.7455  1.1051 -2.3496
  570SOL    HW2 1710   3.064   0.228   1.783  0.0119  1.7833 -0.3126
  571SOL     OW 1711   0.329   0.153   1.860 -0.1496 -0.5795 -0.4335
  571SOL    HW1 1712   0.404   0.203   1.803  3.6637  3.4520 -2.9941
  571SOL    HW2 1713   0.309   0.063   1.813  0.2098 -1.5052 -1.1875
  572SOL     OW 1714   2.874   2.322   1.238 -0.0074 -0.4789  0.1208
  572SOL    HW1 1715   2.855   2.267   1.151  1.0845 -2.6470 -3.9182
  572SOL    HW2 1716   2.940   2.394   1.215 -2.4778  0.8031 -0.5728
  573SOL     OW 1717   1.228   0.699   2.926 -0.4156 -0.5611 -0.5818
  573SOL    HW1 1718   1.128   0.726   2.947 -1.3400 -1.8864 -0.5162
  573SOL    HW2 1719   1.234   0.595   2.921  1.0480 -3.5043 -0.7726
  574SOL     OW 1720   2.411   2.591   2.732 -0.1912  0.1835  0.3456
  574SOL    HW1 1721   2.501   2.613   2.697 -1.5407  0.5135  0.4028
  574SOL    HW2 1722   2.363   2.672   2.771 -1.3868  2.8112 -1.3504
  575SOL     OW 1723   1.389   2.878   1.097 -0.1236 -0.0347  0.1584
  575SOL    HW1 1724   1.398   2.838   1.194  1.9691 -1.7261 -0.1662
  575SOL    HW2 1725   1.455   2.831   1.040 -0.6649 -1.1236  2.4722
  576SOL     OW 1726   1.026   0.090   0.910 -0.2355 -0.3726  0.0621
  576SOL    HW1 1727   1.109   0.121   0.858 -1.4646 -0.6292  2.1082
  576SOL    HW2 1728   0.987   0.170   0.967 -1.7211  0.5419  1.5188
  577SOL     OW 1729   2.227   1.213   0.757  0.2615  0.2096  0.1594
  577SOL    HW1 1730   2.292   1.267   0.698  1.1823  0.1501 -2.4848
  577SOL    HW2 1731   2.162   1.168   0.689  0.5277  0.4526 -0.7263
  578SOL     OW 1732   1.722   0.573   0.819  0.7771 -0.0965  0.2774
  578SOL    HW1 1733   1.799   0.504   0.806  0.5528  1.8365 -0.5049
  578SOL    HW2 1734   1.740   0.629   0.903  2.7617 -0.0641 -1.1943
  579SOL     OW 1735   1.799   0.719   2.846  0.7104  0.3611  0.4101
  579SOL    HW1 1736   1.857   0.646   2.795  0.8309  0.4278 -1.6694
  579SOL    HW2 1737   1.779   0.684   2.936 -0.0750  0.5746 -0.1393
  580SOL     OW 1738   1.524   0.885   2.254 -0.2188  0.4122  0.5529
  580SOL    HW1 1739   1.538   0.894   2.354  0.6748  1.1252 -1.7690
  580SOL    HW2 1740   1.428   0.912   2.234  3.2670  1.1110  0.6040
  581SOL     OW 1741   0.331   0.585   0.718 -0.5526  0.4764 -0.8863
  581SOL    HW1 1742   0.407   0.520   0.723 -2.8237  0.2015 -0.9799
  581SOL    HW2 1743   0.274   0.560   0.637 -3.9411 -2.0795  1.1052
  582SOL     OW 1744   2.757   0.213   1.896  0.2038 -0.8056  0.5499
  582SOL    HW1 1745   2.855   0.238   1.887 -3.5433 -2.7398 -0.3454
  582SOL    HW2 1746   2.714   0.255   1.978 -0.7383 -0.9372 -1.3368
  583SOL     OW 1747   0.398   0.621   2.474 -0.3743 -0.4439  0.0692
  583SOL    HW1 1748   0.418   0.593   2.571 -0.6579  2.7206  0.5702
  583SOL    HW2 1749   0.395   0.551   2.405  1.1692  0.1739 -1.0586
  584SOL     OW 1750   1.988   1.935   3.037 -0.0063 -0.6375 -0.4863
  584SOL    HW1 1751   2.024   1.922   0.042  0.5180 -0.0678  0.0893
  584SOL    HW2 1752   2.047   1.984   2.970 -1.5263  0.7793 -1.6583
  585SOL     OW 1753   0.285   2.282   2.991  0.1310  0.5908  0.1539
  585SOL    HW1 1754   0.214   2.208   2.972  2.4291 -2.1959  1.5137
  585SOL    HW2 1755   0.336   2.261   3.075  0.1133 -1.5332 -2.2417
  586SOL     OW 1756   1.992   1.754   2.404  0.6795 -0.2322 -0.3744
  586SOL    HW1 1757   1.988   1.703   2.319  0.0562  4.3816  0.7667
  586SOL    HW2 1758   1.977   1.694   2.487 -0.4753 -2.4711  0.7516
  587SOL     OW 1759   2.624   1.879   2.736 -0.4323  0.1272  0.2863
  587SOL    HW1 1760   2.665   1.840   2.820  0.5681 -1.2623  0.8877
  587SOL    HW2 1761   2.696   1.865   2.665  1.8812  0.9445  2.0836
  588SOL     OW 1762   0.011   0.363   1.036  0.2205  0.0257  0.2517
  588SOL    HW1 1763   3.016   0.379   0.983  3.0156 -0.1793  0.3145
  588SOL    HW2 1764   0.095   0.379   0.975  0.1433 -0.7831 -1.0801
  589SOL     OW 1765   1.085   0.212   0.256 -0.5603 -0.1342 -0.5095
  589SOL    HW1 1766   1.083   0.313   0.261 -0.6911  0.8102  0.8733
  589SOL    HW2 1767   0.997   0.174   0.227 -2.8701 -0.2498 -1.0740
  590SOL     OW 1768   2.449   2.071   0.523 -0.0987  0.1215 -0.2300
  590SOL    HW1 1769   2.348   2.081   0.532  1.9284 -0.4484  0.6691
  590SOL    HW2 1770   2.472   2.094   0.423 -0.6582 -0.1403 -0.1660
  591SOL     OW 1771   0.448   2.581   1.256  0.3968  0.0834 -0.2553
  591SOL    HW1 1772   0.385   2.507   1.282 -1.6845 -1.1179 -1.0101
  591SOL    HW2 1773   0.413   2.638   1.178  0.3773 -0.2099  1.6971
  592SOL     OW 1774   1.286   0.998   0.979  0.7718  0.1717 -0.0071
  592SOL    HW1 1775   1.236   1.075   1.034 -1.6114 -0.8947  1.6570
  592SOL    HW2 1776   1.234   0.911   0.989  0.8200  0.2873  0.9408
  593SOL     OW 1777   0.834   2.291   1.429 -0.1484 -0.2220  0.0948
  593SOL    HW1 1778   0.875   2.205   1.386  0.1339  0.7020 -1.9658
  593SOL    HW2 1779   0.734   2.284   1.435  1.9406  0.9376 -2.2205
  594SOL     OW 1780   1.234   1.505   0.304  0.6338 -0.1246 -0.4227
  594SOL    HW1 1781   1.296   1.504   0.385  0.2277 -0.0257  2.0224
  594SOL    HW2 1782   1.279   1.524   0.212  1.9553  0.9620 -1.1185
  595SOL     OW 1783   1.543   0.895   1.417 -0.0995  0.3602 -0.8269
  595SOL    HW1 1784   1.561   0.996   1.404  1.2264  2.5954  1.5837
  595SOL    HW2 1785   1.479   0.890   1.503 -3.0156  1.5418 -0.4486
  596SOL     OW 1786   0.026   0.647   1.632 -0.0982 -0.0392  0.0733
  596SOL    HW1 1787   3.039   0.598   1.683 -0.7719 -4.1421  4.1509
  596SOL    HW2 1788   3.082   0.727   1.580 -1.2271 -1.4459  1.5375
  597SOL     OW 1789   1.137   2.655   2.081 -0.5695 -0.0439  0.6289
  597SOL    HW1 1790   1.054   2.674   2.028 -0.6174 -0.0968 -0.4396
  597SOL    HW2 1791   1.121   2.630   2.179  1.9073  0.8229  2.0448
  598SOL     OW 1792   2.384   1.333   1.662 -0.0110 -0.0826  0.6716
  598SOL    HW1 1793   2.331   1.377   1.584 -0.3818  0.4025  0.1110
  598SOL    HW2 1794   2.451   1.403   1.693 -0.7333 -0.4844 -2.3770
  599SOL     OW 1795   0.893   2.795   0.056 -0.4187  1.2386  0.5938
  599SOL    HW1 1796   0.798   2.807   0.086  0.8033  2.0549 -0.0583
  599SOL    HW2 1797   0.918   2.699   0.061  2.0311 -0.5537 -0.6130
  600SOL     OW 1798   3.081   2.332   0.090 -0.2801 -0.0668 -0.8621
  600SOL    HW1 1799   3.000   2.285   0.120  0.6233  3.2372 -1.4815
  600SOL    HW2 1800   0.066   2.269   0.071 -2.1350  1.9130  1.8942
  601SOL     OW 1801   0.543   0.814   1.470 -0.1456 -0.1053  0.5037
  601SOL    HW1 1802   0.466   0.873   1.495  1.9750  1.4348 -0.5862
  601SOL    HW2 1803   0.588   0.768   1.551  0.1583  0.8221 -1.0742
  602SOL     OW 1804   0.611   0.190   1.003  0.1258 -0.1647 -0.3124
  602SOL    HW1 1805   0.591   0.142   1.094 -0.2367  0.1679 -1.6574
  602SOL    HW2 1806   0.595   0.131   0.923  0.6715 -0.4974  0.1461
  603SOL     OW 1807   0.202   0.252   2.587  0.5566  0.2926  0.0648
  603SOL    HW1 1808   0.181   0.177   2.649  0.1153 -0.0358  0.6977
  603SOL    HW2 1809   0.306   0.264   2.573  2.3219 -0.1208  0.3377
  604SOL     OW 1810   1.233   2.603   1.513  0.3608 -0.5048  0.0700
  604SOL    HW1 1811   1.260   2.528   1.577 -0.1102  0.0911 -1.6172
  604SOL    HW2 1812   1.156   2.561   1.463  2.6536  1.0648 -0.1403
  605SOL     OW 1813   1.397   1.199   1.719  0.1763 -0.6418  0.5230
  605SOL    HW1 1814   1.433   1.297   1.708 -0.9928  0.1635  0.9262
  605SOL    HW2 1815   1.309   1.199   1.773  0.0506  0.5925 -0.2529
  606SOL     OW 1816   2.023   2.918   2.729 -0.1851  0.4967 -0.0293
  606SOL    HW1 1817   1.999   2.880   2.822 -0.2602  1.7274  0.4658
  606SOL    HW2 1818   1.983   3.012   2.722 -3.3571  0.1002 -0.5441
  607SOL     OW 1819   0.957   0.386   1.557 -0.4369  0.4358 -0.1218
  607SOL    HW1 1820   1.032   0.356   1.500 -0.7431 -1.6730 -0.3614
  607SOL    HW2 1821   0.866   0.380   1.508 -1.5214  1.3824 -0.6222
  608SOL     OW 1822   0.458   2.347   2.527  0.2724 -0.2944  0.5900
  608SOL    HW1 1823   0.420   2.288   2.453  1.8949 -0.6904 -2.0621
  608SOL    HW2 1824   0.558   2.332   2.535 -4.0018  1.3434 -1.0471
  609SOL     OW 1825   1.157   1.186   0.307  0.2774  0.1236 -0.4181
  609SOL    HW1 1826   1.118   1.095   0.273 -2.4318 -3.6930  0.3936
  609SOL    HW2 1827   1.200   1.244   0.230  0.9029  0.6589 -0.2170
  610SOL     OW 1828   0.324   0.135   0.937  0.2639 -0.2462 -0.0636
  610SOL    HW1 1829   0.394   0.095   0.880  0.1062 -0.6279 -2.2321
  610SOL    HW2 1830   0.361   0.151   1.033 -2.2193  0.9570 -1.4116
  611SOL     OW 1831   1.212   1.300   0.540  0.4317 -0.5775 -0.2519
  611SOL    HW1 1832   1.203   1.261   0.443 -0.1593 -1.7182  1.7950
  611SOL    HW2 1833   1.222   1.229   0.609 -0.9457  2.1219 -0.1740
  612SOL     OW 1834   2.264   1.722   0.108  0.6855  0.1578 -0.5150
  612SOL    HW1 1835   2.208   1.801   0.138 -1.1196 -1.0881  0.6454
  612SOL    HW2 1836   2.210   1.637   0.130 -0.5689 -0.2218 -2.3315
  613SOL     OW 1837   1.676   1.394   0.143 -0.1002 -0.1963 -0.0515
  613SOL    HW1 1838   1.735   1.309   0.152 -1.0898  0.0811 -1.8787
  613SOL    HW2 1839   1.599   1.364   0.082 -0.6870 -0.3895 -0.2877
  614SOL     OW 1840   2.675   0.245   2.443  0.5874  0.1517  0.1492
  614SOL    HW1 1841   2.613   0.176   2.395  0.1171  1.3156 -0.2957
  614SOL    HW2 1842   2.769   0.256   2.401  2.1199  1.5959 -0.9437
  615SOL     OW 1843   0.943   1.572   0.526 -0.1180 -0.1045 -0.4222
  615SOL    HW1 1844   1.009   1.598   0.601  0.1196  0.0787  0.7549
  615SOL    HW2 1845   0.980   1.594   0.435  0.8400  1.9183 -0.4025
  616SOL     OW 1846   1.594   0.897   2.924  0.0675  0.3004  0.6620
  616SOL    HW1 1847   1.573   0.865   2.829 -4.4734  1.4621 -1.1671
  616SOL    HW2 1848   1.559   0.835   2.996  1.4140  0.7318  1.9802
  617SOL     OW 1849   1.551   0.141   0.245  0.1620 -0.5607 -0.4086
  617SOL    HW1 1850   1.597   0.199   0.311 -3.3237  1.2268 -0.0024
  617SOL    HW2 1851   1.469   0.101   0.290  1.5926  0.2222  1.5350
  618SOL     OW 1852   2.919   2.080   2.295 -0.4540 -0.5245  0.0823
  618SOL    HW1 1853   2.841   2.125   2.342  0.8754  0.3049  1.7650
  618SOL    HW2 1854   2.997   2.144   2.269  4.1049  2.2994 -2.8110
  619SOL     OW 1855   2.246   1.680   0.739 -0.6910 -0.4163  0.2969
  619SOL    HW1 1856   2.190   1.753   0.784  2.0664 -0.1066  0.6954
  619SOL    HW2 1857   2.337   1.724   0.708  2.3918 -1.1565  3.2350
  620SOL     OW 1858   2.437   3.086   1.511 -0.1929 -0.1455 -0.5134
  620SOL    HW1 1859   2.376   3.061   1.436 -1.1723 -2.2368  1.1167
  620SOL    HW2 1860   2.533   3.051   1.498 -0.3942  1.0336 -2.6672
  621SOL     OW 1861   2.990   2.026   0.718  0.0216 -0.3304  0.0836
  621SOL    HW1 1862   2.981   1.926   0.731  1.8106 -2.4479 -0.8715
  621SOL    HW2 1863   3.063   2.060   0.783  0.9816  1.1619  0.2729
  622SOL     OW 1864   0.717   1.549   2.298 -0.1313 -0.4357  0.6377
  622SOL    HW1 1865   0.632   1.513   2.238 -2.6051  1.5908 -2.1131
  622SOL    HW2 1866   0.799   1.511   2.248  1.1397 -0.6152  1.7601
  623SOL     OW 1867   2.631   2.707   2.626  0.0554 -0.1434  0.1351
  623SOL    HW1 1868   2.619   2.799   2.673 -0.1781  1.5854  0.1873
  623SOL    HW2 1869   2.719   2.666   2.654  0.0245 -2.8594 -0.9780
  624SOL     OW 1870   1.028   1.684   0.279 -0.1468 -0.0578 -0.2863
  624SOL    HW1 1871   1.087   1.602   0.270  0.5397  2.2741  1.3924
  624SOL    HW2 1872   1.065   1.749   0.351  0.9892  0.5046 -1.4198
  625SOL     OW 1873   0.489   2.024   2.169  0.0395  0.4183 -0.1167
  625SOL    HW1 1874   0.552   1.947   2.192 -1.4049 -2.4268  1.7141
  625SOL    HW2 1875   0.445   2.002   2.078 -0.6172  2.0326  0.9096
  626SOL     OW 1876   0.062   2.475   0.404  0.1213 -0.1116  0.4183
  626SOL    HW1 1877   0.146   2.487   0.459 -2.3409  0.5935 -0.2235
  626SOL    HW2 1878   0.056   2.373   0.397  0.5854  1.6416  0.7392
  627SOL     OW 1879   0.902   1.707   2.753  0.5378  0.4021 -0.5460
  627SOL    HW1 1880   0.906   1.665   2.661 -1.2217  1.2219 -1.4452
  627SOL    HW2 1881   0.937   1.803   2.754  1.6680 -1.9062  0.1075
  628SOL     OW 1882   1.506   2.130   0.556  0.1969  0.1635 -0.3655
  628SOL    HW1 1883   1.473   2.167   0.644 -0.4332 -0.7723 -0.5951
  628SOL    HW2 1884   1.610   2.130   0.553  0.3103  0.0803 -2.9539
  629SOL     OW 1885   0.897   0.651   1.630  0.2612  0.6571  0.1322
  629SOL    HW1 1886   0.943   0.688   1.713  1.4085 -2.0297  0.2647
  629SOL    HW2 1887   0.933   0.557   1.612 -1.1193  0.8267  1.8321
  630SOL     OW 1888   2.565   0.281   1.700  0.0275 -0.5302  0.2033
  630SOL    HW1 1889   2.477   0.222   1.706  0.2302 -0.6764  2.0922
  630SOL    HW2 1890   2.619   0.278   1.792  3.2660  0.5108  1.8118
  631SOL     OW 1891   1.332   0.663   0.750  0.2743  0.0029  0.0818
  631SOL    HW1 1892   1.351   0.715   0.666 -0.4472 -0.9455  0.2161
  631SOL    HW2 1893   1.326   0.565   0.728 -0.3795  2.0310 -2.4370
  632SOL     OW 1894   2.329   0.458   2.070 -0.5404  0.5513  0.2889
  632SOL    HW1 1895   2.285   0.527   2.126 -1.6141 -1.9759 -0.4205
  632SOL    HW2 1896   2.266   0.380   2.055  2.1478 -2.0556  1.7752
  633SOL     OW 1897   1.227   1.317   2.842 -0.3699  0.2592 -0.1980
  633SOL    HW1 1898   1.205   1.352   2.752  1.0384 -1.1976  2.5114
  633SOL    HW2 1899   1.275   1.227   2.833  0.5834 -0.0219  0.5340
  634SOL     OW 1900   0.393   2.252   0.152 -0.1348  0.3688 -0.0012
  634SOL    HW1 1901   0.416   2.342   0.197 -0.5387  1.3105 -1.3712
  634SOL    HW2 1902   0.454   2.172   0.193  2.0472 -2.3652  0.7872
  635SOL     OW 1903   2.765   1.570   1.874 -0.2344 -0.2872  0.4431
  635SOL    HW1 1904   2.668   1.560   1.838 -0.0331 -0.8523 -1.2255
  635SOL    HW2 1905   2.788   1.485   1.931  1.0560 -4.9099 -0.3193
  636SOL     OW 1906   0.424   1.810   0.141 -0.2808  0.3317  0.8614
  636SOL    HW1 1907   0.454   1.723   0.101 -2.6962 -0.2584  2.4388
  636SOL    HW2 1908   0.322   1.817   0.132 -0.1819 -0.0129 -1.4399
  637SOL     OW 1909   0.079   2.210   0.455  0.3402 -0.0698 -0.5740
  637SOL    HW1 1910   0.131   2.174   0.375  0.1031  0.7280 -3.5537
  637SOL    HW2 1911   3.083   2.161   0.480  0.9991  0.0375  2.3443
  638SOL     OW 1912   2.651   2.721   0.550  0.0285  0.0538 -0.1979
  638SOL    HW1 1913   2.648   2.705   0.651  1.1306  0.2863 -1.8498
  638SOL    HW2 1914   2.628   2.636   0.504  0.4760 -0.5961 -0.1405
  639SOL     OW 1915   1.080   0.499   0.252 -0.4393  0.3805 -0.1780
  639SOL    HW1 1916   1.061   0.598   0.238 -3.0974 -0.6427 -2.1139
  639SOL    HW2 1917   1.170   0.472   0.218  0.5170 -1.8319  1.7539
  640SOL     OW 1918   2.279   2.460   1.793  0.0179  0.0290 -0.0414
  640SOL    HW1 1919   2.316   2.377   1.743  2.9487  0.0724 -0.9099
  640SOL    HW2 1920   2.307   2.550   1.746 -1.3817  1.5930  0.7893
  641SOL     OW 1921   2.744   3.008   1.219 -0.0254  0.1000  0.1530
  641SOL    HW1 1922   2.803   3.048   1.147  1.6411  2.1800  4.3384
  641SOL    HW2 1923   2.777   2.916   1.255  0.8324  0.4229  3.1061
  642SOL     OW 1924   1.424   0.937   1.656 -0.0660 -0.4721 -0.1235
  642SOL    HW1 1925   1.407   1.036   1.674  0.0171  1.6236 -1.3838
  642SOL    HW2 1926   1.361   0.880   1.713  0.2137 -0.4306 -1.3205
  643SOL     OW 1927   1.036   1.691   2.229 -0.6481 -0.6014  0.0522
  643SOL    HW1 1928   1.078   1.610   2.190  0.7666 -0.6888  0.1282
  643SOL    HW2 1929   0.979   1.746   2.163  1.1453  0.0719  1.5601
  644SOL     OW 1930   1.292   0.296   2.028  0.2545  0.3450 -0.2167
  644SOL    HW1 1931   1.195   0.281   2.052 -0.4560 -0.5652 -1.3103
  644SOL    HW2 1932   1.348   0.236   2.087 -0.7154 -0.1939 -0.5966
  645SOL     OW 1933   1.709   1.128   1.629  0.5430 -0.5581  0.1079
  645SOL    HW1 1934   1.643   1.145   1.552 -1.0382  1.8906 -2.7297
  645SOL    HW2 1935   1.661   1.132   1.719  0.6759  0.4494 -2.2164
  646SOL     OW 1936   1.535   2.275   0.123  0.4623 -0.0862 -0.0631
  646SOL    HW1 1937   1.560   2.295   0.026  0.0695 -1.0875  0.8403
  646SOL    HW2 1938   1.615   2.241   0.171  0.0417 -1.1340  0.5629
  647SOL     OW 1939   1.766   2.654   1.119 -0.1476 -0.2177 -0.1535
  647SOL    HW1 1940   1.794   2.582   1.056  0.7244  2.3597  1.9166
  647SOL    HW2 1941   1.669   2.638   1.149 -0.1307  1.6233  1.7767
  648SOL     OW 1942   0.040   2.439   1.420 -0.4716  0.2064  0.0241
  648SOL    HW1 1943   0.053   2.540   1.447 -0.2076  4.5839  0.5435
  648SOL    HW2 1944   3.076   2.394   1.496 -0.2814  0.3348 -0.7253
  649SOL     OW 1945   1.276   2.434   2.831  0.1800 -0.5357 -0.2706
  649SOL    HW1 1946   1.309   2.393   2.920 -0.9036 -2.8168  1.0805
  649SOL    HW2 1947   1.179   2.462   2.839  1.0879  0.0173 -2.6932
  650SOL     OW 1948   2.869   1.947   0.043  0.1256  0.0768  0.3650
  650SOL    HW1 1949   2.894   1.875   0.109 -3.3734 -1.9040 -0.9041
  650SOL    HW2 1950   2.933   1.940   3.052  3.5776 -1.4778  2.1229
  651SOL     OW 1951   2.645   2.095   2.097  0.2256  1.1900  0.6779
  651SOL    HW1 1952   2.588   2.179   2.081  1.4019  1.1867 -2.7908
  651SOL    HW2 1953   2.742   2.107   2.106 -0.5088 -2.8031  0.6505
  652SOL     OW 1954   2.403   2.534   0.580  1.0718  0.7017  0.1874
  652SOL    HW1 1955   2.344   2.600   0.524 -5.1353  1.5516 -0.1858
  652SOL    HW2 1956   2.471   2.484   0.528 -0.0128  1.0082  1.3025
  653SOL     OW 1957   2.866   1.734   1.646  0.1083 -0.7887  0.5581
  653SOL    HW1 1958   2.900   1.640   1.647  0.6593  1.9699 -0.3186
  653SOL    HW2 1959   2.944   1.800   1.625 -1.4702 -0.4377  0.5796
  654SOL     OW 1960   0.908   0.952   3.058 -0.1166 -0.7947  0.2691
  654SOL    HW1 1961   0.944   1.030   2.998  2.0927  4.9838 -0.8293
  654SOL    HW2 1962   0.912   0.865   3.006  0.3017 -0.5065 -1.5592
  655SOL     OW 1963   0.878   1.134   1.200 -0.3825  0.3632 -0.2910
  655SOL    HW1 1964   0.938   1.214   1.209 -1.6404 -0.4096  2.7393
  655SOL    HW2 1965   0.918   1.063   1.139 -0.6725  0.7440  0.1156
  656SOL     OW 1966   1.419   2.632   2.086 -0.0982 -0.1627 -0.6079
  656SOL    HW1 1967   1.443   2.538   2.123  1.4796 -1.1824 -2.9046
  656SOL    HW2 1968   1.317   2.643   2.075  0.2395  2.6577 -1.1493
  657SOL     OW 1969   2.088   1.538   0.159 -0.7641 -0.6577  0.2173
  657SOL    HW1 1970   2.040   1.486   0.234 -0.7553  0.3229 -0.7990
  657SOL    HW2 1971   2.140   1.468   0.100  3.3042 -0.1671 -1.6135
  658SOL     OW 1972   1.868   2.501   1.547 -0.0405 -0.0363 -0.6760
  658SOL    HW1 1973   1.905   2.440   1.620 -1.2464 -1.9274 -1.9971
  658SOL    HW2 1974   1.868   2.598   1.576  2.3292 -0.0732  1.9325
  659SOL     OW 1975   2.942   1.757   0.216 -0.0735  0.0797  0.7121
  659SOL    HW1 1976   2.920   1.673   0.155 -1.7117 -0.3388  0.6177
  659SOL    HW2 1977   3.020   1.728   0.276  0.5435 -0.0204  2.0877
  660SOL     OW 1978   1.096   0.219   0.587  0.0667 -0.0306  0.3113
  660SOL    HW1 1979   1.069   0.226   0.492  1.2248 -1.4044 -1.1518
  660SOL    HW2 1980   1.097   0.120   0.604  0.5791  1.8778  1.0221
  661SOL     OW 1981   2.045   0.100   2.869  0.1549 -0.3300 -0.1670
  661SOL    HW1 1982   2.119   0.141   2.924  0.0340  0.3791  0.2227
  661SOL    HW2 1983   1.972   0.065   2.930 -0.3841  2.0224  0.8096
  662SOL     OW 1984   0.349   0.224   0.466  0.1338  0.1522 -0.5490
  662SOL    HW1 1985   0.337   0.150   0.537  0.1942  4.5676 -1.2241
  662SOL    HW2 1986   0.394   0.308   0.505 -1.9382 -0.5600 -1.3332
  663SOL     OW 1987   1.678   2.908   2.596  0.4429 -0.3444  0.4111
  663SOL    HW1 1988   1.655   2.892   2.499  1.8176  0.0483  1.1867
  663SOL    HW2 1989   1.748   2.988   2.610  3.9335  4.5729 -0.1136
  664SOL     OW 1990   0.574   2.654   1.689 -0.2287  0.1898  0.3596
  664SOL    HW1 1991   0.475   2.650   1.693  1.6273  1.2422  0.0434
  664SOL    HW2 1992   0.604   2.678   1.593 -2.1712 -0.4685 -0.5001
  665SOL     OW 1993   1.518   2.571   1.209 -0.5531 -0.0719  0.4804
  665SOL    HW1 1994   1.472   2.649   1.257 -1.3822 -1.7332 -2.3020
  665SOL    HW2 1995   1.555   2.502   1.275 -0.4924 -2.0452  1.8773
  666SOL     OW 1996   0.989   2.820   2.386 -0.0384  0.3992 -0.2606
  666SOL    HW1 1997   1.058   2.747   2.384 -4.3703 -0.9821  0.0894
  666SOL    HW2 1998   0.905   2.782   2.423  2.1638  3.1535 -1.6970
  667SOL     OW 1999   2.581   0.548   1.665 -0.2974 -0.1706 -0.0057
  667SOL    HW1 2000   2.656   0.558   1.591  2.0331 -2.8116 -0.8112
  667SOL    HW2 2001   2.549   0.454   1.676 -1.3295  0.4649 -1.0518
  668SOL     OW 2002   1.172   0.308   1.397 -0.2422  0.6408 -0.0474
  668SOL    HW1 2003   1.143   0.243   1.322 -0.5185 -0.2394 -1.5999
  668SOL    HW2 2004   1.175   0.406   1.361  1.6517  0.0443  0.6018
  669SOL     OW 2005   2.201   2.421   1.186  0.3111  0.6039 -0.1662
  669SOL    HW1 2006   2.116   2.475   1.195  2.3016  0.6826 -2.4065
  669SOL    HW2 2007   2.229   2.372   1.270  3.4662  1.9902  0.8161
  670SOL     OW 2008   1.574   2.289   2.950 -0.5001 -0.1952 -0.6192
  670SOL    HW1 2009   1.563   2.372   2.894 -2.8988 -1.3544  2.0592
  670SOL    HW2 2010   1.587   2.210   2.887 -1.5591  2.7613  2.3154
  671SOL     OW 2011   0.668   1.054   0.346 -0.4445  0.5827  0.1985
  671SOL    HW1 2012   0.694   1.131   0.283  2.4808  0.0874  2.1425
  671SOL    HW2 2013   0.573   1.019   0.328 -1.3435 -0.7319  0.6041
  672SOL     OW 2014   2.654   0.918   2.934 -0.2764  0.2466 -0.3694
  672SOL    HW1 2015   2.695   0.986   2.998  1.6361  3.0802 -0.5697
  672SOL    HW2 2016   2.725   0.852   2.900  2.3509 -3.5191  0.8939
  673SOL     OW 2017   3.071   1.892   1.574  0.0665  0.0355 -0.4162
  673SOL    HW1 2018   3.037   1.969   1.517  0.4426  2.8559  0.1552
  673SOL    HW2 2019   0.056   1.841   1.525  0.2060 -1.1742 -1.4013
  674SOL     OW 2020   1.346   2.066   1.559 -0.0377 -0.3152 -0.2130
  674SOL    HW1 2021   1.249   2.102   1.551 -2.2185 -0.1891 -0.1196
  674SOL    HW2 2022   1.366   1.981   1.507  0.2766 -0.6748  1.7536
  675SOL     OW 2023   0.966   1.380   1.386 -0.7185  0.2220  0.1552
  675SOL    HW1 2024   1.020   1.470   1.396  1.7576  0.4528 -1.3871
  675SOL    HW2 2025   0.885   1.387   1.328  1.1326 -1.2784  1.7421
  676SOL     OW 2026   2.292   0.674   1.041  0.4021 -0.1615  0.7244
  676SOL    HW1 2027   2.259   0.708   0.947 -0.9577  1.5514 -3.0335
  676SOL    HW2 2028   2.391   0.692   1.051 -0.4460 -0.5899  1.1169
  677SOL     OW 2029   2.535   0.308   0.298  0.1365  0.0716 -0.5555
  677SOL    HW1 2030   2.470   0.335   0.221 -0.3522 -2.1533 -1.4730
  677SOL    HW2 2031   2.625   0.293   0.256 -0.6016  1.6626  2.0811
  678SOL     OW 2032   2.547   1.558   0.992 -0.5663  0.3567  0.1193
  678SOL    HW1 2033   2.631   1.511   0.951 -0.8604 -1.9266  2.6971
  678SOL    HW2 2034   2.463   1.506   0.964  0.6258  0.5289  0.6362
  679SOL     OW 2035   2.521   0.580   3.048 -0.2409 -0.5645  0.2440
  679SOL    HW1 2036   2.568   0.647   0.022 -0.5226  1.2783  1.1737
  679SOL    HW2 2037   2.574   0.492   3.050 -0.3935 -2.3079  1.4823
  680SOL     OW 2038   0.442   1.242   2.242  0.5223  0.1738 -0.3143
  680SOL    HW1 2039   0.479   1.148   2.215 -0.6317  0.0771 -0.7308
  680SOL    HW2 2040   0.386   1.240   2.330 -0.9453  0.1312  2.0842
  681SOL     OW 2041   2.406   2.260   1.654  0.0217  0.2592 -0.2604
  681SOL    HW1 2042   2.489   2.309   1.619  3.4335 -0.0180 -2.9621
  681SOL    HW2 2043   2.422   2.167   1.689 -2.4871 -0.1749  0.3987
  682SOL     OW 2044   0.646   1.910   2.939 -0.0013  0.4479 -0.8576
  682SOL    HW1 2045   0.634   1.908   2.838  0.5046 -1.7079  0.6630
  682SOL    HW2 2046   0.565   1.947   2.988  1.8063  0.5476  1.2351
  683SOL     OW 2047   2.483   1.998   1.140 -0.2696  0.6919 -0.6335
  683SOL    HW1 2048   2.525   1.910   1.182  0.2242 -0.6570  2.1698
  683SOL    HW2 2049   2.463   2.051   1.226 -0.3202  2.3815  0.2052
  684SOL     OW 2050   2.598   1.023   1.826  0.8520 -0.1641  0.0097
  684SOL    HW1 2051   2.500   0.992   1.831 -0.1218 -1.5480  1.7655
  684SOL    HW2 2052   2.643   1.028   1.921 -1.0541 -1.5630  1.3562
  685SOL     OW 2053   0.948   0.953   0.990  0.2903 -0.3569 -0.3816
  685SOL    HW1 2054   1.011   0.872   0.973  2.1895 -1.7598 -0.1007
  685SOL    HW2 2055   0.871   0.955   0.924 -0.1746 -3.0015 -0.8406
  686SOL     OW 2056   0.693   0.277   2.949  0.3083  0.3826  0.0035
  686SOL    HW1 2057   0.733   0.183   2.940 -0.3939 -0.5729  0.1819
  686SOL    HW2 2058   0.607   0.278   3.006  0.1678  3.2499  2.3198
  687SOL     OW 2059   0.600   2.276   2.212  0.0784  0.7445 -0.5748
  687SOL    HW1 2060   0.525   2.321   2.160  1.4424 -0.0933  1.0224
  687SOL    HW2 2061   0.583   2.173   2.216  0.8169  2.2269 -0.0464
  688SOL     OW 2062   2.198   0.333   1.533 -0.4763 -0.3175  0.1864
  688SOL    HW1 2063   2.122   0.383   1.578  1.6705 -0.2719 -1.2172
  688SOL    HW2 2064   2.208   0.364   1.436 -0.1217 -0.4151 -1.2282
  689SOL     OW 2065   1.971   0.871   0.607 -0.4716 -0.3154  0.5222
  689SOL    HW1 2066   1.870   0.881   0.589 -0.3371  0.7840 -1.1444
  689SOL    HW2 2067   1.993   0.778   0.637 -1.2973  0.7237 -0.8885
  690SOL     OW 2068   3.051   0.876   1.513  0.5837 -0.1941 -0.2966
  690SOL    HW1 2069   3.027   0.960   1.570 -0.3409  1.9438  1.4333
  690SOL    HW2 2070   3.006   0.864   1.419 -1.2007 -1.2733  0.7335
  691SOL     OW 2071   0.015   0.918   1.834  0.1088  0.0594  0.1201
  691SOL    HW1 2072   3.029   0.935   1.771  1.8893 -0.4095 -0.6018
  691SOL    HW2 2073   0.066   0.837   1.800 -1.4411  0.1962 -0.3588
  692SOL     OW 2074   0.925   0.894   2.109 -0.3461 -0.1053  0.1186
  692SOL    HW1 2075   0.904   0.807   2.055  0.4633 -1.9886  1.2810
  692SOL    HW2 2076   0.900   0.975   2.053 -0.8147 -2.1301 -1.2415
  693SOL     OW 2077   0.311   1.201   2.010 -0.7263  0.3010 -0.4516
  693SOL    HW1 2078   0.219   1.253   2.015  0.5282  1.0899  0.2616
  693SOL    HW2 2079   0.359   1.207   2.099 -2.7389 -0.0036 -2.6684
  694SOL     OW 2080   1.472   1.637   0.492  0.3947  0.2562  0.3041
  694SOL    HW1 2081   1.542   1.572   0.446  0.4092 -0.6595  1.3213
  694SOL    HW2 2082   1.479   1.729   0.454  0.1859 -2.0569  0.1037
  695SOL     OW 2083   0.234   0.938   1.026 -0.5257  0.1912 -1.0856
  695SOL    HW1 2084   0.269   1.032   1.052  1.9910 -2.1852 -1.1221
  695SOL    HW2 2085   0.198   0.886   1.109  1.1716 -1.9766 -0.8844
  696SOL     OW 2086   0.535   2.410   0.754  0.3717  0.1254 -0.2189
  696SOL    HW1 2087   0.470   2.403   0.680  1.1079  0.5259  1.0250
  696SOL    HW2 2088   0.610   2.339   0.734 -0.2548 -0.0911 -1.6712
  697SOL     OW 2089   1.194   0.573   1.371 -0.4467  0.0016 -0.5646
  697SOL    HW1 2090   1.287   0.598   1.336 -0.5317 -1.4829 -0.9680
  697SOL    HW2 2091   1.128   0.652   1.383  0.2125  1.5116  1.5363
  698SOL     OW 2092   1.693   1.574   1.777 -0.1059 -0.2693 -0.3817
  698SOL    HW1 2093   1.614   1.542   1.723  0.0641 -0.6557 -2.6172
  698SOL    HW2 2094   1.716   1.673   1.769 -1.6803  1.1033  1.1722
  699SOL     OW 2095   0.038   0.664   2.468 -0.1206 -0.9995  0.0394
  699SOL    HW1 2096   0.045   0.656   2.370  1.4261 -0.0305  1.7074
  699SOL    HW2 2097   0.103   0.730   2.509 -2.9481 -0.7075 -2.9153
  700SOL     OW 2098   1.583   2.464   0.656 -0.2808 -0.3936 -0.3256
  700SOL    HW1 2099   1.578   2.557   0.692 -0.9573 -2.2692 -4.6934
  700SOL    HW2 2100   1.501   2.408   0.686 -1.0214 -1.1008 -1.3097
  701SOL     OW 2101   0.299   1.592   2.439  0.7472  0.3480 -0.1215
  701SOL    HW1 2102   0.263   1.540   2.521  0.8068 -2.5377  3.1146
  701SOL    HW2 2103   0.361   1.662   2.475  1.2060  0.2039  2.1511
  702SOL     OW 2104   0.420   0.245   3.055  0.3866 -0.0981  0.3735
  702SOL    HW1 2105   0.354   0.165   3.061 -2.2773 -0.6104 -0.0389
  702SOL    HW2 2106   0.367   0.333   3.055 -0.9427 -0.9406 -1.2811
  703SOL     OW 2107   1.473   0.218   2.868  0.2320  0.3757  0.4066
  703SOL    HW1 2108   1.548   0.218   2.801 -1.6423  0.3454  1.6478
  703SOL    HW2 2109   1.384   0.231   2.815  1.3070  0.7411 -1.2301
  704SOL     OW 2110   2.696   1.788   0.749 -0.2016 -0.2959  0.2393
  704SOL    HW1 2111   2.771   1.734   0.787  0.2165  2.7551 -2.0910
  704SOL    HW2 2112   2.728   1.843   0.667 -0.3828 -0.5304  1.0774
  705SOL     OW 2113   2.849   1.879   1.920 -0.0021  0.1671 -0.1325
  705SOL    HW1 2114   2.805   1.803   1.872  2.4438 -1.3180  0.2716
  705SOL    HW2 2115   2.828   1.874   2.020  1.6482 -3.1238 -1.2074
  706SOL     OW 2116   3.041   2.819   1.088 -0.0361  0.5534  0.4014
  706SOL    HW1 2117   3.007   2.818   0.989 -1.7935 -0.9422 -0.3571
  706SOL    HW2 2118   0.035   2.875   1.092 -2.2069 -0.4807 -1.1070
  707SOL     OW 2119   0.887   3.053   0.228 -0.0472 -0.5162 -0.5039
  707SOL    HW1 2120   0.910   2.987   0.309  0.6137 -1.9481 -0.1299
  707SOL    HW2 2121   0.887   3.009   0.139 -0.8259  1.3590  2.4529
  708SOL     OW 2122   0.570   2.284   1.433  0.2231 -0.0084  0.5870
  708SOL    HW1 2123   0.560   2.227   1.347  0.1024 -1.5138 -1.0402
  708SOL    HW2 2124   0.485   2.338   1.456 -2.0304 -0.7095  1.8078
  709SOL     OW 2125   1.384   0.127   2.237  0.3424 -0.0247  0.3285
  709SOL    HW1 2126   1.309   0.179   2.283 -1.2290 -0.4605  0.4815
  709SOL    HW2 2127   1.338   0.038   2.198 -1.9136 -2.2293 -0.2930
  710SOL     OW 2128   1.418   2.851   2.700 -0.0057  0.4834 -0.3940
  710SOL    HW1 2129   1.424   2.829   2.798  2.3270 -0.6178  2.0606
  710SOL    HW2 2130   1.513   2.875   2.670 -3.0911 -2.3487  2.6275
  711SOL     OW 2131   1.230   2.061   2.646 -0.2352  0.4721 -0.0969
  711SOL    HW1 2132   1.211   1.985   2.585  1.0284  2.9103  1.1040
  711SOL    HW2 2133   1.287   2.136   2.612 -0.9789 -4.0771  0.0076
  712SOL     OW 2134   0.972   1.938   2.869 -0.1507 -0.9281  0.2409
  712SOL    HW1 2135   0.983   2.027   2.817  2.2360 -1.0578 -1.0119
  712SOL    HW2 2136   0.901   1.946   2.946 -1.1514 -1.3802  2.4170
  713SOL     OW 2137   1.168   0.960   1.899 -0.2702  0.1591  0.1222
  713SOL    HW1 2138   1.071   0.959   1.927 -1.0146 -0.5923  1.2257
  713SOL    HW2 2139   1.193   0.881   1.838 -0.6429 -0.6588 -1.9671
  714SOL     OW 2140   1.318   1.472   1.111 -1.0173  0.2486  0.0606
  714SOL    HW1 2141   1.389   1.464   1.037 -1.6341  0.2592  2.2826
  714SOL    HW2 2142   1.295   1.569   1.127  2.8035  0.7095  2.1503
  715SOL     OW 2143   2.453   0.179   0.816 -0.5338 -0.7277  0.3309
  715SOL    HW1 2144   2.444   0.213   0.914 -0.4914  2.4381  1.8376
  715SOL    HW2 2145   2.462   0.260   0.754  1.1205  2.0841 -1.2657
  716SOL     OW 2146   0.567   2.758   0.571 -0.1904  0.4295 -0.3749
  716SOL    HW1 2147   0.607   2.750   0.667 -0.1292 -1.9405  0.3603
  716SOL    HW2 2148   0.599   2.693   0.502 -0.5663  0.9757 -0.6116
  717SOL     OW 2149   2.962   0.561   0.127 -0.2369 -0.0182  0.1529
  717SOL    HW1 2150   2.973   0.456   0.127  0.2953  1.5774 -0.2196
  717SOL    HW2 2151   2.868   0.588   0.141  0.7537 -1.4441  0.0179
  718SOL     OW 2152   1.728   1.918   1.095 -0.0447  0.0445  0.3191
  718SOL    HW1 2153   1.810   1.882   1.043  2.2721 -1.1109 -1.5283
  718SOL    HW2 2154   1.716   2.015   1.065  1.1031 -0.7554  0.9148
  719SOL     OW 2155   2.774   2.191   1.010  0.4048 -0.1253  0.7818
  719SOL    HW1 2156   2.717   2.142   0.944  1.8864  0.6884  1.2748
  719SOL    HW2 2157   2.856   2.241   0.965 -2.6916 -1.2443 -0.7061
  720SOL     OW 2158   0.629   1.098   1.160  0.1932  0.3186  0.2890
  720SOL    HW1 2159   0.725   1.117   1.176 -2.8518 -0.5978 -0.0688
  720SOL    HW2 2160   0.599   1.096   1.062 -1.5412 -1.1140  3.4581
  721SOL     OW 2161   1.474   0.682   1.016  0.1840 -0.0088  0.2358
  721SOL    HW1 2162   1.427   0.687   0.926  0.8966 -0.7618 -0.6678
  721SOL    HW2 2163   1.577   0.702   1.025  0.0947  1.7879  0.6920
  722SOL     OW 2164   1.207   1.428   2.145 -0.2374 -0.6299 -0.8389
  722SOL    HW1 2165   1.263   1.501   2.189 -2.5876  0.3576 -2.4507
  722SOL    HW2 2166   1.126   1.401   2.200  3.2391  0.6256  1.2838
  723SOL     OW 2167   1.075   2.944   1.370 -0.0662  0.2479 -0.3518
  723SOL    HW1 2168   1.062   3.043   1.333 -0.7747  1.7540 -0.2047
  723SOL    HW2 2169   1.151   2.931   1.436  0.6267  1.5886 -0.0981
  724SOL     OW 2170   2.040   2.136   1.634 -0.0413 -0.2053  0.5851
  724SOL    HW1 2171   2.032   2.225   1.683 -0.8505 -2.2455 -0.6158
  724SOL    HW2 2172   1.945   2.103   1.603  3.0548  1.5317  0.1026
  725SOL     OW 2173   1.105   2.790   1.136 -0.5755  0.0491 -0.0400
  725SOL    HW1 2174   1.087   2.794   1.237  0.1282  1.7172 -1.7794
  725SOL    HW2 2175   1.202   2.813   1.110 -0.0142  0.2027 -0.2121
  726SOL     OW 2176   1.592   2.893   2.976 -0.8342  0.6319  0.2338
  726SOL    HW1 2177   1.548   2.838   3.050 -3.9953  0.8434  0.9915
  726SOL    HW2 2178   1.668   2.838   2.937  1.2776 -0.5467 -0.5733
  727SOL     OW 2179   1.420   1.878   0.742  0.3221 -0.3689  0.0744
  727SOL    HW1 2180   1.384   1.936   0.668  0.4614  0.2190  0.1577
  727SOL    HW2 2181   1.502   1.821   0.712  0.8374 -0.6678  0.1747
  728SOL     OW 2182   2.009   2.966   2.111 -0.0117 -0.4103  0.5624
  728SOL    HW1 2183   2.009   3.019   2.022  0.5137 -1.3047 -1.9262
  728SOL    HW2 2184   2.090   2.901   2.116 -0.1452 -0.2925  0.2925
  729SOL     OW 2185   2.483   1.776   1.419  0.9064 -0.0309 -0.4465
  729SOL    HW1 2186   2.394   1.824   1.413 -0.0967 -0.3154 -1.0450
  729SOL    HW2 2187   2.480   1.681   1.385  1.3078  2.8000  0.4384
  730SOL     OW 2188   1.795   0.637   2.422 -0.0693 -0.3569  0.4538
  730SOL    HW1 2189   1.895   0.616   2.428  0.9132  0.3983  2.4133
  730SOL    HW2 2190   1.788   0.730   2.389 -0.0049  0.5413  0.4078
  731SOL     OW 2191   0.488   0.410   1.302  0.1361  0.9009 -0.1692
  731SOL    HW1 2192   0.478   0.462   1.392  1.5935 -3.1520 -1.4893
  731SOL    HW2 2193   0.468   0.480   1.232  2.2648  1.1646  1.8587
  732SOL     OW 2194   1.758   0.245   1.295  0.4627  0.1737 -0.2997
  732SOL    HW1 2195   1.736   0.343   1.310  0.0824 -2.3951 -0.9649
  732SOL    HW2 2196   1.681   0.203   1.243 -3.2168  0.0822  0.1749
  733SOL     OW 2197   0.975   1.072   1.589 -0.0428 -0.0174 -0.4004
  733SOL    HW1 2198   0.896   1.080   1.522  1.2069  0.7095 -0.2287
  733SOL    HW2 2199   1.060   1.037   1.544 -0.8467  1.3395  1.3717
  734SOL     OW 2200   2.601   1.927   0.103  0.2208  0.2271  0.1513
  734SOL    HW1 2201   2.569   1.850   0.166 -1.4271 -0.6962 -1.6421
  734SOL    HW2 2202   2.700   1.928   0.073  0.2453 -0.9816  1.4008
  735SOL     OW 2203   0.504   0.639   0.326 -0.4689  0.1314 -0.2551
  735SOL    HW1 2204   0.454   0.646   0.236  1.3132 -0.8940  0.2515
  735SOL    HW2 2205   0.599   0.604   0.313 -0.7980  1.5612 -1.1311
  736SOL     OW 2206   1.776   2.400   2.651 -0.0195  0.0938 -0.0904
  736SOL    HW1 2207   1.860   2.363   2.699 -1.3470 -0.3519 -0.3392
  736SOL    HW2 2208   1.703   2.429   2.717 -1.0406 -0.2597  1.7666
  737SOL     OW 2209   0.881   1.956   0.981 -0.7812  0.0228 -0.1644
  737SOL    HW1 2210   0.925   1.898   1.051 -1.2588 -0.8204 -2.4947
  737SOL    HW2 2211   0.930   1.949   0.891 -2.0059 -1.5591  0.2539
  738SOL     OW 2212   1.758   2.870   2.221 -0.1966  0.2225 -0.1594
  738SOL    HW1 2213   1.713   2.923   2.146 -1.0585  1.9823 -3.4538
  738SOL    HW2 2214   1.857   2.866   2.198  1.4108 -1.3167  1.2309
  739SOL     OW 2215   1.308   2.215   2.238 -0.4182 -0.6413  0.2031
  739SOL    HW1 2216   1.326   2.263   2.149  0.7144  0.7286 -1.1442
  739SOL    HW2 2217   1.388   2.151   2.261  2.2494 -2.1134  1.3546
  740SOL     OW 2218   1.673   2.421   1.917 -0.2494  0.4870  0.0081
  740SOL    HW1 2219   1.729   2.501   1.953 -1.2667 -0.5746 -1.3652
  740SOL    HW2 2220   1.588   2.457   1.875 -0.9027  3.6635  0.3384
  741SOL     OW 2221   2.370   1.548   2.537 -0.2804 -0.0184  0.5689
  741SOL    HW1 2222   2.315   1.484   2.480  1.2820 -2.2741  0.3906
  741SOL    HW2 2223   2.412   1.628   2.488  0.2816 -2.1053 -2.3200
  742SOL     OW 2224   0.847   1.375   3.053  0.1904  0.0216 -0.0678
  742SOL    HW1 2225   0.919   1.449   3.041  1.3597  3.3958 -0.8416
  742SOL    HW2 2226   0.775   1.380   2.976 -0.3253  1.5274 -0.8062
  743SOL     OW 2227   1.863   1.193   2.644 -0.2136  0.0745 -0.2284
  743SOL    HW1 2228   1.846   1.192   2.544  0.2493 -1.6127  1.0442
  743SOL    HW2 2229   1.778   1.238   2.683  1.5358  0.9578 -1.9223
  744SOL     OW 2230   2.076   2.889   1.460  0.1579  0.0014  0.3265
  744SOL    HW1 2231   2.140   2.811   1.448 -2.6197 -0.3062  1.3120
  744SOL    HW2 2232   2.019   2.888   1.377  1.9259  1.6163  1.9538
  745SOL     OW 2233   2.402   1.078   0.903  0.5356  0.2130 -0.3541
  745SOL    HW1 2234   2.376   1.073   1.001 -0.9766 -2.7171  0.1235
  745SOL    HW2 2235   2.338   1.140   0.856 -2.3605 -0.1798 -0.3788
  746SOL     OW 2236   2.316   1.679   1.111  0.0419  0.5790  0.4155
  746SOL    HW1 2237   2.346   1.634   1.028 -1.5715 -1.4112  1.1495
  746SOL    HW2 2238   2.344   1.773   1.113  0.3681 -0.4625  1.1955
  747SOL     OW 2239   2.027   2.736   0.195 -0.1922 -0.3696 -0.2894
  747SOL    HW1 2240   1.934   2.771   0.183 -3.8405  2.2932  0.7865
  747SOL    HW2 2241   2.086   2.773   0.118  2.0286  1.4420 -2.9854
  748SOL     OW 2242   0.799   2.050   0.141 -0.1784  0.3560  0.3340
  748SOL    HW1 2243   0.848   1.962   0.157 -1.0087  1.1685 -0.4184
  748SOL    HW2 2244   0.809   2.077   0.041  2.4906 -0.4784 -0.9787
  749SOL     OW 2245   2.930   0.312   2.350 -0.3726  0.5731  0.0298
  749SOL    HW1 2246   3.004   0.353   2.408 -2.6088  0.3405  3.4868
  749SOL    HW2 2247   2.896   0.390   2.296  1.3025  0.8649  0.1466
  750SOL     OW 2248   1.242   0.736   1.745  0.7015 -0.1299  0.7428
  750SOL    HW1 2249   1.288   0.663   1.802  1.7566  0.2102  0.4517
  750SOL    HW2 2250   1.221   0.695   1.654 -2.5071 -0.1435  2.6752
  751SOL     OW 2251   2.459   2.782   2.067 -0.2878  0.8934  0.8348
  751SOL    HW1 2252   2.488   2.686   2.041  0.1059 -3.0070  0.0486
  751SOL    HW2 2253   2.372   2.772   2.118 -0.7402 -0.3366 -1.7646
  752SOL     OW 2254   2.033   1.532   0.956 -0.4876  0.2462  0.0771
  752SOL    HW1 2255   1.977   1.449   0.932  1.3810  1.9205  0.8026
  752SOL    HW2 2256   2.134   1.505   0.954  0.7993 -2.0686 -0.8067
  753SOL     OW 2257   1.467   1.224   2.383 -0.0560 -0.3656  0.1364
  753SOL    HW1 2258   1.405   1.288   2.330 -1.7997 -1.0302  1.8912
  753SOL    HW2 2259   1.409   1.156   2.430  1.6737 -0.7702 -1.2642
  754SOL     OW 2260   0.191   2.494   0.964  0.0841 -0.5276 -0.6153
  754SOL    HW1 2261   0.237   2.580   0.981 -0.5391 -1.3019 -0.4085
  754SOL    HW2 2262   0.149   2.453   1.050 -0.4063 -1.6216 -0.2679
  755SOL     OW 2263   2.476   2.962   1.217  0.3186  0.3510  0.4433
  755SOL    HW1 2264   2.575   2.973   1.220 -1.7283 -1.3078 -1.6808
  755SOL    HW2 2265   2.449   2.865   1.228  0.7854  0.6505 -1.4298
  756SOL     OW 2266   1.956   2.050   2.113  0.2450  1.0828 -0.1291
  756SOL    HW1 2267   1.902   1.974   2.072 -0.7037  1.1185  0.6798
  756SOL    HW2 2268   2.029   2.018   2.176 -1.3036  1.3012  1.7712
  757SOL     OW 2269   3.026   0.001   2.036 -0.2398  0.0271  0.2819
  757SOL    HW1 2270   2.969   0.046   2.112  0.2988  0.3115 -1.6033
  757SOL    HW2 2271   0.008   0.064   1.993 -0.0882 -1.4433 -1.7638
  758SOL     OW 2272   0.577   2.766   1.395  0.3466  0.1831  0.1784
  758SOL    HW1 2273   0.674   2.768   1.361  0.7278  0.9442 -1.3369
  758SOL    HW2 2274   0.531   2.683   1.353  0.3534 -0.1665  0.0225
  759SOL     OW 2275   2.208   0.996   1.130  0.5307  0.8136 -0.4007
  759SOL    HW1 2276   2.279   1.061   1.163 -1.2536 -0.8514  2.5174
  759SOL    HW2 2277   2.189   0.928   1.204 -1.2362 -2.7436  0.1545
  760SOL     OW 2278   1.497   0.270   1.486  0.2303  0.2944  0.3357
  760SOL    HW1 2279   1.463   0.269   1.582  2.2415  0.4872  0.2993
  760SOL    HW2 2280   1.550   0.354   1.460  2.4927 -0.3982 -0.3021
  761SOL     OW 2281   1.870   0.278   0.993 -0.0040  0.1176  0.5444
  761SOL    HW1 2282   1.938   0.234   1.055  4.0402  0.1973  0.9869
  761SOL    HW2 2283   1.826   0.360   1.037  0.8121  0.5304 -1.2852
  762SOL     OW 2284   1.780   2.810   0.160 -0.0597  0.1084 -0.0172
  762SOL    HW1 2285   1.709   2.881   0.164 -0.5045 -0.0809 -2.5857
  762SOL    HW2 2286   1.748   2.728   0.200 -1.6424  2.2030 -1.2875
  763SOL     OW 2287   0.909   0.462   1.233  0.3043  0.0492 -0.3975
  763SOL    HW1 2288   0.859   0.403   1.296  1.0269  0.7819  0.1083
  763SOL    HW2 2289   0.875   0.557   1.237  1.2989 -1.6099 -0.5993
  764SOL     OW 2290   2.569   2.363   2.392  0.0228 -0.0258 -0.4341
  764SOL    HW1 2291   2.668   2.371   2.396 -3.6375 -0.5667  2.0884
  764SOL    HW2 2292   2.529   2.456   2.376 -2.2438  2.0116  0.9574
  765SOL     OW 2293   2.979   1.125   2.372  0.2696  0.1351  0.4807
  765SOL    HW1 2294   3.079   1.107   2.368  0.6745 -0.5896  2.8300
  765SOL    HW2 2295   2.943   1.085   2.459 -0.4971  1.9240  0.1867
  766SOL     OW 2296   2.850   1.378   2.414  0.4388 -0.0157 -0.4136
  766SOL    HW1 2297   2.779   1.355   2.481 -0.7629  1.8818 -0.7002
  766SOL    HW2 2298   2.919   1.303   2.402  1.4242 -0.7232 -0.9921
  767SOL     OW 2299   0.313   2.179   1.686  0.2586  0.0771  0.2953
  767SOL    HW1 2300   0.406   2.144   1.704  0.4918  2.0730  0.0977
  767SOL    HW2 2301   0.246   2.154   1.754 -1.3080 -0.0240  1.1261
  768SOL     OW 2302   0.954   0.784   2.852  0.3772 -0.1609  0.1423
  768SOL    HW1 2303   0.914   0.794   2.756 -0.5810  0.2812  1.5257
  768SOL    HW2 2304   0.897   0.706   2.888 -1.2765  1.0809  1.0061
  769SOL     OW 2305   1.475   2.700   0.025  0.6391  0.3880 -0.6505
  769SOL    HW1 2306   1.394   2.654   0.069  0.9580  0.3411 -1.0340
  769SOL    HW2 2307   1.558   2.646   0.059 -0.7620 -1.0156  2.4143
  770SOL     OW 2308   0.933   0.197   2.518 -0.2235 -0.0480 -0.1914
  770SOL    HW1 2309   0.890   0.182   2.428  2.1632  0.6871  2.4962
  770SOL    HW2 2310   0.984   0.110   2.549 -1.4490 -2.7711  0.3121
  771SOL     OW 2311   0.718   2.649   0.792 -0.0540 -0.1699  0.5007
  771SOL    HW1 2312   0.660   2.564   0.807 -2.0409 -1.8994  0.8578
  771SOL    HW2 2313   0.736   2.689   0.884 -1.8629 -1.1074  1.4226
  772SOL     OW 2314   2.836   0.901   0.307  0.3655 -0.2981  0.5431
  772SOL    HW1 2315   2.826   0.999   0.274 -0.0525 -0.9038 -1.1352
  772SOL    HW2 2316   2.934   0.873   0.293 -2.5614  0.1335  0.9419
  773SOL     OW 2317   1.613   0.889   1.837 -0.0809 -0.2404  0.3280
  773SOL    HW1 2318   1.710   0.885   1.803 -0.5435 -0.5776  0.1648
  773SOL    HW2 2319   1.552   0.911   1.758 -0.3239 -0.9657  0.1245
  774SOL     OW 2320   0.665   0.169   0.584  0.1167 -0.1245 -0.1972
  774SOL    HW1 2321   0.714   0.106   0.646 -1.5778 -1.1847 -0.7350
  774SOL    HW2 2322   0.628   0.122   0.504  0.2748  2.7329  0.5724
  775SOL     OW 2323   1.570   2.963   0.221  0.1259  0.3840  0.2058
  775SOL    HW1 2324   1.525   2.910   0.297 -0.7595  1.5116 -1.6864
  775SOL    HW2 2325   1.585   3.061   0.244 -0.1571  0.3520 -1.7973
  776SOL     OW 2326   2.434   0.375   2.438 -0.4014  0.1272 -0.2513
  776SOL    HW1 2327   2.527   0.329   2.441 -2.5992 -1.7504 -0.1089
  776SOL    HW2 2328   2.365   0.320   2.390  0.3967  2.8791  4.1176
  777SOL     OW 2329   1.452   1.367   2.971 -0.0288  0.9737 -0.1622
  777SOL    HW1 2330   1.516   1.376   2.893  0.7166  0.5439 -1.8132
  777SOL    HW2 2331   1.361   1.376   2.920 -1.9713 -3.3127 -0.2141
  778SOL     OW 2332   0.153   2.623   0.198 -0.3174 -0.2595  0.0778
  778SOL    HW1 2333   0.110   2.560   0.267 -0.9363  1.0472 -0.5239
  778SOL    HW2 2334   0.153   2.720   0.230  1.9599 -0.4489  4.0104
  779SOL     OW 2335   0.221   1.500   0.339 -0.3169 -0.1513  0.2646
  779SOL    HW1 2336   0.169   1.414   0.344 -1.5565  0.0724  2.0715
  779SOL    HW2 2337   0.309   1.484   0.294 -1.7882 -1.6479 -1.3319
  780SOL     OW 2338   1.979   3.069   1.866  0.5136  0.1201 -0.4426
  780SOL    HW1 2339   2.052   3.010   1.825 -1.0963  0.2324 -1.7288
  780SOL    HW2 2340   1.972   0.076   1.828 -2.5537  2.0643 -0.9656
  781SOL     OW 2341   1.548   1.193   1.398  0.0091  0.0094 -0.1775
  781SOL    HW1 2342   1.502   1.277   1.440 -0.3278  1.0677  1.4340
  781SOL    HW2 2343   1.605   1.208   1.316 -1.3195 -1.2791 -2.8372
  782SOL     OW 2344   1.912   2.275   1.974 -0.3566  0.3595 -0.1459
  782SOL    HW1 2345   1.817   2.308   1.989  0.3805 -1.8692 -2.8595
  782SOL    HW2 2346   1.938   2.195   2.032  0.9675  0.1285 -0.4565
  783SOL     OW 2347   1.351   0.546   1.936 -0.0254  0.5057  0.2340
  783SOL    HW1 2348   1.445   0.568   1.972  2.6731 -0.2502  0.6434
  783SOL    HW2 2349   1.328   0.451   1.952 -0.2892  1.1105  1.0891
  784SOL     OW 2350   1.756   1.200   2.347 -0.1727  0.4879 -0.0320
  784SOL    HW1 2351   1.657   1.212   2.349  0.0621  2.0647 -0.6922
  784SOL    HW2 2352   1.778   1.108   2.304 -0.2882  0.9188  1.2019
  785SOL     OW 2353   2.058   0.403   0.347 -0.2630 -0.5315  0.9267
  785SOL    HW1 2354   2.046   0.508   0.353  3.2342  1.1338  0.4888
  785SOL    HW2 2355   1.991   0.348   0.296 -1.0969 -1.2150  1.4317
  786SOL     OW 2356   2.960   1.507   0.656  0.2346 -0.3544  0.1602
  786SOL    HW1 2357   2.964   1.509   0.555 -1.4831  0.6532 -1.2346
  786SOL    HW2 2358   2.993   1.418   0.692  0.2227 -2.0740  2.1887
  787SOL     OW 2359   1.759   1.852   0.307  0.2906  0.2110 -0.2973
  787SOL    HW1 2360   1.683   1.905   0.268 -0.0485  0.6788  1.9004
  787SOL    HW2 2361   1.788   1.784   0.237  0.3791  1.6058 -1.4335
  788SOL     OW 2362   2.231   1.443   1.464 -0.1035  0.6350 -0.2313
  788SOL    HW1 2363   2.309   1.463   1.406  0.0553 -1.2795  0.6976
  788SOL    HW2 2364   2.156   1.503   1.436  2.1509  2.8804 -0.3943
  789SOL     OW 2365   2.942   1.630   2.351 -0.2100  0.3346  0.6440
  789SOL    HW1 2366   3.037   1.642   2.315 -3.1929 -0.2868  0.2256
  789SOL    HW2 2367   2.923   1.535   2.385  0.2669 -0.2984  1.6944
  790SOL     OW 2368   0.744   3.045   2.660  0.5927  0.1740  0.5749
  790SOL    HW1 2369   0.837   3.046   2.611 -0.8773 -0.4293 -1.4941
  790SOL    HW2 2370   0.667   3.055   2.595 -0.6581 -0.7372  0.5208
  791SOL     OW 2371   0.739   2.817   2.804 -0.1151 -0.4904  0.0388
  791SOL    HW1 2372   0.833   2.773   2.820  1.4730  1.6718 -1.4301
  791SOL    HW2 2373   0.753   2.904   2.754  1.4790  0.0997  1.7211
  792SOL     OW 2374   1.637   0.259   2.271 -0.1311 -0.5114 -0.3555
  792SOL    HW1 2375   1.548   0.213   2.268  0.6192 -1.0018  2.6330
  792SOL    HW2 2376   1.645   0.305   2.362  1.6721 -1.0062  0.6818
  793SOL     OW 2377   2.857   0.092   2.233  0.3726 -0.1122  0.2938
  793SOL    HW1 2378   2.901   0.172   2.287  0.4271 -0.3890 -0.1726
  793SOL    HW2 2379   2.760   0.110   2.218  1.6697  0.6276 -0.8238
  794SOL     OW 2380   0.613   0.980   1.911 -0.6356  0.4871  0.4937
  794SOL    HW1 2381   0.649   0.893   1.943  1.9183  0.9689  0.5213
  794SOL    HW2 2382   0.535   0.967   1.847  4.1715 -2.6169  0.9998
  795SOL     OW 2383   2.918   1.464   0.381  0.5598  0.6101  0.6056
  795SOL    HW1 2384   2.860   1.397   0.439  0.1805 -0.2890 -2.0803
  795SOL    HW2 2385   2.964   1.422   0.302 -1.4512  0.6392  1.8827
  796SOL     OW 2386   2.859   2.562   2.694  0.2622  0.1758  0.5825
  796SOL    HW1 2387   2.821   2.478   2.742 -0.4582  0.1820 -0.7159
  796SOL    HW2 2388   2.947   2.538   2.645  1.9106 -0.3405 -1.6634
  797SOL     OW 2389   2.671   2.335   0.173  0.0928 -0.2303 -0.0623
  797SOL    HW1 2390   2.763   2.286   0.164 -1.0374 -0.4691 -0.1247
  797SOL    HW2 2391   2.632   2.363   0.084 -0.3088 -0.0417  1.1381
  798SOL     OW 2392   0.405   0.952   1.700  0.2658 -0.4258 -0.2765
  798SOL    HW1 2393   0.360   0.879   1.752  1.9948 -0.1998  1.6227
  798SOL    HW2 2394   0.351   0.980   1.617 -0.2616  1.1391 -0.6709
  799SOL     OW 2395   2.832   0.522   2.186 -0.0653  0.3632  0.4029
  799SOL    HW1 2396   2.750   0.584   2.179 -0.2372  1.4800  0.1294
  799SOL    HW2 2397   2.919   0.570   2.187 -3.2548  2.2580 -0.8048
  800SOL     OW 2398   2.727   2.366   0.633 -0.0775 -0.3424  0.5201
  800SOL    HW1 2399   2.674   2.315   0.704 -2.8123 -0.1137  0.7660
  800SOL    HW2 2400   2.790   2.436   0.673  3.2086 -0.3538 -0.3664
  801SOL     OW 2401   1.243   1.091   0.713 -0.5329 -0.2341 -0.6592
  801SOL    HW1 2402   1.260   1.045   0.623  0.7000 -0.8311 -0.5242
  801SOL    HW2 2403   1.286   1.043   0.789  0.1328  3.1205  0.8096
  802SOL     OW 2404   1.451   1.891   1.035  0.4590  0.8377  0.0051
  802SOL    HW1 2405   1.549   1.867   1.062  2.7429  1.4831 -0.9360
  802SOL    HW2 2406   1.443   1.888   0.932 -1.6812  0.2644 -2.3280
  803SOL     OW 2407   0.072   1.724   0.348 -0.6092 -0.0024  0.0703
  803SOL    HW1 2408   0.142   1.648   0.344  0.5735 -0.7266  1.4548
  803SOL    HW2 2409   0.068   1.758   0.444  0.1398  0.9992 -1.2889
  804SOL     OW 2410   1.171   2.504   0.649  0.1190 -0.7209  0.0165
  804SOL    HW1 2411   1.088   2.554   0.627  2.1348  2.6231 -2.0407
  804SOL    HW2 2412   1.207   2.535   0.739 -0.0963  2.4928 -1.8403
  805SOL     OW 2413   1.511   2.046   2.260  0.2058  0.1523 -0.1143
  805SOL    HW1 2414   1.556   2.105   2.332 -0.2231 -1.5771 -0.8184
  805SOL    HW2 2415   1.556   2.058   2.170 -1.9050 -0.0873  0.7369
  806SOL     OW 2416   1.491   0.152   1.237 -0.2520  0.1384 -0.2113
  806SOL    HW1 2417   1.478   0.211   1.320 -1.6905 -0.1579 -2.3786
  806SOL    HW2 2418   1.411   0.091   1.242 -0.2188 -1.4723  1.9280
  807SOL     OW 2419   1.842   0.010   2.585 -0.1571 -0.6383 -0.0368
  807SOL    HW1 2420   1.767   0.081   2.597 -1.8013 -0.7914  1.2244
  807SOL    HW2 2421   1.893   0.032   2.499  2.2954 -0.7533  0.0985
  808SOL     OW 2422   0.559   1.572   0.021 -0.8264 -0.5525 -0.1742
  808SOL    HW1 2423   0.548   1.495   0.087  1.3595 -0.2853 -0.2754
  808SOL    HW2 2424   0.645   1.577   3.058 -0.6512 -0.4806  0.0693
  809SOL     OW 2425   2.857   0.759   2.527  0.0012  0.2258 -0.5765
  809SOL    HW1 2426   2.946   0.741   2.478 -1.6239 -0.0455 -0.6475
  809SOL    HW2 2427   2.810   0.669   2.545  0.4798 -1.1840  1.1292
  810SOL     OW 2428   3.079   0.425   2.549  0.1912  0.4233 -0.0793
  810SOL    HW1 2429   0.020   0.520   2.534  0.5215 -0.0863 -0.3740
  810SOL    HW2 2430   0.067   0.357   2.567  0.7151  1.7062  0.9628
  811SOL     OW 2431   2.025   2.385   1.732  0.0855 -0.0520  0.1173
  811SOL    HW1 2432   1.978   2.367   1.823  0.3122 -0.7444 -1.3623
  811SOL    HW2 2433   2.122   2.424   1.742  0.1615  1.5168 -0.9476
  812SOL     OW 2434   1.377   0.548   0.377  0.0431  0.6812  0.3484
  812SOL    HW1 2435   1.309   0.624   0.380  2.3108 -0.7327 -1.8292
  812SOL    HW2 2436   1.373   0.507   0.283 -0.5813 -1.7684  1.1529
  813SOL     OW 2437   1.784   0.299   2.039 -0.7317  0.6381 -0.7572
  813SOL    HW1 2438   1.733   0.256   2.116 -0.2752  1.6925 -0.2269
  813SOL    HW2 2439   1.728   0.372   1.996 -1.3934 -1.0121 -1.2496
  814SOL     OW 2440   1.898   1.104   1.273 -0.0388  0.1595 -0.3691
  814SOL    HW1 2441   1.989   1.132   1.301 -2.0418 -1.6070 -0.4029
  814SOL    HW2 2442   1.842   1.185   1.251 -1.9801 -1.2947 -1.5770
  815SOL     OW 2443   0.737   0.831   0.524  0.4914 -0.1504  0.4393
  815SOL    HW1 2444   0.702   0.892   0.451  0.3388 -2.4779 -0.7742
  815SOL    HW2 2445   0.661   0.779   0.561  0.0399  0.2566 -0.0632
  816SOL     OW 2446   2.089   2.120   2.820  0.4128  0.4097 -0.5892
  816SOL    HW1 2447   2.190   2.115   2.808  1.7976 -1.4468 -0.5228
  816SOL    HW2 2448   2.044   2.071   2.748  2.4571 -1.6479  4.3045
  817SOL     OW 2449   2.884   2.780   1.307 -0.6397  0.2227 -0.5578
  817SOL    HW1 2450   2.957   2.802   1.236 -0.1422  0.0686  2.1231
  817SOL    HW2 2451   2.922   2.725   1.384 -2.0184 -2.2876  1.0262
  818SOL     OW 2452   1.344   0.454   0.142 -0.3086 -0.5411  0.2878
  818SOL    HW1 2453   1.280   0.478   0.063 -2.1443 -0.0517  1.0078
  818SOL    HW2 2454   1.416   0.395   0.103 -1.5473  0.1394  0.4671
  819SOL     OW 2455   0.526   0.397   0.651 -0.0756  0.1157  0.2378
  819SOL    HW1 2456   0.534   0.395   0.753  1.0211 -0.2393  1.3401
  819SOL    HW2 2457   0.588   0.329   0.604 -0.0861  0.3332  0.4635
  820SOL     OW 2458   2.028   0.674   1.163  0.1092 -0.2875 -0.1039
  820SOL    HW1 2459   2.108   0.671   1.097  0.5152 -0.0794 -3.1528
  820SOL    HW2 2460   2.060   0.725   1.247  3.0168 -0.3620 -1.8613
  821SOL     OW 2461   2.805   2.969   0.619 -0.0743  0.1684  1.1057
  821SOL    HW1 2462   2.718   2.985   0.671  0.6904  1.3171  0.7573
  821SOL    HW2 2463   2.803   2.874   0.589  0.4339  0.6867 -3.1674
  822SOL     OW 2464   0.997   2.443   2.864 -0.4445 -0.7961  0.2388
  822SOL    HW1 2465   0.929   2.459   2.785 -1.3673  0.0198  3.2560
  822SOL    HW2 2466   0.950   2.420   2.952 -2.5375  3.1416 -1.7405
  823SOL     OW 2467   2.782   1.267   1.704 -0.1863  0.1056 -0.2124
  823SOL    HW1 2468   2.786   1.279   1.807 -0.8019 -0.9489  2.3216
  823SOL    HW2 2469   2.692   1.242   1.668  3.1162  0.8156 -2.4280
  824SOL     OW 2470   0.873   2.969   2.205 -0.6482 -0.4123 -0.3586
  824SOL    HW1 2471   0.921   2.899   2.260 -2.2563  1.0187 -0.1992
  824SOL    HW2 2472   0.773   2.954   2.216 -1.7997 -1.0426 -0.3906
  825SOL     OW 2473   1.348   1.924   3.076  0.2769  0.2023  0.2658
  825SOL    HW1 2474   1.280   1.999   3.082  0.2334  0.6100 -1.7459
  825SOL    HW2 2475   1.336   1.877   2.987 -0.3074 -1.1235  2.7008
  826SOL     OW 2476   1.285   2.320   0.002 -0.2644  0.2825 -0.4365
  826SOL    HW1 2477   1.378   2.301   0.033 -1.2005 -0.0096 -0.4703
  826SOL    HW2 2478   1.225   2.237   0.019 -0.3927 -0.2243 -1.3875
  827SOL     OW 2479   0.303   1.696   1.862  0.1415  0.3854  0.0408
  827SOL    HW1 2480   0.268   1.639   1.784 -0.1573 -0.6076 -0.0653
  827SOL    HW2 2481   0.397   1.668   1.889 -0.4296 -2.7813 -1.7021
  828SOL     OW 2482   3.014   1.810   1.045  0.1531 -0.4986  0.3306
  828SOL    HW1 2483   3.086   1.868   1.023 -2.2765 -2.9367  1.0328
  828SOL    HW2 2484   2.943   1.870   1.095 -0.0971 -0.7356  3.1641
  829SOL     OW 2485   2.899   2.511   3.089  0.2217 -0.0989 -0.2642
  829SOL    HW1 2486   2.986   2.465   0.034 -1.4363 -0.1759 -0.7072
  829SOL    HW2 2487   2.877   2.472   2.999  2.5771 -0.9978  0.4218
  830SOL     OW 2488   1.250   0.783   0.440  0.6093 -0.4299  0.7743
  830SOL    HW1 2489   1.319   0.851   0.470 -1.9639  0.9401 -2.7862
  830SOL    HW2 2490   1.158   0.826   0.469  1.0246  0.8094 -0.4886
  831SOL     OW 2491   2.864   2.327   2.880 -0.0858 -0.3466 -0.1311
  831SOL    HW1 2492   2.803   2.249   2.904  0.6488 -1.7686  1.1205
  831SOL    HW2 2493   2.962   2.291   2.862  1.0885 -0.7187  0.2453
  832SOL     OW 2494   1.379   2.207   0.338 -0.2261 -0.1721 -0.1184
  832SOL    HW1 2495   1.430   2.223   0.256 -1.0637  2.2567  1.8183
  832SOL    HW2 2496   1.440   2.171   0.416 -0.4753 -2.3891 -0.0591
  833SOL     OW 2497   0.388   1.039   2.582 -0.2172 -0.0531 -0.0213
  833SOL    HW1 2498   0.373   1.072   2.679  1.1752 -0.4119  0.0264
  833SOL    HW2 2499   0.318   1.086   2.530 -0.7498 -1.0397  2.0929
  834SOL     OW 2500   2.851   0.851   0.915 -0.3418  0.1659  0.2098
  834SOL    HW1 2501   2.869   0.775   0.982  1.7633 -2.7624  0.6831
  834SOL    HW2 2502   2.759   0.896   0.925  0.6488 -0.5849  2.6910
  835SOL     OW 2503   2.186   0.660   2.244 -0.4576  0.0572  0.2243
  835SOL    HW1 2504   2.264   0.718   2.277 -0.0611  3.0002  3.3566
  835SOL    HW2 2505   2.123   0.715   2.182  0.0160 -0.6177  0.2069
  836SOL     OW 2506   0.789   1.827   0.368 -0.3079  0.2323 -0.1894
  836SOL    HW1 2507   0.685   1.830   0.373 -2.0004  2.3303 -0.2709
  836SOL    HW2 2508   0.824   1.732   0.346 -0.3703 -0.7895  0.4449
  837SOL     OW 2509   2.230   1.568   1.944  0.1826  0.3706 -0.5196
  837SOL    HW1 2510   2.201   1.629   2.021  0.9276 -0.1319  1.7908
  837SOL    HW2 2511   2.238   1.472   1.972 -0.9414 -1.0063 -1.2697
  838SOL     OW 2512   0.156   1.004   2.276 -0.1178  0.2388 -0.8332
  838SOL    HW1 2513   0.183   0.922   2.326 -1.1055 -1.8310 -2.3860
  838SOL    HW2 2514   0.172   0.997   2.176 -2.7448 -0.4238  2.1080
  839SOL     OW 2515   0.516   2.987   2.986 -0.2729 -0.1056  0.2745
  839SOL    HW1 2516   0.484   2.928   2.915 -0.8731  0.4732  1.5268
  839SOL    HW2 2517   0.609   3.018   2.961 -3.3085 -0.9145  1.0895
  840SOL     OW 2518   2.950   1.051   2.626  0.2139  0.2256 -0.8678
  840SOL    HW1 2519   3.012   1.060   2.713 -0.3102  1.2688  1.7946
  840SOL    HW2 2520   2.874   0.989   2.646 -1.3785  0.0138  0.7160
  841SOL     OW 2521   0.624   1.981   2.651 -0.2777 -0.0100  0.1121
  841SOL    HW1 2522   0.583   2.061   2.700 -0.8876  0.1330  2.5030
  841SOL    HW2 2523   0.716   1.997   2.611 -1.1704 -1.5811 -1.5415
  842SOL     OW 2524   0.908   0.248   1.077  0.6654 -0.4403 -0.1547
  842SOL    HW1 2525   0.810   0.222   1.084 -0.5903 -1.5075  1.0028
  842SOL    HW2 2526   0.928   0.336   1.121 -1.5404 -0.8516 -1.8403
  843SOL     OW 2527   0.106   1.724   2.300 -0.2371 -0.1437 -0.3676
  843SOL    HW1 2528   0.107   1.705   2.201  0.6820  0.3814  0.1140
  843SOL    HW2 2529   0.171   1.663   2.353  0.4767 -2.1997  2.8530
  844SOL     OW 2530   1.627   2.103   2.012  0.0450  0.1117 -0.5544
  844SOL    HW1 2531   1.705   2.111   1.952 -4.0630 -0.9102  1.7466
  844SOL    HW2 2532   1.541   2.078   1.963 -1.7971 -2.4673 -0.3748
  845SOL     OW 2533   2.498   2.621   2.382  0.4948 -0.5690  0.0348
  845SOL    HW1 2534   2.512   2.652   2.478 -2.3210  0.7503 -0.8362
  845SOL    HW2 2535   2.414   2.670   2.351 -1.8408  1.3167 -1.7717
  846SOL     OW 2536   2.285   1.781   2.914  0.3034  0.1113  0.1779
  846SOL    HW1 2537   2.345   1.867   2.906 -1.5364  0.6490 -0.8460
  846SOL    HW2 2538   2.284   1.763   3.013  0.9928  0.8596 -2.1905
  847SOL     OW 2539   2.481   0.116   2.880  0.6384  0.1810 -0.3958
  847SOL    HW1 2540   2.470   0.184   2.807 -0.4412 -1.6179  1.1045
  847SOL    HW2 2541   2.528   0.029   2.854 -0.1071  0.5222  1.9521
  848SOL     OW 2542   2.585   0.570   0.403  0.2030 -0.2838  0.0126
  848SOL    HW1 2543   2.577   0.467   0.384 -1.9408 -1.4267  1.9362
  848SOL    HW2 2544   2.497   0.608   0.427  1.6680 -0.0050 -0.9733
  849SOL     OW 2545   1.244   0.173   2.710 -0.0043 -0.7985  0.2828
  849SOL    HW1 2546   1.328   0.137   2.664  0.1908  0.7393  1.8475
  849SOL    HW2 2547   1.185   0.106   2.752  2.1647  3.1064  1.8849
  850SOL     OW 2548   2.741   0.902   0.560 -0.2259 -0.0825 -0.4764
  850SOL    HW1 2549   2.780   0.909   0.468 -1.4774  0.4563  0.4800
  850SOL    HW2 2550   2.807   0.842   0.615  1.8942 -0.4923  0.1798
  851SOL     OW 2551   0.042   1.255   1.040 -0.4615  0.0841  0.5655
  851SOL    HW1 2552   0.145   1.262   1.038 -1.8511 -0.0379  0.3496
  851SOL    HW2 2553   0.010   1.186   0.970  1.1046  0.5647  0.2906
  852SOL     OW 2554   1.603   0.917   2.512  0.2145 -0.6409  0.0921
  852SOL    HW1 2555   1.697   0.899   2.553 -3.6867  0.6129 -1.7641
  852SOL    HW2 2556   1.567   1.012   2.535 -1.5736  2.1163 -1.6227
  853SOL     OW 2557   2.251   1.353   0.056  0.8179 -0.0507  0.0443
  853SOL    HW1 2558   2.344   1.388   0.038  0.5662  1.8072 -0.0226
  853SOL    HW2 2559   2.204   1.333   3.056 -0.6999 -1.9817 -1.0203
  854SOL     OW 2560   1.188   1.235   1.930 -0.3867  0.6597 -0.1026
  854SOL    HW1 2561   1.160   1.140   1.950  0.4165 -0.7738  0.3126
  854SOL    HW2 2562   1.179   1.296   2.013 -0.5808 -1.3758  2.8052
  855SOL     OW 2563   0.391   2.344   2.025 -0.2476 -0.5400  0.5225
  855SOL    HW1 2564   0.352   2.441   2.031  0.5442 -0.6085  2.0136
  855SOL    HW2 2565   0.313   2.278   2.034  0.6156 -0.5606  0.0736
  856SOL     OW 2566   1.049   1.090   2.309 -0.6240  0.0356  0.1945
  856SOL    HW1 2567   1.090   1.159   2.374  3.1987  0.3143 -0.3461
  856SOL    HW2 2568   0.969   1.038   2.348 -0.0886 -2.0792 -0.4777
  857SOL     OW 2569   1.009   1.024   2.656 -0.6465 -0.3433 -0.0606
  857SOL    HW1 2570   1.010   1.056   2.752 -2.1750  0.5737  2.6994
  857SOL    HW2 2571   0.962   0.938   2.641  0.3242 -1.0384 -1.0060
  858SOL     OW 2572   0.213   0.740   1.806 -0.4984 -0.2249  0.2667
  858SOL    HW1 2573   0.160   0.690   1.735 -1.6782 -3.2490 -2.4829
  858SOL    HW2 2574   0.224   0.677   1.884  1.3886  2.2005 -1.3632
  859SOL     OW 2575   2.246   0.038   1.101  0.5228  0.0329  0.0401
  859SOL    HW1 2576   2.315   3.059   1.145  0.1333 -3.8892 -0.2676
  859SOL    HW2 2577   2.299   0.128   1.077  2.8582 -0.5342 -2.5605
  860SOL     OW 2578   1.199   0.978   1.444 -0.2066 -0.6680 -0.1663
  860SOL    HW1 2579   1.141   0.901   1.409  1.5919 -0.4165  2.0108
  860SOL    HW2 2580   1.297   0.965   1.423  1.3935 -1.7569  1.6462
  861SOL     OW 2581   1.701   0.938   1.161  0.0731  0.1597 -0.3083
  861SOL    HW1 2582   1.662   0.896   1.245  0.5760 -0.5446 -1.7026
  861SOL    HW2 2583   1.784   0.995   1.186  1.4497 -0.4216 -1.2606
  862SOL     OW 2584   0.855   0.149   2.263 -0.0997  0.4323  0.1018
  862SOL    HW1 2585   0.906   0.061   2.244  1.5082 -2.4867  0.6972
  862SOL    HW2 2586   0.774   0.157   2.204  2.7403  1.5493  2.0535
  863SOL     OW 2587   2.718   0.264   1.464  0.9065 -0.0396 -0.5363
  863SOL    HW1 2588   2.667   0.269   1.557 -1.3549 -1.8287  2.3679
  863SOL    HW2 2589   2.791   0.336   1.457  0.6211 -0.2156 -1.5269
  864SOL     OW 2590   2.835   2.988   2.413  0.7438 -0.7430 -0.3096
  864SOL    HW1 2591   2.800   2.906   2.364 -1.0614 -0.2410  1.1335
  864SOL    HW2 2592   2.846   3.063   2.350  0.6814 -0.0908  1.5262
  865SOL     OW 2593   1.132   1.250   2.500  0.3055 -0.2327  0.0292
  865SOL    HW1 2594   1.073   1.200   2.570 -1.7118 -0.7371 -0.1011
  865SOL    HW2 2595   1.146   1.344   2.532 -2.4165 -0.2873  0.1973
  866SOL     OW 2596   2.601   2.480   0.959 -0.4099  0.5365 -0.4045
  866SOL    HW1 2597   2.637   2.529   1.043 -1.4991  0.7527  2.4987
  866SOL    HW2 2598   2.605   2.381   0.971  1.6918 -1.2485 -0.6056
  867SOL     OW 2599   2.659   2.632   1.200  0.3075  0.0934  0.6368
  867SOL    HW1 2600   2.751   2.683   1.204  3.4807  1.4568  2.0921
  867SOL    HW2 2601   2.656   2.549   1.261 -1.2669 -0.6960  0.5869
  868SOL     OW 2602   3.073   1.180   1.354  0.1899  0.4236  0.2430
  868SOL    HW1 2603   3.067   1.144   1.257  1.2141 -3.8569  0.5625
  868SOL    HW2 2604   0.018   1.276   1.354 -0.0477  2.5418 -1.3733
  869SOL     OW 2605   2.144   1.958   2.291  0.3758 -0.1904  0.1133
  869SOL    HW1 2606   2.225   1.971   2.349 -0.8769 -1.7765  2.6851
  869SOL    HW2 2607   2.074   1.907   2.347  0.7955  0.3910 -0.2077
  870SOL     OW 2608   1.631   1.047   0.698  0.1973  0.5350  0.2730
  870SOL    HW1 2609   1.618   1.056   0.800  2.9119 -1.0850  1.3622
  870SOL    HW2 2610   1.629   1.136   0.652  3.7440 -4.1023  0.5912
  871SOL     OW 2611   2.511   1.542   1.796 -0.0124  0.3032  0.2258
  871SOL    HW1 2612   2.434   1.555   1.856  1.9540 -1.3719 -2.3791
  871SOL    HW2 2613   2.552   1.633   1.765  1.8242  0.5234  2.7519
  872SOL     OW 2614   1.357   1.615   2.821 -0.2043 -0.3178 -0.0049
  872SOL    HW1 2615   1.328   1.713   2.838 -2.1321  0.3814 -0.4380
  872SOL    HW2 2616   1.457   1.609   2.852 -1.5459  1.3838  1.5715
  873SOL     OW 2617   1.005   1.307   1.715  0.6639  0.0821  0.3634
  873SOL    HW1 2618   0.998   1.218   1.663  1.5717  1.9731  0.1996
  873SOL    HW2 2619   1.074   1.283   1.788  4.1335  1.6009  0.6919
  874SOL     OW 2620   1.199   1.242   1.393 -0.8419  0.1381 -0.0630
  874SOL    HW1 2621   1.206   1.146   1.433 -0.1345 -0.3327  1.7510
  874SOL    HW2 2622   1.103   1.272   1.405  1.1629 -0.2879 -2.4522
  875SOL     OW 2623   2.621   2.934   2.790 -0.0157  0.1005 -0.3415
  875SOL    HW1 2624   2.670   3.012   2.741 -0.1351  0.9348  2.2106
  875SOL    HW2 2625   2.663   2.902   2.877  0.3047 -1.6686 -0.3875
  876SOL     OW 2626   0.995   0.874   0.534  0.7369  0.0577  0.4485
  876SOL    HW1 2627   0.907   0.839   0.495 -1.8289  1.1247  1.5886
  876SOL    HW2 2628   0.981   0.920   0.622 -2.1190  0.7597 -1.4092
  877SOL     OW 2629   1.748   2.821   0.608  0.0853  0.1416 -0.5888
  877SOL    HW1 2630   1.770   2.862   0.517  0.1044 -1.8923 -0.5061
  877SOL    HW2 2631   1.840   2.791   0.648 -0.1249 -1.4129  1.7504
  878SOL     OW 2632   2.515   2.134   0.267  0.0089  0.2941 -0.2191
  878SOL    HW1 2633   2.549   2.063   0.202 -1.1676  2.5732  0.5952
  878SOL    HW2 2634   2.560   2.226   0.242  0.2960  0.5058 -1.1641
  879SOL     OW 2635   0.246   2.547   1.714  0.2695  0.7479 -0.3194
  879SOL    HW1 2636   0.151   2.538   1.748 -0.2707 -0.6560 -3.5927
  879SOL    HW2 2637   0.257   2.479   1.640 -0.2777  0.8135  1.5681
  880SOL     OW 2638   0.274   1.678   0.836 -0.1696 -0.3997  0.3222
  880SOL    HW1 2639   0.250   1.753   0.901  0.1893  0.7648  0.9648
  880SOL    HW2 2640   0.372   1.646   0.846  1.7339 -4.1973  2.7948
  881SOL     OW 2641   1.244   0.316   2.425 -0.5016 -0.3634  0.3575
  881SOL    HW1 2642   1.217   0.298   2.522  1.1858 -1.5807  1.8228
  881SOL    HW2 2643   1.184   0.389   2.381  1.5671 -0.3655 -0.2260
  882SOL     OW 2644   2.583   1.217   0.392  0.1422  0.8637  0.0833
  882SOL    HW1 2645   2.498   1.233   0.445  1.1213 -1.0124  0.8393
  882SOL    HW2 2646   2.671   1.235   0.443  1.4559 -0.1080 -1.5474
  883SOL     OW 2647   1.599   0.640   2.670  0.7476  0.2457  0.3756
  883SOL    HW1 2648   1.664   0.636   2.750 -2.3409  2.9038  0.4661
  883SOL    HW2 2649   1.646   0.672   2.586 -0.9183 -2.1724  2.0392
  884SOL     OW 2650   0.135   0.201   2.031  0.0777 -0.1407 -0.2814
  884SOL    HW1 2651   0.171   0.169   2.122  0.3872  1.1159  1.8209
  884SOL    HW2 2652   0.195   0.178   1.957 -3.6519  0.5941  2.9113
  885SOL     OW 2653   1.917   1.430   2.362 -0.0471  1.0798  0.4100
  885SOL    HW1 2654   1.857   1.351   2.341 -0.7066  3.3241 -0.0316
  885SOL    HW2 2655   1.899   1.466   2.455 -0.7888 -1.5769  1.5998
  886SOL     OW 2656   1.877   0.296   2.782 -0.4383 -0.7840  0.6017
  886SOL    HW1 2657   1.946   0.226   2.817 -0.2152 -0.9529  0.6076
  886SOL    HW2 2658   1.795   0.257   2.742  1.8437  2.9453  1.6500
  887SOL     OW 2659   1.175   2.840   1.648 -0.4666 -0.0325  0.1597
  887SOL    HW1 2660   1.258   2.888   1.673 -3.5600  0.7425  1.8579
  887SOL    HW2 2661   1.198   2.744   1.625  0.1035 -1.5468 -1.2359
  888SOL     OW 2662   2.561   1.065   1.412 -0.0565  0.1622 -0.1993
  888SOL    HW1 2663   2.484   1.076   1.480  0.5235  0.3941  0.1982
  888SOL    HW2 2664   2.625   0.997   1.446  0.4715  2.2725  0.5211
  889SOL     OW 2665   1.975   2.525   1.312 -0.9873  0.0940 -0.4152
  889SOL    HW1 2666   1.938   2.613   1.279  2.7865  0.8152  0.8854
  889SOL    HW2 2667   1.932   2.501   1.401  0.7255 -1.5009 -0.3898
  890SOL     OW 2668   0.937   2.377   0.815 -0.4850  0.2415  0.5349
  890SOL    HW1 2669   1.009   2.302   0.829  2.1430  0.8602 -0.0521
  890SOL    HW2 2670   0.986   2.463   0.840  0.3629 -5.1566  1.0620
  891SOL     OW 2671   2.878   1.535   0.071 -0.4839  0.0982  0.4068
  891SOL    HW1 2672   2.791   1.489   0.089  2.0520 -0.7415  1.3429
  891SOL    HW2 2673   2.926   1.492   3.084  0.0938 -0.6267 -0.0972
  892SOL     OW 2674   2.486   1.758   2.410 -0.8496  0.2656 -0.3406
  892SOL    HW1 2675   2.577   1.782   2.449 -0.1331 -0.8063 -1.5418
  892SOL    HW2 2676   2.497   1.725   2.313  0.8177  0.1586  1.4346
  893SOL     OW 2677   2.337   2.469   0.848  0.5592  0.1423 -0.0195
  893SOL    HW1 2678   2.426   2.478   0.890  0.0284  0.7660  1.4417
  893SOL    HW2 2679   2.350   2.486   0.745 -2.2014  0.1181 -1.3083
  894SOL     OW 2680   2.927   0.764   0.679  0.0023  0.4834  0.3322
  894SOL    HW1 2681   2.915   0.783   0.778  1.1992 -0.6353 -0.3814
  894SOL    HW2 2682   2.971   0.673   0.669  3.8027  1.5671  2.6149
  895SOL     OW 2683   2.860   2.369   2.356  0.2007 -0.2111 -0.1253
  895SOL    HW1 2684   2.891   2.467   2.363  0.9024  0.1408  2.4414
  895SOL    HW2 2685   2.865   2.321   2.444  0.3868  2.7365 -1.0886
  896SOL     OW 2686   1.940   2.515   2.484 -0.4218 -0.1446  0.4660
  896SOL    HW1 2687   2.032   2.470   2.506  1.1939 -2.2451 -1.3016
  896SOL    HW2 2688   1.863   2.476   2.534  2.8937  0.5933  0.4032
  897SOL     OW 2689   0.126   1.529   1.656  0.5234  0.3913 -0.1213
  897SOL    HW1 2690   0.132   1.432   1.632 -1.2980  0.4603 -1.0186
  897SOL    HW2 2691   0.064   1.542   1.735 -0.1900  0.0320  0.8192
  898SOL     OW 2692   0.161   2.169   1.977 -1.0932 -0.0126  0.0194
  898SOL    HW1 2693   0.108   2.100   1.927  0.9992  0.9289 -0.3036
  898SOL    HW2 2694   0.103   2.230   2.029  1.8642 -0.0195 -2.7482
  899SOL     OW 2695   1.827   0.187   1.554 -0.4510 -0.2958  0.3472
  899SOL    HW1 2696   1.774   0.194   1.471  2.2055 -0.1193  2.6597
  899SOL    HW2 2697   1.906   0.121   1.541 -1.2794 -1.3517 -0.5073
  900SOL     OW 2698   1.492   1.138   0.318 -0.2275 -0.0978 -0.4060
  900SOL    HW1 2699   1.539   1.052   0.281 -0.9092 -3.5635 -3.0532
  900SOL    HW2 2700   1.434   1.180   0.250  1.0842  1.8073 -1.4247
  901SOL     OW 2701   1.572   1.237   2.636 -0.0183 -0.5089  0.7222
  901SOL    HW1 2702   1.525   1.240   2.546 -1.8714 -2.4571 -0.9054
  901SOL    HW2 2703   1.522   1.168   2.696 -0.1658 -1.0374  1.2285
  902SOL     OW 2704   3.011   2.527   1.099  0.0389 -0.0230 -0.8130
  902SOL    HW1 2705   3.067   2.609   1.080 -0.9317 -2.1016 -1.2243
  902SOL    HW2 2706   3.016   2.469   1.022 -0.6372  3.9108  2.6011
  903SOL     OW 2707   2.816   1.318   1.996 -0.3080 -0.1487  0.1934
  903SOL    HW1 2708   2.776   1.365   2.079  0.8453 -0.6836  0.0671
  903SOL    HW2 2709   2.788   1.220   2.006 -0.1535  3.2530  0.2720
  904SOL     OW 2710   1.335   1.559   0.066  0.0608 -0.0221 -0.4381
  904SOL    HW1 2711   1.374   1.489   0.004  0.4329  2.4142 -0.0785
  904SOL    HW2 2712   1.351   1.650   0.025  0.3000  1.6679  2.7896
  905SOL     OW 2713   2.065   2.717   1.846 -0.1282  0.5878  0.3355
  905SOL    HW1 2714   2.130   2.637   1.833  1.8528 -2.2619 -2.1743
  905SOL    HW2 2715   2.114   2.800   1.814 -0.7014 -1.9398  2.0924
  906SOL     OW 2716   1.745   2.715   2.800  0.0463 -0.1611  0.0725
  906SOL    HW1 2717   1.838   2.698   2.838  0.9583 -1.4218  0.7523
  906SOL    HW2 2718   1.742   2.799   2.739 -2.1565  0.3271 -1.2955
  907SOL     OW 2719   0.346   2.713   0.997  0.2866  0.1950  0.5333
  907SOL    HW1 2720   0.365   2.808   1.022  0.5043  0.8108  0.6707
  907SOL    HW2 2721   0.356   2.694   0.895 -1.1175 -1.0048 -0.5181
  908SOL     OW 2722   0.785   0.037   1.749  0.0276  0.9231 -0.1385
  908SOL    HW1 2723   0.876   0.024   1.707 -0.9498  1.3254  2.4048
  908SOL    HW2 2724   0.755   3.047   1.812  1.9504 -0.5918  1.1377
  909SOL     OW 2725   1.647   0.478   1.395 -0.3372  0.2737  0.4367
  909SOL    HW1 2726   1.696   0.543   1.457  0.8489  0.1799  3.2448
  909SOL    HW2 2727   1.587   0.542   1.333 -1.6753  2.4275  0.2461
  910SOL     OW 2728   0.695   0.476   0.248  0.4126 -0.2435 -0.4650
  910SOL    HW1 2729   0.730   0.458   0.346 -0.1890  1.3358  0.4458
  910SOL    HW2 2730   0.624   0.409   0.213 -1.8900  2.5060 -3.1039
  911SOL     OW 2731   0.228   0.021   3.025  0.2307 -0.2417  0.7378
  911SOL    HW1 2732   0.144   3.063   3.063  0.8791 -0.5787  1.8929
  911SOL    HW2 2733   0.296   3.040   2.994 -2.6703  2.9390 -2.0809
  912SOL     OW 2734   0.015   2.380   2.579 -0.1814  0.2331  0.8129
  912SOL    HW1 2735   0.062   2.447   2.640 -2.2843  1.8194 -2.8356
  912SOL    HW2 2736   0.042   2.396   2.476  0.2456  1.0628 -1.6803
  913SOL     OW 2737   2.204   2.652   0.393  0.1753  0.4798 -0.1626
  913SOL    HW1 2738   2.143   2.687   0.317 -2.6996 -1.3867  0.7160
  913SOL    HW2 2739   2.281   2.711   0.417 -2.3150  0.8754  0.2567
  914SOL     OW 2740   1.430   1.725   1.984  0.1540  0.2971 -0.1656
  914SOL    HW1 2741   1.497   1.710   2.062 -2.5028 -0.1934 -0.5856
  914SOL    HW2 2742   1.378   1.811   2.003 -1.3891 -1.2900 -1.4444
  915SOL     OW 2743   2.938   2.624   2.321 -0.0160  0.2633  0.1173
  915SOL    HW1 2744   2.997   2.630   2.237 -0.5125 -0.3592  2.2427
  915SOL    HW2 2745   2.854   2.681   2.307 -0.5683  1.7927  0.6844
  916SOL     OW 2746   3.061   0.651   2.187 -0.6363 -0.3072  0.3622
  916SOL    HW1 2747   3.013   0.744   2.182  0.4781 -0.6187  2.1828
  916SOL    HW2 2748   0.041   0.647   2.106 -3.2997  0.7614 -0.3091
  917SOL     OW 2749   1.853   3.044   2.971  0.1811  0.1161  0.4730
  917SOL    HW1 2750   1.853   3.077   3.068  0.6194  0.5925  0.8950
  917SOL    HW2 2751   1.757   3.033   2.937 -2.0244 -0.9108  2.3937
  918SOL     OW 2752   1.775   2.560   2.273  0.0162  0.3257  0.0144
  918SOL    HW1 2753   1.734   2.651   2.293 -0.1067  0.1853  0.3760
  918SOL    HW2 2754   1.861   2.548   2.333 -3.1150  1.1440  1.2892
  919SOL     OW 2755   1.621   2.250   1.687 -0.1136  0.3830  0.4577
  919SOL    HW1 2756   1.669   2.310   1.750  0.7069 -1.6935 -0.8160
  919SOL    HW2 2757   1.552   2.191   1.734  1.4144  0.2048  2.8194
  920SOL     OW 2758   0.237   1.050   0.261  0.1628 -0.0881 -0.3899
  920SOL    HW1 2759   0.144   1.012   0.245 -3.2552 -0.0141  1.8264
  920SOL    HW2 2760   0.311   0.978   0.266 -2.3497  1.3688 -2.7349
  921SOL     OW 2761   2.308   1.213   2.570  0.0860  0.0527 -0.1195
  921SOL    HW1 2762   2.295   1.284   2.501  0.4454 -0.8102  0.0572
  921SOL    HW2 2763   2.409   1.205   2.596  2.0775 -0.5162 -1.7502
  922SOL     OW 2764   1.013   1.823   0.055 -0.1624  0.4291 -0.0453
  922SOL    HW1 2765   0.939   1.766   0.015 -1.2265  0.5236 -2.5170
  922SOL    HW2 2766   1.048   1.786   0.142 -1.6663 -1.8937 -0.5055
  923SOL     OW 2767   0.563   1.005   2.192  0.0696  0.4812  0.1083
  923SOL    HW1 2768   0.599   0.991   2.097  0.9484 -0.4352 -2.4566
  923SOL    HW2 2769   0.622   0.969   2.272 -1.5687  0.2782  4.2567
  924SOL     OW 2770   0.644   2.449   2.879 -0.0160  0.5568 -0.6134
  924SOL    HW1 2771   0.671   2.487   2.966 -0.3869 -4.3761  0.2048
  924SOL    HW2 2772   0.543   2.465   2.863  1.2745  0.7357 -0.9689
  925SOL     OW 2773   1.634   1.332   0.943  0.0275 -0.4589  0.5823
  925SOL    HW1 2774   1.588   1.243   0.937  0.4972  4.0461 -1.8862
  925SOL    HW2 2775   1.569   1.408   0.915 -1.0255 -0.2312 -3.3573
  926SOL     OW 2776   1.645   0.405   2.523  0.1997  0.5701  0.0814
  926SOL    HW1 2777   1.610   0.460   2.599  1.1673  0.0421  0.7827
  926SOL    HW2 2778   1.711   0.460   2.468 -1.8603 -1.2891 -1.0081
  927SOL     OW 2779   2.640   2.967   2.085  0.1820  0.3967 -0.0228
  927SOL    HW1 2780   2.581   2.885   2.069  0.4203  1.9084 -1.3681
  927SOL    HW2 2781   2.658   3.016   2.000 -0.1100 -0.5190 -0.3632
  928SOL     OW 2782   0.378   1.386   2.820  0.3681 -0.8912  0.5244
  928SOL    HW1 2783   0.346   1.470   2.871  0.7488 -0.6883 -0.8536
  928SOL    HW2 2784   0.478   1.386   2.815 -0.6242  0.0439 -0.5290
  929SOL     OW 2785   0.061   0.159   0.703 -0.4106 -0.4945  0.0084
  929SOL    HW1 2786   0.102   0.251   0.725  1.4919  0.9439  3.6527
  929SOL    HW2 2787   0.121   0.097   0.652  0.1722 -0.2598 -0.5565
  930SOL     OW 2788   2.204   0.226   1.944 -0.2113  0.4810 -0.1228
  930SOL    HW1 2789   2.107   0.224   1.911  0.4523 -1.2692 -0.9272
  930SOL    HW2 2790   2.268   0.204   1.869 -1.1894 -0.1286 -3.1532
  931SOL     OW 2791   2.483   1.149   0.152  0.3110  0.2524 -0.1323
  931SOL    HW1 2792   2.383   1.139   0.141 -1.1719 -1.1407 -2.3802
  931SOL    HW2 2793   2.511   1.148   0.244 -2.9507 -1.8972 -2.2853
  932SOL     OW 2794   2.450   1.527   1.306  0.0946 -0.1792 -0.2461
  932SOL    HW1 2795   2.535   1.498   1.262  1.3864  0.4532  3.6272
  932SOL    HW2 2796   2.385   1.560   1.237  0.0078 -2.0500  0.7760
  933SOL     OW 2797   2.662   2.379   1.639 -0.1517  0.4664  0.2512
  933SOL    HW1 2798   2.720   2.329   1.705 -2.0287  0.1821  1.3356
  933SOL    HW2 2799   2.649   2.477   1.661 -0.9840  0.7580 -0.3613
  934SOL     OW 2800   0.487   2.941   1.055 -0.3494  0.6909 -0.2608
  934SOL    HW1 2801   0.561   2.872   1.040 -2.3072  1.4414 -0.5475
  934SOL    HW2 2802   0.499   2.988   1.142  0.3170  0.9791  2.4070
  935SOL     OW 2803   2.422   1.059   2.166 -0.5733 -0.0691 -0.8615
  935SOL    HW1 2804   2.502   1.009   2.215  2.4302 -2.9459 -0.3122
  935SOL    HW2 2805   2.451   1.156   2.176  0.8919  0.0238  1.1904
  936SOL     OW 2806   2.236   0.938   2.031  0.3370 -0.7543  0.5798
  936SOL    HW1 2807   2.290   0.937   1.942  1.9829  0.5415 -1.0263
  936SOL    HW2 2808   2.295   0.963   2.113  2.1928  1.1282 -0.6780
  937SOL     OW 2809   1.659   1.146   1.937 -0.5583  0.0832  0.1498
  937SOL    HW1 2810   1.602   1.064   1.923  3.6735  2.4990  0.4021
  937SOL    HW2 2811   1.755   1.123   1.966 -2.1198 -0.3838  0.6509
  938SOL     OW 2812   0.660   2.560   0.050  0.1445  0.5647  0.4259
  938SOL    HW1 2813   0.660   2.665   0.038 -0.6189  1.8827 -1.1369
  938SOL    HW2 2814   0.567   2.521   0.072  0.1304  0.2058  3.2275
  939SOL     OW 2815   2.262   0.563   3.060 -0.6170 -0.4676  0.3856
  939SOL    HW1 2816   2.219   0.609   2.981 -0.4536  0.6861 -1.8560
  939SOL    HW2 2817   2.362   0.571   3.052  2.3898 -2.1638 -0.8301
  940SOL     OW 2818   1.106   2.176   0.852  0.4462 -0.4394  0.2684
  940SOL    HW1 2819   1.123   2.151   0.946  2.9167  3.9078 -3.1581
  940SOL    HW2 2820   1.096   2.092   0.793 -0.9554 -1.0099 -0.0853
  941SOL     OW 2821   1.077   2.151   1.562  0.1488 -0.0618  0.0876
  941SOL    HW1 2822   1.007   2.207   1.513  0.5151 -1.2295 -2.1181
  941SOL    HW2 2823   1.040   2.054   1.583  1.2183  2.0155  1.7797
  942SOL     OW 2824   0.113   2.078   3.004  0.0886 -0.2619 -0.1302
  942SOL    HW1 2825   0.128   1.975   3.013  0.7969 -1.6108  1.0359
  942SOL    HW2 2826   0.036   2.095   2.936 -1.0830 -0.6376  0.0226
  943SOL     OW 2827   2.076   0.063   1.559 -0.2248 -0.0259  0.5278
  943SOL    HW1 2828   2.073   3.063   1.512  3.0011  2.6742  0.9896
  943SOL    HW2 2829   2.112   0.140   1.502 -1.1855  0.9992  1.2920
  944SOL     OW 2830   1.702   2.079   2.798  0.5306 -0.1336 -0.4622
  944SOL    HW1 2831   1.656   1.998   2.752  0.3824  0.6770 -0.4098
  944SOL    HW2 2832   1.800   2.075   2.774 -1.7799  2.5121 -2.7595
  945SOL     OW 2833   2.507   2.217   0.746 -0.0046 -0.6906 -0.2795
  945SOL    HW1 2834   2.535   2.132   0.795 -2.6940 -2.8251 -2.1022
  945SOL    HW2 2835   2.506   2.192   0.646  2.3090 -0.9703 -1.9743
  946SOL     OW 2836   1.220   1.521   2.595 -0.1544  0.4234  0.1265
  946SOL    HW1 2837   1.131   1.568   2.595  4.1840 -1.3460 -2.4131
  946SOL    HW2 2838   1.272   1.562   2.670  1.7998 -0.6291 -0.8516
  947SOL     OW 2839   0.210   0.563   2.013  0.3852 -0.3806 -0.6772
  947SOL    HW1 2840   0.282   0.589   2.083 -1.9443  0.2743  0.3920
  947SOL    HW2 2841   0.226   0.472   1.976  0.3059  0.6488 -2.0718
  948SOL     OW 2842   3.085   1.255   0.663 -0.5147  0.3823  0.2687
  948SOL    HW1 2843   0.073   1.329   0.668  0.0403  2.9764  0.7312
  948SOL    HW2 2844   0.017   1.178   0.730 -1.7234 -0.7741 -0.5302
  949SOL     OW 2845   0.652   0.685   2.389  0.0978  0.3758 -0.0472
  949SOL    HW1 2846   0.549   0.677   2.403 -0.4026 -0.0288  0.2443
  949SOL    HW2 2847   0.682   0.612   2.325  0.0020  0.2244  0.5404
  950SOL     OW 2848   0.220   0.519   1.517  0.2615 -0.2014  0.0060
  950SOL    HW1 2849   0.186   0.422   1.508  1.1221 -1.4463  0.8988
  950SOL    HW2 2850   0.146   0.578   1.562 -5.5565  1.7075  0.8537
  951SOL     OW 2851   0.297   1.133   2.846 -0.0987  0.0497 -0.4472
  951SOL    HW1 2852   0.321   1.233   2.841  0.6581  3.2336 -1.0635
  951SOL    HW2 2853   0.343   1.099   2.928  0.7645  2.1533 -0.9934
  952SOL     OW 2854   1.687   2.157   0.975  0.2315 -0.2750 -0.0587
  952SOL    HW1 2855   1.585   2.164   0.975 -0.2927 -1.3788  0.0074
  952SOL    HW2 2856   1.732   2.206   1.053  0.4184 -0.2988 -1.6979
  953SOL     OW 2857   0.600   2.824   0.100 -0.3148 -1.0159 -0.3972
  953SOL    HW1 2858   0.558   2.850   0.188  1.3657 -3.5467  1.6918
  953SOL    HW2 2859   0.565   2.881   0.023 -2.7116 -1.2967 -2.6373
  954SOL     OW 2860   2.553   0.701   1.137  0.5169  0.3075  0.3068
  954SOL    HW1 2861   2.550   0.698   1.241  2.2622  0.1389  0.8931
  954SOL    HW2 2862   2.569   0.611   1.095 -1.8799 -0.0848 -0.7209
  955SOL     OW 2863   1.792   1.293   2.935 -0.0034  0.1358  0.1972
  955SOL    HW1 2864   1.892   1.318   2.942  1.8706 -1.6595 -2.0524
  955SOL    HW2 2865   1.785   1.195   2.963 -0.9383  0.4025 -1.0001
  956SOL     OW 2866   1.311   0.995   2.546 -0.8795  0.0408  0.1854
  956SOL    HW1 2867   1.210   1.005   2.548  2.5358  1.8732 -1.8239
  956SOL    HW2 2868   1.335   0.902   2.572 -2.6011  2.8029  0.2127
  957SOL     OW 2869   1.222   0.179   1.628  0.1834  0.6166  0.1123
  957SOL    HW1 2870   1.272   0.237   1.696  0.6240  0.8713  0.4740
  957SOL    HW2 2871   1.222   0.221   1.534 -0.7821 -1.0696  0.4306
  958SOL     OW 2872   0.299   1.905   0.434 -0.1351 -0.3051  0.0007
  958SOL    HW1 2873   0.235   1.856   0.497  0.8981 -2.4205 -0.5292
  958SOL    HW2 2874   0.243   1.942   0.356 -2.3343 -0.6292 -1.0887
  959SOL     OW 2875   1.880   0.861   1.821 -0.2972 -0.0695 -0.4180
  959SOL    HW1 2876   1.928   0.915   1.887 -2.9694 -2.7365 -2.2126
  959SOL    HW2 2877   1.942   0.783   1.794 -1.0878  0.3426  1.8441
  960SOL     OW 2878   0.303   1.624   2.940  0.2449  0.2748  0.3288
  960SOL    HW1 2879   0.314   1.697   2.868  0.9581  0.1622 -1.2437
  960SOL    HW2 2880   0.399   1.599   2.971  1.1059 -0.6603  1.6648
  961SOL     OW 2881   0.608   1.863   0.891  0.2150 -0.2086 -0.0822
  961SOL    HW1 2882   0.531   1.933   0.894 -1.2585 -0.4465  0.3155
  961SOL    HW2 2883   0.702   1.896   0.910 -1.6590 -2.0459  1.0015
  962SOL     OW 2884   0.153   1.734   1.463  0.5276  0.0025  0.4387
  962SOL    HW1 2885   0.198   1.679   1.390  1.4493 -1.8743 -0.8178
  962SOL    HW2 2886   0.115   1.675   1.539 -0.9511  1.5067 -0.1987
  963SOL     OW 2887   1.567   1.879   2.608  0.1434  0.0626  0.4503
  963SOL    HW1 2888   1.479   1.900   2.555 -1.0299  1.4839  1.9529
  963SOL    HW2 2889   1.651   1.872   2.549 -0.6971  2.6275  0.4759
  964SOL     OW 2890   0.126   2.964   2.199  0.0240 -0.0871 -0.2444
  964SOL    HW1 2891   0.067   2.922   2.270 -1.7601  0.2073  2.1841
  964SOL    HW2 2892   0.071   3.013   2.124 -1.6566  0.9988 -0.3323
  965SOL     OW 2893   3.064   2.169   2.747 -0.1402  0.3170  0.0107
  965SOL    HW1 2894   3.084   2.255   2.696 -1.1604  0.5474 -2.6851
  965SOL    HW2 2895   2.988   2.117   2.710  0.3514  0.1358  2.4121
  966SOL     OW 2896   2.989   1.893   2.886  0.1504  0.0192 -0.2621
  966SOL    HW1 2897   2.897   1.857   2.873  2.3605  1.0612  2.6899
  966SOL    HW2 2898   3.051   1.819   2.923 -1.3281 -1.3869  0.1542
  967SOL     OW 2899   1.900   0.041   0.144 -0.2502 -0.0288  0.6086
  967SOL    HW1 2900   1.879   0.140   0.169 -0.1144  0.2224 -0.1306
  967SOL    HW2 2901   1.850   3.060   0.198  1.9687 -1.2244  2.4442
  968SOL     OW 2902   2.595   3.039   0.750 -0.2490 -0.1586  0.1986
  968SOL    HW1 2903   2.530   2.964   0.767  1.8682 -0.2536 -0.9813
  968SOL    HW2 2904   2.549   0.042   0.772 -0.8479 -0.2939  0.9580
  969SOL     OW 2905   0.212   0.958   2.017  0.4442  0.5203  0.1161
  969SOL    HW1 2906   0.136   0.938   1.949 -2.0174 -1.0747 -1.3356
  969SOL    HW2 2907   0.255   1.045   1.986 -0.3310  2.2186  1.6445
  970SOL     OW 2908   1.891   1.743   2.818 -0.1293  0.5887 -0.1589
  970SOL    HW1 2909   1.979   1.773   2.863  1.6901 -0.1608  1.0574
  970SOL    HW2 2910   1.820   1.773   2.884  1.5191  2.2272  1.9934
  971SOL     OW 2911   2.330   0.155   1.694 -0.2857  0.0038  0.1737
  971SOL    HW1 2912   2.284   0.232   1.648  0.8985  0.1976  3.1203
  971SOL    HW2 2913   2.363   0.083   1.626 -1.7240 -0.7221 -1.6464
  972SOL     OW 2914   2.898   0.445   0.872 -0.2833 -0.0752 -0.7950
  972SOL    HW1 2915   2.803   0.419   0.837  0.8872 -0.8994  0.3099
  972SOL    HW2 2916   2.957   0.478   0.796  0.5645  2.4326 -2.2623
  973SOL     OW 2917   0.508   0.413   2.298  0.0319 -0.4067  0.0031
  973SOL    HW1 2918   0.473   0.347   2.222  1.0532 -0.2678 -2.4095
  973SOL    HW2 2919   0.512   0.360   2.390  0.7514 -3.0564  3.9045
  974SOL     OW 2920   2.781   0.862   1.766 -0.4478  0.3481 -0.3820
  974SOL    HW1 2921   2.703   0.929   1.766 -1.7867  2.0765  1.3672
  974SOL    HW2 2922   2.768   0.790   1.839 -1.9324 -0.8074  0.2525
  975SOL     OW 2923   1.522   2.872   2.048 -0.0673 -0.4906  0.4176
  975SOL    HW1 2924   1.575   2.883   1.963 -1.2020 -3.4182 -1.2678
  975SOL    HW2 2925   1.505   2.773   2.071 -2.7125  1.1497  1.7428
  976SOL     OW 2926   1.825   1.518   1.400  0.9838  0.3093 -0.9677
  976SOL    HW1 2927   1.863   1.491   1.490  0.8077 -2.6818 -1.9676
  976SOL    HW2 2928   1.887   1.582   1.355 -3.6313 -1.2944  4.0384
  977SOL     OW 2929   0.239   2.809   2.989 -0.0319  0.0998 -0.3101
  977SOL    HW1 2930   0.309   2.822   2.916  0.2020  1.4404 -2.2376
  977SOL    HW2 2931   0.235   2.712   3.024  3.0860 -3.4725  0.5288
  978SOL     OW 2932   1.980   1.366   2.090 -0.7258 -0.5443 -0.2047
  978SOL    HW1 2933   1.890   1.375   2.041 -1.9995  0.3037 -0.6776
  978SOL    HW2 2934   1.980   1.431   2.166  0.1530  1.9301  2.7248
  979SOL     OW 2935   1.253   0.933   2.171  0.1607  0.0580 -0.3106
  979SOL    HW1 2936   1.179   0.957   2.230  0.8808 -0.9368 -2.8646
  979SOL    HW2 2937   1.228   0.969   2.082  0.4479 -0.1157 -1.0049
  980SOL     OW 2938   1.756   1.880   2.376 -0.0158  0.0517  0.0467
  980SOL    HW1 2939   1.735   1.976   2.351 -0.0616  0.8727  1.9065
  980SOL    HW2 2940   1.852   1.870   2.391 -0.9838 -1.9249 -0.6433
  981SOL     OW 2941   1.575   0.702   2.012 -0.2433  0.0927  0.0707
  981SOL    HW1 2942   1.581   0.782   1.955  1.0945 -2.0266  2.3179
  981SOL    HW2 2943   1.560   0.732   2.111 -0.1908  0.1546  3.1566
  982SOL     OW 2944   0.520   0.254   0.225  0.1910 -0.2697  0.5080
  982SOL    HW1 2945   0.448   0.259   0.296 -0.3022 -2.5705 -0.1690
  982SOL    HW2 2946   0.476   0.224   0.136 -0.2708  0.1394 -0.5707
  983SOL     OW 2947   2.111   0.644   2.843  0.2135 -0.2603  0.2958
  983SOL    HW1 2948   2.140   0.722   2.784 -1.7413 -0.7714  0.5658
  983SOL    HW2 2949   2.043   0.585   2.801  0.1596  2.9530  1.5224
  984SOL     OW 2950   1.041   0.394   2.683  0.2655 -0.4994 -0.2061
  984SOL    HW1 2951   0.987   0.340   2.619  2.7636  2.7616  1.7970
  984SOL    HW2 2952   1.096   0.328   2.738 -0.5308  0.4660  1.0927
  985SOL     OW 2953   1.328   2.361   1.976  0.1571 -0.3954  0.1712
  985SOL    HW1 2954   1.364   2.293   1.908 -2.8862  0.3262  1.0064
  985SOL    HW2 2955   1.237   2.395   1.962  3.8277 -0.5839  1.5987
  986SOL     OW 2956   2.210   2.935   1.760  0.2159  0.0726 -0.1314
  986SOL    HW1 2957   2.215   2.958   1.661  1.6757 -0.1031  0.8211
  986SOL    HW2 2958   2.274   2.996   1.814 -1.0058  1.2771  3.1961
  987SOL     OW 2959   1.900   1.294   0.875  0.4734 -0.0397 -0.6759
  987SOL    HW1 2960   1.950   1.209   0.902  2.7936 -1.1886 -0.9960
  987SOL    HW2 2961   1.803   1.295   0.908  0.2083  0.3740 -2.0965
  988SOL     OW 2962   2.342   1.069   1.584 -0.4729  0.1662  0.7873
  988SOL    HW1 2963   2.242   1.064   1.560 -1.0710 -1.0598  0.4596
  988SOL    HW2 2964   2.370   1.162   1.598 -1.2072 -1.5102 -1.8102
  989SOL     OW 2965   1.741   2.026   3.074 -0.3577  0.3527 -0.2381
  989SOL    HW1 2966   1.695   2.070   2.992 -2.8262  0.7108 -0.7840
  989SOL    HW2 2967   1.843   2.007   3.068  2.2945 -2.2633  0.2286
  990SOL     OW 2968   1.845   0.898   2.642  0.3991  0.1314 -0.6070
  990SOL    HW1 2969   1.867   0.996   2.644 -0.8478 -1.9389 -2.9028
  990SOL    HW2 2970   1.837   0.852   2.735  0.0637  1.4260 -0.6446
  991SOL     OW 2971   1.017   0.602   0.597 -0.1228  0.1312 -0.2690
  991SOL    HW1 2972   1.109   0.572   0.568 -0.6083 -1.6617 -0.8995
  991SOL    HW2 2973   0.990   0.693   0.561  0.9999  1.6667  0.4378
  992SOL     OW 2974   2.939   0.848   1.267  0.6333  0.0763 -0.2768
  992SOL    HW1 2975   2.913   0.929   1.211  1.2136 -0.6737  0.0533
  992SOL    HW2 2976   2.939   0.761   1.211  0.1836  0.0831 -2.5781
  993SOL     OW 2977   2.036   0.651   1.781 -0.6465 -0.0072  0.3434
  993SOL    HW1 2978   2.004   0.568   1.737  0.2346  0.4972 -0.4968
  993SOL    HW2 2979   2.142   0.647   1.783  1.7712  0.4214 -2.6648
  994SOL     OW 2980   1.289   1.768   1.708 -0.0473  0.0806 -0.0714
  994SOL    HW1 2981   1.336   1.770   1.798  1.0104  0.6478 -0.8131
  994SOL    HW2 2982   1.226   1.685   1.701  1.5421  1.4908 -2.4517
  995SOL     OW 2983   2.189   1.544   2.763 -0.5918  0.7534  0.1797
  995SOL    HW1 2984   2.251   1.523   2.680  0.8684  0.1303  1.7234
  995SOL    HW2 2985   2.229   1.622   2.816 -0.1483  1.3660  0.7661
  996SOL     OW 2986   2.154   1.634   0.503 -0.3695 -0.0822  0.1821
  996SOL    HW1 2987   2.203   1.631   0.594  1.8797 -1.0955 -0.6813
  996SOL    HW2 2988   2.219   1.605   0.430  1.1977  0.1967 -0.4885
  997SOL     OW 2989   1.958   0.252   1.826 -0.4791  0.0512  0.2459
  997SOL    HW1 2990   1.874   0.269   1.877  2.3153  0.5614 -0.2535
  997SOL    HW2 2991   1.962   0.324   1.756  0.9370  1.3292 -0.8357
  998SOL     OW 2992   2.522   0.796   0.717 -0.0614 -0.0040  0.1350
  998SOL    HW1 2993   2.539   0.848   0.805  0.0141  0.2930  0.6196
  998SOL    HW2 2994   2.563   0.839   0.632  0.8783 -0.7465 -2.5428
  999SOL     OW 2995   2.571   1.510   0.296  0.3756 -0.2619  0.5546
  999SOL    HW1 2996   2.580   1.598   0.248 -2.0319  0.1927 -0.2260
  999SOL    HW2 2997   2.621   1.512   0.384 -1.3573  0.4110 -0.7759
 1000SOL     OW 2998   0.781   1.309   1.987  0.2500  0.2210 -0.2971
 1000SOL    HW1 2999   0.680   1.316   1.971  0.3056 -0.9289 -0.4687
 1000SOL    HW2 3000   0.813   1.216   1.956  0.5459  1.4158 -0.4151
   3.08919   3.08919   3.08919
