1000 SPC/Fw water molecules t= 286.00000 step= 286000
 3000
    1SOL     OW    1   2.625   2.864   0.792  0.0161  0.2937  0.7637
    1SOL    HW1    2   2.688   2.801   0.736  2.9006  0.1733 -3.1395
    1SOL    HW2    3   2.673   2.935   0.841 -2.3155 -3.8054 -1.1213
    2SOL     OW    4   2.667   1.964   0.894  0.2972  0.0369 -0.5083
    2SOL    HW1    5   2.660   1.913   0.807  1.2669 -0.5334  2.1945
    2SOL    HW2    6   2.753   1.937   0.948  3.7588 -0.3372  1.4095
    3SOL     OW    7   1.112   2.625   2.741 -0.3499  0.1198 -0.2475
    3SOL    HW1    8   1.019   2.587   2.725  3.4637  1.5058 -1.1193
    3SOL    HW2    9   1.175   2.552   2.774  2.8658  2.2986  1.7165
    4SOL     OW   10   2.065   2.250   1.274  0.1917 -0.4266  0.1477
    4SOL    HW1   11   2.107   2.341   1.280 -0.8548 -2.8222  0.7126
    4SOL    HW2   12   2.129   2.177   1.244 -1.6141  0.1538  1.4053
    5SOL     OW   13   1.514   1.015   1.260  0.2223  0.1652  0.2263
    5SOL    HW1   14   1.499   1.066   1.169  2.0124  0.6585 -0.5579
    5SOL    HW2   15   1.561   1.073   1.325 -0.4981 -4.1509 -1.0869
    6SOL     OW   16   2.245   2.873   0.104 -0.0767 -0.1125  0.1558
    6SOL    HW1   17   2.248   2.813   0.023 -0.8819  0.7730  5.1279
    6SOL    HW2   18   2.153   2.868   0.151 -3.7316 -1.1086  3.3260
    7SOL     OW   19   2.720   1.329   1.278  0.0637 -0.5912 -0.0255
    7SOL    HW1   20   2.815   1.350   1.296 -3.7796 -1.1706  0.9526
    7SOL    HW2   21   2.702   1.328   1.180 -1.1197 -0.6300 -0.1723
    8SOL     OW   22   1.393   2.923   1.268  0.0879 -0.8643 -0.2604
    8SOL    HW1   23   1.388   2.994   1.189 -1.2811 -0.4512 -0.2345
    8SOL    HW2   24   1.333   2.837   1.250  2.4659  0.2853  0.8184
    9SOL     OW   25   1.686   2.994   2.203  0.0016  0.1857  0.2916
    9SOL    HW1   26   1.711   3.054   2.285 -0.0263  1.6440  0.7827
    9SOL    HW2   27   1.596   2.946   2.213 -1.0513 -1.5054 -1.4201
   10SOL     OW   28   0.591   2.216   0.832 -0.6210 -0.2311  0.0534
   10SOL    HW1   29   0.641   2.305   0.847 -0.1004  1.2268  2.5820
   10SOL    HW2   30   0.648   2.139   0.857  0.4891  1.4837 -1.2074
   11SOL     OW   31   1.785   1.613   0.996 -0.4942  0.3490  0.2511
   11SOL    HW1   32   1.793   1.551   0.917  1.5418  2.3228  0.4012
   11SOL    HW2   33   1.689   1.606   1.036 -1.2670  0.2963  1.7593
   12SOL     OW   34   2.721   2.485   1.743  0.1375 -0.2525 -0.3638
   12SOL    HW1   35   2.729   2.567   1.680  0.3209 -1.5105 -0.0944
   12SOL    HW2   36   2.793   2.488   1.818  0.7607 -1.2139  1.2403
   13SOL     OW   37   2.095   0.142   0.365 -0.0219  0.0143  0.0386
   13SOL    HW1   38   2.012   0.199   0.362  0.6748  2.2168 -1.4886
   13SOL    HW2   39   2.139   0.147   0.456 -0.0199 -2.3461 -0.2021
   14SOL     OW   40   1.907   2.363   0.574  0.2920 -0.1841 -0.3576
   14SOL    HW1   41   1.985   2.352   0.514 -5.3787 -0.1797  2.5690
   14SOL    HW2   42   1.891   2.275   0.617 -1.7825  3.3103 -3.1589
   15SOL     OW   43   2.863   2.030   1.969  0.2791  0.1670  0.4938
   15SOL    HW1   44   2.871   1.933   1.983  0.1818 -1.1574  2.5061
   15SOL    HW2   45   2.812   2.076   2.043 -0.0169  1.4643 -1.1820
   16SOL     OW   46   2.156   2.299   0.491 -0.2769  0.1144  0.4901
   16SOL    HW1   47   2.212   2.381   0.479 -0.4027 -0.4083 -1.6468
   16SOL    HW2   48   2.178   2.248   0.578 -2.0939 -2.1688  2.0114
   17SOL     OW   49   0.629   3.039   1.323  0.2221 -0.1008  0.4200
   17SOL    HW1   50   0.563   2.997   1.391 -2.5086  3.4828  1.1549
   17SOL    HW2   51   0.654   0.032   1.370 -2.3640 -1.4009  2.6669
   18SOL     OW   52   1.205   1.019   0.130  0.3596 -0.3900  0.1068
   18SOL    HW1   53   1.135   1.096   0.137  1.6746  0.1646  2.3607
   18SOL    HW2   54   1.215   0.999   0.028  0.2989  2.6655 -2.4261
   19SOL     OW   55   1.794   1.976   0.310  0.2730 -0.2185 -0.0545
   19SOL    HW1   56   1.875   1.919   0.303  2.4210  0.5321 -1.9009
   19SOL    HW2   57   1.715   1.939   0.258 -1.5032 -1.2597  1.0674
   20SOL     OW   58   2.514   1.765   2.002  0.3596  0.3140  0.6422
   20SOL    HW1   59   2.502   1.866   1.995 -0.3300  1.4231  0.6276
   20SOL    HW2   60   2.423   1.725   1.991  1.2417 -2.4517  0.1896
   21SOL     OW   61   0.745   1.394   0.650  0.5559  0.0532 -0.5443
   21SOL    HW1   62   0.724   1.295   0.652 -0.1560 -1.7080 -2.0416
   21SOL    HW2   63   0.688   1.441   0.581  0.1769 -1.4453 -2.2081
   22SOL     OW   64   2.219   2.923   1.573 -0.0778  0.1455  0.3199
   22SOL    HW1   65   2.136   2.897   1.628  0.3789 -1.5418 -0.7529
   22SOL    HW2   66   2.227   3.024   1.560 -0.4655 -0.0037 -0.7272
   23SOL     OW   67   3.035   0.816   1.900 -0.0830 -0.2602 -0.2309
   23SOL    HW1   68   2.936   0.789   1.913 -3.7121 -1.2583  0.8960
   23SOL    HW2   69   3.084   0.852   1.985  0.8768  4.8171  2.4468
   24SOL     OW   70   2.308   2.532   0.447  0.3003  0.0788 -0.3424
   24SOL    HW1   71   2.368   2.572   0.516  2.5821 -0.7269 -1.5165
   24SOL    HW2   72   2.346   2.546   0.354 -1.5197  0.1089  2.8703
   25SOL     OW   73   1.272   3.043   2.331 -0.3926 -0.4671 -0.4384
   25SOL    HW1   74   1.356   2.984   2.336  1.1960 -4.6298 -0.4864
   25SOL    HW2   75   1.281   0.036   2.387 -0.6493  3.6062 -0.9850
   26SOL     OW   76   1.427   2.306   0.132  0.4344 -0.3005 -0.0110
   26SOL    HW1   77   1.401   2.403   0.156  2.2552  0.0495 -0.3578
   26SOL    HW2   78   1.481   2.296   0.044  1.7291  1.2700 -0.9348
   27SOL     OW   79   2.259   1.650   0.152 -0.0631 -0.3587 -0.4992
   27SOL    HW1   80   2.170   1.664   0.108 -1.2904 -0.5134  1.9365
   27SOL    HW2   81   2.327   1.620   0.080 -1.5490 -0.9621 -1.4402
   28SOL     OW   82   0.212   1.331   1.582  0.2077  0.2812 -0.6170
   28SOL    HW1   83   0.187   1.230   1.575  2.5911 -3.3503 -1.7196
   28SOL    HW2   84   0.160   1.394   1.522 -0.6997  0.4785  1.5495
   29SOL     OW   85   2.224   2.463   1.286 -0.0009  0.0763  0.0204
   29SOL    HW1   86   2.177   2.533   1.341  0.7842 -1.6352  0.2828
   29SOL    HW2   87   2.308   2.503   1.246 -2.1091  0.3190 -0.4653
   30SOL     OW   88   1.860   0.606   0.625 -0.4513 -0.4942 -0.0917
   30SOL    HW1   89   1.833   0.637   0.720 -1.1576  2.7639 -1.0539
   30SOL    HW2   90   1.836   0.508   0.606 -1.3536 -4.0165 -0.2185
   31SOL     OW   91   2.320   2.604   1.811  0.5524 -0.2727 -0.1853
   31SOL    HW1   92   2.258   2.663   1.753 -1.4188  3.1649  0.7683
   31SOL    HW2   93   2.269   2.555   1.883  1.2732  0.0425  1.0596
   32SOL     OW   94   0.955   1.849   1.076 -0.0708 -0.3741  0.1404
   32SOL    HW1   95   0.873   1.850   1.013 -2.1158 -1.3602 -0.9788
   32SOL    HW2   96   1.027   1.908   1.037 -0.0376  0.2101  2.0472
   33SOL     OW   97   0.359   3.034   2.476 -0.5077  0.4041 -0.3000
   33SOL    HW1   98   0.403   0.026   2.525  3.3978 -0.6690  3.0432
   33SOL    HW2   99   0.325   3.072   2.389  0.0589 -1.6503 -0.5243
   34SOL     OW  100   1.566   2.718   0.569  0.2212  0.3350  0.1169
   34SOL    HW1  101   1.594   2.813   0.583  1.9976 -0.6256  0.8836
   34SOL    HW2  102   1.506   2.682   0.648  1.0199 -0.8855 -1.5601
   35SOL     OW  103   2.078   2.931   1.259  0.1166 -0.7892  0.1437
   35SOL    HW1  104   2.116   2.940   1.162 -0.5565  0.4777 -0.3650
   35SOL    HW2  105   2.128   2.857   1.304 -1.6461  1.3234  2.0571
   36SOL     OW  106   1.960   2.434   2.229 -0.7195  0.2762 -0.1679
   36SOL    HW1  107   1.964   2.333   2.249  2.6034  0.2924  0.3621
   36SOL    HW2  108   2.050   2.477   2.250 -5.5550 -1.5264 -0.9154
   37SOL     OW  109   0.912   2.928   2.002 -0.0268  0.7149  0.2979
   37SOL    HW1  110   0.883   3.022   1.967 -1.3195  0.7654  0.7998
   37SOL    HW2  111   1.015   2.926   2.024  1.9773  0.2277 -2.0167
   38SOL     OW  112   0.001   2.970   2.566 -0.5634  0.4519 -0.0222
   38SOL    HW1  113   3.014   3.017   2.607  0.6606 -1.1222 -4.6472
   38SOL    HW2  114   0.087   3.025   2.553  0.9649  0.2254  0.2623
   39SOL     OW  115   2.261   0.848   1.594 -0.7696  0.5019  0.1241
   39SOL    HW1  116   2.334   0.913   1.568 -0.3596  1.3292  2.3083
   39SOL    HW2  117   2.176   0.852   1.533  0.1217 -1.0482 -0.6291
   40SOL     OW  118   1.257   2.805   0.127 -0.2741  0.0579 -0.1714
   40SOL    HW1  119   1.166   2.787   0.081 -1.0889 -0.6449  0.0319
   40SOL    HW2  120   1.308   2.879   0.083 -1.7375 -1.7706  1.4336
   41SOL     OW  121   2.186   1.108   1.143 -0.1717  0.1920 -0.3183
   41SOL    HW1  122   2.116   1.074   1.213 -0.8726  0.4408  1.0182
   41SOL    HW2  123   2.253   1.036   1.116  1.5487  1.2252 -1.6164
   42SOL     OW  124   0.549   0.309   0.909 -0.0176  0.0592 -0.3782
   42SOL    HW1  125   0.639   0.330   0.865  0.6623  1.7148 -2.0942
   42SOL    HW2  126   0.469   0.314   0.846 -1.0415  0.4450 -0.2496
   43SOL     OW  127   2.848   1.330   2.794  0.1458  0.2144 -0.4327
   43SOL    HW1  128   2.801   1.287   2.876  0.7877 -2.3212 -0.9088
   43SOL    HW2  129   2.785   1.330   2.713 -0.3486  2.6707 -1.0713
   44SOL     OW  130   2.810   0.196   1.488 -0.0997 -0.2915 -0.0916
   44SOL    HW1  131   2.880   0.124   1.482  2.0515  0.8330  0.7731
   44SOL    HW2  132   2.747   0.189   1.565  0.8146 -1.1425  1.3738
   45SOL     OW  133   0.468   3.007   1.562 -0.5439  0.1056 -0.0141
   45SOL    HW1  134   0.547   2.959   1.604 -0.9728 -0.4147  0.1951
   45SOL    HW2  135   0.384   2.992   1.620  1.1280 -1.5100 -0.8892
   46SOL     OW  136   1.683   2.703   2.582 -0.1856  0.2083 -0.8096
   46SOL    HW1  137   1.587   2.737   2.565 -1.8053 -3.4783  0.0140
   46SOL    HW2  138   1.748   2.779   2.558 -0.4811 -0.7069 -1.4309
   47SOL     OW  139   1.683   1.857   0.782  0.1882  0.3665 -0.1040
   47SOL    HW1  140   1.643   1.942   0.823 -2.4459 -1.8519  1.3858
   47SOL    HW2  141   1.773   1.841   0.833  0.1920 -1.2621 -0.8502
   48SOL     OW  142   0.878   2.304   0.358 -0.3907  0.0202 -0.6839
   48SOL    HW1  143   0.851   2.390   0.306 -0.1798  2.5647 -5.8170
   48SOL    HW2  144   0.803   2.284   0.425  1.8404 -3.9505  0.0802
   49SOL     OW  145   2.060   0.094   2.368  0.4027  0.0030  0.7838
   49SOL    HW1  146   2.146   0.058   2.327  1.5879  2.9455 -1.8091
   49SOL    HW2  147   2.055   0.074   2.469 -1.6685  0.2562  2.5739
   50SOL     OW  148   1.870   0.346   0.398  0.0918  0.1180  0.3547
   50SOL    HW1  149   1.772   0.369   0.382 -0.3799  2.0218  0.8350
   50SOL    HW2  150   1.915   0.387   0.316 -0.4233  0.3092 -0.7497
   51SOL     OW  151   2.036   0.979   0.747  0.2591  0.0331  0.4252
   51SOL    HW1  152   2.099   1.051   0.778 -0.6441 -2.7482 -2.1362
   51SOL    HW2  153   1.948   0.985   0.790  1.6964  1.3145 -1.6084
   52SOL     OW  154   1.301   1.237   1.462 -0.3615  0.0840  0.0670
   52SOL    HW1  155   1.242   1.310   1.501  0.3506 -0.6281  1.8243
   52SOL    HW2  156   1.338   1.187   1.539  2.9826  0.5193 -0.3028
   53SOL     OW  157   1.023   1.657   2.255  0.7726  0.1143  0.1507
   53SOL    HW1  158   0.925   1.685   2.244 -1.1198 -1.7925  3.3349
   53SOL    HW2  159   1.091   1.710   2.205 -3.1680  0.4329  0.1147
   54SOL     OW  160   2.551   0.226   1.405  0.1502 -0.2325  0.0871
   54SOL    HW1  161   2.649   0.205   1.421 -0.8891 -0.7959  1.1121
   54SOL    HW2  162   2.539   0.319   1.382  3.2872 -3.9525  0.8386
   55SOL     OW  163   2.684   1.830   0.666 -0.7271 -0.3214 -0.6079
   55SOL    HW1  164   2.695   1.742   0.710  0.3895  1.1377 -1.1636
   55SOL    HW2  165   2.622   1.833   0.589  0.2882  0.6206 -0.1224
   56SOL     OW  166   1.109   0.227   1.948  0.1618  0.1861  0.3893
   56SOL    HW1  167   1.116   0.128   1.935  0.8725  3.2500  1.1311
   56SOL    HW2  168   1.189   0.268   1.905 -0.4240 -2.7290 -0.9974
   57SOL     OW  169   1.365   1.517   0.067 -0.0446 -0.3302  0.0663
   57SOL    HW1  170   1.388   1.441   0.131  0.9053 -2.0177 -1.2261
   57SOL    HW2  171   1.449   1.535   0.018 -1.6222  2.2154  1.2496
   58SOL     OW  172   0.313   1.290   1.891 -0.3212 -0.5999  0.1486
   58SOL    HW1  173   0.266   1.322   1.810  1.2966  3.1478  0.3282
   58SOL    HW2  174   0.329   1.374   1.952  2.4356 -0.5340  0.6876
   59SOL     OW  175   1.430   2.962   3.062 -0.2229 -0.4730 -0.7988
   59SOL    HW1  176   1.463   2.947   2.967 -1.0047 -0.3502  1.8114
   59SOL    HW2  177   1.352   3.031   3.063 -1.7026  2.8184  0.5449
   60SOL     OW  178   3.000   2.122   0.415 -0.3887 -0.2537  0.4757
   60SOL    HW1  179   2.926   2.069   0.367  0.1858  0.8317  2.1451
   60SOL    HW2  180   2.951   2.192   0.478 -0.8616 -0.7047  3.3707
   61SOL     OW  181   1.146   2.560   0.312  0.1509  0.1027  0.1607
   61SOL    HW1  182   1.143   2.549   0.412 -0.9292 -0.3651 -0.8814
   61SOL    HW2  183   1.234   2.529   0.271 -3.5800  1.0861 -1.2762
   62SOL     OW  184   2.176   2.036   2.509 -0.0931 -0.0393 -0.1116
   62SOL    HW1  185   2.178   1.949   2.455 -0.6414  1.7096  0.4492
   62SOL    HW2  186   2.139   2.112   2.455 -0.7675  2.8795  0.9152
   63SOL     OW  187   2.245   2.120   0.666  0.9338  0.0876 -0.0451
   63SOL    HW1  188   2.330   2.148   0.714  1.4137  2.6697  0.9296
   63SOL    HW2  189   2.189   2.062   0.728 -0.2740 -4.5679 -0.7193
   64SOL     OW  190   1.746   1.131   2.765 -0.0806 -0.2100 -0.1874
   64SOL    HW1  191   1.655   1.178   2.778 -1.4278  1.7944 -0.2345
   64SOL    HW2  192   1.760   1.045   2.820  1.8438  0.8887  0.6022
   65SOL     OW  193   1.520   1.936   2.781 -0.0594 -0.4034  0.2096
   65SOL    HW1  194   1.533   1.913   2.878 -0.2498  1.0683  1.3752
   65SOL    HW2  195   1.465   1.870   2.734  1.4693 -1.2632  0.8860
   66SOL     OW  196   0.294   1.083   2.113 -0.6990 -0.3320 -0.1429
   66SOL    HW1  197   0.315   1.138   2.200 -1.3666  0.2210  2.9775
   66SOL    HW2  198   0.309   1.144   2.033 -0.2180 -1.7968 -2.4745
   67SOL     OW  199   2.550   2.766   0.002 -0.3284 -0.4613 -0.3413
   67SOL    HW1  200   2.471   2.824   3.074 -0.5254 -1.0826 -2.4052
   67SOL    HW2  201   2.601   2.803   0.086  2.4315  1.5948  3.8461
   68SOL     OW  202   1.085   2.512   1.349  0.0820  0.0352 -0.2224
   68SOL    HW1  203   1.155   2.450   1.391  1.2452 -1.5122  0.3902
   68SOL    HW2  204   1.135   2.588   1.302  0.9244  1.4688  0.4256
   69SOL     OW  205   0.755   2.669   0.431 -0.2793  0.3079 -0.2015
   69SOL    HW1  206   0.690   2.666   0.356  1.7308 -1.5709 -0.0282
   69SOL    HW2  207   0.719   2.667   0.528  2.6688  0.4490 -0.7250
   70SOL     OW  208   2.520   0.347   2.466  0.0283 -0.2749 -0.0375
   70SOL    HW1  209   2.452   0.277   2.495 -1.1762 -0.8814  4.0831
   70SOL    HW2  210   2.498   0.439   2.513 -4.3048  1.0633  0.6174
   71SOL     OW  211   0.616   1.415   2.477  0.1083 -0.4553 -0.4220
   71SOL    HW1  212   0.676   1.488   2.522 -1.9688 -1.1985 -1.0635
   71SOL    HW2  213   0.617   1.327   2.531 -3.3998  1.1861 -0.6617
   72SOL     OW  214   0.059   2.246   0.207 -0.1458  0.4974 -0.0582
   72SOL    HW1  215   0.004   2.315   0.150 -1.0599  1.9468 -0.6556
   72SOL    HW2  216   3.090   2.225   0.285  1.9207  0.6568 -0.0592
   73SOL     OW  217   0.982   1.410   0.461  0.2075 -0.2036  0.3210
   73SOL    HW1  218   0.943   1.436   0.371 -1.6939  1.4229 -0.5202
   73SOL    HW2  219   0.905   1.408   0.531 -1.9558  0.8447 -0.2438
   74SOL     OW  220   2.265   2.750   2.934  0.3468 -0.0564 -0.1174
   74SOL    HW1  221   2.180   2.787   2.888 -2.5831 -0.4700 -1.2136
   74SOL    HW2  222   2.265   2.649   2.918 -3.0739 -0.2819 -2.5133
   75SOL     OW  223   2.215   1.462   0.942 -0.0308  0.1494 -0.5179
   75SOL    HW1  224   2.261   1.375   0.970 -3.2738 -1.3219 -0.3074
   75SOL    HW2  225   2.191   1.464   0.842 -1.3446  0.7395  0.6392
   76SOL     OW  226   1.909   2.553   1.467  0.3774  0.2271  0.7826
   76SOL    HW1  227   1.971   2.518   1.538 -0.7612 -1.4015  0.4681
   76SOL    HW2  228   1.815   2.522   1.490  2.6252 -0.9131  1.7121
   77SOL     OW  229   2.357   0.190   1.887  0.3052  0.0079 -0.5787
   77SOL    HW1  230   2.295   0.209   1.967  2.0316 -0.2020  2.1934
   77SOL    HW2  231   2.337   0.095   1.859  1.8549  2.6728 -0.8791
   78SOL     OW  232   1.541   0.817   2.992  0.2642  0.0138  0.2145
   78SOL    HW1  233   1.477   0.757   3.046  2.7835  1.1896 -1.7250
   78SOL    HW2  234   1.528   0.792   2.896 -0.1824  0.7720  2.9816
   79SOL     OW  235   2.575   1.364   2.234 -0.0698 -0.1429 -0.1495
   79SOL    HW1  236   2.610   1.427   2.308 -0.9179 -0.4032  1.8361
   79SOL    HW2  237   2.567   1.273   2.274 -1.7929  2.6517  1.8522
   80SOL     OW  238   2.097   1.535   1.716 -0.6061  0.0129  0.7594
   80SOL    HW1  239   2.089   1.496   1.623  1.3120 -1.4927 -3.3845
   80SOL    HW2  240   2.039   1.617   1.727  2.9195  0.6188  2.3492
   81SOL     OW  241   1.203   0.676   1.328 -0.1683  0.0218 -0.1781
   81SOL    HW1  242   1.152   0.614   1.394 -0.1455 -0.1223 -2.8494
   81SOL    HW2  243   1.259   0.750   1.376  1.9969 -0.0785 -0.6929
   82SOL     OW  244   1.578   2.739   1.608  0.4681 -0.0075  0.3286
   82SOL    HW1  245   1.596   2.640   1.586  2.3458 -1.7779 -3.3154
   82SOL    HW2  246   1.582   2.803   1.529 -0.9250  1.9029  0.1075
   83SOL     OW  247   0.188   3.085   0.568  0.0687 -0.2624  0.0926
   83SOL    HW1  248   0.275   3.036   0.585  2.7596 -1.3984 -0.8404
   83SOL    HW2  249   0.151   0.034   0.655  0.5841 -0.5627 -0.9863
   84SOL     OW  250   0.401   1.256   3.040  0.3159 -0.7488  0.0827
   84SOL    HW1  251   0.307   1.214   3.028  0.2266  0.2698 -0.1069
   84SOL    HW2  252   0.392   1.312   0.034 -2.2885  0.7565 -1.5092
   85SOL     OW  253   2.665   2.040   1.750  0.2134 -0.2224  0.4610
   85SOL    HW1  254   2.625   1.957   1.712  0.7092  0.8779  0.0134
   85SOL    HW2  255   2.655   2.034   1.854  2.1121 -2.3733  2.5727
   86SOL     OW  256   2.996   2.659   1.634  0.6052 -0.2737  0.1701
   86SOL    HW1  257   3.049   2.575   1.658 -0.4381 -4.0721 -0.4324
   86SOL    HW2  258   3.051   2.741   1.604 -1.3413  3.4586 -3.4386
   87SOL     OW  259   0.670   0.334   2.500 -0.0839  0.6477 -0.4490
   87SOL    HW1  260   0.736   0.270   2.451  0.2216 -1.5027  1.0169
   87SOL    HW2  261   0.585   0.284   2.518 -0.8936 -2.4571 -2.3903
   88SOL     OW  262   0.465   2.179   1.171 -0.2092 -0.2862 -0.2802
   88SOL    HW1  263   0.566   2.167   1.170  1.8239  3.8885  0.8783
   88SOL    HW2  264   0.429   2.125   1.248  1.5245 -3.2365 -3.1152
   89SOL     OW  265   0.869   0.729   1.502 -0.4954 -0.3384  0.1341
   89SOL    HW1  266   0.931   0.651   1.501 -0.5331 -0.1155 -0.4256
   89SOL    HW2  267   0.817   0.733   1.588 -0.9546 -0.0434  3.5260
   90SOL     OW  268   2.895   1.489   1.585 -0.2674  0.9414  0.0151
   90SOL    HW1  269   2.830   1.530   1.523  2.6586 -2.1781 -1.5783
   90SOL    HW2  270   2.932   1.559   1.647 -1.3237 -0.7167 -1.1108
   91SOL     OW  271   1.175   1.100   0.717  0.4824 -0.5685 -0.1119
   91SOL    HW1  272   1.107   1.127   0.786  0.1451 -1.8431 -0.7761
   91SOL    HW2  273   1.195   0.997   0.732  1.6091 -1.2870  0.2735
   92SOL     OW  274   2.537   0.633   0.998 -0.0038 -0.1989  0.6249
   92SOL    HW1  275   2.463   0.699   1.026 -1.0307 -0.6929 -0.4351
   92SOL    HW2  276   2.493   0.563   0.939 -2.1375 -2.0396  0.6923
   93SOL     OW  277   1.780   0.879   2.872 -0.2191 -0.3905  0.6825
   93SOL    HW1  278   1.701   0.856   2.929 -0.7402  0.2199  2.1969
   93SOL    HW2  279   1.788   0.810   2.797  2.0473  0.4021  0.9160
   94SOL     OW  280   2.309   1.633   2.268 -0.7883  0.2557  0.8553
   94SOL    HW1  281   2.277   1.669   2.176  0.4435  1.2560 -1.3058
   94SOL    HW2  282   2.392   1.570   2.258  1.5441 -2.5560 -0.4053
   95SOL     OW  283   1.928   0.635   1.225  0.2755 -0.4950 -0.1167
   95SOL    HW1  284   1.826   0.657   1.211  0.6985 -1.6233 -0.1217
   95SOL    HW2  285   1.974   0.591   1.146  1.4160 -0.8303 -0.1717
   96SOL     OW  286   2.488   0.044   2.132  0.2822  0.0777  0.5270
   96SOL    HW1  287   2.532   0.036   2.043 -0.1028 -1.5033 -1.4097
   96SOL    HW2  288   2.553   0.070   2.207 -0.6460  0.5767 -1.9931
   97SOL     OW  289   2.290   0.463   1.238  0.0270 -0.3163  0.0852
   97SOL    HW1  290   2.365   0.454   1.306 -3.6460 -0.0337 -0.9756
   97SOL    HW2  291   2.203   0.459   1.292 -0.2446 -0.7420  1.0947
   98SOL     OW  292   1.647   2.471   1.550 -0.2455 -0.5150 -0.2816
   98SOL    HW1  293   1.630   2.440   1.645  0.3139 -0.5462 -0.1390
   98SOL    HW2  294   1.620   2.395   1.485 -0.9739  0.2257  0.5571
   99SOL     OW  295   2.419   2.217   1.540 -0.4089  0.3555 -0.0624
   99SOL    HW1  296   2.387   2.313   1.528 -0.7760  1.0920  2.0870
   99SOL    HW2  297   2.521   2.208   1.539 -2.0467 -0.6986 -1.1109
  100SOL     OW  298   0.559   0.932   2.780  0.3895 -0.4859  0.2179
  100SOL    HW1  299   0.468   0.980   2.774  2.5642  1.9457  0.9310
  100SOL    HW2  300   0.590   0.940   2.874 -1.0373 -0.1308 -1.8069
  101SOL     OW  301   1.954   0.332   2.912 -0.2235  0.1055 -0.0419
  101SOL    HW1  302   1.951   0.295   3.008  3.1651  3.7344 -0.7232
  101SOL    HW2  303   1.968   0.432   2.907 -1.5196  0.5314 -3.1810
  102SOL     OW  304   0.342   0.775   1.911  0.5771  0.1374  0.4371
  102SOL    HW1  305   0.272   0.711   1.875 -1.0065 -1.8383  0.5505
  102SOL    HW2  306   0.402   0.736   1.984  1.8156 -0.7760  0.7481
  103SOL     OW  307   2.747   0.648   2.797  0.7950  0.2471 -0.1428
  103SOL    HW1  308   2.775   0.723   2.734 -2.7682 -2.7529  1.0154
  103SOL    HW2  309   2.793   0.645   2.885 -2.7575 -0.2315 -4.9146
  104SOL     OW  310   0.762   0.569   2.641  0.3952 -0.2116  0.9259
  104SOL    HW1  311   0.706   0.646   2.603 -0.5532 -1.9531 -1.5717
  104SOL    HW2  312   0.747   0.488   2.584 -1.8752  2.6706  1.8720
  105SOL     OW  313   2.350   1.717   1.681  0.3159 -0.4047 -0.6252
  105SOL    HW1  314   2.270   1.660   1.699 -0.0143  1.7410  0.5967
  105SOL    HW2  315   2.318   1.812   1.675 -0.5637 -1.7247  0.7266
  106SOL     OW  316   2.154   0.796   0.599 -0.1867 -0.1332  0.0860
  106SOL    HW1  317   2.101   0.728   0.542 -1.3738 -1.5242 -0.7815
  106SOL    HW2  318   2.098   0.860   0.645  1.2802 -1.8372 -1.8139
  107SOL     OW  319   3.015   1.701   0.706 -0.3517 -0.1841 -0.0527
  107SOL    HW1  320   3.042   1.741   0.796 -3.4190  0.9260  0.6893
  107SOL    HW2  321   3.031   1.776   0.639 -4.6616 -2.5724  1.3558
  108SOL     OW  322   2.743   2.692   1.564  0.4844  0.4706  0.4495
  108SOL    HW1  323   2.842   2.695   1.595  1.1013  2.0561 -0.9541
  108SOL    HW2  324   2.729   2.710   1.464 -1.2459 -1.9141 -2.3346
  109SOL     OW  325   1.874   0.044   0.834 -0.0505  0.7263 -0.1073
  109SOL    HW1  326   1.924   3.046   0.850 -0.0112  0.0106 -0.1633
  109SOL    HW2  327   1.918   0.102   0.760 -2.3180 -0.8802  0.4784
  110SOL     OW  328   0.664   2.087   2.687  0.1897 -0.3119 -0.2979
  110SOL    HW1  329   0.670   1.992   2.660 -0.6131  3.0269  0.6023
  110SOL    HW2  330   0.754   2.119   2.726 -0.6813  1.7742  0.2309
  111SOL     OW  331   1.491   2.545   1.944  0.0993  0.2159 -0.3711
  111SOL    HW1  332   1.517   2.481   1.871 -1.4360  2.4139 -0.1306
  111SOL    HW2  333   1.532   2.635   1.921  0.3906 -2.4110 -0.3480
  112SOL     OW  334   2.023   2.277   2.910 -0.2111  0.5622  0.0546
  112SOL    HW1  335   2.025   2.374   2.951 -1.7721  1.4861  0.6148
  112SOL    HW2  336   1.931   2.239   2.889 -0.0382  0.8901  1.0185
  113SOL     OW  337   1.578   2.285   1.381 -0.5426 -0.0148  0.4474
  113SOL    HW1  338   1.588   2.339   1.294 -0.5971  0.5474 -1.1383
  113SOL    HW2  339   1.652   2.218   1.400 -0.0520  0.7222  0.1674
  114SOL     OW  340   2.917   1.090   0.677 -0.0407 -0.0690 -0.0782
  114SOL    HW1  341   2.893   1.066   0.774  1.3518 -0.5915 -1.1696
  114SOL    HW2  342   2.877   1.024   0.613  2.1568 -1.3781 -1.2873
  115SOL     OW  343   0.565   1.016   3.064  0.2704 -1.1684  0.1497
  115SOL    HW1  344   0.508   1.101   3.043  0.6470  1.2144  1.0893
  115SOL    HW2  345   0.520   0.957   0.041 -0.2313 -0.4439 -1.1829
  116SOL     OW  346   2.550   1.093   2.361 -0.1192 -0.5884  0.0916
  116SOL    HW1  347   2.542   1.042   2.452  0.7410 -2.2104  1.0395
  116SOL    HW2  348   2.563   1.022   2.288  0.5215  0.3845 -0.3732
  117SOL     OW  349   0.395   2.727   0.774 -0.6228 -0.1215  0.3135
  117SOL    HW1  350   0.401   2.766   0.867 -1.6182 -0.6550  2.6273
  117SOL    HW2  351   0.342   2.640   0.776  0.9284  2.2496 -1.0338
  118SOL     OW  352   1.008   1.996   2.247  0.6368 -0.6245 -0.5272
  118SOL    HW1  353   1.049   1.975   2.335 -0.0998  1.0457 -1.8647
  118SOL    HW2  354   0.920   2.039   2.251  2.8900 -3.8148  0.0622
  119SOL     OW  355   0.079   2.366   2.798 -0.5217 -0.5788 -0.4433
  119SOL    HW1  356   3.074   2.343   2.821  3.2866 -0.5751 -2.6593
  119SOL    HW2  357   0.131   2.397   2.879 -1.1650 -0.7601  0.0478
  120SOL     OW  358   0.990   0.785   2.978  0.1892 -0.4716  0.1396
  120SOL    HW1  359   1.064   0.853   2.969 -2.5724 -1.8686  0.0511
  120SOL    HW2  360   0.912   0.825   3.028 -0.6787  0.5875  2.0960
  121SOL     OW  361   1.205   2.893   1.001  0.0251  0.3694 -0.0431
  121SOL    HW1  362   1.181   2.867   0.907 -0.6517 -0.5616 -0.0630
  121SOL    HW2  363   1.277   2.965   1.005  0.3136 -2.2449  3.1722
  122SOL     OW  364   2.387   2.482   1.570  0.4174 -0.5313 -0.7541
  122SOL    HW1  365   2.392   2.518   1.666 -2.5522 -1.1300  0.6641
  122SOL    HW2  366   2.351   2.563   1.517 -1.4459  1.3561 -1.2054
  123SOL     OW  367   0.731   2.453   0.861  0.4317  0.5147  0.1033
  123SOL    HW1  368   0.697   2.503   0.784  2.6501  0.2072  2.2578
  123SOL    HW2  369   0.709   2.502   0.949  1.8044 -0.6107  2.3070
  124SOL     OW  370   1.992   0.579   0.173 -0.0306 -0.4056  0.0137
  124SOL    HW1  371   1.910   0.553   0.116  2.4687 -1.5588  2.6640
  124SOL    HW2  372   2.075   0.602   0.119  0.4033 -1.3484  0.0316
  125SOL     OW  373   0.459   0.972   0.371  0.3299 -0.2147  0.3167
  125SOL    HW1  374   0.420   0.921   0.449 -0.5259  2.1950  0.6757
  125SOL    HW2  375   0.560   0.981   0.385 -0.8574  0.8180  0.8421
  126SOL     OW  376   2.943   1.496   0.487  0.1710 -0.5241  0.2081
  126SOL    HW1  377   2.984   1.442   0.565  0.8570  1.1841 -0.9606
  126SOL    HW2  378   2.883   1.561   0.535 -0.0529 -2.7771  1.0418
  127SOL     OW  379   0.703   2.011   2.182  0.0375  0.5331  0.0220
  127SOL    HW1  380   0.735   1.917   2.198  0.3635  1.5262  2.4252
  127SOL    HW2  381   0.716   2.056   2.094 -2.1455  1.1219  0.4838
  128SOL     OW  382   0.833   1.064   3.034  0.3633  0.1509 -0.0473
  128SOL    HW1  383   0.872   1.097   2.946  3.6500 -0.8810  3.7037
  128SOL    HW2  384   0.728   1.050   3.032 -1.4711 -1.3408 -2.5033
  129SOL     OW  385   2.668   1.356   0.603  0.2276  0.2714 -0.5330
  129SOL    HW1  386   2.742   1.303   0.651  2.2664 -0.8443  0.9772
  129SOL    HW2  387   2.678   1.452   0.574 -1.6146  0.5106 -0.6986
  130SOL     OW  388   2.448   1.047   1.550  0.4218 -0.2594 -0.3752
  130SOL    HW1  389   2.516   1.078   1.484 -0.7871  1.1371  1.7078
  130SOL    HW2  390   2.444   1.105   1.630  0.1405  0.0393  0.1989
  131SOL     OW  391   0.096   2.962   3.046 -0.4931  0.0986  0.2011
  131SOL    HW1  392   0.084   3.059   3.044 -2.3264 -2.4608  0.1467
  131SOL    HW2  393   0.100   2.940   0.057  0.0543 -1.9573  2.4419
  132SOL     OW  394   0.368   1.727   1.121 -0.7585 -0.1900  0.7106
  132SOL    HW1  395   0.463   1.755   1.136 -1.7329 -2.5697  1.0708
  132SOL    HW2  396   0.305   1.800   1.150  1.1878 -1.1011 -2.2627
  133SOL     OW  397   0.789   0.358   1.293  0.3606 -0.4339  0.2348
  133SOL    HW1  398   0.876   0.406   1.270 -0.2061 -0.6183 -2.1185
  133SOL    HW2  399   0.719   0.420   1.336  1.8840  1.9785 -2.0518
  134SOL     OW  400   0.071   1.983   0.054  0.0976 -0.2948  0.1323
  134SOL    HW1  401   0.043   2.007   3.050 -0.2170  1.7393  1.6662
  134SOL    HW2  402   0.068   2.066   0.116 -1.9110  1.1246  1.9151
  135SOL     OW  403   1.710   0.724   1.681 -0.6310 -0.1947  0.0659
  135SOL    HW1  404   1.727   0.749   1.586  0.8451  0.9148  1.4675
  135SOL    HW2  405   1.659   0.634   1.689 -0.6625 -0.3560 -0.2223
  136SOL     OW  406   0.127   1.297   0.335 -0.3409 -0.2973  0.0685
  136SOL    HW1  407   0.057   1.368   0.317 -2.0392 -0.0779 -0.0926
  136SOL    HW2  408   0.091   1.225   0.399  1.6394  0.8107  1.5979
  137SOL     OW  409   0.093   1.353   0.884  0.3543  0.0579  0.3091
  137SOL    HW1  410   0.121   1.279   0.816  0.4751  0.1247  0.7245
  137SOL    HW2  411   0.170   1.407   0.929  2.5705  1.1512 -1.8253
  138SOL     OW  412   1.791   0.973   0.863  0.3737 -0.0946  0.5572
  138SOL    HW1  413   1.784   0.870   0.880  1.9475 -3.2527 -2.5701
  138SOL    HW2  414   1.779   1.030   0.945  2.8035  0.7964  1.6336
  139SOL     OW  415   1.703   2.687   0.205 -0.2732 -0.6793 -0.1980
  139SOL    HW1  416   1.678   2.784   0.219  1.0360  0.5976 -0.1105
  139SOL    HW2  417   1.680   2.630   0.287 -0.6356 -2.2061  5.0942
  140SOL     OW  418   1.517   1.453   1.601  0.5396 -1.0103  0.3448
  140SOL    HW1  419   1.605   1.422   1.642  0.2576  1.0166  0.3215
  140SOL    HW2  420   1.465   1.373   1.568  1.2817  0.7416  3.4990
  141SOL     OW  421   1.571   2.093   0.451  0.1187 -0.4519  0.2895
  141SOL    HW1  422   1.642   2.042   0.399  0.7276 -0.8542 -0.6747
  141SOL    HW2  423   1.487   2.037   0.449  1.1706  0.0309  0.1102
  142SOL     OW  424   0.785   0.495   0.005  0.1903  0.3259 -0.0729
  142SOL    HW1  425   0.833   0.438   0.074 -0.1017 -4.0519  0.0260
  142SOL    HW2  426   0.769   0.588   0.043 -0.2251  0.1314  1.1531
  143SOL     OW  427   0.327   2.321   2.963 -0.2950 -0.3593  0.5830
  143SOL    HW1  428   0.358   2.227   2.943 -1.5291  1.2912  0.7631
  143SOL    HW2  429   0.331   2.344   3.064  0.1195  1.0919 -0.5870
  144SOL     OW  430   1.402   3.078   1.046 -0.8080 -0.2761 -0.6089
  144SOL    HW1  431   1.360   0.076   1.056 -0.2172  1.0522 -1.0645
  144SOL    HW2  432   1.505   3.090   1.031  4.7205  1.7194  1.4487
  145SOL     OW  433   1.923   1.290   0.284 -0.3805  0.4948 -0.3379
  145SOL    HW1  434   1.925   1.213   0.350 -0.6881 -0.7488 -2.3316
  145SOL    HW2  435   1.834   1.286   0.238 -2.0432  1.0133  1.4902
  146SOL     OW  436   0.057   2.410   0.855 -0.1942  0.7601  0.0447
  146SOL    HW1  437   0.052   2.312   0.818 -0.6629 -5.9418  1.0869
  146SOL    HW2  438   0.030   2.412   0.953  0.0691  0.4168  0.1337
  147SOL     OW  439   2.400   0.068   1.569  0.4831  0.1626  0.1815
  147SOL    HW1  440   2.449   3.068   1.570  0.2098 -1.5879  0.9179
  147SOL    HW2  441   2.440   0.124   1.493  1.6112  1.2492  0.9618
  148SOL     OW  442   1.416   2.966   1.898  0.3217  0.0519 -0.4460
  148SOL    HW1  443   1.435   3.061   1.859  1.6728  1.7408 -1.5743
  148SOL    HW2  444   1.346   2.917   1.842 -0.8980  0.4135  1.0477
  149SOL     OW  445   1.841   0.390   2.275 -0.2153 -0.2250 -0.1430
  149SOL    HW1  446   1.912   0.433   2.335  2.5156  0.7993 -0.8298
  149SOL    HW2  447   1.870   0.380   2.181  0.6544  0.8155  1.8688
  150SOL     OW  448   0.220   2.810   0.405  0.7784 -0.5520 -0.2745
  150SOL    HW1  449   0.274   2.854   0.476 -2.8485 -0.7167 -0.5168
  150SOL    HW2  450   0.179   2.871   0.335  1.6019  0.2175  3.5516
  151SOL     OW  451   0.307   2.388   0.129  0.1977  0.0658  0.2993
  151SOL    HW1  452   0.282   2.485   0.156 -0.0481  1.7692  0.0479
  151SOL    HW2  453   0.222   2.332   0.154  0.6546  2.0402  1.6676
  152SOL     OW  454   2.792   3.061   0.884 -0.2715  0.0220 -0.5815
  152SOL    HW1  455   2.870   3.025   0.837 -4.0653  0.7238  1.3532
  152SOL    HW2  456   2.778   0.066   0.848 -1.0214  0.2417  1.6222
  153SOL     OW  457   2.372   0.104   0.991  0.1438 -0.1986  0.1601
  153SOL    HW1  458   2.317   0.037   0.934 -1.2029 -2.7527  1.4797
  153SOL    HW2  459   2.418   0.164   0.926 -3.8380 -3.1270  1.5941
  154SOL     OW  460   0.632   0.540   1.989 -0.1148  0.3421  0.0150
  154SOL    HW1  461   0.700   0.535   2.068  0.2708  0.8229  0.9850
  154SOL    HW2  462   0.684   0.566   1.907 -1.7477  1.8720  0.4911
  155SOL     OW  463   0.071   1.317   1.151 -0.1110  0.4528 -0.0779
  155SOL    HW1  464   0.051   1.316   1.047 -0.6090  1.3335 -0.7645
  155SOL    HW2  465   0.160   1.368   1.171  1.2237  1.4808  0.0997
  156SOL     OW  466   2.754   2.126   2.980  0.0717 -0.5132  0.4440
  156SOL    HW1  467   2.754   2.048   3.045 -1.9373  0.8729  0.3085
  156SOL    HW2  468   2.661   2.146   2.940  1.2856 -3.5327 -1.8495
  157SOL     OW  469   0.754   0.737   0.154  0.1289 -0.3711 -0.2393
  157SOL    HW1  470   0.750   0.703   0.249 -0.4751 -0.2759  3.5905
  157SOL    HW2  471   0.835   0.794   0.141 -1.2705 -2.6683 -0.7322
  158SOL     OW  472   2.456   2.955   2.517  0.0665 -0.2651 -0.2771
  158SOL    HW1  473   2.547   2.947   2.472 -2.0760  0.1372 -0.2824
  158SOL    HW2  474   2.460   2.915   2.610 -1.4479 -0.8710 -0.8304
  159SOL     OW  475   0.712   0.240   0.493  0.1629 -0.2248 -0.2135
  159SOL    HW1  476   0.705   0.167   0.565  0.1655 -1.3519 -1.8300
  159SOL    HW2  477   0.793   0.297   0.506 -0.6305 -0.6968  0.1464
  160SOL     OW  478   1.391   1.739   2.638  1.0802  0.1617  0.3754
  160SOL    HW1  479   1.356   1.770   2.543 -0.4542 -0.1110 -1.6973
  160SOL    HW2  480   1.334   1.663   2.669  0.0320  3.5029 -0.3459
  161SOL     OW  481   3.067   1.127   2.669  0.5424  0.3175  0.1570
  161SOL    HW1  482   2.997   1.175   2.613 -1.1581  0.8047  1.4162
  161SOL    HW2  483   3.081   1.182   2.757  1.1945  2.0035 -1.0111
  162SOL     OW  484   0.629   2.388   1.347 -0.2563  0.4044  0.4482
  162SOL    HW1  485   0.718   2.410   1.300 -1.3925 -0.9968 -1.1967
  162SOL    HW2  486   0.555   2.375   1.279  1.0801 -1.3136  0.8449
  163SOL     OW  487   2.304   0.319   2.232  0.0495  0.1298 -0.5095
  163SOL    HW1  488   2.370   0.397   2.251 -0.2141  0.5089  2.4642
  163SOL    HW2  489   2.236   0.304   2.309 -1.2618  0.9321 -0.0812
  164SOL     OW  490   2.476   1.317   0.419 -0.3910  0.1867  0.2338
  164SOL    HW1  491   2.555   1.316   0.487 -2.3258 -1.4962 -0.9284
  164SOL    HW2  492   2.431   1.408   0.425  0.0276  0.5901  0.8069
  165SOL     OW  493   0.077   0.302   1.654 -0.3253  0.1657  0.2119
  165SOL    HW1  494   0.063   0.383   1.713 -0.1352 -0.1869  1.6574
  165SOL    HW2  495   0.170   0.259   1.666  1.8544  0.4190 -2.7865
  166SOL     OW  496   1.948   1.071   0.447  0.5423 -0.1984 -0.1186
  166SOL    HW1  497   1.874   1.021   0.488  1.0655  1.1630 -0.7662
  166SOL    HW2  498   2.023   1.008   0.417 -1.7885 -0.3736  0.9001
  167SOL     OW  499   0.193   0.665   0.584  0.0819  0.6105 -0.0673
  167SOL    HW1  500   0.134   0.670   0.496 -0.2859 -0.5346 -2.8683
  167SOL    HW2  501   0.281   0.716   0.586  0.3935  0.3673 -0.7580
  168SOL     OW  502   1.690   2.551   2.195  0.1839  0.5634 -0.0646
  168SOL    HW1  503   1.781   2.504   2.207 -0.3705 -0.0181  0.7005
  168SOL    HW2  504   1.698   2.622   2.125  0.2842 -1.5825 -0.3631
  169SOL     OW  505   0.822   1.551   0.862  0.4079 -0.1048 -0.0441
  169SOL    HW1  506   0.784   1.491   0.789 -0.3578  0.4862 -0.3769
  169SOL    HW2  507   0.789   1.515   0.951  3.0134 -1.1851 -0.3057
  170SOL     OW  508   0.000   0.664   1.196 -0.4227 -0.4684 -0.6262
  170SOL    HW1  509   0.045   0.615   1.120 -1.1531  1.0750 -2.0151
  170SOL    HW2  510   0.064   0.675   1.274 -0.9607 -2.2776 -1.3492
  171SOL     OW  511   1.369   2.403   2.571  0.0694  0.1679 -0.0943
  171SOL    HW1  512   1.461   2.433   2.602  0.5964 -1.1224  0.0860
  171SOL    HW2  513   1.330   2.462   2.498 -0.4497  0.0492  0.3826
  172SOL     OW  514   0.087   2.827   1.289 -0.8391  0.6353  0.5813
  172SOL    HW1  515   0.164   2.765   1.255 -0.8054 -0.2048  1.8485
  172SOL    HW2  516   0.132   2.921   1.295  4.4958  2.4311  1.0577
  173SOL     OW  517   1.502   0.761   2.715  0.0118  0.0855 -0.2017
  173SOL    HW1  518   1.525   0.666   2.737 -1.4985  0.9225 -1.0463
  173SOL    HW2  519   1.546   0.778   2.626 -0.1941  1.0923 -0.4502
  174SOL     OW  520   1.757   2.890   2.932 -0.5083 -0.6676  0.7835
  174SOL    HW1  521   1.714   2.954   2.865  1.1303 -0.3071 -0.9861
  174SOL    HW2  522   1.698   2.816   2.969  1.4425  2.0867 -0.8035
  175SOL     OW  523   1.986   2.190   0.296  0.0454  0.8032 -0.3270
  175SOL    HW1  524   1.910   2.120   0.301 -1.0089  4.2558 -0.1258
  175SOL    HW2  525   2.056   2.168   0.367  1.5343 -1.9136  3.3621
  176SOL     OW  526   1.793   0.079   2.981 -0.3329 -0.4006 -0.5145
  176SOL    HW1  527   1.785   3.073   2.987 -1.4500 -0.9440 -1.6932
  176SOL    HW2  528   1.746   0.113   2.901 -0.2588 -2.3416  0.2356
  177SOL     OW  529   1.018   2.023   0.667  0.1560  0.1530  0.5655
  177SOL    HW1  530   0.924   1.991   0.677  0.2546 -0.3703  0.3878
  177SOL    HW2  531   1.025   2.099   0.599  1.3987 -1.9023  3.4596
  178SOL     OW  532   2.490   2.311   0.066  0.4408  0.1218  0.0224
  178SOL    HW1  533   2.548   2.305   3.078 -0.5663  1.3701  1.7920
  178SOL    HW2  534   2.444   2.224   0.075  2.4251  2.3477 -2.2400
  179SOL     OW  535   0.397   2.868   2.681 -0.0037  0.4211  0.2453
  179SOL    HW1  536   0.380   2.936   2.612 -1.2916 -0.3085  4.6353
  179SOL    HW2  537   0.437   2.783   2.644  2.0284  0.0090 -2.7882
  180SOL     OW  538   1.659   1.314   0.878 -0.1185 -0.0936  0.4090
  180SOL    HW1  539   1.598   1.391   0.869  0.1052  0.9251  1.6700
  180SOL    HW2  540   1.758   1.348   0.890 -1.0529  1.1811  3.5840
  181SOL     OW  541   1.986   0.942   2.067  0.6185  0.4848 -0.4362
  181SOL    HW1  542   1.905   0.889   2.099  1.1511 -0.8934  1.3549
  181SOL    HW2  543   2.007   0.912   1.973  0.3203  2.0525 -0.3352
  182SOL     OW  544   2.699   2.907   2.376  0.3130  0.2028  0.3179
  182SOL    HW1  545   2.682   2.861   2.286 -1.0592  0.4366 -0.6255
  182SOL    HW2  546   2.781   2.855   2.412 -0.0740 -0.6926  3.1331
  183SOL     OW  547   1.359   0.883   2.164 -0.1793  0.0125 -0.3500
  183SOL    HW1  548   1.409   0.973   2.155  1.3808  0.0057 -0.2324
  183SOL    HW2  549   1.405   0.820   2.099 -0.1151 -2.4932 -0.6930
  184SOL     OW  550   0.451   1.121   1.454 -0.3879  0.3335 -0.0356
  184SOL    HW1  551   0.454   1.204   1.515 -0.3856 -2.8827 -1.5048
  184SOL    HW2  552   0.408   1.045   1.504 -1.0560 -0.8800 -0.9339
  185SOL     OW  553   2.037   0.618   0.430  0.1453  0.0859 -0.1060
  185SOL    HW1  554   1.963   0.608   0.504 -1.2068 -0.0688 -0.2507
  185SOL    HW2  555   1.990   0.615   0.340 -0.2276 -0.8250  2.8829
  186SOL     OW  556   0.794   2.795   2.935 -0.1183 -0.5182 -0.5913
  186SOL    HW1  557   0.695   2.797   2.966 -0.5300  1.1835  0.0830
  186SOL    HW2  558   0.798   2.749   2.846 -1.2092 -0.4156 -0.0228
  187SOL     OW  559   2.332   0.837   3.088  0.3631  0.0668  0.1619
  187SOL    HW1  560   2.254   0.898   0.021  0.2368 -1.7445 -0.7389
  187SOL    HW2  561   2.386   0.875   3.008 -0.5487  1.6243 -0.8481
  188SOL     OW  562   2.889   1.711   1.258 -0.5464  0.1005  0.1744
  188SOL    HW1  563   2.980   1.743   1.293 -1.5864  3.1024 -1.2020
  188SOL    HW2  564   2.847   1.663   1.336  1.2250  0.8983  1.2571
  189SOL     OW  565   2.424   0.398   3.086 -1.0009 -0.4795  0.1645
  189SOL    HW1  566   2.519   0.393   3.049  0.0928  3.0327  1.7650
  189SOL    HW2  567   2.411   0.347   0.079  0.5987  1.6904 -0.3071
  190SOL     OW  568   1.164   1.474   1.879  0.0847 -0.2859 -0.6001
  190SOL    HW1  569   1.101   1.466   1.957 -0.2502  0.4323  0.6437
  190SOL    HW2  570   1.224   1.395   1.877  0.6822 -0.2520  1.6095
  191SOL     OW  571   2.887   0.651   1.516 -0.7517  0.1631 -0.4584
  191SOL    HW1  572   2.897   0.577   1.446  0.2437 -1.7190  1.3059
  191SOL    HW2  573   2.883   0.603   1.609  0.5035  0.6328 -2.5702
  192SOL     OW  574   2.044   1.447   1.177 -0.2523  0.3160  0.4285
  192SOL    HW1  575   2.100   1.487   1.098 -1.6908 -0.4008 -0.1416
  192SOL    HW2  576   1.988   1.363   1.148 -3.1790 -1.5593 -1.1813
  193SOL     OW  577   1.163   0.751   1.072  0.6403 -0.7096  0.5625
  193SOL    HW1  578   1.188   0.710   1.161  1.7807  0.1154 -3.5193
  193SOL    HW2  579   1.065   0.770   1.075 -2.3651  1.9038 -0.8251
  194SOL     OW  580   1.225   2.567   1.686  0.6674 -0.7042  0.0576
  194SOL    HW1  581   1.255   2.660   1.683  2.0905 -1.4700 -1.0702
  194SOL    HW2  582   1.142   2.561   1.743  2.9409 -1.1831 -0.0469
  195SOL     OW  583   2.285   0.210   2.608  0.2804  0.1312 -0.4262
  195SOL    HW1  584   2.202   0.255   2.569 -0.9774  1.8634  1.1625
  195SOL    HW2  585   2.257   0.130   2.662  0.7125  0.0817  1.8077
  196SOL     OW  586   1.131   2.298   1.833  0.0166  0.0161 -0.6684
  196SOL    HW1  587   1.029   2.290   1.849 -2.5900 -2.3704  3.7540
  196SOL    HW2  588   1.173   2.371   1.887 -0.1086  0.1484  1.6114
  197SOL     OW  589   0.833   2.830   0.844  0.2460  0.1450  0.6148
  197SOL    HW1  590   0.803   2.923   0.871  0.9357  1.2745 -2.2003
  197SOL    HW2  591   0.915   2.838   0.787 -0.2058 -0.6539 -1.0913
  198SOL     OW  592   0.924   0.823   0.775 -0.3459 -0.4828  0.3068
  198SOL    HW1  593   0.875   0.769   0.710  1.2808 -0.2921 -1.9884
  198SOL    HW2  594   0.868   0.905   0.811 -2.0745  3.6904  0.1781
  199SOL     OW  595   0.046   2.741   1.978 -0.3022 -0.6392 -0.1499
  199SOL    HW1  596   3.063   2.695   1.931  0.6821 -0.0032  0.5033
  199SOL    HW2  597   0.116   2.676   2.019 -0.4079 -0.1198  0.1321
  200SOL     OW  598   2.001   1.937   2.138 -0.6380  0.3488  0.3393
  200SOL    HW1  599   2.065   1.897   2.206 -0.0389  2.8174  0.0943
  200SOL    HW2  600   2.044   1.960   2.048  0.5827 -1.1395 -0.6577
  201SOL     OW  601   0.106   1.993   1.605  0.8756  0.7680  0.4507
  201SOL    HW1  602   0.100   2.071   1.541  0.5144 -0.9962 -0.3121
  201SOL    HW2  603   0.180   1.998   1.672 -0.5142 -0.0846 -1.8956
  202SOL     OW  604   2.464   0.147   0.519  0.2052  0.4040 -0.5316
  202SOL    HW1  605   2.499   0.198   0.446  0.5251 -1.4604  2.9663
  202SOL    HW2  606   2.496   0.051   0.502  1.0926  1.1934  0.4212
  203SOL     OW  607   1.211   2.219   2.134  0.2849 -0.5692  0.2221
  203SOL    HW1  608   1.230   2.120   2.154  0.9543  0.1525  1.4201
  203SOL    HW2  609   1.284   2.275   2.166 -2.6817 -1.7409 -2.9039
  204SOL     OW  610   1.320   2.080   1.827 -0.2700  0.6507 -0.2123
  204SOL    HW1  611   1.403   2.089   1.768 -1.1618  2.3304 -1.2082
  204SOL    HW2  612   1.252   2.158   1.820 -0.7098  2.0402 -1.4105
  205SOL     OW  613   1.377   1.625   1.766  0.4373 -0.1474  0.0033
  205SOL    HW1  614   1.441   1.574   1.707 -0.8319  1.8818 -1.5084
  205SOL    HW2  615   1.318   1.562   1.812  2.5261 -0.2291  1.0058
  206SOL     OW  616   0.303   0.797   2.619  0.1627  0.5524 -0.2513
  206SOL    HW1  617   0.341   0.830   2.533 -0.3918  1.8039 -0.2966
  206SOL    HW2  618   0.297   0.871   2.689  2.5366  1.4843  0.6590
  207SOL     OW  619   0.876   0.112   1.849  0.4103 -0.3770 -0.2465
  207SOL    HW1  620   0.806   0.136   1.780 -0.1057 -0.0860 -0.7283
  207SOL    HW2  621   0.954   0.177   1.835  0.3276  2.8035  2.6530
  208SOL     OW  622   0.632   2.556   1.868 -0.6185 -0.2292 -0.1071
  208SOL    HW1  623   0.629   2.581   1.774  1.3240  1.8400  0.2916
  208SOL    HW2  624   0.548   2.595   1.907  2.6122  0.9193  0.8731
  209SOL     OW  625   1.158   0.686   0.084 -0.5268 -0.0155  0.2947
  209SOL    HW1  626   1.257   0.677   0.062 -1.4316  2.6597 -0.2360
  209SOL    HW2  627   1.102   0.710   0.002  0.3759  0.1687 -1.9930
  210SOL     OW  628   0.088   0.413   0.657  0.4798  0.5480  0.1771
  210SOL    HW1  629   3.082   0.429   0.665 -0.1373 -2.2203 -1.3687
  210SOL    HW2  630   0.134   0.499   0.636 -1.4353  0.9369 -1.3749
  211SOL     OW  631   0.613   0.551   1.364  0.3017  0.2398 -0.3668
  211SOL    HW1  632   0.523   0.549   1.318  2.2275  0.4005 -1.4708
  211SOL    HW2  633   0.610   0.612   1.445 -1.1715 -0.1173 -3.4954
  212SOL     OW  634   1.165   1.720   1.246 -0.3310 -0.3657 -0.3105
  212SOL    HW1  635   1.080   1.748   1.193 -1.4435  0.2636  0.6577
  212SOL    HW2  636   1.175   1.779   1.328 -1.8964 -0.9310 -2.0553
  213SOL     OW  637   2.006   0.101   1.925 -0.7057 -0.0053 -0.4522
  213SOL    HW1  638   2.047   0.122   1.837 -0.5809  1.3221  1.1875
  213SOL    HW2  639   2.025   0.007   1.964  0.8439  2.1103 -0.8295
  214SOL     OW  640   0.860   2.283   2.424  0.0990  0.1342 -0.2011
  214SOL    HW1  641   0.881   2.366   2.368  3.6525 -0.5412  0.5176
  214SOL    HW2  642   0.772   2.243   2.402  2.3393  0.0682 -3.8409
  215SOL     OW  643   2.711   1.631   1.453  0.4009 -0.2979  0.4666
  215SOL    HW1  644   2.670   1.691   1.531 -0.2840  2.4583  0.0412
  215SOL    HW2  645   2.644   1.638   1.377 -0.6561  2.1098 -0.1259
  216SOL     OW  646   0.459   1.061   1.871  0.4032  0.5642 -0.7261
  216SOL    HW1  647   0.395   0.993   1.908  0.7346 -0.0555 -1.3290
  216SOL    HW2  648   0.411   1.151   1.867  2.7012  1.7649 -0.2766
  217SOL     OW  649   3.019   0.072   0.118 -0.2721  0.6470 -0.2031
  217SOL    HW1  650   3.021   0.154   0.057  0.1641 -1.3942  1.9516
  217SOL    HW2  651   3.007   0.100   0.213  0.3168  0.5079  0.3273
  218SOL     OW  652   1.839   1.867   1.264 -0.3337  0.0807  0.3714
  218SOL    HW1  653   1.744   1.865   1.233  0.6225 -0.3416 -0.4369
  218SOL    HW2  654   1.901   1.846   1.185 -3.0599 -1.0454 -0.8511
  219SOL     OW  655   1.450   0.372   0.018  0.5162 -0.1822  0.6635
  219SOL    HW1  656   1.387   0.335   3.039 -3.8857  0.3585  2.1571
  219SOL    HW2  657   1.469   0.301   0.090 -0.5017 -0.6367  1.2387
  220SOL     OW  658   1.606   2.058   0.986 -0.1044 -0.1850 -0.1898
  220SOL    HW1  659   1.700   2.088   0.966 -4.0744 -0.0455 -1.3230
  220SOL    HW2  660   1.592   2.013   1.079 -0.0995  0.3932  0.4555
  221SOL     OW  661   2.961   0.696   0.486  0.4120  0.5221 -0.0002
  221SOL    HW1  662   3.019   0.687   0.401  0.5794  0.9758 -1.0726
  221SOL    HW2  663   2.967   0.611   0.542  0.7334 -0.4896  0.8085
  222SOL     OW  664   0.872   2.714   1.471 -0.1960 -0.3250  0.2965
  222SOL    HW1  665   0.839   2.755   1.382 -0.2925 -0.1064 -2.6274
  222SOL    HW2  666   0.940   2.639   1.454  1.1605 -1.8899 -1.3656
  223SOL     OW  667   1.275   0.302   2.912 -0.2482 -0.5274  0.7221
  223SOL    HW1  668   1.268   0.363   2.831 -2.3269  2.9801  1.8294
  223SOL    HW2  669   1.184   0.275   2.942  0.1242  1.3435 -0.5445
  224SOL     OW  670   2.775   0.517   1.055 -0.2881 -0.4210 -0.4983
  224SOL    HW1  671   2.797   0.548   1.148 -0.0911 -0.0600  0.7966
  224SOL    HW2  672   2.687   0.563   1.026  1.4400  2.8379 -2.2001
  225SOL     OW  673   0.775   1.504   1.682 -0.0395 -0.4142 -0.4794
  225SOL    HW1  674   0.829   1.571   1.637 -3.5249  0.4608  2.5620
  225SOL    HW2  675   0.695   1.472   1.623 -1.4634 -2.3534  0.3562
  226SOL     OW  676   1.112   3.015   0.550  0.5559 -0.4112  0.4299
  226SOL    HW1  677   1.012   3.008   0.547 -0.5841 -0.8949 -2.0119
  226SOL    HW2  678   1.161   2.963   0.477  0.9848 -1.6903  0.5158
  227SOL     OW  679   1.204   1.825   1.732 -0.9762  0.4289 -0.1885
  227SOL    HW1  680   1.269   1.743   1.748  2.2279  0.6368  0.2868
  227SOL    HW2  681   1.250   1.907   1.766 -1.1116 -0.8802 -0.1178
  228SOL     OW  682   0.476   3.053   1.911 -0.1240 -0.1605  0.2885
  228SOL    HW1  683   0.478   0.062   1.926 -1.7580  0.1637 -2.9310
  228SOL    HW2  684   0.381   3.019   1.914  0.7404  0.5670  1.3641
  229SOL     OW  685   2.578   0.825   0.336  0.3072  0.1131 -0.9160
  229SOL    HW1  686   2.485   0.855   0.347  2.5817 -0.8501  0.0900
  229SOL    HW2  687   2.583   0.766   0.255 -0.8454  1.2972  1.4625
  230SOL     OW  688   0.106   1.575   1.792  0.3199  0.1108 -0.3464
  230SOL    HW1  689   0.185   1.532   1.749 -0.0536  1.1950 -0.7673
  230SOL    HW2  690   0.057   1.494   1.840 -0.5878 -3.4437  0.2100
  231SOL     OW  691   1.002   2.989   1.216 -0.2014  0.1633  0.1588
  231SOL    HW1  692   0.917   2.929   1.225 -1.8567 -3.3496  0.9462
  231SOL    HW2  693   1.065   2.951   1.147  0.3078 -1.5808  1.4655
  232SOL     OW  694   2.480   2.547   0.199 -0.2059 -0.2435 -0.1461
  232SOL    HW1  695   2.466   2.449   0.170  0.9535  3.9921 -0.7320
  232SOL    HW2  696   2.499   2.608   0.119  3.9550 -1.5775  1.4837
  233SOL     OW  697   1.348   2.634   2.945 -0.1633 -0.0658 -0.2130
  233SOL    HW1  698   1.318   2.555   2.885  1.1995 -0.4527  0.0176
  233SOL    HW2  699   1.261   2.665   2.995  0.2746 -0.5279  3.3602
  234SOL     OW  700   0.786   1.007   2.198 -0.0800  0.3615  0.0496
  234SOL    HW1  701   0.775   1.096   2.148  0.5761  1.3478  1.5233
  234SOL    HW2  702   0.776   1.023   2.302  2.2863  2.1321  0.9911
  235SOL     OW  703   3.051   2.434   0.038 -0.3700 -0.7568 -0.3139
  235SOL    HW1  704   3.091   2.521   0.011  0.8360 -1.3916  2.5210
  235SOL    HW2  705   3.032   2.373   3.049 -1.3878 -3.0705 -0.1137
  236SOL     OW  706   2.136   2.365   2.601 -0.2715  0.0737 -0.2439
  236SOL    HW1  707   2.201   2.298   2.639 -0.8316 -0.1010 -1.8055
  236SOL    HW2  708   2.042   2.353   2.633 -1.7964 -0.9623  0.0349
  237SOL     OW  709   1.988   1.042   1.331  0.0525 -0.0910  0.0629
  237SOL    HW1  710   2.019   0.950   1.354  0.8236 -0.9328  0.0504
  237SOL    HW2  711   1.969   1.090   1.420 -0.9225  0.2143  0.8039
  238SOL     OW  712   1.459   2.824   2.207 -0.2124  0.0749  0.6860
  238SOL    HW1  713   1.435   2.748   2.273 -0.7588  0.3953 -1.4700
  238SOL    HW2  714   1.425   2.807   2.111 -3.0417  0.1119 -0.8878
  239SOL     OW  715   1.021   2.037   1.983  0.0545 -0.3430 -0.9821
  239SOL    HW1  716   1.024   2.037   2.087  0.5397  1.8766 -0.2422
  239SOL    HW2  717   1.100   2.091   1.949  0.9426  2.0524  2.7214
  240SOL     OW  718   2.820   2.960   0.439  0.1022 -0.1215  0.0984
  240SOL    HW1  719   2.869   2.899   0.504  0.9750 -0.7347  0.3420
  240SOL    HW2  720   2.793   3.053   0.478 -0.8759  3.6585 -0.6747
  241SOL     OW  721   1.372   1.909   3.075 -0.5444  0.2726  0.3313
  241SOL    HW1  722   1.361   1.947   0.080  0.1873  1.2896  3.7574
  241SOL    HW2  723   1.464   1.866   3.063  1.1381 -0.8725  0.7009
  242SOL     OW  724   2.127   1.000   0.072 -0.0011  0.1276  0.0384
  242SOL    HW1  725   2.154   1.099   0.050  1.6291  0.8284 -1.8226
  242SOL    HW2  726   2.116   0.976   0.171  2.7702 -0.7595 -3.5044
  243SOL     OW  727   0.742   0.247   2.097  0.0974  0.0477  0.1566
  243SOL    HW1  728   0.764   0.328   2.155  1.6883 -1.3675  0.5377
  243SOL    HW2  729   0.826   0.221   2.049  4.1226 -2.4214  1.6229
  244SOL     OW  730   1.595   2.465   2.735 -0.2883  0.5934  0.5877
  244SOL    HW1  731   1.674   2.442   2.682 -4.3577  0.3455  1.9353
  244SOL    HW2  732   1.614   2.560   2.769  0.4889  0.1373  0.0041
  245SOL     OW  733   1.609   2.670   3.031 -0.0430  0.1041  0.5518
  245SOL    HW1  734   1.520   2.626   3.013  1.7994 -2.8205 -1.7651
  245SOL    HW2  735   1.635   2.673   0.041  0.6785 -1.9389  2.2021
  246SOL     OW  736   1.309   1.059   2.524  0.1322  0.0871  0.4266
  246SOL    HW1  737   1.390   1.062   2.460 -1.2079 -1.5677  2.8469
  246SOL    HW2  738   1.272   1.152   2.543 -1.1327  0.2900 -0.6625
  247SOL     OW  739   2.858   0.687   2.365 -0.1450  0.3271  0.0324
  247SOL    HW1  740   2.818   0.660   2.455 -1.7307 -1.0466 -0.8540
  247SOL    HW2  741   2.959   0.708   2.368  1.6674 -0.3812 -0.6276
  248SOL     OW  742   0.023   1.346   1.982  0.0951  0.0263  0.1946
  248SOL    HW1  743   3.090   1.269   1.924 -2.3182  1.4380  4.0673
  248SOL    HW2  744   0.051   1.307   2.072  0.8562 -2.8053  0.4414
  249SOL     OW  745   2.767   0.433   0.158  0.2210  0.1883 -0.3532
  249SOL    HW1  746   2.734   0.520   0.192 -0.4383 -0.6390 -0.9528
  249SOL    HW2  747   2.737   0.410   0.062  2.4224  0.4092 -1.5595
  250SOL     OW  748   2.816   0.125   0.532 -0.3461 -0.0099  0.1489
  250SOL    HW1  749   2.757   0.195   0.486 -0.1663 -0.1962  0.7344
  250SOL    HW2  750   2.809   0.142   0.633  1.0484 -2.1102 -2.0567
  251SOL     OW  751   0.802   1.241   2.077  0.2790  0.2865  0.4671
  251SOL    HW1  752   0.882   1.298   2.105 -0.8570 -0.2604  2.3419
  251SOL    HW2  753   0.794   1.233   1.975 -3.5235 -1.5036  1.3288
  252SOL     OW  754   1.614   1.665   1.473  0.2229  0.1751 -0.0430
  252SOL    HW1  755   1.708   1.638   1.447 -1.1919  0.6409 -0.3778
  252SOL    HW2  756   1.574   1.582   1.521  0.3211  2.2262  1.8945
  253SOL     OW  757   1.758   2.020   1.819  0.0113 -0.2571 -0.4076
  253SOL    HW1  758   1.783   1.941   1.869 -0.7843  3.3212  0.4345
  253SOL    HW2  759   1.745   2.104   1.875 -1.0879  1.4801 -0.0748
  254SOL     OW  760   0.602   2.231   2.319 -0.3375  0.2898 -0.0184
  254SOL    HW1  761   0.638   2.143   2.280 -1.0606 -0.7767 -1.5765
  254SOL    HW2  762   0.586   2.298   2.250  0.2407  0.3082  1.4385
  255SOL     OW  763   1.486   0.402   0.620  0.2493 -0.2130 -0.1761
  255SOL    HW1  764   1.497   0.301   0.618  3.2251 -0.1049 -0.1025
  255SOL    HW2  765   1.415   0.429   0.685  2.4295  0.8479  0.9974
  256SOL     OW  766   1.850   2.297   1.107  0.0288 -0.2308  0.0100
  256SOL    HW1  767   1.936   2.300   1.162  0.8197 -1.4587  0.2471
  256SOL    HW2  768   1.859   2.233   1.028 -1.5280 -1.0893  2.6520
  257SOL     OW  769   0.237   2.340   2.569 -0.4956 -1.0346 -0.7264
  257SOL    HW1  770   0.323   2.289   2.590 -0.0231 -0.6298  0.7679
  257SOL    HW2  771   0.183   2.354   2.658  0.5515 -1.9164 -0.7565
  258SOL     OW  772   0.445   1.206   2.338 -0.0231 -0.0806 -0.6392
  258SOL    HW1  773   0.538   1.180   2.308 -0.1282 -0.5797 -1.4757
  258SOL    HW2  774   0.437   1.298   2.382 -0.3024  0.1933 -1.1969
  259SOL     OW  775   1.187   0.854   2.373 -0.2654 -0.3630 -0.2062
  259SOL    HW1  776   1.231   0.903   2.453 -0.2269 -2.3044 -1.1804
  259SOL    HW2  777   1.260   0.834   2.299  2.1864 -1.0926 -0.7777
  260SOL     OW  778   2.205   0.642   0.814 -0.9930 -0.1302  0.4357
  260SOL    HW1  779   2.236   0.708   0.884 -2.0548 -0.8560 -0.6879
  260SOL    HW2  780   2.177   0.695   0.734 -0.1884 -1.0386 -0.8746
  261SOL     OW  781   0.894   0.312   0.176 -0.6756  0.6515 -0.6365
  261SOL    HW1  782   0.954   0.278   0.250  0.7554 -1.8648 -0.7840
  261SOL    HW2  783   0.814   0.252   0.173  1.3823  0.6020 -0.0784
  262SOL     OW  784   2.026   2.647   2.568  0.0071 -0.8170 -0.3759
  262SOL    HW1  785   2.077   2.565   2.580 -0.0913  1.0588 -1.8928
  262SOL    HW2  786   2.013   2.677   2.474  1.7803 -0.0404  3.9140
  263SOL     OW  787   0.756   1.714   2.855 -0.1379  0.0782  0.0597
  263SOL    HW1  788   0.853   1.683   2.837  0.8481 -0.7717  0.0163
  263SOL    HW2  789   0.714   1.754   2.774 -1.3753 -1.3328  0.6337
  264SOL     OW  790   0.511   1.700   1.937  0.2975 -0.3567  0.5287
  264SOL    HW1  791   0.611   1.696   1.935  0.3775 -1.9595  1.0852
  264SOL    HW2  792   0.472   1.613   1.977  0.7717  1.6502 -0.6789
  265SOL     OW  793   0.713   0.987   0.426  0.0100  0.1192  0.0793
  265SOL    HW1  794   0.728   1.042   0.509  0.6894 -1.9376  2.2073
  265SOL    HW2  795   0.790   1.009   0.361  3.1959 -0.0948 -1.7393
  266SOL     OW  796   1.626   1.775   0.180 -0.1404  0.4866 -0.1435
  266SOL    HW1  797   1.696   1.708   0.154 -0.9558 -1.2805 -0.6211
  266SOL    HW2  798   1.571   1.736   0.254 -0.9552  1.8059 -2.4747
  267SOL     OW  799   2.670   0.344   2.991 -0.0944 -0.2906  0.2818
  267SOL    HW1  800   2.680   0.247   3.024  3.0795 -2.3302  0.1432
  267SOL    HW2  801   2.725   0.354   2.908 -0.6016 -2.9665  0.5859
  268SOL     OW  802   0.625   0.428   2.879  0.7740  0.2584  0.1323
  268SOL    HW1  803   0.651   0.457   2.785 -0.3688 -0.8297 -1.4263
  268SOL    HW2  804   0.699   0.453   2.947 -1.1305  0.5003  1.2393
  269SOL     OW  805   1.694   0.468   2.563  0.1136 -0.0879 -0.1560
  269SOL    HW1  806   1.597   0.492   2.542  0.7967  0.8270 -0.8495
  269SOL    HW2  807   1.729   0.424   2.478 -2.2510  0.6617 -0.8554
  270SOL     OW  808   0.963   0.938   2.599 -0.8224 -0.0462  0.1776
  270SOL    HW1  809   1.022   0.992   2.535 -0.5948 -0.5540  1.9186
  270SOL    HW2  810   1.009   0.847   2.614 -2.9142 -0.1743 -1.0432
  271SOL     OW  811   2.880   0.811   0.084  0.0558  0.1155 -0.2100
  271SOL    HW1  812   2.912   0.888   0.138 -1.1850 -4.1218  0.8173
  271SOL    HW2  813   2.901   0.829   3.079  0.8111 -1.2749  0.4089
  272SOL     OW  814   2.347   1.505   2.745  0.7548  0.4616 -0.1692
  272SOL    HW1  815   2.393   1.563   2.674  1.0954 -0.2922  4.1492
  272SOL    HW2  816   2.333   1.406   2.713 -0.3453 -2.1359 -0.1447
  273SOL     OW  817   2.889   0.231   2.407  0.3882 -0.2724 -0.4713
  273SOL    HW1  818   2.868   0.289   2.490  2.9219  0.6100 -1.4826
  273SOL    HW2  819   2.987   0.223   2.391  0.4141  1.1644  1.2133
  274SOL     OW  820   3.020   0.043   1.374 -0.3410 -0.1817  0.4002
  274SOL    HW1  821   2.950   0.035   1.298 -1.1154 -0.6868  3.4651
  274SOL    HW2  822   0.024   0.038   1.339  2.0242 -1.5783  0.6000
  275SOL     OW  823   2.017   1.296   0.565 -0.0976  0.0971 -0.0344
  275SOL    HW1  824   2.015   1.202   0.528  0.1332  1.4084  1.1048
  275SOL    HW2  825   1.922   1.326   0.578  0.6408  1.7540  0.3600
  276SOL     OW  826   0.403   1.450   2.810  0.2789  0.1300 -0.0170
  276SOL    HW1  827   0.464   1.372   2.840 -0.6484  1.0628  0.3100
  276SOL    HW2  828   0.382   1.440   2.708  1.8916 -1.6502 -2.0343
  277SOL     OW  829   1.915   2.431   1.934 -0.0258 -0.2608 -0.0636
  277SOL    HW1  830   1.935   2.474   2.025 -0.3848  0.6005 -4.8299
  277SOL    HW2  831   1.871   2.500   1.878  0.6068 -3.8948  3.0006
  278SOL     OW  832   1.981   0.245   1.498  0.2660 -0.0403 -0.2338
  278SOL    HW1  833   2.070   0.220   1.542 -0.2425  1.8000  0.5998
  278SOL    HW2  834   1.946   0.167   1.440  0.0700 -0.3181 -2.7602
  279SOL     OW  835   1.402   1.131   3.019 -0.3788 -0.4865  0.0611
  279SOL    HW1  836   1.390   1.046   2.970  2.2990  0.9979  0.2965
  279SOL    HW2  837   1.467   1.124   0.004  1.3189  1.7767  1.6146
  280SOL     OW  838   0.614   1.866   1.169  0.1660  0.1095  0.8053
  280SOL    HW1  839   0.631   1.963   1.196  0.6691  0.4708 -0.1224
  280SOL    HW2  840   0.665   1.851   1.080 -1.4982  0.0991 -2.2309
  281SOL     OW  841   0.333   0.100   2.262  0.3261  0.6896 -0.8325
  281SOL    HW1  842   0.436   0.093   2.263  0.6563  0.2344 -0.9155
  281SOL    HW2  843   0.298   0.139   2.173  0.6747  0.9256 -2.7932
  282SOL     OW  844   0.099   1.535   1.400  0.3208  0.4373 -0.4855
  282SOL    HW1  845   0.078   1.637   1.402 -0.2969  2.2080  1.3846
  282SOL    HW2  846   0.161   1.509   1.326 -0.7555  3.0385  0.6299
  283SOL     OW  847   1.836   2.023   2.475  0.4216  0.0990  0.0816
  283SOL    HW1  848   1.866   1.931   2.501 -2.0520  1.1360 -0.3080
  283SOL    HW2  849   1.738   2.041   2.493 -1.0270  0.9293  0.6223
  284SOL     OW  850   1.831   0.823   0.230  0.4323 -0.4757 -0.6704
  284SOL    HW1  851   1.833   0.846   0.329  0.8642 -0.8591 -2.5432
  284SOL    HW2  852   1.921   0.814   0.187  0.7131 -0.2544 -3.6364
  285SOL     OW  853   0.047   2.794   2.784  0.1602  0.0574 -0.2166
  285SOL    HW1  854   0.051   2.852   2.704 -1.3095 -0.0245 -0.5837
  285SOL    HW2  855   0.078   2.845   2.868 -0.5395 -0.1604  2.2562
  286SOL     OW  856   1.956   2.620   1.204 -0.1778 -0.9804  0.2007
  286SOL    HW1  857   1.929   2.588   1.295  1.5009 -1.6371  0.9061
  286SOL    HW2  858   1.879   2.603   1.139 -0.4958 -0.3113 -1.8741
  287SOL     OW  859   0.747   0.795   1.282  0.1715 -0.2875 -0.1527
  287SOL    HW1  860   0.699   0.706   1.304 -1.5121 -0.1418  0.1043
  287SOL    HW2  861   0.797   0.831   1.360 -1.5039 -0.4444 -2.4502
  288SOL     OW  862   1.382   2.565   0.193  0.3325  0.0661 -0.2047
  288SOL    HW1  863   1.483   2.581   0.198  1.2950  3.2156  1.6016
  288SOL    HW2  864   1.330   2.648   0.156  1.6367 -0.2935 -0.2510
  289SOL     OW  865   3.090   2.021   2.875  0.5267 -0.2978  0.0390
  289SOL    HW1  866   0.075   2.071   2.836  0.6077 -2.8423  0.4995
  289SOL    HW2  867   3.008   2.019   2.820  2.7942 -1.2554 -1.3489
  290SOL     OW  868   1.064   2.612   0.649  0.3859  0.1540  0.1684
  290SOL    HW1  869   1.151   2.591   0.600  1.9925  0.8606  0.1731
  290SOL    HW2  870   1.046   2.534   0.709 -2.0942 -1.2307  1.6422
  291SOL     OW  871   2.039   1.654   3.065  0.0923 -0.2891  0.7442
  291SOL    HW1  872   2.069   1.641   2.972  0.2693 -0.5644  1.0334
  291SOL    HW2  873   2.009   1.751   3.085 -0.7545 -1.3672  1.0623
  292SOL     OW  874   0.818   1.250   1.796  0.2097  0.1302  0.0373
  292SOL    HW1  875   0.911   1.224   1.765  0.1235  1.4224 -0.8531
  292SOL    HW2  876   0.794   1.340   1.760 -4.5162 -2.1461 -0.6971
  293SOL     OW  877   2.192   2.813   1.039  0.2199 -0.4452 -0.5563
  293SOL    HW1  878   2.287   2.820   1.003  2.5809 -0.5650  0.5375
  293SOL    HW2  879   2.172   2.723   1.082 -1.0376 -0.3769  1.2974
  294SOL     OW  880   0.047   0.764   2.396  0.5466 -0.1664  0.4117
  294SOL    HW1  881   0.087   0.842   2.444  1.0753 -2.6407 -2.8749
  294SOL    HW2  882   0.118   0.696   2.367 -2.1386 -3.4240 -1.1942
  295SOL     OW  883   0.865   2.035   0.308 -0.1330  0.0725  0.4674
  295SOL    HW1  884   0.893   2.130   0.318  0.3749 -4.0382  0.8735
  295SOL    HW2  885   0.915   1.985   0.237  0.1638  1.3357  2.1760
  296SOL     OW  886   2.159   1.823   2.347  0.3974  0.0286 -0.0760
  296SOL    HW1  887   2.225   1.755   2.316 -0.8064  1.4259 -0.2809
  296SOL    HW2  888   2.080   1.776   2.390 -0.6416 -0.3012 -0.9561
  297SOL     OW  889   2.857   0.333   2.810 -0.6096 -0.1944 -0.1430
  297SOL    HW1  890   2.869   0.431   2.779 -0.8382  2.4741  2.4941
  297SOL    HW2  891   2.800   0.280   2.742  1.4151 -3.3911 -0.2651
  298SOL     OW  892   0.808   2.155   0.003  0.0193  0.4982 -0.6518
  298SOL    HW1  893   0.783   2.057   3.078  3.3462  2.6173  1.9978
  298SOL    HW2  894   0.731   2.211   0.034 -0.3163  1.3069 -0.8479
  299SOL     OW  895   1.367   2.825   2.530 -0.0314 -0.0934 -0.0337
  299SOL    HW1  896   1.289   2.863   2.581  2.4713 -0.7304 -2.2704
  299SOL    HW2  897   1.342   2.739   2.480  0.1317 -0.0036  0.5539
  300SOL     OW  898   2.666   0.313   0.379 -0.1499  0.3561  0.2433
  300SOL    HW1  899   2.619   0.398   0.405  1.0888  1.1098  0.9491
  300SOL    HW2  900   2.715   0.331   0.298 -2.1668 -2.3531  1.6388
  301SOL     OW  901   1.027   0.954   1.478 -0.3798 -0.1861  0.0841
  301SOL    HW1  902   0.990   0.861   1.494  0.6669 -1.0907  1.0775
  301SOL    HW2  903   0.957   1.024   1.464  0.4852 -0.6605  0.9242
  302SOL     OW  904   3.073   2.576   2.626  0.2405  0.2435 -0.1157
  302SOL    HW1  905   0.022   2.499   2.675 -0.1075  2.2491  0.2742
  302SOL    HW2  906   0.017   2.664   2.660  1.3568  0.2999 -0.2465
  303SOL     OW  907   3.021   0.023   2.143 -0.7209 -0.3283 -0.5740
  303SOL    HW1  908   3.037   0.097   2.215 -0.8202  1.8634  0.9360
  303SOL    HW2  909   3.051   3.025   2.177 -0.2396  0.7632 -1.9935
  304SOL     OW  910   2.887   0.420   1.355 -0.0126  0.2025 -0.2044
  304SOL    HW1  911   2.867   0.332   1.405 -0.8542  0.4193 -0.4337
  304SOL    HW2  912   2.810   0.451   1.299 -0.2846 -1.7746 -0.8184
  305SOL     OW  913   0.461   2.858   2.117  0.3150 -0.3563  0.0123
  305SOL    HW1  914   0.551   2.862   2.157 -3.7461  1.6458  1.3069
  305SOL    HW2  915   0.455   2.935   2.051  2.0103 -0.5704  2.2925
  306SOL     OW  916   2.673   1.110   1.437 -0.4049 -0.1282 -0.7393
  306SOL    HW1  917   2.751   1.089   1.502  2.6889 -0.2619 -0.0779
  306SOL    HW2  918   2.708   1.181   1.374  1.7033 -0.6724  0.0321
  307SOL     OW  919   1.518   0.689   0.954  0.4889  0.1670  0.1115
  307SOL    HW1  920   1.435   0.630   0.958 -1.9844 -0.5263  0.3773
  307SOL    HW2  921   1.491   0.784   0.927  0.3390 -0.1850 -0.4395
  308SOL     OW  922   0.143   2.218   1.443  0.0319 -0.0249  0.5826
  308SOL    HW1  923   0.147   2.308   1.487  0.9863  0.3460 -0.5393
  308SOL    HW2  924   0.093   2.230   1.355 -1.2375  0.6264  3.6725
  309SOL     OW  925   2.564   1.732   1.248  0.1751  0.2987  0.1494
  309SOL    HW1  926   2.544   1.834   1.225 -0.5174 -0.3690  2.4933
  309SOL    HW2  927   2.565   1.671   1.169 -2.1649  3.2651 -0.2343
  310SOL     OW  928   2.832   1.671   0.070  0.0844  0.4278 -0.2733
  310SOL    HW1  929   2.845   1.635   3.069  2.7237  0.4842 -1.6048
  310SOL    HW2  930   2.802   1.597   0.136 -0.0526  0.5470  1.0963
  311SOL     OW  931   2.443   1.862   3.028 -0.4911  0.4813  0.1629
  311SOL    HW1  932   2.439   1.899   2.931  0.5215  0.2318 -1.0070
  311SOL    HW2  933   2.443   1.758   3.032 -2.7758 -3.0580 -1.3041
  312SOL     OW  934   2.492   1.573   0.748  0.1764  0.2520 -0.0945
  312SOL    HW1  935   2.596   1.584   0.742  0.9946  0.1914 -0.8086
  312SOL    HW2  936   2.465   1.474   0.763 -0.5011 -1.6182  2.3473
  313SOL     OW  937   2.554   2.480   1.349 -0.3043  0.2368  0.0423
  313SOL    HW1  938   2.505   2.472   1.440 -1.6618 -3.0788  2.3567
  313SOL    HW2  939   2.609   2.568   1.336 -1.5743 -0.3888 -1.2230
  314SOL     OW  940   0.857   2.117   0.926  0.2403  0.0268  0.1239
  314SOL    HW1  941   0.910   2.176   0.860 -0.6332 -0.5667 -0.5929
  314SOL    HW2  942   0.929   2.074   0.989  2.7780 -0.1755 -0.8918
  315SOL     OW  943   0.524   2.559   2.627 -0.1149  0.1109 -0.4554
  315SOL    HW1  944   0.505   2.614   2.546  0.1324 -0.1402  4.2802
  315SOL    HW2  945   0.501   2.461   2.605 -0.4793  2.7766  1.4186
  316SOL     OW  946   0.169   1.108   0.781 -0.1754 -0.2803  0.3869
  316SOL    HW1  947   0.272   1.123   0.784  3.3107 -2.0528  0.0031
  316SOL    HW2  948   0.148   1.032   0.845 -0.7216  0.0838 -1.8248
  317SOL     OW  949   1.933   0.236   0.655 -0.2625 -0.0884 -0.3122
  317SOL    HW1  950   1.914   0.274   0.566  2.1960 -4.6866  2.8579
  317SOL    HW2  951   2.005   0.289   0.708 -0.6588 -0.0870 -1.6138
  318SOL     OW  952   2.994   2.530   0.651  0.8679  0.0007  0.1925
  318SOL    HW1  953   2.961   2.457   0.588  0.1228  1.7477  0.9038
  318SOL    HW2  954   3.050   2.504   0.730  0.8039  0.9569  2.7070
  319SOL     OW  955   0.735   1.534   0.031  0.7581  0.0388 -0.3461
  319SOL    HW1  956   0.710   1.605   3.055  3.7631  1.3874  0.8744
  319SOL    HW2  957   0.650   1.485   0.067 -0.8351 -0.1415  3.3320
  320SOL     OW  958   0.860   2.817   2.430  0.1282  0.3928 -0.2042
  320SOL    HW1  959   0.931   2.889   2.438  0.1340 -3.0345 -2.3227
  320SOL    HW2  960   0.860   2.762   2.516 -2.1860 -0.6822 -0.1772
  321SOL     OW  961   1.432   2.873   2.803  0.5543  0.3923  0.0110
  321SOL    HW1  962   1.441   2.777   2.843 -0.7167  0.6837  0.0771
  321SOL    HW2  963   1.433   2.861   2.698  0.4190 -1.5020 -4.0624
  322SOL     OW  964   2.309   1.295   2.113 -0.1866 -0.6440 -0.0187
  322SOL    HW1  965   2.398   1.339   2.143 -0.7265  1.9884  1.5501
  322SOL    HW2  966   2.306   1.192   2.106 -2.1421 -3.5430 -0.3967
  323SOL     OW  967   2.499   0.595   0.483  0.1531 -0.0975 -0.3190
  323SOL    HW1  968   2.414   0.565   0.441  0.4843  0.6723  2.7682
  323SOL    HW2  969   2.543   0.662   0.425  0.8189 -0.3672 -0.6563
  324SOL     OW  970   3.088   0.195   2.627  0.1932  0.0785 -0.6501
  324SOL    HW1  971   0.069   0.199   2.691 -2.4790  2.3885 -0.4933
  324SOL    HW2  972   3.010   0.146   2.669 -2.5731 -0.5947  2.3700
  325SOL     OW  973   1.532   0.197   2.036  0.4808  0.0031  0.2383
  325SOL    HW1  974   1.629   0.215   2.014  0.7226  1.8537 -0.2615
  325SOL    HW2  975   1.521   0.103   2.077 -2.2838  0.2753  0.5779
  326SOL     OW  976   2.480   2.859   1.241 -0.2455  0.4316  0.4114
  326SOL    HW1  977   2.458   2.959   1.247 -1.8508  2.2594 -2.0251
  326SOL    HW2  978   2.484   2.839   1.139 -0.5761  0.1850 -0.4816
  327SOL     OW  979   1.537   0.533   2.857 -0.0532  0.3003 -0.9818
  327SOL    HW1  980   1.464   0.496   2.917  0.0136 -1.5330  1.3061
  327SOL    HW2  981   1.602   0.462   2.834  1.3987  0.0773  1.0817
  328SOL     OW  982   2.830   1.091   2.470  0.2325  0.0198  1.1183
  328SOL    HW1  983   2.878   1.091   2.380  0.8246  1.4238  1.4325
  328SOL    HW2  984   2.766   1.168   2.480  1.2075 -3.5079 -0.6767
  329SOL     OW  985   1.829   2.683   1.820  0.3962  0.4672  0.2786
  329SOL    HW1  986   1.742   2.741   1.818  1.4266  0.2524  2.4627
  329SOL    HW2  987   1.907   2.715   1.756  2.2226 -0.5477 -1.3754
  330SOL     OW  988   2.598   1.780   1.669 -0.2447  0.0120 -0.2730
  330SOL    HW1  989   2.495   1.771   1.681 -1.8237 -0.7530 -0.6871
  330SOL    HW2  990   2.649   1.759   1.755 -2.0520 -0.6900  0.7061
  331SOL     OW  991   0.032   1.796   1.416 -0.9721 -0.6518 -0.5022
  331SOL    HW1  992   0.056   1.837   1.327 -1.7009  0.8083 -2.1802
  331SOL    HW2  993   0.069   1.861   1.489  1.2494  0.7454  1.7891
  332SOL     OW  994   0.775   0.234   1.063 -0.1985 -0.5903 -0.5895
  332SOL    HW1  995   0.677   0.244   1.049 -0.2154  0.7630 -0.6091
  332SOL    HW2  996   0.798   0.280   1.152  0.0290  1.1861  1.4835
  333SOL     OW  997   2.215   2.485   2.338  0.7447 -0.0891 -0.1474
  333SOL    HW1  998   2.183   2.436   2.418  1.1673 -0.4847 -1.1421
  333SOL    HW2  999   2.260   2.567   2.371 -1.8665 -0.2098  2.2921
  334SOL     OW 1000   1.091   1.266   1.291 -0.0229 -0.6436  0.0425
  334SOL    HW1 1001   1.117   1.306   1.200 -0.3364  2.0378 -0.8907
  334SOL    HW2 1002   1.169   1.219   1.332 -0.7851  2.4618 -1.7274
  335SOL     OW 1003   0.796   2.656   2.708 -0.0308 -0.0620  0.9529
  335SOL    HW1 1004   0.705   2.657   2.662 -1.4130 -1.8998  0.3825
  335SOL    HW2 1005   0.829   2.557   2.704  1.6223 -2.4050  0.6904
  336SOL     OW 1006   2.529   2.395   1.953  0.1316 -0.4702 -0.4968
  336SOL    HW1 1007   2.596   2.439   1.881  2.9771  0.5504  0.4308
  336SOL    HW2 1008   2.467   2.321   1.913 -2.8298  1.7507 -0.3967
  337SOL     OW 1009   2.352   1.556   0.397 -0.3399  0.0800  0.1984
  337SOL    HW1 1010   2.311   1.595   0.312  0.1934  1.6008  2.8834
  337SOL    HW2 1011   2.342   1.619   0.472  0.9749 -1.1104 -2.8355
  338SOL     OW 1012   1.178   1.876   1.452 -0.5695 -0.1545 -0.6948
  338SOL    HW1 1013   1.148   1.973   1.443 -0.6680  2.0801 -0.4025
  338SOL    HW2 1014   1.181   1.849   1.550 -0.1896 -1.8159  1.1392
  339SOL     OW 1015   0.097   0.884   2.132  0.6408 -0.9611  0.8109
  339SOL    HW1 1016   0.121   0.804   2.195 -0.1081 -1.7641 -1.0253
  339SOL    HW2 1017   0.180   0.939   2.120 -1.3474 -1.9315  0.7001
  340SOL     OW 1018   1.628   2.905   1.409  0.0110 -0.0997  0.1376
  340SOL    HW1 1019   1.698   2.883   1.344 -1.7775  0.4253  1.7084
  340SOL    HW2 1020   1.535   2.900   1.369 -1.1903  0.2713  1.6710
  341SOL     OW 1021   1.962   1.220   1.024 -0.0426  0.1453 -0.0530
  341SOL    HW1 1022   2.048   1.181   1.058 -1.9054 -0.3424 -2.3308
  341SOL    HW2 1023   1.975   1.279   0.942 -0.6288 -0.4164 -1.5493
  342SOL     OW 1024   0.347   1.516   0.933  0.2767 -0.0602 -0.1384
  342SOL    HW1 1025   0.382   1.528   0.837 -2.3486  0.7445  1.1809
  342SOL    HW2 1026   0.365   1.606   0.977  0.2778  1.5402 -0.8607
  343SOL     OW 1027   2.066   0.492   1.394 -0.1400  0.3580 -0.5250
  343SOL    HW1 1028   2.023   0.408   1.433 -1.4337 -0.6146  1.3815
  343SOL    HW2 1029   1.991   0.556   1.364 -2.2422 -0.3385 -0.6204
  344SOL     OW 1030   2.004   2.900   0.864 -0.4520 -0.0510 -0.5202
  344SOL    HW1 1031   2.030   2.816   0.917 -1.5335 -0.8539  1.2434
  344SOL    HW2 1032   1.979   2.880   0.767 -0.8356  1.6838  1.6615
  345SOL     OW 1033   2.792   2.872   2.756 -0.1606  0.0329 -0.0136
  345SOL    HW1 1034   2.695   2.852   2.784  1.1415  1.3058 -1.3448
  345SOL    HW2 1035   2.823   2.822   2.675  0.9185  3.2610  1.1476
  346SOL     OW 1036   2.807   0.932   0.447 -0.5451  0.5296  0.1193
  346SOL    HW1 1037   2.713   0.918   0.419  2.1341 -0.5766  1.7046
  346SOL    HW2 1038   2.864   0.840   0.453  1.7041 -0.8000  0.9394
  347SOL     OW 1039   1.813   2.868   1.191 -0.1084 -0.1159  0.5858
  347SOL    HW1 1040   1.909   2.848   1.223  3.2719 -2.5227 -1.8701
  347SOL    HW2 1041   1.784   2.786   1.138  1.9978  1.0371  1.6473
  348SOL     OW 1042   1.403   1.302   2.064 -0.0349 -0.3982  0.4944
  348SOL    HW1 1043   1.379   1.268   1.973  0.4863  0.6683 -0.3054
  348SOL    HW2 1044   1.319   1.298   2.116  0.2107  0.5994  0.7472
  349SOL     OW 1045   2.282   1.114   2.413 -0.2750  0.2569 -0.2258
  349SOL    HW1 1046   2.245   1.030   2.370  1.4632  1.4270  1.6353
  349SOL    HW2 1047   2.379   1.119   2.400 -2.9222 -0.2642  0.4947
  350SOL     OW 1048   0.160   1.911   1.200 -0.0294 -0.3265  0.2491
  350SOL    HW1 1049   0.236   1.949   1.255 -0.5716 -0.2901 -1.8195
  350SOL    HW2 1050   0.097   1.991   1.178  1.2972  1.8370  0.6278
  351SOL     OW 1051   0.838   0.501   2.190 -0.3899  0.0192  0.0029
  351SOL    HW1 1052   0.910   0.446   2.236 -1.6724 -0.9881 -1.4364
  351SOL    HW2 1053   0.856   0.599   2.215 -0.0267  1.0979 -1.1214
  352SOL     OW 1054   0.985   2.890   1.649  0.1056  0.2136  0.0308
  352SOL    HW1 1055   0.943   2.984   1.635 -0.0994 -0.6012  0.3000
  352SOL    HW2 1056   0.945   2.822   1.588  0.7934 -0.4761  1.3529
  353SOL     OW 1057   1.090   1.670   2.524 -0.1809 -0.4101  0.3897
  353SOL    HW1 1058   1.164   1.744   2.523  2.1385 -0.9503 -1.1821
  353SOL    HW2 1059   1.067   1.634   2.430 -1.0814 -1.4397  0.9213
  354SOL     OW 1060   1.736   1.344   0.591  0.3495  0.1844 -0.1089
  354SOL    HW1 1061   1.692   1.431   0.580 -0.2229 -3.8977 -0.5133
  354SOL    HW2 1062   1.679   1.258   0.583 -1.7260  0.9631  0.5602
  355SOL     OW 1063   2.204   0.104   0.610 -0.0185  0.3890 -0.2620
  355SOL    HW1 1064   2.209   0.048   0.695  1.0381 -2.5642  1.1207
  355SOL    HW2 1065   2.293   0.138   0.585 -1.7995 -0.8886  0.8719
  356SOL     OW 1066   0.190   1.100   2.970 -0.2654 -0.3967  0.1393
  356SOL    HW1 1067   0.157   1.027   3.035 -2.0212  1.1110  1.4358
  356SOL    HW2 1068   0.111   1.158   2.943  1.8749 -3.9778  1.7405
  357SOL     OW 1069   3.056   3.039   1.643 -0.1676  0.2204 -0.4169
  357SOL    HW1 1070   3.057   0.005   1.557 -1.6818 -0.3318 -3.3066
  357SOL    HW2 1071   0.002   2.944   1.625  1.1210 -0.2078 -2.5226
  358SOL     OW 1072   0.071   1.413   2.702  0.4453 -0.1101  0.2381
  358SOL    HW1 1073   0.007   1.482   2.663  0.6059  0.5762 -3.0926
  358SOL    HW2 1074   0.048   1.391   2.801 -1.4812  0.4363  3.7458
  359SOL     OW 1075   2.569   2.469   2.436 -0.4544 -0.0473  0.3338
  359SOL    HW1 1076   2.498   2.536   2.444 -0.6690 -1.0747 -0.3377
  359SOL    HW2 1077   2.635   2.483   2.358  4.2574 -0.6428 -2.6358
  360SOL     OW 1078   1.448   1.508   0.864 -0.0137  0.2272 -0.0931
  360SOL    HW1 1079   1.391   1.429   0.842  2.4955  2.0978 -0.0026
  360SOL    HW2 1080   1.396   1.585   0.896  1.1904  1.1574 -0.6302
  361SOL     OW 1081   2.297   2.307   1.012 -0.1687  0.5738 -0.4652
  361SOL    HW1 1082   2.279   2.233   1.078  0.2865  0.1374 -0.4043
  361SOL    HW2 1083   2.248   2.393   1.035  2.9640  0.6081 -2.2878
  362SOL     OW 1084   1.760   1.267   1.200  0.1696 -0.1927 -0.5937
  362SOL    HW1 1085   1.829   1.242   1.127 -1.8857 -0.5333  0.8893
  362SOL    HW2 1086   1.768   1.362   1.229 -2.0038 -0.9438  0.6659
  363SOL     OW 1087   2.561   1.858   0.424  0.1056  0.1447 -0.3493
  363SOL    HW1 1088   2.606   1.918   0.355  0.7509  3.3631  0.9552
  363SOL    HW2 1089   2.465   1.885   0.425  0.8282 -0.6330  0.4754
  364SOL     OW 1090   2.167   0.174   1.695  0.0659 -0.0846  0.1359
  364SOL    HW1 1091   2.248   0.129   1.647 -0.6325 -1.1428  2.3455
  364SOL    HW2 1092   2.197   0.235   1.769  1.2337 -2.9630  1.6543
  365SOL     OW 1093   0.114   2.661   0.946 -0.4735 -0.4762 -0.3727
  365SOL    HW1 1094   0.127   2.580   0.886 -0.5059  0.5021 -0.9410
  365SOL    HW2 1095   0.025   2.649   0.996 -0.8731 -1.2629 -0.2734
  366SOL     OW 1096   3.046   1.028   0.175  0.2946  0.1191  0.6079
  366SOL    HW1 1097   0.005   0.958   0.120  2.3097 -1.2104  2.0541
  366SOL    HW2 1098   3.081   1.025   0.269 -1.9539 -0.5685 -0.3918
  367SOL     OW 1099   2.537   2.217   2.871  0.0200 -0.4202 -0.0406
  367SOL    HW1 1100   2.452   2.182   2.824  0.7648 -2.9674  0.4073
  367SOL    HW2 1101   2.589   2.288   2.813  0.7344  0.5649 -2.4408
  368SOL     OW 1102   2.848   1.900   1.072 -0.2797 -1.0607 -0.1668
  368SOL    HW1 1103   2.860   1.827   1.142  0.7317  1.4989  2.1090
  368SOL    HW2 1104   2.827   1.984   1.127 -0.9943 -2.0666 -0.8421
  369SOL     OW 1105   0.729   0.718   0.415 -0.2370 -0.0758  0.3176
  369SOL    HW1 1106   0.666   0.673   0.481  0.7046 -0.3156  1.0174
  369SOL    HW2 1107   0.716   0.818   0.423 -0.8850  0.1314 -0.1861
  370SOL     OW 1108   0.744   0.005   0.917  0.1023  0.0662  0.1122
  370SOL    HW1 1109   0.655   0.008   0.964  0.7292  0.6256 -1.2508
  370SOL    HW2 1110   0.818   0.061   0.954 -0.8974 -0.4163  1.3525
  371SOL     OW 1111   2.171   1.286   0.049 -0.0902  0.8331 -0.1073
  371SOL    HW1 1112   2.078   1.304   0.088 -2.0861 -0.7615  0.1458
  371SOL    HW2 1113   2.247   1.343   0.092 -0.0357  3.8295  0.3056
  372SOL     OW 1114   0.310   1.034   2.741  0.2715 -0.3218  0.4593
  372SOL    HW1 1115   0.258   1.046   2.831  2.7827  0.7217  2.6435
  372SOL    HW2 1116   0.276   1.103   2.671 -3.3016  1.7975  1.6910
  373SOL     OW 1117   2.959   0.575   3.003  0.6319  0.2530  0.2092
  373SOL    HW1 1118   2.942   0.643   3.078 -2.8116  1.3218 -1.5150
  373SOL    HW2 1119   3.052   0.584   2.966  0.1065 -0.3162 -2.8986
  374SOL     OW 1120   1.086   2.214   0.076  0.0611 -0.2137  0.0498
  374SOL    HW1 1121   1.003   2.160   0.054 -0.9535 -3.2665  1.5723
  374SOL    HW2 1122   1.069   2.313   0.068 -0.5351  0.3232 -0.5011
  375SOL     OW 1123   1.099   0.246   0.377 -0.0852  0.3292  0.9879
  375SOL    HW1 1124   1.121   0.344   0.348 -1.4610  0.2151 -1.6864
  375SOL    HW2 1125   1.185   0.192   0.377 -0.1529 -0.6000  1.3878
  376SOL     OW 1126   0.204   2.534   2.072 -0.8118 -0.1528  0.2505
  376SOL    HW1 1127   0.163   2.450   2.037  1.9389  0.2977  3.7620
  376SOL    HW2 1128   0.252   2.520   2.160 -1.5858  0.6405  0.4483
  377SOL     OW 1129   2.840   2.065   2.738 -0.4348 -0.1395 -0.4632
  377SOL    HW1 1130   2.802   2.119   2.815  1.3596 -0.4481 -0.0825
  377SOL    HW2 1131   2.809   1.969   2.742  2.2378  0.1614 -2.3059
  378SOL     OW 1132   1.515   0.882   0.538  0.4340 -0.0168 -0.3266
  378SOL    HW1 1133   1.452   0.939   0.485  0.0513 -0.0288  0.0852
  378SOL    HW2 1134   1.479   0.787   0.547  1.4390  0.0690  2.1700
  379SOL     OW 1135   1.195   1.565   0.486  0.1079  0.4844  0.4551
  379SOL    HW1 1136   1.112   1.509   0.473  0.2373  2.3012 -0.6819
  379SOL    HW2 1137   1.179   1.642   0.542  0.0645 -4.2910 -2.2444
  380SOL     OW 1138   2.094   2.381   1.566  0.6621 -0.4961  0.3384
  380SOL    HW1 1139   2.177   2.338   1.523  0.9545  1.9692 -0.7896
  380SOL    HW2 1140   2.041   2.303   1.614 -0.4276  0.5565  3.6271
  381SOL     OW 1141   2.984   1.034   2.234 -0.0759 -0.8383 -0.0876
  381SOL    HW1 1142   3.063   0.980   2.197 -1.3441  2.0987  1.6667
  381SOL    HW2 1143   2.907   1.042   2.160 -5.3720  3.5255 -3.2993
  382SOL     OW 1144   2.782   2.478   0.218 -0.5028 -0.1653  0.2372
  382SOL    HW1 1145   2.785   2.486   0.118 -0.2431  0.6731  2.7294
  382SOL    HW2 1146   2.711   2.410   0.234 -1.2721  0.5589  1.6074
  383SOL     OW 1147   1.618   1.123   2.118  0.0059 -0.4563 -0.1742
  383SOL    HW1 1148   1.715   1.132   2.088  0.5503 -0.5620  0.9063
  383SOL    HW2 1149   1.569   1.208   2.087 -1.8292 -2.2928 -0.6949
  384SOL     OW 1150   1.067   2.058   2.549 -0.0450  0.1732 -0.5965
  384SOL    HW1 1151   0.988   2.109   2.516  2.2119 -0.3529  0.6764
  384SOL    HW2 1152   1.061   2.029   2.647 -2.7710  2.0071  0.5826
  385SOL     OW 1153   2.586   2.339   0.573 -0.4213 -0.1134  0.1079
  385SOL    HW1 1154   2.558   2.431   0.541 -1.5189 -1.1097 -1.0666
  385SOL    HW2 1155   2.585   2.329   0.673  1.6870 -0.4458 -2.6379
  386SOL     OW 1156   1.423   1.328   0.273  0.1297  0.3651 -0.5255
  386SOL    HW1 1157   1.431   1.379   0.362  0.8450 -2.6897 -1.3474
  386SOL    HW2 1158   1.382   1.241   0.296  2.3317  2.0295 -0.6629
  387SOL     OW 1159   2.746   0.680   1.283  0.1381  0.8909  0.0279
  387SOL    HW1 1160   2.687   0.754   1.250 -0.6353 -1.4587  1.0852
  387SOL    HW2 1161   2.785   0.713   1.369  1.4195 -1.6646 -2.0563
  388SOL     OW 1162   2.962   0.898   1.089 -0.2010 -0.8057  1.0366
  388SOL    HW1 1163   3.051   0.942   1.105 -3.2819  1.3152 -1.2834
  388SOL    HW2 1164   2.959   0.820   1.153  3.6225  1.7472  2.0277
  389SOL     OW 1165   1.736   1.148   2.507 -0.2912 -0.0277  0.2514
  389SOL    HW1 1166   1.745   1.136   2.607  0.6957  0.1393 -1.7753
  389SOL    HW2 1167   1.819   1.118   2.462  2.2712  1.0287  1.3475
  390SOL     OW 1168   1.393   2.300   0.412  0.0397  0.0987  0.1812
  390SOL    HW1 1169   1.412   2.311   0.313 -1.0107 -0.7839  2.8989
  390SOL    HW2 1170   1.461   2.236   0.444  4.0068 -0.4645 -0.2260
  391SOL     OW 1171   1.250   2.216   1.207 -0.6807  0.1790 -0.1834
  391SOL    HW1 1172   1.330   2.264   1.251  4.5250  0.1862 -0.2181
  391SOL    HW2 1173   1.269   2.196   1.107 -0.9204  1.4651  0.5286
  392SOL     OW 1174   2.463   2.808   1.952 -0.2017  0.3016 -0.7174
  392SOL    HW1 1175   2.399   2.745   1.902  1.4445  3.0320  2.2535
  392SOL    HW2 1176   2.559   2.810   1.920 -1.4715 -0.6347  3.6073
  393SOL     OW 1177   1.869   2.312   2.600 -0.2621  0.0650  0.1475
  393SOL    HW1 1178   1.827   2.380   2.537 -0.7031 -2.1287  0.8989
  393SOL    HW2 1179   1.904   2.231   2.542  1.9993 -0.7659 -0.0441
  394SOL     OW 1180   0.071   0.153   2.384  0.0370 -0.8683 -0.2154
  394SOL    HW1 1181   0.055   0.178   2.482  1.0604  1.9900 -1.1401
  394SOL    HW2 1182   0.167   0.145   2.359  0.8290 -0.9307 -0.1845
  395SOL     OW 1183   0.494   1.339   1.072 -0.3361 -0.2682  0.4155
  395SOL    HW1 1184   0.447   1.389   0.998 -1.5941  1.2966 -1.1013
  395SOL    HW2 1185   0.597   1.370   1.076  2.3877  1.1249  0.2472
  396SOL     OW 1186   2.220   0.687   2.765 -0.2430  0.0600  0.2513
  396SOL    HW1 1187   2.158   0.692   2.848 -2.2938 -0.2483  2.8184
  396SOL    HW2 1188   2.164   0.707   2.685  2.0422 -0.2787  1.2671
  397SOL     OW 1189   3.037   0.479   2.618  0.1919  0.2486 -0.6794
  397SOL    HW1 1190   3.069   0.386   2.623  1.4178  3.5976  0.0185
  397SOL    HW2 1191   3.034   0.529   2.531 -1.0981 -2.5625  3.1481
  398SOL     OW 1192   1.615   2.946   0.193 -0.1850 -0.1446  0.2019
  398SOL    HW1 1193   1.671   3.027   0.203 -3.2067 -1.2705  0.6093
  398SOL    HW2 1194   1.547   2.955   0.120  1.4387 -1.4244  1.4707
  399SOL     OW 1195   2.111   2.212   1.936 -0.5782  0.4191  0.1113
  399SOL    HW1 1196   2.178   2.240   2.007  3.0639 -0.2741  2.2766
  399SOL    HW2 1197   2.039   2.280   1.934 -1.2447 -1.0994  0.9963
  400SOL     OW 1198   2.962   1.827   2.193 -0.5902 -0.0988 -0.0418
  400SOL    HW1 1199   2.988   1.794   2.100 -3.2932 -1.6934  0.9646
  400SOL    HW2 1200   2.860   1.817   2.205 -1.6480 -3.2829  1.5826
  401SOL     OW 1201   0.425   0.817   0.596 -0.2310 -0.0079  0.2654
  401SOL    HW1 1202   0.494   0.739   0.609  0.8692 -2.6362 -0.2379
  401SOL    HW2 1203   0.424   0.880   0.680 -0.0013  1.7203  2.2422
  402SOL     OW 1204   0.710   2.922   2.220 -0.0152 -0.2087 -0.2845
  402SOL    HW1 1205   0.734   2.887   2.308 -0.9847  4.3254 -2.0562
  402SOL    HW2 1206   0.782   2.895   2.152 -2.4978 -0.0954  1.8287
  403SOL     OW 1207   2.922   1.559   2.068  0.7307  0.2372  0.4411
  403SOL    HW1 1208   2.980   1.483   2.031  0.1423  1.2859 -0.5209
  403SOL    HW2 1209   2.958   1.586   2.159  4.2163  0.4455 -3.8550
  404SOL     OW 1210   2.880   2.094   2.478 -0.2410 -0.3606 -0.4339
  404SOL    HW1 1211   2.854   2.097   2.576  0.0534  0.2089 -0.1534
  404SOL    HW2 1212   2.908   2.190   2.454 -0.5836 -1.0322 -1.4756
  405SOL     OW 1213   1.957   0.062   2.634 -0.1449  0.1111 -0.1433
  405SOL    HW1 1214   2.043   0.045   2.692  3.8027 -0.2529  1.3816
  405SOL    HW2 1215   1.869   0.054   2.687  1.8722 -0.7824 -0.0871
  406SOL     OW 1216   1.329   1.915   0.420  0.0827 -0.0058 -0.7370
  406SOL    HW1 1217   1.281   1.969   0.342 -0.1746  2.1098 -1.9401
  406SOL    HW2 1218   1.267   1.852   0.469 -0.1184  0.3180 -1.1263
  407SOL     OW 1219   1.680   1.299   0.172  0.0924 -0.3497 -0.4597
  407SOL    HW1 1220   1.669   1.200   0.148  2.1764 -2.2473 -0.5679
  407SOL    HW2 1221   1.608   1.326   0.237 -1.4004 -0.8180  0.0479
  408SOL     OW 1222   0.370   0.914   1.583  0.5414 -0.4081 -0.9651
  408SOL    HW1 1223   0.370   0.872   1.674 -0.8628 -1.3953  1.9954
  408SOL    HW2 1224   0.323   0.853   1.510  0.5603 -1.8909  0.0476
  409SOL     OW 1225   3.078   1.269   2.912  0.5403 -0.5126 -0.0776
  409SOL    HW1 1226   2.984   1.278   2.869  0.9336 -0.6619 -0.1908
  409SOL    HW2 1227   3.069   1.289   3.010  2.0839 -1.4676 -0.3726
  410SOL     OW 1228   2.291   1.738   0.691  0.2463 -0.1356 -0.0321
  410SOL    HW1 1229   2.380   1.693   0.721  1.4656 -1.3631  2.7659
  410SOL    HW2 1230   2.307   1.811   0.625 -3.0156  3.3214  1.7360
  411SOL     OW 1231   3.034   0.346   0.288 -0.1990  0.0357 -0.2072
  411SOL    HW1 1232   2.944   0.348   0.241  0.9826 -3.0231  1.1264
  411SOL    HW2 1233   3.049   0.261   0.341  1.3562 -1.8827 -0.1664
  412SOL     OW 1234   1.782   0.048   0.277 -0.4627  0.0977 -0.0807
  412SOL    HW1 1235   1.836   0.052   0.363 -0.7496  1.5312  1.3035
  412SOL    HW2 1236   1.814   0.132   0.221 -1.1539  3.1152 -0.6544
  413SOL     OW 1237   1.058   0.287   1.622 -0.5502 -0.8035  0.1646
  413SOL    HW1 1238   1.155   0.283   1.659  2.0096  0.9646 -0.3439
  413SOL    HW2 1239   1.039   0.205   1.565  1.0114  0.0910 -0.0623
  414SOL     OW 1240   0.405   1.215   0.277  0.0961  0.1068  0.1940
  414SOL    HW1 1241   0.307   1.237   0.299  0.2601 -0.3633 -1.1569
  414SOL    HW2 1242   0.421   1.117   0.308 -0.8860 -0.0765  1.8878
  415SOL     OW 1243   2.755   1.461   0.256  0.3439 -0.3289 -0.0806
  415SOL    HW1 1244   2.833   1.477   0.325 -0.1761  2.4275  2.5321
  415SOL    HW2 1245   2.751   1.365   0.227 -1.8869  1.4911 -0.4810
  416SOL     OW 1246   2.243   0.593   0.052 -0.0862 -0.1639  0.4861
  416SOL    HW1 1247   2.300   0.525   0.010 -1.1521  0.9955  1.4184
  416SOL    HW2 1248   2.272   0.693   0.034 -1.0079  1.5697 -0.8821
  417SOL     OW 1249   2.623   2.710   0.369  0.0679  0.0467  0.3826
  417SOL    HW1 1250   2.566   2.645   0.311 -2.6357 -1.9885 -2.0183
  417SOL    HW2 1251   2.715   2.712   0.332  1.6256 -1.0390  1.0710
  418SOL     OW 1252   2.987   0.295   3.054 -0.3757 -1.5290 -0.0923
  418SOL    HW1 1253   2.949   0.288   2.957  0.6711  0.8063 -1.1259
  418SOL    HW2 1254   3.008   0.393   3.077  0.1675  1.0504  1.3589
  419SOL     OW 1255   0.821   1.049   0.876 -0.0963  0.5381  0.1337
  419SOL    HW1 1256   0.878   1.132   0.901 -3.5715  2.1120 -0.0048
  419SOL    HW2 1257   0.769   1.023   0.957  4.7691 -2.1395 -1.6691
  420SOL     OW 1258   0.466   0.927   0.846  0.1135 -0.3089 -0.3340
  420SOL    HW1 1259   0.369   0.948   0.876 -0.3206 -0.4234  1.1081
  420SOL    HW2 1260   0.532   0.934   0.922  1.2347 -3.4027 -0.0926
  421SOL     OW 1261   0.478   2.087   0.307 -0.6016 -0.5438 -0.5537
  421SOL    HW1 1262   0.495   2.006   0.248  1.4597 -2.5494 -1.9621
  421SOL    HW2 1263   0.516   2.171   0.266 -1.4798 -4.4181  1.2104
  422SOL     OW 1264   2.830   0.523   1.743  0.6189  0.1592 -0.4836
  422SOL    HW1 1265   2.868   0.486   1.827 -1.1297  0.5723 -1.8429
  422SOL    HW2 1266   2.777   0.453   1.696 -1.1113  0.9641 -1.7703
  423SOL     OW 1267   1.996   1.910   0.013 -0.0317 -0.8709  0.6126
  423SOL    HW1 1268   1.930   1.916   3.024 -4.6880  2.3812 -1.3848
  423SOL    HW2 1269   2.040   2.000   0.032 -0.1202 -2.7912  2.8728
  424SOL     OW 1270   1.757   1.408   2.646 -0.4443 -0.5697 -0.8880
  424SOL    HW1 1271   1.738   1.341   2.571  3.2844  0.6127  4.0237
  424SOL    HW2 1272   1.848   1.393   2.697  3.1258 -1.0624  0.9863
  425SOL     OW 1273   0.028   2.889   2.210 -0.3200  0.6927  0.4444
  425SOL    HW1 1274   0.026   2.845   2.302  0.0586 -1.9922  3.7311
  425SOL    HW2 1275   0.039   2.821   2.136 -2.5715 -0.0571 -0.2563
  426SOL     OW 1276   2.048   2.637   0.404  0.5913 -0.4019 -0.3367
  426SOL    HW1 1277   1.991   2.588   0.332 -0.4944 -1.8946  1.9755
  426SOL    HW2 1278   2.134   2.588   0.421 -0.9494  0.0707 -0.4285
  427SOL     OW 1279   0.299   1.416   2.560  0.4792  0.3683  0.1545
  427SOL    HW1 1280   0.321   1.508   2.516  3.7219 -1.4560 -1.9175
  427SOL    HW2 1281   0.203   1.413   2.594  0.7279  0.2604 -2.1790
  428SOL     OW 1282   2.513   1.211   2.688  0.3704  0.3438  0.3670
  428SOL    HW1 1283   2.515   1.119   2.654 -2.1312  0.9955 -2.0404
  428SOL    HW2 1284   2.461   1.223   2.776 -0.4540 -0.5442  0.9475
  429SOL     OW 1285   2.361   2.895   0.683 -0.0290  0.1275 -0.3393
  429SOL    HW1 1286   2.465   2.878   0.698  2.2091  0.6840  0.6130
  429SOL    HW2 1287   2.338   2.878   0.587  1.9846  1.3050  2.8139
  430SOL     OW 1288   1.575   1.936   2.301  0.3734 -0.1518 -0.1318
  430SOL    HW1 1289   1.511   1.858   2.305 -0.4739  0.4886 -1.1036
  430SOL    HW2 1290   1.594   1.984   2.393  1.1900 -1.7535  2.6568
  431SOL     OW 1291   3.061   2.157   1.825 -0.3456  0.4013  0.3898
  431SOL    HW1 1292   2.981   2.129   1.883 -0.6252  0.5958  3.3023
  431SOL    HW2 1293   3.072   2.097   1.736  3.3896  1.5226  1.4904
  432SOL     OW 1294   1.307   2.161   2.460  0.1343  0.0145  0.4542
  432SOL    HW1 1295   1.224   2.120   2.503 -0.2797 -2.5692  2.4370
  432SOL    HW2 1296   1.318   2.262   2.482  1.1760  2.1846 -1.5381
  433SOL     OW 1297   1.105   2.840   0.752  0.2152 -0.1718  0.8504
  433SOL    HW1 1298   1.088   2.744   0.706  1.1139 -4.7941 -0.0441
  433SOL    HW2 1299   1.148   2.904   0.685  1.2035  0.2678 -0.0588
  434SOL     OW 1300   0.232   1.928   2.439  0.6677 -0.4714  0.2161
  434SOL    HW1 1301   0.145   1.885   2.461 -1.3992  0.9070 -0.4410
  434SOL    HW2 1302   0.224   2.024   2.405  3.9470 -0.6744 -0.8565
  435SOL     OW 1303   0.164   1.566   0.599 -0.0226  0.6524  0.5177
  435SOL    HW1 1304   0.153   1.628   0.520  1.0030  1.0487 -2.5868
  435SOL    HW2 1305   0.084   1.576   0.662 -1.9247 -0.2887  2.2055
  436SOL     OW 1306   0.448   2.112   1.851  0.0130 -0.7436 -0.1130
  436SOL    HW1 1307   0.416   2.204   1.830  1.7701  2.5627 -2.7096
  436SOL    HW2 1308   0.552   2.106   1.855 -0.6000 -1.5170  0.0177
  437SOL     OW 1309   0.983   0.654   0.489  0.1884  0.2157  0.4025
  437SOL    HW1 1310   0.884   0.668   0.480 -0.7562 -1.2301 -0.0111
  437SOL    HW2 1311   1.037   0.724   0.444  0.9503 -0.8616  0.0391
  438SOL     OW 1312   0.339   2.189   0.907 -0.5565  0.2912  0.4513
  438SOL    HW1 1313   0.350   2.148   1.002 -0.2947 -0.0887  2.3297
  438SOL    HW2 1314   0.429   2.215   0.869  1.4209  1.0352 -3.5087
  439SOL     OW 1315   1.028   2.687   1.846 -0.0865  0.2541 -0.2007
  439SOL    HW1 1316   0.974   2.654   1.927 -2.3732  0.2665  0.1983
  439SOL    HW2 1317   0.973   2.740   1.778  1.9687  2.2816 -0.3363
  440SOL     OW 1318   1.712   0.128   1.675  0.6632  0.1490 -0.0762
  440SOL    HW1 1319   1.725   0.175   1.762 -1.0006  2.0539 -0.0802
  440SOL    HW2 1320   1.680   0.197   1.605  1.9142  0.5859  1.5166
  441SOL     OW 1321   0.330   0.219   1.672  0.0943 -0.0395 -0.8631
  441SOL    HW1 1322   0.305   0.127   1.710  5.0163  1.7452 -1.1727
  441SOL    HW2 1323   0.358   0.216   1.572  1.7854  1.1651 -0.6459
  442SOL     OW 1324   2.004   1.828   0.267 -0.4262 -0.0165 -0.3954
  442SOL    HW1 1325   2.007   1.725   0.292 -1.0759 -1.6102  0.5679
  442SOL    HW2 1326   2.011   1.843   0.165  1.1850 -0.3765  1.1298
  443SOL     OW 1327   2.648   0.369   2.189 -0.1166 -0.2309  0.0932
  443SOL    HW1 1328   2.630   0.283   2.137 -2.6218 -1.5445  0.4100
  443SOL    HW2 1329   2.663   0.352   2.288 -0.6520 -1.2932 -0.1706
  444SOL     OW 1330   2.131   1.122   1.871  0.1298  0.0157 -1.0203
  444SOL    HW1 1331   2.232   1.113   1.871  0.2046  0.6106  1.7934
  444SOL    HW2 1332   2.103   1.215   1.901 -1.6574  3.2127  0.5494
  445SOL     OW 1333   2.693   2.262   1.580 -0.1351 -0.4062  0.3401
  445SOL    HW1 1334   2.698   2.175   1.632  0.0074 -0.1972 -2.4113
  445SOL    HW2 1335   2.674   2.342   1.643 -1.3701  0.8184 -0.9051
  446SOL     OW 1336   2.973   1.344   0.741  0.3025 -0.9136  0.0131
  446SOL    HW1 1337   3.050   1.338   0.805  0.6689  0.5300 -1.5649
  446SOL    HW2 1338   2.947   1.253   0.702 -3.0764  1.6669 -1.1387
  447SOL     OW 1339   1.172   1.788   0.630  0.3609  0.2559 -0.5059
  447SOL    HW1 1340   1.244   1.809   0.702  3.8719 -1.4966  2.5416
  447SOL    HW2 1341   1.102   1.858   0.629  0.8270 -0.3729 -0.5062
  448SOL     OW 1342   1.295   1.223   1.834 -0.5501  0.1187 -0.6757
  448SOL    HW1 1343   1.356   1.192   1.758  1.3699  0.8659  1.2525
  448SOL    HW2 1344   1.209   1.168   1.827 -1.0711 -1.7334  0.4165
  449SOL     OW 1345   0.538   1.440   0.216  0.2925  0.2565 -0.3334
  449SOL    HW1 1346   0.467   1.514   0.232  2.8310  2.5091 -2.1964
  449SOL    HW2 1347   0.495   1.355   0.259  0.2963 -0.0238 -2.3741
  450SOL     OW 1348   2.374   2.207   1.826  0.0837  0.2061 -0.1417
  450SOL    HW1 1349   2.388   2.214   1.724 -0.0591 -0.2341 -1.0452
  450SOL    HW2 1350   2.276   2.213   1.846  2.7170  2.5141 -0.2216
  451SOL     OW 1351   1.779   0.091   2.343  0.5115 -0.2031 -0.0846
  451SOL    HW1 1352   1.872   0.062   2.333 -2.9339  0.6999 -0.7246
  451SOL    HW2 1353   1.762   0.191   2.337  0.7350 -0.6584  2.5564
  452SOL     OW 1354   1.036   0.058   1.443 -0.4157 -0.0584 -0.0538
  452SOL    HW1 1355   1.045   3.070   1.386 -3.0738 -1.2541  2.4311
  452SOL    HW2 1356   0.943   0.097   1.430  1.5925  1.2236  1.5878
  453SOL     OW 1357   1.120   1.575   0.875  0.3208  0.0352 -0.7734
  453SOL    HW1 1358   1.168   1.628   0.799  1.3216  0.1929 -3.3025
  453SOL    HW2 1359   1.022   1.563   0.852  1.0025 -0.8965 -0.4717
  454SOL     OW 1360   0.426   1.214   0.798 -0.0148 -0.3653 -0.4170
  454SOL    HW1 1361   0.477   1.252   0.879 -1.8028  3.8401 -1.6651
  454SOL    HW2 1362   0.420   1.291   0.732 -1.4058  0.9127 -3.3633
  455SOL     OW 1363   2.920   2.937   0.003  0.3753  0.4282 -0.0532
  455SOL    HW1 1364   2.954   3.016   0.061 -0.6498  1.0757 -1.1745
  455SOL    HW2 1365   2.994   2.898   3.046 -2.5637  2.1539  2.7257
  456SOL     OW 1366   2.462   2.216   0.818  0.2426  0.4104 -0.3851
  456SOL    HW1 1367   2.421   2.259   0.903  2.7911  0.9063 -1.6845
  456SOL    HW2 1368   2.543   2.160   0.837  1.2486  2.6274 -0.8205
  457SOL     OW 1369   1.520   0.187   0.209 -0.6617  0.9707 -0.7214
  457SOL    HW1 1370   1.618   0.158   0.201  1.4080 -1.5570  0.7647
  457SOL    HW2 1371   1.460   0.118   0.256  0.4080 -1.9213  1.8483
  458SOL     OW 1372   2.546   3.014   0.439  0.1533  0.1490  0.2376
  458SOL    HW1 1373   2.626   2.962   0.409 -0.5703  0.5272  1.8350
  458SOL    HW2 1374   2.460   2.963   0.411 -3.0518 -2.1781 -0.3325
  459SOL     OW 1375   2.015   0.319   2.633  0.0254  0.2938  0.1274
  459SOL    HW1 1376   1.999   0.366   2.720  2.5401  0.0561 -1.2200
  459SOL    HW2 1377   1.976   0.223   2.628  0.6093  4.8995 -0.9973
  460SOL     OW 1378   2.643   0.058   0.020 -0.4168  0.5052 -0.1858
  460SOL    HW1 1379   2.696   3.062   0.040  0.0529 -2.0192  1.1555
  460SOL    HW2 1380   2.591   0.086   0.100  1.7492  0.7253 -2.3218
  461SOL     OW 1381   0.878   1.593   1.241 -0.3416  0.4952  0.4026
  461SOL    HW1 1382   0.917   1.576   1.335 -0.9691 -0.5179 -0.4521
  461SOL    HW2 1383   0.893   1.692   1.218 -1.0196 -2.2110  0.0860
  462SOL     OW 1384   2.558   2.945   1.633 -0.0809 -0.2114 -0.0001
  462SOL    HW1 1385   2.637   2.989   1.658 -4.4087  1.8543 -2.2927
  462SOL    HW2 1386   2.570   2.846   1.623 -0.6986  2.5608 -0.3961
  463SOL     OW 1387   2.725   0.963   2.891 -0.0932  0.5949 -0.1420
  463SOL    HW1 1388   2.729   1.059   2.918 -2.9718 -2.1939 -1.3651
  463SOL    HW2 1389   2.631   0.931   2.876  0.9852  1.1009  0.3705
  464SOL     OW 1390   0.175   2.520   1.332  0.1353  0.2528 -0.0492
  464SOL    HW1 1391   0.242   2.577   1.277  1.7537 -1.2718 -0.6762
  464SOL    HW2 1392   0.085   2.507   1.282 -2.1290  1.9212 -0.6992
  465SOL     OW 1393   0.402   1.457   0.639 -0.2443 -0.2123  0.0797
  465SOL    HW1 1394   0.464   1.506   0.571  0.2270  1.3584 -3.4282
  465SOL    HW2 1395   0.308   1.493   0.633  0.9092 -1.2790  0.9342
  466SOL     OW 1396   1.050   0.288   2.213  0.5864  0.3297  0.2814
  466SOL    HW1 1397   1.131   0.283   2.275  1.1778 -0.5822  0.5382
  466SOL    HW2 1398   1.079   0.264   2.119 -0.1551 -0.2018  1.6810
  467SOL     OW 1399   0.943   0.768   2.236 -0.2786  0.0339 -0.2588
  467SOL    HW1 1400   0.906   0.856   2.209  0.7788 -0.5778  0.6791
  467SOL    HW2 1401   1.029   0.779   2.288  0.6218 -0.7306  0.6697
  468SOL     OW 1402   0.190   1.140   2.505  0.3890  0.5078  0.1646
  468SOL    HW1 1403   0.242   1.227   2.513  1.2873  0.6866 -0.8829
  468SOL    HW2 1404   0.105   1.143   2.559  2.4600 -0.5470 -1.5320
  469SOL     OW 1405   0.295   2.203   0.459  0.0151  0.1601  0.0005
  469SOL    HW1 1406   0.361   2.162   0.395  0.0470 -0.0063 -0.1533
  469SOL    HW2 1407   0.207   2.167   0.432  3.3402  0.2354  0.2078
  470SOL     OW 1408   2.604   1.573   2.424 -0.4955  0.1404 -0.0130
  470SOL    HW1 1409   2.523   1.623   2.461 -0.3208 -2.1816 -1.3613
  470SOL    HW2 1410   2.675   1.629   2.385 -1.9160  0.1600  1.6178
  471SOL     OW 1411   1.643   0.586   2.206  0.0499 -0.0635  0.1311
  471SOL    HW1 1412   1.557   0.578   2.154 -0.0950  2.2104  0.3611
  471SOL    HW2 1413   1.708   0.519   2.170  1.5864  0.3399  1.0848
  472SOL     OW 1414   0.680   2.578   1.092  0.0983  0.0088 -0.2059
  472SOL    HW1 1415   0.751   2.519   1.139 -0.6705 -0.9819  0.1289
  472SOL    HW2 1416   0.587   2.532   1.097 -1.6339 -1.4484  2.6799
  473SOL     OW 1417   0.882   0.173   2.406 -0.5590 -0.2634 -0.0930
  473SOL    HW1 1418   0.882   0.071   2.415 -2.9967  1.5027 -2.1037
  473SOL    HW2 1419   0.925   0.198   2.315 -2.0323  0.5233 -1.5577
  474SOL     OW 1420   1.834   3.002   1.574 -0.7541  0.4850 -0.1181
  474SOL    HW1 1421   1.792   3.090   1.604 -0.2477  1.4207 -0.2839
  474SOL    HW2 1422   1.768   2.937   1.533 -1.1732 -0.8513 -0.2546
  475SOL     OW 1423   1.840   0.397   0.924  0.0070  0.0926 -0.3208
  475SOL    HW1 1424   1.915   0.390   0.859 -0.2004  0.5069  0.1671
  475SOL    HW2 1425   1.857   0.328   0.995  2.6409  1.0471 -2.6273
  476SOL     OW 1426   0.653   0.942   1.069  0.1370  0.3430  0.1521
  476SOL    HW1 1427   0.584   1.011   1.107 -0.0386  1.8400 -0.3959
  476SOL    HW2 1428   0.690   0.879   1.143  0.8821 -4.0484  3.8250
  477SOL     OW 1429   1.305   2.517   0.542 -0.2405  0.0233  0.1679
  477SOL    HW1 1430   1.384   2.554   0.600 -1.2386 -2.0924  0.5531
  477SOL    HW2 1431   1.333   2.429   0.503  0.8961 -0.8196  2.2689
  478SOL     OW 1432   0.153   2.169   2.369  0.1528  0.2118 -0.2448
  478SOL    HW1 1433   0.225   2.173   2.294  2.5898  0.8056 -0.6368
  478SOL    HW2 1434   0.159   2.257   2.416  0.3388 -2.5415 -0.8701
  479SOL     OW 1435   2.975   0.291   1.026 -0.3235  0.5071 -0.0625
  479SOL    HW1 1436   2.934   0.384   1.036  3.3070  1.0582  0.9861
  479SOL    HW2 1437   3.070   0.293   1.058 -0.3440  2.0860  0.1100
  480SOL     OW 1438   0.463   2.599   0.394 -0.2747  0.6619  0.1441
  480SOL    HW1 1439   0.514   2.633   0.315 -0.8388  1.5882 -0.2548
  480SOL    HW2 1440   0.373   2.644   0.397 -1.6047  2.8142 -2.0303
  481SOL     OW 1441   2.251   2.058   1.210  0.0872 -0.4405 -0.7440
  481SOL    HW1 1442   2.339   2.005   1.189  0.5912  4.3722  0.5426
  481SOL    HW2 1443   2.186   2.005   1.267  0.6770  2.0576  2.3099
  482SOL     OW 1444   1.244   2.391   2.816  0.1851 -0.1197 -0.3363
  482SOL    HW1 1445   1.285   2.376   2.725 -0.9843  0.1720 -0.6383
  482SOL    HW2 1446   1.240   2.300   2.863 -0.3005  1.0222 -1.7405
  483SOL     OW 1447   0.539   2.367   2.082 -0.1787  0.2475 -0.3590
  483SOL    HW1 1448   0.541   2.459   2.033  1.2729  1.6260  0.1188
  483SOL    HW2 1449   0.623   2.315   2.061 -0.3553  2.1372 -0.0888
  484SOL     OW 1450   1.080   0.555   1.528  0.0983  0.2475 -0.0630
  484SOL    HW1 1451   1.093   0.607   1.610 -0.1070 -3.1024 -1.8672
  484SOL    HW2 1452   1.075   0.456   1.555 -0.8191 -0.2598  1.0148
  485SOL     OW 1453   1.837   0.676   2.668 -0.1598  0.2755  0.1520
  485SOL    HW1 1454   1.913   0.718   2.614 -1.1167  1.2608  2.3362
  485SOL    HW2 1455   1.800   0.596   2.617 -2.2123  1.0871 -0.7583
  486SOL     OW 1456   2.436   2.768   0.971  0.1270  0.3739 -0.1734
  486SOL    HW1 1457   2.463   2.673   1.005 -0.7450 -2.1458  0.5266
  486SOL    HW2 1458   2.501   2.804   0.905 -0.4792  2.9522 -3.5325
  487SOL     OW 1459   0.859   2.319   1.796  0.1644 -0.3001 -0.4925
  487SOL    HW1 1460   0.896   2.406   1.757  1.0184  1.7778  0.5352
  487SOL    HW2 1461   0.778   2.282   1.757  3.9725  0.0044 -1.0053
  488SOL     OW 1462   2.416   1.588   3.030 -0.5632 -0.4025  0.2157
  488SOL    HW1 1463   2.387   1.570   2.935 -0.6405  0.9294 -2.4707
  488SOL    HW2 1464   2.469   1.506   3.065  0.8540  0.4667  2.0210
  489SOL     OW 1465   1.894   0.051   1.325  0.0173  0.0113 -0.1824
  489SOL    HW1 1466   1.962   3.077   1.280 -0.8113 -1.7295 -0.6691
  489SOL    HW2 1467   1.822   3.089   1.371 -0.5273  0.2120  0.3139
  490SOL     OW 1468   0.930   1.484   0.213 -0.5522  0.0980 -0.2759
  490SOL    HW1 1469   0.999   1.551   0.181  0.3917 -1.2725  0.4826
  490SOL    HW2 1470   0.844   1.493   0.158  1.3054 -4.1839 -1.3790
  491SOL     OW 1471   0.350   2.024   1.386  0.3604 -0.4556 -0.1620
  491SOL    HW1 1472   0.285   2.093   1.425  1.1486 -2.4562  0.7382
  491SOL    HW2 1473   0.395   1.978   1.470  1.6605  2.6348  3.0968
  492SOL     OW 1474   1.004   1.800   1.891  0.3016  0.3176 -0.0160
  492SOL    HW1 1475   1.078   1.800   1.821 -1.3209  1.1113 -1.7152
  492SOL    HW2 1476   1.004   1.888   1.941  3.5033 -1.3819 -1.4858
  493SOL     OW 1477   2.796   2.209   0.943  0.3073 -0.8730 -0.4274
  493SOL    HW1 1478   2.749   2.120   0.933  0.1434  0.8996  0.2990
  493SOL    HW2 1479   2.881   2.213   0.886 -2.7963 -0.8670  0.9248
  494SOL     OW 1480   2.799   2.091   0.648  0.2867 -0.2738  0.2255
  494SOL    HW1 1481   2.729   2.164   0.652 -0.3678 -0.1203  1.9681
  494SOL    HW2 1482   2.765   2.000   0.629  1.1358 -1.0221 -1.5000
  495SOL     OW 1483   2.707   2.905   0.176  0.3393 -0.0385 -0.9653
  495SOL    HW1 1484   2.768   2.860   0.108 -1.1228 -0.2759  0.1247
  495SOL    HW2 1485   2.749   2.934   0.264  0.8324 -0.4821  0.3951
  496SOL     OW 1486   2.441   0.035   1.245  0.2357  0.1638 -0.0508
  496SOL    HW1 1487   2.415   0.065   1.153  1.4042 -0.6678  1.5752
  496SOL    HW2 1488   2.493   0.104   1.292 -1.8846 -1.4686 -2.0245
  497SOL     OW 1489   2.774   0.886   2.639  0.7477  0.2988  0.2812
  497SOL    HW1 1490   2.804   0.954   2.572 -1.1050 -1.2141  1.2272
  497SOL    HW2 1491   2.777   0.921   2.735  1.0071  1.5762  0.4664
  498SOL     OW 1492   3.016   1.720   1.656  0.4502 -0.1588  0.0995
  498SOL    HW1 1493   3.083   1.684   1.727  1.2732  0.2866 -0.0516
  498SOL    HW2 1494   3.067   1.721   1.564  2.0346  1.5743 -3.1949
  499SOL     OW 1495   0.898   2.407   2.698 -0.0375  0.5557  0.2368
  499SOL    HW1 1496   0.900   2.333   2.765 -0.0344  0.2818 -2.5962
  499SOL    HW2 1497   0.911   2.360   2.609 -0.7103 -0.4697 -0.2112
  500SOL     OW 1498   1.596   0.702   0.197  0.6456  0.4900  0.4119
  500SOL    HW1 1499   1.679   0.762   0.202  0.1491  0.3016  1.8872
  500SOL    HW2 1500   1.585   0.653   0.285 -3.5513  0.4894  2.1521
  501SOL     OW 1501   1.310   0.323   1.737 -0.1378 -0.0482 -0.2821
  501SOL    HW1 1502   1.364   0.399   1.693  2.3475 -0.5123 -1.0560
  501SOL    HW2 1503   1.363   0.244   1.722  0.2624 -1.5303  0.0773
  502SOL     OW 1504   2.197   0.584   1.645 -0.0299  0.0297  0.5018
  502SOL    HW1 1505   2.230   0.679   1.632 -1.1002 -2.1336  0.4180
  502SOL    HW2 1506   2.128   0.558   1.573 -0.9611  1.9597  1.5486
  503SOL     OW 1507   2.229   1.728   2.036 -0.7284 -0.0106 -0.0926
  503SOL    HW1 1508   2.224   1.811   1.976 -0.9333  0.3669  0.3108
  503SOL    HW2 1509   2.138   1.676   2.038  0.3403 -2.6333 -0.9175
  504SOL     OW 1510   1.466   1.108   1.657  0.2943 -0.2571 -1.2968
  504SOL    HW1 1511   1.506   1.046   1.725  0.4555  0.2303 -2.2483
  504SOL    HW2 1512   1.533   1.124   1.581 -3.2128  1.5155  1.3581
  505SOL     OW 1513   0.552   0.617   1.652  0.3712 -0.1067  0.5037
  505SOL    HW1 1514   0.485   0.558   1.701 -1.3793 -2.5274 -1.4728
  505SOL    HW2 1515   0.618   0.664   1.715 -1.3167 -0.2447 -0.8994
  506SOL     OW 1516   0.371   0.371   2.757  0.2426 -0.2172  0.2131
  506SOL    HW1 1517   0.298   0.436   2.782  4.1808 -0.5289  2.8798
  506SOL    HW2 1518   0.460   0.395   2.797 -0.4947  0.5070 -1.1712
  507SOL     OW 1519   0.281   0.053   0.311  0.0799  0.0283 -0.0349
  507SOL    HW1 1520   0.281   0.058   0.411 -0.9613  0.8985 -1.3150
  507SOL    HW2 1521   0.246   0.142   0.272  0.7064 -0.0453 -1.3019
  508SOL     OW 1522   0.764   0.765   1.774  0.6534 -0.3641 -0.0082
  508SOL    HW1 1523   0.718   0.852   1.804 -0.8665 -0.2495  1.6238
  508SOL    HW2 1524   0.856   0.751   1.820 -1.9163 -1.8324 -0.1831
  509SOL     OW 1525   1.354   2.514   1.044  0.4154  0.2130  0.0617
  509SOL    HW1 1526   1.450   2.487   1.049 -2.2664  2.2770  1.4030
  509SOL    HW2 1527   1.308   2.425   1.029  2.0420 -0.0298 -0.6610
  510SOL     OW 1528   2.739   1.398   1.788  0.1458  0.3278  0.1456
  510SOL    HW1 1529   2.812   1.404   1.714 -0.7990 -1.2149  0.0909
  510SOL    HW2 1530   2.715   1.487   1.825  0.9510  1.0779 -1.5229
  511SOL     OW 1531   1.114   2.218   1.561 -0.5505  0.1953 -0.5358
  511SOL    HW1 1532   1.182   2.276   1.506  0.3772 -0.3035  0.2386
  511SOL    HW2 1533   1.133   2.226   1.660 -0.4281 -0.2794 -1.1723
  512SOL     OW 1534   2.770   1.600   0.759 -0.2714 -1.0067 -0.0975
  512SOL    HW1 1535   2.789   1.568   0.854 -0.5992  2.6111 -0.5575
  512SOL    HW2 1536   2.859   1.636   0.722 -0.8799 -0.3379 -1.0403
  513SOL     OW 1537   0.008   1.691   2.849  0.3466  0.2448 -0.5030
  513SOL    HW1 1538   0.001   1.782   2.884 -1.0444  0.2910  1.8241
  513SOL    HW2 1539   0.089   1.642   2.893  0.0558  0.7286 -2.0856
  514SOL     OW 1540   2.485   2.104   2.581  0.1499 -0.3395  0.5220
  514SOL    HW1 1541   2.387   2.094   2.555  0.5890  0.5014 -0.1344
  514SOL    HW2 1542   2.526   2.192   2.548  1.9897 -1.8313 -0.6664
  515SOL     OW 1543   2.405   0.952   0.601 -0.1865  0.8267 -0.5264
  515SOL    HW1 1544   2.339   0.876   0.619  1.2006 -1.6876  0.6666
  515SOL    HW2 1545   2.488   0.937   0.660  1.7295  3.7559 -0.3337
  516SOL     OW 1546   2.709   1.908   0.057  0.3983 -0.4582 -0.4018
  516SOL    HW1 1547   2.606   1.906   0.044  0.8324 -0.0567  2.0546
  516SOL    HW2 1548   2.760   1.819   0.065 -0.4245  0.9452 -0.4623
  517SOL     OW 1549   0.620   1.298   2.896  0.2145 -0.3570  0.4487
  517SOL    HW1 1550   0.707   1.311   2.940 -3.7482 -1.4537  0.4266
  517SOL    HW2 1551   0.543   1.290   2.966  0.9834 -1.0363  3.8813
  518SOL     OW 1552   2.669   0.090   2.312 -0.6141  0.1704  0.0304
  518SOL    HW1 1553   2.754   0.138   2.342  1.9554  2.3053  0.9972
  518SOL    HW2 1554   2.685   3.081   2.318 -2.6376 -2.4612  0.2871
  519SOL     OW 1555   1.535   1.297   2.838  0.1880  0.1870  0.7648
  519SOL    HW1 1556   1.482   1.238   2.896 -0.2265  0.3086 -0.3278
  519SOL    HW2 1557   1.561   1.379   2.896 -1.1076  1.8451  0.9190
  520SOL     OW 1558   2.686   2.748   2.162  0.4091 -0.1758  0.4420
  520SOL    HW1 1559   2.682   2.770   2.059 -0.3253 -2.1705 -1.5299
  520SOL    HW2 1560   2.692   2.648   2.184  2.2564 -1.3775  2.1172
  521SOL     OW 1561   0.325   1.645   2.443 -0.2056 -0.0335  0.1880
  521SOL    HW1 1562   0.352   1.739   2.473  3.4025 -0.5506  1.7713
  521SOL    HW2 1563   0.264   1.642   2.360  1.8336  2.3769 -0.5586
  522SOL     OW 1564   1.268   2.710   2.000 -0.5341 -0.3052 -0.4382
  522SOL    HW1 1565   1.327   2.625   1.989  1.8856 -3.7512  1.6879
  522SOL    HW2 1566   1.225   2.742   1.915 -0.1054 -0.3310  3.8622
  523SOL     OW 1567   2.587   2.207   1.237  0.0457  0.6282  0.5922
  523SOL    HW1 1568   2.531   2.272   1.290 -2.4046  1.5211 -1.7972
  523SOL    HW2 1569   2.685   2.221   1.261 -0.0209  2.7958  1.7114
  524SOL     OW 1570   1.859   2.078   0.639 -0.2107 -0.0673 -0.0950
  524SOL    HW1 1571   1.908   1.991   0.660 -0.4460  0.0366 -1.4822
  524SOL    HW2 1572   1.771   2.063   0.584 -0.1215  1.3539  0.6179
  525SOL     OW 1573   2.917   0.478   0.684 -0.2238 -0.0984 -0.4461
  525SOL    HW1 1574   2.897   0.559   0.746 -0.9302  2.2844  3.0291
  525SOL    HW2 1575   2.855   0.401   0.711  0.6470  1.1724  2.7672
  526SOL     OW 1576   1.584   2.856   0.882 -0.2444 -0.5298  0.1655
  526SOL    HW1 1577   1.599   2.888   0.787  1.2624  0.3439 -2.8239
  526SOL    HW2 1578   1.500   2.901   0.920  1.9851  2.7525  0.3401
  527SOL     OW 1579   2.187   1.733   0.930 -0.3673  0.0686  0.0576
  527SOL    HW1 1580   2.234   1.740   0.838  2.0159  1.9727 -0.5951
  527SOL    HW2 1581   2.199   1.643   0.975  0.5203 -0.6200 -0.8308
  528SOL     OW 1582   2.169   0.031   2.792 -0.6280 -0.1775  0.1940
  528SOL    HW1 1583   2.139   3.032   2.820 -1.1376  0.5348  0.6547
  528SOL    HW2 1584   2.205   0.084   2.872 -0.8599 -2.7411 -1.0295
  529SOL     OW 1585   1.127   1.299   2.596 -0.2422 -0.2438 -0.2604
  529SOL    HW1 1586   1.209   1.354   2.623  1.9649 -1.3730 -1.0015
  529SOL    HW2 1587   1.055   1.293   2.665 -1.2075  3.0501 -1.7190
  530SOL     OW 1588   2.148   0.915   2.282  0.0580  0.0873  0.0697
  530SOL    HW1 1589   2.232   0.860   2.267  0.3318  0.6389  1.2277
  530SOL    HW2 1590   2.107   0.945   2.193 -0.9161  0.6260 -1.2176
  531SOL     OW 1591   0.093   0.851   3.079  0.1557 -0.3267 -0.9938
  531SOL    HW1 1592   0.138   0.760   3.076  0.8144 -0.5568  0.2402
  531SOL    HW2 1593   0.018   0.864   3.011  0.6054  2.8065  0.2932
  532SOL     OW 1594   1.437   1.459   0.491  0.6268  0.2086 -0.0323
  532SOL    HW1 1595   1.445   1.393   0.571  0.7374  0.0331 -0.4841
  532SOL    HW2 1596   1.340   1.495   0.493 -0.3992 -1.5661 -0.5478
  533SOL     OW 1597   0.232   0.565   2.302 -0.3892  0.1634 -0.5740
  533SOL    HW1 1598   0.312   0.574   2.236  0.3429 -0.8791 -0.9652
  533SOL    HW2 1599   0.263   0.526   2.391  2.2216  1.4882 -0.1063
  534SOL     OW 1600   1.395   0.511   2.534  0.0213 -0.3191 -0.0143
  534SOL    HW1 1601   1.318   0.475   2.587 -0.1018  0.1925 -1.1315
  534SOL    HW2 1602   1.388   0.613   2.519  0.2843  2.2269 -1.2432
  535SOL     OW 1603   0.339   0.515   0.248 -0.6221  0.3847  0.2341
  535SOL    HW1 1604   0.243   0.543   0.262 -0.6302 -1.6052 -1.0047
  535SOL    HW2 1605   0.376   0.576   0.177 -0.4978 -0.4761  3.9590
  536SOL     OW 1606   0.456   0.577   3.056  0.3589  0.0288  0.3050
  536SOL    HW1 1607   0.485   0.668   3.083  0.4617 -0.8148  0.8978
  536SOL    HW2 1608   0.492   0.552   2.964  0.0499  0.3938 -1.7984
  537SOL     OW 1609   1.439   0.074   1.688 -0.4956  0.4947 -0.0725
  537SOL    HW1 1610   1.396   0.026   1.610 -0.2570  0.4048  0.1309
  537SOL    HW2 1611   1.540   0.044   1.697  2.0060 -2.5969 -1.4550
  538SOL     OW 1612   0.528   2.726   3.012 -0.5655  0.9826  0.2981
  538SOL    HW1 1613   0.488   2.819   2.985  0.0606  2.6389  0.6958
  538SOL    HW2 1614   0.471   2.653   2.960 -1.4080  0.2008 -1.6146
  539SOL     OW 1615   2.624   1.246   1.977  0.3198 -0.1923  0.1418
  539SOL    HW1 1616   2.665   1.293   1.895  0.2036  0.9971 -1.5581
  539SOL    HW2 1617   2.597   1.319   2.046  1.2170  0.7120 -3.3287
  540SOL     OW 1618   2.296   1.723   1.388 -0.0675  0.4114 -0.1617
  540SOL    HW1 1619   2.381   1.730   1.342 -0.5858  0.9113  5.4122
  540SOL    HW2 1620   2.323   1.698   1.483 -0.7175  1.0445  0.3020
  541SOL     OW 1621   0.565   2.330   1.632  0.7898 -0.0919 -0.5802
  541SOL    HW1 1622   0.561   2.371   1.540 -2.9738 -1.6469  0.3546
  541SOL    HW2 1623   0.473   2.316   1.671 -1.3786 -1.3145 -1.6517
  542SOL     OW 1624   2.480   0.863   1.920 -0.0866  0.3937 -0.5351
  542SOL    HW1 1625   2.562   0.818   1.888 -2.7203 -1.4868 -1.6233
  542SOL    HW2 1626   2.421   0.803   1.973  0.2412  3.0635 -0.8302
  543SOL     OW 1627   1.034   0.561   0.738 -0.2706 -0.6063  0.6851
  543SOL    HW1 1628   1.036   0.605   0.647 -0.9447  0.3438  0.4747
  543SOL    HW2 1629   1.009   0.619   0.814  1.9568 -0.2418 -1.3652
  544SOL     OW 1630   2.090   1.901   1.403  0.0783 -0.5446  0.4245
  544SOL    HW1 1631   2.001   1.875   1.367  3.7450 -0.4678 -0.4954
  544SOL    HW2 1632   2.152   1.820   1.395  1.6081  2.3474  0.7705
  545SOL     OW 1633   1.591   1.529   1.152 -0.4742 -0.3354  0.3513
  545SOL    HW1 1634   1.524   1.452   1.171 -2.0863 -2.9185  0.7698
  545SOL    HW2 1635   1.667   1.534   1.219 -1.2837  0.7976  0.5136
  546SOL     OW 1636   0.101   0.234   2.867  0.3356  0.4350 -0.3406
  546SOL    HW1 1637   0.020   0.246   2.929 -0.7244  0.0797  2.2352
  546SOL    HW2 1638   0.185   0.210   2.925  0.2857 -0.1043 -0.5907
  547SOL     OW 1639   2.344   0.443   2.775  0.1897  0.7299  0.0797
  547SOL    HW1 1640   2.301   0.348   2.768 -1.7881 -1.8035  0.4887
  547SOL    HW2 1641   2.275   0.516   2.761  1.1545 -2.6383 -0.8046
  548SOL     OW 1642   2.725   2.106   2.182  0.4702  0.1758 -0.0383
  548SOL    HW1 1643   2.657   2.160   2.240  2.1766  2.3302  0.6689
  548SOL    HW2 1644   2.811   2.093   2.229 -0.5962  0.7125  0.8633
  549SOL     OW 1645   2.224   3.047   0.828 -0.5772 -0.1348 -0.6376
  549SOL    HW1 1646   2.285   2.980   0.789  1.6261  1.6411  0.3151
  549SOL    HW2 1647   2.141   3.001   0.855  2.0167 -0.9773 -2.0051
  550SOL     OW 1648   2.526   1.056   0.114 -0.0439 -0.5140 -0.4734
  550SOL    HW1 1649   2.591   0.983   0.080 -1.1428 -0.9068  1.6459
  550SOL    HW2 1650   2.482   1.034   0.202  1.1314  0.4119 -0.4529
  551SOL     OW 1651   1.295   3.003   1.514 -0.1438  0.1528  0.1397
  551SOL    HW1 1652   1.324   2.974   1.420  0.4608 -1.0736 -0.0287
  551SOL    HW2 1653   1.201   3.050   1.517  1.0870 -0.2954  1.5200
  552SOL     OW 1654   2.805   2.720   3.015 -0.3143 -0.1598  0.0086
  552SOL    HW1 1655   2.857   2.804   3.046  0.5734  1.6071 -0.2965
  552SOL    HW2 1656   2.711   2.721   3.041  3.0440 -0.6607  0.0460
  553SOL     OW 1657   0.649   3.076   0.667 -0.4642 -0.1406 -0.1539
  553SOL    HW1 1658   0.681   0.013   0.763  2.6110  0.8757 -0.2251
  553SOL    HW2 1659   0.723   3.022   0.616  0.6468  1.4482 -0.1087
  554SOL     OW 1660   1.957   2.155   1.646  0.1563 -0.3747 -0.1151
  554SOL    HW1 1661   1.914   2.097   1.717 -2.4018  0.2741  2.5832
  554SOL    HW2 1662   1.913   2.135   1.557 -1.9431 -0.1500 -0.0180
  555SOL     OW 1663   1.569   2.353   1.797  0.2367  0.0103 -0.5059
  555SOL    HW1 1664   1.605   2.319   1.888 -0.7510  0.4761  2.7409
  555SOL    HW2 1665   1.545   2.281   1.728 -1.6168 -0.7232 -0.7290
  556SOL     OW 1666   1.699   1.621   0.607  0.0199 -0.5664 -0.4511
  556SOL    HW1 1667   1.713   1.701   0.671  1.0712 -0.0001  1.9990
  556SOL    HW2 1668   1.647   1.649   0.527 -2.3885  0.2261  2.8158
  557SOL     OW 1669   1.411   1.975   2.076 -0.1015 -0.1551  0.4178
  557SOL    HW1 1670   1.401   2.012   1.983  3.8708 -2.4701  1.2719
  557SOL    HW2 1671   1.509   1.966   2.103 -2.5875 -2.3720  0.3454
  558SOL     OW 1672   0.105   0.442   2.072  0.3953  0.1186 -0.4991
  558SOL    HW1 1673   0.127   0.343   2.087  2.2085  2.0258  0.8860
  558SOL    HW2 1674   0.153   0.492   2.151 -0.8225  0.1719  0.2528
  559SOL     OW 1675   2.261   2.875   2.171  0.0276 -0.3655  0.3368
  559SOL    HW1 1676   2.345   2.852   2.123 -0.3568 -0.4920 -0.0598
  559SOL    HW2 1677   2.284   2.956   2.232 -0.5002 -0.4001 -0.2837
  560SOL     OW 1678   0.420   2.985   2.928  0.0856  0.7186 -0.3492
  560SOL    HW1 1679   0.338   3.038   2.930  0.8133  1.5854 -1.8820
  560SOL    HW2 1680   0.425   2.941   2.837  1.5337  2.4812 -0.9610
  561SOL     OW 1681   1.350   1.065   0.366  0.3236  0.0160  0.2317
  561SOL    HW1 1682   1.330   1.048   0.270  0.5814 -0.0394  1.6730
  561SOL    HW2 1683   1.269   1.114   0.405 -0.4832  0.1280 -3.7940
  562SOL     OW 1684   0.774   1.090   2.453  0.4461  0.0988  0.0173
  562SOL    HW1 1685   0.700   1.120   2.519 -3.3363  0.4093  2.5586
  562SOL    HW2 1686   0.828   1.013   2.505  2.3515 -1.4482  3.1267
  563SOL     OW 1687   1.772   2.198   2.821 -0.0378 -0.0736  0.6870
  563SOL    HW1 1688   1.673   2.208   2.840 -1.7115 -0.2568 -0.2627
  563SOL    HW2 1689   1.804   2.256   2.744  0.9798  0.0867 -2.8739
  564SOL     OW 1690   0.011   1.917   0.575 -0.0602 -0.5140 -0.2682
  564SOL    HW1 1691   0.071   1.972   0.633 -0.5509 -1.3912 -1.0319
  564SOL    HW2 1692   3.064   1.983   0.509 -0.8321 -2.1174  2.1529
  565SOL     OW 1693   1.152   2.887   2.719 -0.0420 -0.8820  0.0794
  565SOL    HW1 1694   1.154   2.932   2.817  0.6869  0.4135  0.5419
  565SOL    HW2 1695   1.136   2.787   2.725  0.5043  1.3328 -4.5330
  566SOL     OW 1696   1.854   2.595   2.952  0.0585 -0.2239  0.4032
  566SOL    HW1 1697   1.865   2.636   2.859  0.5550  1.3560  1.8473
  566SOL    HW2 1698   1.758   2.600   2.978  2.3770  1.0621  0.0522
  567SOL     OW 1699   2.481   1.108   1.028 -0.5541 -0.0718 -0.2888
  567SOL    HW1 1700   2.485   1.110   0.928 -0.8999 -0.1237  2.2609
  567SOL    HW2 1701   2.488   1.204   1.063 -1.2343 -1.0522 -0.8272
  568SOL     OW 1702   2.295   1.182   2.893  0.3090 -0.3991  0.0858
  568SOL    HW1 1703   2.237   1.205   2.813 -0.2580 -0.8435  3.0466
  568SOL    HW2 1704   2.258   1.219   2.979 -1.1977  0.5741 -0.7754
  569SOL     OW 1705   2.170   1.474   2.447 -0.2031  0.1576  0.1170
  569SOL    HW1 1706   2.217   1.506   2.363 -0.1717 -1.1944  1.4082
  569SOL    HW2 1707   2.070   1.484   2.431 -0.8980  1.2050  1.2129
  570SOL     OW 1708   2.931   2.542   1.910 -0.1151  0.0911 -0.1033
  570SOL    HW1 1709   2.939   2.511   2.008  0.9106 -0.5587  2.1690
  570SOL    HW2 1710   3.009   2.512   1.850  0.6774  0.0277  0.7940
  571SOL     OW 1711   0.494   0.230   1.927  0.1836 -0.3357 -0.0887
  571SOL    HW1 1712   0.580   0.254   1.979  0.8801  0.3823  0.0518
  571SOL    HW2 1713   0.452   0.318   1.896  2.0261 -1.3761  0.5369
  572SOL     OW 1714   1.120   2.002   0.914  0.4542 -0.1527 -0.4565
  572SOL    HW1 1715   1.089   2.019   0.823  1.9066 -0.4515 -0.7579
  572SOL    HW2 1716   1.217   1.986   0.915  2.6402  1.4562  0.7515
  573SOL     OW 1717   1.149   0.515   0.316  0.1202  0.6209  0.6839
  573SOL    HW1 1718   1.092   0.567   0.383 -0.3024  0.4726 -0.5284
  573SOL    HW2 1719   1.134   0.542   0.219  1.4788  0.2199  0.4026
  574SOL     OW 1720   0.519   3.001   0.325 -0.0848  0.1626  0.2197
  574SOL    HW1 1721   0.439   3.061   0.311 -0.7152 -0.0763  0.8203
  574SOL    HW2 1722   0.521   2.952   0.415  0.8696  1.2281 -1.2961
  575SOL     OW 1723   0.300   1.469   1.224 -0.4138 -0.6694 -0.3071
  575SOL    HW1 1724   0.300   1.563   1.178 -1.9658  2.0871 -0.6614
  575SOL    HW2 1725   0.365   1.410   1.174 -0.2143 -0.6565  0.8296
  576SOL     OW 1726   2.654   0.214   1.737 -0.0251  0.0097 -0.0118
  576SOL    HW1 1727   2.687   0.203   1.832 -0.3850 -0.3339 -0.6259
  576SOL    HW2 1728   2.554   0.194   1.717 -2.7908  0.2510  1.2598
  577SOL     OW 1729   2.745   1.655   1.901 -0.3703  0.2482 -0.3030
  577SOL    HW1 1730   2.664   1.688   1.954  0.3322 -0.5053 -2.1663
  577SOL    HW2 1731   2.818   1.616   1.965 -2.0430  1.7037  0.5811
  578SOL     OW 1732   1.181   3.003   2.062 -0.2984 -0.2468  0.1151
  578SOL    HW1 1733   1.202   3.026   2.161  0.9638 -0.1441  1.3730
  578SOL    HW2 1734   1.262   2.960   2.014  2.2064  0.4089  0.5374
  579SOL     OW 1735   2.151   1.953   1.895  0.3014 -0.1014  0.4939
  579SOL    HW1 1736   2.178   1.919   1.802  3.0532 -0.5204 -1.3500
  579SOL    HW2 1737   2.141   2.054   1.896 -1.0714 -2.8665 -1.2998
  580SOL     OW 1738   1.877   1.193   2.065  0.4151  0.1014 -0.2857
  580SOL    HW1 1739   1.928   1.104   2.052 -1.1764  0.6663  0.8273
  580SOL    HW2 1740   1.936   1.278   2.052  3.2327  0.2079 -0.6789
  581SOL     OW 1741   1.529   1.036   2.382  0.4390 -0.2034  0.0446
  581SOL    HW1 1742   1.555   1.046   2.282  1.1657  1.2378  0.6768
  581SOL    HW2 1743   1.601   1.081   2.440  1.5434 -0.0501 -0.1478
  582SOL     OW 1744   0.032   2.423   1.739 -0.4363 -0.2110 -0.5504
  582SOL    HW1 1745   0.113   2.434   1.670  4.6572 -3.8544 -3.0205
  582SOL    HW2 1746   0.005   2.324   1.751  1.1748 -0.8366 -2.2685
  583SOL     OW 1747   1.553   1.066   0.716 -0.3275  0.2105  0.1444
  583SOL    HW1 1748   1.629   1.042   0.784  3.8626 -2.2744  1.4154
  583SOL    HW2 1749   1.547   0.991   0.645 -0.0191 -0.7547 -1.8680
  584SOL     OW 1750   0.748   2.521   0.157 -0.0899  0.7455 -0.3096
  584SOL    HW1 1751   0.714   2.613   0.156 -1.1244 -1.0606  1.6676
  584SOL    HW2 1752   0.842   2.525   0.118  1.8505 -0.9671 -2.8083
  585SOL     OW 1753   0.134   2.613   2.961 -0.0974 -0.0359 -0.3596
  585SOL    HW1 1754   0.083   2.670   2.889 -0.6320  0.7039 -3.8468
  585SOL    HW2 1755   0.223   2.595   2.919 -1.8593 -0.8556 -2.5998
  586SOL     OW 1756   2.392   1.054   0.346  0.1768 -0.3182  0.1905
  586SOL    HW1 1757   2.406   0.999   0.432 -1.4772 -0.6787 -2.9456
  586SOL    HW2 1758   2.427   1.148   0.356  0.4989  0.7739  1.4279
  587SOL     OW 1759   3.055   1.496   0.260 -0.0397  0.5894  0.0255
  587SOL    HW1 1760   3.085   1.582   0.209  3.7877  0.5515  0.4283
  587SOL    HW2 1761   3.008   1.512   0.350  1.9553 -1.4599 -1.6956
  588SOL     OW 1762   0.360   0.376   0.727 -0.3152  0.5304 -0.0968
  588SOL    HW1 1763   0.378   0.362   0.626  0.0545 -1.9274 -2.7896
  588SOL    HW2 1764   0.263   0.362   0.757 -1.9257 -0.2788 -0.5716
  589SOL     OW 1765   1.459   0.119   0.650  0.0830  0.1177  0.1461
  589SOL    HW1 1766   1.364   0.131   0.686  2.0541 -0.6468 -0.7851
  589SOL    HW2 1767   1.530   0.150   0.715 -0.1263 -0.9715 -1.9494
  590SOL     OW 1768   2.548   2.134   0.326  0.4855  0.5764 -0.4968
  590SOL    HW1 1769   2.475   2.110   0.260 -2.2785  1.7390 -0.4839
  590SOL    HW2 1770   2.507   2.176   0.407  1.0978 -2.9954 -1.2661
  591SOL     OW 1771   0.149   2.280   2.001  0.3446 -0.5382  0.4400
  591SOL    HW1 1772   0.202   2.215   2.059 -0.7149  0.0371  0.7661
  591SOL    HW2 1773   0.083   2.226   1.937 -2.7805  0.5391 -0.3553
  592SOL     OW 1774   0.157   1.610   2.239 -0.6418  0.2078  0.0973
  592SOL    HW1 1775   0.068   1.562   2.248 -0.4787 -0.2882 -2.6447
  592SOL    HW2 1776   0.142   1.677   2.160  0.8110  1.8308  0.4629
  593SOL     OW 1777   1.490   1.892   1.475 -0.3067  0.4162  0.3010
  593SOL    HW1 1778   1.396   1.886   1.444  0.0742 -2.7645 -1.3834
  593SOL    HW2 1779   1.543   1.802   1.471  3.5575 -2.5981 -0.0406
  594SOL     OW 1780   0.616   1.182   2.657 -0.3558 -0.5527  0.3392
  594SOL    HW1 1781   0.598   1.084   2.671  0.9249  0.3336  0.9951
  594SOL    HW2 1782   0.617   1.232   2.745 -1.9277 -0.9331 -3.3539
  595SOL     OW 1783   1.767   0.665   0.874 -0.4065 -0.0985  0.6308
  595SOL    HW1 1784   1.675   0.687   0.913  0.5539  1.6443  0.3074
  595SOL    HW2 1785   1.786   0.567   0.890  0.1753 -0.5603 -1.4627
  596SOL     OW 1786   0.435   1.085   1.182 -0.1978  0.5238  0.2767
  596SOL    HW1 1787   0.443   1.171   1.134 -3.6631  0.7889  0.7130
  596SOL    HW2 1788   0.426   1.099   1.277  2.0417 -1.0671 -0.9739
  597SOL     OW 1789   0.250   2.526   2.351 -1.0835 -0.5481  0.0911
  597SOL    HW1 1790   0.300   2.616   2.341 -0.0086  1.1171 -1.4122
  597SOL    HW2 1791   0.280   2.473   2.429 -0.7978 -0.1408 -1.0557
  598SOL     OW 1792   2.517   2.229   2.307 -0.2711 -0.2927 -0.2150
  598SOL    HW1 1793   2.426   2.223   2.256 -1.0510  0.7294  1.7684
  598SOL    HW2 1794   2.534   2.314   2.359  0.4140  1.4458  1.1463
  599SOL     OW 1795   1.131   1.174   0.463  0.0291 -0.0911 -0.2569
  599SOL    HW1 1796   1.073   1.251   0.446  0.9913  0.0809  0.0923
  599SOL    HW2 1797   1.138   1.146   0.561 -1.2914  3.2841 -1.0657
  600SOL     OW 1798   1.604   0.422   0.362  0.1861  0.5902  0.5408
  600SOL    HW1 1799   1.558   0.375   0.283  0.1135 -0.3240  1.3150
  600SOL    HW2 1800   1.557   0.415   0.450  2.1888 -0.2924 -1.1329
  601SOL     OW 1801   0.386   0.453   1.797  0.3133  0.0131  0.0555
  601SOL    HW1 1802   0.302   0.513   1.787  2.1952  1.7661  0.7844
  601SOL    HW2 1803   0.380   0.372   1.734 -0.4469 -0.4681 -0.0650
  602SOL     OW 1804   0.439   2.394   0.559  0.2832  0.1261  0.6908
  602SOL    HW1 1805   0.377   2.327   0.522 -0.1002  0.0448  0.2708
  602SOL    HW2 1806   0.443   2.475   0.493  1.5821  1.1936 -3.0743
  603SOL     OW 1807   1.037   3.008   2.499  0.1083  0.2296  0.3746
  603SOL    HW1 1808   1.063   2.972   2.592 -3.3915 -1.3968 -2.1146
  603SOL    HW2 1809   1.116   3.003   2.432 -0.2016 -1.0731  0.6032
  604SOL     OW 1810   1.044   2.495   0.073 -0.1364 -0.1383 -0.2238
  604SOL    HW1 1811   1.069   2.515   0.166 -1.3175  0.2331 -0.0907
  604SOL    HW2 1812   1.046   2.584   0.021 -1.3106 -2.0912 -0.4580
  605SOL     OW 1813   1.757   1.338   1.678  0.0164  0.7064  0.3918
  605SOL    HW1 1814   1.759   1.335   1.781 -1.5372 -2.8448  1.5011
  605SOL    HW2 1815   1.848   1.362   1.644 -1.1584 -0.4046 -0.0351
  606SOL     OW 1816   0.949   1.112   2.784  0.1648  0.2516  0.6726
  606SOL    HW1 1817   0.953   1.034   2.724 -3.8809  3.5487  1.4125
  606SOL    HW2 1818   0.883   1.182   2.752  0.2313  1.4334  0.2217
  607SOL     OW 1819   0.808   1.177   1.226 -0.0537  0.5417  0.4591
  607SOL    HW1 1820   0.787   1.114   1.306 -2.5038  0.1905 -1.6114
  607SOL    HW2 1821   0.900   1.215   1.241  2.4242  0.9387  1.5717
  608SOL     OW 1822   2.525   2.017   2.010 -0.4426  0.5850  0.0844
  608SOL    HW1 1823   2.492   2.100   1.974 -1.7261 -0.6661  2.2432
  608SOL    HW2 1824   2.599   2.037   2.080  1.7407 -0.4361 -1.2515
  609SOL     OW 1825   2.230   0.041   0.134 -0.3604 -0.1037  0.1449
  609SOL    HW1 1826   2.168   0.053   0.212 -0.8253 -1.7564 -0.7874
  609SOL    HW2 1827   2.248   3.032   0.119  1.7150 -0.9117  2.6329
  610SOL     OW 1828   0.369   2.735   1.685  0.3151 -0.1937  0.2509
  610SOL    HW1 1829   0.385   2.730   1.786  0.4338  0.6700 -0.4351
  610SOL    HW2 1830   0.461   2.732   1.641 -1.0562  2.2378 -2.6722
  611SOL     OW 1831   1.388   1.709   1.092  0.1135 -0.2627  0.3593
  611SOL    HW1 1832   1.299   1.703   1.147 -0.0608  0.8758  0.0937
  611SOL    HW2 1833   1.444   1.622   1.099  0.4074  1.3160  0.7958
  612SOL     OW 1834   0.599   0.096   2.278 -0.5080  0.3002 -0.3068
  612SOL    HW1 1835   0.646   0.164   2.218 -0.3171 -0.1892 -2.0481
  612SOL    HW2 1836   0.642   0.004   2.257 -4.2693 -0.8649  1.2359
  613SOL     OW 1837   2.738   1.172   0.236  0.2430 -0.1096 -0.3340
  613SOL    HW1 1838   2.639   1.153   0.217  1.4770 -0.2106 -1.0360
  613SOL    HW2 1839   2.775   1.112   0.306 -1.4937 -0.8537 -1.6263
  614SOL     OW 1840   1.770   0.254   1.892  0.5641 -0.2446 -0.4342
  614SOL    HW1 1841   1.844   0.195   1.925 -2.2464 -0.4646  0.5866
  614SOL    HW2 1842   1.785   0.350   1.918 -0.1092  0.9900  0.3428
  615SOL     OW 1843   0.923   1.642   1.502 -0.2219 -0.3885 -0.2089
  615SOL    HW1 1844   1.026   1.633   1.502 -1.2485  1.4621  0.5447
  615SOL    HW2 1845   0.898   1.741   1.495  1.2638  1.4595  2.9219
  616SOL     OW 1846   1.630   1.885   3.026  0.0712  0.0959  0.3413
  616SOL    HW1 1847   1.651   1.842   0.023 -0.1783  2.7490 -0.0231
  616SOL    HW2 1848   1.716   1.925   2.986  0.7726 -0.7648  2.2863
  617SOL     OW 1849   2.022   2.893   0.261  0.2644  0.5677 -0.6596
  617SOL    HW1 1850   1.997   2.801   0.298  2.6321  0.3072 -2.4771
  617SOL    HW2 1851   1.950   2.969   0.271 -3.2917  4.9738 -0.3498
  618SOL     OW 1852   0.606   0.773   2.566 -0.1825  0.0167  0.0567
  618SOL    HW1 1853   0.595   0.808   2.662 -0.4928  0.2242  0.5140
  618SOL    HW2 1854   0.539   0.808   2.502 -0.2789 -0.9387  0.0094
  619SOL     OW 1855   2.471   1.294   0.807  0.4166  0.7934  0.7609
  619SOL    HW1 1856   2.380   1.251   0.786  0.8145  1.4140 -1.3970
  619SOL    HW2 1857   2.536   1.295   0.727  1.1749  0.9463 -2.9901
  620SOL     OW 1858   2.290   2.472   2.941  0.7293 -0.2373 -0.0579
  620SOL    HW1 1859   2.210   2.478   3.004  0.9139  0.6062  0.9397
  620SOL    HW2 1860   2.334   2.384   2.943  0.1837 -0.1927  1.9209
  621SOL     OW 1861   2.478   1.320   0.090  0.2622 -0.3568  0.3578
  621SOL    HW1 1862   2.477   1.383   0.174  0.8032  1.3925  0.2684
  621SOL    HW2 1863   2.477   1.216   0.106  2.0499 -1.3942  0.2100
  622SOL     OW 1864   1.428   2.415   2.188 -0.0113 -0.2108 -0.0981
  622SOL    HW1 1865   1.466   2.482   2.129 -1.9058 -1.3555  1.3824
  622SOL    HW2 1866   1.491   2.342   2.215 -1.1806 -0.1214 -0.3623
  623SOL     OW 1867   0.702   1.852   0.418 -0.0001  0.1744  0.2832
  623SOL    HW1 1868   0.774   1.925   0.382  0.6610  1.4942 -1.5909
  623SOL    HW2 1869   0.622   1.833   0.357 -0.4883  0.0156 -1.1813
  624SOL     OW 1870   0.292   0.192   3.047 -0.1811 -0.5591 -0.2725
  624SOL    HW1 1871   0.254   0.219   0.047 -0.9464 -0.0680  2.7340
  624SOL    HW2 1872   0.393   0.174   3.055 -1.3715 -3.8191 -0.9122
  625SOL     OW 1873   0.728   1.957   0.664  0.1425 -0.7214  0.0136
  625SOL    HW1 1874   0.728   1.895   0.580 -0.6165 -0.2847 -3.9391
  625SOL    HW2 1875   0.709   2.052   0.629 -0.7634 -0.7936 -0.6263
  626SOL     OW 1876   2.509   2.868   2.795  0.1215  0.0394  0.1077
  626SOL    HW1 1877   2.449   2.815   2.859  2.9699 -3.8810  1.1891
  626SOL    HW2 1878   2.531   2.960   2.831 -1.1659 -2.4175  0.8214
  627SOL     OW 1879   1.309   1.444   2.732 -0.4488  0.0715  0.4519
  627SOL    HW1 1880   1.389   1.381   2.743 -0.5152 -0.3819 -0.2202
  627SOL    HW2 1881   1.241   1.419   2.801  1.6819 -0.7859  0.5612
  628SOL     OW 1882   0.356   0.464   2.507 -0.3870  0.0984  0.7466
  628SOL    HW1 1883   0.452   0.482   2.482 -2.4600 -1.7413  0.0376
  628SOL    HW2 1884   0.355   0.436   2.603 -0.4628  1.8437 -4.2412
  629SOL     OW 1885   0.208   2.973   1.959 -0.4437  0.3802 -0.4394
  629SOL    HW1 1886   0.141   2.898   1.958  2.1927  2.5510 -1.2035
  629SOL    HW2 1887   0.190   3.041   2.034 -0.9151 -0.1880  0.0756
  630SOL     OW 1888   1.609   0.933   1.818  0.9148  0.4578 -0.4490
  630SOL    HW1 1889   1.671   0.857   1.781  1.4900 -0.5803 -0.5099
  630SOL    HW2 1890   1.637   0.969   1.908 -3.7319 -1.4935 -1.8952
  631SOL     OW 1891   2.149   0.937   0.330  0.0100 -0.1822  0.1349
  631SOL    HW1 1892   2.177   0.841   0.326  2.1037 -1.9859 -1.3192
  631SOL    HW2 1893   2.226   0.992   0.358 -3.1218 -1.1597  0.4496
  632SOL     OW 1894   2.132   0.318   2.040 -0.3429  0.1943  0.6800
  632SOL    HW1 1895   2.202   0.321   2.117  0.6760  3.1261  0.2361
  632SOL    HW2 1896   2.088   0.226   2.033 -2.0977  0.1348 -0.3392
  633SOL     OW 1897   0.998   2.751   0.021  0.6606 -0.2630  0.0888
  633SOL    HW1 1898   0.969   2.772   0.121  0.5234 -1.0581 -1.6880
  633SOL    HW2 1899   0.915   2.768   3.056  1.4418  0.2386  1.0122
  634SOL     OW 1900   1.318   2.593   2.368 -0.1658  0.6382 -0.2508
  634SOL    HW1 1901   1.227   2.619   2.327  2.4746  0.8523  0.9032
  634SOL    HW2 1902   1.377   2.536   2.301  0.6179  3.2503  0.9343
  635SOL     OW 1903   2.291   0.173   2.982  0.2686  0.2784  0.2243
  635SOL    HW1 1904   2.343   0.259   3.008 -1.1697  0.4202  2.7103
  635SOL    HW2 1905   2.258   0.118   3.065 -2.9939 -1.7960  1.1346
  636SOL     OW 1906   0.678   1.136   0.675 -0.0277 -0.6359  0.2609
  636SOL    HW1 1907   0.583   1.133   0.706  2.7788  1.2427 -0.0310
  636SOL    HW2 1908   0.736   1.105   0.757 -0.0853  0.9994  0.6611
  637SOL     OW 1909   0.197   2.103   0.692 -0.3625  0.2554 -0.1865
  637SOL    HW1 1910   0.247   2.118   0.777 -3.6864  0.5808 -1.4303
  637SOL    HW2 1911   0.253   2.137   0.617  0.4179  0.8241  0.8164
  638SOL     OW 1912   0.635   0.070   2.864 -0.2781 -0.4673  0.1646
  638SOL    HW1 1913   0.571   3.081   2.868 -0.6889 -2.1060 -0.9827
  638SOL    HW2 1914   0.596   0.144   2.922  0.2756  0.6238 -0.9645
  639SOL     OW 1915   1.521   1.718   0.419 -1.2091  0.4160  0.0732
  639SOL    HW1 1916   1.471   1.634   0.442  0.9327  2.6453  1.3456
  639SOL    HW2 1917   1.473   1.792   0.460  0.4425 -1.6039 -0.1834
  640SOL     OW 1918   1.770   2.657   0.989  0.3546  0.8091  0.2855
  640SOL    HW1 1919   1.807   2.595   0.915  3.0849 -1.9801 -0.2990
  640SOL    HW2 1920   1.714   2.732   0.950  0.3949  3.4532  0.6557
  641SOL     OW 1921   3.015   2.793   0.554  0.2682 -0.1672  0.1014
  641SOL    HW1 1922   3.081   2.800   0.476 -1.3271 -0.6512 -0.2180
  641SOL    HW2 1923   3.000   2.697   0.584 -0.4648  1.9868  0.0681
  642SOL     OW 1924   0.641   0.208   1.679  0.1373  0.1738  0.2292
  642SOL    HW1 1925   0.567   0.160   1.738 -2.6690 -0.6376  1.2774
  642SOL    HW2 1926   0.651   0.296   1.730  0.0358  1.0107  0.6881
  643SOL     OW 1927   0.517   1.909   2.397 -0.6588 -0.0315  0.0823
  643SOL    HW1 1928   0.420   1.921   2.410  2.9607  0.1182  1.3319
  643SOL    HW2 1929   0.557   1.958   2.317  0.7120  0.0103 -0.9743
  644SOL     OW 1930   0.832   2.935   0.510 -0.4709 -0.5837 -0.3575
  644SOL    HW1 1931   0.848   2.844   0.551 -1.3135 -0.6824 -2.5991
  644SOL    HW2 1932   0.863   2.937   0.416  1.9160 -0.5253 -0.4532
  645SOL     OW 1933   1.035   1.905   0.102 -0.0346  0.0625  0.4014
  645SOL    HW1 1934   1.113   1.968   0.118  3.9062 -1.8968 -0.0551
  645SOL    HW2 1935   1.060   1.815   0.143 -0.1491  0.0679 -1.2031
  646SOL     OW 1936   0.233   1.457   0.121  0.3176 -0.0015  0.2043
  646SOL    HW1 1937   0.278   1.530   0.175 -0.9654 -0.4240 -1.7816
  646SOL    HW2 1938   0.194   1.390   0.190 -1.4254 -1.6205  0.6727
  647SOL     OW 1939   1.019   0.096   0.954  0.1128  0.3208  0.2509
  647SOL    HW1 1940   1.063   0.173   0.998  0.2307  0.6071 -2.7006
  647SOL    HW2 1941   0.997   0.023   1.023  0.6947  0.2915  3.1101
  648SOL     OW 1942   2.804   3.033   1.753 -0.3989 -0.2940  0.2633
  648SOL    HW1 1943   2.781   0.030   1.804 -1.8614 -0.3742 -1.1443
  648SOL    HW2 1944   2.900   3.036   1.715 -0.6428  0.4383 -0.4860
  649SOL     OW 1945   0.891   2.175   2.837 -0.0037  0.6297  0.4987
  649SOL    HW1 1946   0.956   2.095   2.821  2.8673  0.3263 -0.4803
  649SOL    HW2 1947   0.860   2.184   2.933 -1.9401  3.4082 -0.8198
  650SOL     OW 1948   0.506   1.840   1.547  0.5395  0.3519 -0.3070
  650SOL    HW1 1949   0.548   1.804   1.464 -1.0704 -1.3443  0.8989
  650SOL    HW2 1950   0.456   1.770   1.596  0.2009 -1.0403 -1.2229
  651SOL     OW 1951   0.560   0.231   3.083  0.3114  0.1732  0.2732
  651SOL    HW1 1952   0.606   0.207   0.077  1.2722 -1.2575 -0.5171
  651SOL    HW2 1953   0.589   0.318   3.038  1.0749 -0.3844  2.1700
  652SOL     OW 1954   2.781   2.013   0.291 -0.2656  0.3441  0.1547
  652SOL    HW1 1955   2.761   1.962   0.202  1.4054  0.1643 -0.9988
  652SOL    HW2 1956   2.708   2.083   0.315  0.9287  0.7369 -0.9367
  653SOL     OW 1957   0.083   0.169   0.776  0.6369  0.0028 -0.2472
  653SOL    HW1 1958   3.081   0.134   0.796 -2.1116  1.9692 -0.1886
  653SOL    HW2 1959   0.073   0.266   0.748  1.8091  2.1978 -0.5147
  654SOL     OW 1960   1.678   3.068   2.729  0.0780  0.1013 -0.4266
  654SOL    HW1 1961   1.583   0.003   2.703 -0.1263  0.5665 -1.6598
  654SOL    HW2 1962   1.721   3.009   2.657  0.5642 -1.4494 -1.4424
  655SOL     OW 1963   0.864   2.417   1.229  0.1168 -0.0728 -0.3678
  655SOL    HW1 1964   0.940   2.470   1.268  1.8278 -0.1073 -0.4277
  655SOL    HW2 1965   0.886   2.314   1.245  0.1397 -2.7622  0.8062
  656SOL     OW 1966   0.128   0.562   1.813 -0.4374  1.0321 -0.1481
  656SOL    HW1 1967   0.098   0.542   1.907 -1.5004  0.5961 -1.0269
  656SOL    HW2 1968   0.095   0.656   1.781  0.4942  0.1543  0.9600
  657SOL     OW 1969   2.319   0.650   2.004  0.5528  0.1556 -0.6519
  657SOL    HW1 1970   2.225   0.622   1.980  0.0833 -0.9324 -2.5158
  657SOL    HW2 1971   2.380   0.580   1.965 -1.0601  0.6742  0.4149
  658SOL     OW 1972   2.367   1.317   1.150 -0.0572  0.3169  0.2792
  658SOL    HW1 1973   2.303   1.240   1.151  0.1408  0.6041  3.3521
  658SOL    HW2 1974   2.406   1.336   1.239 -1.8931 -2.1801 -1.6433
  659SOL     OW 1975   2.540   0.035   2.863  0.1872  0.2217  0.5075
  659SOL    HW1 1976   2.448   0.074   2.872 -4.1454 -1.0810 -1.9689
  659SOL    HW2 1977   2.600   0.052   2.947  1.0099  1.3818  1.3320
  660SOL     OW 1978   1.227   1.351   2.999 -1.0398  0.5097  0.2491
  660SOL    HW1 1979   1.282   1.419   3.047  5.4729 -0.1052 -3.5179
  660SOL    HW2 1980   1.277   1.265   3.004 -0.1570 -1.3519 -0.0096
  661SOL     OW 1981   2.738   2.473   0.997  0.5679  0.2890 -0.3382
  661SOL    HW1 1982   2.744   2.369   0.991 -1.7584 -2.1717 -1.2290
  661SOL    HW2 1983   2.647   2.502   1.031  0.9202  0.0472  1.1047
  662SOL     OW 1984   0.504   0.813   0.149 -0.1018  0.4350 -0.7637
  662SOL    HW1 1985   0.598   0.778   0.143 -2.6502 -2.4843  3.9284
  662SOL    HW2 1986   0.491   0.871   0.230  1.9989 -0.0705  0.4141
  663SOL     OW 1987   1.253   2.071   0.216 -0.2598  0.1321  0.0417
  663SOL    HW1 1988   1.340   2.123   0.225  0.7779 -1.7218  3.8347
  663SOL    HW2 1989   1.181   2.134   0.186 -1.5277  0.0572 -0.6042
  664SOL     OW 1990   0.632   2.712   1.620 -0.2817  0.3051  0.2990
  664SOL    HW1 1991   0.692   2.710   1.538  2.6772  0.4883  1.5260
  664SOL    HW2 1992   0.659   2.789   1.679  0.1411  0.4814 -0.4535
  665SOL     OW 1993   2.240   1.979   1.626  0.3467 -0.3352 -0.1839
  665SOL    HW1 1994   2.294   2.061   1.588  2.2248  3.2150  1.0404
  665SOL    HW2 1995   2.178   1.945   1.552  1.1094  2.8050 -0.6235
  666SOL     OW 1996   0.579   2.751   0.174  0.3820 -0.2856 -0.2520
  666SOL    HW1 1997   0.585   2.843   0.219  1.9445 -1.2110  0.8777
  666SOL    HW2 1998   0.548   2.752   0.080  2.2631  1.7244 -0.4571
  667SOL     OW 1999   1.900   1.721   1.751 -0.1504 -0.4930 -0.4112
  667SOL    HW1 2000   1.924   1.791   1.684  2.7168 -0.8731 -1.7912
  667SOL    HW2 2001   1.801   1.710   1.766  0.1559  1.6086 -1.5530
  668SOL     OW 2002   0.417   0.898   2.393  0.0774  0.3148 -0.2020
  668SOL    HW1 2003   0.416   0.995   2.421 -0.8522 -0.5348 -0.5953
  668SOL    HW2 2004   0.467   0.885   2.305  1.3022 -0.4280 -2.3245
  669SOL     OW 2005   1.973   2.163   2.303 -0.0752 -0.0143  0.5558
  669SOL    HW1 2006   1.914   2.114   2.376 -3.1239 -4.8372  0.7586
  669SOL    HW2 2007   2.010   2.092   2.238  0.6541 -0.5338 -0.3302
  670SOL     OW 2008   2.360   2.057   0.117 -0.1759 -0.1451  0.3660
  670SOL    HW1 2009   2.384   1.992   0.039  1.6846 -1.5611 -1.5696
  670SOL    HW2 2010   2.275   2.109   0.091 -0.7979 -0.8530  1.6273
  671SOL     OW 2011   0.744   1.413   1.083  0.4518  0.1937 -0.1664
  671SOL    HW1 2012   0.785   1.487   1.137  1.5570 -1.6289 -1.0468
  671SOL    HW2 2013   0.761   1.324   1.126  1.1882  0.6008 -1.1709
  672SOL     OW 2014   2.665   0.864   2.230  0.4004 -0.0368  0.0662
  672SOL    HW1 2015   2.700   0.920   2.152 -0.4388  0.8610  0.0873
  672SOL    HW2 2016   2.740   0.814   2.275 -1.1720  1.4206  1.0883
  673SOL     OW 2017   2.652   1.916   2.441  0.2797  0.2391 -0.2019
  673SOL    HW1 2018   2.583   1.960   2.498 -1.8909 -1.4322 -0.3069
  673SOL    HW2 2019   2.740   1.959   2.459 -2.4980 -1.4577 -1.6894
  674SOL     OW 2020   1.081   2.670   2.252  0.3603  0.0286 -0.2661
  674SOL    HW1 2021   1.000   2.717   2.287  1.5316 -1.0510  5.4631
  674SOL    HW2 2022   1.119   2.685   2.158 -1.3168 -1.2796 -1.1393
  675SOL     OW 2023   0.736   1.077   1.510 -0.2437 -0.3274  0.0753
  675SOL    HW1 2024   0.715   1.019   1.591 -2.3812  2.4902 -1.6615
  675SOL    HW2 2025   0.647   1.105   1.474  4.0748 -0.5560  1.2462
  676SOL     OW 2026   1.783   0.842   0.508 -0.2383  0.1687  0.3538
  676SOL    HW1 2027   1.684   0.847   0.537 -0.7510  1.1076  1.7335
  676SOL    HW2 2028   1.833   0.770   0.558 -1.2149  1.2642 -1.4099
  677SOL     OW 2029   2.870   1.572   2.915  0.3144  0.0600 -0.2027
  677SOL    HW1 2030   2.876   1.486   2.862  0.3396 -1.4460  2.3423
  677SOL    HW2 2031   2.949   1.635   2.892 -0.7530  2.4252  2.9725
  678SOL     OW 2032   3.024   2.415   1.245 -0.7211  0.0442  0.6395
  678SOL    HW1 2033   2.965   2.439   1.324  1.7743 -1.5621  1.0474
  678SOL    HW2 2034   2.992   2.462   1.163  0.7061  0.7023  0.6201
  679SOL     OW 2035   2.194   2.644   0.753 -0.1994  0.4302 -0.1646
  679SOL    HW1 2036   2.194   2.595   0.842 -0.5634  0.2796 -2.7676
  679SOL    HW2 2037   2.292   2.663   0.733 -0.7923  1.3917  0.1960
  680SOL     OW 2038   3.055   2.548   2.317 -0.2127 -0.0259  0.0800
  680SOL    HW1 2039   2.982   2.538   2.388 -1.2423 -1.4601 -0.9399
  680SOL    HW2 2040   0.061   2.558   2.347  1.5087 -1.4186  1.9967
  681SOL     OW 2041   2.978   1.351   1.340  0.4057  0.2820  0.1690
  681SOL    HW1 2042   3.054   1.333   1.273  3.8301 -0.9875  0.8630
  681SOL    HW2 2043   3.002   1.408   1.417 -1.7780 -0.0180  1.4469
  682SOL     OW 2044   0.605   1.675   1.346  0.1327 -0.1557  0.0146
  682SOL    HW1 2045   0.694   1.632   1.341 -1.6512  1.2303  0.2811
  682SOL    HW2 2046   0.603   1.739   1.263 -0.1826  0.5160 -1.0621
  683SOL     OW 2047   2.907   1.986   1.633 -0.0706  0.0715  0.8421
  683SOL    HW1 2048   2.953   1.898   1.642  3.1803  2.8900 -3.3237
  683SOL    HW2 2049   2.834   2.000   1.703 -0.1659 -0.8089  1.7352
  684SOL     OW 2050   3.011   1.287   0.088  0.0536 -0.3860 -0.5618
  684SOL    HW1 2051   3.025   1.198   0.134 -1.0115 -1.0578 -1.4340
  684SOL    HW2 2052   3.041   1.365   0.144 -1.6824 -1.7845  1.4469
  685SOL     OW 2053   0.926   0.938   0.255 -0.1245 -0.6022 -0.2549
  685SOL    HW1 2054   0.946   1.032   0.215  1.4262 -1.6195  1.2117
  685SOL    HW2 2055   1.011   0.909   0.297 -2.4174 -0.1454  1.1021
  686SOL     OW 2056   0.178   0.103   1.047 -0.1101 -0.5747  0.4691
  686SOL    HW1 2057   0.196   0.194   1.095  1.8555  0.9645  0.2774
  686SOL    HW2 2058   0.155   0.107   0.948 -1.8226 -0.4074 -1.3166
  687SOL     OW 2059   0.966   1.277   2.381  0.3750 -0.1724  0.1096
  687SOL    HW1 2060   0.894   1.211   2.406  3.0470  1.3291 -1.2382
  687SOL    HW2 2061   1.023   1.314   2.457  2.0192 -2.2258 -2.0855
  688SOL     OW 2062   0.849   1.889   1.406  0.3565  0.8132 -0.4326
  688SOL    HW1 2063   0.910   1.924   1.332  1.2259  0.8329  1.0076
  688SOL    HW2 2064   0.812   1.963   1.469 -0.7904  0.4556 -0.2785
  689SOL     OW 2065   1.674   0.734   1.177  0.4966  0.1018  0.5178
  689SOL    HW1 2066   1.597   0.706   1.110 -0.7619  0.8522  1.0655
  689SOL    HW2 2067   1.702   0.832   1.162  1.7621 -2.2775  0.2308
  690SOL     OW 2068   2.796   1.044   0.918  0.0343  0.0979 -0.3241
  690SOL    HW1 2069   2.793   1.145   0.922 -1.9850  0.8739  1.9139
  690SOL    HW2 2070   2.852   0.999   0.988  0.9905  3.4202 -0.4715
  691SOL     OW 2071   0.326   2.343   1.805 -0.0679  0.7155  0.0785
  691SOL    HW1 2072   0.258   2.335   1.879 -0.0469  1.4163  0.4681
  691SOL    HW2 2073   0.300   2.414   1.738 -2.0711  0.5619  0.8563
  692SOL     OW 2074   1.678   0.023   1.035 -0.0430 -0.0033  0.6436
  692SOL    HW1 2075   1.749   0.026   0.958  0.3029  0.6734  0.3873
  692SOL    HW2 2076   1.703   3.029   1.087  1.6412 -2.1211  0.0576
  693SOL     OW 2077   3.039   1.632   2.584  0.0390  0.2167 -0.0247
  693SOL    HW1 2078   3.046   1.647   2.681 -2.0076 -2.0405 -2.2435
  693SOL    HW2 2079   3.010   1.718   2.532 -2.3801  1.4655  0.6616
  694SOL     OW 2080   2.318   0.834   0.952  0.3815  0.3307  0.0619
  694SOL    HW1 2081   2.310   0.804   1.052 -2.3604 -2.0679  1.8913
  694SOL    HW2 2082   2.406   0.885   0.935  0.7638 -2.3021 -3.2376
  695SOL     OW 2083   0.938   1.300   1.512 -0.4274  1.0369  0.3931
  695SOL    HW1 2084   0.856   1.239   1.516  1.4975 -0.1865 -1.0288
  695SOL    HW2 2085   0.997   1.288   1.433 -1.0510  3.2657  2.3703
  696SOL     OW 2086   1.639   2.963   0.645 -0.5924  0.1899  0.2208
  696SOL    HW1 2087   1.600   3.044   0.687  0.7885 -0.0087  1.5901
  696SOL    HW2 2088   1.697   2.996   0.567 -0.0269 -1.2676 -1.3805
  697SOL     OW 2089   0.768   0.308   0.778 -0.1409  0.4187  0.8682
  697SOL    HW1 2090   0.839   0.320   0.703  1.1776  1.4357 -1.4729
  697SOL    HW2 2091   0.803   0.250   0.856  2.0390  1.2818  0.0628
  698SOL     OW 2092   1.768   1.337   2.305  0.1002  0.1844  0.6652
  698SOL    HW1 2093   1.773   1.283   2.219 -0.7349 -2.4339 -1.6427
  698SOL    HW2 2094   1.716   1.289   2.379 -1.5938 -0.6543 -0.1543
  699SOL     OW 2095   1.505   1.145   1.024  0.0046  1.0803 -0.2218
  699SOL    HW1 2096   1.573   1.193   0.966 -0.6055 -0.5237  1.4781
  699SOL    HW2 2097   1.451   1.083   0.965  1.1144  0.1678 -0.8322
  700SOL     OW 2098   1.277   2.868   0.394  0.3543 -0.1385  0.5511
  700SOL    HW1 2099   1.283   2.833   0.300  0.6327  2.1097 -2.5580
  700SOL    HW2 2100   1.337   2.809   0.453 -1.5136  1.4598 -0.6508
  701SOL     OW 2101   2.419   2.578   2.702  0.1784 -0.5806  0.3515
  701SOL    HW1 2102   2.358   2.527   2.765  0.2765 -1.4638  1.0481
  701SOL    HW2 2103   2.465   2.658   2.742  0.2932  2.2260  2.3727
  702SOL     OW 2104   0.937   0.361   0.580  0.9694 -0.0970  0.0664
  702SOL    HW1 2105   0.981   0.330   0.493  0.1729 -3.4747 -1.0168
  702SOL    HW2 2106   0.976   0.440   0.624 -2.7537  0.5097  0.6373
  703SOL     OW 2107   2.480   0.439   1.951  0.1607 -0.8392  0.0838
  703SOL    HW1 2108   2.541   0.427   2.034  0.1539 -2.1791 -0.9613
  703SOL    HW2 2109   2.438   0.354   1.915 -2.8274  1.1056 -0.3705
  704SOL     OW 2110   3.020   2.182   0.752  0.8445  0.5322 -0.2063
  704SOL    HW1 2111   2.934   2.132   0.723 -2.9619  2.2248  4.1592
  704SOL    HW2 2112   0.010   2.153   0.704 -0.5597  2.2510 -0.0534
  705SOL     OW 2113   2.746   2.785   1.889 -0.1725  0.4573  0.0187
  705SOL    HW1 2114   2.806   2.699   1.892 -0.7110 -1.5344  0.9840
  705SOL    HW2 2115   2.788   2.858   1.837 -1.0840 -0.4973  1.8543
  706SOL     OW 2116   2.483   2.526   1.082 -0.2319  0.1513  0.2279
  706SOL    HW1 2117   2.423   2.457   1.033 -2.3903 -0.3469  0.8305
  706SOL    HW2 2118   2.511   2.496   1.178  0.3176  0.1110  4.5017
  707SOL     OW 2119   0.784   2.271   2.070 -0.7680 -0.4340 -0.4170
  707SOL    HW1 2120   0.861   2.270   2.132  0.2702 -1.6176  0.5843
  707SOL    HW2 2121   0.813   2.295   1.980  2.1382  0.9253  2.9934
  708SOL     OW 2122   2.892   2.753   2.509 -0.0967  0.3082 -0.0360
  708SOL    HW1 2123   2.945   2.678   2.552  0.7643  2.8293 -0.7926
  708SOL    HW2 2124   2.960   2.819   2.473  1.6311  1.7479 -1.1518
  709SOL     OW 2125   2.042   2.938   2.006 -0.1791  0.4919 -0.1475
  709SOL    HW1 2126   2.126   2.923   2.069 -0.7769  0.4630  1.1391
  709SOL    HW2 2127   1.958   2.910   2.058 -1.2120  0.7220  1.0679
  710SOL     OW 2128   1.557   0.737   2.438 -0.0954 -0.4627  0.4357
  710SOL    HW1 2129   1.577   0.670   2.360  0.7398 -1.6418 -3.8173
  710SOL    HW2 2130   1.522   0.822   2.394 -0.7030 -0.6147 -1.9209
  711SOL     OW 2131   0.757   1.884   3.076 -0.2025 -0.0989 -0.1666
  711SOL    HW1 2132   0.846   1.868   0.031  0.8657  0.1082  2.3927
  711SOL    HW2 2133   0.747   1.829   2.988  0.1243 -3.1064 -1.6217
  712SOL     OW 2134   0.502   2.286   2.565 -0.2723 -0.2192 -0.3965
  712SOL    HW1 2135   0.529   2.252   2.471 -0.4152  1.6080 -0.4357
  712SOL    HW2 2136   0.546   2.231   2.637 -0.8966  0.7361  0.1023
  713SOL     OW 2137   1.585   1.542   3.014  0.4285 -0.1499 -0.2175
  713SOL    HW1 2138   1.581   1.599   2.930  1.0743 -2.3034  3.1107
  713SOL    HW2 2139   1.669   1.568   3.062 -1.8386 -1.6616 -1.8803
  714SOL     OW 2140   1.155   1.430   1.598  0.3856 -0.6021  0.9936
  714SOL    HW1 2141   1.065   1.411   1.560  3.1516  1.0776  1.3754
  714SOL    HW2 2142   1.150   1.457   1.697  0.7317 -1.7250 -1.9849
  715SOL     OW 2143   1.723   0.289   2.778 -0.1775  0.3937 -0.0161
  715SOL    HW1 2144   1.723   0.359   2.698  1.2782 -0.7144  0.2800
  715SOL    HW2 2145   1.806   0.305   2.830 -0.5327 -1.7696  1.0313
  716SOL     OW 2146   2.948   2.371   2.143  0.1089 -0.3221 -0.2508
  716SOL    HW1 2147   2.993   2.281   2.152 -1.0581  0.1640 -1.1139
  716SOL    HW2 2148   2.998   2.439   2.199  0.8301  1.3462  0.1925
  717SOL     OW 2149   2.885   0.698   0.862 -0.3024 -0.1623  0.3239
  717SOL    HW1 2150   2.926   0.770   0.921 -0.2764 -1.4616  0.9995
  717SOL    HW2 2151   2.821   0.643   0.908  2.7530  0.3721 -1.1070
  718SOL     OW 2152   0.819   1.616   2.577  0.0157  0.0244 -0.2216
  718SOL    HW1 2153   0.757   1.698   2.578 -1.6083 -0.1059 -3.5896
  718SOL    HW2 2154   0.914   1.652   2.590  0.1101  2.7711 -1.4815
  719SOL     OW 2155   1.986   0.820   3.019  0.1577 -0.1699  0.7005
  719SOL    HW1 2156   1.903   0.848   2.961 -2.6965  1.3256 -0.5796
  719SOL    HW2 2157   2.040   0.894   3.067 -0.0073 -0.2031  0.8148
  720SOL     OW 2158   0.725   0.580   0.847  0.4511 -0.0251  0.1626
  720SOL    HW1 2159   0.803   0.620   0.901 -2.0996 -0.0644 -0.7968
  720SOL    HW2 2160   0.744   0.480   0.830 -0.3640  0.5070  1.5778
  721SOL     OW 2161   2.496   0.243   0.781  0.3312  0.3341  0.0695
  721SOL    HW1 2162   2.455   0.339   0.769 -0.8983  1.8770 -0.8671
  721SOL    HW2 2163   2.491   0.189   0.696 -2.9024  0.1096  2.2077
  722SOL     OW 2164   2.538   0.570   2.636 -0.1801 -0.4644 -0.2493
  722SOL    HW1 2165   2.472   0.519   2.693 -0.2393  1.0553 -0.2075
  722SOL    HW2 2166   2.604   0.621   2.700 -0.9906  0.5527  1.0401
  723SOL     OW 2167   2.375   0.267   0.225 -0.1301  0.1327 -0.3987
  723SOL    HW1 2168   2.330   0.177   0.198 -2.4451 -2.1658 -1.9387
  723SOL    HW2 2169   2.325   0.312   0.302  1.0480  0.8933  0.9388
  724SOL     OW 2170   0.776   1.725   2.178  0.3202  0.3432 -0.4130
  724SOL    HW1 2171   0.687   1.684   2.211  2.3009 -0.2466 -0.6785
  724SOL    HW2 2172   0.792   1.712   2.079 -0.1015  3.1055  2.3400
  725SOL     OW 2173   1.682   0.253   1.205 -0.3393 -0.2386  0.2046
  725SOL    HW1 2174   1.756   0.303   1.154  2.5880  0.2534 -0.1918
  725SOL    HW2 2175   1.687   0.155   1.181 -0.0967 -1.6976  0.2424
  726SOL     OW 2176   1.928   2.467   0.219  0.3389  0.3151  0.1398
  726SOL    HW1 2177   1.837   2.508   0.202  0.3956 -0.9172 -0.5505
  726SOL    HW2 2178   1.930   2.371   0.255 -0.9277  1.2360 -2.8407
  727SOL     OW 2179   1.835   1.521   1.318 -0.3539 -0.1154 -0.0504
  727SOL    HW1 2180   1.873   1.449   1.381  0.6619  0.0131 -0.2846
  727SOL    HW2 2181   1.907   1.545   1.249  0.6552  0.5251  0.4188
  728SOL     OW 2182   2.341   2.721   1.436  0.3999  0.2930  0.4367
  728SOL    HW1 2183   2.389   2.764   1.363  0.0393 -0.1418  1.2214
  728SOL    HW2 2184   2.295   2.790   1.494 -2.1680 -0.2336 -2.6683
  729SOL     OW 2185   1.899   1.428   0.812 -1.0270  0.1687 -0.1096
  729SOL    HW1 2186   1.994   1.456   0.792  0.8108 -0.2699 -0.6627
  729SOL    HW2 2187   1.852   1.407   0.727  0.5403 -2.0095  1.6155
  730SOL     OW 2188   1.011   0.666   2.720  0.4085 -0.3038 -0.1135
  730SOL    HW1 2189   0.931   0.608   2.702  0.7253 -1.2544  0.8823
  730SOL    HW2 2190   0.990   0.715   2.808 -0.9156  0.0845  2.3893
  731SOL     OW 2191   0.526   0.013   1.078  0.1639 -0.0238 -0.0778
  731SOL    HW1 2192   0.549   0.009   1.179 -0.1529 -0.1357  1.2887
  731SOL    HW2 2193   0.451   0.081   1.065 -1.0443 -0.8827 -1.2472
  732SOL     OW 2194   1.333   0.679   0.540 -0.6581  0.2907 -0.2175
  732SOL    HW1 2195   1.288   0.697   0.452 -1.1765  0.0013 -1.0345
  732SOL    HW2 2196   1.352   0.581   0.556  2.0556  1.0875  1.6269
  733SOL     OW 2197   0.735   2.122   1.162 -0.1860  0.0432 -0.6170
  733SOL    HW1 2198   0.764   2.131   1.064  4.1211  0.2713  0.4281
  733SOL    HW2 2199   0.808   2.149   1.221  0.5354 -1.4102 -0.9506
  734SOL     OW 2200   0.264   2.644   0.163  0.5248  0.7727 -0.3978
  734SOL    HW1 2201   0.259   2.726   0.218 -1.3205  1.0738  0.7843
  734SOL    HW2 2202   0.231   2.647   0.069  0.0899 -1.0463 -0.3313
  735SOL     OW 2203   1.154   0.210   1.200 -0.6291  0.9064  0.3521
  735SOL    HW1 2204   1.143   0.151   1.284  0.4693 -1.6209  2.6207
  735SOL    HW2 2205   1.249   0.243   1.189  0.4331 -0.2667 -1.4502
  736SOL     OW 2206   2.134   2.170   0.046  0.1167  0.4240 -0.2249
  736SOL    HW1 2207   2.084   2.178   0.137  1.3756 -0.1966  4.5452
  736SOL    HW2 2208   2.093   2.226   3.063 -0.8839 -0.0765  1.4985
  737SOL     OW 2209   2.738   1.320   0.965 -0.4988  0.0581 -0.3351
  737SOL    HW1 2210   2.652   1.364   0.942  0.5674 -1.9203 -0.3356
  737SOL    HW2 2211   2.816   1.383   0.963  0.2942 -1.3196 -1.4708
  738SOL     OW 2212   2.298   2.330   2.124  0.2814  0.3758  0.0078
  738SOL    HW1 2213   2.383   2.358   2.078  2.2269 -0.2061 -0.7517
  738SOL    HW2 2214   2.256   2.405   2.173  1.0726 -2.3546 -0.3148
  739SOL     OW 2215   1.266   2.149   2.942 -0.4016 -0.6289  0.0323
  739SOL    HW1 2216   1.317   2.071   2.983 -0.7210 -0.1501 -1.4822
  739SOL    HW2 2217   1.199   2.188   3.010 -0.2328 -0.3321 -1.6675
  740SOL     OW 2218   1.400   0.282   1.101 -0.0966  0.3117 -0.5121
  740SOL    HW1 2219   1.497   0.284   1.132 -2.1654  2.7296  1.0720
  740SOL    HW2 2220   1.370   0.377   1.089 -0.0872 -2.2921  0.3087
  741SOL     OW 2221   0.208   0.895   0.944 -0.1387 -0.4574  0.3103
  741SOL    HW1 2222   0.173   0.912   1.035 -0.0417 -0.6846  0.3021
  741SOL    HW2 2223   0.159   0.818   0.902  2.3563  1.4875 -1.1199
  742SOL     OW 2224   0.902   1.384   2.745  0.2822 -0.2421 -0.4311
  742SOL    HW1 2225   0.948   1.441   2.816  1.6841  1.9560 -3.6361
  742SOL    HW2 2226   0.855   1.442   2.679 -1.3549  0.5458  2.9691
  743SOL     OW 2227   1.010   1.034   1.987 -0.5496  0.1312  0.0534
  743SOL    HW1 2228   1.076   1.063   2.058  0.9482  2.7325 -0.9111
  743SOL    HW2 2229   0.915   1.069   2.007 -1.8731  3.0209 -2.4585
  744SOL     OW 2230   1.687   0.323   1.478 -0.6362 -0.2761  0.2494
  744SOL    HW1 2231   1.678   0.277   1.384 -2.4686  0.0432 -0.6567
  744SOL    HW2 2232   1.783   0.318   1.505  1.3237  0.0836 -2.6457
  745SOL     OW 2233   1.660   1.176   1.455  0.3174 -0.1699  0.4680
  745SOL    HW1 2234   1.691   1.205   1.363  1.2638  0.6558 -0.2748
  745SOL    HW2 2235   1.711   1.224   1.529 -2.2019  0.6235 -1.3962
  746SOL     OW 2236   2.250   1.167   0.732  0.1974  0.2007 -0.0449
  746SOL    HW1 2237   2.190   1.216   0.669 -0.9056  0.8820 -1.1773
  746SOL    HW2 2238   2.309   1.098   0.681  0.5083  0.4233  2.1411
  747SOL     OW 2239   2.464   1.566   1.047  0.4687  0.4419  0.1320
  747SOL    HW1 2240   2.435   1.587   0.951 -0.9508 -0.1925 -1.7745
  747SOL    HW2 2241   2.395   1.504   1.091  0.6518  0.1814  1.5505
  748SOL     OW 2242   0.656   2.216   0.527 -0.3151  0.6681 -0.7082
  748SOL    HW1 2243   0.600   2.290   0.574  0.7699  1.0407 -0.5792
  748SOL    HW2 2244   0.601   2.154   0.465  1.3908  0.3082  1.6362
  749SOL     OW 2245   2.386   2.688   2.449 -0.2850  0.1300 -0.4848
  749SOL    HW1 2246   2.381   2.649   2.543 -1.9102  0.1265 -1.1592
  749SOL    HW2 2247   2.383   2.789   2.446 -1.7026  1.0706  0.3432
  750SOL     OW 2248   2.425   0.486   0.743 -0.0360 -0.4124 -0.4614
  750SOL    HW1 2249   2.471   0.531   0.667 -1.8855  2.4952  2.2541
  750SOL    HW2 2250   2.343   0.537   0.770  2.4200 -1.3030 -0.9248
  751SOL     OW 2251   2.296   2.904   0.407 -0.0943 -0.0854 -0.5408
  751SOL    HW1 2252   2.241   2.981   0.446  0.6152  1.3071 -0.3192
  751SOL    HW2 2253   2.263   2.870   0.319  4.3984  0.6872  1.4039
  752SOL     OW 2254   3.005   2.999   0.723  0.4186  0.5224  0.0611
  752SOL    HW1 2255   0.001   3.021   0.764 -0.1010  1.6955  0.4285
  752SOL    HW2 2256   3.018   2.923   0.652  0.2136 -1.1450  1.1314
  753SOL     OW 2257   1.729   0.837   2.143 -0.1158 -0.4980  0.2186
  753SOL    HW1 2258   1.711   0.896   2.224 -1.2225 -0.6430  1.4491
  753SOL    HW2 2259   1.720   0.745   2.179  1.1762  1.8300 -2.1888
  754SOL     OW 2260   1.819   2.140   1.398 -0.1961 -0.4678 -0.1016
  754SOL    HW1 2261   1.881   2.185   1.327 -1.9072  1.2210 -3.9009
  754SOL    HW2 2262   1.806   2.044   1.369  0.8626 -0.3500 -0.6405
  755SOL     OW 2263   2.603   0.897   0.793  0.1054 -0.7466 -0.4798
  755SOL    HW1 2264   2.642   0.943   0.873 -2.5863 -1.4936 -1.0136
  755SOL    HW2 2265   2.678   0.852   0.745  1.2649  0.0436  1.4324
  756SOL     OW 2266   0.993   1.503   2.985  0.0564  0.5729  0.1179
  756SOL    HW1 2267   1.068   1.439   3.012 -0.3471  0.3038 -0.0670
  756SOL    HW2 2268   0.911   1.496   3.045 -2.7516  2.0732  1.7123
  757SOL     OW 2269   1.441   2.632   0.789 -0.2374 -0.1459 -0.1274
  757SOL    HW1 2270   1.503   2.666   0.865  0.3730  0.3307  1.2882
  757SOL    HW2 2271   1.375   2.568   0.831 -2.5116  0.0299  0.4357
  758SOL     OW 2272   1.246   2.853   1.736  0.1679  0.2882  0.0627
  758SOL    HW1 2273   1.142   2.869   1.737 -0.1728 -1.1468 -1.2606
  758SOL    HW2 2274   1.281   2.884   1.644 -0.5112 -1.6519  1.0405
  759SOL     OW 2275   0.070   0.700   0.811  0.1402  0.2054 -0.4067
  759SOL    HW1 2276   0.103   0.708   0.715  0.8048 -1.0911 -1.0948
  759SOL    HW2 2277   3.063   0.710   0.820  2.0590  0.1031 -1.3688
  760SOL     OW 2278   2.618   0.927   1.209 -0.4119  0.2095 -0.9086
  760SOL    HW1 2279   2.574   0.980   1.139 -0.2487 -0.6530 -0.9903
  760SOL    HW2 2280   2.646   0.982   1.289 -0.8958 -0.5510  1.5064
  761SOL     OW 2281   1.916   3.075   0.496 -0.5314  0.3374 -0.0041
  761SOL    HW1 2282   1.926   2.988   0.552 -0.4076  0.8668  1.4157
  761SOL    HW2 2283   1.980   0.057   0.530 -0.3989  2.2770 -0.1877
  762SOL     OW 2284   2.082   1.541   2.833 -0.9182  0.3472  0.3034
  762SOL    HW1 2285   2.051   1.445   2.851  1.0478  3.7587 -0.3033
  762SOL    HW2 2286   2.175   1.535   2.801 -2.7683  1.1414  3.0092
  763SOL     OW 2287   0.679   2.069   1.537 -0.1204  0.2873 -0.6586
  763SOL    HW1 2288   0.653   2.166   1.566 -2.2471  3.0160  1.7350
  763SOL    HW2 2289   0.604   2.007   1.553 -0.2533 -3.2256 -1.6890
  764SOL     OW 2290   2.927   2.329   2.907 -0.3821  0.1807 -0.0882
  764SOL    HW1 2291   2.869   2.258   2.946  1.9805  2.1284 -1.0256
  764SOL    HW2 2292   2.876   2.407   2.875  0.3866 -3.1977  2.3321
  765SOL     OW 2293   0.275   2.704   1.158 -0.1905  0.1244 -0.7506
  765SOL    HW1 2294   0.363   2.737   1.118 -0.0416  0.4958 -0.9631
  765SOL    HW2 2295   0.220   2.677   1.079  1.4027  1.6828  1.9944
  766SOL     OW 2296   3.041   2.097   2.220  0.5578  0.8338  0.1755
  766SOL    HW1 2297   0.005   2.128   2.300  1.0356 -1.6221  3.3346
  766SOL    HW2 2298   3.048   1.996   2.207  2.2802 -1.9012 -1.8132
  767SOL     OW 2299   2.291   0.588   2.456 -0.2545 -0.1145 -0.0377
  767SOL    HW1 2300   2.315   0.654   2.382  2.5337 -1.7216 -1.5367
  767SOL    HW2 2301   2.346   0.594   2.543 -0.9453  2.7867  2.2821
  768SOL     OW 2302   1.484   0.189   2.698 -0.5839  0.3943  0.2301
  768SOL    HW1 2303   1.408   0.213   2.761  2.6252 -1.4641 -1.3518
  768SOL    HW2 2304   1.579   0.204   2.736  0.3969  0.5387 -0.5430
  769SOL     OW 2305   2.957   2.591   1.059 -0.6092 -0.6793  0.1740
  769SOL    HW1 2306   2.871   2.545   1.026  2.3244 -0.3090 -0.6740
  769SOL    HW2 2307   2.936   2.687   1.088 -0.2914 -1.8349  0.0669
  770SOL     OW 2308   0.507   0.154   2.621 -0.2580 -0.0726  0.3432
  770SOL    HW1 2309   0.587   0.114   2.662 -0.6912  0.0908  0.0490
  770SOL    HW2 2310   0.452   0.208   2.688 -0.8254  0.4203  0.2957
  771SOL     OW 2311   1.425   1.706   2.265 -0.3888  0.0219  0.0993
  771SOL    HW1 2312   1.475   1.619   2.283 -2.0451  2.2476  1.9781
  771SOL    HW2 2313   1.361   1.702   2.183  1.8551  3.6880  2.2469
  772SOL     OW 2314   1.707   2.469   2.454  0.3259  0.5163  0.1386
  772SOL    HW1 2315   1.705   2.557   2.506 -1.2558  1.0941  0.9912
  772SOL    HW2 2316   1.677   2.488   2.358 -0.7475 -0.8310 -0.7640
  773SOL     OW 2317   1.743   0.826   1.430 -0.3250  0.6107  0.5158
  773SOL    HW1 2318   1.692   0.777   1.358  1.3571 -1.1639 -1.1948
  773SOL    HW2 2319   1.709   0.919   1.430 -2.4257 -1.2482  1.6723
  774SOL     OW 2320   0.897   0.641   1.059 -0.0943  0.2792  0.2577
  774SOL    HW1 2321   0.945   0.566   1.109  1.7571 -1.1131  2.1960
  774SOL    HW2 2322   0.841   0.693   1.124  0.9043  0.4301  0.1982
  775SOL     OW 2323   2.034   2.853   2.769  0.0780  0.2019  0.8018
  775SOL    HW1 2324   1.952   2.835   2.822  1.5618 -1.4270 -1.1849
  775SOL    HW2 2325   2.033   2.790   2.690  0.1548 -2.5189 -0.2128
  776SOL     OW 2326   2.030   0.801   1.444 -0.5082  0.0859 -0.1467
  776SOL    HW1 2327   1.926   0.817   1.463 -4.1811 -0.9583 -1.3560
  776SOL    HW2 2328   2.035   0.747   1.356  0.7497 -0.1476  0.1881
  777SOL     OW 2329   0.063   1.242   2.259 -0.0734  0.7834 -0.3626
  777SOL    HW1 2330   0.143   1.218   2.316  0.4749 -0.6927  0.6732
  777SOL    HW2 2331   0.000   1.159   2.262  0.0785  1.3169 -0.7352
  778SOL     OW 2332   0.024   0.852   2.698  0.3659 -0.4194  0.3560
  778SOL    HW1 2333   0.110   0.833   2.647  1.2622  2.8524  0.3846
  778SOL    HW2 2334   3.088   0.951   2.680  0.5667  1.9634  1.5461
  779SOL     OW 2335   0.185   0.614   3.002  0.9114  0.9930 -0.3370
  779SOL    HW1 2336   0.253   0.554   3.051  0.2558  2.8655 -1.1340
  779SOL    HW2 2337   0.200   0.611   2.900  0.3902  4.3997  1.1208
  780SOL     OW 2338   2.397   1.728   2.580 -0.3373 -0.1518  0.4762
  780SOL    HW1 2339   2.298   1.740   2.574 -1.2529 -0.9359 -0.0438
  780SOL    HW2 2340   2.436   1.790   2.655 -2.0323  1.7526  1.3439
  781SOL     OW 2341   2.773   1.005   2.010  0.2824  0.2482 -0.6452
  781SOL    HW1 2342   2.705   1.080   2.000 -0.1272  1.5581  0.4941
  781SOL    HW2 2343   2.751   0.930   1.943  1.9717  1.7938 -1.1625
  782SOL     OW 2344   1.049   1.957   2.847 -0.1062 -0.3072 -0.1096
  782SOL    HW1 2345   1.036   1.855   2.845  0.2256 -2.6817  0.7208
  782SOL    HW2 2346   1.136   1.980   2.892 -1.2295  2.2032  2.2542
  783SOL     OW 2347   1.254   2.691   1.205 -0.0622 -0.0536 -0.0149
  783SOL    HW1 2348   1.297   2.613   1.158 -0.6739  3.4968  4.2687
  783SOL    HW2 2349   1.178   2.723   1.149  2.3924 -1.9219  0.7947
  784SOL     OW 2350   2.025   0.497   2.446 -0.2957 -0.0335 -0.4184
  784SOL    HW1 2351   2.030   0.425   2.520  0.2915  0.5019  2.0769
  784SOL    HW2 2352   2.121   0.511   2.410  2.6590  0.6704 -1.5702
  785SOL     OW 2353   0.015   0.115   1.881  0.3125 -0.6593 -0.3358
  785SOL    HW1 2354   3.059   0.087   1.964 -0.3178  0.9865  2.0391
  785SOL    HW2 2355   3.081   0.065   1.801 -0.2263 -1.9306  0.0596
  786SOL     OW 2356   1.116   2.224   0.477 -0.0033  0.1568  0.0326
  786SOL    HW1 2357   1.208   2.227   0.435 -1.5310 -1.0291  1.2046
  786SOL    HW2 2358   1.045   2.272   0.419 -1.5665 -0.8294  1.0497
  787SOL     OW 2359   1.191   0.111   0.727  0.7796  0.0592  0.3325
  787SOL    HW1 2360   1.154   0.056   0.644  0.1771 -1.5423 -1.6132
  787SOL    HW2 2361   1.136   0.089   0.814  0.4035  0.3191  2.8244
  788SOL     OW 2362   2.907   1.559   1.022 -0.4309 -0.3861 -0.0642
  788SOL    HW1 2363   2.879   1.600   1.109  0.4130 -0.1143 -1.9381
  788SOL    HW2 2364   2.989   1.603   0.987 -2.6246  1.2612 -1.7338
  789SOL     OW 2365   2.377   0.747   2.251 -0.0330 -0.3942  0.3495
  789SOL    HW1 2366   2.385   0.693   2.163  0.4895 -1.2482  1.1367
  789SOL    HW2 2367   2.468   0.796   2.271  2.1927  0.8309  2.0315
  790SOL     OW 2368   1.053   0.239   3.042 -0.3086  0.1119  0.6442
  790SOL    HW1 2369   0.989   0.260   0.023  2.2410 -2.0738 -0.2645
  790SOL    HW2 2370   1.005   0.212   2.955 -2.9529 -0.4407  0.5767
  791SOL     OW 2371   0.105   2.961   0.234 -0.0473 -0.5593 -0.4263
  791SOL    HW1 2372   0.017   3.010   0.251  0.4213  1.5500  2.0331
  791SOL    HW2 2373   0.181   3.027   0.262  0.8218  1.4150 -0.3450
  792SOL     OW 2374   1.446   0.675   1.953 -0.4221 -0.6510 -0.1105
  792SOL    HW1 2375   1.425   0.582   1.990 -0.5533 -1.2002 -0.7920
  792SOL    HW2 2376   1.386   0.704   1.878 -3.4141 -0.2240  0.7984
  793SOL     OW 2377   0.151   0.357   1.136  0.4212  0.1242 -0.2629
  793SOL    HW1 2378   0.200   0.426   1.079 -1.1754  2.8794 -1.7145
  793SOL    HW2 2379   0.145   0.391   1.229  3.6523 -0.1566 -2.7782
  794SOL     OW 2380   0.235   0.155   2.028  0.3700  0.6524 -0.0993
  794SOL    HW1 2381   0.311   0.210   1.987  2.0836  0.0826 -0.5682
  794SOL    HW2 2382   0.155   0.152   1.973  1.7521  0.0246 -0.6179
  795SOL     OW 2383   0.606   1.559   0.481  0.1124 -0.0193 -0.5861
  795SOL    HW1 2384   0.605   1.523   0.387 -3.7086 -2.1663  1.2559
  795SOL    HW2 2385   0.658   1.644   0.492  0.6004 -1.5352  0.5377
  796SOL     OW 2386   2.968   0.854   2.921 -0.2447  0.3821  0.3682
  796SOL    HW1 2387   2.887   0.912   2.890 -0.5243  0.2428  1.0108
  796SOL    HW2 2388   3.029   0.835   2.841  1.9704  1.0087  0.6843
  797SOL     OW 2389   1.845   2.921   2.531  0.0700 -0.0190  0.2792
  797SOL    HW1 2390   1.897   2.854   2.473 -2.2434 -0.1336  0.6028
  797SOL    HW2 2391   1.896   3.011   2.541  0.3265  0.2620 -1.5209
  798SOL     OW 2392   0.211   3.062   1.303 -0.4026  0.0126  0.7265
  798SOL    HW1 2393   0.283   0.007   1.369 -1.1605  1.0087  2.2821
  798SOL    HW2 2394   0.224   0.010   1.208  1.9545  2.3482 -2.7298
  799SOL     OW 2395   3.065   1.122   1.844  0.2240  0.1225 -0.0858
  799SOL    HW1 2396   2.967   1.129   1.819  1.5700  2.0181  1.5047
  799SOL    HW2 2397   3.086   1.022   1.864 -3.5005  0.3031 -0.3453
  800SOL     OW 2398   0.003   1.742   0.170  0.2290 -0.3100  0.2080
  800SOL    HW1 2399   2.997   1.718   0.148  1.4155 -0.5735  1.2230
  800SOL    HW2 2400   0.036   1.834   0.133  0.6484  0.5378 -0.3625
  801SOL     OW 2401   1.967   1.660   0.557 -0.1655 -0.1534 -0.1630
  801SOL    HW1 2402   1.994   1.632   0.461  3.1969 -0.0337  3.2403
  801SOL    HW2 2403   1.868   1.642   0.582 -2.2462  1.1158  2.1393
  802SOL     OW 2404   1.352   0.972   2.783 -0.5301  0.3342  0.5298
  802SOL    HW1 2405   1.346   1.009   2.689 -1.8552 -0.4681 -1.5990
  802SOL    HW2 2406   1.413   0.891   2.782 -1.5293  2.4295 -0.5318
  803SOL     OW 2407   0.728   2.047   1.847  0.4230 -0.2061  0.2541
  803SOL    HW1 2408   0.815   2.017   1.893  2.4851  0.7982 -1.6189
  803SOL    HW2 2409   0.742   2.042   1.747  0.2075 -1.3560 -1.6724
  804SOL     OW 2410   1.363   2.201   0.956  0.1344  0.0175  0.1921
  804SOL    HW1 2411   1.448   2.145   0.944  3.0241 -1.9084 -0.3498
  804SOL    HW2 2412   1.323   2.221   0.861 -0.5889 -1.5504  0.6938
  805SOL     OW 2413   2.677   2.367   2.669 -0.0688 -0.6992  1.1218
  805SOL    HW1 2414   2.744   2.444   2.696  1.6395  0.9678 -3.7856
  805SOL    HW2 2415   2.623   2.399   2.588  0.1721  0.1786 -1.4679
  806SOL     OW 2416   3.058   0.075   0.403  0.4008  0.2415 -0.3497
  806SOL    HW1 2417   2.972   0.088   0.462 -1.9228  0.0545  1.6380
  806SOL    HW2 2418   0.042   0.045   0.467  2.6902 -0.3252  0.2008
  807SOL     OW 2419   2.540   0.629   2.958  0.1400 -0.1505 -0.3015
  807SOL    HW1 2420   2.599   0.595   2.888 -2.0650  2.0353  2.8995
  807SOL    HW2 2421   2.466   0.561   2.973  2.1585 -1.2439  0.5851
  808SOL     OW 2422   1.004   2.451   0.881 -0.3100  0.1639 -0.1858
  808SOL    HW1 2423   1.028   2.524   0.944 -0.0753  0.2589 -1.4314
  808SOL    HW2 2424   0.905   2.438   0.887  2.0847  0.3276 -0.1050
  809SOL     OW 2425   2.677   0.192   2.657  0.1923  0.7725  0.3409
  809SOL    HW1 2426   2.627   0.110   2.689  1.8299  0.1735 -2.0967
  809SOL    HW2 2427   2.636   0.235   2.572 -1.1876  0.3073  1.3371
  810SOL     OW 2428   1.388   1.284   0.687 -0.3503  0.1712  0.3953
  810SOL    HW1 2429   1.306   1.229   0.657 -0.5908 -2.3870  1.4773
  810SOL    HW2 2430   1.459   1.223   0.725  1.4515  0.3251  1.1654
  811SOL     OW 2431   2.019   2.876   1.750  0.1939 -0.1733  0.2068
  811SOL    HW1 2432   1.948   2.934   1.701 -1.9279 -0.0201 -0.9525
  811SOL    HW2 2433   2.027   2.910   1.842  1.8925 -1.5612  0.1875
  812SOL     OW 2434   1.716   2.526   0.425 -0.0558 -1.0241 -1.3181
  812SOL    HW1 2435   1.779   2.467   0.471 -0.5410 -0.6512 -0.1595
  812SOL    HW2 2436   1.676   2.593   0.492 -1.5318 -0.0961 -0.6465
  813SOL     OW 2437   0.989   0.746   1.966  0.0933  0.3780  0.4414
  813SOL    HW1 2438   0.982   0.703   2.059  0.0600 -0.2851 -1.4984
  813SOL    HW2 2439   0.994   0.851   1.973  0.7915  0.7948  1.2560
  814SOL     OW 2440   0.401   0.142   1.434 -0.5190 -0.0631  0.1964
  814SOL    HW1 2441   0.447   0.154   1.342  1.8708  1.0279 -3.8277
  814SOL    HW2 2442   0.439   0.060   1.482  0.6416 -3.4287 -2.7054
  815SOL     OW 2443   0.426   2.950   0.598  0.6868 -0.0166 -0.6398
  815SOL    HW1 2444   0.496   3.024   0.618 -2.8190 -1.3557 -1.6598
  815SOL    HW2 2445   0.409   2.892   0.684  1.8195 -1.6783 -1.4344
  816SOL     OW 2446   2.705   1.337   2.549 -0.0548  0.5476 -0.5113
  816SOL    HW1 2447   2.626   1.298   2.602 -0.4069 -1.4112  1.5851
  816SOL    HW2 2448   2.677   1.414   2.492  1.7565 -1.7858  1.0476
  817SOL     OW 2449   1.227   0.033   0.040 -0.0221 -0.3627  0.8010
  817SOL    HW1 2450   1.222   0.037   0.140  0.5131  0.6617 -1.5287
  817SOL    HW2 2451   1.184   0.119   3.092  0.8546 -1.3026 -1.2594
  818SOL     OW 2452   1.409   0.623   0.035 -0.0540 -0.3148 -0.2160
  818SOL    HW1 2453   1.475   0.658   0.107 -2.2623 -2.0937 -0.8265
  818SOL    HW2 2454   1.414   0.521   0.022 -0.6285  0.9567 -0.0600
  819SOL     OW 2455   2.053   2.504   3.081  0.2691  0.2905  0.6938
  819SOL    HW1 2456   1.965   2.539   3.044  0.4295 -0.8147 -1.4570
  819SOL    HW2 2457   2.055   2.477   0.089  1.6488 -0.3412  2.6745
  820SOL     OW 2458   1.612   1.014   0.081 -0.0359  0.0181 -0.0477
  820SOL    HW1 2459   1.577   0.935   0.023  0.9513 -0.2399 -2.0268
  820SOL    HW2 2460   1.680   0.966   0.139 -0.9251 -0.4431  0.9311
  821SOL     OW 2461   0.203   0.694   1.433  0.0557 -0.1899  0.2272
  821SOL    HW1 2462   0.173   0.595   1.427  0.9125 -1.0291  3.1574
  821SOL    HW2 2463   0.194   0.724   1.529 -0.8346 -1.3419 -3.5910
  822SOL     OW 2464   1.005   2.393   2.191 -0.3415  0.3651  0.1133
  822SOL    HW1 2465   1.075   2.314   2.184  3.6873 -1.9004  1.6490
  822SOL    HW2 2466   1.052   2.487   2.190 -0.2969  2.1861 -0.7628
  823SOL     OW 2467   0.387   1.488   2.069 -0.2825 -0.1537  0.2186
  823SOL    HW1 2468   0.314   1.515   2.132  1.4484  1.7467 -1.1526
  823SOL    HW2 2469   0.476   1.487   2.123  3.1313 -1.9553  0.6016
  824SOL     OW 2470   1.821   2.781   2.089 -0.3447  0.6646 -0.0552
  824SOL    HW1 2471   1.822   2.772   1.990 -0.2200  0.9969  1.9024
  824SOL    HW2 2472   1.766   2.864   2.108 -0.0661  0.0049 -1.6995
  825SOL     OW 2473   0.970   1.180   0.153  0.0362  0.3012 -0.0786
  825SOL    HW1 2474   0.959   1.278   0.155  3.2514 -2.4729 -0.3723
  825SOL    HW2 2475   0.910   1.145   0.080  0.7376  2.1385  0.6757
  826SOL     OW 2476   1.962   0.591   2.884  0.3860  0.9619  0.7525
  826SOL    HW1 2477   1.904   0.627   2.810 -1.3149  3.2684  0.2585
  826SOL    HW2 2478   1.967   0.659   2.956  1.4922  2.1752 -3.0145
  827SOL     OW 2479   0.428   2.081   2.884  0.1425  0.0211  0.1026
  827SOL    HW1 2480   0.520   2.085   2.848 -1.9080 -0.1229  1.9857
  827SOL    HW2 2481   0.368   2.050   2.808 -1.8673  2.2859  1.5928
  828SOL     OW 2482   0.072   0.457   1.419 -0.0766  0.3550  0.2133
  828SOL    HW1 2483   0.095   0.396   1.497  1.3457  1.4217 -2.5760
  828SOL    HW2 2484   3.069   0.444   1.393 -1.0034  1.8296  1.5647
  829SOL     OW 2485   1.192   1.367   1.035 -0.4868 -0.4571  0.1935
  829SOL    HW1 2486   1.285   1.345   1.067 -0.6977 -0.3668  0.8049
  829SOL    HW2 2487   1.185   1.456   0.988  1.2870  0.2113  1.3395
  830SOL     OW 2488   0.515   1.463   1.478  0.0627  0.6145 -0.0172
  830SOL    HW1 2489   0.556   1.535   1.420 -0.3211  1.4420  0.7882
  830SOL    HW2 2490   0.425   1.439   1.435 -2.7250 -1.8593 -2.4079
  831SOL     OW 2491   0.547   1.829   0.163  0.2992  0.1184  0.1507
  831SOL    HW1 2492   0.641   1.855   0.130  4.0525  1.7931 -1.1090
  831SOL    HW2 2493   0.472   1.862   0.095 -1.6512  0.7616 -2.8315
  832SOL     OW 2494   1.088   2.970   2.953  0.1113 -0.7097  0.4582
  832SOL    HW1 2495   1.139   3.024   3.018 -0.2223  0.2966 -2.3595
  832SOL    HW2 2496   1.014   2.924   3.004 -1.2352  0.4400  1.9775
  833SOL     OW 2497   0.076   0.788   1.686  0.0079  0.0453  0.1614
  833SOL    HW1 2498   0.069   0.859   1.613  1.2567  1.5333  2.0657
  833SOL    HW2 2499   0.021   0.816   1.765  3.6407 -1.7990 -1.4009
  834SOL     OW 2500   0.274   0.568   1.001 -0.3108 -0.3639 -0.1507
  834SOL    HW1 2501   0.220   0.605   0.928 -0.0942  1.7603 -0.7837
  834SOL    HW2 2502   0.374   0.595   0.987  0.9602  0.9502  1.4550
  835SOL     OW 2503   2.893   0.041   1.115 -0.2103 -0.5000  0.0174
  835SOL    HW1 2504   2.926   0.132   1.090 -3.1733  0.8828  3.0035
  835SOL    HW2 2505   2.825   0.009   1.047 -1.5398  1.8465  1.1435
  836SOL     OW 2506   0.344   1.863   3.075 -0.0260 -0.1578 -0.1984
  836SOL    HW1 2507   0.250   1.876   0.026 -2.4451 -1.1625  3.4186
  836SOL    HW2 2508   0.351   1.924   2.997 -0.4881 -0.4318  4.3767
  837SOL     OW 2509   1.889   1.719   2.739 -0.4291 -0.0408  0.8783
  837SOL    HW1 2510   1.792   1.699   2.753  1.0393  0.3044 -0.1639
  837SOL    HW2 2511   1.946   1.646   2.779 -1.4563 -2.1454  2.1524
  838SOL     OW 2512   2.398   1.107   1.896 -0.7101  0.4602 -0.0979
  838SOL    HW1 2513   2.428   1.013   1.889  2.2689  3.0553 -1.5695
  838SOL    HW2 2514   2.481   1.162   1.917  0.9218 -0.7924 -1.3377
  839SOL     OW 2515   1.195   0.836   0.715 -0.3841  0.2886  0.5356
  839SOL    HW1 2516   1.096   0.811   0.731 -0.0105 -3.2297 -1.4786
  839SOL    HW2 2517   1.241   0.761   0.666 -1.9800  0.4444 -0.6707
  840SOL     OW 2518   1.300   0.516   1.005 -0.4905  0.0709 -0.1454
  840SOL    HW1 2519   1.283   0.466   0.921  1.5749 -1.1199  2.1312
  840SOL    HW2 2520   1.233   0.592   1.017 -0.3773 -1.0207 -0.8173
  841SOL     OW 2521   0.647   2.678   0.698  0.7329 -0.3700 -0.4047
  841SOL    HW1 2522   0.695   2.730   0.770 -0.4505 -1.1382 -0.2478
  841SOL    HW2 2523   0.544   2.673   0.711 -1.8704 -1.9222 -2.2512
  842SOL     OW 2524   0.589   0.613   0.631 -0.4175  0.1352 -0.0843
  842SOL    HW1 2525   0.623   0.605   0.726 -0.2643  2.5318 -0.7587
  842SOL    HW2 2526   0.547   0.519   0.599 -2.1090 -2.4530 -2.4529
  843SOL     OW 2527   0.704   1.004   1.858 -0.2590  0.8851 -0.3199
  843SOL    HW1 2528   0.752   1.087   1.828 -2.8004  1.0486  2.3657
  843SOL    HW2 2529   0.600   1.021   1.852 -0.2196  1.0523  2.2900
  844SOL     OW 2530   1.510   2.306   2.950  0.1924  0.1593  0.0604
  844SOL    HW1 2531   1.507   2.376   2.875 -1.4597  0.9276 -0.6556
  844SOL    HW2 2532   1.428   2.243   2.941  0.0203  0.5015  0.8197
  845SOL     OW 2533   2.687   2.457   2.210  0.6038  0.7500  0.0395
  845SOL    HW1 2534   2.773   2.407   2.188  0.3531  1.6136  1.4636
  845SOL    HW2 2535   2.617   2.448   2.137  1.3771 -0.5853 -0.5817
  846SOL     OW 2536   1.930   1.734   2.479  0.9567  0.2895  0.0329
  846SOL    HW1 2537   1.937   1.644   2.433 -0.0688 -2.3386 -1.2232
  846SOL    HW2 2538   1.917   1.716   2.581  0.6532 -1.1536  2.6235
  847SOL     OW 2539   1.988   2.782   2.324  0.4238  0.2908  0.1343
  847SOL    HW1 2540   2.076   2.806   2.278  4.6134 -0.8839  0.4023
  847SOL    HW2 2541   1.908   2.776   2.260  0.6980  1.1728  0.5456
  848SOL     OW 2542   0.482   0.404   0.456 -0.0296 -0.3106 -0.0306
  848SOL    HW1 2543   0.457   0.443   0.369  0.1965 -2.5885 -0.9434
  848SOL    HW2 2544   0.554   0.332   0.436  0.8688 -2.9285 -1.2813
  849SOL     OW 2545   0.787   2.818   1.234  0.4685  0.0740  0.0420
  849SOL    HW1 2546   0.752   2.749   1.171 -1.4123  0.9516  1.3996
  849SOL    HW2 2547   0.713   2.887   1.254 -0.5954  0.0238  2.5310
  850SOL     OW 2548   0.147   1.761   0.409 -0.2729 -0.6423 -0.0289
  850SOL    HW1 2549   0.094   1.753   0.320  3.8224 -0.5017 -0.8372
  850SOL    HW2 2550   0.096   1.827   0.470 -0.7209 -2.0734  0.4070
  851SOL     OW 2551   0.079   0.596   0.286  0.1645  0.8014  0.1684
  851SOL    HW1 2552   0.080   0.639   0.196 -0.8817 -0.0927  0.3042
  851SOL    HW2 2553   0.037   0.502   0.285  0.6918 -0.0673  0.1005
  852SOL     OW 2554   1.538   2.086   1.663 -0.1149  0.5139  0.5071
  852SOL    HW1 2555   1.636   2.068   1.696  0.2736 -2.5700  0.1373
  852SOL    HW2 2556   1.522   2.025   1.583  0.0418 -0.0895  0.1217
  853SOL     OW 2557   0.359   1.650   0.259 -0.1659 -0.4296 -0.3289
  853SOL    HW1 2558   0.422   1.708   0.207 -0.4827 -1.2211  2.2253
  853SOL    HW2 2559   0.316   1.704   0.337 -1.7459  0.8755 -2.3714
  854SOL     OW 2560   1.978   1.336   1.498 -0.1317 -0.1042  0.1456
  854SOL    HW1 2561   2.069   1.369   1.457  2.5622 -0.2966  1.9868
  854SOL    HW2 2562   1.989   1.250   1.546 -2.1266  4.1450  0.3721
  855SOL     OW 2563   0.567   2.307   0.179  0.0253  0.4589 -0.1527
  855SOL    HW1 2564   0.475   2.343   0.156 -0.9989  0.0893 -2.2609
  855SOL    HW2 2565   0.630   2.392   0.186 -0.5148  5.4345 -1.0363
  856SOL     OW 2566   2.784   0.148   1.993  0.4377 -0.3165  0.1801
  856SOL    HW1 2567   2.831   0.235   1.982 -5.0515  2.3663  3.0332
  856SOL    HW2 2568   2.835   0.080   2.047 -4.0148  3.1941 -3.1854
  857SOL     OW 2569   0.423   0.620   2.133  0.0772  0.0309 -0.4193
  857SOL    HW1 2570   0.494   0.578   2.072  2.9029 -0.2055 -2.6733
  857SOL    HW2 2571   0.470   0.691   2.193  2.3559 -2.6329 -0.4197
  858SOL     OW 2572   3.018   1.472   2.312 -0.3343 -0.2008 -0.0910
  858SOL    HW1 2573   3.067   1.384   2.298 -0.5344 -0.2587 -0.2957
  858SOL    HW2 2574   3.032   1.512   2.405  2.5137  0.0651 -2.6667
  859SOL     OW 2575   2.014   2.825   0.617  0.5172  0.1802  0.0797
  859SOL    HW1 2576   2.005   2.757   0.543  2.0359 -0.6682  0.0862
  859SOL    HW2 2577   2.101   2.809   0.667 -1.8702  0.8196 -0.8514
  860SOL     OW 2578   1.835   0.245   0.077  0.2135  0.1951  0.0141
  860SOL    HW1 2579   1.803   0.179   0.004  0.5303 -2.1949 -1.1664
  860SOL    HW2 2580   1.806   0.341   0.060 -1.2053 -0.3119  1.8917
  861SOL     OW 2581   0.512   0.660   1.010 -0.8345 -0.4820 -0.1000
  861SOL    HW1 2582   0.591   0.615   0.961 -1.1028 -1.9290 -2.4189
  861SOL    HW2 2583   0.521   0.758   1.015  2.0258 -3.9173 -2.6774
  862SOL     OW 2584   1.625   0.508   1.846  0.1694  0.0845 -0.8812
  862SOL    HW1 2585   1.564   0.579   1.890 -0.6693 -1.8677 -2.9694
  862SOL    HW2 2586   1.570   0.441   1.797  2.9479  2.0091 -0.3418
  863SOL     OW 2587   3.087   1.792   0.958  0.0315 -0.7173  0.3172
  863SOL    HW1 2588   2.993   1.830   0.973 -0.0369  0.6820 -0.9431
  863SOL    HW2 2589   0.067   1.839   1.011 -0.3890  1.2308 -2.4168
  864SOL     OW 2590   2.361   3.025   1.825  0.3406 -0.0244 -0.0295
  864SOL    HW1 2591   2.415   3.005   1.738  2.3086 -0.8648 -0.5532
  864SOL    HW2 2592   2.378   2.959   1.900 -2.2181 -1.6952 -1.7050
  865SOL     OW 2593   1.021   0.461   1.221 -0.4199  0.5996  0.3370
  865SOL    HW1 2594   1.098   0.519   1.245  1.8575 -1.3872 -1.7628
  865SOL    HW2 2595   1.049   0.363   1.224 -0.0627 -1.2327  1.0059
  866SOL     OW 2596   2.500   2.613   0.632 -0.3298 -0.1520 -0.8235
  866SOL    HW1 2597   2.534   2.676   0.558 -2.2938 -1.6591  0.3498
  866SOL    HW2 2598   2.572   2.611   0.703 -4.3756 -0.6064 -0.7307
  867SOL     OW 2599   2.741   2.557   0.748 -0.7934  0.7862  0.1602
  867SOL    HW1 2600   2.737   2.513   0.840 -1.2614 -1.6231 -1.5636
  867SOL    HW2 2601   2.840   2.548   0.718 -0.0659  1.4738 -0.7248
  868SOL     OW 2602   1.278   1.858   2.424 -0.4672 -0.0715  0.0939
  868SOL    HW1 2603   1.326   1.799   2.355  0.4351  0.9760  0.8167
  868SOL    HW2 2604   1.283   1.955   2.402 -0.6776 -0.9954 -1.0971
  869SOL     OW 2605   2.035   1.517   0.344  0.1438 -0.1669 -0.0524
  869SOL    HW1 2606   1.983   1.431   0.320 -0.4674 -1.0853 -1.3679
  869SOL    HW2 2607   2.133   1.500   0.342  0.0279 -2.2250  0.1577
  870SOL     OW 2608   2.286   1.905   0.458 -0.1777  0.0036 -0.3796
  870SOL    HW1 2609   2.245   1.976   0.515  0.6630  1.0740  0.0602
  870SOL    HW2 2610   2.228   1.890   0.377 -1.2306 -0.8467  0.0012
  871SOL     OW 2611   2.902   1.154   1.566 -0.4075 -0.3093  1.1739
  871SOL    HW1 2612   2.949   1.240   1.538  2.5459  0.9005 -1.9432
  871SOL    HW2 2613   2.955   1.077   1.529  2.7918  0.6303  0.1157
  872SOL     OW 2614   0.625   1.813   2.629  0.0703  0.0535  0.1257
  872SOL    HW1 2615   0.576   1.851   2.548 -0.1358 -1.2198  0.1740
  872SOL    HW2 2616   0.555   1.768   2.693 -1.7117  0.6098  2.6027
  873SOL     OW 2617   0.409   2.660   1.953  0.0009 -0.1937 -0.4409
  873SOL    HW1 2618   0.336   2.611   2.001 -0.4263  0.7876  0.3370
  873SOL    HW2 2619   0.445   2.733   2.016 -0.5634  0.3120  2.2491
  874SOL     OW 2620   1.133   1.111   2.234  0.3461 -0.0168 -0.0717
  874SOL    HW1 2621   1.088   1.180   2.293 -0.6368  0.5369  1.6943
  874SOL    HW2 2622   1.165   1.030   2.290 -0.5901 -0.7893  0.5574
  875SOL     OW 2623   2.921   2.838   1.179  0.0871 -0.0482 -0.4629
  875SOL    HW1 2624   3.006   2.824   1.237  2.7789  0.6864 -0.5269
  875SOL    HW2 2625   2.916   2.928   1.138 -1.9963  1.1906  1.1482
  876SOL     OW 2626   0.977   1.276   0.872  0.1009 -0.2973 -0.1247
  876SOL    HW1 2627   1.054   1.296   0.936  0.1142  2.8551  2.3110
  876SOL    HW2 2628   0.922   1.363   0.856 -3.0527  2.7402 -0.3968
  877SOL     OW 2629   0.471   0.273   1.175  0.1121 -0.7660  0.0359
  877SOL    HW1 2630   0.448   0.364   1.219 -1.1803  4.2299  0.3086
  877SOL    HW2 2631   0.508   0.288   1.081  0.4787  1.9035  2.2862
  878SOL     OW 2632   2.780   1.759   2.747 -0.0898 -0.1632 -0.4233
  878SOL    HW1 2633   2.799   1.714   2.837  0.7461  2.4108  1.1791
  878SOL    HW2 2634   2.829   1.715   2.671  1.2254  2.8971 -1.5052
  879SOL     OW 2635   2.503   1.963   1.131 -0.4630 -0.0352  0.1672
  879SOL    HW1 2636   2.548   1.943   1.043  0.7733 -1.1013  1.0865
  879SOL    HW2 2637   2.521   2.058   1.165  0.2844 -3.3589 -0.2336
  880SOL     OW 2638   0.973   2.183   1.302 -0.1880  0.4343  0.2008
  880SOL    HW1 2639   0.981   2.197   1.402 -3.1497 -0.4870  0.4894
  880SOL    HW2 2640   1.059   2.180   1.249 -0.8072 -1.2183 -3.1119
  881SOL     OW 2641   1.573   1.874   1.209 -0.4064  0.3461  0.3523
  881SOL    HW1 2642   1.544   1.880   1.306  1.5075  1.7290  0.0654
  881SOL    HW2 2643   1.520   1.810   1.154  1.3124 -0.3579 -1.8968
  882SOL     OW 2644   2.216   1.284   2.636  0.4429 -0.1494 -0.2849
  882SOL    HW1 2645   2.259   1.204   2.583 -0.2678 -1.3680 -0.2892
  882SOL    HW2 2646   2.203   1.363   2.572 -0.4887  1.5081  0.0409
  883SOL     OW 2647   1.248   0.396   0.774  0.4060 -0.0391 -0.2575
  883SOL    HW1 2648   1.168   0.454   0.762  1.8457 -2.5220 -3.1085
  883SOL    HW2 2649   1.216   0.300   0.779  1.0282  3.5347  0.0198
  884SOL     OW 2650   0.133   2.951   0.865 -0.0006  0.1753 -0.3518
  884SOL    HW1 2651   0.100   2.855   0.873  1.4814  0.8876  0.5059
  884SOL    HW2 2652   0.185   2.987   0.945 -1.0707  0.9778  1.2240
  885SOL     OW 2653   1.078   1.094   1.727 -0.2770 -0.4535  0.7255
  885SOL    HW1 2654   1.069   1.032   1.646  1.5701  0.4655 -0.7027
  885SOL    HW2 2655   1.050   1.048   1.815 -1.3394 -0.5020 -1.2866
  886SOL     OW 2656   1.161   0.980   2.960  0.4309  0.0654  0.0886
  886SOL    HW1 2657   1.096   1.045   2.915 -0.0811 -0.4615 -0.2159
  886SOL    HW2 2658   1.249   0.979   2.909  0.3733  0.7350  2.0690
  887SOL     OW 2659   1.637   0.237   0.809 -0.1537  0.2453  0.0032
  887SOL    HW1 2660   1.663   0.324   0.852  1.3501 -0.0913 -2.8595
  887SOL    HW2 2661   1.685   0.163   0.858 -1.3027 -0.1714  0.2611
  888SOL     OW 2662   2.489   1.340   1.655 -0.1018 -0.0426 -0.1875
  888SOL    HW1 2663   2.582   1.354   1.699  0.6757  0.1780  0.9712
  888SOL    HW2 2664   2.411   1.327   1.723 -1.0283  1.4063 -0.3455
  889SOL     OW 2665   3.073   2.124   1.217  0.3074 -0.0719 -0.1899
  889SOL    HW1 2666   3.083   2.226   1.214 -1.5407  1.7963 -0.2140
  889SOL    HW2 2667   2.981   2.097   1.249 -2.1422 -0.7617 -2.4725
  890SOL     OW 2668   1.186   2.290   0.741  0.5141  0.5089 -0.7408
  890SOL    HW1 2669   1.153   2.271   0.648  0.5805 -0.2176 -1.2153
  890SOL    HW2 2670   1.112   2.313   0.805 -2.8589  0.1040  0.9551
  891SOL     OW 2671   2.784   0.585   2.113  0.0153  0.2277  0.8732
  891SOL    HW1 2672   2.804   0.643   2.194 -1.4750 -0.8627 -0.6824
  891SOL    HW2 2673   2.750   0.495   2.145  0.9883 -0.1417 -0.0785
  892SOL     OW 2674   0.252   2.497   1.596  0.0340  0.0897 -0.7665
  892SOL    HW1 2675   0.217   2.506   1.502  2.3536  0.5230  0.7380
  892SOL    HW2 2676   0.307   2.580   1.617  1.0319 -1.8117 -2.0828
  893SOL     OW 2677   0.850   0.408   1.792 -0.3018  0.2120  0.3654
  893SOL    HW1 2678   0.907   0.363   1.720  1.4597 -0.2454  0.7704
  893SOL    HW2 2679   0.910   0.463   1.853 -0.9524 -3.0252 -1.5511
  894SOL     OW 2680   2.787   0.231   0.785  0.2107  0.2686  0.4956
  894SOL    HW1 2681   2.843   0.291   0.843 -1.9842  1.9037 -5.0957
  894SOL    HW2 2682   2.688   0.244   0.805  0.1347  1.8003  1.5414
  895SOL     OW 2683   1.945   1.526   2.298 -0.3169 -0.1684  0.0554
  895SOL    HW1 2684   1.885   1.440   2.299  0.4704 -0.5598 -0.4335
  895SOL    HW2 2685   1.943   1.573   2.208  1.0893 -1.6859  0.8082
  896SOL     OW 2686   1.455   0.492   1.553  0.4656  0.2408 -0.1652
  896SOL    HW1 2687   1.529   0.479   1.486 -1.1759 -0.5829  1.8065
  896SOL    HW2 2688   1.377   0.544   1.512 -0.6342  1.0976 -0.7674
  897SOL     OW 2689   0.790   1.664   1.905  0.0270 -0.2071  0.2754
  897SOL    HW1 2690   0.864   1.732   1.892  0.0523  1.3640 -0.8671
  897SOL    HW2 2691   0.777   1.604   1.824 -0.8617 -0.9022  1.8484
  898SOL     OW 2692   1.735   1.820   2.091  0.4786 -0.0278  0.1176
  898SOL    HW1 2693   1.683   1.838   2.178 -1.3861  2.8998  2.7829
  898SOL    HW2 2694   1.828   1.851   2.105 -0.5394 -0.5767  0.2663
  899SOL     OW 2695   2.034   1.883   0.700 -0.3522 -0.2667 -0.6147
  899SOL    HW1 2696   2.103   1.861   0.763  0.7515 -0.1836 -0.3682
  899SOL    HW2 2697   2.019   1.809   0.627 -0.0336 -0.6292 -2.4094
  900SOL     OW 2698   1.003   0.270   2.638 -0.3260 -0.0498 -0.0269
  900SOL    HW1 2699   0.977   0.213   2.717  1.4729  0.6718 -0.8447
  900SOL    HW2 2700   0.946   0.246   2.558  1.7981  0.3413  1.5662
  901SOL     OW 2701   1.002   1.420   2.142  0.2064  0.0014 -0.1934
  901SOL    HW1 2702   1.006   1.516   2.163 -0.3087 -2.4208 -0.0611
  901SOL    HW2 2703   0.995   1.375   2.232  0.1877  1.7052  0.8912
  902SOL     OW 2704   1.759   0.521   0.038  0.4372 -0.8170  0.1508
  902SOL    HW1 2705   1.725   0.532   3.035  0.8451  0.0041  0.8893
  902SOL    HW2 2706   1.692   0.572   0.101 -2.2573 -0.3307  0.5664
  903SOL     OW 2707   2.071   0.767   2.560  0.2891  0.1847  0.2206
  903SOL    HW1 2708   2.078   0.851   2.501  1.3897  0.2105  0.7936
  903SOL    HW2 2709   2.081   0.679   2.506 -0.2872  0.0371 -1.5401
  904SOL     OW 2710   1.970   1.107   1.654  0.1040 -0.4991 -0.2764
  904SOL    HW1 2711   1.915   1.028   1.686  1.3476 -1.5934  0.2386
  904SOL    HW2 2712   2.054   1.110   1.718  1.6140  0.1887 -1.1832
  905SOL     OW 2713   2.087   0.398   0.807  0.3022 -0.1076  0.2515
  905SOL    HW1 2714   2.145   0.481   0.785  1.2255 -0.2472  0.8209
  905SOL    HW2 2715   2.112   0.351   0.892 -1.6933  0.4930  0.2416
  906SOL     OW 2716   2.683   1.617   0.455  0.1351  0.6447 -0.3678
  906SOL    HW1 2717   2.697   1.563   0.376 -4.2692  4.1174  3.7188
  906SOL    HW2 2718   2.626   1.696   0.430 -1.6525 -3.6541 -2.1220
  907SOL     OW 2719   1.355   0.053   0.389  0.1604 -0.3268 -0.1401
  907SOL    HW1 2720   1.384   0.083   0.485 -0.9903 -1.3222  1.5294
  907SOL    HW2 2721   1.334   3.045   0.385 -2.3564  1.2546 -1.5586
  908SOL     OW 2722   1.746   2.232   2.007  0.2140 -0.0969 -0.3208
  908SOL    HW1 2723   1.727   2.243   2.107 -0.8249 -4.1307 -1.0205
  908SOL    HW2 2724   1.816   2.294   1.972 -0.9237  0.2775 -0.1286
  909SOL     OW 2725   2.455   0.483   1.655 -0.7689 -0.4136 -0.8755
  909SOL    HW1 2726   2.501   0.482   1.746  1.5548  0.9524  1.7025
  909SOL    HW2 2727   2.361   0.512   1.668  1.8185 -0.5027  0.2933
  910SOL     OW 2728   1.262   0.155   2.512 -0.2590 -0.2927 -0.3588
  910SOL    HW1 2729   1.181   0.168   2.571  0.2373 -2.5521 -0.4303
  910SOL    HW2 2730   1.348   0.193   2.550  0.8126  2.4436 -2.7354
  911SOL     OW 2731   2.515   0.945   2.602  0.0134  0.1139  0.4652
  911SOL    HW1 2732   2.459   0.935   2.689  1.5897  0.8251 -2.1663
  911SOL    HW2 2733   2.593   0.880   2.604 -2.8418 -1.9124  2.8129
  912SOL     OW 2734   2.892   2.419   1.472  0.1705 -0.1736  0.2349
  912SOL    HW1 2735   2.808   2.363   1.500 -1.6961  2.0413  0.8872
  912SOL    HW2 2736   2.899   2.504   1.530 -0.2916  1.0631  0.0230
  913SOL     OW 2737   2.704   1.788   2.196  0.0330 -0.1574  0.4914
  913SOL    HW1 2738   2.686   1.827   2.291  0.9857 -2.5388  1.4069
  913SOL    HW2 2739   2.627   1.783   2.128 -1.1483 -0.9707 -0.5594
  914SOL     OW 2740   2.154   1.483   0.691  0.2238 -0.2181 -0.1122
  914SOL    HW1 2741   2.140   1.574   0.652 -0.9253  0.3052  2.0189
  914SOL    HW2 2742   2.114   1.410   0.630 -0.1828  0.6642  0.9023
  915SOL     OW 2743   0.863   2.569   2.030 -0.5123 -0.3416 -0.1311
  915SOL    HW1 2744   0.876   2.517   2.112 -0.3276  1.7444 -1.6005
  915SOL    HW2 2745   0.789   2.528   1.967 -2.1445 -0.7134 -2.7074
  916SOL     OW 2746   0.417   2.454   1.075  0.0565  0.4477  0.0040
  916SOL    HW1 2747   0.388   2.360   1.105 -0.9742 -1.2078 -0.4905
  916SOL    HW2 2748   0.380   2.464   0.978 -0.9456  1.1599  0.2794
  917SOL     OW 2749   2.436   0.835   2.838  0.1738 -0.2303 -0.4488
  917SOL    HW1 2750   2.363   0.781   2.793  0.5799 -1.5188  0.1988
  917SOL    HW2 2751   2.476   0.771   2.906 -0.4556  1.6775  0.6421
  918SOL     OW 2752   1.646   2.226   2.277  0.1597  0.2289 -0.0826
  918SOL    HW1 2753   1.702   2.253   2.359  0.7141  0.1296  2.3982
  918SOL    HW2 2754   1.631   2.130   2.279  1.0665  1.8224 -0.7722
  919SOL     OW 2755   1.869   2.106   0.919  0.4513 -0.7272  0.1263
  919SOL    HW1 2756   1.892   2.107   0.821  0.6027 -3.5589 -1.1078
  919SOL    HW2 2757   1.882   2.016   0.957 -0.1025  0.9282 -2.5990
  920SOL     OW 2758   1.313   0.376   2.319 -0.1905 -0.4748  0.0664
  920SOL    HW1 2759   1.297   0.289   2.365  2.1306  2.4546 -0.3906
  920SOL    HW2 2760   1.342   0.448   2.387  4.2214  1.3764  0.5881
  921SOL     OW 2761   0.189   0.580   2.735  0.2797 -0.2133 -0.1324
  921SOL    HW1 2762   0.250   0.629   2.665  0.5974  0.0883  0.5655
  921SOL    HW2 2763   0.103   0.544   2.692  1.5318  0.0973  0.6411
  922SOL     OW 2764   2.839   2.043   1.356  0.0630  0.8149 -0.2011
  922SOL    HW1 2765   2.877   2.070   1.447  0.9430  0.6711  1.1303
  922SOL    HW2 2766   2.782   1.957   1.362  1.6584 -4.2025  0.7025
  923SOL     OW 2767   3.043   1.866   2.456 -0.1091  0.1469  0.0555
  923SOL    HW1 2768   3.037   1.837   2.360  2.1358  1.5090  0.4326
  923SOL    HW2 2769   2.981   1.945   2.474  2.3501  1.8315 -1.6782
  924SOL     OW 2770   1.401   0.431   2.063 -0.5358 -0.0122 -0.4510
  924SOL    HW1 2771   1.439   0.340   2.042  0.5514  1.6205 -0.3597
  924SOL    HW2 2772   1.360   0.424   2.158 -2.1244 -0.5564 -2.7235
  925SOL     OW 2773   0.054   1.089   0.508  0.2045  0.1790  0.0574
  925SOL    HW1 2774   0.138   1.092   0.572  1.2815 -1.0454  1.5122
  925SOL    HW2 2775   3.054   1.098   0.559 -3.7718  1.4462  0.0015
  926SOL     OW 2776   2.209   0.295   1.044 -0.3328  0.1112  0.2612
  926SOL    HW1 2777   2.285   0.227   1.032  0.9478  0.7541 -1.7839
  926SOL    HW2 2778   2.240   0.359   1.117 -2.3275  0.3157  0.0059
  927SOL     OW 2779   1.325   0.916   0.938  0.6364 -0.1168  0.0697
  927SOL    HW1 2780   1.299   0.924   0.839 -1.4905  0.2145 -0.6514
  927SOL    HW2 2781   1.256   0.859   0.991 -0.3092 -0.8120  2.2465
  928SOL     OW 2782   2.914   0.393   1.980 -0.4032 -0.2998  0.2420
  928SOL    HW1 2783   2.871   0.470   2.037  0.7551 -0.1461  1.6003
  928SOL    HW2 2784   3.019   0.396   1.991  2.4459  2.2628 -0.4157
  929SOL     OW 2785   2.362   0.746   1.201  0.0182  0.0894  0.1174
  929SOL    HW1 2786   2.338   0.647   1.211  0.5621  1.4969  1.2496
  929SOL    HW2 2787   2.438   0.782   1.259 -0.6406 -2.4428 -1.0054
  930SOL     OW 2788   2.112   2.533   1.010 -0.2889  1.1823 -0.0609
  930SOL    HW1 2789   2.032   2.531   0.952  3.4833 -0.2295  2.1672
  930SOL    HW2 2790   2.075   2.537   1.101  0.3129 -0.7462  2.2586
  931SOL     OW 2791   1.781   0.993   1.157  0.5408  0.6879  0.1560
  931SOL    HW1 2792   1.730   1.080   1.164 -3.2044 -1.2335 -0.0069
  931SOL    HW2 2793   1.861   0.994   1.218 -2.2531  2.3607 -1.5220
  932SOL     OW 2794   3.075   0.939   1.459 -0.4994 -0.3715 -0.3344
  932SOL    HW1 2795   3.032   0.852   1.478  0.9729  0.8590  2.1603
  932SOL    HW2 2796   0.016   0.950   1.364 -0.9263  0.2160  0.2717
  933SOL     OW 2797   1.978   1.604   2.040  0.0348  0.1001 -0.1552
  933SOL    HW1 2798   2.009   1.515   2.003 -1.9301  0.2695 -2.1698
  933SOL    HW2 2799   1.926   1.663   1.974  1.0698  1.3417 -0.7931
  934SOL     OW 2800   1.581   2.769   1.877  0.3818 -0.5554  0.0148
  934SOL    HW1 2801   1.562   2.753   1.777  1.4270 -0.1100  0.0101
  934SOL    HW2 2802   1.523   2.847   1.909 -0.0238 -1.3896 -0.0801
  935SOL     OW 2803   0.107   1.034   1.186 -0.3596  0.1616  0.0563
  935SOL    HW1 2804   0.066   1.127   1.196 -1.6542  0.3364 -3.9643
  935SOL    HW2 2805   0.209   1.042   1.178  0.2893 -1.3507 -1.4946
  936SOL     OW 2806   2.511   0.496   1.397  0.7204 -0.0193  0.6191
  936SOL    HW1 2807   2.478   0.492   1.495 -0.0070  3.8332 -0.8603
  936SOL    HW2 2808   2.596   0.553   1.382 -0.8665  0.7353  0.6759
  937SOL     OW 2809   0.753   0.148   1.450  0.3100 -0.5337 -0.0654
  937SOL    HW1 2810   0.752   0.236   1.394  0.4865  0.1055 -0.9945
  937SOL    HW2 2811   0.707   0.164   1.538  0.9368 -1.2414  0.4521
  938SOL     OW 2812   0.315   2.468   0.798 -0.6157 -0.0316 -0.2873
  938SOL    HW1 2813   0.234   2.412   0.805  0.3936 -1.9899 -0.3311
  938SOL    HW2 2814   0.364   2.440   0.712  2.0099  0.7901 -0.1993
  939SOL     OW 2815   2.867   2.560   2.805 -0.4522  0.2449  0.2200
  939SOL    HW1 2816   2.942   2.594   2.745 -1.3460 -0.6115  1.6961
  939SOL    HW2 2817   2.847   2.626   2.881 -0.2493 -0.0591  0.5203
  940SOL     OW 2818   1.854   1.959   2.891  0.8591  0.1360  0.4792
  940SOL    HW1 2819   1.822   2.047   2.847  0.5503 -2.6003 -1.1453
  940SOL    HW2 2820   1.876   1.887   2.820  0.6571  1.2480  2.4064
  941SOL     OW 2821   1.923   2.529   0.783 -0.1231  0.0191 -0.5865
  941SOL    HW1 2822   1.928   2.456   0.707  2.2353 -2.5209 -1.4024
  941SOL    HW2 2823   1.966   2.614   0.744  0.6740 -1.4102  0.9996
  942SOL     OW 2824   1.933   1.820   0.994  0.3834 -0.6360 -0.6491
  942SOL    HW1 2825   2.020   1.789   0.956 -1.1992 -2.0974 -0.8519
  942SOL    HW2 2826   1.875   1.735   1.012  1.9831 -4.1400 -1.5618
  943SOL     OW 2827   1.979   0.852   1.791 -0.2587  0.9341 -0.3201
  943SOL    HW1 2828   1.898   0.795   1.762  0.1674  1.9476 -0.1619
  943SOL    HW2 2829   2.064   0.832   1.735  0.9865  1.0517  2.2369
  944SOL     OW 2830   1.361   0.839   1.740 -0.3849  0.3694  0.0488
  944SOL    HW1 2831   1.457   0.860   1.769 -0.6339 -2.2429 -1.4736
  944SOL    HW2 2832   1.344   0.872   1.646 -0.7025 -0.2486 -0.7415
  945SOL     OW 2833   2.698   2.718   1.271 -0.0585  0.0034  0.0223
  945SOL    HW1 2834   2.606   2.771   1.262 -1.0577  3.7924 -1.2856
  945SOL    HW2 2835   2.779   2.763   1.229  0.4491 -2.6025  0.8300
  946SOL     OW 2836   0.733   1.833   0.915  0.3318  0.3358  0.0879
  946SOL    HW1 2837   0.740   1.733   0.900 -2.5200  1.1320 -0.4596
  946SOL    HW2 2838   0.730   1.882   0.824 -3.2694  1.7801  0.9104
  947SOL     OW 2839   1.027   2.686   1.008 -0.1251  0.1283 -0.3807
  947SOL    HW1 2840   1.098   2.737   0.968 -4.1030 -3.0695  1.8887
  947SOL    HW2 2841   0.935   2.714   0.973  1.1309  1.3746  0.6203
  948SOL     OW 2842   0.386   1.633   1.690 -0.3328 -0.1601  0.4458
  948SOL    HW1 2843   0.453   1.558   1.657  3.0852 -0.8452 -0.7175
  948SOL    HW2 2844   0.413   1.667   1.781 -0.3295  0.2359 -1.5960
  949SOL     OW 2845   0.559   0.874   2.156 -0.0136 -0.4472 -0.1702
  949SOL    HW1 2846   0.654   0.906   2.177  0.5697  2.6424 -1.6269
  949SOL    HW2 2847   0.533   0.921   2.070  0.5521  1.6853  0.7636
  950SOL     OW 2848   0.367   0.549   1.247  0.4484 -0.2387 -0.6668
  950SOL    HW1 2849   0.351   0.635   1.307 -1.9026  0.0272  2.3818
  950SOL    HW2 2850   0.331   0.566   1.150  1.5339 -2.3584 -2.4751
  951SOL     OW 2851   1.244   1.750   2.079 -0.0176 -0.3796 -0.3692
  951SOL    HW1 2852   1.179   1.735   2.005  2.1152  1.6611  2.0136
  951SOL    HW2 2853   1.294   1.839   2.063  1.7457  1.5545  1.5373
  952SOL     OW 2854   1.167   1.666   0.201 -0.2694 -0.3893  0.2894
  952SOL    HW1 2855   1.193   1.650   0.299  0.7173 -1.5967  1.7100
  952SOL    HW2 2856   1.237   1.632   0.135  1.3655  2.5087  1.2319
  953SOL     OW 2857   0.924   0.105   2.837 -0.3701  0.2572  0.0820
  953SOL    HW1 2858   0.823   0.090   2.839  0.5523  1.3179  0.4630
  953SOL    HW2 2859   0.987   0.029   2.840 -0.8253  1.4986  0.1748
  954SOL     OW 2860   1.807   1.567   0.112 -0.0804 -0.1915  0.3171
  954SOL    HW1 2861   1.788   1.465   0.122  0.4001 -0.8824 -1.6051
  954SOL    HW2 2862   1.899   1.584   0.071 -0.7457 -1.0289 -2.1826
  955SOL     OW 2863   0.369   2.551   2.844 -0.1323 -0.7979  0.5878
  955SOL    HW1 2864   0.433   2.570   2.765 -1.1574  1.8021 -0.2395
  955SOL    HW2 2865   0.360   2.449   2.865  2.8944 -0.9388  1.1245
  956SOL     OW 2866   1.317   0.895   1.442  0.0110  0.1537  0.5061
  956SOL    HW1 2867   1.381   0.945   1.380 -1.2393  1.2705  0.5872
  956SOL    HW2 2868   1.230   0.942   1.473  0.6211 -1.7175  0.5928
  957SOL     OW 2869   1.640   1.683   1.867 -0.0358  0.0304  0.2082
  957SOL    HW1 2870   1.647   1.745   1.949 -1.5109 -0.9206 -0.0279
  957SOL    HW2 2871   1.552   1.706   1.814 -2.7830 -0.2091  2.1374
  958SOL     OW 2872   1.335   2.378   1.477 -0.3942 -0.0509  0.2722
  958SOL    HW1 2873   1.327   2.457   1.538  1.0309  0.6911 -1.2770
  958SOL    HW2 2874   1.430   2.357   1.450  0.3052  0.6794  0.2843
  959SOL     OW 2875   1.418   1.321   1.208 -0.0702  0.1395  0.7177
  959SOL    HW1 2876   1.438   1.246   1.143 -0.9796 -0.9739  2.0753
  959SOL    HW2 2877   1.396   1.280   1.300 -2.1452 -0.9178  1.1274
  960SOL     OW 2878   0.212   1.561   2.971  1.0484  0.2371 -0.2007
  960SOL    HW1 2879   0.213   1.526   3.066 -0.9703  0.9061 -1.3462
  960SOL    HW2 2880   0.272   1.507   2.909  0.3877  0.3461 -0.9364
  961SOL     OW 2881   0.609   1.460   2.211  0.7146 -0.1200 -0.0774
  961SOL    HW1 2882   0.597   1.451   2.314  0.6467 -1.5988  0.9416
  961SOL    HW2 2883   0.688   1.418   2.169 -2.9436  1.3420 -2.1305
  962SOL     OW 2884   1.379   1.822   0.841 -0.2893  0.9130  0.0991
  962SOL    HW1 2885   1.478   1.798   0.837  1.3080 -1.5903 -0.3629
  962SOL    HW2 2886   1.358   1.822   0.942  0.2050  0.5425  1.7377
  963SOL     OW 2887   1.571   2.074   2.542  0.2482  0.1405  0.5059
  963SOL    HW1 2888   1.485   2.119   2.501 -0.8354 -0.7571 -0.9170
  963SOL    HW2 2889   1.563   2.045   2.641 -0.2394  1.3709  1.0622
  964SOL     OW 2890   0.670   0.138   0.234  0.8995 -0.4380 -0.9906
  964SOL    HW1 2891   0.674   0.173   0.331  0.5473  0.9710  1.6062
  964SOL    HW2 2892   0.618   0.051   0.227  0.3634  3.8992  0.5702
  965SOL     OW 2893   0.500   2.810   1.022  0.1490 -0.3872 -0.2590
  965SOL    HW1 2894   0.584   2.755   1.013  0.6457 -1.8779 -0.7567
  965SOL    HW2 2895   0.513   2.914   1.032  1.1099  0.8993 -2.0970
  966SOL     OW 2896   0.442   1.724   2.820 -0.0610  0.1056  0.7683
  966SOL    HW1 2897   0.411   1.748   2.914 -0.7638  0.7658 -3.7889
  966SOL    HW2 2898   0.453   1.625   2.805 -0.5985  1.3358 -0.8091
  967SOL     OW 2899   0.387   2.771   2.358  0.2383 -0.4765  0.0820
  967SOL    HW1 2900   0.389   2.857   2.415  0.4369  3.0196  0.7025
  967SOL    HW2 2901   0.417   2.795   2.262  0.2703  1.8007 -2.2012
  968SOL     OW 2902   2.296   0.538   0.330  0.5021  0.3283  0.3323
  968SOL    HW1 2903   2.200   0.572   0.352 -3.4643 -1.3096 -1.3959
  968SOL    HW2 2904   2.310   0.533   0.229 -0.2113  4.0553  3.4390
  969SOL     OW 2905   0.115   1.734   2.014 -0.1494  0.4130  0.5356
  969SOL    HW1 2906   0.174   1.817   1.992  1.2545 -0.8448 -1.5893
  969SOL    HW2 2907   0.110   1.677   1.925 -0.9575 -2.2897  0.1085
  970SOL     OW 2908   2.482   1.418   1.402 -0.2202 -0.1203  0.1364
  970SOL    HW1 2909   2.577   1.403   1.362 -0.7369 -0.6257  1.9103
  970SOL    HW2 2910   2.480   1.375   1.493 -1.7241  0.9963 -3.6009
  971SOL     OW 2911   1.944   0.236   1.126  1.1274  0.0920 -0.3051
  971SOL    HW1 2912   2.044   0.233   1.102  1.4033 -0.7064  0.3982
  971SOL    HW2 2913   1.935   0.184   1.215  0.2694  1.9116  2.1868
  972SOL     OW 2914   0.251   3.053   1.702 -0.0046  0.1334 -0.2209
  972SOL    HW1 2915   0.244   3.012   1.797 -0.7986  0.8637  1.8502
  972SOL    HW2 2916   0.162   3.064   1.656  0.5927  0.5892  0.5644
  973SOL     OW 2917   2.639   0.675   0.125  0.2905  0.1157 -0.3499
  973SOL    HW1 2918   2.728   0.730   0.121  1.5581  2.0657 -2.9199
  973SOL    HW2 2919   2.606   0.651   0.032  0.6191  0.1370  0.2893
  974SOL     OW 2920   1.986   1.118   2.395 -0.3475  0.1033 -0.4397
  974SOL    HW1 2921   2.038   1.202   2.389 -0.2915 -0.5129 -0.1770
  974SOL    HW2 2922   2.039   1.037   2.372 -0.1366  0.3317  1.1445
  975SOL     OW 2923   0.112   2.837   1.561 -0.9901  0.5974  0.0787
  975SOL    HW1 2924   0.115   2.832   1.461 -2.0477 -0.4394  0.1260
  975SOL    HW2 2925   0.197   2.799   1.600  0.1994 -0.4092 -0.6024
  976SOL     OW 2926   0.319   1.900   1.924 -0.7244  0.2235 -0.5177
  976SOL    HW1 2927   0.360   1.977   1.872  0.0036  3.5113  3.0280
  976SOL    HW2 2928   0.398   1.843   1.963  0.1842  1.9456  1.7093
  977SOL     OW 2929   0.968   2.790   0.296  0.3696  0.1435  0.0535
  977SOL    HW1 2930   1.037   2.721   0.332 -0.1938 -1.5239  0.7144
  977SOL    HW2 2931   0.880   2.776   0.346  0.5191  0.4671 -1.3826
  978SOL     OW 2932   0.312   1.940   2.700 -0.0519 -0.3058 -0.4238
  978SOL    HW1 2933   0.270   1.944   2.608  0.9772  1.9183 -0.2392
  978SOL    HW2 2934   0.346   1.848   2.734 -1.0080 -3.5289  2.0378
  979SOL     OW 2935   1.632   2.432   1.141 -0.2476 -0.6368  0.1476
  979SOL    HW1 2936   1.677   2.513   1.094 -1.7662  2.4924 -0.3167
  979SOL    HW2 2937   1.690   2.353   1.114 -1.8269  2.0292 -1.4535
  980SOL     OW 2938   1.021   1.703   2.781 -0.1636  0.0666  0.2541
  980SOL    HW1 2939   1.053   1.690   2.684 -1.7514 -1.1351 -0.3087
  980SOL    HW2 2940   1.057   1.631   2.843  0.2465 -0.1926  1.9430
  981SOL     OW 2941   2.320   3.080   2.328 -0.2638 -0.1472  0.0725
  981SOL    HW1 2942   2.378   0.029   2.253 -1.5231 -0.5740  2.5273
  981SOL    HW2 2943   2.377   3.048   2.406 -0.6055  1.1718  1.8914
  982SOL     OW 2944   2.902   0.017   2.704  0.6020 -0.1227 -0.2221
  982SOL    HW1 2945   2.877   3.015   2.741  1.2069 -4.3137 -0.2509
  982SOL    HW2 2946   2.820   0.076   2.696 -0.4835  0.8041 -1.7403
  983SOL     OW 2947   2.093   1.378   1.954  0.1790 -0.7353  0.0644
  983SOL    HW1 2948   2.176   1.362   2.014 -2.5441 -0.7387  0.2841
  983SOL    HW2 2949   2.104   1.450   1.880 -0.6340 -0.2230 -2.2989
  984SOL     OW 2950   1.130   0.714   1.731  0.0438  0.1001  0.5988
  984SOL    HW1 2951   1.077   0.722   1.819  0.7247 -1.4959  0.9209
  984SOL    HW2 2952   1.216   0.773   1.724  0.5013  0.4566 -2.1193
  985SOL     OW 2953   1.638   1.418   1.925 -0.1112  0.2318  0.1681
  985SOL    HW1 2954   1.557   1.387   1.969  1.8616  0.0524  0.0209
  985SOL    HW2 2955   1.643   1.519   1.913  0.0073 -1.3027  1.5204
  986SOL     OW 2956   1.843   0.487   2.008 -0.1399 -0.8790 -0.0723
  986SOL    HW1 2957   1.925   0.544   1.989 -0.4753 -0.8622 -2.1554
  986SOL    HW2 2958   1.765   0.516   1.945 -1.7033  0.5343 -4.1672
  987SOL     OW 2959   2.085   0.568   1.917  0.4239 -0.3053  0.5279
  987SOL    HW1 2960   2.092   0.473   1.958 -1.9647 -0.9717 -1.3307
  987SOL    HW2 2961   2.125   0.568   1.821 -1.5288 -0.4559 -0.8977
  988SOL     OW 2962   2.755   0.746   1.884  0.1224  0.0667 -0.9118
  988SOL    HW1 2963   2.749   0.712   1.979  0.6968  0.2776  2.0398
  988SOL    HW2 2964   2.793   0.674   1.820  1.0100  0.5954 -1.3371
  989SOL     OW 2965   2.250   2.174   2.786  0.3361  0.4312  0.2648
  989SOL    HW1 2966   2.207   2.101   2.734 -0.8709  2.7593  0.4829
  989SOL    HW2 2967   2.181   2.208   2.856 -0.8917  0.1999  1.3165
  990SOL     OW 2968   1.201   0.435   2.687  0.2303  0.2691  0.1010
  990SOL    HW1 2969   1.120   0.382   2.661  3.8541 -1.1366 -1.5780
  990SOL    HW2 2970   1.172   0.531   2.701  0.6465 -1.0835  1.4319
  991SOL     OW 2971   1.148   0.806   0.344 -0.3312 -0.0738  0.0359
  991SOL    HW1 2972   1.192   0.898   0.330 -0.5425  0.9958  0.8988
  991SOL    HW2 2973   1.151   0.758   0.257  3.2049  1.4455  0.5250
  992SOL     OW 2974   2.510   1.898   2.763  0.6084  0.3391 -0.0062
  992SOL    HW1 2975   2.601   1.857   2.769 -1.9124 -2.5867  0.7022
  992SOL    HW2 2976   2.502   1.977   2.698 -0.8401 -0.8206 -3.0139
  993SOL     OW 2977   0.197   0.283   0.227  0.5354 -0.1091 -0.8675
  993SOL    HW1 2978   0.277   0.344   0.242 -1.2246 -2.3498 -0.6824
  993SOL    HW2 2979   0.112   0.316   0.273  0.1905 -0.0717 -0.2258
  994SOL     OW 2980   0.335   2.124   2.149 -0.5170 -0.7438  0.7084
  994SOL    HW1 2981   0.387   2.210   2.141  2.8418 -0.4369  0.5195
  994SOL    HW2 2982   0.346   2.067   2.063  0.7757 -2.4067 -1.6828
  995SOL     OW 2983   1.952   1.290   2.791 -0.4702 -0.0596 -0.3206
  995SOL    HW1 2984   1.871   1.235   2.774  3.1935  1.3021  0.3403
  995SOL    HW2 2985   2.033   1.246   2.742 -0.1619  0.5941 -2.7377
  996SOL     OW 2986   1.623   1.620   2.771 -0.3751 -0.3300 -0.5314
  996SOL    HW1 2987   1.660   1.532   2.733  2.0065 -2.8380  2.3093
  996SOL    HW2 2988   1.566   1.668   2.703 -0.5862 -2.5886  3.3658
  997SOL     OW 2989   2.198   1.432   1.413  0.2028 -0.4947 -0.1522
  997SOL    HW1 2990   2.297   1.432   1.428  0.0962 -0.6458 -0.6158
  997SOL    HW2 2991   2.171   1.418   1.316  0.1076 -1.7586 -1.0847
  998SOL     OW 2992   2.754   1.202   3.013  0.5535  0.3833 -0.6226
  998SOL    HW1 2993   2.665   1.183   3.058 -0.0398  3.5706  1.8376
  998SOL    HW2 2994   2.823   1.229   3.086 -0.7972  0.6127 -1.1949
  999SOL     OW 2995   2.861   2.357   0.486 -0.5489  0.0294  0.2822
  999SOL    HW1 2996   2.762   2.343   0.518 -1.1231 -2.6935  2.2200
  999SOL    HW2 2997   2.866   2.424   0.411  0.0802 -1.7490  2.2817
 1000SOL     OW 2998   0.691   2.936   1.789 -0.4150 -0.0019  0.3899
 1000SOL    HW1 2999   0.620   2.985   1.844 -1.5270 -0.2710 -0.8265
 1000SOL    HW2 3000   0.777   2.927   1.842 -0.5399  1.4444 -1.5139
   3.09178   3.09178   3.09178
