1000 SPC/Fw water molecules t=  69.00000 step= 69000
 3000
    1SOL     OW    1   2.106   2.693   0.819 -0.3461  0.9346 -0.1081
    1SOL    HW1    2   2.037   2.725   0.757 -0.0233  1.2263  0.0377
    1SOL    HW2    3   2.190   2.752   0.810  1.6454 -0.2306  1.2973
    2SOL     OW    4   0.894   1.242   2.481 -0.4055  0.2683 -0.1368
    2SOL    HW1    5   0.832   1.222   2.557  1.1944  0.6675  1.1573
    2SOL    HW2    6   0.941   1.333   2.499  0.3339  0.1900 -2.2579
    3SOL     OW    7   1.458   2.700   2.555 -0.2166 -0.4838 -0.4098
    3SOL    HW1    8   1.503   2.742   2.635 -1.6952 -0.2679  1.0657
    3SOL    HW2    9   1.480   2.601   2.555 -1.1588  1.0372  1.5322
    4SOL     OW   10   1.161   1.832   2.831 -0.1594  0.8169  0.0196
    4SOL    HW1   11   1.206   1.894   2.764  0.2521 -1.8179 -0.6373
    4SOL    HW2   12   1.226   1.762   2.858  0.4358 -1.9451 -1.6965
    5SOL     OW   13   0.767   0.665   1.896  0.4036  0.1123 -0.5369
    5SOL    HW1   14   0.869   0.664   1.877 -0.2636  0.5228  0.2223
    5SOL    HW2   15   0.741   0.672   1.995 -2.9608  3.5988  0.9781
    6SOL     OW   16   1.793   0.678   2.479  0.3154 -0.0487  0.2055
    6SOL    HW1   17   1.778   0.748   2.412 -0.5750 -0.3040  3.3713
    6SOL    HW2   18   1.751   0.592   2.450  1.1568 -0.9264  0.3708
    7SOL     OW   19   0.311   0.330   1.553 -0.3948 -0.4697  0.0676
    7SOL    HW1   20   0.226   0.373   1.516  1.0611 -1.8024  2.9450
    7SOL    HW2   21   0.308   0.331   1.658 -4.0264  1.2951  0.1132
    8SOL     OW   22   2.019   3.037   1.833  0.0535  0.4419  0.5150
    8SOL    HW1   23   1.950   2.999   1.896 -0.1747 -0.6083 -0.1023
    8SOL    HW2   24   2.014   0.030   1.848  1.1982 -1.5839 -0.4823
    9SOL     OW   25   0.214   2.939   0.724 -0.2381 -0.0734  0.2688
    9SOL    HW1   26   0.282   2.993   0.773 -1.5122 -2.1270  0.5927
    9SOL    HW2   27   0.204   2.987   0.636  1.5281  0.7911  0.9564
   10SOL     OW   28   0.607   2.259   2.406  0.7751 -0.3851 -0.2198
   10SOL    HW1   29   0.688   2.297   2.355 -0.3844  0.4639  0.2592
   10SOL    HW2   30   0.523   2.294   2.363 -1.0750  0.1402 -0.6200
   11SOL     OW   31   0.645   1.627   0.173  0.6351 -0.1823  0.0999
   11SOL    HW1   32   0.612   1.551   0.110  0.9592  0.8776  0.1245
   11SOL    HW2   33   0.622   1.597   0.266 -0.2210  0.0577  0.6195
   12SOL     OW   34   2.933   2.843   1.494  0.2717  0.1675 -0.0664
   12SOL    HW1   35   2.893   2.892   1.415  1.0480  0.9346  1.7186
   12SOL    HW2   36   3.010   2.784   1.469 -4.7365  0.4807  1.5412
   13SOL     OW   37   0.781   2.848   0.247 -0.2341 -0.3776 -0.4876
   13SOL    HW1   38   0.805   2.896   0.160 -0.3818  0.4414 -0.8768
   13SOL    HW2   39   0.709   2.781   0.225  0.5996  1.5337  0.0185
   14SOL     OW   40   1.574   1.774   1.269 -0.0553 -0.0388  0.0136
   14SOL    HW1   41   1.504   1.746   1.339  0.8431  0.7122 -2.5803
   14SOL    HW2   42   1.653   1.717   1.283 -1.3263 -3.3162  1.6961
   15SOL     OW   43   0.425   1.814   2.515  0.0985  0.1786  0.0682
   15SOL    HW1   44   0.493   1.878   2.470 -0.2501  4.7530  1.8438
   15SOL    HW2   45   0.373   1.870   2.582 -0.1296 -0.0936 -1.4432
   16SOL     OW   46   1.517   0.520   2.700 -0.2775  0.2677  0.1566
   16SOL    HW1   47   1.539   0.592   2.629 -1.7948  3.1604  0.9762
   16SOL    HW2   48   1.572   0.546   2.782  0.1917  2.4662 -0.7558
   17SOL     OW   49   3.079   2.443   2.395 -0.0198 -0.2965  0.2210
   17SOL    HW1   50   0.004   2.530   2.439  1.2713 -0.9347 -0.5536
   17SOL    HW2   51   0.050   2.399   2.335  1.1444  0.4028  2.1962
   18SOL     OW   52   1.089   1.302   0.782  0.2784 -0.4994 -0.0311
   18SOL    HW1   53   1.096   1.400   0.808 -2.1308 -0.1322 -0.8914
   18SOL    HW2   54   1.114   1.244   0.856  1.5419  5.3801 -1.2468
   19SOL     OW   55   2.780   1.933   2.413  0.1510  0.2132 -0.4262
   19SOL    HW1   56   2.854   1.869   2.418 -0.6487  4.0406 -1.6013
   19SOL    HW2   57   2.774   1.990   2.499  2.8232 -0.4657  2.3864
   20SOL     OW   58   2.551   2.224   2.425 -0.3939 -0.1228 -0.1901
   20SOL    HW1   59   2.601   2.257   2.346  2.0160  2.6088 -0.5209
   20SOL    HW2   60   2.463   2.277   2.432  1.4914 -0.8803 -0.2193
   21SOL     OW   61   1.411   1.820   0.312  0.3108  0.1125  0.1256
   21SOL    HW1   62   1.436   1.727   0.336 -2.0066  2.5300 -2.5832
   21SOL    HW2   63   1.412   1.879   0.395  1.5040  0.3463  0.5688
   22SOL     OW   64   2.209   2.226   1.488  0.6964  0.2789  0.3282
   22SOL    HW1   65   2.256   2.290   1.430  0.8761 -3.7379 -0.9809
   22SOL    HW2   66   2.155   2.153   1.442  0.3715  0.9767 -1.1607
   23SOL     OW   67   0.025   1.139   1.256  0.0246 -0.0777 -0.2524
   23SOL    HW1   68   3.105   1.228   1.219 -2.0343 -1.0162  2.1584
   23SOL    HW2   69   3.103   1.075   1.177 -0.2075 -0.3686 -5.1349
   24SOL     OW   70   2.458   1.454   1.962 -0.0361  0.3857 -0.2604
   24SOL    HW1   71   2.495   1.431   1.868  0.2570 -0.4756 -0.5842
   24SOL    HW2   72   2.436   1.368   2.014 -1.7240 -2.5852  0.3172
   25SOL     OW   73   2.025   0.196   2.336  0.0054 -0.1696 -0.1874
   25SOL    HW1   74   2.099   0.259   2.364 -0.5357 -0.9015  2.4714
   25SOL    HW2   75   2.058   0.097   2.332 -0.5709 -1.3307 -0.6768
   26SOL     OW   76   1.042   0.029   0.410  0.7718  0.3893 -0.2496
   26SOL    HW1   77   1.014   0.106   0.350  0.6717  0.1439 -1.8538
   26SOL    HW2   78   1.135   0.051   0.444 -0.8056 -0.0756  0.2630
   27SOL     OW   79   0.897   1.633   0.656  1.0418  0.1318  0.2287
   27SOL    HW1   80   0.840   1.681   0.588 -0.6122 -2.3465  2.3692
   27SOL    HW2   81   0.843   1.585   0.728 -2.4544  2.2209 -0.1273
   28SOL     OW   82   2.440   2.133   1.074  0.1019 -0.2239 -0.1739
   28SOL    HW1   83   2.350   2.170   1.097  0.3129  0.5093 -0.3083
   28SOL    HW2   84   2.495   2.204   1.034 -1.4939  1.0923 -1.3335
   29SOL     OW   85   2.204   0.083   1.578 -0.0599  0.1243 -0.0141
   29SOL    HW1   86   2.149   3.103   1.560 -1.2014  0.1172 -0.3088
   29SOL    HW2   87   2.230   0.083   1.677  0.5734  0.3944 -2.0948
   30SOL     OW   88   0.846   2.961   1.144  0.0540 -0.0054  0.4012
   30SOL    HW1   89   0.799   2.883   1.181  1.3417  1.0301  1.3635
   30SOL    HW2   90   0.884   3.015   1.218 -1.3203  2.4161 -3.5010
   31SOL     OW   91   3.014   1.941   1.926  0.0431  0.0649  0.4354
   31SOL    HW1   92   3.098   1.881   1.937  1.4660 -1.0234 -0.7621
   31SOL    HW2   93   2.928   1.907   1.970  2.2756 -0.5483  1.2695
   32SOL     OW   94   1.382   1.632   2.110  0.0781 -0.4121 -0.2543
   32SOL    HW1   95   1.387   1.678   2.021 -0.0237 -1.9926  0.3155
   32SOL    HW2   96   1.468   1.574   2.124  2.5600  0.3966  0.4362
   33SOL     OW   97   0.364   0.181   3.004  0.1301 -0.1231  0.0987
   33SOL    HW1   98   0.327   0.273   2.969 -0.6466  0.2954 -1.5009
   33SOL    HW2   99   0.434   0.144   2.939 -1.8089 -2.3830 -0.0013
   34SOL     OW  100   2.583   3.030   0.504 -0.3365 -0.3170  1.0732
   34SOL    HW1  101   2.544   3.068   0.593  1.1194  0.2328 -0.7363
   34SOL    HW2  102   2.614   2.933   0.518 -0.5791  0.2303 -1.7310
   35SOL     OW  103   2.660   0.266   1.400 -0.4886  0.2270  0.1010
   35SOL    HW1  104   2.647   0.277   1.497  1.1333  1.7524 -0.6755
   35SOL    HW2  105   2.573   0.245   1.347 -2.6124  0.8730  0.3343
   36SOL     OW  106   2.783   2.878   2.530 -0.6588  0.0233 -0.1937
   36SOL    HW1  107   2.680   2.890   2.517 -0.1473 -2.3184  0.5123
   36SOL    HW2  108   2.829   2.840   2.446 -1.7693 -1.0653 -1.3096
   37SOL     OW  109   1.662   2.624   3.031 -0.5054 -0.1542 -0.8661
   37SOL    HW1  110   1.659   2.719   2.994  0.9956 -0.6684  0.8672
   37SOL    HW2  111   1.589   2.608   3.100 -1.1023 -2.0927 -1.0809
   38SOL     OW  112   3.018   1.083   0.107 -0.0664  0.4664 -0.0893
   38SOL    HW1  113   2.970   1.167   0.081 -1.3927 -1.7696  1.7089
   38SOL    HW2  114   3.036   1.068   0.206  0.1562 -0.5090  0.1220
   39SOL     OW  115   1.790   1.694   2.073 -0.1671 -0.2570  0.5791
   39SOL    HW1  116   1.756   1.780   2.112  3.6916 -2.0207 -2.3854
   39SOL    HW2  117   1.728   1.622   2.092  1.4757  2.6615  0.0550
   40SOL     OW  118   0.263   0.382   2.529 -0.1239  0.2154  0.6906
   40SOL    HW1  119   0.190   0.344   2.592  2.1699  1.1005 -0.5991
   40SOL    HW2  120   0.348   0.390   2.588 -1.9419 -0.0438  2.9225
   41SOL     OW  121   1.763   1.314   1.895 -0.3394  0.1248  0.1404
   41SOL    HW1  122   1.714   1.287   1.982 -2.5098  0.8445  0.8278
   41SOL    HW2  123   1.726   1.396   1.856 -1.7563 -0.2976  2.0074
   42SOL     OW  124   3.012   0.271   1.591 -0.0590 -0.3265  0.0115
   42SOL    HW1  125   2.976   0.209   1.518  2.0022 -2.6523  3.1291
   42SOL    HW2  126   3.068   0.346   1.550  0.3623  2.5455 -1.4409
   43SOL     OW  127   1.417   1.411   1.781  0.2836 -0.4968  0.0570
   43SOL    HW1  128   1.316   1.416   1.781  0.6870 -1.3484 -0.4116
   43SOL    HW2  129   1.449   1.320   1.811  0.3854  2.2352 -0.7813
   44SOL     OW  130   0.072   0.275   0.156  0.3911  0.0129  0.3151
   44SOL    HW1  131   0.134   0.352   0.124  1.6316  2.3416 -4.0847
   44SOL    HW2  132   0.085   0.193   0.097 -0.7424 -2.5112  1.4227
   45SOL     OW  133   0.364   2.061   0.965  0.1327 -0.1455 -0.7857
   45SOL    HW1  134   0.298   2.094   1.033 -2.9525 -1.3536 -1.3690
   45SOL    HW2  135   0.334   1.978   0.916  4.9498  1.9046 -0.3879
   46SOL     OW  136   2.484   2.967   1.816 -0.5299 -0.4771  0.2051
   46SOL    HW1  137   2.434   3.053   1.793 -0.1657  0.5615 -1.2941
   46SOL    HW2  138   2.530   2.984   1.908  1.8706  0.3657  1.1684
   47SOL     OW  139   0.682   1.608   1.194 -0.1492 -0.1550 -0.1549
   47SOL    HW1  140   0.713   1.515   1.173 -0.2893 -0.2886  1.6046
   47SOL    HW2  141   0.678   1.664   1.105  2.7248 -0.1102 -1.8628
   48SOL     OW  142   0.523   2.694   0.205  0.0327  0.7761  0.1457
   48SOL    HW1  143   0.470   2.778   0.232  2.0299  1.6941  0.0400
   48SOL    HW2  144   0.454   2.616   0.201 -1.0960 -0.6937 -0.4425
   49SOL     OW  145   2.890   1.559   1.738 -0.1833 -0.2167 -0.0993
   49SOL    HW1  146   2.834   1.574   1.821  0.3597 -3.1057 -3.5222
   49SOL    HW2  147   2.962   1.495   1.761 -0.1763  1.7612  1.5865
   50SOL     OW  148   1.667   0.335   0.554 -0.2546  0.6453 -0.2587
   50SOL    HW1  149   1.691   0.388   0.468  0.1412  1.1409 -1.4092
   50SOL    HW2  150   1.633   0.392   0.635 -0.2818  1.2411  1.3760
   51SOL     OW  151   1.183   0.640   1.141 -0.2999  0.2804 -0.2939
   51SOL    HW1  152   1.160   0.706   1.067 -3.4158 -0.0559  2.3508
   51SOL    HW2  153   1.143   0.548   1.129 -1.0861  2.1372 -0.1038
   52SOL     OW  154   0.831   1.148   0.541 -0.3041  0.3067 -0.0467
   52SOL    HW1  155   0.775   1.075   0.493  0.7350  0.6165 -2.0021
   52SOL    HW2  156   0.783   1.201   0.611  2.8058  1.4237 -1.4638
   53SOL     OW  157   1.276   3.054   2.416 -0.2460 -0.3784 -0.0460
   53SOL    HW1  158   1.293   3.067   2.515  1.3003 -1.3773 -0.5689
   53SOL    HW2  159   1.290   2.956   2.389 -0.5087 -0.5681  0.7330
   54SOL     OW  160   1.735   0.633   1.685  0.1269 -0.1064  0.1493
   54SOL    HW1  161   1.698   0.592   1.601  0.0348  0.3630  0.3839
   54SOL    HW2  162   1.838   0.641   1.686  2.9821  2.3507  2.4806
   55SOL     OW  163   3.051   2.703   0.423 -0.1252  0.0826 -0.0354
   55SOL    HW1  164   3.036   2.603   0.410 -0.3484  0.0617 -0.6699
   55SOL    HW2  165   3.008   2.731   0.510  2.4038  0.5930 -0.1895
   56SOL     OW  166   1.262   2.681   1.796 -0.6757  0.0223 -0.1836
   56SOL    HW1  167   1.274   2.764   1.853 -2.3658  0.2425 -0.4078
   56SOL    HW2  168   1.219   2.698   1.707  0.4386  2.8440  0.4331
   57SOL     OW  169   1.574   0.949   2.525 -0.2506 -0.4124 -0.6247
   57SOL    HW1  170   1.555   0.969   2.628 -3.8575  0.2546  2.9983
   57SOL    HW2  171   1.565   0.850   2.503  3.6797  1.3475  1.5178
   58SOL     OW  172   0.222   1.257   2.058 -0.5808 -0.0477  0.4221
   58SOL    HW1  173   0.230   1.274   1.958 -1.4593 -5.9207  3.1888
   58SOL    HW2  174   0.173   1.168   2.072 -0.7781 -3.1577 -1.8938
   59SOL     OW  175   0.636   2.442   1.993 -0.1363  0.8784 -0.0939
   59SOL    HW1  176   0.635   2.348   1.951  1.4922 -2.5249  0.4444
   59SOL    HW2  177   0.706   2.435   2.070  1.8442 -2.2087  0.3888
   60SOL     OW  178   2.434   2.425   0.239 -0.4076  0.2430 -0.0663
   60SOL    HW1  179   2.463   2.328   0.231 -0.6085 -0.1443  1.2658
   60SOL    HW2  180   2.441   2.471   0.152  0.8889 -0.1542  0.8237
   61SOL     OW  181   1.030   2.793   0.700  0.3665  0.3977  0.3839
   61SOL    HW1  182   1.041   2.700   0.655  0.1849  2.0932  0.8258
   61SOL    HW2  183   0.976   2.849   0.637  2.6212 -0.8479  4.2112
   62SOL     OW  184   1.682   2.308   2.617  0.1040  0.1442  0.0917
   62SOL    HW1  185   1.738   2.267   2.541  2.0964 -1.8027  1.2882
   62SOL    HW2  186   1.704   2.268   2.706  1.6211 -1.7728  0.6673
   63SOL     OW  187   2.116   0.638   2.815 -0.3553  0.0234  0.1825
   63SOL    HW1  188   2.183   0.622   2.741 -1.5753  0.4844  2.1091
   63SOL    HW2  189   2.152   0.689   2.899  0.3940  0.6283  1.5544
   64SOL     OW  190   1.344   1.541   0.145  0.0446 -0.3369  0.6470
   64SOL    HW1  191   1.365   1.637   0.128 -2.2519 -2.5799 -0.7203
   64SOL    HW2  192   1.267   1.543   0.210  5.0967 -2.2426 -2.0006
   65SOL     OW  193   0.960   3.097   1.356 -0.4305  0.3310  0.4529
   65SOL    HW1  194   1.041   3.050   1.396 -3.0679  0.1368 -1.2538
   65SOL    HW2  195   0.954   0.089   1.386 -0.4616 -1.5634 -3.9141
   66SOL     OW  196   0.712   1.272   1.455  0.4263 -0.1234 -0.3386
   66SOL    HW1  197   0.723   1.187   1.505  1.6962  0.7358 -1.0450
   66SOL    HW2  198   0.806   1.313   1.448  1.8084 -0.4889  2.2697
   67SOL     OW  199   2.475   2.425   1.812 -0.5283 -0.4772  0.6359
   67SOL    HW1  200   2.488   2.487   1.891 -0.4005 -1.4866  2.0932
   67SOL    HW2  201   2.550   2.450   1.746 -0.3066 -1.1561  0.0498
   68SOL     OW  202   1.006   1.130   2.016 -0.2868 -0.5128  0.1353
   68SOL    HW1  203   1.000   1.117   2.115  2.0854 -2.6787 -0.5180
   68SOL    HW2  204   0.911   1.117   1.977 -1.9725  0.0515 -0.9100
   69SOL     OW  205   2.691   2.520   0.052  1.0006 -0.1589  0.8237
   69SOL    HW1  206   2.713   2.587   0.122 -2.0060  1.3750 -2.0553
   69SOL    HW2  207   2.588   2.526   0.030 -2.1926 -2.8700 -1.2226
   70SOL     OW  208   2.487   0.613   2.611 -0.4724 -0.1410  0.1058
   70SOL    HW1  209   2.534   0.526   2.643 -0.5767  0.9871 -4.0658
   70SOL    HW2  210   2.496   0.697   2.673  0.4113 -0.1106  0.9279
   71SOL     OW  211   3.099   2.205   0.409  0.1796 -0.2860  0.2400
   71SOL    HW1  212   3.046   2.140   0.360  2.4921 -1.2947  0.0444
   71SOL    HW2  213   0.071   2.232   0.346  0.8572  1.0517 -0.7435
   72SOL     OW  214   2.951   1.995   0.279  1.0358  0.5393  0.0628
   72SOL    HW1  215   2.898   1.906   0.282  0.1083 -1.7069 -0.7265
   72SOL    HW2  216   2.956   2.031   0.183 -0.0741 -1.0057 -1.1093
   73SOL     OW  217   0.916   0.631   0.842  0.0763 -0.0313 -0.5365
   73SOL    HW1  218   0.963   0.615   0.928  0.3362 -0.2406 -2.1878
   73SOL    HW2  219   0.829   0.680   0.860 -0.9085  0.1375  1.6785
   74SOL     OW  220   2.616   2.335   2.162 -0.0852  0.1154  0.0852
   74SOL    HW1  221   2.540   2.272   2.140  0.1965 -0.5234 -2.3755
   74SOL    HW2  222   2.704   2.302   2.126 -0.2328  0.8887 -0.4862
   75SOL     OW  223   1.888   1.705   1.825  0.2804  0.6286 -0.1985
   75SOL    HW1  224   1.869   1.675   1.922 -1.3226 -2.9524  2.5986
   75SOL    HW2  225   1.820   1.663   1.757  0.6565 -3.1396 -0.9909
   76SOL     OW  226   1.212   2.085   1.083  0.0967  0.2581 -0.9910
   76SOL    HW1  227   1.269   2.007   1.120  3.1727 -2.2675 -2.5182
   76SOL    HW2  228   1.119   2.054   1.060  1.3759 -3.4390  1.1040
   77SOL     OW  229   2.770   1.575   1.968 -0.1039  0.3277 -0.4265
   77SOL    HW1  230   2.735   1.499   2.029 -0.4424  3.2280  1.0490
   77SOL    HW2  231   2.793   1.655   2.027 -1.2241 -1.8425 -2.9538
   78SOL     OW  232   1.629   0.502   0.817  0.3419  0.1400 -0.3732
   78SOL    HW1  233   1.645   0.416   0.870 -0.7466 -1.5409 -2.5059
   78SOL    HW2  234   1.556   0.557   0.853 -0.3467 -0.2088 -1.9970
   79SOL     OW  235   2.035   1.313   1.815 -0.2530  0.4317  0.3294
   79SOL    HW1  236   2.106   1.307   1.889  2.6504 -0.1634 -2.2701
   79SOL    HW2  237   1.942   1.330   1.848  0.4836 -1.7130  0.4017
   80SOL     OW  238   1.097   0.425   1.412  0.0702  0.1286 -0.3971
   80SOL    HW1  239   1.124   0.434   1.316 -1.6433  0.9061  1.9034
   80SOL    HW2  240   1.169   0.375   1.466 -1.6182  0.7248 -2.0332
   81SOL     OW  241   0.681   2.524   0.821 -0.0569 -0.1480 -0.5098
   81SOL    HW1  242   0.657   2.622   0.829  0.4867  1.3459 -0.7447
   81SOL    HW2  243   0.775   2.509   0.779  2.3141  0.4608 -1.2679
   82SOL     OW  244   1.339   0.403   1.852 -0.5770  0.4819  0.2352
   82SOL    HW1  245   1.432   0.440   1.876  1.8727 -2.1998  1.1676
   82SOL    HW2  246   1.299   0.344   1.924 -3.2074  0.2075  2.0285
   83SOL     OW  247   0.321   2.383   0.659  0.1835  0.2183 -0.1147
   83SOL    HW1  248   0.306   2.309   0.586 -0.7004 -0.1048  0.4223
   83SOL    HW2  249   0.279   2.347   0.745 -3.1681 -0.1497  2.7789
   84SOL     OW  250   2.698   1.408   3.039 -0.1361  0.0050 -0.0905
   84SOL    HW1  251   2.777   1.355   3.071 -1.0968  2.4635  3.4020
   84SOL    HW2  252   2.712   1.510   3.058  1.0669  0.5510 -0.9240
   85SOL     OW  253   2.908   2.325   1.641 -0.1510 -0.7812 -0.5606
   85SOL    HW1  254   2.830   2.267   1.618 -1.9133 -0.9231  0.6372
   85SOL    HW2  255   2.966   2.288   1.716  0.8379 -0.1739  1.3574
   86SOL     OW  256   1.668   2.640   1.246  0.1864 -0.0491  0.4475
   86SOL    HW1  257   1.765   2.611   1.278 -0.1051 -1.6645  2.0458
   86SOL    HW2  258   1.662   2.639   1.144 -1.7181 -0.9699  0.2814
   87SOL     OW  259   2.807   1.751   0.279 -0.0048 -0.4035 -0.7024
   87SOL    HW1  260   2.751   1.819   0.322 -1.1724 -1.2440 -0.9609
   87SOL    HW2  261   2.754   1.706   0.205  1.4624  2.3600  5.7335
   88SOL     OW  262   1.064   0.418   1.068  0.5052  0.3609  0.0558
   88SOL    HW1  263   0.961   0.405   1.080  0.3181 -0.0310 -0.1640
   88SOL    HW2  264   1.110   0.334   1.029  0.6127 -1.2214 -0.2097
   89SOL     OW  265   0.828   2.902   1.772  0.0873 -0.1508 -0.2027
   89SOL    HW1  266   0.794   2.978   1.833 -2.3880  0.9877  1.5354
   89SOL    HW2  267   0.796   2.815   1.818 -0.0733 -0.5358  3.4727
   90SOL     OW  268   3.089   1.640   1.009  0.0385 -0.4937 -0.3028
   90SOL    HW1  269   3.006   1.607   0.958 -2.2049  3.0833 -4.2794
   90SOL    HW2  270   3.076   1.739   1.037 -0.2463 -2.2209 -0.8708
   91SOL     OW  271   1.353   1.845   1.130 -0.5518  0.0601  0.5275
   91SOL    HW1  272   1.441   1.819   1.170  0.3914 -1.5396 -0.3476
   91SOL    HW2  273   1.294   1.756   1.119 -1.1119  0.9653 -2.0712
   92SOL     OW  274   2.805   0.029   1.923 -0.3273  0.0247  0.1688
   92SOL    HW1  275   2.734   0.098   1.939  1.9080  0.7319  3.2328
   92SOL    HW2  276   2.884   0.069   1.871  1.1238  1.0556 -3.4330
   93SOL     OW  277   0.190   1.236   2.744 -0.2084  0.2256  0.4698
   93SOL    HW1  278   0.248   1.204   2.818  0.8128  1.0303 -0.7980
   93SOL    HW2  279   0.240   1.217   2.657 -1.0913  2.5796  2.3028
   94SOL     OW  280   2.320   0.089   1.846  0.2942 -0.4477 -0.3085
   94SOL    HW1  281   2.279   0.073   1.940  0.7199  0.3220  0.4487
   94SOL    HW2  282   2.387   0.166   1.842  1.3613  0.8341 -1.8296
   95SOL     OW  283   1.542   0.801   2.120 -0.2942 -0.3097  0.1100
   95SOL    HW1  284   1.446   0.793   2.150  0.1507  0.9831 -2.7399
   95SOL    HW2  285   1.555   0.825   2.023  0.1695  0.4479  1.6343
   96SOL     OW  286   2.829   0.670   1.728 -0.1260  0.0467  0.3735
   96SOL    HW1  287   2.911   0.666   1.793  3.3380  0.8838  1.0319
   96SOL    HW2  288   2.827   0.754   1.671  0.4213 -0.5405  0.2294
   97SOL     OW  289   2.288   3.082   1.331  0.1283 -0.2873  0.1176
   97SOL    HW1  290   2.255   0.017   1.417  1.3136 -1.2275 -0.2420
   97SOL    HW2  291   2.288   2.983   1.327  0.7711  2.0451 -0.4278
   98SOL     OW  292   2.185   2.679   1.447 -0.1379 -0.4453  0.1587
   98SOL    HW1  293   2.245   2.710   1.520 -0.7120  1.6597  1.1348
   98SOL    HW2  294   2.100   2.634   1.485 -2.0336 -0.3229 -0.4359
   99SOL     OW  295   2.503   0.338   1.647  0.2133  0.0968 -0.1539
   99SOL    HW1  296   2.435   0.317   1.575  2.5641  1.9827  3.4789
   99SOL    HW2  297   2.517   0.440   1.656  0.2663 -0.5908 -1.2184
  100SOL     OW  298   2.334   1.701   2.064 -0.2064  0.1807 -0.1017
  100SOL    HW1  299   2.368   1.608   2.034  0.4594 -1.2254  0.1952
  100SOL    HW2  300   2.246   1.698   2.117 -1.6545 -0.4779 -2.2283
  101SOL     OW  301   2.312   0.102   3.067  0.1030 -0.0891 -0.4733
  101SOL    HW1  302   2.314   0.004   3.094 -1.3670 -2.0581  0.9925
  101SOL    HW2  303   2.224   0.144   3.091  0.3347  1.0553  1.8954
  102SOL     OW  304   0.798   0.431   1.107 -0.0681 -0.0958  0.2580
  102SOL    HW1  305   0.755   0.378   1.183 -2.0255 -0.7189  1.9758
  102SOL    HW2  306   0.721   0.469   1.055  1.4613 -1.7259  0.8634
  103SOL     OW  307   2.843   0.209   2.327 -0.5161  0.5777 -0.5542
  103SOL    HW1  308   2.752   0.208   2.369  0.2816  2.4294  1.2543
  103SOL    HW2  309   2.885   0.116   2.322  0.4571  2.1037 -0.5014
  104SOL     OW  310   3.085   2.946   1.708 -0.7807 -0.2639  0.3042
  104SOL    HW1  311   3.038   2.921   1.622  0.6554  2.2921  2.6358
  104SOL    HW2  312   3.107   2.862   1.761 -3.5389 -0.2256 -2.9439
  105SOL     OW  313   1.420   1.147   1.939 -0.2778  0.2179 -0.2550
  105SOL    HW1  314   1.357   1.171   2.017 -3.0128  0.4937 -1.7393
  105SOL    HW2  315   1.415   1.056   1.894  1.6932 -0.0796 -1.2061
  106SOL     OW  316   1.842   0.671   0.817 -0.0878 -0.0868  0.2656
  106SOL    HW1  317   1.824   0.687   0.917  1.2267  0.4222 -3.0559
  106SOL    HW2  318   1.765   0.620   0.775  1.7800 -0.5302 -0.6609
  107SOL     OW  319   0.613   0.856   1.320  0.2987 -0.3318  0.5055
  107SOL    HW1  320   0.537   0.804   1.366  0.8920 -0.4902  0.2554
  107SOL    HW2  321   0.682   0.791   1.292  0.3334  1.0896 -0.2184
  108SOL     OW  322   3.062   0.570   2.303 -0.1714 -0.0829 -0.4262
  108SOL    HW1  323   3.009   0.572   2.217  1.0778 -0.3505  2.2546
  108SOL    HW2  324   3.026   0.503   2.376 -1.1057 -0.6187  2.2360
  109SOL     OW  325   1.939   0.118   2.697  0.0779  0.2189  0.3291
  109SOL    HW1  326   2.031   0.152   2.719  0.7309 -0.0522 -0.0824
  109SOL    HW2  327   1.949   0.032   2.646  0.6726 -1.4885  0.4701
  110SOL     OW  328   0.062   1.835   2.783 -0.4449  0.6713  0.0914
  110SOL    HW1  329   3.071   1.845   2.790  2.6968  0.2562  2.6559
  110SOL    HW2  330   0.102   1.858   2.875  0.8609  0.9012 -0.8465
  111SOL     OW  331   2.802   0.573   2.650  0.2337 -0.5745  0.3881
  111SOL    HW1  332   2.727   0.515   2.684 -1.3473  0.7104  0.9412
  111SOL    HW2  333   2.856   0.528   2.576  1.3131 -2.0915 -1.2749
  112SOL     OW  334   2.808   2.663   0.980 -0.5022 -0.0521 -0.0553
  112SOL    HW1  335   2.803   2.572   1.032 -0.8167 -0.9698  0.6990
  112SOL    HW2  336   2.879   2.726   1.024  1.0149  0.5518 -0.6873
  113SOL     OW  337   2.121   2.133   2.033 -0.4435 -0.0334 -0.2215
  113SOL    HW1  338   2.025   2.168   2.032 -2.9955 -1.7793 -0.5708
  113SOL    HW2  339   2.147   2.098   2.128 -0.4437 -2.6595  1.9633
  114SOL     OW  340   2.839   3.100   0.412  0.5473  0.2885  0.0326
  114SOL    HW1  341   2.752   3.051   0.417  3.2433 -0.6052  0.2677
  114SOL    HW2  342   2.836   0.085   0.461  0.0912  0.7314  3.0302
  115SOL     OW  343   2.728   1.681   3.040  0.4177 -0.0330  0.0262
  115SOL    HW1  344   2.825   1.709   3.073  3.2840 -1.5802  2.4145
  115SOL    HW2  345   2.727   1.684   2.938 -1.1022  0.0421 -1.8200
  116SOL     OW  346   3.052   1.374   1.828  0.0872 -0.0661 -0.3304
  116SOL    HW1  347   0.019   1.394   1.760 -0.8746  0.7300 -3.0328
  116SOL    HW2  348   3.076   1.400   1.924 -0.2266 -0.4774 -2.1882
  117SOL     OW  349   2.041   0.293   1.011 -0.2178  0.3509 -0.0576
  117SOL    HW1  350   2.028   0.190   0.995  0.1675  0.1981  0.1820
  117SOL    HW2  351   2.018   0.317   1.102 -1.2327 -0.3421 -2.8072
  118SOL     OW  352   3.032   2.213   1.868  0.1940  0.5351 -0.0114
  118SOL    HW1  353   3.002   2.123   1.914 -0.9911  1.1957  2.7675
  118SOL    HW2  354   0.027   2.202   1.852  1.4520  0.9897  0.9431
  119SOL     OW  355   0.919   1.921   1.324  0.3645 -0.1280  0.5096
  119SOL    HW1  356   0.883   2.019   1.328 -1.7085 -1.4578  0.4397
  119SOL    HW2  357   0.852   1.854   1.373  0.7275 -1.2888  3.0629
  120SOL     OW  358   0.425   1.508   1.285 -0.1060  0.7185 -0.1240
  120SOL    HW1  359   0.362   1.546   1.356  2.6286 -1.9505  0.0561
  120SOL    HW2  360   0.493   1.580   1.255  3.2435 -0.3151  0.2776
  121SOL     OW  361   2.002   1.351   1.160  0.4927  0.5088 -0.1904
  121SOL    HW1  362   1.912   1.398   1.132  0.3343  2.0904  0.3473
  121SOL    HW2  363   2.042   1.383   1.246  0.5677  1.4135 -0.3851
  122SOL     OW  364   2.027   1.880   2.596  0.5628 -0.0162  0.3531
  122SOL    HW1  365   1.955   1.822   2.553  0.1134 -1.6174  0.0082
  122SOL    HW2  366   2.015   1.981   2.582 -1.2420 -1.2888 -0.3312
  123SOL     OW  367   3.073   2.977   0.376 -0.2132 -0.1886 -0.0651
  123SOL    HW1  368   2.988   3.030   0.355 -0.4139  0.6076  1.8967
  123SOL    HW2  369   3.046   2.878   0.391  1.9392 -1.9065  0.7694
  124SOL     OW  370   0.966   1.131   0.276  0.2429 -0.0008  0.2186
  124SOL    HW1  371   0.921   1.137   0.369 -1.9193 -1.7901  2.0941
  124SOL    HW2  372   0.927   1.194   0.211  1.8249  2.0724  2.2957
  125SOL     OW  373   0.123   1.447   2.253  0.2390  0.0728  0.2505
  125SOL    HW1  374   0.171   1.535   2.281  1.5921  2.3328 -0.5287
  125SOL    HW2  375   0.180   1.385   2.201 -0.3038  2.8649 -0.0595
  126SOL     OW  376   0.088   2.731   0.035 -0.1708  0.6678 -0.6072
  126SOL    HW1  377   0.079   2.830   0.054  1.7764 -0.9586  0.0284
  126SOL    HW2  378   0.127   2.692   0.119 -0.3516 -0.6784  2.2006
  127SOL     OW  379   2.988   1.688   0.481  0.4835 -0.1461  0.0447
  127SOL    HW1  380   2.927   1.682   0.400  2.1266  0.3712 -1.2862
  127SOL    HW2  381   2.950   1.618   0.548  0.8423 -0.1324 -0.7033
  128SOL     OW  382   1.238   1.071   0.705 -0.4834  0.0789 -0.2622
  128SOL    HW1  383   1.250   1.171   0.716  0.0483  1.0408 -0.0711
  128SOL    HW2  384   1.318   1.019   0.673 -1.0429  1.0536  0.2572
  129SOL     OW  385   2.065   2.088   1.281 -0.0017  0.3424  0.1248
  129SOL    HW1  386   2.082   2.002   1.236 -0.1859  0.8728  0.7051
  129SOL    HW2  387   1.976   2.093   1.321  1.3426 -1.4890 -2.3164
  130SOL     OW  388   1.931   1.106   0.714  0.4345 -0.0731 -0.5047
  130SOL    HW1  389   1.849   1.162   0.738 -0.1006 -0.5483  0.2135
  130SOL    HW2  390   2.005   1.115   0.784  1.0015 -1.4425  0.4987
  131SOL     OW  391   2.838   1.159   2.742 -0.4441 -0.1339  0.2220
  131SOL    HW1  392   2.783   1.161   2.830 -0.3860 -1.1024  0.6285
  131SOL    HW2  393   2.776   1.166   2.663  1.9388  0.5819 -1.3217
  132SOL     OW  394   1.617   1.225   2.103 -0.3318 -0.0594  0.0787
  132SOL    HW1  395   1.614   1.160   2.179 -1.9640  1.4870 -2.3234
  132SOL    HW2  396   1.539   1.203   2.038 -2.2587  0.0999  0.9739
  133SOL     OW  397   3.029   1.018   0.361 -0.4157 -0.1219 -0.2215
  133SOL    HW1  398   2.961   0.947   0.342  1.6573 -0.6440  1.2169
  133SOL    HW2  399   3.050   1.044   0.458  4.4579  0.5589  2.0878
  134SOL     OW  400   2.583   0.942   0.497 -0.1617 -0.3264  0.3182
  134SOL    HW1  401   2.619   0.965   0.403 -1.3195  1.2452  1.8212
  134SOL    HW2  402   2.511   1.007   0.520 -0.0569 -2.8933 -1.4125
  135SOL     OW  403   1.789   0.945   2.875 -0.1793  0.3432  0.2615
  135SOL    HW1  404   1.794   0.859   2.822 -0.9715  2.6509 -1.0351
  135SOL    HW2  405   1.821   0.936   2.972  0.3339 -1.2161 -1.0422
  136SOL     OW  406   1.807   1.986   1.837  0.0153 -0.0223 -0.1036
  136SOL    HW1  407   1.823   1.887   1.812 -3.3241  2.0029  0.8276
  136SOL    HW2  408   1.705   1.997   1.844  0.0738 -1.9785  0.4852
  137SOL     OW  409   2.584   2.565   0.431  0.1545 -0.1427 -0.0064
  137SOL    HW1  410   2.569   2.526   0.523 -1.5501  1.7990 -1.7621
  137SOL    HW2  411   2.532   2.521   0.354  1.5318  0.4014 -3.3325
  138SOL     OW  412   2.316   0.375   1.415  0.2419  0.0327  0.4501
  138SOL    HW1  413   2.229   0.335   1.444  2.3258 -1.6945  0.5528
  138SOL    HW2  414   2.359   0.313   1.347  3.3230  0.1804  1.5086
  139SOL     OW  415   2.622   0.129   2.462 -0.2597 -0.2595 -0.2408
  139SOL    HW1  416   2.552   0.174   2.522 -1.1420  1.6709  1.0043
  139SOL    HW2  417   2.695   0.111   2.531  0.3703 -1.6256 -0.8160
  140SOL     OW  418   1.073   1.800   2.012  0.7280  0.0851 -0.3823
  140SOL    HW1  419   1.066   1.731   2.085  2.7886  1.8238 -1.4426
  140SOL    HW2  420   1.169   1.822   1.983 -1.2450  0.7767 -2.1563
  141SOL     OW  421   0.767   0.449   2.419  0.1289 -0.6149 -0.2724
  141SOL    HW1  422   0.678   0.503   2.414 -1.3673  1.4215  0.8855
  141SOL    HW2  423   0.827   0.472   2.340 -0.5075  0.3999 -0.8649
  142SOL     OW  424   2.817   2.743   2.783  0.4537  0.1273 -0.0831
  142SOL    HW1  425   2.731   2.740   2.836  0.9116 -0.8152  1.6627
  142SOL    HW2  426   2.813   2.776   2.690  1.3553  0.9109  3.4034
  143SOL     OW  427   1.022   2.030   0.333 -0.5499 -0.3158  0.3745
  143SOL    HW1  428   1.084   2.101   0.307 -0.6404 -1.6202  2.0104
  143SOL    HW2  429   1.005   2.028   0.432 -1.5582 -0.7104 -2.0220
  144SOL     OW  430   1.464   2.566   0.103  0.0664  0.7052  0.3308
  144SOL    HW1  431   1.403   2.574   0.019  0.0606  0.6906 -0.2461
  144SOL    HW2  432   1.408   2.570   0.185  1.9166 -0.5346  0.5730
  145SOL     OW  433   1.540   1.975   2.677 -0.1524 -0.2467  0.1909
  145SOL    HW1  434   1.633   1.987   2.718 -1.4784 -1.5686 -1.1421
  145SOL    HW2  435   1.551   1.937   2.581  0.3052 -0.9973 -1.5339
  146SOL     OW  436   2.597   0.010   2.778  0.4247 -0.0960  0.2112
  146SOL    HW1  437   2.597   3.051   2.854  2.7659 -0.2522 -2.5913
  146SOL    HW2  438   2.687   0.029   2.730  0.3586  0.6887 -2.9755
  147SOL     OW  439   2.738   1.201   1.011  0.1161  0.2531  0.0181
  147SOL    HW1  440   2.753   1.187   1.111 -1.3954  0.6615 -0.3303
  147SOL    HW2  441   2.673   1.278   0.989  3.3274  0.3069  0.6862
  148SOL     OW  442   2.243   2.735   0.081 -0.4516  0.0601  0.4758
  148SOL    HW1  443   2.216   2.701   0.176 -1.5140  1.6347  0.5850
  148SOL    HW2  444   2.163   2.751   0.025  2.7897 -1.5469  0.6410
  149SOL     OW  445   0.624   1.805   2.822 -0.6761  0.0381 -0.3686
  149SOL    HW1  446   0.665   1.733   2.882 -0.8892 -0.6068 -2.5854
  149SOL    HW2  447   0.645   1.772   2.727  0.1782  0.8948 -0.4532
  150SOL     OW  448   0.353   2.576   0.486  0.2663  1.1313 -0.4795
  150SOL    HW1  449   0.440   2.618   0.519  0.0058 -3.4714 -0.5986
  150SOL    HW2  450   0.327   2.501   0.549  1.3461  0.3704 -1.9860
  151SOL     OW  451   0.428   1.092   0.338 -0.3096  0.3605  0.3419
  151SOL    HW1  452   0.373   1.012   0.354  0.6886  0.5165  1.1149
  151SOL    HW2  453   0.389   1.169   0.388  1.8207 -0.3506  0.0867
  152SOL     OW  454   2.661   2.029   0.406 -0.4610 -0.3152 -0.3622
  152SOL    HW1  455   2.710   2.057   0.490 -0.0909 -1.1041  0.3797
  152SOL    HW2  456   2.579   1.977   0.420  0.7262  0.9302 -0.4652
  153SOL     OW  457   1.817   2.426   0.703  0.7675  0.6181 -0.4506
  153SOL    HW1  458   1.726   2.438   0.750 -2.7406  4.0740 -1.4858
  153SOL    HW2  459   1.811   2.368   0.618 -1.7819  0.5631  1.8412
  154SOL     OW  460   0.960   2.641   1.161  0.7543  0.0286 -0.2475
  154SOL    HW1  461   0.997   2.717   1.104  1.6504 -2.1891  0.4736
  154SOL    HW2  462   0.880   2.588   1.125  0.9949  0.1919 -1.1508
  155SOL     OW  463   2.857   1.858   0.682  0.4849  0.8020 -0.4979
  155SOL    HW1  464   2.752   1.874   0.677 -0.4211 -0.1107 -1.8847
  155SOL    HW2  465   2.894   1.805   0.604 -2.4225  0.1087 -0.7777
  156SOL     OW  466   2.739   2.325   2.948 -0.0190 -0.4425 -0.0892
  156SOL    HW1  467   2.676   2.295   2.870  1.2788  1.9876  0.0805
  156SOL    HW2  468   2.702   2.388   3.018  2.7271 -0.7157  1.6032
  157SOL     OW  469   0.566   2.068   1.503 -0.2563  0.0243  0.2429
  157SOL    HW1  470   0.610   2.104   1.419 -0.4794 -1.2050  0.1554
  157SOL    HW2  471   0.473   2.025   1.493 -0.9283  0.2678  1.1602
  158SOL     OW  472   1.483   0.256   0.206  0.1645  0.0873 -0.5767
  158SOL    HW1  473   1.571   0.257   0.162 -3.4061 -0.5814  0.9084
  158SOL    HW2  474   1.479   0.185   0.281 -0.4519 -2.6081  0.2392
  159SOL     OW  475   1.377   0.685   0.345 -0.0140  0.4560 -0.3348
  159SOL    HW1  476   1.402   0.588   0.371 -0.2479 -0.9297 -0.8527
  159SOL    HW2  477   1.276   0.692   0.348 -0.8358  1.8013 -1.5714
  160SOL     OW  478   0.714   1.288   0.731 -0.5882 -0.3312  0.1036
  160SOL    HW1  479   0.652   1.266   0.809 -2.7570 -1.4978 -2.0184
  160SOL    HW2  480   0.761   1.372   0.752 -0.6860 -0.9142 -0.5638
  161SOL     OW  481   0.098   2.635   2.600 -0.8506  0.0756 -0.2237
  161SOL    HW1  482   0.063   2.642   2.695 -1.7990 -2.3246  0.3844
  161SOL    HW2  483   0.192   2.592   2.596 -0.4648 -0.1899 -0.1102
  162SOL     OW  484   0.204   2.177   1.159  0.7531 -0.4182  0.3076
  162SOL    HW1  485   0.104   2.186   1.172  1.6616 -0.5569 -3.5274
  162SOL    HW2  486   0.249   2.264   1.188  2.1465  0.9496  2.8065
  163SOL     OW  487   3.086   0.478   2.836 -0.2535  0.3959 -0.2304
  163SOL    HW1  488   3.088   0.575   2.812  1.9629  0.6101  0.1931
  163SOL    HW2  489   3.030   0.468   2.916  2.3219 -0.9778 -1.6166
  164SOL     OW  490   0.343   0.001   2.442  0.0682  0.2290  0.1233
  164SOL    HW1  491   0.421   3.084   2.510  0.0680 -0.9073  1.8912
  164SOL    HW2  492   0.256   3.075   2.488 -0.3014  1.4590  1.0650
  165SOL     OW  493   2.404   0.824   1.665 -0.1643  0.2806 -0.4915
  165SOL    HW1  494   2.340   0.817   1.588  2.9418 -1.3003 -1.6809
  165SOL    HW2  495   2.465   0.902   1.662 -0.5224 -0.5369  0.2134
  166SOL     OW  496   1.955   2.109   1.639  0.2920  0.0858  0.5115
  166SOL    HW1  497   2.051   2.120   1.666  0.6482  1.0766 -0.9290
  166SOL    HW2  498   1.892   2.066   1.711 -0.8854  5.0524 -0.3660
  167SOL     OW  499   0.632   0.966   2.484 -0.4266 -0.4260  0.0360
  167SOL    HW1  500   0.682   0.924   2.404  1.3209  0.7476 -0.5190
  167SOL    HW2  501   0.690   0.963   2.568  0.0030 -0.6483 -2.1275
  168SOL     OW  502   2.269   0.046   2.111 -0.1056  0.0702 -0.1398
  168SOL    HW1  503   2.303   0.124   2.167  1.8012  2.3409 -1.3860
  168SOL    HW2  504   2.195   3.100   2.155  1.9658 -2.3056 -0.1438
  169SOL     OW  505   0.251   0.850   0.330  0.2379 -0.2632 -0.1415
  169SOL    HW1  506   0.317   0.774   0.330 -2.6846  1.5196  0.9043
  169SOL    HW2  507   0.203   0.850   0.242 -0.6275  1.7502  2.3090
  170SOL     OW  508   0.317   1.244   1.808 -0.3352  0.5590  0.6913
  170SOL    HW1  509   0.337   1.145   1.782 -0.9035 -1.4968 -0.5556
  170SOL    HW2  510   0.379   1.304   1.751  0.6581  1.1781 -1.8056
  171SOL     OW  511   1.163   2.214   1.771 -0.4587  0.4121  0.9489
  171SOL    HW1  512   1.090   2.217   1.698  2.5783  1.5905 -2.2703
  171SOL    HW2  513   1.233   2.284   1.746 -1.1785  0.8273  1.0143
  172SOL     OW  514   1.454   2.735   2.041  0.3428 -0.3849  0.0793
  172SOL    HW1  515   1.377   2.795   2.046  1.3609 -1.4030  0.9579
  172SOL    HW2  516   1.489   2.718   2.131 -3.5141  0.8760 -0.0885
  173SOL     OW  517   1.312   2.600   0.727 -0.0589  0.3784 -0.3109
  173SOL    HW1  518   1.341   2.516   0.682 -0.4663  0.6973 -0.9216
  173SOL    HW2  519   1.360   2.611   0.821  1.9665  0.1985  5.7220
  174SOL     OW  520   2.386   3.085   0.341  0.2750  0.4320  0.2851
  174SOL    HW1  521   2.460   3.069   0.408  1.5230  0.6752  1.1654
  174SOL    HW2  522   2.368   0.078   0.332 -0.2702 -0.4270 -0.1227
  175SOL     OW  523   1.036   1.438   0.536  0.1807  0.5735 -0.3068
  175SOL    HW1  524   0.965   1.501   0.569  0.9567 -6.0279 -0.5268
  175SOL    HW2  525   1.027   1.348   0.584 -1.1977  1.4002  1.4489
  176SOL     OW  526   0.768   1.801   0.476 -0.3121  0.0360  0.3473
  176SOL    HW1  527   0.753   1.890   0.428 -2.7597 -1.0382  0.3430
  176SOL    HW2  528   0.691   1.738   0.458  2.0058  0.8617  1.4050
  177SOL     OW  529   1.168   1.295   1.609  0.5193  0.2431  0.6886
  177SOL    HW1  530   1.157   1.320   1.709  0.8656  2.9609  0.9175
  177SOL    HW2  531   1.230   1.219   1.584 -0.5380  2.4189 -0.3993
  178SOL     OW  532   2.445   1.829   0.470 -0.6585  0.1058 -0.1495
  178SOL    HW1  533   2.373   1.887   0.428 -0.7241  0.1153  1.5589
  178SOL    HW2  534   2.420   1.733   0.477  0.4114  1.7858 -0.0123
  179SOL     OW  535   1.260   2.539   3.030 -0.0483 -0.0798 -0.1874
  179SOL    HW1  536   1.276   2.561   2.935  0.2000  0.2509  3.3020
  179SOL    HW2  537   1.260   2.439   3.046  1.3826 -1.3024  0.9655
  180SOL     OW  538   2.020   1.484   2.181  0.5530 -0.2632 -0.1538
  180SOL    HW1  539   2.043   1.577   2.208 -0.4954 -1.6230 -0.6383
  180SOL    HW2  540   2.100   1.443   2.134 -0.6502  2.0306 -0.0816
  181SOL     OW  541   0.814   0.878   2.707  0.2609  0.7916 -0.2304
  181SOL    HW1  542   0.897   0.904   2.655 -0.7407  2.1389  1.3538
  181SOL    HW2  543   0.848   0.840   2.794 -2.0316 -1.9522  2.4909
  182SOL     OW  544   2.878   1.159   2.341  0.3323 -0.4286  0.5940
  182SOL    HW1  545   2.803   1.142   2.410  0.7787  0.1332 -1.1910
  182SOL    HW2  546   2.963   1.177   2.393 -1.7142 -0.6879  2.4126
  183SOL     OW  547   1.381   0.510   2.226 -0.1472 -0.2621  0.1600
  183SOL    HW1  548   1.326   0.468   2.302 -2.4715  0.9620  0.9661
  183SOL    HW2  549   1.317   0.536   2.152  0.1512 -1.3013 -3.4855
  184SOL     OW  550   0.604   0.500   1.774  0.0710 -0.5146 -0.8111
  184SOL    HW1  551   0.665   0.569   1.814 -1.8395  1.5342  0.6138
  184SOL    HW2  552   0.598   0.506   1.676 -1.3565 -0.5360  2.3580
  185SOL     OW  553   2.122   1.775   0.542 -0.1623  0.3072 -0.2658
  185SOL    HW1  554   2.145   1.855   0.608  0.2202  0.9368 -1.5212
  185SOL    HW2  555   2.086   1.693   0.596 -3.4614 -0.7937  1.1068
  186SOL     OW  556   0.275   1.950   0.307 -0.1490 -0.1193 -0.4962
  186SOL    HW1  557   0.353   1.904   0.260 -1.4369  1.1326 -0.2400
  186SOL    HW2  558   0.204   1.879   0.325 -1.8243 -2.0456 -0.6792
  187SOL     OW  559   2.017   2.048   0.381  0.7406 -0.0193  0.0720
  187SOL    HW1  560   2.011   2.140   0.427  2.1777  1.9921 -0.1048
  187SOL    HW2  561   1.975   2.052   0.286 -0.6744  0.6232  0.3103
  188SOL     OW  562   0.924   2.237   1.018  0.4952 -0.2240  0.2734
  188SOL    HW1  563   0.972   2.247   1.108 -0.9783 -1.8996 -0.3878
  188SOL    HW2  564   0.826   2.256   1.032  1.5895 -0.5010 -1.2540
  189SOL     OW  565   2.268   1.302   2.767  0.0152  0.3324 -0.2116
  189SOL    HW1  566   2.300   1.337   2.858 -0.3775  1.8392 -1.5398
  189SOL    HW2  567   2.348   1.313   2.706 -2.0623 -2.4002  1.0730
  190SOL     OW  568   1.019   2.354   2.029  0.7418  0.5305  0.1593
  190SOL    HW1  569   1.015   2.254   2.011  2.0038  1.6770  1.9927
  190SOL    HW2  570   0.967   2.371   2.114 -0.9225  1.1633 -2.7769
  191SOL     OW  571   2.531   0.831   1.391 -0.1505  0.3219  0.7993
  191SOL    HW1  572   2.541   0.869   1.296  1.0393 -0.4225  2.1025
  191SOL    HW2  573   2.575   0.739   1.395 -0.3590 -3.5933 -2.1257
  192SOL     OW  574   2.573   0.590   1.675 -0.1869 -0.1831 -0.0301
  192SOL    HW1  575   2.507   0.659   1.709  1.2765  1.4085 -1.1093
  192SOL    HW2  576   2.659   0.609   1.727 -0.1291  3.1149 -1.9141
  193SOL     OW  577   0.639   0.028   0.307  0.5972 -0.2748  0.3482
  193SOL    HW1  578   0.664   0.106   0.365 -1.2302  0.1965 -0.7597
  193SOL    HW2  579   0.591   3.063   0.361 -0.4224  1.0689 -2.6090
  194SOL     OW  580   1.354   2.440   1.770 -0.3590  0.0626 -0.4241
  194SOL    HW1  581   1.392   2.427   1.679  1.7319 -2.9295  1.0246
  194SOL    HW2  582   1.327   2.540   1.785 -1.5644  1.2976  0.6915
  195SOL     OW  583   2.375   1.123   0.554 -0.1197  0.0137 -0.4456
  195SOL    HW1  584   2.394   1.188   0.627 -0.8341 -1.3433  3.5180
  195SOL    HW2  585   2.360   1.165   0.464  0.2814  0.8093  1.2980
  196SOL     OW  586   0.933   2.172   1.599 -0.0629  0.6594 -0.5668
  196SOL    HW1  587   0.910   2.266   1.573 -0.2956 -1.0030 -1.8718
  196SOL    HW2  588   0.854   2.121   1.631  2.5193  1.4738 -0.8619
  197SOL     OW  589   0.202   0.801   2.522  0.4589  0.5502  0.0406
  197SOL    HW1  590   0.147   0.876   2.473 -2.4871  0.9972 -2.2026
  197SOL    HW2  591   0.238   0.732   2.459  0.0593 -0.6662 -1.5468
  198SOL     OW  592   1.451   0.818   0.111 -0.1342  0.0789 -0.1465
  198SOL    HW1  593   1.433   0.763   0.193 -1.5566  2.3053  0.1245
  198SOL    HW2  594   1.421   0.915   0.132  2.4260  3.5269  1.8170
  199SOL     OW  595   2.604   0.671   2.156  0.1162 -0.3549  0.3273
  199SOL    HW1  596   2.656   0.718   2.228  0.7831 -0.5135 -1.2413
  199SOL    HW2  597   2.530   0.723   2.113 -0.8034 -3.3844 -1.7468
  200SOL     OW  598   2.457   2.675   2.671 -0.1585 -0.1938 -0.5108
  200SOL    HW1  599   2.513   2.693   2.758  1.5898 -0.2516  1.8010
  200SOL    HW2  600   2.522   2.670   2.592 -1.2628 -1.1498  0.4612
  201SOL     OW  601   2.415   0.204   1.242 -0.6463  0.4188  0.0102
  201SOL    HW1  602   2.364   0.123   1.282  0.8958  1.7342  0.3277
  201SOL    HW2  603   2.395   0.221   1.144 -1.1438 -0.6199  0.4379
  202SOL     OW  604   0.114   2.981   0.144  0.2509 -0.0973  0.0894
  202SOL    HW1  605   0.057   2.979   0.228 -1.1525 -0.5997 -1.3325
  202SOL    HW2  606   0.209   2.961   0.166 -1.1049  1.9492  0.0491
  203SOL     OW  607   1.082   2.194   2.775  0.1605  0.1222  0.6705
  203SOL    HW1  608   0.986   2.167   2.789  1.1110 -1.6999 -0.7996
  203SOL    HW2  609   1.134   2.122   2.731  0.6593  1.3656 -0.3317
  204SOL     OW  610   0.627   1.969   2.416  0.8445 -0.2203 -0.5989
  204SOL    HW1  611   0.605   2.065   2.391  0.5307 -2.4996  0.8535
  204SOL    HW2  612   0.693   1.967   2.497 -1.9273 -1.9165 -0.8994
  205SOL     OW  613   0.931   0.939   1.278 -0.0350 -0.0696 -0.4521
  205SOL    HW1  614   0.902   0.842   1.266 -1.8018 -1.8498  2.5723
  205SOL    HW2  615   1.018   0.944   1.334  2.2816  1.1096 -1.1513
  206SOL     OW  616   0.096   0.761   2.767 -0.2336  0.3548 -0.1995
  206SOL    HW1  617   0.016   0.822   2.757  2.3600 -2.5595  2.5230
  206SOL    HW2  618   0.156   0.761   2.681  3.4945 -2.5426 -2.2919
  207SOL     OW  619   1.795   2.427   2.015 -0.7481 -0.1001  0.3652
  207SOL    HW1  620   1.893   2.419   1.978  0.5638 -0.9643  0.2690
  207SOL    HW2  621   1.749   2.505   1.974  3.9783 -1.0118  3.6607
  208SOL     OW  622   0.618   2.796   1.175  0.6859  0.2195  0.5281
  208SOL    HW1  623   0.610   2.692   1.173 -1.2109 -1.6282  1.6393
  208SOL    HW2  624   0.558   2.828   1.251 -0.3457 -1.1303  1.1692
  209SOL     OW  625   1.512   1.347   0.093  0.3320 -0.5561  0.2979
  209SOL    HW1  626   1.451   1.417   0.131  0.2512  0.3172  2.0173
  209SOL    HW2  627   1.599   1.344   0.146  1.0083  1.0093  2.6753
  210SOL     OW  628   2.192   0.699   0.637 -0.1531 -0.4131 -0.1510
  210SOL    HW1  629   2.099   0.741   0.630 -0.7854  0.2294 -0.6089
  210SOL    HW2  630   2.189   0.604   0.602 -1.7443  0.0739 -0.0550
  211SOL     OW  631   1.479   2.783   0.341  0.1088  0.1906  0.2204
  211SOL    HW1  632   1.385   2.772   0.300 -0.7615 -1.0324  0.2930
  211SOL    HW2  633   1.518   2.871   0.296  0.9427  1.2157  1.0347
  212SOL     OW  634   2.098   2.275   0.735  0.0980 -0.4292  0.5942
  212SOL    HW1  635   2.163   2.350   0.761 -2.6166 -1.9523  0.1131
  212SOL    HW2  636   2.028   2.259   0.810  0.7348 -0.4691  0.4558
  213SOL     OW  637   1.857   0.724   2.741 -0.0644 -0.1485  0.0633
  213SOL    HW1  638   1.953   0.690   2.761  0.8362  0.3604 -0.5896
  213SOL    HW2  639   1.836   0.701   2.644 -0.8725 -0.5689 -1.8508
  214SOL     OW  640   0.868   1.515   1.977 -0.0873 -0.2022  0.0817
  214SOL    HW1  641   0.832   1.610   1.992 -0.5839 -0.7783  1.3489
  214SOL    HW2  642   0.910   1.472   2.056 -4.8724 -1.1150 -2.7445
  215SOL     OW  643   0.055   1.389   0.603 -0.1112 -0.0061 -0.4566
  215SOL    HW1  644   0.133   1.455   0.623 -0.3985  1.1234  0.9791
  215SOL    HW2  645   3.075   1.436   0.581  3.1786 -2.7837  1.5626
  216SOL     OW  646   0.540   2.610   2.381 -0.9913 -0.3846 -0.1391
  216SOL    HW1  647   0.606   2.617   2.302 -0.2457 -0.1549 -1.5613
  216SOL    HW2  648   0.595   2.619   2.469  2.2296  0.1314  1.3189
  217SOL     OW  649   2.613   0.945   1.151  0.0841  0.0455  0.2680
  217SOL    HW1  650   2.563   0.956   1.059 -0.7726  0.6436 -1.9409
  217SOL    HW2  651   2.623   1.035   1.186 -0.2090 -1.4372  1.8457
  218SOL     OW  652   1.046   2.074   1.974 -0.3547 -0.0087 -0.5016
  218SOL    HW1  653   1.101   2.108   1.897 -0.7997  2.2304  2.1544
  218SOL    HW2  654   1.053   1.975   1.994 -1.2538 -3.1425 -0.0380
  219SOL     OW  655   2.042   1.459   0.271 -0.5808 -0.1175 -0.1436
  219SOL    HW1  656   2.091   1.430   0.185  3.0465  1.9496 -3.5470
  219SOL    HW2  657   2.012   1.387   0.339  0.6896  1.0832  3.3702
  220SOL     OW  658   2.057   1.047   0.288 -0.7507  0.0707  0.0841
  220SOL    HW1  659   2.158   1.058   0.312  3.4528  1.9443  2.9946
  220SOL    HW2  660   2.021   0.960   0.330 -1.1864 -0.6990  2.7783
  221SOL     OW  661   2.912   0.459   0.319 -0.0325 -0.0734  0.2755
  221SOL    HW1  662   3.008   0.468   0.280  2.0805  0.0011  0.8658
  221SOL    HW2  663   2.849   0.511   0.259  0.2590 -0.4436  1.3982
  222SOL     OW  664   1.410   1.330   0.376 -0.4988 -0.6870 -0.3340
  222SOL    HW1  665   1.371   1.398   0.444 -0.7804  0.0779 -0.0654
  222SOL    HW2  666   1.339   1.266   0.349  0.5918 -0.5530 -0.7519
  223SOL     OW  667   0.747   0.206   3.062  0.2545  0.4104 -0.7023
  223SOL    HW1  668   0.708   0.111   3.063  0.0415 -0.8371 -3.3309
  223SOL    HW2  669   0.797   0.212   2.974  2.0215  0.0906  0.4553
  224SOL     OW  670   1.321   0.212   1.371 -0.0593 -0.3362  0.2221
  224SOL    HW1  671   1.330   0.241   1.469 -0.2561 -0.4093  2.5727
  224SOL    HW2  672   1.328   0.110   1.357 -0.4682 -0.7398  3.1243
  225SOL     OW  673   0.252   2.390   1.552  0.1535  0.1338 -0.0094
  225SOL    HW1  674   0.289   2.297   1.587 -1.1651 -2.7908  0.2519
  225SOL    HW2  675   0.157   2.402   1.583 -0.3000  2.0611  1.5122
  226SOL     OW  676   1.132   1.544   0.298  0.6624 -0.0951  0.2097
  226SOL    HW1  677   1.117   1.512   0.399 -1.4590 -0.7571  2.5334
  226SOL    HW2  678   1.112   1.644   0.291  2.2627 -0.1721  1.3919
  227SOL     OW  679   0.749   1.513   0.873  0.0148 -0.1164 -0.0625
  227SOL    HW1  680   0.693   1.592   0.900 -0.5766  0.4651  0.5783
  227SOL    HW2  681   0.772   1.457   0.956  1.9186 -1.6659  3.7205
  228SOL     OW  682   0.275   1.849   0.585  0.0797  0.6651  0.5675
  228SOL    HW1  683   0.228   1.756   0.572 -0.8359  1.1678 -2.1721
  228SOL    HW2  684   0.333   1.874   0.505  1.2518  2.8754 -0.4958
  229SOL     OW  685   2.448   0.197   2.675  0.1883 -0.0050 -0.2099
  229SOL    HW1  686   2.351   0.197   2.706  3.8829 -1.8301 -2.4964
  229SOL    HW2  687   2.505   0.118   2.718  0.8981  0.4204  2.2213
  230SOL     OW  688   1.667   1.234   0.730 -0.1927  0.2309  0.1745
  230SOL    HW1  689   1.624   1.327   0.741 -0.4686  3.1146 -0.8227
  230SOL    HW2  690   1.664   1.206   0.631 -1.4089  2.0705  0.6402
  231SOL     OW  691   1.269   1.465   2.515 -0.4803 -0.0016  0.2836
  231SOL    HW1  692   1.339   1.522   2.564  1.4803  0.6585  0.0768
  231SOL    HW2  693   1.296   1.371   2.503 -2.0583  1.5970  0.8839
  232SOL     OW  694   2.511   2.441   0.664  0.2069 -0.3427  0.3302
  232SOL    HW1  695   2.574   2.375   0.713  1.5609 -0.7597  0.1220
  232SOL    HW2  696   2.434   2.469   0.723  3.1899  0.9547 -1.2707
  233SOL     OW  697   0.453   2.441   0.897 -0.1520 -0.4327  0.4708
  233SOL    HW1  698   0.539   2.477   0.865 -2.3740 -2.0157 -1.1666
  233SOL    HW2  699   0.405   2.422   0.808  2.1625 -2.2234 -3.8126
  234SOL     OW  700   0.557   0.615   2.771  0.1815  0.2766 -0.7549
  234SOL    HW1  701   0.524   0.699   2.721  0.1317 -0.2660 -3.2518
  234SOL    HW2  702   0.536   0.629   2.867  1.8119  0.8031 -2.3241
  235SOL     OW  703   2.705   0.760   2.414 -0.2705 -0.4389  0.7408
  235SOL    HW1  704   2.692   0.689   2.475 -1.5023  0.4665  0.1253
  235SOL    HW2  705   2.804   0.796   2.421  0.6649  0.4420 -0.7290
  236SOL     OW  706   1.670   2.802   1.489  0.0124  0.6584  0.1452
  236SOL    HW1  707   1.682   2.770   1.391 -0.3433  0.5403 -1.7377
  236SOL    HW2  708   1.680   2.715   1.548 -0.7893  2.2950  2.3445
  237SOL     OW  709   0.963   1.604   2.245 -0.3706 -0.0357 -0.2296
  237SOL    HW1  710   0.878   1.658   2.265  0.1253  0.7227  1.1017
  237SOL    HW2  711   1.006   1.587   2.336  0.9833  3.3963 -0.3175
  238SOL     OW  712   1.013   0.236   2.208 -0.0097 -0.0404 -0.1539
  238SOL    HW1  713   1.052   0.238   2.301 -1.8503  1.2894 -1.8578
  238SOL    HW2  714   0.975   0.144   2.197  0.8152  2.9178 -0.5982
  239SOL     OW  715   0.332   2.159   1.972 -0.1555 -0.8799 -0.3847
  239SOL    HW1  716   0.427   2.180   1.953  2.5230 -0.6419  0.2460
  239SOL    HW2  717   0.278   2.245   1.981 -1.1955 -2.0372  0.7658
  240SOL     OW  718   2.669   2.774   0.561  0.1922 -0.0460 -0.0219
  240SOL    HW1  719   2.637   2.704   0.494  0.6237 -1.0663  0.3659
  240SOL    HW2  720   2.766   2.762   0.592 -2.5949 -2.0700  2.4580
  241SOL     OW  721   2.487   1.315   0.728 -0.2281  0.2050 -0.0339
  241SOL    HW1  722   2.427   1.391   0.698  1.3111 -2.3118 -0.0833
  241SOL    HW2  723   2.489   1.308   0.828 -1.1786 -1.3289 -0.7058
  242SOL     OW  724   2.079   2.463   1.941  0.1924 -0.1830 -0.4259
  242SOL    HW1  725   2.120   2.444   1.851  1.5570  2.4476 -0.6158
  242SOL    HW2  726   2.073   2.562   1.958 -1.1666 -0.5276 -0.6276
  243SOL     OW  727   0.737   2.649   1.851  0.3531 -1.1225  0.5179
  243SOL    HW1  728   0.686   2.582   1.911 -0.6448  3.9046 -2.0536
  243SOL    HW2  729   0.837   2.627   1.840 -1.7515 -0.6247  0.3570
  244SOL     OW  730   2.096   0.664   2.518 -0.4254  0.0531  0.1716
  244SOL    HW1  731   2.003   0.630   2.501  1.6130  1.1145 -0.4022
  244SOL    HW2  732   2.163   0.631   2.451 -0.8155  1.6120 -1.1003
  245SOL     OW  733   1.367   0.446   1.040 -0.4863 -0.2432  0.2509
  245SOL    HW1  734   1.327   0.449   0.944 -2.3579 -2.5408  0.9587
  245SOL    HW2  735   1.345   0.536   1.083 -0.9750 -2.1056  0.9151
  246SOL     OW  736   1.916   2.628   0.040  0.4077 -0.2732  0.1125
  246SOL    HW1  737   1.962   2.698   3.092 -1.4383  3.7908 -0.3613
  246SOL    HW2  738   1.823   2.612   0.004  0.3603  2.2639 -3.2609
  247SOL     OW  739   1.233   0.776   2.544  0.4568  0.0570  0.1827
  247SOL    HW1  740   1.270   0.754   2.639 -0.6288 -0.1717  4.4404
  247SOL    HW2  741   1.158   0.847   2.556 -1.4028  1.0914 -2.8898
  248SOL     OW  742   0.205   2.098   1.661 -0.4817 -0.0756 -0.5537
  248SOL    HW1  743   0.217   2.073   1.565  0.3750 -1.3091 -0.7695
  248SOL    HW2  744   0.237   2.018   1.716 -1.9749  3.1984  0.2160
  249SOL     OW  745   2.505   0.442   0.178  0.0664  0.1929  0.6289
  249SOL    HW1  746   2.423   0.478   0.131 -1.3829 -0.6968 -0.4889
  249SOL    HW2  747   2.559   0.376   0.115 -0.0078 -3.7165 -4.1393
  250SOL     OW  748   2.815   0.037   2.611 -0.5183 -0.2567 -0.5185
  250SOL    HW1  749   2.913   0.068   2.616  0.9965  0.4333  1.5112
  250SOL    HW2  750   2.820   3.044   2.588  0.8377 -4.6166 -3.4447
  251SOL     OW  751   1.397   0.622   3.036  0.7567 -0.4929 -0.2168
  251SOL    HW1  752   1.414   0.706   3.094  1.0320  1.0924  1.2551
  251SOL    HW2  753   1.488   0.583   3.013  0.1687  1.2768 -2.2053
  252SOL     OW  754   1.383   2.112   2.024 -0.2215  0.5920  0.0019
  252SOL    HW1  755   1.341   2.204   2.030  0.3745 -1.5479  0.3001
  252SOL    HW2  756   1.418   2.084   2.115 -1.7728  2.1404  0.4123
  253SOL     OW  757   2.426   2.555   1.068 -0.4208 -0.0570 -0.3020
  253SOL    HW1  758   2.460   2.611   1.139  1.1282  2.2606 -0.3476
  253SOL    HW2  759   2.488   2.480   1.049 -0.8327  1.0073  0.0241
  254SOL     OW  760   2.116   1.344   0.651  0.4325  0.2421  0.3428
  254SOL    HW1  761   2.060   1.323   0.567  1.2655  2.7119 -1.9422
  254SOL    HW2  762   2.120   1.267   0.718 -1.2692  0.2949  0.0972
  255SOL     OW  763   1.378   3.083   1.289  0.1472  0.4346 -0.0132
  255SOL    HW1  764   1.323   3.033   1.218  0.1295 -0.1458  1.0428
  255SOL    HW2  765   1.413   3.019   1.360 -0.6868  1.5119  1.0993
  256SOL     OW  766   1.886   2.354   1.515 -0.1608  0.2364 -0.2683
  256SOL    HW1  767   1.937   2.268   1.548  2.8689  1.1400  0.8250
  256SOL    HW2  768   1.801   2.329   1.468  0.3828 -2.4676  0.1455
  257SOL     OW  769   0.727   2.702   2.555  0.4146  1.2765 -0.2239
  257SOL    HW1  770   0.813   2.724   2.501  2.2714  0.3339 -0.2505
  257SOL    HW2  771   0.728   2.749   2.647 -0.7842  3.5114  2.3279
  258SOL     OW  772   0.807   2.641   0.462 -0.1620  0.1351 -0.2192
  258SOL    HW1  773   0.808   2.728   0.405 -0.2333  1.4083  1.1909
  258SOL    HW2  774   0.898   2.628   0.510 -0.0353 -2.3348  0.4088
  259SOL     OW  775   1.480   0.233   2.719  0.3110  0.1406 -0.3507
  259SOL    HW1  776   1.510   0.206   2.816  2.1477  2.2057  2.0076
  259SOL    HW2  777   1.506   0.329   2.712  2.1967 -1.0362 -0.0192
  260SOL     OW  778   2.656   0.589   1.418 -0.2411  0.0914 -0.4945
  260SOL    HW1  779   2.587   0.530   1.371 -1.7447 -2.5125  3.6375
  260SOL    HW2  780   2.622   0.604   1.513 -1.3318  0.0028  0.4254
  261SOL     OW  781   0.792   0.466   2.686  0.1644  0.0803  0.4440
  261SOL    HW1  782   0.708   0.521   2.717 -3.1144 -0.8970 -2.2410
  261SOL    HW2  783   0.797   0.472   2.586  0.3112  2.6167  2.1852
  262SOL     OW  784   1.440   2.346   2.267 -0.3752  0.0746 -0.6609
  262SOL    HW1  785   1.374   2.360   2.192  0.7575 -0.3341  0.6903
  262SOL    HW2  786   1.528   2.398   2.248  2.7307  0.1513 -5.4125
  263SOL     OW  787   0.406   1.953   2.873 -0.1879 -0.0786 -0.3257
  263SOL    HW1  788   0.441   2.048   2.869 -0.3533 -0.6109 -0.0913
  263SOL    HW2  789   0.487   1.893   2.855 -0.2656  0.0778  0.0602
  264SOL     OW  790   1.135   1.578   0.825  0.5275 -0.6051 -0.6681
  264SOL    HW1  791   1.047   1.600   0.777  1.4736  0.2250  2.4953
  264SOL    HW2  792   1.218   1.601   0.772  1.3282  0.5985 -0.0245
  265SOL     OW  793   1.073   2.551   0.574 -0.2765  0.1528 -0.6112
  265SOL    HW1  794   1.058   2.490   0.499  0.8439  0.7192  1.8422
  265SOL    HW2  795   1.171   2.552   0.590 -1.8731  0.0939 -0.8360
  266SOL     OW  796   1.856   0.786   1.073 -0.6344 -0.4319 -0.5410
  266SOL    HW1  797   1.871   0.778   1.175 -0.2086 -1.0882 -0.0072
  266SOL    HW2  798   1.938   0.823   1.027 -0.7879  3.7486  3.6297
  267SOL     OW  799   3.039   1.316   2.815 -0.2937 -0.0600 -0.2481
  267SOL    HW1  800   0.018   1.317   2.764  1.2515  0.0602  1.4743
  267SOL    HW2  801   2.971   1.248   2.781  0.7099  0.7191 -0.4958
  268SOL     OW  802   1.588   3.003   0.266  0.2413  0.2030 -0.2640
  268SOL    HW1  803   1.688   3.009   0.264  1.7512  0.7177 -0.8457
  268SOL    HW2  804   1.552   3.070   0.330 -0.8953 -0.9603 -0.2337
  269SOL     OW  805   2.793   0.805   2.774 -0.0742 -0.2134  0.0399
  269SOL    HW1  806   2.811   0.719   2.730 -1.7376  0.8300  1.3661
  269SOL    HW2  807   2.873   0.864   2.752 -0.4573 -1.6643  0.9790
  270SOL     OW  808   3.065   1.532   0.126 -0.4051  0.0682 -0.5634
  270SOL    HW1  809   3.041   1.468   0.200 -1.3736  1.2137 -1.3629
  270SOL    HW2  810   0.059   1.534   0.107 -1.8204 -0.8822  0.4397
  271SOL     OW  811   2.657   1.194   2.529 -0.2059 -0.3640 -0.7354
  271SOL    HW1  812   2.618   1.280   2.570 -1.2561  2.3070  1.6381
  271SOL    HW2  813   2.590   1.117   2.518  0.8003 -1.1786 -1.2010
  272SOL     OW  814   2.817   2.442   2.351  0.4947 -0.2094  0.1100
  272SOL    HW1  815   2.916   2.437   2.374 -1.6830  1.0734  0.1148
  272SOL    HW2  816   2.798   2.411   2.251 -3.0574  0.6991 -0.0652
  273SOL     OW  817   0.204   2.669   0.719  0.1506 -0.3343 -0.3123
  273SOL    HW1  818   0.188   2.770   0.735  1.5557  2.7938 -2.0659
  273SOL    HW2  819   0.242   2.657   0.625  2.0184  2.9834 -3.2972
  274SOL     OW  820   0.955   2.475   0.843  0.3716 -0.5006 -0.1614
  274SOL    HW1  821   1.035   2.518   0.801 -0.8402 -0.3491 -1.6415
  274SOL    HW2  822   0.967   2.399   0.907 -0.7457  1.0386  0.2009
  275SOL     OW  823   2.358   1.579   0.385 -0.6375 -0.2631  0.4522
  275SOL    HW1  824   2.275   1.624   0.341  0.9674  1.5074 -0.3543
  275SOL    HW2  825   2.417   1.538   0.313  0.6728 -3.9741 -2.1311
  276SOL     OW  826   2.712   1.516   1.178  0.0539  0.3309 -0.4494
  276SOL    HW1  827   2.791   1.477   1.226 -2.2021 -1.2291 -1.7830
  276SOL    HW2  828   2.737   1.601   1.133 -0.2769 -1.4788  0.7925
  277SOL     OW  829   2.446   0.020   0.706  0.8253 -0.3835 -0.6080
  277SOL    HW1  830   2.381   3.060   0.745 -2.2852 -1.2213 -0.6814
  277SOL    HW2  831   2.509   0.051   0.780  2.2749 -2.1095 -1.7150
  278SOL     OW  832   1.513   0.275   2.447  0.1296  0.4876 -0.5603
  278SOL    HW1  833   1.438   0.339   2.430  1.5750 -0.7189  0.2081
  278SOL    HW2  834   1.500   0.235   2.543  0.0171 -2.6956 -0.7067
  279SOL     OW  835   1.401   2.610   1.352 -0.0197  0.1202 -0.0873
  279SOL    HW1  836   1.495   2.611   1.322 -1.2055 -0.4296 -0.1976
  279SOL    HW2  837   1.333   2.604   1.274 -0.6195  1.6148 -0.5866
  280SOL     OW  838   0.998   0.966   0.670  0.3461  0.1944 -0.2846
  280SOL    HW1  839   0.942   1.032   0.615 -2.6577  0.9118 -0.1700
  280SOL    HW2  840   1.085   1.011   0.706  3.6231 -0.6805 -0.6454
  281SOL     OW  841   2.522   1.417   2.603  0.4309  0.8504 -0.1364
  281SOL    HW1  842   2.572   1.501   2.620 -4.1813 -0.1149  4.5408
  281SOL    HW2  843   2.481   1.422   2.507  2.5908 -1.7241 -1.8916
  282SOL     OW  844   3.000   1.354   0.315 -0.5732  0.4858 -0.0264
  282SOL    HW1  845   2.898   1.354   0.315 -2.5109  0.2871  1.0536
  282SOL    HW2  846   3.038   1.265   0.343  1.4072 -1.2963  0.5334
  283SOL     OW  847   1.801   2.765   2.665 -0.0144 -0.0286  0.0447
  283SOL    HW1  848   1.836   2.737   2.575  1.8616  1.3570 -0.2859
  283SOL    HW2  849   1.764   2.684   2.718 -0.9460  2.1951 -2.3074
  284SOL     OW  850   0.656   3.023   0.011 -0.2521 -0.0863 -0.0276
  284SOL    HW1  851   0.621   3.079   0.093  2.2239  2.4379  1.3679
  284SOL    HW2  852   0.579   2.964   3.083  0.1266  1.5567 -0.6894
  285SOL     OW  853   2.152   1.634   2.506 -0.5169 -0.2275 -0.1921
  285SOL    HW1  854   2.202   1.664   2.590  1.9661  1.0708  1.1063
  285SOL    HW2  855   2.079   1.705   2.486 -1.2661  1.3472  0.2390
  286SOL     OW  856   1.286   2.244   0.841 -0.2738 -0.0696 -0.3824
  286SOL    HW1  857   1.228   2.202   0.911  0.9090 -0.6621  0.3533
  286SOL    HW2  858   1.377   2.276   0.876 -1.5289 -1.3661 -0.1086
  287SOL     OW  859   1.797   0.212   1.208 -0.7206 -0.1271  0.5798
  287SOL    HW1  860   1.776   0.232   1.300  1.2934  1.2980 -2.8766
  287SOL    HW2  861   1.893   0.229   1.192  1.8550  0.9034 -0.1700
  288SOL     OW  862   0.967   2.756   2.433  0.0563  0.4298  0.0483
  288SOL    HW1  863   1.046   2.738   2.497 -0.0757 -0.5894  1.3667
  288SOL    HW2  864   0.994   2.716   2.342 -1.0244 -2.9322 -0.0486
  289SOL     OW  865   3.059   1.120   0.634  0.5878 -0.0283  0.2610
  289SOL    HW1  866   3.071   1.216   0.648 -0.9019  1.7319 -0.7041
  289SOL    HW2  867   2.963   1.090   0.648  1.0266  0.5145  2.0789
  290SOL     OW  868   1.303   2.349   1.152  0.1787  0.4758  0.4229
  290SOL    HW1  869   1.399   2.344   1.120 -0.2812  0.1632 -0.2303
  290SOL    HW2  870   1.261   2.258   1.130  0.0938  1.3460  3.5586
  291SOL     OW  871   1.992   2.879   0.650  0.0694 -0.1524 -0.4158
  291SOL    HW1  872   1.949   2.961   0.701 -1.9579 -1.0447  1.3445
  291SOL    HW2  873   1.928   2.829   0.591  1.3703  0.3394 -0.2850
  292SOL     OW  874   0.376   0.209   2.071  0.1075  0.0830  0.4735
  292SOL    HW1  875   0.317   0.207   2.155  1.0635 -1.1392 -1.6581
  292SOL    HW2  876   0.343   0.139   2.007  1.2212 -0.0732  2.6122
  293SOL     OW  877   2.378   1.934   0.889 -0.2460 -0.4285  0.2053
  293SOL    HW1  878   2.409   1.840   0.910 -0.0515 -1.4451 -0.6069
  293SOL    HW2  879   2.390   1.999   0.965  3.3011  0.3193  0.6050
  294SOL     OW  880   0.827   3.084   2.178  0.0680 -0.5183 -0.0020
  294SOL    HW1  881   0.733   3.085   2.217 -0.4783 -1.0970  1.4432
  294SOL    HW2  882   0.820   3.102   2.078  0.5567  0.8963 -1.9876
  295SOL     OW  883   1.288   1.398   1.148  0.2914 -0.9491 -0.9129
  295SOL    HW1  884   1.382   1.370   1.162 -1.4357  0.4519  0.2670
  295SOL    HW2  885   1.239   1.329   1.084  0.9691 -0.3668 -0.5164
  296SOL     OW  886   2.165   1.980   0.718 -0.0314 -0.0537 -0.5062
  296SOL    HW1  887   2.245   1.950   0.778  4.7931 -1.2208  2.7503
  296SOL    HW2  888   2.148   2.081   0.711  0.3742 -0.9411 -1.8221
  297SOL     OW  889   2.214   0.025   2.746  0.1945 -0.2279 -0.0764
  297SOL    HW1  890   2.265   3.071   2.684  2.2193  1.0416 -3.4139
  297SOL    HW2  891   2.185   3.094   2.833  1.2344  0.7878  0.2171
  298SOL     OW  892   1.148   0.180   2.427  0.3175 -0.0110  0.4800
  298SOL    HW1  893   1.073   0.168   2.498 -0.6040  1.4515  3.5588
  298SOL    HW2  894   1.207   0.094   2.423  1.8939 -1.4935  1.2126
  299SOL     OW  895   1.234   2.901   1.993  0.4635  0.3269 -0.1334
  299SOL    HW1  896   1.184   2.926   1.906 -1.8172  1.9987 -0.6549
  299SOL    HW2  897   1.190   2.946   2.077 -0.1084  0.2556  2.6906
  300SOL     OW  898   2.603   0.244   1.871  0.5770  0.3920 -0.0523
  300SOL    HW1  899   2.624   0.321   1.933  3.3948 -1.4479 -0.8037
  300SOL    HW2  900   2.566   0.280   1.783  0.7472 -2.7791 -0.6703
  301SOL     OW  901   2.038   0.425   1.948  0.4818 -0.1046 -0.3114
  301SOL    HW1  902   2.127   0.418   1.997  1.3144  1.1682  1.1804
  301SOL    HW2  903   1.995   0.332   1.938  0.1027 -4.1827  0.4908
  302SOL     OW  904   0.298   2.469   2.910  0.4294 -0.4228  0.1553
  302SOL    HW1  905   0.268   2.371   2.922 -0.6435  0.9252  0.8112
  302SOL    HW2  906   0.211   2.517   2.888  1.4790 -1.1242  0.5625
  303SOL     OW  907   1.834   1.992   1.430 -0.5295 -0.3230  0.3430
  303SOL    HW1  908   1.735   2.007   1.407  0.4614 -1.2894 -1.9090
  303SOL    HW2  909   1.854   2.036   1.521 -1.5316  0.9685  2.8527
  304SOL     OW  910   3.090   0.606   1.085 -0.1519 -0.1718 -0.2891
  304SOL    HW1  911   2.997   0.618   1.127 -1.6052 -0.9218  0.2762
  304SOL    HW2  912   3.104   0.665   1.000  1.9314  0.6307  0.9824
  305SOL     OW  913   0.727   0.889   0.757  0.1448  0.4543 -0.1996
  305SOL    HW1  914   0.715   0.859   0.852 -2.6044 -2.4798 -1.4742
  305SOL    HW2  915   0.815   0.936   0.739  0.5204 -0.2486  1.3277
  306SOL     OW  916   0.343   1.055   3.013  0.3260  0.2844 -0.1432
  306SOL    HW1  917   0.420   1.054   2.944  0.3508 -1.0226  1.1151
  306SOL    HW2  918   0.315   0.958   3.029 -1.4638 -1.1853 -2.8282
  307SOL     OW  919   1.297   0.273   1.624  0.5034 -0.4952  0.0335
  307SOL    HW1  920   1.335   0.326   1.702  0.5517 -0.9599  0.2785
  307SOL    HW2  921   1.277   0.177   1.662 -0.0103 -1.4347  0.5782
  308SOL     OW  922   0.440   0.740   0.942  0.4748  0.2670  0.3046
  308SOL    HW1  923   0.420   0.777   0.847  1.7692 -0.3934 -3.0355
  308SOL    HW2  924   0.371   0.785   1.008 -1.0460 -0.4170 -0.6879
  309SOL     OW  925   2.270   0.926   0.762 -0.5369  0.5761 -0.7275
  309SOL    HW1  926   2.251   0.834   0.717  2.6137 -1.1848  1.7094
  309SOL    HW2  927   2.290   0.998   0.693  0.9167 -1.1525  2.5083
  310SOL     OW  928   0.870   1.227   2.884  0.0155  0.9775  0.5660
  310SOL    HW1  929   0.966   1.197   2.867 -0.7455 -1.1226  0.1822
  310SOL    HW2  930   0.849   1.218   2.981  0.0040  1.6259 -0.7779
  311SOL     OW  931   2.444   2.697   2.219 -0.4331 -0.6120 -0.3082
  311SOL    HW1  932   2.431   2.797   2.218 -0.7336 -0.3776 -2.3870
  311SOL    HW2  933   2.397   2.653   2.297  0.3877 -0.9668 -0.2324
  312SOL     OW  934   2.124   2.149   0.061 -0.6963  0.2764 -0.3457
  312SOL    HW1  935   2.202   2.159   3.100  2.1742  2.7128 -1.6216
  312SOL    HW2  936   2.067   2.230   0.079 -3.5881  0.0212  1.1771
  313SOL     OW  937   0.336   0.088   0.182  0.7544 -0.4732  0.1458
  313SOL    HW1  938   0.300   0.127   0.267  1.5383  0.0764 -0.3547
  313SOL    HW2  939   0.386   0.163   0.125  1.2111  2.4056 -0.6008
  314SOL     OW  940   2.586   1.260   2.834  0.1006 -0.8102 -0.3373
  314SOL    HW1  941   2.636   1.311   2.912  2.5342  2.4693  3.2588
  314SOL    HW2  942   2.554   1.323   2.757 -1.6010 -0.3190 -2.1208
  315SOL     OW  943   1.634   0.517   2.118 -0.6241 -0.0831 -0.1500
  315SOL    HW1  944   1.545   0.503   2.166  1.3361 -3.7799 -1.6669
  315SOL    HW2  945   1.656   0.616   2.107 -0.0631  0.6838 -0.3510
  316SOL     OW  946   2.784   1.036   0.634  0.3629  0.0128  0.2125
  316SOL    HW1  947   2.778   1.016   0.736  1.0265  0.8083 -1.6216
  316SOL    HW2  948   2.709   0.983   0.587 -2.2015  0.8830  0.0580
  317SOL     OW  949   0.908   2.939   3.106  0.2109 -0.2821  0.6451
  317SOL    HW1  950   0.940   2.901   3.014  0.8180 -0.1188 -3.0684
  317SOL    HW2  951   0.819   2.981   3.097  0.6911 -0.0214 -1.7142
  318SOL     OW  952   2.349   2.831   1.274 -0.0015 -0.0481 -0.5545
  318SOL    HW1  953   2.271   2.781   1.317 -1.1029 -0.1209  0.1831
  318SOL    HW2  954   2.430   2.820   1.333  1.1926  1.1376  2.3008
  319SOL     OW  955   1.082   1.441   2.888  0.1743 -0.5322 -0.2024
  319SOL    HW1  956   1.140   1.386   2.951  0.2243  1.7518 -0.9763
  319SOL    HW2  957   0.985   1.411   2.884  0.9393  1.6760  2.4885
  320SOL     OW  958   0.577   1.740   0.921 -0.1461  0.0916  0.3642
  320SOL    HW1  959   0.486   1.783   0.901  2.0736  3.1997  1.9249
  320SOL    HW2  960   0.650   1.811   0.926  0.2857 -0.5523 -1.7801
  321SOL     OW  961   2.015   2.710   2.012  0.0929  0.4190  0.4714
  321SOL    HW1  962   2.081   2.774   1.974 -0.6656 -1.5675  1.3756
  321SOL    HW2  963   1.919   2.743   1.996 -1.7820 -2.1111  2.2107
  322SOL     OW  964   2.368   2.009   2.412 -0.4460 -0.2965  0.8044
  322SOL    HW1  965   2.422   2.096   2.400  1.0446  0.2052  0.4733
  322SOL    HW2  966   2.429   1.924   2.401  0.7360 -0.9245 -0.4839
  323SOL     OW  967   2.335   0.249   0.602 -0.0216 -0.1511  0.5081
  323SOL    HW1  968   2.356   0.149   0.631 -0.8994  2.7605 -3.5137
  323SOL    HW2  969   2.376   0.277   0.510 -0.0332  1.0466 -0.5110
  324SOL     OW  970   2.911   2.749   2.325 -0.4605 -0.1910 -0.3499
  324SOL    HW1  971   3.001   2.781   2.352  0.5499  1.2105 -0.7064
  324SOL    HW2  972   2.899   2.650   2.330  0.5682  1.8504 -2.7057
  325SOL     OW  973   1.013   0.597   2.798 -0.1795 -0.1712  0.0492
  325SOL    HW1  974   1.103   0.569   2.755 -1.5217  0.4531 -1.2958
  325SOL    HW2  975   0.935   0.544   2.758  2.4104  2.7437  1.8558
  326SOL     OW  976   2.607   2.435   1.362 -0.3019  0.1124 -0.5945
  326SOL    HW1  977   2.508   2.424   1.333 -1.7613  2.1038 -1.7567
  326SOL    HW2  978   2.629   2.403   1.458  0.2930 -0.7895  0.1813
  327SOL     OW  979   2.377   2.959   0.085  0.4235 -0.0592  0.2604
  327SOL    HW1  980   2.376   3.011   0.172  2.4889  2.6111 -2.2891
  327SOL    HW2  981   2.326   2.869   0.089  0.1827  0.2904 -1.2226
  328SOL     OW  982   0.420   0.701   1.446 -0.0890  0.3338 -0.0108
  328SOL    HW1  983   0.471   0.613   1.446  0.7532 -2.2703 -1.5330
  328SOL    HW2  984   0.326   0.693   1.403 -1.5819 -1.1465 -1.7656
  329SOL     OW  985   2.083   0.750   1.540  0.1216 -0.1273  0.1865
  329SOL    HW1  986   2.067   0.693   1.624  0.3246 -2.2215  0.6343
  329SOL    HW2  987   2.123   0.697   1.464  1.1450  0.6221  1.0368
  330SOL     OW  988   0.590   0.523   0.974  0.2508  0.2363 -0.2652
  330SOL    HW1  989   0.536   0.440   0.992 -0.0669 -0.7699 -0.3553
  330SOL    HW2  990   0.533   0.608   0.971  1.3562 -0.4269  2.1116
  331SOL     OW  991   0.664   1.370   1.892  0.4943  0.2500 -0.1736
  331SOL    HW1  992   0.747   1.421   1.926 -1.1470 -1.1374 -1.7176
  331SOL    HW2  993   0.645   1.391   1.797  2.1505 -0.5693  1.5195
  332SOL     OW  994   0.023   2.493   1.679  0.1507  0.0596  0.2493
  332SOL    HW1  995   0.021   2.585   1.724  1.6786  2.4640  0.4152
  332SOL    HW2  996   3.032   2.464   1.656 -1.9260  0.4181 -0.7903
  333SOL     OW  997   2.993   2.819   1.109  0.2612 -0.0573  0.1239
  333SOL    HW1  998   3.041   2.864   1.032  2.2756  1.5078 -1.6031
  333SOL    HW2  999   3.045   2.734   1.133 -0.0321  2.2559 -1.0923
  334SOL     OW 1000   0.235   1.252   0.473 -0.0872  0.2155 -0.0986
  334SOL    HW1 1001   0.205   1.154   0.480  4.3911 -0.9103  0.8674
  334SOL    HW2 1002   0.172   1.309   0.529  1.3958 -1.4681 -1.0818
  335SOL     OW 1003   0.527   2.616   2.927 -0.4198  0.1958  0.0476
  335SOL    HW1 1004   0.437   2.579   2.897  0.0042  0.7236  0.5404
  335SOL    HW2 1005   0.580   2.560   2.996 -0.0895 -1.3299 -2.1361
  336SOL     OW 1006   3.004   2.793   2.072 -0.0853 -0.0597  0.0889
  336SOL    HW1 1007   2.978   2.769   2.166 -2.2565 -1.0787  0.1288
  336SOL    HW2 1008   2.921   2.790   2.014  2.5992 -3.3164  1.8993
  337SOL     OW 1009   1.538   2.032   1.826 -0.3024  0.3144  0.1833
  337SOL    HW1 1010   1.482   2.049   1.742 -0.5725  0.5637 -2.4888
  337SOL    HW2 1011   1.492   2.063   1.913  1.5506  0.8452  1.4949
  338SOL     OW 1012   0.793   0.217   2.778  0.4854  0.3305 -0.0145
  338SOL    HW1 1013   0.799   0.314   2.749 -1.5194 -0.3723 -2.1585
  338SOL    HW2 1014   0.865   0.159   2.726 -0.7528 -0.2014 -1.5721
  339SOL     OW 1015   0.406   1.017   2.324 -0.0441  0.0822  0.6408
  339SOL    HW1 1016   0.436   1.015   2.227 -0.7541 -1.4284 -0.2340
  339SOL    HW2 1017   0.481   1.022   2.388 -5.0336 -0.5557 -0.6184
  340SOL     OW 1018   1.994   0.443   0.773  0.0110 -0.3800  0.2918
  340SOL    HW1 1019   2.017   0.384   0.853 -2.3627 -0.4808  0.3719
  340SOL    HW2 1020   1.953   0.535   0.791 -1.2625 -1.3388  1.0002
  341SOL     OW 1021   2.107   1.220   0.900  0.0098 -0.3724  0.2954
  341SOL    HW1 1022   2.108   1.295   0.968  0.2829 -0.1705  0.6612
  341SOL    HW2 1023   2.159   1.140   0.933  2.6904 -0.2947 -1.7331
  342SOL     OW 1024   2.126   2.406   2.745 -0.3234 -0.1793  0.7048
  342SOL    HW1 1025   2.204   2.418   2.804 -2.9955 -0.5226 -3.2239
  342SOL    HW2 1026   2.076   2.321   2.768 -0.3741  0.8621 -0.2778
  343SOL     OW 1027   0.876   2.420   1.470 -0.6724  0.3048  0.0094
  343SOL    HW1 1028   0.899   2.518   1.446  0.5782  1.4572  0.7175
  343SOL    HW2 1029   0.778   2.421   1.478  3.2399  1.8395 -0.6390
  344SOL     OW 1030   2.370   2.783   1.597  0.6738 -0.0211 -0.3408
  344SOL    HW1 1031   2.394   2.839   1.675 -1.2922 -2.3390  0.0410
  344SOL    HW2 1032   2.446   2.729   1.566  0.9091  0.7560 -0.2051
  345SOL     OW 1033   2.379   2.202   3.026  0.1474  0.2434  0.2057
  345SOL    HW1 1034   2.427   2.163   3.102 -4.4095  0.4798 -2.1252
  345SOL    HW2 1035   2.323   2.132   2.978 -1.8354  2.4151 -0.4642
  346SOL     OW 1036   1.679   2.304   1.375 -0.3880  0.1534 -0.2235
  346SOL    HW1 1037   1.715   2.361   1.299 -2.4068 -0.7826 -1.6434
  346SOL    HW2 1038   1.670   2.209   1.339  0.1963  1.6667  1.0389
  347SOL     OW 1039   1.176   1.810   1.659 -0.0893 -0.3296 -0.6958
  347SOL    HW1 1040   1.156   1.891   1.594  0.1357 -2.1175 -3.7491
  347SOL    HW2 1041   1.094   1.756   1.675  3.6817  0.2861  1.1380
  348SOL     OW 1042   0.261   1.908   1.863  0.3959 -0.0433 -0.4452
  348SOL    HW1 1043   0.191   1.853   1.913  0.4573 -1.0509 -0.9166
  348SOL    HW2 1044   0.291   1.988   1.913  0.3468 -1.3754 -1.7372
  349SOL     OW 1045   1.764   1.618   1.372  0.6445  0.5605 -0.0086
  349SOL    HW1 1046   1.729   1.550   1.437  0.6950 -0.9636 -2.0060
  349SOL    HW2 1047   1.838   1.676   1.404 -0.3364  1.8878 -2.7351
  350SOL     OW 1048   2.359   2.207   0.513 -0.0220  0.0960 -0.0142
  350SOL    HW1 1049   2.271   2.229   0.559  1.6262  2.5588  3.0358
  350SOL    HW2 1050   2.437   2.262   0.554  1.0406  0.2940  1.0983
  351SOL     OW 1051   0.778   2.934   1.492 -0.0820  0.1253  0.2711
  351SOL    HW1 1052   0.782   2.935   1.593 -0.4175  0.6614 -2.7056
  351SOL    HW2 1053   0.848   2.998   1.451  2.3562  1.3273  0.4530
  352SOL     OW 1054   0.320   1.091   0.834 -0.3272  0.2142 -0.4530
  352SOL    HW1 1055   0.360   1.002   0.804  1.7186 -3.6676  1.6899
  352SOL    HW2 1056   0.276   1.141   0.761  2.9264 -3.3593  2.4433
  353SOL     OW 1057   1.265   1.730   2.341  0.1063 -0.4463  0.4202
  353SOL    HW1 1058   1.261   1.657   2.416  1.7075 -2.6318 -0.3906
  353SOL    HW2 1059   1.318   1.690   2.265  0.3900 -1.3157  2.2165
  354SOL     OW 1060   1.818   2.916   1.969  0.0804  0.6168 -0.2411
  354SOL    HW1 1061   1.766   2.917   2.057 -2.7586  2.0871  2.4313
  354SOL    HW2 1062   1.753   2.917   1.891  1.8112  0.9460 -0.4717
  355SOL     OW 1063   2.105   1.240   0.088 -0.3672  0.0708  0.1757
  355SOL    HW1 1064   2.044   1.218   0.163  0.2204 -1.0885 -1.7420
  355SOL    HW2 1065   2.047   1.245   0.005 -0.7495  1.6028  2.4031
  356SOL     OW 1066   2.931   1.443   1.351  0.4430 -0.1549  0.4356
  356SOL    HW1 1067   2.943   1.392   1.436  0.3955  2.2822 -1.8014
  356SOL    HW2 1068   3.020   1.450   1.307 -0.0914 -0.2107  0.2664
  357SOL     OW 1069   0.422   2.604   1.522  0.2343  0.0857  0.4178
  357SOL    HW1 1070   0.400   2.659   1.439 -3.7368 -0.4459 -3.4288
  357SOL    HW2 1071   0.350   2.529   1.533  0.3135 -1.4487 -1.5136
  358SOL     OW 1072   2.564   1.707   1.452  0.3215 -0.1301 -0.7289
  358SOL    HW1 1073   2.551   1.717   1.550 -1.3988 -2.1551 -1.6952
  358SOL    HW2 1074   2.622   1.629   1.431 -2.3831 -2.8302  1.1004
  359SOL     OW 1075   2.198   2.695   2.767 -0.6090  0.2142 -0.4077
  359SOL    HW1 1076   2.297   2.679   2.773 -1.7278 -0.9163 -1.6169
  359SOL    HW2 1077   2.161   2.604   2.749  1.8631  4.6475  0.8528
  360SOL     OW 1078   1.244   2.972   1.068  0.5136  0.2096  0.1750
  360SOL    HW1 1079   1.305   2.955   0.987  0.7091 -1.2094 -0.5966
  360SOL    HW2 1080   1.166   2.910   1.060  0.9853  0.3563  1.8026
  361SOL     OW 1081   2.122   0.374   0.245 -0.3820  0.8590 -0.3898
  361SOL    HW1 1082   2.108   0.333   0.334 -0.1200 -1.0196 -1.9999
  361SOL    HW2 1083   2.116   0.474   0.246 -0.9998  1.1673 -0.6958
  362SOL     OW 1084   1.572   1.143   0.965 -0.2415  0.1181  0.1515
  362SOL    HW1 1085   1.631   1.184   0.895  1.1745 -1.8839  3.3870
  362SOL    HW2 1086   1.573   1.209   1.044 -0.0634  0.0553  0.0135
  363SOL     OW 1087   2.185   1.240   2.401  0.2801  0.3555 -0.1932
  363SOL    HW1 1088   2.122   1.305   2.453 -0.7486  1.7274  0.0397
  363SOL    HW2 1089   2.173   1.144   2.436  0.2536 -2.2508  1.4956
  364SOL     OW 1090   0.292   0.208   1.182  0.0480  0.5047 -0.1432
  364SOL    HW1 1091   0.241   0.297   1.187  0.2819 -0.3414 -1.9783
  364SOL    HW2 1092   0.233   0.128   1.203  3.4991  0.9625 -1.5434
  365SOL     OW 1093   0.569   0.089   2.822  0.3493 -0.0138 -0.3519
  365SOL    HW1 1094   0.576   3.105   2.779  0.3651  3.2902  0.8608
  365SOL    HW2 1095   0.658   0.140   2.823  0.5100 -0.0702 -1.9366
  366SOL     OW 1096   1.979   2.153   2.793 -0.2578 -0.1301 -0.2295
  366SOL    HW1 1097   1.889   2.142   2.831  2.7102  0.8515  0.0424
  366SOL    HW2 1098   2.037   2.085   2.835  0.8887  1.6006 -1.5404
  367SOL     OW 1099   2.866   2.347   0.157  0.1673  0.0921 -0.0495
  367SOL    HW1 1100   2.812   2.421   0.114 -0.3156 -3.0897 -2.6363
  367SOL    HW2 1101   2.927   2.392   0.226  0.4960  2.8898 -0.1199
  368SOL     OW 1102   2.804   1.217   1.277  0.4885  0.1757 -0.1199
  368SOL    HW1 1103   2.713   1.237   1.314 -0.0786  1.2210  0.3182
  368SOL    HW2 1104   2.871   1.291   1.275  1.4802 -1.7217 -1.7333
  369SOL     OW 1105   1.013   0.087   2.652 -0.0763  0.4919 -0.3954
  369SOL    HW1 1106   0.984   0.008   2.587 -1.9110  2.7112  0.6768
  369SOL    HW2 1107   1.071   0.044   2.725  0.5590 -2.1170  0.1720
  370SOL     OW 1108   2.723   0.294   0.750  0.0624  0.2770 -0.1486
  370SOL    HW1 1109   2.707   0.390   0.717  1.2629  0.1456  0.6947
  370SOL    HW2 1110   2.788   0.245   0.686  0.2051  1.3171  1.2284
  371SOL     OW 1111   1.545   2.285   1.018 -0.3386  0.0698 -0.6594
  371SOL    HW1 1112   1.561   2.188   0.985 -0.8955 -4.4465  0.0249
  371SOL    HW2 1113   1.632   2.341   1.001  3.2418  1.6702  0.4092
  372SOL     OW 1114   3.004   0.929   2.672  0.2431 -0.3540  0.8591
  372SOL    HW1 1115   3.017   0.915   2.577  0.7138 -1.6359  1.0465
  372SOL    HW2 1116   2.960   1.017   2.702  0.7407  0.1000 -3.9368
  373SOL     OW 1117   2.846   1.659   0.869 -0.2869 -0.0086 -0.1405
  373SOL    HW1 1118   2.853   1.720   0.787 -0.6898 -0.2736 -1.0007
  373SOL    HW2 1119   2.787   1.702   0.937 -1.5576 -0.8104 -1.6580
  374SOL     OW 1120   0.510   2.965   2.644 -0.1173 -0.0008 -0.1762
  374SOL    HW1 1121   0.426   2.925   2.686 -1.8644  1.1048 -0.6663
  374SOL    HW2 1122   0.594   2.909   2.650 -0.4487  2.0142  2.0903
  375SOL     OW 1123   0.126   0.088   3.065  0.3462  0.0633  0.0340
  375SOL    HW1 1124   0.223   0.117   3.059  0.2548  0.0247  0.3599
  375SOL    HW2 1125   0.110   0.012   0.029  0.1104 -0.4863 -0.3493
  376SOL     OW 1126   3.066   1.977   1.613  0.0904  0.0360 -0.0704
  376SOL    HW1 1127   0.034   2.028   1.657 -0.1815  2.0660  0.1667
  376SOL    HW2 1128   3.004   1.940   1.680  0.6975 -1.7124 -2.7822
  377SOL     OW 1129   1.737   2.197   2.372  0.1371  0.1042 -0.1310
  377SOL    HW1 1130   1.657   2.136   2.366 -0.6110  1.4712  0.7717
  377SOL    HW2 1131   1.712   2.286   2.327 -0.7314  2.2177  1.5288
  378SOL     OW 1132   0.454   0.360   2.747  0.5726 -0.5882  0.1961
  378SOL    HW1 1133   0.505   0.449   2.753 -0.2741  1.1796 -1.8313
  378SOL    HW2 1134   0.503   0.276   2.774  0.2075  0.9677 -1.7289
  379SOL     OW 1135   0.426   0.630   0.381 -0.1849  0.4210 -0.3368
  379SOL    HW1 1136   0.474   0.649   0.470 -0.3864  0.5988  0.3787
  379SOL    HW2 1137   0.452   0.541   0.341  2.2463  0.1588 -0.7534
  380SOL     OW 1138   0.312   1.662   1.749 -0.3685  0.5823  0.0094
  380SOL    HW1 1139   0.329   1.617   1.838 -2.8084  2.1722  0.4756
  380SOL    HW2 1140   0.303   1.765   1.754 -0.0708  1.2826 -0.1164
  381SOL     OW 1141   0.332   0.909   1.833  0.3960 -0.4922  0.1091
  381SOL    HW1 1142   0.238   0.867   1.852 -3.1091 -2.2661  0.2591
  381SOL    HW2 1143   0.361   0.904   1.736  0.0161  0.8480  0.2982
  382SOL     OW 1144   2.281   2.015   0.346 -0.6480 -0.1842  0.4225
  382SOL    HW1 1145   2.187   2.016   0.383  1.9556  2.9246  0.6037
  382SOL    HW2 1146   2.337   2.090   0.391  2.3044  0.2271  0.8553
  383SOL     OW 1147   0.213   1.995   2.630 -0.6353 -0.0618 -0.3779
  383SOL    HW1 1148   0.155   1.932   2.681 -1.3201  2.7909 -2.0391
  383SOL    HW2 1149   0.235   2.078   2.686  1.8058  3.1568 -1.4253
  384SOL     OW 1150   0.799   2.069   2.870 -0.5387  0.7949  0.0214
  384SOL    HW1 1151   0.836   2.013   2.947  0.5204 -2.9601 -0.7597
  384SOL    HW2 1152   0.766   2.160   2.894 -0.6926 -2.8035 -1.6723
  385SOL     OW 1153   2.596   1.923   0.693  0.3277  0.2190 -0.1292
  385SOL    HW1 1154   2.534   1.924   0.773  0.4474  0.4886  1.2979
  385SOL    HW2 1155   2.547   1.897   0.611 -0.0630 -0.2683 -0.1932
  386SOL     OW 1156   2.283   1.471   1.602  0.2109  0.4348 -0.0296
  386SOL    HW1 1157   2.373   1.456   1.644 -2.9131 -0.5360 -0.3356
  386SOL    HW2 1158   2.218   1.509   1.673  0.5459  2.9418 -1.7363
  387SOL     OW 1159   2.776   1.365   2.199 -0.0238  0.0594 -0.0134
  387SOL    HW1 1160   2.820   1.305   2.268 -0.0465 -0.2784  2.5755
  387SOL    HW2 1161   2.689   1.401   2.231  0.2477 -1.2686 -0.6875
  388SOL     OW 1162   0.094   1.744   2.007  0.2634 -0.6200  0.2820
  388SOL    HW1 1163   0.175   1.719   2.062 -1.0467 -2.3664  1.2127
  388SOL    HW2 1164   0.028   1.669   2.015  0.9560 -0.4222 -0.9441
  389SOL     OW 1165   1.855   1.052   1.844 -0.8874 -0.4320  0.1680
  389SOL    HW1 1166   1.895   1.033   1.755 -1.9366 -2.8603  0.2241
  389SOL    HW2 1167   1.826   1.147   1.846  1.5131 -2.0367 -3.1307
  390SOL     OW 1168   1.836   0.117   0.547 -0.1841 -0.2293  0.0368
  390SOL    HW1 1169   1.865   0.088   0.639  3.1058  1.1827 -1.4181
  390SOL    HW2 1170   1.781   0.206   0.546 -3.0304  0.4479 -1.1800
  391SOL     OW 1171   2.121   1.817   1.188 -0.1141 -0.1624 -0.7036
  391SOL    HW1 1172   2.216   1.805   1.225  0.3893 -3.3895  1.4969
  391SOL    HW2 1173   2.053   1.769   1.245 -1.5977  0.3973  1.4494
  392SOL     OW 1174   2.787   2.729   0.226 -0.2429  0.1037  0.6756
  392SOL    HW1 1175   2.839   2.692   0.301  0.3990 -2.4604 -2.1859
  392SOL    HW2 1176   2.701   2.771   0.255  0.9666 -1.8569 -0.1944
  393SOL     OW 1177   1.875   1.865   2.871  0.2429  0.5434  0.2140
  393SOL    HW1 1178   1.901   1.774   2.907  0.3936  4.7682 -1.1195
  393SOL    HW2 1179   1.903   1.869   2.776 -0.4076  1.1768  2.8670
  394SOL     OW 1180   0.187   2.988   2.618 -0.3162  0.1704 -0.7767
  394SOL    HW1 1181   0.152   3.069   2.675 -2.0367  2.4736  2.3197
  394SOL    HW2 1182   0.241   2.929   2.680 -0.0694  2.2259  0.4018
  395SOL     OW 1183   0.458   0.329   0.590  0.1324  0.1612  0.2997
  395SOL    HW1 1184   0.372   0.378   0.565  1.4230  0.8517  2.9880
  395SOL    HW2 1185   0.499   0.378   0.673  0.9488  0.8484  2.7976
  396SOL     OW 1186   1.530   0.891   0.415 -0.6248 -0.4760  0.3061
  396SOL    HW1 1187   1.624   0.854   0.406 -1.6499  1.2009  1.3691
  396SOL    HW2 1188   1.463   0.821   0.393  2.0667 -0.5412 -0.5975
  397SOL     OW 1189   0.514   0.564   2.372 -0.3305  0.2143 -0.0304
  397SOL    HW1 1190   0.412   0.553   2.384 -0.2342 -0.7161  0.2574
  397SOL    HW2 1191   0.536   0.617   2.292 -0.9935 -2.3186  2.8055
  398SOL     OW 1192   0.769   0.229   0.465  0.4232  0.0092 -0.1667
  398SOL    HW1 1193   0.776   0.293   0.544  1.3784  1.7966 -3.1666
  398SOL    HW2 1194   0.836   0.255   0.395  1.8689  3.7613 -0.5358
  399SOL     OW 1195   2.075   2.939   1.580  0.2886  0.7751  0.2026
  399SOL    HW1 1196   2.066   2.968   1.680  0.9724  1.3578  1.7875
  399SOL    HW2 1197   2.148   2.871   1.570  0.5241  0.3162  1.7390
  400SOL     OW 1198   0.798   1.796   2.032 -0.1678  0.1488 -0.1347
  400SOL    HW1 1199   0.898   1.805   2.005 -2.1883 -0.0500  1.3152
  400SOL    HW2 1200   0.780   1.808   2.135 -0.8280 -0.0099  0.2606
  401SOL     OW 1201   0.685   1.213   2.678  0.1143 -0.9274  0.5080
  401SOL    HW1 1202   0.756   1.221   2.747  0.8195 -0.1627 -4.1942
  401SOL    HW2 1203   0.610   1.143   2.702 -1.7144  1.6537 -0.2937
  402SOL     OW 1204   2.965   2.106   0.766  0.0508  0.5166  0.5226
  402SOL    HW1 1205   3.060   2.088   0.733 -0.7031 -1.5972  0.4374
  402SOL    HW2 1206   2.916   2.022   0.741  0.9679  1.6296  0.7536
  403SOL     OW 1207   0.137   0.986   2.325 -0.0356 -0.5657  0.0900
  403SOL    HW1 1208   0.102   0.975   2.232 -0.3228  1.7516  1.6820
  403SOL    HW2 1209   0.238   1.014   2.316  2.4603 -0.1635 -0.5327
  404SOL     OW 1210   0.191   2.372   1.914  0.5364  0.1453  0.0827
  404SOL    HW1 1211   0.121   2.389   1.843 -0.0519  0.6177  2.9581
  404SOL    HW2 1212   0.231   2.461   1.935 -1.9728 -0.6853  0.1380
  405SOL     OW 1213   0.067   0.425   1.903  0.0061  0.2470 -0.1595
  405SOL    HW1 1214   0.161   0.421   1.864  1.9005 -0.2072  2.5250
  405SOL    HW2 1215   0.063   0.381   1.994 -1.1686 -1.2743  1.9978
  406SOL     OW 1216   1.482   1.610   2.563  0.7591 -0.7108 -0.1337
  406SOL    HW1 1217   1.533   1.681   2.510  1.1891 -1.6172 -1.5659
  406SOL    HW2 1218   1.551   1.569   2.630  1.4657 -1.8866 -1.6867
  407SOL     OW 1219   1.376   1.233   2.424 -0.6210  0.2327  0.1542
  407SOL    HW1 1220   1.313   1.230   2.343 -1.6104  0.0140  0.7620
  407SOL    HW2 1221   1.474   1.223   2.396 -0.3191  3.0510  0.9397
  408SOL     OW 1222   0.930   3.012   2.490  0.0843 -0.5977 -0.1089
  408SOL    HW1 1223   0.842   3.038   2.451  1.7159  2.4217  1.5860
  408SOL    HW2 1224   0.956   2.920   2.456 -1.2033  0.0164  1.6396
  409SOL     OW 1225   0.106   2.092   0.644  0.2132 -0.0952  0.6043
  409SOL    HW1 1226   0.072   2.133   0.557  2.5167 -0.0068 -2.3100
  409SOL    HW2 1227   0.163   2.010   0.632 -2.5858  1.3245  2.0561
  410SOL     OW 1228   2.510   1.457   0.204 -0.5166  0.4772  0.1108
  410SOL    HW1 1229   2.603   1.433   0.237  1.0908 -1.6878 -0.0513
  410SOL    HW2 1230   2.506   1.446   0.105 -1.0763  1.2990  3.7798
  411SOL     OW 1231   0.143   3.070   1.219  0.2340 -0.3041 -0.0933
  411SOL    HW1 1232   0.149   3.037   1.315  1.9577 -0.1773 -0.7468
  411SOL    HW2 1233   0.188   3.004   1.160 -0.4869  1.6063 -0.0418
  412SOL     OW 1234   1.644   0.577   1.421  0.8974 -0.3218 -0.1442
  412SOL    HW1 1235   1.609   0.501   1.365 -0.8342 -0.7650 -0.3204
  412SOL    HW2 1236   1.593   0.659   1.403  0.8826 -3.6145  2.0886
  413SOL     OW 1237   0.732   0.001   1.911  0.1570 -0.1399  0.8314
  413SOL    HW1 1238   0.646   3.061   1.897  1.6127  1.9857 -0.3672
  413SOL    HW2 1239   0.714   0.103   1.902 -0.4370  0.2755 -0.6450
  414SOL     OW 1240   2.892   1.592   2.698 -0.4075 -0.1169  0.2417
  414SOL    HW1 1241   2.893   1.518   2.771 -1.1985  1.0539  1.4808
  414SOL    HW2 1242   2.954   1.574   2.620 -1.6072 -0.5064 -0.5695
  415SOL     OW 1243   0.685   2.565   0.046 -0.0395 -0.6695  0.6531
  415SOL    HW1 1244   0.780   2.602   0.049 -1.4178 -1.9461 -0.6764
  415SOL    HW2 1245   0.624   2.626   0.094 -0.0759 -2.6522 -1.5700
  416SOL     OW 1246   1.909   3.038   2.909  0.3416 -0.2738  0.4798
  416SOL    HW1 1247   1.901   3.080   3.001 -0.9578  0.8343 -0.5585
  416SOL    HW2 1248   1.892   0.004   2.839  0.7309  2.0372 -0.8934
  417SOL     OW 1249   0.036   0.497   0.711 -0.4528 -0.6446  0.8085
  417SOL    HW1 1250   0.106   0.494   0.788  1.5842  1.9142 -1.0266
  417SOL    HW2 1251   0.018   0.406   0.682 -1.2058  0.7948  0.6554
  418SOL     OW 1252   2.346   0.242   0.984  0.3491 -0.0158 -0.4530
  418SOL    HW1 1253   2.248   0.242   0.971 -0.3675 -0.6202 -0.0491
  418SOL    HW2 1254   2.392   0.300   0.916 -2.7724 -0.3907  1.5117
  419SOL     OW 1255   3.077   2.906   0.853  0.3718  0.3205  0.3429
  419SOL    HW1 1256   2.996   2.957   0.816  0.2170  0.7925 -0.1339
  419SOL    HW2 1257   0.058   2.912   0.796 -0.4560 -0.2743 -0.1626
  420SOL     OW 1258   0.072   1.389   1.570 -0.3091  0.1995  0.2285
  420SOL    HW1 1259   0.126   1.315   1.530 -0.7833 -0.7052  0.1338
  420SOL    HW2 1260   3.080   1.358   1.574  3.0923 -1.0336 -0.4962
  421SOL     OW 1261   1.288   2.915   0.581 -0.1078 -0.5738 -0.8231
  421SOL    HW1 1262   1.218   2.864   0.640  0.7808  0.4309 -0.6427
  421SOL    HW2 1263   1.345   2.860   0.524 -0.8635 -0.0149 -0.0663
  422SOL     OW 1264   0.702   0.291   1.321 -0.5337 -0.0932 -0.3954
  422SOL    HW1 1265   0.777   0.264   1.386 -2.0771 -1.6530  1.9397
  422SOL    HW2 1266   0.636   0.215   1.309  2.0480 -1.3344 -0.8686
  423SOL     OW 1267   1.159   1.324   1.883 -0.1322 -0.6632  0.2224
  423SOL    HW1 1268   1.147   1.405   1.944  2.7960  2.1545  1.8898
  423SOL    HW2 1269   1.120   1.242   1.922 -1.0391  2.9759  0.1320
  424SOL     OW 1270   2.158   1.860   0.068  0.1775 -0.0897  0.0310
  424SOL    HW1 1271   2.133   1.960   0.079  0.5641  3.1442 -1.8941
  424SOL    HW2 1272   2.160   1.809   0.158  0.8788 -0.1588 -1.7732
  425SOL     OW 1273   0.051   0.285   2.144  0.3414 -0.2255  0.0217
  425SOL    HW1 1274   3.097   0.203   2.131  1.6454 -0.5167  1.4453
  425SOL    HW2 1275   0.120   0.262   2.214 -0.0844 -1.0610  1.6092
  426SOL     OW 1276   0.315   2.839   2.810 -0.3918 -0.0368 -0.1863
  426SOL    HW1 1277   0.358   2.864   2.900  0.3644  1.4385  1.2517
  426SOL    HW2 1278   0.358   2.754   2.772  1.1997  2.6139  3.8778
  427SOL     OW 1279   1.003   0.840   2.940 -0.0573 -0.0738  0.4480
  427SOL    HW1 1280   1.095   0.876   2.941 -1.2772 -1.3438  5.0847
  427SOL    HW2 1281   0.996   0.751   2.892  1.2513 -1.6458 -0.7954
  428SOL     OW 1282   2.765   0.937   1.573  0.3936 -0.0681 -0.4325
  428SOL    HW1 1283   2.696   0.927   1.495 -1.9743 -0.0431  0.7315
  428SOL    HW2 1284   2.848   0.986   1.540 -1.4971  2.0211 -0.1354
  429SOL     OW 1285   2.314   2.948   1.039  0.0742 -0.8097  0.3125
  429SOL    HW1 1286   2.314   2.891   1.123 -0.7270 -0.1889 -2.3685
  429SOL    HW2 1287   2.311   2.885   0.955 -1.2867 -0.9850 -3.2615
  430SOL     OW 1288   0.993   1.497   2.547  0.0545  0.1928 -0.3882
  430SOL    HW1 1289   0.956   1.576   2.601 -1.3911 -3.0430  0.6275
  430SOL    HW2 1290   1.093   1.486   2.566  1.9439 -0.5776  2.6377
  431SOL     OW 1291   2.734   1.512   1.523 -0.6155  0.3360 -0.2902
  431SOL    HW1 1292   2.788   1.520   1.608  3.3284  1.0033  0.5053
  431SOL    HW2 1293   2.794   1.510   1.441 -1.5346 -0.0731  1.0413
  432SOL     OW 1294   0.938   2.365   2.529 -0.3048 -0.0863 -0.0419
  432SOL    HW1 1295   0.866   2.393   2.595  0.1201 -0.5257  1.6975
  432SOL    HW2 1296   1.028   2.371   2.578  1.3741  0.1202  0.6397
  433SOL     OW 1297   1.803   0.286   2.143 -0.2801 -0.3560 -0.4791
  433SOL    HW1 1298   1.898   0.268   2.181  0.7840  0.2122  0.5530
  433SOL    HW2 1299   1.764   0.379   2.159 -0.5731  2.4028  0.2673
  434SOL     OW 1300   0.851   2.416   2.239 -0.1318  0.3244  0.4775
  434SOL    HW1 1301   0.826   2.515   2.223  1.9086 -2.7774 -1.4836
  434SOL    HW2 1302   0.899   2.409   2.329 -0.3622  0.7005 -3.2148
  435SOL     OW 1303   0.379   2.929   0.230 -0.0723  0.1833 -0.0877
  435SOL    HW1 1304   0.386   3.022   0.185 -3.1376  2.0014  0.5313
  435SOL    HW2 1305   0.403   2.936   0.329  2.8109 -0.5066  0.9883
  436SOL     OW 1306   0.601   0.740   2.130  0.2493 -0.0238 -0.0783
  436SOL    HW1 1307   0.560   0.835   2.126 -0.1342  4.1121  0.9973
  436SOL    HW2 1308   0.524   0.672   2.112  2.3706 -0.8231 -0.2779
  437SOL     OW 1309   0.568   2.378   2.659 -0.0929 -0.3420 -0.1333
  437SOL    HW1 1310   0.571   2.346   2.565 -0.0940  1.6974 -1.9575
  437SOL    HW2 1311   0.533   2.309   2.727 -0.4259 -2.7119  0.4712
  438SOL     OW 1312   0.961   1.370   1.447  0.6574 -0.3642 -0.4425
  438SOL    HW1 1313   0.996   1.450   1.395 -0.6534  2.9347 -0.3151
  438SOL    HW2 1314   1.036   1.337   1.506 -0.9304  0.8752  1.8984
  439SOL     OW 1315   2.394   1.114   2.287  0.3308  0.3332 -0.3764
  439SOL    HW1 1316   2.446   1.054   2.353  0.3680 -2.1921  1.1071
  439SOL    HW2 1317   2.314   1.162   2.331  0.6590  1.0280  1.4061
  440SOL     OW 1318   0.057   0.585   0.190 -0.3666 -0.4757  0.0778
  440SOL    HW1 1319   0.134   0.531   0.160 -0.3269 -2.6084 -0.3046
  440SOL    HW2 1320   0.072   0.686   0.177  0.8268  3.9146 -0.7665
  441SOL     OW 1321   1.394   2.089   1.577  0.4557  0.2604  0.2880
  441SOL    HW1 1322   1.390   2.189   1.583  0.4383  1.4739 -1.8055
  441SOL    HW2 1323   1.300   2.042   1.546 -3.5358 -0.7225  0.1148
  442SOL     OW 1324   2.008   1.574   0.719  0.3327  0.2154  0.3581
  442SOL    HW1 1325   2.050   1.611   0.804  1.9310 -1.7088  1.5928
  442SOL    HW2 1326   2.042   1.478   0.692  1.2776 -2.6009 -2.3688
  443SOL     OW 1327   2.735   2.051   2.653 -0.1075  0.0791 -0.4478
  443SOL    HW1 1328   2.700   2.137   2.615 -0.8161  0.0667 -0.1302
  443SOL    HW2 1329   2.660   1.995   2.703 -3.6170 -0.5284  1.1605
  444SOL     OW 1330   1.562   1.664   2.991  0.3814 -0.6217  0.4365
  444SOL    HW1 1331   1.600   1.648   3.081  0.6425  0.2634 -0.4664
  444SOL    HW2 1332   1.493   1.592   2.966 -0.5706 -3.9609  1.3831
  445SOL     OW 1333   2.651   2.955   2.056  1.0723 -0.2445 -0.1479
  445SOL    HW1 1334   2.675   2.863   2.019  0.9756  0.1177 -0.2684
  445SOL    HW2 1335   2.710   3.027   2.022 -0.6510 -0.2414  0.6314
  446SOL     OW 1336   0.738   0.950   1.840 -0.1572  0.1381  0.1110
  446SOL    HW1 1337   0.721   1.010   1.922 -1.2674 -1.1464  1.9849
  446SOL    HW2 1338   0.725   0.850   1.858 -0.4152  1.3076 -0.0350
  447SOL     OW 1339   0.709   0.786   0.989 -0.0176 -0.2985  0.8138
  447SOL    HW1 1340   0.607   0.791   0.980 -2.6474 -4.2786 -1.3918
  447SOL    HW2 1341   0.730   0.754   1.083 -0.3567  1.4086 -1.1398
  448SOL     OW 1342   1.007   1.085   2.273  0.1542  0.1233 -0.2928
  448SOL    HW1 1343   0.974   1.139   2.352 -0.7778 -0.5360  1.9619
  448SOL    HW2 1344   0.955   0.996   2.264  0.7381 -2.8451 -0.3559
  449SOL     OW 1345   3.053   2.103   2.222 -0.3720 -0.5794 -0.0535
  449SOL    HW1 1346   0.021   2.089   2.295  1.7546 -0.1147  1.6025
  449SOL    HW2 1347   3.018   2.015   2.181  2.8204  1.2333  0.6077
  450SOL     OW 1348   2.527   1.881   2.093 -0.0958  0.3604 -0.3506
  450SOL    HW1 1349   2.510   1.880   2.193 -0.8062  1.2690  3.0747
  450SOL    HW2 1350   2.460   1.812   2.055 -2.0926  0.1721  1.1201
  451SOL     OW 1351   2.528   1.191   1.295  0.3233 -0.1717  0.2638
  451SOL    HW1 1352   2.451   1.236   1.238 -2.3338 -0.6595  0.6220
  451SOL    HW2 1353   2.481   1.166   1.380  1.3001  1.0290  0.3396
  452SOL     OW 1354   0.207   1.209   1.445  0.0311 -0.8505  0.1149
  452SOL    HW1 1355   0.141   1.171   1.374  1.8393  1.2107 -1.8951
  452SOL    HW2 1356   0.307   1.224   1.409  1.4914 -2.9643 -1.7846
  453SOL     OW 1357   0.408   0.873   0.681  0.8669  0.1526  0.2980
  453SOL    HW1 1358   0.452   0.792   0.642 -2.0335  0.8870  2.2620
  453SOL    HW2 1359   0.343   0.913   0.618  1.0078  0.1330  1.2031
  454SOL     OW 1360   0.566   1.623   0.432 -0.3913  0.1039  0.4866
  454SOL    HW1 1361   0.541   1.551   0.503  2.2276  0.1486  0.9492
  454SOL    HW2 1362   0.479   1.645   0.382 -0.3412  0.4809  0.6386
  455SOL     OW 1363   1.563   0.910   1.094 -0.2863  0.4586 -0.1360
  455SOL    HW1 1364   1.549   0.995   1.040  1.4420  2.1663  0.9361
  455SOL    HW2 1365   1.655   0.876   1.068  3.0498 -1.0269 -2.3338
  456SOL     OW 1366   1.671   2.620   0.834 -1.1247  0.0078  0.3027
  456SOL    HW1 1367   1.587   2.617   0.885  1.7351 -1.4349 -1.0020
  456SOL    HW2 1368   1.681   2.711   0.785 -2.4230  2.2661 -1.9377
  457SOL     OW 1369   1.775   0.354   2.460  0.3807  0.1458  0.0807
  457SOL    HW1 1370   1.677   0.322   2.463 -1.9914 -2.1548  0.5664
  457SOL    HW2 1371   1.821   0.304   2.387  0.1351  1.0269 -0.6419
  458SOL     OW 1372   2.388   0.557   3.067 -0.1323  0.5915  0.0363
  458SOL    HW1 1373   2.357   0.485   2.996 -0.0434 -0.8517 -0.5105
  458SOL    HW2 1374   2.468   0.608   3.027  0.2543 -1.2989  2.6328
  459SOL     OW 1375   3.055   1.510   2.069 -0.6681 -1.2793  0.2557
  459SOL    HW1 1376   0.018   1.474   2.138  0.9008 -2.9146  2.1301
  459SOL    HW2 1377   2.964   1.479   2.100  2.9534  0.2974 -0.9993
  460SOL     OW 1378   0.256   0.799   2.988 -0.1643 -0.1869 -0.5057
  460SOL    HW1 1379   0.201   0.777   2.908  1.3903  0.4223 -3.8034
  460SOL    HW2 1380   0.335   0.732   2.996  1.7205 -1.6774 -1.8178
  461SOL     OW 1381   2.945   2.447   0.389 -0.3427  0.1486  0.8605
  461SOL    HW1 1382   2.853   2.436   0.428  1.7361  2.7028  1.5158
  461SOL    HW2 1383   2.989   2.365   0.425  0.4384  1.5035 -0.4272
  462SOL     OW 1384   0.084   0.084   1.779  0.1867  0.2364  0.3473
  462SOL    HW1 1385   0.051   3.093   1.763 -0.5750  0.2498 -3.7648
  462SOL    HW2 1386   0.041   0.144   1.707 -1.0916  1.1784  0.4532
  463SOL     OW 1387   1.817   2.145   2.054  0.2612  0.4401 -0.0210
  463SOL    HW1 1388   1.821   2.077   1.978 -0.1400 -1.3060 -2.3038
  463SOL    HW2 1389   1.787   2.241   2.035  0.5876  0.6090  2.9433
  464SOL     OW 1390   0.318   2.776   1.277 -0.1371 -0.2774 -0.7445
  464SOL    HW1 1391   0.392   2.830   1.325  0.5002  0.1146  1.2918
  464SOL    HW2 1392   0.296   2.820   1.186  2.9457 -0.9929  1.0406
  465SOL     OW 1393   0.391   0.042   1.569  0.3473  0.3455 -0.2926
  465SOL    HW1 1394   0.410   0.028   1.670  0.1036  1.3405  2.3559
  465SOL    HW2 1395   0.372   0.143   1.554 -2.2822  2.1025  0.1974
  466SOL     OW 1396   1.209   1.988   2.411  0.8129 -0.1378  0.3539
  466SOL    HW1 1397   1.228   1.895   2.378  1.3353 -1.3050  1.7434
  466SOL    HW2 1398   1.111   2.012   2.392 -1.2374 -3.7444 -0.9012
  467SOL     OW 1399   2.877   1.506   0.625 -0.2527  0.2137 -0.7209
  467SOL    HW1 1400   2.856   1.528   0.724 -2.3204 -0.9424  0.3248
  467SOL    HW2 1401   2.812   1.434   0.595 -0.9845 -0.2700  1.2537
  468SOL     OW 1402   2.277   1.955   2.667 -0.5470  0.0653  0.3933
  468SOL    HW1 1403   2.192   1.902   2.648 -2.2472 -1.9654 -0.3252
  468SOL    HW2 1404   2.308   1.992   2.576 -1.6364  2.3586  0.3078
  469SOL     OW 1405   1.371   2.364   0.607  0.3029 -0.1029  0.5413
  469SOL    HW1 1406   1.376   2.338   0.509 -1.7786  1.8751 -1.0506
  469SOL    HW2 1407   1.332   2.287   0.661 -1.5654  0.5907 -1.5014
  470SOL     OW 1408   1.984   1.776   1.427  0.0217  0.0789 -0.0746
  470SOL    HW1 1409   1.943   1.865   1.451 -1.7991 -3.0307 -3.9238
  470SOL    HW2 1410   2.077   1.768   1.462 -0.5245 -0.4083 -0.8538
  471SOL     OW 1411   0.185   2.352   0.262 -0.4554  0.4471 -0.3046
  471SOL    HW1 1412   0.178   2.453   0.250  2.6181 -0.5621  0.9683
  471SOL    HW2 1413   0.223   2.306   0.181 -0.1305 -1.3111  1.4298
  472SOL     OW 1414   2.535   1.801   2.371 -0.0067 -0.1462 -0.2071
  472SOL    HW1 1415   2.528   1.706   2.397 -0.0691 -0.5639  0.4764
  472SOL    HW2 1416   2.614   1.850   2.414  0.9500  0.2380  0.2805
  473SOL     OW 1417   1.442   2.694   0.984 -0.2306 -0.3559  0.1911
  473SOL    HW1 1418   1.361   2.684   1.044  2.7593  0.6519 -0.4732
  473SOL    HW2 1419   1.436   2.781   0.931 -0.7795  0.2829  1.7913
  474SOL     OW 1420   2.884   0.121   1.350 -0.3764  0.4372  0.0877
  474SOL    HW1 1421   2.863   0.018   1.352  0.2441  1.1287 -0.7305
  474SOL    HW2 1422   2.800   0.172   1.364  0.5897 -2.0970 -0.2312
  475SOL     OW 1423   2.214   2.869   1.906  0.7455 -0.2616 -0.6608
  475SOL    HW1 1424   2.315   2.885   1.885  0.7101 -0.2680  0.1478
  475SOL    HW2 1425   2.158   2.945   1.872 -1.6338 -0.2373 -0.5728
  476SOL     OW 1426   0.192   0.444   0.931 -0.0255 -0.3113  0.2660
  476SOL    HW1 1427   0.271   0.376   0.938 -0.6373  0.0040 -0.2920
  476SOL    HW2 1428   0.142   0.453   1.018 -0.3956  0.5795 -0.3450
  477SOL     OW 1429   0.759   1.936   0.982  0.4610  0.0678  0.0013
  477SOL    HW1 1430   0.728   2.029   1.007 -1.5309  2.2532  1.1943
  477SOL    HW2 1431   0.854   1.914   1.006 -2.5554  1.3523 -1.2453
  478SOL     OW 1432   0.785   2.400   2.791 -0.7556  0.0355 -0.0483
  478SOL    HW1 1433   0.757   2.392   2.888 -0.1019  0.3342  0.0229
  478SOL    HW2 1434   0.704   2.408   2.731 -1.4371  0.9696 -0.9908
  479SOL     OW 1435   0.070   0.992   2.062 -0.0233  0.1397  0.2046
  479SOL    HW1 1436   3.076   0.985   2.084 -3.2520  1.4679 -2.7613
  479SOL    HW2 1437   0.090   0.959   1.970  0.4250  3.1935 -1.8649
  480SOL     OW 1438   0.244   2.215   2.960  0.1153  0.4918  0.0025
  480SOL    HW1 1439   0.264   2.177   3.051  1.0984  0.8704  0.9911
  480SOL    HW2 1440   0.143   2.211   2.937  1.9941  1.6104 -0.0439
  481SOL     OW 1441   1.612   3.001   2.199 -0.0645  0.0681 -0.2427
  481SOL    HW1 1442   1.659   3.002   2.288  1.9506  0.0435  0.0169
  481SOL    HW2 1443   1.569   3.092   2.180 -0.0687 -1.2087  0.0510
  482SOL     OW 1444   1.816   1.982   0.063 -0.7367 -0.5030  0.0830
  482SOL    HW1 1445   1.763   1.918   0.126 -0.3541 -1.3758 -0.2432
  482SOL    HW2 1446   1.846   1.934   3.083  1.5838 -3.3130 -1.8223
  483SOL     OW 1447   1.006   2.565   2.769  0.4784 -0.1845 -0.6278
  483SOL    HW1 1448   1.096   2.523   2.766 -0.6257 -1.2705 -1.3970
  483SOL    HW2 1449   0.939   2.490   2.770  0.9661 -1.0490  0.0046
  484SOL     OW 1450   0.681   2.812   0.858  0.2967  0.1442 -0.5235
  484SOL    HW1 1451   0.711   2.902   0.821  0.6073  1.1852 -1.9156
  484SOL    HW2 1452   0.657   2.821   0.957 -1.5859 -1.5508 -1.2607
  485SOL     OW 1453   1.958   0.859   0.634  0.1748 -0.6222  0.9123
  485SOL    HW1 1454   1.943   0.961   0.651  0.0966 -2.1898 -0.0418
  485SOL    HW2 1455   1.907   0.802   0.703  0.1438 -2.5500  0.8482
  486SOL     OW 1456   2.080   2.783   2.286 -0.0755 -0.0507 -0.0884
  486SOL    HW1 1457   2.140   2.737   2.354  1.8695 -1.9116 -0.6633
  486SOL    HW2 1458   2.081   2.729   2.199  0.9052 -1.2044  1.9716
  487SOL     OW 1459   1.223   2.016   0.663  0.2046 -0.0385 -0.2729
  487SOL    HW1 1460   1.126   2.017   0.639  1.9847  0.0603  0.5331
  487SOL    HW2 1461   1.251   2.090   0.730  0.6789 -1.6536 -0.1686
  488SOL     OW 1462   2.067   0.242   0.008  0.4918  0.2427  0.5631
  488SOL    HW1 1463   2.073   0.278   0.105  0.9719 -1.7716  1.4519
  488SOL    HW2 1464   2.033   0.316   3.049  1.1409  2.1350 -2.3156
  489SOL     OW 1465   2.261   2.926   0.537 -0.8974  0.1851 -0.3286
  489SOL    HW1 1466   2.287   3.011   0.485 -0.6086  0.6940  0.0264
  489SOL    HW2 1467   2.158   2.933   0.553 -2.3086  1.9000 -1.4672
  490SOL     OW 1468   1.674   2.919   2.969 -0.1351 -0.4318  0.0007
  490SOL    HW1 1469   1.770   2.954   2.955 -1.4923  0.4561  1.9852
  490SOL    HW2 1470   1.621   2.988   3.018 -0.8032  1.0353  2.9350
  491SOL     OW 1471   0.897   0.131   0.901 -0.1188 -0.1465  0.7084
  491SOL    HW1 1472   0.989   0.136   0.952  0.9347 -1.5845 -0.2510
  491SOL    HW2 1473   0.814   0.119   0.961  0.3331  1.8106  0.5361
  492SOL     OW 1474   1.889   3.066   0.292  0.0859 -0.1052  0.1609
  492SOL    HW1 1475   1.890   0.017   0.382  0.1232  0.2182  0.2522
  492SOL    HW2 1476   1.921   2.972   0.316  1.1396 -0.1515 -1.0825
  493SOL     OW 1477   1.648   2.559   2.766  0.4453 -0.1317 -0.1204
  493SOL    HW1 1478   1.664   2.465   2.730  2.2614 -1.3617 -0.8562
  493SOL    HW2 1479   1.636   2.559   2.870  0.4293 -0.6629  0.5074
  494SOL     OW 1480   0.543   1.191   0.977  0.1493 -0.0732 -0.1944
  494SOL    HW1 1481   0.527   1.134   1.061  2.0289 -0.2560  0.8831
  494SOL    HW2 1482   0.489   1.157   0.901  1.2689  1.2330  1.9302
  495SOL     OW 1483   2.944   0.283   1.859  0.3638 -0.0369  0.0406
  495SOL    HW1 1484   2.923   0.277   1.758  1.4637 -0.6676 -1.5734
  495SOL    HW2 1485   3.021   0.345   1.877 -2.5315  2.2099  1.5207
  496SOL     OW 1486   2.560   2.574   2.007  0.3859 -0.0425 -0.7566
  496SOL    HW1 1487   2.583   2.492   2.064  1.8284 -1.5624  0.1836
  496SOL    HW2 1488   2.502   2.633   2.066  1.6756 -3.7163 -0.0162
  497SOL     OW 1489   1.761   1.336   2.799 -0.0133  0.0675  0.4797
  497SOL    HW1 1490   1.785   1.314   2.701  2.5623  2.1450  2.7406
  497SOL    HW2 1491   1.673   1.297   2.828  1.3099 -0.6336  0.7335
  498SOL     OW 1492   0.861   2.209   0.721  0.1809 -0.0538 -0.1539
  498SOL    HW1 1493   0.875   2.312   0.728 -0.7874  2.7902 -0.7482
  498SOL    HW2 1494   0.886   2.165   0.811 -2.1471  0.5096  0.3107
  499SOL     OW 1495   0.250   1.554   0.920 -0.4744 -0.4881 -0.5010
  499SOL    HW1 1496   0.150   1.570   0.940 -3.5249 -2.6190  1.1850
  499SOL    HW2 1497   0.287   1.477   0.977 -0.7053 -0.7410  0.2050
  500SOL     OW 1498   1.537   2.759   0.606  0.3851 -0.3152  0.0827
  500SOL    HW1 1499   1.522   2.764   0.507  2.1240 -1.1887 -0.2869
  500SOL    HW2 1500   1.450   2.729   0.651 -3.7177  2.2031 -1.5477
  501SOL     OW 1501   2.108   2.580   1.074 -0.1649  0.2153  0.6243
  501SOL    HW1 1502   2.205   2.560   1.091 -0.1984 -1.6695  1.4307
  501SOL    HW2 1503   2.096   2.629   0.983 -0.3317 -0.5818 -1.3041
  502SOL     OW 1504   0.536   0.456   1.455 -0.5383 -0.1954  0.0262
  502SOL    HW1 1505   0.455   0.402   1.493 -2.9376  0.0843  2.2686
  502SOL    HW2 1506   0.599   0.398   1.402  1.1105  2.4705  0.0294
  503SOL     OW 1507   2.022   0.315   1.521  0.5707  0.6771  0.1188
  503SOL    HW1 1508   1.926   0.280   1.510 -2.2671  1.4343  1.8403
  503SOL    HW2 1509   2.079   0.261   1.587 -1.1609  0.3506  1.9215
  504SOL     OW 1510   2.037   0.852   1.918 -0.1555 -0.7062 -0.3514
  504SOL    HW1 1511   1.944   0.892   1.911  3.3169  0.0530 -2.9327
  504SOL    HW2 1512   2.107   0.911   1.875 -0.4869 -1.6365  1.7815
  505SOL     OW 1513   1.092   2.977   2.228  0.1775  0.1810  0.2863
  505SOL    HW1 1514   1.005   3.025   2.215 -0.3150  0.0653  0.3319
  505SOL    HW2 1515   1.150   3.032   2.294  1.0508 -0.4514 -0.6590
  506SOL     OW 1516   0.346   0.377   1.837  0.2049  0.2983 -0.6823
  506SOL    HW1 1517   0.421   0.441   1.827 -2.7897 -3.2973  1.4940
  506SOL    HW2 1518   0.351   0.316   1.920  0.8851 -1.0124 -0.5018
  507SOL     OW 1519   1.529   0.176   2.985 -0.3023 -0.2159  0.3492
  507SOL    HW1 1520   1.598   0.228   3.040  1.5818 -2.0239 -0.4453
  507SOL    HW2 1521   1.527   0.082   3.022  0.4642 -1.0678 -2.0121
  508SOL     OW 1522   2.358   0.589   2.382  0.1963  0.3279 -0.3202
  508SOL    HW1 1523   2.410   0.597   2.467 -1.8187  0.6728 -1.9220
  508SOL    HW2 1524   2.338   0.681   2.337 -0.0370  0.6397 -2.2620
  509SOL     OW 1525   0.764   1.283   2.246 -0.2633 -0.8054  0.2636
  509SOL    HW1 1526   0.709   1.375   2.247 -0.2035  0.5200  2.5516
  509SOL    HW2 1527   0.796   1.268   2.340 -0.7947 -1.1848 -1.4925
  510SOL     OW 1528   2.856   0.519   0.925 -0.0990 -0.3213  0.3436
  510SOL    HW1 1529   2.858   0.611   0.969  1.6251 -1.0696 -1.9337
  510SOL    HW2 1530   2.799   0.512   0.843 -0.3386  0.0857  0.5967
  511SOL     OW 1531   1.757   1.498   1.138 -0.2865 -0.0476  0.1190
  511SOL    HW1 1532   1.726   1.543   1.053 -0.6993  0.9384  1.1957
  511SOL    HW2 1533   1.754   1.557   1.216 -0.3938 -2.1610  0.4705
  512SOL     OW 1534   0.499   1.422   0.602 -0.0256 -0.0620 -0.2017
  512SOL    HW1 1535   0.438   1.358   0.556  0.0875  1.9351  1.7360
  512SOL    HW2 1536   0.583   1.378   0.636 -1.6584  2.5862 -0.9220
  513SOL     OW 1537   0.616   2.175   1.031 -0.5981 -0.4382  0.5160
  513SOL    HW1 1538   0.535   2.127   0.984  0.6148 -2.5294  2.4816
  513SOL    HW2 1539   0.609   2.277   1.020 -3.9661  2.1638 -1.1529
  514SOL     OW 1540   0.220   2.122   0.094  0.1370 -0.8069  0.0096
  514SOL    HW1 1541   0.121   2.144   0.103  0.9886  0.9124 -0.1703
  514SOL    HW2 1542   0.248   2.059   0.164 -2.0830  3.2836 -3.9553
  515SOL     OW 1543   2.762   0.062   0.143  0.3217  0.0195 -0.0290
  515SOL    HW1 1544   2.807   3.099   0.081 -1.6935  1.8923 -2.5189
  515SOL    HW2 1545   2.801   0.053   0.241  3.8256  0.4175  3.1002
  516SOL     OW 1546   2.081   0.016   1.016 -0.2887  0.0350  0.2743
  516SOL    HW1 1547   2.020   3.093   1.095 -1.4586  0.7896  1.1146
  516SOL    HW2 1548   2.170   3.077   1.023 -2.0843  4.0409 -0.3950
  517SOL     OW 1549   1.552   1.607   0.397  0.1627  0.4995  0.2741
  517SOL    HW1 1550   1.635   1.604   0.456 -1.6838 -1.3222  2.0844
  517SOL    HW2 1551   1.533   1.514   0.365 -0.4178  1.4896 -0.7989
  518SOL     OW 1552   1.288   0.714   1.387 -0.0051  0.5764 -0.6241
  518SOL    HW1 1553   1.262   0.670   1.299  2.0707  0.7665  0.8762
  518SOL    HW2 1554   1.390   0.732   1.374  1.8093 -2.2731 -1.4453
  519SOL     OW 1555   2.627   2.213   0.213 -0.5178 -0.0263  0.0767
  519SOL    HW1 1556   2.659   2.137   0.273 -0.0807 -1.6971  2.0714
  519SOL    HW2 1557   2.707   2.262   0.168  2.7406  3.5272 -3.0955
  520SOL     OW 1558   2.306   2.026   1.833  0.0087  0.0976  0.3554
  520SOL    HW1 1559   2.292   1.926   1.818  2.4579  1.5479  1.1716
  520SOL    HW2 1560   2.228   2.062   1.888  2.1398 -2.3215 -2.4951
  521SOL     OW 1561   1.602   2.738   2.310 -0.5935  0.0220  0.0175
  521SOL    HW1 1562   1.527   2.730   2.378  2.0601  3.6176 -0.8453
  521SOL    HW2 1563   1.608   2.828   2.259  2.4373  0.5535 -0.4602
  522SOL     OW 1564   2.816   0.334   2.094 -0.3398 -0.4823  0.4123
  522SOL    HW1 1565   2.877   0.304   2.023  0.8407  1.3910  0.6803
  522SOL    HW2 1566   2.854   0.305   2.182  0.9103  1.8934 -1.4932
  523SOL     OW 1567   1.142   2.007   1.482  0.3256  0.2587  0.1661
  523SOL    HW1 1568   1.073   2.072   1.515  0.3077 -1.3142 -2.4319
  523SOL    HW2 1569   1.114   1.979   1.388  0.1824  0.4576  0.7582
  524SOL     OW 1570   2.221   2.019   2.922  0.0747 -0.2578  0.3681
  524SOL    HW1 1571   2.248   2.005   2.824  1.4794  0.8487  0.8692
  524SOL    HW2 1572   2.177   1.936   2.956 -2.3464  0.8815  0.1639
  525SOL     OW 1573   2.682   1.007   0.246  0.3183 -0.2171 -0.0097
  525SOL    HW1 1574   2.764   0.948   0.267 -0.0273  0.9013  1.6923
  525SOL    HW2 1575   2.638   0.961   0.163 -1.4310  1.6603 -0.3852
  526SOL     OW 1576   1.041   2.836   0.985  0.0015 -0.1306  0.3067
  526SOL    HW1 1577   1.045   2.806   0.887  0.7883 -0.5466  0.7816
  526SOL    HW2 1578   0.958   2.893   0.999 -1.9045 -1.8365 -1.1899
  527SOL     OW 1579   2.326   1.496   0.640 -0.6889 -0.0105 -0.3123
  527SOL    HW1 1580   2.242   1.435   0.652 -2.6287 -0.3381  0.7918
  527SOL    HW2 1581   2.345   1.506   0.542  1.1256 -0.9211 -0.8884
  528SOL     OW 1582   0.467   0.846   2.648  0.3680  0.1483  0.3861
  528SOL    HW1 1583   0.536   0.879   2.583  1.2544  0.9861  0.2113
  528SOL    HW2 1584   0.375   0.842   2.610  0.4228  0.3708 -0.7377
  529SOL     OW 1585   0.581   1.435   3.099 -0.3142 -0.5989 -0.2699
  529SOL    HW1 1586   0.520   1.457   3.020  1.0285 -1.7816 -1.3339
  529SOL    HW2 1587   0.555   1.343   0.019  1.1004 -0.2797 -1.4140
  530SOL     OW 1588   1.421   0.930   1.763 -0.0360  0.8041 -0.2542
  530SOL    HW1 1589   1.502   0.877   1.791 -1.9147 -0.5450 -0.2096
  530SOL    HW2 1590   1.341   0.872   1.773 -2.8476 -0.3754  0.8553
  531SOL     OW 1591   1.269   2.262   3.018 -0.6463 -0.3657 -0.0586
  531SOL    HW1 1592   1.202   2.222   2.955 -0.1562  1.0387  0.0064
  531SOL    HW2 1593   1.365   2.263   2.980 -1.0122 -1.7305 -0.0696
  532SOL     OW 1594   2.159   0.687   3.070 -0.9471  0.0445  0.2270
  532SOL    HW1 1595   2.116   0.684   0.054 -2.8597  0.2972 -5.3605
  532SOL    HW2 1596   2.249   0.639   3.066  0.9320  1.5635 -3.4446
  533SOL     OW 1597   2.856   0.583   2.082  0.4128 -0.0894 -0.5045
  533SOL    HW1 1598   2.850   0.480   2.091  0.7139 -2.2841  1.8920
  533SOL    HW2 1599   2.761   0.622   2.094  0.1716  1.3967  0.7032
  534SOL     OW 1600   1.867   0.064   0.035  0.2441  0.7531 -0.0248
  534SOL    HW1 1601   1.877   0.011   0.121 -0.1680 -1.1073  1.1442
  534SOL    HW2 1602   1.945   0.119   0.016  1.1204 -0.2972 -2.0084
  535SOL     OW 1603   0.513   0.394   0.081  0.1097  0.1320  0.0190
  535SOL    HW1 1604   0.579   0.334   0.030 -0.1547  2.3332 -0.9642
  535SOL    HW2 1605   0.517   0.380   0.183  1.8154 -0.7213  1.1597
  536SOL     OW 1606   0.575   1.403   1.636 -0.2043 -0.5006 -0.1200
  536SOL    HW1 1607   0.546   1.495   1.599  0.1806 -0.2081  0.3137
  536SOL    HW2 1608   0.631   1.353   1.562 -0.0717  1.7553 -0.7334
  537SOL     OW 1609   0.267   2.630   1.909 -0.2355  0.1409  0.6209
  537SOL    HW1 1610   0.335   2.642   1.834 -0.5350  3.8932  0.2927
  537SOL    HW2 1611   0.314   2.645   2.001  0.5368  2.8193 -0.5357
  538SOL     OW 1612   3.052   2.150   0.080 -0.3996 -0.4069 -0.4889
  538SOL    HW1 1613   2.999   2.227   0.115 -0.9751  2.2434  0.9542
  538SOL    HW2 1614   3.006   2.112   3.104 -0.3739 -1.1610  0.4368
  539SOL     OW 1615   2.514   0.853   2.734  0.9314 -0.2170 -0.4256
  539SOL    HW1 1616   2.612   0.861   2.740 -3.4187  0.4091 -0.4760
  539SOL    HW2 1617   2.465   0.904   2.808  0.5054 -0.6567  2.0817
  540SOL     OW 1618   1.711   0.779   0.035  0.2898 -0.7239  0.1373
  540SOL    HW1 1619   1.791   0.838   0.043  0.1826  0.7007  1.1064
  540SOL    HW2 1620   1.626   0.825   0.065  2.3062  0.6719 -1.5073
  541SOL     OW 1621   0.894   0.474   2.164  0.4659 -0.2254 -0.0441
  541SOL    HW1 1622   0.937   0.385   2.190  1.5467 -1.5156  1.3635
  541SOL    HW2 1623   0.803   0.460   2.123  1.9961  1.6808  1.8147
  542SOL     OW 1624   1.684   2.465   2.246 -0.2708  0.3417  0.2049
  542SOL    HW1 1625   1.686   2.565   2.253 -0.4069  1.6044 -0.6747
  542SOL    HW2 1626   1.710   2.435   2.153  0.3356  0.8691  2.4072
  543SOL     OW 1627   0.887   2.924   0.495  0.8217 -0.6041 -0.0375
  543SOL    HW1 1628   0.956   2.998   0.478  1.6522  2.3088 -1.7099
  543SOL    HW2 1629   0.852   2.896   0.405 -0.0286 -1.3948 -0.4479
  544SOL     OW 1630   2.843   1.805   2.137 -0.1820 -0.3197 -0.1436
  544SOL    HW1 1631   2.920   1.825   2.205 -1.1074  1.2021  0.3983
  544SOL    HW2 1632   2.750   1.806   2.183 -1.2148 -0.4724 -1.8089
  545SOL     OW 1633   1.587   2.041   1.363 -0.6028 -0.2333 -0.1775
  545SOL    HW1 1634   1.518   2.055   1.436  1.3918 -0.7918 -1.3454
  545SOL    HW2 1635   1.581   1.954   1.314  1.9708 -0.0492 -0.5716
  546SOL     OW 1636   0.580   3.097   2.297 -0.0805 -0.2066  0.5733
  546SOL    HW1 1637   0.631   0.042   2.366 -0.4908  0.9634 -2.6455
  546SOL    HW2 1638   0.480   0.004   2.317  1.1330 -2.0427 -0.1785
  547SOL     OW 1639   1.114   0.404   0.540 -0.4058 -0.2063  0.0105
  547SOL    HW1 1640   1.021   0.391   0.582 -1.9000 -0.1922  2.0439
  547SOL    HW2 1641   1.110   0.427   0.440 -0.0146 -2.1439  3.3003
  548SOL     OW 1642   1.544   2.236   3.000  0.2683 -0.1639 -0.1107
  548SOL    HW1 1643   1.617   2.298   3.035  0.8353  0.3099 -1.9004
  548SOL    HW2 1644   1.551   2.149   3.053 -1.4770 -2.4772  0.1015
  549SOL     OW 1645   1.938   0.920   0.060  0.2613  0.4249 -0.5466
  549SOL    HW1 1646   2.028   0.926   0.021 -0.5951 -3.2345  3.1787
  549SOL    HW2 1647   1.939   0.980   0.141 -0.5551  0.6620 -0.8554
  550SOL     OW 1648   2.446   2.046   0.114  0.2610  0.0585 -0.3177
  550SOL    HW1 1649   2.367   2.027   0.178 -0.4344 -0.2673  1.2982
  550SOL    HW2 1650   2.503   2.114   0.168  1.5820  1.4591  2.1151
  551SOL     OW 1651   1.218   0.625   1.626 -0.1298  0.1525  0.3553
  551SOL    HW1 1652   1.238   0.653   1.529 -0.4274 -1.6557  1.0687
  551SOL    HW2 1653   1.287   0.563   1.669  1.1195 -6.2242  1.2235
  552SOL     OW 1654   0.008   2.162   2.817  0.5017  0.4750 -0.0803
  552SOL    HW1 1655   3.101   2.183   2.719 -0.1908  1.1544 -0.9911
  552SOL    HW2 1656   3.025   2.133   2.858 -1.1281  1.9799  1.2364
  553SOL     OW 1657   2.920   2.686   0.648 -0.0790 -0.0047  0.1166
  553SOL    HW1 1658   2.892   2.592   0.674 -0.6191  0.6642 -0.8777
  553SOL    HW2 1659   2.972   2.731   0.726 -2.2351 -2.0226  1.5885
  554SOL     OW 1660   2.108   1.564   1.783 -0.6048 -0.3835 -0.1918
  554SOL    HW1 1661   2.075   1.470   1.804  2.0970  0.2668 -1.5315
  554SOL    HW2 1662   2.028   1.633   1.800 -3.0953 -0.7775  0.3686
  555SOL     OW 1663   1.443   2.073   2.295 -0.2195 -0.5265 -0.3591
  555SOL    HW1 1664   1.354   2.046   2.336 -0.7472 -1.4213 -0.6412
  555SOL    HW2 1665   1.450   2.177   2.301 -0.1636  1.6709 -0.1322
  556SOL     OW 1666   1.417   1.701   1.512  0.2645  0.2412  0.5777
  556SOL    HW1 1667   1.346   1.723   1.584  0.3519 -0.8775  0.9365
  556SOL    HW2 1668   1.397   1.607   1.469 -0.2254 -1.9299  1.0397
  557SOL     OW 1669   1.499   3.104   1.760 -0.0501 -0.3898  0.1182
  557SOL    HW1 1670   1.543   3.016   1.775 -0.6622  0.5039 -0.4482
  557SOL    HW2 1671   1.402   3.105   1.798 -4.5418  0.4887 -0.6197
  558SOL     OW 1672   0.560   2.868   2.115  0.1606  0.1627 -0.3996
  558SOL    HW1 1673   0.525   2.921   2.039 -3.6566 -1.1487  2.8691
  558SOL    HW2 1674   0.568   2.923   2.203  0.4136  1.2150  1.4493
  559SOL     OW 1675   2.015   2.397   0.142  0.1734  0.6162  0.6951
  559SOL    HW1 1676   1.979   2.481   0.095  1.3715  2.8093 -0.5778
  559SOL    HW2 1677   2.075   2.420   0.220 -3.6362 -1.2326 -1.0140
  560SOL     OW 1678   1.392   2.217   0.349  0.6466 -0.0363 -0.0804
  560SOL    HW1 1679   1.420   2.140   0.409 -1.6464  1.8448 -2.6669
  560SOL    HW2 1680   1.469   2.276   0.321 -0.1939  0.1032  1.8355
  561SOL     OW 1681   1.243   0.266   0.048  0.0637 -0.4100  0.3562
  561SOL    HW1 1682   1.189   0.336   3.101  0.1606  1.9111  2.7325
  561SOL    HW2 1683   1.336   0.289   0.074 -0.7589  1.5307  0.9968
  562SOL     OW 1684   0.452   1.433   2.044  0.0221  0.2602 -0.4212
  562SOL    HW1 1685   0.375   1.360   2.049 -0.6465  2.1652  1.7318
  562SOL    HW2 1686   0.529   1.402   1.986  0.1369 -0.2591  0.8820
  563SOL     OW 1687   1.278   2.000   2.660 -0.1855  0.5296  0.4553
  563SOL    HW1 1688   1.258   2.000   2.560  0.5630 -1.2091  0.9871
  563SOL    HW2 1689   1.379   1.995   2.675 -1.9243  1.5536 -3.2094
  564SOL     OW 1690   2.752   0.969   0.878 -0.3008 -0.2493 -0.3378
  564SOL    HW1 1691   2.665   0.929   0.904 -0.9161  2.0377 -1.2314
  564SOL    HW2 1692   2.766   1.059   0.929  0.7524  3.2075 -0.1964
  565SOL     OW 1693   0.533   1.192   0.073  0.3613  0.2372  0.3709
  565SOL    HW1 1694   0.470   1.153   0.000 -2.6480  1.3121  0.5531
  565SOL    HW2 1695   0.499   1.156   0.165 -1.4632  0.6409  3.1072
  566SOL     OW 1696   2.555   2.744   2.901 -0.3931 -0.5527 -0.7316
  566SOL    HW1 1697   2.567   2.842   2.936  0.0060 -0.7810 -0.7470
  566SOL    HW2 1698   2.531   2.688   2.985  0.8703 -0.4234  0.8278
  567SOL     OW 1699   1.549   1.335   1.167  0.1148 -0.4774 -0.3795
  567SOL    HW1 1700   1.622   1.406   1.168 -0.7351  1.1628  1.7355
  567SOL    HW2 1701   1.560   1.275   1.246  1.5293 -1.0784 -0.8936
  568SOL     OW 1702   1.378   1.520   2.805  0.2785  0.1312 -0.1994
  568SOL    HW1 1703   1.277   1.506   2.816 -1.9807  0.6667  1.5997
  568SOL    HW2 1704   1.404   1.583   2.729 -1.6511 -0.1581  0.9615
  569SOL     OW 1705   2.336   1.637   3.088  0.2276  0.3745  0.3378
  569SOL    HW1 1706   2.407   1.700   3.053 -0.1229  1.8934 -0.3940
  569SOL    HW2 1707   2.262   1.699   0.012 -0.5691  1.7099  0.1703
  570SOL     OW 1708   2.895   2.283   2.095 -1.0165  0.1134 -0.1701
  570SOL    HW1 1709   2.921   2.285   1.996  0.9898 -1.4333  0.0476
  570SOL    HW2 1710   2.957   2.217   2.146  1.5364 -0.9803 -1.5701
  571SOL     OW 1711   2.845   1.851   1.694  0.1514  0.2416 -0.3526
  571SOL    HW1 1712   2.874   1.757   1.713  1.7563  1.2373 -0.2034
  571SOL    HW2 1713   2.783   1.886   1.762  3.2658  0.8941 -4.1651
  572SOL     OW 1714   1.737   2.273   0.469 -0.3056 -0.0262 -0.3405
  572SOL    HW1 1715   1.684   2.330   0.402 -1.3802  2.8286 -1.0341
  572SOL    HW2 1716   1.842   2.279   0.451  1.8323  2.7828 -0.5695
  573SOL     OW 1717   1.448   2.016   0.509  0.3650  0.1597 -0.3006
  573SOL    HW1 1718   1.533   2.018   0.563 -0.5982  2.1187 -2.9085
  573SOL    HW2 1719   1.366   1.994   0.568 -0.3426 -0.8143 -1.8459
  574SOL     OW 1720   1.471   2.971   1.509 -0.0778  0.0508 -0.0159
  574SOL    HW1 1721   1.532   2.889   1.498 -0.7503 -1.0778 -1.5612
  574SOL    HW2 1722   1.508   3.029   1.587  1.4013 -0.7243 -1.8944
  575SOL     OW 1723   0.460   1.028   1.178  0.2403  0.0513  0.2980
  575SOL    HW1 1724   0.522   0.963   1.223  0.9790  1.8287  0.7411
  575SOL    HW2 1725   0.447   1.109   1.243 -0.9543  1.0982  0.4725
  576SOL     OW 1726   2.411   0.596   0.981  0.0322 -0.1812 -0.2024
  576SOL    HW1 1727   2.486   0.567   1.045 -0.4852 -0.4911 -1.1869
  576SOL    HW2 1728   2.422   0.550   0.887 -0.0387 -0.2955 -1.4862
  577SOL     OW 1729   1.477   0.693   2.434 -0.3857  0.3590  0.3464
  577SOL    HW1 1730   1.390   0.747   2.454  1.8594  2.5851 -0.0709
  577SOL    HW2 1731   1.459   0.621   2.361 -3.0797  1.2434  1.2770
  578SOL     OW 1732   2.068   1.390   2.604  0.4920 -0.5390  0.4002
  578SOL    HW1 1733   2.118   1.357   2.683 -2.2914  2.2549 -1.1512
  578SOL    HW2 1734   2.095   1.491   2.581  0.4260  1.8223 -1.6439
  579SOL     OW 1735   0.750   1.733   1.428  0.1795  0.4196 -0.2751
  579SOL    HW1 1736   0.648   1.748   1.448 -2.9814 -2.4222 -2.1197
  579SOL    HW2 1737   0.762   1.676   1.341  1.0348  0.1665 -1.0573
  580SOL     OW 1738   1.586   2.387   0.255  0.1333 -0.2994 -0.6468
  580SOL    HW1 1739   1.558   2.462   0.194  0.3594 -2.2961 -1.5188
  580SOL    HW2 1740   1.649   2.322   0.210  0.2597  2.2144 -0.3053
  581SOL     OW 1741   0.830   0.867   2.259 -0.1519 -0.2538  0.4766
  581SOL    HW1 1742   0.755   0.823   2.209 -0.5081  1.1796  1.7811
  581SOL    HW2 1743   0.902   0.796   2.281  0.0896 -1.0969  1.6534
  582SOL     OW 1744   0.910   1.199   1.243 -0.2306 -0.1519 -0.4431
  582SOL    HW1 1745   0.908   1.098   1.252 -0.0598  1.0748 -0.1430
  582SOL    HW2 1746   0.935   1.252   1.327  1.5094  1.0457  3.7952
  583SOL     OW 1747   0.691   1.136   2.024 -0.4524  0.0972 -0.2923
  583SOL    HW1 1748   0.682   1.218   1.961  0.2404  3.2879 -2.2349
  583SOL    HW2 1749   0.706   1.175   2.115  0.0165  0.6161 -0.6956
  584SOL     OW 1750   2.195   2.737   0.345 -0.0918 -0.1728 -0.3118
  584SOL    HW1 1751   2.094   2.761   0.333  0.4205 -0.9205 -2.3217
  584SOL    HW2 1752   2.244   2.799   0.415  2.3136 -0.7753 -1.3251
  585SOL     OW 1753   1.830   0.360   2.749 -0.2294  0.0067  0.5391
  585SOL    HW1 1754   1.855   0.261   2.734  3.5737  3.0991 -1.4660
  585SOL    HW2 1755   1.794   0.405   2.663  2.5877  2.5206 -0.6147
  586SOL     OW 1756   0.076   1.758   0.317 -0.2435 -0.0043  0.1934
  586SOL    HW1 1757   0.005   1.743   0.385 -0.6325 -0.6730 -4.5047
  586SOL    HW2 1758   0.034   1.724   0.230 -1.6270  1.6601  0.3346
  587SOL     OW 1759   1.797   1.857   0.478  0.0968  0.2645  0.4722
  587SOL    HW1 1760   1.808   1.758   0.500  1.1936 -0.2635 -3.0036
  587SOL    HW2 1761   1.887   1.900   0.468  1.4865  0.9338  2.4257
  588SOL     OW 1762   0.424   0.294   0.979  0.7894  0.3427 -0.0587
  588SOL    HW1 1763   0.375   0.257   1.060  0.2642 -1.5636 -0.7029
  588SOL    HW2 1764   0.464   0.217   0.921  2.2943  0.7961 -0.8432
  589SOL     OW 1765   1.171   0.814   0.919 -0.4513  0.0072 -0.0491
  589SOL    HW1 1766   1.132   0.846   0.835  2.3039  0.0177  4.7381
  589SOL    HW2 1767   1.194   0.886   0.992 -0.5294  0.9199  2.1617
  590SOL     OW 1768   1.408   1.075   0.131  0.5806  0.1554 -0.1843
  590SOL    HW1 1769   1.421   1.172   0.098 -1.4886  0.0696 -0.2943
  590SOL    HW2 1770   1.364   1.065   0.223 -1.2066 -2.9312 -0.9198
  591SOL     OW 1771   2.614   2.630   2.458 -0.2539 -0.3807 -0.5337
  591SOL    HW1 1772   2.582   2.665   2.370  0.4166 -1.2093 -0.7418
  591SOL    HW2 1773   2.668   2.547   2.445 -0.5571  0.3077  1.2393
  592SOL     OW 1774   1.604   2.058   0.836  0.5056 -0.3564 -0.0628
  592SOL    HW1 1775   1.647   2.066   0.745 -0.9962  1.3551  1.2213
  592SOL    HW2 1776   1.675   2.055   0.908  0.3268 -1.0862  1.2116
  593SOL     OW 1777   1.136   0.129   1.053 -0.3560  0.5137  0.1046
  593SOL    HW1 1778   1.163   0.032   1.053 -2.3544  3.1370  1.1930
  593SOL    HW2 1779   1.153   0.167   1.143  0.3836 -1.3258 -1.2687
  594SOL     OW 1780   2.968   0.824   2.407  0.1137 -0.7537  0.3394
  594SOL    HW1 1781   2.955   0.870   2.319 -1.7110 -0.8830  0.0938
  594SOL    HW2 1782   3.018   0.737   2.419  1.4967  0.8903  3.2604
  595SOL     OW 1783   0.560   2.534   1.225  0.5242 -0.5867 -0.6372
  595SOL    HW1 1784   0.458   2.513   1.216 -0.7340  0.9607  0.1148
  595SOL    HW2 1785   0.594   2.502   1.314 -1.1774  3.8245 -4.1244
  596SOL     OW 1786   0.148   0.728   1.300  0.4285 -0.1069 -0.3037
  596SOL    HW1 1787   0.211   0.776   1.235 -0.9694 -0.0779  0.8209
  596SOL    HW2 1788   0.093   0.667   1.243 -1.4739  1.1280 -2.2476
  597SOL     OW 1789   1.670   1.877   0.251 -0.1164 -0.0866 -0.5297
  597SOL    HW1 1790   1.572   1.860   0.264  0.4016 -0.5260  1.0446
  597SOL    HW2 1791   1.726   1.866   0.341  2.6407  0.5115  3.1137
  598SOL     OW 1792   0.481   2.712   1.759  0.0270  0.6650 -0.7660
  598SOL    HW1 1793   0.479   2.678   1.663  1.4877 -2.2553  0.6597
  598SOL    HW2 1794   0.575   2.690   1.798  1.1417  3.1499  0.7846
  599SOL     OW 1795   2.533   1.881   2.756  0.3606 -0.1427 -0.0610
  599SOL    HW1 1796   2.441   1.908   2.721  0.1701  0.8717 -2.3720
  599SOL    HW2 1797   2.530   1.880   2.858  2.4361 -1.5121  3.4348
  600SOL     OW 1798   0.776   0.705   0.412 -0.1718 -0.2787 -0.2419
  600SOL    HW1 1799   0.697   0.707   0.477 -0.0785  3.2046  1.0158
  600SOL    HW2 1800   0.862   0.715   0.470 -0.5389 -0.6725  3.9364
  601SOL     OW 1801   0.973   0.723   0.573 -0.5939  0.6940  0.3430
  601SOL    HW1 1802   1.011   0.816   0.585 -1.1514  2.7731  0.4068
  601SOL    HW2 1803   0.961   0.685   0.666  0.8408  4.1084  0.4091
  602SOL     OW 1804   1.414   2.944   0.847  0.0188  0.0216 -0.0164
  602SOL    HW1 1805   1.494   3.002   0.863  0.8584 -2.2186 -0.5546
  602SOL    HW2 1806   1.383   2.959   0.750  0.6403  0.5093 -0.5415
  603SOL     OW 1807   0.720   2.676   2.193 -0.7498  0.2976  0.2605
  603SOL    HW1 1808   0.664   2.758   2.169  0.0187  0.4308  0.3467
  603SOL    HW2 1809   0.816   2.698   2.162  4.4719  2.9023  1.1182
  604SOL     OW 1810   3.006   3.101   2.323 -0.4338 -0.0833  0.1821
  604SOL    HW1 1811   3.034   3.089   2.225  1.0667 -0.7220  0.8475
  604SOL    HW2 1812   3.020   3.013   2.369  0.4406 -4.1738 -3.1992
  605SOL     OW 1813   2.727   2.039   1.204  0.0733 -0.6498 -0.2821
  605SOL    HW1 1814   2.632   2.048   1.171 -1.8063  0.3132 -0.8409
  605SOL    HW2 1815   2.726   2.019   1.307 -3.0005  1.8733  2.7543
  606SOL     OW 1816   0.380   1.544   2.929 -0.1354  0.2738  0.2051
  606SOL    HW1 1817   0.390   1.629   2.979  1.5158  0.6489  0.5424
  606SOL    HW2 1818   0.375   1.554   2.824 -0.4811 -0.0808  0.5656
  607SOL     OW 1819   0.872   0.174   0.206 -0.3541 -0.3195 -0.5298
  607SOL    HW1 1820   0.798   0.110   0.233 -1.3663  4.5991  1.2737
  607SOL    HW2 1821   0.865   0.206   0.115  1.9841  1.2794  2.6628
  608SOL     OW 1822   1.622   1.168   2.377  0.5234  0.3182  0.6501
  608SOL    HW1 1823   1.703   1.217   2.421  1.6534  2.5574 -1.1345
  608SOL    HW2 1824   1.608   1.077   2.429 -0.0849  0.1842  1.2763
  609SOL     OW 1825   3.013   0.245   0.910  0.0811 -0.2602  0.4320
  609SOL    HW1 1826   3.020   0.185   0.990  1.0876  1.2564 -3.3471
  609SOL    HW2 1827   2.950   0.325   0.927 -2.1297  1.4442 -0.8738
  610SOL     OW 1828   0.554   2.723   0.625  0.5943 -0.6283 -0.0894
  610SOL    HW1 1829   0.617   2.660   0.583 -3.0156  0.5450  0.6497
  610SOL    HW2 1830   0.588   2.754   0.713  0.1588 -3.2437 -1.0499
  611SOL     OW 1831   1.548   1.077   2.822 -0.1757  0.4279  0.2090
  611SOL    HW1 1832   1.637   1.031   2.854  1.4214  0.9297 -0.6079
  611SOL    HW2 1833   1.542   1.172   2.856 -0.7339 -2.3318 -2.3086
  612SOL     OW 1834   0.932   2.116   2.426 -0.0665 -0.2920  0.0523
  612SOL    HW1 1835   0.886   2.061   2.502  0.5648 -1.1375 -1.5174
  612SOL    HW2 1836   0.932   2.213   2.456 -0.2435  0.4181 -0.6803
  613SOL     OW 1837   1.169   2.221   0.179  0.2216 -0.6314  0.4436
  613SOL    HW1 1838   1.261   2.210   0.227  2.8420 -0.1115  2.7101
  613SOL    HW2 1839   1.186   2.229   0.076  2.2539  0.0689 -1.7054
  614SOL     OW 1840   2.696   2.801   1.693 -0.1947  0.0225 -0.1029
  614SOL    HW1 1841   2.760   2.830   1.619 -0.5454  1.9612 -2.9261
  614SOL    HW2 1842   2.649   2.884   1.730 -0.3412 -1.6812 -0.4844
  615SOL     OW 1843   2.266   1.389   3.024 -0.2313 -0.2654  0.0055
  615SOL    HW1 1844   2.295   1.484   3.055  2.4075  2.7115 -0.5961
  615SOL    HW2 1845   2.226   1.331   3.096  3.6898  1.3313  0.6490
  616SOL     OW 1846   1.501   0.099   0.440 -0.0768  0.2179  0.2834
  616SOL    HW1 1847   1.415   0.088   0.492  1.0817  0.2649 -1.5808
  616SOL    HW2 1848   1.578   0.148   0.490  0.0846  0.5470 -0.9258
  617SOL     OW 1849   1.009   0.859   0.183 -0.1420  0.1082  0.0112
  617SOL    HW1 1850   0.982   0.846   0.085  2.3947 -1.4849 -3.6720
  617SOL    HW2 1851   1.001   0.956   0.220 -1.4113 -0.2739 -0.7191
  618SOL     OW 1852   0.720   0.265   1.882 -0.0822 -0.1904 -0.2083
  618SOL    HW1 1853   0.719   0.314   1.972 -0.0262 -0.9296  2.3867
  618SOL    HW2 1854   0.671   0.326   1.815  0.8737  1.0032 -0.1398
  619SOL     OW 1855   3.003   1.003   1.459  0.1464  0.0725  0.4821
  619SOL    HW1 1856   3.057   0.933   1.508 -0.3242 -1.0233 -0.8293
  619SOL    HW2 1857   3.055   1.031   1.375 -0.8610  0.2093  1.0575
  620SOL     OW 1858   2.078   1.032   2.817 -0.1458  0.0441 -0.0809
  620SOL    HW1 1859   2.143   1.041   2.743 -1.8554  0.2178  1.8055
  620SOL    HW2 1860   1.986   1.003   2.786 -0.3637  1.8000  1.6042
  621SOL     OW 1861   2.596   2.736   1.388 -0.1958  0.0113 -0.4318
  621SOL    HW1 1862   2.672   2.788   1.347  2.5452  0.6211 -0.3929
  621SOL    HW2 1863   2.619   2.634   1.387  1.4847  2.2895  0.3627
  622SOL     OW 1864   1.333   0.782   2.804 -0.5955 -0.0111 -0.6322
  622SOL    HW1 1865   1.330   0.868   2.862  0.3475  0.9872  1.2056
  622SOL    HW2 1866   1.392   0.710   2.849 -0.7602 -4.0323 -0.3758
  623SOL     OW 1867   1.140   0.494   3.061 -0.0110 -0.2364 -0.4468
  623SOL    HW1 1868   1.228   0.550   3.043  2.6609  0.1084  0.8503
  623SOL    HW2 1869   1.062   0.517   2.996 -0.9041  0.5395  0.8983
  624SOL     OW 1870   1.854   0.530   0.096  0.1239 -0.0796 -0.1271
  624SOL    HW1 1871   1.831   0.631   0.079  0.7009  0.9006 -0.7653
  624SOL    HW2 1872   1.909   0.497   0.014  0.6897 -2.6081 -1.2233
  625SOL     OW 1873   1.134   1.205   1.039  0.0558 -0.6013 -0.4837
  625SOL    HW1 1874   1.191   1.133   1.075 -1.7462  1.0264  0.3917
  625SOL    HW2 1875   1.042   1.209   1.084 -1.4452  1.5690 -1.4816
  626SOL     OW 1876   1.517   1.311   2.925  0.1439  0.1144  0.5012
  626SOL    HW1 1877   1.513   1.320   3.023  1.3446  1.0403 -0.4139
  626SOL    HW2 1878   1.451   1.371   2.876 -3.3515 -0.3907 -2.8006
  627SOL     OW 1879   0.987   2.712   2.122 -0.1420 -0.0390  0.1324
  627SOL    HW1 1880   1.007   2.669   2.033 -2.6590 -2.1206 -0.2752
  627SOL    HW2 1881   1.028   2.803   2.135  0.4786 -0.4057 -1.1886
  628SOL     OW 1882   2.444   0.214   2.253 -0.2002 -0.0939  0.0105
  628SOL    HW1 1883   2.487   0.285   2.197  1.0159 -0.8049  2.1365
  628SOL    HW2 1884   2.507   0.179   2.328  2.1265 -3.7933 -0.3555
  629SOL     OW 1885   0.757   0.929   3.057  0.2319  1.0537 -0.0702
  629SOL    HW1 1886   0.837   0.898   3.008  0.9245  1.1423 -0.2853
  629SOL    HW2 1887   0.716   0.860   0.010 -2.1778 -0.7200 -1.7961
  630SOL     OW 1888   1.230   0.192   2.032  0.2706 -0.3202  0.1184
  630SOL    HW1 1889   1.152   0.209   2.094  2.8296 -0.6923  1.2881
  630SOL    HW2 1890   1.312   0.168   2.087 -0.7106  0.3663  0.5240
  631SOL     OW 1891   2.720   0.565   0.693  0.1026  0.1543 -0.1971
  631SOL    HW1 1892   2.637   0.617   0.668  1.8913 -1.8469  1.7562
  631SOL    HW2 1893   2.806   0.590   0.641  1.8323 -1.3021 -0.4212
  632SOL     OW 1894   2.145   1.091   1.200 -0.4210 -0.1470 -0.3133
  632SOL    HW1 1895   2.079   1.163   1.177 -0.0800  0.6072 -0.9067
  632SOL    HW2 1896   2.130   1.016   1.131  1.8342 -0.1129 -0.6217
  633SOL     OW 1897   1.400   0.698   0.863 -0.3884  0.1483 -0.0173
  633SOL    HW1 1898   1.455   0.776   0.823 -2.9699  1.5123 -1.9942
  633SOL    HW2 1899   1.310   0.736   0.892  0.4819 -0.3383 -1.1340
  634SOL     OW 1900   1.896   3.089   0.783 -0.0588  0.4266  0.3874
  634SOL    HW1 1901   1.975   3.107   0.844 -0.0281 -3.0997 -1.6179
  634SOL    HW2 1902   1.809   0.002   0.832  1.0880 -0.2980  2.3553
  635SOL     OW 1903   1.545   0.837   1.377 -0.4487 -0.2718 -0.0923
  635SOL    HW1 1904   1.547   0.868   1.282  1.0447 -2.0026  3.5138
  635SOL    HW2 1905   1.599   0.899   1.440 -0.6182  2.2456  0.6058
  636SOL     OW 1906   0.679   0.441   0.732 -0.0753  0.0239 -0.5967
  636SOL    HW1 1907   0.635   0.444   0.824 -2.3654 -2.3147 -0.4653
  636SOL    HW2 1908   0.772   0.398   0.741 -1.2335  0.9944 -0.9007
  637SOL     OW 1909   1.999   2.305   0.471  0.4658  0.2421 -0.1500
  637SOL    HW1 1910   2.011   2.305   0.572 -0.2106 -1.0575 -0.1095
  637SOL    HW2 1911   2.065   2.367   0.428  1.1058  1.1689 -0.8679
  638SOL     OW 1912   1.588   2.961   2.723  0.1011 -0.0300 -0.0858
  638SOL    HW1 1913   1.600   2.945   2.821 -1.5462 -0.8634 -0.7786
  638SOL    HW2 1914   1.668   2.925   2.672 -1.9831 -0.0547  1.5127
  639SOL     OW 1915   0.708   2.154   1.280  0.4825  0.1632  0.5006
  639SOL    HW1 1916   0.764   2.236   1.295  1.3248 -2.0167 -1.0548
  639SOL    HW2 1917   0.676   2.152   1.180 -0.8776  1.4928 -3.2052
  640SOL     OW 1918   0.199   2.641   0.279  0.1787  0.3868 -0.5483
  640SOL    HW1 1919   0.111   2.677   0.317 -0.6599  1.8031  0.7233
  640SOL    HW2 1920   0.252   2.611   0.356 -1.9758  0.0429  0.2724
  641SOL     OW 1921   0.251   0.438   0.064  0.8561 -0.2618  0.0439
  641SOL    HW1 1922   0.342   0.412   0.087 -7.3715 -1.0468  1.0551
  641SOL    HW2 1923   0.240   0.450   3.067 -1.0618 -0.5448  2.2055
  642SOL     OW 1924   3.106   1.005   1.000 -0.2328  0.0465 -0.4819
  642SOL    HW1 1925   3.085   0.908   0.968  0.4122 -1.3765 -1.2589
  642SOL    HW2 1926   0.026   1.070   0.927  2.3886  0.3945 -2.7310
  643SOL     OW 1927   0.519   1.862   2.000  0.7462 -0.1744  0.1555
  643SOL    HW1 1928   0.486   1.908   1.922  1.2667 -1.1003  2.2397
  643SOL    HW2 1929   0.621   1.848   1.995  1.4343  0.1813  0.3371
  644SOL     OW 1930   1.802   2.678   0.539 -0.3565  0.7403  0.4310
  644SOL    HW1 1931   1.831   2.595   0.595 -2.9604  0.4031 -2.4178
  644SOL    HW2 1932   1.705   2.708   0.551 -1.3742  0.9198 -0.0737
  645SOL     OW 1933   1.772   2.418   1.007 -0.5686  0.2571  0.4034
  645SOL    HW1 1934   1.850   2.444   1.071  1.1967 -1.0329 -0.0952
  645SOL    HW2 1935   1.779   2.461   0.916 -0.7194  0.2402  0.3790
  646SOL     OW 1936   1.222   2.678   0.246 -0.0825  0.3528  0.3591
  646SOL    HW1 1937   1.183   2.595   0.283 -0.3695 -1.6121  0.3345
  646SOL    HW2 1938   1.144   2.738   0.217  1.9692  0.7520 -2.2075
  647SOL     OW 1939   0.496   2.976   1.862  0.3071 -0.1067  0.2250
  647SOL    HW1 1940   0.413   3.028   1.893  0.5508  1.8520  0.5773
  647SOL    HW2 1941   0.480   2.878   1.828 -1.8934  0.0238 -1.8302
  648SOL     OW 1942   1.780   0.992   1.446 -0.1345  0.1538 -0.2996
  648SOL    HW1 1943   1.854   1.009   1.514 -2.5189 -0.8800 -1.5468
  648SOL    HW2 1944   1.808   0.915   1.389 -0.6837 -0.0993 -1.2146
  649SOL     OW 1945   1.720   2.092   2.847  0.3138 -0.1639  0.4622
  649SOL    HW1 1946   1.762   2.004   2.871  1.5273 -1.6740 -1.5583
  649SOL    HW2 1947   1.639   2.110   2.907 -0.0287 -1.3216 -1.3781
  650SOL     OW 1948   2.554   1.693   1.768 -0.0110 -0.4143 -0.6858
  650SOL    HW1 1949   2.559   1.783   1.807  0.8192 -1.2297  2.3273
  650SOL    HW2 1950   2.597   1.629   1.833 -0.5006  0.1916  0.4666
  651SOL     OW 1951   1.516   1.937   2.974 -0.2488 -0.1775  0.2641
  651SOL    HW1 1952   1.541   1.841   2.997 -0.2951  0.6133  0.7982
  651SOL    HW2 1953   1.518   1.944   2.874 -1.0130  0.5814 -0.0688
  652SOL     OW 1954   0.956   2.812   2.850  0.4205  0.5050 -0.0995
  652SOL    HW1 1955   0.957   2.714   2.820 -0.8881 -0.0909  1.0078
  652SOL    HW2 1956   1.033   2.864   2.809 -1.7493 -0.4947  0.2411
  653SOL     OW 1957   2.192   2.251   1.121 -0.4127 -0.1556  0.2619
  653SOL    HW1 1958   2.140   2.199   1.190  0.6500 -1.4965 -0.8506
  653SOL    HW2 1959   2.134   2.271   1.042  0.4997 -0.9101 -1.0021
  654SOL     OW 1960   2.761   2.740   1.954 -0.2112  0.4696 -0.3446
  654SOL    HW1 1961   2.742   2.760   1.857  0.8102 -1.2738 -0.7653
  654SOL    HW2 1962   2.701   2.663   1.988 -1.4610  0.1044  1.7527
  655SOL     OW 1963   2.948   2.124   1.045 -0.4469 -0.0227 -0.0215
  655SOL    HW1 1964   2.923   2.104   0.948 -1.2329 -0.2970 -0.4401
  655SOL    HW2 1965   2.868   2.107   1.106 -0.4335  0.5466 -1.0896
  656SOL     OW 1966   0.374   2.571   2.612  0.1415  0.1396  0.0362
  656SOL    HW1 1967   0.402   2.598   2.519 -0.7007  0.4508  3.1548
  656SOL    HW2 1968   0.431   2.501   2.650 -0.3630  2.0755 -2.1592
  657SOL     OW 1969   2.852   0.803   0.344  0.0063  0.5210  0.3499
  657SOL    HW1 1970   2.865   0.759   0.434 -2.0219  0.6195  1.7458
  657SOL    HW2 1971   2.843   0.731   0.277  0.4069  1.0712  2.1181
  658SOL     OW 1972   1.439   1.845   0.890  0.1583 -0.1657  0.5106
  658SOL    HW1 1973   1.408   1.837   0.985  0.7169  0.5794 -0.1814
  658SOL    HW2 1974   1.461   1.943   0.878 -2.6950 -0.1701 -0.6118
  659SOL     OW 1975   1.504   0.384   1.272 -0.2535 -0.0704  0.0784
  659SOL    HW1 1976   1.454   0.298   1.308  0.1947 -2.4409 -0.1122
  659SOL    HW2 1977   1.473   0.410   1.179 -2.0083  0.1310  0.8126
  660SOL     OW 1978   1.653   1.154   0.481 -0.3096 -0.1576  0.5011
  660SOL    HW1 1979   1.627   1.060   0.461  1.7548  1.4042 -0.8052
  660SOL    HW2 1980   1.583   1.221   0.448  1.6348  0.1982  4.2124
  661SOL     OW 1981   0.326   1.596   0.298 -0.2553 -0.3334 -0.6709
  661SOL    HW1 1982   0.335   1.556   0.204 -2.1527 -0.4394 -1.5922
  661SOL    HW2 1983   0.236   1.646   0.307 -2.9497 -0.5290  1.0988
  662SOL     OW 1984   2.909   0.941   2.165 -0.2424 -0.5897 -0.2771
  662SOL    HW1 1985   2.847   0.940   2.088 -0.9669 -0.2587  0.5397
  662SOL    HW2 1986   2.903   1.022   2.228  2.3268 -1.6921  3.5558
  663SOL     OW 1987   2.273   1.525   1.309 -0.1423  0.0699  0.1950
  663SOL    HW1 1988   2.296   1.616   1.273 -1.7739 -0.5604  1.9093
  663SOL    HW2 1989   2.292   1.518   1.411 -1.7676  0.7992  1.2288
  664SOL     OW 1990   0.662   0.059   1.051 -0.1539 -0.3259  0.3216
  664SOL    HW1 1991   0.707   3.082   1.089  3.4451 -0.0116 -0.1882
  664SOL    HW2 1992   0.634   0.122   1.128 -0.2637  1.4612  1.1980
  665SOL     OW 1993   1.149   3.077   2.852  0.1472  0.0193 -0.2332
  665SOL    HW1 1994   1.229   3.082   2.786  2.8172 -0.4122  1.7823
  665SOL    HW2 1995   1.186   3.077   2.950  0.8424 -1.5233  1.4695
  666SOL     OW 1996   0.398   0.588   2.090  0.1037 -0.1552  0.2223
  666SOL    HW1 1997   0.345   0.556   2.006 -1.7214 -1.4587 -0.3019
  666SOL    HW2 1998   0.336   0.599   2.176 -1.4362 -1.5530  4.8745
  667SOL     OW 1999   1.813   1.511   2.364  0.3884 -0.2318 -0.0198
  667SOL    HW1 2000   1.870   1.512   2.276  1.4259  0.9358 -3.2343
  667SOL    HW2 2001   1.819   1.422   2.411 -0.4010 -3.8659  1.0732
  668SOL     OW 2002   0.104   1.547   2.730  0.0332  0.3450 -0.1376
  668SOL    HW1 2003   0.097   1.482   2.805  3.6198 -1.3364 -0.4903
  668SOL    HW2 2004   0.091   1.643   2.758  0.8798  4.3346 -1.0275
  669SOL     OW 2005   2.259   2.907   2.597 -0.2704  0.0230  0.0408
  669SOL    HW1 2006   2.349   2.918   2.546 -2.0885  1.2408  0.9307
  669SOL    HW2 2007   2.238   2.821   2.649 -1.2045  0.9998  2.4472
  670SOL     OW 2008   2.527   0.956   2.475 -0.5107 -0.2549 -0.0410
  670SOL    HW1 2009   2.587   0.894   2.424  1.8919  1.0286  0.6992
  670SOL    HW2 2010   2.504   0.918   2.566 -0.4374  0.5720 -0.4034
  671SOL     OW 2011   2.515   1.867   3.014  0.1933  0.0560  0.3783
  671SOL    HW1 2012   2.466   1.920   3.085 -1.1002 -0.3192 -0.1502
  671SOL    HW2 2013   2.579   1.799   3.061  0.0780 -1.7638  0.6979
  672SOL     OW 2014   2.559   1.533   2.258  0.1951 -0.0234  0.0320
  672SOL    HW1 2015   2.470   1.513   2.294  0.0712  0.4298 -0.5422
  672SOL    HW2 2016   2.556   1.616   2.195  1.7608  0.1893  1.0461
  673SOL     OW 2017   0.043   1.408   1.174  0.5841  0.3677  0.0583
  673SOL    HW1 2018   0.020   1.493   1.122  0.1739 -1.7519 -1.6093
  673SOL    HW2 2019   0.139   1.385   1.158 -1.0119 -0.0596  1.2325
  674SOL     OW 2020   1.312   1.839   1.903 -0.0053  0.1245  0.3958
  674SOL    HW1 2021   1.335   1.936   1.930  2.0362 -0.4510  0.6560
  674SOL    HW2 2022   1.280   1.829   1.808 -0.1187 -1.1367  3.5854
  675SOL     OW 2023   2.636   0.481   1.102 -0.2470  0.0635  0.2370
  675SOL    HW1 2024   2.729   0.470   1.056  1.9311 -0.5328 -2.5797
  675SOL    HW2 2025   2.611   0.394   1.157 -1.9459 -4.0920  0.3981
  676SOL     OW 2026   2.705   1.283   0.570 -0.0169  0.0641 -0.7694
  676SOL    HW1 2027   2.623   1.297   0.628 -0.2061  2.0965  0.4606
  676SOL    HW2 2028   2.751   1.193   0.584  0.9775 -1.8918 -1.9160
  677SOL     OW 2029   1.610   1.509   2.187 -0.2513 -0.2827 -0.0617
  677SOL    HW1 2030   1.651   1.535   2.279  0.9938 -0.8794  0.8661
  677SOL    HW2 2031   1.606   1.405   2.173  1.5596 -2.9640  0.4266
  678SOL     OW 2032   2.557   1.409   0.999  0.6727  0.0264  0.0959
  678SOL    HW1 2033   2.630   1.450   1.061  0.3245 -0.1970  0.9178
  678SOL    HW2 2034   2.472   1.398   1.055  0.3874  0.5548  1.2469
  679SOL     OW 2035   0.324   2.424   1.140  0.2171  0.5180 -0.1299
  679SOL    HW1 2036   0.365   2.412   1.050  0.6455  4.0581  1.5847
  679SOL    HW2 2037   0.250   2.493   1.141  1.5834 -0.3388  2.3420
  680SOL     OW 2038   2.784   1.791   1.097  0.1855 -0.0862 -0.3421
  680SOL    HW1 2039   2.885   1.808   1.111  0.8505  0.0232 -0.7601
  680SOL    HW2 2040   2.731   1.862   1.147  0.3300  2.0313  0.6159
  681SOL     OW 2041   0.811   0.674   1.233  0.0925 -0.3012  0.1182
  681SOL    HW1 2042   0.863   0.664   1.319  0.8265  0.0907 -0.3813
  681SOL    HW2 2043   0.808   0.581   1.186  0.2669 -0.6488 -1.8929
  682SOL     OW 2044   1.636   0.011   0.884  0.0800  0.1234  0.3819
  682SOL    HW1 2045   1.649   3.102   0.985  1.9558  0.9008  0.1553
  682SOL    HW2 2046   1.599   0.103   0.879 -1.4506  0.3544  2.4536
  683SOL     OW 2047   2.540   1.399   1.702 -0.0286 -0.1955 -0.3919
  683SOL    HW1 2048   2.586   1.474   1.651 -1.1517  0.5751  1.2479
  683SOL    HW2 2049   2.594   1.314   1.707  1.0680  1.7469 -0.0397
  684SOL     OW 2050   0.218   1.592   1.460  0.3023  0.2970  0.1740
  684SOL    HW1 2051   0.148   1.530   1.496  3.7194 -0.2413 -0.1017
  684SOL    HW2 2052   0.284   1.616   1.538  0.9703 -0.5146  2.4232
  685SOL     OW 2053   2.120   1.716   0.292 -0.0166 -0.2759  0.5047
  685SOL    HW1 2054   2.111   1.752   0.390 -3.4678 -0.2359  2.1171
  685SOL    HW2 2055   2.081   1.621   0.287  1.2465  0.2670  1.5789
  686SOL     OW 2056   2.674   0.048   0.871 -0.0915  0.1102 -0.1530
  686SOL    HW1 2057   2.643   0.030   0.964  0.5852  0.7524 -0.3473
  686SOL    HW2 2058   2.703   0.142   0.854  0.5009  0.6028  3.0894
  687SOL     OW 2059   1.358   3.096   2.689 -0.3533  0.3208  0.4232
  687SOL    HW1 2060   1.385   0.092   2.697 -0.2347  3.0841  1.2391
  687SOL    HW2 2061   1.444   3.043   2.687  0.8115  0.2170  2.5967
  688SOL     OW 2062   1.640   1.848   2.461 -0.1489  0.1033  0.3638
  688SOL    HW1 2063   1.714   1.789   2.505 -1.7047 -3.2212  1.5077
  688SOL    HW2 2064   1.669   1.890   2.380  0.1338 -0.0208  3.0947
  689SOL     OW 2065   2.722   1.183   1.999 -0.3779  0.1250 -0.4277
  689SOL    HW1 2066   2.736   1.250   2.071 -2.8403 -1.4241  0.0102
  689SOL    HW2 2067   2.810   1.168   1.956 -2.5807  1.6463  1.3536
  690SOL     OW 2068   1.763   1.996   1.039 -0.6218 -0.4560  0.0777
  690SOL    HW1 2069   1.751   1.961   1.134  2.4126 -2.3926 -0.0350
  690SOL    HW2 2070   1.808   1.922   0.982  0.9616 -0.2761 -1.7705
  691SOL     OW 2071   0.743   1.349   1.101  0.6744 -0.4024  0.4709
  691SOL    HW1 2072   0.799   1.288   1.157 -0.4654 -0.3114 -0.4516
  691SOL    HW2 2073   0.669   1.304   1.048 -0.1385  1.3817  1.8876
  692SOL     OW 2074   2.434   2.960   2.216 -0.3064  0.0130 -0.4673
  692SOL    HW1 2075   2.363   3.019   2.175  1.4608  3.3248  0.3272
  692SOL    HW2 2076   2.520   2.972   2.166 -1.5329 -1.0193  1.0497
  693SOL     OW 2077   3.075   1.540   2.490  0.0929 -0.1050 -0.4450
  693SOL    HW1 2078   0.025   1.558   2.575 -0.0318  0.9137  3.6998
  693SOL    HW2 2079   0.010   1.470   2.428 -2.4914  1.5283 -1.4684
  694SOL     OW 2080   2.035   0.401   1.267 -0.2806  0.1715  0.5909
  694SOL    HW1 2081   2.012   0.380   1.362  0.4828 -1.5917 -0.9398
  694SOL    HW2 2082   2.083   0.489   1.257  2.2393  0.2390  0.2438
  695SOL     OW 2083   1.315   1.022   2.960 -1.1106  0.2635  0.1927
  695SOL    HW1 2084   1.318   1.050   3.054  0.7466 -1.1550 -2.7376
  695SOL    HW2 2085   1.408   1.034   2.918  1.3251  2.6947 -0.4357
  696SOL     OW 2086   1.905   0.178   1.905  0.4106 -0.0376 -0.2465
  696SOL    HW1 2087   1.878   0.196   2.001  0.4042  0.7101 -0.4422
  696SOL    HW2 2088   1.820   0.171   1.854  2.9546 -3.7711  0.5989
  697SOL     OW 2089   1.542   0.173   2.180 -0.5516  0.2849  0.0405
  697SOL    HW1 2090   1.514   0.214   2.271  0.3357  0.3428  0.3713
  697SOL    HW2 2091   1.637   0.202   2.159 -1.2681  1.3030 -0.4674
  698SOL     OW 2092   1.838   1.693   2.541  0.0032 -0.5073  0.4620
  698SOL    HW1 2093   1.801   1.655   2.631  4.9982  0.0631  0.7563
  698SOL    HW2 2094   1.832   1.622   2.467  0.6351  1.1944  0.2418
  699SOL     OW 2095   1.727   0.695   0.308  0.2342  0.1259 -0.1682
  699SOL    HW1 2096   1.694   0.704   0.214 -1.7982  3.4115  1.2013
  699SOL    HW2 2097   1.762   0.602   0.332  0.0020  2.5478  1.4011
  700SOL     OW 2098   1.493   3.062   0.015 -0.0141  0.2152 -0.1945
  700SOL    HW1 2099   1.537   3.036   0.110  0.9408  1.5067 -0.3147
  700SOL    HW2 2100   1.389   3.061   0.020 -3.7791 -1.0723 -0.9108
  701SOL     OW 2101   0.055   0.362   1.205  0.2462  0.9668  0.3074
  701SOL    HW1 2102   0.014   0.451   1.174 -1.7272 -0.0154 -3.1188
  701SOL    HW2 2103   0.005   0.285   1.161 -0.2147  3.2644  1.4749
  702SOL     OW 2104   1.781   0.182   1.489  0.2633  0.1907 -0.2498
  702SOL    HW1 2105   1.751   0.200   1.582  0.2334 -1.0141 -1.7777
  702SOL    HW2 2106   1.792   0.080   1.480  1.6663  0.7182 -2.3389
  703SOL     OW 2107   2.844   0.656   1.233  0.2152  0.3360  0.3954
  703SOL    HW1 2108   2.766   0.606   1.274 -0.5690 -0.3167  0.7673
  703SOL    HW2 2109   2.825   0.748   1.198 -1.4157 -0.3702 -0.2960
  704SOL     OW 2110   1.031   2.315   1.266 -0.6967  0.0579 -0.2054
  704SOL    HW1 2111   1.129   2.348   1.253  1.4015  0.2178 -0.5315
  704SOL    HW2 2112   0.971   2.352   1.343  0.7982 -1.2538  0.2085
  705SOL     OW 2113   0.236   1.664   2.345 -0.0582 -0.1153 -0.1872
  705SOL    HW1 2114   0.287   1.696   2.260  2.2333 -0.0117 -0.6547
  705SOL    HW2 2115   0.278   1.689   2.435 -0.1552 -1.2591  3.0084
  706SOL     OW 2116   2.612   0.392   2.739 -0.1735 -0.5007  0.0753
  706SOL    HW1 2117   2.546   0.314   2.716  0.1364 -0.4049 -0.0127
  706SOL    HW2 2118   2.651   0.379   2.834 -0.8673  0.8167  0.8685
  707SOL     OW 2119   1.854   2.704   2.415 -0.2033 -0.4126  0.0448
  707SOL    HW1 2120   1.922   2.747   2.347 -1.8583  0.4375 -1.1402
  707SOL    HW2 2121   1.755   2.712   2.382 -2.2784  0.0102  3.2662
  708SOL     OW 2122   0.595   2.414   1.482 -0.1358 -0.3435  0.1434
  708SOL    HW1 2123   0.529   2.491   1.502  3.0261  0.8221  0.9274
  708SOL    HW2 2124   0.552   2.322   1.491 -0.0044  0.4664 -1.6735
  709SOL     OW 2125   0.043   0.894   1.812 -0.0024  0.2168  0.3122
  709SOL    HW1 2126   0.075   0.892   1.716  0.2620  1.2814  0.0549
  709SOL    HW2 2127   0.004   0.803   1.842 -1.9565 -1.2791  0.5233
  710SOL     OW 2128   0.074   0.440   1.457 -0.0413  0.1889  0.1010
  710SOL    HW1 2129   0.067   0.398   1.368  3.4590 -0.0690  0.4508
  710SOL    HW2 2130   0.009   0.520   1.475 -1.5444  1.3839 -1.3302
  711SOL     OW 2131   0.020   2.576   1.106 -0.5961  0.2747  0.0737
  711SOL    HW1 2132   3.075   2.496   1.145  0.5070 -1.3639 -1.8352
  711SOL    HW2 2133   0.038   2.555   1.007  2.1323 -0.4840 -0.6911
  712SOL     OW 2134   0.257   0.224   2.303 -0.5216 -0.0923 -0.2429
  712SOL    HW1 2135   0.271   0.132   2.343 -0.8212  1.3130  1.9094
  712SOL    HW2 2136   0.268   0.299   2.368  1.7811  0.5369 -0.9364
  713SOL     OW 2137   2.352   0.238   0.320  0.4591  0.3160 -0.1736
  713SOL    HW1 2138   2.275   0.292   0.282 -0.8141  2.1430  0.1324
  713SOL    HW2 2139   2.444   0.260   0.279 -0.1363  1.1822  1.5981
  714SOL     OW 2140   1.726   1.629   0.116  0.4529 -0.6919  0.0540
  714SOL    HW1 2141   1.685   1.708   0.166 -3.0643  0.5131  0.4615
  714SOL    HW2 2142   1.725   1.545   0.175 -0.2640 -0.0728 -0.5634
  715SOL     OW 2143   0.007   0.199   0.673  0.2696  0.1308 -0.1726
  715SOL    HW1 2144   0.068   0.124   0.648 -0.7416  3.1151  0.9696
  715SOL    HW2 2145   3.085   0.199   0.774 -2.9614  2.9781  2.4009
  716SOL     OW 2146   1.127   0.570   2.053 -0.4822  0.5755 -0.0224
  716SOL    HW1 2147   1.118   0.584   1.955  2.0812  1.1305  1.7619
  716SOL    HW2 2148   1.035   0.563   2.090  2.2093  1.8274  0.7483
  717SOL     OW 2149   0.258   0.423   2.919 -0.3146 -0.4243 -0.2295
  717SOL    HW1 2150   0.166   0.413   2.874 -1.0625 -0.1185 -2.3194
  717SOL    HW2 2151   0.337   0.421   2.850  0.0259  2.4551  0.1924
  718SOL     OW 2152   1.096   0.420   0.265 -0.2501  0.3913 -0.3880
  718SOL    HW1 2153   1.115   0.517   0.283  1.0138 -1.0480 -0.8176
  718SOL    HW2 2154   1.152   0.397   0.183 -0.1211  1.4260 -0.6917
  719SOL     OW 2155   2.545   2.288   2.716  0.0183 -0.1144  0.1100
  719SOL    HW1 2156   2.628   2.329   2.673  0.6762  2.3616 -1.4058
  719SOL    HW2 2157   2.487   2.238   2.651  3.3941  0.8676  1.9098
  720SOL     OW 2158   1.169   0.949   1.411  0.1555 -0.5420 -0.0446
  720SOL    HW1 2159   1.226   1.016   1.455 -1.5543 -2.2109  1.7574
  720SOL    HW2 2160   1.205   0.856   1.428  2.6352 -1.0149  1.4286
  721SOL     OW 2161   0.054   2.707   1.398 -0.7774 -0.1145  0.5594
  721SOL    HW1 2162   0.051   2.613   1.365 -1.1890  1.9821  0.4079
  721SOL    HW2 2163   0.140   2.749   1.360  1.7080  0.4208  1.9074
  722SOL     OW 2164   0.781   1.606   2.923  0.3248 -0.2835 -0.0378
  722SOL    HW1 2165   0.729   1.529   2.956 -0.6343  0.1436 -0.1861
  722SOL    HW2 2166   0.846   1.638   2.998  1.1366  0.3121  2.9431
  723SOL     OW 2167   2.014   0.304   0.495 -0.2406 -0.0834 -0.2830
  723SOL    HW1 2168   1.958   0.222   0.497  2.3667  0.9665  0.4869
  723SOL    HW2 2169   2.019   0.336   0.589 -0.7334 -1.0636 -1.2330
  724SOL     OW 2170   0.740   2.319   3.044  0.1363  0.5287 -0.3586
  724SOL    HW1 2171   0.780   2.254   0.009  2.3713 -4.3480  1.3344
  724SOL    HW2 2172   0.731   2.411   3.093 -0.0533  0.4670  1.8188
  725SOL     OW 2173   0.249   0.868   1.107  0.0372 -0.0430 -0.6995
  725SOL    HW1 2174   0.174   0.928   1.072  0.3284  0.6375 -1.0755
  725SOL    HW2 2175   0.336   0.925   1.103  1.2500 -0.5420 -2.2818
  726SOL     OW 2176   2.500   0.701   0.619  0.2112  0.0641  0.7095
  726SOL    HW1 2177   2.538   0.790   0.583 -0.2932 -1.6594  3.8115
  726SOL    HW2 2178   2.403   0.697   0.609  2.3046  1.7259  0.6770
  727SOL     OW 2179   1.824   1.286   2.543  0.4495 -0.2234  0.1429
  727SOL    HW1 2180   1.910   1.335   2.575 -1.4866  2.9571 -3.3137
  727SOL    HW2 2181   1.843   1.189   2.524 -1.7409  4.4495 -1.4120
  728SOL     OW 2182   1.831   3.003   1.521  0.0469  0.7525  0.4076
  728SOL    HW1 2183   1.924   2.961   1.538  1.2547 -0.0453 -1.5488
  728SOL    HW2 2184   1.760   2.929   1.529 -0.0665 -1.7212  0.5751
  729SOL     OW 2185   2.293   0.826   2.242  0.2217 -0.2366  0.9761
  729SOL    HW1 2186   2.354   0.906   2.233  0.4806 -0.2830  0.4435
  729SOL    HW2 2187   2.199   0.852   2.210 -1.0424  2.0749 -1.3246
  730SOL     OW 2188   0.943   0.654   1.470 -0.3802  0.3278  0.3435
  730SOL    HW1 2189   0.914   0.655   1.564 -0.2663  0.6435 -3.3071
  730SOL    HW2 2190   1.024   0.592   1.456  0.4674 -2.2796 -2.4643
  731SOL     OW 2191   0.213   0.232   0.382 -0.2425 -0.5872 -0.1809
  731SOL    HW1 2192   0.151   0.248   0.306  2.3991  1.0456  2.2095
  731SOL    HW2 2193   0.198   0.312   0.443 -0.8521 -0.2931  1.2508
  732SOL     OW 2194   0.241   0.468   0.525  0.4403 -0.1020  0.0732
  732SOL    HW1 2195   0.273   0.556   0.478  0.1688  2.5139 -1.1978
  732SOL    HW2 2196   0.160   0.491   0.587 -0.0304  1.9376  1.2114
  733SOL     OW 2197   1.709   1.592   2.752 -0.1715  0.4724  0.2263
  733SOL    HW1 2198   1.720   1.492   2.773 -0.6468  0.8582  0.1514
  733SOL    HW2 2199   1.660   1.632   2.829 -0.2829  0.8508 -0.0870
  734SOL     OW 2200   0.149   1.987   2.369 -0.5478 -0.1308  0.0635
  734SOL    HW1 2201   0.236   1.984   2.313  0.5439 -1.1366 -1.0633
  734SOL    HW2 2202   0.175   1.992   2.468  1.0747 -0.5449 -2.2386
  735SOL     OW 2203   1.849   0.757   1.338  0.3840  0.0852  0.1773
  735SOL    HW1 2204   1.930   0.740   1.397 -0.4126 -0.5284  0.3128
  735SOL    HW2 2205   1.777   0.686   1.359 -1.3778  0.7858  0.8309
  736SOL     OW 2206   1.216   1.314   3.089  0.0570 -0.1636 -0.1293
  736SOL    HW1 2207   1.136   1.308   0.046 -2.7965 -2.6122  2.0768
  736SOL    HW2 2208   1.287   1.379   0.012  3.9884 -1.8967 -0.6526
  737SOL     OW 2209   2.887   0.258   0.532 -0.1732 -0.2779  0.2087
  737SOL    HW1 2210   2.888   0.312   0.446  0.5007  0.2408  2.6888
  737SOL    HW2 2211   2.985   0.240   0.564  3.2007 -0.4929  1.5815
  738SOL     OW 2212   0.722   2.031   1.704  0.0534 -0.0979  0.0314
  738SOL    HW1 2213   0.653   2.057   1.630 -1.1125  0.2658 -0.6012
  738SOL    HW2 2214   0.710   1.929   1.723  1.9204 -0.5629 -1.0713
  739SOL     OW 2215   1.191   2.698   2.569 -0.3833 -0.5550  0.0238
  739SOL    HW1 2216   1.178   2.621   2.632  0.0766  1.2115 -0.9075
  739SOL    HW2 2217   1.292   2.725   2.554  2.7491 -2.6410  0.5331
  740SOL     OW 2218   1.985   2.569   1.649 -0.5228 -0.2906 -0.5735
  740SOL    HW1 2219   1.929   2.501   1.601  0.2641  0.1922  1.5286
  740SOL    HW2 2220   2.069   2.526   1.675 -2.6914  2.6877  2.3677
  741SOL     OW 2221   2.157   0.665   0.241  0.4993  0.6178 -0.2582
  741SOL    HW1 2222   2.247   0.707   0.251 -2.0023 -1.6410  2.1606
  741SOL    HW2 2223   2.083   0.728   0.278  2.9274 -0.8276 -2.2854
  742SOL     OW 2224   0.925   2.657   0.062  0.6446  0.7243  0.1005
  742SOL    HW1 2225   0.941   2.751   0.045  2.1665 -3.5776  0.5006
  742SOL    HW2 2226   1.006   2.598   0.034  1.4695  0.5436  0.9880
  743SOL     OW 2227   2.483   0.832   1.966  0.2519 -0.4663  0.8823
  743SOL    HW1 2228   2.485   0.934   1.983 -1.6596  3.1099  0.2681
  743SOL    HW2 2229   2.442   0.801   1.878  3.9564  1.8247 -0.7547
  744SOL     OW 2230   2.474   0.383   0.791  0.4221  0.3474 -0.7655
  744SOL    HW1 2231   2.405   0.337   0.732  0.7972  1.2245  0.5341
  744SOL    HW2 2232   2.565   0.352   0.762 -1.4832  0.0833 -1.4496
  745SOL     OW 2233   2.672   1.157   1.705 -0.3461 -0.3373 -0.0870
  745SOL    HW1 2234   2.698   1.077   1.647  0.3722 -0.9412  3.5146
  745SOL    HW2 2235   2.714   1.151   1.800  4.3527 -2.5262  1.3645
  746SOL     OW 2236   1.286   1.474   0.569 -0.6718 -0.5756 -0.1560
  746SOL    HW1 2237   1.300   1.572   0.603 -1.6791 -1.5832  0.1891
  746SOL    HW2 2238   1.189   1.461   0.555  1.8945  0.7712  0.0921
  747SOL     OW 2239   1.575   1.794   1.710  0.5478  0.3151 -0.4288
  747SOL    HW1 2240   1.549   1.881   1.755  0.1538 -0.5691 -0.0424
  747SOL    HW2 2241   1.524   1.772   1.627 -0.2379  0.6766  1.7943
  748SOL     OW 2242   0.439   2.856   3.043  0.1965  0.2357 -1.1395
  748SOL    HW1 2243   0.476   2.764   3.020  0.7548  0.0519  0.6155
  748SOL    HW2 2244   0.381   2.848   0.020 -0.9812 -0.5214  0.4663
  749SOL     OW 2245   0.328   1.237   2.528 -0.0471  0.1860  0.2602
  749SOL    HW1 2246   0.330   1.160   2.466 -2.1348 -1.0572 -1.0708
  749SOL    HW2 2247   0.402   1.305   2.511 -1.8156 -2.3004  2.2012
  750SOL     OW 2248   1.794   0.836   2.255  0.5672  0.2997 -0.3375
  750SOL    HW1 2249   1.846   0.776   2.190 -1.1920  0.7762  0.9419
  750SOL    HW2 2250   1.698   0.839   2.222  0.7394 -0.2807  1.5844
  751SOL     OW 2251   2.427   0.708   0.290 -0.3923  0.0631 -0.6243
  751SOL    HW1 2252   2.488   0.667   0.221  2.4899  0.8991  1.2256
  751SOL    HW2 2253   2.490   0.753   0.357  2.9998 -0.1293  0.3785
  752SOL     OW 2254   0.198   2.241   0.839  0.0406 -0.0791 -0.1853
  752SOL    HW1 2255   0.161   2.165   0.778 -1.4590 -0.5790 -0.0370
  752SOL    HW2 2256   0.268   2.190   0.894 -0.5866 -0.5384 -2.0027
  753SOL     OW 2257   1.223   2.595   1.159  0.1832  0.7923 -0.2034
  753SOL    HW1 2258   1.254   2.494   1.149  2.4366 -2.6596  0.9342
  753SOL    HW2 2259   1.121   2.598   1.147 -1.7089  0.3682  1.1617
  754SOL     OW 2260   0.292   0.004   1.936 -0.4396 -0.1869 -0.8203
  754SOL    HW1 2261   0.259   3.044   2.012 -0.5933  0.3961  0.8829
  754SOL    HW2 2262   0.219   0.024   1.865  2.9820  0.8044 -1.1398
  755SOL     OW 2263   1.963   0.818   0.376  0.5785  0.3570  0.9131
  755SOL    HW1 2264   1.886   0.761   0.341  0.6314  1.4281 -0.5471
  755SOL    HW2 2265   1.946   0.835   0.477  2.6150 -2.5460 -0.1515
  756SOL     OW 2266   2.287   2.329   2.488 -0.0741  0.4167  0.0883
  756SOL    HW1 2267   2.268   2.359   2.580  0.8808  0.4360 -2.7001
  756SOL    HW2 2268   2.204   2.314   2.436  1.5610 -0.8881  1.4785
  757SOL     OW 2269   1.839   0.458   0.347  0.0398  0.2990  0.2951
  757SOL    HW1 2270   1.860   0.479   0.248 -2.3722 -0.1493 -0.7420
  757SOL    HW2 2271   1.920   0.425   0.400  0.1353 -1.2090  0.4316
  758SOL     OW 2272   2.201   0.617   1.323 -0.0332 -0.0057 -0.9000
  758SOL    HW1 2273   2.258   0.539   1.346 -2.7518 -3.3436 -1.1113
  758SOL    HW2 2274   2.202   0.648   1.228 -0.0075 -1.1434  3.3706
  759SOL     OW 2275   2.142   0.617   1.027 -0.3314  0.1783 -0.4137
  759SOL    HW1 2276   2.231   0.600   0.975 -0.5609 -0.9983 -1.7993
  759SOL    HW2 2277   2.072   0.544   1.004 -2.3714 -1.1587  0.6427
  760SOL     OW 2278   2.343   1.305   1.146  0.2255  0.4400 -0.1186
  760SOL    HW1 2279   2.327   1.385   1.207  0.0547  0.3502  0.9359
  760SOL    HW2 2280   2.277   1.226   1.160 -1.0779 -3.7392 -2.5022
  761SOL     OW 2281   0.554   0.387   0.339 -0.3909  0.4122 -0.2425
  761SOL    HW1 2282   0.655   0.411   0.341  2.2286 -1.0358 -2.7921
  761SOL    HW2 2283   0.538   0.339   0.425  3.1825 -0.4301 -0.2082
  762SOL     OW 2284   1.002   1.895   1.062 -0.0106 -0.3455  0.4741
  762SOL    HW1 2285   1.062   1.810   1.050  2.2410 -1.2883 -0.3785
  762SOL    HW2 2286   0.985   1.913   1.165  1.4386  0.1925  1.1675
  763SOL     OW 2287   1.377   1.110   1.566 -0.3802 -0.0256 -0.3467
  763SOL    HW1 2288   1.389   1.043   1.645 -0.9872 -0.2882  1.5896
  763SOL    HW2 2289   1.457   1.128   1.506 -2.9233 -0.0953 -2.6915
  764SOL     OW 2290   0.387   1.584   2.651 -0.2150 -0.5427  0.0089
  764SOL    HW1 2291   0.287   1.567   2.650 -1.1092 -0.5734  0.9978
  764SOL    HW2 2292   0.416   1.674   2.607 -0.7184  1.2993 -0.8478
  765SOL     OW 2293   0.934   2.682   1.433 -0.2296  0.1781 -0.1077
  765SOL    HW1 2294   0.882   2.766   1.466 -3.2076 -1.2961  0.6983
  765SOL    HW2 2295   0.943   2.671   1.330  1.3811  0.1015 -0.1375
  766SOL     OW 2296   2.779   2.355   2.608 -0.3300 -0.0024  0.6826
  766SOL    HW1 2297   2.874   2.356   2.643 -0.1030  3.0326 -1.6683
  766SOL    HW2 2298   2.780   2.379   2.510  2.6291 -0.2397  2.4887
  767SOL     OW 2299   1.047   0.966   2.600  0.0517  0.5355 -0.3162
  767SOL    HW1 2300   1.046   1.006   2.693 -1.0308 -2.1412 -1.6090
  767SOL    HW2 2301   1.054   1.036   2.526  1.3719  1.0353 -0.0866
  768SOL     OW 2302   1.321   1.884   0.058 -0.2621  0.8451 -0.1954
  768SOL    HW1 2303   1.378   1.939   3.106 -0.8082  3.0069  3.7774
  768SOL    HW2 2304   1.346   1.890   0.156 -1.8761 -0.1816 -2.0653
  769SOL     OW 2305   0.256   2.013   1.396  0.0443  0.3655 -0.0399
  769SOL    HW1 2306   0.269   2.073   1.315  1.6116  0.5249  0.3537
  769SOL    HW2 2307   0.195   1.933   1.372  1.0005 -1.6552  0.0406
  770SOL     OW 2308   1.336   1.185   2.681 -0.0798 -0.0272  0.5607
  770SOL    HW1 2309   1.428   1.177   2.718 -0.7118  2.5658  0.3678
  770SOL    HW2 2310   1.345   1.198   2.577  2.2524 -0.7840  1.2610
  771SOL     OW 2311   0.194   2.913   2.102  1.2430  0.0824  0.8961
  771SOL    HW1 2312   0.217   2.816   2.124  0.7361 -1.0768 -0.0750
  771SOL    HW2 2313   0.090   2.924   2.095  0.6508 -0.6646  0.7912
  772SOL     OW 2314   2.517   2.183   1.746 -0.3695 -0.2309  0.1529
  772SOL    HW1 2315   2.509   2.283   1.774 -0.5519  0.6399 -1.6605
  772SOL    HW2 2316   2.436   2.132   1.773  1.8408  1.1314  1.4371
  773SOL     OW 2317   0.538   1.676   1.592 -0.0683  0.1571 -0.0934
  773SOL    HW1 2318   0.456   1.678   1.654  2.0314  1.7484  1.2028
  773SOL    HW2 2319   0.615   1.728   1.639  0.0693  0.0212 -0.3119
  774SOL     OW 2320   1.258   0.419   2.468  0.1634  0.0902  0.8279
  774SOL    HW1 2321   1.227   0.324   2.461  2.1305  0.5659 -0.8202
  774SOL    HW2 2322   1.259   0.442   2.567 -0.5100 -1.9416 -2.2793
  775SOL     OW 2323   2.051   2.798   2.989  0.1508  0.2462 -0.0492
  775SOL    HW1 2324   2.014   2.886   2.952 -1.0979  0.3066 -0.3868
  775SOL    HW2 2325   2.118   2.767   2.926  0.9629  2.6814  1.4153
  776SOL     OW 2326   3.049   0.671   1.913 -0.3182 -0.0386 -0.0839
  776SOL    HW1 2327   2.973   0.657   1.978  1.5708 -0.1281 -1.2857
  776SOL    HW2 2328   0.007   0.596   1.914 -2.5117  4.7548  0.9253
  777SOL     OW 2329   2.398   2.185   2.077  0.3907  0.0011  0.1631
  777SOL    HW1 2330   2.398   2.094   2.038  3.9341  0.8198  3.1357
  777SOL    HW2 2331   2.316   2.231   2.050  2.6646 -2.2483  1.2329
  778SOL     OW 2332   1.958   1.158   2.067  0.2018  0.0334  0.0012
  778SOL    HW1 2333   1.895   1.233   2.092  0.9094 -4.0652 -1.0772
  778SOL    HW2 2334   1.919   1.100   1.995  1.3808  2.7448  2.0173
  779SOL     OW 2335   2.346   1.232   0.293  0.4106  0.0971 -0.5975
  779SOL    HW1 2336   2.414   1.297   0.256  0.4868 -1.8656 -1.3842
  779SOL    HW2 2337   2.323   1.159   0.223  0.2123 -0.1693  1.7669
  780SOL     OW 2338   2.294   0.336   2.902 -0.2385 -0.4075 -0.0520
  780SOL    HW1 2339   2.262   0.341   2.807 -0.4702 -1.5553 -0.0041
  780SOL    HW2 2340   2.319   0.242   2.928  0.0199  0.2807 -0.5995
  781SOL     OW 2341   0.071   1.818   1.374  0.1324 -0.7885  0.8405
  781SOL    HW1 2342   0.023   1.851   1.459 -0.0584 -1.5869 -0.7999
  781SOL    HW2 2343   0.108   1.725   1.383  0.7395 -2.0369 -0.1300
  782SOL     OW 2344   2.379   2.425   2.889 -0.0806 -0.1925  0.4826
  782SOL    HW1 2345   2.438   2.384   2.812  2.5624 -2.3955 -3.2878
  782SOL    HW2 2346   2.373   2.356   2.963 -0.3211 -1.4664 -0.4062
  783SOL     OW 2347   0.456   1.242   1.337  0.7192  0.1273 -0.2344
  783SOL    HW1 2348   0.549   1.249   1.371 -1.7942 -2.3178 -2.6846
  783SOL    HW2 2349   0.425   1.335   1.310 -2.1768  0.3387  2.3363
  784SOL     OW 2350   1.652   0.628   2.887 -0.6895  0.4546 -0.2773
  784SOL    HW1 2351   1.742   0.654   2.848 -2.6372  2.3036  0.7349
  784SOL    HW2 2352   1.644   0.667   2.980  1.2667 -2.0233  0.0657
  785SOL     OW 2353   2.600   2.829   0.856  0.3825 -0.1453 -0.2477
  785SOL    HW1 2354   2.651   2.762   0.912 -1.0117  1.2416 -2.7483
  785SOL    HW2 2355   2.655   2.864   0.778 -0.6812 -0.9482 -1.3147
  786SOL     OW 2356   0.807   2.072   2.165 -0.1727 -0.0939  0.7957
  786SOL    HW1 2357   0.882   2.082   2.100 -1.8659 -2.5896  0.1659
  786SOL    HW2 2358   0.850   2.069   2.259 -3.8407  0.7173 -1.5073
  787SOL     OW 2359   1.285   0.967   1.131  0.1409  0.6623 -0.5972
  787SOL    HW1 2360   1.241   0.973   1.222 -3.0882  0.6291  1.0717
  787SOL    HW2 2361   1.374   0.914   1.132 -0.1192 -1.3566  0.8965
  788SOL     OW 2362   2.940   0.614   0.546 -0.2368  0.5213  0.0965
  788SOL    HW1 2363   3.001   0.572   0.622  1.1287 -0.9043  1.2128
  788SOL    HW2 2364   2.948   0.562   0.462 -1.2018  1.3759 -0.9083
  789SOL     OW 2365   3.064   1.884   1.123 -0.1984 -0.2955 -0.1220
  789SOL    HW1 2366   3.035   1.982   1.103  1.0383 -0.6283 -1.3409
  789SOL    HW2 2367   0.010   1.881   1.211 -1.7113 -0.8756 -3.0304
  790SOL     OW 2368   1.060   0.710   2.311 -0.1484 -0.2194  0.0349
  790SOL    HW1 2369   1.087   0.624   2.270 -0.8201 -0.5983  3.5457
  790SOL    HW2 2370   1.100   0.718   2.403  0.3901  0.3399 -2.1084
  791SOL     OW 2371   1.372   0.417   0.389  0.0476  0.7169  0.2107
  791SOL    HW1 2372   1.414   0.365   0.310  1.4392  0.5886 -1.7908
  791SOL    HW2 2373   1.295   0.359   0.427 -1.0204  0.0095 -0.1975
  792SOL     OW 2374   1.588   2.845   1.847 -0.1084  0.2363  0.6640
  792SOL    HW1 2375   1.525   2.794   1.914 -0.2827 -0.8400  0.2359
  792SOL    HW2 2376   1.641   2.780   1.792  1.8375 -0.4861 -0.8035
  793SOL     OW 2377   1.249   0.482   0.771  0.1339 -0.2825  0.2402
  793SOL    HW1 2378   1.309   0.562   0.752  0.7046  2.2625 -0.4428
  793SOL    HW2 2379   1.196   0.448   0.696 -0.1716  1.1465  1.8710
  794SOL     OW 2380   0.457   0.964   2.065  0.4696  0.3325 -0.2069
  794SOL    HW1 2381   0.406   0.937   1.980 -2.0679  0.9453  1.3065
  794SOL    HW2 2382   0.531   1.020   2.042 -0.6632 -3.5038  0.1715
  795SOL     OW 2383   0.329   1.982   2.183 -0.3112 -0.1982 -0.1679
  795SOL    HW1 2384   0.420   1.951   2.175 -4.3280 -2.9737  2.9907
  795SOL    HW2 2385   0.310   2.058   2.119  1.4453  0.8509  0.1321
  796SOL     OW 2386   2.429   1.149   2.014 -0.3268 -0.0835 -0.3074
  796SOL    HW1 2387   2.430   1.135   2.117  0.4117  0.7335 -0.8242
  796SOL    HW2 2388   2.528   1.172   1.986  3.0220  0.1984  1.0644
  797SOL     OW 2389   2.927   2.472   2.831  0.0300 -0.0130 -0.3223
  797SOL    HW1 2390   2.867   2.539   2.788  0.2263  1.3582 -0.9821
  797SOL    HW2 2391   2.872   2.397   2.876 -3.7425  0.2171  1.5745
  798SOL     OW 2392   0.151   2.323   2.235  0.0754  0.5511 -0.0369
  798SOL    HW1 2393   0.169   2.325   2.136  1.9499  1.5120  1.0740
  798SOL    HW2 2394   0.089   2.242   2.243 -1.2864 -3.3627 -1.1338
  799SOL     OW 2395   0.504   2.200   2.862 -0.0633 -0.4097 -0.0965
  799SOL    HW1 2396   0.576   2.193   2.931  2.2067  1.8091 -0.8517
  799SOL    HW2 2397   0.420   2.232   2.913 -1.6575 -0.1584  0.1224
  800SOL     OW 2398   0.889   1.685   0.047 -0.4999 -0.4540 -0.9263
  800SOL    HW1 2399   0.808   1.659   0.105 -1.1910 -2.2597  0.4814
  800SOL    HW2 2400   0.975   1.695   0.105  1.0566 -2.1947  0.4420
  801SOL     OW 2401   1.738   1.403   1.517 -0.2980  0.4971  0.2169
  801SOL    HW1 2402   1.840   1.405   1.507  0.6835  1.8335  3.2127
  801SOL    HW2 2403   1.705   1.418   1.613 -1.5809 -1.9159  0.8433
  802SOL     OW 2404   2.727   1.309   0.309  0.2284 -0.3014 -0.1432
  802SOL    HW1 2405   2.715   1.297   0.408 -2.8180  0.5193 -3.0201
  802SOL    HW2 2406   2.704   1.218   0.264 -1.3102 -0.7396 -0.4823
  803SOL     OW 2407   0.928   1.725   2.713  0.2945  0.7136 -0.1891
  803SOL    HW1 2408   0.873   1.674   2.783 -0.8401  2.0852 -1.3004
  803SOL    HW2 2409   1.018   1.756   2.748 -1.5084 -0.2700  0.7121
  804SOL     OW 2410   1.720   1.396   0.268  0.0119  0.1021  0.1642
  804SOL    HW1 2411   1.744   1.305   0.225 -1.1837  0.3050  0.3713
  804SOL    HW2 2412   1.791   1.424   0.335 -1.1215  1.5040 -1.6933
  805SOL     OW 2413   2.644   1.666   2.611  0.4467  0.6432  0.5516
  805SOL    HW1 2414   2.607   1.743   2.665 -2.4502 -2.4701 -0.1890
  805SOL    HW2 2415   2.747   1.664   2.619  5.3872 -0.5958  0.7527
  806SOL     OW 2416   0.495   2.953   0.489  0.2783  0.2365 -0.2051
  806SOL    HW1 2417   0.472   3.023   0.561  2.1036 -0.5908 -1.2964
  806SOL    HW2 2418   0.518   2.864   0.529  2.3387  0.5876 -0.6225
  807SOL     OW 2419   2.043   1.455   2.901 -0.1466  0.2131 -0.0425
  807SOL    HW1 2420   1.988   1.520   2.952  0.2756 -0.7788 -1.0499
  807SOL    HW2 2421   2.124   1.417   2.952 -3.4289 -0.2687  0.5969
  808SOL     OW 2422   0.267   1.585   0.643  0.3386  0.0306 -0.4083
  808SOL    HW1 2423   0.359   1.563   0.608 -0.1821 -1.3019 -2.3799
  808SOL    HW2 2424   0.268   1.574   0.748 -2.3747 -1.2835  0.5178
  809SOL     OW 2425   2.329   0.991   0.166 -0.2192  0.2841 -0.1248
  809SOL    HW1 2426   2.246   0.995   0.104  1.6001 -1.9046 -1.1223
  809SOL    HW2 2427   2.381   0.904   0.160 -2.5930  0.3968  1.1871
  810SOL     OW 2428   0.668   0.970   0.425  0.7163 -0.0754  0.1194
  810SOL    HW1 2429   0.696   0.898   0.355 -1.0749 -1.9976 -0.4280
  810SOL    HW2 2430   0.592   1.017   0.382 -0.3423  0.8705 -1.7619
  811SOL     OW 2431   1.479   2.394   1.537 -0.6913 -0.3278 -0.0546
  811SOL    HW1 2432   1.444   2.457   1.469 -0.8649  1.1424 -1.7104
  811SOL    HW2 2433   1.545   2.325   1.494  0.3643 -0.9452  0.5748
  812SOL     OW 2434   0.996   2.572   1.856 -0.1351  0.3937 -0.3346
  812SOL    HW1 2435   1.093   2.579   1.828 -1.1106  1.3376 -1.6157
  812SOL    HW2 2436   0.984   2.485   1.901 -0.6844 -0.0322 -1.2249
  813SOL     OW 2437   1.228   0.048   1.786  0.5324 -0.1742 -0.1777
  813SOL    HW1 2438   1.195   0.097   1.868 -0.0832  0.8538 -1.1145
  813SOL    HW2 2439   1.166   3.075   1.769 -0.5115  2.7305  0.7272
  814SOL     OW 2440   1.232   2.433   2.714 -0.4377 -0.0025 -0.2268
  814SOL    HW1 2441   1.309   2.428   2.646  1.3626 -1.1550  0.7441
  814SOL    HW2 2442   1.221   2.336   2.753 -2.0031 -0.1061  1.9046
  815SOL     OW 2443   0.710   0.151   2.466  0.0806  0.4945  0.5284
  815SOL    HW1 2444   0.713   0.158   2.564  1.5081  1.0733  1.1048
  815SOL    HW2 2445   0.715   0.241   2.414 -1.1173  1.4327 -0.0990
  816SOL     OW 2446   1.971   0.443   2.976 -0.1739 -0.3215  0.3721
  816SOL    HW1 2447   2.052   0.500   2.949 -0.1409 -0.8777  0.3670
  816SOL    HW2 2448   1.919   0.418   2.891  0.6529 -3.9605  0.6054
  817SOL     OW 2449   2.255   0.337   2.409 -0.2033  0.7166  0.0072
  817SOL    HW1 2450   2.323   0.282   2.352  2.4028 -0.0880  0.3739
  817SOL    HW2 2451   2.268   0.436   2.390  1.7583 -3.9718  1.5233
  818SOL     OW 2452   1.708   0.296   0.053  0.4283  0.0184  0.0087
  818SOL    HW1 2453   1.759   0.384   0.073  3.1839  1.3643 -1.7395
  818SOL    HW2 2454   1.767   0.212   0.055 -0.0231  0.6375 -0.4438
  819SOL     OW 2455   2.226   1.641   2.788  0.3283  0.1508  0.3001
  819SOL    HW1 2456   2.173   1.557   2.807 -0.2877  1.0433 -1.4000
  819SOL    HW2 2457   2.282   1.658   2.872  0.9272  0.6277  2.2466
  820SOL     OW 2458   0.139   1.866   3.044 -0.1548  0.0140 -0.5381
  820SOL    HW1 2459   0.136   1.949   3.102  0.9365 -2.6747  3.1461
  820SOL    HW2 2460   0.220   1.808   3.052  0.3144  0.2524 -0.0285
  821SOL     OW 2461   0.265   2.888   1.044  0.2305 -0.2873 -0.2855
  821SOL    HW1 2462   0.338   2.948   1.000  0.9104  1.1654 -1.1979
  821SOL    HW2 2463   0.233   2.820   0.971  0.1042  1.0988  0.9083
  822SOL     OW 2464   2.871   2.938   0.045  0.4583  0.1795  0.3302
  822SOL    HW1 2465   2.871   2.855   0.102  2.9834 -0.0357 -1.8552
  822SOL    HW2 2466   2.937   2.934   3.080 -0.0113 -2.4933  4.1863
  823SOL     OW 2467   1.264   0.457   2.754  0.0743  0.1425  0.0378
  823SOL    HW1 2468   1.250   0.390   2.827 -1.2254  1.5559 -2.4630
  823SOL    HW2 2469   1.359   0.487   2.750 -0.3354  0.7579  1.7378
  824SOL     OW 2470   2.659   1.944   1.870 -0.4557  0.6669  0.0075
  824SOL    HW1 2471   2.606   1.935   1.958  0.3923  0.0105 -1.2991
  824SOL    HW2 2472   2.628   2.031   1.826 -2.2349  2.9394  0.9160
  825SOL     OW 2473   3.032   2.219   2.560  0.1710 -0.2131 -0.3533
  825SOL    HW1 2474   2.950   2.167   2.524 -0.7361  0.3891 -1.9378
  825SOL    HW2 2475   3.055   2.301   2.504  3.4848 -0.1940 -0.4155
  826SOL     OW 2476   2.326   1.475   2.380 -0.1944  0.0584 -0.6567
  826SOL    HW1 2477   2.280   1.386   2.351  1.8184  0.2301 -0.2484
  826SOL    HW2 2478   2.268   1.539   2.434 -0.7320 -0.9196  2.9586
  827SOL     OW 2479   2.319   2.418   1.303 -0.6888 -0.2251 -0.2373
  827SOL    HW1 2480   2.282   2.365   1.226 -0.5617  0.7542  0.9358
  827SOL    HW2 2481   2.295   2.517   1.298 -0.9671  0.6515 -0.2044
  828SOL     OW 2482   0.152   3.009   1.499  0.0720 -0.5069 -0.3409
  828SOL    HW1 2483   0.071   2.980   1.556  1.8808  0.2905 -3.1267
  828SOL    HW2 2484   0.208   3.081   1.552  1.2552  3.4697  2.2467
  829SOL     OW 2485   1.430   2.411   2.531  0.4754  0.2404 -0.1735
  829SOL    HW1 2486   1.513   2.369   2.573 -0.1519 -1.8769  2.4627
  829SOL    HW2 2487   1.422   2.379   2.437 -0.1964  2.6566  0.8888
  830SOL     OW 2488   0.913   0.346   0.759  0.0700 -0.5585 -0.0399
  830SOL    HW1 2489   0.917   0.267   0.827 -0.9199  0.7303  1.0260
  830SOL    HW2 2490   0.939   0.437   0.800 -0.1630  1.5764 -1.1216
  831SOL     OW 2491   2.952   1.312   3.069 -0.2696 -0.0144 -0.2888
  831SOL    HW1 2492   3.017   1.372   0.008 -1.2419  1.6263  0.3355
  831SOL    HW2 2493   2.966   1.309   2.972  0.5043 -5.0726  4.4798
  832SOL     OW 2494   1.676   1.939   2.200 -0.4635  0.0860  1.0095
  832SOL    HW1 2495   1.583   1.957   2.229  0.5004 -2.9130  0.2820
  832SOL    HW2 2496   1.718   2.014   2.143 -0.4565 -0.1765  2.5649
  833SOL     OW 2497   0.611   0.391   2.100 -0.3540  0.4846  0.2889
  833SOL    HW1 2498   0.546   0.308   2.099 -1.4400  0.2689  0.7549
  833SOL    HW2 2499   0.561   0.475   2.123 -0.2829  2.8582 -0.2258
  834SOL     OW 2500   0.653   1.012   1.553  0.2978 -0.5376 -0.5665
  834SOL    HW1 2501   0.651   0.934   1.487 -2.2543  1.4227  0.0074
  834SOL    HW2 2502   0.689   0.976   1.643  0.1058  1.5995  2.2082
  835SOL     OW 2503   2.589   0.870   0.031  0.9294  0.1301 -0.2261
  835SOL    HW1 2504   2.629   0.795   3.083 -0.6001 -0.0576 -1.8644
  835SOL    HW2 2505   2.538   0.926   3.069  1.4574  1.1078 -0.5873
  836SOL     OW 2506   1.087   1.790   0.186  0.3789 -0.6232  0.2222
  836SOL    HW1 2507   1.047   1.862   0.246  0.1506 -1.4824 -0.5150
  836SOL    HW2 2508   1.161   1.831   0.124  1.4711  0.5952 -0.1049
  837SOL     OW 2509   1.674   1.677   0.921  0.4595 -0.3828  0.2501
  837SOL    HW1 2510   1.762   1.726   0.902  0.3394  2.2306 -1.4513
  837SOL    HW2 2511   1.588   1.734   0.901 -0.3121  2.9445  0.2443
  838SOL     OW 2512   1.247   1.226   2.185 -0.1828  0.8219  0.3083
  838SOL    HW1 2513   1.158   1.175   2.188  1.8704  0.0115 -0.1158
  838SOL    HW2 2514   1.230   1.323   2.175 -0.8579 -1.2227  2.2981
  839SOL     OW 2515   0.808   1.953   2.617  0.5700 -0.1809 -0.7176
  839SOL    HW1 2516   0.861   1.868   2.631 -0.0579 -1.6145  1.7443
  839SOL    HW2 2517   0.796   2.003   2.704  1.0715 -2.4930 -1.4643
  840SOL     OW 2518   0.786   2.414   0.316  0.4557 -0.4007 -0.0727
  840SOL    HW1 2519   0.752   2.503   0.349  0.8107 -3.0787 -0.1977
  840SOL    HW2 2520   0.761   2.342   0.386 -1.2298  2.8388 -2.3968
  841SOL     OW 2521   1.936   2.752   0.304 -0.5236 -0.6052  0.5903
  841SOL    HW1 2522   1.880   2.723   0.383 -0.5146  3.3012 -0.3114
  841SOL    HW2 2523   1.909   2.708   0.218 -3.2144 -0.2420  0.7629
  842SOL     OW 2524   0.460   0.641   3.035 -0.2880 -0.4967  0.4641
  842SOL    HW1 2525   0.461   0.545   3.068  0.1073  0.9784 -2.8784
  842SOL    HW2 2526   0.527   0.698   3.088 -2.1548  0.7554 -1.9415
  843SOL     OW 2527   1.285   0.193   0.839 -0.1731  0.0754 -0.2350
  843SOL    HW1 2528   1.249   0.180   0.934  1.8378 -1.6402 -2.1997
  843SOL    HW2 2529   1.288   0.286   0.805  0.2830 -2.3722  2.7009
  844SOL     OW 2530   3.069   2.903   2.843 -0.3935 -0.5691 -0.0228
  844SOL    HW1 2531   0.028   2.827   2.844  1.5257 -1.0318  0.8673
  844SOL    HW2 2532   2.974   2.870   2.823  0.0500 -1.7704 -1.2981
  845SOL     OW 2533   2.579   2.346   0.993 -0.8448 -0.5215 -0.1448
  845SOL    HW1 2534   2.610   2.339   0.896  0.6770 -0.9129  2.0347
  845SOL    HW2 2535   2.661   2.370   1.053 -0.2716 -0.8769  0.3451
  846SOL     OW 2536   3.031   1.797   2.357  0.0866 -0.0504 -0.1209
  846SOL    HW1 2537   0.004   1.862   2.360 -0.9159  1.1569 -1.4866
  846SOL    HW2 2538   3.063   1.699   2.367 -0.7472  0.7775  1.0211
  847SOL     OW 2539   1.017   0.693   1.799 -0.5639 -0.0768 -0.0849
  847SOL    HW1 2540   1.044   0.778   1.848  1.0062 -1.0862 -1.0844
  847SOL    HW2 2541   1.088   0.669   1.726 -0.0054 -1.9170 -0.3297
  848SOL     OW 2542   2.607   2.975   3.029  0.1775  0.0190 -0.2099
  848SOL    HW1 2543   2.527   2.999   3.090 -2.0653  0.2427 -0.2754
  848SOL    HW2 2544   2.693   2.962   3.083 -2.6958  0.5332  0.5802
  849SOL     OW 2545   0.695   2.808   2.802 -0.1557 -0.1394 -0.3751
  849SOL    HW1 2546   0.650   2.734   2.858  0.7418  2.1605 -0.2687
  849SOL    HW2 2547   0.790   2.826   2.829 -0.2830  0.1128 -0.8406
  850SOL     OW 2548   1.181   2.727   1.541 -0.0415 -0.0202  0.4165
  850SOL    HW1 2549   1.243   2.694   1.469 -0.2934  0.4127 -1.3277
  850SOL    HW2 2550   1.081   2.702   1.518  1.3195  1.3380  0.5797
  851SOL     OW 2551   2.563   0.412   2.111  0.2593 -0.1498  0.0928
  851SOL    HW1 2552   2.591   0.511   2.129  1.1633 -0.7284  0.2876
  851SOL    HW2 2553   2.646   0.357   2.125 -0.9703 -2.4534  1.0398
  852SOL     OW 2554   2.041   0.985   2.270 -0.3396  0.0658  0.0290
  852SOL    HW1 2555   2.015   1.044   2.191 -1.0318  0.3421 -1.3135
  852SOL    HW2 2556   1.958   0.944   2.313  1.4725 -1.0530 -1.3812
  853SOL     OW 2557   2.856   2.973   0.751  0.4803  0.0941  0.6687
  853SOL    HW1 2558   2.800   3.034   0.807  4.0914 -2.4726 -1.4064
  853SOL    HW2 2559   2.862   3.007   0.656 -0.2326 -0.0717 -0.2292
  854SOL     OW 2560   2.189   1.284   2.036  0.0476 -0.8222 -0.0441
  854SOL    HW1 2561   2.111   1.222   2.063  0.6753 -1.4005  0.4041
  854SOL    HW2 2562   2.273   1.225   2.020 -0.3504 -0.4460  0.3469
  855SOL     OW 2563   1.047   2.453   0.332 -0.1561  0.2745  0.7359
  855SOL    HW1 2564   0.943   2.457   0.333 -2.8902 -0.0721  0.9144
  855SOL    HW2 2565   1.081   2.372   0.277  0.1871  1.8645 -0.7939
  856SOL     OW 2566   0.065   0.288   2.669  0.3967 -0.3163  0.2455
  856SOL    HW1 2567   0.068   0.189   2.693 -0.7368  0.3948 -0.7921
  856SOL    HW2 2568   0.011   0.342   2.741 -1.9758  0.1733  1.0300
  857SOL     OW 2569   1.091   2.919   1.747  0.0982  0.0095  0.0099
  857SOL    HW1 2570   1.129   2.894   1.661  1.5022  1.7244  0.9269
  857SOL    HW2 2571   0.992   2.894   1.752 -0.1950 -0.9550 -2.3250
  858SOL     OW 2572   2.713   2.174   1.567 -0.0224 -0.2813 -0.1532
  858SOL    HW1 2573   2.717   2.093   1.509  1.8168 -0.2346  0.7409
  858SOL    HW2 2574   2.631   2.169   1.628 -2.1434 -1.7341 -1.1154
  859SOL     OW 2575   1.568   2.536   1.896  0.1925 -0.8172 -0.4543
  859SOL    HW1 2576   1.498   2.490   1.842 -1.0564 -1.2967  1.6797
  859SOL    HW2 2577   1.521   2.579   1.977 -1.0964 -2.4186 -0.5384
  860SOL     OW 2578   2.435   2.572   3.094  0.0207 -0.5930 -0.3001
  860SOL    HW1 2579   2.409   2.512   3.011 -1.1314 -1.2376 -2.0608
  860SOL    HW2 2580   2.351   2.618   0.010  4.3429 -0.3987 -2.0798
  861SOL     OW 2581   2.330   2.840   0.776 -0.2395 -0.5437 -0.5437
  861SOL    HW1 2582   2.322   2.875   0.681 -0.2123  0.6868  1.2382
  861SOL    HW2 2583   2.422   2.852   0.808 -2.9683  0.1918 -3.2146
  862SOL     OW 2584   1.782   3.040   2.409 -0.1743  0.6810 -0.0134
  862SOL    HW1 2585   1.835   2.970   2.464 -1.5374  1.5107 -2.0962
  862SOL    HW2 2586   1.828   0.024   2.414  2.1337  2.3966  0.6983
  863SOL     OW 2587   2.974   0.807   0.855  0.1378  0.0817  0.2085
  863SOL    HW1 2588   2.977   0.737   0.778 -0.3598 -2.5085 -0.7092
  863SOL    HW2 2589   2.896   0.869   0.841  1.9835  0.0838 -1.0904
  864SOL     OW 2590   0.379   2.674   2.145  0.1257 -0.0831  0.3798
  864SOL    HW1 2591   0.445   2.745   2.124 -2.0405 -2.5638 -0.4267
  864SOL    HW2 2592   0.394   2.631   2.234  1.6498 -0.5210 -1.7269
  865SOL     OW 2593   0.789   1.178   0.052 -0.3683  0.1406  0.2014
  865SOL    HW1 2594   0.795   1.085   0.021 -0.4997  3.2535  0.8129
  865SOL    HW2 2595   0.689   1.198   0.056  0.8394  0.0281 -0.2380
  866SOL     OW 2596   2.697   0.658   2.992  0.0701 -0.7784  0.2504
  866SOL    HW1 2597   2.746   0.707   2.918  1.9460 -1.0773  0.2364
  866SOL    HW2 2598   2.712   0.556   2.974  1.0429  1.0710 -1.6425
  867SOL     OW 2599   0.061   0.045   2.814  0.4362 -0.0866  0.3466
  867SOL    HW1 2600   0.096   0.077   2.903  1.7300 -1.7368 -1.3772
  867SOL    HW2 2601   0.014   3.062   2.833 -1.5336 -4.2580  2.5836
  868SOL     OW 2602   1.254   0.067   0.570  0.5076 -0.2731  0.0687
  868SOL    HW1 2603   1.278   0.110   0.661 -0.3819 -1.4763 -0.1238
  868SOL    HW2 2604   1.253   3.073   0.576  0.2651  0.7161 -0.4111
  869SOL     OW 2605   1.318   1.720   0.682 -0.4915  0.1929  0.1023
  869SOL    HW1 2606   1.266   1.805   0.659  2.0905 -1.4408  0.0458
  869SOL    HW2 2607   1.379   1.745   0.759 -1.7475 -0.1242 -1.2771
  870SOL     OW 2608   1.910   1.795   0.900  0.0494 -0.1421 -0.4192
  870SOL    HW1 2609   1.938   1.816   0.802  0.4549  1.2055 -2.7053
  870SOL    HW2 2610   1.988   1.760   0.953 -2.0599 -2.1862 -3.0958
  871SOL     OW 2611   1.284   1.455   1.428 -0.0225 -0.0354  0.3030
  871SOL    HW1 2612   1.238   1.390   1.494 -1.1430  1.4151 -2.0001
  871SOL    HW2 2613   1.277   1.435   1.328 -0.8980  0.2700  0.9792
  872SOL     OW 2614   0.944   1.641   1.642  0.0030  0.0571 -0.0266
  872SOL    HW1 2615   0.938   1.615   1.547 -0.8210  0.3554 -0.7520
  872SOL    HW2 2616   0.922   1.567   1.712  0.0319  0.0885  0.4549
  873SOL     OW 2617   1.117   1.127   2.803 -0.1911  0.2401 -0.2335
  873SOL    HW1 2618   1.154   1.100   2.892  0.3049 -1.8906 -0.9156
  873SOL    HW2 2619   1.193   1.154   2.740  0.3675  0.1818 -2.8790
  874SOL     OW 2620   0.322   1.361   1.092 -0.0128 -0.5621  0.0257
  874SOL    HW1 2621   0.348   1.427   1.168  0.5551  1.9080  1.4948
  874SOL    HW2 2622   0.399   1.300   1.072  3.2230  1.0278  2.3206
  875SOL     OW 2623   2.587   3.001   1.089 -0.3476 -0.9287 -0.6967
  875SOL    HW1 2624   2.605   2.948   1.005 -2.8440  1.9749 -0.0235
  875SOL    HW2 2625   2.487   3.015   1.103 -3.0237  0.5081 -1.3546
  876SOL     OW 2626   0.702   0.715   0.115  0.1096 -0.1162  0.3474
  876SOL    HW1 2627   0.730   0.632   0.066 -1.0253 -1.2859  1.3721
  876SOL    HW2 2628   0.733   0.727   0.208 -1.4687  0.6474 -1.3971
  877SOL     OW 2629   3.054   0.126   1.137  0.1302 -0.5098  0.5222
  877SOL    HW1 2630   2.986   0.133   1.214 -1.5998  1.3754 -0.5021
  877SOL    HW2 2631   0.012   0.051   1.150  1.3032 -0.8074 -0.2768
  878SOL     OW 2632   1.772   2.222   0.133  0.3125  0.0991 -0.0578
  878SOL    HW1 2633   1.855   2.279   0.122 -0.2752 -3.0743 -2.7186
  878SOL    HW2 2634   1.794   2.126   0.109 -1.3171  1.3871 -0.0605
  879SOL     OW 2635   2.292   1.917   1.511 -0.0928 -0.1301  0.2205
  879SOL    HW1 2636   2.276   1.866   1.601 -1.4133 -2.4249  0.7162
  879SOL    HW2 2637   2.270   2.017   1.513  1.5908  0.8417 -0.4415
  880SOL     OW 2638   0.953   0.227   1.730 -0.1084 -0.0787 -0.0795
  880SOL    HW1 2639   1.033   0.186   1.771 -0.5093 -1.0166 -2.1440
  880SOL    HW2 2640   0.881   0.240   1.797 -3.3134  1.0682  2.6700
  881SOL     OW 2641   0.949   1.935   3.036  0.3080 -0.0498 -0.0467
  881SOL    HW1 2642   1.012   1.912   2.963 -0.4024  0.1889  0.1976
  881SOL    HW2 2643   0.933   1.858   3.102  1.1658 -1.4661  0.4571
  882SOL     OW 2644   2.185   1.227   1.524 -0.6492  0.0339  0.0961
  882SOL    HW1 2645   2.217   1.308   1.576  0.1201 -2.3107  0.3811
  882SOL    HW2 2646   2.250   1.149   1.520 -0.3189  0.1187 -1.7424
  883SOL     OW 2647   1.271   0.849   2.179  0.1206 -0.3766 -0.5253
  883SOL    HW1 2648   1.288   0.931   2.239  1.8556 -2.4466  0.2699
  883SOL    HW2 2649   1.194   0.795   2.207  0.0095  1.6438  0.2979
  884SOL     OW 2650   2.728   0.371   2.985 -0.2671  0.0086  0.3625
  884SOL    HW1 2651   2.810   0.386   3.042  0.0990 -1.3861 -0.5250
  884SOL    HW2 2652   2.672   0.303   3.031 -0.7537  1.5234 -0.2114
  885SOL     OW 2653   0.307   2.203   0.454  0.4775 -0.1569 -0.5422
  885SOL    HW1 2654   0.304   2.106   0.412 -0.4503 -1.7867 -3.1484
  885SOL    HW2 2655   0.248   2.264   0.395 -2.2311  3.0186 -0.5437
  886SOL     OW 2656   1.923   1.208   3.006 -0.3317 -0.2648 -0.5469
  886SOL    HW1 2657   1.966   1.135   2.949 -2.0461 -0.8732 -1.3798
  886SOL    HW2 2658   1.890   1.279   2.933 -0.9686 -0.0291 -1.1362
  887SOL     OW 2659   1.649   0.424   1.859 -0.2532  0.3406  0.5189
  887SOL    HW1 2660   1.641   0.429   1.960  4.3037  0.5090 -2.3557
  887SOL    HW2 2661   1.719   0.490   1.825  1.3297  0.6741  1.8700
  888SOL     OW 2662   2.948   1.267   1.566 -0.3294 -0.0578  0.3416
  888SOL    HW1 2663   2.961   1.169   1.537 -0.3848 -1.8186  0.4916
  888SOL    HW2 2664   2.861   1.280   1.622  0.4395  1.1882 -0.4595
  889SOL     OW 2665   2.905   2.378   0.751  0.1909 -0.3581  0.2111
  889SOL    HW1 2666   2.967   2.442   0.799 -0.6465  1.0952 -1.4505
  889SOL    HW2 2667   2.932   2.282   0.755 -0.0111  0.3805 -2.1213
  890SOL     OW 2668   0.051   2.834   2.416 -0.5889 -0.1455  0.0929
  890SOL    HW1 2669   0.046   2.759   2.483 -0.8571  1.9387  0.3686
  890SOL    HW2 2670   0.099   2.912   2.464 -0.5138  0.5115 -0.2471
  891SOL     OW 2671   0.518   1.868   0.241  0.0780  0.0824 -0.1389
  891SOL    HW1 2672   0.582   1.940   0.277 -1.8861 -1.2219 -2.9832
  891SOL    HW2 2673   0.574   1.779   0.224  1.7298 -3.5713 -0.7767
  892SOL     OW 2674   3.009   2.345   1.188 -0.0962  0.0479  0.4840
  892SOL    HW1 2675   3.019   2.307   1.284  2.2878 -2.0936 -1.2702
  892SOL    HW2 2676   3.014   2.267   1.125 -1.5869  1.7462  0.3749
  893SOL     OW 2677   0.499   2.911   1.418  0.6213 -0.3740 -0.2489
  893SOL    HW1 2678   0.598   2.908   1.440 -3.1877  1.8109  0.5418
  893SOL    HW2 2679   0.458   2.967   1.487  2.0285  0.8357  1.8320
  894SOL     OW 2680   2.471   1.647   0.867  0.2339  0.3578  0.1529
  894SOL    HW1 2681   2.529   1.586   0.928  0.4086 -0.1693  2.1061
  894SOL    HW2 2682   2.438   1.593   0.787 -0.3574  1.1206 -1.2358
  895SOL     OW 2683   2.684   2.499   1.660  0.0368  0.4745  0.7743
  895SOL    HW1 2684   2.767   2.442   1.659 -0.6740  2.1909 -0.1969
  895SOL    HW2 2685   2.694   2.595   1.688 -1.1517  0.6012 -0.4467
  896SOL     OW 2686   0.905   0.239   1.481  0.4765  0.6117  0.1153
  896SOL    HW1 2687   0.960   0.316   1.448 -0.5991  0.6089 -0.7600
  896SOL    HW2 2688   0.909   0.233   1.583  0.7861 -0.4528  0.2758
  897SOL     OW 2689   1.061   1.599   1.345 -0.2456  0.6360  0.3975
  897SOL    HW1 2690   1.071   1.652   1.259  1.2904  2.7895  1.1813
  897SOL    HW2 2691   1.151   1.576   1.388  0.6499  0.5763 -0.0499
  898SOL     OW 2692   1.733   2.652   1.707  0.2957 -0.6557  0.4185
  898SOL    HW1 2693   1.680   2.583   1.758  2.0493  1.8963 -2.6512
  898SOL    HW2 2694   1.832   2.627   1.704  1.9778 -1.0935  2.0989
  899SOL     OW 2695   0.783   0.472   0.007 -0.0783 -0.3979  0.1809
  899SOL    HW1 2696   0.805   0.458   0.104  0.7459  0.4772 -0.6791
  899SOL    HW2 2697   0.767   0.381   3.071  0.1967 -0.3036  0.3578
  900SOL     OW 2698   1.290   2.372   2.031  0.4493 -0.4815 -0.4550
  900SOL    HW1 2699   1.186   2.385   2.029 -1.2974  0.4580  0.4648
  900SOL    HW2 2700   1.326   2.410   1.945 -0.9347  3.0600  2.3190
  901SOL     OW 2701   0.840   2.138   0.112 -0.0191  0.4082  0.3264
  901SOL    HW1 2702   0.914   2.177   0.168 -1.0412 -2.9748  0.4871
  901SOL    HW2 2703   0.873   2.059   0.063 -3.4173  1.4122  1.7424
  902SOL     OW 2704   1.574   1.478   0.734 -0.1167  0.6962 -0.7447
  902SOL    HW1 2705   1.593   1.539   0.808 -0.1615 -3.2279 -1.5535
  902SOL    HW2 2706   1.480   1.469   0.701 -0.5302  0.0344  1.6898
  903SOL     OW 2707   2.447   1.025   2.938  0.1645  0.0687 -0.2056
  903SOL    HW1 2708   2.481   1.116   2.917 -1.1820 -1.9537  1.4471
  903SOL    HW2 2709   2.349   1.033   2.973 -0.2085  2.8844 -0.5203
  904SOL     OW 2710   1.007   1.377   0.139 -0.3460 -0.3500 -0.2568
  904SOL    HW1 2711   0.918   1.409   0.110  2.9230 -0.4109  0.0924
  904SOL    HW2 2712   1.047   1.448   0.197  1.3173  2.7258 -0.2963
  905SOL     OW 2713   1.928   3.036   1.209  0.3430 -0.1403  0.3506
  905SOL    HW1 2714   1.837   3.061   1.174  2.9398  1.6258  0.0405
  905SOL    HW2 2715   1.931   3.023   1.310  0.2799  0.1409 -0.1808
  906SOL     OW 2716   2.771   2.455   1.161 -0.0647 -0.4955  0.0214
  906SOL    HW1 2717   2.864   2.416   1.163 -2.2506 -0.3246  2.4567
  906SOL    HW2 2718   2.730   2.450   1.259 -0.0082  1.8451  1.5148
  907SOL     OW 2719   1.225   1.098   0.382 -0.4622 -0.0379 -0.4421
  907SOL    HW1 2720   1.230   1.069   0.479 -0.4622 -0.2943 -0.0459
  907SOL    HW2 2721   1.126   1.105   0.350 -1.8923 -0.7590  0.4228
  908SOL     OW 2722   1.660   3.097   1.151  0.0091 -0.0807  0.5259
  908SOL    HW1 2723   1.576   3.065   1.200 -4.0875 -1.1592  2.7657
  908SOL    HW2 2724   1.688   0.081   1.188 -2.3806  0.8387  0.7303
  909SOL     OW 2725   2.320   1.029   1.430 -0.0019 -0.4220  0.2111
  909SOL    HW1 2726   2.389   0.959   1.412 -2.3934  0.9996 -1.1627
  909SOL    HW2 2727   2.252   1.040   1.353  1.5956  1.7039  1.4587
  910SOL     OW 2728   1.945   0.652   2.112 -0.4126  0.0525  0.0848
  910SOL    HW1 2729   1.989   0.716   2.042  0.2510  1.0977  2.1984
  910SOL    HW2 2730   1.943   0.558   2.084 -1.3607  2.0218  0.1842
  911SOL     OW 2731   2.092   0.927   2.530  0.0561 -0.1092 -0.5532
  911SOL    HW1 2732   2.095   0.952   2.429 -0.2637 -0.6391 -0.9929
  911SOL    HW2 2733   2.118   0.827   2.543  0.1948  1.1831 -0.7529
  912SOL     OW 2734   0.378   1.032   1.593  0.4342  0.3040 -0.0010
  912SOL    HW1 2735   0.479   1.050   1.570 -2.6501  1.6696 -1.1616
  912SOL    HW2 2736   0.320   1.096   1.535  0.6242  1.4382  1.9081
  913SOL     OW 2737   3.043   2.188   1.420 -0.0469 -0.3237  0.0687
  913SOL    HW1 2738   3.045   2.093   1.458 -0.7442  2.5766 -0.4820
  913SOL    HW2 2739   3.003   2.253   1.486 -0.6366 -0.8105  0.7785
  914SOL     OW 2740   1.645   0.818   1.843  0.2594 -0.0803  0.3321
  914SOL    HW1 2741   1.706   0.896   1.818 -1.6702  0.9793 -0.3537
  914SOL    HW2 2742   1.682   0.739   1.792  3.2387 -1.4916 -0.9612
  915SOL     OW 2743   2.127   0.889   0.988  0.4716 -0.1335 -0.2450
  915SOL    HW1 2744   2.124   0.795   1.019  1.6976 -0.6388 -0.1579
  915SOL    HW2 2745   2.205   0.901   0.922 -0.8898  0.8449  0.8587
  916SOL     OW 2746   1.938   2.208   0.977  0.3229 -0.5764 -0.6351
  916SOL    HW1 2747   1.869   2.288   0.983  0.4202  0.4024  1.2537
  916SOL    HW2 2748   1.885   2.123   0.984 -0.9915  2.1265  1.3361
  917SOL     OW 2749   1.959   2.121   2.526  0.2737  0.1469  0.3478
  917SOL    HW1 2750   1.883   2.154   2.467 -3.5435  1.4419  0.3343
  917SOL    HW2 2751   1.947   2.157   2.621  1.0582 -1.2517  1.9977
  918SOL     OW 2752   2.015   2.443   2.410  0.4097 -0.1618 -0.0782
  918SOL    HW1 2753   1.966   2.528   2.433 -0.5108  0.9400  0.3886
  918SOL    HW2 2754   1.950   2.380   2.370 -2.3949 -1.5433  3.7712
  919SOL     OW 2755   1.171   2.991   1.480  0.3821 -0.2333  0.0875
  919SOL    HW1 2756   1.179   2.889   1.488 -0.8124  0.4232  0.9765
  919SOL    HW2 2757   1.255   3.039   1.497  2.1252  3.4332  0.5184
  920SOL     OW 2758   2.982   0.394   2.495 -0.0158  0.7207  0.6657
  920SOL    HW1 2759   3.060   0.357   2.548 -2.0918 -1.0254 -0.5175
  920SOL    HW2 2760   2.931   0.322   2.446  0.7579  0.3947  0.0102
  921SOL     OW 2761   0.134   0.866   1.545 -0.0496 -0.1443 -0.2764
  921SOL    HW1 2762   0.138   0.806   1.467  1.1046 -1.3098 -0.1561
  921SOL    HW2 2763   0.200   0.943   1.535  0.3760 -0.0966 -1.9656
  922SOL     OW 2764   2.181   2.462   0.325  0.0127  0.0060  0.2213
  922SOL    HW1 2765   2.181   2.557   0.351 -1.3953 -0.5947  0.2071
  922SOL    HW2 2766   2.276   2.422   0.327  1.2048 -1.6064  0.2462
  923SOL     OW 2767   0.651   2.254   0.496 -0.3117 -0.0767 -0.2440
  923SOL    HW1 2768   0.677   2.231   0.591  0.1114  0.8593  1.4068
  923SOL    HW2 2769   0.557   2.292   0.501  0.6295 -0.1104  1.2143
  924SOL     OW 2770   1.109   0.673   0.356 -0.1762 -0.1831 -0.2139
  924SOL    HW1 2771   1.090   0.726   0.268  1.7530 -1.1175 -1.2240
  924SOL    HW2 2772   1.061   0.705   0.439  0.5755  0.0308 -2.9532
  925SOL     OW 2773   2.489   0.849   0.935 -0.0581 -0.2294  0.2597
  925SOL    HW1 2774   2.480   0.746   0.931  0.7267  2.3206  0.4694
  925SOL    HW2 2775   2.411   0.891   0.885 -1.7112  0.5584 -3.6860
  926SOL     OW 2776   0.519   0.098   1.278 -0.4999  0.2773  0.3743
  926SOL    HW1 2777   0.498   0.023   1.344 -0.9838 -0.9864 -0.6216
  926SOL    HW2 2778   0.440   0.153   1.246  2.7683 -2.8946 -0.4383
  927SOL     OW 2779   0.596   1.508   2.260 -0.0860 -0.6877 -0.7889
  927SOL    HW1 2780   0.553   1.475   2.346 -2.6630 -1.7198 -0.3293
  927SOL    HW2 2781   0.538   1.483   2.179 -3.5872 -0.5889 -0.3592
  928SOL     OW 2782   0.238   0.583   2.340 -0.7751 -0.4060  0.4653
  928SOL    HW1 2783   0.147   0.599   2.304  2.2519  2.3175 -0.5347
  928SOL    HW2 2784   0.233   0.526   2.423 -1.3728  0.7769  2.0791
  929SOL     OW 2785   2.823   2.978   1.274  0.3423 -0.7610  0.2551
  929SOL    HW1 2786   2.879   2.921   1.211  0.2876  2.2849 -0.6978
  929SOL    HW2 2787   2.736   3.005   1.226 -1.3133  2.3565 -1.1398
  930SOL     OW 2788   1.991   0.633   1.766  0.1789 -0.3623 -0.5585
  930SOL    HW1 2789   2.025   0.546   1.810 -1.7609  1.0369  0.6491
  930SOL    HW2 2790   2.033   0.713   1.826  1.4507  4.5633  3.5041
  931SOL     OW 2791   1.772   1.185   0.127  0.3334  0.0419 -0.5846
  931SOL    HW1 2792   1.831   1.184   0.042 -0.5953 -2.3694  0.8599
  931SOL    HW2 2793   1.695   1.117   0.122 -1.5554 -1.1750 -1.3636
  932SOL     OW 2794   1.963   1.248   0.432  0.4287 -0.1716 -0.1180
  932SOL    HW1 2795   2.006   1.166   0.390  3.4433 -1.4611 -0.8607
  932SOL    HW2 2796   1.897   1.221   0.509 -2.3713  0.6035 -0.7669
  933SOL     OW 2797   2.153   1.629   0.965 -0.2672 -0.0273  0.3604
  933SOL    HW1 2798   2.234   1.571   0.950  2.3383  1.3371  1.0043
  933SOL    HW2 2799   2.154   1.653   1.064  1.7976 -0.7735  1.5249
  934SOL     OW 2800   1.836   1.018   2.539 -0.5359  0.6153  0.3349
  934SOL    HW1 2801   1.920   0.963   2.561  0.6850 -1.7170  1.3063
  934SOL    HW2 2802   1.757   0.954   2.526 -1.0620  1.8066 -0.6855
  935SOL     OW 2803   0.180   0.989   0.559  0.1105  0.0870  0.0687
  935SOL    HW1 2804   0.181   0.927   0.473 -0.5457 -2.0003 -2.6572
  935SOL    HW2 2805   0.083   1.000   0.602 -1.8777  0.6340  3.0658
  936SOL     OW 2806   0.456   3.034   0.894 -0.1195  0.0805  0.0641
  936SOL    HW1 2807   0.521   3.052   0.972 -0.3293 -2.1765  1.7395
  936SOL    HW2 2808   0.470   3.102   0.819  3.0446 -0.1013 -1.2880
  937SOL     OW 2809   3.070   0.022   2.036  0.9516  0.1637 -0.1092
  937SOL    HW1 2810   0.014   0.055   1.951  0.9342  2.6236  0.4804
  937SOL    HW2 2811   2.968   0.025   2.025 -0.6196  3.1300 -0.3300
  938SOL     OW 2812   0.070   2.613   2.885 -0.6255 -0.3899  0.1972
  938SOL    HW1 2813   3.088   2.567   2.880  2.3477  1.3405 -0.5737
  938SOL    HW2 2814   0.084   2.670   2.974 -1.5143  2.2603  1.8003
  939SOL     OW 2815   1.171   1.652   1.074  0.1194 -0.1517 -0.5126
  939SOL    HW1 2816   1.181   1.562   1.120 -0.4671  0.5673  0.1129
  939SOL    HW2 2817   1.164   1.634   0.972  0.3511  1.4589 -2.7714
  940SOL     OW 2818   3.004   0.450   3.105  0.2264 -0.3067 -0.5656
  940SOL    HW1 2819   3.048   0.362   0.034 -1.4870 -1.4897 -1.5885
  940SOL    HW2 2820   3.032   0.534   0.052  2.2503  0.6767  0.4846
  941SOL     OW 2821   2.152   0.361   2.662 -0.9195  0.2669  0.0066
  941SOL    HW1 2822   2.203   0.342   2.573 -0.5922  0.0517 -0.3756
  941SOL    HW2 2823   2.055   0.378   2.649  4.2216 -0.0205  0.1523
  942SOL     OW 2824   1.624   0.275   0.985  0.6775  0.3090  0.0844
  942SOL    HW1 2825   1.523   0.295   0.999 -3.7033  2.2573 -1.9644
  942SOL    HW2 2826   1.675   0.292   1.071 -0.7141 -1.6752 -0.5935
  943SOL     OW 2827   1.149   0.909   1.927  0.0970 -0.6345 -0.3061
  943SOL    HW1 2828   1.212   0.879   2.002  1.3219 -1.0686 -0.4982
  943SOL    HW2 2829   1.104   0.996   1.958 -0.6016  1.0539  0.9344
  944SOL     OW 2830   2.016   1.024   1.604 -0.4513  0.3964  0.6312
  944SOL    HW1 2831   2.056   0.940   1.561  0.3256  1.5606 -0.0630
  944SOL    HW2 2832   2.066   1.111   1.586 -1.1545 -0.2818 -0.6934
  945SOL     OW 2833   2.565   0.216   0.028  0.3338 -0.3012  0.7648
  945SOL    HW1 2834   2.481   0.175   3.095 -2.0635  2.0640  0.2074
  945SOL    HW2 2835   2.630   0.152   0.078  3.3959 -0.8504  0.3835
  946SOL     OW 2836   2.958   1.082   1.877  0.2338  0.5916 -0.3504
  946SOL    HW1 2837   3.009   1.167   1.866 -0.0164  0.6172 -1.4880
  946SOL    HW2 2838   3.024   1.006   1.857 -1.3273  1.5772 -0.0599
  947SOL     OW 2839   1.109   2.932   0.200 -0.1234  0.4782 -0.0208
  947SOL    HW1 2840   1.027   2.954   0.142 -2.2073 -1.9045  0.6448
  947SOL    HW2 2841   1.091   2.986   0.280 -0.5938  0.7103 -2.5847
  948SOL     OW 2842   2.353   1.789   1.280 -0.1684 -0.0085  0.2299
  948SOL    HW1 2843   2.327   1.825   1.372  1.2791 -0.0866  0.7693
  948SOL    HW2 2844   2.451   1.751   1.286 -1.2363 -0.9164 -1.0646
  949SOL     OW 2845   0.242   1.502   0.049  0.1828  0.2078 -0.3170
  949SOL    HW1 2846   0.205   1.407   0.048  0.2387  3.4458  2.1053
  949SOL    HW2 2847   0.293   1.516   3.071  0.1415 -2.3767  1.8269
  950SOL     OW 2848   0.761   2.470   1.082 -0.1877 -0.6118  0.2161
  950SOL    HW1 2849   0.673   2.489   1.138 -1.3293 -1.3583 -0.1781
  950SOL    HW2 2850   0.737   2.484   0.980 -1.1114 -0.9354 -1.3759
  951SOL     OW 2851   0.543   1.395   2.528 -0.1867  0.4655  0.5716
  951SOL    HW1 2852   0.499   1.471   2.582 -1.2585 -2.4446  0.4612
  951SOL    HW2 2853   0.607   1.338   2.591 -1.2607 -1.6012  1.7739
  952SOL     OW 2854   0.597   0.688   0.616 -0.6537  0.0024  0.1157
  952SOL    HW1 2855   0.620   0.608   0.671  1.5490  0.2670 -1.0363
  952SOL    HW2 2856   0.635   0.769   0.657 -1.4951 -2.3179 -0.2478
  953SOL     OW 2857   2.488   2.969   2.475 -0.1448 -0.2286  0.7256
  953SOL    HW1 2858   2.474   2.970   2.377 -2.1342 -0.5697  2.0620
  953SOL    HW2 2859   2.514   3.064   2.506 -0.8194  3.1695  2.0872
  954SOL     OW 2860   1.490   0.915   0.695 -0.5873  0.2033  0.6232
  954SOL    HW1 2861   1.554   0.981   0.731 -0.5254 -3.1603  1.0737
  954SOL    HW2 2862   1.486   0.904   0.596  0.5965 -1.0785  1.0342
  955SOL     OW 2863   0.716   2.037   0.338  0.3371 -0.0785 -0.0745
  955SOL    HW1 2864   0.769   2.076   0.259  0.5898 -2.5898  3.4237
  955SOL    HW2 2865   0.683   2.113   0.393 -0.3793 -2.4983 -0.6468
  956SOL     OW 2866   2.283   0.462   2.113 -0.1355  0.0160  0.4358
  956SOL    HW1 2867   2.258   0.544   2.165  0.7886  1.6938  0.8199
  956SOL    HW2 2868   2.384   0.451   2.102  0.3863  2.8980  1.3516
  957SOL     OW 2869   2.214   2.390   1.728  0.1466 -0.0652 -0.1387
  957SOL    HW1 2870   2.315   2.402   1.755  0.7556 -0.4945  1.5488
  957SOL    HW2 2871   2.215   2.323   1.651 -0.5069 -0.3831 -1.1615
  958SOL     OW 2872   1.587   1.188   1.412  0.2595  0.4304  0.1422
  958SOL    HW1 2873   1.614   1.266   1.473 -1.7596 -1.7189  0.4425
  958SOL    HW2 2874   1.662   1.120   1.413 -1.1918  1.1788  2.5423
  959SOL     OW 2875   2.082   1.764   2.181 -0.0954  0.5467  0.1758
  959SOL    HW1 2876   2.003   1.777   2.122 -0.7326 -1.5047 -0.6281
  959SOL    HW2 2877   2.106   1.849   2.237  1.4156  0.4260 -0.9201
  960SOL     OW 2878   0.555   1.017   2.861 -0.1240 -0.1851 -0.0235
  960SOL    HW1 2879   0.527   0.942   2.800  0.5886 -3.0115 -1.8905
  960SOL    HW2 2880   0.642   0.993   2.910 -0.5644 -0.8728 -0.7079
  961SOL     OW 2881   0.158   1.235   0.008  0.5285  0.5785 -0.1595
  961SOL    HW1 2882   0.065   1.192   0.017 -2.3870 -0.1063  0.7299
  961SOL    HW2 2883   0.221   1.162   3.085  1.6620 -2.3997 -1.7778
  962SOL     OW 2884   0.737   1.745   2.292  0.2466  0.5839  0.3218
  962SOL    HW1 2885   0.678   1.660   2.276 -0.9319 -1.2155 -0.1667
  962SOL    HW2 2886   0.683   1.815   2.336 -0.9297 -0.9300  0.1894
  963SOL     OW 2887   2.883   2.082   2.984 -0.0753  0.1822 -0.3819
  963SOL    HW1 2888   2.825   2.170   2.996 -0.5182 -0.6587  0.9366
  963SOL    HW2 2889   2.830   1.995   2.978  1.8822  2.0467 -0.7136
  964SOL     OW 2890   0.734   1.776   1.763  0.2037 -0.8571 -0.6964
  964SOL    HW1 2891   0.763   1.788   1.857  1.1339  0.2722 -0.2837
  964SOL    HW2 2892   0.810   1.751   1.697  0.7062  0.9163 -0.9028
  965SOL     OW 2893   1.714   2.053   0.605  0.5253  0.0862  0.4185
  965SOL    HW1 2894   1.726   2.144   0.556 -0.3696 -0.6389  0.2454
  965SOL    HW2 2895   1.749   1.982   0.537 -1.1483  0.0852 -1.2387
  966SOL     OW 2896   2.987   1.733   0.008  0.0958 -0.5601  0.0652
  966SOL    HW1 2897   3.065   1.791   3.089 -1.2019 -0.4213 -1.5924
  966SOL    HW2 2898   3.003   1.646   0.056 -0.8371  0.1741 -1.1849
  967SOL     OW 2899   2.109   3.050   2.338  0.0213  0.6246 -0.5757
  967SOL    HW1 2900   2.113   3.033   2.437  0.1722 -0.2080 -1.9349
  967SOL    HW2 2901   2.110   2.958   2.289  1.9447  0.2065 -2.8854
  968SOL     OW 2902   0.829   0.472   0.304 -0.0740  0.0974  0.0047
  968SOL    HW1 2903   0.822   0.566   0.346  0.2478  0.1835 -0.1257
  968SOL    HW2 2904   0.928   0.450   0.290  1.2562  0.9806  1.2481
  969SOL     OW 2905   0.362   1.680   2.108 -0.2657 -0.3624  1.0548
  969SOL    HW1 2906   0.432   1.749   2.079  0.1121 -2.5087 -2.4983
  969SOL    HW2 2907   0.400   1.588   2.089  2.0000 -3.7026  1.0424
  970SOL     OW 2908   1.922   2.501   1.269 -0.1884  0.2485  0.5265
  970SOL    HW1 2909   1.987   2.530   1.194 -3.3764 -0.7980  0.6660
  970SOL    HW2 2910   1.974   2.454   1.343  0.0329 -0.0041  0.4098
  971SOL     OW 2911   2.272   2.488   0.816 -0.5074 -0.2994 -0.2419
  971SOL    HW1 2912   2.201   2.555   0.796  0.6914  0.4603  1.9081
  971SOL    HW2 2913   2.329   2.519   0.888 -0.4039 -0.1570 -2.0620
  972SOL     OW 2914   0.017   1.184   2.488 -0.0153 -0.1196 -0.1634
  972SOL    HW1 2915   0.074   1.116   2.436  3.0483  0.2652 -0.7802
  972SOL    HW2 2916   0.069   1.250   2.548 -1.4267  3.1631 -0.8572
  973SOL     OW 2917   0.495   0.063   0.662  0.3116  0.5355  0.6644
  973SOL    HW1 2918   0.595   0.037   0.654 -1.5598 -2.7541 -0.2973
  973SOL    HW2 2919   0.486   0.155   0.621  0.8889 -1.0220  2.4153
  974SOL     OW 2920   2.196   1.037   1.829 -0.2480 -0.4024 -0.4678
  974SOL    HW1 2921   2.138   1.116   1.806 -0.6749  0.3730  0.8345
  974SOL    HW2 2922   2.291   1.073   1.843  0.7935  1.0653  0.3916
  975SOL     OW 2923   0.165   0.005   0.522 -0.0056  0.1752  0.8082
  975SOL    HW1 2924   0.103   3.067   0.462  0.9385  1.4542  0.6802
  975SOL    HW2 2925   0.199   0.095   0.482  2.5378  0.2728 -2.1184
  976SOL     OW 2926   0.313   1.824   0.850 -0.0158  0.4324 -0.1229
  976SOL    HW1 2927   0.263   1.739   0.879  0.4718 -0.4622 -2.2748
  976SOL    HW2 2928   0.321   1.826   0.748 -0.7050 -1.0297 -0.4701
  977SOL     OW 2929   0.960   1.991   0.602 -0.3068 -0.4981 -0.1149
  977SOL    HW1 2930   0.894   1.920   0.584  1.8571  1.2867 -0.8421
  977SOL    HW2 2931   0.912   2.073   0.635  1.5070 -0.7507  1.6594
  978SOL     OW 2932   0.058   0.848   0.118  0.1511 -0.1151  0.3139
  978SOL    HW1 2933   0.084   0.859   0.021  0.9068  2.4120  1.9520
  978SOL    HW2 2934   0.003   0.930   0.141  1.8678  2.5738 -1.5424
  979SOL     OW 2935   1.783   1.606   0.576 -0.1157 -0.3711 -0.0059
  979SOL    HW1 2936   1.865   1.582   0.629 -1.4162 -0.1576 -1.3238
  979SOL    HW2 2937   1.713   1.541   0.608 -1.5300 -1.3482 -3.2819
  980SOL     OW 2938   0.648   2.169   1.933  0.2630  0.5785  0.0990
  980SOL    HW1 2939   0.665   2.117   2.021 -1.5275 -1.8552  0.6892
  980SOL    HW2 2940   0.679   2.116   1.852  1.1465  0.0861  0.2791
  981SOL     OW 2941   2.181   0.962   3.047  0.4527 -0.3256 -0.5930
  981SOL    HW1 2942   2.145   1.001   2.962  1.6935  1.7001 -0.4870
  981SOL    HW2 2943   2.183   0.860   3.030 -3.7227 -0.4810 -0.0083
  982SOL     OW 2944   0.015   2.715   1.830  0.0564 -0.4071  0.6263
  982SOL    HW1 2945   3.065   2.714   1.913 -0.7140 -0.8767 -0.0644
  982SOL    HW2 2946   0.113   2.705   1.850 -0.6600 -0.8298 -2.6761
  983SOL     OW 2947   1.703   0.186   1.740  0.0593 -0.0144  0.7426
  983SOL    HW1 2948   1.676   0.275   1.777  1.9765 -0.1504  1.0972
  983SOL    HW2 2949   1.633   0.112   1.765 -0.0378 -1.8829  1.1690
  984SOL     OW 2950   1.983   2.976   2.589  0.0271 -0.1626 -0.2351
  984SOL    HW1 2951   2.082   2.948   2.597  0.2738  0.6046 -0.9398
  984SOL    HW2 2952   1.935   2.911   2.652 -0.1532  0.0097  0.1955
  985SOL     OW 2953   1.645   1.538   1.772 -0.3230  0.5583 -0.4025
  985SOL    HW1 2954   1.554   1.487   1.779 -1.1742  0.0600  0.0106
  985SOL    HW2 2955   1.612   1.624   1.735 -1.7736 -3.1008  0.4386
  986SOL     OW 2956   2.310   2.601   2.448 -0.1672  0.2887 -0.4550
  986SOL    HW1 2957   2.363   2.628   2.535  0.4981 -1.5311  1.3938
  986SOL    HW2 2958   2.272   2.511   2.456  2.4550 -0.2751  1.4374
  987SOL     OW 2959   2.892   1.836   2.792 -0.3425 -0.4236  0.6729
  987SOL    HW1 2960   2.881   1.740   2.760 -1.0349 -1.7081  0.8943
  987SOL    HW2 2961   2.836   1.901   2.735  0.0146  0.3244  0.0731
  988SOL     OW 2962   2.929   0.580   1.475 -0.1100 -0.2680  0.4348
  988SOL    HW1 2963   2.845   0.578   1.531 -1.8239 -1.0452  0.1260
  988SOL    HW2 2964   2.905   0.630   1.388 -3.9208  1.9135 -2.2034
  989SOL     OW 2965   1.993   1.419   1.454  0.3902  0.0957  0.3754
  989SOL    HW1 2966   2.028   1.493   1.394  0.4920 -0.2584 -1.4773
  989SOL    HW2 2967   2.055   1.339   1.462 -0.3302 -1.1992  0.0680
  990SOL     OW 2968   2.758   0.612   0.156  0.1519  0.2178 -0.2093
  990SOL    HW1 2969   2.745   0.648   0.063  2.1285 -1.6476  1.1911
  990SOL    HW2 2970   2.689   0.545   0.184  0.8583  3.3624 -1.4914
  991SOL     OW 2971   0.405   1.763   3.079 -0.0196 -0.9015 -0.5239
  991SOL    HW1 2972   0.412   1.849   3.022 -0.5552  2.3982  0.0615
  991SOL    HW2 2973   0.433   1.787   0.063 -2.3323  2.4735 -1.5964
  992SOL     OW 2974   2.290   1.762   1.740  0.0145  0.2585 -0.4099
  992SOL    HW1 2975   2.228   1.684   1.768 -0.4922  0.2877 -0.4968
  992SOL    HW2 2976   2.388   1.735   1.745  0.5854  1.2557 -0.4493
  993SOL     OW 2977   0.744   3.064   0.717 -0.0919 -0.4831 -0.7058
  993SOL    HW1 2978   0.804   0.018   0.771 -3.0815 -1.2710  1.7374
  993SOL    HW2 2979   0.795   3.030   0.637 -2.2325  0.4304  1.5395
  994SOL     OW 2980   2.729   1.937   1.446  0.0430  0.6948 -0.3868
  994SOL    HW1 2981   2.782   1.911   1.525  2.6606  0.2656  0.9792
  994SOL    HW2 2982   2.649   1.870   1.430  0.8637 -1.6830 -1.4570
  995SOL     OW 2983   2.125   2.023   2.295 -0.1211 -0.1168 -0.2102
  995SOL    HW1 2984   2.065   2.068   2.366 -1.8742  0.6611  1.3662
  995SOL    HW2 2985   2.226   2.021   2.316 -0.1401 -0.8086  2.2306
  996SOL     OW 2986   1.952   1.668   3.057 -0.4224 -0.0157  0.3119
  996SOL    HW1 2987   1.873   1.649   0.009  0.6737  1.6069 -2.6212
  996SOL    HW2 2988   2.001   1.746   3.101 -2.4326  0.3018  0.6246
  997SOL     OW 2989   1.153   1.498   2.106 -0.3232  0.0955  0.2680
  997SOL    HW1 2990   1.072   1.530   2.165  0.9088  3.8795 -1.6743
  997SOL    HW2 2991   1.235   1.559   2.115 -0.2479  0.3040 -0.9180
  998SOL     OW 2992   2.664   2.228   0.744 -0.1080  0.0273  0.1827
  998SOL    HW1 2993   2.663   2.126   0.746 -0.4808  0.5878  0.5162
  998SOL    HW2 2994   2.757   2.261   0.716 -2.2335 -0.4349 -0.7595
  999SOL     OW 2995   0.040   2.493   0.842  0.3927 -0.6573 -0.5007
  999SOL    HW1 2996   0.085   2.407   0.863 -1.0560  1.4311 -2.2370
  999SOL    HW2 2997   0.104   2.555   0.783 -0.4844  2.2844  0.3718
 1000SOL     OW 2998   1.210   3.099   0.015  0.2392 -0.0017  0.0027
 1000SOL    HW1 2999   1.176   3.036   0.092 -0.5218 -0.3135  1.9894
 1000SOL    HW2 3000   1.202   0.091   0.044  0.1716 -1.9377  0.8714
   3.10683   3.10683   3.10683
