1000 SPC/Fw water molecules t=  87.00000 step= 87000
 3000
    1SOL     OW    1   1.945   2.625   0.512 -0.1666 -0.7632 -0.0878
    1SOL    HW1    2   1.970   2.567   0.435 -0.9614  1.1600  1.1180
    1SOL    HW2    3   2.025   2.686   0.529  1.6397 -0.0751 -2.1247
    2SOL     OW    4   0.868   1.224   1.742  0.2677 -0.1059 -0.1567
    2SOL    HW1    5   0.927   1.144   1.762  2.4854 -1.1811  0.9649
    2SOL    HW2    6   0.913   1.308   1.779  2.1974  0.5657  0.2528
    3SOL     OW    7   1.450   2.580   2.427 -0.1668 -0.8865 -0.1845
    3SOL    HW1    8   1.392   2.507   2.462 -2.3446  0.7602  0.3268
    3SOL    HW2    9   1.427   2.585   2.327 -3.0211 -1.0476 -0.3976
    4SOL     OW   10   1.189   1.762   2.754  0.1867 -0.0986  0.2177
    4SOL    HW1   11   1.229   1.794   2.664  0.8206  0.7147 -2.1571
    4SOL    HW2   12   1.205   1.835   2.822 -1.7538 -2.1239 -1.3945
    5SOL     OW   13   0.529   0.816   1.667 -0.0030 -0.1248 -0.2541
    5SOL    HW1   14   0.574   0.899   1.704 -1.0573  2.6398 -0.2767
    5SOL    HW2   15   0.563   0.809   1.569  1.9029  0.5055 -3.0107
    6SOL     OW   16   1.987   0.508   2.624  0.7283 -0.0058 -0.4541
    6SOL    HW1   17   1.968   0.531   2.526 -0.1406 -0.8165  0.1555
    6SOL    HW2   18   1.950   0.582   2.695 -0.2781  2.6117  1.3918
    7SOL     OW   19   0.373   0.333   1.657  0.2835  0.4716  0.3431
    7SOL    HW1   20   0.360   0.422   1.610 -1.4429  1.3358 -1.1101
    7SOL    HW2   21   0.291   0.314   1.720  0.2446  0.8226 -0.8117
    8SOL     OW   22   1.795   0.028   1.910  0.3327 -0.7566 -0.0063
    8SOL    HW1   23   1.849   0.068   1.836 -2.1069  0.0880 -2.6647
    8SOL    HW2   24   1.810   3.025   1.919 -2.5851 -1.2267 -0.3920
    9SOL     OW   25   0.366   0.086   0.638  0.6748 -0.0129  0.2074
    9SOL    HW1   26   0.382   0.119   0.735 -2.1612 -1.1113  1.6287
    9SOL    HW2   27   0.273   0.052   0.635  0.4199  1.2759  2.8658
   10SOL     OW   28   0.539   2.099   2.320  0.2546 -0.1611 -0.4227
   10SOL    HW1   29   0.607   2.049   2.379  0.1796  0.9175  1.6449
   10SOL    HW2   30   0.585   2.160   2.253  0.4897  0.7911  1.8011
   11SOL     OW   31   0.662   1.586   0.096 -0.0622  0.1484  0.2334
   11SOL    HW1   32   0.642   1.577   3.094  0.5910 -2.7469  0.0712
   11SOL    HW2   33   0.691   1.495   0.131  1.3676  1.6242 -0.3370
   12SOL     OW   34   2.927   2.776   1.325  0.1960 -0.5839  0.0392
   12SOL    HW1   35   2.892   2.875   1.306 -1.0611  3.0601  0.3417
   12SOL    HW2   36   3.004   2.749   1.262 -0.3408  3.6827  2.8038
   13SOL     OW   37   0.943   2.886   0.504 -1.1287  1.4099  0.2857
   13SOL    HW1   38   0.900   2.840   0.425  0.1357 -0.9591  1.0174
   13SOL    HW2   39   0.939   2.990   0.491  1.3615  2.2085 -1.1083
   14SOL     OW   40   1.583   1.530   1.108 -0.3704 -0.1861 -0.6201
   14SOL    HW1   41   1.504   1.586   1.149 -3.4766  0.1815  0.6554
   14SOL    HW2   42   1.646   1.502   1.184  2.1346 -0.9585  0.1363
   15SOL     OW   43   2.965   1.589   2.523  0.9068  0.3267 -0.1279
   15SOL    HW1   44   2.890   1.526   2.553 -1.0199  1.8671 -1.2095
   15SOL    HW2   45   2.965   1.676   2.578 -0.7965  0.2201  0.1519
   16SOL     OW   46   1.419   0.647   2.526 -0.2202  0.0038 -0.4740
   16SOL    HW1   47   1.379   0.734   2.495  0.5666 -0.3317 -1.4091
   16SOL    HW2   48   1.344   0.578   2.532  1.1528  0.1538 -1.3340
   17SOL     OW   49   0.043   2.273   2.339 -0.0912 -0.3400  0.0413
   17SOL    HW1   50   0.057   2.292   2.439 -2.6120  0.2162  1.1742
   17SOL    HW2   51   0.008   2.178   2.324  1.1447  2.2292 -0.2522
   18SOL     OW   52   1.074   1.368   0.635 -0.3195  0.2098  0.6261
   18SOL    HW1   53   1.131   1.448   0.662 -0.1074 -0.2629 -1.5507
   18SOL    HW2   54   1.126   1.285   0.663 -3.0723 -2.1412  3.1589
   19SOL     OW   55   2.729   1.417   2.570 -0.2395 -0.1472  0.4064
   19SOL    HW1   56   2.739   1.451   2.666  0.1822 -2.1827 -2.6502
   19SOL    HW2   57   2.647   1.448   2.525 -0.1852  0.0025 -0.1543
   20SOL     OW   58   2.503   2.191   2.516 -0.3650 -0.0316  0.0927
   20SOL    HW1   59   2.473   2.202   2.419  2.6582 -0.7560 -1.4770
   20SOL    HW2   60   2.517   2.283   2.561 -0.8025 -1.6174 -1.8852
   21SOL     OW   61   1.029   1.992   0.118  0.0882  0.1795 -0.2251
   21SOL    HW1   62   1.108   2.052   0.095  1.2181  1.5513  0.6394
   21SOL    HW2   63   0.985   2.032   0.202  1.2362  0.3135  1.2967
   22SOL     OW   64   2.222   2.196   1.500  0.4696  0.0371 -0.1348
   22SOL    HW1   65   2.167   2.248   1.575 -0.5937 -0.9181  1.9649
   22SOL    HW2   66   2.161   2.177   1.420 -1.1858  1.2373 -1.2803
   23SOL     OW   67   0.240   1.152   1.302  0.3725  0.4926 -0.2918
   23SOL    HW1   68   0.209   1.074   1.241  1.5085  4.1671 -0.3478
   23SOL    HW2   69   0.297   1.116   1.381  1.4789  0.0163  2.2754
   24SOL     OW   70   2.031   1.801   2.312 -0.1377  0.1978 -0.2697
   24SOL    HW1   71   2.016   1.760   2.404  0.6988 -1.5150 -1.5663
   24SOL    HW2   72   2.122   1.855   2.314  1.4495  1.6633  3.4660
   25SOL     OW   73   1.920   0.320   2.229 -0.0409  0.6045  0.0452
   25SOL    HW1   74   2.005   0.335   2.171  2.4161  0.1743 -0.3836
   25SOL    HW2   75   1.830   0.327   2.188 -0.7850 -0.1253  1.9609
   26SOL     OW   76   1.511   0.380   0.436 -0.2433  0.4089 -0.5237
   26SOL    HW1   77   1.465   0.469   0.414  1.2731  1.0142  1.5405
   26SOL    HW2   78   1.514   0.362   0.539  0.6640 -1.5146  1.4240
   27SOL     OW   79   0.946   1.602   0.343 -0.8619 -0.1610 -0.0538
   27SOL    HW1   80   0.859   1.655   0.330 -1.8579 -0.8722 -0.8263
   27SOL    HW2   81   0.923   1.525   0.405  1.0710 -0.3301 -1.9703
   28SOL     OW   82   2.485   1.793   0.924  0.0093  0.2179  0.0351
   28SOL    HW1   83   2.486   1.877   0.864 -0.4998 -0.8119  1.3440
   28SOL    HW2   84   2.417   1.796   0.997  1.4023 -0.5816 -1.2766
   29SOL     OW   85   2.314   2.976   1.689 -0.2159 -0.1928 -0.5463
   29SOL    HW1   86   2.213   2.954   1.694 -1.1582  3.1330 -1.1655
   29SOL    HW2   87   2.367   2.934   1.763  1.9017 -0.2039 -0.3783
   30SOL     OW   88   1.053   0.097   1.226  0.7691  0.2602  0.8709
   30SOL    HW1   89   1.089   0.190   1.240 -1.3532  0.8926  3.5371
   30SOL    HW2   90   1.126   0.027   1.213 -2.8563  1.6094 -0.6343
   31SOL     OW   91   2.994   2.022   1.683 -0.1339 -0.0150 -0.0142
   31SOL    HW1   92   3.024   1.937   1.731  0.5676  0.7263  0.4399
   31SOL    HW2   93   3.044   2.100   1.725  0.6759 -0.2716  1.3558
   32SOL     OW   94   1.431   1.380   1.928 -0.2819  0.2412 -0.6897
   32SOL    HW1   95   1.394   1.447   1.861 -0.8647 -0.1074  2.1965
   32SOL    HW2   96   1.521   1.411   1.969 -0.2258  1.4357 -0.0619
   33SOL     OW   97   0.335   0.528   3.087 -0.3347  0.1684 -0.6248
   33SOL    HW1   98   0.424   0.478   3.096  0.1552 -1.4721  0.4823
   33SOL    HW2   99   0.316   0.545   2.989 -1.6989 -3.3576  0.9150
   34SOL     OW  100   2.310   0.002   0.607  0.0622  0.2094  0.1133
   34SOL    HW1  101   2.257   0.082   0.646  1.0948 -3.3848  0.7731
   34SOL    HW2  102   2.338   3.037   0.683 -0.9656 -1.8883  1.1652
   35SOL     OW  103   2.522   0.212   1.631  0.0970  0.1325  0.0828
   35SOL    HW1  104   2.591   0.238   1.709 -0.9203 -3.1713  5.3653
   35SOL    HW2  105   2.552   0.128   1.589 -4.0522  3.3400  0.9933
   36SOL     OW  106   2.741   2.804   2.697  0.6758  0.6290 -0.4613
   36SOL    HW1  107   2.651   2.845   2.673 -0.8841  0.1309 -0.6822
   36SOL    HW2  108   2.800   2.794   2.614  0.1726 -0.7154 -1.4008
   37SOL     OW  109   1.502   2.429   3.023 -0.0111 -0.3171  0.0821
   37SOL    HW1  110   1.508   2.526   2.993 -0.8386 -0.4872  0.1093
   37SOL    HW2  111   1.413   2.409   3.067 -1.7936 -1.8142  1.7107
   38SOL     OW  112   2.831   0.929   2.916 -0.1010  0.4764  0.4699
   38SOL    HW1  113   2.926   0.889   2.917  2.5018  1.2685 -3.2898
   38SOL    HW2  114   2.801   0.968   3.004  2.1409  2.0412 -0.5360
   39SOL     OW  115   1.822   1.673   2.071  0.3806 -0.4067  0.5619
   39SOL    HW1  116   1.809   1.759   2.116 -0.2966 -1.0878 -1.7292
   39SOL    HW2  117   1.919   1.649   2.068 -1.6491  2.8672 -0.6742
   40SOL     OW  118   0.294   0.296   2.716  0.4012  0.2717  0.1488
   40SOL    HW1  119   0.218   0.273   2.782 -0.9610 -0.1237 -0.2032
   40SOL    HW2  120   0.374   0.231   2.741  2.1774 -1.9538 -0.1054
   41SOL     OW  121   1.609   1.268   1.535 -0.3526  0.4103 -0.4193
   41SOL    HW1  122   1.565   1.180   1.533 -1.6919  0.8107  1.4005
   41SOL    HW2  123   1.698   1.255   1.578  0.8311  0.0272 -0.0132
   42SOL     OW  124   0.163   0.235   1.829 -0.0735 -0.1675 -0.5348
   42SOL    HW1  125   0.113   0.321   1.816  0.2540  0.1671 -0.5533
   42SOL    HW2  126   0.155   0.204   1.924  0.4664  2.0220 -3.2624
   43SOL     OW  127   1.379   1.252   2.159  0.5013 -0.0297 -0.1334
   43SOL    HW1  128   1.436   1.177   2.126 -2.0270  0.1005  2.4105
   43SOL    HW2  129   1.366   1.308   2.073 -1.4566  1.3527 -2.8820
   44SOL     OW  130   3.011   0.024   0.041 -0.1845 -0.1802  0.3075
   44SOL    HW1  131   2.958   0.004   3.054 -1.5300 -0.4193 -0.1063
   44SOL    HW2  132   2.970   0.103   0.096  1.4391 -1.9751  0.2595
   45SOL     OW  133   0.364   2.080   1.103 -0.4946  0.0916 -0.2863
   45SOL    HW1  134   0.429   2.069   1.181  0.6214 -2.3066 -0.7327
   45SOL    HW2  135   0.362   1.991   1.053 -1.3586 -2.2291  0.5648
   46SOL     OW  136   2.458   2.689   1.774 -0.0249 -0.0974 -0.0123
   46SOL    HW1  137   2.506   2.774   1.808  1.3861 -2.0111 -2.3235
   46SOL    HW2  138   2.513   2.625   1.712 -0.2803 -0.0793  0.8747
   47SOL     OW  139   0.733   1.778   1.218  0.0159 -0.0890  0.2210
   47SOL    HW1  140   0.746   1.683   1.244 -4.7820  2.9012  0.3909
   47SOL    HW2  141   0.635   1.797   1.205  1.1962 -0.2834 -0.6156
   48SOL     OW  142   0.558   2.647   0.280  0.0163  0.4877 -0.4582
   48SOL    HW1  143   0.547   2.634   0.384  0.1315 -0.0554  1.7809
   48SOL    HW2  144   0.482   2.705   0.240  0.4704  0.5762 -1.5979
   49SOL     OW  145   2.862   1.664   2.015  0.3426  0.0441  0.2607
   49SOL    HW1  146   2.870   1.641   2.114 -1.3682  1.3006  2.9489
   49SOL    HW2  147   2.788   1.605   1.975 -2.2765  0.7307 -1.5031
   50SOL     OW  148   1.787   0.906   0.807 -0.2178  0.2700  0.0459
   50SOL    HW1  149   1.710   0.840   0.818 -1.7797 -0.4162  0.7199
   50SOL    HW2  150   1.812   0.951   0.893  1.4579  0.9669 -0.8002
   51SOL     OW  151   1.004   0.707   0.832  0.6689  0.2285 -0.3481
   51SOL    HW1  152   0.973   0.678   0.922  2.3094  2.9730 -1.0536
   51SOL    HW2  153   1.036   0.631   0.772 -2.1888 -3.0476  1.5959
   52SOL     OW  154   1.103   1.508   0.142  1.2453 -0.5172 -0.2667
   52SOL    HW1  155   1.165   1.448   0.195 -4.0529 -0.5605 -1.0710
   52SOL    HW2  156   1.044   1.550   0.216  0.7336 -0.6749  1.1828
   53SOL     OW  157   1.189   2.825   2.760  0.4158  0.6283  0.3009
   53SOL    HW1  158   1.287   2.792   2.750 -3.0848 -2.3577 -1.4635
   53SOL    HW2  159   1.180   2.896   2.833 -1.0291  0.8141  0.5315
   54SOL     OW  160   1.563   0.619   1.621 -0.2401 -0.6673  0.1344
   54SOL    HW1  161   1.554   0.610   1.717 -0.4772 -2.4332 -4.1760
   54SOL    HW2  162   1.482   0.655   1.571 -1.7426 -0.1740 -1.2172
   55SOL     OW  163   2.956   2.636   0.237  0.2962  0.0204  0.5564
   55SOL    HW1  164   3.035   2.697   0.263 -0.2845 -1.3135 -4.4725
   55SOL    HW2  165   2.861   2.680   0.231 -1.4267  2.2875 -2.0831
   56SOL     OW  166   0.728   2.583   1.805  0.3234  0.6520 -0.4176
   56SOL    HW1  167   0.630   2.566   1.829 -0.0668 -1.6065  2.0742
   56SOL    HW2  168   0.734   2.654   1.732 -2.3142  2.2050  1.1072
   57SOL     OW  169   1.963   0.977   2.533 -0.0537 -0.9175  0.2865
   57SOL    HW1  170   2.021   0.894   2.532  1.1682  1.9493 -1.4364
   57SOL    HW2  171   1.861   0.954   2.522 -1.1782 -0.8068 -0.9254
   58SOL     OW  172   0.255   1.327   1.863  0.2080 -0.1245  0.8277
   58SOL    HW1  173   0.251   1.265   1.782  0.3810  1.5231 -0.6272
   58SOL    HW2  174   0.282   1.419   1.839  0.8919 -1.1589  2.1915
   59SOL     OW  175   0.449   2.808   2.196  0.0617  0.0211  0.0167
   59SOL    HW1  176   0.538   2.837   2.163 -1.5032 -2.3277 -0.7280
   59SOL    HW2  177   0.452   2.768   2.292 -2.6595 -2.1405  0.2451
   60SOL     OW  178   2.902   2.396   0.367  0.5930 -0.1179  0.0145
   60SOL    HW1  179   2.977   2.326   0.362 -2.8229  0.0108  0.2353
   60SOL    HW2  180   2.936   2.485   0.331 -0.0091  0.0039  2.5098
   61SOL     OW  181   0.969   2.684   0.683 -0.1484  0.1530  0.0029
   61SOL    HW1  182   0.977   2.603   0.619  1.0859  1.1460 -1.3635
   61SOL    HW2  183   0.943   2.765   0.625  0.4685  1.7280  0.6088
   62SOL     OW  184   1.642   2.548   2.634  0.1046  0.0143 -0.1089
   62SOL    HW1  185   1.597   2.539   2.541  0.4649  0.8229 -1.4917
   62SOL    HW2  186   1.661   2.459   2.677 -0.2424 -1.1976 -2.3650
   63SOL     OW  187   2.100   0.520   0.027  0.1009 -0.4840  0.2861
   63SOL    HW1  188   2.107   0.504   3.023 -0.5402  2.3541 -0.5168
   63SOL    HW2  189   2.186   0.560   0.065 -0.2290  0.9807  1.3088
   64SOL     OW  190   0.853   1.443   2.548  0.2551 -0.5659  0.2409
   64SOL    HW1  191   0.889   1.389   2.631  2.0597 -1.5191  0.4692
   64SOL    HW2  192   0.899   1.536   2.557 -0.2657  0.6628  0.7124
   65SOL     OW  193   1.258   3.004   1.114 -0.2740 -0.1181 -0.0950
   65SOL    HW1  194   1.336   2.940   1.090  1.9883 -2.3674  1.8016
   65SOL    HW2  195   1.183   2.996   1.045  0.4146 -1.5426  0.0430
   66SOL     OW  196   0.553   1.606   1.724 -0.4909  0.2052  0.5969
   66SOL    HW1  197   0.583   1.650   1.639 -0.3162  0.3368  3.2460
   66SOL    HW2  198   0.560   1.672   1.804 -2.0064  3.4477  0.3713
   67SOL     OW  199   2.345   2.782   2.182 -0.1507  0.1329  0.0929
   67SOL    HW1  200   2.441   2.789   2.213  0.5432  2.8898  0.1905
   67SOL    HW2  201   2.320   2.877   2.159  2.1287  0.0039 -1.0347
   68SOL     OW  202   0.834   0.974   1.501  0.0896 -0.0280  0.1591
   68SOL    HW1  203   0.779   1.058   1.495  1.3129  2.3469 -2.1283
   68SOL    HW2  204   0.830   0.932   1.411 -0.3412 -0.4866 -1.5396
   69SOL     OW  205   2.517   2.469   0.114  0.4788 -0.7106  0.0137
   69SOL    HW1  206   2.489   2.524   0.195 -1.0520 -1.5315  1.3125
   69SOL    HW2  207   2.512   2.367   0.138 -1.4424 -2.0108  1.4210
   70SOL     OW  208   2.347   0.756   2.903 -0.3769  0.1807 -0.2101
   70SOL    HW1  209   2.439   0.729   2.893 -2.7254  0.7343  1.2337
   70SOL    HW2  210   2.327   0.840   2.850 -0.0457 -0.1954  0.7868
   71SOL     OW  211   0.002   2.169   0.355 -0.0232  0.1018 -0.6990
   71SOL    HW1  212   3.063   2.132   0.443 -0.9145  1.9263  0.0581
   71SOL    HW2  213   0.019   2.086   0.298 -3.2211 -0.4337  1.7369
   72SOL     OW  214   2.919   1.845   0.463 -0.2057 -0.0432  0.2092
   72SOL    HW1  215   2.970   1.919   0.508 -1.9692 -2.1250 -1.1201
   72SOL    HW2  216   2.955   1.758   0.500 -1.6169  2.4358 -0.6673
   73SOL     OW  217   0.977   0.747   0.514 -0.5861 -0.4318 -0.1184
   73SOL    HW1  218   0.903   0.724   0.452 -0.6096  0.6659  0.7914
   73SOL    HW2  219   0.954   0.831   0.571 -0.0436 -0.5555 -1.0059
   74SOL     OW  220   0.136   1.841   1.948  0.0958 -0.3517 -0.0805
   74SOL    HW1  221   0.119   1.819   2.047 -2.7843  0.8397 -1.4162
   74SOL    HW2  222   0.211   1.911   1.940  1.2396 -0.1829  0.7126
   75SOL     OW  223   1.682   1.687   1.460 -0.5255 -0.2101 -0.6530
   75SOL    HW1  224   1.734   1.685   1.546 -0.7644 -1.5021 -1.6122
   75SOL    HW2  225   1.602   1.624   1.468  0.1837 -0.5827 -1.9515
   76SOL     OW  226   1.530   2.146   1.032 -0.5472  0.2176 -0.1409
   76SOL    HW1  227   1.559   2.179   0.941  0.0117  0.8193 -0.4252
   76SOL    HW2  228   1.428   2.139   1.044  0.4348  1.3260  0.9026
   77SOL     OW  229   2.440   1.583   2.036  0.3204  0.3821 -0.0819
   77SOL    HW1  230   2.465   1.581   2.137  2.2762  1.1017 -0.4975
   77SOL    HW2  231   2.379   1.662   2.019  3.3235  0.7493 -0.8290
   78SOL     OW  232   1.325   0.621   0.703  0.5557 -0.0988  0.0392
   78SOL    HW1  233   1.337   0.642   0.604  1.6409  4.2808 -1.9656
   78SOL    HW2  234   1.226   0.614   0.728 -3.0449  0.2572 -0.3706
   79SOL     OW  235   2.212   1.745   1.658  0.3133 -0.2719  0.1130
   79SOL    HW1  236   2.200   1.691   1.570  0.2195 -4.1243 -1.7247
   79SOL    HW2  237   2.227   1.842   1.639  0.1052  0.8735 -2.8392
   80SOL     OW  238   1.215   0.292   1.312 -0.5120  0.3175  0.5097
   80SOL    HW1  239   1.302   0.259   1.269  1.5284  1.8479  1.2070
   80SOL    HW2  240   1.230   0.314   1.409 -0.9921 -1.6361 -0.9897
   81SOL     OW  241   0.589   2.562   0.562 -0.4892  0.5344  0.1126
   81SOL    HW1  242   0.641   2.472   0.573  0.6777 -2.7824  1.5470
   81SOL    HW2  243   0.632   2.637   0.618  0.2733 -1.0720 -2.0912
   82SOL     OW  244   1.437   0.313   1.786  0.0252  0.0054 -0.0158
   82SOL    HW1  245   1.336   0.297   1.805 -3.2186 -1.8086  1.3152
   82SOL    HW2  246   1.456   0.303   1.680 -0.6084  0.1288 -1.5597
   83SOL     OW  247   0.628   1.788   0.548 -0.0126 -0.2605  0.2658
   83SOL    HW1  248   0.703   1.836   0.604  1.2834  1.9009  1.5454
   83SOL    HW2  249   0.654   1.761   0.453  1.4487 -0.4122 -0.3722
   84SOL     OW  250   2.758   1.333   0.193  0.2265 -0.0372  0.2636
   84SOL    HW1  251   2.663   1.295   0.184  1.0360 -1.1280  1.0039
   84SOL    HW2  252   2.824   1.283   0.128  0.3338  1.1872 -3.5895
   85SOL     OW  253   3.058   2.613   1.514  0.0234  0.5688  0.2014
   85SOL    HW1  254   3.004   2.682   1.467  0.3072  1.2815  1.0862
   85SOL    HW2  255   3.004   2.526   1.533 -0.1669 -1.0003  1.3913
   86SOL     OW  256   1.609   2.641   1.108  0.2045  0.2223  0.2124
   86SOL    HW1  257   1.676   2.578   1.168  2.4101 -1.6906  1.2446
   86SOL    HW2  258   1.627   2.623   1.013  1.0389  3.2811 -1.7970
   87SOL     OW  259   2.886   1.463   0.739  0.5377 -0.2334  0.2366
   87SOL    HW1  260   2.800   1.480   0.693  0.7815 -1.0339 -0.0885
   87SOL    HW2  261   2.889   1.393   0.814 -2.1401  2.6849  0.0305
   88SOL     OW  262   0.951   0.567   1.091  0.4415  0.0271 -0.2728
   88SOL    HW1  263   0.951   0.593   1.190  0.3448 -1.6167 -2.5198
   88SOL    HW2  264   0.871   0.508   1.087  0.0349  2.2241  2.0441
   89SOL     OW  265   0.716   2.920   1.866 -0.4626 -0.3741  0.4680
   89SOL    HW1  266   0.625   2.900   1.829  2.7322  2.4279  0.6026
   89SOL    HW2  267   0.786   2.906   1.790  0.5346 -0.5001 -0.9609
   90SOL     OW  268   2.967   1.875   1.088  0.0213  0.5908  0.6027
   90SOL    HW1  269   3.005   1.960   1.047  2.1897 -5.0114 -0.2967
   90SOL    HW2  270   2.900   1.823   1.027  1.9392  0.4942 -2.2564
   91SOL     OW  271   1.148   1.850   1.056 -0.0070  0.0053 -0.0889
   91SOL    HW1  272   1.132   1.934   0.999  0.6695 -0.4889  0.6650
   91SOL    HW2  273   1.120   1.768   0.996 -0.1578 -1.3157 -0.1938
   92SOL     OW  274   2.835   2.837   1.741 -0.1649 -0.4495  0.5454
   92SOL    HW1  275   2.780   2.825   1.659 -0.0035  0.8718  1.5189
   92SOL    HW2  276   2.793   2.909   1.801 -1.1382  2.3508  1.8392
   93SOL     OW  277   2.933   1.267   3.080 -0.7023 -0.1279  0.1141
   93SOL    HW1  278   2.980   1.279   2.986 -1.3796  2.1377 -1.4618
   93SOL    HW2  279   2.882   1.180   3.093 -2.1645  1.0654  0.2315
   94SOL     OW  280   2.519   2.924   1.909  0.4209 -0.0883 -0.1456
   94SOL    HW1  281   2.464   2.966   1.982  1.4000  0.3621 -0.5880
   94SOL    HW2  282   2.618   2.932   1.927 -1.6482  0.9731  0.3099
   95SOL     OW  283   1.481   0.543   2.007 -0.5727 -0.2174  0.2068
   95SOL    HW1  284   1.433   0.628   1.968 -0.1467  0.9621  0.7429
   95SOL    HW2  285   1.481   0.466   1.942  2.9430 -0.3804  2.6420
   96SOL     OW  286   2.399   0.684   1.807  0.0317 -0.3897  0.1063
   96SOL    HW1  287   2.426   0.745   1.888  0.1125 -1.0136  1.2890
   96SOL    HW2  288   2.480   0.639   1.767 -0.1537  2.5089  0.9482
   97SOL     OW  289   2.524   3.001   1.507 -0.2304  0.0275  0.2205
   97SOL    HW1  290   2.579   2.914   1.493 -0.3288  0.0234  2.2387
   97SOL    HW2  291   2.456   2.977   1.578 -0.3088  2.2084  0.7992
   98SOL     OW  292   1.988   2.776   1.376 -0.6289  0.1296 -0.1697
   98SOL    HW1  293   2.075   2.730   1.404 -1.6931 -3.4976  3.4977
   98SOL    HW2  294   1.927   2.777   1.454  0.0122  1.4414 -2.0305
   99SOL     OW  295   2.722   0.289   1.795 -0.2805 -0.1688  0.4554
   99SOL    HW1  296   2.715   0.316   1.892  0.3247  0.1309  1.6459
   99SOL    HW2  297   2.808   0.249   1.772 -2.1338  0.9057  0.8717
  100SOL     OW  298   2.068   1.572   2.168 -1.0392  0.6937  0.0697
  100SOL    HW1  299   2.074   1.659   2.220 -3.1645  1.7381  0.2423
  100SOL    HW2  300   2.056   1.486   2.224 -4.0027 -0.8204  0.6665
  101SOL     OW  301   2.068   0.113   0.224 -0.3058  0.5300 -0.1716
  101SOL    HW1  302   2.142   0.097   0.292  0.2809 -0.5053 -0.7861
  101SOL    HW2  303   1.993   0.162   0.268  1.5019  0.3056  0.2251
  102SOL     OW  304   0.605   0.573   1.473 -0.1751  0.0627  0.1103
  102SOL    HW1  305   0.508   0.577   1.504  0.9217 -1.1172  1.4096
  102SOL    HW2  306   0.617   0.505   1.401 -1.3671 -2.4201  1.4748
  103SOL     OW  307   2.421   0.047   2.661 -0.0967 -0.0091  0.0745
  103SOL    HW1  308   2.485   0.099   2.720 -1.0475  2.4042 -2.8169
  103SOL    HW2  309   2.320   0.056   2.694 -2.4220  0.5595 -0.4346
  104SOL     OW  310   0.014   2.864   1.765  0.0338  0.3012 -0.4623
  104SOL    HW1  311   0.077   2.794   1.723 -0.4962  1.0035  1.9380
  104SOL    HW2  312   3.015   2.852   1.730 -1.5239 -1.3566 -1.1370
  105SOL     OW  313   1.263   0.847   2.169  0.2882  0.5020  0.6169
  105SOL    HW1  314   1.201   0.928   2.172 -1.5935 -2.2654 -0.1792
  105SOL    HW2  315   1.276   0.795   2.075  1.8173 -0.1538 -1.6643
  106SOL     OW  316   1.689   0.413   0.842  0.1174 -0.0866 -0.5830
  106SOL    HW1  317   1.718   0.384   0.940  1.5452 -0.4776 -1.0346
  106SOL    HW2  318   1.723   0.336   0.786  1.4604  1.9948  0.9447
  107SOL     OW  319   0.521   1.186   1.067  0.3534 -0.3019 -0.3008
  107SOL    HW1  320   0.494   1.087   1.078  1.0880  0.5614  0.0422
  107SOL    HW2  321   0.610   1.195   1.016 -0.1059 -1.9409  0.7880
  108SOL     OW  322   2.892   0.409   2.316  0.0017  0.4017 -0.5417
  108SOL    HW1  323   2.921   0.383   2.222 -1.6762  1.5756  2.8857
  108SOL    HW2  324   2.938   0.352   2.391  2.7328  0.6163 -1.0310
  109SOL     OW  325   2.093   0.123   3.040  0.0804 -0.3055  0.2949
  109SOL    HW1  326   2.072   0.129   0.040 -1.2881 -1.5222  2.1251
  109SOL    HW2  327   2.009   0.165   2.996  1.2783 -2.9533  0.8909
  110SOL     OW  328   3.039   1.857   2.885 -0.1841 -0.6592 -0.0064
  110SOL    HW1  329   0.013   1.919   2.917  1.0002 -3.5654 -2.2742
  110SOL    HW2  330   3.036   1.783   2.953 -0.5120 -0.1339 -1.3118
  111SOL     OW  331   2.505   0.228   2.461 -0.3800 -0.2127 -0.4030
  111SOL    HW1  332   2.419   0.289   2.459  1.9918  0.9247 -0.0580
  111SOL    HW2  333   2.503   0.163   2.541 -1.9178 -1.0220  2.1759
  112SOL     OW  334   2.530   2.799   1.118  0.2303 -0.8669 -0.0086
  112SOL    HW1  335   2.628   2.798   1.086  2.5497 -0.0300 -1.9899
  112SOL    HW2  336   2.504   2.893   1.153  1.6524 -0.0028  0.0027
  113SOL     OW  337   2.507   2.328   2.015  0.5139  0.5499  0.4226
  113SOL    HW1  338   2.581   2.261   1.990  1.4170 -0.9719 -3.0413
  113SOL    HW2  339   2.422   2.296   1.973  2.5123 -0.6610 -1.9965
  114SOL     OW  340   2.621   0.043   0.515  0.1702 -0.3311 -0.1841
  114SOL    HW1  341   2.536   3.090   0.525  1.0589  0.8909 -1.0492
  114SOL    HW2  342   2.688   0.038   0.594  1.7171 -0.2608  0.3397
  115SOL     OW  343   2.822   1.870   0.198 -0.0536 -0.3523 -0.2717
  115SOL    HW1  344   2.868   1.830   0.281  1.1674 -1.2177 -2.4333
  115SOL    HW2  345   2.766   1.799   0.150 -1.2274  1.0755  1.6606
  116SOL     OW  346   3.080   1.368   1.928 -0.0655  0.1171 -0.7150
  116SOL    HW1  347   3.046   1.422   1.852  0.6891 -1.6772  1.7300
  116SOL    HW2  348   0.068   1.328   1.912 -5.6207  2.3483  0.3101
  117SOL     OW  349   2.093   0.072   0.923 -0.1352  0.1963  0.2714
  117SOL    HW1  350   2.147   3.089   0.946 -0.4224  2.6429  0.9146
  117SOL    HW2  351   2.040   0.113   0.999 -0.6566  0.9662 -1.1100
  118SOL     OW  352   0.273   2.076   1.639 -0.2003  0.0047  0.1896
  118SOL    HW1  353   0.224   1.995   1.593 -0.8507 -1.3290 -2.8023
  118SOL    HW2  354   0.371   2.076   1.608  1.3539 -1.6497  1.7513
  119SOL     OW  355   1.335   2.199   1.503 -0.1781  0.1290  0.1157
  119SOL    HW1  356   1.279   2.114   1.489 -1.5119 -2.7955 -0.7271
  119SOL    HW2  357   1.288   2.274   1.461 -0.6035 -1.3167  1.5052
  120SOL     OW  358   0.150   1.884   1.483 -0.1760 -0.5823  0.5028
  120SOL    HW1  359   0.056   1.850   1.502  2.1605  1.4729 -0.7126
  120SOL    HW2  360   0.218   1.808   1.477  0.8124  0.2809  0.9195
  121SOL     OW  361   2.319   1.232   0.909  0.3194 -0.1514 -0.1809
  121SOL    HW1  362   2.312   1.271   0.997 -0.5371 -1.1001 -5.7862
  121SOL    HW2  363   2.236   1.241   0.855  1.2893  1.1408  0.4652
  122SOL     OW  364   2.337   1.910   2.856 -0.3555 -0.1433  0.0631
  122SOL    HW1  365   2.250   1.860   2.863  2.5659 -1.4217 -1.6333
  122SOL    HW2  366   2.319   1.991   2.797 -0.0027  1.5556  2.5132
  123SOL     OW  367   2.833   2.789   0.531 -0.3825  0.4621  0.8938
  123SOL    HW1  368   2.779   2.826   0.605  0.7211 -0.7334 -1.5492
  123SOL    HW2  369   2.886   2.712   0.569 -2.0915  1.1406 -1.0477
  124SOL     OW  370   1.138   1.189   0.014 -0.1368 -0.0578 -0.0029
  124SOL    HW1  371   1.070   1.261   3.088  0.1484  1.8766  0.9216
  124SOL    HW2  372   1.133   1.110   3.050 -0.3330  1.6370  0.6847
  125SOL     OW  373   0.006   1.538   2.788 -0.4531  0.1412 -0.5323
  125SOL    HW1  374   3.011   1.551   2.761 -0.1728 -1.6779 -0.8429
  125SOL    HW2  375   0.071   1.577   2.723  1.5012 -0.5278  2.3686
  126SOL     OW  376   0.072   2.408   0.433 -0.3662  0.5682  0.0999
  126SOL    HW1  377   0.168   2.435   0.424  0.4787  0.3747 -2.3050
  126SOL    HW2  378   0.056   2.315   0.393 -1.1075 -0.8782 -0.2257
  127SOL     OW  379   3.054   1.623   0.583  0.4240  0.1771  0.6334
  127SOL    HW1  380   3.009   1.547   0.631  0.3971  0.3224 -0.8949
  127SOL    HW2  381   3.073   1.590   0.487  1.8343 -0.0054 -3.5308
  128SOL     OW  382   1.193   1.360   0.354  0.5630  0.2352  0.3410
  128SOL    HW1  383   1.145   1.355   0.441 -1.0747  0.7698  0.0755
  128SOL    HW2  384   1.208   1.271   0.306  0.4622  0.9410 -1.8588
  129SOL     OW  385   2.111   1.918   1.403  0.1312 -0.5977 -0.3986
  129SOL    HW1  386   2.106   2.020   1.379 -0.9979  1.2420  0.2927
  129SOL    HW2  387   2.204   1.879   1.384 -1.1348 -0.2385  0.4813
  130SOL     OW  388   1.898   0.992   0.569  0.1468 -0.0141 -0.1028
  130SOL    HW1  389   1.957   0.916   0.538 -1.1903  1.6941  1.1304
  130SOL    HW2  390   1.845   0.960   0.644  0.0297 -0.1554 -3.2335
  131SOL     OW  391   2.850   0.969   2.640  0.2920 -0.2337  0.0052
  131SOL    HW1  392   2.828   0.957   2.738  1.6825  1.5712 -0.0236
  131SOL    HW2  393   2.761   0.990   2.592 -2.1683 -1.3597 -1.2262
  132SOL     OW  394   1.702   1.416   2.105  0.0625  0.5255 -0.0697
  132SOL    HW1  395   1.747   1.503   2.092  0.3764 -4.1467  0.5622
  132SOL    HW2  396   1.628   1.418   2.173  1.7211 -0.1355 -0.8181
  133SOL     OW  397   0.103   1.261   0.079 -0.0636 -0.3581  0.2602
  133SOL    HW1  398   0.017   1.283   0.021 -0.2685 -1.2405 -2.7188
  133SOL    HW2  399   0.081   1.211   0.164  1.6552 -0.1672  0.7461
  134SOL     OW  400   2.768   0.891   0.755 -0.4696 -0.4031  0.1482
  134SOL    HW1  401   2.681   0.920   0.713 -0.3291  1.9072  0.0977
  134SOL    HW2  402   2.800   0.806   0.707 -0.9245 -2.6449 -1.3389
  135SOL     OW  403   2.235   0.941   0.031  0.2180  0.1734 -0.1538
  135SOL    HW1  404   2.299   0.887   3.071  0.8580  2.1399  1.2870
  135SOL    HW2  405   2.223   1.039   0.009  2.1754 -1.2330  1.3990
  136SOL     OW  406   1.925   1.890   1.602  0.5062 -0.0339  0.6145
  136SOL    HW1  407   1.889   1.796   1.605  0.5922  2.1605  2.4844
  136SOL    HW2  408   1.983   1.895   1.514  0.0856  0.4049 -0.7553
  137SOL     OW  409   2.440   2.539   0.568  0.1942 -0.3771 -0.1936
  137SOL    HW1  410   2.527   2.511   0.615  1.3805 -2.0128 -0.4702
  137SOL    HW2  411   2.362   2.475   0.598 -0.9644  2.2282 -0.0606
  138SOL     OW  412   2.054   0.298   1.428 -0.1129  0.1276  0.1472
  138SOL    HW1  413   1.959   0.319   1.451  2.3134 -1.9449  1.3334
  138SOL    HW2  414   2.118   0.362   1.473 -1.6503 -0.0404  0.3132
  139SOL     OW  415   2.619   0.129   2.816 -0.1361 -0.2465  0.1608
  139SOL    HW1  416   2.600   0.060   2.891  0.5725 -0.6386 -0.2300
  139SOL    HW2  417   2.680   0.203   2.849 -0.1543  0.4180  1.0334
  140SOL     OW  418   1.282   1.465   2.468 -0.3581 -0.0989  0.6772
  140SOL    HW1  419   1.279   1.366   2.479 -0.2008 -0.2447  0.9976
  140SOL    HW2  420   1.288   1.509   2.562 -2.3791  2.3721  0.2435
  141SOL     OW  421   0.645   0.613   2.252  0.0576 -0.3387 -0.3858
  141SOL    HW1  422   0.565   0.663   2.206 -0.8244  1.6929  1.5274
  141SOL    HW2  423   0.701   0.548   2.193 -1.6669 -1.2979  0.3516
  142SOL     OW  424   2.561   2.620   2.838 -0.4993  0.0906 -0.0988
  142SOL    HW1  425   2.622   2.581   2.905 -1.5411 -0.5157 -2.9137
  142SOL    HW2  426   2.601   2.699   2.784 -0.3272 -2.0888 -1.6812
  143SOL     OW  427   0.844   2.072   0.331 -0.1619 -0.1714  0.0337
  143SOL    HW1  428   0.855   2.173   0.306  0.5953  2.4790  0.6821
  143SOL    HW2  429   0.886   2.046   0.421  0.4394 -0.5573  0.5735
  144SOL     OW  430   1.259   2.459   0.011 -0.1487 -0.4896 -0.2511
  144SOL    HW1  431   1.180   2.484   3.045 -1.9979 -0.1315  0.4042
  144SOL    HW2  432   1.251   2.512   0.096  0.5548  0.1892 -0.7469
  145SOL     OW  433   1.641   1.976   2.540 -0.2644 -0.1874 -0.0695
  145SOL    HW1  434   1.738   2.003   2.554 -0.7975  1.9129  2.5938
  145SOL    HW2  435   1.622   1.910   2.469  0.2015 -1.1242  2.0899
  146SOL     OW  436   2.878   2.917   2.906 -0.1597  0.0128  0.0803
  146SOL    HW1  437   2.823   2.879   2.984 -0.6018 -0.3599  1.3080
  146SOL    HW2  438   2.823   2.899   2.821 -1.0813 -1.6797  1.0159
  147SOL     OW  439   2.974   1.485   1.183 -0.0176  0.1199  0.2037
  147SOL    HW1  440   3.025   1.557   1.232  1.5657 -1.4198 -2.8498
  147SOL    HW2  441   2.886   1.522   1.146 -3.4078  2.2146  0.7623
  148SOL     OW  442   1.812   2.791   0.123 -0.5470  0.9090  0.4460
  148SOL    HW1  443   1.741   2.859   0.142 -0.7673 -0.9312 -2.3324
  148SOL    HW2  444   1.808   2.777   0.020  0.9426  2.2800 -1.0171
  149SOL     OW  445   0.776   1.962   2.686  0.1333  0.3961 -0.2075
  149SOL    HW1  446   0.701   1.889   2.699  0.1173  1.9707 -1.4089
  149SOL    HW2  447   0.730   2.056   2.685 -1.2989 -3.2024  1.6991
  150SOL     OW  448   0.358   2.339   0.305  0.3779  0.0396 -0.4973
  150SOL    HW1  449   0.318   2.252   0.274  1.4394  1.1886  1.8649
  150SOL    HW2  450   0.442   2.366   0.249 -0.1702  1.2645  0.2296
  151SOL     OW  451   0.460   1.339   0.274 -0.1196 -0.4116 -0.3791
  151SOL    HW1  452   0.428   1.244   0.283  0.0438  3.1715  0.7121
  151SOL    HW2  453   0.422   1.377   0.193  1.0299 -2.9444  3.0727
  152SOL     OW  454   2.694   1.639   0.574  0.4111 -0.4502 -0.7616
  152SOL    HW1  455   2.761   1.634   0.499  1.5269 -0.8174  3.0654
  152SOL    HW2  456   2.650   1.730   0.576  0.9749  0.0357  2.9284
  153SOL     OW  457   1.784   2.319   0.406  0.3609 -0.5296  0.3248
  153SOL    HW1  458   1.880   2.295   0.386 -0.0055 -0.5105 -2.7238
  153SOL    HW2  459   1.770   2.356   0.500  0.7528  0.1200  1.2369
  154SOL     OW  460   0.890   2.518   0.926  0.1656 -0.4772  0.8575
  154SOL    HW1  461   0.884   2.558   0.832  2.6274 -2.3858  0.9129
  154SOL    HW2  462   0.792   2.517   0.955  1.0192 -0.5516 -3.3035
  155SOL     OW  463   2.810   1.755   0.903 -0.1124 -0.0208  0.2521
  155SOL    HW1  464   2.768   1.671   0.863  1.9408 -0.1728  2.6659
  155SOL    HW2  465   2.913   1.756   0.886  0.4266  1.2496  0.1049
  156SOL     OW  466   2.668   2.260   0.475 -0.4543 -0.1476  0.1611
  156SOL    HW1  467   2.645   2.295   0.567 -1.0452  0.0353  0.3233
  156SOL    HW2  468   2.741   2.321   0.433  0.6474 -1.6501  2.5907
  157SOL     OW  469   0.527   2.119   1.517  0.8451  0.2731 -0.2875
  157SOL    HW1  470   0.586   2.042   1.552  0.5581 -0.5612  0.7659
  157SOL    HW2  471   0.558   2.156   1.427 -0.4322 -0.7616 -0.4687
  158SOL     OW  472   1.633   0.699   0.255 -0.0452  0.6214 -0.5722
  158SOL    HW1  473   1.605   0.659   0.162  1.1695 -0.0256 -2.6157
  158SOL    HW2  474   1.724   0.655   0.277  1.6841  1.6598 -2.3955
  159SOL     OW  475   1.337   0.749   0.151  0.0245  0.1016 -0.4258
  159SOL    HW1  476   1.292   0.792   0.236 -0.5278  1.4439  1.7673
  159SOL    HW2  477   1.279   0.686   0.096  0.8143 -0.6364  1.5700
  160SOL     OW  478   0.850   1.388   0.483 -0.0177  0.4027 -0.2210
  160SOL    HW1  479   0.764   1.402   0.547 -0.4639 -3.0814  2.3071
  160SOL    HW2  480   0.935   1.388   0.541  0.3703  0.2403 -0.1043
  161SOL     OW  481   0.118   2.310   2.572 -0.5228 -0.9768 -0.0058
  161SOL    HW1  482   0.052   2.261   2.631  0.2935 -2.8965  0.5781
  161SOL    HW2  483   0.215   2.286   2.595  1.7634  0.0077  0.8702
  162SOL     OW  484   0.151   2.503   0.904  0.0935 -0.2306 -0.1071
  162SOL    HW1  485   0.169   2.455   0.990  2.6074  0.9055  0.3066
  162SOL    HW2  486   0.110   2.441   0.839  1.0958  0.0083  0.6247
  163SOL     OW  487   3.027   0.457   2.727 -0.0335 -0.1712 -0.2151
  163SOL    HW1  488   3.005   0.544   2.679 -0.8229  4.6363  0.2195
  163SOL    HW2  489   3.088   0.467   2.809 -1.6675  0.4813  0.0877
  164SOL     OW  490   0.443   0.113   2.825 -0.4086  0.1555 -0.6959
  164SOL    HW1  491   0.370   0.064   2.873 -0.5333 -1.8818 -0.1271
  164SOL    HW2  492   0.479   0.054   2.751  0.7662 -0.3429  2.0943
  165SOL     OW  493   2.241   0.421   1.577 -0.3055  0.5225 -0.1134
  165SOL    HW1  494   2.174   0.495   1.597  1.2589 -0.1049 -1.6541
  165SOL    HW2  495   2.317   0.411   1.645  0.4441  1.7323  2.7319
  166SOL     OW  496   2.067   2.324   1.702  0.0844 -0.1815 -0.1738
  166SOL    HW1  497   2.025   2.241   1.745  0.4456  0.3836 -2.1684
  166SOL    HW2  498   2.071   2.409   1.763  1.3427  4.7347 -0.3224
  167SOL     OW  499   1.037   1.196   2.387 -0.1252 -0.0432  0.1650
  167SOL    HW1  500   1.010   1.195   2.487  0.5066 -0.6817  0.0007
  167SOL    HW2  501   0.969   1.243   2.327 -1.1540  1.1748 -0.3018
  168SOL     OW  502   2.373   3.051   2.103 -0.1051  0.3093  0.3994
  168SOL    HW1  503   2.297   0.010   2.067 -0.1840  1.2124 -0.6459
  168SOL    HW2  504   2.439   0.012   2.151 -0.2859  0.7781 -0.5086
  169SOL     OW  505   0.378   1.091   0.324 -0.1440 -0.3958  0.1839
  169SOL    HW1  506   0.458   1.029   0.308  2.4282 -1.1806  1.9183
  169SOL    HW2  507   0.300   1.048   0.274  0.2819  0.6305  0.7439
  170SOL     OW  508   2.942   1.477   1.733 -0.4736  0.5968 -0.2096
  170SOL    HW1  509   2.885   1.457   1.650 -0.5807  1.1168  0.8260
  170SOL    HW2  510   2.896   1.553   1.784  0.1081 -0.6940  0.3405
  171SOL     OW  511   1.068   2.273   2.040  0.2816 -0.2042  1.0963
  171SOL    HW1  512   1.006   2.342   2.076  0.7369 -1.6449  0.1824
  171SOL    HW2  513   1.161   2.298   2.072 -1.0298 -2.1298 -0.5201
  172SOL     OW  514   0.879   2.469   2.068  0.0146 -0.2649 -0.2269
  172SOL    HW1  515   0.819   2.501   1.992 -0.2591 -1.7645  1.4608
  172SOL    HW2  516   0.959   2.529   2.068 -1.5027  0.7926 -0.9993
  173SOL     OW  517   1.366   2.474   0.843 -0.1193  0.5000  0.5156
  173SOL    HW1  518   1.459   2.462   0.797  0.5720 -0.2217 -1.8057
  173SOL    HW2  519   1.322   2.565   0.827  1.0180 -1.0219  0.2344
  174SOL     OW  520   2.336   0.085   0.359  0.1323 -0.0259  0.0117
  174SOL    HW1  521   2.336   0.057   0.459 -3.2395 -0.5307  0.4042
  174SOL    HW2  522   2.360   0.185   0.353  1.4609 -1.7208 -1.2600
  175SOL     OW  523   1.139   1.760   0.485  0.2348  0.0524 -0.2600
  175SOL    HW1  524   1.198   1.832   0.438 -0.2262  2.0155 -2.2316
  175SOL    HW2  525   1.081   1.712   0.413  1.2869  0.4090  0.3415
  176SOL     OW  526   0.631   1.420   0.653  0.4595  0.2299  0.4944
  176SOL    HW1  527   0.642   1.367   0.738 -0.8959 -0.9302 -1.4336
  176SOL    HW2  528   0.537   1.461   0.646  1.6038 -1.1165  1.1649
  177SOL     OW  529   1.310   1.112   1.518 -0.5297  0.4567  0.7389
  177SOL    HW1  530   1.261   1.194   1.482 -0.1730  0.5998  0.7909
  177SOL    HW2  531   1.348   1.132   1.612  1.5049 -1.3261  2.0797
  178SOL     OW  532   2.560   1.551   0.341  0.1005 -0.1811 -0.2153
  178SOL    HW1  533   2.656   1.543   0.368  0.9887  0.4314  0.0799
  178SOL    HW2  534   2.526   1.461   0.318  1.0060 -1.1286 -2.5821
  179SOL     OW  535   1.033   2.491   2.972 -0.8278  0.3069 -0.1325
  179SOL    HW1  536   1.019   2.420   3.042  0.9472  1.8071  0.0442
  179SOL    HW2  537   1.014   2.455   2.876 -1.3020  1.7603 -2.5270
  180SOL     OW  538   2.020   1.632   1.841  0.8325 -0.0043 -0.1926
  180SOL    HW1  539   2.073   1.575   1.905  0.7455 -0.9878 -1.5379
  180SOL    HW2  540   2.083   1.666   1.768  0.3234 -2.3912 -0.7380
  181SOL     OW  541   0.696   1.033   2.215  0.3545 -0.0175  0.1359
  181SOL    HW1  542   0.642   1.024   2.127  0.2050  1.8464 -0.5721
  181SOL    HW2  543   0.783   0.975   2.215  3.7788  1.4084 -0.4074
  182SOL     OW  544   2.771   0.921   2.298 -0.1633 -0.1041  0.2504
  182SOL    HW1  545   2.712   0.927   2.377  3.3743  1.2082  0.3135
  182SOL    HW2  546   2.819   0.840   2.295 -1.1162 -0.2068 -0.5146
  183SOL     OW  547   1.504   0.846   2.290 -0.1005 -0.4263 -0.1478
  183SOL    HW1  548   1.542   0.754   2.270 -0.7443  1.0290  2.4478
  183SOL    HW2  549   1.402   0.842   2.270 -0.5697 -2.5901  0.9232
  184SOL     OW  550   0.297   0.727   1.753  0.0168  0.2767 -0.1701
  184SOL    HW1  551   0.291   0.681   1.846  0.5619 -0.6601 -0.4619
  184SOL    HW2  552   0.388   0.763   1.739 -2.7326 -1.4851  2.7652
  185SOL     OW  553   2.177   1.815   0.664 -0.0070  0.4258 -0.7957
  185SOL    HW1  554   2.217   1.759   0.587  2.8144 -1.1827 -1.1436
  185SOL    HW2  555   2.165   1.761   0.751 -0.5642  0.2007  0.2618
  186SOL     OW  556   0.450   1.929   0.019  0.1583 -0.3579  0.4413
  186SOL    HW1  557   0.550   1.902   0.001  3.7346 -3.6458 -0.3244
  186SOL    HW2  558   0.405   1.843   0.039 -1.6241  0.9422  1.4200
  187SOL     OW  559   2.305   1.767   0.185  0.0998 -0.3352  0.5767
  187SOL    HW1  560   2.353   1.828   0.116  1.6625 -0.8917  1.1340
  187SOL    HW2  561   2.333   1.670   0.184 -0.5132  2.7218  2.8271
  188SOL     OW  562   0.966   2.268   0.989  0.2721  0.0852  0.5289
  188SOL    HW1  563   1.058   2.239   0.958  0.1486  1.1572 -1.2933
  188SOL    HW2  564   0.941   2.360   0.962 -2.2004 -2.7280 -2.3185
  189SOL     OW  565   2.012   1.202   2.630 -0.5692 -0.2543  0.3567
  189SOL    HW1  566   1.976   1.110   2.598  0.4254 -1.3780  0.6238
  189SOL    HW2  567   2.098   1.227   2.583 -1.0441  0.8389  2.5600
  190SOL     OW  568   0.859   2.081   2.052 -0.4003  0.8207  0.1122
  190SOL    HW1  569   0.905   2.007   2.103 -0.6090  0.0546 -0.6859
  190SOL    HW2  570   0.924   2.156   2.032 -1.7116  1.0377 -0.7946
  191SOL     OW  571   2.305   0.618   1.353  0.4751 -0.2606  0.0586
  191SOL    HW1  572   2.285   0.565   1.437 -0.3149 -1.7638  0.8232
  191SOL    HW2  573   2.392   0.668   1.375 -1.1162 -1.0075  0.3822
  192SOL     OW  574   2.342   0.528   2.027 -0.1587  0.3380 -0.1493
  192SOL    HW1  575   2.358   0.567   1.935 -0.1331  1.0721 -0.0787
  192SOL    HW2  576   2.307   0.609   2.082  0.9715 -0.1230 -0.4713
  193SOL     OW  577   0.855   0.265   0.656 -0.5842  0.3337  0.8488
  193SOL    HW1  578   0.868   0.215   0.570  0.1963  0.0808 -0.2369
  193SOL    HW2  579   0.892   0.213   0.740  0.0352 -0.9563 -1.9836
  194SOL     OW  580   1.348   2.408   1.789  0.3874 -0.6522  0.4556
  194SOL    HW1  581   1.354   2.304   1.776  0.6760 -2.2560 -0.9299
  194SOL    HW2  582   1.270   2.454   1.740  0.6623  1.8444 -0.9258
  195SOL     OW  583   2.800   0.903   1.014 -0.5575 -0.2575 -0.1219
  195SOL    HW1  584   2.714   0.926   1.061  2.0927  1.8258 -0.9307
  195SOL    HW2  585   2.781   0.912   0.914 -1.3533  0.0459  0.3778
  196SOL     OW  586   1.180   1.787   1.627  0.1729  0.1754  0.7773
  196SOL    HW1  587   1.170   1.875   1.575  0.3428 -2.4925  1.8128
  196SOL    HW2  588   1.111   1.773   1.699 -0.7158  1.9066 -1.7458
  197SOL     OW  589   0.306   0.860   2.479 -0.1195 -0.6532  0.1339
  197SOL    HW1  590   0.249   0.913   2.409 -2.9288  1.8785  0.1927
  197SOL    HW2  591   0.260   0.771   2.500  0.7273 -2.9592 -0.2878
  198SOL     OW  592   1.642   0.986   0.165 -0.2901 -0.6652 -0.3254
  198SOL    HW1  593   1.636   0.889   0.197 -2.6582  2.5683 -1.1313
  198SOL    HW2  594   1.706   1.039   0.221 -2.2658 -2.3872 -2.7867
  199SOL     OW  595   2.657   0.629   2.149 -0.3819  0.0181  0.1447
  199SOL    HW1  596   2.624   0.596   2.241  0.7960 -0.8435 -5.1627
  199SOL    HW2  597   2.600   0.704   2.110 -0.5867 -1.5473  0.1668
  200SOL     OW  598   2.253   2.535   2.607  0.6318 -0.0856 -0.7836
  200SOL    HW1  599   2.347   2.578   2.621 -1.6751 -0.1883  1.0226
  200SOL    HW2  600   2.237   2.454   2.670  1.1302 -2.5670 -1.0046
  201SOL     OW  601   2.210   0.081   1.392 -0.5628  0.2856  0.0011
  201SOL    HW1  602   2.148   0.164   1.409 -1.4562  0.1080 -2.5483
  201SOL    HW2  603   2.301   0.098   1.428 -3.6716 -0.3461  1.4106
  202SOL     OW  604   2.725   2.554   3.053 -0.6576 -0.2857 -0.4521
  202SOL    HW1  605   2.732   2.652   3.062 -2.1288 -0.8709  0.3640
  202SOL    HW2  606   2.663   2.520   0.027  0.3450  1.6316 -1.4323
  203SOL     OW  607   1.079   2.108   2.464 -0.3992 -0.6617 -0.2377
  203SOL    HW1  608   0.993   2.158   2.460 -0.5602  0.9221  0.7154
  203SOL    HW2  609   1.094   2.080   2.561 -2.4471 -1.7665  1.8856
  204SOL     OW  610   0.678   1.680   2.505 -0.2906 -0.2814  0.1587
  204SOL    HW1  611   0.587   1.654   2.542  1.2111  0.9042 -0.4168
  204SOL    HW2  612   0.754   1.612   2.515 -2.6391  0.5978 -0.7907
  205SOL     OW  613   0.971   1.143   1.220  0.1168 -0.0768  0.4109
  205SOL    HW1  614   1.035   1.081   1.272  1.6658  0.6896 -1.6015
  205SOL    HW2  615   1.018   1.170   1.134  0.2210  1.7832  2.3655
  206SOL     OW  616   0.151   0.750   2.732 -0.2665 -0.1225 -0.2759
  206SOL    HW1  617   0.178   0.847   2.721 -2.5844 -3.3000  1.7309
  206SOL    HW2  618   0.134   0.704   2.643  0.0070 -0.7497 -0.2503
  207SOL     OW  619   1.886   2.374   2.061  0.6850 -0.0328  0.0224
  207SOL    HW1  620   1.972   2.386   2.117 -0.0893  0.0209 -0.6778
  207SOL    HW2  621   1.855   2.465   2.031 -1.8954  0.0632  0.7713
  208SOL     OW  622   1.128   2.645   1.445 -0.8653  0.1406  0.0331
  208SOL    HW1  623   1.027   2.656   1.430  1.9762  0.8809 -0.9200
  208SOL    HW2  624   1.180   2.730   1.409  3.6747 -0.5245 -0.1522
  209SOL     OW  625   1.360   1.518   3.022 -0.2142 -0.5156  0.7822
  209SOL    HW1  626   1.390   1.429   3.056  1.5159  3.1765  1.5305
  209SOL    HW2  627   1.343   1.514   2.921  2.4517  2.5774  0.2546
  210SOL     OW  628   2.216   0.553   0.948  0.3836  0.3474 -0.1730
  210SOL    HW1  629   2.312   0.565   0.915  1.4711 -1.6859  0.8655
  210SOL    HW2  630   2.155   0.517   0.869 -0.5422 -2.9713 -1.2820
  211SOL     OW  631   1.282   2.607   0.244 -0.4680 -0.1028  0.6992
  211SOL    HW1  632   1.288   2.596   0.347  0.3271 -0.4321  1.5278
  211SOL    HW2  633   1.365   2.651   0.202  1.9359 -1.4752 -0.2298
  212SOL     OW  634   2.207   2.072   0.620 -0.0658  0.2868 -0.2376
  212SOL    HW1  635   2.189   1.976   0.647 -2.2652  0.2423 -0.4250
  212SOL    HW2  636   2.176   2.090   0.523 -0.2426  1.1122  0.3730
  213SOL     OW  637   1.870   0.681   2.800  0.0429 -0.4765  0.4860
  213SOL    HW1  638   1.842   0.623   2.879 -2.4885  2.6256  0.2576
  213SOL    HW2  639   1.857   0.780   2.818 -0.3184 -1.6636 -1.7416
  214SOL     OW  640   1.028   1.824   1.865 -0.0805  0.1618 -0.0571
  214SOL    HW1  641   0.935   1.859   1.840  0.1412  0.6194 -1.6476
  214SOL    HW2  642   1.022   1.782   1.957 -1.1793  0.5382  0.8051
  215SOL     OW  643   0.377   1.365   0.531  0.5007 -0.3263  0.1213
  215SOL    HW1  644   0.394   1.381   0.431  0.9445  0.8276 -0.9245
  215SOL    HW2  645   0.331   1.451   0.562 -2.5823  2.5397 -1.0756
  216SOL     OW  646   0.102   2.960   2.362 -0.2646  0.4872  0.0269
  216SOL    HW1  647   0.198   2.933   2.401  0.8761 -0.7046 -0.5117
  216SOL    HW2  648   0.059   2.894   2.296  0.6797  0.0165  0.0736
  217SOL     OW  649   2.519   0.969   1.384  0.0986  0.1263  0.2192
  217SOL    HW1  650   2.523   0.868   1.410 -4.6989 -1.3254 -1.3678
  217SOL    HW2  651   2.595   1.026   1.423 -4.5458 -0.1187  1.3154
  218SOL     OW  652   1.340   1.702   2.196 -0.1556  0.2863 -0.3104
  218SOL    HW1  653   1.379   1.747   2.111  0.5419  2.3671  1.2235
  218SOL    HW2  654   1.277   1.620   2.190 -0.3980 -3.3014 -1.1003
  219SOL     OW  655   1.917   1.554   0.192 -0.6786 -0.6752  0.0326
  219SOL    HW1  656   1.949   1.518   0.284 -0.7865 -0.3131  2.0981
  219SOL    HW2  657   1.834   1.504   0.157  1.3996  1.2956  2.0170
  220SOL     OW  658   2.040   0.781   0.447 -0.3680  0.0078 -0.1128
  220SOL    HW1  659   2.132   0.795   0.403  0.8195  1.8317 -2.1039
  220SOL    HW2  660   1.977   0.733   0.382 -0.2475 -0.6624  1.1143
  221SOL     OW  661   0.127   0.348   0.093 -0.1978  0.3982  0.0972
  221SOL    HW1  662   0.216   0.390   0.070 -2.1402 -0.8112  0.6604
  221SOL    HW2  663   0.098   0.290   0.019 -1.3535 -0.4947  1.1758
  222SOL     OW  664   1.499   1.978   0.650 -0.1125 -0.5527 -0.5377
  222SOL    HW1  665   1.509   1.894   0.707  1.0336 -3.0205  2.4625
  222SOL    HW2  666   1.411   2.021   0.666 -2.3422  1.0875  0.6501
  223SOL     OW  667   0.888   0.325   0.010 -0.2232 -0.2879  0.4445
  223SOL    HW1  668   0.980   0.303   0.048 -3.4987  0.1071 -0.8819
  223SOL    HW2  669   0.833   0.249   3.074 -1.7019 -1.1823 -0.5692
  224SOL     OW  670   1.681   0.108   1.184 -0.2285  0.8116 -0.1732
  224SOL    HW1  671   1.725   0.128   1.272 -0.3816 -1.1908 -1.8774
  224SOL    HW2  672   1.703   0.015   1.156 -3.9247  2.5618  2.0091
  225SOL     OW  673   0.658   2.495   1.251 -0.3829  0.4416 -0.4154
  225SOL    HW1  674   0.654   2.483   1.151 -2.5775 -0.8543  2.3656
  225SOL    HW2  675   0.579   2.562   1.268  1.1803  2.7585  3.7684
  226SOL     OW  676   1.013   1.726   3.079  0.5356  0.1292 -0.0966
  226SOL    HW1  677   1.046   1.642   0.030  0.1739 -1.7983  1.0843
  226SOL    HW2  678   1.014   1.809   0.043 -1.4877  0.1410  0.5596
  227SOL     OW  679   0.754   1.723   0.950 -0.6567 -0.0825 -0.2428
  227SOL    HW1  680   0.683   1.652   0.944 -0.4591  0.1130 -2.0935
  227SOL    HW2  681   0.772   1.755   1.044  0.2789 -0.0929  0.3832
  228SOL     OW  682   0.249   1.590   0.563  0.4465  0.1748 -0.4906
  228SOL    HW1  683   0.255   1.683   0.514 -0.2952 -1.2918 -2.4577
  228SOL    HW2  684   0.155   1.564   0.588  0.0699 -2.2914  1.5277
  229SOL     OW  685   2.280   0.317   2.559 -0.0434 -0.0349 -0.0622
  229SOL    HW1  686   2.181   0.294   2.550  2.3816  0.7066 -1.5128
  229SOL    HW2  687   2.313   0.288   2.649  2.8812 -0.8560  0.2124
  230SOL     OW  688   2.021   1.220   0.340 -0.2376 -0.2670 -0.2474
  230SOL    HW1  689   2.030   1.314   0.383 -0.0336  0.2322  1.6108
  230SOL    HW2  690   1.933   1.177   0.375  0.6531 -1.7556  1.4377
  231SOL     OW  691   1.345   1.546   2.735 -0.2800 -0.1785 -0.2525
  231SOL    HW1  692   1.290   1.630   2.751 -0.7491 -1.4107 -1.7871
  231SOL    HW2  693   1.446   1.563   2.713  2.3197  2.6057 -0.6793
  232SOL     OW  694   2.489   2.016   0.714 -0.1075  0.1117 -0.0373
  232SOL    HW1  695   2.387   2.018   0.685  0.6349 -0.5828 -0.1014
  232SOL    HW2  696   2.542   1.957   0.650  3.5807  0.6244  0.4108
  233SOL     OW  697   0.337   2.473   0.534  0.5036 -0.4625  0.0661
  233SOL    HW1  698   0.426   2.496   0.572 -0.6487 -0.8018 -1.9974
  233SOL    HW2  699   0.350   2.434   0.438 -2.6311  1.5680 -0.4799
  234SOL     OW  700   0.643   0.755   2.640  0.2890  0.1404 -0.3165
  234SOL    HW1  701   0.606   0.830   2.589  0.9721 -3.7329  3.4725
  234SOL    HW2  702   0.709   0.783   2.710 -1.6097  0.1889 -2.1230
  235SOL     OW  703   2.635   0.456   2.358 -0.2117 -0.3146 -0.1537
  235SOL    HW1  704   2.584   0.371   2.384 -2.0173 -0.1084  1.9494
  235SOL    HW2  705   2.729   0.427   2.334 -1.4267  0.6414 -1.5327
  236SOL     OW  706   1.777   2.479   1.234 -0.4220  0.9446  0.0071
  236SOL    HW1  707   1.796   2.483   1.336  0.2288 -1.6889 -1.8890
  236SOL    HW2  708   1.810   2.387   1.198 -0.9483 -1.1726  0.7097
  237SOL     OW  709   0.755   1.799   2.195 -0.3753  1.2172  0.2796
  237SOL    HW1  710   0.846   1.756   2.175  1.5092  0.6776 -2.1482
  237SOL    HW2  711   0.759   1.871   2.264  0.2541 -0.7133 -0.3364
  238SOL     OW  712   1.073   0.384   2.231 -0.1495  0.2130  0.1161
  238SOL    HW1  713   1.061   0.300   2.290 -0.6629 -2.2728  1.7435
  238SOL    HW2  714   1.178   0.389   2.222  0.7883 -0.8971 -0.0776
  239SOL     OW  715   0.339   2.051   1.896  0.3533  0.1209 -0.4311
  239SOL    HW1  716   0.341   2.135   1.949 -0.3688 -0.3308 -0.3329
  239SOL    HW2  717   0.314   2.057   1.800  1.4130 -0.9608  1.4159
  240SOL     OW  718   2.702   2.737   0.263 -0.0511 -0.1495  0.7848
  240SOL    HW1  719   2.618   2.679   0.274 -0.9073  0.3732  0.9176
  240SOL    HW2  720   2.723   2.776   0.352  0.2498 -1.1898 -2.7991
  241SOL     OW  721   2.549   0.978   1.116 -0.0097  0.0524 -0.0349
  241SOL    HW1  722   2.522   0.957   1.210 -0.2253 -1.4083 -3.0777
  241SOL    HW2  723   2.469   0.965   1.052 -3.2309 -0.4735 -0.6439
  242SOL     OW  724   2.138   2.447   2.173  0.3095  0.2500  0.1648
  242SOL    HW1  725   2.135   2.448   2.276 -0.2646 -0.1533 -0.4113
  242SOL    HW2  726   2.223   2.480   2.133  0.3517 -1.5975  2.5165
  243SOL     OW  727   0.770   2.764   1.606  0.1343 -0.3718  0.2766
  243SOL    HW1  728   0.794   2.722   1.513  0.0826 -1.8459 -0.4288
  243SOL    HW2  729   0.753   2.865   1.604 -1.0687  0.8382  1.3396
  244SOL     OW  730   2.198   0.519   2.882 -0.5873  0.2635  0.0628
  244SOL    HW1  731   2.138   0.512   2.800  2.4224 -0.9108 -0.2873
  244SOL    HW2  732   2.251   0.604   2.890 -0.4439 -1.2854  0.7672
  245SOL     OW  733   1.453   0.575   1.101  0.1366 -0.2760 -0.1045
  245SOL    HW1  734   1.418   0.652   1.159 -0.4656 -0.1521  0.0147
  245SOL    HW2  735   1.374   0.530   1.057  2.2656 -0.2898  0.9065
  246SOL     OW  736   1.770   2.359   3.078  0.1312 -0.1683  0.4116
  246SOL    HW1  737   1.823   2.382   2.991 -0.7247  2.4550  0.8800
  246SOL    HW2  738   1.672   2.376   3.067  0.1470 -0.8218 -0.6456
  247SOL     OW  739   1.091   0.763   2.364 -0.0867  0.1236 -0.0977
  247SOL    HW1  740   1.121   0.672   2.392 -2.1581  1.5496 -1.5779
  247SOL    HW2  741   1.152   0.798   2.291 -1.9643 -0.0336  0.8371
  248SOL     OW  742   0.523   1.792   1.950  0.2094 -0.2435 -0.2196
  248SOL    HW1  743   0.497   1.737   2.028  2.1300 -0.3318  0.1182
  248SOL    HW2  744   0.469   1.876   1.951 -1.5837 -0.4622 -0.2943
  249SOL     OW  745   2.515   0.304   0.446 -0.0816 -0.4030  0.3655
  249SOL    HW1  746   2.493   0.327   0.348 -1.2686  0.6282 -1.0276
  249SOL    HW2  747   2.579   0.224   0.453  2.5844 -0.7623  0.0152
  250SOL     OW  748   2.802   0.313   2.928  0.4001  0.2681 -0.4788
  250SOL    HW1  749   2.788   0.373   3.010 -0.6632  0.2451 -2.5898
  250SOL    HW2  750   2.894   0.308   2.884 -2.5207 -3.4945 -1.6393
  251SOL     OW  751   1.418   0.836   3.017  0.1067  0.0239  0.0426
  251SOL    HW1  752   1.487   0.913   3.017  0.5266  1.2702 -3.4840
  251SOL    HW2  753   1.401   0.803   0.011  0.2571 -1.0271  0.2279
  252SOL     OW  754   1.684   1.787   1.864  0.0148  0.3654 -0.4047
  252SOL    HW1  755   1.684   1.888   1.876  3.1540 -1.4375  0.2490
  252SOL    HW2  756   1.742   1.739   1.935 -0.6993 -0.2457  2.9678
  253SOL     OW  757   2.182   2.483   1.110  0.8429 -0.4494  0.3864
  253SOL    HW1  758   2.259   2.532   1.066 -2.8032 -0.3915 -0.1792
  253SOL    HW2  759   2.168   2.512   1.208 -0.3394  2.0656 -0.1656
  254SOL     OW  760   2.330   0.969   0.689  0.2305 -0.2794 -0.0993
  254SOL    HW1  761   2.257   1.042   0.678 -2.1614  3.9586 -1.6233
  254SOL    HW2  762   2.335   0.925   0.781  0.7762 -1.3228 -0.6795
  255SOL     OW  763   1.404   0.096   1.226  0.2222 -0.0025 -0.1154
  255SOL    HW1  764   1.497   0.102   1.194 -0.6988 -1.1996  2.7459
  255SOL    HW2  765   1.353   0.030   1.166  1.6247  1.0190  2.7177
  256SOL     OW  766   1.521   2.524   1.597 -0.3815  0.4732 -0.4957
  256SOL    HW1  767   1.540   2.457   1.523 -1.1090 -2.0586  0.0745
  256SOL    HW2  768   1.471   2.471   1.669 -0.2483 -0.2874  2.9713
  257SOL     OW  769   0.576   3.046   2.672  0.1151  0.8278 -0.3939
  257SOL    HW1  770   0.634   3.072   2.595 -0.3963 -2.3668  4.6753
  257SOL    HW2  771   0.584   2.944   2.691 -0.9764  2.8834 -1.4198
  258SOL     OW  772   1.025   2.502   0.476 -0.1895  0.3328  0.4389
  258SOL    HW1  773   1.004   2.526   0.378 -0.9021  2.7679 -1.8282
  258SOL    HW2  774   1.099   2.435   0.486  1.3009  0.7207 -1.5347
  259SOL     OW  775   1.581   0.310   2.789 -0.9237  0.1975  0.0672
  259SOL    HW1  776   1.483   0.319   2.800 -0.7485  0.3972 -0.3175
  259SOL    HW2  777   1.599   0.254   2.699  1.0888 -0.2604 -0.0742
  260SOL     OW  778   2.503   0.449   1.463 -0.1650 -0.0406  0.0815
  260SOL    HW1  779   2.424   0.416   1.408 -0.4185  0.1283  0.1748
  260SOL    HW2  780   2.535   0.378   1.529 -2.1402 -0.6892 -0.7268
  261SOL     OW  781   0.699   0.536   2.506  0.1084 -0.3607  0.1776
  261SOL    HW1  782   0.664   0.614   2.563 -0.0714  1.0264 -2.0978
  261SOL    HW2  783   0.678   0.558   2.410 -0.6796 -1.2866 -0.3209
  262SOL     OW  784   0.762   2.504   2.322 -0.3067  0.0598 -0.4868
  262SOL    HW1  785   0.680   2.449   2.348  0.2106 -2.0013 -0.7115
  262SOL    HW2  786   0.767   2.509   2.224 -2.8716  1.7615  1.9291
  263SOL     OW  787   0.190   1.657   2.616  0.0798  0.0219  0.1136
  263SOL    HW1  788   0.138   1.746   2.605 -1.6719 -1.3085 -0.0604
  263SOL    HW2  789   0.199   1.606   2.529  3.0875  2.3976  0.0506
  264SOL     OW  790   1.206   1.593   0.704  0.2143  0.1790  0.3705
  264SOL    HW1  791   1.150   1.629   0.781 -1.8271 -1.3672 -1.3192
  264SOL    HW2  792   1.193   1.652   0.623  0.9370 -1.5238 -0.2361
  265SOL     OW  793   1.327   2.544   0.527 -0.0762  0.2559  0.2996
  265SOL    HW1  794   1.421   2.512   0.550  1.8217 -1.0471  2.0846
  265SOL    HW2  795   1.292   2.600   0.602  0.1275 -0.6730 -0.9081
  266SOL     OW  796   1.910   0.791   1.165 -0.0388 -0.2826  0.1052
  266SOL    HW1  797   1.854   0.704   1.169 -1.2785  0.5586 -1.3160
  266SOL    HW2  798   2.011   0.762   1.163  2.3146 -1.2235 -1.7321
  267SOL     OW  799   2.654   1.272   2.932  0.0075  0.1691 -0.1172
  267SOL    HW1  800   2.749   1.274   2.891  0.0664  1.1651 -0.3193
  267SOL    HW2  801   2.609   1.186   2.904 -1.3717 -1.3841  2.8120
  268SOL     OW  802   1.505   0.203   0.075  0.0760 -0.1115  0.3919
  268SOL    HW1  803   1.518   0.184   0.171 -1.6166  0.8010 -0.5154
  268SOL    HW2  804   1.459   0.293   0.070  0.2794 -1.0560 -0.4414
  269SOL     OW  805   2.563   0.656   2.539 -0.0537  0.7924 -0.2602
  269SOL    HW1  806   2.597   0.623   2.630 -1.0421 -1.8565 -0.2424
  269SOL    HW2  807   2.584   0.587   2.467  0.0949 -0.8795 -0.0374
  270SOL     OW  808   3.098   1.494   0.352  0.3466 -0.5392  0.4291
  270SOL    HW1  809   0.013   1.398   0.320  0.4242  1.2546  1.4114
  270SOL    HW2  810   0.060   1.565   0.300 -1.5974  2.4269 -1.1723
  271SOL     OW  811   2.545   1.022   2.891 -0.8233  0.0830  0.2229
  271SOL    HW1  812   2.464   1.017   2.826 -0.0497  0.7478  0.7435
  271SOL    HW2  813   2.595   0.929   2.895  1.3555 -3.2583 -2.1560
  272SOL     OW  814   2.937   2.454   2.346 -0.2454 -0.7433  0.1560
  272SOL    HW1  815   3.019   2.392   2.344 -2.3979  0.3507  1.8687
  272SOL    HW2  816   2.893   2.445   2.437  0.7222 -1.4400  2.2896
  273SOL     OW  817   0.330   2.828   0.710 -0.0838 -0.1712  0.3608
  273SOL    HW1  818   0.393   2.888   0.661  0.9336  0.1913 -0.8772
  273SOL    HW2  819   0.264   2.780   0.651 -0.1446  0.0131  3.2839
  274SOL     OW  820   0.656   2.316   0.661  0.2999 -0.0290  0.1197
  274SOL    HW1  821   0.553   2.324   0.666 -0.5462 -2.7422  3.0342
  274SOL    HW2  822   0.697   2.263   0.734 -1.6275 -1.8934  1.9776
  275SOL     OW  823   2.576   0.979   0.582  0.1079 -0.1355 -0.0862
  275SOL    HW1  824   2.481   0.978   0.618 -0.3271  0.4338 -1.8416
  275SOL    HW2  825   2.603   1.071   0.549  0.0519  0.4015 -0.9271
  276SOL     OW  826   2.472   1.546   1.367  0.0088  0.4069  0.1123
  276SOL    HW1  827   2.522   1.510   1.447 -2.1750 -1.3632  1.4719
  276SOL    HW2  828   2.512   1.521   1.274  1.5412 -0.4851 -0.3212
  277SOL     OW  829   2.679   2.901   0.757 -0.0780 -0.1865 -0.0482
  277SOL    HW1  830   2.588   2.940   0.770  2.2918  1.5542 -3.7708
  277SOL    HW2  831   2.706   2.839   0.834  2.9552 -1.9557 -1.7172
  278SOL     OW  832   1.509   0.241   2.343  0.1288 -0.4349 -0.4447
  278SOL    HW1  833   1.501   0.142   2.362  1.7467  0.2693 -0.8354
  278SOL    HW2  834   1.554   0.292   2.420  1.8788  1.4967  0.1953
  279SOL     OW  835   1.643   2.643   0.835 -0.3130 -0.2727  0.5788
  279SOL    HW1  836   1.620   2.719   0.774 -0.6937  0.1340  1.3011
  279SOL    HW2  837   1.712   2.578   0.795 -1.1821 -0.5082 -0.9080
  280SOL     OW  838   0.721   1.056   0.814  0.3330  0.4092 -0.0315
  280SOL    HW1  839   0.765   1.120   0.879  0.6586  0.5993 -1.0846
  280SOL    HW2  840   0.634   1.095   0.786  1.1021 -1.2642  2.7672
  281SOL     OW  841   2.528   1.505   3.007 -0.1152 -0.8971 -0.5183
  281SOL    HW1  842   2.572   1.413   2.981  2.0012 -1.1840  0.3951
  281SOL    HW2  843   2.530   1.570   2.930  0.6765 -2.3202 -2.0560
  282SOL     OW  844   0.030   1.189   0.339  0.1356 -0.3491  0.4002
  282SOL    HW1  845   3.030   1.160   0.358 -0.3507  1.2419 -1.7446
  282SOL    HW2  846   0.089   1.157   0.417  3.0013 -0.6119  0.0175
  283SOL     OW  847   1.880   2.685   2.727 -0.6976 -0.3213  0.5080
  283SOL    HW1  848   1.952   2.698   2.660  0.2109  1.7623  0.2438
  283SOL    HW2  849   1.793   2.661   2.684  0.6045  1.6769  2.8701
  284SOL     OW  850   1.109   0.219   0.106  0.2128  0.0263 -0.2463
  284SOL    HW1  851   1.135   0.122   0.129  1.0388 -3.1843 -1.0342
  284SOL    HW2  852   1.158   0.284   0.167  0.4520  0.7103  0.1398
  285SOL     OW  853   2.511   1.503   2.435 -0.1690 -0.0301 -0.0055
  285SOL    HW1  854   2.466   1.418   2.408  2.1820  2.0792 -1.9106
  285SOL    HW2  855   2.444   1.571   2.467  0.3592 -0.7381 -0.4612
  286SOL     OW  856   1.557   2.426   0.645  0.4639 -0.1260 -0.5608
  286SOL    HW1  857   1.637   2.473   0.677 -2.9109 -0.2987 -0.7212
  286SOL    HW2  858   1.567   2.328   0.669  1.7229  2.1454 -0.0024
  287SOL     OW  859   1.553   0.735   0.845  0.0743 -0.2974 -0.3965
  287SOL    HW1  860   1.484   0.683   0.791  3.0654  0.5220  3.7320
  287SOL    HW2  861   1.577   0.681   0.929 -2.2234 -0.2314  4.4433
  288SOL     OW  862   0.903   2.888   2.321 -0.5008 -0.1996  0.3612
  288SOL    HW1  863   0.876   2.841   2.408 -2.1676  0.2689  0.5961
  288SOL    HW2  864   0.827   2.890   2.255  1.9381 -1.0747  0.6935
  289SOL     OW  865   0.040   1.276   0.746  0.7542 -0.0960  0.0726
  289SOL    HW1  866   0.001   1.320   0.828 -0.0067 -1.7221  0.6813
  289SOL    HW2  867   3.074   1.212   0.707  0.5394 -2.9120  1.0120
  290SOL     OW  868   1.277   2.230   0.891 -0.1814  0.0334  0.5352
  290SOL    HW1  869   1.296   2.330   0.863  0.7992  1.1301  0.4820
  290SOL    HW2  870   1.280   2.171   0.807  1.7848  0.8981 -0.2229
  291SOL     OW  871   1.300   3.056   0.314  0.4492  0.2791 -0.2070
  291SOL    HW1  872   1.247   3.042   0.225 -0.9981 -0.9523  1.5125
  291SOL    HW2  873   1.293   2.971   0.372 -1.9866  2.1451  0.0224
  292SOL     OW  874   0.467   0.276   2.332 -0.0388 -0.0181  0.0214
  292SOL    HW1  875   0.555   0.316   2.361  0.2860 -0.9540 -0.0144
  292SOL    HW2  876   0.394   0.326   2.382 -0.0150 -1.0740 -1.4432
  293SOL     OW  877   2.561   1.559   0.793  0.1242  0.3660 -0.0186
  293SOL    HW1  878   2.599   1.594   0.703 -0.0878 -0.8666  0.3933
  293SOL    HW2  879   2.551   1.639   0.859  1.9655 -2.4421 -3.3400
  294SOL     OW  880   0.720   0.152   2.138 -0.5489 -0.3470 -0.2585
  294SOL    HW1  881   0.702   0.158   2.236 -0.4511 -0.5793 -2.1078
  294SOL    HW2  882   0.638   0.124   2.086 -0.2218  2.0805 -1.0458
  295SOL     OW  883   1.034   1.662   0.884 -0.2112  0.3262  0.0128
  295SOL    HW1  884   1.028   1.573   0.930  0.4211  3.4326 -1.8686
  295SOL    HW2  885   0.942   1.681   0.844 -0.8497 -0.9862  1.4291
  296SOL     OW  886   2.360   1.711   0.512  0.4126  0.0046  0.4230
  296SOL    HW1  887   2.357   1.803   0.470  1.5522  3.2459  0.6198
  296SOL    HW2  888   2.436   1.658   0.473 -1.2108  0.5954 -1.6747
  297SOL     OW  889   2.555   3.023   3.030  0.4554  0.1879 -0.3482
  297SOL    HW1  890   2.500   2.953   2.979 -1.0467 -0.4002  0.7429
  297SOL    HW2  891   2.524   3.028   0.026 -2.2865 -1.0349 -0.7573
  298SOL     OW  892   1.039   0.277   2.696 -0.5492 -0.3757  0.1629
  298SOL    HW1  893   0.970   0.342   2.716  3.4887 -3.4485 -0.4262
  298SOL    HW2  894   1.055   0.219   2.777  0.8385  0.1657 -0.1733
  299SOL     OW  895   1.138   2.717   1.921  0.3764  0.4896 -0.4998
  299SOL    HW1  896   1.101   2.808   1.894 -1.4887 -2.9383  0.5233
  299SOL    HW2  897   1.081   2.684   2.002 -1.8732 -0.3167  3.4069
  300SOL     OW  898   2.771   3.007   1.937 -0.0188  0.1588  0.2166
  300SOL    HW1  899   2.756   3.013   2.042 -1.6980  1.8727  1.4552
  300SOL    HW2  900   2.804   0.001   1.910  0.9408  1.1957  0.4647
  301SOL     OW  901   1.741   0.401   1.850  0.3382 -0.2339 -0.2332
  301SOL    HW1  902   1.699   0.346   1.924  0.4478  0.7550  0.6047
  301SOL    HW2  903   1.765   0.349   1.763 -2.3008  0.1269 -2.0826
  302SOL     OW  904   0.176   2.273   0.006  0.0307 -0.0613 -0.4809
  302SOL    HW1  905   0.217   2.211   0.070 -0.3787  0.6885 -5.0781
  302SOL    HW2  906   0.124   2.351   0.049  0.0614 -0.0355  2.0625
  303SOL     OW  907   1.822   2.443   1.543  0.1892  0.0454 -0.3386
  303SOL    HW1  908   1.733   2.404   1.571  1.9650  1.1580 -2.4394
  303SOL    HW2  909   1.908   2.398   1.573 -1.3915  0.7243  0.1883
  304SOL     OW  910   2.832   0.722   1.359 -0.5079 -0.5405  0.0237
  304SOL    HW1  911   2.849   0.681   1.266 -1.3120 -1.9467  0.4719
  304SOL    HW2  912   2.827   0.824   1.355 -2.5585  1.5605 -0.6398
  305SOL     OW  913   0.483   1.139   0.732 -0.1807  0.2756 -0.0751
  305SOL    HW1  914   0.402   1.138   0.797  1.4312 -0.9503  0.8605
  305SOL    HW2  915   0.466   1.205   0.660  0.1567 -0.6638  0.8702
  306SOL     OW  916   0.427   1.338   2.780  0.0324 -0.0868 -0.1626
  306SOL    HW1  917   0.488   1.271   2.823 -0.1724  1.5404 -2.4076
  306SOL    HW2  918   0.341   1.297   2.745 -0.1951 -1.5926 -0.7687
  307SOL     OW  919   1.213   0.323   1.596  0.3416  0.3260  0.6077
  307SOL    HW1  920   1.255   0.233   1.570  0.8469  0.3086  2.8762
  307SOL    HW2  921   1.139   0.305   1.660 -1.0229 -1.0141  1.2359
  308SOL     OW  922   0.405   0.901   1.019  0.3781  0.5833 -0.5279
  308SOL    HW1  923   0.375   0.826   1.079 -1.5792  0.4590 -1.4498
  308SOL    HW2  924   0.437   0.860   0.931 -0.5728  0.5628 -0.4295
  309SOL     OW  925   2.336   0.949   0.964 -0.1267 -0.1289 -0.1758
  309SOL    HW1  926   2.250   0.895   0.943  2.0942 -0.6169 -0.5415
  309SOL    HW2  927   2.311   1.050   0.959 -1.1628 -1.2729 -1.9270
  310SOL     OW  928   0.550   1.834   2.797 -0.3778  0.5326  0.4863
  310SOL    HW1  929   0.523   1.740   2.770 -0.9090 -0.1793 -1.3470
  310SOL    HW2  930   0.466   1.895   2.799 -0.7678  0.1400  1.8880
  311SOL     OW  931   2.515   2.668   2.533  0.3464 -0.5594  0.0111
  311SOL    HW1  932   2.554   2.684   2.438 -0.8945 -1.6240 -0.7290
  311SOL    HW2  933   2.472   2.752   2.572 -2.8467 -1.3622 -1.0549
  312SOL     OW  934   2.158   2.157   3.042  0.5325 -0.0016 -0.1960
  312SOL    HW1  935   2.068   2.145   3.095 -0.4424 -3.8853 -1.8397
  312SOL    HW2  936   2.230   2.087   3.067 -0.2242  0.1843  2.2830
  313SOL     OW  937   0.540   0.014   0.294 -0.1793  0.1434 -0.0646
  313SOL    HW1  938   0.606   0.090   0.311  0.8362  1.2830  0.9025
  313SOL    HW2  939   0.547   3.038   0.365  0.8822 -0.6537 -1.0643
  314SOL     OW  940   2.259   1.508   2.691 -0.1919 -0.2563 -0.4395
  314SOL    HW1  941   2.191   1.512   2.763  1.0490  1.6885 -0.8136
  314SOL    HW2  942   2.332   1.577   2.709 -0.4647 -0.2899 -0.4794
  315SOL     OW  943   1.624   0.439   2.501 -0.6400  0.0749  0.4440
  315SOL    HW1  944   1.722   0.473   2.517  3.4282  2.2162  0.0875
  315SOL    HW2  945   1.549   0.504   2.527  0.1230  0.0418 -1.3225
  316SOL     OW  946   3.078   0.819   0.778 -0.4556 -0.1344 -0.2718
  316SOL    HW1  947   3.014   0.785   0.707  3.4030 -3.6315  0.9223
  316SOL    HW2  948   3.051   0.911   0.808 -1.0735  1.8518 -0.3772
  317SOL     OW  949   0.352   2.698   2.937  0.7688  0.4656  0.0134
  317SOL    HW1  950   0.316   2.728   2.845  1.4859 -2.0356  0.0965
  317SOL    HW2  951   0.437   2.755   2.951 -0.1743  0.5170 -2.1279
  318SOL     OW  952   2.382   2.613   0.963 -0.3371 -1.4533 -0.1032
  318SOL    HW1  953   2.352   2.667   0.879 -2.6357  0.6734 -1.3057
  318SOL    HW2  954   2.413   2.678   1.037  3.0373  1.4920  3.7916
  319SOL     OW  955   0.880   1.587   2.876  0.3153 -0.1074  0.2725
  319SOL    HW1  956   0.919   1.649   2.945  1.1269  1.0002  0.0794
  319SOL    HW2  957   0.901   1.611   2.778  0.4840 -0.3235  0.6863
  320SOL     OW  958   0.468   1.808   1.179 -0.2103  0.1966 -0.1280
  320SOL    HW1  959   0.418   1.790   1.268 -2.6618  0.1604  3.5199
  320SOL    HW2  960   0.407   1.811   1.097  0.6922  1.1436  0.1922
  321SOL     OW  961   1.385   2.794   1.965 -0.2954  0.1701 -0.3259
  321SOL    HW1  962   1.289   2.772   1.953  2.3919 -1.0367  1.0898
  321SOL    HW2  963   1.397   2.890   1.989  0.6961 -0.7665  0.5422
  322SOL     OW  964   2.281   1.933   2.335  0.3161 -0.1498 -0.5332
  322SOL    HW1  965   2.227   1.993   2.399 -0.2491  2.2250 -0.8094
  322SOL    HW2  966   2.325   1.989   2.261  0.2653 -0.7489  0.8572
  323SOL     OW  967   2.780   0.058   0.763  0.3361 -0.1444  0.1023
  323SOL    HW1  968   2.771   3.055   0.789 -1.5858 -3.1574  0.2260
  323SOL    HW2  969   2.705   0.108   0.815 -0.8263 -0.9089  0.9369
  324SOL     OW  970   2.899   2.734   2.502  0.0636  0.6144 -0.0413
  324SOL    HW1  971   2.979   2.676   2.541  2.4312  0.4045  0.4845
  324SOL    HW2  972   2.896   2.719   2.400 -0.2765 -0.1740  0.8633
  325SOL     OW  973   1.132   0.520   2.463 -0.0823  0.3331 -0.4106
  325SOL    HW1  974   1.119   0.493   2.363 -0.6882  1.8691  0.3531
  325SOL    HW2  975   1.120   0.445   2.531 -0.3403  1.4142 -0.7520
  326SOL     OW  976   2.229   2.643   1.623  0.4461 -0.2167 -0.2006
  326SOL    HW1  977   2.319   2.643   1.675  0.9445  2.2374 -1.1760
  326SOL    HW2  978   2.153   2.660   1.689  0.3303 -0.9697  1.3547
  327SOL     OW  979   2.466   3.004   0.180  0.3535 -0.3523  0.0256
  327SOL    HW1  980   2.427   3.085   0.238 -2.6606 -0.1983  2.9356
  327SOL    HW2  981   2.399   2.932   0.196  1.1347  1.2247  2.0986
  328SOL     OW  982   0.034   1.245   1.546 -0.3176  0.0911  0.5053
  328SOL    HW1  983   0.103   1.173   1.574  1.5373 -1.1100  1.8897
  328SOL    HW2  984   0.068   1.341   1.567  1.8753  0.1936 -1.0804
  329SOL     OW  985   2.010   0.568   1.602  0.0531 -0.1968  0.2263
  329SOL    HW1  986   1.956   0.498   1.653 -0.2133  0.9717 -2.2403
  329SOL    HW2  987   1.951   0.648   1.570  0.2051  0.8263  0.9440
  330SOL     OW  988   0.104   0.949   1.151  0.3594  0.5760  0.0630
  330SOL    HW1  989   0.062   0.991   1.070  3.3407  0.0373  1.2082
  330SOL    HW2  990   0.124   0.852   1.123  1.6315 -1.0284 -1.7592
  331SOL     OW  991   0.623   1.324   1.996 -0.1468  0.2883 -0.7443
  331SOL    HW1  992   0.693   1.310   2.071  0.6858  0.3646  4.5710
  331SOL    HW2  993   0.533   1.362   2.028 -2.3413 -1.1294  1.3641
  332SOL     OW  994   0.172   2.541   1.339  0.2602  0.1303 -0.6610
  332SOL    HW1  995   0.099   2.577   1.402  1.0573  0.3644 -1.8697
  332SOL    HW2  996   0.223   2.465   1.384 -0.7972 -0.7510  0.9769
  333SOL     OW  997   2.966   2.925   0.956 -0.0217 -0.0951 -0.2602
  333SOL    HW1  998   3.015   3.018   0.948  3.0842  1.2651 -1.0841
  333SOL    HW2  999   3.035   2.851   0.937 -3.1037 -0.7640  4.0335
  334SOL     OW 1000   0.188   1.145   0.552  0.3641  0.6133  0.3655
  334SOL    HW1 1001   0.260   1.202   0.506  1.0015  0.2977  1.1531
  334SOL    HW2 1002   0.150   1.189   0.636 -1.8070  0.1248  0.0480
  335SOL     OW 1003   0.341   2.416   2.929 -0.3527  0.4336 -0.1513
  335SOL    HW1 1004   0.294   2.359   2.998 -1.6853  0.5301  1.7021
  335SOL    HW2 1005   0.318   2.512   2.946  0.9196 -0.0265  0.3192
  336SOL     OW 1006   2.862   2.697   2.252  0.0288 -0.3073  0.0624
  336SOL    HW1 1007   2.876   2.606   2.290  0.7732  0.9792 -2.2878
  336SOL    HW2 1008   2.819   2.692   2.160  1.2585 -0.1693 -0.0231
  337SOL     OW 1009   1.939   2.080   1.780 -0.3134 -0.2632  0.1077
  337SOL    HW1 1010   1.839   2.088   1.803  0.4703 -1.6551  0.8481
  337SOL    HW2 1011   1.941   2.003   1.711  0.1134 -1.6095  1.3643
  338SOL     OW 1012   0.837   0.466   2.751  0.3196  0.2057  0.4239
  338SOL    HW1 1013   0.752   0.461   2.808  0.1277  1.8874  4.7629
  338SOL    HW2 1014   0.814   0.485   2.655  0.3292  2.6658 -0.1804
  339SOL     OW 1015   0.294   1.163   2.076 -0.2705  0.7416  0.2486
  339SOL    HW1 1016   0.276   1.234   2.007  1.7231 -0.1514  1.7454
  339SOL    HW2 1017   0.325   1.201   2.164 -1.9855 -0.0497 -2.0202
  340SOL     OW 1018   1.981   2.988   0.729  0.4474  0.2799  0.0314
  340SOL    HW1 1019   2.020   3.064   0.780 -1.9711  2.5918 -0.1065
  340SOL    HW2 1020   1.879   2.971   0.743 -1.3912 -0.5489 -0.7452
  341SOL     OW 1021   2.069   1.379   0.761 -0.1287 -0.1782  0.7424
  341SOL    HW1 1022   1.991   1.413   0.823  0.4724  0.3235 -1.0737
  341SOL    HW2 1023   2.150   1.431   0.787 -0.4452  0.8295 -0.3917
  342SOL     OW 1024   2.187   2.671   0.007  0.4067 -0.0704 -0.0876
  342SOL    HW1 1025   2.245   2.592   3.082 -0.8208 -1.4075  1.5030
  342SOL    HW2 1026   2.098   2.638   0.035 -0.7824  1.6659 -2.2712
  343SOL     OW 1027   0.887   2.194   1.533  0.1886  0.2841  1.1757
  343SOL    HW1 1028   0.886   2.276   1.599  0.3605 -1.2889  3.0336
  343SOL    HW2 1029   0.851   2.219   1.441 -4.1276 -0.7825 -0.6627
  344SOL     OW 1030   2.230   2.583   1.353  0.0226 -0.6486 -0.5208
  344SOL    HW1 1031   2.225   2.570   1.451 -0.1462  0.5114 -1.7484
  344SOL    HW2 1032   2.325   2.599   1.319 -0.4927  0.0353  3.4664
  345SOL     OW 1033   2.656   2.033   0.060 -0.0252  0.0137  0.2406
  345SOL    HW1 1034   2.697   2.034   3.062  1.5812 -1.1724 -2.3040
  345SOL    HW2 1035   2.714   1.984   0.130  0.4428 -2.1855  0.2367
  346SOL     OW 1036   1.802   2.188   1.097  0.5735  1.1076  0.0382
  346SOL    HW1 1037   1.823   2.162   0.998 -1.4674  1.8196 -0.3148
  346SOL    HW2 1038   1.704   2.189   1.117 -1.5736  0.3165 -1.4357
  347SOL     OW 1039   1.365   1.911   1.218 -0.0966 -0.1267 -1.1661
  347SOL    HW1 1040   1.311   1.848   1.156 -0.8483 -0.3428  0.6308
  347SOL    HW2 1041   1.320   2.004   1.209  0.5179  4.8320 -2.8929
  348SOL     OW 1042   0.475   1.695   2.188  0.1250  0.3797  0.4969
  348SOL    HW1 1043   0.398   1.744   2.235  1.4310 -1.6640 -0.4241
  348SOL    HW2 1044   0.563   1.747   2.200  0.2522 -1.2827 -0.3549
  349SOL     OW 1045   1.890   1.785   1.012  0.7926  0.5959 -0.1472
  349SOL    HW1 1046   1.795   1.829   1.021  1.5411  1.6871  0.5006
  349SOL    HW2 1047   1.935   1.786   1.104  0.1723 -0.2329  2.5916
  350SOL     OW 1048   2.666   2.445   0.683  0.3243 -0.3751 -0.1953
  350SOL    HW1 1049   2.764   2.423   0.668  1.8454  3.5353 -1.2038
  350SOL    HW2 1050   2.636   2.429   0.781 -1.8842 -1.7427 -0.8180
  351SOL     OW 1051   0.912   0.052   1.451 -0.7032 -0.0463 -0.7051
  351SOL    HW1 1052   0.915   0.145   1.494  0.4963 -0.3444  1.2564
  351SOL    HW2 1053   0.960   0.050   1.357  1.7654 -2.9269 -3.2367
  352SOL     OW 1054   0.139   1.629   1.027 -0.4204 -0.1369 -0.3219
  352SOL    HW1 1055   0.167   1.530   1.022 -2.2625 -5.4656 -0.0404
  352SOL    HW2 1056   0.118   1.655   1.122  1.1195 -0.8200 -0.6336
  353SOL     OW 1057   1.162   1.499   2.214 -0.7970  0.1134 -0.2602
  353SOL    HW1 1058   1.146   1.409   2.169 -0.7618 -1.3074 -2.3576
  353SOL    HW2 1059   1.199   1.488   2.309  0.1223 -1.4385 -2.0737
  354SOL     OW 1060   1.538   0.069   1.876 -0.2006 -0.5715  0.1103
  354SOL    HW1 1061   1.509   0.165   1.858  2.6964  1.6860 -0.2365
  354SOL    HW2 1062   1.642   0.056   1.872  1.8817 -1.2574  0.6593
  355SOL     OW 1063   2.619   1.222   0.486 -0.0086  0.0487  0.3311
  355SOL    HW1 1064   2.565   1.259   0.567 -0.3832  1.6717  0.8218
  355SOL    HW2 1065   2.564   1.231   0.399 -1.7690  0.2163 -0.3109
  356SOL     OW 1066   2.793   1.678   1.385 -0.0733 -0.1460 -0.4281
  356SOL    HW1 1067   2.706   1.702   1.436  1.1389 -0.0472 -1.4561
  356SOL    HW2 1068   2.769   1.654   1.290  1.9676 -0.6836 -0.3105
  357SOL     OW 1069   0.418   2.639   1.274 -0.5197 -0.0999  0.0087
  357SOL    HW1 1070   0.321   2.620   1.305 -1.9765  0.3022 -0.7071
  357SOL    HW2 1071   0.443   2.737   1.273  2.0946 -1.8765 -2.4755
  358SOL     OW 1072   2.657   1.509   1.892  0.1913 -0.3370 -1.1985
  358SOL    HW1 1073   2.587   1.532   1.958  1.6820  0.8813 -0.4969
  358SOL    HW2 1074   2.616   1.502   1.804 -0.5338  0.7364  3.3990
  359SOL     OW 1075   2.330   2.896   2.906  0.0845  0.0976  0.4638
  359SOL    HW1 1076   2.277   2.836   2.970  0.1096  1.6552 -1.5199
  359SOL    HW2 1077   2.273   2.970   2.869 -2.2174 -0.3236  0.7780
  360SOL     OW 1078   1.032   0.140   0.839 -0.0788  0.1472  0.0220
  360SOL    HW1 1079   1.111   0.208   0.834  0.9859  0.3460  0.0426
  360SOL    HW2 1080   1.070   0.047   0.843 -1.5043  3.7279 -1.2199
  361SOL     OW 1081   2.173   0.228   0.733  0.0612  0.3989  0.3197
  361SOL    HW1 1082   2.102   0.305   0.721 -0.5805  1.5611  0.7476
  361SOL    HW2 1083   2.156   0.178   0.817  0.0543  0.6509 -0.2921
  362SOL     OW 1084   1.974   1.269   1.056 -0.0797  0.3447  0.6087
  362SOL    HW1 1085   2.064   1.254   1.107  2.2116 -0.2424  0.1796
  362SOL    HW2 1086   1.933   1.180   1.035  3.0721  1.4855 -0.7957
  363SOL     OW 1087   2.263   0.998   2.197  0.0870  0.3622 -0.3932
  363SOL    HW1 1088   2.184   1.038   2.247  0.0468  0.9552  0.3673
  363SOL    HW2 1089   2.292   1.065   2.127 -0.0679 -0.4724 -1.7300
  364SOL     OW 1090   0.281   0.318   1.246  0.1221 -0.3865  0.0109
  364SOL    HW1 1091   0.253   0.413   1.269 -0.0048  1.0664  3.0952
  364SOL    HW2 1092   0.216   0.241   1.265 -2.1913  0.5193 -0.6166
  365SOL     OW 1093   0.684   0.158   2.989  0.4575  0.7124  0.2759
  365SOL    HW1 1094   0.601   0.155   2.926 -3.3837  1.3778 -0.0619
  365SOL    HW2 1095   0.764   0.104   2.947 -1.9735 -1.6699  0.2721
  366SOL     OW 1096   1.940   2.441   2.835  0.3499 -0.1493  0.2615
  366SOL    HW1 1097   1.921   2.526   2.780 -2.1035 -1.5694  0.4607
  366SOL    HW2 1098   2.041   2.423   2.832  3.4573 -1.3333 -0.1645
  367SOL     OW 1099   2.946   2.299   0.088 -0.7984 -0.4832  0.3545
  367SOL    HW1 1100   2.876   2.339   0.153 -3.2712 -0.3647  2.6147
  367SOL    HW2 1101   3.035   2.361   0.089  1.2860  3.1135 -0.5814
  368SOL     OW 1102   2.962   1.261   1.327 -0.2520  0.0634  0.0886
  368SOL    HW1 1103   2.990   1.334   1.263  1.1031 -2.2079  2.4275
  368SOL    HW2 1104   3.049   1.246   1.379 -0.1366 -0.0113 -1.5096
  369SOL     OW 1105   0.928   0.032   2.950  0.1543  0.0058 -0.2256
  369SOL    HW1 1106   0.922   3.035   2.926 -0.7346  3.6687 -1.0641
  369SOL    HW2 1107   1.023   0.065   2.966 -1.7134 -0.0826  2.2598
  370SOL     OW 1108   2.748   0.483   0.489  0.0040 -0.6701  0.2859
  370SOL    HW1 1109   2.665   0.430   0.509  1.1682  1.0876 -1.5539
  370SOL    HW2 1110   2.828   0.420   0.472  2.0653  0.3450 -0.0172
  371SOL     OW 1111   1.627   2.178   0.780 -0.0450  0.0721 -0.5454
  371SOL    HW1 1112   1.597   2.108   0.712  0.8462 -2.2310  0.6574
  371SOL    HW2 1113   1.734   2.178   0.781  2.2640 -0.3896 -1.0477
  372SOL     OW 1114   2.918   0.677   2.594 -0.8457 -0.4478  0.0306
  372SOL    HW1 1115   2.919   0.679   2.492 -1.5949  1.1874  1.7403
  372SOL    HW2 1116   2.903   0.772   2.628 -2.9801 -0.5215  0.7035
  373SOL     OW 1117   2.732   1.573   1.123  0.0826 -0.1740 -0.8981
  373SOL    HW1 1118   2.757   1.644   1.059 -0.0656 -1.9484 -0.6870
  373SOL    HW2 1119   2.653   1.518   1.095  2.1569 -1.8337  1.5260
  374SOL     OW 1120   0.532   2.884   2.965 -0.2352 -0.3393  0.0234
  374SOL    HW1 1121   0.552   2.931   3.059  1.3209  1.3369  1.2455
  374SOL    HW2 1122   0.520   2.952   2.891 -1.3337 -0.9318 -1.8851
  375SOL     OW 1123   0.147   2.987   0.084  0.1221  0.3451  0.5332
  375SOL    HW1 1124   0.179   3.011   0.179 -1.4068 -1.6067  2.8112
  375SOL    HW2 1125   0.055   3.033   0.073  1.9038 -1.0807  0.3030
  376SOL     OW 1126   3.019   2.106   1.418 -0.1197  0.1379  0.1237
  376SOL    HW1 1127   3.019   2.035   1.485  0.3888  0.0723 -0.5981
  376SOL    HW2 1128   3.063   2.076   1.333 -1.2482 -1.0868 -0.8064
  377SOL     OW 1129   1.499   2.245   2.549 -0.0548  0.6418  0.6836
  377SOL    HW1 1130   1.558   2.266   2.629  2.0597 -0.6268 -0.5148
  377SOL    HW2 1131   1.532   2.152   2.523 -1.7908 -0.6695  1.1870
  378SOL     OW 1132   0.565   0.402   3.079  0.5079 -0.5941  0.1140
  378SOL    HW1 1133   0.585   0.472   3.007  1.4164  0.2742 -1.8274
  378SOL    HW2 1134   0.594   0.311   3.041 -2.5128  2.5427  0.2195
  379SOL     OW 1135   0.617   0.893   0.368 -0.4633 -0.1028 -0.2631
  379SOL    HW1 1136   0.663   0.944   0.290  0.9981  0.7335 -0.5609
  379SOL    HW2 1137   0.618   0.937   0.457  1.4248  2.6319  1.9101
  380SOL     OW 1138   3.022   1.750   1.816  0.2199 -0.1511  0.2160
  380SOL    HW1 1139   2.964   1.735   1.898  0.8340 -0.0452  0.3232
  380SOL    HW2 1140   0.018   1.773   1.843 -0.8754  1.4878  0.6867
  381SOL     OW 1141   0.236   1.099   1.658 -0.3890 -0.0702  0.1127
  381SOL    HW1 1142   0.303   1.070   1.592  1.0571  3.0529  0.8715
  381SOL    HW2 1143   0.210   1.026   1.725 -1.5597  1.6474  1.9282
  382SOL     OW 1144   2.374   1.958   0.352  0.0793 -0.0579 -0.2493
  382SOL    HW1 1145   2.306   2.028   0.318 -1.2731 -0.1951 -3.0648
  382SOL    HW2 1146   2.362   1.869   0.299 -2.1359 -2.8150 -1.4938
  383SOL     OW 1147   2.803   1.987   2.924 -0.2109  0.4113 -0.1584
  383SOL    HW1 1148   2.895   1.940   2.923  0.1574 -1.0338 -1.7626
  383SOL    HW2 1149   2.823   2.087   2.910  1.5010  3.9164 -0.3916
  384SOL     OW 1150   0.833   2.240   2.466 -0.0118 -0.3973 -0.0983
  384SOL    HW1 1151   0.750   2.220   2.521  0.0551 -1.0652 -1.2774
  384SOL    HW2 1152   0.813   2.313   2.393  3.2936 -0.2919  0.9696
  385SOL     OW 1153   2.928   1.312   0.961 -0.1129  0.6422 -0.1174
  385SOL    HW1 1154   2.957   1.379   1.032 -0.2292 -0.4332  1.1132
  385SOL    HW2 1155   2.836   1.270   0.973  2.5755 -0.1555  2.1154
  386SOL     OW 1156   2.225   1.541   1.471 -0.0982 -0.0841 -0.2372
  386SOL    HW1 1157   2.310   1.530   1.417  4.6095 -2.4400 -0.5587
  386SOL    HW2 1158   2.152   1.567   1.406  2.3710  0.0823  1.2359
  387SOL     OW 1159   2.754   1.269   1.981  0.2141 -0.3604  0.1013
  387SOL    HW1 1160   2.829   1.232   1.925  0.4773 -1.8278  0.1240
  387SOL    HW2 1161   2.722   1.361   1.944 -1.8621  0.7273 -0.3997
  388SOL     OW 1162   2.933   1.311   2.193 -0.0437  0.9414  0.6419
  388SOL    HW1 1163   2.838   1.275   2.181 -0.4125  1.5470  0.0718
  388SOL    HW2 1164   2.978   1.325   2.100  0.5723 -1.4421 -1.4012
  389SOL     OW 1165   1.830   1.219   1.848  0.4000 -0.7817 -0.5441
  389SOL    HW1 1166   1.838   1.295   1.915  0.7614 -1.2723 -0.5489
  389SOL    HW2 1167   1.828   1.134   1.894 -0.2123  2.5617  2.1700
  390SOL     OW 1168   1.733   2.806   0.453  0.0245 -0.7292 -0.0068
  390SOL    HW1 1169   1.824   2.760   0.460  1.7183  0.6628 -1.4184
  390SOL    HW2 1170   1.705   2.808   0.358 -1.7741 -0.8230  0.4852
  391SOL     OW 1171   2.157   1.716   0.963 -0.3111 -0.3694 -0.5832
  391SOL    HW1 1172   2.205   1.777   1.022 -0.5240 -0.3746  1.0729
  391SOL    HW2 1173   2.058   1.714   0.991  1.1101 -0.3062  0.7348
  392SOL     OW 1174   2.609   2.454   0.952 -0.1350 -0.3619 -0.2694
  392SOL    HW1 1175   2.690   2.495   0.984 -1.9459  0.6282 -0.0511
  392SOL    HW2 1176   2.530   2.515   0.959 -0.2563 -1.3574 -0.3993
  393SOL     OW 1177   1.614   1.810   2.755 -0.4405  0.5286  0.0945
  393SOL    HW1 1178   1.612   1.720   2.718  0.7808  3.0908  2.5866
  393SOL    HW2 1179   1.591   1.879   2.687 -1.5551  0.7267  1.4955
  394SOL     OW 1180   0.116   0.185   2.940 -0.2256 -0.6056 -0.1795
  394SOL    HW1 1181   0.025   0.144   2.906  0.7798  2.0856 -0.1631
  394SOL    HW2 1182   0.173   0.106   2.967  4.6268 -1.3756 -1.0991
  395SOL     OW 1183   0.734   0.821   0.967 -0.9610 -0.1664 -0.0267
  395SOL    HW1 1184   0.669   0.754   0.937  1.8659  0.5182 -0.7191
  395SOL    HW2 1185   0.762   0.894   0.898  1.6664  2.4352 -2.6656
  396SOL     OW 1186   1.171   1.094   0.652  0.3012  0.0907  0.6367
  396SOL    HW1 1187   1.156   1.038   0.735 -0.4647 -0.0912  1.4587
  396SOL    HW2 1188   1.269   1.101   0.627 -0.7466  2.0098  0.4801
  397SOL     OW 1189   0.465   0.724   2.083  0.4709  0.7712 -0.5624
  397SOL    HW1 1190   0.376   0.679   2.105  2.8546 -0.4137  1.6203
  397SOL    HW2 1191   0.456   0.821   2.055 -0.2105 -2.2363  1.6873
  398SOL     OW 1192   1.172   0.150   0.471  0.0771 -0.2707 -0.0567
  398SOL    HW1 1193   1.217   0.217   0.534 -2.2502  2.0898 -0.2961
  398SOL    HW2 1194   1.243   0.096   0.419 -0.6548  1.2071 -0.5065
  399SOL     OW 1195   2.027   2.919   1.686  0.0990 -0.2960 -0.3580
  399SOL    HW1 1196   1.982   2.835   1.655 -2.0279  2.7606  0.2963
  399SOL    HW2 1197   1.988   3.007   1.663  3.9539 -2.4562 -0.3854
  400SOL     OW 1198   1.018   1.698   2.127  0.1039 -0.2190 -0.4096
  400SOL    HW1 1199   1.054   1.778   2.172 -1.5469  0.0847 -2.0762
  400SOL    HW2 1200   1.074   1.619   2.144  1.0842  3.0830 -2.1602
  401SOL     OW 1201   0.710   1.102   2.669  0.4269 -0.2051  0.5779
  401SOL    HW1 1202   0.643   1.090   2.749 -1.5320 -0.8088 -0.3215
  401SOL    HW2 1203   0.678   1.049   2.586  2.0908 -1.6692 -1.1037
  402SOL     OW 1204   2.703   1.986   0.971  0.5271 -0.0140 -0.1760
  402SOL    HW1 1205   2.736   1.900   0.926 -0.7727 -0.5311 -2.3143
  402SOL    HW2 1206   2.671   1.970   1.065  0.9821 -2.1836  3.1378
  403SOL     OW 1207   0.165   0.951   2.238  0.2302  0.3818  0.7069
  403SOL    HW1 1208   0.097   1.011   2.272  1.3402 -1.0591  0.2292
  403SOL    HW2 1209   0.231   1.003   2.185  2.5645  4.1325  2.2901
  404SOL     OW 1210   0.171   2.678   1.656 -0.2777  0.2303 -0.3082
  404SOL    HW1 1211   0.252   2.708   1.604 -1.0634  2.1973 -0.6704
  404SOL    HW2 1212   0.101   2.640   1.596  2.1561  1.1332  0.9574
  405SOL     OW 1213   0.334   0.316   2.092 -0.0264  0.2979 -0.3083
  405SOL    HW1 1214   0.383   0.302   2.182  1.4637  3.6273  1.4974
  405SOL    HW2 1215   0.252   0.252   2.080 -1.7890  0.8798 -0.8484
  406SOL     OW 1216   1.552   1.813   2.341  0.4751  0.0793  0.3830
  406SOL    HW1 1217   1.639   1.822   2.289  1.5044  1.1486 -0.6403
  406SOL    HW2 1218   1.477   1.763   2.288 -2.2031  0.7496  1.2378
  407SOL     OW 1219   1.334   1.197   2.429 -0.6505 -0.1270 -0.3305
  407SOL    HW1 1220   1.348   1.207   2.329 -2.5820  0.7546  0.2742
  407SOL    HW2 1221   1.244   1.147   2.447  2.5061  1.9347  0.4153
  408SOL     OW 1222   0.730   0.002   2.441  0.5328  0.4248  0.0290
  408SOL    HW1 1223   0.743   0.105   2.446 -2.0148  2.2114 -0.0354
  408SOL    HW2 1224   0.809   3.053   2.409 -1.0341  0.0446  2.3679
  409SOL     OW 1225   0.430   1.984   0.525  0.0576 -0.1271  0.1243
  409SOL    HW1 1226   0.498   1.912   0.557 -0.8697 -0.8894  0.1662
  409SOL    HW2 1227   0.459   2.032   0.438  0.8819  1.7368 -0.2670
  410SOL     OW 1228   2.874   1.136   0.416 -0.0958 -0.4931 -0.5632
  410SOL    HW1 1229   2.846   1.055   0.363  1.5003  2.3001  0.5602
  410SOL    HW2 1230   2.792   1.180   0.455  0.9281 -1.3865  0.9281
  411SOL     OW 1231   0.141   0.060   1.261  0.1864 -0.3849 -0.4202
  411SOL    HW1 1232   0.050   0.055   1.293  3.8548  1.7943 -1.2436
  411SOL    HW2 1233   0.193   3.096   1.319 -3.5947 -0.4078 -0.5862
  412SOL     OW 1234   1.585   0.956   1.558 -0.1680  0.1142 -0.2290
  412SOL    HW1 1235   1.656   0.938   1.486 -3.1252  2.3484  1.2612
  412SOL    HW2 1236   1.509   0.895   1.547  3.4665  0.2130 -0.0515
  413SOL     OW 1237   0.722   3.035   1.587  0.0549 -0.0363  0.4543
  413SOL    HW1 1238   0.727   3.082   1.677  1.3253  0.5366 -2.6243
  413SOL    HW2 1239   0.797   3.078   1.526  0.4237 -0.0116 -0.3193
  414SOL     OW 1240   2.816   1.562   2.791  0.0431  0.0048 -0.5827
  414SOL    HW1 1241   2.781   1.658   2.768  0.7210  3.2738 -2.2280
  414SOL    HW2 1242   2.804   1.540   2.891 -1.1357 -0.2437 -2.1255
  415SOL     OW 1243   0.604   2.454   2.985 -0.2049  0.5756 -0.5229
  415SOL    HW1 1244   0.503   2.460   2.959 -3.0942  1.2423  2.1222
  415SOL    HW2 1245   0.648   2.541   2.966  0.1468 -2.3645 -1.6429
  416SOL     OW 1246   1.978   2.924   0.288  0.1713 -0.5285  0.1290
  416SOL    HW1 1247   1.920   2.873   0.221  1.1913 -0.4714  1.0103
  416SOL    HW2 1248   1.916   2.987   0.341 -2.4056 -2.1972 -0.4741
  417SOL     OW 1249   0.315   0.545   0.606  0.0678 -0.0014 -0.0503
  417SOL    HW1 1250   0.404   0.564   0.656  0.9684  0.8611  1.3043
  417SOL    HW2 1251   0.328   0.452   0.569  0.4392 -1.8824 -0.2218
  418SOL     OW 1252   2.506   0.221   1.156  0.4657 -0.1057  0.9717
  418SOL    HW1 1253   2.410   0.245   1.180  1.0050 -0.2017 -2.9824
  418SOL    HW2 1254   2.568   0.302   1.176  0.6133  1.5296 -2.1447
  419SOL     OW 1255   0.093   0.040   0.561 -0.4331 -0.1805 -0.5598
  419SOL    HW1 1256   0.044   0.119   0.604  1.1559 -1.1817  0.3166
  419SOL    HW2 1257   0.023   3.072   0.530 -1.2575 -2.8210  0.4796
  420SOL     OW 1258   0.121   1.512   1.593  0.0348  0.2419 -0.0796
  420SOL    HW1 1259   0.169   1.552   1.675  0.5921  2.2209 -1.3584
  420SOL    HW2 1260   0.032   1.555   1.585 -0.6276 -1.9919  2.5307
  421SOL     OW 1261   1.190   2.824   0.465 -0.3085 -0.0317  0.4742
  421SOL    HW1 1262   1.089   2.840   0.499  0.6324 -1.2715 -0.4167
  421SOL    HW2 1263   1.204   2.724   0.450 -2.6542  1.0847  0.0155
  422SOL     OW 1264   0.340   0.576   1.527 -0.0915  0.6813  0.0395
  422SOL    HW1 1265   0.323   0.641   1.604  0.9044 -3.1569 -3.1919
  422SOL    HW2 1266   0.251   0.560   1.468 -2.0511 -3.1188 -1.1770
  423SOL     OW 1267   1.134   1.346   1.508  0.0810 -0.3171  0.0137
  423SOL    HW1 1268   1.137   1.352   1.607  1.0743 -1.0992 -2.4182
  423SOL    HW2 1269   1.138   1.442   1.470 -1.1096  1.6951 -0.0269
  424SOL     OW 1270   2.111   1.481   0.003  0.2176  0.4820  0.2690
  424SOL    HW1 1271   2.018   1.492   0.048  2.0019 -0.7784  0.5253
  424SOL    HW2 1272   2.098   1.438   3.012  0.4013 -0.0391 -0.7228
  425SOL     OW 1273   0.130   0.150   2.086 -0.2850  0.0935  0.5610
  425SOL    HW1 1274   0.135   0.146   2.185  0.5075 -1.9341 -0.7253
  425SOL    HW2 1275   0.116   0.058   2.042  5.0851 -2.9489 -1.6424
  426SOL     OW 1276   0.256   3.048   2.937 -0.0087 -0.0055 -0.2159
  426SOL    HW1 1277   0.216   3.017   3.030 -2.3563  1.7490  0.3642
  426SOL    HW2 1278   0.242   2.978   2.867  0.8948 -2.1350  4.0791
  427SOL     OW 1279   1.198   1.075   2.702  0.2981 -0.6381  0.0739
  427SOL    HW1 1280   1.278   1.138   2.713  2.5847  0.3351  1.1550
  427SOL    HW2 1281   1.176   1.035   2.794  1.6494 -2.6223 -1.1257
  428SOL     OW 1282   2.443   1.270   1.567 -0.3638 -0.3433  0.3836
  428SOL    HW1 1283   2.403   1.217   1.645  0.5025  2.3199 -1.1933
  428SOL    HW2 1284   2.382   1.257   1.487 -1.4010 -0.0648  0.3330
  429SOL     OW 1285   2.187   2.922   0.985 -0.4489 -0.6759  0.4996
  429SOL    HW1 1286   2.166   2.898   0.891 -0.1497 -1.6755 -0.4514
  429SOL    HW2 1287   2.140   2.850   1.043 -1.6724  1.1043  1.3409
  430SOL     OW 1288   0.837   1.268   2.195  0.2754 -0.1458  0.4651
  430SOL    HW1 1289   0.785   1.184   2.193  1.3350  1.6277  0.8607
  430SOL    HW2 1290   0.785   1.342   2.242  0.6029  1.4339 -1.9798
  431SOL     OW 1291   2.577   1.486   1.632  0.1832 -0.0290  0.1030
  431SOL    HW1 1292   2.678   1.459   1.617 -1.1006 -0.8883  0.1881
  431SOL    HW2 1293   2.520   1.403   1.604  2.9965 -2.0309  0.6435
  432SOL     OW 1294   1.013   2.683   2.166 -0.4694  0.5357 -0.5068
  432SOL    HW1 1295   0.999   2.769   2.213  0.1233 -0.6864  0.9313
  432SOL    HW2 1296   1.057   2.611   2.228  1.3438 -1.1366  2.4433
  433SOL     OW 1297   1.857   0.072   2.377 -0.0172  0.0150  0.0527
  433SOL    HW1 1298   1.902   3.097   2.322  0.6643 -2.2286 -0.8827
  433SOL    HW2 1299   1.892   0.161   2.351 -4.9297 -2.9506  0.5130
  434SOL     OW 1300   0.505   2.726   2.446  0.0655  0.1449  0.0782
  434SOL    HW1 1301   0.479   2.627   2.447  0.2764 -1.4240  0.3420
  434SOL    HW2 1302   0.572   2.741   2.518 -1.9307 -0.4901  1.8049
  435SOL     OW 1303   0.348   2.804   0.215  0.3379 -0.0244  0.2091
  435SOL    HW1 1304   0.326   2.890   0.263 -0.5377 -0.7637  2.9643
  435SOL    HW2 1305   0.260   2.758   0.186 -2.4704 -2.5432 -0.2424
  436SOL     OW 1306   0.697   0.610   1.950  0.3169  0.7494 -0.3149
  436SOL    HW1 1307   0.603   0.635   1.971  0.4105 -0.7131  0.6885
  436SOL    HW2 1308   0.724   0.534   2.012 -0.5625  0.8694 -0.1861
  437SOL     OW 1309   0.511   2.404   2.416  0.1452 -0.4912 -0.3222
  437SOL    HW1 1310   0.435   2.373   2.358  0.7148  2.5452  0.3800
  437SOL    HW2 1311   0.546   2.327   2.473  4.2580  0.6094  0.7388
  438SOL     OW 1312   0.585   1.329   1.736 -0.1448  0.2602 -0.0322
  438SOL    HW1 1313   0.573   1.426   1.718  0.1978  0.1945  2.8654
  438SOL    HW2 1314   0.607   1.325   1.834 -0.0768  1.1805  0.9555
  439SOL     OW 1315   2.260   0.738   2.210 -0.0437  0.6302 -0.3823
  439SOL    HW1 1316   2.217   0.694   2.297  0.3106 -1.2676  2.7288
  439SOL    HW2 1317   2.257   0.840   2.217  0.6215  0.8161 -2.3832
  440SOL     OW 1318   0.438   0.681   0.377 -0.0741 -0.1792 -0.0216
  440SOL    HW1 1319   0.408   0.664   0.468 -0.5582  1.8485 -2.3894
  440SOL    HW2 1320   0.511   0.756   0.375  0.7981  0.8370 -2.4753
  441SOL     OW 1321   1.228   2.392   1.341  0.0534 -0.0115 -0.1846
  441SOL    HW1 1322   1.184   2.461   1.403  0.4613 -0.6028  2.4424
  441SOL    HW2 1323   1.265   2.447   1.261 -0.7198 -1.0414  1.6051
  442SOL     OW 1324   2.250   1.465   0.472 -0.0988 -0.1826  0.6039
  442SOL    HW1 1325   2.285   1.559   0.491 -0.6105  1.5514  0.0792
  442SOL    HW2 1326   2.313   1.410   0.416 -2.3533 -1.1921  1.2388
  443SOL     OW 1327   2.703   1.985   2.480  0.4665  0.1622  0.0298
  443SOL    HW1 1328   2.633   2.056   2.514 -0.0251  4.2656  1.5263
  443SOL    HW2 1329   2.673   1.962   2.384  2.1595  0.7440  1.3844
  444SOL     OW 1330   1.787   1.423   2.869 -0.2730 -0.3706  0.2660
  444SOL    HW1 1331   1.743   1.468   2.950  1.0562  1.3062  0.4690
  444SOL    HW2 1332   1.750   1.333   2.863 -0.6393  2.3487  0.8343
  445SOL     OW 1333   2.601   2.798   2.323  0.3007  0.2867  0.2705
  445SOL    HW1 1334   2.612   2.745   2.237 -0.3875  2.9138  0.6939
  445SOL    HW2 1335   2.683   2.853   2.347 -2.0587  0.8174  0.0435
  446SOL     OW 1336   0.428   1.049   1.469  0.1817  1.1245 -0.0871
  446SOL    HW1 1337   0.471   0.965   1.424  1.8413 -1.5050 -0.0263
  446SOL    HW2 1338   0.494   1.128   1.471 -0.9987  1.6259  1.2874
  447SOL     OW 1339   0.790   1.293   0.960  0.2385  0.2215  0.9168
  447SOL    HW1 1340   0.883   1.335   0.961  2.0566 -1.6762  1.9274
  447SOL    HW2 1341   0.719   1.367   0.963 -1.0916  2.0894 -1.9719
  448SOL     OW 1342   1.167   1.161   1.823 -0.4494 -0.2071 -0.4159
  448SOL    HW1 1343   1.267   1.138   1.816  1.2429 -1.9668 -0.4514
  448SOL    HW2 1344   1.108   1.076   1.831  1.6551  0.5778  0.9485
  449SOL     OW 1345   3.091   2.030   2.233 -0.3208  0.1849 -0.1698
  449SOL    HW1 1346   3.054   2.074   2.147  0.5363  3.4949 -2.0915
  449SOL    HW2 1347   0.045   1.943   2.215  2.7127  1.9775  2.4581
  450SOL     OW 1348   2.780   1.936   1.982  0.1282 -0.0201 -0.1726
  450SOL    HW1 1349   2.857   2.002   1.974  0.4442  1.2879 -0.9382
  450SOL    HW2 1350   2.811   1.847   2.011  0.4396  3.0194  1.3635
  451SOL     OW 1351   2.313   1.146   1.355  0.3103 -0.2238  0.3857
  451SOL    HW1 1352   2.223   1.100   1.348  1.5837 -0.0690 -1.0609
  451SOL    HW2 1353   2.388   1.079   1.368 -2.6570  0.7172  0.4034
  452SOL     OW 1354   0.278   1.431   1.363  0.2730 -0.8010 -0.1365
  452SOL    HW1 1355   0.210   1.457   1.439 -0.1445 -0.8956 -0.3840
  452SOL    HW2 1356   0.261   1.334   1.337 -1.2672  0.4482 -0.1080
  453SOL     OW 1357   0.239   1.378   1.055  0.2475  0.2315  0.0399
  453SOL    HW1 1358   0.280   1.303   0.999  1.1816 -0.2543 -0.5586
  453SOL    HW2 1359   0.232   1.340   1.146  0.9147  0.1136 -2.6099
  454SOL     OW 1360   0.395   1.681   0.098 -0.3131 -0.1597 -0.1088
  454SOL    HW1 1361   0.487   1.668   0.144  1.9799  1.7327  0.6407
  454SOL    HW2 1362   0.367   1.591   0.060  3.6806 -0.4847 -1.5796
  455SOL     OW 1363   1.832   1.015   1.042  0.3746  0.0487  0.0346
  455SOL    HW1 1364   1.760   1.057   1.095  3.2728 -0.8966 -1.5624
  455SOL    HW2 1365   1.857   0.922   1.078 -0.8714  0.8681 -3.6890
  456SOL     OW 1366   1.822   2.474   0.713 -0.0627 -0.5815 -0.2054
  456SOL    HW1 1367   1.861   2.538   0.645  1.5629 -1.0229  2.6499
  456SOL    HW2 1368   1.895   2.440   0.776  5.6793  1.6340 -2.2416
  457SOL     OW 1369   1.942   3.077   2.641  0.5589 -0.2266 -0.3596
  457SOL    HW1 1370   1.956   0.007   2.548  0.1679 -0.7643  3.0028
  457SOL    HW2 1371   1.904   2.985   2.636  2.8323  0.3799  0.9460
  458SOL     OW 1372   2.385   0.335   0.202 -0.0146 -0.1360  0.5859
  458SOL    HW1 1373   2.410   0.282   0.120  4.7513  0.5460  1.0615
  458SOL    HW2 1374   2.351   0.430   0.181 -0.6082  0.0702 -1.2299
  459SOL     OW 1375   3.029   1.073   2.309  0.0541  0.5187 -0.4543
  459SOL    HW1 1376   2.964   0.998   2.320 -1.9268 -1.3536  2.2072
  459SOL    HW2 1377   2.998   1.153   2.255  0.8731 -0.3764 -1.5333
  460SOL     OW 1378   0.375   0.758   0.117  0.6180  0.6533 -0.2134
  460SOL    HW1 1379   0.346   0.673   0.061  0.0445 -4.9051 -0.4529
  460SOL    HW2 1380   0.402   0.737   0.217 -2.0113  1.5594  1.8015
  461SOL     OW 1381   2.922   2.324   0.729 -0.0759 -0.6201  0.6754
  461SOL    HW1 1382   2.870   2.237   0.729  3.2243 -0.6455 -2.4807
  461SOL    HW2 1383   3.023   2.309   0.744 -2.5634 -2.8839  0.4733
  462SOL     OW 1384   0.169   2.991   1.586 -0.4789  0.1590 -0.1427
  462SOL    HW1 1385   0.099   2.955   1.651  1.4276 -1.1932 -2.1998
  462SOL    HW2 1386   0.260   2.951   1.607 -1.4802 -1.0854  1.7641
  463SOL     OW 1387   2.152   2.009   1.975  0.1979  0.1232 -0.0932
  463SOL    HW1 1388   2.072   2.006   1.910  0.7139 -0.3451  0.1331
  463SOL    HW2 1389   2.207   2.096   1.962  0.1520  3.4734 -1.9669
  464SOL     OW 1390   0.386   2.915   1.292  0.0197 -0.3919 -0.1541
  464SOL    HW1 1391   0.414   3.016   1.302 -1.9273  0.1824 -0.4818
  464SOL    HW2 1392   0.411   2.892   1.196  1.1592 -0.6984 -3.6226
  465SOL     OW 1393   0.550   0.212   1.514  0.5641  0.0581 -0.4165
  465SOL    HW1 1394   0.616   0.162   1.570  2.0241 -0.0529 -1.3942
  465SOL    HW2 1395   0.473   0.246   1.571 -0.0194 -1.4531  0.8123
  466SOL     OW 1396   1.436   1.882   1.979 -0.3587 -0.2883 -0.0472
  466SOL    HW1 1397   1.489   1.849   1.900  0.1474  1.1664  2.2270
  466SOL    HW2 1398   1.355   1.937   1.950  3.4048  1.6465  2.3307
  467SOL     OW 1399   3.089   1.738   0.842  0.1876  0.0931  0.2663
  467SOL    HW1 1400   0.050   1.685   0.910  1.8868 -1.3536  2.3436
  467SOL    HW2 1401   3.081   1.688   0.753  1.1747 -1.4712 -1.4607
  468SOL     OW 1402   2.314   2.112   2.685 -0.1472  0.2364 -0.3318
  468SOL    HW1 1403   2.398   2.146   2.636  0.4124 -0.9937  2.1833
  468SOL    HW2 1404   2.237   2.084   2.623 -1.2976  1.5004 -0.0057
  469SOL     OW 1405   1.249   2.317   0.394 -0.2976 -0.2054 -0.4405
  469SOL    HW1 1406   1.294   2.311   0.300 -0.8422  0.7971 -2.9110
  469SOL    HW2 1407   1.294   2.400   0.436 -1.3314  3.3859 -0.1253
  470SOL     OW 1408   1.905   1.729   1.297 -0.5908  0.2830 -0.2262
  470SOL    HW1 1409   1.905   1.826   1.313  1.1295 -0.8759  0.8440
  470SOL    HW2 1410   1.824   1.684   1.343  1.3019 -0.0244  2.3278
  471SOL     OW 1411   0.599   2.379   0.148 -0.0909  0.3551  0.0459
  471SOL    HW1 1412   0.607   2.468   0.197  3.2980 -1.0177 -1.4746
  471SOL    HW2 1413   0.621   2.390   0.047  0.2856  1.9934 -0.0031
  472SOL     OW 1414   2.616   1.943   2.212 -0.5593 -0.7759  0.2402
  472SOL    HW1 1415   2.603   1.846   2.233 -2.0561 -0.5512 -2.3820
  472SOL    HW2 1416   2.685   1.954   2.137 -0.6838  0.4145 -0.0742
  473SOL     OW 1417   1.232   2.685   0.745 -0.0392  0.3519 -0.3550
  473SOL    HW1 1418   1.138   2.684   0.778  0.7643 -0.5849  1.8292
  473SOL    HW2 1419   1.257   2.786   0.731 -0.7330  0.2424  3.6563
  474SOL     OW 1420   2.994   0.092   1.364  0.2424 -0.0101 -0.1667
  474SOL    HW1 1421   2.950   0.027   1.303 -1.0142  0.5346  0.1776
  474SOL    HW2 1422   2.929   0.135   1.430  1.6957 -2.6163  1.4570
  475SOL     OW 1423   1.810   2.651   1.951  0.1216 -0.2025  0.2986
  475SOL    HW1 1424   1.772   2.678   2.038 -1.0003  0.1816 -0.1605
  475SOL    HW2 1425   1.733   2.662   1.884  1.8999 -0.5013 -0.5418
  476SOL     OW 1426   0.328   0.420   0.915  0.4003 -0.1689 -0.5667
  476SOL    HW1 1427   0.404   0.484   0.936  1.3653 -0.9845 -1.7957
  476SOL    HW2 1428   0.255   0.464   0.857  0.4035  0.0445 -2.7828
  477SOL     OW 1429   0.751   2.164   0.895 -0.5049  0.5378  0.1620
  477SOL    HW1 1430   0.668   2.194   0.946 -2.1988  0.3697  0.1524
  477SOL    HW2 1431   0.835   2.206   0.932 -0.7530  0.9291 -0.8967
  478SOL     OW 1432   0.661   2.765   2.666  0.0823 -0.4831 -0.2991
  478SOL    HW1 1433   0.758   2.771   2.640  0.8307 -1.7395  2.9425
  478SOL    HW2 1434   0.659   2.718   2.759 -1.4777  0.2073  0.5928
  479SOL     OW 1435   0.229   0.561   1.987 -0.1477  0.4025  0.0832
  479SOL    HW1 1436   0.153   0.537   1.922 -0.9065  1.8555  0.3954
  479SOL    HW2 1437   0.259   0.481   2.046 -0.2011 -0.4482 -2.3118
  480SOL     OW 1438   0.135   2.064   2.909  0.3485  0.2715 -0.2955
  480SOL    HW1 1439   0.138   2.131   2.985 -0.3085  0.3304 -1.9153
  480SOL    HW2 1440   0.073   2.092   2.831 -0.8415  0.4974  0.0492
  481SOL     OW 1441   1.619   3.078   2.306 -0.5536 -0.1015  0.3384
  481SOL    HW1 1442   1.605   2.984   2.347  1.7681 -0.1891  1.4748
  481SOL    HW2 1443   1.710   0.019   2.323  0.0391 -1.3230  0.3644
  482SOL     OW 1444   1.696   2.060   2.868  0.5004  0.3477  0.5022
  482SOL    HW1 1445   1.662   1.966   2.850  1.0685  1.8759 -0.9155
  482SOL    HW2 1446   1.794   2.057   2.891 -0.7833 -0.0569 -1.4848
  483SOL     OW 1447   0.931   2.773   2.601 -0.2321 -0.0344 -0.0615
  483SOL    HW1 1448   0.938   2.684   2.549 -0.0786 -0.5809 -0.4744
  483SOL    HW2 1449   1.002   2.784   2.674  2.0188 -1.4017 -2.1463
  484SOL     OW 1450   0.717   2.923   0.963 -0.0453  0.0257 -0.7345
  484SOL    HW1 1451   0.695   3.021   0.949  0.1268 -2.1870 -0.0307
  484SOL    HW2 1452   0.635   2.874   0.996 -1.4159 -1.9567  1.2488
  485SOL     OW 1453   2.055   0.470   0.689 -0.1595 -0.0291  0.1337
  485SOL    HW1 1454   1.979   0.538   0.699 -3.8009  0.8237 -1.8119
  485SOL    HW2 1455   2.136   0.519   0.643 -0.7167 -1.7420 -3.1259
  486SOL     OW 1456   2.055   2.575   1.846  0.0650 -0.3979  0.6093
  486SOL    HW1 1457   2.134   2.582   1.910 -1.7149 -1.4951 -2.8539
  486SOL    HW2 1458   1.970   2.621   1.879 -0.6950 -1.1408 -1.0937
  487SOL     OW 1459   1.201   2.108   0.632  0.3157 -0.2072  0.5552
  487SOL    HW1 1460   1.220   2.179   0.557 -0.0372  2.0423 -1.4856
  487SOL    HW2 1461   1.109   2.060   0.615 -1.9346 -0.2416 -1.1226
  488SOL     OW 1462   1.916   0.275   0.361 -0.1164  0.1484 -0.1566
  488SOL    HW1 1463   1.851   0.346   0.384 -0.9659 -1.4705 -2.5050
  488SOL    HW2 1464   2.010   0.317   0.375 -0.2221 -4.0322  2.5299
  489SOL     OW 1465   2.123   2.835   0.528 -0.2440  0.6582  0.0433
  489SOL    HW1 1466   2.114   2.917   0.589 -1.4662  0.4775  2.4144
  489SOL    HW2 1467   2.118   2.872   0.433 -1.3761 -1.0423 -2.4659
  490SOL     OW 1468   1.554   2.684   2.998 -0.1933 -0.5146  0.2247
  490SOL    HW1 1469   1.645   2.732   2.967 -0.8028 -1.6779 -3.7661
  490SOL    HW2 1470   1.525   2.716   3.090  0.5871  0.5825  3.0750
  491SOL     OW 1471   0.749   0.410   1.057  0.0978  0.3492  0.6484
  491SOL    HW1 1472   0.807   0.334   1.029 -1.0555  2.8151 -1.6243
  491SOL    HW2 1473   0.701   0.387   1.144  3.0257 -2.4063 -0.0536
  492SOL     OW 1474   1.787   0.058   0.473 -0.3212  0.3920  0.0467
  492SOL    HW1 1475   1.713   0.015   0.421  1.9081  2.0224 -2.5863
  492SOL    HW2 1476   1.837   0.133   0.422  0.4529 -1.1191  0.3347
  493SOL     OW 1477   1.975   2.148   2.852  0.0431  0.0015 -0.4022
  493SOL    HW1 1478   1.944   2.243   2.832  0.0774  1.1673  0.7526
  493SOL    HW2 1479   2.055   2.146   2.913 -1.0314 -0.5155 -1.8803
  494SOL     OW 1480   0.266   1.140   0.911  0.7451  0.4088 -0.2353
  494SOL    HW1 1481   0.302   1.066   0.969 -1.2289 -2.0006 -1.0033
  494SOL    HW2 1482   0.173   1.117   0.883  0.2905 -0.1964 -0.4031
  495SOL     OW 1483   2.989   0.245   1.667 -0.1301 -0.2494  0.3099
  495SOL    HW1 1484   2.988   0.348   1.656  1.8653  1.3241  1.7357
  495SOL    HW2 1485   3.068   0.206   1.620 -3.3646 -0.0995  0.8981
  496SOL     OW 1486   2.612   2.638   2.104 -0.7907  0.6952 -0.0382
  496SOL    HW1 1487   2.672   2.630   2.021  0.3285  1.7584 -0.2564
  496SOL    HW2 1488   2.530   2.582   2.091 -0.9459  0.1078 -0.0185
  497SOL     OW 1489   1.680   1.374   2.485  0.0255  0.1034  0.5582
  497SOL    HW1 1490   1.622   1.396   2.405 -0.3852  1.0004  0.5658
  497SOL    HW2 1491   1.662   1.272   2.507 -1.6461 -0.6182  0.0145
  498SOL     OW 1492   0.451   1.641   0.769 -0.4158  0.0978  0.0730
  498SOL    HW1 1493   0.365   1.627   0.712 -0.4076 -0.0335 -2.5890
  498SOL    HW2 1494   0.516   1.699   0.712  1.1214  0.8104 -0.1540
  499SOL     OW 1495   3.082   1.711   1.261  0.0940  0.0962 -0.6617
  499SOL    HW1 1496   3.047   1.778   1.194 -0.0385  1.1469 -0.3946
  499SOL    HW2 1497   3.065   1.745   1.357 -2.0179  0.7290  0.0604
  500SOL     OW 1498   1.229   2.183   0.050 -0.0874  0.4150  0.4406
  500SOL    HW1 1499   1.290   2.196   0.128  0.4216 -0.1522 -1.8654
  500SOL    HW2 1500   1.198   2.266   0.003  0.2329 -1.8424 -1.2839
  501SOL     OW 1501   2.044   2.386   0.860 -0.6335  0.3192 -0.5202
  501SOL    HW1 1502   2.077   2.400   0.955  0.3356  0.9929  0.9953
  501SOL    HW2 1503   2.124   2.401   0.800  0.4378 -2.5171 -0.2675
  502SOL     OW 1504   0.051   0.832   1.683 -0.5808 -0.7665 -0.1732
  502SOL    HW1 1505   0.045   0.858   1.585  1.4767  1.2332  2.5731
  502SOL    HW2 1506   0.138   0.782   1.699 -0.6209  0.9545  1.4822
  503SOL     OW 1507   2.282   0.139   1.747  0.0634  0.1331 -0.2166
  503SOL    HW1 1508   2.363   0.180   1.708  1.2105  0.1002  1.3358
  503SOL    HW2 1509   2.272   0.040   1.718  0.1437 -2.7690 -0.4240
  504SOL     OW 1510   1.836   0.819   1.959  0.6983  0.2008 -0.3760
  504SOL    HW1 1511   1.817   0.803   2.057  1.5568 -0.0546 -0.2752
  504SOL    HW2 1512   1.927   0.860   1.942 -0.3554 -1.1506 -2.9118
  505SOL     OW 1513   1.093   3.082   2.329 -0.0261 -0.2001  0.7203
  505SOL    HW1 1514   1.153   3.038   2.397  1.1004  0.3900 -1.8929
  505SOL    HW2 1515   1.019   3.016   2.301 -1.2827 -0.6475  0.7636
  506SOL     OW 1516   0.520   0.321   1.891 -0.1796 -0.3314  0.1075
  506SOL    HW1 1517   0.448   0.345   1.959 -0.3154  0.8930  0.4632
  506SOL    HW2 1518   0.482   0.327   1.798  1.9214 -1.2756  1.6527
  507SOL     OW 1519   1.734   0.252   3.003  0.2895 -0.2956 -0.0099
  507SOL    HW1 1520   1.690   0.278   2.916  0.1342  2.1394 -0.7271
  507SOL    HW2 1521   1.663   0.230   3.074 -1.0091 -0.1401  0.7424
  508SOL     OW 1522   2.311   0.578   2.597  0.4544 -0.3599  0.2028
  508SOL    HW1 1523   2.301   0.475   2.588 -1.8501  0.3437 -0.7538
  508SOL    HW2 1524   2.403   0.616   2.567  2.1120 -1.9993 -0.4053
  509SOL     OW 1525   0.930   1.432   1.985 -0.5090  0.4454  0.0765
  509SOL    HW1 1526   0.921   1.373   2.067 -0.3758 -2.1030 -0.6550
  509SOL    HW2 1527   0.928   1.528   2.011 -1.2491 -0.3005 -1.4193
  510SOL     OW 1528   2.936   0.503   0.862 -0.5284  0.0770 -0.7203
  510SOL    HW1 1529   3.029   0.538   0.835  0.0232  0.2623 -0.2545
  510SOL    HW2 1530   2.881   0.488   0.778 -1.4252  1.5692 -3.7851
  511SOL     OW 1531   1.542   1.386   0.867  0.0925 -0.1841  0.2265
  511SOL    HW1 1532   1.507   1.443   0.792 -1.9732  0.3541  0.5798
  511SOL    HW2 1533   1.564   1.450   0.942  1.3483 -0.8434 -0.3462
  512SOL     OW 1534   0.716   1.371   0.243  0.1827 -0.4438  0.4609
  512SOL    HW1 1535   0.619   1.340   0.263 -1.9141 -1.8243 -0.5709
  512SOL    HW2 1536   0.766   1.378   0.331  1.1048  0.3789  2.1368
  513SOL     OW 1537   0.101   2.330   0.711  0.1729 -0.3442  0.0944
  513SOL    HW1 1538   0.185   2.274   0.712 -1.4229  1.0905  1.3055
  513SOL    HW2 1539   0.087   2.370   0.615 -1.7841 -1.8761 -0.6343
  514SOL     OW 1540   0.274   2.101   0.197  0.5050  0.2282  0.3373
  514SOL    HW1 1541   0.190   2.047   0.221 -2.5587  2.0295 -0.2208
  514SOL    HW2 1542   0.358   2.051   0.168  2.4774 -0.2359  3.2743
  515SOL     OW 1543   2.887   0.186   0.226  0.2692  0.9162  0.1188
  515SOL    HW1 1544   2.808   0.122   0.228 -3.4890 -0.4391 -1.2818
  515SOL    HW2 1545   2.910   0.220   0.319 -0.2745  1.4555 -2.3540
  516SOL     OW 1546   1.995   2.754   1.105 -0.2004 -0.2152  0.2659
  516SOL    HW1 1547   1.982   2.764   1.206  3.5219  1.7458  0.1482
  516SOL    HW2 1548   2.019   2.656   1.080 -0.4475 -1.6206  0.8902
  517SOL     OW 1549   1.387   1.716   0.190  0.0912  0.1331 -0.2941
  517SOL    HW1 1550   1.386   1.658   0.281  0.3579 -0.3243  1.7564
  517SOL    HW2 1551   1.328   1.677   0.122  1.8179  1.8228  1.1143
  518SOL     OW 1552   1.395   0.782   1.501 -0.0454  0.1218  0.4434
  518SOL    HW1 1553   1.383   0.814   1.401  0.4687  0.9936 -3.0384
  518SOL    HW2 1554   1.320   0.819   1.556  3.0100  0.5605 -1.8809
  519SOL     OW 1555   3.044   2.053   0.592  0.4972 -0.7120  0.1405
  519SOL    HW1 1556   0.018   2.032   0.660  0.7501 -0.2821 -0.3537
  519SOL    HW2 1557   2.955   2.082   0.636  1.2578  0.0988  0.4491
  520SOL     OW 1558   2.256   2.265   1.958  0.2144 -0.2814 -0.2850
  520SOL    HW1 1559   2.222   2.324   1.878 -1.7829  0.2149 -0.2349
  520SOL    HW2 1560   2.196   2.290   2.040 -0.1021  1.9137  0.4191
  521SOL     OW 1561   1.237   2.927   2.485 -0.8237  0.5764 -0.3592
  521SOL    HW1 1562   1.207   2.895   2.577  0.4630  1.1954  0.2600
  521SOL    HW2 1563   1.331   2.896   2.470  0.3110  0.1969  0.2387
  522SOL     OW 1564   2.972   0.096   1.887 -0.3117 -0.1057  0.1906
  522SOL    HW1 1565   3.021   0.006   1.893  1.1227 -2.3824 -1.3321
  522SOL    HW2 1566   2.991   0.149   1.801 -2.3396 -0.9451 -0.4095
  523SOL     OW 1567   1.389   2.136   1.760 -0.5370  0.1298  0.1672
  523SOL    HW1 1568   1.305   2.105   1.808  0.7696 -2.2978 -0.2400
  523SOL    HW2 1569   1.363   2.163   1.665  1.5904 -1.2683  1.8790
  524SOL     OW 1570   2.251   2.229   0.201  0.3371  0.3286 -0.2781
  524SOL    HW1 1571   2.343   2.245   0.235 -1.8258 -2.7843 -0.7717
  524SOL    HW2 1572   2.243   2.223   0.101 -0.7429  0.7859 -1.6261
  525SOL     OW 1573   2.823   0.902   0.279  0.0567  0.4756 -0.0124
  525SOL    HW1 1574   2.918   0.868   0.302  1.6544  0.6710 -0.0266
  525SOL    HW2 1575   2.758   0.826   0.297 -1.1892 -2.8340 -0.1472
  526SOL     OW 1576   1.108   2.978   0.895 -0.5566  0.7453  0.2183
  526SOL    HW1 1577   1.186   2.963   0.827  0.5105 -1.8223  0.6009
  526SOL    HW2 1578   1.076   2.890   0.926  1.2122  0.1117  2.1932
  527SOL     OW 1579   2.509   1.305   0.728  0.4702 -0.0046  0.2930
  527SOL    HW1 1580   2.420   1.280   0.767  1.9238  0.2708  0.7192
  527SOL    HW2 1581   2.526   1.405   0.751  0.8833 -0.0156  2.1407
  528SOL     OW 1582   0.573   0.978   2.465  0.3192 -0.1813 -0.6076
  528SOL    HW1 1583   0.613   1.010   2.379  0.6464 -0.1945  0.9083
  528SOL    HW2 1584   0.477   0.950   2.455 -2.6465  2.0758 -2.4219
  529SOL     OW 1585   0.620   1.532   2.933 -0.9966  0.0311 -0.2301
  529SOL    HW1 1586   0.700   1.551   2.875 -0.4748  2.5135 -0.3727
  529SOL    HW2 1587   0.547   1.487   2.885  0.5966 -2.9110  0.2809
  530SOL     OW 1588   1.528   1.039   2.086  0.3404  0.3970 -0.1908
  530SOL    HW1 1589   1.534   1.018   1.987  0.8473 -2.1111 -1.7923
  530SOL    HW2 1590   1.487   0.958   2.134 -2.4277 -1.1446  1.6460
  531SOL     OW 1591   0.976   2.348   2.723  0.5526  0.8099  0.5288
  531SOL    HW1 1592   0.885   2.335   2.765 -0.0129 -1.8538 -0.9800
  531SOL    HW2 1593   1.027   2.257   2.718  1.1641 -1.8037 -0.2582
  532SOL     OW 1594   2.315   0.598   0.168  0.7101  0.3385 -0.4449
  532SOL    HW1 1595   2.288   0.681   0.223  0.1971  0.9241 -1.6751
  532SOL    HW2 1596   2.415   0.608   0.143 -1.4330  0.9721  2.1900
  533SOL     OW 1597   0.040   0.496   1.804 -0.0982  0.3786 -0.3895
  533SOL    HW1 1598   0.014   0.491   1.704  0.3856  3.6181 -1.5830
  533SOL    HW2 1599   3.055   0.538   1.854 -4.9695  3.6112  3.3482
  534SOL     OW 1600   1.843   0.511   3.011 -0.6193  0.9408  0.0549
  534SOL    HW1 1601   1.812   0.408   3.011  0.6313 -1.8958  0.7891
  534SOL    HW2 1602   1.914   0.518   3.085  0.6531 -2.1795  0.2005
  535SOL     OW 1603   0.741   0.204   0.290  0.1215 -0.1753 -0.0007
  535SOL    HW1 1604   0.800   0.240   0.216 -0.5525  0.0762 -0.0989
  535SOL    HW2 1605   0.658   0.265   0.307 -3.6397 -1.6629  0.3329
  536SOL     OW 1606   0.274   1.596   1.795 -0.6113  0.6407 -0.2009
  536SOL    HW1 1607   0.257   1.656   1.875  0.2034  0.5549  0.9121
  536SOL    HW2 1608   0.365   1.616   1.753 -0.4110  0.1491  1.5132
  537SOL     OW 1609   0.461   2.508   1.864 -0.2721 -0.3126 -0.3156
  537SOL    HW1 1610   0.474   2.479   1.766 -1.9120  0.0032 -2.1608
  537SOL    HW2 1611   0.403   2.592   1.884 -2.2921  0.6731  1.6393
  538SOL     OW 1612   0.062   1.941   0.209  0.5943  0.3309  0.1143
  538SOL    HW1 1613   0.091   1.844   0.206  1.3298  0.1019  1.9569
  538SOL    HW2 1614   0.009   1.964   0.126 -0.1209  0.9813  0.5398
  539SOL     OW 1615   2.608   0.502   2.807 -0.6117 -0.0700 -0.3532
  539SOL    HW1 1616   2.531   0.439   2.806  1.4914 -1.4373  0.2185
  539SOL    HW2 1617   2.692   0.438   2.805 -0.0606 -3.0404  1.2345
  540SOL     OW 1618   1.591   1.057   3.011 -0.1201  0.1590 -0.1399
  540SOL    HW1 1619   1.520   1.126   3.006  1.8297 -1.4434 -2.4878
  540SOL    HW2 1620   1.616   1.044   0.010  3.2998  0.7989  1.8306
  541SOL     OW 1621   0.801   0.519   1.672 -0.5536  0.0733 -0.5834
  541SOL    HW1 1622   0.768   0.526   1.771 -1.3806  1.0266  3.1019
  541SOL    HW2 1623   0.737   0.567   1.611  0.9656 -1.5688  1.6457
  542SOL     OW 1624   1.824   2.413   2.387  0.5590 -0.1608 -0.0756
  542SOL    HW1 1625   1.802   2.353   2.312  0.1132  0.9190 -0.1492
  542SOL    HW2 1626   1.908   2.387   2.433 -2.0686  2.7160 -2.1023
  543SOL     OW 1627   0.863   2.823   1.150 -0.3720 -0.0499  0.1884
  543SOL    HW1 1628   0.810   2.868   1.079  0.6198 -1.0961  1.1769
  543SOL    HW2 1629   0.946   2.777   1.108 -2.3144  0.8178  2.8137
  544SOL     OW 1630   2.861   1.554   2.275 -0.1681 -0.0460  0.6338
  544SOL    HW1 1631   2.872   1.459   2.240  1.5910  1.6654  0.5322
  544SOL    HW2 1632   2.935   1.573   2.346  1.8026  0.4984  2.4876
  545SOL     OW 1633   1.786   2.089   1.461  0.1881 -0.1481 -0.5635
  545SOL    HW1 1634   1.815   2.051   1.549 -0.7095  2.2751  0.2421
  545SOL    HW2 1635   1.720   2.024   1.412 -1.3738 -0.4728  0.9266
  546SOL     OW 1636   0.230   0.352   2.458 -0.2085 -0.2693 -0.3687
  546SOL    HW1 1637   0.168   0.281   2.426  1.5522  2.3323  0.5271
  546SOL    HW2 1638   0.245   0.339   2.556  1.4454 -0.9308 -1.6907
  547SOL     OW 1639   1.454   0.312   0.694  0.1837  0.0163  0.0373
  547SOL    HW1 1640   1.511   0.368   0.752 -2.2016 -2.2632  0.3575
  547SOL    HW2 1641   1.356   0.347   0.711 -0.6539  5.5728 -2.3583
  548SOL     OW 1642   1.293   2.095   2.679  0.0498 -0.3865 -0.2844
  548SOL    HW1 1643   1.311   2.087   2.776  1.1269 -0.3857  0.1490
  548SOL    HW2 1644   1.338   2.176   2.636  0.6977 -0.2565 -0.7752
  549SOL     OW 1645   1.945   0.908   0.065 -0.6187 -0.2432  0.0112
  549SOL    HW1 1646   2.045   0.905   0.040 -0.0012 -0.0420  0.9568
  549SOL    HW2 1647   1.908   0.998   0.091  1.7543  1.7117 -0.7218
  550SOL     OW 1648   2.638   1.902   0.505  0.1493 -0.1246 -0.0519
  550SOL    HW1 1649   2.561   1.927   0.440  0.2525  0.7511 -1.4643
  550SOL    HW2 1650   2.734   1.911   0.465  1.2847 -0.4267 -0.1343
  551SOL     OW 1651   1.169   0.093   2.092  0.0148 -0.2260  0.1350
  551SOL    HW1 1652   1.266   0.072   2.059  2.5298 -0.8073 -0.3014
  551SOL    HW2 1653   1.154   0.073   2.192 -0.1850  1.0577 -3.1405
  552SOL     OW 1654   3.058   2.145   2.727  0.0361 -0.4291  0.9214
  552SOL    HW1 1655   2.997   2.108   2.651 -0.8450 -0.6417 -2.1248
  552SOL    HW2 1656   2.992   2.181   2.799 -0.5382  1.4596 -0.5839
  553SOL     OW 1657   2.879   2.497   1.072 -0.0753  0.0963  0.0238
  553SOL    HW1 1658   2.971   2.547   1.087  0.2499 -0.6857 -0.0836
  553SOL    HW2 1659   2.886   2.393   1.085  0.7258 -1.6608 -1.1375
  554SOL     OW 1660   2.339   1.809   1.915  0.1724 -0.0401  0.2694
  554SOL    HW1 1661   2.281   1.882   1.953 -0.2772 -2.3567 -1.0212
  554SOL    HW2 1662   2.303   1.782   1.823 -1.1876  1.3495  1.1123
  555SOL     OW 1663   1.511   2.132   2.110 -0.5485  0.2141 -0.5327
  555SOL    HW1 1664   1.483   2.033   2.092  0.1774  0.2606 -1.6508
  555SOL    HW2 1665   1.428   2.193   2.110  0.3639 -1.5796 -1.0759
  556SOL     OW 1666   1.413   1.650   1.262 -0.5725  0.1735 -0.2224
  556SOL    HW1 1667   1.391   1.603   1.350  2.4165 -3.1045 -0.1339
  556SOL    HW2 1668   1.406   1.752   1.256  1.2604  0.0313  0.4575
  557SOL     OW 1669   1.362   2.999   1.685 -0.0334 -0.7466 -0.4673
  557SOL    HW1 1670   1.411   3.031   1.766 -0.5477  0.4199 -1.5796
  557SOL    HW2 1671   1.273   2.946   1.710 -0.2407 -1.0296  2.6117
  558SOL     OW 1672   0.530   0.063   1.988 -0.4951 -0.5795  0.1720
  558SOL    HW1 1673   0.519   0.161   1.960 -1.8895  2.3131  0.0412
  558SOL    HW2 1674   0.436   0.023   2.010 -2.1966 -1.4611 -0.6840
  559SOL     OW 1675   2.419   2.632   0.324  0.1562  0.1388 -0.2338
  559SOL    HW1 1676   2.349   2.703   0.306 -1.6366  1.4476  1.8688
  559SOL    HW2 1677   2.424   2.608   0.424 -2.1758 -1.1055  2.3337
  560SOL     OW 1678   1.570   2.497   0.280  0.0284  0.3453 -0.3611
  560SOL    HW1 1679   1.650   2.443   0.329  0.8604 -0.1257  1.6374
  560SOL    HW2 1680   1.535   2.453   0.197  1.1216 -0.0117  0.3842
  561SOL     OW 1681   1.328   0.460   2.858 -0.1614  0.2019 -0.0371
  561SOL    HW1 1682   1.242   0.518   2.853 -3.1524 -1.9156  3.0058
  561SOL    HW2 1683   1.412   0.519   2.833 -0.8321  0.9034 -0.0710
  562SOL     OW 1684   0.410   1.455   2.118 -0.2593  0.3240  0.1667
  562SOL    HW1 1685   0.405   1.392   2.198 -1.7060 -1.9304  0.4256
  562SOL    HW2 1686   0.440   1.548   2.150 -2.9871  0.4572  2.3582
  563SOL     OW 1687   1.315   1.847   2.543  0.2854  0.0602  0.1604
  563SOL    HW1 1688   1.282   1.942   2.570 -2.5789  3.0451 -1.7069
  563SOL    HW2 1689   1.368   1.839   2.457  1.9279  0.0050  2.1167
  564SOL     OW 1690   3.033   1.046   0.962  0.0449  0.5236  0.0458
  564SOL    HW1 1691   2.968   0.975   1.003 -1.3660 -1.9552  1.5298
  564SOL    HW2 1692   2.988   1.136   0.967  1.5341 -1.1684 -0.1129
  565SOL     OW 1693   0.510   0.903   3.020  0.5265  0.3294  0.2427
  565SOL    HW1 1694   0.596   0.852   3.005 -0.1139  1.8915  0.5270
  565SOL    HW2 1695   0.453   0.852   3.091 -1.3004 -0.4798  1.4276
  566SOL     OW 1696   2.467   2.877   2.669 -0.5500 -0.5256 -0.0212
  566SOL    HW1 1697   2.445   2.974   2.658  1.5436 -0.2722 -2.7664
  566SOL    HW2 1698   2.421   2.845   2.752  1.9139 -2.7495  1.3614
  567SOL     OW 1699   1.443   1.190   1.019  0.2477 -0.2925 -0.1624
  567SOL    HW1 1700   1.472   1.267   0.954 -1.7566 -0.8603 -0.0775
  567SOL    HW2 1701   1.501   1.201   1.103 -0.7951 -0.0605 -1.5848
  568SOL     OW 1702   1.630   1.533   2.694 -0.3453  0.1275 -0.1238
  568SOL    HW1 1703   1.702   1.506   2.762 -1.0853  0.4852  0.5685
  568SOL    HW2 1704   1.639   1.480   2.609  0.3031 -1.0405  2.5915
  569SOL     OW 1705   2.357   1.512   0.106  0.6005 -0.4356  0.1773
  569SOL    HW1 1706   2.421   1.499   0.025  0.1997 -0.0394  1.0198
  569SOL    HW2 1707   2.259   1.495   0.089 -1.8637  0.2922  1.4013
  570SOL     OW 1708   0.058   2.222   1.822  0.9256 -0.1445  0.3244
  570SOL    HW1 1709   0.069   2.320   1.854  1.1637  0.7349  0.1218
  570SOL    HW2 1710   0.141   2.196   1.772  0.7484  1.6505 -3.3898
  571SOL     OW 1711   2.608   1.756   1.594 -0.6121 -0.4046  0.3871
  571SOL    HW1 1712   2.555   1.812   1.664  1.9327 -0.2910  1.5126
  571SOL    HW2 1713   2.609   1.656   1.616 -0.6075 -0.9044 -0.8052
  572SOL     OW 1714   2.046   2.449   0.322 -0.6667 -0.4567  0.0725
  572SOL    HW1 1715   2.027   2.472   0.228  4.0808  1.2014  0.4991
  572SOL    HW2 1716   2.137   2.408   0.323 -1.3601 -0.3871 -0.9528
  573SOL     OW 1717   1.566   2.049   0.399  0.1988  0.0052  0.0144
  573SOL    HW1 1718   1.646   2.013   0.354 -3.3698  1.4098  1.5927
  573SOL    HW2 1719   1.558   2.013   0.495  1.0635 -1.2943 -2.5265
  574SOL     OW 1720   1.350   0.093   1.501  0.6894 -0.0037 -0.0202
  574SOL    HW1 1721   1.354   0.006   1.550  1.2697  2.3477 -2.9861
  574SOL    HW2 1722   1.369   0.080   1.405 -0.1050  0.0691  1.8052
  575SOL     OW 1723   0.660   1.206   1.493 -0.6953  0.0346  0.2609
  575SOL    HW1 1724   0.624   1.256   1.573 -0.1845  0.7914  2.2640
  575SOL    HW2 1725   0.740   1.266   1.458  0.0309  1.7198 -1.6672
  576SOL     OW 1726   2.565   0.702   1.431 -0.9740  0.1061  0.0664
  576SOL    HW1 1727   2.554   0.618   1.492 -1.5971 -0.8589  0.2017
  576SOL    HW2 1728   2.656   0.706   1.391  0.0339  2.6352  0.7676
  577SOL     OW 1729   1.700   0.936   2.465  0.7552 -0.2611  0.5535
  577SOL    HW1 1730   1.659   1.010   2.522 -0.1663 -1.2802  0.1308
  577SOL    HW2 1731   1.628   0.891   2.411 -3.2120  1.0678 -0.9346
  578SOL     OW 1732   2.258   1.294   2.525 -0.0147  0.4988  0.2042
  578SOL    HW1 1733   2.275   1.380   2.578 -1.5534 -1.9236  0.0157
  578SOL    HW2 1734   2.209   1.305   2.440 -0.8823 -0.7468  2.7334
  579SOL     OW 1735   1.119   2.019   1.486 -0.5465 -0.1836 -0.1405
  579SOL    HW1 1736   1.065   2.102   1.499 -0.6753 -1.7683  0.1737
  579SOL    HW2 1737   1.070   1.966   1.411  0.3295  1.7261  0.3601
  580SOL     OW 1738   1.447   2.202   0.218  0.0169  0.2209  0.3193
  580SOL    HW1 1739   1.496   2.151   0.144  1.1056 -0.0353 -1.8605
  580SOL    HW2 1740   1.487   2.195   0.312  0.5576 -1.1679  1.8258
  581SOL     OW 1741   0.898   0.789   1.959 -0.7533  0.4865  0.5296
  581SOL    HW1 1742   0.817   0.730   1.951 -0.7203  1.2964 -0.3444
  581SOL    HW2 1743   0.906   0.820   2.052  2.3235 -3.6943 -0.8377
  582SOL     OW 1744   0.878   1.328   1.397 -0.1428  0.3288  0.7665
  582SOL    HW1 1745   0.890   1.263   1.318  1.5181  0.9369 -0.8452
  582SOL    HW2 1746   0.952   1.326   1.463 -1.9933  0.0799 -4.3237
  583SOL     OW 1747   0.623   1.049   1.773 -0.0377 -0.0097 -0.1509
  583SOL    HW1 1748   0.552   1.113   1.750  2.5429 -0.7499  3.8908
  583SOL    HW2 1749   0.709   1.090   1.750 -2.4501  1.0414 -1.9986
  584SOL     OW 1750   2.292   2.338   0.685 -0.3615 -0.1981 -0.2151
  584SOL    HW1 1751   2.359   2.311   0.760  1.8705 -1.6811  0.8863
  584SOL    HW2 1752   2.252   2.259   0.632 -1.0742 -0.4673 -1.1328
  585SOL     OW 1753   1.823   3.098   2.902 -0.1078 -0.2496 -0.3571
  585SOL    HW1 1754   1.798   0.102   2.917 -2.2616  2.6809 -2.1310
  585SOL    HW2 1755   1.843   0.000   2.800 -0.3258  1.8283 -1.4597
  586SOL     OW 1756   0.111   1.998   0.806  0.2067  0.5467  0.0214
  586SOL    HW1 1757   0.093   1.901   0.834  0.5197 -2.0239 -0.9247
  586SOL    HW2 1758   0.053   2.058   0.870 -0.4720  0.3981  3.2841
  587SOL     OW 1759   1.785   1.954   0.261  0.1100 -0.2317  0.4847
  587SOL    HW1 1760   1.856   1.888   0.288 -2.1589 -0.2735  0.0562
  587SOL    HW2 1761   1.827   2.030   0.208  0.9559  0.5402  2.0228
  588SOL     OW 1762   0.262   3.037   0.983  0.1891 -0.0293  0.0787
  588SOL    HW1 1763   0.165   3.036   1.001  1.4275 -0.7336 -0.0741
  588SOL    HW2 1764   0.299   0.028   0.959  2.2538  0.5395  1.7252
  589SOL     OW 1765   1.167   1.189   0.965 -0.1821 -0.2173  0.5752
  589SOL    HW1 1766   1.143   1.112   0.900 -0.3154 -1.0555  1.8053
  589SOL    HW2 1767   1.264   1.191   0.990 -0.9091 -3.4228  2.8244
  590SOL     OW 1768   1.405   1.264   3.094  0.2682 -0.0503 -0.0621
  590SOL    HW1 1769   1.462   1.296   0.071 -1.0655  0.0977  0.5510
  590SOL    HW2 1770   1.309   1.242   0.017 -1.0612  0.6035  0.7640
  591SOL     OW 1771   2.538   2.423   2.622  0.5422  0.2458  0.4298
  591SOL    HW1 1772   2.529   2.452   2.720 -1.0725  0.8227  1.5819
  591SOL    HW2 1773   2.526   2.507   2.568 -2.9376 -0.1603 -1.2045
  592SOL     OW 1774   1.584   2.272   1.499 -0.0189 -0.2162 -0.1658
  592SOL    HW1 1775   1.493   2.234   1.480 -0.0228  3.3148 -2.2009
  592SOL    HW2 1776   1.655   2.203   1.482 -0.7626  0.4969 -1.2508
  593SOL     OW 1777   0.876   0.135   1.044  0.2583 -0.8312  0.6499
  593SOL    HW1 1778   0.935   0.115   1.126  0.8648 -1.8411  0.9780
  593SOL    HW2 1779   0.927   0.144   0.954 -1.6345  1.0630  0.1718
  594SOL     OW 1780   2.939   0.680   2.315 -0.0664 -0.3279  0.1387
  594SOL    HW1 1781   3.034   0.691   2.277 -1.0671 -0.1013 -1.4741
  594SOL    HW2 1782   2.910   0.581   2.313 -0.2418  1.2133 -1.4123
  595SOL     OW 1783   0.836   2.663   1.359 -0.2147  0.3595  0.1012
  595SOL    HW1 1784   0.840   2.731   1.283 -2.6099  0.1264  2.3223
  595SOL    HW2 1785   0.793   2.586   1.312  2.5739  2.1590 -2.1304
  596SOL     OW 1786   3.079   0.908   1.443  0.3711 -0.1149 -0.1774
  596SOL    HW1 1787   2.995   0.963   1.431  2.1291 -0.7911 -2.4774
  596SOL    HW2 1788   0.023   0.897   1.358 -1.5994  1.4698  2.2827
  597SOL     OW 1789   1.617   1.788   0.091  0.1290 -0.1748  0.5176
  597SOL    HW1 1790   1.525   1.766   0.129 -0.9632  2.5217 -2.3064
  597SOL    HW2 1791   1.674   1.848   0.150  1.7899 -0.0464  1.2675
  598SOL     OW 1792   0.389   2.787   1.542 -0.5114 -0.9668 -0.1682
  598SOL    HW1 1793   0.382   2.845   1.457  0.1176  0.1568  0.7038
  598SOL    HW2 1794   0.457   2.711   1.525  1.7091 -1.2726 -0.5308
  599SOL     OW 1795   2.483   1.687   2.786 -0.0357 -0.2618  0.9120
  599SOL    HW1 1796   2.433   1.777   2.793 -3.0434  1.3900 -0.0880
  599SOL    HW2 1797   2.566   1.707   2.730 -0.7374  2.9854 -0.9417
  600SOL     OW 1798   0.748   1.043   0.133 -0.6628 -0.0543 -0.7473
  600SOL    HW1 1799   0.797   1.094   0.209 -0.7238 -1.4741  0.8803
  600SOL    HW2 1800   0.726   1.110   0.061  1.1769 -0.0935 -0.5243
  601SOL     OW 1801   0.560   0.610   0.725 -0.1014 -0.1916  0.1220
  601SOL    HW1 1802   0.546   0.704   0.689 -2.6678 -2.2261  1.7345
  601SOL    HW2 1803   0.537   0.602   0.826 -0.7305 -1.8797 -0.6298
  602SOL     OW 1804   1.308   2.931   0.705  0.4425 -0.5863 -0.2350
  602SOL    HW1 1805   1.407   2.950   0.696  1.0084  0.9998 -0.3758
  602SOL    HW2 1806   1.260   2.929   0.615  0.3986  1.7628  2.1562
  603SOL     OW 1807   0.708   2.941   2.130 -0.3371  0.4162  0.0181
  603SOL    HW1 1808   0.668   3.036   2.143  1.5542  2.1517  1.8874
  603SOL    HW2 1809   0.726   2.921   2.032 -2.0049  1.0904  1.8302
  604SOL     OW 1810   2.915   2.993   2.409 -0.1070 -0.6651  0.1962
  604SOL    HW1 1811   3.004   3.021   2.361  2.7060 -0.8806 -0.2998
  604SOL    HW2 1812   2.922   2.907   2.460 -0.5402  1.9620 -1.1578
  605SOL     OW 1813   2.570   1.984   1.210 -0.1688  0.2940  0.6352
  605SOL    HW1 1814   2.632   2.026   1.279 -1.2261  2.0149  0.7923
  605SOL    HW2 1815   2.517   1.913   1.256  4.0711  1.1972 -2.0569
  606SOL     OW 1816   0.466   1.577   2.646  0.3677 -0.1984 -0.8091
  606SOL    HW1 1817   0.373   1.621   2.642 -0.8301  1.0761 -0.3082
  606SOL    HW2 1818   0.455   1.482   2.682 -2.2954 -1.9953 -1.1038
  607SOL     OW 1819   0.931   0.052   0.451  0.3367  0.2587  0.1875
  607SOL    HW1 1820   0.877   0.098   0.379  1.5024 -0.0887  1.1501
  607SOL    HW2 1821   1.019   0.098   0.471 -3.5659  0.1694  1.3238
  608SOL     OW 1822   1.757   1.154   2.130  0.6202  0.0931 -0.2438
  608SOL    HW1 1823   1.663   1.112   2.136  0.6871 -2.4983  1.2687
  608SOL    HW2 1824   1.751   1.260   2.127 -0.2204  0.7433 -2.2555
  609SOL     OW 1825   3.075   0.059   1.032  0.3974 -0.2637 -0.1501
  609SOL    HW1 1826   0.039   0.045   1.111  0.9347 -2.5533  2.6886
  609SOL    HW2 1827   3.007   0.131   1.039  4.0242 -1.8354 -3.4138
  610SOL     OW 1828   0.704   2.748   0.727  0.8129  0.0074 -0.0784
  610SOL    HW1 1829   0.799   2.726   0.695  0.1838 -0.3718 -1.2338
  610SOL    HW2 1830   0.699   2.813   0.809  1.8760  1.0799 -0.4428
  611SOL     OW 1831   1.804   0.929   2.919 -0.2191  0.0950  0.4475
  611SOL    HW1 1832   1.845   0.883   2.997  3.0390 -0.2123 -0.4683
  611SOL    HW2 1833   1.716   0.971   2.945 -1.0461 -1.7291 -2.2061
  612SOL     OW 1834   0.653   2.248   2.119  0.5609  0.7764  0.1245
  612SOL    HW1 1835   0.723   2.192   2.075 -0.3602 -1.3239  0.7360
  612SOL    HW2 1836   0.679   2.343   2.116  3.8179 -2.4572  1.4608
  613SOL     OW 1837   1.012   2.595   0.201  0.6594 -0.4591 -0.4926
  613SOL    HW1 1838   1.111   2.614   0.213 -2.3963 -3.2380  2.0673
  613SOL    HW2 1839   0.999   2.526   0.129  0.0684  1.9337  0.2942
  614SOL     OW 1840   2.716   2.784   1.501  0.1070 -0.2254  0.0500
  614SOL    HW1 1841   2.773   2.769   1.418  0.6094  1.8355 -2.3927
  614SOL    HW2 1842   2.666   2.698   1.524  1.6534  3.0490  2.3220
  615SOL     OW 1843   2.301   1.092   0.377 -0.3587  0.2170  0.1169
  615SOL    HW1 1844   2.299   1.110   0.477  1.6187 -0.7086  0.5788
  615SOL    HW2 1845   2.214   1.111   0.330  1.0777  2.2515  0.5136
  616SOL     OW 1846   1.783   0.500   0.422 -0.2360 -0.1332 -0.0800
  616SOL    HW1 1847   1.685   0.482   0.408  0.1123  0.6084  0.8761
  616SOL    HW2 1848   1.806   0.531   0.517 -2.0571 -0.2596  3.1077
  617SOL     OW 1849   1.145   0.950   2.972  0.5444  0.2673 -0.7810
  617SOL    HW1 1850   1.233   0.907   2.991  1.1917 -0.8975  0.2120
  617SOL    HW2 1851   1.071   0.900   3.019 -2.9346 -2.2789  3.9046
  618SOL     OW 1852   0.738   0.120   1.775  0.5814  0.2090  0.1365
  618SOL    HW1 1853   0.816   0.118   1.842 -0.5054  2.3626 -3.3118
  618SOL    HW2 1854   0.652   0.130   1.823  1.5168 -2.0407 -0.3776
  619SOL     OW 1855   2.826   1.021   1.413 -0.0899 -0.0978 -0.0966
  619SOL    HW1 1856   2.852   1.086   1.340 -0.5639  0.4731 -0.9678
  619SOL    HW2 1857   2.781   1.072   1.487  1.9980 -3.5226 -0.0241
  620SOL     OW 1858   2.304   0.972   2.743  0.6344  0.2128  0.8556
  620SOL    HW1 1859   2.341   0.972   2.647 -1.9314  0.4628  2.2448
  620SOL    HW2 1860   2.204   0.985   2.734  1.6498  0.8240 -0.6350
  621SOL     OW 1861   2.477   2.606   1.280  0.5227 -0.2229  0.0342
  621SOL    HW1 1862   2.504   2.700   1.242  0.8140  1.3225 -0.7725
  621SOL    HW2 1863   2.560   2.546   1.293 -0.1713  0.6987  1.7668
  622SOL     OW 1864   1.074   0.833   2.634  0.1957 -0.1298  0.4249
  622SOL    HW1 1865   1.044   0.820   2.538  0.9474  3.1460 -1.7464
  622SOL    HW2 1866   1.125   0.921   2.647 -0.0353 -0.6064 -3.6776
  623SOL     OW 1867   1.098   0.599   2.795  0.4650  0.4019  0.4969
  623SOL    HW1 1868   1.013   0.547   2.799  1.6971  3.3911 -0.9167
  623SOL    HW2 1869   1.089   0.677   2.726 -1.1245  5.1152 -1.6920
  624SOL     OW 1870   1.909   0.675   0.203 -0.6318  0.1171 -0.4078
  624SOL    HW1 1871   1.920   0.748   0.135  0.1549 -1.0800  3.9094
  624SOL    HW2 1872   1.948   0.585   0.166  1.1015 -2.2364 -3.7351
  625SOL     OW 1873   1.060   1.433   1.004  0.0176  0.0606  0.0224
  625SOL    HW1 1874   1.106   1.344   0.985  1.2645  0.8638  0.8793
  625SOL    HW2 1875   1.089   1.470   1.093 -0.9139  1.2175  0.7047
  626SOL     OW 1876   1.786   1.165   2.774  0.2006  0.7039  0.1857
  626SOL    HW1 1877   1.865   1.196   2.711  0.0421 -1.7827 -1.9549
  626SOL    HW2 1878   1.802   1.075   2.812 -0.6973  1.4370 -0.5953
  627SOL     OW 1879   1.017   0.210   2.440 -0.0996  0.1829  0.3756
  627SOL    HW1 1880   1.051   0.118   2.402 -0.9120  0.7119 -1.3978
  627SOL    HW2 1881   1.043   0.214   2.539  1.5321 -1.5251 -0.6039
  628SOL     OW 1882   2.561   0.161   2.208 -0.0755 -0.0794  0.2242
  628SOL    HW1 1883   2.587   0.240   2.148 -1.6636  1.1843  1.1409
  628SOL    HW2 1884   2.545   0.186   2.308 -0.7308  2.1351  0.5005
  629SOL     OW 1885   0.835   0.814   2.826 -0.1424  0.3654  0.2415
  629SOL    HW1 1886   0.924   0.821   2.775 -2.0536 -2.8920  1.9338
  629SOL    HW2 1887   0.843   0.837   2.928  0.9330  0.2990  0.0545
  630SOL     OW 1888   1.129   0.501   1.982 -0.1700 -0.6936 -0.1908
  630SOL    HW1 1889   1.048   0.555   1.952 -1.9041 -0.3926 -0.5803
  630SOL    HW2 1890   1.111   0.456   2.070  0.4417  2.2221 -1.3152
  631SOL     OW 1891   2.905   0.709   0.592 -0.0373 -0.1301 -0.1039
  631SOL    HW1 1892   2.832   0.647   0.573  1.3988  1.8612  0.8592
  631SOL    HW2 1893   2.989   0.696   0.532  1.6843 -0.2962  0.0331
  632SOL     OW 1894   2.093   0.994   1.281 -0.0427  0.7077 -0.2352
  632SOL    HW1 1895   2.064   0.960   1.370 -0.4727 -0.9205  0.1915
  632SOL    HW2 1896   2.127   0.917   1.220 -4.1719 -0.1700 -1.2531
  633SOL     OW 1897   1.175   0.929   0.864  0.2087 -0.0102 -0.2983
  633SOL    HW1 1898   1.113   0.851   0.875  0.4385  0.8826 -0.6415
  633SOL    HW2 1899   1.264   0.924   0.909 -1.3415  1.9270  1.3150
  634SOL     OW 1900   1.762   2.970   1.085 -0.0092 -0.0056 -0.0632
  634SOL    HW1 1901   1.860   2.942   1.073 -0.0116 -0.7770  1.4506
  634SOL    HW2 1902   1.704   2.889   1.113  1.0853 -1.2509  2.2177
  635SOL     OW 1903   1.426   0.921   0.989  0.2997 -0.2547  0.3257
  635SOL    HW1 1904   1.483   0.867   0.919  0.6869 -1.5996 -2.0583
  635SOL    HW2 1905   1.453   1.023   0.991  0.9548  0.6318  1.1111
  636SOL     OW 1906   0.904   0.994   0.614  0.3871  0.3738  0.4857
  636SOL    HW1 1907   0.857   1.000   0.702 -0.4497 -2.3637  1.2885
  636SOL    HW2 1908   1.004   1.024   0.623 -2.1138  0.8339  1.8681
  637SOL     OW 1909   2.548   2.230   0.218  0.0276  0.0599  0.2356
  637SOL    HW1 1910   2.575   2.242   0.316 -1.8516  1.1674  0.3475
  637SOL    HW2 1911   2.605   2.160   0.166  0.0401 -0.6323 -3.3625
  638SOL     OW 1912   1.448   2.732   2.749 -0.1401 -0.4120 -0.2412
  638SOL    HW1 1913   1.502   2.691   2.674 -2.1160  0.6441  2.0460
  638SOL    HW2 1914   1.477   2.704   2.844  0.3472 -2.2753 -1.8275
  639SOL     OW 1915   0.866   2.129   1.216 -0.1802 -0.1836  0.0243
  639SOL    HW1 1916   0.915   2.176   1.143 -2.5071 -2.2145 -2.2783
  639SOL    HW2 1917   0.918   2.049   1.256  0.8816 -1.0066 -0.8104
  640SOL     OW 1918   2.972   2.570   0.634  0.2270  0.0473 -0.3304
  640SOL    HW1 1919   2.930   2.486   0.682  0.6995  1.2163  1.6795
  640SOL    HW2 1920   3.006   2.545   0.545 -3.1147 -1.5177  0.4301
  641SOL     OW 1921   0.554   0.415   0.269  0.6967 -0.4753  0.4172
  641SOL    HW1 1922   0.471   0.459   0.306 -1.8497 -0.7921 -0.2164
  641SOL    HW2 1923   0.549   0.411   0.165  2.5039  2.7548  0.4630
  642SOL     OW 1924   2.960   0.698   1.095  0.2096 -0.2482  0.3157
  642SOL    HW1 1925   2.937   0.610   1.054 -1.2027 -0.7540  0.6555
  642SOL    HW2 1926   2.891   0.770   1.065 -1.8356  0.1315 -0.9510
  643SOL     OW 1927   0.763   1.905   1.849 -0.5742 -0.3526 -0.1963
  643SOL    HW1 1928   0.689   1.845   1.879  1.3263  0.4818  3.0336
  643SOL    HW2 1929   0.778   1.977   1.920  0.8799  0.3329  1.2079
  644SOL     OW 1930   1.511   2.714   0.158  0.0401 -0.0211  0.1504
  644SOL    HW1 1931   1.555   2.645   0.217 -0.3759 -2.9765  1.4229
  644SOL    HW2 1932   1.548   2.803   0.187  0.1026  2.6908 -1.4309
  645SOL     OW 1933   1.896   2.164   0.816 -0.0484  0.3419 -0.1183
  645SOL    HW1 1934   1.912   2.121   0.724 -0.5760 -0.4003 -2.2852
  645SOL    HW2 1935   1.967   2.235   0.832 -0.3545  2.5293  0.0382
  646SOL     OW 1936   1.132   3.045   0.103  0.0792  0.6569  0.2307
  646SOL    HW1 1937   1.170   3.023   0.012  2.1753 -0.0723  3.2490
  646SOL    HW2 1938   1.034   3.023   0.111 -3.8073  0.3694  0.6347
  647SOL     OW 1939   0.452   2.800   1.802 -0.4293 -0.7792  0.2434
  647SOL    HW1 1940   0.412   2.880   1.856 -0.6036 -0.8496  0.6202
  647SOL    HW2 1941   0.427   2.792   1.703  0.8755  0.2162 -0.1108
  648SOL     OW 1942   1.783   0.941   1.368 -0.1224  0.0043  0.0975
  648SOL    HW1 1943   1.860   0.959   1.429  1.6730 -1.5278 -0.4251
  648SOL    HW2 1944   1.814   0.888   1.289 -1.2216  2.6631  2.4860
  649SOL     OW 1945   1.616   2.289   2.783 -0.8511 -0.2438 -0.2637
  649SOL    HW1 1946   1.628   2.189   2.808 -2.9153 -0.7302 -0.3825
  649SOL    HW2 1947   1.579   2.332   2.868 -2.4456  1.0000  0.1937
  650SOL     OW 1948   2.206   1.449   1.951  0.2939 -0.1525 -0.2639
  650SOL    HW1 1949   2.305   1.473   1.972  2.5241 -1.7450  2.8763
  650SOL    HW2 1950   2.156   1.469   2.038 -0.9945 -0.2723 -0.2533
  651SOL     OW 1951   1.437   1.808   2.970 -0.1554  0.0300  0.4547
  651SOL    HW1 1952   1.422   1.723   3.019  2.2168  2.5126 -0.3431
  651SOL    HW2 1953   1.512   1.805   2.898  0.1939 -0.8607 -0.8873
  652SOL     OW 1954   0.706   2.686   2.921  0.1179  0.3504  0.0691
  652SOL    HW1 1955   0.803   2.734   2.921  3.1275  1.8630 -0.1630
  652SOL    HW2 1956   0.640   2.750   2.963  3.1578  0.7239 -0.9560
  653SOL     OW 1957   2.317   1.871   1.128  0.1038  0.0997  0.0307
  653SOL    HW1 1958   2.362   1.953   1.092 -1.1221  3.2222 -1.1722
  653SOL    HW2 1959   2.349   1.855   1.223  0.6682 -0.7746  0.2334
  654SOL     OW 1960   2.832   2.644   1.932  0.3338 -0.5014  0.2285
  654SOL    HW1 1961   2.855   2.730   1.878  2.5346  2.1663  1.6207
  654SOL    HW2 1962   2.826   2.559   1.876 -0.9032  0.6687  2.6875
  655SOL     OW 1963   2.821   2.208   1.108  0.0820 -0.1948 -0.4543
  655SOL    HW1 1964   2.764   2.148   1.044 -0.7014 -0.7406 -1.6961
  655SOL    HW2 1965   2.778   2.218   1.197 -0.3269 -0.5801 -3.0461
  656SOL     OW 1966   0.212   2.837   2.737 -0.2333 -0.0599 -0.1330
  656SOL    HW1 1967   0.238   2.857   2.639  3.1848  0.7947 -0.8062
  656SOL    HW2 1968   0.135   2.772   2.747 -1.3045  1.0770 -0.8652
  657SOL     OW 1969   3.093   0.833   0.278 -0.0676  0.0545 -0.2076
  657SOL    HW1 1970   0.030   0.778   0.358 -0.4229  1.5178 -0.9199
  657SOL    HW2 1971   0.069   0.896   0.241  2.1229 -0.9756 -2.4449
  658SOL     OW 1972   1.648   1.878   1.061 -0.3397  0.2537  0.3072
  658SOL    HW1 1973   1.650   1.885   1.167 -2.4822 -0.2055  2.2321
  658SOL    HW2 1974   1.597   1.956   1.025 -1.2672  0.4392 -4.5811
  659SOL     OW 1975   1.720   0.602   1.198 -0.2478 -0.2745  0.4695
  659SOL    HW1 1976   1.733   0.506   1.155 -0.3119 -0.4666  0.3546
  659SOL    HW2 1977   1.624   0.623   1.190  2.4644 -1.4559 -2.1693
  660SOL     OW 1978   1.396   1.514   0.405  0.4781  0.9563  0.2498
  660SOL    HW1 1979   1.305   1.465   0.396 -1.9012  1.4620  0.1116
  660SOL    HW2 1980   1.423   1.531   0.500 -0.8729  0.3448 -0.5441
  661SOL     OW 1981   0.197   1.856   0.488  0.0081  0.5486 -0.4221
  661SOL    HW1 1982   0.127   1.922   0.456 -0.6175 -1.8158 -0.7768
  661SOL    HW2 1983   0.291   1.889   0.471 -0.7033 -4.6856  0.7663
  662SOL     OW 1984   0.098   0.676   2.217 -0.5950 -0.4082  0.5735
  662SOL    HW1 1985   0.128   0.635   2.130  1.9304  2.4184  1.4049
  662SOL    HW2 1986   0.122   0.777   2.216  0.1965  3.0190  0.3203
  663SOL     OW 1987   2.066   1.514   1.231  0.3005 -1.0142 -0.1233
  663SOL    HW1 1988   2.007   1.444   1.191  0.3952  0.5590  0.7904
  663SOL    HW2 1989   2.011   1.602   1.237  0.0772 -0.3198 -1.1211
  664SOL     OW 1990   0.544   0.584   0.995 -0.1279  0.0664  0.2261
  664SOL    HW1 1991   0.500   0.591   1.086  0.8572 -0.1775  0.0040
  664SOL    HW2 1992   0.611   0.511   1.001  0.2365  1.7035  0.0092
  665SOL     OW 1993   1.287   3.016   2.952  0.8016  0.2729 -0.0975
  665SOL    HW1 1994   1.385   3.001   2.978 -2.2072  0.9669 -3.5394
  665SOL    HW2 1995   1.281   0.005   2.911 -1.2393 -1.6351 -0.9313
  666SOL     OW 1996   0.148   0.631   2.480  0.4295  0.0366 -0.1696
  666SOL    HW1 1997   0.153   0.525   2.493 -2.0383 -4.3180  1.9471
  666SOL    HW2 1998   0.122   0.647   2.380 -3.0306  1.6226 -1.8001
  667SOL     OW 1999   2.067   1.368   2.326  0.4660 -0.0405 -0.4063
  667SOL    HW1 2000   2.022   1.419   2.403  1.7216  0.6701 -1.4424
  667SOL    HW2 2001   2.025   1.279   2.304 -1.0373  0.0216 -0.2368
  668SOL     OW 2002   0.000   1.650   3.048 -0.4441 -0.1793  0.2347
  668SOL    HW1 2003   0.048   1.598   2.977 -2.2546 -0.0345  1.3035
  668SOL    HW2 2004   3.005   1.619   3.065 -0.2174 -0.0417 -2.1002
  669SOL     OW 2005   2.064   2.709   2.542 -0.0882 -0.8476  0.4237
  669SOL    HW1 2006   2.068   2.705   2.439 -0.7587 -1.3768  0.7451
  669SOL    HW2 2007   2.147   2.661   2.576  0.2283 -0.2966 -0.0237
  670SOL     OW 2008   2.614   0.952   2.507 -0.0378  0.3496 -0.1734
  670SOL    HW1 2009   2.583   0.858   2.527  1.9641 -0.2377  1.0858
  670SOL    HW2 2010   2.533   1.015   2.515 -1.9817 -1.0591 -1.6028
  671SOL     OW 2011   2.457   1.306   0.275 -0.6596  0.2462 -0.6100
  671SOL    HW1 2012   2.429   1.362   0.199  1.3828 -0.5316  3.4721
  671SOL    HW2 2013   2.407   1.217   0.272 -0.2984 -1.2117 -2.1744
  672SOL     OW 2014   2.712   1.230   2.343 -0.3079  0.1387 -0.0467
  672SOL    HW1 2015   2.720   1.310   2.408 -1.3435  2.9621  2.2398
  672SOL    HW2 2016   2.782   1.156   2.364 -0.0150  0.4279  2.7064
  673SOL     OW 2017   2.823   1.435   1.495 -0.2862 -0.0048 -0.1532
  673SOL    HW1 2018   2.850   1.505   1.429 -1.8703 -4.1163  2.4885
  673SOL    HW2 2019   2.876   1.347   1.473  1.7549 -3.3267 -1.2097
  674SOL     OW 2020   1.796   1.585   1.694  0.6756  0.3804  0.1056
  674SOL    HW1 2021   1.705   1.619   1.731 -5.2729  0.1461 -0.0833
  674SOL    HW2 2022   1.881   1.603   1.757 -0.0591  2.2642  1.2949
  675SOL     OW 2023   2.895   0.359   1.072  0.2119 -0.3524 -0.4670
  675SOL    HW1 2024   2.901   0.406   0.982  1.0558 -1.5799  0.2591
  675SOL    HW2 2025   2.807   0.380   1.112  0.3947 -1.7605 -0.5548
  676SOL     OW 2026   2.070   0.919   0.903 -0.1219 -0.1508  0.6966
  676SOL    HW1 2027   2.027   0.974   0.979  0.2617  0.6859  0.1340
  676SOL    HW2 2028   1.992   0.884   0.843 -0.1479  0.6120  0.8518
  677SOL     OW 2029   1.521   1.464   2.293  0.2968  0.6416  0.4865
  677SOL    HW1 2030   1.490   1.560   2.309  0.5524 -1.6727  2.3530
  677SOL    HW2 2031   1.438   1.406   2.282 -0.3676  0.3709 -1.5160
  678SOL     OW 2032   2.523   1.417   1.119  0.2373 -0.2739  0.1968
  678SOL    HW1 2033   2.571   1.340   1.077  0.0851 -0.1374 -0.7280
  678SOL    HW2 2034   2.421   1.393   1.125 -2.9244 -0.0019 -0.0927
  679SOL     OW 2035   0.398   2.617   0.858 -0.3405  0.2446 -0.3612
  679SOL    HW1 2036   0.374   2.695   0.798  0.3172 -1.5033  0.8012
  679SOL    HW2 2037   0.318   2.563   0.881  1.7872  1.0564 -1.1954
  680SOL     OW 2038   3.065   2.130   1.014  0.1059 -0.0695  0.2655
  680SOL    HW1 2039   0.044   2.133   1.079  0.0292  0.9302  0.4799
  680SOL    HW2 2040   2.980   2.177   1.055 -3.6212  3.9452  1.2661
  681SOL     OW 2041   0.780   0.932   1.212  0.7895 -0.2118 -0.8467
  681SOL    HW1 2042   0.837   1.013   1.188  0.9059 -0.1494  1.6737
  681SOL    HW2 2043   0.764   0.867   1.133  0.0149 -0.0109 -0.8628
  682SOL     OW 2044   1.586   2.877   0.681  0.3745  0.0395 -0.5192
  682SOL    HW1 2045   1.636   2.953   0.726 -0.0260 -3.3558  0.2800
  682SOL    HW2 2046   1.632   2.844   0.599 -1.4362  2.1112  2.2161
  683SOL     OW 2047   2.168   1.394   1.682 -0.5964 -0.2507 -0.0728
  683SOL    HW1 2048   2.195   1.433   1.773 -1.2836  3.1062 -1.8877
  683SOL    HW2 2049   2.196   1.459   1.602 -1.0336  4.5151 -3.6084
  684SOL     OW 2050   3.022   1.731   1.549 -0.3337  0.1712 -0.3173
  684SOL    HW1 2051   2.938   1.705   1.494 -2.4718  0.3585  0.5037
  684SOL    HW2 2052   3.011   1.715   1.646  0.6678  1.4212 -1.3307
  685SOL     OW 2053   2.028   1.810   0.231 -0.3901  0.3234  0.1941
  685SOL    HW1 2054   1.992   1.711   0.220 -1.4191  0.1502  0.0772
  685SOL    HW2 2055   2.126   1.810   0.213  2.2367  0.9357  2.1544
  686SOL     OW 2056   3.001   0.197   0.742 -0.6083 -0.3516 -0.0622
  686SOL    HW1 2057   3.039   0.188   0.837 -0.5707 -0.6695  0.5446
  686SOL    HW2 2058   2.911   0.148   0.727  1.1967 -0.6719 -0.1766
  687SOL     OW 2059   1.586   3.057   3.044 -0.0562 -0.3218 -0.0060
  687SOL    HW1 2060   1.568   0.049   3.086 -2.2254 -0.6767 -0.3129
  687SOL    HW2 2061   1.664   3.065   2.987 -2.8436 -0.7345  0.1952
  688SOL     OW 2062   1.783   1.902   2.204  0.2816  0.1503 -0.0555
  688SOL    HW1 2063   1.869   1.901   2.257  0.2395  0.0691  0.7370
  688SOL    HW2 2064   1.747   2.001   2.205 -1.6168  3.7667 -0.9978
  689SOL     OW 2065   2.670   1.019   2.043 -0.2648  0.0524 -0.3632
  689SOL    HW1 2066   2.669   1.119   2.017 -0.1323  1.6017 -2.1610
  689SOL    HW2 2067   2.713   1.005   2.137  0.4587  1.1853  1.8858
  690SOL     OW 2068   1.844   1.459   0.913 -0.1713 -0.6527  0.0062
  690SOL    HW1 2069   1.893   1.394   0.970 -2.5376  3.1307 -1.6427
  690SOL    HW2 2070   1.766   1.502   0.967 -1.4984 -0.1344 -4.5117
  691SOL     OW 2071   0.723   1.535   1.315  0.0984 -0.2427  1.0303
  691SOL    HW1 2072   0.784   1.461   1.345  0.4187  2.0531 -0.8240
  691SOL    HW2 2073   0.638   1.493   1.275  1.2624 -0.4093  1.0603
  692SOL     OW 2074   1.982   3.069   2.149  0.2844 -0.1399  0.2424
  692SOL    HW1 2075   2.054   0.038   2.121 -1.4610  0.1284  0.5564
  692SOL    HW2 2076   1.961   3.017   2.063  0.1321 -0.0486 -0.0298
  693SOL     OW 2077   3.069   1.265   2.845  0.1958  0.6153 -0.0856
  693SOL    HW1 2078   3.091   1.360   2.811  0.6349  1.3999  0.4505
  693SOL    HW2 2079   3.056   1.204   2.766 -0.4258  2.1090  2.3315
  694SOL     OW 2080   1.985   0.193   1.196  0.3442 -0.0271 -0.2881
  694SOL    HW1 2081   1.990   0.091   1.208 -0.0806 -0.6905 -3.6630
  694SOL    HW2 2082   2.004   0.243   1.284 -0.0522  0.0841 -2.6094
  695SOL     OW 2083   1.402   1.251   2.794 -0.0881  0.7028  0.4224
  695SOL    HW1 2084   1.399   1.235   2.892 -1.0750  0.6707 -1.3785
  695SOL    HW2 2085   1.443   1.336   2.760 -0.2232 -2.1530 -2.3003
  696SOL     OW 2086   1.987   0.118   1.744  0.0232 -0.3410 -0.3968
  696SOL    HW1 2087   1.984   0.133   1.642 -1.9899 -1.0819 -2.4718
  696SOL    HW2 2088   2.079   0.141   1.779 -2.5835 -1.7115 -0.7595
  697SOL     OW 2089   1.619   0.591   2.259 -0.5197 -0.4194  0.4072
  697SOL    HW1 2090   1.618   0.537   2.345  0.7935 -0.9403  2.4015
  697SOL    HW2 2091   1.585   0.540   2.180  0.5611 -0.8699  1.9116
  698SOL     OW 2092   2.037   1.739   2.625  0.6051  0.8191  0.1551
  698SOL    HW1 2093   2.053   1.718   2.721 -0.2032 -0.3333 -1.2239
  698SOL    HW2 2094   1.968   1.668   2.591 -0.5838  0.5297 -1.3815
  699SOL     OW 2095   1.606   1.175   0.689 -0.0397  0.3178 -0.0767
  699SOL    HW1 2096   1.601   1.222   0.781  0.9401  0.9724  3.6498
  699SOL    HW2 2097   1.669   1.093   0.697 -1.6897 -1.6782 -0.2113
  700SOL     OW 2098   1.606   2.957   0.192 -0.3144  0.1918 -0.7516
  700SOL    HW1 2099   1.596   2.988   0.093  1.4042  1.3995 -0.3939
  700SOL    HW2 2100   1.601   3.040   0.253  0.5125 -1.1476 -1.4330
  701SOL     OW 2101   0.176   0.553   1.303 -0.0356  0.1155  0.3849
  701SOL    HW1 2102   0.173   0.608   1.217  0.9870  1.2070  3.5546
  701SOL    HW2 2103   0.087   0.502   1.318  0.7469  0.3633 -0.2233
  702SOL     OW 2104   1.785   0.102   1.432  0.3886  0.0001 -0.3828
  702SOL    HW1 2105   1.867   0.051   1.406  1.3669 -0.6212 -0.6264
  702SOL    HW2 2106   1.704   0.040   1.453 -2.2523 -0.7170 -0.5556
  703SOL     OW 2107   2.634   0.586   1.729  0.6556  0.3780 -0.0273
  703SOL    HW1 2108   2.665   0.504   1.779  1.8110 -0.0938 -1.4791
  703SOL    HW2 2109   2.704   0.661   1.728 -1.1468 -2.6531 -0.3518
  704SOL     OW 2110   1.239   2.139   1.156 -0.1122 -0.0398 -0.0257
  704SOL    HW1 2111   1.250   2.205   1.232  2.3471 -2.3817  0.3377
  704SOL    HW2 2112   1.241   2.190   1.070  0.6401  0.6690  0.6181
  705SOL     OW 2113   0.122   1.740   2.215 -0.4574 -0.7342 -0.1978
  705SOL    HW1 2114   0.148   1.747   2.313  1.8461 -2.6439  3.3522
  705SOL    HW2 2115   0.106   1.643   2.187  1.2312  2.2283  1.0320
  706SOL     OW 2116   2.379   0.341   2.822 -0.5474  0.2965 -0.3697
  706SOL    HW1 2117   2.305   0.401   2.849  1.8662 -1.1962 -1.3880
  706SOL    HW2 2118   2.398   0.275   2.895  2.7950 -2.2477  0.2706
  707SOL     OW 2119   1.583   2.824   2.418 -0.0086  0.7398  0.5716
  707SOL    HW1 2120   1.677   2.790   2.400  3.9347  0.4612  0.9495
  707SOL    HW2 2121   1.523   2.745   2.423  2.4612  1.7205 -0.6891
  708SOL     OW 2122   0.621   2.223   1.288  0.2543 -0.0159 -0.1645
  708SOL    HW1 2123   0.650   2.322   1.305  1.3911  3.1307  0.6151
  708SOL    HW2 2124   0.697   2.168   1.250 -1.0056  0.6708  1.4575
  709SOL     OW 2125   2.681   0.938   1.760 -0.3411 -0.0870  0.0700
  709SOL    HW1 2126   2.706   0.943   1.861 -0.4623  1.2273  1.3648
  709SOL    HW2 2127   2.730   0.870   1.707 -0.0240  1.0995  0.7129
  710SOL     OW 2128   3.021   0.510   1.584  0.0911 -0.2079  0.2837
  710SOL    HW1 2129   3.000   0.493   1.486  1.2485  2.2303  1.5707
  710SOL    HW2 2130   2.975   0.600   1.614  0.0877 -0.9528  2.7161
  711SOL     OW 2131   0.117   2.780   0.930 -0.3108  0.6562  0.4502
  711SOL    HW1 2132   0.132   2.682   0.916  2.3972  1.6327  2.0580
  711SOL    HW2 2133   0.196   2.835   0.893  0.3470  0.1627 -0.1630
  712SOL     OW 2134   0.341   2.960   2.518  0.5134 -0.0562 -0.2642
  712SOL    HW1 2135   0.403   3.029   2.558 -1.0152  0.6371 -3.2504
  712SOL    HW2 2136   0.390   2.879   2.467  1.3479 -2.9426 -2.1309
  713SOL     OW 2137   2.131   0.422   0.355 -0.3173  0.7576  0.2162
  713SOL    HW1 2138   2.206   0.437   0.428  0.4922 -1.2535  4.1898
  713SOL    HW2 2139   2.166   0.415   0.262 -1.3222 -1.5803  2.7831
  714SOL     OW 2140   1.646   1.491   0.007 -0.8968  0.3953  0.1398
  714SOL    HW1 2141   1.627   1.591   0.027 -2.4327 -1.4801 -0.8557
  714SOL    HW2 2142   1.614   1.430   0.080  1.0414 -0.1023  1.7824
  715SOL     OW 2143   0.115   0.413   0.362  0.0628 -0.0544 -0.0121
  715SOL    HW1 2144   0.123   0.388   0.263 -1.2294  1.7068 -0.4791
  715SOL    HW2 2145   0.200   0.378   0.404  0.6244 -0.0144 -0.7576
  716SOL     OW 2146   0.927   0.113   1.974  0.0234 -0.1100 -0.0108
  716SOL    HW1 2147   1.014   0.111   2.030  1.7003 -1.6844  1.5035
  716SOL    HW2 2148   0.849   0.110   2.044  0.2958 -0.4326  0.1695
  717SOL     OW 2149   0.318   0.537   2.810  0.0033 -0.5713 -0.2653
  717SOL    HW1 2150   0.293   0.443   2.772 -0.2896  1.5136 -1.6425
  717SOL    HW2 2151   0.244   0.601   2.782 -1.4835 -0.9073  0.2249
  718SOL     OW 2152   1.435   0.648   0.425  0.0410 -0.0160  0.6467
  718SOL    HW1 2153   1.503   0.683   0.361 -0.7353 -0.0254  0.4638
  718SOL    HW2 2154   1.350   0.700   0.408 -0.4402  1.3525 -0.3815
  719SOL     OW 2155   2.367   1.991   0.009 -0.0933 -0.1702  0.4303
  719SOL    HW1 2156   2.367   1.932   3.023  0.8144 -0.4649 -0.6997
  719SOL    HW2 2157   2.452   2.046   0.025 -0.5384 -3.3993  0.2676
  720SOL     OW 2158   1.131   0.947   1.373 -0.2922  0.2283 -0.3595
  720SOL    HW1 2159   1.198   1.005   1.428  0.0053 -0.2685  0.2293
  720SOL    HW2 2160   1.052   0.918   1.425 -1.6171 -0.0642 -0.6307
  721SOL     OW 2161   0.003   2.692   1.159 -0.2224  0.4337 -0.0488
  721SOL    HW1 2162   0.051   2.746   1.084  0.9522 -0.4017  1.7962
  721SOL    HW2 2163   0.066   2.615   1.192  0.7847 -0.0656 -2.0207
  722SOL     OW 2164   0.976   1.667   2.617 -0.4294  0.1777 -0.1574
  722SOL    HW1 2165   1.056   1.697   2.672  1.5428 -0.0795 -2.6180
  722SOL    HW2 2166   0.958   1.747   2.562  3.3500 -1.5872 -0.5253
  723SOL     OW 2167   1.845   0.188   0.708  0.2625 -0.1067  0.3968
  723SOL    HW1 2168   1.798   0.141   0.633 -0.2156  0.5514  1.0167
  723SOL    HW2 2169   1.945   0.177   0.699 -0.0360  0.8637  2.2167
  724SOL     OW 2170   0.632   2.230   2.627  0.4927 -0.1616 -0.1565
  724SOL    HW1 2171   0.681   2.239   2.711  0.4151  1.4522  1.9327
  724SOL    HW2 2172   0.530   2.232   2.638 -0.5946  0.3329 -1.7066
  725SOL     OW 2173   0.126   0.705   1.072  0.0542 -0.0982 -0.2399
  725SOL    HW1 2174   0.025   0.707   1.094 -2.2385 -0.0120 -1.5841
  725SOL    HW2 2175   0.140   0.686   0.971 -1.8980  1.0419  2.4011
  726SOL     OW 2176   2.436   0.329   0.715  0.4907 -0.2616 -0.1250
  726SOL    HW1 2177   2.460   0.322   0.615  1.8969 -0.1062 -0.3941
  726SOL    HW2 2178   2.332   0.318   0.727 -2.8257  0.4342  0.2102
  727SOL     OW 2179   1.993   1.119   2.258 -0.3138  0.4106 -0.0878
  727SOL    HW1 2180   1.908   1.122   2.202 -0.9706  2.4802  0.1624
  727SOL    HW2 2181   1.976   1.047   2.330 -0.2262  0.9572 -0.0650
  728SOL     OW 2182   1.586   3.015   1.504  0.0919 -0.9236 -0.2625
  728SOL    HW1 2183   1.526   2.998   1.588  1.7084 -4.2086  0.4685
  728SOL    HW2 2184   1.582   2.939   1.436  3.1042  1.8882 -0.9157
  729SOL     OW 2185   1.941   0.560   1.958  0.2603  0.3473 -0.0351
  729SOL    HW1 2186   1.918   0.661   1.965 -1.1672  2.0016  0.9513
  729SOL    HW2 2187   1.861   0.505   1.931  2.0016 -1.7743 -0.0040
  730SOL     OW 2188   0.585   0.830   1.360 -0.1119 -0.5676  0.2473
  730SOL    HW1 2189   0.633   0.746   1.390  0.8057 -0.4815 -1.3254
  730SOL    HW2 2190   0.641   0.886   1.293  2.2851  3.0638  0.5158
  731SOL     OW 2191   0.238   3.061   0.337 -0.2660 -0.8195 -0.0446
  731SOL    HW1 2192   0.176   3.086   0.416 -1.2072  0.7372 -1.2067
  731SOL    HW2 2193   0.324   0.012   0.331  1.7134 -0.4078  1.8270
  732SOL     OW 2194   0.758   0.632   0.339 -0.1224  0.1588  0.3841
  732SOL    HW1 2195   0.680   0.569   0.359  1.3304 -1.4863  0.0600
  732SOL    HW2 2196   0.726   0.728   0.349 -0.9863  0.7167  2.0077
  733SOL     OW 2197   1.926   1.479   2.539  0.3645  0.1164  0.2329
  733SOL    HW1 2198   1.831   1.443   2.533  1.0389 -1.0949  1.5602
  733SOL    HW2 2199   1.970   1.439   2.618 -1.8999 -0.9310 -0.5379
  734SOL     OW 2200   2.971   2.129   2.004 -0.1383 -0.6701 -0.6496
  734SOL    HW1 2201   3.048   2.150   1.939  1.2028 -1.4135  0.0177
  734SOL    HW2 2202   2.923   2.212   2.036 -2.0824 -1.2488  1.2254
  735SOL     OW 2203   1.779   0.351   1.105 -0.2195 -0.2105 -0.0863
  735SOL    HW1 2204   1.878   0.342   1.128  1.2455  1.3107 -1.8205
  735SOL    HW2 2205   1.740   0.262   1.129  3.5668  0.8055  0.5761
  736SOL     OW 2206   0.953   1.386   3.057  0.3325 -0.3290 -0.0606
  736SOL    HW1 2207   0.969   1.428   2.968  0.8465  0.8936  4.3680
  736SOL    HW2 2208   0.998   1.442   0.030  2.8764 -0.0787  0.6044
  737SOL     OW 2209   2.965   0.311   0.464  0.0092 -0.1687  0.3589
  737SOL    HW1 2210   3.053   0.348   0.423  0.4533 -0.0074  0.1801
  737SOL    HW2 2211   2.977   0.283   0.563 -1.1286  0.1731  2.8564
  738SOL     OW 2212   0.546   2.388   1.610  0.1161  0.5171  0.0500
  738SOL    HW1 2213   0.629   2.424   1.557  1.3682  2.9440 -0.6587
  738SOL    HW2 2214   0.548   2.281   1.617 -2.7829 -4.2474  2.8693
  739SOL     OW 2215   0.933   2.810   2.938 -0.3296  0.0399  0.1146
  739SOL    HW1 2216   0.934   2.853   3.034 -2.5501  0.2532  0.3881
  739SOL    HW2 2217   1.011   2.743   2.933 -1.0544  0.2453  3.2456
  740SOL     OW 2218   1.806   2.727   1.593  0.2651  0.1868  0.6130
  740SOL    HW1 2219   1.732   2.750   1.662 -0.8365  2.0850  0.4178
  740SOL    HW2 2220   1.801   2.627   1.572 -0.9699  1.1463 -0.8997
  741SOL     OW 2221   2.245   0.588   0.564 -0.0537  0.1119  0.2436
  741SOL    HW1 2222   2.343   0.607   0.535  1.4154 -0.6922 -0.1321
  741SOL    HW2 2223   2.183   0.655   0.521  0.3415  0.7914  0.6131
  742SOL     OW 2224   1.157   2.498   2.294  0.2870  0.0981  0.3904
  742SOL    HW1 2225   1.211   2.411   2.312 -1.5783 -0.3894  1.7613
  742SOL    HW2 2226   1.091   2.510   2.372 -2.1111  0.0637 -0.3964
  743SOL     OW 2227   2.422   1.080   1.758  0.2815  0.2622 -0.0146
  743SOL    HW1 2228   2.356   1.004   1.735  1.1418  1.5297  0.7633
  743SOL    HW2 2229   2.519   1.048   1.755  3.5626  1.5106 -2.5540
  744SOL     OW 2230   2.566   0.157   0.895 -0.1482 -0.1233 -0.1561
  744SOL    HW1 2231   2.524   0.221   0.829 -1.5476  1.0968  2.2385
  744SOL    HW2 2232   2.554   0.183   0.994  1.0862  1.8634 -0.6293
  745SOL     OW 2233   2.338   1.198   2.010  0.0160  0.1966  0.3587
  745SOL    HW1 2234   2.257   1.257   1.987  1.1468  0.3833 -1.6831
  745SOL    HW2 2235   2.383   1.160   1.924  1.6194  2.6635  1.5126
  746SOL     OW 2236   1.472   1.574   0.661 -0.2918 -0.1421 -0.4359
  746SOL    HW1 2237   1.528   1.643   0.710 -0.1116  1.3725 -0.3533
  746SOL    HW2 2238   1.374   1.574   0.693 -2.3479  0.2969 -0.0612
  747SOL     OW 2239   1.603   1.932   1.334 -0.0047 -0.4101 -0.4535
  747SOL    HW1 2240   1.514   1.960   1.293 -0.3630 -1.1082 -0.8011
  747SOL    HW2 2241   1.596   1.849   1.392  1.3501 -1.7159  4.6812
  748SOL     OW 2242   0.144   2.732   3.076 -0.2580  0.2245 -0.2993
  748SOL    HW1 2243   0.147   2.825   0.016  0.8046 -1.7000 -1.6813
  748SOL    HW2 2244   0.230   2.717   3.024 -3.7320  3.7274  0.5874
  749SOL     OW 2245   0.249   1.162   2.575  0.2704 -0.0555  0.2211
  749SOL    HW1 2246   0.146   1.174   2.590  2.0174  0.6602  1.3140
  749SOL    HW2 2247   0.290   1.095   2.640 -1.0872  0.2099  0.4099
  750SOL     OW 2248   1.438   3.051   2.097 -0.2884 -0.3460 -0.9049
  750SOL    HW1 2249   1.506   3.048   2.172  1.2080 -1.2516  0.4892
  750SOL    HW2 2250   1.462   0.016   2.026 -2.2201  1.4324 -0.6772
  751SOL     OW 2251   2.667   0.681   0.310 -0.4729 -0.1276  0.1403
  751SOL    HW1 2252   2.639   0.643   0.221 -2.1671  2.4607 -0.3184
  751SOL    HW2 2253   2.714   0.618   0.370 -0.9267  1.3768 -2.9146
  752SOL     OW 2254   0.301   2.153   0.704 -0.2893  0.3003  0.1654
  752SOL    HW1 2255   0.353   2.105   0.632 -1.4752 -0.4413  1.3497
  752SOL    HW2 2256   0.234   2.096   0.751  3.6761  3.4593  2.2255
  753SOL     OW 2257   1.067   2.693   1.037  0.5596 -0.3516 -0.5803
  753SOL    HW1 2258   1.155   2.664   1.072 -5.4173 -0.1164  1.2851
  753SOL    HW2 2259   1.026   2.618   0.987  0.4147  0.6156  1.2905
  754SOL     OW 2260   0.337   2.989   2.057  0.6280 -0.4483  0.3426
  754SOL    HW1 2261   0.389   2.927   2.118  1.1439  2.5281 -0.0972
  754SOL    HW2 2262   0.233   2.988   2.053  0.1586 -0.1104  1.3701
  755SOL     OW 2263   1.757   1.109   0.377  0.1348  0.2664  0.3478
  755SOL    HW1 2264   1.689   1.178   0.416  0.1890  1.1951  1.3263
  755SOL    HW2 2265   1.795   1.044   0.447  0.0502  0.3061  0.3810
  756SOL     OW 2266   2.215   2.343   2.793  0.6834  0.2692  0.2578
  756SOL    HW1 2267   2.222   2.244   2.762 -0.0171 -1.3045 -1.3413
  756SOL    HW2 2268   2.273   2.361   2.874 -0.5922  3.0690  0.4546
  757SOL     OW 2269   1.677   0.794   0.550 -0.1740  0.3335 -0.2510
  757SOL    HW1 2270   1.685   0.784   0.452  1.5355 -1.0478  2.5473
  757SOL    HW2 2271   1.580   0.793   0.579  0.5538  0.8086 -1.6523
  758SOL     OW 2272   2.246   0.327   1.134 -0.1030 -0.3518  0.1157
  758SOL    HW1 2273   2.159   0.276   1.133  2.3050  1.4914  0.0375
  758SOL    HW2 2274   2.248   0.414   1.078  2.3810 -1.8782 -3.2559
  759SOL     OW 2275   2.648   0.471   1.222  0.0094 -0.1093 -0.4961
  759SOL    HW1 2276   2.623   0.476   1.318 -1.6793 -0.3614 -0.7564
  759SOL    HW2 2277   2.636   0.565   1.177  1.5232  1.5702 -0.7156
  760SOL     OW 2278   2.273   1.336   1.162 -0.0267  0.2778 -0.3701
  760SOL    HW1 2279   2.223   1.420   1.194  2.7501 -0.9757  0.0745
  760SOL    HW2 2280   2.293   1.276   1.242 -0.8201  2.5037 -1.7323
  761SOL     OW 2281   0.375   0.316   0.510 -0.6877  0.1438  0.1872
  761SOL    HW1 2282   0.473   0.354   0.509  1.7290  1.3950  2.2194
  761SOL    HW2 2283   0.375   0.221   0.548 -1.7422 -1.9531 -0.1201
  762SOL     OW 2284   0.994   1.896   1.290  0.0824 -0.3125  0.3784
  762SOL    HW1 2285   1.064   1.883   1.215 -2.3267  0.0815 -1.1491
  762SOL    HW2 2286   0.903   1.857   1.269  2.1996  0.9525  0.9252
  763SOL     OW 2287   1.440   1.140   1.764 -0.3796  0.0054 -0.9186
  763SOL    HW1 2288   1.470   1.219   1.826  2.5269  1.5083  2.0329
  763SOL    HW2 2289   1.499   1.060   1.785  1.9237 -0.1220 -0.2604
  764SOL     OW 2290   3.075   1.846   2.617 -0.2349  0.2815 -0.6018
  764SOL    HW1 2291   3.050   1.836   2.718 -1.4219 -1.1632  1.7834
  764SOL    HW2 2292   3.032   1.928   2.578 -0.2460 -1.5523  0.8047
  765SOL     OW 2293   1.345   2.532   1.121  0.2402 -0.1915 -0.0378
  765SOL    HW1 2294   1.411   2.594   1.159 -0.0758  0.2210 -0.0064
  765SOL    HW2 2295   1.377   2.481   1.038 -0.3373  0.6726  0.7123
  766SOL     OW 2296   2.833   2.413   2.594  0.7666  0.0077  0.0065
  766SOL    HW1 2297   2.863   2.463   2.675 -1.2384 -1.5101 -2.0420
  766SOL    HW2 2298   2.734   2.418   2.594  1.7880  1.0685  2.7019
  767SOL     OW 2299   0.932   1.222   2.676  0.5419 -0.5695  0.1387
  767SOL    HW1 2300   0.849   1.162   2.670 -0.3717 -1.3124 -0.4323
  767SOL    HW2 2301   1.021   1.178   2.695  0.7680 -1.9177 -0.2398
  768SOL     OW 2302   1.249   1.992   2.945 -0.0266  0.2442  0.3456
  768SOL    HW1 2303   1.330   1.930   2.960  0.4441  0.6624  1.3921
  768SOL    HW2 2304   1.250   2.063   3.021  2.0797 -0.5331 -0.3204
  769SOL     OW 2305   0.463   2.255   0.925 -0.1449  0.1572  0.5686
  769SOL    HW1 2306   0.431   2.176   0.982 -0.2275 -0.1109  1.4245
  769SOL    HW2 2307   0.380   2.296   0.882 -0.8675 -1.9298  2.2993
  770SOL     OW 2308   1.563   1.139   2.570  0.5855 -1.0831 -0.7530
  770SOL    HW1 2309   1.539   1.149   2.669  0.4220 -0.9339 -0.9627
  770SOL    HW2 2310   1.480   1.153   2.509 -2.6179 -0.3273 -1.1261
  771SOL     OW 2311   0.001   2.796   2.162  0.2370  0.2808 -0.3228
  771SOL    HW1 2312   0.055   2.722   2.122 -0.2811  1.1058  0.3614
  771SOL    HW2 2313   3.009   2.758   2.172  0.3577 -1.7927 -0.1168
  772SOL     OW 2314   2.280   2.617   1.978  0.1052 -0.5873 -0.1744
  772SOL    HW1 2315   2.295   2.665   2.062  0.1989 -0.2148 -3.2742
  772SOL    HW2 2316   2.349   2.641   1.900  2.0315  1.9800 -0.3766
  773SOL     OW 2317   0.749   1.952   1.597 -0.3126 -1.1152 -0.8847
  773SOL    HW1 2318   0.815   2.026   1.573 -2.1869 -0.2570 -1.8357
  773SOL    HW2 2319   0.747   1.934   1.698  0.8892 -2.2328  0.3545
  774SOL     OW 2320   1.183   0.266   1.882  0.1745 -0.0948 -0.6461
  774SOL    HW1 2321   1.162   0.362   1.912 -0.5420  2.0435  0.6523
  774SOL    HW2 2322   1.139   0.198   1.945  0.7259 -0.9493  0.4198
  775SOL     OW 2323   1.795   2.810   2.946 -0.1033  0.3207  0.4195
  775SOL    HW1 2324   1.815   2.909   2.942 -0.2619 -0.6467 -0.6803
  775SOL    HW2 2325   1.835   2.766   2.862  1.8848  2.1758  3.9249
  776SOL     OW 2326   2.970   0.283   2.091 -0.1464 -0.0606 -0.2475
  776SOL    HW1 2327   3.067   0.316   2.095  2.7114  0.4899  1.0694
  776SOL    HW2 2328   2.966   0.205   2.021 -0.7473 -2.5104 -1.1543
  777SOL     OW 2329   2.448   2.165   2.224 -0.3847  0.0190  0.1301
  777SOL    HW1 2330   2.517   2.090   2.221  2.8191 -0.8326 -1.0658
  777SOL    HW2 2331   2.472   2.236   2.154 -2.1102  0.6836 -3.3271
  778SOL     OW 2332   1.825   0.786   2.235  0.6116 -0.5017 -0.1300
  778SOL    HW1 2333   1.748   0.720   2.236  1.0233  1.9682 -1.0011
  778SOL    HW2 2334   1.816   0.869   2.290  0.0263  0.9177 -0.3483
  779SOL     OW 2335   2.462   0.595   0.829 -0.1114 -0.5273  0.6139
  779SOL    HW1 2336   2.469   0.502   0.790 -1.6747  2.9566 -0.4698
  779SOL    HW2 2337   2.479   0.670   0.761 -2.5311  0.0953 -0.5582
  780SOL     OW 2338   2.380   0.169   3.078 -0.4469  0.1712 -0.1660
  780SOL    HW1 2339   2.281   0.174   3.070  1.0918 -1.4247 -3.3547
  780SOL    HW2 2340   2.410   0.074   3.055 -0.4067 -1.5516  1.1472
  781SOL     OW 2341   0.321   2.364   1.447 -0.0096 -0.1348 -0.1630
  781SOL    HW1 2342   0.412   2.367   1.492 -0.3715  2.5862 -2.1511
  781SOL    HW2 2343   0.278   2.269   1.461 -3.0647  0.4379  0.9160
  782SOL     OW 2344   2.346   2.479   2.998  0.2649 -0.4736 -0.1230
  782SOL    HW1 2345   2.388   2.530   2.922 -1.5332  0.1092 -0.2496
  782SOL    HW2 2346   2.406   2.463   3.078 -0.8358 -1.8861 -0.1653
  783SOL     OW 2347   0.346   1.719   1.414 -0.1357  0.0594  0.1387
  783SOL    HW1 2348   0.350   1.624   1.381  3.0172  1.8289  1.6857
  783SOL    HW2 2349   0.427   1.752   1.471 -0.7535  1.4666 -1.1455
  784SOL     OW 2350   1.528   0.643   2.845 -0.0353  0.7558  0.7889
  784SOL    HW1 2351   1.526   0.686   2.755 -4.0219  3.6974  2.8283
  784SOL    HW2 2352   1.499   0.713   2.911  0.6206 -0.9949  2.0890
  785SOL     OW 2353   2.423   3.007   0.850 -0.5333 -0.4102 -0.3198
  785SOL    HW1 2354   2.366   2.962   0.921  3.1458 -0.1137 -1.1767
  785SOL    HW2 2355   2.462   3.098   0.878 -2.7175  1.1968 -1.6665
  786SOL     OW 2356   1.188   2.045   1.916  0.1528 -0.0386  0.4359
  786SOL    HW1 2357   1.117   1.977   1.886 -2.1395  0.0405  2.0901
  786SOL    HW2 2358   1.144   2.126   1.963  1.7375  1.3205 -2.1357
  787SOL     OW 2359   1.307   0.796   1.211  0.4146 -0.9501  0.1822
  787SOL    HW1 2360   1.236   0.840   1.272 -0.9931 -0.7472  2.3540
  787SOL    HW2 2361   1.345   0.858   1.143  0.4850 -0.0399  1.0200
  788SOL     OW 2362   0.074   0.654   0.473  0.2235  0.4527 -0.2749
  788SOL    HW1 2363   0.154   0.679   0.529 -2.2442 -1.1392 -0.0855
  788SOL    HW2 2364   0.095   0.569   0.425 -3.6208  1.6341 -0.0913
  789SOL     OW 2365   0.115   2.021   1.231  0.6327 -0.1101  0.1027
  789SOL    HW1 2366   0.202   2.024   1.173  0.4085  1.8372  0.9016
  789SOL    HW2 2367   0.133   1.990   1.324  2.3340 -1.1889 -0.4654
  790SOL     OW 2368   0.864   0.819   2.238  0.4458  0.8258 -0.0429
  790SOL    HW1 2369   0.942   0.775   2.291 -1.5688  1.1238  3.2888
  790SOL    HW2 2370   0.777   0.768   2.247  1.9472  1.7660 -3.3583
  791SOL     OW 2371   1.803   0.598   0.671 -0.0894  0.8853 -0.3297
  791SOL    HW1 2372   1.755   0.677   0.623  1.6070  1.7564 -0.5471
  791SOL    HW2 2373   1.748   0.551   0.745  0.8477 -1.7837 -0.3213
  792SOL     OW 2374   1.378   2.611   2.159  0.6145 -0.0079 -0.0625
  792SOL    HW1 2375   1.404   2.681   2.088 -0.7272 -1.3567  0.6397
  792SOL    HW2 2376   1.287   2.628   2.202  1.0450 -2.7148  0.5763
  793SOL     OW 2377   1.225   0.826   0.382 -0.2096  0.2789 -0.2281
  793SOL    HW1 2378   1.260   0.900   0.444  1.2708  0.9371  0.1066
  793SOL    HW2 2379   1.129   0.812   0.407  0.6579  0.1985 -1.1414
  794SOL     OW 2380   0.485   0.985   2.008 -0.2849 -0.0043 -0.7086
  794SOL    HW1 2381   0.402   1.048   2.025 -1.9306  2.4751  0.3819
  794SOL    HW2 2382   0.534   1.005   1.923  1.2349  2.2649  1.2611
  795SOL     OW 2383   0.337   1.933   2.301  0.1504 -0.1048  0.0055
  795SOL    HW1 2384   0.409   2.007   2.293  0.4990 -0.2919  0.3528
  795SOL    HW2 2385   0.261   1.969   2.358  2.2758  0.4557 -1.7277
  796SOL     OW 2386   2.455   0.834   2.015  0.1906 -0.1990 -0.5446
  796SOL    HW1 2387   2.394   0.828   2.095 -0.9694  1.3499  0.0350
  796SOL    HW2 2388   2.523   0.911   2.019 -4.1089  0.4750 -1.3021
  797SOL     OW 2389   2.881   2.250   2.902 -0.1699 -0.3195 -0.2977
  797SOL    HW1 2390   2.882   2.343   2.864 -1.3524  0.9494  1.2619
  797SOL    HW2 2391   2.907   2.256   3.001  0.5022  0.5655 -3.4247
  798SOL     OW 2392   0.286   2.378   2.243  0.2359 -0.0893  0.4028
  798SOL    HW1 2393   0.326   2.324   2.166 -2.3364 -1.0483 -1.2146
  798SOL    HW2 2394   0.199   2.333   2.272  0.5324  1.8125  0.7469
  799SOL     OW 2395   0.355   2.247   2.714  0.0258  0.1451 -0.1107
  799SOL    HW1 2396   0.352   2.328   2.779 -0.3602  1.1565  1.3108
  799SOL    HW2 2397   0.353   2.157   2.766 -1.2534 -0.6839  0.0714
  800SOL     OW 2398   0.764   2.273   2.864 -0.0469  0.3215 -0.9281
  800SOL    HW1 2399   0.718   2.334   2.932 -0.2013  0.6084 -0.4057
  800SOL    HW2 2400   0.786   2.185   2.911  1.2663  1.5248 -0.9782
  801SOL     OW 2401   1.702   1.423   1.303 -0.4242 -0.3082  0.0971
  801SOL    HW1 2402   1.776   1.429   1.373  0.0155  1.8229 -0.0819
  801SOL    HW2 2403   1.613   1.395   1.346 -0.7882  0.8481 -0.8362
  802SOL     OW 2404   2.976   1.070   0.648  0.3127  0.1215  0.2317
  802SOL    HW1 2405   2.959   1.100   0.553  0.9816 -2.4363  0.2601
  802SOL    HW2 2406   2.906   1.004   0.684  0.8044 -1.1616  2.4099
  803SOL     OW 2407   1.082   1.953   2.252  0.5761 -0.1858 -0.2610
  803SOL    HW1 2408   1.065   2.014   2.333  0.9900 -3.0977 -2.3644
  803SOL    HW2 2409   1.184   1.946   2.238  0.8149  0.7266 -1.1951
  804SOL     OW 2410   1.558   1.359   0.225 -0.0468 -0.6445  0.1302
  804SOL    HW1 2411   1.488   1.419   0.270  0.6015 -1.3724  0.0084
  804SOL    HW2 2412   1.594   1.309   0.306  0.0324  1.3442  0.6382
  805SOL     OW 2413   2.647   1.665   0.098 -0.1789 -0.0581 -0.0412
  805SOL    HW1 2414   2.614   1.623   0.183 -0.3261  1.2483 -0.1822
  805SOL    HW2 2415   2.582   1.643   0.025  0.8694  0.9797 -0.4426
  806SOL     OW 2416   0.522   2.990   0.526  0.0819  0.3040 -0.4337
  806SOL    HW1 2417   0.502   3.081   0.566  1.9387 -0.7217 -1.0887
  806SOL    HW2 2418   0.611   2.949   0.541 -1.1755  1.6907  2.3725
  807SOL     OW 2419   2.137   1.731   2.897 -0.3699 -0.0773  0.3910
  807SOL    HW1 2420   2.060   1.784   2.943  0.1544 -2.0066 -2.8118
  807SOL    HW2 2421   2.141   1.641   2.946 -0.3027  0.5170 -0.3770
  808SOL     OW 2422   0.584   1.483   0.946 -0.1037 -0.4089  0.2992
  808SOL    HW1 2423   0.538   1.533   0.871  0.1178  1.6270 -0.7753
  808SOL    HW2 2424   0.524   1.477   1.029  1.5642 -0.1964 -2.7671
  809SOL     OW 2425   2.505   0.704   0.540 -0.3151  0.4303 -0.2096
  809SOL    HW1 2426   2.471   0.800   0.551  0.7234 -2.1090  1.0518
  809SOL    HW2 2427   2.575   0.707   0.470  0.5898  1.2060  0.7440
  810SOL     OW 2428   0.881   1.118   0.352 -0.2319  0.4095 -0.3142
  810SOL    HW1 2429   0.885   1.210   0.389  1.5391 -4.2498 -0.4645
  810SOL    HW2 2430   0.884   1.057   0.430  1.2601 -0.3049 -0.4801
  811SOL     OW 2431   1.538   2.773   1.368  0.2632  0.1823 -0.1469
  811SOL    HW1 2432   1.593   2.720   1.299  1.0862 -2.2097 -1.4254
  811SOL    HW2 2433   1.506   2.723   1.453 -0.9592  0.6569  0.1921
  812SOL     OW 2434   1.166   2.558   1.692  0.8694  0.2220 -1.1748
  812SOL    HW1 2435   1.160   2.632   1.761  1.6519  1.7578 -0.3669
  812SOL    HW2 2436   1.150   2.598   1.600 -1.9565  0.5650 -0.2196
  813SOL     OW 2437   1.072   2.965   1.821 -0.2710  0.8005 -0.3490
  813SOL    HW1 2438   1.027   3.049   1.858 -0.0178  0.1145 -0.2747
  813SOL    HW2 2439   1.053   2.955   1.725 -1.1732 -1.2234  0.8249
  814SOL     OW 2440   0.969   2.528   2.486 -0.2113  0.0923 -0.0248
  814SOL    HW1 2441   0.885   2.506   2.430 -3.8403 -0.1819 -2.4136
  814SOL    HW2 2442   0.973   2.470   2.570 -1.0489 -2.6584  1.0023
  815SOL     OW 2443   0.765   0.270   2.402  0.1898  0.2561 -0.1004
  815SOL    HW1 2444   0.863   0.242   2.409  0.0578 -0.7242 -0.1805
  815SOL    HW2 2445   0.759   0.367   2.438  1.1858 -0.3319  0.7852
  816SOL     OW 2446   2.172   0.047   2.809  0.3935 -0.1835 -0.5795
  816SOL    HW1 2447   2.092   0.020   2.753  0.7617  0.5454  2.5852
  816SOL    HW2 2448   2.148   0.059   2.907 -0.8972 -0.3185  1.5735
  817SOL     OW 2449   2.190   0.125   2.013  0.3897 -0.1957  0.2006
  817SOL    HW1 2450   2.236   0.125   1.922 -0.8087  0.1968 -0.8572
  817SOL    HW2 2451   2.158   0.223   2.040  0.0427  2.7162  3.1281
  818SOL     OW 2452   1.581   0.571   0.026  0.0284  0.3003  0.1430
  818SOL    HW1 2453   1.527   0.612   3.047 -1.5901 -0.4998  0.1090
  818SOL    HW2 2454   1.678   0.548   0.000  0.8910 -0.4966 -0.1782
  819SOL     OW 2455   2.333   1.716   2.476  0.1102  0.0566 -0.2514
  819SOL    HW1 2456   2.240   1.694   2.513 -1.3964  0.8998 -0.4093
  819SOL    HW2 2457   2.338   1.808   2.428  0.9046 -0.1796  1.3003
  820SOL     OW 2458   0.139   1.681   0.183  0.1134  0.7707 -0.3540
  820SOL    HW1 2459   0.099   1.677   0.089 -0.4086 -0.5162  0.2584
  820SOL    HW2 2460   0.238   1.700   0.169  0.7974  1.3236 -0.0762
  821SOL     OW 2461   0.463   2.846   1.029 -0.3594  0.5048 -0.0210
  821SOL    HW1 2462   0.393   2.916   1.000 -1.2322 -0.2839 -1.9511
  821SOL    HW2 2463   0.421   2.757   0.996 -1.7799  0.0100 -3.2772
  822SOL     OW 2464   2.925   2.527   2.848 -0.0335 -0.4853 -0.3764
  822SOL    HW1 2465   2.879   2.534   2.942 -1.8642  0.6090  4.0365
  822SOL    HW2 2466   2.966   2.616   2.825 -0.0001  0.6067 -1.6010
  823SOL     OW 2467   1.334   0.395   2.195 -0.2239 -0.4797 -0.4485
  823SOL    HW1 2468   1.378   0.437   2.115  1.9140  0.8311  2.8151
  823SOL    HW2 2469   1.385   0.319   2.234 -1.0744  1.7796 -0.5900
  824SOL     OW 2470   2.913   2.385   2.080  0.1305  0.1040  0.6967
  824SOL    HW1 2471   2.922   2.408   2.178 -1.1135  2.1079 -4.4113
  824SOL    HW2 2472   2.918   2.467   2.021 -0.0861  3.0495 -0.3927
  825SOL     OW 2473   2.966   2.042   2.483 -0.3828  0.1862  0.1802
  825SOL    HW1 2474   2.867   2.021   2.465  1.9594 -0.3583 -1.2885
  825SOL    HW2 2475   3.013   2.028   2.397  0.7684 -0.9879  0.6541
  826SOL     OW 2476   2.371   1.050   2.496  0.1190 -0.2390  0.6323
  826SOL    HW1 2477   2.397   1.028   2.396 -0.5975 -1.0165  1.7169
  826SOL    HW2 2478   2.331   1.144   2.504 -2.0012  0.5287 -0.6909
  827SOL     OW 2479   2.445   2.264   1.354  0.6977 -0.2837 -0.3028
  827SOL    HW1 2480   2.421   2.237   1.258  2.1887 -0.9536 -1.7841
  827SOL    HW2 2481   2.359   2.251   1.414 -0.9731 -0.9193  2.9557
  828SOL     OW 2482   0.129   0.140   1.549  0.1154  0.0169  0.0532
  828SOL    HW1 2483   0.127   0.039   1.563  0.1871  0.3488 -1.5608
  828SOL    HW2 2484   0.223   0.180   1.565 -0.4167  0.9862 -3.7833
  829SOL     OW 2485   1.284   2.282   2.391 -0.2956 -0.2408 -0.0600
  829SOL    HW1 2486   1.368   2.242   2.434  0.2010 -2.1495  1.1753
  829SOL    HW2 2487   1.206   2.226   2.424  2.0909 -0.4680 -0.0985
  830SOL     OW 2488   1.056   0.508   0.646  0.2444 -0.5174 -0.1019
  830SOL    HW1 2489   0.977   0.440   0.640  1.3985 -0.1338 -1.0500
  830SOL    HW2 2490   1.038   0.582   0.580 -0.5006 -1.4399  0.4636
  831SOL     OW 2491   2.841   1.546   3.058 -0.3425  0.0376  0.1367
  831SOL    HW1 2492   2.772   1.585   0.021  0.9434  1.0105  1.4907
  831SOL    HW2 2493   2.859   1.446   3.072 -0.4531 -1.0951  0.5863
  832SOL     OW 2494   1.766   2.187   2.192  0.0701  0.4228 -0.6396
  832SOL    HW1 2495   1.667   2.177   2.169 -0.2919  1.3771 -4.4901
  832SOL    HW2 2496   1.803   2.250   2.123 -0.0138 -0.2851  3.7521
  833SOL     OW 2497   0.814   0.437   2.142  0.3395 -0.1245  0.2253
  833SOL    HW1 2498   0.916   0.433   2.167  2.1587  0.4123  1.1537
  833SOL    HW2 2499   0.771   0.348   2.148  0.0398  1.5241  0.7617
  834SOL     OW 2500   0.411   0.686   1.226  0.8564  0.7537  0.2361
  834SOL    HW1 2501   0.487   0.736   1.272  0.7511 -1.6404 -1.7007
  834SOL    HW2 2502   0.327   0.692   1.286 -1.8285  2.6306  0.2448
  835SOL     OW 2503   2.566   0.573   0.075 -0.2355  0.5847 -0.2978
  835SOL    HW1 2504   2.579   0.631   3.093  1.7122  0.2131 -0.6077
  835SOL    HW2 2505   2.645   0.508   0.086 -0.4778  2.3533 -0.5995
  836SOL     OW 2506   1.317   1.926   0.354 -0.1279 -0.1030 -0.4412
  836SOL    HW1 2507   1.392   1.989   0.387  0.9104  0.5374  0.1850
  836SOL    HW2 2508   1.356   1.858   0.293 -2.2858 -0.3716  0.7449
  837SOL     OW 2509   1.583   1.778   0.823 -0.2140  0.0221  0.3222
  837SOL    HW1 2510   1.672   1.775   0.771 -0.2627  0.2516 -2.7645
  837SOL    HW2 2511   1.600   1.792   0.926  0.7434 -1.8755  1.2860
  838SOL     OW 2512   1.095   1.072   2.146 -0.3746  0.0908  0.9056
  838SOL    HW1 2513   1.086   1.141   2.072  2.6352  1.8707  0.9223
  838SOL    HW2 2514   1.066   1.110   2.239 -0.7479 -0.3950 -0.7678
  839SOL     OW 2515   0.734   1.930   2.419 -0.1457 -0.1078 -0.3984
  839SOL    HW1 2516   0.792   1.960   2.503 -0.1966 -2.3589  0.3467
  839SOL    HW2 2517   0.694   1.837   2.426  2.1326 -1.3217 -0.9624
  840SOL     OW 2518   0.809   2.332   0.315  0.3576  0.1812 -0.1375
  840SOL    HW1 2519   0.720   2.339   0.262  0.5773  0.2413 -0.9868
  840SOL    HW2 2520   0.802   2.356   0.410 -0.1207 -2.4077 -3.7512
  841SOL     OW 2521   1.956   2.557   0.094  0.2689  0.5964 -0.3293
  841SOL    HW1 2522   1.904   2.646   0.093 -0.0184 -0.8407  0.1239
  841SOL    HW2 2523   1.900   2.485   0.046  0.1844 -0.7926  0.3666
  842SOL     OW 2524   0.589   0.564   2.846  0.9474  0.6527 -0.3266
  842SOL    HW1 2525   0.612   0.628   2.771  0.5517 -1.8738  1.4131
  842SOL    HW2 2526   0.486   0.543   2.847 -3.1014  0.7814  1.2600
  843SOL     OW 2527   1.206   0.345   0.795  0.3796 -0.1130 -0.0772
  843SOL    HW1 2528   1.156   0.406   0.732  4.6328 -0.9824 -0.3211
  843SOL    HW2 2529   1.226   0.387   0.886 -1.0512  0.6641 -1.9359
  844SOL     OW 2530   2.837   0.094   2.596  0.0767 -0.2589 -0.1487
  844SOL    HW1 2531   2.745   0.141   2.603  0.7085  0.3775 -0.8299
  844SOL    HW2 2532   2.837   0.016   2.528 -0.2921  1.0398  0.7021
  845SOL     OW 2533   2.720   2.223   1.370 -0.4124  0.3904 -0.7914
  845SOL    HW1 2534   2.619   2.232   1.371 -1.3353 -0.7502  2.8526
  845SOL    HW2 2535   2.741   2.129   1.402 -1.7850  0.6929 -1.7613
  846SOL     OW 2536   2.634   1.700   2.287 -0.2589  0.2968 -0.1104
  846SOL    HW1 2537   2.573   1.628   2.329 -0.0464  1.2434  2.6894
  846SOL    HW2 2538   2.731   1.666   2.281 -1.1449 -0.9240  0.2997
  847SOL     OW 2539   1.196   0.809   1.684 -0.1791 -0.3625 -0.3433
  847SOL    HW1 2540   1.112   0.855   1.714 -0.3766 -1.1058  1.0900
  847SOL    HW2 2541   1.161   0.717   1.661 -2.3423  0.0167 -1.7978
  848SOL     OW 2542   2.722   2.810   0.007 -0.5787 -0.0469  0.7546
  848SOL    HW1 2543   2.703   2.770   0.098  0.1891 -0.2520 -0.7604
  848SOL    HW2 2544   2.663   2.892   3.083  0.0582  0.8990 -0.5275
  849SOL     OW 2545   0.637   3.042   0.065  0.4006 -0.2656  0.7142
  849SOL    HW1 2546   0.582   3.061   0.150  0.0012  1.7770 -0.6044
  849SOL    HW2 2547   0.635   0.031   0.019  0.2999  1.1173 -1.3723
  850SOL     OW 2548   1.473   2.871   1.001 -0.3275  0.3776 -0.0595
  850SOL    HW1 2549   1.492   2.880   0.900 -1.8712 -1.2098  0.3336
  850SOL    HW2 2550   1.496   2.782   1.039 -0.0223 -0.3745 -0.1046
  851SOL     OW 2551   2.619   0.382   2.035  0.0207  0.1317  0.0057
  851SOL    HW1 2552   2.649   0.469   2.079 -1.3353 -0.2497 -0.7997
  851SOL    HW2 2553   2.525   0.400   2.009 -0.6048 -1.9338 -3.1741
  852SOL     OW 2554   1.961   0.559   2.358 -0.3493  0.8673  0.1024
  852SOL    HW1 2555   1.920   0.625   2.299  0.4130  1.1148 -0.4190
  852SOL    HW2 2556   1.948   0.459   2.326  0.5189 -0.4441 -4.1763
  853SOL     OW 2557   2.992   2.979   0.424 -0.4481 -0.6972 -0.0208
  853SOL    HW1 2558   2.935   2.926   0.490  0.1473  1.5158  2.0011
  853SOL    HW2 2559   2.946   3.009   0.340 -1.1016 -0.6483  1.2018
  854SOL     OW 2560   2.463   1.251   2.278  0.3674 -0.4260 -1.0277
  854SOL    HW1 2561   2.566   1.250   2.290  0.1621  0.1125  2.2817
  854SOL    HW2 2562   2.426   1.251   2.183  1.7224 -0.3736 -0.7779
  855SOL     OW 2563   0.815   2.748   0.302 -0.2138  0.5311 -0.3326
  855SOL    HW1 2564   0.723   2.706   0.280  0.2914  3.6457  0.3544
  855SOL    HW2 2565   0.892   2.696   0.265 -2.4554  1.6567 -1.4583
  856SOL     OW 2566   2.991   0.066   2.835 -0.3183 -0.4122 -0.0020
  856SOL    HW1 2567   2.960   0.081   2.740 -0.8089  1.0233  0.7316
  856SOL    HW2 2568   2.958   3.071   2.864  0.7544 -2.2807 -1.4057
  857SOL     OW 2569   1.064   2.945   1.555  0.7579 -0.3774  0.4403
  857SOL    HW1 2570   1.143   2.935   1.492  1.7866 -0.1452  1.1315
  857SOL    HW2 2571   0.996   3.013   1.516 -2.6901 -0.7737  1.5813
  858SOL     OW 2572   2.798   2.430   1.766  0.2319  0.3151  0.4913
  858SOL    HW1 2573   2.794   2.364   1.843 -2.1157  1.5268 -0.1006
  858SOL    HW2 2574   2.866   2.400   1.691  3.1646  1.5913 -3.7971
  859SOL     OW 2575   1.676   2.054   1.846  0.0837 -0.2288 -0.3199
  859SOL    HW1 2576   1.608   2.085   1.776 -1.1450 -0.7055 -3.1284
  859SOL    HW2 2577   1.654   2.092   1.936  0.1788 -1.4716 -0.4674
  860SOL     OW 2578   2.232   2.826   0.230  0.2707  0.0454  0.0905
  860SOL    HW1 2579   2.206   2.763   0.154 -0.0875 -1.4781 -2.1169
  860SOL    HW2 2580   2.153   2.885   0.259  0.5073 -1.6539  2.9230
  861SOL     OW 2581   2.292   2.712   0.722 -0.3558 -0.0776 -0.2424
  861SOL    HW1 2582   2.230   2.750   0.655  1.5050 -1.1407  1.3099
  861SOL    HW2 2583   2.359   2.654   0.676 -2.2464  0.6211  0.1803
  862SOL     OW 2584   1.669   0.140   2.602 -0.2300 -0.2451 -0.6974
  862SOL    HW1 2585   1.655   0.044   2.637  0.6463 -3.8983  1.6285
  862SOL    HW2 2586   1.718   0.148   2.514 -1.0797  2.0101 -1.6050
  863SOL     OW 2587   0.115   0.592   0.808 -0.7192 -0.4308 -0.3871
  863SOL    HW1 2588   0.181   0.571   0.732 -1.0561  1.3096 -2.2896
  863SOL    HW2 2589   0.063   0.676   0.783 -1.4434  0.7205 -2.9734
  864SOL     OW 2590   0.237   2.623   2.123 -0.0422 -0.0818 -1.1060
  864SOL    HW1 2591   0.319   2.680   2.137 -0.5038 -1.3004 -0.6557
  864SOL    HW2 2592   0.237   2.540   2.180  0.7141  0.5495  0.1949
  865SOL     OW 2593   0.556   1.137   2.928  0.0539  0.5835 -0.6753
  865SOL    HW1 2594   0.615   1.186   2.995 -0.2235 -0.6629  1.4669
  865SOL    HW2 2595   0.518   1.054   2.973 -2.1993  2.9508  2.6477
  866SOL     OW 2596   2.956   0.657   0.101  0.3969 -0.2053 -0.1490
  866SOL    HW1 2597   3.011   0.679   0.185 -0.6895  1.1748  1.4316
  866SOL    HW2 2598   2.940   0.741   0.048  3.3018 -1.8746  0.4456
  867SOL     OW 2599   3.065   2.745   2.843  0.0207 -0.4172  0.2755
  867SOL    HW1 2600   0.014   2.727   2.932 -0.1614  0.5089 -1.3024
  867SOL    HW2 2601   2.995   2.822   2.856 -2.2783  2.5911 -1.8290
  868SOL     OW 2602   1.540   0.097   0.337  0.4778  0.0650  0.6380
  868SOL    HW1 2603   1.531   0.189   0.381  0.1277 -1.6215  1.3070
  868SOL    HW2 2604   1.448   0.052   0.326  1.8701 -0.5330 -0.4849
  869SOL     OW 2605   1.796   1.536   0.635  0.6497 -0.4459 -0.1487
  869SOL    HW1 2606   1.782   1.493   0.727 -0.9033 -2.8385  3.9692
  869SOL    HW2 2607   1.831   1.627   0.660  3.0336 -2.0106  2.4569
  870SOL     OW 2608   1.838   1.799   0.738  0.1624 -0.3127 -0.2023
  870SOL    HW1 2609   1.868   1.781   0.833 -3.0753 -2.3469 -1.1737
  870SOL    HW2 2610   1.893   1.877   0.696 -1.1217 -0.7365  2.7245
  871SOL     OW 2611   1.141   1.604   1.424  0.4290 -0.3762 -0.0598
  871SOL    HW1 2612   1.169   1.658   1.507  1.1107 -0.6457  0.3483
  871SOL    HW2 2613   1.053   1.638   1.383 -2.3502 -0.5825 -2.4106
  872SOL     OW 2614   1.329   1.594   1.771 -0.3623  0.5284 -0.1966
  872SOL    HW1 2615   1.256   1.527   1.791  0.5735 -0.1212 -2.9758
  872SOL    HW2 2616   1.282   1.673   1.734  0.2781 -2.4271  0.5723
  873SOL     OW 2617   0.696   1.487   2.275 -0.0704 -0.1705 -0.3242
  873SOL    HW1 2618   0.652   1.466   2.369 -0.1376  2.4418  1.6365
  873SOL    HW2 2619   0.667   1.571   2.228 -1.1803 -1.6552 -1.2958
  874SOL     OW 2620   0.517   1.420   1.211 -0.1709 -0.2851  0.3836
  874SOL    HW1 2621   0.429   1.424   1.269 -1.9780 -1.7673  1.4596
  874SOL    HW2 2622   0.526   1.325   1.175 -0.4496  2.1384  0.0457
  875SOL     OW 2623   2.560   3.054   1.231 -0.2822  0.2919  0.0284
  875SOL    HW1 2624   2.526   0.049   1.207  1.9480 -0.8140  2.4823
  875SOL    HW2 2625   2.533   3.035   1.327  0.1570  1.0718 -1.1830
  876SOL     OW 2626   0.888   0.829   3.078  0.4653 -0.5382  0.0408
  876SOL    HW1 2627   0.859   0.737   0.020 -0.4746 -0.7736 -1.0323
  876SOL    HW2 2628   0.860   0.906   0.041 -0.9696 -2.3590 -0.3426
  877SOL     OW 2629   3.055   0.374   1.339  0.2270  0.0742 -0.1491
  877SOL    HW1 2630   3.023   0.368   1.243  1.0526 -1.0498  1.6960
  877SOL    HW2 2631   3.090   0.283   1.370  1.6053  1.1469  0.2754
  878SOL     OW 2632   1.904   2.125   0.056 -0.1264  0.7700  0.2899
  878SOL    HW1 2633   1.845   2.210   0.052 -1.4807 -0.0053  1.0964
  878SOL    HW2 2634   1.868   2.059   3.090  0.2689 -0.9253  1.9803
  879SOL     OW 2635   2.360   1.980   1.618  0.1211  0.1283 -0.1208
  879SOL    HW1 2636   2.325   2.060   1.565 -3.2944  0.7784  0.8057
  879SOL    HW2 2637   2.447   2.000   1.669 -0.0077  0.3124  0.1423
  880SOL     OW 2638   0.891   0.270   1.601  0.5444 -0.2502  0.1914
  880SOL    HW1 2639   0.872   0.210   1.685 -3.5660 -1.3016  2.1181
  880SOL    HW2 2640   0.823   0.346   1.582 -0.0024  1.0934 -2.6663
  881SOL     OW 2641   1.012   2.057   2.768 -0.0802  0.0876 -0.5263
  881SOL    HW1 2642   0.916   2.021   2.768  1.5040 -2.6218 -1.5380
  881SOL    HW2 2643   1.071   2.031   2.851  1.9293 -2.0166 -0.2508
  882SOL     OW 2644   2.080   0.936   1.946  0.8522 -0.0542 -0.1610
  882SOL    HW1 2645   2.118   0.899   2.033 -0.2290 -2.3923  2.4499
  882SOL    HW2 2646   2.149   0.961   1.880 -4.8129 -1.2585  0.6565
  883SOL     OW 2647   1.283   0.727   1.941  0.2382 -0.1498  0.4431
  883SOL    HW1 2648   1.255   0.759   1.848  0.0847 -0.5813  0.3910
  883SOL    HW2 2649   1.229   0.646   1.958 -2.2798 -0.9326  3.3256
  884SOL     OW 2650   2.802   0.428   0.092  0.4437 -0.0829 -0.1159
  884SOL    HW1 2651   2.836   0.344   0.130 -1.8518  0.1816 -1.8171
  884SOL    HW2 2652   2.869   0.506   0.101 -1.3780  2.8218 -0.8038
  885SOL     OW 2653   0.565   2.065   0.289  0.3257 -0.3173 -0.1333
  885SOL    HW1 2654   0.660   2.080   0.324  0.6311  2.8284  1.0314
  885SOL    HW2 2655   0.544   2.133   0.215 -1.0055  1.7262 -0.5007
  886SOL     OW 2656   2.045   1.406   2.846 -0.2420 -0.1958 -0.0003
  886SOL    HW1 2657   2.081   1.316   2.812  2.7269 -2.2682 -2.1752
  886SOL    HW2 2658   1.945   1.410   2.849 -0.0459 -0.8521  0.1638
  887SOL     OW 2659   1.754   0.541   1.465 -0.1788 -0.1857  0.0865
  887SOL    HW1 2660   1.672   0.564   1.527 -1.0773  1.4587 -0.0335
  887SOL    HW2 2661   1.746   0.563   1.367 -0.2824 -4.0294 -0.8645
  888SOL     OW 2662   2.674   1.129   1.591  1.1606 -0.6044 -0.2156
  888SOL    HW1 2663   2.589   1.186   1.605 -1.8088  3.7138  2.8621
  888SOL    HW2 2664   2.672   1.042   1.649  1.4521  1.0705 -1.4930
  889SOL     OW 2665   2.778   2.749   1.002  0.3344 -0.5610 -0.3403
  889SOL    HW1 2666   2.852   2.814   0.982  0.4814  1.6532  1.8905
  889SOL    HW2 2667   2.809   2.660   1.032 -2.5136  1.2540 -3.7374
  890SOL     OW 2668   0.018   2.599   2.585  0.3638  0.3984 -0.2361
  890SOL    HW1 2669   0.055   2.508   2.568  4.0441 -2.4161  0.7975
  890SOL    HW2 2670   0.041   2.633   2.678  1.5565  0.1626  3.7574
  891SOL     OW 2671   0.713   1.845   3.039 -0.1105 -0.0365  0.0127
  891SOL    HW1 2672   0.671   1.831   2.947 -0.0811 -0.1979 -1.2206
  891SOL    HW2 2673   0.788   1.778   3.055 -0.2009 -0.3848  0.6346
  892SOL     OW 2674   0.241   2.370   1.111 -0.3839 -0.1002 -0.0171
  892SOL    HW1 2675   0.290   2.278   1.101  2.9582 -3.2621  0.3779
  892SOL    HW2 2676   0.245   2.411   1.203  1.4708 -1.2075  0.7321
  893SOL     OW 2677   0.444   0.077   1.281 -0.2804 -0.4216  0.4216
  893SOL    HW1 2678   0.484   0.099   1.374  3.2444  0.9283  1.0206
  893SOL    HW2 2679   0.403   0.160   1.238  1.3065 -0.2188 -2.2316
  894SOL     OW 2680   2.657   1.209   0.970 -0.2069 -0.4732 -0.1709
  894SOL    HW1 2681   2.638   1.252   0.878 -0.7414 -0.9007  0.4715
  894SOL    HW2 2682   2.609   1.123   0.983  0.1079  1.8305 -0.3545
  895SOL     OW 2683   2.582   2.537   1.586 -0.6973 -0.3022 -0.4336
  895SOL    HW1 2684   2.629   2.460   1.632  0.7219  0.0352  1.3093
  895SOL    HW2 2685   2.522   2.504   1.511 -0.1299 -2.0325  0.7658
  896SOL     OW 2686   1.071   0.557   1.629 -0.2496  0.1905 -0.4846
  896SOL    HW1 2687   1.120   0.473   1.597  1.6669 -1.0315  1.4171
  896SOL    HW2 2688   0.971   0.529   1.643 -1.5055  2.5123 -0.2116
  897SOL     OW 2689   0.612   1.736   1.496  0.0557 -0.5224  0.3292
  897SOL    HW1 2690   0.652   1.685   1.413 -1.2336 -1.0816 -2.9629
  897SOL    HW2 2691   0.675   1.809   1.530 -0.3710 -1.3069 -1.7069
  898SOL     OW 2692   1.580   2.729   1.780  0.4733  0.4131  0.2798
  898SOL    HW1 2693   1.546   2.649   1.730  4.1444  1.6194  1.5908
  898SOL    HW2 2694   1.505   2.767   1.846 -1.2282  0.7295  0.5026
  899SOL     OW 2695   0.896   0.591   0.099 -0.5220 -0.0939  0.3897
  899SOL    HW1 2696   0.853   0.597   0.191  1.2878 -0.7761  0.1526
  899SOL    HW2 2697   0.880   0.497   0.062  0.8250 -1.5930 -0.1011
  900SOL     OW 2698   1.326   2.344   2.073  0.6065  0.3133 -0.1002
  900SOL    HW1 2699   1.335   2.434   2.122 -0.3584  0.0549  0.1018
  900SOL    HW2 2700   1.339   2.361   1.974 -2.8600 -2.1015 -2.4167
  901SOL     OW 2701   0.944   2.341   0.072 -0.2823  0.7982  0.9989
  901SOL    HW1 2702   0.908   2.330   0.164  1.0182  2.5618 -3.9859
  901SOL    HW2 2703   0.892   2.270   0.013  1.0081 -0.5370 -2.3007
  902SOL     OW 2704   1.645   1.324   0.484  0.1445 -0.4596 -0.7373
  902SOL    HW1 2705   1.613   1.277   0.568 -0.2920  3.2764  0.7415
  902SOL    HW2 2706   1.658   1.417   0.517 -1.2057 -3.8785  2.0909
  903SOL     OW 2707   2.249   0.834   0.288 -0.1482  0.4816  0.5697
  903SOL    HW1 2708   2.299   0.910   0.339 -3.0733 -0.0714  2.3178
  903SOL    HW2 2709   2.219   0.860   0.193 -2.6776 -0.5827 -3.3331
  904SOL     OW 2710   0.725   1.252   3.085  0.5130  0.3863  0.1056
  904SOL    HW1 2711   0.814   1.288   3.064 -2.8678 -0.8660 -0.3900
  904SOL    HW2 2712   0.691   1.299   0.070 -2.9583 -0.4655  4.0956
  905SOL     OW 2713   1.983   3.051   1.329  0.1333  0.7272 -0.7760
  905SOL    HW1 2714   2.077   3.091   1.353  1.4875  1.5151 -1.2001
  905SOL    HW2 2715   1.976   2.952   1.341 -1.0947 -0.9673  1.5289
  906SOL     OW 2716   2.721   2.489   1.300 -0.3945 -0.5215  0.7216
  906SOL    HW1 2717   2.773   2.503   1.214  1.2022  0.9687  1.3914
  906SOL    HW2 2718   2.714   2.391   1.331 -2.0796  1.9556 -0.0552
  907SOL     OW 2719   1.234   1.097   0.239  0.2311 -0.6178 -0.3404
  907SOL    HW1 2720   1.201   1.004   0.258  0.4127  1.6490 -1.0636
  907SOL    HW2 2721   1.199   1.124   0.144 -1.1459  0.2274 -1.8658
  908SOL     OW 2722   1.714   3.065   0.821 -0.1073 -0.1902 -0.4714
  908SOL    HW1 2723   1.706   3.050   0.920  2.1910 -0.0677 -2.6491
  908SOL    HW2 2724   1.745   0.057   0.793 -0.0267  1.6356  1.1224
  909SOL     OW 2725   1.984   1.168   1.629 -0.7750  0.1084  0.1769
  909SOL    HW1 2726   1.920   1.177   1.704  2.7526  1.2879 -0.7496
  909SOL    HW2 2727   2.055   1.243   1.632  2.5037  0.4888 -0.2892
  910SOL     OW 2728   1.672   0.264   2.123 -0.0150 -0.3253 -0.0471
  910SOL    HW1 2729   1.607   0.262   2.201  1.9181 -1.1030  1.1959
  910SOL    HW2 2730   1.717   0.177   2.117  1.2492  0.2122  0.9361
  911SOL     OW 2731   2.638   0.728   2.951 -0.2720 -0.7312 -0.3504
  911SOL    HW1 2732   2.733   0.771   2.949 -1.2048  3.1646 -0.5340
  911SOL    HW2 2733   2.625   0.654   2.876 -3.7730 -0.4845 -2.0231
  912SOL     OW 2734   2.920   1.147   1.740 -0.4724  0.5973  0.3779
  912SOL    HW1 2735   3.014   1.158   1.704  0.8188 -0.1837 -0.8890
  912SOL    HW2 2736   2.847   1.179   1.673  1.4498  2.4994 -3.5365
  913SOL     OW 2737   2.917   2.367   1.512  0.1361 -0.7399 -0.2302
  913SOL    HW1 2738   2.943   2.276   1.486  1.0632  2.9413  1.9933
  913SOL    HW2 2739   2.874   2.419   1.434  0.1326  0.6845  0.8631
  914SOL     OW 2740   1.627   0.963   1.829 -0.1793 -0.7960  0.6588
  914SOL    HW1 2741   1.696   0.906   1.878 -1.1853 -0.4556  0.8568
  914SOL    HW2 2742   1.638   0.963   1.728 -0.1923 -0.8087  1.8220
  915SOL     OW 2743   2.160   0.716   1.161  0.0106 -0.2563  0.3997
  915SOL    HW1 2744   2.212   0.662   1.226 -3.1717  1.4481 -2.6416
  915SOL    HW2 2745   2.167   0.672   1.070  0.6668 -1.2994 -2.3889
  916SOL     OW 2746   2.312   2.233   1.098  0.2850  0.0659  0.1917
  916SOL    HW1 2747   2.267   2.321   1.098  4.1000 -3.7029 -2.3617
  916SOL    HW2 2748   2.366   2.219   1.012 -1.0858  0.0113  1.9490
  917SOL     OW 2749   1.912   2.002   2.610  0.3933  0.1570  0.1319
  917SOL    HW1 2750   1.902   2.060   2.697 -0.1395 -0.8411  2.6667
  917SOL    HW2 2751   1.955   1.912   2.629 -2.5396  1.2785  1.8900
  918SOL     OW 2752   1.794   2.677   2.320  0.6714 -0.2396  0.0967
  918SOL    HW1 2753   1.890   2.714   2.302  5.0870 -1.3695 -0.2333
  918SOL    HW2 2754   1.797   2.580   2.349  0.7139  0.4450 -1.7282
  919SOL     OW 2755   1.274   2.849   1.358  0.3184 -0.9637  0.4958
  919SOL    HW1 2756   1.238   2.880   1.266 -0.4935  0.4854 -1.0730
  919SOL    HW2 2757   1.374   2.834   1.352 -0.4883 -0.8774 -4.1315
  920SOL     OW 2758   0.089   0.137   2.352  0.1380 -0.1503 -0.2715
  920SOL    HW1 2759   0.117   0.045   2.391 -1.1663 -0.7978  1.7317
  920SOL    HW2 2760   0.010   0.187   2.400 -1.9694  2.4247 -0.8765
  921SOL     OW 2761   2.971   0.928   1.874  0.8688 -0.6928  0.0014
  921SOL    HW1 2762   2.953   1.025   1.839 -1.1874  0.7228 -2.2938
  921SOL    HW2 2763   3.031   0.878   1.810 -5.0008  1.9375  0.3115
  922SOL     OW 2764   2.083   2.074   0.360  0.0335 -0.4319  0.0875
  922SOL    HW1 2765   2.140   2.143   0.306  1.3998  1.8474  1.1138
  922SOL    HW2 2766   2.063   1.999   0.295 -1.0741  0.1413 -1.0148
  923SOL     OW 2767   0.730   1.768   0.287 -0.3352  0.0894  0.3686
  923SOL    HW1 2768   0.694   1.717   0.209  0.7267  3.0827  3.2852
  923SOL    HW2 2769   0.721   1.865   0.272 -0.2663 -4.9530 -0.9898
  924SOL     OW 2770   1.139   0.652   3.081  0.2189 -0.2255  0.0744
  924SOL    HW1 2771   1.046   0.642   0.025 -0.3298 -1.1927 -1.3476
  924SOL    HW2 2772   1.135   0.657   2.977 -1.5368  1.8225 -2.0582
  925SOL     OW 2773   2.606   0.687   1.061 -0.2325  0.0028  0.0789
  925SOL    HW1 2774   2.558   0.769   1.101  0.2039  0.7114  2.1698
  925SOL    HW2 2775   2.561   0.656   0.976 -1.3941 -1.9052 -3.1268
  926SOL     OW 2776   0.577   0.373   1.265  0.5255  0.3521 -0.2554
  926SOL    HW1 2777   0.479   0.364   1.234 -0.4309 -1.9747 -0.9725
  926SOL    HW2 2778   0.589   0.329   1.354 -1.8196 -0.8530  2.1525
  927SOL     OW 2779   0.108   1.505   2.387  0.1959 -0.2851  0.2651
  927SOL    HW1 2780   0.013   1.523   2.427 -3.4569  0.5051  1.5330
  927SOL    HW2 2781   0.090   1.468   2.294  1.0889 -0.0390  0.8752
  928SOL     OW 2782   3.028   0.270   2.515  0.1896  0.2532 -0.0494
  928SOL    HW1 2783   2.956   0.203   2.544  0.3792 -1.2052  0.4812
  928SOL    HW2 2784   3.040   0.333   2.594 -0.4470  2.7240  1.6545
  929SOL     OW 2785   2.843   3.019   1.199  0.3526  0.4098 -0.3874
  929SOL    HW1 2786   2.884   3.003   1.106 -0.1590  0.9378 -0.2088
  929SOL    HW2 2787   2.740   3.024   1.205  0.4908  0.8320  0.4054
  930SOL     OW 2788   1.795   0.773   1.683  0.2344  0.3936  0.2106
  930SOL    HW1 2789   1.717   0.713   1.648 -0.8147  0.4029  1.2740
  930SOL    HW2 2790   1.814   0.759   1.777 -1.3432 -1.3239 -0.3634
  931SOL     OW 2791   2.166   1.207   0.105  0.2076  0.0830 -0.4189
  931SOL    HW1 2792   2.174   1.299   0.065  2.0371 -2.4340  1.5420
  931SOL    HW2 2793   2.101   1.208   0.189 -0.4828  1.8111 -0.1745
  932SOL     OW 2794   2.128   1.150   0.663 -0.2493  0.2868  0.6046
  932SOL    HW1 2795   2.116   1.250   0.683  0.1998 -0.6492 -0.2237
  932SOL    HW2 2796   2.039   1.099   0.650  0.6418 -2.6168  0.1682
  933SOL     OW 2797   2.300   1.527   0.823  0.2933  0.0878  0.0108
  933SOL    HW1 2798   2.403   1.542   0.817  1.7422  1.4500  1.6533
  933SOL    HW2 2799   2.256   1.594   0.885  1.2558  3.0504  1.1669
  934SOL     OW 2800   2.134   0.739   2.491  0.4385 -0.4040 -0.1093
  934SOL    HW1 2801   2.213   0.685   2.531  0.1506 -0.7116  3.4728
  934SOL    HW2 2802   2.067   0.674   2.463 -0.3558  3.3787 -1.0558
  935SOL     OW 2803   0.214   0.866   0.615  0.6278  0.3594  0.2757
  935SOL    HW1 2804   0.231   0.962   0.582  1.4945 -3.3495 -0.5096
  935SOL    HW2 2805   0.128   0.861   0.673  0.4539  1.5290 -1.6087
  936SOL     OW 2806   0.378   0.158   0.897  0.0991 -0.4349  0.2420
  936SOL    HW1 2807   0.472   0.136   0.927 -0.6837 -3.1425 -1.8638
  936SOL    HW2 2808   0.359   0.256   0.902  1.3869 -2.6690 -2.7337
  937SOL     OW 2809   0.050   2.998   1.993 -0.3313 -0.1709  0.4791
  937SOL    HW1 2810   0.016   2.944   2.073 -1.2475  1.0984 -0.1790
  937SOL    HW2 2811   0.063   2.949   1.904  2.0707 -0.5571 -0.1932
  938SOL     OW 2812   0.049   2.501   0.091  0.2533 -0.0872  0.0341
  938SOL    HW1 2813   3.056   2.528   0.128 -1.2053  0.0086  0.7619
  938SOL    HW2 2814   0.108   2.582   0.063  4.3980  0.3417  0.5148
  939SOL     OW 2815   0.742   1.922   0.744  0.1932 -0.5702  0.4716
  939SOL    HW1 2816   0.754   2.005   0.803 -1.5798  0.1329  1.5173
  939SOL    HW2 2817   0.734   1.844   0.810  1.6930 -0.4362 -0.7130
  940SOL     OW 2818   0.021   0.522   2.976  0.2910 -0.4600  0.1756
  940SOL    HW1 2819   0.071   0.477   3.055 -1.0512 -2.6445  1.1336
  940SOL    HW2 2820   3.064   0.598   3.014 -0.7311  3.3790 -0.1307
  941SOL     OW 2821   2.029   0.242   2.583 -0.0263 -0.3025 -0.2338
  941SOL    HW1 2822   1.997   0.333   2.612  2.5524 -0.0053 -2.0746
  941SOL    HW2 2823   1.969   0.166   2.614 -1.4049  0.2352 -2.5698
  942SOL     OW 2824   1.196   0.442   1.059 -0.5957  0.3468  0.0218
  942SOL    HW1 2825   1.196   0.386   1.141  0.8381  1.2169  0.3085
  942SOL    HW2 2826   1.119   0.510   1.068 -1.1442 -1.5640  0.5091
  943SOL     OW 2827   0.965   0.970   1.785  0.0285  0.1249 -0.3461
  943SOL    HW1 2828   0.923   0.896   1.844  2.5061  2.1525 -1.9619
  943SOL    HW2 2829   0.931   0.971   1.688 -0.8285 -0.6136  0.1612
  944SOL     OW 2830   1.997   0.924   1.537 -0.3455  0.4827  0.1159
  944SOL    HW1 2831   1.937   0.869   1.593  0.9375  0.1134 -1.1800
  944SOL    HW2 2832   1.996   1.019   1.572  1.8649 -1.3242 -0.2667
  945SOL     OW 2833   2.738   3.064   0.293  0.1165  0.8886 -0.2396
  945SOL    HW1 2834   2.717   0.013   0.385  2.2142 -0.0161  2.6371
  945SOL    HW2 2835   2.656   3.022   0.254 -0.0857  0.5422  0.3419
  946SOL     OW 2836   2.946   0.653   1.946 -0.5742  0.0384 -0.0185
  946SOL    HW1 2837   2.890   0.616   2.018 -1.7071  2.1865 -2.0184
  946SOL    HW2 2838   2.942   0.753   1.940  0.3085 -1.0827 -0.3774
  947SOL     OW 2839   0.879   2.920   0.085 -0.0245 -0.1094 -0.1871
  947SOL    HW1 2840   0.796   2.976   0.066 -0.4198 -1.7146 -1.6276
  947SOL    HW2 2841   0.855   2.869   0.172 -2.5800 -1.9797  0.8328
  948SOL     OW 2842   2.410   1.820   1.377 -0.3390  0.0031 -0.2300
  948SOL    HW1 2843   2.404   1.849   1.475 -2.7583  2.1024  1.6204
  948SOL    HW2 2844   2.465   1.733   1.378  0.4206  1.5953  2.5827
  949SOL     OW 2845   0.346   1.408   0.035 -0.1361 -0.2432 -0.1989
  949SOL    HW1 2846   0.257   1.350   0.052 -0.7002  1.8556  0.0427
  949SOL    HW2 2847   0.400   1.385   3.049  1.4360  0.9980  0.0638
  950SOL     OW 2848   0.607   2.474   0.981 -0.2513 -0.3533 -0.3491
  950SOL    HW1 2849   0.549   2.549   0.941 -3.4646  1.8825 -0.6274
  950SOL    HW2 2850   0.561   2.387   0.972  2.8702 -0.2538  0.2167
  951SOL     OW 2851   0.635   1.296   2.467  0.0775  0.2108  0.3754
  951SOL    HW1 2852   0.716   1.341   2.505 -1.2536 -1.3537 -0.3448
  951SOL    HW2 2853   0.599   1.228   2.534 -1.8907  2.5293  0.3118
  952SOL     OW 2854   0.470   0.863   0.694 -0.5991  0.3141  0.2780
  952SOL    HW1 2855   0.482   0.963   0.706  0.1831 -1.1285 -1.6887
  952SOL    HW2 2856   0.375   0.847   0.663 -0.1080  0.3968  1.5610
  953SOL     OW 2857   2.753   3.055   2.201 -0.0963 -0.0982 -0.0783
  953SOL    HW1 2858   2.677   0.023   2.205 -0.2382 -0.6929 -0.4539
  953SOL    HW2 2859   2.816   3.062   2.285  3.0073 -1.2052  1.8222
  954SOL     OW 2860   1.387   1.042   0.483 -0.2478  0.0150  0.1735
  954SOL    HW1 2861   1.372   1.090   0.394  0.6652  0.7341  0.8629
  954SOL    HW2 2862   1.474   1.070   0.533  1.8630 -0.0652  0.9858
  955SOL     OW 2863   0.840   2.103   3.053  0.0657 -0.4685  0.4349
  955SOL    HW1 2864   0.915   2.062   0.002 -3.1604  2.3951  0.0878
  955SOL    HW2 2865   0.762   2.033   3.047  0.2000 -2.3336 -1.7568
  956SOL     OW 2866   2.112   0.373   2.055  0.0510 -0.0109  0.2557
  956SOL    HW1 2867   2.208   0.415   2.045 -0.2637 -1.7340 -0.5382
  956SOL    HW2 2868   2.049   0.442   2.021  5.1650 -0.5740  1.7916
  957SOL     OW 2869   2.072   2.378   2.480 -0.5560  0.0058  0.1969
  957SOL    HW1 2870   2.102   2.285   2.504  0.0735 -2.0916  0.9372
  957SOL    HW2 2871   2.143   2.445   2.518  0.0255  2.3683 -1.5314
  958SOL     OW 2872   1.648   1.145   1.219  0.3235  0.0049  0.2749
  958SOL    HW1 2873   1.681   1.242   1.244  4.2337  1.8347 -0.8983
  958SOL    HW2 2874   1.685   1.075   1.288 -0.3282 -0.0042  2.2602
  959SOL     OW 2875   2.034   2.114   2.235 -0.8622  0.6582 -0.2832
  959SOL    HW1 2876   2.091   2.068   2.163 -0.4882  0.6997  0.9887
  959SOL    HW2 2877   1.950   2.151   2.189  0.4079 -0.2845  1.7522
  960SOL     OW 2878   0.359   0.959   2.747  0.2914 -0.7309 -0.3883
  960SOL    HW1 2879   0.374   0.924   2.653  0.3478 -2.6954  0.6830
  960SOL    HW2 2880   0.419   0.913   2.818  0.7057  1.8946 -0.4560
  961SOL     OW 2881   0.161   1.036   2.992  0.6506  0.2135 -0.0836
  961SOL    HW1 2882   0.227   1.015   2.920 -0.2623  3.9063  1.6073
  961SOL    HW2 2883   0.133   1.134   3.000 -0.0188 -1.2297 -0.5373
  962SOL     OW 2884   0.391   1.287   2.326  0.3756 -0.8854  0.5822
  962SOL    HW1 2885   0.330   1.261   2.400  2.0415  1.5875  0.0322
  962SOL    HW2 2886   0.482   1.306   2.369 -0.2570  0.3127 -1.6606
  963SOL     OW 2887   2.979   2.014   0.041 -0.4940  0.2624 -0.2879
  963SOL    HW1 2888   2.952   2.114   0.061 -2.4691  4.7821 -1.3735
  963SOL    HW2 2889   2.919   1.948   0.092  1.9118  0.3065 -1.0698
  964SOL     OW 2890   0.913   2.408   1.683  0.0832  0.0197  0.3053
  964SOL    HW1 2891   1.002   2.456   1.696 -1.6524 -2.9489 -0.7261
  964SOL    HW2 2892   0.845   2.446   1.746  0.4780  1.4730 -0.3915
  965SOL     OW 2893   1.896   2.029   0.571  0.0765  0.0072 -0.0046
  965SOL    HW1 2894   1.820   2.033   0.506  0.4388  1.8789  1.8736
  965SOL    HW2 2895   1.986   2.013   0.517  1.7961  0.0362 -1.0444
  966SOL     OW 2896   2.829   1.532   0.365 -0.2393  0.4517 -0.3631
  966SOL    HW1 2897   2.928   1.526   0.385 -1.9859 -0.3711  0.1382
  966SOL    HW2 2898   2.801   1.452   0.302 -1.9564 -0.9402  0.7422
  967SOL     OW 2899   1.921   2.892   1.937 -0.6413  0.6188 -0.6747
  967SOL    HW1 2900   1.976   2.906   1.857 -0.4439 -1.8172  1.7044
  967SOL    HW2 2901   1.916   2.792   1.958 -2.3671  0.6049 -1.9020
  968SOL     OW 2902   1.364   0.433   0.083 -0.4977  0.1240 -0.4722
  968SOL    HW1 2903   1.298   0.478   0.028 -1.7962  1.2929  1.6755
  968SOL    HW2 2904   1.449   0.493   0.093  1.1420  1.2269  0.5855
  969SOL     OW 2905   0.122   1.487   2.129 -0.3369 -0.4849 -0.0457
  969SOL    HW1 2906   0.212   1.482   2.091 -0.7048 -3.8795  2.2373
  969SOL    HW2 2907   0.050   1.452   2.065 -0.8509 -0.4666 -0.7077
  970SOL     OW 2908   2.023   2.167   1.323 -0.1098  0.3396  0.2554
  970SOL    HW1 2909   1.935   2.155   1.373  0.1315 -0.0062  0.9555
  970SOL    HW2 2910   2.007   2.192   1.225 -1.7810 -0.2976  0.5937
  971SOL     OW 2911   2.467   2.224   0.893  0.4084  0.8448 -0.6596
  971SOL    HW1 2912   2.530   2.293   0.930 -0.4223 -1.0687 -1.5559
  971SOL    HW2 2913   2.510   2.156   0.833  0.5137 -1.1739  3.3675
  972SOL     OW 2914   3.081   1.107   2.615  0.7117  0.4804  0.6623
  972SOL    HW1 2915   3.089   1.130   2.511 -1.3964  2.4478 -3.9957
  972SOL    HW2 2916   2.995   1.060   2.628 -0.1902 -1.7634 -0.2678
  973SOL     OW 2917   0.640   0.401   0.572 -0.2494  0.1091  0.3464
  973SOL    HW1 2918   0.626   0.484   0.629  0.5905 -0.1988  0.6874
  973SOL    HW2 2919   0.712   0.348   0.612 -2.8289 -0.1826  0.2962
  974SOL     OW 2920   2.236   0.890   1.702  0.2968  0.5831 -0.7274
  974SOL    HW1 2921   2.168   0.878   1.625  1.1494 -0.3313  1.8897
  974SOL    HW2 2922   2.295   0.805   1.718  2.9068  2.6135 -3.1292
  975SOL     OW 2923   0.065   2.760   0.338  0.5592 -0.1814 -0.3032
  975SOL    HW1 2924   0.047   2.860   0.368 -3.5398  2.0004  2.8764
  975SOL    HW2 2925   0.104   2.720   0.423  0.5837  1.6797  1.2477
  976SOL     OW 2926   0.313   1.816   0.960 -0.2706  0.3445 -0.3549
  976SOL    HW1 2927   0.236   1.752   0.985 -2.4540 -2.3198 -0.7382
  976SOL    HW2 2928   0.356   1.782   0.874  1.8800  1.3939  0.1226
  977SOL     OW 2929   0.966   1.986   0.572  0.4788  0.5535 -0.0460
  977SOL    HW1 2930   1.026   1.910   0.547  1.1378  1.1481  1.6511
  977SOL    HW2 2931   0.895   1.954   0.639  0.8515 -0.1241  1.9314
  978SOL     OW 2932   0.204   0.955   0.162  0.6827  0.0351  0.3495
  978SOL    HW1 2933   0.258   0.871   0.143 -1.9801  0.1796  1.5556
  978SOL    HW2 2934   0.162   1.000   0.080 -1.1113  3.0153 -1.4126
  979SOL     OW 2935   1.991   1.484   0.440 -0.1212 -0.0379  0.4885
  979SOL    HW1 2936   2.084   1.485   0.474 -1.4447 -0.8443 -1.0209
  979SOL    HW2 2937   1.923   1.498   0.516 -0.1029  1.3262 -1.6053
  980SOL     OW 2938   0.404   2.275   2.033 -0.6128  0.0672 -0.0975
  980SOL    HW1 2939   0.398   2.370   1.987  1.4134  5.0829  1.2911
  980SOL    HW2 2940   0.497   2.257   2.067 -1.3655 -0.0492 -1.2681
  981SOL     OW 2941   2.750   1.049   0.038  0.4186 -0.2085 -0.2982
  981SOL    HW1 2942   2.726   1.019   0.131 -2.3972 -0.5323 -2.2669
  981SOL    HW2 2943   2.665   1.066   3.078  0.3736  4.6661  0.7042
  982SOL     OW 2944   0.145   2.500   1.886 -0.5125  0.4986  0.2603
  982SOL    HW1 2945   0.186   2.544   1.967 -1.6756 -0.9908  0.2110
  982SOL    HW2 2946   0.160   2.560   1.808  0.5934  0.3841  1.9625
  983SOL     OW 2947   1.833   0.321   1.587  0.3613 -0.4527  0.2286
  983SOL    HW1 2948   1.798   0.240   1.539  0.3133  1.2396  2.3027
  983SOL    HW2 2949   1.786   0.404   1.551 -2.4965 -1.7927 -0.6739
  984SOL     OW 2950   1.664   2.973   2.670  0.1529 -0.0896  0.3831
  984SOL    HW1 2951   1.619   2.915   2.596 -0.9088 -2.9517 -1.1576
  984SOL    HW2 2952   1.649   2.937   2.760 -0.3239  3.6724 -0.4277
  985SOL     OW 2953   1.478   1.507   1.525 -0.2512 -0.1658 -0.2467
  985SOL    HW1 2954   1.500   1.405   1.538 -1.1006  1.0977 -0.8873
  985SOL    HW2 2955   1.437   1.544   1.610  1.8611 -2.0182 -0.0726
  986SOL     OW 2956   2.058   2.776   2.237 -0.4396 -0.1790 -0.3963
  986SOL    HW1 2957   2.154   2.756   2.227  2.5203 -0.9281  0.7541
  986SOL    HW2 2958   2.041   2.873   2.217  0.8235 -1.9878  0.9401
  987SOL     OW 2959   2.719   1.795   2.722  1.0822  0.1481  0.1968
  987SOL    HW1 2960   2.715   1.856   2.805 -0.5337 -0.4127  0.6682
  987SOL    HW2 2961   2.725   1.846   2.633 -0.0836  0.2947 -0.9310
  988SOL     OW 2962   2.848   0.771   1.627 -0.0483  0.1161  0.1221
  988SOL    HW1 2963   2.844   0.741   1.530  1.1746  1.5859  0.7179
  988SOL    HW2 2964   2.926   0.833   1.651  0.7519  1.6564 -1.5041
  989SOL     OW 2965   1.897   1.404   1.487  0.3900 -0.3549 -0.2140
  989SOL    HW1 2966   1.867   1.467   1.563  3.5239  0.4516 -0.9025
  989SOL    HW2 2967   1.984   1.358   1.505 -1.4398  0.0846 -4.4449
  990SOL     OW 2968   3.094   0.839   2.968 -0.3461  0.2728 -0.4757
  990SOL    HW1 2969   0.051   0.923   2.979  1.0825  2.5818  0.1796
  990SOL    HW2 2970   0.035   0.787   2.894 -1.4738 -2.3039 -1.4161
  991SOL     OW 2971   0.397   2.044   2.905 -0.0048 -0.0101 -0.3448
  991SOL    HW1 2972   0.301   2.063   2.915  3.0639  3.2145 -0.4252
  991SOL    HW2 2973   0.421   1.997   2.996  0.4514 -1.2130  2.8349
  992SOL     OW 2974   2.571   1.916   1.805  0.6563 -0.0923  0.1267
  992SOL    HW1 2975   2.492   1.869   1.859 -1.6340 -1.8058  5.5776
  992SOL    HW2 2976   2.652   1.926   1.862 -0.3724 -1.8162 -2.0965
  993SOL     OW 2977   0.610   0.108   1.028 -0.2450 -0.1531 -0.4113
  993SOL    HW1 2978   0.551   0.096   1.110  0.0824  3.2649 -2.0359
  993SOL    HW2 2979   0.709   0.110   1.058  0.8170 -0.2624 -0.1473
  994SOL     OW 2980   2.752   2.001   1.532  0.7310 -0.1378 -0.1734
  994SOL    HW1 2981   2.831   2.025   1.594 -0.4554 -2.9858  0.0456
  994SOL    HW2 2982   2.707   1.912   1.563  0.4553  0.4518 -1.4685
  995SOL     OW 2983   2.125   2.102   2.497 -0.1697 -0.3317  0.4604
  995SOL    HW1 2984   2.034   2.096   2.545 -1.6069 -0.2605  0.6918
  995SOL    HW2 2985   2.117   2.125   2.398  0.7568 -0.3075 -0.6295
  996SOL     OW 2986   1.923   1.841   3.027  0.1074 -0.3835  0.0820
  996SOL    HW1 2987   1.843   1.795   2.989  1.7971 -2.3191  2.8100
  996SOL    HW2 2988   1.939   1.812   0.025  0.6082 -1.0455  1.8048
  997SOL     OW 2989   1.134   1.418   1.802 -0.7097 -0.1409 -0.4273
  997SOL    HW1 2990   1.049   1.437   1.862  1.4264  1.5318  3.0018
  997SOL    HW2 2991   1.168   1.325   1.813  0.2298  2.2398 -0.1015
  998SOL     OW 2992   2.789   2.097   0.703 -0.3910 -0.1797  0.4184
  998SOL    HW1 2993   2.721   2.077   0.625 -1.9900  0.1966 -1.2391
  998SOL    HW2 2994   2.748   2.062   0.789  0.0269  0.5453  0.7019
  999SOL     OW 2995   0.151   2.673   0.583  0.1370  0.2159  0.2610
  999SOL    HW1 2996   0.210   2.593   0.570  0.5275 -3.4498 -2.1743
  999SOL    HW2 2997   0.071   2.649   0.645 -0.3364  0.9577  0.0464
 1000SOL     OW 2998   1.171   0.206   2.937 -0.4748  0.5209 -0.2373
 1000SOL    HW1 2999   1.149   0.211   3.037 -0.5648  0.5987 -2.3827
 1000SOL    HW2 3000   1.245   0.273   2.909 -2.0903 -0.8099  2.1033
   3.09929   3.09929   3.09929
