1000 SPC/Fw water molecules t=  24.00000 step= 24000
 3000
    1SOL     OW    1   1.884   2.644   0.295  0.4068  0.3299  0.3036
    1SOL    HW1    2   1.975   2.604   0.268  2.5227 -0.4871  2.1347
    1SOL    HW2    3   1.811   2.570   0.299 -0.6080 -0.7454 -1.3459
    2SOL     OW    4   1.223   0.872   2.066 -0.5343 -0.4779 -0.1180
    2SOL    HW1    5   1.316   0.869   2.099 -0.0751  0.9050  1.3812
    2SOL    HW2    6   1.159   0.885   2.146  2.1248 -2.1930 -1.2285
    3SOL     OW    7   0.934   2.935   2.883 -0.8726 -0.3763 -0.2116
    3SOL    HW1    8   0.950   2.989   2.800  1.8292 -2.9234 -0.6076
    3SOL    HW2    9   0.956   2.987   2.967 -0.0242 -0.2362  1.1692
    4SOL     OW   10   1.495   1.676   0.079 -0.3655 -0.1061 -0.0541
    4SOL    HW1   11   1.417   1.694   0.142 -1.6333  1.3194  0.6975
    4SOL    HW2   12   1.455   1.690   3.059 -5.1461 -0.8249 -2.9421
    5SOL     OW   13   0.911   1.006   2.154 -0.6352 -0.1575 -0.0684
    5SOL    HW1   14   0.970   1.047   2.081 -0.6129  0.5117 -2.3153
    5SOL    HW2   15   0.929   1.048   2.245  0.0639  2.9383  1.6897
    6SOL     OW   16   2.013   0.895   2.493 -0.0808 -0.2646  0.3633
    6SOL    HW1   17   2.038   0.795   2.501  0.3226 -1.8766 -0.9467
    6SOL    HW2   18   2.085   0.953   2.448 -2.3108 -0.3811  1.2181
    7SOL     OW   19   0.482   0.880   1.163  0.3082 -0.2306 -0.2574
    7SOL    HW1   20   0.433   0.816   1.100  1.7361  1.3156  1.6888
    7SOL    HW2   21   0.448   0.977   1.162 -2.8861  0.9419 -0.9118
    8SOL     OW   22   1.913   2.915   1.963  0.6477  0.3086 -0.1788
    8SOL    HW1   23   1.943   2.946   2.054 -3.8421  0.1616  1.4891
    8SOL    HW2   24   1.942   2.990   1.898  4.1301  1.1382 -0.3197
    9SOL     OW   25   0.047   2.675   0.662  0.4718  0.4347  0.3027
    9SOL    HW1   26   0.129   2.701   0.606  0.9990 -1.5899 -0.4274
    9SOL    HW2   27   3.038   2.729   0.645  1.2172  0.0390 -2.8865
   10SOL     OW   28   3.009   2.302   2.264 -0.4154  0.0396  0.3369
   10SOL    HW1   29   2.992   2.383   2.200  1.5491 -0.8159 -1.5266
   10SOL    HW2   30   3.032   2.214   2.208 -0.6185  0.5255 -0.3632
   11SOL     OW   31   0.722   1.576   2.967  0.0125 -0.4687  0.4274
   11SOL    HW1   32   0.683   1.571   3.064 -1.5150 -1.2807  2.1701
   11SOL    HW2   33   0.693   1.662   2.925 -0.8811 -0.8761  1.7171
   12SOL     OW   34   2.204   2.605   1.152  0.0195 -0.0634 -0.4444
   12SOL    HW1   35   2.187   2.693   1.103  0.1485 -0.6624  2.2116
   12SOL    HW2   36   2.141   2.586   1.227  0.6121  0.4134 -0.9497
   13SOL     OW   37   0.286   0.117   2.703  0.2519  0.2480  0.6122
   13SOL    HW1   38   0.246   0.163   2.789  0.3130 -1.8102  1.2093
   13SOL    HW2   39   0.333   0.179   2.630 -0.1802  0.4968  0.8162
   14SOL     OW   40   1.613   1.286   1.571 -0.5309  0.4316 -0.0359
   14SOL    HW1   41   1.642   1.209   1.631 -1.4278 -0.9604 -0.1969
   14SOL    HW2   42   1.518   1.306   1.589  0.7556 -1.4266 -2.7333
   15SOL     OW   43   0.593   1.448   1.914  0.3627 -0.0455  0.0478
   15SOL    HW1   44   0.550   1.473   1.824 -0.4906  0.7879 -1.2690
   15SOL    HW2   45   0.559   1.357   1.942 -2.0876  1.8352  0.5038
   16SOL     OW   46   1.658   0.904   2.533  0.1677 -0.0276 -0.0773
   16SOL    HW1   47   1.630   0.992   2.585  0.5146  1.3485  0.5430
   16SOL    HW2   48   1.691   0.929   2.438  1.1306  1.4348 -3.1944
   17SOL     OW   49   2.993   2.517   2.097  0.1848  0.2986 -0.3263
   17SOL    HW1   50   3.034   2.601   2.142  2.8332  0.8217  0.2449
   17SOL    HW2   51   3.048   2.497   2.011  0.8385 -1.2811 -2.2294
   18SOL     OW   52   1.762   1.256   0.532 -0.0060  0.3117 -0.0362
   18SOL    HW1   53   1.864   1.247   0.526 -1.9809 -1.7635  2.0620
   18SOL    HW2   54   1.739   1.317   0.461  0.3702 -1.3865  0.6616
   19SOL     OW   55   0.300   1.195   1.909  0.0341 -0.3364  0.0330
   19SOL    HW1   56   0.375   1.225   1.970  1.1234  1.0318 -3.0731
   19SOL    HW2   57   0.348   1.150   1.835 -0.8048 -2.3151  3.4267
   20SOL     OW   58   1.980   2.367   2.901 -0.2987  0.0564 -0.1311
   20SOL    HW1   59   2.074   2.377   2.935 -2.8360 -0.8853  0.4434
   20SOL    HW2   60   1.940   2.460   2.884 -0.8243  1.0124  0.2784
   21SOL     OW   61   1.851   1.707   0.981  0.0157  0.0069 -0.4571
   21SOL    HW1   62   1.807   1.790   1.022 -0.7669  1.4244 -0.3329
   21SOL    HW2   63   1.919   1.729   0.914 -4.0630 -1.9694  1.7124
   22SOL     OW   64   2.064   2.084   1.319 -0.2927 -0.5793 -1.0792
   22SOL    HW1   65   1.980   2.093   1.385 -2.6285  1.1696  4.1960
   22SOL    HW2   66   2.030   2.114   1.228 -1.5027 -1.3518  1.7309
   23SOL     OW   67   0.131   1.013   1.250 -0.0372 -0.7048  0.1028
   23SOL    HW1   68   0.141   0.997   1.350 -0.4509 -0.0825  4.9642
   23SOL    HW2   69   0.032   1.019   1.230  0.9070  0.7878  1.9209
   24SOL     OW   70   1.635   1.107   1.767 -0.1256 -0.1049  0.0343
   24SOL    HW1   71   1.634   1.008   1.755 -3.2534  1.6841  1.4887
   24SOL    HW2   72   1.732   1.136   1.782 -0.1187  0.5505  0.4479
   25SOL     OW   73   1.874   0.122   2.180 -0.3417 -0.2120 -0.1347
   25SOL    HW1   74   1.927   0.041   2.220  0.4984  0.9544 -1.5391
   25SOL    HW2   75   1.827   0.170   2.253  1.9139 -0.7468 -0.4411
   26SOL     OW   76   0.731   2.942   0.700  0.1144 -0.1600  0.1678
   26SOL    HW1   77   0.748   3.039   0.731  0.9655  1.5600 -1.8155
   26SOL    HW2   78   0.661   2.898   0.763 -0.2594  1.1617  1.9279
   27SOL     OW   79   1.401   1.245   0.864  0.5178 -0.2637  0.1114
   27SOL    HW1   80   1.502   1.258   0.846  0.8745 -0.2008  1.4729
   27SOL    HW2   81   1.346   1.332   0.870  0.1475  2.0379  1.8086
   28SOL     OW   82   2.427   2.222   1.205  0.8434  0.1323 -0.3766
   28SOL    HW1   83   2.463   2.271   1.288  2.1649  0.5460  1.1665
   28SOL    HW2   84   2.333   2.252   1.175 -2.6248 -0.8811 -1.0725
   29SOL     OW   85   2.032   2.957   2.224 -0.1406 -0.1341  0.2201
   29SOL    HW1   86   1.978   2.956   2.315  1.2583  0.8618  2.6022
   29SOL    HW2   87   2.122   2.930   2.246 -2.5807 -0.9282 -1.5722
   30SOL     OW   88   0.061   2.772   1.949  0.6754 -0.2649  0.2107
   30SOL    HW1   89   3.059   2.802   1.893  1.6167  0.4688  0.8411
   30SOL    HW2   90   0.115   2.852   1.959  0.2658 -1.6483 -1.4768
   31SOL     OW   91   0.098   1.604   1.896 -0.6230  0.0663 -0.1938
   31SOL    HW1   92   0.162   1.631   1.973 -0.6233  0.1972 -1.3584
   31SOL    HW2   93   0.043   1.687   1.873  0.1180  1.7003 -0.8414
   32SOL     OW   94   1.242   2.423   2.198  0.3442  0.2249  0.3658
   32SOL    HW1   95   1.159   2.409   2.138 -3.6282  0.2987 -1.6302
   32SOL    HW2   96   1.310   2.352   2.172  0.0471 -1.8580 -0.6574
   33SOL     OW   97   0.201   0.194   2.947  0.3308  0.6535 -0.2102
   33SOL    HW1   98   0.250   0.138   3.017  0.9284 -0.2665  0.0844
   33SOL    HW2   99   0.196   0.291   2.983  1.3328  2.3191  1.3159
   34SOL     OW  100   2.771   0.261   0.273 -0.1464 -0.2300  0.1759
   34SOL    HW1  101   2.810   0.169   0.280 -0.6107 -0.9025  1.8007
   34SOL    HW2  102   2.812   0.319   0.197 -0.2022 -0.5793 -0.0162
   35SOL     OW  103   2.745   2.680   1.634  0.0676  0.1099  0.2649
   35SOL    HW1  104   2.676   2.652   1.706  1.9847 -0.2197  1.7240
   35SOL    HW2  105   2.702   2.703   1.545 -1.7084  0.3632  1.0110
   36SOL     OW  106   2.276   2.885   2.332 -0.6262 -0.1157  0.1560
   36SOL    HW1  107   2.305   2.860   2.427 -2.4739 -3.4348 -0.0197
   36SOL    HW2  108   2.296   2.978   2.298  0.8308 -4.3207  0.8317
   37SOL     OW  109   1.574   0.004   2.961  0.1088 -0.0987  0.0585
   37SOL    HW1  110   1.587   3.071   3.065  0.7888  1.0958  1.0543
   37SOL    HW2  111   1.491   0.063   2.942 -1.6217 -0.3286 -0.6449
   38SOL     OW  112   0.259   0.595   0.373  0.2016 -0.0174 -1.1469
   38SOL    HW1  113   0.265   0.535   0.459 -0.1328 -3.4089  4.0086
   38SOL    HW2  114   0.325   0.565   0.305 -1.6544 -1.2450  1.5121
   39SOL     OW  115   0.874   1.812   2.050  0.0850  0.9076 -1.1078
   39SOL    HW1  116   0.906   1.760   2.131  1.0347 -1.7877  1.1770
   39SOL    HW2  117   0.915   1.908   2.056  2.0278  1.4066  1.1656
   40SOL     OW  118   0.019   0.652   2.820  0.0174 -0.5298  0.0537
   40SOL    HW1  119   3.035   0.623   2.744  1.8076  1.3756  0.7443
   40SOL    HW2  120   0.109   0.614   2.819 -0.4463  0.7960 -1.6903
   41SOL     OW  121   1.176   0.740   1.804  0.5480 -0.4990  0.6423
   41SOL    HW1  122   1.264   0.729   1.747 -0.1138  0.1767 -1.4703
   41SOL    HW2  123   1.189   0.812   1.877 -1.6769 -1.2271 -2.0143
   42SOL     OW  124   2.623   0.215   1.303  0.3622 -0.1929 -0.1805
   42SOL    HW1  125   2.630   0.300   1.247  2.1634 -2.8089 -2.9805
   42SOL    HW2  126   2.595   0.239   1.398  0.9677  0.4777  0.0436
   43SOL     OW  127   1.410   0.680   1.661  0.9058  0.0727  0.2694
   43SOL    HW1  128   1.450   0.714   1.576 -0.6410 -2.4036  1.3870
   43SOL    HW2  129   1.414   0.578   1.673 -0.4882  3.4561 -1.0628
   44SOL     OW  130   0.188   0.448   3.059  0.4231  0.3170  0.4047
   44SOL    HW1  131   0.153   0.392   0.055 -0.3540  1.2416  0.7362
   44SOL    HW2  132   0.169   0.548   0.005 -0.3602 -0.2087 -1.8956
   45SOL     OW  133   0.507   1.874   1.759 -0.3337 -0.3754 -0.3655
   45SOL    HW1  134   0.577   1.884   1.683  1.8277 -1.4159 -0.7342
   45SOL    HW2  135   0.454   1.789   1.747 -0.0535  0.7421  2.9619
   46SOL     OW  136   2.261   2.768   1.569  0.2969 -0.2469 -0.7925
   46SOL    HW1  137   2.299   2.776   1.664 -0.0128  2.2955  0.6727
   46SOL    HW2  138   2.159   2.748   1.578  0.7992  0.4548  1.4407
   47SOL     OW  139   0.197   1.816   1.235 -0.6280  0.5115 -0.2889
   47SOL    HW1  140   0.219   1.777   1.330 -2.6919 -0.1709 -0.4269
   47SOL    HW2  141   0.279   1.824   1.176 -0.6616  0.1160  0.5234
   48SOL     OW  142   0.933   2.483   2.874 -0.2634  0.4219 -0.5056
   48SOL    HW1  143   0.871   2.420   2.823 -3.1430 -2.4284  1.1274
   48SOL    HW2  144   0.919   2.479   2.975 -0.9633 -1.2077  0.2535
   49SOL     OW  145   2.634   1.349   1.778  0.4248  0.5400 -0.2556
   49SOL    HW1  146   2.697   1.424   1.750 -2.7125 -0.1904 -1.9346
   49SOL    HW2  147   2.622   1.334   1.879  1.9695 -0.4880  0.4909
   50SOL     OW  148   1.472   2.848   0.464  0.1773  0.4263 -0.0110
   50SOL    HW1  149   1.500   2.832   0.561 -0.3005 -1.5708 -1.7724
   50SOL    HW2  150   1.465   2.943   0.443  0.3225  0.5962  1.1870
   51SOL     OW  151   1.062   0.356   1.100 -0.3288 -0.5836  0.2685
   51SOL    HW1  152   1.030   0.350   1.194  1.3224 -0.8536 -3.0059
   51SOL    HW2  153   1.165   0.354   1.094 -1.3197  0.7228  1.2032
   52SOL     OW  154   0.575   1.326   0.322  0.2135 -0.5668  0.2337
   52SOL    HW1  155   0.581   1.231   0.287 -1.4699 -1.1124  0.6477
   52SOL    HW2  156   0.626   1.330   0.412  1.4844 -1.4601  2.3197
   53SOL     OW  157   1.153   2.777   2.536 -0.1845  0.9385 -0.2063
   53SOL    HW1  158   1.225   2.826   2.590  0.5669  1.6640 -0.1180
   53SOL    HW2  159   1.201   2.717   2.466  0.1085 -0.8677  0.4641
   54SOL     OW  160   2.004   0.263   1.971 -0.7051 -0.2404 -0.2016
   54SOL    HW1  161   1.971   0.201   2.047 -1.1014  0.5377  0.6775
   54SOL    HW2  162   2.013   0.356   2.007  3.9882 -0.4800  1.3240
   55SOL     OW  163   2.738   2.363   0.235 -0.2040 -0.2909 -0.3087
   55SOL    HW1  164   2.819   2.339   0.177 -1.4280 -2.3359  0.4926
   55SOL    HW2  165   2.745   2.459   0.254  0.6944  0.2719 -0.0169
   56SOL     OW  166   0.817   0.140   1.773 -0.3611 -0.1186  0.6970
   56SOL    HW1  167   0.718   0.144   1.803 -2.6155  2.1248  3.8495
   56SOL    HW2  168   0.873   0.105   1.849  2.8472 -0.2982 -0.2857
   57SOL     OW  169   1.883   1.125   2.531 -0.1459 -0.0291 -0.3244
   57SOL    HW1  170   1.931   1.045   2.498 -1.5171  0.5496 -0.3983
   57SOL    HW2  171   1.796   1.112   2.589 -3.7549  1.2165 -0.2281
   58SOL     OW  172   0.047   0.881   2.035  0.1636  0.0310 -0.1903
   58SOL    HW1  173   0.125   0.919   2.087 -0.1525  1.5650 -0.1176
   58SOL    HW2  174   0.012   0.946   1.968  0.7434 -1.4037  1.3815
   59SOL     OW  175   0.794   2.531   1.721  0.1420  0.6019  0.4272
   59SOL    HW1  176   0.732   2.613   1.729 -0.5461  0.2652  1.0188
   59SOL    HW2  177   0.819   2.520   1.623  1.9323  0.9411 -2.6448
   60SOL     OW  178   2.097   2.483   0.216  0.1339  0.2013  0.0231
   60SOL    HW1  179   2.104   2.430   0.304  2.4163 -3.4550  1.6001
   60SOL    HW2  180   2.190   2.490   0.178 -1.9863 -1.2431  2.3769
   61SOL     OW  181   1.483   2.368   0.441  0.0629  0.4233  0.6002
   61SOL    HW1  182   1.527   2.311   0.518 -0.4615  1.3113  0.6778
   61SOL    HW2  183   1.385   2.381   0.425 -1.7631  1.2618 -2.5308
   62SOL     OW  184   1.702   2.836   2.966 -0.2501 -0.0173 -0.1264
   62SOL    HW1  185   1.641   2.919   2.966  2.3488 -0.1164  0.2305
   62SOL    HW2  186   1.676   2.768   3.039 -1.5990 -0.8369  2.3540
   63SOL     OW  187   2.624   0.354   0.001 -0.1649 -0.7925  0.8105
   63SOL    HW1  188   2.618   0.405   2.992  0.3787 -1.0097  0.1536
   63SOL    HW2  189   2.576   0.407   0.074  3.0729  1.7811 -0.7055
   64SOL     OW  190   1.407   1.035   2.851  0.3888 -0.4061 -0.0432
   64SOL    HW1  191   1.390   0.934   2.866  2.1291 -0.3931 -1.8934
   64SOL    HW2  192   1.313   1.078   2.840  0.2728  0.8553  1.4747
   65SOL     OW  193   0.520   2.434   1.447  0.5649 -0.0716  0.1053
   65SOL    HW1  194   0.429   2.410   1.399 -1.3402  0.0219 -1.0341
   65SOL    HW2  195   0.576   2.476   1.369 -0.3370  2.1250 -0.7202
   66SOL     OW  196   1.118   1.292   1.304  0.1633 -0.5231  0.0687
   66SOL    HW1  197   1.200   1.234   1.292  0.9166  2.4831  0.5146
   66SOL    HW2  198   1.107   1.324   1.400 -0.4522 -3.0797 -1.1305
   67SOL     OW  199   2.323   2.005   1.839 -0.7026  0.3979  0.4173
   67SOL    HW1  200   2.399   2.042   1.777  1.5694  2.0826 -0.3989
   67SOL    HW2  201   2.305   1.908   1.821 -0.8896 -2.3411 -0.9333
   68SOL     OW  202   0.829   1.360   1.736  0.1151  0.6235 -0.3599
   68SOL    HW1  203   0.756   1.291   1.755  2.7155 -0.9029 -2.0894
   68SOL    HW2  204   0.850   1.414   1.821 -1.7041  2.5960 -0.2897
   69SOL     OW  205   0.120   2.934   3.044 -0.1553 -0.0563 -0.0738
   69SOL    HW1  206   0.211   2.894   0.001  4.0037 -0.9200  0.0594
   69SOL    HW2  207   0.086   3.002   0.034 -1.2033 -0.2587 -0.3769
   70SOL     OW  208   2.248   0.991   2.407  0.2247  0.5452 -0.2122
   70SOL    HW1  209   2.271   0.926   2.332  1.9751 -0.2383 -0.7337
   70SOL    HW2  210   2.267   1.085   2.369  0.8343  0.3457 -1.6531
   71SOL     OW  211   0.752   1.891   0.961  0.0737 -0.0615  0.2013
   71SOL    HW1  212   0.727   1.966   1.025 -0.1569 -2.5080 -1.8266
   71SOL    HW2  213   0.668   1.834   0.930 -2.6524 -0.7388 -0.0886
   72SOL     OW  214   2.567   2.016   0.539 -0.0623 -0.5230 -0.5822
   72SOL    HW1  215   2.624   2.099   0.513 -0.2458 -0.7777  0.6685
   72SOL    HW2  216   2.513   2.034   0.623 -1.1901 -2.9654 -0.7704
   73SOL     OW  217   1.489   0.549   0.978  0.0985 -0.4954  0.3821
   73SOL    HW1  218   1.533   0.568   0.887 -0.2706  2.2991  0.3566
   73SOL    HW2  219   1.436   0.635   1.007 -0.2419  0.5146  0.0062
   74SOL     OW  220   2.718   1.942   2.005  0.5429  0.0021 -0.2131
   74SOL    HW1  221   2.730   2.033   1.962  0.9536 -3.5974  0.3925
   74SOL    HW2  222   2.779   1.919   2.083  2.0072 -1.7161 -2.9013
   75SOL     OW  223   1.646   1.697   1.741  0.2880 -0.1465 -0.2987
   75SOL    HW1  224   1.581   1.632   1.786 -0.7989 -0.5272  0.5309
   75SOL    HW2  225   1.743   1.666   1.738 -1.8724  1.1875 -0.6179
   76SOL     OW  226   1.516   1.638   1.106 -0.1216  0.4906  0.1133
   76SOL    HW1  227   1.532   1.736   1.114 -0.5217 -0.5157  1.9187
   76SOL    HW2  228   1.600   1.581   1.086  1.0996 -3.2213  0.4683
   77SOL     OW  229   2.532   1.110   1.644  0.1433 -0.5747 -0.0310
   77SOL    HW1  230   2.557   1.191   1.701 -1.5516 -1.6435  0.6927
   77SOL    HW2  231   2.472   1.127   1.561 -0.4228 -0.6664 -1.5025
   78SOL     OW  232   1.514   0.825   0.260 -0.2778  0.3351  0.1943
   78SOL    HW1  233   1.563   0.777   0.186  1.0993 -2.8743  2.7338
   78SOL    HW2  234   1.485   0.763   0.334 -0.5823 -0.6766 -0.7160
   79SOL     OW  235   1.207   1.553   2.297  0.8979 -0.4295  0.2572
   79SOL    HW1  236   1.233   1.551   2.397 -1.8791  1.3325 -0.2259
   79SOL    HW2  237   1.173   1.467   2.258 -0.3768 -1.9081 -2.5543
   80SOL     OW  238   1.114   0.335   1.527 -0.1513 -0.3315  0.0375
   80SOL    HW1  239   1.071   0.423   1.555  1.7480 -2.9041 -1.1355
   80SOL    HW2  240   1.159   0.288   1.606  2.9740 -1.5915 -1.0204
   81SOL     OW  241   0.368   2.529   0.272 -0.3691  0.5589  0.2593
   81SOL    HW1  242   0.408   2.578   0.194  1.4890 -2.3312  0.9538
   81SOL    HW2  243   0.439   2.464   0.309 -2.2073  0.2972  0.3087
   82SOL     OW  244   1.250   0.264   1.775 -0.0572 -0.4199  0.2590
   82SOL    HW1  245   1.186   0.280   1.852 -2.4852 -0.5117  0.1925
   82SOL    HW2  246   1.298   0.176   1.792  0.9334 -3.8302  0.4870
   83SOL     OW  247   0.373   2.129   1.018  0.1020  0.0872 -0.4346
   83SOL    HW1  248   0.275   2.110   1.037 -1.1071 -0.5933 -2.1768
   83SOL    HW2  249   0.391   2.106   0.919 -1.1640  1.1690 -2.0421
   84SOL     OW  250   2.799   1.628   0.757 -0.2043  0.5693 -0.4460
   84SOL    HW1  251   2.776   1.544   0.703 -0.9350  2.0493 -0.7468
   84SOL    HW2  252   2.888   1.664   0.722 -0.3542 -1.6013 -1.8874
   85SOL     OW  253   2.212   1.842   1.283 -0.1100 -0.8293 -0.6644
   85SOL    HW1  254   2.177   1.940   1.272 -1.8774 -0.9440 -0.9392
   85SOL    HW2  255   2.135   1.788   1.319  1.0335  0.6542 -2.7456
   86SOL     OW  256   1.602   2.344   1.921 -0.0261 -0.6402 -0.0574
   86SOL    HW1  257   1.518   2.397   1.889 -0.1511  1.8862 -0.6049
   86SOL    HW2  258   1.646   2.391   1.997  0.2102 -2.1963 -1.9108
   87SOL     OW  259   2.273   1.447   0.496 -0.0869 -0.3145 -0.5505
   87SOL    HW1  260   2.209   1.519   0.537 -0.7410 -1.0185 -0.0956
   87SOL    HW2  261   2.336   1.487   0.430 -2.2062 -0.6072  0.9274
   88SOL     OW  262   0.327   2.935   0.790  0.6304  0.1333  0.1408
   88SOL    HW1  263   0.410   2.885   0.812 -1.8042 -1.9697  1.5165
   88SOL    HW2  264   0.339   3.032   0.823 -0.7200 -1.4335 -0.1886
   89SOL     OW  265   0.598   0.753   1.717 -0.2573  0.6737  0.0183
   89SOL    HW1  266   0.683   0.780   1.665  1.1965  0.9922 -1.3281
   89SOL    HW2  267   0.623   0.688   1.792 -1.4574 -1.3233 -1.1763
   90SOL     OW  268   2.842   1.936   0.437  0.1386  0.2272  0.1985
   90SOL    HW1  269   2.923   1.902   0.484  1.9113  0.7024  0.3132
   90SOL    HW2  270   2.811   2.030   0.454  2.5740 -2.3802 -3.4682
   91SOL     OW  271   1.252   1.649   0.956  0.8242 -0.1187  0.7214
   91SOL    HW1  272   1.188   1.616   1.024  1.4887  0.2574 -0.7022
   91SOL    HW2  273   1.341   1.664   1.001  0.0368  1.1757  0.9843
   92SOL     OW  274   2.231   0.112   1.614  0.2596 -0.1506 -0.1961
   92SOL    HW1  275   2.332   0.120   1.639  0.2009 -0.5434 -1.5698
   92SOL    HW2  276   2.218   0.036   1.545 -0.7134 -2.3493 -2.8422
   93SOL     OW  277   0.619   1.273   2.857  0.8251  0.1334 -0.4939
   93SOL    HW1  278   0.716   1.287   2.850 -3.8013  0.5051  1.0584
   93SOL    HW2  279   0.573   1.358   2.835 -2.4981 -0.6771  0.8618
   94SOL     OW  280   2.470   0.112   1.756 -1.0490 -0.0371  0.2434
   94SOL    HW1  281   2.403   0.153   1.822 -0.3097 -0.5929 -3.5432
   94SOL    HW2  282   2.536   0.043   1.799  2.1896 -3.4207  0.7191
   95SOL     OW  283   1.865   0.488   1.678 -0.1271  0.0892 -0.5375
   95SOL    HW1  284   1.792   0.425   1.635 -2.0973 -3.7239 -1.4233
   95SOL    HW2  285   1.959   0.448   1.672  1.5355  2.1567  0.0202
   96SOL     OW  286   0.236   0.466   1.727  0.1912 -0.0466  0.1353
   96SOL    HW1  287   0.217   0.487   1.628 -2.2259 -1.8261  0.0380
   96SOL    HW2  288   0.224   0.552   1.780 -0.4450 -0.0195  0.4775
   97SOL     OW  289   1.909   0.220   1.445 -0.6917 -0.9996  0.3502
   97SOL    HW1  290   1.824   0.246   1.397 -1.4734  2.4242 -0.7657
   97SOL    HW2  291   1.885   0.159   1.524  1.9436 -3.2394  1.0463
   98SOL     OW  292   1.928   2.478   1.713  0.7484 -0.6101 -0.0260
   98SOL    HW1  293   2.012   2.432   1.674 -0.6486  0.1176  1.8536
   98SOL    HW2  294   1.936   2.476   1.815 -0.1818 -3.5819  2.5538
   99SOL     OW  295   0.767   0.959   0.891 -0.3779  0.2270  0.4886
   99SOL    HW1  296   0.821   1.007   0.819  0.2504 -0.0479 -3.7135
   99SOL    HW2  297   0.671   0.943   0.861  0.1597 -0.3084 -0.5245
  100SOL     OW  298   2.743   1.538   2.031  0.5241  0.1023 -0.3882
  100SOL    HW1  299   2.711   1.588   2.114  0.7715 -2.2224 -1.9243
  100SOL    HW2  300   2.731   1.595   1.950  1.8328 -1.8255  2.4076
  101SOL     OW  301   1.783   0.171   0.193  0.6312 -0.1141  0.1905
  101SOL    HW1  302   1.822   0.246   0.138 -3.6419  0.0670 -1.6182
  101SOL    HW2  303   1.702   0.124   0.153 -0.0242  0.6878  0.1682
  102SOL     OW  304   0.036   2.955   1.140  0.1365  0.6638 -0.4920
  102SOL    HW1  305   3.044   2.996   1.079  1.2575 -0.5414 -0.7329
  102SOL    HW2  306   0.029   2.854   1.138 -1.7038  1.5010  0.3314
  103SOL     OW  307   0.146   2.991   2.288 -0.5574  0.0287  0.0910
  103SOL    HW1  308   0.047   3.004   2.305  1.0957  1.6332 -2.1616
  103SOL    HW2  309   0.166   2.894   2.298 -2.9721  1.9076  1.7320
  104SOL     OW  310   0.300   2.144   1.500  0.2328 -0.0129 -0.3490
  104SOL    HW1  311   0.343   2.200   1.428 -0.3027  0.4762  0.7893
  104SOL    HW2  312   0.200   2.151   1.487 -0.7088  0.7189 -0.3990
  105SOL     OW  313   0.611   1.808   2.041  0.2580 -0.0630 -0.0709
  105SOL    HW1  314   0.715   1.810   2.055  2.2133 -1.4761  2.8894
  105SOL    HW2  315   0.579   1.823   1.945 -1.8309  0.9080  0.6753
  106SOL     OW  316   1.868   2.935   0.560  0.3711 -0.2266  0.5904
  106SOL    HW1  317   1.954   2.992   0.554  1.6534  0.2228 -3.8004
  106SOL    HW2  318   1.832   2.942   0.654  2.1617  0.0992 -3.6041
  107SOL     OW  319   0.542   1.207   1.268 -0.3495 -0.1078  0.0628
  107SOL    HW1  320   0.445   1.214   1.241  2.2227 -0.0646  1.4971
  107SOL    HW2  321   0.600   1.156   1.203 -1.7863  0.8034  3.5027
  108SOL     OW  322   2.823   1.276   2.347 -0.0741 -0.3558 -0.2247
  108SOL    HW1  323   2.913   1.248   2.395  3.7402  0.5113  0.4631
  108SOL    HW2  324   2.832   1.322   2.259  0.6613 -2.5223  1.1067
  109SOL     OW  325   1.978   2.914   2.958 -0.4593  0.0925 -0.5745
  109SOL    HW1  326   2.008   2.999   2.909  2.7175  1.4329  0.1841
  109SOL    HW2  327   1.878   2.899   2.933  4.3247  2.3476 -1.3955
  110SOL     OW  328   0.146   1.961   3.037 -0.2370 -0.1506 -0.2117
  110SOL    HW1  329   0.080   1.990   2.965  0.4279  1.0423  1.3346
  110SOL    HW2  330   0.155   1.859   3.033  1.8322 -1.5832 -1.7699
  111SOL     OW  331   2.681   0.780   2.144  0.4549 -0.2934 -0.4241
  111SOL    HW1  332   2.775   0.756   2.181 -1.0694  0.4274  0.3203
  111SOL    HW2  333   2.607   0.778   2.216 -2.3504  0.8649 -0.7876
  112SOL     OW  334   2.061   2.546   1.381 -0.4941 -0.0760 -0.0553
  112SOL    HW1  335   2.011   2.612   1.440  1.4776  1.8898  0.4681
  112SOL    HW2  336   2.103   2.469   1.435  1.8226  0.2899 -1.0174
  113SOL     OW  337   1.988   2.288   2.639 -0.3126  0.2733 -0.2833
  113SOL    HW1  338   2.071   2.231   2.631  0.3517 -0.4702  1.5689
  113SOL    HW2  339   1.962   2.305   2.737 -0.0211  2.5354  0.2061
  114SOL     OW  340   0.443   0.291   0.563  0.3570  0.0487  0.1560
  114SOL    HW1  341   0.405   0.210   0.514  1.2029  1.3056 -0.9627
  114SOL    HW2  342   0.533   0.308   0.523  0.6842 -1.7713 -0.7717
  115SOL     OW  343   3.037   1.643   0.049  0.0316  0.0777  0.2101
  115SOL    HW1  344   3.032   1.541   0.043  0.1553 -0.2851 -0.7246
  115SOL    HW2  345   0.034   1.673   3.067 -0.9815 -2.0455 -0.2649
  116SOL     OW  346   3.002   1.065   1.621  0.0995 -0.1802 -0.1726
  116SOL    HW1  347   3.013   1.167   1.608 -1.0147  0.9187 -0.6442
  116SOL    HW2  348   2.924   1.032   1.565  0.3886  2.1261  0.9156
  117SOL     OW  349   2.170   0.215   1.254  0.1020  0.0259  0.0042
  117SOL    HW1  350   2.191   0.311   1.252  0.1579 -1.0421  0.3126
  117SOL    HW2  351   2.096   0.196   1.322 -1.6235  0.0463  0.9338
  118SOL     OW  352   2.734   2.587   2.053  0.4314  0.4134 -0.1486
  118SOL    HW1  353   2.719   2.622   1.963 -0.3445 -1.9787  2.3536
  118SOL    HW2  354   2.833   2.558   2.068  0.1080 -0.7235  0.3049
  119SOL     OW  355   0.433   1.773   1.410 -0.2463 -0.2569  0.2711
  119SOL    HW1  356   0.453   1.819   1.318 -1.5103 -0.4415  0.5288
  119SOL    HW2  357   0.483   1.825   1.483  2.5868 -1.1418 -0.9376
  120SOL     OW  358   0.497   1.460   1.639  0.4663 -0.4729  0.4494
  120SOL    HW1  359   0.538   1.498   1.554 -0.7054  0.8708 -0.9548
  120SOL    HW2  360   0.424   1.528   1.663 -3.6324  2.3579  0.7246
  121SOL     OW  361   1.571   0.892   0.672  0.1379  0.0219 -0.6480
  121SOL    HW1  362   1.579   0.942   0.759 -0.6213 -0.7999 -2.4881
  121SOL    HW2  363   1.556   0.965   0.601 -0.9518 -0.1955  3.1793
  122SOL     OW  364   2.358   2.463   2.630  0.2390 -0.2125 -0.6945
  122SOL    HW1  365   2.270   2.520   2.641 -1.8596  2.0542  2.6336
  122SOL    HW2  366   2.362   2.398   2.555 -0.4365 -1.6957 -0.9369
  123SOL     OW  367   2.895   0.017   0.311  0.0798  0.2885 -0.5879
  123SOL    HW1  368   2.826   3.043   0.258 -1.4742 -0.6077  0.6944
  123SOL    HW2  369   2.884   0.005   0.410 -0.0568  0.2185 -0.2933
  124SOL     OW  370   1.614   1.297   0.296 -0.6523  0.4871 -0.0100
  124SOL    HW1  371   1.537   1.370   0.283 -0.3106  2.3176 -0.0254
  124SOL    HW2  372   1.647   1.259   0.202  0.7291 -0.1228 -4.2714
  125SOL     OW  373   0.299   0.944   2.253  0.1538  0.1903 -0.4697
  125SOL    HW1  374   0.259   0.851   2.260  0.2422 -0.1734 -0.2575
  125SOL    HW2  375   0.380   0.940   2.189  3.0541 -2.6301 -1.6108
  126SOL     OW  376   0.027   2.685   0.049  0.0983  0.0031 -0.1554
  126SOL    HW1  377   0.043   2.638   0.140  0.7148  1.5796 -2.0603
  126SOL    HW2  378   0.044   2.786   0.052 -0.0590  0.4063  0.3496
  127SOL     OW  379   2.753   1.891   0.171  0.2900  0.2672 -0.0939
  127SOL    HW1  380   2.778   1.898   0.272  1.0088  1.0115  0.7153
  127SOL    HW2  381   2.780   1.972   0.118 -0.5571  0.7424  3.5748
  128SOL     OW  382   1.130   0.960   0.925  0.2346 -0.6531  0.2503
  128SOL    HW1  383   1.084   1.050   0.898  2.1437 -1.1302 -1.2409
  128SOL    HW2  384   1.228   0.970   0.953  1.5294 -2.6516 -2.0877
  129SOL     OW  385   2.583   1.988   1.087  0.8917 -1.1402 -0.1751
  129SOL    HW1  386   2.539   1.897   1.102  1.4832  0.3007 -2.1954
  129SOL    HW2  387   2.528   2.057   1.138  1.4038 -0.0422 -0.9545
  130SOL     OW  388   1.987   0.904   0.262 -0.2026  0.0826  0.1286
  130SOL    HW1  389   2.062   0.967   0.237 -1.4331 -1.4491 -1.2927
  130SOL    HW2  390   1.894   0.942   0.272  1.5949  0.9931  1.1481
  131SOL     OW  391   2.981   1.423   2.660  0.1164 -0.2470 -0.8565
  131SOL    HW1  392   2.978   1.522   2.633 -3.2589 -1.1972 -0.6477
  131SOL    HW2  393   3.059   1.405   2.731  1.7625  3.5712  0.3981
  132SOL     OW  394   1.140   1.293   2.161 -0.4850 -0.6116 -0.2363
  132SOL    HW1  395   1.147   1.381   2.112  0.7703  0.3665 -1.2182
  132SOL    HW2  396   1.096   1.219   2.101  1.3319 -3.3055  0.9715
  133SOL     OW  397   0.476   1.410   0.662 -0.4972 -0.6177 -0.0648
  133SOL    HW1  398   0.561   1.390   0.610  0.6455  0.2911  0.8874
  133SOL    HW2  399   0.473   1.367   0.751 -0.3779  0.0527  0.7020
  134SOL     OW  400   2.934   1.396   3.027  0.5962  0.1783 -0.0358
  134SOL    HW1  401   2.936   1.294   3.036 -0.2187 -1.5796  0.6900
  134SOL    HW2  402   2.841   1.427   3.019  3.1975 -0.1904 -0.9027
  135SOL     OW  403   1.651   0.677   0.075 -0.3010  0.3056 -0.1883
  135SOL    HW1  404   1.721   0.698   3.075  3.3704  1.0207  1.5971
  135SOL    HW2  405   1.685   0.612   0.139 -1.3803  0.3309 -1.6436
  136SOL     OW  406   2.005   1.698   1.387 -0.0810  0.1265  0.8244
  136SOL    HW1  407   2.047   1.608   1.363 -1.9776  2.4569 -1.1425
  136SOL    HW2  408   1.907   1.690   1.387 -1.1725 -2.3859  1.9173
  137SOL     OW  409   2.203   2.341   1.061 -0.3502 -0.6293  0.0922
  137SOL    HW1  410   2.216   2.433   1.110  0.3073  1.2709 -0.3674
  137SOL    HW2  411   2.158   2.360   0.972  1.8211 -0.1377  1.8811
  138SOL     OW  412   2.221   0.554   1.765 -0.0746 -0.0030 -0.3241
  138SOL    HW1  413   2.162   0.562   1.848 -0.7964  0.4108  0.2167
  138SOL    HW2  414   2.191   0.485   1.699 -0.2943  0.7376  1.4202
  139SOL     OW  415   2.632   2.738   2.939 -0.0372  0.1499 -0.7504
  139SOL    HW1  416   2.716   2.697   2.982  1.0527 -1.4710  0.0319
  139SOL    HW2  417   2.623   2.702   2.843  0.3075 -0.6067 -3.8345
  140SOL     OW  418   1.573   1.881   2.357 -0.0022  0.0897 -0.0418
  140SOL    HW1  419   1.642   1.919   2.295  1.1877  1.7073  2.3732
  140SOL    HW2  420   1.568   1.783   2.345 -1.9811  1.0843 -1.2293
  141SOL     OW  421   0.902   0.991   2.455 -0.2822 -0.6394  0.0384
  141SOL    HW1  422   0.866   1.084   2.459 -1.1918  0.1055  3.8912
  141SOL    HW2  423   0.962   0.981   2.541 -0.6507  0.7955  2.7942
  142SOL     OW  424   2.352   2.773   1.857  0.2161 -0.1872 -0.2332
  142SOL    HW1  425   2.410   2.829   1.922  1.8903 -1.7881 -0.5995
  142SOL    HW2  426   2.260   2.770   1.902  0.1405 -0.1062  1.5644
  143SOL     OW  427   1.174   2.364   0.380  0.0637 -0.3960  0.1912
  143SOL    HW1  428   1.158   2.436   0.310 -3.0056  0.4599 -0.0496
  143SOL    HW2  429   1.094   2.358   0.447 -4.0423  0.1473  0.3330
  144SOL     OW  430   1.157   2.617   0.622 -0.1425  0.7207 -0.3533
  144SOL    HW1  431   1.216   2.676   0.683  0.6102 -1.7562  0.8803
  144SOL    HW2  432   1.093   2.682   0.571  0.2753  3.2304  1.8631
  145SOL     OW  433   1.705   2.602   2.389  0.0719  0.2951 -0.1093
  145SOL    HW1  434   1.628   2.580   2.447  4.7042  1.0903 -2.1859
  145SOL    HW2  435   1.710   2.701   2.371  0.6340 -0.5602 -0.7490
  146SOL     OW  436   2.044   2.831   0.127  0.7558  0.1240 -0.1920
  146SOL    HW1  437   1.967   2.790   0.177  2.6183  4.0812 -1.9554
  146SOL    HW2  438   2.017   2.880   0.041  0.4397 -0.3403  0.3509
  147SOL     OW  439   0.211   1.636   1.491  0.3725 -0.2884  0.1299
  147SOL    HW1  440   0.300   1.673   1.478 -1.4346 -1.6190  0.6168
  147SOL    HW2  441   0.190   1.568   1.421  0.3309  3.7981 -0.6053
  148SOL     OW  442   1.764   2.868   0.299 -0.2877  0.3222  0.3836
  148SOL    HW1  443   1.784   2.902   0.394  0.1459 -0.7943  0.2285
  148SOL    HW2  444   1.809   2.776   0.291  0.5259 -2.3151 -1.2604
  149SOL     OW  445   0.523   1.957   3.038  0.4022  0.3414  0.5032
  149SOL    HW1  446   0.621   1.965   3.064  0.7422 -0.4771  1.9427
  149SOL    HW2  447   0.467   2.037   3.074 -3.5516 -0.9308  2.6624
  150SOL     OW  448   0.314   2.556   1.069  0.0704  0.0504  0.5925
  150SOL    HW1  449   0.281   2.599   1.159 -0.8458 -0.5087  1.5343
  150SOL    HW2  450   0.278   2.598   0.984 -0.0062 -1.8906  2.9052
  151SOL     OW  451   0.439   1.097   3.044  0.4800  0.6438  0.4423
  151SOL    HW1  452   0.465   1.164   2.975 -1.7923 -0.8141 -1.1252
  151SOL    HW2  453   0.380   1.147   0.028  1.5654 -1.0269 -3.5065
  152SOL     OW  454   3.033   2.193   0.777 -0.5391  0.5387 -1.1726
  152SOL    HW1  455   2.939   2.155   0.776  0.9747 -0.2949 -1.3231
  152SOL    HW2  456   3.032   2.290   0.805 -1.5514  2.3179  0.9683
  153SOL     OW  457   1.660   2.233   0.603  0.9518  0.2573  0.1990
  153SOL    HW1  458   1.715   2.208   0.522  1.5428  1.9558  1.4589
  153SOL    HW2  459   1.618   2.151   0.645  0.2435  0.0074  1.1108
  154SOL     OW  460   0.577   2.943   1.534 -0.0802 -0.3500  0.0659
  154SOL    HW1  461   0.510   3.017   1.514 -0.5901  2.5730 -1.0394
  154SOL    HW2  462   0.672   2.978   1.528 -1.0473 -2.8883  2.1614
  155SOL     OW  463   2.762   2.186   0.456  0.2395 -0.1129 -0.7826
  155SOL    HW1  464   2.776   2.263   0.520  2.3415 -2.3901 -0.8248
  155SOL    HW2  465   2.765   2.221   0.362  3.0474 -3.1446 -0.0353
  156SOL     OW  466   2.371   1.963   0.148 -0.4813 -0.4841 -0.3325
  156SOL    HW1  467   2.445   2.004   0.091  2.7824  0.4988 -0.5583
  156SOL    HW2  468   2.407   1.897   0.217 -1.1420  0.5278  0.4931
  157SOL     OW  469   0.411   2.770   1.911 -0.2964  0.1965  0.2949
  157SOL    HW1  470   0.370   2.856   1.884 -0.9962 -0.8410 -2.2566
  157SOL    HW2  471   0.415   2.757   2.013 -4.5355 -1.5379 -1.2595
  158SOL     OW  472   1.364   0.772   1.099 -0.3917 -0.9674  0.4120
  158SOL    HW1  473   1.405   0.850   1.048 -0.4260 -0.1222  0.8643
  158SOL    HW2  474   1.323   0.811   1.181  3.0449 -0.7505  1.4567
  159SOL     OW  475   1.796   1.071   0.017 -0.1332  0.0544 -0.1195
  159SOL    HW1  476   1.795   0.986   3.040  1.5004 -0.3812  2.2020
  159SOL    HW2  477   1.773   1.047   0.110  0.1494  0.2543  2.5466
  160SOL     OW  478   1.202   1.852   0.436  0.0343  0.1980  0.3204
  160SOL    HW1  479   1.247   1.945   0.430  1.8815 -1.0744  3.3697
  160SOL    HW2  480   1.189   1.821   0.533 -1.8435  0.0781 -0.0639
  161SOL     OW  481   2.213   2.133   2.683 -0.4608 -0.0247 -0.1339
  161SOL    HW1  482   2.296   2.182   2.722  1.5434  2.3623 -1.9808
  161SOL    HW2  483   2.213   2.035   2.704  1.0232  0.0258  2.3746
  162SOL     OW  484   0.213   2.387   1.674  0.4070  0.2487  0.4961
  162SOL    HW1  485   0.226   2.315   1.602  0.0851  1.8853  5.2738
  162SOL    HW2  486   0.288   2.453   1.668 -1.5217 -1.1426 -0.4392
  163SOL     OW  487   0.263   0.539   2.546 -0.0409  0.3969  0.2640
  163SOL    HW1  488   0.277   0.553   2.644 -0.3730 -0.0595  2.8576
  163SOL    HW2  489   0.178   0.589   2.515 -0.3151 -0.4799 -0.7428
  164SOL     OW  490   0.088   2.798   2.801 -0.2946 -0.3778  0.0757
  164SOL    HW1  491   0.138   2.848   2.729 -0.6072 -1.3339 -1.2590
  164SOL    HW2  492   0.076   2.855   2.880 -0.3052 -1.7265 -0.8339
  165SOL     OW  493   2.688   0.693   1.553 -0.0438  0.4833  0.4947
  165SOL    HW1  494   2.616   0.711   1.482  0.5036  0.3894 -0.1007
  165SOL    HW2  495   2.783   0.721   1.529 -2.4956 -0.8776 -0.9269
  166SOL     OW  496   2.096   1.477   1.252 -0.7564 -0.3498 -0.2855
  166SOL    HW1  497   2.073   1.383   1.219  1.0061 -0.3762 -5.1891
  166SOL    HW2  498   2.128   1.529   1.170 -1.4410  3.5717  0.1437
  167SOL     OW  499   0.045   0.673   2.467  0.1436 -0.9089  0.5349
  167SOL    HW1  500   0.064   0.693   2.371 -0.7418 -0.9951 -2.4798
  167SOL    HW2  501   0.045   0.761   2.515  0.5784 -1.0604 -1.6634
  168SOL     OW  502   2.251   0.268   2.355 -0.0028  0.3779 -0.0376
  168SOL    HW1  503   2.156   0.243   2.376 -2.5096  0.6536 -2.7414
  168SOL    HW2  504   2.263   0.365   2.336  1.5665 -4.0616  4.7008
  169SOL     OW  505   0.630   0.839   3.068 -0.1533 -0.3800  0.0628
  169SOL    HW1  506   0.568   0.796   0.064 -4.1114 -0.4745  2.4601
  169SOL    HW2  507   0.577   0.910   3.023  1.5863 -1.1715 -1.2183
  170SOL     OW  508   1.093   1.352   1.643  0.3848  0.2109 -0.3920
  170SOL    HW1  509   0.994   1.367   1.679 -1.8294 -2.3891  2.3959
  170SOL    HW2  510   1.130   1.264   1.682  1.1875 -0.7840  0.2382
  171SOL     OW  511   1.221   2.616   1.455 -0.1798  0.0712 -0.1534
  171SOL    HW1  512   1.137   2.661   1.424  1.0787  1.5433  1.3721
  171SOL    HW2  513   1.299   2.671   1.430  1.9192 -2.6630  0.4473
  172SOL     OW  514   0.987   0.061   1.970  0.2668  0.3977 -0.2048
  172SOL    HW1  515   1.008   0.034   2.067 -0.5203 -1.3195  1.4080
  172SOL    HW2  516   1.051   0.017   1.901  1.0463  0.6189 -0.6503
  173SOL     OW  517   1.036   2.530   0.935 -0.2738  0.0206 -0.3553
  173SOL    HW1  518   1.048   2.542   0.837  0.0010  1.2235  2.0801
  173SOL    HW2  519   1.005   2.435   0.954  4.6479  0.7782  2.3773
  174SOL     OW  520   2.003   0.219   0.422  0.2952  0.0338  0.0217
  174SOL    HW1  521   1.996   0.197   0.521  0.6507 -0.9478 -1.4989
  174SOL    HW2  522   2.048   0.144   0.371  1.7590 -1.2604  0.6574
  175SOL     OW  523   1.535   1.090   0.493  0.0571 -0.4092 -0.1694
  175SOL    HW1  524   1.615   1.155   0.486  2.1799 -1.0646  0.4563
  175SOL    HW2  525   1.444   1.130   0.475 -1.5362  0.1861 -0.9471
  176SOL     OW  526   1.103   1.784   0.704 -0.0556 -0.4848  0.1020
  176SOL    HW1  527   1.028   1.838   0.747 -0.3885 -2.0057 -0.8358
  176SOL    HW2  528   1.182   1.770   0.767  1.6699 -2.3800 -0.6889
  177SOL     OW  529   1.807   1.207   0.974 -0.4558 -1.0324 -0.6675
  177SOL    HW1  530   1.754   1.246   0.898 -0.4254 -0.5888 -0.8967
  177SOL    HW2  531   1.858   1.125   0.949 -2.9780  3.9152  0.7120
  178SOL     OW  532   2.169   1.595   0.214  0.2344  0.0041  0.0533
  178SOL    HW1  533   2.178   1.649   0.297 -0.4968  0.8521 -2.8261
  178SOL    HW2  534   2.250   1.614   0.150  1.1715  0.7095 -0.9764
  179SOL     OW  535   1.245   2.863   0.034  0.0647  0.0597  0.0429
  179SOL    HW1  536   1.298   2.817   0.105  1.0183  0.4692  0.9583
  179SOL    HW2  537   1.179   2.803   3.057 -1.0969 -0.6781 -1.6927
  180SOL     OW  538   1.943   1.220   1.463  0.5377 -0.1026 -0.1505
  180SOL    HW1  539   1.907   1.302   1.506  0.1695  2.0649  0.3873
  180SOL    HW2  540   1.957   1.246   1.369  0.6656 -0.4999  2.8380
  181SOL     OW  541   0.922   0.733   1.863 -0.2432 -0.5466 -0.0030
  181SOL    HW1  542   1.022   0.753   1.890  2.4539 -2.7643  0.5495
  181SOL    HW2  543   0.910   0.633   1.846  1.0465  1.3096  0.3493
  182SOL     OW  544   3.025   0.923   2.547  0.1469 -0.8169  0.6041
  182SOL    HW1  545   2.937   0.878   2.527  2.5377  2.5532 -2.0506
  182SOL    HW2  546   3.024   1.010   2.495 -1.8683 -1.4980  0.2559
  183SOL     OW  547   1.441   0.675   2.382  0.3906  0.2197  0.3145
  183SOL    HW1  548   1.522   0.660   2.442 -1.0318  0.9181  0.6259
  183SOL    HW2  549   1.364   0.608   2.400 -0.0756 -1.8342  1.3716
  184SOL     OW  550   0.761   0.494   1.157  0.4717  1.2781 -0.4800
  184SOL    HW1  551   0.794   0.556   1.084 -0.6248 -1.3547  1.2560
  184SOL    HW2  552   0.834   0.445   1.213 -0.8649  1.3298 -0.3746
  185SOL     OW  553   2.390   1.228   0.413  0.4221  0.2229 -0.6397
  185SOL    HW1  554   2.476   1.243   0.363 -4.5524 -0.9577 -0.0037
  185SOL    HW2  555   2.360   1.319   0.453  1.1886 -2.9576 -2.0130
  186SOL     OW  556   0.175   1.971   0.235  0.3540 -0.0793 -0.3681
  186SOL    HW1  557   0.163   1.883   0.285  0.6904  3.3570 -0.7382
  186SOL    HW2  558   0.157   1.959   0.137 -0.0978  1.8676 -0.1031
  187SOL     OW  559   1.831   2.155   3.022 -0.3820  0.4023 -0.0885
  187SOL    HW1  560   1.889   2.082   3.059 -0.0071 -1.7873  0.9284
  187SOL    HW2  561   1.892   2.225   2.979  0.0751 -2.3763  0.3250
  188SOL     OW  562   1.495   2.323   1.512  0.6498  0.1231  0.2791
  188SOL    HW1  563   1.500   2.223   1.515  1.3038 -2.3681  0.3581
  188SOL    HW2  564   1.414   2.355   1.565 -1.8151  1.2690 -1.3961
  189SOL     OW  565   2.425   1.293   2.567  0.3265  0.3387 -0.5819
  189SOL    HW1  566   2.350   1.289   2.635  1.9875  0.1393  0.7085
  189SOL    HW2  567   2.393   1.351   2.491  1.7901  0.4200  0.3667
  190SOL     OW  568   0.670   2.603   2.101 -0.3748  0.2268 -0.4485
  190SOL    HW1  569   0.665   2.514   2.051  1.3179  0.7518 -0.3478
  190SOL    HW2  570   0.575   2.622   2.135 -4.7844 -0.2634  1.0343
  191SOL     OW  571   2.656   1.010   1.192  0.0038  0.5634 -0.3083
  191SOL    HW1  572   2.598   1.021   1.276 -1.2825  2.0517  2.1984
  191SOL    HW2  573   2.626   1.072   1.116  3.8291  1.0537  1.7567
  192SOL     OW  574   2.233   0.504   1.042 -0.0973 -0.4571  0.0443
  192SOL    HW1  575   2.213   0.508   1.139  0.1579 -3.1188 -1.7854
  192SOL    HW2  576   2.146   0.504   0.994  1.5076  1.4642  0.4971
  193SOL     OW  577   0.814   0.318   0.098 -0.2361  0.1633  0.4770
  193SOL    HW1  578   0.750   0.325   0.019  0.5470 -0.0993  1.4079
  193SOL    HW2  579   0.778   0.252   0.169  1.2012  1.8409 -0.4599
  194SOL     OW  580   1.252   2.396   1.256  0.3473  0.4482 -0.3210
  194SOL    HW1  581   1.281   2.456   1.333  0.3284  0.8971  2.7083
  194SOL    HW2  582   1.322   2.389   1.177 -0.1927  0.2453 -0.4509
  195SOL     OW  583   2.869   1.076   0.516  0.0884  0.3816  0.1067
  195SOL    HW1  584   2.878   0.994   0.573  0.0491  1.7153  1.0935
  195SOL    HW2  585   2.778   1.079   0.478 -0.0823  0.1008 -0.2880
  196SOL     OW  586   0.487   2.281   1.667 -0.3815  0.3433 -0.0075
  196SOL    HW1  587   0.414   2.215   1.649  0.1010  1.2776 -0.2127
  196SOL    HW2  588   0.511   2.339   1.592 -1.1987  0.8195  4.2274
  197SOL     OW  589   0.053   0.499   2.073 -0.3980  0.7873  0.3755
  197SOL    HW1  590   0.109   0.416   2.065  0.7483  0.8933  3.1598
  197SOL    HW2  591   3.066   0.509   1.993 -1.5753 -1.8450 -1.8130
  198SOL     OW  592   2.073   1.327   0.177  0.4062 -0.6173 -0.1669
  198SOL    HW1  593   2.003   1.332   0.103  2.4665  0.9935  1.8636
  198SOL    HW2  594   2.110   1.420   0.205 -0.7649  0.7858  0.5007
  199SOL     OW  595   2.460   0.468   1.880  0.1658  0.0400 -0.1402
  199SOL    HW1  596   2.375   0.505   1.834 -0.8833 -1.0522 -1.0394
  199SOL    HW2  597   2.544   0.483   1.828 -0.5547 -0.7398  1.3142
  200SOL     OW  598   2.045   0.080   2.850 -0.2243 -0.5270 -0.2020
  200SOL    HW1  599   2.097   0.137   2.918 -0.2280 -0.7909  2.5044
  200SOL    HW2  600   1.961   0.126   2.828 -0.1868  0.0008 -0.0326
  201SOL     OW  601   2.560   0.121   0.829 -0.2531 -0.1960 -0.3930
  201SOL    HW1  602   2.641   0.124   0.895  4.0458 -1.3934  4.8050
  201SOL    HW2  603   2.486   0.189   0.854  0.5751  0.9626  0.8041
  202SOL     OW  604   2.755   2.627   0.303  0.6805 -0.1599 -0.0483
  202SOL    HW1  605   2.853   2.631   0.327  3.6069 -1.8738  1.4825
  202SOL    HW2  606   2.709   2.722   0.317 -1.3874  1.7010 -2.8597
  203SOL     OW  607   1.651   1.848   0.572  0.2131 -0.2467  0.1076
  203SOL    HW1  608   1.566   1.863   0.627 -0.3328  1.7250 -1.3425
  203SOL    HW2  609   1.727   1.915   0.599  1.2545  0.4485  2.1781
  204SOL     OW  610   0.233   1.636   2.118 -0.0752 -0.6781  0.0988
  204SOL    HW1  611   0.335   1.620   2.118  0.8170 -1.7132 -1.9507
  204SOL    HW2  612   0.182   1.563   2.165  1.9098  0.2125  0.0568
  205SOL     OW  613   0.675   0.629   0.727  0.0521 -0.0636 -0.8701
  205SOL    HW1  614   0.755   0.626   0.666 -0.1039  1.4453  0.5871
  205SOL    HW2  615   0.707   0.655   0.823 -0.0501  3.2857  0.5573
  206SOL     OW  616   0.302   0.619   2.827  0.2710  0.1240  0.4569
  206SOL    HW1  617   0.271   0.566   2.904  0.7095  1.6488 -4.0501
  206SOL    HW2  618   0.303   0.718   2.846  2.0775 -3.8908  0.6985
  207SOL     OW  619   1.031   2.560   1.914 -0.2019 -0.3491 -0.3665
  207SOL    HW1  620   1.005   2.535   2.011  2.3239 -0.0249  0.1570
  207SOL    HW2  621   0.964   2.516   1.845  0.0999  1.5375  2.1596
  208SOL     OW  622   2.566   0.315   1.567  0.0019  0.3723 -0.8075
  208SOL    HW1  623   2.642   0.367   1.612 -1.5030  0.9983 -0.6386
  208SOL    HW2  624   2.528   0.255   1.636  1.2987 -0.0665  0.1950
  209SOL     OW  625   1.852   0.809   0.664  0.3943  0.2421  0.6162
  209SOL    HW1  626   1.855   0.745   0.742  1.9856  0.8251 -0.5528
  209SOL    HW2  627   1.757   0.844   0.650 -0.4764  0.7996  0.3431
  210SOL     OW  628   2.601   1.011   0.387  0.6819 -0.1795 -0.2184
  210SOL    HW1  629   2.505   1.000   0.415  3.3384  0.0963 -4.2693
  210SOL    HW2  630   2.616   1.099   0.340  0.3596  1.6533  1.0601
  211SOL     OW  631   1.192   0.026   0.187  0.5069  0.3116 -0.3061
  211SOL    HW1  632   1.269   0.093   0.204  1.3131 -1.6574 -0.3329
  211SOL    HW2  633   1.219   3.013   0.148 -0.9650 -0.9746  1.5077
  212SOL     OW  634   1.857   1.996   0.655  0.3020 -0.5252  0.3706
  212SOL    HW1  635   1.885   2.064   0.725  1.8932  0.8554  1.8926
  212SOL    HW2  636   1.924   1.990   0.581 -0.8730  1.8299  2.0840
  213SOL     OW  637   2.542   0.111   0.020  0.1419  0.3222  0.5809
  213SOL    HW1  638   2.525   0.061   3.009  1.2387  0.2862 -1.5939
  213SOL    HW2  639   2.596   0.198   0.009  1.5628  0.2272  0.7530
  214SOL     OW  640   0.918   2.440   2.138  0.0589  0.3020 -0.8667
  214SOL    HW1  641   0.900   2.338   2.145  0.3681 -1.2347 -0.8476
  214SOL    HW2  642   0.904   2.487   2.226 -1.4840 -0.0274 -2.9389
  215SOL     OW  643   0.309   1.146   0.805 -0.8836  0.0481 -0.3280
  215SOL    HW1  644   0.229   1.196   0.842 -3.3982  0.5711  1.4974
  215SOL    HW2  645   0.388   1.195   0.851  3.1139  3.4758 -0.2394
  216SOL     OW  646   0.228   2.561   2.749  0.0047  0.1521 -0.2060
  216SOL    HW1  647   0.325   2.598   2.743 -0.6674  0.0970 -0.1523
  216SOL    HW2  648   0.166   2.638   2.777  2.1654 -0.7323 -0.4812
  217SOL     OW  649   2.833   1.302   1.368  0.0772 -0.1064  0.4176
  217SOL    HW1  650   2.924   1.306   1.335 -2.1157  0.7997 -1.6989
  217SOL    HW2  651   2.816   1.212   1.404  1.6921  2.0465  0.9322
  218SOL     OW  652   0.904   2.191   1.822  0.3008  0.2917  0.4329
  218SOL    HW1  653   0.828   2.256   1.848 -1.2461  2.0537  0.1634
  218SOL    HW2  654   0.941   2.134   1.901 -1.8225 -1.3343  0.5513
  219SOL     OW  655   1.969   1.517   0.422 -0.2283 -0.0100  0.0653
  219SOL    HW1  656   1.876   1.548   0.390 -2.1141  0.4330  4.0489
  219SOL    HW2  657   2.041   1.529   0.346  0.6866 -1.1782 -4.5000
  220SOL     OW  658   2.171   0.439   0.068 -0.5150 -0.1251 -0.2791
  220SOL    HW1  659   2.216   0.520   0.022  1.9476  0.6841 -2.6143
  220SOL    HW2  660   2.141   0.464   0.165  2.3190  4.3296  0.7260
  221SOL     OW  661   3.002   0.741   0.198  0.1866  0.5349 -0.2050
  221SOL    HW1  662   3.041   0.779   0.285 -0.6852  1.7208  0.4102
  221SOL    HW2  663   3.075   0.685   0.151 -3.2794  0.6311  0.2614
  222SOL     OW  664   1.668   1.331   0.770 -0.4220  0.3140  0.2589
  222SOL    HW1  665   1.693   1.278   0.685 -1.7881 -0.6775 -0.4707
  222SOL    HW2  666   1.666   1.432   0.746  0.2687  0.7337 -3.4350
  223SOL     OW  667   1.257   0.238   2.914  0.0705  0.0110  0.1404
  223SOL    HW1  668   1.246   0.136   2.897 -1.6133 -1.2976  0.9686
  223SOL    HW2  669   1.194   0.264   2.992  2.4652 -0.5454  3.5385
  224SOL     OW  670   0.667   2.880   1.081 -0.2670 -0.7043 -0.2516
  224SOL    HW1  671   0.688   2.981   1.082 -1.9424  0.8115 -0.4983
  224SOL    HW2  672   0.751   2.815   1.077 -1.0255 -0.3248  0.0828
  225SOL     OW  673   0.742   2.890   2.169 -0.3328 -0.3332  1.0080
  225SOL    HW1  674   0.801   2.835   2.229 -0.6649  1.3910 -3.0747
  225SOL    HW2  675   0.737   2.855   2.071  0.0635 -3.0475 -0.8142
  226SOL     OW  676   1.519   1.548   0.440  0.0616  0.0628 -0.1295
  226SOL    HW1  677   1.494   1.595   0.525  3.8639 -1.8098  1.5171
  226SOL    HW2  678   1.622   1.548   0.426 -1.5229 -1.8940  0.8840
  227SOL     OW  679   0.459   1.837   1.156  0.8680 -0.1805  0.3051
  227SOL    HW1  680   0.498   1.897   1.082 -0.9738  3.3670 -0.6405
  227SOL    HW2  681   0.500   1.744   1.155  0.8041 -0.5500  0.2869
  228SOL     OW  682   0.022   1.899   0.528  0.6479 -0.1922  0.5599
  228SOL    HW1  683   0.092   1.837   0.482 -1.7683 -1.4268 -0.3597
  228SOL    HW2  684   0.052   1.998   0.529  1.3869 -2.1535  1.0680
  229SOL     OW  685   2.806   0.298   2.882 -0.7780  0.2975 -0.2491
  229SOL    HW1  686   2.731   0.233   2.852 -1.1621  1.4901  1.1966
  229SOL    HW2  687   2.893   0.246   2.869  1.6426 -0.4638  0.0069
  230SOL     OW  688   2.412   0.739   0.334 -0.3555  0.5200  0.2225
  230SOL    HW1  689   2.399   0.643   0.364  0.8200  0.2875 -4.1211
  230SOL    HW2  690   2.392   0.810   0.407  0.1550 -0.6472 -0.7590
  231SOL     OW  691   1.715   1.528   3.061 -0.0914 -0.5005 -0.0574
  231SOL    HW1  692   1.632   1.565   0.022  0.9180 -1.1195 -1.3640
  231SOL    HW2  693   1.766   1.606   3.020 -0.9629  2.8038  3.1262
  232SOL     OW  694   2.426   1.770   1.126 -0.1893 -0.2810 -0.3421
  232SOL    HW1  695   2.466   1.692   1.171 -1.6886 -3.7904 -0.2892
  232SOL    HW2  696   2.336   1.796   1.170 -1.9428  0.7013 -0.0027
  233SOL     OW  697   0.179   2.704   1.569 -0.7088 -0.6454 -0.5069
  233SOL    HW1  698   0.271   2.664   1.608  2.3963 -2.6214  0.9442
  233SOL    HW2  699   0.099   2.656   1.620 -2.3173  0.9727  2.2427
  234SOL     OW  700   0.732   0.095   2.501  0.5217 -0.4345  0.3086
  234SOL    HW1  701   0.786   0.041   2.566  0.3842 -0.0670 -1.1487
  234SOL    HW2  702   0.710   0.186   2.545 -0.1444  1.4969  0.4602
  235SOL     OW  703   2.752   1.062   2.073  0.1369  0.4832  0.4060
  235SOL    HW1  704   2.815   1.081   1.995  0.3702  0.4626 -0.4038
  235SOL    HW2  705   2.794   0.992   2.137 -0.9109  0.7664  1.3553
  236SOL     OW  706   1.129   2.923   1.796  0.1034 -0.1712  0.2537
  236SOL    HW1  707   1.029   2.898   1.816 -1.7642  0.5287 -1.1642
  236SOL    HW2  708   1.195   2.848   1.826  0.5622  1.2693 -0.9173
  237SOL     OW  709   0.528   1.521   2.707 -0.1479 -0.1225  0.3690
  237SOL    HW1  710   0.562   1.556   2.619 -0.0271 -1.8970  1.4199
  237SOL    HW2  711   0.585   1.567   2.779 -0.8763  0.3172 -1.0664
  238SOL     OW  712   1.031   0.622   2.380  0.0412  0.2983  0.1570
  238SOL    HW1  713   1.061   0.699   2.321 -1.1632 -0.6507 -2.5041
  238SOL    HW2  714   0.951   0.652   2.440  2.6274  1.5088 -2.4789
  239SOL     OW  715   0.496   2.054   2.138  0.2035  0.2621  0.4934
  239SOL    HW1  716   0.538   1.967   2.123  0.1125 -2.3885  0.9622
  239SOL    HW2  717   0.554   2.134   2.121 -1.2052 -0.0673  2.2710
  240SOL     OW  718   2.413   3.036   0.445 -0.2903 -0.2181  0.1044
  240SOL    HW1  719   2.314   3.020   0.451  3.4829  2.1506  3.7442
  240SOL    HW2  720   2.427   0.017   0.363  0.3153 -0.4350  0.9090
  241SOL     OW  721   0.218   0.967   0.101 -0.1088 -0.8916 -0.1010
  241SOL    HW1  722   0.215   1.006   0.192  1.2824  1.7103 -2.6959
  241SOL    HW2  723   0.188   1.043   0.039 -1.2457  0.5345  1.0891
  242SOL     OW  724   1.411   2.503   1.823  0.0300  0.1508  0.1829
  242SOL    HW1  725   1.479   2.565   1.773  0.0025 -0.2670 -0.8135
  242SOL    HW2  726   1.348   2.469   1.752  2.2679 -0.6945 -1.1057
  243SOL     OW  727   0.653   2.370   1.882 -0.2413  0.5542  0.0177
  243SOL    HW1  728   0.707   2.439   1.831 -0.9446 -2.8057 -1.9033
  243SOL    HW2  729   0.571   2.337   1.824  0.5431 -1.9233 -0.2601
  244SOL     OW  730   2.425   0.625   2.540  0.2373 -0.3842 -0.4533
  244SOL    HW1  731   2.378   0.652   2.625  2.7623 -0.5469 -3.0532
  244SOL    HW2  732   2.518   0.587   2.564 -0.6772  1.5021  1.2317
  245SOL     OW  733   1.416   2.764   1.320 -0.1422 -0.0256 -0.1193
  245SOL    HW1  734   1.445   2.819   1.401  1.0218  1.7722 -0.4717
  245SOL    HW2  735   1.419   2.815   1.230 -0.3301  2.1600 -2.1175
  246SOL     OW  736   1.439   0.039   0.398 -0.1604  0.6422  0.1183
  246SOL    HW1  737   1.404   0.068   0.492  1.4880  0.0475  2.3969
  246SOL    HW2  738   1.419   0.111   0.331 -1.3630 -1.8261 -1.0539
  247SOL     OW  739   1.803   0.478   1.964 -0.0843  0.1378  0.1008
  247SOL    HW1  740   1.735   0.406   1.955 -1.4909 -0.9858 -0.1734
  247SOL    HW2  741   1.867   0.477   1.886 -1.2579  2.6538  2.8884
  248SOL     OW  742   3.070   2.054   1.829 -0.1361  0.1051 -0.4695
  248SOL    HW1  743   0.091   2.035   1.798  0.2096  0.0924 -1.7708
  248SOL    HW2  744   3.018   1.966   1.815  0.3951 -0.0610  2.7196
  249SOL     OW  745   0.031   0.199   0.424  0.1211 -0.0857  0.0916
  249SOL    HW1  746   3.020   0.162   0.383  1.3547  0.3243  2.5899
  249SOL    HW2  747   0.002   0.244   0.514 -1.4294 -0.1795  1.7519
  250SOL     OW  748   2.643   0.015   2.321  0.3020  0.2206 -0.1704
  250SOL    HW1  749   2.613   3.010   2.368 -0.4003  1.4713 -1.8500
  250SOL    HW2  750   2.591   0.028   2.238  0.8077  0.9606  4.9666
  251SOL     OW  751   1.399   0.557   0.019  0.5499 -0.3180 -0.4576
  251SOL    HW1  752   1.420   0.460   0.019 -0.7669  3.4177  0.9393
  251SOL    HW2  753   1.471   0.614   0.064  0.2497 -1.3449  1.4544
  252SOL     OW  754   0.756   2.671   2.344 -1.1700  0.2491  0.0814
  252SOL    HW1  755   0.679   2.699   2.403 -0.2615 -0.3641  2.1711
  252SOL    HW2  756   0.728   2.660   2.248  1.4328  2.9941 -2.4703
  253SOL     OW  757   2.486   2.591   0.872 -0.4829  0.0346 -0.4828
  253SOL    HW1  758   2.421   2.667   0.877  2.2184 -0.8649 -0.5176
  253SOL    HW2  759   2.540   2.590   0.786 -0.2953 -0.2613  2.4146
  254SOL     OW  760   2.274   1.203   1.062  0.3402 -0.0435  0.3233
  254SOL    HW1  761   2.310   1.264   1.133 -0.0418 -2.3289 -2.3467
  254SOL    HW2  762   2.314   1.220   0.971  0.0724 -0.7257 -0.1298
  255SOL     OW  763   0.653   2.594   1.252  0.0634 -0.0988  0.3380
  255SOL    HW1  764   0.602   2.683   1.275 -2.6068  1.4316  0.2274
  255SOL    HW2  765   0.627   2.568   1.160 -0.4395  1.6170  0.2825
  256SOL     OW  766   2.070   1.863   1.659  0.0565  0.0443  0.2892
  256SOL    HW1  767   2.031   1.826   1.574 -0.9392  0.4515  0.2830
  256SOL    HW2  768   2.164   1.833   1.659 -2.5389  3.1424  0.3122
  257SOL     OW  769   0.156   2.315   2.678 -0.1601 -0.1540 -0.2501
  257SOL    HW1  770   0.230   2.244   2.677  0.3169 -1.8952 -0.2378
  257SOL    HW2  771   0.190   2.411   2.695  0.2735  0.5649  0.8472
  258SOL     OW  772   0.550   2.795   0.868 -0.0666  0.0975 -0.5646
  258SOL    HW1  773   0.591   2.841   0.950 -0.7646  1.4513  1.1432
  258SOL    HW2  774   0.558   2.693   0.885 -1.7354  1.2993  0.8114
  259SOL     OW  775   1.494   0.574   2.732 -0.0037  0.2101  0.4738
  259SOL    HW1  776   1.516   0.599   2.827 -0.6726  0.6223  1.5388
  259SOL    HW2  777   1.401   0.535   2.725  2.1169  2.9623 -0.1723
  260SOL     OW  778   0.279   0.362   1.173  0.6196  0.0786 -0.3791
  260SOL    HW1  779   0.192   0.329   1.131  0.3195  0.1695 -0.6784
  260SOL    HW2  780   0.354   0.374   1.111 -1.2281  1.4772  4.1379
  261SOL     OW  781   0.543   2.991   2.385 -0.3335 -0.5296  0.1943
  261SOL    HW1  782   0.575   2.963   2.292 -1.0585 -0.4738  0.8409
  261SOL    HW2  783   0.614   3.040   2.446 -1.0692 -0.5540  2.3683
  262SOL     OW  784   0.893   2.822   1.850 -0.6218  0.1912  0.1129
  262SOL    HW1  785   0.792   2.809   1.823  0.8088  3.7937  0.4288
  262SOL    HW2  786   0.930   2.732   1.880 -3.1486  0.4398 -1.3798
  263SOL     OW  787   0.701   2.187   0.109 -0.2540 -0.0567 -0.1103
  263SOL    HW1  788   0.746   2.132   0.037  1.9815 -2.1453 -0.2705
  263SOL    HW2  789   0.751   2.181   0.195  0.0848  1.2933  1.6496
  264SOL     OW  790   1.766   1.470   1.108 -0.4901  0.1290  0.0226
  264SOL    HW1  791   1.832   1.540   1.065  1.4620  2.3581 -2.3768
  264SOL    HW2  792   1.775   1.375   1.061 -2.7996 -2.3875 -2.7929
  265SOL     OW  793   0.874   2.428   0.458 -0.2657 -0.1297  0.7327
  265SOL    HW1  794   0.800   2.501   0.456 -1.1149  4.0772  1.1038
  265SOL    HW2  795   0.958   2.479   0.493 -0.0970  0.6425  2.0186
  266SOL     OW  796   2.898   0.917   0.744 -0.2750 -0.3262 -0.2422
  266SOL    HW1  797   2.806   0.870   0.752  0.4436  1.2804 -2.3774
  266SOL    HW2  798   2.980   0.861   0.765 -0.2202  0.9198  1.0331
  267SOL     OW  799   0.283   1.428   0.001 -0.5451  0.1431  0.4169
  267SOL    HW1  800   0.271   1.390   0.096 -1.1039 -1.3379  1.6977
  267SOL    HW2  801   0.305   1.531   0.001  1.0328  1.5821  1.4568
  268SOL     OW  802   1.628   0.442   0.451 -0.0638  0.0991  0.5765
  268SOL    HW1  803   1.636   0.339   0.448 -2.4470  2.1995 -0.4637
  268SOL    HW2  804   1.613   0.470   0.547  1.7725 -0.5158 -0.7430
  269SOL     OW  805   2.952   0.713   2.189 -0.2320 -0.0099 -0.0081
  269SOL    HW1  806   2.994   0.791   2.141  0.1748 -1.6755  1.3994
  269SOL    HW2  807   2.981   0.627   2.143  4.0296  0.7248  1.7330
  270SOL     OW  808   2.990   1.151   0.272  0.2386 -0.1623  0.3651
  270SOL    HW1  809   2.956   1.095   0.348  0.4978 -0.6717  1.5108
  270SOL    HW2  810   2.955   1.107   0.189 -0.5793  2.2749 -0.2976
  271SOL     OW  811   2.928   1.370   2.108  0.4050  0.0113  0.5145
  271SOL    HW1  812   2.851   1.431   2.071  0.1419  0.8320 -2.3638
  271SOL    HW2  813   3.000   1.355   2.038 -0.5037 -1.2446  1.2000
  272SOL     OW  814   2.425   2.358   1.786 -0.0600 -0.3890 -0.5618
  272SOL    HW1  815   2.469   2.271   1.784 -0.6891  3.2454 -2.0597
  272SOL    HW2  816   2.386   2.374   1.879  2.8965 -0.4855 -1.3472
  273SOL     OW  817   0.090   2.474   0.246 -0.1336 -0.1677 -0.6087
  273SOL    HW1  818   0.186   2.487   0.253 -4.0092 -1.6070  0.7986
  273SOL    HW2  819   0.067   2.380   0.271  0.2011  2.0404  2.7058
  274SOL     OW  820   0.698   2.267   0.860 -0.4156 -0.4678  0.9970
  274SOL    HW1  821   0.688   2.214   0.771  1.4355 -1.2165 -1.5470
  274SOL    HW2  822   0.782   2.232   0.914  0.7696 -1.5397  1.1812
  275SOL     OW  823   1.664   2.005   2.857  0.1257 -0.3965 -0.3986
  275SOL    HW1  824   1.731   2.059   2.913  0.4805  0.9460  3.7801
  275SOL    HW2  825   1.679   2.018   2.756  1.6639  2.3754  0.5058
  276SOL     OW  826   2.407   1.640   2.088  0.0205  0.6343 -0.0432
  276SOL    HW1  827   2.411   1.610   1.991  1.6306 -0.4985  0.6499
  276SOL    HW2  828   2.499   1.640   2.135  2.4608  1.4023  2.8805
  277SOL     OW  829   2.124   0.171   0.727 -0.0072  0.3078  0.5470
  277SOL    HW1  830   2.186   0.209   0.798  0.6782  1.8960 -0.7214
  277SOL    HW2  831   2.027   0.192   0.751  0.5873  0.0501 -0.6948
  278SOL     OW  832   1.689   0.633   2.558  0.6492  0.1535 -0.0022
  278SOL    HW1  833   1.621   0.605   2.632 -0.8257 -1.9974  1.9729
  278SOL    HW2  834   1.683   0.733   2.537 -1.7949  1.3671 -1.5658
  279SOL     OW  835   0.918   2.741   1.092  0.2535  0.4372  0.6892
  279SOL    HW1  836   0.967   2.664   1.051 -2.7942 -1.3689 -1.0778
  279SOL    HW2  837   0.957   2.761   1.183  0.0832 -0.5380 -1.6010
  280SOL     OW  838   1.296   1.175   0.447  0.0132  0.4384  0.8887
  280SOL    HW1  839   1.208   1.126   0.473  1.2911 -1.2154  0.9272
  280SOL    HW2  840   1.325   1.151   0.352 -0.2424  1.6327 -1.2229
  281SOL     OW  841   2.165   1.743   0.422  0.2392  0.2324  0.1024
  281SOL    HW1  842   2.245   1.794   0.389 -1.1440  0.7026 -0.5827
  281SOL    HW2  843   2.127   1.799   0.499 -0.4940 -0.9855  0.4407
  282SOL     OW  844   2.824   1.360   0.347  0.4302  0.3367 -0.5552
  282SOL    HW1  845   2.892   1.284   0.329  2.4520 -0.9657 -0.5079
  282SOL    HW2  846   2.863   1.454   0.337  3.5983  0.9159  0.8337
  283SOL     OW  847   1.623   2.838   2.701 -0.0368 -0.0902 -0.5171
  283SOL    HW1  848   1.690   2.866   2.637 -1.9730 -1.5365  0.5817
  283SOL    HW2  849   1.660   2.830   2.796  2.0607 -0.6987 -1.6553
  284SOL     OW  850   0.665   0.045   2.909  0.1567  0.1425 -0.0143
  284SOL    HW1  851   0.654   0.145   2.930  0.7490 -2.8126 -3.7118
  284SOL    HW2  852   0.749   0.001   2.947  0.2449 -1.8860  2.8315
  285SOL     OW  853   1.801   1.756   2.951  0.6944 -0.5890  0.0513
  285SOL    HW1  854   1.736   1.826   2.913 -0.8913 -1.0504 -3.4255
  285SOL    HW2  855   1.877   1.732   2.882  1.6327 -2.2532  1.1881
  286SOL     OW  856   1.851   2.061   1.493 -0.1186 -0.2093 -0.2674
  286SOL    HW1  857   1.791   1.980   1.506  1.7861  0.4417  0.2977
  286SOL    HW2  858   1.822   2.139   1.558 -1.0794  1.6925  2.0437
  287SOL     OW  859   1.784   0.077   1.651 -0.4094  0.5994 -0.3196
  287SOL    HW1  860   1.858   0.060   1.720 -2.5726 -0.4046 -0.5785
  287SOL    HW2  861   1.695   0.043   1.688  2.0571  0.6201  2.4392
  288SOL     OW  862   0.435   2.717   2.184  0.6436 -0.0685  0.1428
  288SOL    HW1  863   0.459   2.750   2.281  2.1870 -0.6521  0.2180
  288SOL    HW2  864   0.396   2.620   2.188 -0.5505 -2.3425 -1.6510
  289SOL     OW  865   0.337   1.808   0.756  0.6350 -0.3404  0.4195
  289SOL    HW1  866   0.263   1.768   0.811  2.4979  0.3562 -1.5128
  289SOL    HW2  867   0.335   1.909   0.764  0.6151  2.0831  1.3623
  290SOL     OW  868   1.050   1.800   1.813 -0.3575 -0.2692  0.0865
  290SOL    HW1  869   1.011   1.799   1.906  1.0435 -0.3994 -0.5490
  290SOL    HW2  870   1.129   1.865   1.803  0.6120 -0.2646 -1.1546
  291SOL     OW  871   1.699   0.168   0.493 -0.0154  0.2280 -0.3039
  291SOL    HW1  872   1.620   0.117   0.458 -0.1498  2.5764 -0.4489
  291SOL    HW2  873   1.772   0.185   0.420  0.7600  3.7488  0.3932
  292SOL     OW  874   0.445   0.303   1.398 -0.1902  1.2059 -0.1633
  292SOL    HW1  875   0.448   0.380   1.468 -0.7181  0.2976 -0.1701
  292SOL    HW2  876   0.378   0.322   1.330  0.0252  0.3416  2.7973
  293SOL     OW  877   2.385   1.661   0.887  0.6508  0.0482 -0.0755
  293SOL    HW1  878   2.416   1.695   0.983  0.7908 -0.6971  4.6034
  293SOL    HW2  879   2.451   1.598   0.846  1.0156 -0.0558 -0.0755
  294SOL     OW  880   0.352   0.105   2.333  0.1006  0.1366  0.1596
  294SOL    HW1  881   0.273   0.046   2.310 -0.1068  1.8693  0.2667
  294SOL    HW2  882   0.427   0.037   2.358  0.2851  0.5679  2.4910
  295SOL     OW  883   0.977   1.488   0.522 -0.4135 -0.0105 -0.3116
  295SOL    HW1  884   1.074   1.456   0.526  3.4709  1.2284 -0.8152
  295SOL    HW2  885   0.970   1.519   0.429  0.7734 -0.5730  1.0559
  296SOL     OW  886   2.164   1.542   1.008  0.0248  0.2733  0.7511
  296SOL    HW1  887   2.146   1.475   0.935 -0.9718  0.0354  2.1379
  296SOL    HW2  888   2.229   1.607   0.973  1.8175  1.1596 -0.2708
  297SOL     OW  889   1.924   0.553   2.699 -0.3816 -0.2513  0.1235
  297SOL    HW1  890   1.903   0.603   2.782 -1.6933  0.6825 -3.2377
  297SOL    HW2  891   1.850   0.567   2.632 -0.4692  0.5115  0.4495
  298SOL     OW  892   1.145   0.102   2.499  0.3280 -0.6396 -0.3215
  298SOL    HW1  893   1.186   0.181   2.552  0.5912  0.8226  0.6375
  298SOL    HW2  894   1.219   0.043   2.457 -0.6962 -1.6618  2.0680
  299SOL     OW  895   0.855   0.465   1.839  0.2339 -0.0137  0.0565
  299SOL    HW1  896   0.928   0.413   1.891  2.0877 -2.9027 -2.5733
  299SOL    HW2  897   0.847   0.433   1.747  0.9089  1.4929  2.3524
  300SOL     OW  898   2.876   0.312   1.678 -0.3344 -0.1395 -0.0432
  300SOL    HW1  899   2.953   0.355   1.628 -1.4673 -0.9011  0.0433
  300SOL    HW2  900   2.906   0.235   1.737 -0.1112 -0.4855  0.5889
  301SOL     OW  901   1.875   0.772   1.627 -0.2854 -0.4504 -0.1144
  301SOL    HW1  902   1.786   0.793   1.669  0.4021 -0.0007  0.9155
  301SOL    HW2  903   1.900   0.679   1.655  0.1877 -1.0826 -3.7764
  302SOL     OW  904   0.896   3.066   0.049  0.1408 -0.6133 -0.0067
  302SOL    HW1  905   0.830   0.045   0.101  0.3186 -0.4018  2.4734
  302SOL    HW2  906   0.936   2.999   0.110  0.7569 -1.7161 -1.2295
  303SOL     OW  907   1.924   2.050   1.829 -0.8219  0.5939  0.2334
  303SOL    HW1  908   1.855   2.110   1.785 -1.5137  2.0334  0.9714
  303SOL    HW2  909   1.988   2.018   1.754  1.5123  2.2483  0.5311
  304SOL     OW  910   0.121   3.027   0.645 -0.1382 -0.3057 -0.1620
  304SOL    HW1  911   0.151   0.001   0.564  0.4662  1.6540 -1.1986
  304SOL    HW2  912   0.203   2.994   0.696 -2.1958  0.4213  1.5493
  305SOL     OW  913   1.137   0.887   0.229  0.7415 -0.4430 -0.0429
  305SOL    HW1  914   1.209   0.955   0.209 -0.5777  1.7291 -1.9654
  305SOL    HW2  915   1.161   0.793   0.197  2.3349  1.7649 -1.7014
  306SOL     OW  916   0.645   1.557   0.173 -0.4184  0.4898 -0.1167
  306SOL    HW1  917   0.623   1.460   0.201  2.2053  0.1918 -2.7947
  306SOL    HW2  918   0.644   1.615   0.254  3.7778 -1.6437  2.0426
  307SOL     OW  919   0.633   0.579   1.938 -0.4234 -0.0440 -0.4487
  307SOL    HW1  920   0.627   0.573   2.040 -0.5337 -1.1641 -0.4186
  307SOL    HW2  921   0.715   0.535   1.899 -1.1565 -0.1558 -1.4926
  308SOL     OW  922   0.453   0.093   0.914 -0.2278  0.6202  0.3940
  308SOL    HW1  923   0.419   0.182   0.878 -1.4976 -0.7515 -0.7054
  308SOL    HW2  924   0.547   0.094   0.946 -0.6946  0.5540 -0.2915
  309SOL     OW  925   2.207   1.071   0.211 -0.1643 -0.5744 -0.3070
  309SOL    HW1  926   2.291   1.090   0.264  0.2702  1.5838 -2.5857
  309SOL    HW2  927   2.147   1.156   0.205 -2.1588  1.5895 -1.8738
  310SOL     OW  928   1.172   1.483   2.948 -0.0517 -0.3893 -0.2530
  310SOL    HW1  929   1.125   1.546   2.889 -1.6015 -1.7219  0.4409
  310SOL    HW2  930   1.155   1.511   3.042 -0.5461  3.1898 -4.4449
  311SOL     OW  931   1.948   2.492   1.997  1.1029  0.6774 -0.4389
  311SOL    HW1  932   1.960   2.392   2.019 -1.2440 -0.0568  0.2493
  311SOL    HW2  933   1.859   2.521   2.039 -1.2407  3.4186 -0.6119
  312SOL     OW  934   2.337   3.000   0.136 -0.3425 -0.0876 -0.5069
  312SOL    HW1  935   2.244   3.034   0.160  0.5031 -1.1674 -0.6828
  312SOL    HW2  936   2.405   3.075   0.115 -0.0862  0.2325 -1.6728
  313SOL     OW  937   0.467   0.531   0.185 -0.1648  0.2792  0.0689
  313SOL    HW1  938   0.424   0.619   0.146 -0.9556  2.5898 -0.3501
  313SOL    HW2  939   0.571   0.541   0.206  4.2618  0.9810 -1.2399
  314SOL     OW  940   2.691   1.537   2.966 -0.8095  0.0721 -0.0446
  314SOL    HW1  941   2.682   1.501   2.868 -0.6034 -0.3127  0.0796
  314SOL    HW2  942   2.741   1.628   2.966  0.5870 -2.4189  0.7340
  315SOL     OW  943   1.733   0.727   2.019  0.2564  0.1624  0.1667
  315SOL    HW1  944   1.750   0.630   1.988 -1.9587 -3.3516 -1.3029
  315SOL    HW2  945   1.779   0.736   2.109  2.0043 -1.1493  2.0495
  316SOL     OW  946   0.171   1.008   0.619  0.0464  0.3092 -0.5120
  316SOL    HW1  947   0.116   0.937   0.665 -1.0455  2.5685 -0.9726
  316SOL    HW2  948   0.240   1.055   0.679  1.6283 -0.3890 -1.2179
  317SOL     OW  949   0.691   0.100   0.208  0.2167  0.1122  0.6626
  317SOL    HW1  950   0.612   0.169   0.194 -2.3112  0.5675 -0.2220
  317SOL    HW2  951   0.690   0.057   0.301  0.3770  1.0250  0.8453
  318SOL     OW  952   1.713   2.414   0.947  0.6197 -0.1847 -0.3298
  318SOL    HW1  953   1.759   2.410   1.038 -1.9320  1.7489 -2.4444
  318SOL    HW2  954   1.777   2.397   0.870 -1.0842  1.2744  1.2960
  319SOL     OW  955   1.247   1.428   0.547  0.3685  0.4086 -0.1341
  319SOL    HW1  956   1.263   1.332   0.533 -1.7884  0.7252 -0.6164
  319SOL    HW2  957   1.327   1.478   0.587  2.3542 -1.1510  0.5760
  320SOL     OW  958   0.666   2.089   1.105 -0.9217  0.1830  0.2109
  320SOL    HW1  959   0.578   2.119   1.077  1.8967 -1.7218  0.6142
  320SOL    HW2  960   0.711   2.148   1.177  0.2779  2.5374  0.1764
  321SOL     OW  961   2.322   2.403   2.043 -0.3070  0.1155 -0.2342
  321SOL    HW1  962   2.301   2.317   2.095  1.0005  0.5618 -0.3601
  321SOL    HW2  963   2.275   2.483   2.092 -1.7516  1.9966  0.9540
  322SOL     OW  964   2.805   2.263   2.449 -0.5394  0.1354  0.6975
  322SOL    HW1  965   2.892   2.260   2.385  3.1022 -1.1447 -1.2306
  322SOL    HW2  966   2.716   2.234   2.406 -1.0181  0.8416  1.2968
  323SOL     OW  967   2.654   0.795   0.751  0.2001 -0.1420 -0.0311
  323SOL    HW1  968   2.658   0.695   0.746 -2.6218  2.1474  0.0976
  323SOL    HW2  969   2.559   0.831   0.731 -1.6389  0.7844 -1.7272
  324SOL     OW  970   2.301   2.232   2.446 -0.1597 -0.6824  0.5695
  324SOL    HW1  971   2.242   2.308   2.410  0.5231 -0.2650 -0.0615
  324SOL    HW2  972   2.259   2.177   2.521  1.0861  0.7036  0.7139
  325SOL     OW  973   1.262   0.483   2.463  0.4895  0.3328  0.0324
  325SOL    HW1  974   1.184   0.542   2.438  1.8965 -0.7730  4.1195
  325SOL    HW2  975   1.260   0.472   2.566  0.2985  4.7543 -1.1755
  326SOL     OW  976   2.543   2.285   0.937 -0.1705 -0.6530 -0.4856
  326SOL    HW1  977   2.515   2.381   0.916  1.1523  1.4058  0.7696
  326SOL    HW2  978   2.542   2.267   1.039 -0.3820  1.5450 -1.5171
  327SOL     OW  979   2.711   3.024   0.152 -0.1856  0.1953  0.1598
  327SOL    HW1  980   2.644   0.014   0.117  0.7288 -0.6493  1.6038
  327SOL    HW2  981   2.771   2.991   0.073  2.5872  2.6292  1.4060
  328SOL     OW  982   1.097   0.763   0.724  0.3976  0.3767  0.5321
  328SOL    HW1  983   1.100   0.684   0.790 -2.2628 -5.2656  0.7562
  328SOL    HW2  984   1.121   0.848   0.782  0.8399  1.5474  0.8352
  329SOL     OW  985   2.166   0.756   1.399  0.2294 -0.3732 -0.5239
  329SOL    HW1  986   2.206   0.812   1.326  1.3728 -1.7389  1.5569
  329SOL    HW2  987   2.198   0.788   1.490 -2.1849 -0.6684 -0.1230
  330SOL     OW  988   0.910   0.627   0.597  0.1838 -0.3309 -0.5725
  330SOL    HW1  989   0.897   0.649   0.498  0.7278  0.7466 -2.6559
  330SOL    HW2  990   0.967   0.701   0.639  0.2333  0.1959  1.4176
  331SOL     OW  991   0.876   1.771   1.618  0.5287 -0.2905 -0.5216
  331SOL    HW1  992   0.943   1.772   1.694 -2.0097  0.0299 -4.0046
  331SOL    HW2  993   0.839   1.677   1.603 -1.1286 -1.1812 -1.1064
  332SOL     OW  994   1.993   2.222   2.037  0.2570  0.2196 -0.1282
  332SOL    HW1  995   2.083   2.192   2.074  0.5244 -3.8355  2.6556
  332SOL    HW2  996   1.967   2.169   1.956  2.6869 -0.4252  0.1792
  333SOL     OW  997   2.903   3.032   0.974 -0.0405 -0.1036 -0.0712
  333SOL    HW1  998   2.849   0.036   1.013  1.8818  1.7857 -1.3746
  333SOL    HW2  999   2.842   2.959   0.949  1.0043 -0.1544 -0.9288
  334SOL     OW 1000   0.004   1.675   0.678  0.4117 -0.0253  0.0524
  334SOL    HW1 1001   0.068   1.600   0.652  0.1017  2.5322 -0.0649
  334SOL    HW2 1002   0.025   1.767   0.640 -3.0180 -2.7764  1.9193
  335SOL     OW 1003   0.501   2.618   2.701  0.5624  0.3407  0.3542
  335SOL    HW1 1004   0.523   2.519   2.722  1.5432 -1.1126 -0.1835
  335SOL    HW2 1005   0.572   2.678   2.736 -2.2166 -2.0163  3.2753
  336SOL     OW 1006   0.208   2.480   1.958  0.3425 -0.1850 -0.1543
  336SOL    HW1 1007   0.248   2.413   1.891  1.8075  1.3203 -0.9419
  336SOL    HW2 1008   0.171   2.562   1.908 -1.1059 -1.6226 -0.1849
  337SOL     OW 1009   1.337   2.004   2.305 -0.6469  0.0533 -0.5737
  337SOL    HW1 1010   1.260   1.956   2.354 -1.0151  1.6381 -0.4257
  337SOL    HW2 1011   1.428   1.958   2.326 -1.1999 -1.0220  0.8749
  338SOL     OW 1012   0.949   3.023   2.632  0.4230  0.3644 -0.2178
  338SOL    HW1 1013   0.960   2.945   2.567 -0.3898  0.1817  2.4214
  338SOL    HW2 1014   0.999   0.026   2.593 -1.5212 -1.7699 -1.6357
  339SOL     OW 1015   0.222   1.219   2.678 -0.2942 -0.4086  0.1689
  339SOL    HW1 1016   0.175   1.133   2.701  0.8944 -1.5959 -1.5763
  339SOL    HW2 1017   0.209   1.293   2.752  0.8455  1.3343  0.7252
  340SOL     OW 1018   2.181   0.491   1.314 -0.4013  0.2373 -1.1004
  340SOL    HW1 1019   2.139   0.563   1.371 -0.2232  0.6014 -0.5832
  340SOL    HW2 1020   2.275   0.473   1.354 -0.6267  1.4047  1.3247
  341SOL     OW 1021   1.966   1.027   0.846 -0.1673  0.4604 -0.7852
  341SOL    HW1 1022   2.001   0.998   0.760 -2.3598  0.7481  3.2642
  341SOL    HW2 1023   2.020   0.981   0.920  1.2015 -0.1708 -0.8427
  342SOL     OW 1024   2.216   2.666   2.743 -0.2490  0.0169  0.4653
  342SOL    HW1 1025   2.223   2.724   2.827 -4.2385  0.7798  2.9911
  342SOL    HW2 1026   2.135   2.701   2.687 -2.4104 -0.2572  0.4552
  343SOL     OW 1027   2.913   2.540   1.060 -0.5287  0.0944 -0.1762
  343SOL    HW1 1028   2.950   2.599   1.136 -0.3681 -0.1089 -3.3970
  343SOL    HW2 1029   2.816   2.566   1.049  2.8740 -0.0755  1.1855
  344SOL     OW 1030   2.318   2.794   0.812 -0.1327 -0.0699 -0.1267
  344SOL    HW1 1031   2.389   2.861   0.789 -0.3165 -0.8615  1.9613
  344SOL    HW2 1032   2.280   2.755   0.730  2.4258 -0.3935  3.1590
  345SOL     OW 1033   2.480   2.320   0.312 -0.4272 -0.0000 -0.4777
  345SOL    HW1 1034   2.579   2.335   0.281  2.0215  1.0968 -1.5640
  345SOL    HW2 1035   2.450   2.411   0.353  0.5937 -1.5246 -3.0960
  346SOL     OW 1036   1.288   1.970   1.737 -0.4140  0.3865  0.4176
  346SOL    HW1 1037   1.359   2.012   1.800  3.1367  0.9827  0.7866
  346SOL    HW2 1038   1.330   1.932   1.652  1.2557  0.8490  0.4095
  347SOL     OW 1039   1.229   2.139   2.092 -0.2843 -0.0400 -0.0072
  347SOL    HW1 1040   1.263   2.070   2.156 -1.9233 -0.5824 -1.8037
  347SOL    HW2 1041   1.290   2.162   2.015  2.4814  0.4546  1.5023
  348SOL     OW 1042   1.002   1.649   1.351  0.3034  0.4339  0.1334
  348SOL    HW1 1043   0.937   1.615   1.420 -0.9040  1.4683 -0.8374
  348SOL    HW2 1044   0.983   1.745   1.318  1.1515  1.7692  2.0263
  349SOL     OW 1045   1.830   1.453   1.567 -0.3305  0.2541 -0.2100
  349SOL    HW1 1046   1.871   1.523   1.636  0.7322  1.8283  0.2017
  349SOL    HW2 1047   1.738   1.424   1.591  1.5633  0.5955 -3.0441
  350SOL     OW 1048   2.301   2.378   0.608 -0.3098 -0.2223  0.3716
  350SOL    HW1 1049   2.356   2.443   0.557 -0.1480  3.2507 -1.7824
  350SOL    HW2 1050   2.213   2.354   0.560 -0.8837 -1.5078  1.3041
  351SOL     OW 1051   0.337   3.035   1.798  0.2701 -0.5142  0.1948
  351SOL    HW1 1052   0.294   3.013   1.706  2.1324  0.3535 -2.3209
  351SOL    HW2 1053   0.264   3.038   1.870  1.6290  1.3517 -1.3254
  352SOL     OW 1054   0.571   1.050   0.313 -0.0179 -0.1019  0.0320
  352SOL    HW1 1055   0.585   1.054   0.413  0.8501  0.5572 -1.4318
  352SOL    HW2 1056   0.506   0.976   0.290  0.2487  0.6968  3.7551
  353SOL     OW 1057   0.990   1.677   2.805 -0.0510  0.4946 -0.2457
  353SOL    HW1 1058   0.958   1.721   2.892 -1.1552  0.6579 -1.0290
  353SOL    HW2 1059   0.915   1.672   2.736  0.3996  1.0614  1.5488
  354SOL     OW 1060   1.619   2.770   1.870  0.2570  0.3670 -0.3719
  354SOL    HW1 1061   1.645   2.693   1.808  3.9569  0.2881  2.4581
  354SOL    HW2 1062   1.651   2.745   1.962  1.1006 -0.9022 -0.9136
  355SOL     OW 1063   2.353   0.919   0.028  0.6933  0.5336  0.2257
  355SOL    HW1 1064   2.387   0.978   3.031 -1.9267  0.6570  0.3221
  355SOL    HW2 1065   2.301   0.963   0.104 -0.4695  1.4439  0.9608
  356SOL     OW 1066   0.308   2.351   1.300 -0.3369  0.8892  0.0202
  356SOL    HW1 1067   0.340   2.404   1.217 -0.1498 -1.8215 -1.1608
  356SOL    HW2 1068   0.207   2.329   1.292 -2.1811 -1.2233 -0.0695
  357SOL     OW 1069   2.885   2.874   1.771 -0.3169  0.1428 -0.1231
  357SOL    HW1 1070   2.829   2.806   1.721  1.4061  1.7235 -1.4249
  357SOL    HW2 1071   2.948   2.932   1.711  0.9691 -1.0028  0.2035
  358SOL     OW 1072   2.402   1.779   1.464  0.2494 -0.4586  0.5047
  358SOL    HW1 1073   2.344   1.823   1.391 -2.1950 -1.3426 -0.7315
  358SOL    HW2 1074   2.457   1.704   1.422  0.3443  0.4324 -0.3620
  359SOL     OW 1075   1.953   2.549   2.496 -0.0365  0.0218 -0.1959
  359SOL    HW1 1076   1.881   2.558   2.421  0.2200 -0.7397 -1.4185
  359SOL    HW2 1077   1.936   2.461   2.539  1.5492  3.0529 -0.9751
  360SOL     OW 1078   0.977   2.933   0.879 -0.7702 -0.2342  0.2827
  360SOL    HW1 1079   0.921   2.913   0.800 -1.7529  0.9466  0.5072
  360SOL    HW2 1080   0.967   2.866   0.954  1.7791  0.6051 -1.3449
  361SOL     OW 1081   1.853   0.244   0.700  0.7087 -0.6819 -0.5330
  361SOL    HW1 1082   1.792   0.198   0.635 -1.2375  1.1337  1.1729
  361SOL    HW2 1083   1.811   0.229   0.794 -0.6024 -2.1072  0.5141
  362SOL     OW 1084   1.510   0.714   1.401  0.0597  0.0268 -0.2459
  362SOL    HW1 1085   1.589   0.654   1.377  1.9832  2.5632  1.4508
  362SOL    HW2 1086   1.530   0.810   1.373  0.4068  0.5750  1.7622
  363SOL     OW 1087   1.876   1.636   2.063  0.2398 -0.4428  0.0266
  363SOL    HW1 1088   1.800   1.572   2.077 -0.7911  2.3511  0.3695
  363SOL    HW2 1089   1.956   1.610   2.119 -2.5287 -0.8100  1.0161
  364SOL     OW 1090   0.648   0.691   1.315  0.1754  0.0521  0.6531
  364SOL    HW1 1091   0.696   0.630   1.246 -3.5197 -1.5367 -0.3045
  364SOL    HW2 1092   0.575   0.751   1.273 -0.3835  2.5773 -0.0876
  365SOL     OW 1093   0.400   0.301   2.497  0.2651 -0.1218  0.3618
  365SOL    HW1 1094   0.337   0.380   2.499  1.1583 -0.8019 -0.0357
  365SOL    HW2 1095   0.368   0.223   2.437  0.3014  0.2034 -1.9139
  366SOL     OW 1096   2.237   1.337   3.043  1.2905  0.2443 -0.4390
  366SOL    HW1 1097   2.256   1.437   3.054  0.6150 -0.7704  2.3533
  366SOL    HW2 1098   2.171   1.318   0.045 -0.1757  1.5074  0.7748
  367SOL     OW 1099   2.800   2.507   2.840  0.1895 -0.9124 -0.3003
  367SOL    HW1 1100   2.813   2.496   2.940 -1.6559  1.1718 -1.3254
  367SOL    HW2 1101   2.705   2.524   2.817 -1.3859 -1.4035 -0.2449
  368SOL     OW 1102   0.124   1.293   0.967  0.1740 -0.6379  0.6994
  368SOL    HW1 1103   0.029   1.248   0.949 -2.3356 -1.8229  0.9146
  368SOL    HW2 1104   0.111   1.392   0.975 -0.1508 -0.2139  2.0799
  369SOL     OW 1105   0.524   2.724   2.456 -0.0285 -0.0455 -0.4453
  369SOL    HW1 1106   0.525   2.665   2.542 -1.7699  0.8928 -2.8130
  369SOL    HW2 1107   0.505   2.822   2.480  0.6715  0.4068  0.7677
  370SOL     OW 1108   3.011   0.566   0.773 -0.2311  0.1494 -0.2896
  370SOL    HW1 1109   2.959   0.615   0.699  2.4147 -1.3728  0.5834
  370SOL    HW2 1110   2.991   0.594   0.866 -0.4813  0.5480 -0.3797
  371SOL     OW 1111   1.251   2.409   1.624 -0.4924 -0.6996 -0.1508
  371SOL    HW1 1112   1.222   2.489   1.566 -0.4730  0.7843 -0.5415
  371SOL    HW2 1113   1.192   2.325   1.608 -2.8364 -0.7886 -0.9513
  372SOL     OW 1114   2.731   0.288   2.440 -0.5497 -0.3199 -0.1102
  372SOL    HW1 1115   2.676   0.202   2.430  1.8868  0.3311  0.5351
  372SOL    HW2 1116   2.808   0.270   2.507  3.5156  0.2159 -0.2700
  373SOL     OW 1117   0.090   2.152   0.547 -0.8084  0.4422 -0.1615
  373SOL    HW1 1118   0.178   2.204   0.562 -0.9651  1.1648  1.7114
  373SOL    HW2 1119   0.028   2.173   0.624  0.1785 -1.4695  0.8361
  374SOL     OW 1120   0.188   2.951   2.614 -0.3588 -0.0478 -0.0603
  374SOL    HW1 1121   0.235   3.044   2.615  4.1937  1.0243  0.2562
  374SOL    HW2 1122   0.220   2.884   2.539 -0.0975 -3.8270 -1.4079
  375SOL     OW 1123   0.652   0.335   2.616 -0.0765  0.4800 -0.3909
  375SOL    HW1 1124   0.641   0.391   2.700  0.0867  0.2975  1.9060
  375SOL    HW2 1125   0.565   0.331   2.565  0.8761 -0.3556 -2.9067
  376SOL     OW 1126   2.765   2.209   1.930 -0.5477  0.1380 -0.2426
  376SOL    HW1 1127   2.735   2.259   2.015 -2.6560  0.6000  1.0131
  376SOL    HW2 1128   2.853   2.249   1.896  1.6817 -0.7762  1.6671
  377SOL     OW 1129   1.234   3.053   2.903 -0.5241  0.0080  0.1011
  377SOL    HW1 1130   1.239   2.979   2.972 -0.4731 -0.4661 -0.6878
  377SOL    HW2 1131   1.255   3.019   2.808 -1.4058  0.5797 -1.4968
  378SOL     OW 1132   2.934   0.521   2.632  0.4072 -0.5554  0.1525
  378SOL    HW1 1133   2.982   0.556   2.549 -1.0577 -1.9815  0.8877
  378SOL    HW2 1134   2.944   0.421   2.634  2.6745  1.9038 -1.2520
  379SOL     OW 1135   0.783   1.040   0.128  0.0421  0.0149  0.4577
  379SOL    HW1 1136   0.758   0.972   0.055 -1.3035 -0.8988  0.5895
  379SOL    HW2 1137   0.702   1.047   0.190  4.5772 -0.5146 -0.1384
  380SOL     OW 1138   0.325   1.633   1.730 -0.2677  0.2463  0.2372
  380SOL    HW1 1139   0.254   1.587   1.787 -0.1321 -0.8634  1.4066
  380SOL    HW2 1140   0.282   1.653   1.636 -0.3011 -2.1860 -0.3960
  381SOL     OW 1141   3.048   1.209   2.476 -0.6032  0.0496 -0.1085
  381SOL    HW1 1142   0.068   1.206   2.443 -0.8400 -1.7430 -3.5147
  381SOL    HW2 1143   3.040   1.277   2.552 -1.5517  0.3118  1.5966
  382SOL     OW 1144   2.135   1.950   0.573 -0.2908 -0.2919 -0.5562
  382SOL    HW1 1145   2.173   2.003   0.497 -1.4939 -0.1877 -1.7318
  382SOL    HW2 1146   2.211   1.935   0.638 -0.5956 -0.8244 -1.2919
  383SOL     OW 1147   0.598   1.969   0.391  0.4292  0.7471 -0.0434
  383SOL    HW1 1148   0.610   1.866   0.386 -1.6692 -0.8171 -2.5717
  383SOL    HW2 1149   0.687   2.018   0.379 -3.4547 -2.5351 -0.3060
  384SOL     OW 1150   0.636   2.068   2.524 -0.1590  0.2240  0.0081
  384SOL    HW1 1151   0.722   2.031   2.564 -2.3830 -0.9778 -1.5349
  384SOL    HW2 1152   0.650   2.159   2.482 -0.8206 -0.6262  1.1742
  385SOL     OW 1153   2.300   1.903   0.769  0.0941 -0.0266  0.3451
  385SOL    HW1 1154   2.352   1.818   0.802 -0.4828 -0.3631  0.0904
  385SOL    HW2 1155   2.343   1.983   0.816  1.6116 -2.7914 -0.2552
  386SOL     OW 1156   2.331   0.918   1.236 -0.1715  0.6121 -0.3381
  386SOL    HW1 1157   2.364   0.891   1.143 -1.3118  3.5084  1.7365
  386SOL    HW2 1158   2.372   1.009   1.267  0.2319 -0.6574  0.6236
  387SOL     OW 1159   2.933   1.108   1.878 -0.7788 -0.0284 -0.5750
  387SOL    HW1 1160   2.991   1.193   1.893  1.7437 -2.1456  2.3083
  387SOL    HW2 1161   2.936   1.084   1.778  0.0843  1.0875  1.8379
  388SOL     OW 1162   0.514   1.577   2.148  0.2671 -0.9052  0.0928
  388SOL    HW1 1163   0.553   1.667   2.127 -0.1395 -1.8040  2.6947
  388SOL    HW2 1164   0.534   1.510   2.073  0.1697 -0.0803 -0.3686
  389SOL     OW 1165   0.756   0.955   1.948  0.1409 -0.5898 -0.2410
  389SOL    HW1 1166   0.813   0.983   2.030  1.8201 -0.9570  0.8228
  389SOL    HW2 1167   0.801   0.882   1.895 -1.4156 -2.8057  1.0527
  390SOL     OW 1168   2.489   2.970   0.702 -0.0571  0.7590 -0.2283
  390SOL    HW1 1169   2.456   2.981   0.606  1.6286 -0.1065 -2.0366
  390SOL    HW2 1170   2.522   3.057   0.742  0.9406  1.8893  1.3754
  391SOL     OW 1171   1.725   1.592   1.360 -0.1332  0.5086  0.1689
  391SOL    HW1 1172   1.753   1.535   1.440  0.1160 -0.5114 -0.6361
  391SOL    HW2 1173   1.732   1.532   1.273 -0.4170 -0.9191 -2.6483
  392SOL     OW 1174   2.834   2.616   0.012  0.1917 -0.4536  0.5088
  392SOL    HW1 1175   2.919   2.658   0.049  1.1283  1.4091  3.8923
  392SOL    HW2 1176   2.760   2.614   0.080 -2.5891 -1.7740 -0.0098
  393SOL     OW 1177   1.708   2.471   2.704  0.1614 -0.1339  0.0095
  393SOL    HW1 1178   1.781   2.523   2.759 -0.2021  2.2338 -0.1263
  393SOL    HW2 1179   1.650   2.535   2.642  0.2448  0.2071 -1.8183
  394SOL     OW 1180   2.784   2.550   2.498  0.0828 -0.6266  0.1014
  394SOL    HW1 1181   2.867   2.587   2.542 -0.0922  2.7189 -0.7628
  394SOL    HW2 1182   2.803   2.450   2.481  0.1946  0.7502 -0.9255
  395SOL     OW 1183   3.075   0.325   0.667 -0.5295 -0.3520 -0.1094
  395SOL    HW1 1184   3.030   0.410   0.702  1.1508  0.0538  0.5524
  395SOL    HW2 1185   3.060   0.240   0.724  0.2046  2.1395  0.9095
  396SOL     OW 1186   2.126   0.454   0.354  0.1210  0.1528 -0.0697
  396SOL    HW1 1187   2.070   0.537   0.364  1.5444 -0.3998 -0.9070
  396SOL    HW2 1188   2.074   0.372   0.389  2.2272  2.3725 -2.3116
  397SOL     OW 1189   0.220   0.690   2.205  0.1300 -0.0261 -0.4355
  397SOL    HW1 1190   0.306   0.641   2.225 -0.4905  1.2752 -0.5096
  397SOL    HW2 1191   0.158   0.632   2.153 -0.0037  4.0665  2.6707
  398SOL     OW 1192   0.993   2.968   0.309  0.3656  0.1873  0.2226
  398SOL    HW1 1193   1.054   3.038   0.269 -3.5322 -2.6972  0.2570
  398SOL    HW2 1194   0.906   3.006   0.340  1.1483 -2.9262  0.5606
  399SOL     OW 1195   2.160   0.509   2.056 -0.8844 -0.0105 -0.5987
  399SOL    HW1 1196   2.196   0.503   2.148 -1.8340 -1.6987 -2.5283
  399SOL    HW2 1197   2.154   0.608   2.026 -0.0126 -0.0527  0.5269
  400SOL     OW 1198   0.873   2.019   2.639 -0.1372 -0.1680 -0.2060
  400SOL    HW1 1199   0.924   2.078   2.577  1.8520 -1.7905  2.3080
  400SOL    HW2 1200   0.893   2.049   2.736  0.1158  0.4185  4.4233
  401SOL     OW 1201   0.423   1.282   2.506 -0.4459 -0.2920 -0.7602
  401SOL    HW1 1202   0.459   1.381   2.506  0.1228  3.8389 -1.6070
  401SOL    HW2 1203   0.364   1.259   2.585  2.2754  0.2830 -1.8412
  402SOL     OW 1204   0.259   2.707   0.469 -0.5667 -0.3202 -0.0207
  402SOL    HW1 1205   0.285   2.624   0.417 -1.4500  1.5377 -1.1954
  402SOL    HW2 1206   0.346   2.750   0.513  1.1455  3.7331  1.0298
  403SOL     OW 1207   0.663   1.139   1.779  0.3328  0.2880 -0.3244
  403SOL    HW1 1208   0.674   1.058   1.841 -0.7935  0.3845 -2.0287
  403SOL    HW2 1209   0.593   1.111   1.712 -1.6412 -0.5555 -0.1581
  404SOL     OW 1210   2.586   2.357   2.116  0.0687 -0.1014 -0.0642
  404SOL    HW1 1211   2.641   2.445   2.100 -1.0983 -0.3901 -0.7775
  404SOL    HW2 1212   2.486   2.364   2.087 -4.0372 -1.1639  0.7419
  405SOL     OW 1213   0.171   0.258   1.942 -0.4239 -0.1784 -0.1364
  405SOL    HW1 1214   0.235   0.260   2.019 -0.4930 -0.8657 -2.4666
  405SOL    HW2 1215   0.195   0.307   1.858  0.7932 -1.6273  0.7672
  406SOL     OW 1216   1.262   1.522   2.582 -0.0127  0.2080 -0.0248
  406SOL    HW1 1217   1.250   1.616   2.624 -0.3164  0.4589  0.4736
  406SOL    HW2 1218   1.185   1.455   2.609  1.2803  0.4160  0.1942
  407SOL     OW 1219   1.763   0.936   2.866 -0.1287 -0.0662  0.3397
  407SOL    HW1 1220   1.794   1.027   2.876 -2.0268  2.1540  0.0568
  407SOL    HW2 1221   1.729   0.926   2.767 -0.9956  0.2921 -4.4201
  408SOL     OW 1222   0.208   2.747   2.414  0.8952 -0.1906 -0.3172
  408SOL    HW1 1223   0.251   2.658   2.444  0.9188  1.2736 -0.8311
  408SOL    HW2 1224   0.127   2.729   2.358  2.0250  0.3570  0.6361
  409SOL     OW 1225   3.065   2.361   1.200 -0.3894  0.3582 -0.1340
  409SOL    HW1 1226   3.008   2.408   1.125 -1.6101  0.2514 -0.0027
  409SOL    HW2 1227   3.031   2.396   1.292  1.5472  2.1581 -0.0894
  410SOL     OW 1228   2.721   1.640   0.475 -0.4174 -0.2077 -0.1211
  410SOL    HW1 1229   2.743   1.736   0.487  0.6327 -0.6372  0.3167
  410SOL    HW2 1230   2.791   1.593   0.413  0.1947 -0.4207  0.8374
  411SOL     OW 1231   2.741   0.163   1.041 -0.3010  0.4978  0.0455
  411SOL    HW1 1232   2.712   0.170   1.141 -0.2719  2.3686  0.0803
  411SOL    HW2 1233   2.748   0.254   0.995 -1.0921 -1.6945 -0.1286
  412SOL     OW 1234   2.096   0.358   1.607 -0.8649  0.0588  0.3063
  412SOL    HW1 1235   2.145   0.274   1.632  2.6779  1.2341  0.4557
  412SOL    HW2 1236   2.032   0.336   1.531 -0.8302 -1.2392 -1.1020
  413SOL     OW 1237   0.279   0.322   2.173 -0.4709  0.1034 -0.3653
  413SOL    HW1 1238   0.295   0.416   2.200  0.3323  0.2280 -1.4888
  413SOL    HW2 1239   0.311   0.250   2.237  0.9819 -2.1437  1.1557
  414SOL     OW 1240   2.987   1.115   2.969  0.4920  0.1145  0.1059
  414SOL    HW1 1241   2.982   1.058   3.053  0.3697 -3.2789  0.1623
  414SOL    HW2 1242   2.906   1.090   2.909 -0.9953  0.3189  0.3025
  415SOL     OW 1243   0.957   2.466   0.084  0.4921  0.2279  0.4378
  415SOL    HW1 1244   0.988   2.372   0.089 -2.2980 -0.8507  2.5882
  415SOL    HW2 1245   1.022   2.523   0.138 -1.7788 -1.4448 -0.8045
  416SOL     OW 1246   1.374   3.049   2.445  0.6415  0.3512  0.2663
  416SOL    HW1 1247   1.356   3.036   2.343  0.3532 -0.4748 -0.2679
  416SOL    HW2 1248   1.425   0.057   2.465 -3.0927 -0.9998 -0.3648
  417SOL     OW 1249   0.370   0.620   1.044  0.5545  0.5115 -0.1201
  417SOL    HW1 1250   0.441   0.547   1.033  0.1751  1.7940  1.1683
  417SOL    HW2 1251   0.285   0.597   0.991  0.3453  0.1991 -1.0719
  418SOL     OW 1252   2.755   0.196   0.673 -0.4359  0.2529  0.6370
  418SOL    HW1 1253   2.660   0.167   0.698  1.3837  1.2886  0.2181
  418SOL    HW2 1254   2.753   0.285   0.619  1.1887  2.7971 -2.9019
  419SOL     OW 1255   0.407   2.965   0.313 -0.1542 -0.4830  0.3479
  419SOL    HW1 1256   0.470   2.946   0.236  0.7873 -2.4950  0.3283
  419SOL    HW2 1257   0.389   2.884   0.369  0.8572 -0.2102  0.2548
  420SOL     OW 1258   0.381   1.059   1.691  0.5528  0.0967  0.6677
  420SOL    HW1 1259   0.332   1.047   1.597 -1.3203  0.3403 -6.7074
  420SOL    HW2 1260   0.375   0.978   1.755  1.0900 -2.2866 -1.2083
  421SOL     OW 1261   1.864   2.429   0.707 -0.2116 -0.0661  0.3429
  421SOL    HW1 1262   1.862   2.508   0.642 -0.9786 -0.5745  0.2341
  421SOL    HW2 1263   1.797   2.359   0.667 -1.9400 -1.3826 -2.4465
  422SOL     OW 1264   0.194   0.670   1.257 -0.0359 -0.3290  0.0226
  422SOL    HW1 1265   0.269   0.662   1.193 -2.8271 -0.9051  0.6956
  422SOL    HW2 1266   0.223   0.725   1.340  0.9509 -1.3226  0.7857
  423SOL     OW 1267   1.107   1.514   2.003 -0.3116 -0.4561  0.1126
  423SOL    HW1 1268   1.160   1.543   1.922 -2.0116 -0.0403  2.5719
  423SOL    HW2 1269   1.005   1.522   1.990 -0.3827 -1.5271  0.1542
  424SOL     OW 1270   1.837   2.172   0.406  0.1362 -0.0750 -0.0004
  424SOL    HW1 1271   1.850   2.214   0.313 -0.2823 -1.2407  0.7468
  424SOL    HW2 1272   1.856   2.073   0.401  0.6503  1.4594 -0.2750
  425SOL     OW 1273   2.706   3.057   1.905 -0.1490 -0.2199 -0.5786
  425SOL    HW1 1274   2.748   0.036   1.977  0.8051 -0.1252 -2.0614
  425SOL    HW2 1275   2.778   3.006   1.853 -0.4293 -1.3726 -1.0670
  426SOL     OW 1276   2.965   2.666   2.683  0.1437 -0.2015  0.1281
  426SOL    HW1 1277   3.040   2.726   2.725  2.8511  0.3363  0.6059
  426SOL    HW2 1278   2.920   2.611   2.755  1.0175 -0.4008  1.4697
  427SOL     OW 1279   1.105   0.298   0.297 -0.1183  0.3452 -0.5556
  427SOL    HW1 1280   1.116   0.236   0.219  1.7345  0.1712 -2.7796
  427SOL    HW2 1281   1.024   0.279   0.352 -0.1028  0.8323 -0.1335
  428SOL     OW 1282   2.858   0.465   1.255  0.1920 -0.6087  0.2824
  428SOL    HW1 1283   2.876   0.367   1.237 -0.5391  0.7854 -0.0392
  428SOL    HW2 1284   2.760   0.491   1.232 -4.0774  2.1045  0.6825
  429SOL     OW 1285   1.960   2.958   1.032 -0.4437 -0.3000 -0.4074
  429SOL    HW1 1286   1.910   2.971   0.947  0.9430  2.2642  4.5387
  429SOL    HW2 1287   1.989   2.863   1.040 -0.7483  0.5859 -1.5690
  430SOL     OW 1288   0.803   1.530   2.450 -0.7133 -0.4086 -0.1691
  430SOL    HW1 1289   0.838   1.587   2.528 -0.8457 -0.5379  1.7086
  430SOL    HW2 1290   0.702   1.541   2.443 -2.3410 -1.8618 -1.1127
  431SOL     OW 1291   3.048   1.787   1.085 -0.0294  0.0471 -0.2558
  431SOL    HW1 1292   0.051   1.800   1.150 -2.6020  0.6150 -1.9295
  431SOL    HW2 1293   2.997   1.878   1.075 -0.5224  1.2458  0.8268
  432SOL     OW 1294   1.312   2.637   2.349  0.2315  0.0341 -0.2563
  432SOL    HW1 1295   1.333   2.700   2.276  2.7843 -0.3278 -0.4073
  432SOL    HW2 1296   1.308   2.548   2.302  0.5046 -0.1245 -0.9184
  433SOL     OW 1297   1.450   0.259   2.431  0.3635 -0.5675  0.1712
  433SOL    HW1 1298   1.444   0.247   2.331  0.3143  2.3706 -0.5058
  433SOL    HW2 1299   1.374   0.326   2.461  0.5934  0.0755  1.5330
  434SOL     OW 1300   0.557   2.317   2.135 -0.3981 -0.3756 -0.0656
  434SOL    HW1 1301   0.591   2.342   2.042 -0.6572 -0.3490 -1.2862
  434SOL    HW2 1302   0.483   2.382   2.156  2.0682  0.0571 -0.0231
  435SOL     OW 1303   0.277   0.090   0.463 -0.2110  1.0377 -0.1216
  435SOL    HW1 1304   0.190   0.132   0.424  0.5181 -0.8443  0.6850
  435SOL    HW2 1305   0.327   0.020   0.408 -1.0149 -2.5589 -1.0394
  436SOL     OW 1306   0.584   1.173   2.325  0.4812 -0.5863  0.3455
  436SOL    HW1 1307   0.515   1.199   2.398 -1.1880 -3.2224  0.9386
  436SOL    HW2 1308   0.575   1.072   2.310  0.1637  1.9321 -1.3178
  437SOL     OW 1309   0.803   2.315   2.707 -0.0505 -0.1415  0.0513
  437SOL    HW1 1310   0.844   2.292   2.617 -1.4807 -2.6268  1.7528
  437SOL    HW2 1311   0.704   2.328   2.697  0.6563 -1.5793 -1.2206
  438SOL     OW 1312   0.888   1.050   0.660  0.2792 -0.8702  0.3214
  438SOL    HW1 1313   0.958   1.109   0.712  0.5608 -1.2498  0.0584
  438SOL    HW2 1314   0.936   1.019   0.573  0.5159  1.5171  0.3251
  439SOL     OW 1315   2.775   1.538   2.442  0.2765 -0.1840 -0.1041
  439SOL    HW1 1316   2.779   1.442   2.403 -3.5421 -0.1983 -3.0633
  439SOL    HW2 1317   2.724   1.543   2.530  0.1514 -0.7090  0.3996
  440SOL     OW 1318   2.813   0.765   2.754 -0.1200 -0.6442  0.2724
  440SOL    HW1 1319   2.827   0.723   2.660  2.5812  0.6517 -1.4861
  440SOL    HW2 1320   2.853   0.707   2.825  0.0176  1.4637  0.8035
  441SOL     OW 1321   1.098   2.163   1.629  0.2639 -0.2683  0.5640
  441SOL    HW1 1322   1.017   2.184   1.689 -4.5946  1.3963  2.2232
  441SOL    HW2 1323   1.156   2.096   1.676 -2.2298  1.9253 -1.2415
  442SOL     OW 1324   2.139   1.280   0.781  0.1623 -0.7420  0.4001
  442SOL    HW1 1325   2.084   1.198   0.792  1.6326  2.2498  0.6670
  442SOL    HW2 1326   2.080   1.362   0.754  2.8410  1.9274  0.2749
  443SOL     OW 1327   2.368   2.205   2.937  0.2272  0.0663  0.4344
  443SOL    HW1 1328   2.421   2.201   3.025  1.5560  0.6711  0.4898
  443SOL    HW2 1329   2.310   2.292   2.927  1.7598  0.9273 -1.3915
  444SOL     OW 1330   1.801   1.559   2.633  0.1108  0.1553 -0.9618
  444SOL    HW1 1331   1.810   1.541   2.531  0.2861  0.7142  1.0246
  444SOL    HW2 1332   1.823   1.653   2.667  1.2311 -1.8161  1.2365
  445SOL     OW 1333   0.241   2.053   2.254  0.5625 -0.4517  0.4803
  445SOL    HW1 1334   0.334   2.072   2.220  1.7094  0.4824 -1.0911
  445SOL    HW2 1335   0.210   2.138   2.302 -0.8337  1.7497  0.6675
  446SOL     OW 1336   1.174   0.954   1.610  0.5788 -0.0530 -0.5366
  446SOL    HW1 1337   1.170   0.898   1.697  0.8089 -0.6332  2.8251
  446SOL    HW2 1338   1.079   0.965   1.569 -2.1245 -0.5430 -2.7392
  447SOL     OW 1339   1.030   1.038   0.431  0.4693  0.1861 -0.2496
  447SOL    HW1 1340   1.009   1.115   0.368  0.5206 -1.0190 -1.0576
  447SOL    HW2 1341   1.075   0.973   0.368  0.5974 -0.1953 -0.1563
  448SOL     OW 1342   0.817   1.250   2.431 -0.1448  0.2960 -0.1445
  448SOL    HW1 1343   0.840   1.348   2.410 -1.3540  1.8447  0.4138
  448SOL    HW2 1344   0.728   1.224   2.384  0.4361  2.9062  0.3358
  449SOL     OW 1345   0.144   1.735   2.571 -1.1353  0.5068 -0.2291
  449SOL    HW1 1346   0.185   1.740   2.479  2.9269  0.2852  1.8728
  449SOL    HW2 1347   0.044   1.731   2.568  0.7972  1.7682 -1.7269
  450SOL     OW 1348   2.131   1.583   2.143 -0.7102  0.1416 -0.7047
  450SOL    HW1 1349   2.122   1.622   2.237 -1.4963  0.0209  0.5054
  450SOL    HW2 1350   2.217   1.618   2.106 -1.0620 -1.2732  0.1608
  451SOL     OW 1351   2.660   1.436   1.134 -0.0840  0.1804  0.1228
  451SOL    HW1 1352   2.726   1.499   1.090 -4.1674  3.1546  1.3425
  451SOL    HW2 1353   2.713   1.380   1.203  0.3890 -1.3846 -0.0730
  452SOL     OW 1354   0.925   1.226   1.121 -0.4665  0.0473 -0.3350
  452SOL    HW1 1355   0.880   1.138   1.139  0.7710  0.6912  0.5405
  452SOL    HW2 1356   0.985   1.255   1.198  2.5029  2.6488  1.6427
  453SOL     OW 1357   0.567   1.729   0.860 -0.3920  0.2434  0.2957
  453SOL    HW1 1358   0.467   1.743   0.840 -0.8468 -0.4468 -1.0784
  453SOL    HW2 1359   0.580   1.665   0.938  0.1946 -0.1741  0.3455
  454SOL     OW 1360   1.132   1.579   0.110  0.0790 -0.4920  0.2883
  454SOL    HW1 1361   1.207   1.597   0.174 -3.1567 -0.4207  0.8238
  454SOL    HW2 1362   1.055   1.542   0.164 -0.8968  0.2105  1.3311
  455SOL     OW 1363   1.670   0.412   1.145  0.4389 -0.4193  0.3584
  455SOL    HW1 1364   1.702   0.463   1.224 -0.5383  0.8950 -4.3396
  455SOL    HW2 1365   1.608   0.471   1.083 -1.0885  0.2331 -0.0427
  456SOL     OW 1366   1.682   2.667   0.837  0.1948 -0.1403 -0.2845
  456SOL    HW1 1367   1.663   2.650   0.733 -0.3783 -0.2830 -1.9481
  456SOL    HW2 1368   1.695   2.582   0.886  0.4507  2.8034  1.1219
  457SOL     OW 1369   2.114   0.635   2.519  0.1473 -0.4234 -0.4469
  457SOL    HW1 1370   2.044   0.597   2.583  1.3782  0.7235  0.3357
  457SOL    HW2 1371   2.211   0.631   2.555  1.6162 -0.7469  1.6540
  458SOL     OW 1372   2.649   0.513   2.598  0.0847 -0.2326 -0.1732
  458SOL    HW1 1373   2.660   0.420   2.551  0.8078 -1.6949  1.1265
  458SOL    HW2 1374   2.737   0.552   2.632 -0.9570  0.5747 -2.0303
  459SOL     OW 1375   2.337   1.508   2.420 -0.4376 -0.1152 -0.1490
  459SOL    HW1 1376   2.351   1.545   2.327 -2.6001  1.6485 -1.7737
  459SOL    HW2 1377   2.308   1.577   2.486 -0.5611 -1.0253 -0.4077
  460SOL     OW 1378   0.741   0.690   2.870  0.5026 -0.3163  0.1341
  460SOL    HW1 1379   0.735   0.721   2.966 -0.4065 -2.8594  0.4673
  460SOL    HW2 1380   0.756   0.770   2.807  0.7421  1.8028  2.2284
  461SOL     OW 1381   0.346   2.133   0.032 -0.1223  0.4209 -0.0681
  461SOL    HW1 1382   0.327   2.155   0.127  0.8611 -1.1217  0.8523
  461SOL    HW2 1383   0.278   2.066   0.002 -1.0066  2.3188  2.3416
  462SOL     OW 1384   0.997   0.015   2.238 -0.1457  0.2049  0.6230
  462SOL    HW1 1385   0.980   2.994   2.278 -1.5113 -3.8500  1.0063
  462SOL    HW2 1386   0.930   0.085   2.273  1.2090  0.7782  0.2966
  463SOL     OW 1387   1.775   2.258   2.198 -0.1832  0.0648  0.3105
  463SOL    HW1 1388   1.701   2.187   2.181  1.8555 -1.6740 -0.4040
  463SOL    HW2 1389   1.863   2.239   2.150 -0.5540  2.9451  0.2477
  464SOL     OW 1390   2.654   2.602   1.115  0.0780  0.1848  0.2921
  464SOL    HW1 1391   2.598   2.673   1.153  3.2144 -1.1193 -0.1191
  464SOL    HW2 1392   2.618   2.569   1.027  0.6647 -3.4444 -0.7238
  465SOL     OW 1393   0.132   0.221   1.451 -0.1951 -0.9071  0.8023
  465SOL    HW1 1394   0.138   0.140   1.509 -0.4178 -1.3079  1.1891
  465SOL    HW2 1395   0.222   0.238   1.411 -2.1482  0.9258  1.9473
  466SOL     OW 1396   1.158   2.372   2.458  0.2769  0.2373 -0.1076
  466SOL    HW1 1397   1.097   2.431   2.512 -0.8609 -1.1043 -1.0029
  466SOL    HW2 1398   1.183   2.409   2.366 -0.6887 -1.6136  1.3565
  467SOL     OW 1399   0.035   2.209   0.269 -0.6322  0.3260 -0.0078
  467SOL    HW1 1400   0.032   2.207   0.372 -0.2154  1.7815  0.3835
  467SOL    HW2 1401   0.090   2.131   0.233 -0.2939  0.9920  1.1606
  468SOL     OW 1402   1.955   1.918   0.060  0.0579  0.1178  0.0764
  468SOL    HW1 1403   1.901   1.860   3.073 -0.0101  0.0896  3.0946
  468SOL    HW2 1404   2.045   1.947   0.022 -1.7878 -1.9096  0.3578
  469SOL     OW 1405   1.111   2.083   0.868 -0.7121 -0.3876 -0.3545
  469SOL    HW1 1406   1.121   2.081   0.970 -1.9056  1.1887 -2.8628
  469SOL    HW2 1407   1.194   2.110   0.815  0.6944  0.6727  0.6407
  470SOL     OW 1408   2.005   0.717   0.911 -0.0928 -0.1438  0.0607
  470SOL    HW1 1409   1.988   0.624   0.950  0.4899  2.4681  0.2989
  470SOL    HW2 1410   2.012   0.791   0.983 -0.5157  0.5901 -1.1311
  471SOL     OW 1411   0.379   2.107   0.314 -0.1784  0.3525  0.6360
  471SOL    HW1 1412   0.466   2.049   0.325 -0.0459  0.5316 -2.1297
  471SOL    HW2 1413   0.298   2.050   0.296 -0.3667  0.9912 -1.8153
  472SOL     OW 1414   2.457   1.552   2.735 -0.4393 -0.2315  0.4670
  472SOL    HW1 1415   2.527   1.519   2.668  1.2560  0.7402 -0.7644
  472SOL    HW2 1416   2.380   1.486   2.745  0.5990  0.3799 -0.0272
  473SOL     OW 1417   1.457   1.914   0.745 -0.4143 -0.0314 -0.0157
  473SOL    HW1 1418   1.410   2.002   0.733  3.5027 -1.9039  0.7368
  473SOL    HW2 1419   1.484   1.892   0.841 -0.3374  0.2271  1.5758
  474SOL     OW 1420   2.741   0.444   0.954 -0.1527 -0.4301 -0.1205
  474SOL    HW1 1421   2.685   0.480   0.868 -3.1670  1.7762 -3.8890
  474SOL    HW2 1422   2.839   0.472   0.960  0.6094 -1.0634 -1.0491
  475SOL     OW 1423   2.370   2.599   1.375 -0.5029  0.5535  0.3638
  475SOL    HW1 1424   2.336   2.652   1.457  0.0257  1.6174 -2.8264
  475SOL    HW2 1425   2.298   2.599   1.303 -0.8235 -0.2659 -0.5008
  476SOL     OW 1426   0.591   0.381   0.754  0.1855  0.3121 -0.5605
  476SOL    HW1 1427   0.523   0.341   0.688  2.7835  0.2507  2.3352
  476SOL    HW2 1428   0.622   0.478   0.730 -0.4281 -2.7671 -2.3011
  477SOL     OW 1429   1.098   2.204   1.368  0.3106  0.2683 -0.4169
  477SOL    HW1 1430   1.164   2.276   1.343 -1.1733  1.0385  1.0005
  477SOL    HW2 1431   1.101   2.187   1.474 -1.6221 -1.4363  0.9022
  478SOL     OW 1432   1.278   2.521   2.887  0.5053 -0.0044  0.3420
  478SOL    HW1 1433   1.238   2.614   2.881  1.6870  0.5411 -0.3762
  478SOL    HW2 1434   1.269   2.461   2.802 -0.4137  1.3411  0.0751
  479SOL     OW 1435   2.529   0.862   1.732  0.0859 -0.0909  0.9177
  479SOL    HW1 1436   2.558   0.954   1.706 -3.4475  2.5497 -1.3806
  479SOL    HW2 1437   2.583   0.794   1.680 -0.4513  0.4524 -0.8716
  480SOL     OW 1438   2.783   2.126   2.684 -0.3067  0.5973 -0.1693
  480SOL    HW1 1439   2.837   2.176   2.758 -0.3736 -0.6156 -0.1476
  480SOL    HW2 1440   2.782   2.186   2.603 -1.0650  1.0058 -0.0318
  481SOL     OW 1441   1.654   0.114   2.015  0.4670  0.0950 -0.0569
  481SOL    HW1 1442   1.731   0.130   2.082  0.7152 -3.0701  0.5759
  481SOL    HW2 1443   1.610   0.202   1.985 -0.4849  3.2617  2.2714
  482SOL     OW 1444   1.544   2.296   2.595 -0.3161  0.5158 -0.0137
  482SOL    HW1 1445   1.606   2.364   2.646  1.4470 -0.2969  1.1640
  482SOL    HW2 1446   1.611   2.234   2.542  2.7960  2.3979  2.3484
  483SOL     OW 1447   1.041   2.543   2.650  0.1813  0.4008  0.1226
  483SOL    HW1 1448   1.020   2.511   2.748 -3.0632  0.5414  1.7292
  483SOL    HW2 1449   1.060   2.643   2.642  2.8778 -2.3011 -0.6244
  484SOL     OW 1450   2.634   3.001   1.300  0.6760  0.6188  0.8872
  484SOL    HW1 1451   2.599   0.022   1.297 -0.5228  0.0915 -0.8554
  484SOL    HW2 1452   2.732   2.995   1.321  1.2577  1.4632  3.4474
  485SOL     OW 1453   1.969   0.689   0.443 -0.0819 -0.5903  0.1967
  485SOL    HW1 1454   1.934   0.705   0.538 -0.5234  2.7759 -1.2084
  485SOL    HW2 1455   1.972   0.780   0.391  1.0168 -2.5688 -1.7668
  486SOL     OW 1456   2.216   2.629   2.216 -0.1413 -0.4224 -0.2631
  486SOL    HW1 1457   2.257   2.712   2.263  0.8335  1.2129 -0.0140
  486SOL    HW2 1458   2.182   2.655   2.123 -0.1004  1.4202 -0.7529
  487SOL     OW 1459   1.398   0.607   0.386 -0.6231 -0.2827  0.1178
  487SOL    HW1 1460   1.367   0.655   0.469 -0.3768  1.3999 -2.6369
  487SOL    HW2 1461   1.478   0.549   0.404 -1.5706  2.2523 -0.3649
  488SOL     OW 1462   2.585   2.862   2.474 -0.0771 -0.1868 -0.0508
  488SOL    HW1 1463   2.590   2.781   2.409 -2.7686  2.5528  4.2684
  488SOL    HW2 1464   2.514   2.847   2.548  3.5428  1.6466 -1.7619
  489SOL     OW 1465   1.596   3.023   0.155  0.7348  0.0468  0.3370
  489SOL    HW1 1466   1.524   3.044   0.221  1.4943  0.7132  0.3102
  489SOL    HW2 1467   1.671   2.970   0.202  0.1642  2.3719 -0.9298
  490SOL     OW 1468   1.896   0.378   0.054  0.1141 -0.1078 -0.2722
  490SOL    HW1 1469   1.858   0.458   0.103  1.0368  0.0724  1.3837
  490SOL    HW2 1470   1.991   0.395   0.025 -2.5696 -0.1281 -0.7892
  491SOL     OW 1471   0.488   2.812   1.296 -0.1270 -0.0925 -0.4468
  491SOL    HW1 1472   0.511   2.869   1.377 -0.5930 -0.4919  3.8529
  491SOL    HW2 1473   0.529   2.852   1.212  0.2413 -3.6058 -0.3298
  492SOL     OW 1474   1.600   2.601   0.576 -0.1086  0.2822 -0.6371
  492SOL    HW1 1475   1.542   2.522   0.549 -2.3680  0.3244  0.3964
  492SOL    HW2 1476   1.602   2.668   0.501 -0.7523  2.4376  1.2764
  493SOL     OW 1477   1.223   2.190   2.948  0.3943 -0.2190  0.5195
  493SOL    HW1 1478   1.263   2.212   2.855  0.1088 -1.6746 -1.3614
  493SOL    HW2 1479   1.247   2.266   3.011  2.5332 -2.5951 -0.0757
  494SOL     OW 1480   0.616   1.041   0.567  0.0436  0.2017 -0.0449
  494SOL    HW1 1481   0.576   1.001   0.651  1.0987  2.9052 -2.0967
  494SOL    HW2 1482   0.711   1.078   0.585 -1.7154 -0.6369 -1.4035
  495SOL     OW 1483   2.705   0.501   1.735 -0.0346  0.0412 -0.3072
  495SOL    HW1 1484   2.770   0.423   1.726  0.3694 -0.1394 -0.0432
  495SOL    HW2 1485   2.717   0.567   1.656 -0.9549  0.7138 -0.4789
  496SOL     OW 1486   2.159   2.433   2.375 -0.1094  0.0488  0.3578
  496SOL    HW1 1487   2.181   2.510   2.309 -1.0214  2.0292  0.9220
  496SOL    HW2 1488   2.090   2.471   2.437  0.5042  1.3433  0.4354
  497SOL     OW 1489   1.668   1.392   2.812 -0.3767 -0.4420 -0.5451
  497SOL    HW1 1490   1.740   1.437   2.756 -0.3982 -4.2949  0.0847
  497SOL    HW2 1491   1.649   1.447   2.891  2.0520 -1.9252 -1.9114
  498SOL     OW 1492   0.943   2.288   1.012 -0.0538 -0.2341  0.3483
  498SOL    HW1 1493   0.998   2.201   1.006  0.4768 -1.6520  1.6456
  498SOL    HW2 1494   0.924   2.312   1.107  0.7253 -0.1162 -0.8935
  499SOL     OW 1495   0.090   2.128   1.026  0.3143 -0.0442 -0.0894
  499SOL    HW1 1496   0.044   2.128   0.938  0.1243 -1.1418  2.0030
  499SOL    HW2 1497   0.080   2.208   1.078  1.1768 -3.8068 -2.4345
  500SOL     OW 1498   1.121   2.603   0.245  0.1848 -0.1246 -0.7210
  500SOL    HW1 1499   1.073   2.651   0.321 -0.9911  2.5356  1.4902
  500SOL    HW2 1500   1.217   2.629   0.247 -2.2168 -2.0878 -0.2236
  501SOL     OW 1501   1.909   2.658   0.571  0.3860  0.8749  0.5960
  501SOL    HW1 1502   1.885   2.751   0.578  0.8675 -1.9809  1.7918
  501SOL    HW2 1503   1.921   2.634   0.471 -0.9540  0.5002  1.2431
  502SOL     OW 1504   0.037   0.281   1.025  0.1042 -0.2259 -0.3170
  502SOL    HW1 1505   3.069   0.240   1.109  1.9622  0.8630 -0.4904
  502SOL    HW2 1506   0.038   0.208   0.950 -2.6187  0.0116 -0.9824
  503SOL     OW 1507   2.037   0.047   1.783 -0.4459 -0.8019 -0.4618
  503SOL    HW1 1508   2.023   0.138   1.832 -1.0920  1.7312  0.1993
  503SOL    HW2 1509   2.119   0.056   1.721  1.7182 -0.7116 -2.9218
  504SOL     OW 1510   1.897   1.162   1.780 -0.0427  0.8317  0.0262
  504SOL    HW1 1511   1.958   1.085   1.765 -2.5471  1.1620  0.7344
  504SOL    HW2 1512   1.951   1.242   1.817  0.7705  0.8287 -1.8617
  505SOL     OW 1513   1.779   2.868   2.380  0.3036  0.8069 -0.8811
  505SOL    HW1 1514   1.796   2.930   2.458 -0.8999 -0.7038 -0.8881
  505SOL    HW2 1515   1.721   2.913   2.308  0.7824 -1.2647 -2.5553
  506SOL     OW 1516   0.392   0.830   1.862 -0.2242  0.1244 -0.4839
  506SOL    HW1 1517   0.425   0.845   1.958 -0.2667 -0.7772  1.8459
  506SOL    HW2 1518   0.464   0.792   1.799 -0.7354 -0.5229 -0.3432
  507SOL     OW 1519   1.793   0.539   0.278  0.0475  0.0103  0.1429
  507SOL    HW1 1520   1.732   0.490   0.347  0.3999  2.5212  1.0925
  507SOL    HW2 1521   1.868   0.582   0.331 -0.3315  0.7329  0.3604
  508SOL     OW 1522   2.140   0.767   2.003  0.4601  0.0074 -0.2172
  508SOL    HW1 1523   2.147   0.819   1.916  0.5411  0.3859  4.1187
  508SOL    HW2 1524   2.206   0.807   2.068 -2.2483  0.9316  0.4752
  509SOL     OW 1525   0.584   1.790   2.814 -0.1820 -0.1413  0.2795
  509SOL    HW1 1526   0.586   1.860   2.890  0.1160  0.6607  0.9771
  509SOL    HW2 1527   0.518   1.824   2.746 -1.2940  0.6375  0.5306
  510SOL     OW 1528   0.048   0.811   0.780  0.0659  0.1853 -0.6025
  510SOL    HW1 1529   0.029   0.713   0.768 -2.5068  1.5209  1.7503
  510SOL    HW2 1530   0.082   0.829   0.877  0.2546 -2.3853  0.8449
  511SOL     OW 1531   1.656   1.243   1.266 -0.1067  0.8110 -0.2232
  511SOL    HW1 1532   1.656   1.274   1.362 -1.2984 -0.3737 -1.5925
  511SOL    HW2 1533   1.689   1.317   1.203 -1.0370  1.0107  0.2813
  512SOL     OW 1534   0.425   2.085   0.753 -0.5981  0.2493 -0.9271
  512SOL    HW1 1535   0.529   2.093   0.738  0.4054 -1.5907 -2.5412
  512SOL    HW2 1536   0.375   2.125   0.675  0.4645 -0.6739  3.0272
  513SOL     OW 1537   0.325   2.400   0.814  0.2563 -0.0154 -0.6705
  513SOL    HW1 1538   0.303   2.498   0.846  0.0855  2.8090  1.4728
  513SOL    HW2 1539   0.318   2.327   0.888  0.9944 -0.8559 -0.5125
  514SOL     OW 1540   0.689   2.093   0.642 -0.2890 -0.0242 -0.0622
  514SOL    HW1 1541   0.777   2.051   0.667 -0.2825 -0.0106  0.5636
  514SOL    HW2 1542   0.659   2.067   0.544 -0.8445 -0.2686 -0.0626
  515SOL     OW 1543   0.258   0.095   0.151  0.4660  0.6336 -0.1604
  515SOL    HW1 1544   0.298   0.005   0.177 -0.6435  0.2945 -0.0762
  515SOL    HW2 1545   0.156   0.098   0.144 -0.8261 -1.4463 -1.4527
  516SOL     OW 1546   1.753   3.029   1.253 -0.1544 -0.0008  0.5193
  516SOL    HW1 1547   1.744   0.051   1.271 -1.4493 -4.7085 -1.8056
  516SOL    HW2 1548   1.828   3.022   1.183 -1.9763 -1.0690  0.0542
  517SOL     OW 1549   1.674   1.637   0.763 -0.6340  0.3562  0.1492
  517SOL    HW1 1550   1.648   1.711   0.705 -2.9593  1.8281  1.4750
  517SOL    HW2 1551   1.730   1.666   0.845  1.1833  0.5793 -0.0189
  518SOL     OW 1552   1.482   2.748   1.023 -0.0464  0.3423  0.5626
  518SOL    HW1 1553   1.406   2.679   1.004 -2.3915 -3.1994 -0.5875
  518SOL    HW2 1554   1.562   2.731   0.965 -0.2630  0.9765 -0.0707
  519SOL     OW 1555   2.956   2.300   0.084 -0.2293 -0.2421 -0.8796
  519SOL    HW1 1556   3.023   2.257   0.148  0.9022 -0.0333 -0.6710
  519SOL    HW2 1557   3.007   2.371   0.029 -1.3256  2.6586 -2.2176
  520SOL     OW 1558   1.958   1.951   2.341  0.2643 -0.2461  0.0265
  520SOL    HW1 1559   1.910   2.026   2.394 -0.6286  0.2382  0.5701
  520SOL    HW2 1560   2.007   1.989   2.258  1.0536  2.0243 -1.0534
  521SOL     OW 1561   1.259   0.032   2.193  0.5024  0.2766 -0.5419
  521SOL    HW1 1562   1.297   0.126   2.170  2.3128 -1.4591  0.2628
  521SOL    HW2 1563   1.157   0.046   2.213 -2.6769  0.5059 -0.4979
  522SOL     OW 1564   0.345   2.462   2.202  0.2788  0.4007 -0.3658
  522SOL    HW1 1565   0.292   2.477   2.116 -0.9675  2.1633 -2.5706
  522SOL    HW2 1566   0.292   2.410   2.274 -0.0290 -0.1595 -0.6319
  523SOL     OW 1567   0.984   2.050   2.055 -0.8500  0.0626  0.2646
  523SOL    HW1 1568   0.916   2.091   2.120  1.7774 -1.1030  0.6323
  523SOL    HW2 1569   1.085   2.070   2.059 -3.3943  0.3597  1.6261
  524SOL     OW 1570   2.282   2.110   0.354 -0.3436  0.2118  0.2507
  524SOL    HW1 1571   2.363   2.162   0.388  1.0256  2.5875 -0.3100
  524SOL    HW2 1572   2.308   2.072   0.264 -0.3757  2.8491  0.8181
  525SOL     OW 1573   2.803   1.036   2.794  0.1362  0.4391 -0.2005
  525SOL    HW1 1574   2.721   1.064   2.742  1.6379  1.2783  3.2759
  525SOL    HW2 1575   2.803   0.933   2.804  0.6338 -1.8397  0.6385
  526SOL     OW 1576   0.251   2.668   0.832  0.2693 -0.2307  0.8215
  526SOL    HW1 1577   0.159   2.648   0.786  1.0777 -1.8863  1.7905
  526SOL    HW2 1578   0.278   2.765   0.820  1.0688  1.3280 -2.4851
  527SOL     OW 1579   3.071   1.302   0.573 -0.1641 -0.1652 -0.1790
  527SOL    HW1 1580   0.018   1.205   0.595  0.1273  0.8317  1.5960
  527SOL    HW2 1581   2.977   1.330   0.603 -0.7821  0.9587 -2.4835
  528SOL     OW 1582   0.679   0.895   2.344  0.0761  0.0035 -0.2248
  528SOL    HW1 1583   0.666   0.798   2.366 -0.6374  0.8938 -0.1091
  528SOL    HW2 1584   0.758   0.930   2.394 -2.5052 -0.9600 -1.2982
  529SOL     OW 1585   0.915   1.475   0.236 -0.4295  0.2006  0.4931
  529SOL    HW1 1586   0.929   1.373   0.232 -0.7873  2.4876 -0.1166
  529SOL    HW2 1587   0.819   1.500   0.226  0.6675 -2.1604  2.3572
  530SOL     OW 1588   1.064   1.106   1.961 -0.3609  0.0598 -0.4126
  530SOL    HW1 1589   1.084   1.150   1.872 -1.8890 -0.2077  0.8179
  530SOL    HW2 1590   1.148   1.055   1.994  2.7681  3.1581  0.5135
  531SOL     OW 1591   1.048   2.219   0.116  0.0210  0.3162 -0.1681
  531SOL    HW1 1592   1.057   2.143   0.179 -2.2927  2.5472 -0.8049
  531SOL    HW2 1593   1.133   2.265   0.101  1.2430  1.7950  1.3092
  532SOL     OW 1594   2.324   0.861   2.173 -0.3444  0.1301 -0.0770
  532SOL    HW1 1595   2.369   0.876   2.079 -0.0972 -2.6570  0.4103
  532SOL    HW2 1596   2.398   0.838   2.246 -0.1294  3.1538 -1.9743
  533SOL     OW 1597   3.010   0.112   1.856 -0.2206 -0.4155  0.0964
  533SOL    HW1 1598   2.933   0.097   1.921 -2.2541  1.2543 -0.2055
  533SOL    HW2 1599   3.067   0.182   1.901  0.4384 -1.2160  0.3653
  534SOL     OW 1600   2.479   0.154   0.268  0.3218  0.0068 -1.1150
  534SOL    HW1 1601   2.560   0.207   0.302 -0.5660  1.9423  3.9035
  534SOL    HW2 1602   2.494   0.144   0.171  1.9896 -1.7154 -1.0375
  535SOL     OW 1603   0.473   0.243   0.141 -0.1767 -0.2026  0.4411
  535SOL    HW1 1604   0.461   0.341   0.164 -0.1275 -0.9176  0.1993
  535SOL    HW2 1605   0.385   0.189   0.138  3.2411  1.4381  0.9188
  536SOL     OW 1606   1.048   1.932   1.471 -0.0861  0.0497  0.7600
  536SOL    HW1 1607   1.059   2.023   1.514  2.4266 -2.4238  0.8752
  536SOL    HW2 1608   0.988   1.878   1.532  1.7227 -4.1309 -2.4625
  537SOL     OW 1609   3.017   2.566   1.706  0.3058 -0.2202 -0.0419
  537SOL    HW1 1610   2.917   2.584   1.716 -2.5249 -0.7434  5.1333
  537SOL    HW2 1611   3.030   2.468   1.720  0.2045  0.3158 -0.1995
  538SOL     OW 1612   0.527   2.324   0.381 -0.2213 -0.5191  0.1269
  538SOL    HW1 1613   0.625   2.302   0.367 -1.0675 -0.2744  0.3006
  538SOL    HW2 1614   0.467   2.244   0.362 -3.4152  0.6027  0.0005
  539SOL     OW 1615   1.969   1.284   2.289 -0.5816 -0.2356 -0.0488
  539SOL    HW1 1616   1.950   1.231   2.377  0.6540 -2.3065  0.8206
  539SOL    HW2 1617   2.061   1.267   2.257 -1.2935  0.5602 -0.0542
  540SOL     OW 1618   1.856   0.679   2.920 -0.4459 -0.3483  0.2490
  540SOL    HW1 1619   1.905   0.688   3.011 -1.7288  0.8607  1.0326
  540SOL    HW2 1620   1.834   0.777   2.893  1.3155  3.0970 -0.1785
  541SOL     OW 1621   0.491   0.669   2.496  0.0661 -0.1759  0.3398
  541SOL    HW1 1622   0.415   0.602   2.511 -0.7189 -2.3049  2.6544
  541SOL    HW2 1623   0.481   0.750   2.561 -2.1775  0.9023  1.2173
  542SOL     OW 1624   1.250   2.723   1.931 -0.0769  0.1843  0.2861
  542SOL    HW1 1625   1.176   2.655   1.928  0.7223  0.2575 -0.0118
  542SOL    HW2 1626   1.339   2.673   1.908 -0.9640 -1.2056  0.4808
  543SOL     OW 1627   0.705   2.636   0.391  0.1709 -0.9075  0.2106
  543SOL    HW1 1628   0.684   2.615   0.292 -2.9015  0.2495 -1.4944
  543SOL    HW2 1629   0.621   2.669   0.444 -1.7118  1.0067 -0.4045
  544SOL     OW 1630   2.643   1.940   2.310  0.1675 -0.8169 -0.2608
  544SOL    HW1 1631   2.602   2.028   2.322  0.9693 -2.8887 -0.7369
  544SOL    HW2 1632   2.740   1.947   2.278 -1.5979 -1.4697 -0.7025
  545SOL     OW 1633   1.457   1.542   1.853 -0.6005  0.2872 -0.5129
  545SOL    HW1 1634   1.451   1.556   1.955  1.2731  1.2442  1.6134
  545SOL    HW2 1635   1.367   1.560   1.807 -2.3106 -1.0770  0.4408
  546SOL     OW 1636   2.992   0.261   2.562  0.1157  1.0923 -0.0886
  546SOL    HW1 1637   2.990   0.164   2.595 -2.3283 -1.6784  0.8283
  546SOL    HW2 1638   3.038   0.273   2.476 -1.2332  1.6826  1.7644
  547SOL     OW 1639   1.316   0.085   1.075 -0.1869 -0.1560 -0.0658
  547SOL    HW1 1640   1.328   0.180   1.094  3.4014 -3.8278 -0.7001
  547SOL    HW2 1641   1.383   0.026   1.126 -0.5818  0.1867  2.3463
  548SOL     OW 1642   1.291   1.964   0.005 -0.0724 -0.7968 -0.2260
  548SOL    HW1 1643   1.366   2.005   0.061 -1.1112  2.0526 -1.4353
  548SOL    HW2 1644   1.249   2.038   3.026  1.1388 -0.6457 -0.2976
  549SOL     OW 1645   2.313   0.656   0.004  0.6956 -0.3668 -0.2404
  549SOL    HW1 1646   2.396   0.601   0.035  0.7237 -0.4351  0.2220
  549SOL    HW2 1647   2.319   0.760   0.016 -1.5819  0.3071  0.3897
  550SOL     OW 1648   2.764   2.179   0.805  0.3536  0.2877  0.0399
  550SOL    HW1 1649   2.684   2.220   0.856 -1.6806  1.9477  3.1156
  550SOL    HW2 1650   2.739   2.088   0.765 -0.5322  1.0102  1.9915
  551SOL     OW 1651   0.936   0.361   1.331  0.3474 -0.3075  0.0429
  551SOL    HW1 1652   0.854   0.300   1.335  4.2545  0.8469  0.8029
  551SOL    HW2 1653   0.993   0.356   1.417  2.5207  0.9542 -2.5700
  552SOL     OW 1654   0.077   1.392   2.840 -0.4122  0.3529  0.0344
  552SOL    HW1 1655   0.144   1.461   2.861  1.1908 -2.5168 -1.7987
  552SOL    HW2 1656   0.000   1.380   2.910 -3.5604  2.3109  1.2555
  553SOL     OW 1657   2.425   2.570   0.428  0.4832 -0.3828  0.5220
  553SOL    HW1 1658   2.493   2.611   0.493  0.8568  1.7252 -0.8958
  553SOL    HW2 1659   2.357   2.635   0.387 -1.6758  1.9844  0.2619
  554SOL     OW 1660   2.193   1.154   1.574 -0.1499 -0.2617 -0.4503
  554SOL    HW1 1661   2.119   1.182   1.505 -2.3821 -1.3846  0.3693
  554SOL    HW2 1662   2.156   1.064   1.613 -0.4777 -2.2966  1.4497
  555SOL     OW 1663   0.829   2.174   2.248 -0.2060 -0.3374  0.1496
  555SOL    HW1 1664   0.902   2.174   2.316  0.2338  1.7561 -0.9434
  555SOL    HW2 1665   0.733   2.184   2.288 -0.7667 -0.1578  1.8250
  556SOL     OW 1666   1.249   1.169   1.766 -0.7619  0.0054 -0.8226
  556SOL    HW1 1667   1.328   1.187   1.829  0.5369  1.6772 -0.6412
  556SOL    HW2 1668   1.264   1.089   1.704 -0.1570 -3.5814  1.4261
  557SOL     OW 1669   1.205   0.134   1.358  0.1510 -0.1682  0.2187
  557SOL    HW1 1670   1.175   0.083   1.271  1.9499  0.5674  2.9771
  557SOL    HW2 1671   1.146   0.213   1.380  1.6046  0.2007 -3.1666
  558SOL     OW 1672   0.428   0.539   2.254  0.3190  0.6309 -0.4399
  558SOL    HW1 1673   0.458   0.597   2.335  0.7811  3.5172  1.3953
  558SOL    HW2 1674   0.511   0.506   2.205 -0.3496  0.5894 -2.4851
  559SOL     OW 1675   1.379   2.709   0.242  0.6295 -0.5924  0.3074
  559SOL    HW1 1676   1.426   2.750   0.320 -0.2661 -1.5221 -1.4184
  559SOL    HW2 1677   1.448   2.691   0.166 -1.1772  0.0540  1.8706
  560SOL     OW 1678   1.457   2.068   0.210 -0.2188 -0.2131  0.5344
  560SOL    HW1 1679   1.530   2.005   0.243 -0.1743 -1.1783  1.3710
  560SOL    HW2 1680   1.489   2.159   0.175 -1.2480  0.8754  0.3427
  561SOL     OW 1681   1.394   0.119   0.659  0.8900 -0.1554 -0.0927
  561SOL    HW1 1682   1.444   0.091   0.741 -0.0840  1.2970 -0.9411
  561SOL    HW2 1683   1.296   0.110   0.670  1.3535  0.6744 -3.6668
  562SOL     OW 1684   0.545   0.878   2.107  0.0566 -0.0847 -0.1499
  562SOL    HW1 1685   0.631   0.866   2.052  1.0729  1.6541 -2.8278
  562SOL    HW2 1686   0.574   0.870   2.207 -0.9088 -2.3123  0.9763
  563SOL     OW 1687   1.294   2.345   2.698  0.3539  0.3813  0.2134
  563SOL    HW1 1688   1.236   2.374   2.622 -0.4973 -0.3092  0.7435
  563SOL    HW2 1689   1.392   2.354   2.668 -3.3195  2.6644  0.6127
  564SOL     OW 1690   2.644   0.732   1.074  0.4676 -0.0325  0.3987
  564SOL    HW1 1691   2.644   0.819   1.127 -1.0933  0.0449  3.3537
  564SOL    HW2 1692   2.557   0.720   1.019  1.4470  0.4253  0.3128
  565SOL     OW 1693   1.175   1.257   0.087  0.2333 -0.1310 -0.3661
  565SOL    HW1 1694   1.165   1.278   3.064 -0.3273  2.4960 -1.7636
  565SOL    HW2 1695   1.252   1.307   0.136  2.4374 -1.1124  1.0980
  566SOL     OW 1696   2.234   2.805   2.962  0.0521 -0.3071 -0.3389
  566SOL    HW1 1697   2.151   2.860   2.986  1.6578 -0.1185 -1.2295
  566SOL    HW2 1698   2.299   2.798   3.038 -1.4115  1.2890 -0.4347
  567SOL     OW 1699   1.673   0.905   0.930 -0.0137 -0.0064 -0.1197
  567SOL    HW1 1700   1.750   0.935   0.871  1.0070 -0.8375 -0.9280
  567SOL    HW2 1701   1.690   0.923   1.033  2.2501 -0.9068  1.6409
  568SOL     OW 1702   1.532   1.421   2.541  0.1163 -0.2483 -0.1595
  568SOL    HW1 1703   1.440   1.463   2.537 -1.2475  3.3431 -1.2993
  568SOL    HW2 1704   1.570   1.436   2.634  1.5530  2.5702  1.7762
  569SOL     OW 1705   2.023   1.789   0.771  0.3197  0.5536  0.1081
  569SOL    HW1 1706   2.117   1.820   0.751 -2.0404 -0.1807 -1.2400
  569SOL    HW2 1707   1.948   1.845   0.729 -0.6626 -0.7698 -0.2662
  570SOL     OW 1708   2.559   2.195   2.364 -0.0167 -0.4010  0.1756
  570SOL    HW1 1709   2.552   2.250   2.279  2.2269  0.2901 -0.0727
  570SOL    HW2 1710   2.469   2.192   2.410  0.9690 -0.7355 -1.1754
  571SOL     OW 1711   2.692   1.715   1.818 -0.0846  0.3915  0.3659
  571SOL    HW1 1712   2.666   1.802   1.860  0.0802 -1.2080 -2.5690
  571SOL    HW2 1713   2.693   1.725   1.719 -0.6927 -0.0682  1.3452
  572SOL     OW 1714   1.540   2.458   2.929  0.2867 -0.3273 -0.2267
  572SOL    HW1 1715   1.439   2.477   2.924 -0.2235 -1.3599  0.6402
  572SOL    HW2 1716   1.595   2.466   2.843 -0.1985 -1.3656 -1.0637
  573SOL     OW 1717   1.537   2.149   1.247  0.0308  0.3306  0.1554
  573SOL    HW1 1718   1.531   2.111   1.341 -1.6368 -1.7413  1.6699
  573SOL    HW2 1719   1.588   2.230   1.242 -0.2975 -4.8826 -0.1864
  574SOL     OW 1720   1.014   2.759   1.345 -0.1644 -0.4961  0.4077
  574SOL    HW1 1721   0.951   2.693   1.390  0.4849 -0.1489  0.2743
  574SOL    HW2 1722   1.016   2.848   1.389  1.3142  0.7612  1.0290
  575SOL     OW 1723   0.843   0.677   0.966  0.2365 -0.1234  0.2152
  575SOL    HW1 1724   0.943   0.664   0.976  0.0822  0.2546 -3.8309
  575SOL    HW2 1725   0.828   0.775   0.948 -3.3304  0.4130 -0.2021
  576SOL     OW 1726   2.431   0.470   1.398  0.0251 -0.0725  0.5006
  576SOL    HW1 1727   2.488   0.487   1.314  0.9143  1.9310  0.1120
  576SOL    HW2 1728   2.484   0.418   1.466  0.3457 -2.6252 -1.4208
  577SOL     OW 1729   2.401   0.208   2.582  0.2745  0.5185 -0.4952
  577SOL    HW1 1730   2.394   0.297   2.629  1.9797 -0.7937  1.8994
  577SOL    HW2 1731   2.342   0.209   2.499  0.7312  2.2919  0.4771
  578SOL     OW 1732   2.061   1.882   2.030  0.3294 -0.2662  0.9109
  578SOL    HW1 1733   1.997   1.804   2.033  3.2993 -3.0138 -0.1767
  578SOL    HW2 1734   2.046   1.939   1.946 -1.7420  3.0181 -1.2890
  579SOL     OW 1735   0.570   1.579   1.106  0.3713  0.7705 -0.0163
  579SOL    HW1 1736   0.650   1.527   1.062 -1.0922  1.9670  0.9955
  579SOL    HW2 1737   0.480   1.540   1.079 -0.9494  0.8552 -0.8227
  580SOL     OW 1738   1.509   2.611   2.581  0.2011  0.3739 -0.3157
  580SOL    HW1 1739   1.429   2.607   2.519 -1.6070  0.1955 -1.2007
  580SOL    HW2 1740   1.536   2.704   2.607 -0.8775  0.1955 -0.1376
  581SOL     OW 1741   0.689   0.497   2.208  0.6315 -0.4395 -0.2881
  581SOL    HW1 1742   0.738   0.422   2.258  1.8665  1.5084 -0.2161
  581SOL    HW2 1743   0.759   0.565   2.174 -1.6607  0.8881  0.4542
  582SOL     OW 1744   0.388   0.690   0.714 -0.0316  0.0891 -0.3778
  582SOL    HW1 1745   0.485   0.657   0.690 -0.5205 -1.1603 -0.5829
  582SOL    HW2 1746   0.325   0.613   0.701 -0.3827 -1.8068 -1.3474
  583SOL     OW 1747   0.849   1.539   1.962 -0.2150  0.2811 -0.0859
  583SOL    HW1 1748   0.754   1.513   1.935 -0.4682  0.7234  2.0206
  583SOL    HW2 1749   0.850   1.637   1.982 -1.8943  0.1521 -0.6638
  584SOL     OW 1750   2.255   2.770   0.304  0.0169 -0.0853 -0.3149
  584SOL    HW1 1751   2.182   2.785   0.236  2.4779 -2.5686  1.3361
  584SOL    HW2 1752   2.345   2.815   0.270  1.7130  1.0313 -0.0704
  585SOL     OW 1753   2.313   0.708   2.760 -0.0036  0.6182 -0.5989
  585SOL    HW1 1754   2.263   0.794   2.755 -0.5989 -0.5372  3.5189
  585SOL    HW2 1755   2.323   0.682   2.856  0.7207  0.8607  0.3964
  586SOL     OW 1756   0.633   1.703   0.399 -0.3482 -0.0995 -0.3815
  586SOL    HW1 1757   0.547   1.667   0.442 -1.4103  1.8012 -0.2470
  586SOL    HW2 1758   0.706   1.707   0.472 -1.6621 -0.8398  2.3496
  587SOL     OW 1759   1.553   1.902   1.000 -0.1402  0.1590 -0.2748
  587SOL    HW1 1760   1.631   1.922   1.061  0.3474 -3.2021  1.4487
  587SOL    HW2 1761   1.475   1.958   1.032 -2.4404 -2.7639  1.1678
  588SOL     OW 1762   0.529   0.396   1.038 -0.1048 -0.1536  0.7743
  588SOL    HW1 1763   0.618   0.414   1.083 -1.0024 -2.4642 -0.5165
  588SOL    HW2 1764   0.544   0.384   0.939  1.8317  1.0224 -0.3594
  589SOL     OW 1765   1.498   2.973   1.137 -0.3215  0.0507 -0.2411
  589SOL    HW1 1766   1.487   2.898   1.068  1.3700  1.3277  1.1224
  589SOL    HW2 1767   1.593   2.981   1.172  0.1264  4.3487  1.9684
  590SOL     OW 1768   1.364   1.048   0.214  0.1205 -0.3913 -0.1342
  590SOL    HW1 1769   1.418   0.969   0.248 -0.8985 -0.2002  0.6161
  590SOL    HW2 1770   1.402   1.075   0.126  1.0568  1.6824  0.1341
  591SOL     OW 1771   2.223   2.178   2.180 -0.3781  0.3512  0.0663
  591SOL    HW1 1772   2.235   2.216   2.273 -1.1789 -0.8162 -2.0575
  591SOL    HW2 1773   2.282   2.098   2.164 -0.9909  0.5489 -0.8405
  592SOL     OW 1774   1.512   2.046   1.498  0.4400  0.2118 -0.2904
  592SOL    HW1 1775   1.603   1.999   1.505 -1.0659 -1.2824  1.8594
  592SOL    HW2 1776   1.443   1.970   1.496  0.6718  1.1120 -4.3958
  593SOL     OW 1777   0.907   0.177   0.479  0.3476  0.2474  0.1223
  593SOL    HW1 1778   0.839   0.127   0.538 -1.1612 -1.6369  1.4259
  593SOL    HW2 1779   0.998   0.169   0.522 -2.0823 -0.1116 -1.2653
  594SOL     OW 1780   0.148   0.698   1.854  0.6504 -0.8271  0.5558
  594SOL    HW1 1781   0.110   0.712   1.945 -0.2082  0.2124 -0.8005
  594SOL    HW2 1782   0.233   0.752   1.846  1.9262 -1.1067 -0.5572
  595SOL     OW 1783   2.823   2.812   0.704  0.4579  0.1780 -0.0396
  595SOL    HW1 1784   2.865   2.881   0.644 -0.5324 -3.8620 -1.2625
  595SOL    HW2 1785   2.770   2.846   0.782  0.1680  3.7259 -0.7291
  596SOL     OW 1786   0.133   0.488   1.469 -1.2534 -0.6615 -0.7353
  596SOL    HW1 1787   0.136   0.517   1.372  1.2685 -4.6946 -1.0496
  596SOL    HW2 1788   0.126   0.386   1.473 -1.0386 -1.6238 -0.9833
  597SOL     OW 1789   2.343   0.988   0.487  0.2448 -0.1275 -0.0277
  597SOL    HW1 1790   2.361   1.089   0.471 -2.7616  1.6314 -0.1430
  597SOL    HW2 1791   2.244   0.969   0.504  0.1777  0.6833 -1.7911
  598SOL     OW 1792   0.549   0.121   1.860 -0.2381 -0.0165  0.7446
  598SOL    HW1 1793   0.467   0.057   1.851  0.3550  1.6264  1.6323
  598SOL    HW2 1794   0.522   0.217   1.839  0.3551  0.5093 -0.1111
  599SOL     OW 1795   2.594   1.637   0.139  0.1121 -0.0265  0.5395
  599SOL    HW1 1796   2.645   1.718   0.169 -0.0135  0.4767  0.1348
  599SOL    HW2 1797   2.634   1.602   0.050 -0.4902  0.0831 -0.2487
  600SOL     OW 1798   0.909   1.078   2.958 -0.9835 -0.2156  0.1700
  600SOL    HW1 1799   0.815   1.074   2.912 -1.9022 -0.9845 -2.3223
  600SOL    HW2 1800   0.912   1.064   3.061 -1.6576  2.5465 -1.6746
  601SOL     OW 1801   1.135   1.171   2.833  0.2235 -0.2464  0.0833
  601SOL    HW1 1802   1.126   1.266   2.792  0.5877  0.3448 -0.0569
  601SOL    HW2 1803   1.049   1.137   2.880 -2.2603 -3.0339  1.6693
  602SOL     OW 1804   1.107   2.984   1.494  0.0038  0.1048 -0.8446
  602SOL    HW1 1805   1.110   2.971   1.597 -2.4351  1.6333  1.6042
  602SOL    HW2 1806   1.163   3.064   1.461  3.7601  2.8587 -0.9856
  603SOL     OW 1807   0.954   2.839   2.380 -0.2507 -0.2532  0.3584
  603SOL    HW1 1808   0.890   2.763   2.376  2.0635  0.0701 -0.1088
  603SOL    HW2 1809   1.045   2.809   2.419  1.4965 -1.1359 -0.9598
  604SOL     OW 1810   2.860   0.106   2.086 -0.5336 -0.2125  0.0937
  604SOL    HW1 1811   2.818   0.202   2.094 -1.4479  2.1470 -0.8712
  604SOL    HW2 1812   2.882   0.054   2.175 -0.9978 -1.8029 -0.2556
  605SOL     OW 1813   2.496   2.377   1.469  0.0975  0.6272  0.2539
  605SOL    HW1 1814   2.472   2.340   1.562 -0.8902 -0.0033  1.1772
  605SOL    HW2 1815   2.445   2.468   1.460 -3.2692 -0.1298  0.7648
  606SOL     OW 1816   2.808   1.847   2.726  0.6426  0.7175 -0.5891
  606SOL    HW1 1817   2.775   1.945   2.714 -0.9933  0.4875  0.3507
  606SOL    HW2 1818   2.816   1.818   2.826 -1.2328  0.9586  4.2242
  607SOL     OW 1819   1.091   0.161   0.659  0.0390  0.2625 -0.0059
  607SOL    HW1 1820   1.095   0.262   0.661  3.2062 -1.3816 -0.6182
  607SOL    HW2 1821   1.124   0.117   0.744 -1.7045  1.6302 -1.1881
  608SOL     OW 1822   1.603   1.595   2.306 -0.0482 -0.6070 -0.0623
  608SOL    HW1 1823   1.599   1.554   2.403 -0.9249 -3.0050  2.6515
  608SOL    HW2 1824   1.661   1.543   2.238 -2.0772 -1.0266 -1.6301
  609SOL     OW 1825   2.910   0.665   1.001 -0.5426  0.8120  0.2087
  609SOL    HW1 1826   2.947   0.681   1.094 -2.4325  1.1915  2.5364
  609SOL    HW2 1827   2.814   0.702   0.993  0.7531  0.8914  0.4828
  610SOL     OW 1828   0.705   2.463   0.137 -0.1097  0.7851  0.2427
  610SOL    HW1 1829   0.811   2.475   0.122 -0.8225 -2.2312  1.5584
  610SOL    HW2 1830   0.678   2.365   0.128 -0.6454 -0.4413  0.8920
  611SOL     OW 1831   2.055   1.231   0.474 -0.2975 -0.5290  0.2127
  611SOL    HW1 1832   2.031   1.271   0.381 -0.7453  3.3173 -2.3266
  611SOL    HW2 1833   2.121   1.300   0.513  1.2313  0.3533  2.1076
  612SOL     OW 1834   0.877   2.480   2.450 -0.5551 -0.3174  0.6573
  612SOL    HW1 1835   0.948   2.518   2.516  0.5186 -0.8537  0.1030
  612SOL    HW2 1836   0.837   2.558   2.398  0.1456  0.5747  1.6875
  613SOL     OW 1837   1.326   1.658   0.290  0.4197  0.5037 -0.2675
  613SOL    HW1 1838   1.409   1.622   0.336 -2.3604  0.8410 -1.6688
  613SOL    HW2 1839   1.289   1.734   0.348  1.0620  0.7488  1.0954
  614SOL     OW 1840   2.556   2.124   1.759 -0.3263 -0.3309  0.4421
  614SOL    HW1 1841   2.576   2.069   1.675 -0.0506 -0.2330 -1.0404
  614SOL    HW2 1842   2.638   2.134   1.820 -1.0386 -2.7707 -3.0658
  615SOL     OW 1843   2.528   1.295   0.005 -0.3965  0.1205  0.4499
  615SOL    HW1 1844   2.581   1.354   3.014  3.1939 -1.5643 -2.3901
  615SOL    HW2 1845   2.428   1.303   3.058  1.5763  0.1061  1.3632
  616SOL     OW 1846   1.563   0.044   0.888 -0.0949  0.0427  0.4894
  616SOL    HW1 1847   1.634   0.110   0.898  0.7931  0.5173 -0.0861
  616SOL    HW2 1848   1.513   0.027   0.972  1.2405 -1.5309 -1.7105
  617SOL     OW 1849   0.681   1.014   2.805  0.3055  0.5089  0.5197
  617SOL    HW1 1850   0.611   0.967   2.746  0.9067  0.4384 -0.7352
  617SOL    HW2 1851   0.650   1.109   2.825  1.0521  2.1878  1.0871
  618SOL     OW 1852   0.518   0.553   1.497  0.9208 -0.0847 -0.3662
  618SOL    HW1 1853   0.546   0.581   1.590  1.4337  2.9681 -0.3474
  618SOL    HW2 1854   0.562   0.599   1.418 -0.3203 -0.2040 -1.6168
  619SOL     OW 1855   2.910   0.787   1.499  0.1046  0.1636  0.5495
  619SOL    HW1 1856   2.935   0.763   1.403 -2.3388 -0.8371 -0.5232
  619SOL    HW2 1857   2.991   0.753   1.558  0.5266 -0.9552 -0.6045
  620SOL     OW 1858   1.890   1.320   3.064 -0.2954  0.1631 -0.1813
  620SOL    HW1 1859   1.861   1.226   3.064  2.2188  0.4572  0.1708
  620SOL    HW2 1860   1.809   1.380   3.047  1.0645  1.6896  0.3798
  621SOL     OW 1861   2.334   0.027   1.165 -0.3319  0.5398  0.2936
  621SOL    HW1 1862   2.421   0.066   1.124 -0.9665 -1.9442 -0.7081
  621SOL    HW2 1863   2.269   0.098   1.193  0.8446  1.0648  0.9996
  622SOL     OW 1864   1.485   0.763   2.116  0.1674  0.6593 -0.4760
  622SOL    HW1 1865   1.581   0.777   2.080 -0.4183 -2.3785 -0.6009
  622SOL    HW2 1866   1.487   0.722   2.207  1.8131  0.8087 -0.1812
  623SOL     OW 1867   1.036   0.563   2.819 -0.2595 -0.1147 -0.2926
  623SOL    HW1 1868   0.950   0.527   2.857  0.1094 -1.9550 -0.9024
  623SOL    HW2 1869   1.042   0.660   2.821 -0.4024 -3.4292 -1.7831
  624SOL     OW 1870   1.839   0.508   0.732 -0.0504  0.3467 -0.0286
  624SOL    HW1 1871   1.739   0.521   0.719  2.6942  1.4690 -0.1750
  624SOL    HW2 1872   1.868   0.427   0.678  1.6620 -0.2113 -0.9924
  625SOL     OW 1873   0.859   1.503   0.797 -0.1990 -0.6106  0.1544
  625SOL    HW1 1874   0.958   1.483   0.797  1.1151 -0.8031 -0.2448
  625SOL    HW2 1875   0.835   1.552   0.713 -0.6826 -2.0876  2.9139
  626SOL     OW 1876   1.632   1.127   2.697 -0.1752  0.1874 -0.3386
  626SOL    HW1 1877   1.639   1.230   2.693  0.7526  1.2892 -0.0330
  626SOL    HW2 1878   1.566   1.090   2.766  0.7075  0.5008  0.6454
  627SOL     OW 1879   0.752   0.365   1.595 -0.3381  0.1146 -0.1034
  627SOL    HW1 1880   0.768   0.277   1.644  0.1297  0.9301 -2.4476
  627SOL    HW2 1881   0.665   0.402   1.630 -0.9714  0.3324  0.7611
  628SOL     OW 1882   2.251   0.544   2.304 -0.1009  0.0361 -0.0928
  628SOL    HW1 1883   2.172   0.586   2.355 -1.6766  0.8250  3.7917
  628SOL    HW2 1884   2.335   0.565   2.358  2.9264  1.8037  0.0546
  629SOL     OW 1885   0.892   1.400   2.874  0.1686  0.0619 -0.0772
  629SOL    HW1 1886   0.974   1.404   2.933 -0.3040  0.6340  0.0250
  629SOL    HW2 1887   0.819   1.464   2.909 -1.1003 -0.7993 -0.6879
  630SOL     OW 1888   1.023   0.391   2.223  0.5412  0.3748  0.3607
  630SOL    HW1 1889   1.015   0.478   2.284 -0.0815  0.6798  2.9313
  630SOL    HW2 1890   0.951   0.330   2.251  2.0787  3.8310 -0.4245
  631SOL     OW 1891   2.615   1.197   0.997 -0.2835 -0.2853  0.6193
  631SOL    HW1 1892   2.631   1.283   1.044 -1.4509 -1.9489 -1.2437
  631SOL    HW2 1893   2.524   1.206   0.951 -0.4823  1.4634 -1.9894
  632SOL     OW 1894   2.512   1.462   0.707  0.1887  0.0820 -0.1379
  632SOL    HW1 1895   2.610   1.474   0.680 -0.2059 -1.5811  2.8197
  632SOL    HW2 1896   2.453   1.477   0.628 -0.1316  0.4998 -2.5294
  633SOL     OW 1897   1.026   1.211   0.859  0.1218 -0.1898 -0.0021
  633SOL    HW1 1898   0.975   1.215   0.945  1.5756 -1.7221 -5.5329
  633SOL    HW2 1899   1.081   1.294   0.840  0.2544  0.7411  1.4116
  634SOL     OW 1900   1.752   2.927   0.809 -0.0475  0.8858  0.4430
  634SOL    HW1 1901   1.661   2.972   0.833 -1.9722  0.7100  1.1497
  634SOL    HW2 1902   1.741   2.823   0.819  0.2638 -2.8984  0.1451
  635SOL     OW 1903   1.726   0.548   1.354  0.2936 -0.0725  0.2138
  635SOL    HW1 1904   1.818   0.593   1.356 -1.4726 -2.1178 -1.0943
  635SOL    HW2 1905   1.712   0.486   1.437  0.5904 -1.6587 -0.1601
  636SOL     OW 1906   1.371   0.717   0.612 -0.1918 -0.3765 -0.5955
  636SOL    HW1 1907   1.271   0.713   0.634  0.3641  0.4867  0.2760
  636SOL    HW2 1908   1.410   0.804   0.643  1.5065 -0.9535 -1.1806
  637SOL     OW 1909   1.559   2.247   0.016 -0.0322  0.0996  0.3659
  637SOL    HW1 1910   1.553   2.323   3.027 -0.9391  1.3805  1.9087
  637SOL    HW2 1911   1.612   2.172   3.049  0.7744  0.4885 -2.9309
  638SOL     OW 1912   1.095   2.717   2.905 -0.0642 -0.4347 -0.1995
  638SOL    HW1 1913   1.024   2.643   2.905 -3.1263 -0.2905  1.1849
  638SOL    HW2 1914   1.048   2.801   2.870  3.7810 -1.9095 -0.4080
  639SOL     OW 1915   1.314   1.833   1.488 -0.7650 -0.7375  0.2742
  639SOL    HW1 1916   1.337   1.738   1.455  0.6416  0.2786 -0.5458
  639SOL    HW2 1917   1.218   1.856   1.465 -0.0488  0.4506  3.7729
  640SOL     OW 1918   0.589   2.865   0.139 -0.2108 -0.0255 -0.4782
  640SOL    HW1 1919   0.516   2.856   0.071  2.3304  3.9090  1.4999
  640SOL    HW2 1920   0.683   2.860   0.095  0.1462 -1.2285 -1.9078
  641SOL     OW 1921   0.066   0.422   0.231  0.2022 -0.5004  0.1794
  641SOL    HW1 1922   0.072   0.329   0.285  0.0814 -4.5806  0.8347
  641SOL    HW2 1923   0.121   0.492   0.284  0.9162  0.0343 -2.5508
  642SOL     OW 1924   0.328   1.524   1.043 -0.0728 -0.0626 -0.5426
  642SOL    HW1 1925   0.269   1.600   0.996 -1.4451  2.8167 -0.3092
  642SOL    HW2 1926   0.286   1.499   1.131  1.3636  0.9547 -0.5935
  643SOL     OW 1927   0.488   1.823   2.535 -0.2727 -0.3645  0.3811
  643SOL    HW1 1928   0.524   1.919   2.513  1.2944  2.4456 -0.4845
  643SOL    HW2 1929   0.393   1.820   2.508  4.1563 -0.9135  1.0821
  644SOL     OW 1930   1.674   2.481   0.261 -0.1928 -0.0199  0.0224
  644SOL    HW1 1931   1.734   2.415   0.209  0.1249  2.6637 -0.1391
  644SOL    HW2 1932   1.603   2.433   0.320  1.4171 -1.8159  1.2520
  645SOL     OW 1933   1.776   2.250   1.675 -0.1740 -0.1445 -0.3429
  645SOL    HW1 1934   1.701   2.284   1.732  2.7969  4.4086 -2.3486
  645SOL    HW2 1935   1.833   2.333   1.669 -2.9049  1.8480  1.8648
  646SOL     OW 1936   0.985   2.727   0.439  0.7288  0.0596  0.1460
  646SOL    HW1 1937   1.003   2.814   0.387  0.3381 -1.0174  1.0880
  646SOL    HW2 1938   0.885   2.705   0.424 -0.0228 -0.6845  0.3909
  647SOL     OW 1939   0.138   3.037   2.000 -0.0851 -0.2089 -0.0120
  647SOL    HW1 1940   0.097   0.047   1.971  0.2810  2.2929  2.5815
  647SOL    HW2 1941   0.157   3.033   2.101 -2.2844 -0.5819  0.8737
  648SOL     OW 1942   2.778   1.163   0.792  0.1953  0.0682  0.0625
  648SOL    HW1 1943   2.830   1.080   0.767 -0.4799  0.7320 -2.0861
  648SOL    HW2 1944   2.716   1.154   0.874  1.8613 -0.2731  0.0075
  649SOL     OW 1945   2.016   2.779   2.618 -0.2537 -0.1196  0.0231
  649SOL    HW1 1946   1.984   2.708   2.555  0.7646  0.5136 -0.4025
  649SOL    HW2 1947   1.982   2.875   2.600 -1.5636 -0.2695 -1.1648
  650SOL     OW 1948   2.417   1.526   1.824 -0.1841  0.4730  0.0413
  650SOL    HW1 1949   2.352   1.448   1.826 -0.8032  0.7072  1.1979
  650SOL    HW2 1950   2.514   1.493   1.809  1.4304 -1.7572  1.0988
  651SOL     OW 1951   1.222   1.777   2.689 -0.3892 -0.4298  0.1676
  651SOL    HW1 1952   1.136   1.756   2.738  1.7297 -0.5532 -0.2454
  651SOL    HW2 1953   1.302   1.786   2.749 -1.1306 -1.8256  0.5006
  652SOL     OW 1954   0.685   2.826   2.817  0.4066  0.1656 -0.6433
  652SOL    HW1 1955   0.777   2.864   2.850  1.7568 -1.4700  1.4036
  652SOL    HW2 1956   0.611   2.896   2.820 -1.2355  0.4793 -4.7374
  653SOL     OW 1957   2.259   2.079   1.011 -1.0643  0.5521 -0.1539
  653SOL    HW1 1958   2.345   2.057   1.057 -3.5075  1.5719  0.5462
  653SOL    HW2 1959   2.226   2.166   1.041 -1.0238 -2.1440 -1.3904
  654SOL     OW 1960   2.481   2.943   2.035 -0.0570 -0.2366  0.5191
  654SOL    HW1 1961   2.458   3.009   2.104  0.2843 -2.9558 -0.2464
  654SOL    HW2 1962   2.534   2.987   1.961 -2.4063 -0.8448  0.3980
  655SOL     OW 1963   2.725   2.161   1.361  0.5311  0.2400  0.1828
  655SOL    HW1 1964   2.737   2.264   1.349  0.5478  0.1792 -0.4109
  655SOL    HW2 1965   2.756   2.116   1.278  1.1987  0.5423 -0.4842
  656SOL     OW 1966   2.454   1.777   2.884  0.0885 -0.1823 -0.1601
  656SOL    HW1 1967   2.506   1.853   2.850 -2.4339  1.3863 -0.5345
  656SOL    HW2 1968   2.456   1.698   2.823 -0.0053  1.3339  0.9368
  657SOL     OW 1969   0.172   1.089   0.360  0.1934 -0.1343  0.2233
  657SOL    HW1 1970   0.082   1.118   0.329  0.1445  0.1342 -0.2924
  657SOL    HW2 1971   0.173   1.099   0.458 -1.0681 -0.9606 -0.4514
  658SOL     OW 1972   1.353   1.355   1.535  0.3297  0.0900 -0.6728
  658SOL    HW1 1973   1.369   1.448   1.499 -3.5128 -0.7322  0.4520
  658SOL    HW2 1974   1.276   1.354   1.602 -0.5415  3.2316  0.7783
  659SOL     OW 1975   0.713   0.076   1.067  0.6834 -0.3664  0.2384
  659SOL    HW1 1976   0.798   0.111   1.020 -0.0264  1.4065 -1.4766
  659SOL    HW2 1977   0.706   0.109   1.163  1.0940 -1.7136  2.3281
  660SOL     OW 1978   2.371   0.778   1.006 -0.2983 -0.2678  0.4467
  660SOL    HW1 1979   2.388   0.816   0.912 -1.7134 -0.1559 -1.1266
  660SOL    HW2 1980   2.313   0.689   1.007 -1.6133 -0.3391  0.4685
  661SOL     OW 1981   0.428   1.731   0.056 -0.4502 -0.6978  0.0821
  661SOL    HW1 1982   0.504   1.677   0.105  1.6809 -1.1813 -1.1002
  661SOL    HW2 1983   0.473   1.820   0.027 -0.2376  2.6103 -0.3773
  662SOL     OW 1984   2.484   0.960   1.972  0.0941  0.4473 -0.6288
  662SOL    HW1 1985   2.578   0.960   2.016  1.3300  0.0102  0.7350
  662SOL    HW2 1986   2.501   0.917   1.886 -0.2868  3.3049  2.7971
  663SOL     OW 1987   2.037   1.238   1.188 -0.7586  0.5269  0.3357
  663SOL    HW1 1988   1.957   1.186   1.146  1.2648  0.2242 -0.9902
  663SOL    HW2 1989   2.118   1.224   1.134  0.6511  0.4956 -2.5685
  664SOL     OW 1990   0.272   0.055   1.137  0.0073  0.2154 -0.8915
  664SOL    HW1 1991   0.333   0.056   1.064 -1.9984  1.6526  2.9491
  664SOL    HW2 1992   0.198   3.068   1.109  1.0603  1.2011  1.3366
  665SOL     OW 1993   1.706   0.444   2.933 -0.3850  0.2988  0.1110
  665SOL    HW1 1994   1.779   0.388   2.980  3.1920 -0.8520  1.1920
  665SOL    HW2 1995   1.745   0.534   2.914 -0.9260 -0.3042  1.2525
  666SOL     OW 1996   0.639   0.077   2.119  0.1384  0.3744  0.4756
  666SOL    HW1 1997   0.617   0.088   2.019  2.4104  2.1490 -2.4862
  666SOL    HW2 1998   0.665   3.063   2.146 -0.5954  1.2590 -0.2962
  667SOL     OW 1999   1.912   1.651   1.771  0.3794 -0.5224 -0.4726
  667SOL    HW1 2000   1.980   1.725   1.751 -0.4411 -0.0539  1.8527
  667SOL    HW2 2001   1.897   1.644   1.871  2.2799  0.9387  1.3358
  668SOL     OW 2002   0.111   1.407   2.227  0.3436 -1.0138 -0.4368
  668SOL    HW1 2003   0.150   1.316   2.245  2.0246 -0.5225  3.2480
  668SOL    HW2 2004   0.013   1.396   2.201 -1.4131  1.1870 -0.2303
  669SOL     OW 2005   2.443   2.758   0.060 -0.0430  0.2315  0.4107
  669SOL    HW1 2006   2.524   2.760   3.069 -0.3900  1.4422  0.7570
  669SOL    HW2 2007   2.400   2.850   0.077  0.4567 -0.4520 -0.0063
  670SOL     OW 2008   2.614   1.292   2.046  0.0870  0.1088  0.3597
  670SOL    HW1 2009   2.673   1.210   2.064 -5.0938 -1.2193 -0.1213
  670SOL    HW2 2010   2.628   1.366   2.107  4.6923 -3.2023  0.7200
  671SOL     OW 2011   2.431   1.837   0.387 -0.1306 -0.5648  0.3293
  671SOL    HW1 2012   2.469   1.748   0.410  0.8453 -1.2346 -1.6802
  671SOL    HW2 2013   2.461   1.913   0.453 -0.7013  1.0744  0.1280
  672SOL     OW 2014   1.440   1.308   2.198 -0.1965 -0.1626 -0.2909
  672SOL    HW1 2015   1.437   1.291   2.096 -0.0098  1.5009 -2.8693
  672SOL    HW2 2016   1.352   1.355   2.223 -0.5464  1.9632 -5.0040
  673SOL     OW 2017   2.931   1.940   1.435 -0.6209 -0.3454 -0.5711
  673SOL    HW1 2018   2.876   2.016   1.479  0.0014  1.4635  0.4780
  673SOL    HW2 2019   3.003   1.974   1.375  0.4365 -0.5387  0.6187
  674SOL     OW 2020   1.210   1.586   1.745  0.3517 -0.4447 -0.0906
  674SOL    HW1 2021   1.159   1.522   1.677 -3.3652 -2.7212 -2.1773
  674SOL    HW2 2022   1.163   1.675   1.747 -0.4495  0.0059 -2.2731
  675SOL     OW 2023   0.164   0.849   1.016  0.3352 -0.5600 -0.3402
  675SOL    HW1 2024   0.163   0.751   1.038  1.1124  2.9178  0.1796
  675SOL    HW2 2025   0.186   0.894   1.101 -0.5084 -1.6989 -1.1132
  676SOL     OW 2026   2.949   1.201   0.996 -0.5426  0.8076  0.2780
  676SOL    HW1 2027   2.880   1.188   0.921 -1.9360 -0.4794  1.5877
  676SOL    HW2 2028   2.961   1.118   1.054 -1.8281 -0.1574 -0.1151
  677SOL     OW 2029   1.877   1.518   2.389  0.0140 -0.4561 -0.3367
  677SOL    HW1 2030   1.915   1.441   2.338  2.8532  2.0017 -2.6298
  677SOL    HW2 2031   1.954   1.592   2.407  2.1551  0.9320 -1.5001
  678SOL     OW 2032   2.834   1.595   1.035 -1.1267 -0.3454  0.7194
  678SOL    HW1 2033   2.817   1.581   0.934  0.7213 -1.4977 -0.4619
  678SOL    HW2 2034   2.892   1.677   1.039 -2.1883 -4.5308  1.1446
  679SOL     OW 2035   0.517   2.723   0.560 -0.4904 -0.6784 -0.3533
  679SOL    HW1 2036   0.540   2.625   0.585 -0.1748  0.6710  0.5829
  679SOL    HW2 2037   0.538   2.782   0.643 -2.4597  2.1204 -1.1823
  680SOL     OW 2038   0.170   1.690   0.916  0.0804  0.0065 -0.0819
  680SOL    HW1 2039   0.099   1.745   0.965 -2.1725  2.2882  0.3485
  680SOL    HW2 2040   0.131   1.644   0.833  0.4652 -1.1236  0.0683
  681SOL     OW 2041   0.947   0.158   0.974  0.2815  0.3490 -0.1462
  681SOL    HW1 2042   0.993   0.239   1.024  0.9351  1.5842 -1.9900
  681SOL    HW2 2043   0.998   0.070   0.957  1.9247  0.3052 -0.1857
  682SOL     OW 2044   1.504   2.931   1.531  0.2370 -0.2081  0.9735
  682SOL    HW1 2045   1.473   2.941   1.627  1.3556 -0.6620 -3.5793
  682SOL    HW2 2046   1.601   2.905   1.521  1.0157 -1.2540  0.3913
  683SOL     OW 2047   2.354   1.393   1.313 -0.0371 -0.0170  0.8037
  683SOL    HW1 2048   2.261   1.434   1.302 -0.5278 -0.1948  1.7454
  683SOL    HW2 2049   2.427   1.465   1.308 -1.4811  0.3183 -0.0299
  684SOL     OW 2050   3.066   1.331   1.654 -0.4180 -0.4344  0.1740
  684SOL    HW1 2051   2.985   1.387   1.630  0.3916 -0.0991 -1.8245
  684SOL    HW2 2052   0.008   1.336   1.752  1.1827 -0.7747 -2.3623
  685SOL     OW 2053   1.765   1.587   0.280  0.4641 -0.1598  0.0945
  685SOL    HW1 2054   1.682   1.648   0.267 -2.9458 -0.3476 -1.8021
  685SOL    HW2 2055   1.777   1.526   0.200  0.6762 -2.3216 -0.3986
  686SOL     OW 2056   3.006   0.686   1.255 -0.0703  0.4584  0.0419
  686SOL    HW1 2057   0.030   0.674   1.231  1.3084 -3.4714  0.3212
  686SOL    HW2 2058   2.964   0.594   1.268  0.5656  2.2221 -4.0770
  687SOL     OW 2059   1.760   0.124   2.780 -0.4139  0.5426 -0.7319
  687SOL    HW1 2060   1.701   0.067   2.845 -2.1315 -0.9973 -1.7250
  687SOL    HW2 2061   1.703   0.195   2.739  0.9158  0.1544  0.3791
  688SOL     OW 2062   1.029   2.142   2.453  0.7174 -0.0915 -0.1820
  688SOL    HW1 2063   1.094   2.221   2.452  2.1373 -1.8078 -2.0104
  688SOL    HW2 2064   1.077   2.058   2.418  1.0796 -0.4686 -1.2183
  689SOL     OW 2065   2.261   1.299   1.798  0.0929 -0.7119 -0.0674
  689SOL    HW1 2066   2.298   1.241   1.876  0.0020 -0.1391 -0.6373
  689SOL    HW2 2067   2.246   1.248   1.706 -3.7209  1.1148 -2.8956
  690SOL     OW 2068   2.191   2.108   1.553  0.0210  0.3853  1.2379
  690SOL    HW1 2069   2.173   2.031   1.615  1.1677  0.7225 -1.1197
  690SOL    HW2 2070   2.142   2.098   1.465 -0.2922 -2.3867  0.9560
  691SOL     OW 2071   0.412   1.650   0.566  0.0870  0.1820 -0.0623
  691SOL    HW1 2072   0.402   1.720   0.639 -0.3050  1.4550 -1.9497
  691SOL    HW2 2073   0.443   1.567   0.611 -0.8626 -0.6135  1.6407
  692SOL     OW 2074   2.804   2.908   2.648  0.1722  0.1068  0.2243
  692SOL    HW1 2075   2.734   2.890   2.570  0.1656 -0.1420  1.5683
  692SOL    HW2 2076   2.861   2.828   2.664 -3.1446 -0.4809 -2.6926
  693SOL     OW 2077   0.058   1.328   1.908 -0.0758  0.1124 -0.0576
  693SOL    HW1 2078   0.078   1.428   1.918 -1.7275  0.3833 -1.7295
  693SOL    HW2 2079   0.144   1.269   1.884  3.0445 -0.2665  0.6171
  694SOL     OW 2080   2.306   0.248   1.948 -1.1905  0.1901  0.0565
  694SOL    HW1 2081   2.371   0.324   1.949  0.9462  2.7472  2.3334
  694SOL    HW2 2082   2.213   0.289   1.945 -0.2499  0.8463 -1.6608
  695SOL     OW 2083   0.831   0.697   2.148  0.0330 -0.0163  0.5170
  695SOL    HW1 2084   0.836   0.704   2.046  4.1970 -0.9529 -0.9828
  695SOL    HW2 2085   0.886   0.775   2.187 -1.0540 -1.0876  1.0958
  696SOL     OW 2086   1.991   2.748   1.572 -0.1681  0.1440 -0.1227
  696SOL    HW1 2087   1.959   2.700   1.653  1.9607 -1.4816 -0.9763
  696SOL    HW2 2088   1.923   2.803   1.523  1.5246  0.5301  1.4919
  697SOL     OW 2089   1.339   0.305   2.153  0.0327  0.3768 -0.3975
  697SOL    HW1 2090   1.260   0.333   2.207  0.6947 -0.3112 -0.8029
  697SOL    HW2 2091   1.372   0.377   2.085 -0.3586  0.1234 -2.0091
  698SOL     OW 2092   2.312   1.779   2.468  0.6920  0.0388 -0.3833
  698SOL    HW1 2093   2.400   1.806   2.506 -3.5797  0.3597  0.6416
  698SOL    HW2 2094   2.297   1.821   2.375 -1.0776 -0.1792 -0.3366
  699SOL     OW 2095   2.001   0.703   0.095 -0.2529 -0.3847  0.1196
  699SOL    HW1 2096   2.099   0.703   0.057  0.3506 -0.9698 -3.4160
  699SOL    HW2 2097   1.990   0.780   0.156  0.5098 -1.5319  0.2232
  700SOL     OW 2098   1.210   3.057   0.834  0.1270  0.3572 -0.2670
  700SOL    HW1 2099   1.244   0.019   0.923 -0.2050 -1.1756 -0.6688
  700SOL    HW2 2100   1.115   3.015   0.848  1.3331 -0.1568  0.5148
  701SOL     OW 2101   0.082   0.800   0.424 -0.1763  0.2408 -0.4366
  701SOL    HW1 2102   0.159   0.731   0.420 -1.5001  3.5373 -1.1048
  701SOL    HW2 2103   0.122   0.889   0.460 -2.1128  2.0192 -0.3524
  702SOL     OW 2104   1.451   0.109   1.419  0.4039 -0.5129 -0.0603
  702SOL    HW1 2105   1.359   0.130   1.376  1.6434 -0.6098  0.4016
  702SOL    HW2 2106   1.455   0.017   1.450  2.7254  1.4498 -1.4145
  703SOL     OW 2107   2.944   0.963   1.179  0.2215  0.1945  0.2062
  703SOL    HW1 2108   2.845   0.982   1.184  1.2381 -1.6673  0.1659
  703SOL    HW2 2109   2.963   0.879   1.228 -0.3183  1.8231 -1.3101
  704SOL     OW 2110   0.849   2.528   1.407  0.0011 -0.4241  0.3672
  704SOL    HW1 2111   0.893   2.446   1.371 -4.4889 -0.7586 -1.4936
  704SOL    HW2 2112   0.772   2.554   1.344  3.2326 -2.6344  2.2276
  705SOL     OW 2113   0.205   1.702   2.998  0.1297 -0.0671  0.3444
  705SOL    HW1 2114   0.241   1.658   2.914 -0.7413  0.8983 -2.3300
  705SOL    HW2 2115   0.280   1.722   3.064 -1.6382 -2.0708 -1.4056
  706SOL     OW 2116   3.074   0.072   0.123  0.1233 -0.0304  0.4952
  706SOL    HW1 2117   3.045   0.165   0.085 -0.1963  0.7194 -0.5398
  706SOL    HW2 2118   3.007   0.029   0.184  0.5491  0.6146  0.4356
  707SOL     OW 2119   1.611   2.956   2.199 -0.2696  0.2278  0.4320
  707SOL    HW1 2120   1.617   3.043   2.140 -1.8484 -0.2442  1.0190
  707SOL    HW2 2121   1.520   2.911   2.187  0.4851 -0.6354 -2.0395
  708SOL     OW 2122   0.218   2.960   1.549  0.1698 -0.0474  0.2768
  708SOL    HW1 2123   0.283   3.003   1.478 -0.5485  1.0960  0.2992
  708SOL    HW2 2124   0.201   2.856   1.550 -0.2423 -2.0479  0.9846
  709SOL     OW 2125   0.055   0.707   1.613  0.9639 -0.4463 -0.2913
  709SOL    HW1 2126   0.074   0.618   1.568  2.0859  1.3636  0.5347
  709SOL    HW2 2127   0.089   0.710   1.709 -1.6650 -0.4727 -2.2079
  710SOL     OW 2128   0.489   0.942   0.787 -0.3781  0.3155 -0.0614
  710SOL    HW1 2129   0.413   1.012   0.783 -2.8632  1.4159  1.8144
  710SOL    HW2 2130   0.453   0.846   0.788 -3.2760 -1.9289  2.4711
  711SOL     OW 2131   2.237   3.017   1.426  0.7113 -0.0764  0.0004
  711SOL    HW1 2132   2.253   2.923   1.468  0.3739 -0.4129  0.7426
  711SOL    HW2 2133   2.295   3.033   1.345  2.1203 -0.2253 -0.6036
  712SOL     OW 2134   0.177   2.294   2.390 -0.0001 -0.0586  0.1452
  712SOL    HW1 2135   0.086   2.301   2.339 -0.8010  1.6717 -1.8514
  712SOL    HW2 2136   0.175   2.282   2.490  1.0864 -2.3937  3.1159
  713SOL     OW 2137   2.635   0.518   0.741 -0.1342 -0.3413  0.4026
  713SOL    HW1 2138   2.534   0.515   0.714 -2.4615  0.0153  2.4444
  713SOL    HW2 2139   2.697   0.479   0.674 -0.0998 -1.4678  1.6862
  714SOL     OW 2140   1.710   1.970   2.598 -0.2457  0.2950 -0.0790
  714SOL    HW1 2141   1.669   1.924   2.515 -1.1695 -1.9973 -1.7668
  714SOL    HW2 2142   1.751   2.055   2.563 -3.3728  1.4241  0.8753
  715SOL     OW 2143   0.150   0.518   0.928 -0.2272 -0.0941 -0.4254
  715SOL    HW1 2144   0.102   0.436   0.974 -4.1170  0.2175 -0.7926
  715SOL    HW2 2145   0.090   0.561   0.856 -0.7926  2.5088  1.0477
  716SOL     OW 2146   0.791   0.737   1.533  0.1375 -0.9363  0.0818
  716SOL    HW1 2147   0.825   0.835   1.521  1.8774 -0.6167  2.8007
  716SOL    HW2 2148   0.726   0.710   1.462 -2.0525 -0.9569 -1.4373
  717SOL     OW 2149   0.757   0.601   2.486 -0.4908  0.0853  0.0828
  717SOL    HW1 2150   0.766   0.504   2.515 -0.1388 -1.0219 -0.7423
  717SOL    HW2 2151   0.664   0.625   2.481 -0.7173 -0.3901  0.5132
  718SOL     OW 2152   1.110   0.414   0.574  0.3605 -0.0006 -0.0302
  718SOL    HW1 2153   1.041   0.491   0.599  1.6560  0.0429  0.8416
  718SOL    HW2 2154   1.113   0.417   0.470  1.3793  2.5296 -1.3511
  719SOL     OW 2155   2.985   2.305   2.772 -0.3806  0.1387  0.8272
  719SOL    HW1 2156   0.002   2.334   2.739 -0.3297 -0.2854 -0.9500
  719SOL    HW2 2157   2.919   2.386   2.780 -0.3056 -0.5003  0.5432
  720SOL     OW 2158   1.024   0.604   1.615  0.1882 -0.4588  0.3138
  720SOL    HW1 2159   1.082   0.648   1.681 -2.5365 -1.7375 -2.9503
  720SOL    HW2 2160   0.933   0.649   1.622  2.6991 -3.8402  3.4176
  721SOL     OW 2161   2.670   2.867   0.928 -0.1628  0.1151  0.3722
  721SOL    HW1 2162   2.615   2.856   1.015 -1.4701  0.6729  0.2218
  721SOL    HW2 2163   2.613   2.870   0.845 -1.2273 -1.4566 -0.0714
  722SOL     OW 2164   1.008   1.355   2.629  0.2378 -0.0635  0.3340
  722SOL    HW1 2165   0.959   1.378   2.716 -1.3007 -0.1039 -0.9169
  722SOL    HW2 2166   0.948   1.308   2.565  0.5451 -0.6287 -0.6920
  723SOL     OW 2167   2.485   0.740   1.383  0.7543  0.3727  0.3744
  723SOL    HW1 2168   2.418   0.670   1.414 -0.8310 -0.6774 -1.4764
  723SOL    HW2 2169   2.434   0.811   1.326 -0.2020  2.4802 -3.0942
  724SOL     OW 2170   0.991   1.931   0.274 -0.5257  0.3946 -0.1209
  724SOL    HW1 2171   0.996   1.874   0.189 -1.2748 -3.6199 -4.3613
  724SOL    HW2 2172   1.066   1.898   0.337  0.3602  2.5680 -0.7976
  725SOL     OW 2173   0.359   0.777   1.441  0.2448  0.2965  0.7076
  725SOL    HW1 2174   0.428   0.850   1.413  2.0832  1.4958  1.2796
  725SOL    HW2 2175   0.404   0.692   1.470  1.1892 -0.8610  1.8100
  726SOL     OW 2176   2.546   1.085   2.703 -0.0654 -0.2659  0.4665
  726SOL    HW1 2177   2.488   1.063   2.786  0.8213  0.0764 -0.8018
  726SOL    HW2 2178   2.493   1.159   2.651 -4.0368  1.4144 -1.7112
  727SOL     OW 2179   2.029   1.354   2.638  0.4749 -0.0062 -0.0634
  727SOL    HW1 2180   1.967   1.435   2.626  0.5611 -1.2091 -0.9086
  727SOL    HW2 2181   1.996   1.277   2.585  1.3865  2.8198  0.0662
  728SOL     OW 2182   1.623   2.540   1.389  0.3386  0.1817 -0.4719
  728SOL    HW1 2183   1.588   2.625   1.343  0.4745  3.6221  2.2987
  728SOL    HW2 2184   1.555   2.471   1.433 -0.6415  0.0380  1.6473
  729SOL     OW 2185   1.882   0.783   2.233  0.0419 -0.4618 -0.1692
  729SOL    HW1 2186   1.975   0.816   2.216 -1.4518 -0.7189  2.5078
  729SOL    HW2 2187   1.819   0.862   2.257 -0.4337 -0.7860 -0.2274
  730SOL     OW 2188   1.115   0.613   0.981 -0.2632  0.5163 -0.3825
  730SOL    HW1 2189   1.192   0.659   1.024  1.3169  1.2594 -0.0378
  730SOL    HW2 2190   1.082   0.530   1.032  2.1305  1.0482 -2.0618
  731SOL     OW 2191   0.555   0.509   2.807  0.4231  0.0478  0.5685
  731SOL    HW1 2192   0.628   0.582   2.826  0.9202  0.3173 -0.8327
  731SOL    HW2 2193   0.463   0.552   2.802  0.5700  1.5315 -2.1299
  732SOL     OW 2194   0.401   0.844   0.462  0.0142 -0.3903  0.1971
  732SOL    HW1 2195   0.473   0.911   0.493  0.8497  1.7715 -0.5331
  732SOL    HW2 2196   0.358   0.795   0.539 -1.3048  0.8039 -1.8240
  733SOL     OW 2197   1.412   1.620   2.120 -0.4054  0.2448  0.8079
  733SOL    HW1 2198   1.321   1.622   2.160  1.1963  0.0298 -0.1893
  733SOL    HW2 2199   1.480   1.614   2.197 -0.3201 -0.5110  1.8169
  734SOL     OW 2200   0.101   2.462   3.011  0.5151 -0.3641 -0.2611
  734SOL    HW1 2201   0.072   2.556   3.042 -0.7833  0.2088 -0.1322
  734SOL    HW2 2202   0.144   2.463   2.919 -2.3033 -1.5466 -0.3449
  735SOL     OW 2203   2.364   0.469   0.681  0.4739 -0.0344  0.2339
  735SOL    HW1 2204   2.280   0.521   0.702 -2.0720  0.5930  0.5752
  735SOL    HW2 2205   2.378   0.459   0.579  0.1663 -0.0640 -1.8578
  736SOL     OW 2206   2.063   1.701   2.430  0.1512  0.3278  0.4063
  736SOL    HW1 2207   2.164   1.709   2.420  1.1546  1.2470 -1.0301
  736SOL    HW2 2208   2.023   1.793   2.422  1.4659 -0.4111  1.2462
  737SOL     OW 2209   2.949   0.682   0.546  0.1243 -0.0375 -0.0138
  737SOL    HW1 2210   2.873   0.705   0.482  1.6982  0.3183 -1.4465
  737SOL    HW2 2211   3.022   0.744   0.518 -0.2041  0.1089 -1.1490
  738SOL     OW 2212   0.723   2.173   1.570  0.3927  0.0924 -0.8679
  738SOL    HW1 2213   0.793   2.154   1.637  0.3010  1.7328 -1.1553
  738SOL    HW2 2214   0.640   2.225   1.608 -1.6940  0.4049 -0.9818
  739SOL     OW 2215   1.354   2.850   2.143  0.2076 -0.0657  0.3753
  739SOL    HW1 2216   1.311   2.804   2.060 -1.6331  0.7358 -1.8288
  739SOL    HW2 2217   1.318   2.940   2.159  0.4033 -2.0303 -1.9793
  740SOL     OW 2218   1.830   2.416   1.204  0.1036  0.0385 -0.3293
  740SOL    HW1 2219   1.763   2.461   1.265  0.2190 -2.3920 -0.8981
  740SOL    HW2 2220   1.920   2.460   1.224  0.5421 -0.3441  2.0161
  741SOL     OW 2221   2.174   0.191   3.069  0.0136  0.6423  0.0036
  741SOL    HW1 2222   2.181   0.285   0.031  0.0924 -1.7667  0.0008
  741SOL    HW2 2223   2.119   0.132   0.055 -0.8124  0.0870  1.1953
  742SOL     OW 2224   1.267   2.392   0.056 -0.0466  0.1191 -0.0108
  742SOL    HW1 2225   1.229   2.460   3.067  1.3807  2.2765 -0.5318
  742SOL    HW2 2226   1.369   2.398   0.064  2.4549  2.2129  2.1497
  743SOL     OW 2227   2.382   1.200   2.019  0.1973 -0.2478 -0.2071
  743SOL    HW1 2228   2.468   1.255   2.027 -2.3251 -0.9714  0.0420
  743SOL    HW2 2229   2.411   1.107   1.989 -0.7001 -1.0330  1.0324
  744SOL     OW 2230   2.766   0.423   0.513  0.1358 -0.7692  0.1607
  744SOL    HW1 2231   2.764   0.369   0.423 -0.8373  2.6522  1.2161
  744SOL    HW2 2232   2.802   0.516   0.501 -2.2824 -0.8888 -1.3731
  745SOL     OW 2233   2.420   1.130   1.395  0.3558  0.2284 -0.0225
  745SOL    HW1 2234   2.328   1.143   1.440  0.5451  2.8827  1.4327
  745SOL    HW2 2235   2.444   1.224   1.354  2.8133  3.0884 -2.1780
  746SOL     OW 2236   1.121   1.464   0.814  0.0725 -0.0970 -0.3505
  746SOL    HW1 2237   1.169   1.533   0.872  0.5049  0.1866  2.3059
  746SOL    HW2 2238   1.160   1.469   0.718  1.6991 -0.4861 -2.0086
  747SOL     OW 2239   1.133   1.531   1.146 -0.3481  0.7931  0.0183
  747SOL    HW1 2240   1.100   1.586   1.227  0.5882  0.7721  1.4650
  747SOL    HW2 2241   1.103   1.436   1.154 -2.5317 -1.0743 -2.6964
  748SOL     OW 2242   0.357   2.829   3.070 -0.0809  0.0114 -0.0315
  748SOL    HW1 2243   0.395   2.895   3.006 -0.4040  1.0151  2.1499
  748SOL    HW2 2244   0.405   2.741   3.076  0.9081 -0.9193  1.5498
  749SOL     OW 2245   0.080   1.005   2.768 -0.0209  0.6855 -0.0141
  749SOL    HW1 2246   0.019   1.057   2.829 -0.5792  0.6908 -1.1585
  749SOL    HW2 2247   0.033   0.959   2.692  0.1401  2.4762 -1.9338
  750SOL     OW 2248   1.646   0.810   1.779  0.1924  0.3685  0.3164
  750SOL    HW1 2249   1.580   0.734   1.757 -1.5602 -0.3372  1.5894
  750SOL    HW2 2250   1.691   0.796   1.870  1.6509  2.1872 -0.5619
  751SOL     OW 2251   2.740   0.720   0.390  0.1129  0.1373 -0.0927
  751SOL    HW1 2252   2.739   0.666   0.301  1.0897  0.7809  1.2127
  751SOL    HW2 2253   2.666   0.792   0.386 -1.0383  1.8508  1.8901
  752SOL     OW 2254   2.496   2.854   1.132 -0.6463  0.2263  0.6064
  752SOL    HW1 2255   2.510   2.923   1.203 -0.7099 -0.9985  1.2796
  752SOL    HW2 2256   2.398   2.835   1.126  0.6138  1.4320  0.0153
  753SOL     OW 2257   0.841   2.265   1.288  0.2447  0.1562  0.3106
  753SOL    HW1 2258   0.931   2.225   1.310 -1.2498 -0.6780  0.9276
  753SOL    HW2 2259   0.777   2.245   1.364 -1.2716 -0.0367 -1.3638
  754SOL     OW 2260   0.015   2.735   2.223 -0.5507  0.2544  0.0237
  754SOL    HW1 2261   3.008   2.769   2.273  0.1610 -0.0244  0.7911
  754SOL    HW2 2262   0.021   2.777   2.134  2.0124 -1.4285  3.3334
  755SOL     OW 2263   2.524   0.564   0.162 -0.4681 -0.1144  0.3267
  755SOL    HW1 2264   2.620   0.600   0.149  0.3343 -2.5407 -2.7212
  755SOL    HW2 2265   2.473   0.629   0.220 -2.1152  1.6221  0.8529
  756SOL     OW 2266   2.238   2.457   2.931  0.2182  0.0043  0.8093
  756SOL    HW1 2267   2.249   2.534   2.866 -0.5394 -0.8438  2.1183
  756SOL    HW2 2268   2.271   2.481   3.026 -1.0178  0.4273  2.2178
  757SOL     OW 2269   2.387   0.483   0.404 -0.0453 -0.3625 -0.1443
  757SOL    HW1 2270   2.445   0.412   0.352  3.3773 -2.0445  2.3498
  757SOL    HW2 2271   2.287   0.467   0.384 -1.7189 -1.5763  0.3457
  758SOL     OW 2272   2.059   0.940   1.704 -0.1203  0.8421  0.0068
  758SOL    HW1 2273   1.984   0.881   1.663  0.5413 -2.9512  0.5286
  758SOL    HW2 2274   2.151   0.887   1.704  1.0721 -1.4502 -1.6539
  759SOL     OW 2275   2.599   0.471   1.168  0.2952 -0.9862  0.0173
  759SOL    HW1 2276   2.585   0.571   1.168 -0.1725 -3.5368  2.8784
  759SOL    HW2 2277   2.625   0.439   1.077 -0.5909  2.0022  1.5698
  760SOL     OW 2278   0.185   1.467   1.274  0.1324 -0.3038  0.3374
  760SOL    HW1 2279   0.219   1.392   1.335  0.6536  1.5835 -1.6364
  760SOL    HW2 2280   0.087   1.449   1.244 -1.8231 -0.3389  1.0715
  761SOL     OW 2281   0.920   0.716   0.331  0.0294  0.1412 -0.2042
  761SOL    HW1 2282   0.872   0.803   0.332 -1.2244 -3.0743  2.0178
  761SOL    HW2 2283   1.018   0.725   0.307  1.0683  3.1965  3.3167
  762SOL     OW 2284   0.960   1.829   1.123  0.4970 -0.0313 -0.4764
  762SOL    HW1 2285   0.882   1.861   1.066  1.5172  1.8048  1.0213
  762SOL    HW2 2286   1.014   1.759   1.080  3.3499  0.7019  1.3457
  763SOL     OW 2287   1.069   0.650   1.332  0.8273 -0.1095 -0.0577
  763SOL    HW1 2288   1.040   0.649   1.426 -0.9562  2.5359 -1.8459
  763SOL    HW2 2289   1.008   0.708   1.274  0.1339 -1.0030 -0.1080
  764SOL     OW 2290   0.377   2.380   3.002  0.6425  0.7078  0.0269
  764SOL    HW1 2291   0.384   2.288   3.045 -0.5154 -0.0874  1.3451
  764SOL    HW2 2292   0.283   2.418   3.013 -0.3222  1.3770 -0.4256
  765SOL     OW 2293   0.629   2.723   1.764  0.3060 -0.1444 -0.1544
  765SOL    HW1 2294   0.552   2.744   1.829 -2.1599  0.8044 -0.5888
  765SOL    HW2 2295   0.606   2.768   1.677  1.8312  0.8531 -1.2306
  766SOL     OW 2296   2.646   1.656   2.237  0.1517  0.2303 -0.2517
  766SOL    HW1 2297   2.650   1.756   2.255 -0.5084 -1.0748  2.0205
  766SOL    HW2 2298   2.665   1.608   2.326 -2.7858  1.4903  1.7505
  767SOL     OW 2299   1.540   1.152   2.387  0.1448  0.0978 -0.0313
  767SOL    HW1 2300   1.575   1.227   2.446 -1.0322  0.1908 -0.9479
  767SOL    HW2 2301   1.475   1.184   2.314 -0.5686  1.6419  1.8310
  768SOL     OW 2302   1.647   1.903   0.284  0.4951  0.3780 -0.3317
  768SOL    HW1 2303   1.617   1.884   0.378 -2.2130  1.9059 -0.3703
  768SOL    HW2 2304   1.749   1.894   0.275  0.1435 -0.6557  0.5180
  769SOL     OW 2305   0.472   1.320   0.914 -0.1526  0.2995  0.4010
  769SOL    HW1 2306   0.403   1.383   0.958  1.5686 -1.0979  0.0150
  769SOL    HW2 2307   0.568   1.348   0.942  1.4682  1.0018  0.0805
  770SOL     OW 2308   1.342   0.956   2.457 -0.8049  0.6201 -0.3281
  770SOL    HW1 2309   1.410   1.031   2.443  0.7862  1.1466 -0.2072
  770SOL    HW2 2310   1.376   0.867   2.425 -3.0017  2.4259  0.6657
  771SOL     OW 2311   2.918   3.021   2.320 -0.6888 -0.2573 -0.1252
  771SOL    HW1 2312   2.831   3.055   2.364  1.8397  0.4645  1.2151
  771SOL    HW2 2313   2.902   2.922   2.297 -2.1056  2.7350  0.8257
  772SOL     OW 2314   2.250   1.880   2.226 -0.2180  0.4659 -0.2074
  772SOL    HW1 2315   2.168   1.873   2.168  1.5894  1.5709 -0.4450
  772SOL    HW2 2316   2.332   1.887   2.164  2.0108  0.1055  2.7835
  773SOL     OW 2317   0.562   1.466   1.388  0.0843 -0.0566  0.4382
  773SOL    HW1 2318   0.608   1.522   1.318 -0.0059 -0.4593 -1.4033
  773SOL    HW2 2319   0.552   1.368   1.353  0.3364 -0.2216 -1.6157
  774SOL     OW 2320   1.333   0.782   2.927 -0.0190  0.7765 -0.5432
  774SOL    HW1 2321   1.236   0.787   2.890 -0.0511 -1.6880 -1.6096
  774SOL    HW2 2322   1.336   0.705   2.992 -2.4452  1.3594 -2.4090
  775SOL     OW 2323   1.562   2.620   0.063 -0.1392 -0.0649  0.1308
  775SOL    HW1 2324   1.600   2.552   0.131 -2.0225  0.6041 -1.7894
  775SOL    HW2 2325   1.542   2.575   3.054 -2.3777 -1.7924  0.7947
  776SOL     OW 2326   0.156   0.974   1.512  0.0705  0.2859  0.1152
  776SOL    HW1 2327   0.081   0.987   1.580  2.1290  2.8158  0.7525
  776SOL    HW2 2328   0.179   0.874   1.513 -1.7410  1.2526 -1.6567
  777SOL     OW 2329   2.445   1.954   2.068 -0.0165 -0.6353  0.5322
  777SOL    HW1 2330   2.549   1.946   2.059  1.2084 -2.2213  1.5970
  777SOL    HW2 2331   2.415   1.995   1.981 -1.5893 -0.4678 -1.7277
  778SOL     OW 2332   1.744   1.013   2.261  0.2811 -0.2566 -0.1380
  778SOL    HW1 2333   1.654   1.051   2.303  0.7588 -2.0484  0.7359
  778SOL    HW2 2334   1.766   1.062   2.174  2.8438 -1.2694  0.4780
  779SOL     OW 2335   2.892   0.962   0.106 -0.3481 -0.3588  0.3200
  779SOL    HW1 2336   2.934   0.872   0.132  0.8520  2.1589  2.4130
  779SOL    HW2 2337   2.791   0.952   0.095  2.0460  0.2800 -0.4844
  780SOL     OW 2338   2.255   3.068   2.708  0.7712 -0.1729 -0.1505
  780SOL    HW1 2339   2.169   0.012   2.760 -0.9488 -1.1574 -0.1337
  780SOL    HW2 2340   2.284   0.081   2.666  0.3420  2.7323  2.4260
  781SOL     OW 2341   3.007   1.681   1.570  0.2983  0.4233  0.3832
  781SOL    HW1 2342   3.040   1.765   1.521  0.8533  2.5720  4.8841
  781SOL    HW2 2343   0.001   1.611   1.582 -0.6749  1.0349 -1.8495
  782SOL     OW 2344   2.550   2.013   2.784  0.1375 -0.0563 -0.1892
  782SOL    HW1 2345   2.608   2.073   2.734 -1.0338 -5.1221  2.8120
  782SOL    HW2 2346   2.497   2.065   2.855 -0.0143 -3.2022 -0.5663
  783SOL     OW 2347   0.737   1.389   1.003 -0.3590  0.6342 -0.3979
  783SOL    HW1 2348   0.798   1.330   1.057 -1.1987  1.3878 -0.4223
  783SOL    HW2 2349   0.799   1.438   0.933 -1.6812  0.9787 -1.7855
  784SOL     OW 2350   2.615   0.930   0.102  0.7920  0.4249  0.2875
  784SOL    HW1 2351   2.516   0.936   0.078  1.7820  3.3140  0.7033
  784SOL    HW2 2352   2.621   0.932   0.203 -1.7213  1.1532 -1.4507
  785SOL     OW 2353   2.129   2.393   0.807 -0.0983 -0.3748  0.0898
  785SOL    HW1 2354   2.041   2.425   0.766 -0.3536  0.5696  3.3360
  785SOL    HW2 2355   2.203   2.406   0.738 -0.2081  1.3812 -0.7460
  786SOL     OW 2356   0.386   2.147   2.643  0.1588  0.0049  0.1535
  786SOL    HW1 2357   0.449   2.124   2.567 -1.5689  1.7280 -0.7194
  786SOL    HW2 2358   0.348   2.060   2.676 -0.9261  1.7849  0.0299
  787SOL     OW 2359   1.320   0.526   1.349 -0.3086 -0.0952 -0.0253
  787SOL    HW1 2360   1.227   0.567   1.339 -1.2676 -0.6695  0.1249
  787SOL    HW2 2361   1.393   0.596   1.378  1.1519  0.5798  0.9050
  788SOL     OW 2362   0.428   0.809   0.183  0.0535  0.0477 -0.2595
  788SOL    HW1 2363   0.401   0.793   0.278  0.2968  0.0203 -3.1576
  788SOL    HW2 2364   0.353   0.859   0.133 -0.1090 -1.6588 -0.3931
  789SOL     OW 2365   0.041   2.040   1.270  0.1721 -0.0189  0.4178
  789SOL    HW1 2366   0.095   1.957   1.286  1.8954  1.1108  2.2189
  789SOL    HW2 2367   0.040   2.060   1.167  0.5032  1.8163 -3.3551
  790SOL     OW 2368   1.388   0.528   2.005 -0.4099  0.4572  0.1488
  790SOL    HW1 2369   1.434   0.616   2.029  0.8654 -1.1096 -0.7875
  790SOL    HW2 2370   1.301   0.553   1.955 -1.9891  2.4289  2.0211
  791SOL     OW 2371   1.161   0.608   0.236 -0.2431 -0.4055 -0.1147
  791SOL    HW1 2372   1.170   0.514   0.196  1.2354 -0.1963 -1.5340
  791SOL    HW2 2373   1.240   0.624   0.302  1.1466  0.8825  2.6275
  792SOL     OW 2374   1.325   0.022   1.794 -0.4115  0.3551  0.1929
  792SOL    HW1 2375   1.247   3.038   1.809  1.7065  1.0499 -0.2460
  792SOL    HW2 2376   1.414   3.053   1.814  2.6898  1.1757  1.4130
  793SOL     OW 2377   0.753   0.141   0.773 -0.0900 -0.2673 -0.3254
  793SOL    HW1 2378   0.834   0.158   0.834  2.1510  3.2087 -1.1993
  793SOL    HW2 2379   0.699   0.227   0.768  1.1347 -0.0645  0.4680
  794SOL     OW 2380   0.542   1.215   2.041 -0.2460 -0.0942 -0.6155
  794SOL    HW1 2381   0.612   1.146   2.011 -0.7284  2.9933 -0.4212
  794SOL    HW2 2382   0.538   1.219   2.145 -1.3127  0.9839  1.9991
  795SOL     OW 2383   2.989   1.650   2.257  0.0337  0.2404  0.6266
  795SOL    HW1 2384   2.959   1.565   2.211 -0.1211 -0.7438  0.1608
  795SOL    HW2 2385   3.053   1.638   2.330 -2.4011 -0.2605 -0.0387
  796SOL     OW 2386   1.809   1.178   2.066  0.1162 -0.2092 -0.5927
  796SOL    HW1 2387   1.836   1.151   1.972 -1.3917  4.1436  1.2643
  796SOL    HW2 2388   1.880   1.219   2.125 -2.7012 -1.3451 -3.3094
  797SOL     OW 2389   3.003   0.011   2.665  0.2974  0.1743  0.7938
  797SOL    HW1 2390   0.014   3.036   2.643 -0.6476 -0.7171 -0.0020
  797SOL    HW2 2391   2.919   3.030   2.652 -0.2730 -0.9742 -1.0827
  798SOL     OW 2392   3.076   2.088   2.121  0.2574  0.4637  0.6345
  798SOL    HW1 2393   3.073   2.090   2.019 -1.2592  1.7276 -2.3525
  798SOL    HW2 2394   0.092   2.060   2.153 -0.1515  0.1399  0.5213
  799SOL     OW 2395   2.826   2.080   3.069 -0.2183 -0.7234  0.4022
  799SOL    HW1 2396   2.873   2.169   0.013  0.7444  1.4051 -0.9884
  799SOL    HW2 2397   2.861   2.039   2.984  2.5029  2.7723  0.7390
  800SOL     OW 2398   1.415   1.594   0.697 -1.0339  0.0651  0.1008
  800SOL    HW1 2399   1.354   1.632   0.769 -2.6432  0.4154  0.7745
  800SOL    HW2 2400   1.513   1.608   0.722  1.2507 -0.4033  1.3966
  801SOL     OW 2401   2.143   0.634   0.679 -0.1834  0.2013 -0.1858
  801SOL    HW1 2402   2.089   0.619   0.596  2.3152 -0.6495  2.1301
  801SOL    HW2 2403   2.076   0.656   0.753 -1.1097 -0.4943  0.0638
  802SOL     OW 2404   2.493   1.571   0.376 -0.2719  0.0502 -0.1373
  802SOL    HW1 2405   2.515   1.602   0.279 -0.3266  0.9516 -0.7649
  802SOL    HW2 2406   2.581   1.580   0.425 -2.5410 -0.8857 -2.1000
  803SOL     OW 2407   1.402   1.807   2.888  0.2691  0.5167 -0.0484
  803SOL    HW1 2408   1.470   1.864   2.849  0.7843 -4.0024  2.5302
  803SOL    HW2 2409   1.354   1.861   2.956  0.8901  0.1873 -2.1280
  804SOL     OW 2410   1.927   1.909   0.319  0.1808  0.1063  0.2046
  804SOL    HW1 2411   1.976   1.822   0.331 -0.0159  1.8393  1.0789
  804SOL    HW2 2412   1.951   1.943   0.225  0.1073 -0.0092 -1.1213
  805SOL     OW 2413   2.364   1.594   0.008  0.0104  0.4870 -0.3229
  805SOL    HW1 2414   2.356   1.650   3.005 -1.1844 -0.8241  1.8259
  805SOL    HW2 2415   2.450   1.611   0.058 -1.4756  2.6046 -1.9688
  806SOL     OW 2416   0.678   0.330   0.459 -0.6771 -0.5693  0.2473
  806SOL    HW1 2417   0.684   0.404   0.389  1.0956  0.9555  0.5124
  806SOL    HW2 2418   0.774   0.295   0.477  0.2831  1.0554  1.2782
  807SOL     OW 2419   2.273   1.359   2.776 -0.2111  0.5413  0.0366
  807SOL    HW1 2420   2.264   1.387   2.873 -0.9671 -0.8547  2.0537
  807SOL    HW2 2421   2.181   1.363   2.731 -2.2890 -3.5577  0.9255
  808SOL     OW 2422   0.113   1.468   0.358  0.2799  0.0636  0.3731
  808SOL    HW1 2423   0.172   1.404   0.301  2.9475  0.1744 -4.0069
  808SOL    HW2 2424   0.065   1.417   0.433 -0.6230 -1.6354 -0.8851
  809SOL     OW 2425   2.511   0.825   2.356 -0.1484  0.5248  0.2298
  809SOL    HW1 2426   2.478   0.776   2.440  0.0126  1.1787  0.6925
  809SOL    HW2 2427   2.565   0.903   2.380 -0.4717 -1.2521 -2.6235
  810SOL     OW 2428   0.961   1.207   0.229 -0.1108  0.3787 -0.0642
  810SOL    HW1 2429   1.049   1.185   0.177  0.1187 -0.7353  0.8730
  810SOL    HW2 2430   0.885   1.147   0.195 -0.0424  1.8447  0.4065
  811SOL     OW 2431   1.307   2.563   0.953 -0.0511 -0.2849 -0.4333
  811SOL    HW1 2432   1.206   2.551   0.954  1.2085 -0.0408  0.6248
  811SOL    HW2 2433   1.361   2.487   1.005  0.8676 -0.1220 -0.4454
  812SOL     OW 2434   0.400   2.592   1.622 -0.5956 -0.2652 -0.2348
  812SOL    HW1 2435   0.465   2.544   1.557  1.3690 -2.1224 -0.3676
  812SOL    HW2 2436   0.452   2.635   1.698 -2.4757  2.0981 -2.6581
  813SOL     OW 2437   1.040   0.327   1.973  0.1787 -0.1032  0.0343
  813SOL    HW1 2438   0.979   0.249   1.961 -1.2659 -0.6019 -0.2011
  813SOL    HW2 2439   1.040   0.356   2.071  1.6017 -0.4119 -2.2795
  814SOL     OW 2440   1.358   2.931   2.693  0.1599 -0.1126  0.6226
  814SOL    HW1 2441   1.446   2.886   2.726  1.3629 -2.5775  2.1460
  814SOL    HW2 2442   1.364   2.966   2.598 -1.7240 -1.6818  0.6654
  815SOL     OW 2443   0.497   0.391   1.769  0.0500 -0.2315 -0.4396
  815SOL    HW1 2444   0.397   0.403   1.775  0.6169 -0.7642  0.6737
  815SOL    HW2 2445   0.546   0.437   1.847  0.2873 -0.6331 -0.0135
  816SOL     OW 2446   2.322   0.355   2.835 -0.2138  0.1868  0.1307
  816SOL    HW1 2447   2.395   0.425   2.838  1.2438 -3.6260 -1.2648
  816SOL    HW2 2448   2.330   0.294   2.918 -3.1254  1.2490  0.4238
  817SOL     OW 2449   2.007   0.187   2.504  0.0270 -0.0338  0.3619
  817SOL    HW1 2450   1.931   0.224   2.454  0.1680 -1.3295  1.9707
  817SOL    HW2 2451   2.049   0.253   2.567 -0.8643 -1.2244  1.0040
  818SOL     OW 2452   2.024   0.034   0.163  0.3583  0.2544  0.1268
  818SOL    HW1 2453   1.933   0.074   0.188  2.0708 -1.3940 -0.1483
  818SOL    HW2 2454   2.027   3.010   0.172  2.1646  0.2845  2.2143
  819SOL     OW 2455   2.189   2.019   3.030 -0.5276  0.3789  0.2707
  819SOL    HW1 2456   2.237   1.989   0.037  0.0343  0.2003 -0.0273
  819SOL    HW2 2457   2.252   2.069   2.968  1.9703 -0.4889  0.8045
  820SOL     OW 2458   0.200   1.734   0.399 -0.1265  0.1376 -0.0760
  820SOL    HW1 2459   0.285   1.747   0.453  1.2839 -0.6206 -3.5969
  820SOL    HW2 2460   0.197   1.639   0.358  2.6012 -1.0872  0.9236
  821SOL     OW 2461   0.004   2.665   1.226  0.2497 -0.2608  0.5315
  821SOL    HW1 2462   0.103   2.679   1.219 -1.5527 -0.3114  0.7673
  821SOL    HW2 2463   3.058   2.644   1.322 -1.4669 -0.2998  0.1859
  822SOL     OW 2464   2.569   2.609   2.701 -0.0512  0.0827  0.0042
  822SOL    HW1 2465   2.487   2.548   2.686  0.6440  2.3616 -0.8183
  822SOL    HW2 2466   2.611   2.621   2.610 -2.0450 -1.8801 -0.3907
  823SOL     OW 2467   1.571   0.280   2.674 -0.2188  1.0688 -0.2516
  823SOL    HW1 2468   1.537   0.367   2.713 -2.1144 -3.6585 -3.9162
  823SOL    HW2 2469   1.530   0.265   2.580  0.1737  0.0394 -0.1783
  824SOL     OW 2470   2.737   1.745   1.479 -0.2865  0.2466  0.3022
  824SOL    HW1 2471   2.709   1.844   1.478  0.6592 -1.5199 -0.2891
  824SOL    HW2 2472   2.839   1.739   1.474 -0.8392 -2.7820  0.0247
  825SOL     OW 2473   2.548   1.823   2.539 -0.3091  0.0307  0.2321
  825SOL    HW1 2474   2.589   1.867   2.622  1.0582  0.3223 -0.7608
  825SOL    HW2 2475   2.594   1.864   2.458  0.5033  1.5949  0.8183
  826SOL     OW 2476   2.248   1.251   2.266  0.3494  0.1384 -0.2416
  826SOL    HW1 2477   2.301   1.225   2.179  0.5944  3.5000  0.2548
  826SOL    HW2 2478   2.261   1.345   2.284  0.4352 -1.6594 -1.7847
  827SOL     OW 2479   2.169   2.380   1.584 -0.2931 -0.4679  0.0219
  827SOL    HW1 2480   2.252   2.391   1.641 -0.6068 -0.2250 -4.0448
  827SOL    HW2 2481   2.159   2.282   1.564  0.1822  4.7238  0.9569
  828SOL     OW 2482   2.585   2.748   1.410  0.2461  0.0295  0.6300
  828SOL    HW1 2483   2.594   2.839   1.360 -1.0090  3.0739  0.1705
  828SOL    HW2 2484   2.506   2.691   1.380  0.3029  3.4591  2.4792
  829SOL     OW 2485   1.468   2.256   2.271  0.0742  0.5385  0.2986
  829SOL    HW1 2486   1.415   2.293   2.353  0.4123  0.0797 -0.7140
  829SOL    HW2 2487   1.454   2.155   2.257 -0.4720 -1.4228  1.7993
  830SOL     OW 2488   1.377   0.380   0.614  0.1499  0.4531 -0.3067
  830SOL    HW1 2489   1.277   0.407   0.614  1.8834  2.4722  1.6938
  830SOL    HW2 2490   1.399   0.280   0.625  2.6207  0.3181  0.6616
  831SOL     OW 2491   2.632   1.219   0.238 -0.3187 -1.1246  0.2355
  831SOL    HW1 2492   2.592   1.245   0.148 -3.4304  1.1092 -0.8520
  831SOL    HW2 2493   2.701   1.287   0.274  0.7673  1.9589 -1.5594
  832SOL     OW 2494   1.477   2.118   1.926  0.1642  0.2256 -0.4982
  832SOL    HW1 2495   1.520   2.030   1.962  1.5495 -2.7593 -1.8179
  832SOL    HW2 2496   1.530   2.201   1.940 -0.5164 -3.8440 -1.2796
  833SOL     OW 2497   2.836   2.769   2.310  0.2992 -0.0885  0.3844
  833SOL    HW1 2498   2.829   2.709   2.390 -0.6058  0.6420  1.0361
  833SOL    HW2 2499   2.752   2.759   2.257  2.2185  0.0284  0.7602
  834SOL     OW 2500   0.944   0.965   1.452 -0.0984  0.5541  0.1811
  834SOL    HW1 2501   0.876   1.042   1.447 -0.4798 -2.6045  2.1421
  834SOL    HW2 2502   0.971   0.930   1.360 -0.0434  1.5705 -0.1564
  835SOL     OW 2503   2.818   0.764   2.460  0.0942 -0.2329 -0.9598
  835SOL    HW1 2504   2.877   0.743   2.375 -1.8668 -1.8585 -2.0144
  835SOL    HW2 2505   2.743   0.828   2.443  0.7488 -2.0251 -2.7327
  836SOL     OW 2506   1.093   2.068   1.145  0.1532 -0.6306  0.1725
  836SOL    HW1 2507   1.089   2.118   1.232 -0.5170  1.6265  1.3394
  836SOL    HW2 2508   1.047   1.983   1.153  3.0448  3.9900  1.5011
  837SOL     OW 2509   2.060   0.923   1.077  0.1402 -0.3110 -0.3406
  837SOL    HW1 2510   2.154   0.953   1.082 -1.1545  0.5876  0.3938
  837SOL    HW2 2511   2.005   0.938   1.167 -1.2167  0.3727 -2.1976
  838SOL     OW 2512   1.111   1.876   2.423 -0.7496  0.4501 -0.0870
  838SOL    HW1 2513   1.066   1.800   2.374  0.7210  2.6555  0.0613
  838SOL    HW2 2514   1.146   1.853   2.513  0.3300 -0.6025  0.8509
  839SOL     OW 2515   0.530   2.364   2.772 -0.5044  0.1707  0.0439
  839SOL    HW1 2516   0.488   2.295   2.709  0.5827 -1.2345 -0.2192
  839SOL    HW2 2517   0.486   2.365   2.863  1.9276 -0.7586 -0.1208
  840SOL     OW 2518   0.505   2.613   0.016 -0.0730 -0.3403  0.1897
  840SOL    HW1 2519   0.481   2.539   3.028  1.2991 -2.4300  0.2889
  840SOL    HW2 2520   0.591   2.585   0.066  0.0538 -0.6637  1.4409
  841SOL     OW 2521   1.867   2.308   0.155  0.2415  0.5570  0.2127
  841SOL    HW1 2522   1.830   2.257   0.074  1.3262  2.3121 -0.4888
  841SOL    HW2 2523   1.962   2.339   0.142 -1.1546  1.4305  0.7590
  842SOL     OW 2524   1.071   0.842   2.833 -0.3277 -0.0054 -0.5090
  842SOL    HW1 2525   1.016   0.905   2.896 -2.2379  0.1463  0.4302
  842SOL    HW2 2526   1.094   0.882   2.742 -0.4137 -1.1857  0.6867
  843SOL     OW 2527   1.300   2.808   0.750  0.4039  0.0462 -0.1543
  843SOL    HW1 2528   1.273   2.904   0.765  2.8892 -1.7049  2.9637
  843SOL    HW2 2529   1.326   2.766   0.837 -0.4755  0.3891  1.6170
  844SOL     OW 2530   2.368   2.829   2.607  0.3920  0.3719  0.2213
  844SOL    HW1 2531   2.329   2.912   2.641  0.5992 -3.5226  0.0778
  844SOL    HW2 2532   2.344   2.746   2.659  1.9987 -0.5848 -0.0830
  845SOL     OW 2533   2.729   2.442   1.369  0.1577 -0.3445  0.1741
  845SOL    HW1 2534   2.645   2.407   1.417  4.3266  1.0092 -0.1348
  845SOL    HW2 2535   2.710   2.528   1.318  0.4454 -2.4718  0.7120
  846SOL     OW 2536   2.884   1.896   2.207 -0.3391  0.0944  0.0406
  846SOL    HW1 2537   2.954   1.956   2.176 -2.9368 -1.7571 -0.4145
  846SOL    HW2 2538   2.924   1.808   2.243 -1.8059 -0.3819 -2.4354
  847SOL     OW 2539   1.407   0.418   1.612 -0.4641  0.3548  0.2125
  847SOL    HW1 2540   1.369   0.435   1.522 -0.4732 -0.8488 -1.0461
  847SOL    HW2 2541   1.346   0.375   1.680  0.1775  0.5733  1.3380
  848SOL     OW 2542   2.946   0.305   0.061  0.0525 -0.1607 -0.3456
  848SOL    HW1 2543   2.893   0.333   3.055 -0.8595 -1.2162 -0.1970
  848SOL    HW2 2544   3.008   0.378   0.093  0.3260  1.6558 -0.4164
  849SOL     OW 2545   0.598   0.291   2.984  0.0749 -0.5181 -0.5720
  849SOL    HW1 2546   0.571   0.360   2.910  1.0213  0.6701 -0.2549
  849SOL    HW2 2547   0.532   0.285   3.060 -0.9006  1.1968 -1.6250
  850SOL     OW 2548   0.600   2.491   1.007 -0.1259 -0.0412 -0.3881
  850SOL    HW1 2549   0.633   2.417   0.950 -1.9783  1.6815  1.5979
  850SOL    HW2 2550   0.500   2.490   1.000 -0.4853 -1.1912  1.3154
  851SOL     OW 2551   2.381   0.079   2.178  0.3608 -0.4812  0.4266
  851SOL    HW1 2552   2.339   0.134   2.099 -0.1814  1.3845 -0.0311
  851SOL    HW2 2553   2.350   0.124   2.265 -2.9747  1.6549  0.0625
  852SOL     OW 2554   1.690   1.429   2.105 -0.0504  0.4519 -0.4176
  852SOL    HW1 2555   1.600   1.399   2.142  1.0265  1.8049 -2.2109
  852SOL    HW2 2556   1.744   1.341   2.084 -0.6909 -0.7913  1.4566
  853SOL     OW 2557   2.637   2.592   0.664 -0.4620  0.2548  0.0966
  853SOL    HW1 2558   2.685   2.507   0.635 -0.0234 -2.9138 -0.3102
  853SOL    HW2 2559   2.702   2.673   0.664  0.9009  1.8136 -2.0303
  854SOL     OW 2560   2.376   0.319   0.904 -1.1591  0.3662  0.2019
  854SOL    HW1 2561   2.400   0.382   0.827  0.2544  0.6871 -1.0202
  854SOL    HW2 2562   2.325   0.372   0.970  3.0075 -0.1031 -3.1784
  855SOL     OW 2563   1.299   2.124   0.693  0.4359  0.8754  0.1447
  855SOL    HW1 2564   1.303   2.116   0.592  2.5757 -2.0096  0.3986
  855SOL    HW2 2565   1.312   2.221   0.716 -0.2955 -1.5900 -0.4319
  856SOL     OW 2566   2.869   0.546   2.960 -0.2156 -0.1583 -0.3411
  856SOL    HW1 2567   2.956   0.565   2.909  1.6425  0.1651  1.4013
  856SOL    HW2 2568   2.830   0.451   2.929  0.6945 -2.8168 -0.0224
  857SOL     OW 2569   1.606   3.025   1.805  0.2115 -0.3533  0.4595
  857SOL    HW1 2570   1.611   2.928   1.831  0.2943 -1.3935  0.3615
  857SOL    HW2 2571   1.620   0.005   1.887 -0.2526 -4.3360 -2.7615
  858SOL     OW 2572   2.596   1.979   1.530  0.0288  0.3133  0.3545
  858SOL    HW1 2573   2.612   2.054   1.467 -2.0115 -0.2158  1.4532
  858SOL    HW2 2574   2.527   1.913   1.497 -0.5631  0.6834 -0.3328
  859SOL     OW 2575   1.350   2.087   1.057  0.5157  0.4511 -0.1621
  859SOL    HW1 2576   1.261   2.079   1.106 -0.1730 -1.2784  3.5979
  859SOL    HW2 2577   1.421   2.118   1.121  0.0865 -0.6128 -0.5212
  860SOL     OW 2578   2.351   2.500   0.104 -0.0070 -0.0016 -0.0800
  860SOL    HW1 2579   2.398   2.589   0.103 -0.3004  0.9284 -1.1288
  860SOL    HW2 2580   2.405   2.421   0.149  1.5624  0.7005 -0.3284
  861SOL     OW 2581   1.449   2.365   1.046  0.3522  0.0354 -0.1079
  861SOL    HW1 2582   1.418   2.274   1.025  2.1910  0.9111  1.5513
  861SOL    HW2 2583   1.540   2.387   1.005  0.5294  2.0460  2.8112
  862SOL     OW 2584   1.851   3.043   2.578  0.7362  0.5526  0.5717
  862SOL    HW1 2585   1.927   0.025   2.542  0.0538  1.1254  2.6915
  862SOL    HW2 2586   1.795   0.023   2.643  0.3744 -1.7806 -0.3474
  863SOL     OW 2587   0.241   0.458   0.612  0.1787  0.2438 -0.5369
  863SOL    HW1 2588   0.322   0.395   0.606 -0.7942 -1.4061  2.3268
  863SOL    HW2 2589   0.157   0.398   0.632 -1.8108  0.5230  2.8141
  864SOL     OW 2590   2.562   2.601   1.832  0.9124 -1.1558  0.0208
  864SOL    HW1 2591   2.523   2.509   1.825  0.6046  2.1308 -2.6866
  864SOL    HW2 2592   2.486   2.673   1.849 -0.1206  2.0295  2.6262
  865SOL     OW 2593   3.023   2.041   2.854  0.7607 -0.3543  0.0729
  865SOL    HW1 2594   3.033   2.004   2.761 -0.3040  1.6278  1.9032
  865SOL    HW2 2595   3.039   2.140   2.855  0.3049  0.7632  0.3410
  866SOL     OW 2596   2.566   0.512   2.867  0.2466  0.0105  0.1056
  866SOL    HW1 2597   2.598   0.506   2.774  1.0206  0.2041 -0.4098
  866SOL    HW2 2598   2.571   0.607   2.898  2.3143 -0.9952  0.3158
  867SOL     OW 2599   0.439   3.008   2.855  0.2816  0.2333 -0.1886
  867SOL    HW1 2600   0.529   3.060   2.868  3.3598 -0.3840 -1.8930
  867SOL    HW2 2601   0.382   3.059   2.788 -0.0330  0.5860 -0.4258
  868SOL     OW 2602   1.326   2.411   0.719  0.6694  0.4977 -0.0619
  868SOL    HW1 2603   1.394   2.435   0.790  1.7371  0.1969  0.9432
  868SOL    HW2 2604   1.267   2.489   0.690 -2.0161  0.7627 -2.7852
  869SOL     OW 2605   1.391   1.181   1.308 -0.5015  0.4986  0.5359
  869SOL    HW1 2606   1.493   1.179   1.293 -0.6523 -1.0233  2.0684
  869SOL    HW2 2607   1.377   1.247   1.383  2.1436  0.3801  0.4673
  870SOL     OW 2608   1.771   1.912   1.153  0.4443 -0.2271 -0.5088
  870SOL    HW1 2609   1.820   2.005   1.146  1.6313 -1.8466 -0.6597
  870SOL    HW2 2610   1.776   1.884   1.252  0.1660 -1.0162  0.6521
  871SOL     OW 2611   1.357   1.585   1.357  0.2020 -0.5771  0.0634
  871SOL    HW1 2612   1.261   1.575   1.319  0.1059  1.4351  2.6682
  871SOL    HW2 2613   1.416   1.581   1.276 -0.3837 -0.0095 -1.3137
  872SOL     OW 2614   1.418   1.012   1.003 -1.2491  0.3264 -0.1071
  872SOL    HW1 2615   1.517   0.985   1.006  1.3705 -1.4510  2.1437
  872SOL    HW2 2616   1.416   1.109   0.983  1.8718 -1.2429 -1.0911
  873SOL     OW 2617   1.118   0.893   2.319  0.1555  0.1312  0.4914
  873SOL    HW1 2618   1.036   0.925   2.372  0.5143 -1.0449 -0.9382
  873SOL    HW2 2619   1.207   0.924   2.358  2.1657 -3.8922 -2.8172
  874SOL     OW 2620   0.301   1.201   1.175  0.4419  0.4054  0.1252
  874SOL    HW1 2621   0.249   1.136   1.234 -0.9448  2.9312 -0.7322
  874SOL    HW2 2622   0.236   1.245   1.106 -0.8644  0.6916 -0.0246
  875SOL     OW 2623   2.646   2.855   0.368  0.3424 -0.4317  0.1559
  875SOL    HW1 2624   2.562   2.892   0.420 -3.8093  1.0081 -0.2968
  875SOL    HW2 2625   2.644   2.901   0.278  1.0664 -1.7679  0.7673
  876SOL     OW 2626   1.254   0.429   2.724  0.0631 -0.0540 -0.3735
  876SOL    HW1 2627   1.261   0.344   2.780 -0.7929 -0.8631  0.2283
  876SOL    HW2 2628   1.169   0.480   2.751  2.6181 -1.1613 -0.3344
  877SOL     OW 2629   2.920   3.042   1.336  0.0215 -0.3252 -0.7623
  877SOL    HW1 2630   2.925   3.065   1.437 -0.2035 -2.8353  0.2502
  877SOL    HW2 2631   3.002   2.998   1.302 -2.2589  0.2948  2.7289
  878SOL     OW 2632   1.906   2.619   2.827  0.1298 -0.3071  0.6304
  878SOL    HW1 2633   1.902   2.671   2.920  3.1760  1.3515  1.2032
  878SOL    HW2 2634   1.962   2.680   2.760 -0.2313  2.3387 -2.4998
  879SOL     OW 2635   2.291   1.758   1.698 -0.8483  0.1308  0.2375
  879SOL    HW1 2636   2.337   1.757   1.607 -1.2387  0.4706 -2.2818
  879SOL    HW2 2637   2.335   1.686   1.758  0.0677 -0.5042  0.7628
  880SOL     OW 2638   0.724   1.028   1.142 -0.0597 -0.3002 -0.0718
  880SOL    HW1 2639   0.703   0.941   1.184  1.2232  0.5538  0.7816
  880SOL    HW2 2640   0.721   1.015   1.042 -2.0340 -0.5965 -4.3946
  881SOL     OW 2641   1.031   1.802   3.046 -0.0810  0.2142 -0.2565
  881SOL    HW1 2642   1.106   1.868   3.034 -3.8714 -0.6126 -0.0243
  881SOL    HW2 2643   1.073   1.719   0.016  3.2482 -2.0860  1.5244
  882SOL     OW 2644   1.766   0.210   0.955  0.1241  0.0122 -0.6213
  882SOL    HW1 2645   1.740   0.284   1.023  2.0316 -1.6074 -1.5102
  882SOL    HW2 2646   1.864   0.174   0.975  4.5606 -1.6828 -0.7330
  883SOL     OW 2647   1.836   0.529   2.349  0.0336  0.4117  0.0488
  883SOL    HW1 2648   1.772   0.580   2.410  1.8714  1.3452 -0.3032
  883SOL    HW2 2649   1.901   0.590   2.304  1.7012 -0.3618 -0.0729
  884SOL     OW 2650   2.773   0.624   0.140  0.0073 -0.0827  0.2472
  884SOL    HW1 2651   2.858   0.671   0.171 -2.7726 -0.7138  0.9396
  884SOL    HW2 2652   2.793   0.586   0.047 -1.7691  1.0732 -1.6345
  885SOL     OW 2653   0.899   1.967   0.751  0.2067  0.4410  0.2968
  885SOL    HW1 2654   0.977   2.019   0.783  0.0549 -0.8898  0.1277
  885SOL    HW2 2655   0.843   1.944   0.834  0.7266 -0.7852 -1.6852
  886SOL     OW 2656   1.428   1.410   2.990 -0.0500 -0.5853 -0.3605
  886SOL    HW1 2657   1.466   1.322   2.957 -1.4647  0.4422  0.1596
  886SOL    HW2 2658   1.329   1.432   2.958 -0.6894  0.8664 -0.4659
  887SOL     OW 2659   1.671   0.345   1.565 -0.3214  0.1178 -0.1407
  887SOL    HW1 2660   1.680   0.247   1.545 -0.3514 -1.4612  2.1710
  887SOL    HW2 2661   1.566   0.366   1.565 -0.5898  1.1685  2.1071
  888SOL     OW 2662   2.837   1.457   1.597  0.7862 -0.0692 -0.2406
  888SOL    HW1 2663   2.828   1.412   1.505 -1.1510  0.5400 -1.3742
  888SOL    HW2 2664   2.831   1.560   1.584 -0.2315  2.7106  0.5581
  889SOL     OW 2665   2.978   2.454   0.811  0.2434  0.2881  0.2779
  889SOL    HW1 2666   3.043   2.530   0.795  1.0032 -0.2049  1.2686
  889SOL    HW2 2667   2.937   2.461   0.903  1.1953 -0.1963  1.0306
  890SOL     OW 2668   0.274   1.795   2.329  0.0813 -0.3016  0.5463
  890SOL    HW1 2669   0.252   1.738   2.250  2.9650  1.0112  2.9299
  890SOL    HW2 2670   0.275   1.895   2.294 -1.1102  1.6330  2.0928
  891SOL     OW 2671   0.773   1.725   0.645  0.6603 -0.5082 -0.6943
  891SOL    HW1 2672   0.712   1.716   0.727  1.8766  0.3447  1.9030
  891SOL    HW2 2673   0.842   1.799   0.658  0.9258  1.5930 -1.7693
  892SOL     OW 2674   0.054   2.232   1.462 -0.1428 -0.1832  0.4246
  892SOL    HW1 2675   3.068   2.313   1.464  3.0983  1.7927 -0.4914
  892SOL    HW2 2676   0.035   2.170   1.388  1.1721  0.2345  0.2473
  893SOL     OW 2677   3.030   3.038   1.625  0.6820  0.1624 -0.4488
  893SOL    HW1 2678   3.037   0.023   1.709  0.0486 -2.1575  0.0462
  893SOL    HW2 2679   0.045   3.004   1.605 -1.9878 -0.7209  0.3243
  894SOL     OW 2680   2.744   1.904   0.754  0.0553 -0.1857  0.4813
  894SOL    HW1 2681   2.765   1.809   0.777 -0.3884  0.5527 -1.9609
  894SOL    HW2 2682   2.683   1.907   0.674  1.9000 -0.4422  0.9001
  895SOL     OW 2683   1.686   2.601   1.665  0.1228  0.1417 -0.3986
  895SOL    HW1 2684   1.783   2.563   1.665  0.6645  2.3181  1.1303
  895SOL    HW2 2685   1.648   2.589   1.573  0.7990 -1.3144  1.4549
  896SOL     OW 2686   0.392   0.022   1.386  0.2601 -0.4362 -0.0247
  896SOL    HW1 2687   0.326   0.029   1.305 -1.9652 -0.6959 -3.5567
  896SOL    HW2 2688   0.453   0.107   1.403  5.0707  2.0163  1.3905
  897SOL     OW 2689   1.243   0.943   1.333 -0.1540  0.2671  0.1307
  897SOL    HW1 2690   1.228   0.933   1.430 -0.0867  0.4589 -3.0217
  897SOL    HW2 2691   1.291   1.030   1.307 -0.2805 -1.4027  0.1508
  898SOL     OW 2692   0.827   0.030   1.501 -0.2619  0.1136 -0.2538
  898SOL    HW1 2693   0.816   0.067   1.599  1.3711  0.0154  1.6257
  898SOL    HW2 2694   0.925   0.005   1.487  0.1124  0.2517  0.7775
  899SOL     OW 2695   1.487   0.310   3.050 -0.4094 -0.6041  0.2769
  899SOL    HW1 2696   1.559   0.362   3.000 -1.5769  1.2805  2.2647
  899SOL    HW2 2697   1.405   0.283   2.990 -0.5905 -0.2307 -2.2073
  900SOL     OW 2698   0.806   0.242   2.267 -0.4635 -0.4003 -0.4321
  900SOL    HW1 2699   0.778   0.188   2.347  1.5408  0.5264 -3.0438
  900SOL    HW2 2700   0.736   0.218   2.195 -1.3366 -1.0458 -0.5890
  901SOL     OW 2701   0.803   2.149   0.369  0.4859  0.4967 -0.0876
  901SOL    HW1 2702   0.874   2.075   0.361  0.4950  1.2198 -0.3929
  901SOL    HW2 2703   0.843   2.234   0.403 -2.0095 -4.0056  1.2418
  902SOL     OW 2704   1.976   0.441   0.949  0.8096  0.0451  0.6361
  902SOL    HW1 2705   1.913   0.457   0.870  2.6174 -0.4305 -0.3194
  902SOL    HW2 2706   1.982   0.347   0.989  0.9796  0.9015  0.5857
  903SOL     OW 2707   2.690   1.024   2.456  0.0635  0.4721  0.3794
  903SOL    HW1 2708   2.626   1.041   2.537  0.4663  1.3665  0.3399
  903SOL    HW2 2709   2.721   1.109   2.414 -2.5915 -1.1006  3.9843
  904SOL     OW 2710   1.390   1.410   0.187  0.0094  0.1921 -0.3201
  904SOL    HW1 2711   1.427   1.433   0.092  1.6585 -0.1317 -0.3854
  904SOL    HW2 2712   1.366   1.489   0.245 -2.3478  0.4423  0.0684
  905SOL     OW 2713   1.804   2.911   1.485 -0.1468  0.1502  0.4322
  905SOL    HW1 2714   1.826   2.985   1.551  0.3182  0.6651  0.2087
  905SOL    HW2 2715   1.783   2.947   1.393  1.9456  0.9081 -0.2094
  906SOL     OW 2716   2.215   2.857   1.057  0.1373 -0.2170 -0.5426
  906SOL    HW1 2717   2.227   2.954   1.088  0.5091  1.4223 -0.7851
  906SOL    HW2 2718   2.248   2.844   0.959  0.3134 -0.9721  1.0795
  907SOL     OW 2719   1.723   1.004   0.267 -0.2337 -0.2035 -0.0451
  907SOL    HW1 2720   1.647   0.932   0.274 -0.1056 -0.0514  1.9389
  907SOL    HW2 2721   1.684   1.093   0.301 -0.3097 -2.1772  1.5199
  908SOL     OW 2722   1.669   0.208   1.298 -0.4630 -0.2311  0.1633
  908SOL    HW1 2723   1.602   0.164   1.360  3.3062  4.0552  0.9258
  908SOL    HW2 2724   1.633   0.282   1.236 -1.3092  0.0967 -0.9340
  909SOL     OW 2725   2.148   3.024   0.538 -0.6160 -0.2880 -0.5790
  909SOL    HW1 2726   2.164   2.938   0.587 -0.0451 -0.2196 -1.4437
  909SOL    HW2 2727   2.162   0.025   0.604 -1.1061  0.9239 -0.5605
  910SOL     OW 2728   2.667   0.528   2.034  0.3966  0.0705 -0.2303
  910SOL    HW1 2729   2.689   0.628   2.050  2.7965 -0.0755 -0.2613
  910SOL    HW2 2730   2.568   0.521   1.998  1.9880  0.7983  0.8767
  911SOL     OW 2731   2.627   0.149   2.713 -0.0745 -0.1935 -0.4239
  911SOL    HW1 2732   2.543   0.177   2.654 -0.7825 -0.5195 -1.8315
  911SOL    HW2 2733   2.615   0.071   2.772  0.5731  2.2151 -1.5157
  912SOL     OW 2734   0.748   1.190   1.463  0.4936  0.1907  0.6937
  912SOL    HW1 2735   0.664   1.182   1.409 -0.6555 -0.5606  1.2909
  912SOL    HW2 2736   0.735   1.203   1.563 -0.7777 -2.3275  0.9037
  913SOL     OW 2737   2.975   2.470   1.452  0.0965  0.1187 -0.2006
  913SOL    HW1 2738   2.974   2.518   1.540 -0.1461 -0.9003 -4.6735
  913SOL    HW2 2739   2.879   2.467   1.412  0.5126  0.8928  2.7997
  914SOL     OW 2740   1.920   0.952   1.356  0.0283 -0.5213 -0.2475
  914SOL    HW1 2741   1.922   1.047   1.393  3.1822  1.9867 -1.7825
  914SOL    HW2 2742   1.955   0.888   1.425  0.1347 -2.9589  2.2566
  915SOL     OW 2743   3.016   1.414   1.174  0.3929  0.5960  0.4020
  915SOL    HW1 2744   2.958   1.490   1.131 -1.1754 -1.4058  1.6436
  915SOL    HW2 2745   3.005   1.332   1.115 -0.8604  1.2845  1.4217
  916SOL     OW 2746   1.905   2.140   1.098  0.0224 -1.0364 -0.1817
  916SOL    HW1 2747   1.879   2.236   1.123 -3.4107  5.3123  1.2203
  916SOL    HW2 2748   1.946   2.135   1.005 -3.8942  0.0408  1.4747
  917SOL     OW 2749   1.715   2.511   2.112 -0.8329  0.5400 -0.3228
  917SOL    HW1 2750   1.722   2.582   2.180  0.0620 -1.4371 -2.9434
  917SOL    HW2 2751   1.728   2.417   2.150  0.3386 -0.1784 -2.4106
  918SOL     OW 2752   1.815   2.170   2.468 -0.5170 -0.1082 -0.3212
  918SOL    HW1 2753   1.803   2.213   2.375 -1.7437 -0.5249 -0.0804
  918SOL    HW2 2754   1.862   2.229   2.540 -0.7273 -0.0811  0.1848
  919SOL     OW 2755   0.692   0.174   1.327 -0.2196  0.2307  0.3948
  919SOL    HW1 2756   0.617   0.230   1.364 -2.9436  0.5018  0.5720
  919SOL    HW2 2757   0.745   0.128   1.398 -2.1186  0.3390 -0.9997
  920SOL     OW 2758   2.823   0.383   2.202 -0.0802 -0.0853 -0.5795
  920SOL    HW1 2759   2.764   0.449   2.153 -0.5961 -0.6327  0.2877
  920SOL    HW2 2760   2.790   0.357   2.291 -0.8847 -1.1803  1.4118
  921SOL     OW 2761   2.758   1.048   1.468 -0.1977 -0.3526 -0.8833
  921SOL    HW1 2762   2.777   0.954   1.440  1.5750  2.0565 -1.0135
  921SOL    HW2 2763   2.677   1.063   1.534  0.5371 -0.1170  2.3446
  922SOL     OW 2764   2.415   2.154   0.732 -0.2378 -0.0367 -0.0483
  922SOL    HW1 2765   2.360   2.234   0.702 -0.4517  0.7104 -0.4993
  922SOL    HW2 2766   2.459   2.179   0.822  1.4963 -2.9546 -1.3422
  923SOL     OW 2767   0.615   2.473   0.624 -0.4920  0.1399 -0.4376
  923SOL    HW1 2768   0.561   2.410   0.573  1.8257  1.9683  2.4504
  923SOL    HW2 2769   0.646   2.434   0.710 -0.3445 -1.8027 -3.1927
  924SOL     OW 2770   1.117   0.999   2.615 -0.1394  0.3371 -0.5464
  924SOL    HW1 2771   1.113   1.084   2.668 -0.8393 -1.2846 -0.7506
  924SOL    HW2 2772   1.208   0.989   2.569 -0.2268 -0.6730 -2.3465
  925SOL     OW 2773   2.769   1.384   0.628  0.8048 -0.4610 -0.3959
  925SOL    HW1 2774   2.792   1.298   0.684  1.0238 -0.2484 -0.4048
  925SOL    HW2 2775   2.778   1.368   0.532  0.7236  1.1955  1.9434
  926SOL     OW 2776   0.015   0.097   0.833 -0.1722 -0.0444  0.2126
  926SOL    HW1 2777   0.063   0.036   0.771 -0.7897  2.2423  0.4646
  926SOL    HW2 2778   3.028   0.032   0.876  1.5671 -0.2960 -1.4667
  927SOL     OW 2779   0.228   1.922   2.748 -0.2106 -0.1793  0.1585
  927SOL    HW1 2780   0.198   1.905   2.840  0.3486  0.4855 -3.1815
  927SOL    HW2 2781   0.187   1.849   2.691  0.3323  2.8411  0.9433
  928SOL     OW 2782   3.070   0.324   2.313 -0.4253 -0.3643 -0.1713
  928SOL    HW1 2783   0.088   0.345   2.273  0.0336  1.1026 -0.2683
  928SOL    HW2 2784   2.995   0.372   2.265 -0.4525 -0.0137 -2.1498
  929SOL     OW 2785   2.876   2.013   1.051  0.3917 -0.2148 -0.0489
  929SOL    HW1 2786   2.780   1.989   1.086 -1.3158 -3.5781  0.9412
  929SOL    HW2 2787   2.873   2.058   0.961 -1.2440 -0.7414 -1.7059
  930SOL     OW 2788   1.762   0.273   2.392  0.1707  0.1711  0.2280
  930SOL    HW1 2789   1.670   0.279   2.435 -0.6311  1.1769  1.6389
  930SOL    HW2 2790   1.788   0.368   2.369 -2.3345  0.1278 -0.6612
  931SOL     OW 2791   2.344   1.096   2.888  0.1920 -0.4234 -0.0345
  931SOL    HW1 2792   2.309   1.195   2.889  1.0351  2.1558  0.4632
  931SOL    HW2 2793   2.272   1.037   2.847 -0.1396  0.2896  0.6684
  932SOL     OW 2794   2.078   0.965   0.558  0.1403  0.4540  0.1540
  932SOL    HW1 2795   1.997   0.908   0.564 -0.2760 -0.7217 -1.5539
  932SOL    HW2 2796   2.059   1.054   0.518  1.7179 -1.2988  0.2260
  933SOL     OW 2797   2.406   1.243   0.831 -0.4860  0.7922  0.1111
  933SOL    HW1 2798   2.308   1.242   0.792 -3.6185 -2.5394 -0.0079
  933SOL    HW2 2799   2.456   1.328   0.796  2.9259  0.4649  1.9644
  934SOL     OW 2800   2.205   0.966   2.705 -0.2829 -0.0771 -0.2070
  934SOL    HW1 2801   2.122   0.921   2.674  0.8764 -0.9391 -2.1355
  934SOL    HW2 2802   2.254   1.000   2.623 -0.1865  1.3308 -1.9394
  935SOL     OW 2803   0.190   1.460   0.699  0.0709 -0.1275  0.4456
  935SOL    HW1 2804   0.286   1.442   0.685 -3.2911  0.6420  0.1976
  935SOL    HW2 2805   0.136   1.385   0.655 -0.8203  0.0373 -0.1568
  936SOL     OW 2806   3.010   2.664   0.392 -0.1145 -0.3605  0.5273
  936SOL    HW1 2807   3.060   2.748   0.415 -1.1319 -0.7952 -1.3233
  936SOL    HW2 2808   3.068   2.598   0.340 -2.5469 -2.2487 -1.6120
  937SOL     OW 2809   3.053   2.316   1.792  0.3024 -0.3928  0.2370
  937SOL    HW1 2810   0.069   2.333   1.753 -0.5681  1.8785 -3.1357
  937SOL    HW2 2811   3.034   2.217   1.792 -1.0499  2.6743 -1.0090
  938SOL     OW 2812   2.554   2.164   0.080 -0.6162 -0.2392  0.6358
  938SOL    HW1 2813   2.528   2.189   0.171  0.5429  1.2192 -0.3243
  938SOL    HW2 2814   2.651   2.147   0.072 -0.4351  0.5915 -1.8722
  939SOL     OW 2815   1.010   0.901   1.177 -0.5164 -0.0278  0.3799
  939SOL    HW1 2816   1.100   0.896   1.223  1.3776 -0.4854 -1.2703
  939SOL    HW2 2817   1.027   0.917   1.077 -1.5707  0.4961 -2.1649
  940SOL     OW 2818   2.492   3.024   2.890 -0.1363 -0.2937 -0.9300
  940SOL    HW1 2819   2.411   3.010   2.831  2.0327  0.3671  3.6976
  940SOL    HW2 2820   2.551   2.942   2.886  1.0666 -0.3950  1.1675
  941SOL     OW 2821   2.570   2.719   2.235 -0.0311 -0.6280  0.6990
  941SOL    HW1 2822   2.618   2.659   2.163  0.8816 -0.8745  0.6885
  941SOL    HW2 2823   2.500   2.778   2.194 -2.5592  1.9843  1.5725
  942SOL     OW 2824   1.338   0.351   1.123 -0.3005 -0.2938 -0.1597
  942SOL    HW1 2825   1.384   0.427   1.070 -2.6734 -0.7223 -0.4418
  942SOL    HW2 2826   1.343   0.385   1.218  0.8015  0.8403  0.0637
  943SOL     OW 2827   0.550   1.580   2.428 -0.2913  0.1866 -0.0602
  943SOL    HW1 2828   0.531   1.568   2.330  1.6315 -0.4010  1.7437
  943SOL    HW2 2829   0.524   1.672   2.455 -0.0104 -2.8093 -2.4699
  944SOL     OW 2830   2.361   0.819   0.708  0.3304  0.4436  0.7333
  944SOL    HW1 2831   2.268   0.768   0.717 -2.0182 -1.9080 -1.0453
  944SOL    HW2 2832   2.357   0.903   0.647 -0.9577  0.7822 -0.5948
  945SOL     OW 2833   3.020   0.147   2.876  0.3011 -0.4906 -0.0780
  945SOL    HW1 2834   3.011   0.087   2.791  1.0184 -1.8573  0.5883
  945SOL    HW2 2835   0.042   0.178   2.881 -0.0336  2.6312 -0.2343
  946SOL     OW 2836   0.274   1.302   1.493  0.4439 -0.6829  0.0550
  946SOL    HW1 2837   0.364   1.313   1.543  2.6199  2.1047  1.3107
  946SOL    HW2 2838   0.194   1.309   1.557 -0.1694 -1.1357  1.2859
  947SOL     OW 2839   1.071   0.229   0.021  0.2377 -0.5508 -0.1340
  947SOL    HW1 2840   1.055   0.130   0.007  2.2542  2.5330  1.3249
  947SOL    HW2 2841   0.980   0.275   0.036  0.0051  1.7478 -4.7747
  948SOL     OW 2842   2.565   1.606   1.307  0.4230  0.8157  0.5570
  948SOL    HW1 2843   2.640   1.640   1.368 -0.5344  1.5719 -1.9358
  948SOL    HW2 2844   2.609   1.567   1.220  0.4890 -0.1302 -0.3810
  949SOL     OW 2845   0.318   0.908   2.871 -0.2048 -0.3550  0.2443
  949SOL    HW1 2846   0.367   0.946   2.954  1.5891 -1.1011  2.1558
  949SOL    HW2 2847   0.225   0.952   2.855 -1.1298  1.9546 -0.7367
  950SOL     OW 2848   0.268   2.669   1.306  0.0929  0.0606 -0.1332
  950SOL    HW1 2849   0.233   2.672   1.403 -1.0220  1.1926 -0.3065
  950SOL    HW2 2850   0.343   2.737   1.298  2.4585 -0.1907  1.8570
  951SOL     OW 2851   0.790   1.746   2.634  0.1107  0.6630  0.3569
  951SOL    HW1 2852   0.720   1.752   2.706 -0.4349 -0.0701 -1.0319
  951SOL    HW2 2853   0.830   1.834   2.611 -1.6101 -1.1522 -1.2456
  952SOL     OW 2854   0.731   1.351   0.533 -0.0325  0.8014 -0.4497
  952SOL    HW1 2855   0.775   1.277   0.591 -3.0465 -2.2498  0.6396
  952SOL    HW2 2856   0.798   1.427   0.525  2.0858  1.5980  2.3910
  953SOL     OW 2857   2.223   1.829   2.717 -0.6663  0.4908 -0.3898
  953SOL    HW1 2858   2.251   1.807   2.620 -0.4748 -1.3705 -2.8373
  953SOL    HW2 2859   2.292   1.804   2.784 -0.2090  1.0955 -1.3409
  954SOL     OW 2860   1.576   0.552   0.710 -0.5903  0.5629 -0.1846
  954SOL    HW1 2861   1.495   0.495   0.688 -1.7690  0.8026  0.2485
  954SOL    HW2 2862   1.560   0.652   0.691  0.7963  2.0155  0.2887
  955SOL     OW 2863   0.793   1.942   2.989  0.2496 -0.4181  1.2387
  955SOL    HW1 2864   0.842   2.028   2.953  0.8403  1.0931 -2.7133
  955SOL    HW2 2865   0.868   1.883   3.024  0.0857  0.0711  3.0427
  956SOL     OW 2866   2.936   0.537   1.914  0.4907 -0.2313  0.4160
  956SOL    HW1 2867   2.920   0.569   1.819 -0.9888  0.3038  0.9285
  956SOL    HW2 2868   2.859   0.497   1.955  1.5061  0.2758 -0.4359
  957SOL     OW 2869   1.745   1.980   2.131  0.3338 -0.3518  0.0645
  957SOL    HW1 2870   1.825   1.919   2.146 -1.3669 -0.3567  0.8156
  957SOL    HW2 2871   1.697   1.947   2.044 -1.7861 -0.0038  1.1174
  958SOL     OW 2872   1.700   0.975   1.194 -0.1350 -0.5137  0.4763
  958SOL    HW1 2873   1.671   1.071   1.214 -0.9111 -0.9545 -0.0238
  958SOL    HW2 2874   1.780   0.950   1.247 -0.7473  1.0169  1.7903
  959SOL     OW 2875   1.573   1.861   1.963 -0.2309 -0.3797  0.2503
  959SOL    HW1 2876   1.570   1.828   1.867 -1.8557 -3.0009  0.7455
  959SOL    HW2 2877   1.540   1.793   2.026  1.3734 -1.1976  0.7023
  960SOL     OW 2878   0.457   0.891   2.642 -0.1181  0.2766  0.1665
  960SOL    HW1 2879   0.456   0.963   2.571  1.6105 -1.4258  3.1610
  960SOL    HW2 2880   0.398   0.917   2.719  2.0358 -1.8819 -2.3634
  961SOL     OW 2881   0.162   1.188   3.013  0.5831  0.1709 -0.2136
  961SOL    HW1 2882   0.067   1.187   2.975  0.7398 -1.6654  0.7361
  961SOL    HW2 2883   0.205   1.278   3.020  0.6578 -3.6422 -0.3961
  962SOL     OW 2884   0.963   2.118   2.867  0.1071 -0.4726  0.2725
  962SOL    HW1 2885   0.926   2.205   2.830  1.6671 -2.8653  0.6675
  962SOL    HW2 2886   1.061   2.131   2.902  1.7662  1.7502  0.0651
  963SOL     OW 2887   2.822   1.771   3.007  0.1807 -0.4442 -0.2841
  963SOL    HW1 2888   2.916   1.737   3.023  1.1235 -2.3247 -0.2305
  963SOL    HW2 2889   2.791   1.829   0.007  1.2574 -0.4093 -2.3191
  964SOL     OW 2890   0.661   2.312   2.396 -0.3475 -0.0609  0.6453
  964SOL    HW1 2891   0.608   2.337   2.313  0.6239  0.5504 -0.1814
  964SOL    HW2 2892   0.717   2.395   2.420 -0.5748  3.1475  0.7139
  965SOL     OW 2893   1.704   1.833   1.507  0.0248  0.3840  0.3946
  965SOL    HW1 2894   1.705   1.757   1.438 -2.1348 -1.5046 -1.3216
  965SOL    HW2 2895   1.661   1.796   1.591  2.2550  1.6453 -3.0029
  966SOL     OW 2896   2.947   1.612   0.318 -0.6635  0.0860 -0.3621
  966SOL    HW1 2897   3.041   1.572   0.340  3.6686  0.6066 -1.7652
  966SOL    HW2 2898   2.950   1.675   0.239 -2.9888 -1.7843 -1.6468
  967SOL     OW 2899   2.103   2.717   1.969  0.0390  0.2810 -0.2912
  967SOL    HW1 2900   2.037   2.641   1.968  0.8266 -1.2739  1.2680
  967SOL    HW2 2901   2.051   2.801   1.966 -0.4104 -1.8963 -0.6501
  968SOL     OW 2902   1.534   1.147   3.055  0.0203 -0.3981 -0.1254
  968SOL    HW1 2903   1.632   1.157   3.027  0.4470  2.0801 -3.4556
  968SOL    HW2 2904   1.488   1.099   2.981  1.6788  1.2749 -2.0031
  969SOL     OW 2905   0.219   1.182   2.351  0.4276 -0.4662  0.6857
  969SOL    HW1 2906   0.250   1.094   2.306  0.6729  0.5255  1.5764
  969SOL    HW2 2907   0.286   1.204   2.419 -0.8082 -0.3848 -0.1639
  970SOL     OW 2908   2.191   2.735   0.585 -0.0974  0.0343  0.3174
  970SOL    HW1 2909   2.213   2.739   0.488 -0.3611  1.2385  0.3411
  970SOL    HW2 2910   2.103   2.688   0.596 -0.1982  1.0601 -1.0184
  971SOL     OW 2911   2.036   2.136   0.876  0.0681  0.3539  0.1944
  971SOL    HW1 2912   2.113   2.075   0.908  0.0796  1.5815  0.2849
  971SOL    HW2 2913   2.064   2.227   0.845 -1.4634 -3.7084 -0.4680
  972SOL     OW 2914   0.288   1.599   2.766 -0.4194  0.5249 -0.2771
  972SOL    HW1 2915   0.259   1.668   2.698  0.1237  0.1721 -0.6124
  972SOL    HW2 2916   0.376   1.557   2.741 -1.2823 -0.4327  0.7931
  973SOL     OW 2917   0.739   0.517   0.260 -0.2278 -0.2034 -0.1337
  973SOL    HW1 2918   0.774   0.449   0.191 -0.3399 -0.0791  0.5957
  973SOL    HW2 2919   0.813   0.583   0.283 -1.0306 -2.5277  0.6491
  974SOL     OW 2920   2.268   0.790   1.655  0.4509  1.1923  0.3155
  974SOL    HW1 2921   2.235   0.699   1.691 -1.0119  0.3112  3.0313
  974SOL    HW2 2922   2.363   0.805   1.690 -0.0513 -1.0379 -0.6385
  975SOL     OW 2923   2.884   3.049   0.593 -1.0341  0.3959 -0.0022
  975SOL    HW1 2924   2.985   3.052   0.617  1.4782 -0.2417 -1.0159
  975SOL    HW2 2925   2.823   0.035   0.643 -0.2210 -1.6579 -1.4455
  976SOL     OW 2926   0.819   1.524   1.525  0.8724  0.5934  0.3943
  976SOL    HW1 2927   0.828   1.444   1.589 -1.1812  0.7374  1.1758
  976SOL    HW2 2928   0.731   1.533   1.472 -0.6851  1.3312  1.6473
  977SOL     OW 2929   1.299   2.106   0.425  0.7345 -0.1270  0.0922
  977SOL    HW1 2930   1.364   2.072   0.356  1.4787 -1.5282  0.8250
  977SOL    HW2 2931   1.269   2.205   0.408  2.9023  3.5644 -2.4414
  978SOL     OW 2932   0.140   0.715   3.077  0.2486  0.1224  0.4663
  978SOL    HW1 2933   0.088   0.724   2.988  2.8434 -1.1857 -1.2351
  978SOL    HW2 2934   0.171   0.812   0.025  1.1479  1.7678 -2.1541
  979SOL     OW 2935   2.020   1.523   0.674 -0.4212 -0.1466 -0.0857
  979SOL    HW1 2936   1.988   1.509   0.576  0.3270  1.8674  0.0125
  979SOL    HW2 2937   1.992   1.615   0.701 -0.8124 -1.0766 -0.8606
  980SOL     OW 2938   0.658   1.914   1.542  0.0846  0.3091  0.4899
  980SOL    HW1 2939   0.741   1.860   1.569  0.1311  0.6462  1.2724
  980SOL    HW2 2940   0.676   2.011   1.534 -2.9793 -1.8863 -0.8881
  981SOL     OW 2941   2.701   1.411   2.706 -0.6087  0.2868 -0.1392
  981SOL    HW1 2942   2.801   1.380   2.702  1.9656  1.0304 -3.2441
  981SOL    HW2 2943   2.634   1.338   2.711  1.9215  1.4031 -1.9739
  982SOL     OW 2944   0.252   2.013   1.756  0.5186 -0.0968 -0.0797
  982SOL    HW1 2945   0.269   2.061   1.668 -1.0285 -1.7221 -0.2838
  982SOL    HW2 2946   0.339   1.972   1.799 -2.1507  0.3879  2.5745
  983SOL     OW 2947   1.570   0.352   1.896 -0.1709  0.5354  0.0482
  983SOL    HW1 2948   1.495   0.416   1.926 -0.3693  1.0940 -2.0749
  983SOL    HW2 2949   1.574   0.349   1.792 -1.8897  0.9944 -0.7547
  984SOL     OW 2950   2.829   2.982   2.951 -0.0392 -0.3485  0.2400
  984SOL    HW1 2951   2.888   3.062   2.933 -1.0586  1.7736 -1.7359
  984SOL    HW2 2952   2.802   2.936   2.865 -1.9636  1.0597 -0.0878
  985SOL     OW 2953   1.447   1.253   1.922  0.6262 -0.2382 -0.2355
  985SOL    HW1 2954   1.459   1.351   1.889  1.0061  2.4014  0.1777
  985SOL    HW2 2955   1.520   1.200   1.872  3.1658  0.4148 -2.2947
  986SOL     OW 2956   2.124   0.377   2.647  0.1219 -0.2640 -0.7578
  986SOL    HW1 2957   2.187   0.378   2.725  0.5706  0.2400 -0.9590
  986SOL    HW2 2958   2.049   0.444   2.660  0.2357  1.3595 -0.2013
  987SOL     OW 2959   2.957   1.688   2.580 -0.2145 -0.0115  1.0356
  987SOL    HW1 2960   2.916   1.754   2.646  1.0771  0.8270  0.4882
  987SOL    HW2 2961   2.881   1.657   2.520  0.2377  0.9731  2.1466
  988SOL     OW 2962   2.996   0.208   1.254 -0.2384  0.2707  0.3042
  988SOL    HW1 2963   3.067   0.220   1.323 -0.5371 -0.1358 -2.5289
  988SOL    HW2 2964   2.949   0.120   1.273  2.7761  1.5570  1.6483
  989SOL     OW 2965   2.014   0.140   1.032 -0.3722 -0.8333 -0.1386
  989SOL    HW1 2966   2.013   0.040   1.043 -0.8270  2.6698 -1.6209
  989SOL    HW2 2967   2.085   0.179   1.098  0.7751  1.9235 -2.0684
  990SOL     OW 2968   2.603   0.769   2.951 -0.1665 -0.0573  0.4827
  990SOL    HW1 2969   2.679   0.795   2.887  1.4121  2.7065 -1.9120
  990SOL    HW2 2970   2.607   0.823   3.035 -0.8418 -0.5467 -0.4981
  991SOL     OW 2971   0.320   1.304   0.241  0.3277  0.6045 -0.0616
  991SOL    HW1 2972   0.280   1.210   0.262 -1.7449 -0.4057  0.1416
  991SOL    HW2 2973   0.398   1.317   0.308 -2.1999 -0.6072 -1.5334
  992SOL     OW 2974   2.021   1.347   1.926  0.0997 -0.6992 -0.1279
  992SOL    HW1 2975   1.980   1.437   1.953  2.7533 -0.5355  0.0620
  992SOL    HW2 2976   2.114   1.363   1.885 -0.5869  1.6930  0.1351
  993SOL     OW 2977   0.318   2.286   0.578 -0.6149 -0.6712 -0.3111
  993SOL    HW1 2978   0.333   2.346   0.664  0.6187  1.9416  0.8440
  993SOL    HW2 2979   0.361   2.329   0.494  0.3241  0.1214 -2.7463
  994SOL     OW 2980   2.976   1.806   1.803  0.0991  0.3347  0.8410
  994SOL    HW1 2981   2.894   1.767   1.848 -2.0241 -3.3942 -0.8385
  994SOL    HW2 2982   2.993   1.761   1.714 -0.6095 -2.3023 -2.1616
  995SOL     OW 2983   1.945   1.817   2.720 -0.4565 -0.4546  0.4829
  995SOL    HW1 2984   1.911   1.886   2.650 -1.2899  2.8508 -1.7981
  995SOL    HW2 2985   2.046   1.808   2.715  0.5158 -0.6788  0.7390
  996SOL     OW 2986   2.082   2.306   0.433  0.0809  0.2367 -0.4772
  996SOL    HW1 2987   1.989   2.268   0.453 -1.9397 -1.2473 -2.1095
  996SOL    HW2 2988   2.142   2.232   0.392 -2.0209  0.5522  1.7079
  997SOL     OW 2989   0.972   1.672   2.260 -0.1105 -0.0868  0.3221
  997SOL    HW1 2990   0.921   1.608   2.326  2.3834  1.3564 -0.7690
  997SOL    HW2 2991   1.069   1.637   2.248 -0.5016 -0.3058  1.2870
  998SOL     OW 2992   2.849   2.423   0.579  0.1161  0.3502 -0.3822
  998SOL    HW1 2993   2.890   2.426   0.674  0.4289 -0.9123  1.9933
  998SOL    HW2 2994   2.896   2.487   0.520 -1.1296 -1.6267 -3.0042
  999SOL     OW 2995   0.719   2.960   0.404 -0.2054 -0.0056 -0.2919
  999SOL    HW1 2996   0.644   2.897   0.366  0.7061 -3.6120 -0.6951
  999SOL    HW2 2997   0.722   2.950   0.506  3.1321 -1.7433 -1.3518
 1000SOL     OW 2998   1.383   0.217   0.208 -0.0311 -0.4507 -0.0412
 1000SOL    HW1 2999   1.420   0.237   0.113 -1.0398 -1.1260 -2.5734
 1000SOL    HW2 3000   1.324   0.293   0.246 -1.5820 -1.4339 -1.1360
   3.07695   3.07695   3.07695
