1000 SPC/Fw water molecules t= 494.00000 step= 494000
 3000
    1SOL     OW    1   2.864   2.874   1.173 -0.2337 -0.1443 -0.6045
    1SOL    HW1    2   2.817   2.959   1.129  0.4524  1.7145 -3.1299
    1SOL    HW2    3   2.957   2.849   1.136  2.9835 -0.7897 -5.3020
    2SOL     OW    4   2.932   2.486   2.798 -0.4745  0.3775  0.0825
    2SOL    HW1    5   2.978   2.563   2.846  0.1176 -1.4437  2.6864
    2SOL    HW2    6   2.993   2.405   2.797 -0.4710 -1.7964 -0.4616
    3SOL     OW    7   1.223   1.790   0.337 -0.0602 -0.2406 -0.0075
    3SOL    HW1    8   1.206   1.755   0.429  3.1333 -0.2228 -1.5680
    3SOL    HW2    9   1.299   1.857   0.338 -0.6154  2.5789  3.2391
    4SOL     OW   10   1.459   2.729   2.692 -0.2384  0.5901  0.3466
    4SOL    HW1   11   1.509   2.804   2.739 -1.7929 -1.1868  1.9855
    4SOL    HW2   12   1.434   2.742   2.596  1.0053 -0.6158  0.9820
    5SOL     OW   13   1.898   0.091   2.982 -0.4013  0.3556 -0.0310
    5SOL    HW1   14   1.959   0.017   2.953 -0.2942  1.3941 -0.6746
    5SOL    HW2   15   1.899   0.092   3.083 -0.1603  4.0001  0.7225
    6SOL     OW   16   0.050   1.551   0.884 -0.2335 -0.8456 -0.0936
    6SOL    HW1   17   0.038   1.474   0.953  3.4923 -2.2331  0.6525
    6SOL    HW2   18   0.103   1.515   0.806 -1.1228  2.2190  1.0113
    7SOL     OW   19   1.138   1.645   0.555  0.1447  0.1939  0.0473
    7SOL    HW1   20   1.142   1.543   0.561 -2.5981  1.5629  1.1703
    7SOL    HW2   21   1.167   1.693   0.643 -1.7077 -2.3610 -1.6327
    8SOL     OW   22   0.308   0.558   0.297  0.4632 -0.1518 -0.1762
    8SOL    HW1   23   0.293   0.477   0.355  2.0353 -1.2797 -0.9495
    8SOL    HW2   24   0.246   0.642   0.322 -1.5918  1.9190  1.2888
    9SOL     OW   25   0.174   2.556   1.711  0.1339 -0.2574 -0.4534
    9SOL    HW1   26   0.164   2.643   1.765 -1.5662 -1.4773  1.0782
    9SOL    HW2   27   0.225   2.569   1.622  0.7994 -0.5440  0.6963
   10SOL     OW   28   1.533   1.675   0.353 -0.2458  0.3025 -0.0112
   10SOL    HW1   29   1.506   1.635   0.264 -0.7060 -1.0289  1.3104
   10SOL    HW2   30   1.500   1.772   0.359 -1.0528 -2.0576  0.2423
   11SOL     OW   31   1.895   0.259   1.685  0.1964  0.5437  0.2455
   11SOL    HW1   32   1.887   0.344   1.742 -1.9955  0.6736 -0.0324
   11SOL    HW2   33   1.819   0.262   1.619  1.9387  0.1318 -0.6365
   12SOL     OW   34   0.140   0.675   2.271  0.0447 -0.0721  0.6489
   12SOL    HW1   35   0.207   0.664   2.346 -0.8970 -1.0236 -0.4511
   12SOL    HW2   36   0.049   0.643   2.307 -0.2484  2.5953  1.3001
   13SOL     OW   37   2.161   0.426   0.443  0.2474 -0.0389  0.4250
   13SOL    HW1   38   2.077   0.484   0.457  1.7109  1.2042 -3.3189
   13SOL    HW2   39   2.233   0.484   0.396 -0.7436  1.0124 -1.3463
   14SOL     OW   40   2.299   2.375   0.011 -0.2153 -0.1078  0.4413
   14SOL    HW1   41   2.252   2.289   0.041  1.2431  0.3183  1.8504
   14SOL    HW2   42   2.242   2.434   3.044 -0.3522 -1.6734 -0.3614
   15SOL     OW   43   2.708   2.954   2.754 -0.1486  0.1968 -0.0147
   15SOL    HW1   44   2.709   2.902   2.843  2.0556  1.0027 -1.0691
   15SOL    HW2   45   2.620   3.001   2.744 -0.1171 -2.8500 -1.0544
   16SOL     OW   46   0.076   0.687   1.177 -0.3541 -0.0732  0.6849
   16SOL    HW1   47   0.103   0.699   1.081  0.0764  0.1646 -2.6284
   16SOL    HW2   48   0.080   0.776   1.233 -1.9388 -0.2257  1.5300
   17SOL     OW   49   0.651   0.373   1.146  0.5019 -0.4321 -0.4325
   17SOL    HW1   50   0.671   0.448   1.079  1.5145 -1.7544  2.4105
   17SOL    HW2   51   0.568   0.321   1.119  1.3603  0.4722  1.6256
   18SOL     OW   52   2.838   0.142   0.642 -0.2045  0.9249 -0.3966
   18SOL    HW1   53   2.827   0.047   0.604 -1.0266 -2.2042 -0.0578
   18SOL    HW2   54   2.925   0.184   0.604  2.0428  2.7639  0.4324
   19SOL     OW   55   1.977   1.892   0.961 -0.4993  0.1878  0.0024
   19SOL    HW1   56   2.067   1.896   1.005 -3.2363  0.5548 -2.5216
   19SOL    HW2   57   1.986   1.833   0.879 -0.7697 -3.4331  2.5655
   20SOL     OW   58   2.015   1.655   2.284  0.0887 -0.4467 -0.0708
   20SOL    HW1   59   2.065   1.666   2.372 -1.5119  2.8179 -0.0553
   20SOL    HW2   60   1.965   1.742   2.252  3.6895 -1.4069  1.6456
   21SOL     OW   61   1.219   0.146   0.301  0.5698 -0.5090 -0.1670
   21SOL    HW1   62   1.194   0.117   0.208  1.5129 -1.8629 -0.9813
   21SOL    HW2   63   1.318   0.141   0.315 -2.7616  1.2233 -0.8287
   22SOL     OW   64   2.227   1.008   3.010  0.4604  0.0667  0.2708
   22SOL    HW1   65   2.303   0.949   3.043 -1.1971  2.1085  0.3249
   22SOL    HW2   66   2.214   0.994   2.910  0.6479 -1.2048 -0.3698
   23SOL     OW   67   0.149   0.296   2.266 -0.2758  0.2567 -0.2217
   23SOL    HW1   68   0.198   0.211   2.292 -0.3980  0.7002 -2.9088
   23SOL    HW2   69   0.187   0.369   2.327  1.0057  0.1263  2.5405
   24SOL     OW   70   2.109   2.296   0.976  0.6268 -0.1443  0.0914
   24SOL    HW1   71   2.155   2.364   1.031 -1.6916 -3.4028  0.6080
   24SOL    HW2   72   2.014   2.289   1.015 -1.0874  1.3549 -0.4432
   25SOL     OW   73   1.553   0.351   0.139 -0.3692  0.1608 -0.2082
   25SOL    HW1   74   1.548   0.262   0.090 -0.0629  2.5095 -0.6178
   25SOL    HW2   75   1.643   0.394   0.145  0.4619  0.1751  0.8176
   26SOL     OW   76   1.254   2.752   3.071  0.0256  0.4643 -0.8297
   26SOL    HW1   77   1.162   2.768   3.029 -0.2998  0.5873 -0.4119
   26SOL    HW2   78   1.254   2.681   0.054 -0.0151 -1.1224  0.1073
   27SOL     OW   79   0.896   0.692   1.359  0.4463 -0.7329  0.1442
   27SOL    HW1   80   0.799   0.665   1.359  1.3087  1.1443 -1.2266
   27SOL    HW2   81   0.912   0.749   1.276  0.2074  0.7762  0.6362
   28SOL     OW   82   0.873   1.950   1.497 -0.0205  0.0807 -0.1825
   28SOL    HW1   83   0.909   1.900   1.415 -1.7442  1.6790 -1.5336
   28SOL    HW2   84   0.918   1.920   1.585  0.3973 -0.0124  0.5835
   29SOL     OW   85   2.464   0.536   0.749 -0.1006 -0.1784  0.1226
   29SOL    HW1   86   2.491   0.455   0.806  0.4838  2.1497 -1.1540
   29SOL    HW2   87   2.465   0.623   0.803 -1.1041  0.4607 -2.8432
   30SOL     OW   88   1.453   0.175   1.521  0.0972 -0.1898  0.6164
   30SOL    HW1   89   1.359   0.150   1.546 -2.7814  0.6150  0.8822
   30SOL    HW2   90   1.475   0.144   1.428  2.6236 -0.0256  0.8516
   31SOL     OW   91   1.172   0.231   1.265  0.1485  0.1251  0.3102
   31SOL    HW1   92   1.131   0.322   1.281 -1.1648 -0.8685  0.3394
   31SOL    HW2   93   1.113   0.163   1.311  0.5777  1.2304  1.5218
   32SOL     OW   94   2.274   0.926   2.284 -0.1130  0.6637 -0.2503
   32SOL    HW1   95   2.341   0.992   2.248 -1.7827 -1.2209 -0.5778
   32SOL    HW2   96   2.281   0.841   2.234  0.4981  4.3231 -0.4875
   33SOL     OW   97   2.487   2.688   2.804 -0.1515 -0.5438  0.5398
   33SOL    HW1   98   2.572   2.630   2.824 -0.4232  0.6819  0.9105
   33SOL    HW2   99   2.466   2.697   2.702 -0.3892  0.2380 -3.5910
   34SOL     OW  100   2.004   0.946   0.114  0.0452 -0.4366  0.6067
   34SOL    HW1  101   2.021   0.979   0.211 -0.9500 -1.7202  1.2806
   34SOL    HW2  102   2.078   0.982   0.054 -3.0606  0.3591  1.7246
   35SOL     OW  103   2.909   1.022   1.242  0.3232  0.4525  0.2981
   35SOL    HW1  104   2.875   0.978   1.160  1.6456  2.7235 -0.6823
   35SOL    HW2  105   2.891   1.121   1.246  0.2808  1.5687  0.9472
   36SOL     OW  106   2.261   2.411   2.767  0.0137 -0.4939 -0.7667
   36SOL    HW1  107   2.258   2.504   2.813  0.7213  1.4838  1.6913
   36SOL    HW2  108   2.324   2.415   2.683  0.1074  1.5455  0.0364
   37SOL     OW  109   1.766   0.106   2.153 -0.2343 -0.9635 -0.3312
   37SOL    HW1  110   1.775   0.098   2.054  1.7316 -2.1075  2.1736
   37SOL    HW2  111   1.851   0.145   2.190 -2.7028 -0.3986  0.2569
   38SOL     OW  112   1.313   1.627   2.301  0.2062  0.3138 -0.1853
   38SOL    HW1  113   1.325   1.657   2.205  1.4581 -1.3538  2.6185
   38SOL    HW2  114   1.404   1.620   2.352  0.7124 -1.4139 -0.4339
   39SOL     OW  115   1.704   0.303   1.514  0.3467 -0.2944 -0.3921
   39SOL    HW1  116   1.700   0.299   1.411 -0.5679  1.3967  1.7302
   39SOL    HW2  117   1.622   0.255   1.554 -0.2376 -0.0072 -1.6534
   40SOL     OW  118   0.844   1.972   0.402 -0.7800  0.1109 -0.2900
   40SOL    HW1  119   0.784   1.927   0.333 -0.2765 -0.9525 -2.8573
   40SOL    HW2  120   0.789   2.043   0.451 -0.3811 -1.3166  0.0172
   41SOL     OW  121   2.360   2.328   1.252  0.1240 -0.3643 -0.6987
   41SOL    HW1  122   2.321   2.377   1.172  2.3693  0.6373  0.0393
   41SOL    HW2  123   2.464   2.327   1.257  2.1955 -0.3367  1.4721
   42SOL     OW  124   2.692   2.717   0.436 -0.2690  0.3636  0.1183
   42SOL    HW1  125   2.641   2.784   0.382 -0.0987 -1.1163  1.8797
   42SOL    HW2  126   2.772   2.756   0.481 -0.8212  0.6543 -0.2067
   43SOL     OW  127   0.908   1.813   2.058 -0.3626 -0.0198  0.1695
   43SOL    HW1  128   0.975   1.873   2.112  1.1586  1.4517  0.9498
   43SOL    HW2  129   0.958   1.739   2.012  0.6494 -0.1297  0.8331
   44SOL     OW  130   1.809   3.007   1.194  0.3983 -0.6907 -0.1335
   44SOL    HW1  131   1.854   0.006   1.204  1.0404 -1.1303  1.2867
   44SOL    HW2  132   1.758   2.984   1.281  1.1538 -0.2945  0.7660
   45SOL     OW  133   3.064   2.474   2.422  0.0018  0.3003 -0.6753
   45SOL    HW1  134   0.019   2.415   2.498 -0.2214 -3.6852  1.3026
   45SOL    HW2  135   3.003   2.543   2.461  1.1930  1.9111  1.9447
   46SOL     OW  136   0.762   2.528   1.789  0.2187  0.2760  0.6660
   46SOL    HW1  137   0.789   2.543   1.883  2.7509  1.9056 -1.7013
   46SOL    HW2  138   0.727   2.435   1.769  0.1520 -1.2284 -1.7219
   47SOL     OW  139   0.490   1.995   0.709 -0.3292  0.5094  0.6308
   47SOL    HW1  140   0.576   2.015   0.653  1.7160  1.4142 -0.7242
   47SOL    HW2  141   0.407   2.010   0.650 -0.4109  1.2936 -1.0092
   48SOL     OW  142   0.838   2.947   1.610 -0.2654 -0.2883  0.0449
   48SOL    HW1  143   0.781   2.897   1.683  0.2257 -0.3110  0.8771
   48SOL    HW2  144   0.822   3.049   1.612  1.3825  0.4320 -0.5277
   49SOL     OW  145   0.477   2.847   3.018  0.0624 -0.2413 -0.2212
   49SOL    HW1  146   0.460   2.944   2.988 -0.8603 -2.0213  1.7658
   49SOL    HW2  147   0.513   2.838   0.023 -0.4954  0.5515 -2.3702
   50SOL     OW  148   1.568   1.035   0.845  0.4570 -0.1401 -0.2247
   50SOL    HW1  149   1.492   0.994   0.899  0.0125  0.5182 -1.2517
   50SOL    HW2  150   1.662   0.997   0.865  0.0802 -0.1584  0.2466
   51SOL     OW  151   1.880   3.026   0.912  0.3420  0.9294 -0.6066
   51SOL    HW1  152   1.853   2.946   0.855  0.2855  0.3952 -2.3387
   51SOL    HW2  153   1.830   3.022   1.003  1.1089  0.9288 -0.6888
   52SOL     OW  154   0.700   1.443   1.048  0.5220  0.1981  0.8171
   52SOL    HW1  155   0.598   1.456   1.044 -1.5264  0.5105 -0.7542
   52SOL    HW2  156   0.729   1.389   1.132  1.5293 -0.7465  1.3793
   53SOL     OW  157   0.143   0.626   2.874  0.3609  0.2966 -0.4572
   53SOL    HW1  158   0.047   0.592   2.875 -1.8805  4.0385  1.0043
   53SOL    HW2  159   0.191   0.616   2.961 -0.0037  0.8535 -3.3032
   54SOL     OW  160   2.099   2.054   2.908  0.2982 -0.4409 -0.2523
   54SOL    HW1  161   2.027   2.019   2.972 -1.8409  3.6897  1.0331
   54SOL    HW2  162   2.192   2.048   2.952  1.9457  1.4028  0.1334
   55SOL     OW  163   2.634   2.158   1.283  0.5534  0.1901  0.2269
   55SOL    HW1  164   2.683   2.243   1.284  0.0328 -0.2663  0.7282
   55SOL    HW2  165   2.620   2.132   1.378  2.5542  1.1813 -3.1459
   56SOL     OW  166   1.744   1.097   1.557  0.0499 -0.0871  0.0491
   56SOL    HW1  167   1.847   1.092   1.542  2.1743  2.9979 -0.3610
   56SOL    HW2  168   1.701   1.164   1.491  1.5214 -1.1882  1.7849
   57SOL     OW  169   2.309   1.886   0.847  0.1480  0.1261  0.5048
   57SOL    HW1  170   2.265   1.866   0.936  1.5058 -0.5728  0.7533
   57SOL    HW2  171   2.402   1.923   0.853 -2.1934 -0.1839  0.5937
   58SOL     OW  172   2.005   0.209   2.213  0.1751  0.0015  0.0292
   58SOL    HW1  173   2.035   0.258   2.301  1.5699  0.9840  2.0883
   58SOL    HW2  174   2.045   0.239   2.125  0.6960  1.5560 -1.1901
   59SOL     OW  175   1.422   0.326   2.432  0.2818  0.0426 -0.3584
   59SOL    HW1  176   1.474   0.241   2.413 -0.4649 -0.2855  0.2356
   59SOL    HW2  177   1.466   0.405   2.384 -0.6611 -0.5149 -0.0279
   60SOL     OW  178   1.731   1.892   0.073  0.2093 -0.1458  0.0234
   60SOL    HW1  179   1.664   1.816   0.095 -1.5215  1.7792  1.3150
   60SOL    HW2  180   1.705   1.927   3.068  1.6937  0.7436  0.1615
   61SOL     OW  181   0.491   1.964   3.057  0.4386 -0.4606 -0.4284
   61SOL    HW1  182   0.479   1.873   3.013 -0.7313 -3.3148 -1.3027
   61SOL    HW2  183   0.398   2.014   3.052 -2.4817  1.5373 -1.7441
   62SOL     OW  184   1.478   2.424   1.280 -0.0096 -0.2504 -0.1651
   62SOL    HW1  185   1.437   2.380   1.199  1.9129 -1.7575  1.6424
   62SOL    HW2  186   1.444   2.374   1.360 -0.0355 -1.8246 -3.2690
   63SOL     OW  187   0.440   1.661   0.405  0.1119 -0.8582  0.3031
   63SOL    HW1  188   0.521   1.675   0.469  1.5332 -0.6846  0.2239
   63SOL    HW2  189   0.468   1.681   0.311  0.8151  1.3666  3.4333
   64SOL     OW  190   1.834   1.750   2.533  0.3240 -0.0275  0.3380
   64SOL    HW1  191   1.931   1.734   2.531 -0.5669 -0.3821 -1.4650
   64SOL    HW2  192   1.806   1.835   2.487  0.7275 -0.0762  1.3075
   65SOL     OW  193   1.952   2.065   1.282  0.5411  0.0890  0.2443
   65SOL    HW1  194   1.855   2.072   1.252  0.1121 -0.3526 -0.7169
   65SOL    HW2  195   1.953   1.999   1.364 -0.0353 -2.0388  0.3621
   66SOL     OW  196   2.612   0.211   0.492 -1.3644  0.3768 -0.7506
   66SOL    HW1  197   2.709   0.209   0.529  2.6003 -1.7251 -0.7478
   66SOL    HW2  198   2.546   0.202   0.575 -0.0076 -0.3225  1.2370
   67SOL     OW  199   2.051   2.768   1.067 -0.4045  0.3957  0.2149
   67SOL    HW1  200   1.980   2.742   1.135  0.7178 -1.0123  1.0074
   67SOL    HW2  201   2.065   2.866   1.046 -0.1140  0.2054 -1.9301
   68SOL     OW  202   2.819   2.629   1.585  0.0315 -0.0041 -0.2977
   68SOL    HW1  203   2.722   2.657   1.573  2.3654 -1.1494  0.9681
   68SOL    HW2  204   2.885   2.704   1.572  1.1718  1.3472 -0.0759
   69SOL     OW  205   2.675   2.503   2.880 -0.0561 -0.1246  0.6916
   69SOL    HW1  206   2.771   2.484   2.846  0.1664  1.4758 -1.0502
   69SOL    HW2  207   2.679   2.548   2.970  0.0803 -1.3793 -0.4512
   70SOL     OW  208   1.144   1.968   2.218  0.3113 -0.1792 -0.2469
   70SOL    HW1  209   1.104   2.063   2.242 -0.5581 -1.3325 -1.5461
   70SOL    HW2  210   1.185   1.923   2.299  0.6877 -2.1654 -0.2168
   71SOL     OW  211   1.233   2.134   1.888 -0.2426 -0.5064 -0.4006
   71SOL    HW1  212   1.148   2.160   1.935  0.0722 -0.0479 -1.2990
   71SOL    HW2  213   1.321   2.179   1.918  1.9654  1.4534 -0.6715
   72SOL     OW  214   2.526   1.106   1.433 -0.1724  0.3132 -0.0578
   72SOL    HW1  215   2.623   1.119   1.464 -0.2585 -0.3435  0.3124
   72SOL    HW2  216   2.470   1.069   1.506  0.7576 -0.9350  1.0541
   73SOL     OW  217   0.679   2.031   2.375 -0.1662  0.0609  0.3612
   73SOL    HW1  218   0.678   1.957   2.300 -0.9671  0.8416 -1.5615
   73SOL    HW2  219   0.663   2.120   2.327 -1.3618 -1.1012 -1.8919
   74SOL     OW  220   0.768   0.201   2.433  0.4776  0.4759 -0.1472
   74SOL    HW1  221   0.804   0.114   2.477  1.0220 -1.5681 -0.4984
   74SOL    HW2  222   0.842   0.230   2.370  0.7547 -0.6470  0.2829
   75SOL     OW  223   1.125   2.664   0.661  0.1343  0.4895  0.4544
   75SOL    HW1  224   1.170   2.759   0.640  1.5777  2.5450 -0.3319
   75SOL    HW2  225   1.100   2.611   0.576 -0.5670  1.0212 -0.0395
   76SOL     OW  226   0.352   1.151   2.478  0.1230  0.2647  0.6995
   76SOL    HW1  227   0.444   1.182   2.518  0.2645  1.1971  0.6746
   76SOL    HW2  228   0.274   1.194   2.528 -1.3295 -0.5694 -0.5928
   77SOL     OW  229   0.681   2.573   0.610 -0.4105  0.5071 -0.1215
   77SOL    HW1  230   0.604   2.529   0.655  2.6506 -1.8022 -1.7573
   77SOL    HW2  231   0.735   2.637   0.674  1.1411  0.1222  0.9263
   78SOL     OW  232   2.545   0.995   2.538  0.0259  0.4933  0.2693
   78SOL    HW1  233   2.480   0.921   2.509 -2.2405  2.3471  2.9490
   78SOL    HW2  234   2.492   1.059   2.599  3.4371 -2.8389 -0.2622
   79SOL     OW  235   1.083   1.500   2.332 -0.1081 -0.0192  0.1388
   79SOL    HW1  236   1.172   1.546   2.318  2.1423 -0.5156  0.1776
   79SOL    HW2  237   1.009   1.567   2.354  0.5380 -1.1296  4.3897
   80SOL     OW  238   2.203   0.910   1.467 -0.7637 -0.1441  0.3129
   80SOL    HW1  239   2.238   0.863   1.386 -0.5161 -0.6980  1.5415
   80SOL    HW2  240   2.275   0.953   1.532  0.8125  1.4926  1.1097
   81SOL     OW  241   2.185   1.002   2.728  0.7286  0.2264  0.1772
   81SOL    HW1  242   2.089   1.044   2.719 -2.1141  0.4448  1.3015
   81SOL    HW2  243   2.209   0.928   2.659  1.3411  0.1555 -1.6563
   82SOL     OW  244   2.380   1.898   1.460  0.0108 -0.2255  0.1036
   82SOL    HW1  245   2.352   1.968   1.390  1.7783 -1.7989 -1.1067
   82SOL    HW2  246   2.305   1.851   1.507  0.3053  0.8885  0.4715
   83SOL     OW  247   1.737   2.924   0.435  0.1261 -0.4206 -0.2870
   83SOL    HW1  248   1.716   2.926   0.535  3.0385  2.8483 -2.5205
   83SOL    HW2  249   1.692   2.850   0.385 -0.4376  3.5421 -0.3104
   84SOL     OW  250   1.032   0.509   0.576 -0.3436 -0.0500  0.2698
   84SOL    HW1  251   1.043   0.408   0.578  1.8788  2.3310 -1.8719
   84SOL    HW2  252   1.030   0.549   0.667 -1.1756 -2.2900  0.2498
   85SOL     OW  253   2.197   1.612   1.198  0.0849  0.2497  0.6975
   85SOL    HW1  254   2.211   1.520   1.156 -0.6470  0.0991  0.6591
   85SOL    HW2  255   2.228   1.614   1.295 -1.7682 -1.3154 -2.1233
   86SOL     OW  256   0.546   0.770   1.036  0.5830  0.8393  0.0882
   86SOL    HW1  257   0.549   0.793   1.130  2.0203 -1.1333 -3.7972
   86SOL    HW2  258   0.452   0.779   1.005 -0.3778 -0.6592 -0.5862
   87SOL     OW  259   0.069   2.104   2.469  0.7129 -0.1009 -0.3757
   87SOL    HW1  260   0.049   2.012   2.503 -1.4858  1.1252  2.1002
   87SOL    HW2  261   0.149   2.107   2.411 -1.5178 -1.1522  0.9899
   88SOL     OW  262   0.420   0.014   2.928  0.3170 -0.7067 -0.5289
   88SOL    HW1  263   0.495   0.080   2.905  0.6337  0.6028  0.6794
   88SOL    HW2  264   0.365   3.069   2.852  2.8885 -1.3148  1.7875
   89SOL     OW  265   1.617   0.584   1.245  0.3279  1.1546 -0.1313
   89SOL    HW1  266   1.604   0.636   1.157  1.4727 -0.4522  0.6199
   89SOL    HW2  267   1.530   0.580   1.302 -1.8271  0.8026  2.2071
   90SOL     OW  268   2.929   1.008   1.724 -0.0267 -0.1275 -0.1410
   90SOL    HW1  269   2.931   0.934   1.652 -0.9864 -1.1826  0.9494
   90SOL    HW2  270   2.878   0.984   1.810 -0.0219 -1.9410  2.2217
   91SOL     OW  271   1.904   2.745   0.830 -0.5329  0.6041  0.5735
   91SOL    HW1  272   1.962   2.741   0.744  0.1326  1.8915 -0.6874
   91SOL    HW2  273   1.955   2.739   0.918  0.1164 -0.6174 -0.2065
   92SOL     OW  274   1.888   2.154   0.689 -0.1869 -0.3249 -0.2066
   92SOL    HW1  275   1.975   2.207   0.677  2.1297 -0.7039 -1.7135
   92SOL    HW2  276   1.819   2.192   0.634  0.7426 -3.5578  2.6720
   93SOL     OW  277   0.336   1.323   0.177 -0.2172  0.5347  0.2543
   93SOL    HW1  278   0.279   1.237   0.184 -0.4453 -1.1321  0.5305
   93SOL    HW2  279   0.355   1.358   0.268  0.0578  2.4016 -0.5771
   94SOL     OW  280   0.710   2.146   1.022 -0.1021 -0.4577  0.4655
   94SOL    HW1  281   0.800   2.110   1.059 -0.3184 -0.8897  2.4621
   94SOL    HW2  282   0.653   2.162   1.106 -0.4988 -0.7907  0.0859
   95SOL     OW  283   0.422   0.952   0.457  0.6234  0.2239  0.1317
   95SOL    HW1  284   0.447   1.043   0.495 -0.6975  1.4189 -0.5370
   95SOL    HW2  285   0.499   0.885   0.467  1.2023  0.4881 -0.9673
   96SOL     OW  286   1.238   2.630   2.189 -0.1409  0.4213 -0.4396
   96SOL    HW1  287   1.296   2.689   2.129 -0.6792  1.0562 -2.5000
   96SOL    HW2  288   1.207   2.548   2.135 -1.0644 -0.2935  0.1944
   97SOL     OW  289   2.502   0.937   0.564  0.4392 -0.0374 -0.1529
   97SOL    HW1  290   2.406   0.920   0.601  0.1287 -0.3814 -0.3509
   97SOL    HW2  291   2.500   0.994   0.480 -0.0611 -1.0525 -2.0131
   98SOL     OW  292   0.214   1.852   1.954  0.3595 -0.2648 -0.4675
   98SOL    HW1  293   0.249   1.937   1.908 -0.7406 -1.0676 -0.8949
   98SOL    HW2  294   0.281   1.806   2.014 -2.6374 -1.5530 -1.1994
   99SOL     OW  295   0.078   0.510   1.806  0.6027 -0.0337  0.2010
   99SOL    HW1  296   0.118   0.480   1.723 -1.2989 -0.6623  3.9831
   99SOL    HW2  297   0.107   0.451   1.884  2.7258  2.8593 -0.2782
  100SOL     OW  298   1.854   0.793   2.368  0.0275  0.3850  0.1198
  100SOL    HW1  299   1.806   0.783   2.278  0.0642  0.8537 -0.9454
  100SOL    HW2  300   1.795   0.799   2.448  0.0956  0.6797  0.1391
  101SOL     OW  301   0.711   0.601   2.071  0.0795  0.0816  0.3954
  101SOL    HW1  302   0.800   0.559   2.099 -0.7756  1.8842 -2.0590
  101SOL    HW2  303   0.630   0.559   2.112  0.8835  1.5290 -1.1477
  102SOL     OW  304   0.155   0.369   1.564  0.2130  0.4277 -0.0779
  102SOL    HW1  305   0.238   0.372   1.629  1.4313 -0.1472 -0.1791
  102SOL    HW2  306   0.155   0.283   1.510  0.4249  0.7202  0.7898
  103SOL     OW  307   0.444   0.820   0.004 -0.2226 -0.2032 -0.0573
  103SOL    HW1  308   0.475   0.771   0.090  0.6040 -0.7209 -0.0303
  103SOL    HW2  309   0.500   0.904   3.070 -3.5042 -0.7513 -0.0755
  104SOL     OW  310   0.674   2.801   1.775 -0.1085  0.0566 -0.4027
  104SOL    HW1  311   0.579   2.835   1.802 -0.0230  0.1572 -0.5705
  104SOL    HW2  312   0.686   2.699   1.789  1.3302 -2.4986 -0.5179
  105SOL     OW  313   2.449   2.784   1.922  0.4145  0.5198  0.0620
  105SOL    HW1  314   2.524   2.842   1.877 -0.2451 -0.5124 -2.9904
  105SOL    HW2  315   2.357   2.806   1.887 -0.7785  0.5580 -0.2029
  106SOL     OW  316   0.545   2.859   0.747 -0.0977 -0.3501  0.2817
  106SOL    HW1  317   0.593   2.897   0.825  1.0707  1.3326 -1.4733
  106SOL    HW2  318   0.602   2.847   0.662  0.3479  0.5332  1.1175
  107SOL     OW  319   0.044   1.331   1.039 -0.1562 -0.2021  0.4337
  107SOL    HW1  320   3.039   1.328   1.080 -0.4917 -2.0446  0.9878
  107SOL    HW2  321   0.116   1.318   1.113 -2.6093 -0.3337 -1.2712
  108SOL     OW  322   0.133   2.355   1.104 -0.2286  0.3772 -0.0866
  108SOL    HW1  323   0.112   2.368   1.002  0.5612 -1.3597  0.7105
  108SOL    HW2  324   0.198   2.275   1.119  2.7892 -1.7705  0.9515
  109SOL     OW  325   1.174   2.747   0.287  0.3781  0.3125  0.5736
  109SOL    HW1  326   1.220   2.832   0.268  0.6217 -2.4948 -0.5605
  109SOL    HW2  327   1.233   2.666   0.270 -0.2534  0.0003  0.9784
  110SOL     OW  328   1.428   1.905   0.474  0.0537  0.0115 -0.5078
  110SOL    HW1  329   1.494   1.977   0.445  0.2793  0.8059 -0.4237
  110SOL    HW2  330   1.365   1.941   0.543  0.4431  2.0377  1.5648
  111SOL     OW  331   1.792   2.890   1.981  0.1454  0.3207 -0.4760
  111SOL    HW1  332   1.894   2.895   1.961 -1.6271 -1.2440 -0.8504
  111SOL    HW2  333   1.766   2.892   2.079  3.0024  0.0620  2.1466
  112SOL     OW  334   2.108   2.679   2.706 -0.0989 -0.3812 -0.5279
  112SOL    HW1  335   2.081   2.592   2.661 -0.3449 -0.7567  1.6369
  112SOL    HW2  336   2.176   2.733   2.651 -3.3616  2.3272  0.3744
  113SOL     OW  337   2.430   1.904   2.136  0.3121 -0.2903  0.4957
  113SOL    HW1  338   2.466   1.992   2.178 -1.1095  2.9727  0.4147
  113SOL    HW2  339   2.380   1.925   2.050 -0.3237 -0.6037  0.7196
  114SOL     OW  340   0.036   1.187   1.681 -0.4181 -0.1660 -0.1486
  114SOL    HW1  341   3.060   1.112   1.695 -1.6404  0.6080  0.2145
  114SOL    HW2  342   3.080   1.277   1.659 -1.1022  0.5845 -0.9162
  115SOL     OW  343   3.041   0.814   0.108 -0.3906 -0.0118 -0.6571
  115SOL    HW1  344   2.982   0.811   0.195  0.9505 -0.4365  0.4282
  115SOL    HW2  345   0.040   0.873   0.114  2.4456  2.2031 -0.8067
  116SOL     OW  346   2.720   0.467   3.088 -0.1233 -0.1015  0.0635
  116SOL    HW1  347   2.705   0.493   2.994  0.5385 -0.5961 -1.0556
  116SOL    HW2  348   2.818   0.472   0.032  3.6123  0.7856  0.5123
  117SOL     OW  349   2.984   2.744   0.559  0.4061  0.1940 -0.2427
  117SOL    HW1  350   3.033   2.675   0.503 -1.8505 -3.1027  3.6211
  117SOL    HW2  351   2.966   2.716   0.656 -0.5265  1.4072  2.6540
  118SOL     OW  352   1.216   2.445   1.999  0.2457  0.0016  0.1765
  118SOL    HW1  353   1.295   2.388   1.963  1.0437 -3.2597 -1.6228
  118SOL    HW2  354   1.126   2.403   1.971 -0.4107 -1.4659  0.2312
  119SOL     OW  355   0.658   2.463   3.060  0.2251  0.1330  0.5287
  119SOL    HW1  356   0.654   2.361   3.043  1.6748 -0.1611  0.3229
  119SOL    HW2  357   0.564   2.495   3.077  3.0971 -0.8892  2.2679
  120SOL     OW  358   1.310   1.007   0.062 -0.4537 -0.4344 -0.2989
  120SOL    HW1  359   1.326   0.932   0.128 -1.3058  3.3889 -1.7245
  120SOL    HW2  360   1.240   1.075   0.099  1.4343  0.8536  1.6061
  121SOL     OW  361   1.504   1.171   1.106 -0.0594  0.1522 -0.5021
  121SOL    HW1  362   1.541   1.188   1.201  0.1328  1.3835 -0.4228
  121SOL    HW2  363   1.570   1.136   1.039  1.5162 -1.3567 -0.2172
  122SOL     OW  364   1.947   1.263   2.114  0.2841 -0.4286  0.4349
  122SOL    HW1  365   1.932   1.227   2.021 -0.2817  2.5044 -2.1143
  122SOL    HW2  366   1.967   1.193   2.182  1.3810  1.1583  0.2160
  123SOL     OW  367   3.055   0.799   0.545 -0.4626 -0.1991 -0.3161
  123SOL    HW1  368   3.065   0.901   0.560 -1.8578  0.2700  0.7157
  123SOL    HW2  369   3.083   0.744   0.625  0.8517 -1.8604 -2.0361
  124SOL     OW  370   0.762   0.663   2.934  0.5380  0.5127  0.1566
  124SOL    HW1  371   0.751   0.590   2.997  0.8985  0.6624 -1.2871
  124SOL    HW2  372   0.728   0.637   2.838 -0.7730 -0.6245 -0.3960
  125SOL     OW  373   0.629   2.910   2.528 -0.0237  0.4386 -0.1549
  125SOL    HW1  374   0.546   2.970   2.545  2.7307  1.2790  1.8431
  125SOL    HW2  375   0.615   2.816   2.573 -0.4763 -3.3476  1.1062
  126SOL     OW  376   0.774   1.417   2.522 -0.2562 -0.3403 -0.2424
  126SOL    HW1  377   0.808   1.517   2.504  0.7156  2.8559 -0.2771
  126SOL    HW2  378   0.743   1.376   2.438  1.7037  0.7709  2.0386
  127SOL     OW  379   1.103   2.894   1.162 -0.5281 -0.3050  0.3050
  127SOL    HW1  380   1.056   2.891   1.250  4.1517 -0.7452 -0.9864
  127SOL    HW2  381   1.049   2.943   1.093  0.7805  1.1629  0.9886
  128SOL     OW  382   1.601   2.286   0.187  0.3544 -0.6171  0.1063
  128SOL    HW1  383   1.560   2.252   0.100 -2.7646  0.1014  0.6239
  128SOL    HW2  384   1.628   2.385   0.180 -1.2217 -1.4498  1.3693
  129SOL     OW  385   1.883   1.660   1.222 -0.1126  0.2552 -0.0668
  129SOL    HW1  386   1.977   1.692   1.199 -1.8834 -0.2089 -1.2124
  129SOL    HW2  387   1.821   1.699   1.151  0.0933  2.2141 -1.1939
  130SOL     OW  388   1.863   1.822   1.441  0.9106 -0.4349 -0.2781
  130SOL    HW1  389   1.866   1.759   1.361  2.2652  0.5383 -1.6088
  130SOL    HW2  390   1.768   1.831   1.474 -0.0048  0.8312 -2.6102
  131SOL     OW  391   1.126   2.939   2.017 -0.4896 -0.4864 -0.0001
  131SOL    HW1  392   1.204   2.919   1.950  0.6644  0.5998 -2.5431
  131SOL    HW2  393   1.051   2.874   2.014  0.7904  1.0941  0.7029
  132SOL     OW  394   2.670   1.568   0.667  0.2903  0.2971  0.3248
  132SOL    HW1  395   2.679   1.646   0.603 -0.0748  0.8120  0.3543
  132SOL    HW2  396   2.583   1.578   0.715  0.9097 -2.4539 -0.1654
  133SOL     OW  397   0.542   1.523   1.732 -0.2651  0.1092 -0.6287
  133SOL    HW1  398   0.569   1.457   1.806  0.8122 -1.1114  0.4791
  133SOL    HW2  399   0.586   1.618   1.735 -0.3878  0.6221 -1.3818
  134SOL     OW  400   3.071   1.086   0.584 -0.2202 -0.0681  0.7371
  134SOL    HW1  401   2.997   1.141   0.545  6.1810  0.7444 -0.7160
  134SOL    HW2  402   0.078   1.123   0.590  2.2891 -0.0180  1.6454
  135SOL     OW  403   1.997   1.870   0.028 -0.2743 -0.3032 -0.2294
  135SOL    HW1  404   2.020   1.832   0.119 -1.4491 -4.2689 -0.6074
  135SOL    HW2  405   1.902   1.908   0.022  1.1220  3.9753  1.0292
  136SOL     OW  406   2.900   1.559   1.283 -0.6419  0.2150  0.4753
  136SOL    HW1  407   2.809   1.536   1.326  1.3614 -0.1900 -1.5623
  136SOL    HW2  408   2.967   1.598   1.345  0.2312 -0.7789  1.1192
  137SOL     OW  409   2.419   1.155   2.722 -0.2485  0.2171 -0.1886
  137SOL    HW1  410   2.323   1.124   2.727  1.9979  1.1633 -0.4482
  137SOL    HW2  411   2.437   1.212   2.800 -2.2164 -0.2208  0.8482
  138SOL     OW  412   3.008   0.326   1.089  0.6596 -0.0871  0.6040
  138SOL    HW1  413   3.006   0.400   1.014 -2.3065  0.6741 -2.6920
  138SOL    HW2  414   3.031   0.370   1.178  0.2509 -2.6736  0.6799
  139SOL     OW  415   1.822   2.161   0.017  0.1538 -0.8603  0.5286
  139SOL    HW1  416   1.777   2.204   0.096  0.6926 -0.8211  2.6909
  139SOL    HW2  417   1.776   2.187   3.017 -0.6653  0.0238 -1.3138
  140SOL     OW  418   0.891   1.393   0.880  0.3734 -0.0122  0.6030
  140SOL    HW1  419   0.803   1.405   0.934 -0.6919  2.6450 -1.2623
  140SOL    HW2  420   0.932   1.483   0.866  0.4364 -2.0692 -0.5769
  141SOL     OW  421   1.333   1.584   0.931 -0.0409 -0.0390  0.1706
  141SOL    HW1  422   1.325   1.511   0.865 -3.4219  2.5160  0.5983
  141SOL    HW2  423   1.424   1.624   0.933 -0.3679 -0.1454 -0.1821
  142SOL     OW  424   0.943   0.870   1.153  0.4091 -0.2134  0.2800
  142SOL    HW1  425   0.896   0.866   1.061 -0.2957  0.1809 -1.5736
  142SOL    HW2  426   0.997   0.955   1.158 -0.8296 -1.5415 -1.4454
  143SOL     OW  427   0.382   0.228   2.645  0.5450  0.3278 -0.3457
  143SOL    HW1  428   0.475   0.275   2.644 -1.3129 -1.0874  2.2823
  143SOL    HW2  429   0.324   0.277   2.713 -1.1531 -1.7109  0.9945
  144SOL     OW  430   2.146   0.159   0.380 -0.0082  0.1149  0.2221
  144SOL    HW1  431   2.229   0.131   0.333 -4.4178 -0.1804  2.1788
  144SOL    HW2  432   2.154   0.257   0.410 -0.9930 -1.2844 -0.9296
  145SOL     OW  433   2.013   2.980   2.828  0.4833  0.5804  0.2465
  145SOL    HW1  434   1.954   3.020   2.756 -2.1197  0.2432  0.0917
  145SOL    HW2  435   2.106   2.969   2.788 -1.0656 -0.2215 -0.1419
  146SOL     OW  436   0.042   3.012   0.291 -0.0698  0.1280  0.1742
  146SOL    HW1  437   0.140   2.999   0.265  0.6430 -0.5949 -1.9458
  146SOL    HW2  438   3.079   2.926   0.281  2.1765  1.2112  1.0412
  147SOL     OW  439   1.982   1.161   0.428 -0.7142  0.1100  0.2951
  147SOL    HW1  440   2.006   1.060   0.430 -1.1667  1.0013  0.7029
  147SOL    HW2  441   1.909   1.176   0.363  1.9735  2.4036  0.1299
  148SOL     OW  442   1.028   2.546   0.387  0.0948  0.2283  0.2750
  148SOL    HW1  443   1.087   2.627   0.375  0.6186  2.0982 -0.0008
  148SOL    HW2  444   0.976   2.527   0.305  0.9977 -1.5578  1.7818
  149SOL     OW  445   1.360   0.707   2.500  0.0408  0.0554  0.3761
  149SOL    HW1  446   1.273   0.651   2.498  0.2639 -2.6631 -1.6345
  149SOL    HW2  447   1.415   0.683   2.580 -1.7468 -0.7782 -0.3752
  150SOL     OW  448   1.201   3.020   2.651  0.2048 -0.2663 -0.3348
  150SOL    HW1  449   1.145   2.935   2.684  1.2880 -3.6695  2.8523
  150SOL    HW2  450   1.271   3.048   2.719  1.2534  1.1517 -0.8147
  151SOL     OW  451   0.182   1.160   3.064 -0.1832  0.6630  0.2152
  151SOL    HW1  452   0.244   1.193   2.990 -1.3529  0.9734 -0.6562
  151SOL    HW2  453   0.191   1.056   3.070  1.6127 -0.1640  0.2156
  152SOL     OW  454   0.557   0.150   1.524  0.0307 -0.5911 -0.5762
  152SOL    HW1  455   0.518   0.232   1.570 -2.5848 -1.5378  0.0050
  152SOL    HW2  456   0.481   0.090   1.488 -2.0979 -0.0705 -1.3044
  153SOL     OW  457   2.810   2.994   1.628  0.1255  0.1740 -0.4213
  153SOL    HW1  458   2.860   3.079   1.657 -2.7039  0.2566 -1.1612
  153SOL    HW2  459   2.810   2.986   1.525 -1.5811 -1.4546 -2.1481
  154SOL     OW  460   2.382   0.356   2.008  0.2658  0.0552  0.3329
  154SOL    HW1  461   2.364   0.349   1.907  0.8764  1.4676 -3.0551
  154SOL    HW2  462   2.293   0.388   2.049 -1.4951  2.6605 -0.0257
  155SOL     OW  463   0.671   1.147   0.276  0.4783 -0.0787 -0.2762
  155SOL    HW1  464   0.693   1.065   0.225  0.1882  0.9581 -0.8339
  155SOL    HW2  465   0.660   1.223   0.208 -4.1522  0.5385  0.7456
  156SOL     OW  466   2.004   1.545   0.313  0.2449 -0.0149 -0.4149
  156SOL    HW1  467   2.071   1.528   0.389  2.7766 -2.3212 -1.5447
  156SOL    HW2  468   1.915   1.580   0.347 -1.4879  0.8023 -1.6365
  157SOL     OW  469   1.017   1.854   0.139 -0.7229 -0.2001 -0.1632
  157SOL    HW1  470   0.958   1.774   0.154  1.6877 -0.6390 -2.6474
  157SOL    HW2  471   1.103   1.846   0.192  0.4861  1.5910  2.5763
  158SOL     OW  472   1.886   0.938   1.942 -0.3099  0.3530 -0.3770
  158SOL    HW1  473   1.856   0.855   1.990  0.2721 -0.5369 -0.4252
  158SOL    HW2  474   1.977   0.961   1.977 -1.1232  0.6528 -1.3743
  159SOL     OW  475   0.464   0.063   0.525 -0.1612  0.5730 -0.2363
  159SOL    HW1  476   0.404   3.077   0.552  3.7066  0.0992 -0.4118
  159SOL    HW2  477   0.430   0.117   0.443  0.3965  2.1043 -2.9534
  160SOL     OW  478   2.433   1.370   1.624 -0.0918 -0.3958 -0.0186
  160SOL    HW1  479   2.531   1.371   1.656  3.1431 -4.5199  0.7824
  160SOL    HW2  480   2.365   1.379   1.694  0.9587  0.3417 -4.0438
  161SOL     OW  481   0.318   0.157   0.058 -0.7404  0.4966 -0.2695
  161SOL    HW1  482   0.233   0.122   0.102  0.6606 -3.8029  0.5401
  161SOL    HW2  483   0.361   0.085   0.005 -0.4352  0.7755  3.3302
  162SOL     OW  484   2.988   0.697   2.623  0.0789  0.2807 -0.2215
  162SOL    HW1  485   2.927   0.779   2.638  0.7452 -0.0502 -1.7699
  162SOL    HW2  486   2.972   0.626   2.698  1.0816 -2.0821  2.5878
  163SOL     OW  487   2.870   2.634   2.592  0.3640  0.0838  0.2168
  163SOL    HW1  488   2.878   2.577   2.674 -1.8193  1.3729 -0.5722
  163SOL    HW2  489   2.910   2.729   2.597  1.3743 -1.2609  1.5014
  164SOL     OW  490   2.644   2.103   0.396 -0.3126  0.3165  0.3524
  164SOL    HW1  491   2.543   2.083   0.418 -0.4126  1.9790  1.5320
  164SOL    HW2  492   2.672   2.193   0.445  2.1480  3.0594  3.2279
  165SOL     OW  493   1.044   0.856   1.517 -0.3328 -0.2918  0.1809
  165SOL    HW1  494   1.134   0.872   1.471  2.4373 -1.4287 -1.0479
  165SOL    HW2  495   0.985   0.784   1.463 -5.3124 -3.7883 -1.9598
  166SOL     OW  496   2.974   0.302   0.471  0.0802  0.0799 -0.4233
  166SOL    HW1  497   3.050   0.345   0.523 -0.0587  0.3961  1.6251
  166SOL    HW2  498   3.014   0.261   0.390 -0.0472  2.0516 -1.1449
  167SOL     OW  499   1.993   0.698   1.113  0.8956  0.0301  0.3641
  167SOL    HW1  500   2.088   0.708   1.076  0.6657  0.5444  1.8047
  167SOL    HW2  501   1.997   0.664   1.208  1.4619 -0.6886  1.1602
  168SOL     OW  502   0.971   0.521   2.154  0.4153  0.0440 -0.0867
  168SOL    HW1  503   1.041   0.498   2.086 -2.1280 -0.8620 -1.0321
  168SOL    HW2  504   1.000   0.602   2.207 -0.0760 -0.8964 -0.6112
  169SOL     OW  505   1.202   1.978   1.381  0.3180 -0.2613 -0.0521
  169SOL    HW1  506   1.128   1.914   1.344 -0.3027 -1.6508 -1.1219
  169SOL    HW2  507   1.192   1.994   1.479 -1.1386  1.6353 -1.2148
  170SOL     OW  508   3.055   2.830   1.497  0.2325 -0.2972 -0.1924
  170SOL    HW1  509   0.002   2.842   1.590  0.6532 -2.1357 -0.2434
  170SOL    HW2  510   3.019   2.912   1.449 -1.6652 -0.8517 -0.7734
  171SOL     OW  511   2.576   0.548   2.435  0.5292 -0.1564  0.3280
  171SOL    HW1  512   2.654   0.486   2.457  0.8023 -1.3535 -1.8741
  171SOL    HW2  513   2.542   0.539   2.336 -0.8623  0.1401 -0.5334
  172SOL     OW  514   1.159   2.908   1.644 -0.0574 -0.3229  0.4255
  172SOL    HW1  515   1.235   2.896   1.706 -1.2954 -0.8579 -0.9720
  172SOL    HW2  516   1.120   2.999   1.642 -1.4234 -4.3830  0.9947
  173SOL     OW  517   2.504   2.029   2.824  0.0477  0.5430 -0.0389
  173SOL    HW1  518   2.421   1.998   2.881 -1.5037 -1.3095  2.3685
  173SOL    HW2  519   2.521   2.128   2.840  0.6561  0.4073  0.2203
  174SOL     OW  520   1.659   0.876   0.384  0.2954 -0.1956 -0.2296
  174SOL    HW1  521   1.660   0.966   0.440  2.1823  2.2977 -0.3664
  174SOL    HW2  522   1.565   0.855   0.348 -0.3545 -2.4387  0.5029
  175SOL     OW  523   0.953   1.452   1.360 -0.0462  0.1726  0.7021
  175SOL    HW1  524   1.008   1.469   1.271  0.3822  2.4682 -0.7328
  175SOL    HW2  525   1.000   1.498   1.438  1.3313 -2.1242 -3.2884
  176SOL     OW  526   0.143   0.085   0.711  0.2580  0.1234  0.6835
  176SOL    HW1  527   0.233   0.039   0.701  1.0902 -1.0840 -0.8367
  176SOL    HW2  528   0.073   0.016   0.686  1.9456  0.0988  0.6043
  177SOL     OW  529   2.646   0.906   2.885 -0.2888  0.1923  0.6765
  177SOL    HW1  530   2.730   0.859   2.920 -0.1479 -1.4162  0.7423
  177SOL    HW2  531   2.655   0.927   2.784  0.8156 -1.4422  1.8678
  178SOL     OW  532   2.904   2.801   1.998 -0.4301  0.1904 -0.4212
  178SOL    HW1  533   2.887   2.755   2.088 -0.2590  1.1207 -1.3003
  178SOL    HW2  534   2.916   2.734   1.922 -0.8089  1.2871 -2.0391
  179SOL     OW  535   2.213   2.955   0.303  0.0328  0.4984 -0.2203
  179SOL    HW1  536   2.187   3.019   0.228 -0.4794 -0.8751  1.4304
  179SOL    HW2  537   2.126   2.925   0.352  0.4432 -0.6154 -1.2451
  180SOL     OW  538   2.047   0.691   0.738 -0.2484 -0.0566  0.0083
  180SOL    HW1  539   1.985   0.616   0.758  0.7629  2.5545  0.2165
  180SOL    HW2  540   1.992   0.779   0.733 -1.2574  2.0003 -0.4950
  181SOL     OW  541   3.048   0.361   2.535 -0.2109 -0.0316 -0.3940
  181SOL    HW1  542   0.025   0.282   2.526  0.7010 -3.0981  0.0948
  181SOL    HW2  543   0.004   0.423   2.604  2.6047 -2.0514  0.5065
  182SOL     OW  544   2.746   1.995   2.276  0.1132  0.4243 -0.1846
  182SOL    HW1  545   2.736   1.894   2.264 -1.8241  1.1913  0.6785
  182SOL    HW2  546   2.651   2.032   2.294  0.7233  1.1704  0.2301
  183SOL     OW  547   0.027   0.802   1.977 -0.2565  0.5858  0.2471
  183SOL    HW1  548   0.070   0.756   2.057 -0.5990  0.6398 -1.1579
  183SOL    HW2  549   0.007   0.733   1.903 -0.3805  0.0718 -0.4392
  184SOL     OW  550   0.245   1.269   1.199  0.0929 -0.6182  0.2615
  184SOL    HW1  551   0.211   1.233   1.287  0.2118 -1.9662  0.7865
  184SOL    HW2  552   0.333   1.217   1.181  1.6710 -0.9157  3.7383
  185SOL     OW  553   2.964   2.425   1.194 -0.0685  0.0100  0.4294
  185SOL    HW1  554   3.056   2.383   1.168  1.1741 -1.6037  1.4313
  185SOL    HW2  555   2.988   2.499   1.256  2.3096 -1.2366 -0.5853
  186SOL     OW  556   1.551   2.741   3.008  0.1895  0.0855  0.3493
  186SOL    HW1  557   1.595   2.650   3.025 -3.1734 -1.5208 -0.2771
  186SOL    HW2  558   1.451   2.731   3.027 -0.0966  0.2388  1.5260
  187SOL     OW  559   0.226   1.175   0.629 -0.4372  0.3060  0.0892
  187SOL    HW1  560   0.203   1.161   0.723  1.0185  1.5549 -2.8405
  187SOL    HW2  561   0.315   1.209   0.615 -1.9168  0.5074  0.1529
  188SOL     OW  562   1.766   1.893   0.334 -0.1472  0.6326  0.0135
  188SOL    HW1  563   1.752   1.889   0.232 -0.2691 -0.9291  0.3282
  188SOL    HW2  564   1.717   1.979   0.366 -1.3946  1.3465 -2.1900
  189SOL     OW  565   0.084   1.587   3.003  0.2736  0.0178 -0.5401
  189SOL    HW1  566   0.037   1.567   0.003 -2.0994 -1.9056 -0.2322
  189SOL    HW2  567   0.186   1.568   3.013  0.0260 -0.4359  0.9752
  190SOL     OW  568   2.431   0.309   2.530 -0.0685 -0.1237  0.4810
  190SOL    HW1  569   2.500   0.262   2.470 -2.2766 -0.5684  0.1908
  190SOL    HW2  570   2.410   0.402   2.489  1.0733  2.0228  0.0047
  191SOL     OW  571   0.661   1.124   2.095  0.0252  0.6161 -0.0812
  191SOL    HW1  572   0.563   1.091   2.072 -3.0911 -1.3798 -0.9188
  191SOL    HW2  573   0.719   1.101   2.020 -3.8234  0.2762  2.8593
  192SOL     OW  574   2.003   1.265   1.689  0.1145 -0.3692  0.5455
  192SOL    HW1  575   1.921   1.246   1.754 -3.5694  2.0346 -0.8923
  192SOL    HW2  576   1.999   1.213   1.603  0.4916 -0.2439  0.1761
  193SOL     OW  577   0.940   3.023   1.002  0.4017 -0.3200 -0.5680
  193SOL    HW1  578   0.958   0.013   0.948  0.3193 -1.9215  1.1070
  193SOL    HW2  579   0.841   2.994   0.998  1.6629 -1.6881 -1.2818
  194SOL     OW  580   1.411   1.796   1.354  0.0138 -1.0622  0.1523
  194SOL    HW1  581   1.363   1.725   1.300  2.7932 -0.9596  1.4020
  194SOL    HW2  582   1.354   1.883   1.366 -1.7228  2.6778  0.1592
  195SOL     OW  583   1.883   0.450   1.056  0.3576 -0.1158 -0.2476
  195SOL    HW1  584   1.923   0.389   1.130  0.0589 -2.0434  0.9029
  195SOL    HW2  585   1.918   0.546   1.059 -1.5879 -0.5861  2.6539
  196SOL     OW  586   1.294   1.766   2.069 -0.1394  1.0336 -0.7825
  196SOL    HW1  587   1.346   1.829   2.010  0.9211  2.0630 -0.5071
  196SOL    HW2  588   1.231   1.828   2.121 -1.4818 -2.2380 -0.7098
  197SOL     OW  589   2.933   2.906   2.616  0.2593  0.4476  0.4930
  197SOL    HW1  590   2.903   2.951   2.527 -0.4308  1.5387  0.2960
  197SOL    HW2  591   2.867   2.937   2.688  1.1790  0.9804 -1.7778
  198SOL     OW  592   3.020   0.484   0.884 -0.3241 -0.0557  0.0006
  198SOL    HW1  593   0.001   0.531   0.826  0.0242 -1.2681 -2.1609
  198SOL    HW2  594   2.930   0.478   0.836  0.4261 -1.6331  1.4627
  199SOL     OW  595   0.575   1.892   0.951 -0.0494 -0.1408 -0.2950
  199SOL    HW1  596   0.538   1.908   0.860 -0.7840  0.7318  2.8968
  199SOL    HW2  597   0.612   1.980   0.977  1.9986 -0.8015 -1.1302
  200SOL     OW  598   2.839   1.781   3.052 -0.0664  0.3152 -0.4225
  200SOL    HW1  599   2.768   1.771   2.980 -0.2207 -2.6043 -0.0190
  200SOL    HW2  600   2.891   1.697   3.075  0.9355  1.4699  0.3633
  201SOL     OW  601   1.292   2.565   1.568 -0.1207 -0.2148  0.1959
  201SOL    HW1  602   1.325   2.648   1.512 -1.5951  1.6265  0.6695
  201SOL    HW2  603   1.225   2.596   1.639 -0.6065  0.3252  2.0864
  202SOL     OW  604   1.002   2.806   2.980 -0.0995 -0.4546 -0.1500
  202SOL    HW1  605   0.962   2.802   3.077 -3.0936 -2.5390  2.1343
  202SOL    HW2  606   0.927   2.825   2.909 -5.5882  2.5213 -1.5079
  203SOL     OW  607   1.345   3.005   3.044 -0.2178 -0.0404  0.1758
  203SOL    HW1  608   1.342   3.047   2.947  3.0718 -0.8288 -0.8497
  203SOL    HW2  609   1.310   2.908   3.049 -1.3933  0.3384  2.1763
  204SOL     OW  610   0.577   1.669   1.414 -0.4994  0.5011 -0.0333
  204SOL    HW1  611   0.554   1.681   1.313  0.7326  0.5933 -1.1212
  204SOL    HW2  612   0.547   1.581   1.447  0.3263  1.5475 -1.3209
  205SOL     OW  613   1.808   1.188   1.858  0.2968  0.3289  0.4768
  205SOL    HW1  614   1.834   1.092   1.888  0.9584 -0.2293  0.0279
  205SOL    HW2  615   1.721   1.203   1.910  1.1311  1.0693  0.9623
  206SOL     OW  616   0.070   1.846   3.019  1.1595  0.1457 -0.4237
  206SOL    HW1  617   0.063   1.746   3.024  0.7823 -1.4320  0.9860
  206SOL    HW2  618   3.067   1.891   3.008 -0.4529 -0.3227  0.3803
  207SOL     OW  619   0.416   2.073   2.074  1.2521  0.2232 -0.2662
  207SOL    HW1  620   0.504   2.058   2.030 -3.0802 -2.0037  1.4056
  207SOL    HW2  621   0.341   2.074   2.005 -3.4760 -1.4443 -0.7645
  208SOL     OW  622   0.487   2.465   0.767  0.2986 -0.3572 -0.2849
  208SOL    HW1  623   0.414   2.397   0.735 -1.3733 -1.1532  0.9554
  208SOL    HW2  624   0.447   2.552   0.791 -1.2269  0.3769 -2.4740
  209SOL     OW  625   1.059   2.736   2.372  0.7747 -0.4455 -0.3239
  209SOL    HW1  626   0.977   2.785   2.335 -0.8463 -2.2049  0.6718
  209SOL    HW2  627   1.110   2.697   2.293 -1.5761 -0.5864 -1.7683
  210SOL     OW  628   2.759   1.383   1.739  0.1703 -0.0094  0.4225
  210SOL    HW1  629   2.711   1.469   1.772  1.5544  0.8161 -2.2637
  210SOL    HW2  630   2.732   1.301   1.789  1.7192  4.0459  1.5602
  211SOL     OW  631   1.186   0.125   1.616 -0.0367  0.9166 -0.1814
  211SOL    HW1  632   1.136   0.213   1.586  0.7631  2.1765 -1.7215
  211SOL    HW2  633   1.160   0.098   1.709 -1.7440  2.3203 -1.5042
  212SOL     OW  634   2.066   2.823   1.914  0.0359 -0.4892 -0.5692
  212SOL    HW1  635   2.097   2.779   2.000  0.1791  1.9639 -0.0978
  212SOL    HW2  636   2.044   2.750   1.846  0.1135 -2.1112 -0.6434
  213SOL     OW  637   2.955   0.141   1.646 -0.2063  0.0722  0.1436
  213SOL    HW1  638   2.943   0.238   1.607 -1.9609 -0.1729 -1.5290
  213SOL    HW2  639   2.998   0.149   1.739 -0.6184 -0.1849  0.3605
  214SOL     OW  640   0.952   2.090   1.086  0.4410 -0.1887 -0.4875
  214SOL    HW1  641   1.001   2.142   1.157 -1.1452 -0.2017 -0.6573
  214SOL    HW2  642   1.021   2.049   1.023 -0.9647  0.4264  2.2450
  215SOL     OW  643   2.430   2.267   0.659 -0.1267  0.5130  0.0204
  215SOL    HW1  644   2.382   2.263   0.569  1.0739 -1.6651 -0.5096
  215SOL    HW2  645   2.524   2.297   0.642  1.0613  2.1747 -0.1142
  216SOL     OW  646   0.300   0.820   1.667 -0.2150 -0.4315 -0.3211
  216SOL    HW1  647   0.273   0.912   1.695 -0.4323  0.0072 -1.2023
  216SOL    HW2  648   0.235   0.774   1.605  1.6177 -3.2865  0.0608
  217SOL     OW  649   2.434   0.102   1.578 -0.8801  0.2888 -0.3289
  217SOL    HW1  650   2.381   0.106   1.489 -0.4142  1.2304 -0.1130
  217SOL    HW2  651   2.416   0.015   1.627 -2.4688  0.9600  1.6530
  218SOL     OW  652   1.971   2.633   1.731  0.1710  0.1659 -0.0870
  218SOL    HW1  653   1.951   2.666   1.637  0.7960 -0.2937 -0.7977
  218SOL    HW2  654   1.916   2.551   1.757  4.4605 -0.2310  0.7199
  219SOL     OW  655   1.990   2.420   3.034 -0.0373  0.3166  0.7171
  219SOL    HW1  656   2.051   2.502   3.035 -0.5000  0.9991  2.4589
  219SOL    HW2  657   2.027   2.349   3.088  0.2780  0.8062 -1.5679
  220SOL     OW  658   1.370   2.936   0.212  0.0527 -0.1388  0.1901
  220SOL    HW1  659   1.369   2.981   0.117 -2.2511 -0.2869 -2.3166
  220SOL    HW2  660   1.457   2.879   0.227  1.3610 -0.7386  1.5594
  221SOL     OW  661   0.023   2.078   1.410  0.4636  0.4316 -0.2606
  221SOL    HW1  662   0.019   2.169   1.450  0.5152 -0.2790  2.4414
  221SOL    HW2  663   0.120   2.059   1.395 -3.4571 -2.0846  1.1340
  222SOL     OW  664   1.833   2.744   1.248 -0.5539 -0.0110 -0.1419
  222SOL    HW1  665   1.826   2.849   1.228 -1.3990 -0.2467  0.0602
  222SOL    HW2  666   1.838   2.731   1.350 -0.6477  1.0249 -0.9983
  223SOL     OW  667   1.433   0.495   1.465  0.4554 -0.4467 -0.0093
  223SOL    HW1  668   1.473   0.493   1.559  0.5565  2.7541  1.7150
  223SOL    HW2  669   1.369   0.415   1.444 -4.4875  2.2643  0.1130
  224SOL     OW  670   0.012   2.332   1.487 -0.0022 -0.8269 -0.4569
  224SOL    HW1  671   3.085   2.426   1.445  0.3511 -4.3748  0.6804
  224SOL    HW2  672   3.057   2.327   1.578  0.2941  1.1357 -1.5205
  225SOL     OW  673   2.623   2.103   1.017  0.0023 -0.6061 -0.4735
  225SOL    HW1  674   2.639   2.121   1.119  0.5854  2.9214  0.7772
  225SOL    HW2  675   2.523   2.128   0.988 -2.9770 -0.5026 -2.3600
  226SOL     OW  676   1.499   2.207   3.004 -0.4749  0.9899 -0.6306
  226SOL    HW1  677   1.445   2.122   3.037 -2.9459 -0.6398 -2.1076
  226SOL    HW2  678   1.544   2.193   2.911 -0.1913 -2.8283 -3.6867
  227SOL     OW  679   1.810   1.389   0.750  0.3962 -0.7341 -0.4721
  227SOL    HW1  680   1.855   1.441   0.826  0.2581 -0.4533 -0.3436
  227SOL    HW2  681   1.719   1.356   0.788 -1.5792  3.5133  2.2129
  228SOL     OW  682   2.013   0.885   0.427 -0.6512 -0.1185  0.5198
  228SOL    HW1  683   2.099   0.863   0.379 -0.3267  1.8560 -0.8607
  228SOL    HW2  684   1.973   0.801   0.466  0.5333  0.4720  2.3450
  229SOL     OW  685   2.669   1.129   1.886  0.1963  0.2007 -0.2918
  229SOL    HW1  686   2.578   1.096   1.857  2.2995  0.4176  0.3422
  229SOL    HW2  687   2.734   1.060   1.921 -0.3581  0.8340  0.4550
  230SOL     OW  688   0.473   1.120   1.172 -0.0472  0.2114  0.1001
  230SOL    HW1  689   0.549   1.143   1.108  0.5185  1.2345  0.5084
  230SOL    HW2  690   0.481   1.030   1.217  0.9201  0.6370 -2.9692
  231SOL     OW  691   1.889   0.428   2.594 -0.3426  0.4760  0.0581
  231SOL    HW1  692   1.890   0.406   2.692 -2.1142 -1.3079 -1.2551
  231SOL    HW2  693   1.968   0.487   2.572 -0.9435 -3.5275 -0.9519
  232SOL     OW  694   0.192   1.708   1.059 -0.2534  0.8689 -0.0338
  232SOL    HW1  695   0.207   1.636   1.134  0.6989 -1.3450  0.7399
  232SOL    HW2  696   0.158   1.665   0.972  0.8544  2.0140 -0.8495
  233SOL     OW  697   1.637   2.914   2.792 -0.1933  0.3088  0.2868
  233SOL    HW1  698   1.653   3.014   2.789 -1.9917 -0.8307 -0.1669
  233SOL    HW2  699   1.615   2.887   2.884  0.2446  0.8154 -2.1775
  234SOL     OW  700   1.553   2.652   1.415 -0.1769  0.2307 -0.4173
  234SOL    HW1  701   1.496   2.733   1.390 -1.1516  1.3435  1.6270
  234SOL    HW2  702   1.520   2.575   1.358 -0.0067 -0.4256 -0.0945
  235SOL     OW  703   0.784   1.341   1.544 -0.0045 -0.0650  0.3600
  235SOL    HW1  704   0.838   1.387   1.472  0.6162  0.2768  0.9988
  235SOL    HW2  705   0.688   1.374   1.550 -4.2201 -1.1545 -0.7412
  236SOL     OW  706   0.596   2.747   2.759  0.3678 -0.3009 -0.4487
  236SOL    HW1  707   0.680   2.694   2.787 -3.3633 -0.8984 -0.5825
  236SOL    HW2  708   0.561   2.801   2.838 -0.5120  1.8593  0.5338
  237SOL     OW  709   0.325   0.127   1.909 -0.4248  0.0587 -0.5078
  237SOL    HW1  710   0.414   0.090   1.951 -0.0979 -0.9318  1.6556
  237SOL    HW2  711   0.285   0.067   1.837  0.2001 -1.2741  1.2667
  238SOL     OW  712   0.771   0.554   0.498 -0.2762 -0.3640 -0.1489
  238SOL    HW1  713   0.739   0.496   0.422  3.1375  3.1611 -0.4092
  238SOL    HW2  714   0.876   0.540   0.510  3.6010  0.7052 -0.4803
  239SOL     OW  715   2.318   0.588   2.810 -0.8026 -0.1446 -0.0254
  239SOL    HW1  716   2.373   0.667   2.780  0.5876 -1.7463 -2.7410
  239SOL    HW2  717   2.269   0.597   2.901 -1.8905 -0.4762  0.8289
  240SOL     OW  718   2.875   2.200   0.913  0.0371 -0.2281 -0.3303
  240SOL    HW1  719   2.789   2.160   0.946  0.7854  1.0766 -0.0520
  240SOL    HW2  720   2.938   2.204   0.994 -1.5176 -1.9907  1.3671
  241SOL     OW  721   1.194   1.802   0.777  0.1374 -0.8157  0.2611
  241SOL    HW1  722   1.264   1.765   0.841  3.0011 -0.9302 -1.9743
  241SOL    HW2  723   1.215   1.899   0.745  1.8713  0.2327  1.8930
  242SOL     OW  724   0.776   0.188   0.488  0.1503 -0.2948 -0.1335
  242SOL    HW1  725   0.828   0.109   0.448  3.5934 -0.6988  0.4856
  242SOL    HW2  726   0.735   0.158   0.578 -1.7146  0.0711 -0.2549
  243SOL     OW  727   0.315   0.496   1.161 -0.0410  0.0681  0.0917
  243SOL    HW1  728   0.214   0.497   1.146  1.0578 -0.4271  1.1706
  243SOL    HW2  729   0.346   0.401   1.174  0.0101  0.2182  0.1381
  244SOL     OW  730   0.661   2.960   0.508 -0.0078  0.4117  0.4188
  244SOL    HW1  731   0.691   2.948   0.412 -0.3932 -0.2008  0.6678
  244SOL    HW2  732   0.595   3.036   0.517  1.0229  0.2668 -1.1051
  245SOL     OW  733   2.539   1.095   0.323  0.3027 -0.5054 -0.1838
  245SOL    HW1  734   2.614   1.031   0.293  1.2321 -1.2956 -0.8141
  245SOL    HW2  735   2.587   1.181   0.351 -0.0480  0.5211  2.9940
  246SOL     OW  736   0.326   2.588   1.495  0.4662 -0.7867  0.2713
  246SOL    HW1  737   0.403   2.651   1.504  0.4844 -0.9612 -0.1401
  246SOL    HW2  738   0.295   2.575   1.400 -0.3141  2.3444 -0.3603
  247SOL     OW  739   0.782   0.197   2.014 -0.2101 -0.4468  0.1530
  247SOL    HW1  740   0.713   0.144   2.063 -0.3109 -0.7850  0.1426
  247SOL    HW2  741   0.734   0.263   1.959  0.9401 -1.1525 -0.7795
  248SOL     OW  742   0.398   1.715   2.134 -0.2336 -0.3193 -0.4056
  248SOL    HW1  743   0.487   1.766   2.151  2.9805  1.4506 -1.2312
  248SOL    HW2  744   0.409   1.615   2.106  0.0153 -1.6961 -0.5456
  249SOL     OW  745   1.052   2.136   0.425  0.1058  0.5712  0.2921
  249SOL    HW1  746   0.994   2.057   0.450 -0.7317 -0.6363  0.2367
  249SOL    HW2  747   1.044   2.208   0.498  2.1363  2.7679  0.7803
  250SOL     OW  748   0.541   0.049   2.079  0.8302  0.0262  0.0066
  250SOL    HW1  749   0.586   3.048   2.098  0.5283 -5.8969  1.3267
  250SOL    HW2  750   0.525   0.094   2.170  1.1497  0.4709  0.5317
  251SOL     OW  751   2.816   1.967   1.681  0.7578 -0.4252 -0.0218
  251SOL    HW1  752   2.873   1.906   1.738  1.1712  1.7729 -0.6674
  251SOL    HW2  753   2.843   1.942   1.586 -2.0105  0.8388 -0.3636
  252SOL     OW  754   1.154   0.483   1.748 -0.7514 -0.1868 -0.0952
  252SOL    HW1  755   1.121   0.576   1.761  3.7493  1.3778 -0.4594
  252SOL    HW2  756   1.105   0.424   1.682 -0.1450 -2.9282 -0.8346
  253SOL     OW  757   2.489   1.764   2.469  0.7083 -0.7127  0.2442
  253SOL    HW1  758   2.500   1.687   2.405  0.4252  1.7998  0.1431
  253SOL    HW2  759   2.412   1.829   2.444  0.1989  3.6036 -2.1622
  254SOL     OW  760   0.550   1.149   0.805 -0.4196 -0.4067 -0.2942
  254SOL    HW1  761   0.497   1.235   0.792 -3.2898 -1.4058  1.7569
  254SOL    HW2  762   0.615   1.158   0.887  1.9269  0.5291  1.9726
  255SOL     OW  763   0.102   2.296   1.835  0.1498  0.3512  0.0214
  255SOL    HW1  764   0.003   2.308   1.820 -0.3092 -0.9824  1.5749
  255SOL    HW2  765   0.148   2.365   1.780 -1.7171 -1.5298  0.3866
  256SOL     OW  766   0.329   2.962   0.272 -0.2901 -0.0721  0.0822
  256SOL    HW1  767   0.335   2.912   0.359  1.7720  1.3846  0.7163
  256SOL    HW2  768   0.420   2.952   0.226  0.6236 -3.7669 -1.1065
  257SOL     OW  769   1.264   2.509   2.536  0.2077 -0.2359 -0.2320
  257SOL    HW1  770   1.312   2.437   2.486 -2.1246  2.6679  0.8998
  257SOL    HW2  771   1.246   2.595   2.490  1.5903  2.1335  0.7193
  258SOL     OW  772   1.866   1.863   2.144  0.0488 -0.1107 -0.3578
  258SOL    HW1  773   1.766   1.855   2.137 -1.5877 -2.0125  1.3679
  258SOL    HW2  774   1.913   1.898   2.058 -1.3917 -2.0289 -2.6141
  259SOL     OW  775   0.680   0.822   2.213 -0.7415 -1.0086  0.4141
  259SOL    HW1  776   0.764   0.881   2.222  0.0248 -0.0244 -0.2191
  259SOL    HW2  777   0.678   0.763   2.131  1.3080 -0.5220  1.1718
  260SOL     OW  778   2.442   0.863   3.044 -0.1213  0.2107  0.5665
  260SOL    HW1  779   2.489   0.809   0.027  1.9183  0.4213  0.6384
  260SOL    HW2  780   2.508   0.873   2.967  1.3883  0.8936 -2.1013
  261SOL     OW  781   1.029   0.968   0.699 -0.0528 -0.2350 -0.4279
  261SOL    HW1  782   1.063   0.981   0.606 -0.2494 -0.3681 -0.0398
  261SOL    HW2  783   1.034   1.055   0.750 -1.1155  0.1968  0.8404
  262SOL     OW  784   2.047   2.539   2.455  0.0552  0.4815 -0.0397
  262SOL    HW1  785   1.993   2.592   2.389  1.2291 -0.3057  0.5527
  262SOL    HW2  786   2.069   2.447   2.414  1.0599 -1.5641 -4.2877
  263SOL     OW  787   0.828   2.430   1.131  0.9276 -0.0468  0.1143
  263SOL    HW1  788   0.923   2.447   1.158 -1.6590 -1.9211 -1.1111
  263SOL    HW2  789   0.812   2.356   1.062  0.6695 -1.2157  0.9306
  264SOL     OW  790   2.811   1.917   0.791  0.2924 -0.3439  0.0991
  264SOL    HW1  791   2.877   1.983   0.833  0.0222  2.8704  1.1260
  264SOL    HW2  792   2.841   1.821   0.800 -3.3358 -2.1080 -2.3822
  265SOL     OW  793   1.822   1.557   2.721  0.2346 -0.4102  0.0437
  265SOL    HW1  794   1.817   1.578   2.819 -1.2451 -3.1212  0.3015
  265SOL    HW2  795   1.824   1.636   2.654 -0.0052 -2.4827 -3.3057
  266SOL     OW  796   1.589   1.875   2.146 -0.0307 -0.6763 -0.1297
  266SOL    HW1  797   1.592   1.780   2.110  0.9218  0.5378  0.2090
  266SOL    HW2  798   1.519   1.881   2.223 -2.0809  0.2259  0.4596
  267SOL     OW  799   1.773   0.517   2.371 -0.7167  0.2073  0.6387
  267SOL    HW1  800   1.798   0.505   2.468  2.8007 -2.3096  1.6938
  267SOL    HW2  801   1.675   0.536   2.355  0.8747 -0.9316  0.7016
  268SOL     OW  802   0.993   1.091   2.936  0.1311  0.0122  0.4552
  268SOL    HW1  803   1.054   1.175   2.939  0.5892  2.6469 -1.1142
  268SOL    HW2  804   1.045   1.010   2.909  1.2679  0.0544 -1.0975
  269SOL     OW  805   2.924   2.083   2.051  0.1988 -0.4818 -0.1979
  269SOL    HW1  806   2.986   1.999   2.044  1.8025 -3.0346  0.2583
  269SOL    HW2  807   2.855   2.069   2.123 -0.0527  0.1397  0.9021
  270SOL     OW  808   2.897   1.520   0.053  0.1670  0.7555 -0.6017
  270SOL    HW1  809   2.950   1.433   0.072  0.2568  2.0039 -2.3041
  270SOL    HW2  810   2.838   1.541   0.137 -2.7401 -0.1369 -0.2742
  271SOL     OW  811   0.695   0.337   0.278  0.2067  0.1127  0.3176
  271SOL    HW1  812   0.706   0.319   0.380  0.0071 -1.0678 -0.1167
  271SOL    HW2  813   0.780   0.312   0.229 -1.9059  2.6170  1.6728
  272SOL     OW  814   0.020   0.188   0.247 -0.0287  0.4515  0.1711
  272SOL    HW1  815   3.080   0.181   0.149  0.0413  0.1812  0.5702
  272SOL    HW2  816   0.033   0.090   0.277  1.0191 -1.4334  0.7165
  273SOL     OW  817   0.533   2.840   2.092  0.2262 -0.2240  0.1206
  273SOL    HW1  818   0.475   2.774   2.137  1.0934  2.1943  1.5597
  273SOL    HW2  819   0.481   2.886   2.017  2.2443  1.1969 -1.0479
  274SOL     OW  820   0.060   0.132   1.447 -0.1485  0.0922 -0.0025
  274SOL    HW1  821   3.080   0.132   1.525 -0.6259 -1.3165 -0.6049
  274SOL    HW2  822   0.019   0.069   1.377  0.1196  0.6795 -0.3298
  275SOL     OW  823   1.004   1.793   1.304  0.1790 -0.7898 -0.4465
  275SOL    HW1  824   0.934   1.770   1.231 -0.3800  0.4369 -0.7742
  275SOL    HW2  825   0.999   1.729   1.383 -1.5121  3.7433  0.7184
  276SOL     OW  826   0.148   1.328   2.170  0.9884  0.3233 -0.6270
  276SOL    HW1  827   0.156   1.372   2.080  0.9975  0.0357 -0.7423
  276SOL    HW2  828   0.143   1.402   2.244 -2.7699  4.0241  1.4749
  277SOL     OW  829   1.449   2.282   1.930  0.0400  0.1153 -0.6172
  277SOL    HW1  830   1.459   2.355   1.859  0.5231 -1.1338  2.4414
  277SOL    HW2  831   1.532   2.240   1.977 -1.2963 -0.4067  1.0119
  278SOL     OW  832   1.993   2.870   2.436 -0.4373 -0.1801 -0.2490
  278SOL    HW1  833   1.930   2.807   2.487 -1.1069 -1.0925  0.5288
  278SOL    HW2  834   1.946   2.928   2.367 -3.0719  0.8904  0.5073
  279SOL     OW  835   1.450   1.429   0.111  1.0178 -0.1877 -0.1834
  279SOL    HW1  836   1.465   1.333   0.125 -0.4638  0.3355  0.4242
  279SOL    HW2  837   1.497   1.461   0.030 -1.5699  1.4796  1.0248
  280SOL     OW  838   1.209   0.603   1.135  0.7011 -0.0929 -0.5736
  280SOL    HW1  839   1.137   0.669   1.097 -1.8186 -1.6818  0.0433
  280SOL    HW2  840   1.263   0.561   1.060  3.0954 -1.4686  1.2360
  281SOL     OW  841   2.870   0.587   2.116 -0.1577  0.1304 -0.3389
  281SOL    HW1  842   2.942   0.614   2.185 -0.7185  2.4768 -2.0157
  281SOL    HW2  843   2.782   0.637   2.129  0.8008  1.4740 -1.5554
  282SOL     OW  844   0.318   2.953   0.650  0.0350  0.3591  0.5894
  282SOL    HW1  845   0.292   2.884   0.571 -0.6271 -1.2694 -0.0558
  282SOL    HW2  846   0.397   2.919   0.716  3.0839 -1.3581  2.7677
  283SOL     OW  847   1.334   2.305   1.482 -0.0495 -0.0872  0.0620
  283SOL    HW1  848   1.273   2.245   1.541  2.6576  1.2725 -0.2490
  283SOL    HW2  849   1.313   2.403   1.507  1.8715  1.7720  0.7665
  284SOL     OW  850   2.166   2.690   1.348  0.4852  0.4272 -0.0844
  284SOL    HW1  851   2.166   2.596   1.386  1.8182 -0.0289  2.5659
  284SOL    HW2  852   2.124   2.697   1.255  0.6659 -2.1657 -2.5021
  285SOL     OW  853   0.793   1.730   1.098  0.1362  0.2071  0.3546
  285SOL    HW1  854   0.752   1.640   1.069  0.5756  0.4981 -0.3980
  285SOL    HW2  855   0.764   1.814   1.048 -1.8239 -1.9265  3.0727
  286SOL     OW  856   0.204   2.751   1.922  0.0494  0.0211 -0.3346
  286SOL    HW1  857   0.176   2.829   1.981 -0.5951 -2.7856 -1.1624
  286SOL    HW2  858   0.219   2.662   1.966 -2.0707  4.7568 -2.5790
  287SOL     OW  859   0.738   1.002   0.629  0.0262 -0.1845  0.1114
  287SOL    HW1  860   0.840   1.001   0.648  0.0044  0.5946 -2.5733
  287SOL    HW2  861   0.686   1.048   0.702 -0.2999 -0.1389 -3.7344
  288SOL     OW  862   1.349   2.272   2.411 -0.4668 -0.5501 -0.2651
  288SOL    HW1  863   1.361   2.265   2.313 -1.6856  0.3937  1.1949
  288SOL    HW2  864   1.421   2.211   2.455 -2.6803 -1.4506  1.2763
  289SOL     OW  865   1.812   1.203   2.442 -0.0661  0.4946  0.0826
  289SOL    HW1  866   1.837   1.304   2.439 -1.2068  3.0502  1.0347
  289SOL    HW2  867   1.879   1.146   2.386  1.3323 -0.2336  0.3546
  290SOL     OW  868   1.930   1.907   0.600 -0.1108 -0.3600 -0.2194
  290SOL    HW1  869   1.878   1.890   0.515 -0.2100  0.8642  0.0869
  290SOL    HW2  870   1.916   1.999   0.639  0.3316 -0.3250 -0.8723
  291SOL     OW  871   1.355   0.775   2.989 -0.0544  0.6163  0.9810
  291SOL    HW1  872   1.319   0.863   3.024  2.4903 -1.2583  0.8522
  291SOL    HW2  873   1.451   0.754   3.027  0.1397 -2.2698 -0.0586
  292SOL     OW  874   2.016   1.720   0.760 -0.4610  0.7146 -0.0195
  292SOL    HW1  875   2.071   1.653   0.705  1.8268 -0.8963  0.4520
  292SOL    HW2  876   1.971   1.791   0.702  0.6348  1.1072 -3.8650
  293SOL     OW  877   1.895   0.170   1.228  0.3398 -0.4843 -0.0733
  293SOL    HW1  878   1.970   0.238   1.226 -1.2129  1.2284 -0.4091
  293SOL    HW2  879   1.798   0.206   1.224 -0.7175 -1.5432 -0.5865
  294SOL     OW  880   2.745   0.939   0.182  0.1648  0.1264  0.2465
  294SOL    HW1  881   2.723   0.870   0.110 -0.8243  1.3219  2.8919
  294SOL    HW2  882   2.809   0.897   0.247  0.8187  0.7175 -1.2282
  295SOL     OW  883   2.118   1.714   2.535 -0.1688 -0.3365 -0.4742
  295SOL    HW1  884   2.189   1.777   2.495 -0.0277 -0.5264  0.4108
  295SOL    HW2  885   2.126   1.723   2.636 -2.1878  1.8954 -1.5884
  296SOL     OW  886   1.197   1.801   1.097  0.1626  0.5207 -0.0889
  296SOL    HW1  887   1.214   1.707   1.060 -0.9964 -0.7220 -0.8288
  296SOL    HW2  888   1.122   1.800   1.164  1.6509  0.5886  0.6525
  297SOL     OW  889   0.462   0.793   2.833 -0.3126  0.3968  0.0729
  297SOL    HW1  890   0.369   0.807   2.805  1.8166 -1.4827 -1.2635
  297SOL    HW2  891   0.471   0.778   2.934  0.0568 -2.0830  0.6727
  298SOL     OW  892   1.586   2.962   1.812 -0.0655 -0.4592  0.0215
  298SOL    HW1  893   1.627   3.014   1.738  2.2734  2.4227  0.7356
  298SOL    HW2  894   1.659   2.939   1.881  0.1931 -0.5170  0.8330
  299SOL     OW  895   1.102   0.574   2.550  0.5699  0.3296  0.1858
  299SOL    HW1  896   1.063   0.580   2.646 -0.6350 -0.5552  0.3999
  299SOL    HW2  897   1.116   0.479   2.520  0.8027 -2.4727 -2.1078
  300SOL     OW  898   2.057   1.487   0.045 -0.4877  0.1584  0.2591
  300SOL    HW1  899   2.044   1.493   0.146  1.1857 -3.1087  2.1319
  300SOL    HW2  900   2.118   1.411   0.011 -1.7969 -1.8647  1.2483
  301SOL     OW  901   2.158   0.317   2.432 -0.6977 -0.4442  0.4852
  301SOL    HW1  902   2.212   0.246   2.476  0.1877  2.1184 -0.3078
  301SOL    HW2  903   2.121   0.381   2.504 -2.3875  0.0708  1.2446
  302SOL     OW  904   2.478   1.623   2.711 -0.1259 -0.2700  0.8058
  302SOL    HW1  905   2.532   1.531   2.704 -0.0285  1.2530  2.2534
  302SOL    HW2  906   2.462   1.672   2.623 -1.2241  1.4782 -0.4513
  303SOL     OW  907   0.207   2.430   2.267  0.2768 -0.4554 -0.7248
  303SOL    HW1  908   0.129   2.466   2.329  0.2477  0.2745 -0.0393
  303SOL    HW2  909   0.265   2.361   2.318  2.4730  0.4452  0.0571
  304SOL     OW  910   2.980   0.984   0.841 -0.4218  0.0013 -0.7106
  304SOL    HW1  911   2.921   1.060   0.871  2.1238 -1.4011 -1.2274
  304SOL    HW2  912   3.004   1.005   0.746  0.1729 -0.3641  0.3369
  305SOL     OW  913   2.923   0.305   1.884 -0.2271  0.2298  0.0817
  305SOL    HW1  914   2.894   0.397   1.853 -0.2471 -1.8832  0.6291
  305SOL    HW2  915   3.003   0.303   1.945 -1.0329  1.3077  1.1869
  306SOL     OW  916   1.504   1.986   0.783  0.5066  0.2555 -0.2300
  306SOL    HW1  917   1.526   1.903   0.727  0.8242 -0.4971  0.5263
  306SOL    HW2  918   1.466   2.067   0.736  0.2627  0.6739  0.2126
  307SOL     OW  919   2.938   3.046   1.353  0.5166  0.3330  0.0947
  307SOL    HW1  920   2.886   0.046   1.348  0.3842  0.9449 -0.4043
  307SOL    HW2  921   2.900   2.969   1.292  0.3210 -1.7715 -1.5080
  308SOL     OW  922   0.052   1.845   2.543 -0.2166  0.2505  0.4016
  308SOL    HW1  923   3.065   1.783   2.562  2.3177 -0.1131  1.4384
  308SOL    HW2  924   0.102   1.817   2.458 -0.4782 -1.4779 -0.1010
  309SOL     OW  925   0.414   1.733   2.913  0.6191 -0.1048 -0.1199
  309SOL    HW1  926   0.477   1.685   2.851 -0.3316  0.0598 -1.7495
  309SOL    HW2  927   0.338   1.764   2.852  0.0761 -1.4323 -1.5509
  310SOL     OW  928   2.060   0.577   2.987  0.2542 -0.4218 -0.4982
  310SOL    HW1  929   1.985   0.625   2.936 -2.6859 -0.1943  2.2691
  310SOL    HW2  930   2.094   0.630   3.066 -0.0424 -1.0569 -0.7990
  311SOL     OW  931   1.743   1.093   0.048 -0.3813 -0.2043 -0.2187
  311SOL    HW1  932   1.766   1.066   3.043  0.0864  0.0420 -0.1676
  311SOL    HW2  933   1.823   1.084   0.110 -4.0720 -1.9984 -0.8337
  312SOL     OW  934   1.190   1.341   2.130  0.1126 -0.2287  0.0010
  312SOL    HW1  935   1.119   1.382   2.191 -0.4660  0.7433 -1.3200
  312SOL    HW2  936   1.155   1.269   2.064 -1.5048 -0.1911  0.9732
  313SOL     OW  937   0.807   3.049   0.223 -0.1266  0.1150  1.0103
  313SOL    HW1  938   0.783   0.049   0.176 -1.1702  2.6572 -0.0064
  313SOL    HW2  939   0.893   3.060   0.273 -1.8748  0.8789 -0.7064
  314SOL     OW  940   0.595   1.909   1.510 -0.0782  0.0405  0.4117
  314SOL    HW1  941   0.583   1.815   1.467  0.5411  1.0214 -2.9586
  314SOL    HW2  942   0.690   1.918   1.529 -0.3321 -1.4189 -0.4390
  315SOL     OW  943   1.542   2.125   1.536 -0.2909  0.0708  0.4330
  315SOL    HW1  944   1.525   2.050   1.605 -1.1608 -1.5909 -0.5539
  315SOL    HW2  945   1.458   2.181   1.514  1.7826  0.8521  0.2636
  316SOL     OW  946   0.387   2.395   0.255 -0.7110  0.3408 -0.2603
  316SOL    HW1  947   0.447   2.321   0.217  1.1811 -0.2297  1.9745
  316SOL    HW2  948   0.307   2.353   0.301 -0.5526  0.2832 -0.4953
  317SOL     OW  949   2.561   0.329   0.913 -0.4328 -0.1385 -0.2432
  317SOL    HW1  950   2.522   0.319   1.011  0.3245  0.6406  1.5616
  317SOL    HW2  951   2.664   0.317   0.910  0.3020  1.2028  2.6463
  318SOL     OW  952   1.035   2.335   0.610  0.3301 -0.4297 -0.0574
  318SOL    HW1  953   1.009   2.375   0.699 -1.6651  0.7805  1.7648
  318SOL    HW2  954   1.011   2.407   0.539 -1.5911 -0.0684 -0.8285
  319SOL     OW  955   1.268   0.300   2.873  0.1800  0.8893  0.1898
  319SOL    HW1  956   1.187   0.291   2.808 -2.2643 -1.9460 -2.8787
  319SOL    HW2  957   1.247   0.371   2.940  1.2492 -2.2742 -0.2807
  320SOL     OW  958   2.244   1.724   1.628 -0.0424  0.2255 -0.0229
  320SOL    HW1  959   2.163   1.766   1.675  0.8052 -2.3674  2.1958
  320SOL    HW2  960   2.222   1.639   1.582  2.5412  1.3632 -0.6020
  321SOL     OW  961   3.087   2.951   3.010  0.7465 -0.0498  0.1005
  321SOL    HW1  962   3.041   2.910   0.006 -3.4167  0.0067 -0.1229
  321SOL    HW2  963   3.033   3.025   2.963  0.7979  2.3239  0.3902
  322SOL     OW  964   2.310   0.795   1.225 -1.0415  0.6119 -0.5163
  322SOL    HW1  965   2.243   0.772   1.155  2.3485  1.9527  0.9934
  322SOL    HW2  966   2.378   0.866   1.200 -2.5096 -2.9760  2.4170
  323SOL     OW  967   2.026   1.826   0.303 -0.3212  0.1573  0.1843
  323SOL    HW1  968   1.930   1.867   0.307 -2.2226  0.9207 -1.4737
  323SOL    HW2  969   2.038   1.735   0.344  0.6882  1.0833 -0.0300
  324SOL     OW  970   2.829   0.206   1.285  0.4254 -0.4023 -0.6588
  324SOL    HW1  971   2.866   0.250   1.201 -2.3520 -0.4843  0.4352
  324SOL    HW2  972   2.736   0.165   1.279  2.0141  0.6974  0.0585
  325SOL     OW  973   2.890   2.671   0.820 -0.2782 -0.0447  0.4483
  325SOL    HW1  974   2.832   2.608   0.870  1.3765 -0.3327  0.1856
  325SOL    HW2  975   2.843   2.766   0.815 -1.3558  0.6936 -0.7981
  326SOL     OW  976   1.563   2.654   0.570 -0.2013 -0.3029 -0.0967
  326SOL    HW1  977   1.523   2.700   0.489 -0.9219 -0.8083 -0.6532
  326SOL    HW2  978   1.659   2.618   0.542 -0.5848 -1.6739  2.5193
  327SOL     OW  979   2.097   2.447   0.291 -0.1330 -0.4291 -0.5014
  327SOL    HW1  980   2.091   2.378   0.220 -0.8980  0.4590  1.2100
  327SOL    HW2  981   2.086   2.540   0.243  0.9613  1.2359 -2.0297
  328SOL     OW  982   2.562   2.315   1.919  0.3137  0.1703 -0.1262
  328SOL    HW1  983   2.651   2.273   1.888  1.3459 -1.5292  0.4059
  328SOL    HW2  984   2.530   2.400   1.860 -2.9827  1.8107 -0.9554
  329SOL     OW  985   0.295   2.276   0.733  0.6229 -0.0541  0.0521
  329SOL    HW1  986   0.215   2.323   0.774  2.2723 -0.8135 -0.9366
  329SOL    HW2  987   0.271   2.180   0.709 -1.5917  0.3575 -0.0153
  330SOL     OW  988   2.125   1.016   2.020  0.1221 -0.0281 -0.0361
  330SOL    HW1  989   2.200   1.033   1.950  0.5913  3.1452 -1.9331
  330SOL    HW2  990   2.129   0.924   2.063 -0.6105 -3.8031  1.8899
  331SOL     OW  991   2.450   1.642   0.805  0.5636  0.2177 -0.0711
  331SOL    HW1  992   2.503   1.655   0.894  1.1241  0.6180  3.4645
  331SOL    HW2  993   2.377   1.716   0.806  1.4262 -0.1852  0.4843
  332SOL     OW  994   0.013   2.600   1.358 -0.1351  0.2729  0.4069
  332SOL    HW1  995   0.097   2.594   1.296  1.2126  1.2068 -2.1198
  332SOL    HW2  996   3.085   2.688   1.408  0.6865 -0.3114 -0.8014
  333SOL     OW  997   3.059   1.667   1.463  0.7619  0.1537 -0.3789
  333SOL    HW1  998   3.004   1.754   1.476 -0.5093 -1.8384 -0.5134
  333SOL    HW2  999   0.071   1.689   1.454 -1.1009 -0.3668  1.6300
  334SOL     OW 1000   0.346   0.680   1.355  0.0277 -0.3712 -0.7557
  334SOL    HW1 1001   0.263   0.684   1.421  0.3070  0.1328 -0.0755
  334SOL    HW2 1002   0.339   0.599   1.298 -1.4185  0.0148  0.2413
  335SOL     OW 1003   2.669   1.643   1.833 -0.1473 -0.2431 -0.3584
  335SOL    HW1 1004   2.759   1.696   1.821 -0.9027  3.8436  2.2822
  335SOL    HW2 1005   2.587   1.704   1.814  0.1571  1.0957 -0.5144
  336SOL     OW 1006   1.702   2.944   0.012 -0.3561 -0.0379 -0.2938
  336SOL    HW1 1007   1.640   2.863   0.008 -0.7912 -0.7539 -1.5358
  336SOL    HW2 1008   1.792   2.919   0.050 -1.3821 -2.2838  0.1525
  337SOL     OW 1009   0.614   0.562   1.420  0.3073  0.1954 -0.3682
  337SOL    HW1 1010   0.630   0.486   1.352  0.7163 -1.1709  1.7316
  337SOL    HW2 1011   0.514   0.588   1.413 -0.8644 -0.0520  0.4132
  338SOL     OW 1012   1.630   2.345   0.886 -0.0491 -0.0870  0.1400
  338SOL    HW1 1013   1.702   2.280   0.915  0.3819 -0.7254 -1.2732
  338SOL    HW2 1014   1.660   2.441   0.898  2.0911 -0.2958 -0.0827
  339SOL     OW 1015   0.468   1.756   1.171  0.3698 -0.1961 -0.6303
  339SOL    HW1 1016   0.374   1.759   1.127  0.1224  0.6477 -0.6772
  339SOL    HW2 1017   0.527   1.821   1.122  1.3005  0.7501 -0.0743
  340SOL     OW 1018   0.201   3.087   2.317  0.1760 -0.3096 -0.4442
  340SOL    HW1 1019   0.199   3.054   2.222  0.5253 -0.4024  3.6666
  340SOL    HW2 1020   0.212   3.010   2.379  2.1368 -0.1728 -1.1063
  341SOL     OW 1021   2.436   1.334   0.539  0.3403  0.0234  0.2617
  341SOL    HW1 1022   2.419   1.419   0.487 -0.6132  1.3586 -1.1428
  341SOL    HW2 1023   2.535   1.317   0.559 -1.8630 -0.4097  0.9137
  342SOL     OW 1024   1.616   2.114   0.392 -0.3115 -0.0155 -0.2351
  342SOL    HW1 1025   1.610   2.190   0.323  0.1216 -3.0645 -1.4031
  342SOL    HW2 1026   1.593   2.143   0.489 -0.8166 -2.2142 -0.5066
  343SOL     OW 1027   1.903   0.449   0.791 -0.2969 -0.3189  0.7349
  343SOL    HW1 1028   1.879   0.460   0.886 -2.7825 -0.2474 -2.0060
  343SOL    HW2 1029   1.922   0.350   0.769  0.7087 -0.1901 -1.4713
  344SOL     OW 1030   2.280   0.277   3.061 -0.5000 -0.1550  0.2663
  344SOL    HW1 1031   2.306   0.298   2.962 -0.2507  2.1873 -5.1760
  344SOL    HW2 1032   2.364   0.293   0.029 -0.8532  0.4785  1.4653
  345SOL     OW 1033   1.428   0.151   1.228  0.0345  0.2969 -0.4676
  345SOL    HW1 1034   1.410   0.060   1.185  1.0581  2.4250  2.6161
  345SOL    HW2 1035   1.339   0.188   1.259  3.3861  0.4552 -0.6118
  346SOL     OW 1036   2.186   2.423   1.433  0.2328 -0.1994  0.4475
  346SOL    HW1 1037   2.196   2.355   1.508 -1.4958 -0.6284 -2.4121
  346SOL    HW2 1038   2.244   2.391   1.357  1.6208 -2.2552  2.5182
  347SOL     OW 1039   2.805   2.972   0.548  0.3629 -0.2696 -0.5150
  347SOL    HW1 1040   2.900   2.939   0.537  1.6616 -3.4148 -2.9670
  347SOL    HW2 1041   2.765   2.950   0.644 -0.6677  1.8002  3.7681
  348SOL     OW 1042   0.721   1.144   1.017  0.2654 -0.1256  0.3157
  348SOL    HW1 1043   0.753   1.057   0.985 -1.0421  3.0674  0.6666
  348SOL    HW2 1044   0.753   1.164   1.112  0.0873 -0.5177  0.4150
  349SOL     OW 1045   2.151   0.053   0.084  0.3189 -0.1227  0.3396
  349SOL    HW1 1046   2.193   0.131   0.036 -1.4631 -2.0796 -0.4748
  349SOL    HW2 1047   2.083   0.097   0.145 -0.3238  1.7022  1.2241
  350SOL     OW 1048   2.664   2.036   0.115  0.1096  0.3161 -0.1257
  350SOL    HW1 1049   2.664   2.062   0.217  0.5677  1.2135  1.2016
  350SOL    HW2 1050   2.695   2.113   0.055 -0.3786 -1.6338 -0.7214
  351SOL     OW 1051   1.110   0.303   1.000  0.2916 -0.3564  0.2526
  351SOL    HW1 1052   1.080   0.232   0.932 -1.7957  0.0216 -0.2084
  351SOL    HW2 1053   1.115   0.268   1.094  0.5593  1.1250 -0.1722
  352SOL     OW 1054   2.028   2.253   2.732 -0.0581  0.5882  0.7933
  352SOL    HW1 1055   2.051   2.165   2.783 -0.5489 -1.2743 -1.7550
  352SOL    HW2 1056   2.106   2.315   2.746 -3.0564 -0.4083 -0.2857
  353SOL     OW 1057   0.760   0.744   0.093  0.2027 -0.4751 -0.7450
  353SOL    HW1 1058   0.755   0.739   3.082  0.4140  0.1201  0.4982
  353SOL    HW2 1059   0.662   0.737   0.130 -3.0783 -0.7705 -1.4964
  354SOL     OW 1060   0.901   1.897   2.873 -0.0824 -0.1400  0.5879
  354SOL    HW1 1061   0.826   1.830   2.848 -1.7518  1.4288 -2.5978
  354SOL    HW2 1062   0.972   1.864   2.935 -1.2153 -0.1746 -0.2195
  355SOL     OW 1063   2.882   2.666   2.221 -0.3847 -0.0136  0.0472
  355SOL    HW1 1064   2.905   2.568   2.222 -1.7663  0.5512 -1.4943
  355SOL    HW2 1065   2.937   2.726   2.281 -1.5540 -0.5570 -3.2545
  356SOL     OW 1066   2.788   0.567   0.798 -0.1233 -0.7103  0.0189
  356SOL    HW1 1067   2.795   0.667   0.809  0.0088 -1.3417 -1.2264
  356SOL    HW2 1068   2.694   0.530   0.799  1.0397  1.2748  1.8771
  357SOL     OW 1069   2.375   0.150   1.046 -0.8260  0.0427  0.1301
  357SOL    HW1 1070   2.398   0.053   1.020  1.6951 -0.3353  1.1065
  357SOL    HW2 1071   2.292   0.188   1.005  0.3087  4.5669 -0.5525
  358SOL     OW 1072   1.358   2.851   1.442  0.1249  0.1650 -0.1610
  358SOL    HW1 1073   1.356   2.888   1.346  0.1061 -0.6496  0.4594
  358SOL    HW2 1074   1.273   2.865   1.497 -0.5473 -0.4824  0.5012
  359SOL     OW 1075   0.030   2.286   2.648 -0.6271  0.5939  0.2952
  359SOL    HW1 1076   0.068   2.220   2.584 -0.7276  2.9818  0.3905
  359SOL    HW2 1077   0.013   2.245   2.737  1.8376 -0.0970 -1.9275
  360SOL     OW 1078   0.485   1.108   1.525  0.1692  0.2192  0.5360
  360SOL    HW1 1079   0.519   1.070   1.613  1.4678  0.4413  0.0877
  360SOL    HW2 1080   0.513   1.046   1.445  3.9859  0.1872  1.4827
  361SOL     OW 1081   2.491   2.944   0.361 -0.0009  0.2130 -0.4751
  361SOL    HW1 1082   2.397   2.981   0.350  2.2567 -1.8718  0.8441
  361SOL    HW2 1083   2.549   3.014   0.328 -1.3169  0.2041  1.8439
  362SOL     OW 1084   3.079   2.798   0.994  0.0384 -0.0317 -0.1791
  362SOL    HW1 1085   0.074   2.746   0.970 -0.8571  0.1731 -0.4326
  362SOL    HW2 1086   3.006   2.757   0.935 -0.7366 -1.4634  0.6705
  363SOL     OW 1087   0.748   1.359   0.628 -0.1520 -0.7310  0.2412
  363SOL    HW1 1088   0.812   1.304   0.568  0.5469  1.5169  0.1818
  363SOL    HW2 1089   0.799   1.384   0.712  1.7432 -0.7958  0.6022
  364SOL     OW 1090   0.770   1.257   1.262 -0.2095  0.3021  0.1580
  364SOL    HW1 1091   0.736   1.217   1.348  2.0013  2.6703  0.1546
  364SOL    HW2 1092   0.847   1.321   1.269 -1.9567  0.4318 -0.2863
  365SOL     OW 1093   2.578   1.789   0.504 -0.3013 -0.0489 -0.4380
  365SOL    HW1 1094   2.545   1.874   0.550  0.3376  0.7502  2.8652
  365SOL    HW2 1095   2.628   1.807   0.421  1.4610  0.3071  3.6757
  366SOL     OW 1096   2.792   1.556   1.004  0.2211 -0.5615 -0.2565
  366SOL    HW1 1097   2.857   1.593   1.078  0.1347 -0.9675 -0.3131
  366SOL    HW2 1098   2.718   1.629   0.994 -0.0600  1.4916  0.6834
  367SOL     OW 1099   2.277   2.031   1.956 -0.3141 -0.3911  0.0150
  367SOL    HW1 1100   2.174   2.027   1.939 -2.5327 -1.8261 -0.7644
  367SOL    HW2 1101   2.319   2.071   1.875  2.8318  0.4728  2.3505
  368SOL     OW 1102   2.522   0.956   1.165 -0.1354 -0.1147 -0.2106
  368SOL    HW1 1103   2.521   1.006   1.253  1.4888 -0.9937  1.5796
  368SOL    HW2 1104   2.589   0.879   1.167  0.1774  1.2952 -0.9546
  369SOL     OW 1105   2.017   2.690   0.189  0.1329 -0.1980  0.1369
  369SOL    HW1 1106   1.990   2.753   0.271  1.1991  3.6492  1.7428
  369SOL    HW2 1107   2.042   2.745   0.109  1.5184 -2.9705 -0.0023
  370SOL     OW 1108   2.709   2.440   1.251 -0.1404  0.7201  0.2312
  370SOL    HW1 1109   2.689   2.534   1.218  0.8432 -2.0850  0.1168
  370SOL    HW2 1110   2.811   2.429   1.268  3.5617  0.9865 -0.6287
  371SOL     OW 1111   0.853   1.650   2.403  0.0155  0.7208  0.0163
  371SOL    HW1 1112   0.886   1.746   2.420 -2.4279 -0.3758 -0.2042
  371SOL    HW2 1113   0.750   1.644   2.416 -0.4432  2.0017 -1.6047
  372SOL     OW 1114   0.895   1.180   0.440  0.6955 -0.0368  0.3781
  372SOL    HW1 1115   0.813   1.148   0.384  1.1405 -0.0192 -0.8547
  372SOL    HW2 1116   0.968   1.111   0.436 -1.6197  0.6782  0.8962
  373SOL     OW 1117   1.355   2.534   0.238 -0.3476 -0.0002 -0.2095
  373SOL    HW1 1118   1.315   2.469   0.306  0.3798  0.4353  3.4341
  373SOL    HW2 1119   1.359   2.491   0.143 -0.4790 -0.3227 -2.9513
  374SOL     OW 1120   0.375   1.683   0.102  0.1211 -0.2949 -0.1938
  374SOL    HW1 1121   0.389   1.681   0.000 -2.2579  2.0187 -0.8435
  374SOL    HW2 1122   0.289   1.636   0.128 -0.8164  0.4646  1.8578
  375SOL     OW 1123   1.087   1.666   1.885 -0.2625 -0.3707 -0.1263
  375SOL    HW1 1124   1.174   1.702   1.919 -2.3968 -1.3763  1.0605
  375SOL    HW2 1125   1.098   1.570   1.851  0.7408  0.7047  2.5594
  376SOL     OW 1126   0.696   2.483   1.482  0.0726  0.5923 -0.0034
  376SOL    HW1 1127   0.695   2.418   1.560  1.0861 -1.7094 -0.9346
  376SOL    HW2 1128   0.792   2.506   1.457 -0.9403  0.5422 -0.4982
  377SOL     OW 1129   2.296   1.351   2.255 -0.7941 -0.0630 -0.3775
  377SOL    HW1 1130   2.273   1.354   2.353  1.5091  1.6418 -0.6426
  377SOL    HW2 1131   2.242   1.411   2.195  1.5419  1.3609  1.9592
  378SOL     OW 1132   1.171   0.316   2.447 -0.0598 -0.3856  0.1254
  378SOL    HW1 1133   1.128   0.244   2.392 -1.7194 -1.1500  1.2311
  378SOL    HW2 1134   1.271   0.320   2.435  1.0474  2.3848 -1.1984
  379SOL     OW 1135   1.595   0.703   0.774 -0.4748 -0.0599  0.3875
  379SOL    HW1 1136   1.595   0.715   0.872 -1.9044 -0.7091  1.3172
  379SOL    HW2 1137   1.507   0.729   0.729  0.0757 -1.9921 -0.5024
  380SOL     OW 1138   2.911   1.889   1.445 -0.1910 -0.1180  0.2522
  380SOL    HW1 1139   2.989   1.954   1.426 -1.4262  1.0732  0.5085
  380SOL    HW2 1140   2.835   1.890   1.376  0.6920  0.6724 -0.9320
  381SOL     OW 1141   1.609   1.767   1.515 -0.4761  0.5809  0.2626
  381SOL    HW1 1142   1.613   1.817   1.603 -1.5479 -0.3815 -0.6708
  381SOL    HW2 1143   1.525   1.789   1.462  0.7536 -0.2231  2.9721
  382SOL     OW 1144   3.022   0.457   3.087  0.1880 -0.0217 -0.6388
  382SOL    HW1 1145   3.015   0.357   0.029  0.0309 -1.5094 -1.5316
  382SOL    HW2 1146   0.016   0.506   0.033 -0.0671 -0.3322 -1.3287
  383SOL     OW 1147   1.666   1.341   2.682  0.0963  0.4996 -0.2012
  383SOL    HW1 1148   1.602   1.314   2.756  0.6447 -0.7229 -0.8199
  383SOL    HW2 1149   1.740   1.402   2.710 -1.9736  0.2448  0.1532
  384SOL     OW 1150   1.099   2.450   1.235 -0.4984  0.0945  0.5132
  384SOL    HW1 1151   1.148   2.523   1.183  0.9703  2.0921 -1.7391
  384SOL    HW2 1152   1.128   2.354   1.209  0.9225  1.3551 -0.1427
  385SOL     OW 1153   1.868   2.355   1.124 -0.1219 -0.1816 -0.1114
  385SOL    HW1 1154   1.802   2.433   1.122 -1.2226  0.3893 -1.4610
  385SOL    HW2 1155   1.825   2.267   1.092 -2.9981 -0.7777  1.3348
  386SOL     OW 1156   2.259   2.073   1.277 -0.1142  0.1019 -0.3289
  386SOL    HW1 1157   2.158   2.079   1.270  2.5418 -1.5016  1.6403
  386SOL    HW2 1158   2.308   2.163   1.271  0.6539  0.2457  2.9197
  387SOL     OW 1159   0.536   2.095   1.256 -0.9358 -0.0163 -0.0727
  387SOL    HW1 1160   0.513   2.185   1.292  0.4294  2.3391 -0.8260
  387SOL    HW2 1161   0.602   2.043   1.315  2.7252 -3.2072 -0.9792
  388SOL     OW 1162   2.857   0.929   1.992 -0.7052 -0.0868 -0.0434
  388SOL    HW1 1163   2.789   0.862   2.023  1.1499  1.0850 -1.6405
  388SOL    HW2 1164   2.953   0.895   2.009  1.4429  2.2932  0.7420
  389SOL     OW 1165   1.817   1.381   1.150 -0.4465  0.2541 -0.2972
  389SOL    HW1 1166   1.875   1.426   1.077 -2.8082 -1.5829  1.3072
  389SOL    HW2 1167   1.725   1.428   1.152 -0.9913  0.0598 -0.0668
  390SOL     OW 1168   1.008   2.318   1.927  0.3519  0.3174 -0.0212
  390SOL    HW1 1169   0.951   2.337   2.009 -1.0324 -1.3584  0.0294
  390SOL    HW2 1170   0.945   2.288   1.855  1.6077 -2.3484 -1.4149
  391SOL     OW 1171   1.155   1.995   2.525  0.4760  0.0955  0.0071
  391SOL    HW1 1172   1.059   1.983   2.492  0.4172 -0.0755 -1.6272
  391SOL    HW2 1173   1.152   2.075   2.584  0.5973 -2.1714 -0.4390
  392SOL     OW 1174   0.009   2.839   2.367  0.3287  0.0033 -0.0346
  392SOL    HW1 1175   3.040   2.867   2.449 -0.7305 -0.7449  4.4796
  392SOL    HW2 1176   0.105   2.821   2.398  3.3431 -0.2163 -0.4363
  393SOL     OW 1177   1.980   2.837   0.397 -0.1108  0.3071 -0.0445
  393SOL    HW1 1178   1.888   2.874   0.418  2.9702 -0.0579 -3.5979
  393SOL    HW2 1179   2.005   2.783   0.483  0.1526 -1.6620  4.2098
  394SOL     OW 1180   0.646   0.791   2.485  0.6439  0.0347  0.2712
  394SOL    HW1 1181   0.547   0.794   2.501  1.1762 -0.3161  1.9151
  394SOL    HW2 1182   0.661   0.794   2.384 -0.5282  0.8563  0.6890
  395SOL     OW 1183   0.433   1.444   1.491  0.4354 -0.0063 -0.6190
  395SOL    HW1 1184   0.428   1.339   1.484  1.1133 -1.6059 -2.0403
  395SOL    HW2 1185   0.466   1.469   1.587 -1.1472  1.0509 -1.6870
  396SOL     OW 1186   1.626   1.611   2.015  0.3339  0.1031  0.1255
  396SOL    HW1 1187   1.543   1.556   2.003  1.8132 -2.4868 -0.2205
  396SOL    HW2 1188   1.681   1.558   2.082 -1.0357 -0.7839 -2.0962
  397SOL     OW 1189   0.616   0.618   2.694 -0.0789  0.1855  0.2382
  397SOL    HW1 1190   0.633   0.655   2.602 -2.4402 -1.6318  1.5952
  397SOL    HW2 1191   0.575   0.690   2.754  0.1267 -0.0635  2.2886
  398SOL     OW 1192   0.323   2.095   2.737  0.8951 -0.3001  0.2044
  398SOL    HW1 1193   0.413   2.116   2.694  0.4889  0.5390  0.8414
  398SOL    HW2 1194   0.292   2.003   2.707  1.0408 -0.9082 -1.9651
  399SOL     OW 1195   0.207   1.802   2.313  0.3928 -0.1897  0.3368
  399SOL    HW1 1196   0.294   1.772   2.260 -0.7686  0.1727 -2.9157
  399SOL    HW2 1197   0.123   1.784   2.253 -0.1439 -2.8725 -1.7305
  400SOL     OW 1198   2.652   0.221   1.669 -0.2111  0.4425  0.5871
  400SOL    HW1 1199   2.558   0.187   1.644  0.9372  0.9903  0.2027
  400SOL    HW2 1200   2.684   0.173   1.754 -1.4745  0.3822 -0.2349
  401SOL     OW 1201   0.795   1.623   0.275  0.5117 -0.4889  0.4482
  401SOL    HW1 1202   0.872   1.564   0.250 -0.9140  0.5956  2.2258
  401SOL    HW2 1203   0.757   1.590   0.364  2.0907  3.0424 -1.8049
  402SOL     OW 1204   0.242   2.455   2.008 -0.1846  1.0301 -0.0313
  402SOL    HW1 1205   0.189   2.382   1.961  1.7147  2.8040 -0.3130
  402SOL    HW2 1206   0.225   2.432   2.105 -1.8463 -1.2806 -0.5121
  403SOL     OW 1207   0.401   1.089   2.019 -0.6562 -0.2961  0.5201
  403SOL    HW1 1208   0.337   1.054   1.951  2.5106  0.7540  1.4798
  403SOL    HW2 1209   0.352   1.114   2.100  0.6559  0.9773 -2.1160
  404SOL     OW 1210   1.663   2.348   1.615  0.1890  0.8237  0.1968
  404SOL    HW1 1211   1.751   2.362   1.572 -2.0602  0.2587  0.5134
  404SOL    HW2 1212   1.626   2.257   1.596 -1.6796  1.8200  1.5940
  405SOL     OW 1213   2.513   2.289   2.865 -0.0705  0.0556  0.3431
  405SOL    HW1 1214   2.567   2.380   2.871  0.8254  3.2678  0.4096
  405SOL    HW2 1215   2.414   2.309   2.879  0.3224 -4.5104  0.5002
  406SOL     OW 1216   0.573   1.291   2.656  0.6777 -0.1174 -0.4472
  406SOL    HW1 1217   0.608   1.223   2.723  1.5296 -1.4231 -0.0371
  406SOL    HW2 1218   0.649   1.335   2.612 -3.2949 -1.5653  0.0195
  407SOL     OW 1219   2.357   2.886   2.942  0.4155  0.3665  0.5740
  407SOL    HW1 1220   2.416   2.812   2.897  1.4210  0.6895 -0.6027
  407SOL    HW2 1221   2.329   2.847   3.031  0.4733 -2.1195 -0.6362
  408SOL     OW 1222   2.676   2.597   0.042 -0.0098  0.1603  0.3676
  408SOL    HW1 1223   2.745   2.529   0.079 -1.7737 -1.3012 -0.9319
  408SOL    HW2 1224   2.587   2.579   0.089  1.3172 -0.0463  0.1676
  409SOL     OW 1225   2.266   1.150   0.485 -0.1367 -0.2830 -0.2780
  409SOL    HW1 1226   2.340   1.213   0.520  1.5036 -0.2156  4.3679
  409SOL    HW2 1227   2.195   1.210   0.441  2.2667  2.6412  0.3749
  410SOL     OW 1228   2.931   1.685   0.766  0.0709 -0.0909  0.6492
  410SOL    HW1 1229   2.858   1.613   0.777 -1.4129 -1.3357 -0.3718
  410SOL    HW2 1230   3.013   1.654   0.821  1.0833 -3.2321  0.4613
  411SOL     OW 1231   0.263   1.506   0.690  0.3403  0.4604 -1.3437
  411SOL    HW1 1232   0.339   1.477   0.753 -0.6335 -1.7215 -0.6410
  411SOL    HW2 1233   0.295   1.466   0.602  0.4274 -0.6811  0.7992
  412SOL     OW 1234   2.139   2.248   0.701 -0.1705  0.0715 -0.3176
  412SOL    HW1 1235   2.144   2.278   0.801 -0.7022  0.2773  3.3404
  412SOL    HW2 1236   2.194   2.161   0.682  1.7879 -3.5147 -0.0310
  413SOL     OW 1237   1.537   1.187   1.993 -0.5671  0.1901 -0.4535
  413SOL    HW1 1238   1.450   1.219   1.947 -0.6487  0.5865  2.5271
  413SOL    HW2 1239   1.529   1.213   2.095 -0.6615  1.1088  1.4390
  414SOL     OW 1240   2.920   2.824   0.158  0.6967 -0.4236 -0.2786
  414SOL    HW1 1241   2.947   2.733   0.134  0.1935  1.7882  2.4255
  414SOL    HW2 1242   2.820   2.837   0.155 -3.2506 -1.8265 -1.4652
  415SOL     OW 1243   1.150   2.158   1.641  0.1018 -0.4666  0.3892
  415SOL    HW1 1244   1.057   2.193   1.635  1.9227 -1.1274 -0.5610
  415SOL    HW2 1245   1.180   2.149   1.739  0.3053  2.3324  0.0613
  416SOL     OW 1246   2.722   2.411   2.506 -0.1526  0.0798  0.1369
  416SOL    HW1 1247   2.771   2.494   2.527 -0.2193 -2.7368 -1.3672
  416SOL    HW2 1248   2.786   2.337   2.480 -2.4055  1.4136 -0.6361
  417SOL     OW 1249   2.671   0.533   1.321 -0.2158 -0.0854  0.8341
  417SOL    HW1 1250   2.605   0.466   1.274 -1.5385  0.4802 -2.1716
  417SOL    HW2 1251   2.735   0.486   1.384  1.6871  2.4261  2.8151
  418SOL     OW 1252   2.769   0.053   0.046  0.1268 -0.2690 -0.1710
  418SOL    HW1 1253   2.759   0.032   0.149 -1.0075 -0.6397 -0.0985
  418SOL    HW2 1254   2.683   0.020   0.004 -1.2712  4.4556 -1.0644
  419SOL     OW 1255   0.208   1.539   1.288 -0.2016 -0.2298 -0.0222
  419SOL    HW1 1256   0.185   1.444   1.267 -3.4929  0.8661 -0.8587
  419SOL    HW2 1257   0.223   1.558   1.387  0.5698  0.5273  1.4922
  420SOL     OW 1258   0.416   1.400   3.016 -0.0637 -0.2553  0.0732
  420SOL    HW1 1259   0.363   1.385   0.013 -2.1210 -0.8128 -1.4923
  420SOL    HW2 1260   0.389   1.328   2.944 -1.3295 -4.3981 -2.0341
  421SOL     OW 1261   2.353   2.527   2.313 -0.6135 -0.1747 -0.2172
  421SOL    HW1 1262   2.371   2.619   2.270 -3.2430  1.6563  1.6883
  421SOL    HW2 1263   2.342   2.455   2.244  3.5440  2.6398 -0.1972
  422SOL     OW 1264   0.373   0.862   2.509 -0.2248 -0.2332 -0.4033
  422SOL    HW1 1265   0.380   0.858   2.407 -1.1275  1.0628  0.5044
  422SOL    HW2 1266   0.364   0.956   2.544  2.6211  2.1741  2.2529
  423SOL     OW 1267   1.239   2.041   0.625 -0.1536 -0.5312 -0.0689
  423SOL    HW1 1268   1.235   2.119   0.695 -1.8914  0.7083  1.9556
  423SOL    HW2 1269   1.205   2.079   0.533  0.5466  0.4627 -3.5796
  424SOL     OW 1270   0.895   1.812   1.738 -0.1939 -0.1877 -0.5368
  424SOL    HW1 1271   0.961   1.777   1.807 -0.5401 -0.8427  0.0606
  424SOL    HW2 1272   0.802   1.821   1.781 -0.4909 -0.1857 -1.1889
  425SOL     OW 1273   2.442   2.393   2.558  0.6028 -0.5689 -0.2350
  425SOL    HW1 1274   2.543   2.413   2.565 -1.0498  5.0988  0.3902
  425SOL    HW2 1275   2.406   2.436   2.472 -2.2409 -0.1932  1.7023
  426SOL     OW 1276   1.578   0.757   1.053 -0.2033  0.2258  0.2935
  426SOL    HW1 1277   1.641   0.826   1.087 -1.5294  0.7451 -1.5985
  426SOL    HW2 1278   1.485   0.790   1.030 -3.1977 -0.6395  0.5124
  427SOL     OW 1279   0.039   1.587   2.736 -0.4579  0.2789 -0.9954
  427SOL    HW1 1280   0.033   1.582   2.838  0.2570 -0.6280  1.8922
  427SOL    HW2 1281   3.034   1.595   2.696 -0.9323  1.8591  0.4724
  428SOL     OW 1282   0.995   1.458   0.202  0.5641  0.3420 -0.2172
  428SOL    HW1 1283   1.071   1.521   0.170  0.7212 -0.0247 -1.7598
  428SOL    HW2 1284   1.026   1.362   0.190  0.0489  2.5344 -0.3131
  429SOL     OW 1285   0.058   2.555   0.381 -0.0446 -0.5528 -0.2130
  429SOL    HW1 1286   0.085   2.457   0.389  2.6671 -0.5362 -0.2898
  429SOL    HW2 1287   0.030   2.571   0.281 -3.0567 -0.8619 -1.4134
  430SOL     OW 1288   0.589   2.244   2.226 -1.0018  0.3026 -0.2865
  430SOL    HW1 1289   0.526   2.314   2.257  1.1969  1.4605 -0.9264
  430SOL    HW2 1290   0.547   2.188   2.151 -0.5529  2.6884 -0.3927
  431SOL     OW 1291   2.803   1.209   0.045 -0.6524 -0.1280 -0.4977
  431SOL    HW1 1292   2.897   1.236   0.016  2.1185  0.8855 -0.7093
  431SOL    HW2 1293   2.806   1.114   0.081  1.6467  4.6189 -2.3742
  432SOL     OW 1294   1.823   2.747   2.637  0.7866 -0.4446 -0.0627
  432SOL    HW1 1295   1.915   2.726   2.671  0.8416 -1.0131  0.4158
  432SOL    HW2 1296   1.771   2.807   2.702  1.5744  2.4608  1.3863
  433SOL     OW 1297   1.226   2.494   0.839  0.6439 -0.5864  0.0069
  433SOL    HW1 1298   1.166   2.556   0.788 -2.3742  1.7029  0.3546
  433SOL    HW2 1299   1.211   2.501   0.940 -1.2572 -0.8289  0.8660
  434SOL     OW 1300   1.416   1.909   2.354 -0.1224  0.0480  0.0327
  434SOL    HW1 1301   1.449   1.984   2.418  0.0738  1.3763 -1.7131
  434SOL    HW2 1302   1.412   1.814   2.393  1.2078  0.4128 -2.6153
  435SOL     OW 1303   2.119   0.706   0.194 -0.4456  0.1405  0.1474
  435SOL    HW1 1304   2.115   0.794   0.150 -0.4634 -2.0745  0.8606
  435SOL    HW2 1305   2.028   0.668   0.221 -2.7761 -0.4940  1.4810
  436SOL     OW 1306   0.363   2.671   2.194  0.1503  0.1326  0.2373
  436SOL    HW1 1307   0.342   2.603   2.117  0.9418 -2.2783 -2.3229
  436SOL    HW2 1308   0.424   2.630   2.263 -2.7324 -1.9052  0.0041
  437SOL     OW 1309   2.090   2.913   1.535 -0.5773  0.6263 -0.3561
  437SOL    HW1 1310   2.094   2.832   1.471 -0.3072 -1.2646 -0.9830
  437SOL    HW2 1311   2.069   3.000   1.488 -0.2309  2.4370  2.2178
  438SOL     OW 1312   0.096   1.806   0.383  0.3945 -0.1088  0.1675
  438SOL    HW1 1313   0.152   1.804   0.469 -0.7526 -1.5018 -1.9523
  438SOL    HW2 1314   0.140   1.865   0.311  0.5517  0.8621  1.3231
  439SOL     OW 1315   0.161   2.996   1.103 -0.7691  0.0198 -0.3036
  439SOL    HW1 1316   0.143   0.002   1.078  1.5489  1.0430 -1.7682
  439SOL    HW2 1317   0.097   2.931   1.063 -2.8974  1.4178  2.9985
  440SOL     OW 1318   2.682   2.850   2.253 -0.5460 -0.2413 -0.0762
  440SOL    HW1 1319   2.587   2.825   2.243 -0.9560  0.5028 -1.7411
  440SOL    HW2 1320   2.751   2.781   2.217  0.4948 -2.7047  1.7947
  441SOL     OW 1321   0.139   0.762   0.355  0.4214 -0.0370  0.5952
  441SOL    HW1 1322   0.142   0.831   0.279  0.9397  2.0673 -1.5003
  441SOL    HW2 1323   0.063   0.786   0.419 -0.6560 -0.2565 -0.7634
  442SOL     OW 1324   1.701   2.316   2.293  0.5548 -0.3777  0.0870
  442SOL    HW1 1325   1.704   2.313   2.396  0.1506 -1.1283  0.5990
  442SOL    HW2 1326   1.634   2.379   2.246  1.2131  1.6840 -2.4279
  443SOL     OW 1327   0.775   3.049   2.735 -0.3112 -0.5622 -0.3145
  443SOL    HW1 1328   0.701   0.005   2.795 -1.5458  0.4169 -2.6445
  443SOL    HW2 1329   0.735   2.969   2.690  0.8586  1.1637 -0.2866
  444SOL     OW 1330   1.560   1.690   2.738  0.8336 -0.3320  0.9554
  444SOL    HW1 1331   1.475   1.727   2.689 -1.5127  0.9550 -0.1348
  444SOL    HW2 1332   1.597   1.616   2.681 -0.0357  0.6316 -0.0415
  445SOL     OW 1333   0.405   0.226   1.147 -0.5555 -0.2772 -0.6690
  445SOL    HW1 1334   0.336   0.216   1.077 -1.4369  1.2113  0.4428
  445SOL    HW2 1335   0.400   0.151   1.218 -0.4504 -3.5359  0.9932
  446SOL     OW 1336   1.807   0.936   0.908 -0.4807 -0.8755  0.1645
  446SOL    HW1 1337   1.853   0.884   0.982 -0.8247 -1.8284 -1.2414
  446SOL    HW2 1338   1.880   0.948   0.838  1.9028  0.0879 -0.1843
  447SOL     OW 1339   2.893   0.784   0.338  0.2177  0.0643 -0.7289
  447SOL    HW1 1340   2.849   0.694   0.339  0.9534  1.8605  0.8033
  447SOL    HW2 1341   2.943   0.798   0.424 -1.3729  1.0850 -3.0479
  448SOL     OW 1342   2.214   1.870   1.101  0.2490  0.3168 -0.6543
  448SOL    HW1 1343   2.229   1.781   1.143  0.8081  2.4100  0.3080
  448SOL    HW2 1344   2.253   1.946   1.153  0.6773  0.4324  0.2536
  449SOL     OW 1345   1.093   1.341   2.999 -0.1576  0.0623 -0.1934
  449SOL    HW1 1346   1.152   1.360   2.918 -0.9185  3.4754  0.4249
  449SOL    HW2 1347   1.038   1.419   3.030  0.8127 -3.3130 -2.6115
  450SOL     OW 1348   2.271   2.817   2.541 -0.8459  0.0869 -0.2403
  450SOL    HW1 1349   2.202   2.817   2.468 -0.0723 -0.1809  2.1722
  450SOL    HW2 1350   2.332   2.897   2.532  1.1461  0.9526 -1.0019
  451SOL     OW 1351   2.403   0.733   2.580 -0.0773  0.2136  0.1841
  451SOL    HW1 1352   2.455   0.660   2.532 -0.1640  0.8488 -0.1721
  451SOL    HW2 1353   2.322   0.752   2.528  1.7903 -0.7674 -1.5564
  452SOL     OW 1354   1.581   1.273   1.373  0.1860 -0.6735  0.1945
  452SOL    HW1 1355   1.634   1.358   1.391  2.1938 -1.2064  1.0702
  452SOL    HW2 1356   1.485   1.291   1.399  1.0188  2.9524 -0.7965
  453SOL     OW 1357   1.592   0.378   1.887  0.0770 -0.4143 -0.1403
  453SOL    HW1 1358   1.559   0.286   1.885 -0.8170  1.4282  1.4669
  453SOL    HW2 1359   1.541   0.440   1.823 -0.6892 -1.3965  3.8016
  454SOL     OW 1360   2.900   0.782   2.952  0.4978  0.0358 -0.0133
  454SOL    HW1 1361   2.913   0.688   2.912 -0.9612  0.4764 -0.1089
  454SOL    HW2 1362   2.961   0.787   3.039  0.7194 -1.1853  1.1712
  455SOL     OW 1363   2.242   1.483   1.471 -0.0144  0.3211 -0.5967
  455SOL    HW1 1364   2.316   1.419   1.508  1.3898 -1.5760  0.7993
  455SOL    HW2 1365   2.150   1.444   1.482 -1.0966  1.1862  2.5626
  456SOL     OW 1366   1.837   2.946   1.687 -0.5462 -0.2189 -0.4739
  456SOL    HW1 1367   1.836   2.860   1.743 -0.2804  0.4027 -2.8621
  456SOL    HW2 1368   1.930   2.952   1.651 -4.0902  0.6073  2.8041
  457SOL     OW 1369   1.303   2.995   0.488  0.3912 -0.3067  0.5757
  457SOL    HW1 1370   1.364   3.074   0.519  0.1657 -0.0180  1.1308
  457SOL    HW2 1371   1.323   2.966   0.391 -0.5440  0.3223 -1.5750
  458SOL     OW 1372   3.082   3.005   0.567 -0.0894 -0.5092  0.2803
  458SOL    HW1 1373   3.043   2.912   0.578  1.7121  2.3113  0.2205
  458SOL    HW2 1374   0.009   3.028   0.470  0.5133 -0.3666 -0.1981
  459SOL     OW 1375   2.031   1.321   0.636  0.3181  0.1190 -0.2709
  459SOL    HW1 1376   2.015   1.263   0.554  1.0453  2.2416  0.4095
  459SOL    HW2 1377   1.943   1.344   0.682 -1.2333 -1.8889 -2.4862
  460SOL     OW 1378   0.855   2.536   2.375 -0.5154  0.5811  0.0891
  460SOL    HW1 1379   0.939   2.596   2.395 -0.2853  2.4414  1.5931
  460SOL    HW2 1380   0.844   2.476   2.459 -0.7549  1.7440  0.2163
  461SOL     OW 1381   0.727   1.704   2.815  0.0747 -0.3295 -0.0295
  461SOL    HW1 1382   0.657   1.672   2.744 -0.5870  1.7400  0.0271
  461SOL    HW2 1383   0.695   1.686   2.907  3.2728  0.9712 -1.3375
  462SOL     OW 1384   2.356   2.116   0.426  0.1207 -0.5787  0.9186
  462SOL    HW1 1385   2.318   2.064   0.508 -0.5140 -0.5468  0.7573
  462SOL    HW2 1386   2.318   2.069   0.344 -0.1884  0.0139 -0.0335
  463SOL     OW 1387   2.828   0.516   0.316  0.7925  0.2148  0.0984
  463SOL    HW1 1388   2.901   0.447   0.336  1.4070 -1.1229 -1.3020
  463SOL    HW2 1389   2.762   0.508   0.389 -0.1442 -0.7883 -1.7968
  464SOL     OW 1390   0.343   1.412   0.458 -0.3048  0.1972  0.7157
  464SOL    HW1 1391   0.377   1.507   0.437 -0.4634  0.3187  2.8565
  464SOL    HW2 1392   0.420   1.352   0.489  1.9551  0.4182  0.1676
  465SOL     OW 1393   2.297   0.118   1.335  0.1490 -0.0272 -0.1954
  465SOL    HW1 1394   2.298   0.024   1.294  0.6863  1.4424 -0.6204
  465SOL    HW2 1395   2.220   0.171   1.292 -0.9864 -1.8499  0.6490
  466SOL     OW 1396   2.383   3.024   0.798 -0.0130  0.0701 -0.3613
  466SOL    HW1 1397   2.405   2.933   0.761  0.2678 -1.6670 -0.2369
  466SOL    HW2 1398   2.421   0.007   0.738 -2.5770 -1.1468  2.6836
  467SOL     OW 1399   2.984   0.595   2.363 -0.5626 -0.2514 -0.9845
  467SOL    HW1 1400   2.995   0.626   2.461  1.1923  1.6659  0.2551
  467SOL    HW2 1401   2.996   0.496   2.355  0.7422 -1.2301 -0.8908
  468SOL     OW 1402   2.999   0.160   2.266 -0.5135  0.3698 -0.0625
  468SOL    HW1 1403   3.070   0.226   2.288 -2.0493 -1.3158  1.6426
  468SOL    HW2 1404   3.041   0.072   2.223 -0.6674 -4.9309 -2.1371
  469SOL     OW 1405   0.794   0.118   1.631  0.1153  0.0900 -0.1416
  469SOL    HW1 1406   0.792   0.170   1.718  0.4417 -0.1853 -0.2342
  469SOL    HW2 1407   0.695   0.121   1.587 -1.3503  1.4727 -2.0527
  470SOL     OW 1408   2.587   0.805   1.778  0.9368 -0.4467 -0.1840
  470SOL    HW1 1409   2.679   0.791   1.738 -3.2492  0.9829 -0.9258
  470SOL    HW2 1410   2.585   0.798   1.881 -0.0945  0.6479 -0.2228
  471SOL     OW 1411   2.875   1.685   2.621  0.5233  0.2682  0.5716
  471SOL    HW1 1412   2.835   1.778   2.605  1.7342 -1.1043  3.6718
  471SOL    HW2 1413   2.813   1.624   2.681 -2.1485 -0.8968 -0.9846
  472SOL     OW 1414   0.882   1.766   0.574 -0.4709  0.3896  0.2832
  472SOL    HW1 1415   0.970   1.724   0.545 -1.1761  2.9475 -0.8616
  472SOL    HW2 1416   0.869   1.853   0.528  0.8699  0.0063 -0.1977
  473SOL     OW 1417   1.647   2.157   2.085  0.0203  0.0458 -0.2089
  473SOL    HW1 1418   1.619   2.059   2.099 -1.4791  2.5953  1.3448
  473SOL    HW2 1419   1.661   2.202   2.171  0.3468 -0.5687 -1.2423
  474SOL     OW 1420   1.062   2.798   2.661  0.1090  0.6949 -0.9703
  474SOL    HW1 1421   1.070   2.769   2.566 -0.6935 -0.5650  0.9057
  474SOL    HW2 1422   1.074   2.716   2.722  1.5781 -2.1824  0.7774
  475SOL     OW 1423   0.870   1.907   2.520 -0.0125 -0.2474  0.3109
  475SOL    HW1 1424   0.823   1.962   2.449  0.2595 -2.7187 -2.7253
  475SOL    HW2 1425   0.848   1.938   2.614 -1.0254 -1.4040 -0.2621
  476SOL     OW 1426   0.700   0.539   0.937  0.0434  0.0441 -0.7067
  476SOL    HW1 1427   0.651   0.616   0.978  0.1624 -1.4485  0.0385
  476SOL    HW2 1428   0.654   0.509   0.853 -0.5148  1.2451  1.9943
  477SOL     OW 1429   1.918   2.395   1.381  0.1993 -0.8075 -0.3311
  477SOL    HW1 1430   1.892   2.370   1.288  0.7770  3.3291  1.8079
  477SOL    HW2 1431   2.011   2.369   1.402 -1.2039  1.6801 -1.3821
  478SOL     OW 1432   0.291   0.458   2.751 -0.0379 -0.0237 -0.0777
  478SOL    HW1 1433   0.228   0.536   2.790 -0.6022  0.9206  0.3363
  478SOL    HW2 1434   0.371   0.506   2.705  2.0222 -0.0148  0.5651
  479SOL     OW 1435   1.071   0.475   1.320  0.0631  0.0453 -0.1789
  479SOL    HW1 1436   1.004   0.551   1.333  1.0142  1.7093 -1.6977
  479SOL    HW2 1437   1.138   0.507   1.249  1.3885 -1.2761 -0.1299
  480SOL     OW 1438   2.818   2.381   0.116 -0.2755 -0.0663  0.9943
  480SOL    HW1 1439   2.783   2.326   0.034  0.9617 -3.6534 -2.8047
  480SOL    HW2 1440   2.862   2.316   0.182 -0.9440  1.1380  0.6333
  481SOL     OW 1441   0.121   0.697   1.495  0.8594  0.2806  0.3586
  481SOL    HW1 1442   0.099   0.770   1.425  1.3122  0.1143  0.5929
  481SOL    HW2 1443   0.039   0.652   1.534 -0.8917  0.4038 -0.2708
  482SOL     OW 1444   1.010   0.070   1.396  0.1728 -0.4607 -0.4483
  482SOL    HW1 1445   0.918   0.099   1.357 -0.4563 -1.2464 -0.9430
  482SOL    HW2 1446   1.001   0.015   1.479 -0.1609  1.8155 -0.2300
  483SOL     OW 1447   2.933   1.409   2.468 -0.6749 -0.3503  0.3360
  483SOL    HW1 1448   2.970   1.326   2.518 -0.6359 -1.8799 -1.8020
  483SOL    HW2 1449   2.836   1.393   2.443 -1.5185  1.2347 -0.1927
  484SOL     OW 1450   1.790   1.705   1.830 -0.2347  0.6297  0.0122
  484SOL    HW1 1451   1.741   1.657   1.909  1.0118 -4.2606  0.5150
  484SOL    HW2 1452   1.822   1.640   1.758  2.0985  2.3249  1.4763
  485SOL     OW 1453   0.263   2.810   2.427  0.1580  0.3461 -0.0452
  485SOL    HW1 1454   0.302   2.778   2.516  1.2340  2.0215  1.4753
  485SOL    HW2 1455   0.289   2.750   2.348 -0.8957  0.5944 -1.5939
  486SOL     OW 1456   1.059   0.128   0.792 -0.4668 -0.2389 -0.5425
  486SOL    HW1 1457   1.081   0.178   0.705  0.2083 -1.1444 -0.8364
  486SOL    HW2 1458   1.085   0.029   0.780  1.7344  0.9818  1.7134
  487SOL     OW 1459   1.504   0.080   0.919  0.1447  0.0557 -0.0190
  487SOL    HW1 1460   1.557   0.159   0.938 -0.4224  0.1161  0.3480
  487SOL    HW2 1461   1.490   0.029   1.007 -1.6101  0.6627 -0.8730
  488SOL     OW 1462   2.283   0.983   0.742 -0.0544  0.0042  0.1185
  488SOL    HW1 1463   2.291   1.052   0.666  1.0184  3.3903 -1.2534
  488SOL    HW2 1464   2.342   1.015   0.818  1.8379 -0.7197  0.2842
  489SOL     OW 1465   1.229   0.806   1.322  0.3549 -0.0109 -0.1528
  489SOL    HW1 1466   1.299   0.774   1.390 -0.6758 -0.5289 -0.2287
  489SOL    HW2 1467   1.216   0.732   1.248  1.0838 -3.0178 -6.2306
  490SOL     OW 1468   1.018   0.581   2.823 -0.0467  0.3303 -0.0935
  490SOL    HW1 1469   1.085   0.588   2.899 -0.5714 -1.7501 -2.0772
  490SOL    HW2 1470   0.923   0.591   2.857 -0.8887 -0.6926 -0.1056
  491SOL     OW 1471   0.922   2.422   0.835  0.8855  0.3833  0.3375
  491SOL    HW1 1472   0.887   2.511   0.861  1.1922 -2.0181 -0.8626
  491SOL    HW2 1473   0.838   2.368   0.809 -0.1535  2.3239 -2.6155
  492SOL     OW 1474   1.258   1.745   1.620  0.3689  0.1141 -0.2913
  492SOL    HW1 1475   1.268   1.802   1.703 -0.9876 -3.2254  0.2194
  492SOL    HW2 1476   1.332   1.674   1.618  0.1952 -0.4707  0.3151
  493SOL     OW 1477   0.670   1.603   3.068  0.5737  0.1575  0.1339
  493SOL    HW1 1478   0.585   1.549   3.052 -1.1138  0.3610 -2.0010
  493SOL    HW2 1479   0.732   1.558   0.042 -0.6328 -0.2879  0.4774
  494SOL     OW 1480   2.062   2.714   0.608  0.0670  0.2512 -0.5348
  494SOL    HW1 1481   2.059   2.612   0.595  1.4162  2.3011 -1.4513
  494SOL    HW2 1482   2.160   2.745   0.627  0.1524 -0.9005 -1.5496
  495SOL     OW 1483   0.099   1.507   2.390  0.1782  0.6318 -0.3627
  495SOL    HW1 1484   0.021   1.471   2.439  2.7883 -0.2349 -1.4406
  495SOL    HW2 1485   0.178   1.526   2.454 -0.2104 -3.2486  0.1564
  496SOL     OW 1486   0.396   2.353   2.517  0.0697  0.3397  0.1174
  496SOL    HW1 1487   0.439   2.265   2.544  2.0535  0.4391  1.3518
  496SOL    HW2 1488   0.340   2.393   2.589  1.9028 -1.4144 -2.2870
  497SOL     OW 1489   1.687   1.353   0.516  0.2719  0.0013  0.3085
  497SOL    HW1 1490   1.591   1.381   0.511  2.2656 -0.4030 -3.0480
  497SOL    HW2 1491   1.722   1.358   0.611  3.3905  0.7722  0.4203
  498SOL     OW 1492   3.033   2.585   0.106 -0.2079  0.0405 -0.0713
  498SOL    HW1 1493   3.045   2.629   0.013 -1.6530  0.9539  1.1455
  498SOL    HW2 1494   2.955   2.516   0.110 -1.7610 -2.5356  0.5998
  499SOL     OW 1495   2.305   2.826   0.594  0.4270 -0.1235  0.5037
  499SOL    HW1 1496   2.335   2.842   0.497  2.1756  1.4316 -0.7428
  499SOL    HW2 1497   2.375   2.768   0.636  0.3722 -0.8679  0.2023
  500SOL     OW 1498   0.318   0.439   2.445  0.0333 -0.2504 -0.1714
  500SOL    HW1 1499   0.277   0.528   2.475 -1.3659 -2.3088 -0.4961
  500SOL    HW2 1500   0.311   0.373   2.520 -0.9929  0.1411 -0.4322
  501SOL     OW 1501   1.802   2.615   1.507 -0.0831  0.3243  0.0838
  501SOL    HW1 1502   1.856   2.532   1.476  3.0704  1.3429 -1.4101
  501SOL    HW2 1503   1.708   2.602   1.465  0.3846  2.0265 -2.0070
  502SOL     OW 1504   0.123   0.138   2.536 -0.6527  0.4080  0.3072
  502SOL    HW1 1505   0.219   0.141   2.572  3.5990 -1.0340 -0.1566
  502SOL    HW2 1506   0.113   0.065   2.464 -1.4390  1.8242 -1.9137
  503SOL     OW 1507   1.881   2.620   2.250 -0.1393 -0.0692  0.0663
  503SOL    HW1 1508   1.873   2.544   2.184  1.8595 -0.4072 -2.9010
  503SOL    HW2 1509   1.790   2.657   2.269 -0.2495 -1.5839  0.8121
  504SOL     OW 1510   2.112   0.207   1.948 -0.3505 -0.4479  0.1445
  504SOL    HW1 1511   2.018   0.178   1.918 -0.0177 -2.9803 -0.7639
  504SOL    HW2 1512   2.160   0.261   1.873  0.9763  2.5254 -2.2371
  505SOL     OW 1513   2.662   1.275   1.046  0.0980 -0.1675 -0.3015
  505SOL    HW1 1514   2.683   1.375   1.024  2.0229  2.4345 -0.2751
  505SOL    HW2 1515   2.593   1.263   1.119  1.0393 -0.5689  0.0484
  506SOL     OW 1516   0.131   1.658   1.778 -0.2078  0.1229 -0.1602
  506SOL    HW1 1517   0.169   1.631   1.689 -0.1468  2.3807  0.8120
  506SOL    HW2 1518   0.179   1.739   1.810 -0.2536  0.6580 -0.1400
  507SOL     OW 1519   0.497   2.368   1.305  0.1704  0.6280  0.8230
  507SOL    HW1 1520   0.556   2.410   1.374  0.1940  0.2265 -0.6997
  507SOL    HW2 1521   0.503   2.414   1.213  0.2654 -0.8978 -2.4866
  508SOL     OW 1522   0.331   0.599   2.052  0.5076 -0.6757  0.9114
  508SOL    HW1 1523   0.395   0.527   2.083  1.7049 -1.2822 -1.1316
  508SOL    HW2 1524   0.257   0.608   2.120  0.7557  0.9180 -1.3215
  509SOL     OW 1525   1.658   2.644   1.930  0.3459  0.8477 -0.3115
  509SOL    HW1 1526   1.593   2.630   1.856  1.3196 -2.1179  0.2230
  509SOL    HW2 1527   1.688   2.738   1.951 -0.6084 -0.4790  1.2091
  510SOL     OW 1528   2.226   1.402   2.506  0.0146 -0.1288  0.0958
  510SOL    HW1 1529   2.134   1.438   2.478  1.2154  0.4671 -2.8808
  510SOL    HW2 1530   2.232   1.379   2.603  1.5607  0.1946 -1.0325
  511SOL     OW 1531   1.235   1.227   1.035  0.6834 -0.1714  0.1869
  511SOL    HW1 1532   1.336   1.236   1.037  0.3011  1.6022 -0.6634
  511SOL    HW2 1533   1.205   1.174   1.117 -0.0566  0.2128 -0.4325
  512SOL     OW 1534   2.980   1.651   0.501  0.0800 -0.6373  0.6257
  512SOL    HW1 1535   2.985   1.686   0.599  0.2745  0.8577 -0.0684
  512SOL    HW2 1536   3.049   1.693   0.440  1.6890 -1.4082 -0.4207
  513SOL     OW 1537   1.043   2.209   2.279 -0.5802 -0.3476  0.5908
  513SOL    HW1 1538   1.050   2.253   2.373  0.5859  2.5846  0.7086
  513SOL    HW2 1539   0.955   2.249   2.243  1.0871  3.1026 -0.5602
  514SOL     OW 1540   0.290   2.135   1.136  0.2695  0.2315  0.0278
  514SOL    HW1 1541   0.234   2.071   1.076 -1.7511 -1.7351  0.4024
  514SOL    HW2 1542   0.364   2.085   1.177 -2.6485 -0.2748 -0.1885
  515SOL     OW 1543   1.826   0.700   1.713 -0.1782  0.0179  0.2579
  515SOL    HW1 1544   1.819   0.800   1.739  0.8255 -0.3313  2.5071
  515SOL    HW2 1545   1.828   0.686   1.614  1.3827 -1.3771 -0.2268
  516SOL     OW 1546   2.073   0.386   0.145 -0.0685 -0.4378  0.4146
  516SOL    HW1 1547   2.136   0.353   0.072 -1.2441  1.8185  1.1541
  516SOL    HW2 1548   2.122   0.404   0.230  1.7395 -1.4308 -1.0338
  517SOL     OW 1549   1.232   1.702   2.972 -0.0225 -0.9014 -0.3288
  517SOL    HW1 1550   1.223   1.663   3.064 -0.0230  0.2888 -1.9680
  517SOL    HW2 1551   1.226   1.633   2.895  0.0433 -1.7227  0.1550
  518SOL     OW 1552   1.344   2.813   1.822  0.1481 -0.5334  0.3261
  518SOL    HW1 1553   1.430   2.833   1.769 -1.2287 -1.4039  1.4510
  518SOL    HW2 1554   1.322   2.716   1.821 -2.0644  1.4049  5.3919
  519SOL     OW 1555   2.149   3.015   1.010 -0.3935  0.4137 -0.4694
  519SOL    HW1 1556   2.210   2.993   0.929 -0.5508  1.6949 -0.1129
  519SOL    HW2 1557   2.056   3.039   0.973 -0.9385  1.1010  1.0412
  520SOL     OW 1558   2.587   1.683   2.084 -0.3818 -0.2049 -0.0606
  520SOL    HW1 1559   2.614   1.660   1.989 -3.1505 -2.0977  0.4692
  520SOL    HW2 1560   2.536   1.772   2.085 -0.9903  0.1950 -2.0831
  521SOL     OW 1561   2.588   0.707   0.119 -0.3225  0.3320 -0.3934
  521SOL    HW1 1562   2.645   0.625   0.096  0.1459  1.4658  2.0205
  521SOL    HW2 1563   2.595   0.728   0.217  1.2653 -0.0554  0.8310
  522SOL     OW 1564   0.824   0.944   2.632  0.3217 -0.3375 -0.7328
  522SOL    HW1 1565   0.751   0.897   2.578  2.7692 -0.6689  1.2343
  522SOL    HW2 1566   0.886   1.005   2.575  2.0850  0.6387  0.3512
  523SOL     OW 1567   0.227   2.298   0.444 -0.2224 -0.7092 -0.6847
  523SOL    HW1 1568   0.292   2.299   0.522 -0.2544  0.6972 -0.2853
  523SOL    HW2 1569   0.169   2.215   0.454 -3.8702  1.6158 -0.6924
  524SOL     OW 1570   2.174   2.606   3.014 -0.4867  0.7881 -0.1186
  524SOL    HW1 1571   2.150   2.661   2.930 -1.7466  1.4147  1.9619
  524SOL    HW2 1572   2.221   2.662   3.085 -1.4800 -0.5269 -2.8873
  525SOL     OW 1573   2.621   0.442   1.827 -0.2608 -0.1965 -0.0061
  525SOL    HW1 1574   2.575   0.414   1.913  1.8435 -1.6399  0.7486
  525SOL    HW2 1575   2.612   0.361   1.759 -0.9684 -1.4645 -0.5424
  526SOL     OW 1576   1.014   3.070   0.396  0.1234 -0.3585  0.3780
  526SOL    HW1 1577   1.096   0.044   0.384 -1.0619  0.5166  1.7287
  526SOL    HW2 1578   1.037   2.992   0.460 -2.3207 -1.4473  0.5549
  527SOL     OW 1579   2.079   0.013   0.582  0.6978  0.2655 -0.3315
  527SOL    HW1 1580   2.121   3.016   0.608 -0.1257  1.5494 -0.2483
  527SOL    HW2 1581   2.133   0.069   0.514 -0.0801  0.1239 -1.6484
  528SOL     OW 1582   1.758   0.990   2.899 -0.0747 -0.3398  0.1767
  528SOL    HW1 1583   1.797   0.898   2.880 -0.2797  2.3059 -0.8286
  528SOL    HW2 1584   1.672   1.006   2.847  0.0937 -0.4834  0.6012
  529SOL     OW 1585   1.746   1.458   2.198  0.4466 -0.3789 -0.2883
  529SOL    HW1 1586   1.712   1.421   2.290 -2.0862 -1.2068  0.2034
  529SOL    HW2 1587   1.798   1.388   2.149 -1.8687  0.6003 -2.4238
  530SOL     OW 1588   2.305   2.764   0.094 -0.1050  0.1008  0.5300
  530SOL    HW1 1589   2.281   2.826   0.170 -0.4010  0.7826 -0.4398
  530SOL    HW2 1590   2.365   2.689   0.129 -0.5187  1.0416  0.3701
  531SOL     OW 1591   1.849   1.607   2.992  0.1366 -0.0013  0.6874
  531SOL    HW1 1592   1.916   1.546   3.032  0.0204 -3.1401 -1.2067
  531SOL    HW2 1593   1.871   1.701   3.015 -0.8396 -0.5247 -0.5815
  532SOL     OW 1594   1.658   0.294   1.237 -0.3250  0.0949 -0.0167
  532SOL    HW1 1595   1.564   0.259   1.214 -2.3766 -0.8610  1.7965
  532SOL    HW2 1596   1.661   0.396   1.234  0.6160  0.7908  1.6099
  533SOL     OW 1597   0.610   1.040   3.043 -0.0204 -0.2802 -0.0074
  533SOL    HW1 1598   0.642   1.130   3.078 -2.9548  1.8039  2.9384
  533SOL    HW2 1599   0.573   1.054   2.945 -0.2915  4.0197 -2.9994
  534SOL     OW 1600   1.631   0.704   3.077  0.5047 -0.1432  0.1334
  534SOL    HW1 1601   1.669   0.619   3.041  0.4629 -2.8002  3.7597
  534SOL    HW2 1602   1.693   0.750   0.056  2.3174 -1.0069  2.9286
  535SOL     OW 1603   0.752   2.116   2.790  0.0840  0.7231  0.1734
  535SOL    HW1 1604   0.715   2.135   2.886  0.0861 -0.1114 -2.0937
  535SOL    HW2 1605   0.823   2.045   2.801  1.6091  0.7380 -0.4574
  536SOL     OW 1606   0.591   2.847   0.183 -0.1142  0.3546  0.0410
  536SOL    HW1 1607   0.675   2.899   0.192  3.8067 -0.1682 -1.0959
  536SOL    HW2 1608   0.593   2.756   0.233  0.2241 -0.8248  1.1762
  537SOL     OW 1609   1.930   0.160   0.186 -0.2023 -0.5762  0.0735
  537SOL    HW1 1610   1.883   0.151   0.276  0.7612 -1.8279 -0.5791
  537SOL    HW2 1611   1.959   0.255   0.171 -1.8160 -1.3573 -0.1801
  538SOL     OW 1612   2.442   2.552   0.160 -0.2076  0.5135 -0.1924
  538SOL    HW1 1613   2.399   2.487   0.099 -1.2566  2.6739 -0.4267
  538SOL    HW2 1614   2.460   2.507   0.253 -0.9229 -1.7574  0.9815
  539SOL     OW 1615   2.570   1.184   2.979  0.1739 -0.4767  0.1770
  539SOL    HW1 1616   2.582   1.106   2.915  0.7432  1.2912  1.3264
  539SOL    HW2 1617   2.657   1.213   3.020  0.0997 -1.7008  1.8027
  540SOL     OW 1618   0.893   2.814   1.944 -0.1793 -0.3615  0.5381
  540SOL    HW1 1619   0.860   2.772   2.028  0.6896  2.0853 -4.6024
  540SOL    HW2 1620   0.823   2.816   1.874  1.7972 -2.3923 -0.3096
  541SOL     OW 1621   2.314   3.013   2.284 -0.0721 -0.5475 -0.0231
  541SOL    HW1 1622   2.295   3.058   2.375 -2.9767 -1.8600  0.4394
  541SOL    HW2 1623   2.345   3.080   2.219  2.7886  2.6133  1.7717
  542SOL     OW 1624   0.682   0.431   3.062 -0.1934  0.0263  0.4071
  542SOL    HW1 1625   0.585   0.433   3.032  1.9989  2.2267 -1.0726
  542SOL    HW2 1626   0.686   0.414   0.072 -1.4576 -0.4499  0.7356
  543SOL     OW 1627   0.347   0.960   0.841 -0.2532  0.3954  0.0992
  543SOL    HW1 1628   0.271   1.024   0.856  0.6331  1.2404 -1.3105
  543SOL    HW2 1629   0.433   1.009   0.823  1.5696 -0.7800  0.0005
  544SOL     OW 1630   2.452   0.651   1.433  0.1819 -0.0780  0.2068
  544SOL    HW1 1631   2.547   0.630   1.415 -1.3216  2.0791  0.0599
  544SOL    HW2 1632   2.400   0.691   1.355  0.1799  0.9605 -0.3829
  545SOL     OW 1633   1.229   1.593   0.124 -0.0691  0.1556  0.1915
  545SOL    HW1 1634   1.260   1.665   0.196  2.4575  1.1761 -2.3442
  545SOL    HW2 1635   1.297   1.519   0.123 -1.0170 -2.4833 -0.3025
  546SOL     OW 1636   2.423   2.728   1.319 -0.3117 -0.1567  0.2449
  546SOL    HW1 1637   2.330   2.696   1.327 -0.0575 -0.1349 -0.4195
  546SOL    HW2 1638   2.470   2.709   1.407 -3.6661  0.1667 -2.1266
  547SOL     OW 1639   1.569   2.514   2.161 -0.4134  0.3425  0.4938
  547SOL    HW1 1640   1.604   2.556   2.077 -0.5683 -3.3449 -0.1232
  547SOL    HW2 1641   1.487   2.561   2.195  1.0370 -2.0039 -0.8730
  548SOL     OW 1642   1.492   0.700   2.741 -0.0389 -0.6219  0.0194
  548SOL    HW1 1643   1.441   0.748   2.818 -1.0183  0.7739  0.3170
  548SOL    HW2 1644   1.555   0.629   2.777  1.5071  4.4323  1.2802
  549SOL     OW 1645   2.264   0.700   0.566 -0.3901  0.1080  0.1078
  549SOL    HW1 1646   2.181   0.698   0.622 -2.4773  0.7147  0.7984
  549SOL    HW2 1647   2.343   0.672   0.626  1.3921 -1.0039  1.4850
  550SOL     OW 1648   2.401   1.578   0.419  0.7048  0.4362  0.0132
  550SOL    HW1 1649   2.471   1.647   0.451  1.2119  1.6218  0.0721
  550SOL    HW2 1650   2.402   1.567   0.315 -0.9491  0.4170 -0.1135
  551SOL     OW 1651   1.970   0.059   1.473 -0.3317 -0.0411 -0.1011
  551SOL    HW1 1652   1.942   0.125   1.548 -2.8056  0.8752  2.6374
  551SOL    HW2 1653   1.930   0.082   1.382 -0.3795  0.9983 -2.4671
  552SOL     OW 1654   1.369   0.053   2.821 -0.6827 -0.3834 -0.2496
  552SOL    HW1 1655   1.320   0.137   2.843 -0.8952  0.8452 -0.4422
  552SOL    HW2 1656   1.468   0.072   2.795  1.0003 -1.7349 -2.2268
  553SOL     OW 1657   0.742   2.657   2.134  0.4883  0.2149 -0.0496
  553SOL    HW1 1658   0.673   2.735   2.133 -0.1505 -1.0355  1.2446
  553SOL    HW2 1659   0.763   2.632   2.230 -0.3504 -0.9635  2.9623
  554SOL     OW 1660   0.437   3.008   1.217  0.0523  0.0952 -0.2122
  554SOL    HW1 1661   0.365   2.968   1.163  2.8733  3.7703  0.0161
  554SOL    HW2 1662   0.529   2.979   1.188 -3.6515  0.0599 -1.1397
  555SOL     OW 1663   2.506   1.542   2.297  0.5154  0.2153  0.1618
  555SOL    HW1 1664   2.520   1.602   2.213 -1.3561 -0.7813  2.7661
  555SOL    HW2 1665   2.420   1.488   2.286 -2.2885 -1.2283  1.9434
  556SOL     OW 1666   1.188   0.577   3.016  0.0049 -0.8845  0.2951
  556SOL    HW1 1667   1.251   0.656   2.996 -3.5670  0.3089  0.7045
  556SOL    HW2 1668   1.225   0.528   0.009  0.3982  2.3479 -1.7630
  557SOL     OW 1669   0.287   2.043   2.306  0.0538 -0.4132 -0.4791
  557SOL    HW1 1670   0.317   2.062   2.211 -0.2878  0.9396  0.8577
  557SOL    HW2 1671   0.251   1.950   2.310  0.2417 -1.1382  1.0711
  558SOL     OW 1672   1.856   0.711   2.825 -0.0363  0.4480  0.0000
  558SOL    HW1 1673   1.761   0.673   2.841  0.4308  2.1331 -0.1048
  558SOL    HW2 1674   1.868   0.733   2.726 -3.4215 -0.8586  0.5745
  559SOL     OW 1675   2.002   1.876   1.670 -0.4203 -0.1521  0.9632
  559SOL    HW1 1676   1.960   1.880   1.575 -3.2812 -1.1595  0.1543
  559SOL    HW2 1677   1.943   1.823   1.730 -1.4118 -1.6569 -2.3791
  560SOL     OW 1678   1.561   0.607   2.042  0.1946  0.4144 -0.2498
  560SOL    HW1 1679   1.552   0.682   1.971  0.9097  3.5219 -0.1227
  560SOL    HW2 1680   1.576   0.512   2.004  0.4883 -2.4148  0.3923
  561SOL     OW 1681   2.994   0.098   2.783 -0.9937  0.2418  0.0320
  561SOL    HW1 1682   2.926   0.024   2.784 -1.1860 -0.5013 -0.0866
  561SOL    HW2 1683   3.041   0.086   2.691 -0.4572  1.1185 -0.9160
  562SOL     OW 1684   1.020   1.634   1.535  0.4291  0.1102 -0.1327
  562SOL    HW1 1685   1.118   1.660   1.549  3.4267 -2.1699 -2.5764
  562SOL    HW2 1686   0.957   1.694   1.596 -1.6421  0.2082  1.6307
  563SOL     OW 1687   1.121   0.054   0.057  0.2360  0.0333 -0.8258
  563SOL    HW1 1688   1.054   0.024   3.073  2.1102 -0.9005 -0.7566
  563SOL    HW2 1689   1.210   0.008   0.042  1.2841 -1.1971 -1.0134
  564SOL     OW 1690   0.289   2.742   0.451  0.1302  0.0448 -0.2117
  564SOL    HW1 1691   0.382   2.700   0.448 -2.5529  0.3231 -1.6353
  564SOL    HW2 1692   0.217   2.677   0.428  0.8652  0.7271  0.1408
  565SOL     OW 1693   0.620   2.583   1.137 -0.5536 -0.3695 -0.3565
  565SOL    HW1 1694   0.654   2.673   1.179 -0.6958 -1.8413 -0.9475
  565SOL    HW2 1695   0.700   2.523   1.120 -0.1576 -0.8584 -0.8276
  566SOL     OW 1696   1.129   0.045   2.232  0.0592  0.5206  0.4230
  566SOL    HW1 1697   1.059   0.120   2.223 -1.9515  3.1651  0.0842
  566SOL    HW2 1698   1.117   3.053   2.172 -1.3901 -2.6208  0.0627
  567SOL     OW 1699   2.169   0.300   0.959  0.5474  0.1427  0.5580
  567SOL    HW1 1700   2.197   0.343   0.870  0.3012  1.7347  0.1463
  567SOL    HW2 1701   2.077   0.251   0.946 -2.0054 -2.8233  0.4557
  568SOL     OW 1702   1.592   1.752   0.652 -0.2552 -0.3256  0.0622
  568SOL    HW1 1703   1.661   1.696   0.610 -3.3539 -0.3145  0.7964
  568SOL    HW2 1704   1.536   1.782   0.577  1.6872 -1.2560  2.4275
  569SOL     OW 1705   1.916   0.488   2.154 -0.4435  0.3535 -0.0287
  569SOL    HW1 1706   1.867   0.464   2.071  0.3681  1.2204  1.6221
  569SOL    HW2 1707   1.861   0.476   2.240  2.8514  1.1502  1.6379
  570SOL     OW 1708   0.092   2.945   2.108  0.3169 -0.6203 -0.3728
  570SOL    HW1 1709   0.002   2.964   2.062 -1.2313 -0.9017  1.0106
  570SOL    HW2 1710   0.076   2.905   2.197  3.9673  1.8305 -0.9769
  571SOL     OW 1711   0.598   2.734   1.487 -0.1306  0.3395  1.0318
  571SOL    HW1 1712   0.662   2.780   1.550 -1.1905  1.2287 -2.5280
  571SOL    HW2 1713   0.612   2.631   1.475  0.0104 -3.4177  0.9506
  572SOL     OW 1714   0.303   2.275   1.469  0.3084  0.2730  0.8932
  572SOL    HW1 1715   0.214   2.322   1.471 -3.6213  0.0645 -1.6611
  572SOL    HW2 1716   0.367   2.334   1.411  1.1753 -0.0584  1.0883
  573SOL     OW 1717   1.311   0.930   2.666  0.2331  0.3241 -0.8711
  573SOL    HW1 1718   1.339   0.860   2.590  3.2825 -0.3194 -0.7254
  573SOL    HW2 1719   1.217   0.912   2.700 -0.6198  0.9781  0.2569
  574SOL     OW 1720   2.336   2.362   2.095 -0.3382 -0.3243 -0.1066
  574SOL    HW1 1721   2.433   2.334   2.071 -0.1920  1.2394  2.3226
  574SOL    HW2 1722   2.295   2.407   2.015 -1.5698 -1.1641  1.3146
  575SOL     OW 1723   1.167   2.979   0.735 -0.1020  0.6823  0.3623
  575SOL    HW1 1724   1.217   3.008   0.649  0.6123  2.2972 -3.3566
  575SOL    HW2 1725   1.224   2.970   0.816  1.3509  1.7854 -0.9550
  576SOL     OW 1726   1.343   0.499   0.910  0.1926 -0.1879  0.5840
  576SOL    HW1 1727   1.268   0.430   0.897  0.4677 -1.2549 -0.0897
  576SOL    HW2 1728   1.438   0.458   0.925 -1.7735 -4.2808  1.5560
  577SOL     OW 1729   2.193   2.021   0.223  0.3181  0.2127  0.3335
  577SOL    HW1 1730   2.215   1.999   0.123  2.7919  0.3236 -1.2604
  577SOL    HW2 1731   2.148   1.939   0.265 -0.4879  1.8317 -0.2439
  578SOL     OW 1732   2.228   0.503   1.356 -0.1694  0.0213  0.7459
  578SOL    HW1 1733   2.322   0.511   1.391 -1.6974 -0.4530  1.4651
  578SOL    HW2 1734   2.155   0.560   1.401 -0.9244 -2.4764 -1.9351
  579SOL     OW 1735   1.641   1.025   2.499 -0.0370 -0.1394 -0.0024
  579SOL    HW1 1736   1.578   1.010   2.418 -0.2616  0.8160 -0.9033
  579SOL    HW2 1737   1.716   1.095   2.481 -0.2088  1.3363  0.5741
  580SOL     OW 1738   1.290   1.195   1.860 -0.0603 -0.1454 -0.8706
  580SOL    HW1 1739   1.310   1.145   1.772  2.5892 -3.0240  0.3201
  580SOL    HW2 1740   1.214   1.150   1.909  2.2517  1.5372 -2.4212
  581SOL     OW 1741   0.136   1.116   0.879 -0.2173  0.1563 -0.0282
  581SOL    HW1 1742   0.064   1.044   0.891  1.7148  2.1627  0.1983
  581SOL    HW2 1743   0.112   1.203   0.922 -0.5257 -0.3356  0.2830
  582SOL     OW 1744   2.846   0.601   1.838 -0.2572 -0.6558  0.0325
  582SOL    HW1 1745   2.759   0.550   1.847  0.1235  2.0444 -1.3993
  582SOL    HW2 1746   2.909   0.582   1.918 -1.7978  0.3775  0.2803
  583SOL     OW 1747   2.790   0.905   2.618 -0.1448 -0.5361  0.4851
  583SOL    HW1 1748   2.846   0.918   2.530  0.7021 -0.6506  1.5664
  583SOL    HW2 1749   2.692   0.929   2.604 -1.4880 -0.8346  1.3411
  584SOL     OW 1750   2.051   2.459   0.563 -0.3486  0.3526  0.2342
  584SOL    HW1 1751   2.078   2.378   0.618  1.5713  1.0027  2.2711
  584SOL    HW2 1752   2.068   2.443   0.457  1.9558  1.7576 -4.0734
  585SOL     OW 1753   0.123   2.278   0.050  0.0307  0.3892 -0.0764
  585SOL    HW1 1754   0.212   2.229   0.024  0.3199  0.4314 -2.2172
  585SOL    HW2 1755   0.078   2.245   0.142 -0.4707  1.0066 -0.9506
  586SOL     OW 1756   1.800   1.984   2.393 -0.2068  0.1563  0.4711
  586SOL    HW1 1757   1.820   1.933   2.312  0.7217 -0.8107  0.2761
  586SOL    HW2 1758   1.866   2.061   2.414 -0.2969  0.7710  1.2627
  587SOL     OW 1759   2.234   1.631   2.837 -0.6921  0.6473 -0.0597
  587SOL    HW1 1760   2.320   1.632   2.780 -0.8654 -2.0138 -1.8848
  587SOL    HW2 1761   2.185   1.544   2.825  3.3280  3.3504 -0.6334
  588SOL     OW 1762   2.600   0.050   1.332 -0.2013 -0.0886  0.2578
  588SOL    HW1 1763   2.519   3.081   1.302  0.0695  0.9261  1.3521
  588SOL    HW2 1764   2.571   0.099   1.414  0.2182 -0.7951 -1.3017
  589SOL     OW 1765   0.597   0.165   0.725  0.0810  0.3264  0.5172
  589SOL    HW1 1766   0.543   0.126   0.651 -0.8102 -1.9844  5.1148
  589SOL    HW2 1767   0.582   0.264   0.736 -1.9839 -1.3871 -0.4345
  590SOL     OW 1768   2.394   2.203   0.917 -0.2276  0.6774  0.1417
  590SOL    HW1 1769   2.296   2.204   0.939  1.4663 -1.5462 -0.3837
  590SOL    HW2 1770   2.410   2.264   0.831  1.0576  0.6156 -2.2765
  591SOL     OW 1771   1.222   2.223   0.837 -0.2194  0.2968 -0.1235
  591SOL    HW1 1772   1.297   2.212   0.904 -2.4968  1.3145 -1.8673
  591SOL    HW2 1773   1.204   2.319   0.811 -0.9781  1.0849 -0.3585
  592SOL     OW 1774   1.194   1.038   1.218 -0.0392  0.2221  0.0873
  592SOL    HW1 1775   1.219   0.942   1.243 -1.4244  1.4767  0.2857
  592SOL    HW2 1776   1.210   1.098   1.300 -1.2856 -1.0312  2.1524
  593SOL     OW 1777   0.948   2.570   1.451 -0.0250 -0.3635  0.2109
  593SOL    HW1 1778   0.995   2.595   1.537 -1.0654  0.6088 -0.8755
  593SOL    HW2 1779   1.017   2.525   1.387 -1.4453  0.1550  0.7731
  594SOL     OW 1780   0.875   1.491   2.765 -0.7174 -0.6978 -0.4127
  594SOL    HW1 1781   0.853   1.458   2.673 -3.1300  0.5707  0.7032
  594SOL    HW2 1782   0.841   1.585   2.790  1.4212 -0.2514  1.5008
  595SOL     OW 1783   1.271   1.425   1.530 -0.0826 -0.0706  0.1504
  595SOL    HW1 1784   1.344   1.459   1.593  0.4473  0.5611 -3.2265
  595SOL    HW2 1785   1.297   1.453   1.437  0.2422  1.5025  1.7737
  596SOL     OW 1786   2.734   1.226   2.137 -0.6813 -0.3758 -0.1678
  596SOL    HW1 1787   2.693   1.204   2.047  1.1402  0.2869 -1.0899
  596SOL    HW2 1788   2.807   1.296   2.133 -1.7826 -1.0631 -1.2777
  597SOL     OW 1789   1.487   2.503   1.747  0.0555  0.3036 -0.2777
  597SOL    HW1 1790   1.429   2.514   1.666  3.3762  0.9006  1.3552
  597SOL    HW2 1791   1.578   2.466   1.725  0.1975 -0.4086 -1.3885
  598SOL     OW 1792   2.496   1.308   1.260  0.0832  0.5707  0.0800
  598SOL    HW1 1793   2.497   1.230   1.325  1.4280 -2.0633  0.7829
  598SOL    HW2 1794   2.402   1.334   1.233  2.1470  1.5695 -0.5473
  599SOL     OW 1795   0.823   2.557   2.864 -0.3115  0.3307 -0.1553
  599SOL    HW1 1796   0.917   2.511   2.865  5.3443 -1.9931 -3.9504
  599SOL    HW2 1797   0.764   2.530   2.942 -0.9052  0.4068 -0.0831
  600SOL     OW 1798   3.035   2.207   0.247 -0.4565 -1.1348 -0.6223
  600SOL    HW1 1799   3.007   2.119   0.209  1.6512  1.0322  0.9743
  600SOL    HW2 1800   3.054   2.200   0.347  1.1500 -0.0605  1.9681
  601SOL     OW 1801   0.515   0.867   1.282  0.0826  0.3668  0.4059
  601SOL    HW1 1802   0.589   0.852   1.351 -2.0478 -0.9946 -0.0541
  601SOL    HW2 1803   0.423   0.819   1.308 -0.2059 -0.1445 -1.3314
  602SOL     OW 1804   0.785   0.177   1.313 -0.4921  0.1358  0.0037
  602SOL    HW1 1805   0.719   0.166   1.391 -0.3555 -1.3969  2.1726
  602SOL    HW2 1806   0.748   0.239   1.246  0.9909 -1.8814 -0.5918
  603SOL     OW 1807   0.206   2.952   2.746  0.3372  0.3248 -0.5228
  603SOL    HW1 1808   0.245   2.857   2.747  0.8253 -0.9025  1.2150
  603SOL    HW2 1809   0.138   2.957   2.824 -0.7204  1.3920 -0.1416
  604SOL     OW 1810   1.487   0.131   1.904 -0.2224  0.5463 -0.5458
  604SOL    HW1 1811   1.433   0.107   1.819  0.1740 -1.2469 -3.1797
  604SOL    HW2 1812   1.567   0.069   1.914 -0.2560 -1.8507  0.3134
  605SOL     OW 1813   1.442   1.542   1.708 -0.4961 -0.2208  0.4156
  605SOL    HW1 1814   1.536   1.587   1.704  2.5604  1.4079  0.1386
  605SOL    HW2 1815   1.419   1.522   1.804  0.4424 -0.4989 -0.4757
  606SOL     OW 1816   2.005   2.900   3.080  0.2416 -0.1474 -0.2851
  606SOL    HW1 1817   2.064   2.972   0.033  0.2363  0.6948  4.5011
  606SOL    HW2 1818   2.003   2.909   2.977  1.4310  3.2008 -1.4197
  607SOL     OW 1819   0.532   0.160   2.323 -0.4186 -0.0084  0.2150
  607SOL    HW1 1820   0.464   0.101   2.376 -0.3527  1.3908  1.6880
  607SOL    HW2 1821   0.615   0.177   2.380 -1.3117 -0.2280  0.5763
  608SOL     OW 1822   2.927   2.380   2.182 -0.3486  0.9142 -0.7025
  608SOL    HW1 1823   2.983   2.405   2.266  0.7803  1.4509 -0.2865
  608SOL    HW2 1824   2.961   2.303   2.130  0.5794 -0.1872  1.7327
  609SOL     OW 1825   0.780   1.272   2.893 -0.3481 -0.1072  0.0385
  609SOL    HW1 1826   0.819   1.358   2.847 -2.0990  2.0867  0.0607
  609SOL    HW2 1827   0.852   1.203   2.904  0.0360  1.5454  2.2024
  610SOL     OW 1828   0.440   2.707   0.928 -0.6388  0.3133 -0.1683
  610SOL    HW1 1829   0.487   2.761   0.852 -0.2636 -0.6586 -3.3068
  610SOL    HW2 1830   0.507   2.657   0.991 -1.0524  0.6838 -0.3921
  611SOL     OW 1831   1.081   1.353   0.575  0.2904  0.1101  0.3112
  611SOL    HW1 1832   1.055   1.293   0.656  0.3313 -0.1036  0.6423
  611SOL    HW2 1833   1.027   1.327   0.491 -1.7352 -3.6015 -0.5324
  612SOL     OW 1834   2.217   1.983   0.604  0.3723  0.3670  0.4073
  612SOL    HW1 1835   2.130   1.948   0.571  0.9903 -0.8444  0.1663
  612SOL    HW2 1836   2.248   1.922   0.680  0.5870 -0.8932  3.2091
  613SOL     OW 1837   1.765   1.611   0.473 -0.3350  0.4435 -0.6753
  613SOL    HW1 1838   1.689   1.653   0.414 -1.2658 -0.8612 -2.0497
  613SOL    HW2 1839   1.757   1.509   0.484 -0.2057  0.8639 -1.2026
  614SOL     OW 1840   2.785   0.403   2.535  0.5160  0.1101  0.3081
  614SOL    HW1 1841   2.883   0.398   2.550  0.1723  0.4914 -0.5949
  614SOL    HW2 1842   2.749   0.318   2.492 -1.4783 -0.6207 -1.1942
  615SOL     OW 1843   0.533   1.218   0.504 -0.0507  0.1971  0.3075
  615SOL    HW1 1844   0.579   1.179   0.424  1.3545  0.2313  0.7005
  615SOL    HW2 1845   0.607   1.248   0.567 -1.0172 -1.4089 -1.8603
  616SOL     OW 1846   1.542   1.038   2.764 -0.5195 -0.0429  0.1633
  616SOL    HW1 1847   1.456   0.983   2.742  1.2133  0.8132 -2.4821
  616SOL    HW2 1848   1.592   1.061   2.676  0.4393  1.4762 -1.3220
  617SOL     OW 1849   1.330   0.800   0.248  0.2574 -0.2852 -0.6505
  617SOL    HW1 1850   1.237   0.785   0.281  0.4010 -0.0438  1.3937
  617SOL    HW2 1851   1.389   0.717   0.265 -3.0347  1.7690 -0.7951
  618SOL     OW 1852   3.059   1.848   2.040 -0.7556  0.3437  0.5464
  618SOL    HW1 1853   0.067   1.828   2.001  1.9552 -0.2350  1.4385
  618SOL    HW2 1854   3.034   1.776   2.108 -0.7562  1.9378  1.0719
  619SOL     OW 1855   2.546   1.998   0.691  0.1049  0.0052  0.3103
  619SOL    HW1 1856   2.640   1.993   0.730  0.1923  0.4649  0.1122
  619SOL    HW2 1857   2.497   2.082   0.710 -0.2879 -0.3945 -0.6022
  620SOL     OW 1858   2.729   3.078   1.034 -0.2098  0.7556 -0.0634
  620SOL    HW1 1859   2.747   0.074   0.977  0.0773  2.1293  3.4218
  620SOL    HW2 1860   2.659   0.011   1.110 -4.5879  0.7979 -0.1899
  621SOL     OW 1861   0.289   1.780   0.635  0.5018  0.4332 -0.0898
  621SOL    HW1 1862   0.256   1.685   0.649  1.2006  0.7355  2.9510
  621SOL    HW2 1863   0.377   1.776   0.586 -2.1502 -1.2302  0.0098
  622SOL     OW 1864   0.625   1.861   1.783 -0.5373  0.1567  0.4110
  622SOL    HW1 1865   0.593   1.887   1.690 -0.8207  0.0950  1.5436
  622SOL    HW2 1866   0.637   1.950   1.836  2.2280  4.3471  1.7448
  623SOL     OW 1867   2.429   2.768   2.193  0.0823 -0.1038 -0.1510
  623SOL    HW1 1868   2.450   2.769   2.094 -0.2723 -0.2853  0.8255
  623SOL    HW2 1869   2.397   2.858   2.221  0.4685 -1.8235 -1.6098
  624SOL     OW 1870   0.657   1.845   0.228  0.4831 -0.6720 -0.6637
  624SOL    HW1 1871   0.587   1.849   0.156 -1.0016  1.6170 -1.2236
  624SOL    HW2 1872   0.705   1.759   0.234 -1.8674 -0.7091 -2.7873
  625SOL     OW 1873   0.666   1.825   2.199  0.0647 -0.2809  0.8723
  625SOL    HW1 1874   0.740   1.820   2.129  1.0557  0.8224  0.5554
  625SOL    HW2 1875   0.679   1.743   2.261  1.3624 -1.1366  0.2760
  626SOL     OW 1876   3.085   2.676   2.948 -0.6768 -0.2617  0.2073
  626SOL    HW1 1877   0.080   2.613   2.944 -0.3702 -0.2021 -2.0833
  626SOL    HW2 1878   0.017   2.775   2.927  0.1796  2.3206 -2.6620
  627SOL     OW 1879   1.567   1.629   2.398  0.1500 -0.1896 -0.2740
  627SOL    HW1 1880   1.661   1.655   2.422 -1.2122 -1.1878 -0.3706
  627SOL    HW2 1881   1.560   1.528   2.400  0.2227  0.7327 -1.8651
  628SOL     OW 1882   1.268   2.075   0.269 -0.2770  0.4182 -0.6462
  628SOL    HW1 1883   1.175   2.096   0.303  0.2823  0.8933  2.1755
  628SOL    HW2 1884   1.324   2.155   0.297  1.4808  2.1171  1.1112
  629SOL     OW 1885   0.934   0.970   2.265 -0.2793 -0.6996  0.3235
  629SOL    HW1 1886   0.927   1.033   2.352  1.5602  2.0058  3.9136
  629SOL    HW2 1887   0.973   1.024   2.185  0.4784  0.0307  1.7024
  630SOL     OW 1888   2.986   2.651   1.801 -0.1578 -0.0804 -0.1396
  630SOL    HW1 1889   2.900   2.624   1.750 -2.3480  2.0939  0.1717
  630SOL    HW2 1890   3.050   2.574   1.803 -1.4394  2.5757 -0.6984
  631SOL     OW 1891   1.345   0.902   1.000  0.3672  0.0281 -0.2055
  631SOL    HW1 1892   1.266   0.846   0.975  2.9480  0.7058  0.4940
  631SOL    HW2 1893   1.331   0.967   1.076  0.1305 -0.5071 -0.2914
  632SOL     OW 1894   2.191   0.471   2.191 -0.1269  0.8288 -0.3900
  632SOL    HW1 1895   2.199   0.402   2.264 -1.6353 -1.7339  1.0017
  632SOL    HW2 1896   2.093   0.477   2.160 -0.4929  3.1234 -1.5294
  633SOL     OW 1897   1.771   1.264   0.279  1.1120 -0.1889  0.1470
  633SOL    HW1 1898   1.739   1.299   0.374  1.2137 -2.1521 -2.2193
  633SOL    HW2 1899   1.705   1.296   0.209  2.6504 -1.3312  0.4359
  634SOL     OW 1900   0.252   1.916   0.169 -0.0105  0.2311  0.4236
  634SOL    HW1 1901   0.333   1.862   0.149 -0.1402 -1.1072  0.1316
  634SOL    HW2 1902   0.185   1.910   0.092  0.2714  0.2547 -2.2051
  635SOL     OW 1903   2.747   1.721   2.299 -0.1763  0.0788  0.2412
  635SOL    HW1 1904   2.688   1.717   2.381  0.0567  0.6379 -0.2728
  635SOL    HW2 1905   2.692   1.699   2.217 -0.1829  1.1147  0.5468
  636SOL     OW 1906   0.273   1.567   2.599 -0.0239 -0.6715 -0.0381
  636SOL    HW1 1907   0.186   1.566   2.647  3.5450  0.3777  2.8738
  636SOL    HW2 1908   0.294   1.658   2.557  0.7883 -0.2582  3.0114
  637SOL     OW 1909   0.359   1.994   0.423 -0.3749 -0.2885 -0.3365
  637SOL    HW1 1910   0.315   1.973   0.335  1.0734  1.4269  0.3843
  637SOL    HW2 1911   0.455   2.019   0.402  0.6588  1.1172 -1.1916
  638SOL     OW 1912   2.507   2.574   0.547 -0.3088 -0.1438  0.3697
  638SOL    HW1 1913   2.587   2.614   0.497  0.6029 -1.9153 -1.3655
  638SOL    HW2 1914   2.469   2.494   0.494 -1.6784 -0.1606 -0.5181
  639SOL     OW 1915   1.013   0.634   0.137  0.3605  0.9110 -0.6615
  639SOL    HW1 1916   0.929   0.685   0.114  2.2618 -2.2184 -3.5275
  639SOL    HW2 1917   1.061   0.618   0.049 -3.3411 -1.6966  0.5391
  640SOL     OW 1918   2.396   2.157   1.752 -0.5239  0.0905 -0.0873
  640SOL    HW1 1919   2.437   2.222   1.822 -1.4112  4.4229  2.1364
  640SOL    HW2 1920   2.463   2.121   1.685  0.3785 -0.1875 -0.0542
  641SOL     OW 1921   2.674   2.683   1.206 -0.4446  0.5293  0.5673
  641SOL    HW1 1922   2.598   2.717   1.261 -0.0143  3.0485 -0.3744
  641SOL    HW2 1923   2.748   2.749   1.217  1.6034  0.2118  0.1952
  642SOL     OW 1924   0.874   1.083   1.612  0.0583  0.4179  0.2262
  642SOL    HW1 1925   0.951   1.022   1.585 -1.0477  0.8663 -1.7809
  642SOL    HW2 1926   0.876   1.173   1.562 -0.6674  0.0985  1.1489
  643SOL     OW 1927   0.441   1.389   2.335 -0.6109  0.0533 -0.0909
  643SOL    HW1 1928   0.367   1.355   2.391  1.2961 -0.0756 -0.3185
  643SOL    HW2 1929   0.411   1.404   2.238  0.4691  0.4680 -1.2497
  644SOL     OW 1930   0.951   0.237   2.238 -0.2425  0.0433 -0.5129
  644SOL    HW1 1931   0.971   0.337   2.232 -1.6258 -0.7263 -0.3355
  644SOL    HW2 1932   0.889   0.210   2.160  1.0165  0.8099  0.1901
  645SOL     OW 1933   2.005   1.095   1.453  0.0741 -0.3451 -0.2513
  645SOL    HW1 1934   2.064   1.015   1.471  1.3047  0.3817 -2.3888
  645SOL    HW2 1935   2.014   1.115   1.352  3.1480 -1.9404 -0.1924
  646SOL     OW 1936   1.554   2.729   0.272 -0.0607 -0.3245 -0.0159
  646SOL    HW1 1937   1.628   2.688   0.220 -2.4914  1.3558  2.5910
  646SOL    HW2 1938   1.468   2.682   0.253  1.4173 -0.1626 -1.5565
  647SOL     OW 1939   1.628   2.751   0.805  0.1844 -0.2497  0.1979
  647SOL    HW1 1940   1.729   2.733   0.817 -1.4211 -0.3393  1.2707
  647SOL    HW2 1941   1.595   2.708   0.717 -0.0004 -0.2056  0.3867
  648SOL     OW 1942   0.256   2.556   1.228  0.4992  0.5598 -0.0436
  648SOL    HW1 1943   0.208   2.479   1.184  0.5644  2.1238  2.0021
  648SOL    HW2 1944   0.328   2.597   1.169 -0.1758 -0.9856 -1.2769
  649SOL     OW 1945   1.070   2.177   3.016 -0.2806 -0.0210  0.0113
  649SOL    HW1 1946   1.106   2.093   2.975  0.5603  0.9886  2.1939
  649SOL    HW2 1947   1.030   2.147   0.018  1.3207 -2.0742  2.8123
  650SOL     OW 1948   2.463   1.287   0.128  0.3006 -0.1355 -0.0816
  650SOL    HW1 1949   2.487   1.239   0.042 -1.4234 -0.2537 -3.0074
  650SOL    HW2 1950   2.478   1.233   0.214  2.5702 -1.1039 -0.4737
  651SOL     OW 1951   2.511   2.122   2.276 -0.2276  0.4109  0.0272
  651SOL    HW1 1952   2.550   2.209   2.237  3.0683 -0.1901 -1.2510
  651SOL    HW2 1953   2.471   2.127   2.370  0.8241 -2.1725 -0.3749
  652SOL     OW 1954   2.691   2.330   0.587 -0.2009  0.2711  0.4393
  652SOL    HW1 1955   2.697   2.428   0.557  0.3197 -2.3453 -1.0842
  652SOL    HW2 1956   2.771   2.315   0.654  1.4837  0.4666  3.8276
  653SOL     OW 1957   2.547   1.757   1.273  0.5510 -0.2066 -0.6529
  653SOL    HW1 1958   2.475   1.793   1.334 -0.9334 -2.7082 -1.9969
  653SOL    HW2 1959   2.584   1.670   1.315  1.2591 -0.1590  1.4816
  654SOL     OW 1960   1.112   1.200   0.142 -0.2168  0.0810  0.2672
  654SOL    HW1 1961   1.041   1.130   0.163 -1.1013 -1.3360 -1.7989
  654SOL    HW2 1962   1.090   1.237   0.051 -0.9473 -0.8547 -0.8833
  655SOL     OW 1963   1.341   1.404   0.742 -0.0483  0.0217 -0.0515
  655SOL    HW1 1964   1.277   1.325   0.725 -2.1435  0.1816 -0.1494
  655SOL    HW2 1965   1.381   1.441   0.653  1.2238  1.0207 -0.6184
  656SOL     OW 1966   1.691   2.519   2.689  0.0841 -0.1812  0.2086
  656SOL    HW1 1967   1.601   2.558   2.709  1.7873 -1.5398  0.0597
  656SOL    HW2 1968   1.757   2.595   2.661  0.0901 -0.2472  0.6614
  657SOL     OW 1969   2.151   1.539   0.549 -0.4622 -0.2952  0.2444
  657SOL    HW1 1970   2.117   1.458   0.601 -2.0071  1.2486  2.1079
  657SOL    HW2 1971   2.248   1.541   0.533 -2.4500  1.9415  0.5020
  658SOL     OW 1972   2.315   2.932   1.675  0.3172  0.1279 -0.0508
  658SOL    HW1 1973   2.269   2.975   1.758  0.1961  0.6246 -0.1711
  658SOL    HW2 1974   2.245   2.903   1.609  3.5244  1.7465  2.5907
  659SOL     OW 1975   2.781   1.570   0.299  0.0791 -0.0871 -0.3325
  659SOL    HW1 1976   2.851   1.617   0.360  1.1913 -0.1152 -0.5948
  659SOL    HW2 1977   2.712   1.641   0.278 -0.3920 -0.3765 -0.4257
  660SOL     OW 1978   1.364   0.786   0.676  0.6647  0.0046 -0.4156
  660SOL    HW1 1979   1.348   0.879   0.639  2.7750  0.5578 -0.0273
  660SOL    HW2 1980   1.275   0.748   0.711  0.0864 -0.6569  2.2160
  661SOL     OW 1981   1.828   0.509   0.154  0.2425 -0.4831  0.0531
  661SOL    HW1 1982   1.920   0.475   0.130  0.9410 -0.0375 -2.0679
  661SOL    HW2 1983   1.811   0.611   0.149  1.0095 -1.0384 -0.6814
  662SOL     OW 1984   0.442   0.200   0.285  0.0928  0.3220 -0.6781
  662SOL    HW1 1985   0.398   0.183   0.197  0.7265  1.9973  1.1581
  662SOL    HW2 1986   0.538   0.242   0.267  0.7411  1.4703 -0.7011
  663SOL     OW 1987   1.077   2.407   2.857  0.1373  0.1444 -0.1270
  663SOL    HW1 1988   1.057   2.323   2.914 -1.2487 -1.6188  2.9744
  663SOL    HW2 1989   1.169   2.442   2.876  0.1448 -3.1610 -0.2458
  664SOL     OW 1990   0.670   2.828   1.237 -0.2210  0.1017  0.1758
  664SOL    HW1 1991   0.608   2.804   1.316 -1.9260 -1.8564 -0.4852
  664SOL    HW2 1992   0.756   2.860   1.272  0.3382 -0.2989 -0.3592
  665SOL     OW 1993   1.611   3.001   0.717  0.0932  0.1061 -0.3122
  665SOL    HW1 1994   1.596   2.906   0.749  0.2743 -2.0467  0.1753
  665SOL    HW2 1995   1.598   3.062   0.798  1.9281 -0.1427  2.6269
  666SOL     OW 1996   0.800   2.410   2.619 -0.5211 -0.3839 -0.0378
  666SOL    HW1 1997   0.747   2.327   2.640 -1.7469  0.2367 -4.0287
  666SOL    HW2 1998   0.806   2.470   2.699 -1.9294 -0.1026 -2.0781
  667SOL     OW 1999   2.825   0.346   1.510  0.4550  0.0592  0.3954
  667SOL    HW1 2000   2.753   0.305   1.566 -1.1536 -3.4032  1.4637
  667SOL    HW2 2001   2.843   0.296   1.421 -2.5121 -1.2727 -0.1791
  668SOL     OW 2002   0.374   0.334   1.725 -0.2770 -0.5584 -0.5854
  668SOL    HW1 2003   0.405   0.427   1.755 -2.7698 -3.0321 -2.1485
  668SOL    HW2 2004   0.383   0.264   1.803 -1.3326 -1.5547  1.4836
  669SOL     OW 2005   1.365   2.978   1.164 -0.1417  0.1937  0.3528
  669SOL    HW1 2006   1.266   2.941   1.169 -2.7889 -0.4440  0.5721
  669SOL    HW2 2007   1.423   2.919   1.103  1.0032 -0.4335  0.4268
  670SOL     OW 2008   1.738   2.503   2.981 -0.0070  0.2134  0.8095
  670SOL    HW1 2009   1.715   2.486   2.887 -0.5676  1.7035  0.7186
  670SOL    HW2 2010   1.833   2.473   2.997 -1.4937  1.1759 -2.0222
  671SOL     OW 2011   0.325   1.208   2.841 -0.1708 -0.9119 -0.1622
  671SOL    HW1 2012   0.250   1.237   2.775 -0.4034 -0.3888 -0.4312
  671SOL    HW2 2013   0.403   1.158   2.807 -0.9269 -1.3923  2.3388
  672SOL     OW 2014   2.149   0.545   2.595  0.3889 -0.0453 -0.3720
  672SOL    HW1 2015   2.213   0.559   2.679  1.7734 -0.5331  1.7604
  672SOL    HW2 2016   2.149   0.627   2.536 -5.2312  2.0509  0.8903
  673SOL     OW 2017   0.120   1.953   0.985  0.0814  0.7800  0.2353
  673SOL    HW1 2018   0.024   1.966   1.021 -0.6138 -1.1560 -0.3661
  673SOL    HW2 2019   0.160   1.865   1.010 -2.0746  1.8824  0.9400
  674SOL     OW 2020   1.730   2.139   1.826  0.1840  0.0668  0.1833
  674SOL    HW1 2021   1.697   2.135   1.923  1.2271  0.0801  1.9003
  674SOL    HW2 2022   1.750   2.237   1.795  0.9912  1.1450 -0.3296
  675SOL     OW 2023   1.097   1.457   1.136  0.1526 -0.4273  0.1134
  675SOL    HW1 2024   1.050   1.518   1.067 -0.2102 -0.5591  2.8248
  675SOL    HW2 2025   1.126   1.371   1.092  1.5521  1.1449 -1.5175
  676SOL     OW 2026   2.222   0.721   0.975 -0.2498  0.0930 -0.3463
  676SOL    HW1 2027   2.166   0.710   0.891  0.3526 -0.0382  2.6419
  676SOL    HW2 2028   2.319   0.708   0.966 -3.8821 -0.9894  1.1687
  677SOL     OW 2029   2.434   0.127   0.286 -0.2036 -0.3443 -0.2923
  677SOL    HW1 2030   2.497   0.164   0.359  1.1252  1.1216 -1.2131
  677SOL    HW2 2031   2.433   0.198   0.217 -1.0355 -2.5731  4.5010
  678SOL     OW 2032   2.407   1.108   0.957  0.2210  0.1985  0.1827
  678SOL    HW1 2033   2.460   1.196   0.953 -2.0703  0.8666  2.2405
  678SOL    HW2 2034   2.458   1.026   1.001  2.6054 -1.8980  1.5751
  679SOL     OW 2035   2.492   0.365   0.155 -0.0536  0.0247 -0.5515
  679SOL    HW1 2036   2.438   0.433   0.210  0.4622  0.6371  2.5171
  679SOL    HW2 2037   2.578   0.411   0.127 -2.9251 -1.1160  2.0962
  680SOL     OW 2038   0.599   1.628   2.377  0.4303  0.2691  0.3580
  680SOL    HW1 2039   0.570   1.528   2.362  0.0921  0.9515  1.8723
  680SOL    HW2 2040   0.536   1.679   2.437  0.1436  2.3026 -0.0687
  681SOL     OW 2041   2.588   2.031   1.537 -0.1038 -0.0300 -0.2441
  681SOL    HW1 2042   2.646   1.996   1.609 -0.1631 -0.8240 -0.6845
  681SOL    HW2 2043   2.516   1.968   1.506  0.3521  0.9909 -0.9320
  682SOL     OW 2044   0.441   1.797   2.542 -0.2076  0.3283 -0.5751
  682SOL    HW1 2045   0.395   1.872   2.487  0.2798  1.1526 -1.2415
  682SOL    HW2 2046   0.490   1.844   2.619 -0.9076 -3.3010  0.9740
  683SOL     OW 2047   2.755   1.923   1.221 -0.5890 -0.0612 -0.1917
  683SOL    HW1 2048   2.689   1.849   1.228 -1.2774  2.3554  1.9861
  683SOL    HW2 2049   2.710   2.008   1.239  5.8420 -0.3195  0.1265
  684SOL     OW 2050   2.946   1.747   1.812  0.9992  0.1566 -0.1752
  684SOL    HW1 2051   2.970   1.790   1.904  0.8067  1.1043  1.4402
  684SOL    HW2 2052   3.019   1.683   1.784  0.2433 -0.5991 -1.2526
  685SOL     OW 2053   0.797   0.901   0.913 -0.1287 -0.2247  0.0082
  685SOL    HW1 2054   0.711   0.855   0.951 -1.3036 -3.6325 -0.8728
  685SOL    HW2 2055   0.833   0.865   0.824  0.2394 -0.3687 -0.5610
  686SOL     OW 2056   0.403   3.069   2.562  0.1721 -0.3890  0.0974
  686SOL    HW1 2057   0.410   0.075   2.603  1.3154 -0.7756  2.0791
  686SOL    HW2 2058   0.317   3.025   2.590 -0.3849  2.8549  0.9543
  687SOL     OW 2059   0.660   2.071   1.952 -0.6575 -0.1809 -0.5752
  687SOL    HW1 2060   0.667   2.162   1.899  2.7608  0.1158 -3.1931
  687SOL    HW2 2061   0.754   2.034   1.978  0.3594  0.0233 -0.1709
  688SOL     OW 2062   2.302   0.324   1.750  0.4219 -0.0149 -0.0198
  688SOL    HW1 2063   2.279   0.256   1.682  0.0508  0.5094  2.6031
  688SOL    HW2 2064   2.337   0.410   1.716 -2.1757 -2.2635  1.9353
  689SOL     OW 2065   2.002   0.976   0.727 -0.2445 -0.4812 -0.3382
  689SOL    HW1 2066   1.966   0.952   0.632 -0.2965 -0.4670  0.1474
  689SOL    HW2 2067   2.108   0.970   0.716  1.9877  1.1177 -2.2260
  690SOL     OW 2068   2.683   0.752   1.162 -0.6218  0.1434  0.0465
  690SOL    HW1 2069   2.768   0.765   1.105 -0.9004  0.8664 -1.2220
  690SOL    HW2 2070   2.689   0.666   1.209  0.3134  2.4525 -0.5079
  691SOL     OW 2071   0.193   1.021   1.870 -0.2247  0.1124  0.1399
  691SOL    HW1 2072   0.147   1.075   1.800 -1.3994 -0.2769  1.5831
  691SOL    HW2 2073   0.119   0.968   1.922  1.0167 -2.3434 -1.0768
  692SOL     OW 2074   0.663   1.366   1.932  0.0173 -0.4513  0.2012
  692SOL    HW1 2075   0.756   1.375   1.887  2.6707 -1.2925  0.0654
  692SOL    HW2 2076   0.664   1.284   1.986 -0.7742  2.4225 -1.6078
  693SOL     OW 2077   0.555   0.921   1.711 -0.2743  0.8695 -0.4495
  693SOL    HW1 2078   0.607   0.900   1.790 -1.3006 -0.2962 -3.6533
  693SOL    HW2 2079   0.465   0.871   1.705  0.3041 -3.7835  1.2994
  694SOL     OW 2080   1.422   2.004   1.063  0.1879 -0.4051  0.0449
  694SOL    HW1 2081   1.483   1.950   1.006 -1.1073 -3.9040 -0.2053
  694SOL    HW2 2082   1.331   1.955   1.080 -2.2551 -0.3981 -0.2475
  695SOL     OW 2083   2.888   0.770   1.024 -0.3004  0.2209  0.1334
  695SOL    HW1 2084   2.925   0.836   0.956 -0.8639  2.2699 -2.4992
  695SOL    HW2 2085   2.938   0.683   1.014 -1.4710  5.0231  2.0551
  696SOL     OW 2086   0.727   2.159   0.559 -0.3075 -0.3730 -0.3162
  696SOL    HW1 2087   0.690   2.217   0.480 -0.7679  1.9241  1.0742
  696SOL    HW2 2088   0.731   2.219   0.644 -0.6456  2.1420  1.8838
  697SOL     OW 2089   1.579   1.023   1.766  0.5636  0.0676  0.1172
  697SOL    HW1 2090   1.646   1.050   1.695  1.0022 -0.4996  0.2256
  697SOL    HW2 2091   1.596   1.064   1.856  0.7875  1.4693  1.3489
  698SOL     OW 2092   1.691   1.536   1.421 -0.3721 -0.1348  0.3517
  698SOL    HW1 2093   1.649   1.620   1.450  0.6776  0.9333 -0.7349
  698SOL    HW2 2094   1.756   1.551   1.347  0.7474  0.7648 -2.9776
  699SOL     OW 2095   0.177   0.658   2.551 -0.4033  1.0394 -0.2627
  699SOL    HW1 2096   0.088   0.678   2.597 -1.8813 -0.4210 -0.0476
  699SOL    HW2 2097   0.241   0.736   2.534  1.4088 -0.7965  0.2383
  700SOL     OW 2098   1.542   2.216   0.626 -0.2427 -0.1440 -0.1945
  700SOL    HW1 2099   1.609   2.222   0.707 -1.0964  1.0755  4.5172
  700SOL    HW2 2100   1.465   2.282   0.631  0.8662  1.5818  0.4628
  701SOL     OW 2101   2.954   1.382   2.150 -0.3129  0.1243 -0.2547
  701SOL    HW1 2102   2.930   1.414   2.245 -1.7570  0.3109 -0.2809
  701SOL    HW2 2103   3.055   1.376   2.131 -0.9342 -0.6439  0.7829
  702SOL     OW 2104   0.631   0.180   2.891  0.0721 -0.3256 -0.5599
  702SOL    HW1 2105   0.687   0.220   2.968  0.6851  2.9773  2.2503
  702SOL    HW2 2106   0.610   0.246   2.819  0.4022 -0.1848  1.4191
  703SOL     OW 2107   1.685   0.514   2.855  0.1227  0.5190  0.3767
  703SOL    HW1 2108   1.774   0.463   2.853  0.8368  1.5290 -3.6169
  703SOL    HW2 2109   1.610   0.459   2.817 -0.7406  0.5533 -0.3069
  704SOL     OW 2110   2.889   1.301   1.180  0.1081  0.3118 -0.5341
  704SOL    HW1 2111   2.796   1.302   1.137 -1.6711  0.8139  0.9397
  704SOL    HW2 2112   2.916   1.390   1.217 -3.4251 -0.0786  0.1927
  705SOL     OW 2113   2.490   1.827   1.777  0.3060  0.4207  0.4473
  705SOL    HW1 2114   2.457   1.876   1.859  0.4568  0.5079  0.7000
  705SOL    HW2 2115   2.418   1.790   1.718  0.3849  1.1744  1.5210
  706SOL     OW 2116   0.077   2.427   0.849  0.0645 -0.6159  1.0480
  706SOL    HW1 2117   0.105   2.526   0.855  1.9020  0.6662  2.8580
  706SOL    HW2 2118   0.001   2.400   0.783 -0.2584 -0.1539  1.3487
  707SOL     OW 2119   0.936   2.799   0.150 -0.5150 -0.0165  0.2837
  707SOL    HW1 2120   0.894   2.884   0.168  1.0527  1.1381 -3.9181
  707SOL    HW2 2121   1.025   2.796   0.199  1.5285 -1.7380 -0.6837
  708SOL     OW 2122   0.884   2.238   1.536 -0.2587  0.4289 -0.5195
  708SOL    HW1 2123   0.916   2.298   1.459 -1.0135  0.8481 -0.1810
  708SOL    HW2 2124   0.857   2.145   1.516 -2.6822 -0.9941 -1.6974
  709SOL     OW 2125   2.219   0.053   2.531 -0.6833  0.1185 -0.1207
  709SOL    HW1 2126   2.119   0.035   2.548 -0.3498  2.0779  0.9515
  709SOL    HW2 2127   2.274   0.035   2.616  2.0146  0.0534 -0.6005
  710SOL     OW 2128   1.344   2.517   2.835 -0.0914 -1.2516  0.1288
  710SOL    HW1 2129   1.333   2.454   2.759  0.7644  2.1771  4.2219
  710SOL    HW2 2130   1.394   2.607   2.807  1.8309  3.2680 -2.9169
  711SOL     OW 2131   1.064   2.296   2.532  0.1758 -0.3538 -0.0652
  711SOL    HW1 2132   1.147   2.346   2.556 -2.3957 -2.1498  1.3185
  711SOL    HW2 2133   0.984   2.331   2.581  1.9255  0.0522  0.3798
  712SOL     OW 2134   1.185   1.973   2.878 -0.4242 -0.2090  0.4347
  712SOL    HW1 2135   1.218   1.989   2.781  1.1644  0.1841 -1.9046
  712SOL    HW2 2136   1.200   1.876   2.904 -0.1260 -0.0052  1.0797
  713SOL     OW 2137   0.836   1.030   1.886  0.2552  0.0571  0.1846
  713SOL    HW1 2138   0.840   1.082   1.794 -1.2670 -0.9950 -0.7186
  713SOL    HW2 2139   0.813   0.933   1.860  0.9341  1.3879 -0.1979
  714SOL     OW 2140   1.673   2.068   1.285  0.2241  0.4467  0.5351
  714SOL    HW1 2141   1.611   2.095   1.213 -1.7554  2.5777 -1.4179
  714SOL    HW2 2142   1.627   2.079   1.379  0.1115 -0.1973  5.6485
  715SOL     OW 2143   0.120   0.344   0.625  0.5583 -0.1307 -0.0378
  715SOL    HW1 2144   0.119   0.257   0.675  0.1338  3.7177 -1.7464
  715SOL    HW2 2145   0.181   0.333   0.550 -5.9117 -0.7079  0.0595
  716SOL     OW 2146   0.781   2.571   0.199 -0.0296 -0.5853 -0.0301
  716SOL    HW1 2147   0.756   2.532   0.109  0.0765 -1.5695 -1.6969
  716SOL    HW2 2148   0.856   2.643   0.194  1.1244  0.6562 -1.3586
  717SOL     OW 2149   0.219   0.312   0.383  0.2915  0.2514  0.2942
  717SOL    HW1 2150   0.307   0.274   0.357  1.3593  1.5829 -1.1770
  717SOL    HW2 2151   0.144   0.267   0.334  1.4040  0.3024  3.4314
  718SOL     OW 2152   1.691   2.544   1.122  0.3224  0.0368  0.1582
  718SOL    HW1 2153   1.606   2.513   1.170 -2.0023  3.5169 -1.7038
  718SOL    HW2 2154   1.734   2.624   1.167  2.8242 -2.0988 -2.2207
  719SOL     OW 2155   2.953   2.302   0.693 -0.0430 -0.7062 -0.2564
  719SOL    HW1 2156   3.002   2.235   0.634 -1.2766 -1.1855  1.8650
  719SOL    HW2 2157   2.926   2.256   0.777 -1.5998 -1.0215 -2.2519
  720SOL     OW 2158   1.067   1.211   0.820  0.5679 -0.2643 -0.1480
  720SOL    HW1 2159   0.996   1.279   0.841 -1.1984 -3.0085  1.2577
  720SOL    HW2 2160   1.137   1.212   0.898  0.2964  1.1285  2.1124
  721SOL     OW 2161   0.979   0.552   0.868  0.0008 -0.0838 -0.3646
  721SOL    HW1 2162   0.879   0.549   0.897  3.2062  1.0673  0.8217
  721SOL    HW2 2163   1.028   0.470   0.903 -1.6320  0.6691  1.7419
  722SOL     OW 2164   1.253   1.169   1.463  0.8171  0.1921  0.1576
  722SOL    HW1 2165   1.268   1.269   1.482 -0.0678  1.6292  1.7547
  722SOL    HW2 2166   1.276   1.117   1.547  0.6973  2.9032 -0.2534
  723SOL     OW 2167   0.718   0.349   1.762  0.1686 -0.2512 -0.4532
  723SOL    HW1 2168   0.788   0.406   1.716  0.4024 -0.9366  1.2893
  723SOL    HW2 2169   0.628   0.395   1.762  1.2498 -0.4499  2.1985
  724SOL     OW 2170   1.972   2.041   1.896 -0.1033 -0.3689 -0.3472
  724SOL    HW1 2171   2.007   1.993   1.814  1.3872 -1.1741 -1.4197
  724SOL    HW2 2172   1.891   2.093   1.874  3.1659  0.9026  0.3681
  725SOL     OW 2173   0.921   2.826   1.365  0.4594  0.2681  1.0508
  725SOL    HW1 2174   0.917   2.724   1.373 -0.2401 -1.2064 -3.4876
  725SOL    HW2 2175   0.914   2.872   1.455  0.6765 -1.9287  1.2981
  726SOL     OW 2176   1.493   0.587   0.299  0.1225 -0.5355  0.1959
  726SOL    HW1 2177   1.494   0.557   0.398  0.1235  0.6919  1.9709
  726SOL    HW2 2178   1.486   0.502   0.246  2.1499  1.9649 -0.8896
  727SOL     OW 2179   1.423   2.275   1.063 -0.0434 -0.5560  0.2077
  727SOL    HW1 2180   1.478   2.316   0.984  0.3878 -0.8513 -1.3331
  727SOL    HW2 2181   1.458   2.185   1.079  1.0598  0.9439 -1.3354
  728SOL     OW 2182   1.591   0.127   2.342 -0.1951  0.0796  0.3626
  728SOL    HW1 2183   1.648   0.116   2.258  0.9093  0.6233 -0.2063
  728SOL    HW2 2184   1.523   0.048   2.349  0.5763 -1.3544  0.0028
  729SOL     OW 2185   2.282   1.430   0.810 -0.4601  0.3026 -0.0260
  729SOL    HW1 2186   2.199   1.419   0.753 -0.2440  1.5485  0.7759
  729SOL    HW2 2187   2.353   1.494   0.770 -0.9625  1.5784 -0.4024
  730SOL     OW 2188   1.941   1.103   2.732  0.0609 -0.7307  0.5764
  730SOL    HW1 2189   1.886   1.124   2.648 -2.3917  0.6653  1.0748
  730SOL    HW2 2190   1.878   1.078   2.809  2.0818  0.7057 -1.7833
  731SOL     OW 2191   0.318   0.048   1.445  0.5279 -0.6342 -0.1167
  731SOL    HW1 2192   0.221   0.083   1.433 -0.6074  1.2204 -0.5684
  731SOL    HW2 2193   0.342   3.072   1.369  3.1471 -0.4977  0.8539
  732SOL     OW 2194   1.791   0.569   1.443 -0.0710 -0.3510  0.1282
  732SOL    HW1 2195   1.751   0.486   1.489  0.4290 -0.4895  0.9973
  732SOL    HW2 2196   1.740   0.600   1.361 -2.6620  1.2201 -0.4885
  733SOL     OW 2197   0.879   1.350   1.807 -0.3729  0.4429 -0.0690
  733SOL    HW1 2198   0.845   1.331   1.711  0.0027 -1.4517 -1.4241
  733SOL    HW2 2199   0.977   1.359   1.810 -1.9285  2.6999 -0.0308
  734SOL     OW 2200   2.636   1.785   0.235 -0.2704  0.3349  0.1160
  734SOL    HW1 2201   2.563   1.713   0.216 -0.8694 -2.6360  1.0555
  734SOL    HW2 2202   2.642   1.856   0.159 -0.3384 -1.3002 -0.4070
  735SOL     OW 2203   0.537   0.719   0.238 -0.2492 -0.0014 -0.2311
  735SOL    HW1 2204   0.444   0.684   0.264  0.8439 -0.9109  0.5096
  735SOL    HW2 2205   0.591   0.742   0.318  2.0617  0.9186 -2.7575
  736SOL     OW 2206   1.763   2.569   0.165 -0.2692 -0.3984 -0.2999
  736SOL    HW1 2207   1.854   2.619   0.153  2.0810  0.6921 -1.5610
  736SOL    HW2 2208   1.738   2.531   0.079  1.2190 -0.2849  3.0314
  737SOL     OW 2209   1.184   2.206   1.198 -0.0478 -0.0078  0.0010
  737SOL    HW1 2210   1.216   2.120   1.243  0.2001 -1.0908  2.6004
  737SOL    HW2 2211   1.262   2.248   1.149  0.3343  0.1377 -2.5165
  738SOL     OW 2212   1.951   0.010   2.597 -0.4083  0.2014 -0.2009
  738SOL    HW1 2213   1.882   0.083   2.581  1.0922 -1.0467 -2.3282
  738SOL    HW2 2214   1.945   3.026   2.524 -0.6641  1.1580  0.9586
  739SOL     OW 2215   1.771   2.274   2.578  0.4152  0.2472 -0.0175
  739SOL    HW1 2216   1.863   2.228   2.577  0.0558  0.7867  2.4541
  739SOL    HW2 2217   1.773   2.364   2.631 -0.0013  4.5471  0.9791
  740SOL     OW 2218   1.920   2.362   2.144  0.0804  0.1765  0.1840
  740SOL    HW1 2219   1.835   2.349   2.200  0.1183  2.3411 -1.0115
  740SOL    HW2 2220   2.000   2.332   2.200 -1.9037  3.1229 -0.1780
  741SOL     OW 2221   2.435   2.116   2.552 -0.2553 -0.1868 -0.3963
  741SOL    HW1 2222   2.443   2.218   2.581  2.0486  3.7242  0.6444
  741SOL    HW2 2223   2.473   2.056   2.627  1.5825  1.8208 -0.1256
  742SOL     OW 2224   1.252   1.459   2.799 -0.3627  0.4962 -0.1460
  742SOL    HW1 2225   1.328   1.403   2.830 -1.6540  1.4336 -0.2520
  742SOL    HW2 2226   1.197   1.419   2.723  0.7035  0.6805 -0.4332
  743SOL     OW 2227   1.457   1.292   2.863 -0.4465 -0.0775 -0.3478
  743SOL    HW1 2228   1.503   1.202   2.862  0.5567 -1.3644 -1.0033
  743SOL    HW2 2229   1.506   1.358   2.926 -2.4430  1.9744  2.1168
  744SOL     OW 2230   2.356   2.982   1.209 -0.1052 -0.0619  0.2379
  744SOL    HW1 2231   2.381   2.899   1.253 -0.6565  3.0092 -1.0306
  744SOL    HW2 2232   2.277   2.962   1.150 -0.2357 -0.0673 -0.5737
  745SOL     OW 2233   2.701   0.875   0.762 -0.7478 -0.5519 -0.5576
  745SOL    HW1 2234   2.629   0.906   0.698  1.8005  1.6366  0.4159
  745SOL    HW2 2235   2.762   0.955   0.784  0.7282  0.9041  2.0298
  746SOL     OW 2236   2.609   1.749   0.994 -0.0383 -0.1508 -0.2105
  746SOL    HW1 2237   2.550   1.730   1.074  1.0924 -1.0214 -0.3075
  746SOL    HW2 2238   2.622   1.848   0.972 -1.0444  0.7967 -1.3284
  747SOL     OW 2239   1.536   0.084   0.036  0.6394 -0.5878 -0.3557
  747SOL    HW1 2240   1.625   0.041   0.007 -0.8557 -1.8276  3.6872
  747SOL    HW2 2241   1.454   0.030   3.086 -0.0439 -1.9749 -0.1174
  748SOL     OW 2242   0.650   1.293   0.034  0.2864 -0.2946 -0.0640
  748SOL    HW1 2243   0.565   1.350   0.014  0.6446 -0.1110 -2.7629
  748SOL    HW2 2244   0.709   1.282   3.037 -0.2849 -2.3192 -0.5171
  749SOL     OW 2245   2.634   0.807   2.304  0.2363 -0.0639 -0.2779
  749SOL    HW1 2246   2.633   0.722   2.363 -1.2947 -1.9856  1.3235
  749SOL    HW2 2247   2.668   0.887   2.355  0.2561 -3.1870 -2.0693
  750SOL     OW 2248   0.756   0.770   1.864  0.5346  0.0857  0.9474
  750SOL    HW1 2249   0.736   0.707   1.944  1.0167 -1.7058 -0.4788
  750SOL    HW2 2250   0.756   0.714   1.779  3.8350  2.0263 -0.8112
  751SOL     OW 2251   2.456   2.533   1.818 -0.2136 -0.4989 -0.7308
  751SOL    HW1 2252   2.352   2.529   1.819  0.1254  0.1524  0.9527
  751SOL    HW2 2253   2.488   2.620   1.866  2.0557  1.7818 -0.6460
  752SOL     OW 2254   1.959   1.510   0.951 -0.3268 -0.6813 -0.2797
  752SOL    HW1 2255   2.045   1.508   1.007  0.8425  0.7831 -1.6763
  752SOL    HW2 2256   1.941   1.598   0.900 -1.2518 -0.4045 -0.1521
  753SOL     OW 2257   1.077   1.111   2.013  0.0706  0.3457 -0.0936
  753SOL    HW1 2258   0.984   1.089   1.972 -1.5040 -3.5442  0.7012
  753SOL    HW2 2259   1.143   1.028   2.015  1.0109  1.0229  1.0039
  754SOL     OW 2260   0.741   2.384   0.383 -0.0559  0.5217 -0.3767
  754SOL    HW1 2261   0.759   2.454   0.306  2.1397  0.5046 -1.3311
  754SOL    HW2 2262   0.744   2.424   0.474  2.3992 -0.1953  2.1608
  755SOL     OW 2263   2.741   2.905   0.823 -0.2821 -0.4630  0.6180
  755SOL    HW1 2264   2.650   2.858   0.830  2.3446 -0.1304 -0.3040
  755SOL    HW2 2265   2.753   2.962   0.907  0.0788  0.9741 -0.4118
  756SOL     OW 2266   2.273   1.907   2.387 -0.0586  0.1274  1.1773
  756SOL    HW1 2267   2.282   2.002   2.429 -0.1294  0.8297 -0.4232
  756SOL    HW2 2268   2.293   1.928   2.288  0.8761 -0.1994  0.3128
  757SOL     OW 2269   0.021   2.899   1.755 -0.8461 -0.9386 -0.3064
  757SOL    HW1 2270   0.001   2.806   1.777  3.4589 -0.7322 -0.3397
  757SOL    HW2 2271   3.061   2.965   1.818  0.5199 -0.0268  0.9700
  758SOL     OW 2272   0.517   2.617   0.364 -0.6055  0.0584  1.1358
  758SOL    HW1 2273   0.595   2.602   0.428 -1.7293 -1.5158 -1.0508
  758SOL    HW2 2274   0.483   2.523   0.337 -0.2546 -2.7990 -0.1576
  759SOL     OW 2275   1.946   1.117   1.179  0.0714  0.1631  0.2907
  759SOL    HW1 2276   1.886   1.196   1.173 -1.8484  0.7539 -0.4994
  759SOL    HW2 2277   2.026   1.129   1.117  0.2047  1.5007 -0.6779
  760SOL     OW 2278   1.323   1.005   1.678 -0.0537  0.0227  0.4511
  760SOL    HW1 2279   1.314   0.929   1.616 -1.0882 -0.0034  0.3312
  760SOL    HW2 2280   1.421   1.012   1.711 -0.3329  3.3161  0.7805
  761SOL     OW 2281   2.088   0.348   1.205  0.4572  0.1490  0.9069
  761SOL    HW1 2282   2.143   0.412   1.265  0.6424 -0.6644  0.0554
  761SOL    HW2 2283   2.127   0.349   1.107 -0.2842  1.4591 -1.0993
  762SOL     OW 2284   1.633   0.251   0.505 -0.4898 -0.1871 -0.2031
  762SOL    HW1 2285   1.712   0.201   0.470  0.5739  2.0592  0.9433
  762SOL    HW2 2286   1.664   0.335   0.558 -0.1165 -0.9328 -0.9445
  763SOL     OW 2287   0.791   0.593   1.636  0.1008  0.2802  0.0479
  763SOL    HW1 2288   0.715   0.583   1.570  1.1104 -0.4994  2.6028
  763SOL    HW2 2289   0.877   0.628   1.596  0.7496 -0.3084  2.8716
  764SOL     OW 2290   2.148   2.230   2.238 -0.9755 -0.5504 -0.2389
  764SOL    HW1 2291   2.096   2.167   2.175  0.2543  0.3275  1.2709
  764SOL    HW2 2292   2.229   2.272   2.194 -2.2764  1.1015  1.2031
  765SOL     OW 2293   2.991   1.246   2.722  0.0895  0.3825  0.5436
  765SOL    HW1 2294   2.952   1.326   2.766 -1.6983 -1.4935  1.3243
  765SOL    HW2 2295   3.002   1.166   2.782  0.3659  2.1982  0.4000
  766SOL     OW 2296   2.945   0.546   2.851 -0.3595  0.1280 -0.3261
  766SOL    HW1 2297   2.982   0.493   2.932 -0.3850 -0.1886  0.7453
  766SOL    HW2 2298   2.854   0.504   2.835  0.9723  2.0209 -0.9614
  767SOL     OW 2299   0.474   2.378   1.656  0.5266  0.1465 -0.8179
  767SOL    HW1 2300   0.410   2.310   1.618 -2.3946  2.2826  1.9868
  767SOL    HW2 2301   0.422   2.463   1.680 -1.3857  2.4050  1.0965
  768SOL     OW 2302   0.937   0.960   0.109 -0.1214 -0.1009 -0.3218
  768SOL    HW1 2303   0.886   0.876   0.110 -0.9276  0.6893 -3.8129
  768SOL    HW2 2304   0.945   0.974   0.008 -0.4254  0.2719 -0.3690
  769SOL     OW 2305   1.279   2.342   0.408 -0.3390 -0.1595 -0.1685
  769SOL    HW1 2306   1.178   2.353   0.421  0.5657  0.2495  0.0084
  769SOL    HW2 2307   1.335   2.360   0.492 -0.2551  0.9816 -1.4113
  770SOL     OW 2308   1.041   0.036   1.847  0.1591 -0.1768 -0.0865
  770SOL    HW1 2309   0.943   0.035   1.826  0.0250 -1.3597 -2.2886
  770SOL    HW2 2310   1.074   3.066   1.926  0.3143  1.7230  0.3629
  771SOL     OW 2311   0.823   2.721   0.800 -0.6915  0.0150 -0.1164
  771SOL    HW1 2312   0.923   2.718   0.774 -1.2256  0.4220  1.8811
  771SOL    HW2 2313   0.800   2.792   0.869  0.4798  0.2104 -0.3634
  772SOL     OW 2314   2.330   0.552   0.273  0.2557  0.2014 -0.0524
  772SOL    HW1 2315   2.400   0.604   0.318 -0.6135 -0.2331 -1.4732
  772SOL    HW2 2316   2.261   0.620   0.242  1.8272 -1.9046 -0.0683
  773SOL     OW 2317   2.127   0.673   1.832  0.1576 -0.1749 -0.1458
  773SOL    HW1 2318   2.218   0.645   1.789  0.8926 -0.3379  0.4311
  773SOL    HW2 2319   2.065   0.720   1.764  2.4954 -0.8666 -1.5289
  774SOL     OW 2320   0.355   0.685   0.557  0.6820  0.0035 -0.1856
  774SOL    HW1 2321   0.320   0.740   0.480  0.3397 -0.5583 -1.4428
  774SOL    HW2 2322   0.444   0.718   0.590 -0.1531 -3.8125  0.1644
  775SOL     OW 2323   1.602   0.372   0.943 -0.0392 -0.0074  0.1631
  775SOL    HW1 2324   1.686   0.393   1.000 -0.0229 -0.8841 -0.3306
  775SOL    HW2 2325   1.610   0.391   0.841 -0.7206  0.8674 -0.4458
  776SOL     OW 2326   2.045   3.031   2.210 -0.3785 -0.2527 -0.1218
  776SOL    HW1 2327   2.144   3.013   2.226  1.7927  0.0479 -0.3983
  776SOL    HW2 2328   2.021   0.039   2.208 -0.7501 -3.0233 -0.2420
  777SOL     OW 2329   1.441   1.466   0.491  0.1666 -1.0146 -0.8488
  777SOL    HW1 2330   1.469   1.551   0.434  2.0260  2.5085 -2.6381
  777SOL    HW2 2331   1.406   1.394   0.429 -1.6655 -1.0620 -1.4930
  778SOL     OW 2332   0.411   2.604   0.032 -0.0419  0.8069  0.5163
  778SOL    HW1 2333   0.388   2.606   0.129 -0.3710 -0.6821 -1.8874
  778SOL    HW2 2334   0.434   2.690   3.077  1.7667 -1.7680 -0.9194
  779SOL     OW 2335   0.139   1.601   0.207 -0.3558 -0.2948 -0.1175
  779SOL    HW1 2336   0.134   1.506   0.245 -5.1721 -1.7472 -0.5695
  779SOL    HW2 2337   0.130   1.676   0.276  0.2344  0.5596  1.0763
  780SOL     OW 2338   1.314   0.206   2.105 -0.4230 -1.0071  0.4773
  780SOL    HW1 2339   1.261   0.121   2.123  1.7137 -1.5219 -1.1634
  780SOL    HW2 2340   1.408   0.186   2.067 -1.4763 -3.4859 -0.2387
  781SOL     OW 2341   1.726   1.831   1.075 -0.0469 -0.3629 -0.1420
  781SOL    HW1 2342   1.701   1.895   1.145 -0.2537  0.1840 -0.7838
  781SOL    HW2 2343   1.809   1.864   1.026  0.3120  1.0511 -1.8782
  782SOL     OW 2344   2.124   2.668   2.127  0.1182  0.2777 -0.1758
  782SOL    HW1 2345   2.046   2.692   2.184  0.6963  1.3948  0.7063
  782SOL    HW2 2346   2.213   2.667   2.171 -1.4384  0.2412 -0.1236
  783SOL     OW 2347   1.428   0.521   1.730 -0.0233 -0.1601 -0.4392
  783SOL    HW1 2348   1.330   0.507   1.750 -0.2266 -0.1862 -0.3827
  783SOL    HW2 2349   1.445   0.617   1.769 -2.8366  4.0731  3.5577
  784SOL     OW 2350   1.459   0.773   1.840 -0.2279 -0.5011 -0.3127
  784SOL    HW1 2351   1.520   0.845   1.800  1.5572  0.0626 -0.4336
  784SOL    HW2 2352   1.378   0.823   1.874  0.7989 -0.7021 -0.7949
  785SOL     OW 2353   1.787   0.708   0.554  0.6330  0.0755 -0.2721
  785SOL    HW1 2354   1.737   0.770   0.489 -3.7434 -0.9288 -0.3187
  785SOL    HW2 2355   1.726   0.702   0.638 -0.7010  1.3510 -0.5442
  786SOL     OW 2356   2.916   1.245   0.442  0.1016 -0.0318 -0.3746
  786SOL    HW1 2357   2.832   1.275   0.391 -0.7909 -2.1726  0.8282
  786SOL    HW2 2358   2.990   1.311   0.436 -0.2734 -1.2286  2.2910
  787SOL     OW 2359   1.474   1.752   0.069 -0.1587  0.2743  0.9514
  787SOL    HW1 2360   1.489   1.690   3.079 -1.3166 -2.8087 -0.2028
  787SOL    HW2 2361   1.439   1.843   0.048  0.7675 -4.7701  1.1185
  788SOL     OW 2362   2.145   1.110   0.998  0.0691 -0.0913  0.6986
  788SOL    HW1 2363   2.243   1.105   0.980 -0.8208 -0.9340 -1.3266
  788SOL    HW2 2364   2.094   1.111   0.911  2.7891  1.8843  2.2066
  789SOL     OW 2365   3.020   1.683   2.238  0.2918  0.0605 -0.1278
  789SOL    HW1 2366   3.056   1.607   2.294  2.3702  1.5556  2.3119
  789SOL    HW2 2367   2.922   1.700   2.264  0.7160  0.7041  1.2368
  790SOL     OW 2368   0.969   0.017   2.535  0.2140  0.2955  0.2143
  790SOL    HW1 2369   0.905   3.060   2.597 -0.4978 -1.0306  0.0032
  790SOL    HW2 2370   1.058   3.058   2.534  0.8572  1.7001 -0.1187
  791SOL     OW 2371   0.248   2.463   2.711  0.5849 -0.2109  0.1091
  791SOL    HW1 2372   0.271   2.481   2.808  0.9679  3.8712  1.3153
  791SOL    HW2 2373   0.180   2.387   2.709  3.0163 -0.8052  0.6307
  792SOL     OW 2374   1.186   0.420   2.029 -0.2819  0.2696  0.4429
  792SOL    HW1 2375   1.236   0.336   2.056 -0.3131  0.8456 -2.0864
  792SOL    HW2 2376   1.162   0.409   1.930  0.6708  0.2345  0.2226
  793SOL     OW 2377   2.636   0.216   2.385 -0.0500 -0.0618  0.4903
  793SOL    HW1 2378   2.615   0.116   2.387  1.3075  2.0406  2.0828
  793SOL    HW2 2379   2.648   0.250   2.290 -1.4888 -0.3360 -0.1105
  794SOL     OW 2380   0.097   0.337   2.011  0.0888  0.2088  0.5598
  794SOL    HW1 2381   0.103   0.307   2.108  0.6061  2.8007  0.7692
  794SOL    HW2 2382   0.173   0.286   1.962 -1.0443 -2.4539 -2.0613
  795SOL     OW 2383   2.707   1.313   0.291  0.0146  0.0751 -0.2733
  795SOL    HW1 2384   2.724   1.286   0.194  0.6314  1.4018 -1.8267
  795SOL    HW2 2385   2.700   1.416   0.298 -3.1113  3.7833 -0.9109
  796SOL     OW 2386   2.790   1.973   2.572  0.1911  0.7298  0.0931
  796SOL    HW1 2387   2.849   2.053   2.560 -2.5849  2.4386 -0.6181
  796SOL    HW2 2388   2.709   1.977   2.514  1.5845  0.8333 -0.6565
  797SOL     OW 2389   2.952   1.966   0.179  0.2283 -0.1467 -0.2505
  797SOL    HW1 2390   2.895   1.912   0.118 -0.0330  2.1957  1.5672
  797SOL    HW2 2391   2.928   1.933   0.274 -0.6833 -2.6746  2.0050
  798SOL     OW 2392   0.431   0.594   1.790 -0.0987 -0.3502  0.2627
  798SOL    HW1 2393   0.393   0.666   1.730  0.9900 -3.3290 -2.0646
  798SOL    HW2 2394   0.390   0.597   1.882 -2.9657  1.2207  0.2114
  799SOL     OW 2395   2.678   1.347   2.405  0.4736  0.1584 -0.3343
  799SOL    HW1 2396   2.693   1.291   2.327  2.6486 -0.1480  0.7496
  799SOL    HW2 2397   2.607   1.421   2.382  0.8296 -1.1921 -0.2382
  800SOL     OW 2398   3.087   2.132   0.534 -0.3251 -0.3025  0.5905
  800SOL    HW1 2399   3.000   2.076   0.529  1.6961 -0.1584  0.3734
  800SOL    HW2 2400   0.055   2.090   0.607 -2.6890  1.3936 -0.4438
  801SOL     OW 2401   1.106   0.781   0.908 -0.1206 -0.0363  0.1958
  801SOL    HW1 2402   1.093   0.861   0.843  1.0399  0.4285  1.3565
  801SOL    HW2 2403   1.051   0.693   0.886 -1.5555 -2.3786 -0.8549
  802SOL     OW 2404   1.817   2.159   0.958  0.1997  0.4616  0.0508
  802SOL    HW1 2405   1.836   2.059   0.982  0.2581 -2.1898  0.6631
  802SOL    HW2 2406   1.864   2.178   0.867  2.9929  0.5408 -1.8906
  803SOL     OW 2407   0.018   1.421   0.508 -0.3612  0.3433 -0.1980
  803SOL    HW1 2408   0.097   1.412   0.578  2.0166 -2.2690  2.6974
  803SOL    HW2 2409   3.044   1.500   0.507 -2.8620  1.2840 -0.4670
  804SOL     OW 2410   1.386   2.451   0.633 -0.2034 -0.0037  0.0661
  804SOL    HW1 2411   1.333   2.466   0.718 -0.1164  0.3979  0.3611
  804SOL    HW2 2412   1.449   2.531   0.624 -2.7282  0.5154  3.2463
  805SOL     OW 2413   1.552   2.106   2.486  0.5303 -0.2688 -0.0504
  805SOL    HW1 2414   1.602   2.154   2.561  0.1143  1.5947 -0.8738
  805SOL    HW2 2415   1.617   2.059   2.425  1.1428 -0.3800 -3.1656
  806SOL     OW 2416   1.665   2.982   1.431 -0.1146 -0.6233  0.2451
  806SOL    HW1 2417   1.725   2.958   1.511 -0.7430 -0.9150 -1.4159
  806SOL    HW2 2418   1.570   2.948   1.452 -1.5430 -0.5137  0.8385
  807SOL     OW 2419   1.845   0.089   0.429  0.1527  1.1977  0.0036
  807SOL    HW1 2420   1.931   0.079   0.475 -0.0410  0.5515  0.9734
  807SOL    HW2 2421   1.796   0.000   0.424  1.1744 -1.9792 -1.4006
  808SOL     OW 2422   0.528   1.579   2.690  0.0990 -0.4991 -0.4738
  808SOL    HW1 2423   0.540   1.478   2.682 -1.3156  0.9984  0.9243
  808SOL    HW2 2424   0.436   1.606   2.654 -0.1512  1.2879  0.9134
  809SOL     OW 2425   2.996   1.028   2.871  0.7846  0.8900  0.0397
  809SOL    HW1 2426   0.009   1.005   2.867  2.6415 -1.8670  0.6008
  809SOL    HW2 2427   2.937   0.946   2.869 -2.5783 -1.4562  0.0118
  810SOL     OW 2428   2.691   0.439   2.788  0.2870  0.0560  0.1013
  810SOL    HW1 2429   2.593   0.469   2.797 -0.7305  0.8962  2.2848
  810SOL    HW2 2430   2.722   0.406   2.697 -0.4673 -0.0165  1.5721
  811SOL     OW 2431   2.203   2.518   1.891  0.6504  0.0585  0.3605
  811SOL    HW1 2432   2.139   2.532   1.815  3.9300 -1.9154  0.0943
  811SOL    HW2 2433   2.168   2.563   1.974  2.5436  2.0610  1.4984
  812SOL     OW 2434   1.186   0.248   0.560 -0.1989  0.2525  0.1493
  812SOL    HW1 2435   1.270   0.231   0.612 -1.5493  1.3640  1.7411
  812SOL    HW2 2436   1.202   0.224   0.463 -0.8958  0.9546  1.3863
  813SOL     OW 2437   1.845   0.446   1.861 -0.0295 -0.2031  0.4684
  813SOL    HW1 2438   1.846   0.543   1.830  0.1219  0.0509  2.5628
  813SOL    HW2 2439   1.752   0.410   1.871  1.2580 -0.1686  0.3470
  814SOL     OW 2440   1.809   0.883   1.232  0.4076 -0.0041 -0.2294
  814SOL    HW1 2441   1.868   0.812   1.188 -1.3368  2.4172 -0.7277
  814SOL    HW2 2442   1.853   0.975   1.225  1.1210  1.1256 -0.0998
  815SOL     OW 2443   0.622   0.796   0.485 -0.0420  0.2702 -0.2263
  815SOL    HW1 2444   0.660   0.874   0.535 -3.0113  0.1268  1.7208
  815SOL    HW2 2445   0.678   0.708   0.494  1.4268 -1.7904  2.1915
  816SOL     OW 2446   2.376   2.390   0.376  0.0040 -0.5700 -0.4107
  816SOL    HW1 2447   2.363   2.289   0.382 -1.9991  2.1973 -0.3982
  816SOL    HW2 2448   2.288   2.440   0.352 -0.6297 -3.2614  0.7563
  817SOL     OW 2449   2.800   2.478   0.982  0.3844  0.2692 -0.8119
  817SOL    HW1 2450   2.808   2.381   0.944  1.1294 -1.2037 -1.9840
  817SOL    HW2 2451   2.818   2.482   1.083  1.2710 -2.4940  1.4123
  818SOL     OW 2452   1.812   0.778   0.170  0.3392  0.2792  0.5679
  818SOL    HW1 2453   1.869   0.856   0.141  1.5301  3.0873 -2.9844
  818SOL    HW2 2454   1.765   0.813   0.254  1.4660 -1.2228  1.7847
  819SOL     OW 2455   0.574   0.454   0.689 -0.2580 -0.2789 -0.1475
  819SOL    HW1 2456   0.496   0.495   0.640  2.1562  1.8068 -0.5323
  819SOL    HW2 2457   0.660   0.484   0.639  3.2283  1.4937 -4.7285
  820SOL     OW 2458   2.047   0.687   1.404 -0.1866  0.4407  0.1055
  820SOL    HW1 2459   2.088   0.754   1.467 -0.1110 -0.4237  0.4496
  820SOL    HW2 2460   1.960   0.650   1.442  0.8947  1.0183  1.1204
  821SOL     OW 2461   2.807   0.238   0.897 -0.0901 -0.0035  0.1788
  821SOL    HW1 2462   2.811   0.206   0.799  1.7525  0.3778 -1.7872
  821SOL    HW2 2463   2.901   0.258   0.935  0.8857  1.7379  0.7328
  822SOL     OW 2464   0.843   2.365   2.146  0.0581 -0.0302  0.4263
  822SOL    HW1 2465   0.862   2.467   2.162  0.9981 -1.9146  1.0444
  822SOL    HW2 2466   0.748   2.338   2.174  0.4137 -2.2707  0.9463
  823SOL     OW 2467   2.792   1.163   1.499  0.1929  0.1580 -0.0253
  823SOL    HW1 2468   2.833   1.068   1.500  0.0503 -0.4364 -0.2261
  823SOL    HW2 2469   2.862   1.232   1.520  0.5446 -2.9847  0.5859
  824SOL     OW 2470   0.524   2.554   2.389  1.1124 -0.4614 -0.2192
  824SOL    HW1 2471   0.485   2.474   2.439 -0.3428 -1.2032  0.2002
  824SOL    HW2 2472   0.619   2.560   2.418 -2.6573  0.8338 -0.1967
  825SOL     OW 2473   1.573   1.548   2.979 -0.2560  0.2548  0.6033
  825SOL    HW1 2474   1.560   1.589   2.888 -0.9676 -2.5046  3.7931
  825SOL    HW2 2475   1.672   1.559   3.009  1.7583 -1.4510 -1.6648
  826SOL     OW 2476   0.920   2.092   0.138  0.0790  0.0479 -0.8086
  826SOL    HW1 2477   0.953   2.140   0.223  1.3968  0.1400 -0.8218
  826SOL    HW2 2478   0.949   1.993   0.139 -1.9163  1.2568 -1.6328
  827SOL     OW 2479   0.175   1.427   1.925  0.5997 -0.6353 -0.3029
  827SOL    HW1 2480   0.150   1.521   1.894  0.4038 -0.1776 -1.4068
  827SOL    HW2 2481   0.123   1.360   1.863 -1.3343  0.6719 -1.0284
  828SOL     OW 2482   0.293   1.702   1.524 -0.1562  0.3030  0.3790
  828SOL    HW1 2483   0.310   1.802   1.527  0.2750 -1.8051  1.8179
  828SOL    HW2 2484   0.382   1.648   1.510  0.0926  0.4844  0.8589
  829SOL     OW 2485   3.033   2.243   2.916 -0.1243 -0.3383  0.2755
  829SOL    HW1 2486   3.079   2.257   3.003 -3.2249  1.3933  0.1158
  829SOL    HW2 2487   3.010   2.143   2.907 -0.1019 -0.6737 -0.2224
  830SOL     OW 2488   1.070   0.711   0.385  0.0466 -0.0042 -0.4876
  830SOL    HW1 2489   1.054   0.624   0.441  0.7717 -1.4819 -0.2341
  830SOL    HW2 2490   1.050   0.687   0.289 -0.2914  1.1267  0.2190
  831SOL     OW 2491   2.736   2.221   3.019  0.0264 -0.1849 -0.0352
  831SOL    HW1 2492   2.811   2.190   2.955  0.6285  0.7988 -0.5197
  831SOL    HW2 2493   2.662   2.266   2.963 -0.8218  1.0083  2.6252
  832SOL     OW 2494   1.797   2.528   0.476  0.5091  0.6273  0.3949
  832SOL    HW1 2495   1.814   2.533   0.375  1.1619  2.8221 -0.9735
  832SOL    HW2 2496   1.879   2.504   0.526  1.4945  2.1348  1.2054
  833SOL     OW 2497   0.242   1.092   2.250 -0.4022 -0.2780  0.4537
  833SOL    HW1 2498   0.196   1.179   2.207 -1.4052  0.8242 -0.8772
  833SOL    HW2 2499   0.277   1.118   2.340  1.9428  0.5976 -2.9406
  834SOL     OW 2500   2.234   0.403   0.718  0.9754  0.1235 -0.2440
  834SOL    HW1 2501   2.308   0.472   0.710 -1.9403 -0.1015 -0.1797
  834SOL    HW2 2502   2.172   0.411   0.638 -1.1439 -1.3597  0.9178
  835SOL     OW 2503   2.250   0.735   2.075 -0.4110 -0.0019  0.8894
  835SOL    HW1 2504   2.210   0.725   1.981  2.2918  1.9533 -0.9622
  835SOL    HW2 2505   2.214   0.665   2.138  0.0001  2.0537 -0.2641
  836SOL     OW 2506   0.982   1.669   0.853 -0.5150  0.3317 -0.1911
  836SOL    HW1 2507   0.898   1.698   0.805  1.7781  2.5679 -1.2454
  836SOL    HW2 2508   1.058   1.718   0.809 -2.2431  0.6952 -1.4482
  837SOL     OW 2509   2.344   1.121   1.895 -0.0145 -0.2522  0.3940
  837SOL    HW1 2510   2.339   1.220   1.863  1.7872  2.0477 -1.3729
  837SOL    HW2 2511   2.384   1.113   1.991  1.0135 -0.1416  0.3574
  838SOL     OW 2512   0.051   0.963   2.614 -0.0161  0.1132 -0.2776
  838SOL    HW1 2513   0.063   0.946   2.515 -1.3084 -0.5446  1.5173
  838SOL    HW2 2514   3.056   1.024   2.622 -2.4694  1.4372 -1.2394
  839SOL     OW 2515   3.018   0.171   3.076  0.6387  0.4677  0.6653
  839SOL    HW1 2516   3.048   0.148   2.981 -0.5382 -1.2671 -2.7920
  839SOL    HW2 2517   2.921   0.141   0.006  1.0089  0.6147  1.2384
  840SOL     OW 2518   2.828   1.455   2.829  0.0446  0.3394  0.0057
  840SOL    HW1 2519   2.736   1.416   2.798  0.3574  0.8898 -0.7976
  840SOL    HW2 2520   2.836   1.447   2.931 -1.9288 -0.7084 -2.3115
  841SOL     OW 2521   0.544   2.108   2.605  0.4287 -0.2077 -0.5425
  841SOL    HW1 2522   0.582   2.051   2.527 -2.9636  1.1403 -0.6418
  841SOL    HW2 2523   0.617   2.132   2.672 -1.9907  0.7455 -0.4506
  842SOL     OW 2524   0.562   0.045   0.962  0.1967  0.3736 -0.5462
  842SOL    HW1 2525   0.501   0.096   1.021  0.9160  0.3276 -3.5691
  842SOL    HW2 2526   0.581   0.091   0.873 -0.0225 -0.0785 -0.2657
  843SOL     OW 2527   3.010   1.421   1.618  0.0287  0.1692  0.6137
  843SOL    HW1 2528   3.029   1.512   1.569  0.0361 -0.8522 -1.7383
  843SOL    HW2 2529   2.919   1.422   1.660  1.2322  1.1359  0.2374
  844SOL     OW 2530   2.009   2.163   2.451  0.1779 -0.1187 -0.3443
  844SOL    HW1 2531   2.059   2.181   2.536  0.2909 -2.5683  0.7272
  844SOL    HW2 2532   2.071   2.186   2.374  0.6205  1.6283  2.2706
  845SOL     OW 2533   1.669   2.742   2.383  0.0843 -0.4925 -0.4898
  845SOL    HW1 2534   1.570   2.719   2.392 -1.0190 -1.0240  0.9574
  845SOL    HW2 2535   1.718   2.752   2.472  1.5962 -0.6600  1.6548
  846SOL     OW 2536   2.458   1.563   0.165 -0.3435 -0.9895 -0.1095
  846SOL    HW1 2537   2.383   1.595   0.103  1.1681 -0.0852  1.2318
  846SOL    HW2 2538   2.496   1.470   0.144  3.0499 -1.5165  0.8648
  847SOL     OW 2539   2.360   0.026   2.777  0.0460  0.1065  0.4608
  847SOL    HW1 2540   2.350   3.028   2.831 -0.9075 -0.1569  1.1500
  847SOL    HW2 2541   2.400   0.103   2.831  1.0920  0.1249  1.4163
  848SOL     OW 2542   1.914   0.524   0.405 -0.5552  0.0327 -0.6131
  848SOL    HW1 2543   1.865   0.493   0.323  4.9492 -0.3270  0.4982
  848SOL    HW2 2544   1.855   0.579   0.469 -2.0299 -0.8158  2.3039
  849SOL     OW 2545   1.049   0.242   2.725  0.0169 -0.1406  0.1122
  849SOL    HW1 2546   1.044   0.169   2.656 -1.9260  1.9162  0.5462
  849SOL    HW2 2547   1.047   0.336   2.690  0.4634 -0.5505  1.7662
  850SOL     OW 2548   0.145   0.595   0.070  1.1402  0.2266  0.1584
  850SOL    HW1 2549   0.202   0.561   0.145 -0.6728  0.1461 -1.0681
  850SOL    HW2 2550   0.087   0.672   0.106 -0.1426  0.2983  0.2851
  851SOL     OW 2551   0.192   1.159   1.439 -0.0065 -0.6276  0.2414
  851SOL    HW1 2552   0.137   1.186   1.521 -3.5699 -3.5538 -2.2998
  851SOL    HW2 2553   0.288   1.138   1.473 -0.8154  0.1240  1.3571
  852SOL     OW 2554   1.230   0.872   1.978 -0.1628 -0.6097 -0.4673
  852SOL    HW1 2555   1.168   0.834   1.901 -0.9976  0.0759 -1.5638
  852SOL    HW2 2556   1.252   0.797   2.042 -2.5074  3.5045 -1.6735
  853SOL     OW 2557   2.139   1.381   2.830  0.0488  0.4670  0.1324
  853SOL    HW1 2558   2.180   1.340   2.908  0.0243  0.3135 -1.4363
  853SOL    HW2 2559   2.063   1.324   2.803  4.2280  0.3059  3.0495
  854SOL     OW 2560   1.141   1.424   1.775  0.0088  0.4041 -0.0762
  854SOL    HW1 2561   1.165   1.422   1.679 -2.5619 -2.2209 -0.1288
  854SOL    HW2 2562   1.202   1.372   1.835 -1.0007  0.6305  1.0721
  855SOL     OW 2563   0.254   2.072   1.820  0.2045  0.0028 -0.1052
  855SOL    HW1 2564   0.182   2.143   1.826  2.4172  0.2501 -0.8317
  855SOL    HW2 2565   0.265   2.042   1.720 -0.3243  0.2435 -0.3225
  856SOL     OW 2566   1.168   1.320   2.548  0.1191 -0.0920 -0.0571
  856SOL    HW1 2567   1.212   1.242   2.495 -0.3518 -0.6877 -1.6858
  856SOL    HW2 2568   1.135   1.400   2.484 -1.6695  1.9953 -1.3776
  857SOL     OW 2569   1.055   0.865   2.760  0.0207 -0.2086 -0.5376
  857SOL    HW1 2570   0.967   0.883   2.715  1.7044  1.4198 -0.1963
  857SOL    HW2 2571   1.064   0.768   2.793 -1.8454  0.8037  2.3266
  858SOL     OW 2572   0.238   3.063   1.713  0.5711  0.9745  0.0501
  858SOL    HW1 2573   0.249   0.010   1.617 -0.2304 -1.5706 -2.8113
  858SOL    HW2 2574   0.158   3.001   1.712 -0.0432  1.5750 -0.2070
  859SOL     OW 2575   2.444   0.204   0.698 -0.2259 -0.1868 -0.6202
  859SOL    HW1 2576   2.354   0.254   0.702 -2.2702 -0.9604 -0.6770
  859SOL    HW2 2577   2.498   0.225   0.783  2.0496  0.7806 -1.0938
  860SOL     OW 2578   0.685   0.887   1.487  0.0613  0.0281  0.6746
  860SOL    HW1 2579   0.632   0.868   1.574 -1.0217  3.2195  1.2955
  860SOL    HW2 2580   0.762   0.949   1.509 -2.3874  1.2064  0.4352
  861SOL     OW 2581   1.375   0.769   1.538 -0.0167 -0.0341 -0.2219
  861SOL    HW1 2582   1.397   0.673   1.554  1.3979  0.7614  1.9653
  861SOL    HW2 2583   1.464   0.812   1.520  1.2154  1.3281 -3.9131
  862SOL     OW 2584   0.849   2.910   2.360 -0.3251 -0.0504 -0.0717
  862SOL    HW1 2585   0.883   2.998   2.396  0.3527 -0.4427  1.5822
  862SOL    HW2 2586   0.761   2.885   2.398  0.1053 -0.5498  1.3158
  863SOL     OW 2587   2.475   0.362   1.188 -0.3339  0.8447  0.0510
  863SOL    HW1 2588   2.444   0.268   1.169 -1.6301 -1.2266  1.5530
  863SOL    HW2 2589   2.389   0.419   1.192 -0.6815 -0.8009  1.8900
  864SOL     OW 2590   2.613   3.029   2.444 -0.2018  0.3790 -0.0789
  864SOL    HW1 2591   2.576   2.968   2.517  0.1042  1.0037  1.4491
  864SOL    HW2 2592   2.640   2.964   2.366  1.3292 -1.0571 -3.0028
  865SOL     OW 2593   1.386   1.212   2.268  0.0447 -0.0861  0.0471
  865SOL    HW1 2594   1.331   1.148   2.327  1.6243  0.9429  0.6815
  865SOL    HW2 2595   1.317   1.272   2.224  0.4515 -0.7186 -1.3445
  866SOL     OW 2596   2.486   2.709   0.782 -0.0355 -0.3162 -0.0699
  866SOL    HW1 2597   2.491   2.654   0.868  0.6584 -0.6876 -0.4324
  866SOL    HW2 2598   2.521   2.650   0.706  0.5061 -2.7890  0.6750
  867SOL     OW 2599   2.539   2.558   1.013 -0.4212  0.2280  0.3552
  867SOL    HW1 2600   2.566   2.632   1.081 -0.6764 -1.7063  1.4864
  867SOL    HW2 2601   2.615   2.493   0.999  1.3199  0.8603 -0.8607
  868SOL     OW 2602   2.651   1.542   1.399  0.2707  0.1536 -0.1115
  868SOL    HW1 2603   2.655   1.559   1.503  1.3729 -0.6832  2.5874
  868SOL    HW2 2604   2.589   1.465   1.376  0.4042 -0.3650 -0.2892
  869SOL     OW 2605   2.123   1.468   2.087 -0.1622 -0.2875  0.1605
  869SOL    HW1 2606   2.080   1.544   2.143 -1.4796 -1.6158 -2.9596
  869SOL    HW2 2607   2.060   1.391   2.105  2.0700  2.0881  0.1360
  870SOL     OW 2608   1.568   1.321   0.812  0.2339  0.4624 -0.4499
  870SOL    HW1 2609   1.561   1.220   0.811 -0.5820 -0.3477  0.2773
  870SOL    HW2 2610   1.479   1.360   0.775 -0.2812 -0.2162 -1.2510
  871SOL     OW 2611   2.222   1.373   1.814 -0.0522 -0.0988  0.0349
  871SOL    HW1 2612   2.144   1.335   1.761  3.1699 -0.6912  2.0570
  871SOL    HW2 2613   2.196   1.419   1.900 -0.4341 -0.4203  1.9564
  872SOL     OW 2614   1.556   1.362   2.413 -0.2468  0.5931 -0.1586
  872SOL    HW1 2615   1.591   1.334   2.510 -0.6051  2.9058  2.2388
  872SOL    HW2 2616   1.498   1.288   2.371 -0.5051  1.0108  0.5769
  873SOL     OW 2617   1.353   1.479   1.273  0.7020 -0.1014 -0.3630
  873SOL    HW1 2618   1.265   1.472   1.219 -2.1213  1.2028 -0.1677
  873SOL    HW2 2619   1.440   1.473   1.219  1.9943  1.7443 -1.6267
  874SOL     OW 2620   1.572   1.469   1.098 -0.1878  0.3780 -0.5330
  874SOL    HW1 2621   1.603   1.536   1.027  0.3302  1.0257  0.5004
  874SOL    HW2 2622   1.554   1.378   1.059  0.4255 -2.1952  0.3569
  875SOL     OW 2623   2.377   0.321   2.806  0.1359  0.2780 -0.1276
  875SOL    HW1 2624   2.360   0.420   2.816 -2.0130 -0.5518  0.4272
  875SOL    HW2 2625   2.396   0.304   2.708 -0.4708  3.2684 -1.1205
  876SOL     OW 2626   1.100   0.983   0.442 -0.1941 -0.2299 -0.2580
  876SOL    HW1 2627   1.085   0.885   0.410 -0.0323 -0.1185 -1.1279
  876SOL    HW2 2628   1.199   0.998   0.462 -0.2953 -0.5749 -0.1296
  877SOL     OW 2629   1.942   0.173   0.781 -0.0408  0.2103  0.1178
  877SOL    HW1 2630   1.991   0.141   0.699  1.4526  1.5190 -0.7503
  877SOL    HW2 2631   1.902   0.097   0.836  0.4831 -0.5924 -0.8795
  878SOL     OW 2632   2.867   1.978   0.522  0.4844 -0.1281 -0.1097
  878SOL    HW1 2633   2.839   1.918   0.601 -1.5787  3.0588  1.6854
  878SOL    HW2 2634   2.781   2.021   0.487 -2.9728  0.3393  2.3337
  879SOL     OW 2635   2.791   2.194   1.830  0.3247 -0.2224  0.2934
  879SOL    HW1 2636   2.827   2.163   1.918 -0.0228 -1.1854 -1.4797
  879SOL    HW2 2637   2.795   2.116   1.763  1.5961 -2.3090  1.4659
  880SOL     OW 2638   0.476   1.421   0.843 -0.3211 -0.4700 -0.4175
  880SOL    HW1 2639   0.576   1.423   0.817  0.7679  0.6602 -0.1073
  880SOL    HW2 2640   0.468   1.463   0.939 -0.7371  2.4009  0.3311
  881SOL     OW 2641   1.468   0.390   2.704  0.3208 -0.5082 -0.7624
  881SOL    HW1 2642   1.399   0.354   2.771  0.5660 -1.0976  3.5213
  881SOL    HW2 2643   1.466   0.348   2.616 -0.9670  4.2821  5.4333
  882SOL     OW 2644   2.525   0.698   0.385 -0.4397 -0.5607  0.0936
  882SOL    HW1 2645   2.541   0.787   0.431  0.5384  1.5195  0.1999
  882SOL    HW2 2646   2.572   0.624   0.435 -2.8489  0.8531  1.0227
  883SOL     OW 2647   1.713   0.772   2.591  0.1704 -0.6450 -0.8211
  883SOL    HW1 2648   1.636   0.723   2.648 -3.7071 -1.6383  0.8488
  883SOL    HW2 2649   1.672   0.864   2.573 -0.3483  1.0828  1.9858
  884SOL     OW 2650   0.426   2.898   1.841  0.0367  0.0510 -0.2998
  884SOL    HW1 2651   0.366   2.818   1.850  0.0689  1.2173 -0.0480
  884SOL    HW2 2652   0.388   2.973   1.786  1.1063 -4.2609 -0.9112
  885SOL     OW 2653   1.803   0.722   2.107  0.2433  0.0805 -0.0349
  885SOL    HW1 2654   1.880   0.661   2.142  2.8953 -2.8159  1.0030
  885SOL    HW2 2655   1.712   0.682   2.110  0.6449  2.6909 -1.9202
  886SOL     OW 2656   1.660   0.089   2.807  0.5571  0.4378  0.2036
  886SOL    HW1 2657   1.685   0.133   2.720 -0.9821 -1.3475  0.0537
  886SOL    HW2 2658   1.740   0.086   2.872  0.6027 -1.4032  0.8766
  887SOL     OW 2659   1.009   0.321   1.579  0.1669 -0.8720 -0.2358
  887SOL    HW1 2660   1.028   0.374   1.493 -1.6595  1.3130 -0.8991
  887SOL    HW2 2661   0.943   0.244   1.567  1.7284  0.5781 -1.3668
  888SOL     OW 2662   2.379   0.636   1.678 -0.0996  0.0831 -0.1507
  888SOL    HW1 2663   2.447   0.698   1.725 -1.6001  0.6259  0.8162
  888SOL    HW2 2664   2.396   0.628   1.579 -0.9797 -0.6463 -0.8701
  889SOL     OW 2665   1.427   0.155   0.662 -0.2217 -0.3565 -0.2436
  889SOL    HW1 2666   1.503   0.194   0.612 -1.7047 -1.0116  1.8337
  889SOL    HW2 2667   1.463   0.115   0.748  0.1937  0.4203  0.6859
  890SOL     OW 2668   1.220   2.652   1.079 -0.8470  0.2270 -0.0359
  890SOL    HW1 2669   1.287   2.682   1.010  0.4970  1.0101  0.3837
  890SOL    HW2 2670   1.166   2.727   1.119  3.8222  3.4463 -0.8130
  891SOL     OW 2671   0.003   1.308   0.087 -0.1585 -0.1758 -0.0771
  891SOL    HW1 2672   0.068   1.259   0.025  0.2929 -0.2564  0.3872
  891SOL    HW2 2673   0.003   1.278   0.181 -1.0386 -1.1133 -2.5503
  892SOL     OW 2674   1.937   1.461   2.465 -0.2506  0.2163 -0.0874
  892SOL    HW1 2675   1.918   1.533   2.395  2.1131  0.6175  0.3925
  892SOL    HW2 2676   1.893   1.479   2.552 -0.7332  0.8756 -2.4699
  893SOL     OW 2677   2.253   2.504   1.060  0.9333  0.0138 -0.3335
  893SOL    HW1 2678   2.192   2.586   1.045 -1.0143  0.2991  4.5386
  893SOL    HW2 2679   2.350   2.515   1.035 -0.5250  1.1505  2.0462
  894SOL     OW 2680   0.164   0.759   0.901 -0.0758 -0.1654 -0.1566
  894SOL    HW1 2681   0.148   0.689   0.831 -1.4959 -2.6279  2.2784
  894SOL    HW2 2682   0.237   0.824   0.868  0.5116 -0.0594  0.4360
  895SOL     OW 2683   2.908   2.185   2.430  0.2769  0.4676  0.1003
  895SOL    HW1 2684   2.881   2.118   2.362  1.1426 -0.2898  0.7595
  895SOL    HW2 2685   3.010   2.167   2.446  2.2695 -0.5468 -0.4746
  896SOL     OW 2686   1.293   3.028   2.390 -0.0317 -0.1837  0.5362
  896SOL    HW1 2687   1.271   3.032   2.488 -0.3790  0.3287  0.4152
  896SOL    HW2 2688   1.221   3.069   2.328 -1.3107  1.6961 -0.3230
  897SOL     OW 2689   0.333   2.024   1.579 -0.2251 -0.0558 -0.0022
  897SOL    HW1 2690   0.429   1.992   1.555  0.5396  3.6094 -0.1350
  897SOL    HW2 2691   0.312   2.114   1.531 -1.3111 -1.6884 -2.5554
  898SOL     OW 2692   0.691   2.273   1.752 -0.3576  0.9632  0.2720
  898SOL    HW1 2693   0.749   2.248   1.672  0.8471 -2.2352  0.0453
  898SOL    HW2 2694   0.598   2.298   1.714  1.0806 -0.0228 -1.6139
  899SOL     OW 2695   1.840   0.069   1.873 -0.2280 -0.4167  0.8818
  899SOL    HW1 2696   1.845   3.067   1.823  1.1206  2.0434 -1.5961
  899SOL    HW2 2697   1.860   0.138   1.803  2.2937  0.1939 -2.2140
  900SOL     OW 2698   1.647   1.070   0.579 -0.0626 -0.2011  0.2324
  900SOL    HW1 2699   1.711   1.146   0.590  2.4791 -2.1702 -1.1233
  900SOL    HW2 2700   1.619   1.037   0.670 -0.4861  0.6211 -3.1329
  901SOL     OW 2701   1.262   1.054   2.432  0.3210 -0.1570  0.6055
  901SOL    HW1 2702   1.304   1.043   2.520 -2.6991  1.3540 -1.0729
  901SOL    HW2 2703   1.212   0.967   2.413  0.2242  2.8925  3.6694
  902SOL     OW 2704   0.157   2.016   0.728  0.0615 -0.5114 -0.0973
  902SOL    HW1 2705   0.197   1.929   0.699  0.7075  2.2533  1.6272
  902SOL    HW2 2706   0.130   2.008   0.825  0.7497 -1.1676 -0.5886
  903SOL     OW 2707   2.427   1.127   2.145  1.0731 -0.2877  0.4949
  903SOL    HW1 2708   2.369   1.186   2.205 -1.3763 -2.2847  1.3990
  903SOL    HW2 2709   2.526   1.143   2.166  0.1700 -0.4933 -0.4558
  904SOL     OW 2710   1.364   1.992   0.036 -0.4495 -0.4881  0.2008
  904SOL    HW1 2711   1.281   1.973   3.066 -0.9189  0.9494 -1.3642
  904SOL    HW2 2712   1.337   2.030   0.129 -1.5341 -1.4510 -0.4768
  905SOL     OW 2713   2.244   3.042   1.917 -0.8757  0.0865 -0.0426
  905SOL    HW1 2714   2.170   2.973   1.913  0.7576  2.6113 -0.8309
  905SOL    HW2 2715   2.205   0.045   1.936  2.2524 -1.9196  1.0181
  906SOL     OW 2716   1.076   2.432   0.078  0.3995  0.0155 -0.1723
  906SOL    HW1 2717   0.988   2.463   0.106 -0.1028 -3.9781  1.4985
  906SOL    HW2 2718   1.062   2.340   0.046  0.0172  2.0237 -1.0233
  907SOL     OW 2719   0.182   2.691   0.847  0.1724 -0.3897 -0.5314
  907SOL    HW1 2720   0.271   2.698   0.897 -1.9308  2.5533  0.8505
  907SOL    HW2 2721   0.190   2.764   0.774 -1.0531 -0.2111  1.8659
  908SOL     OW 2722   1.032   2.631   1.703 -0.0321  0.1771  0.0840
  908SOL    HW1 2723   0.961   2.573   1.745  0.0422  0.2051  0.1163
  908SOL    HW2 2724   1.043   2.717   1.757 -0.9181  1.9057  0.9458
  909SOL     OW 2725   1.601   0.896   1.442 -0.4383 -0.1479 -0.0292
  909SOL    HW1 2726   1.659   0.874   1.364  0.8479  0.8657  2.1131
  909SOL    HW2 2727   1.637   0.972   1.499 -0.1761 -1.9090 -1.3032
  910SOL     OW 2728   0.910   0.249   0.113  0.5400  0.1751 -0.4260
  910SOL    HW1 2729   0.929   0.335   0.064  0.0327  1.3399 -1.2312
  910SOL    HW2 2730   0.980   0.178   0.097 -0.1253  0.5700 -0.5568
  911SOL     OW 2731   0.425   0.395   3.013  0.1025  0.6796  0.0084
  911SOL    HW1 2732   0.374   0.333   3.078 -0.5785 -2.0534  2.3850
  911SOL    HW2 2733   0.377   0.404   2.923  0.0530  1.0210  1.2655
  912SOL     OW 2734   0.216   1.842   2.754  0.0972  0.1502  0.0388
  912SOL    HW1 2735   0.146   1.825   2.682  1.0127  2.6210 -1.2111
  912SOL    HW2 2736   0.173   1.845   2.847 -0.1023  1.4625  0.4129
  913SOL     OW 2737   2.497   3.049   0.031  0.0739 -0.1523 -0.2741
  913SOL    HW1 2738   2.431   3.026   3.045  1.0456 -0.6969  0.5794
  913SOL    HW2 2739   2.455   0.005   0.114  2.2861 -0.5600  0.2790
  914SOL     OW 2740   1.358   1.500   1.993 -0.7102  0.0567 -0.6238
  914SOL    HW1 2741   1.332   1.595   2.013  0.4783  0.7045  1.4165
  914SOL    HW2 2742   1.309   1.430   2.050 -1.2539  0.3221  1.6968
  915SOL     OW 2743   2.643   2.347   2.239 -0.4265 -0.4848  0.8599
  915SOL    HW1 2744   2.734   2.349   2.197 -2.1157  1.1565  2.6306
  915SOL    HW2 2745   2.654   2.387   2.332 -0.5070  4.6343  1.2101
  916SOL     OW 2746   2.889   0.999   2.329  0.1517  0.7930  0.0396
  916SOL    HW1 2747   2.986   0.969   2.312  1.4456  0.1962 -1.0788
  916SOL    HW2 2748   2.857   1.066   2.260  0.4300 -0.2960 -0.1079
  917SOL     OW 2749   1.474   0.104   0.340  0.0378 -0.0256 -0.0876
  917SOL    HW1 2750   1.526   0.171   0.395 -3.5485  1.3192 -2.7948
  917SOL    HW2 2751   1.531   0.069   0.264  0.5471 -2.0343  0.2482
  918SOL     OW 2752   1.649   2.952   2.196 -0.9433  0.4386 -0.0406
  918SOL    HW1 2753   1.651   2.905   2.285 -1.4479  1.6310  2.1680
  918SOL    HW2 2754   1.709   3.036   2.190  0.5520  1.0982  1.4742
  919SOL     OW 2755   1.832   2.430   1.876 -0.3803  0.2506  0.0485
  919SOL    HW1 2756   1.753   2.499   1.890  1.0524  2.4797  1.8788
  919SOL    HW2 2757   1.873   2.397   1.965  1.9250 -0.6512 -0.3436
  920SOL     OW 2758   0.197   0.920   0.124 -0.5024 -0.9863 -0.1633
  920SOL    HW1 2759   0.212   1.002   0.188  3.7939  1.3490  2.1227
  920SOL    HW2 2760   0.284   0.878   0.095 -1.2889  2.9173  1.7586
  921SOL     OW 2761   2.138   0.802   2.489  0.3158  0.0489  0.3949
  921SOL    HW1 2762   2.037   0.794   2.476 -2.6901 -2.1704 -0.5631
  921SOL    HW2 2763   2.169   0.875   2.421 -1.6728 -0.1907 -3.0095
  922SOL     OW 2764   1.321   1.774   2.587 -0.6735  0.1398  0.1560
  922SOL    HW1 2765   1.277   1.859   2.561  1.8939 -1.8304 -2.4728
  922SOL    HW2 2766   1.255   1.697   2.592 -1.2555 -0.4710  0.7962
  923SOL     OW 2767   0.669   1.216   2.348  0.2870  0.1121 -0.5359
  923SOL    HW1 2768   0.683   1.184   2.252 -1.3252  1.0999  0.0105
  923SOL    HW2 2769   0.577   1.262   2.361 -2.0663  2.8806 -0.1547
  924SOL     OW 2770   0.257   2.067   2.993 -0.4491 -0.2481  0.8754
  924SOL    HW1 2771   0.282   2.087   2.896  0.9950  1.1262  1.4242
  924SOL    HW2 2772   0.159   2.039   2.994  0.1087 -0.1187  1.4807
  925SOL     OW 2773   1.624   1.656   0.912 -0.3822  0.0734  0.3710
  925SOL    HW1 2774   1.648   1.733   0.977  1.3150  0.5329  1.4816
  925SOL    HW2 2775   1.619   1.694   0.819  1.1453 -1.8518 -0.0086
  926SOL     OW 2776   1.757   0.183   2.563  0.8085 -0.2848 -0.2136
  926SOL    HW1 2777   1.697   0.168   2.479 -0.7574  0.7332 -3.9709
  926SOL    HW2 2778   1.788   0.280   2.569 -0.6032  1.7290  1.4438
  927SOL     OW 2779   2.495   2.697   1.588  0.0899 -0.5340  0.0324
  927SOL    HW1 2780   2.457   2.783   1.626 -1.1804  0.7250  3.2291
  927SOL    HW2 2781   2.485   2.622   1.654  0.5736 -1.6949  1.4623
  928SOL     OW 2782   0.576   1.023   2.770 -0.3509 -0.2111  0.4622
  928SOL    HW1 2783   0.531   0.931   2.784  1.1136 -0.8952  0.6823
  928SOL    HW2 2784   0.673   1.016   2.737  0.8544  2.2359  0.8046
  929SOL     OW 2785   0.145   0.181   1.001  0.1259 -0.0661 -0.1853
  929SOL    HW1 2786   0.132   0.129   0.916  1.0193 -1.0612  0.7053
  929SOL    HW2 2787   0.061   0.229   1.027  2.8597 -1.8845 -0.2881
  930SOL     OW 2788   2.710   0.127   1.967 -0.4632  0.3606 -0.3504
  930SOL    HW1 2789   2.628   0.128   2.034 -1.7942 -1.2993  0.4382
  930SOL    HW2 2790   2.771   0.206   1.995  0.8194  0.7867 -0.0254
  931SOL     OW 2791   2.232   1.274   3.048 -0.0856  0.2978 -0.8819
  931SOL    HW1 2792   2.299   1.300   0.033 -1.5543 -0.2846  2.2806
  931SOL    HW2 2793   2.234   1.173   3.030 -0.2877 -0.4970  0.2275
  932SOL     OW 2794   2.738   1.122   0.847  0.1917 -0.9171  0.5201
  932SOL    HW1 2795   2.721   1.168   0.936  1.9975 -0.3803 -2.9962
  932SOL    HW2 2796   2.719   1.186   0.769 -1.0338  0.0839 -0.5557
  933SOL     OW 2797   2.951   2.367   1.704 -0.7347 -0.4296  0.0180
  933SOL    HW1 2798   2.888   2.308   1.762 -0.5360  0.3495  1.7720
  933SOL    HW2 2799   2.900   2.437   1.654 -1.0133 -3.8680 -1.7405
  934SOL     OW 2800   0.692   2.904   0.980 -0.4532 -0.3751  0.4980
  934SOL    HW1 2801   0.681   2.857   1.069 -0.3760 -0.3568 -0.9490
  934SOL    HW2 2802   0.647   2.998   0.981 -0.5922  0.0889 -2.4831
  935SOL     OW 2803   2.785   0.346   2.145  0.2956  1.0786  0.9565
  935SOL    HW1 2804   2.834   0.428   2.119 -0.1709  1.2036 -0.1014
  935SOL    HW2 2805   2.832   0.284   2.207 -0.2703 -1.3056  1.5449
  936SOL     OW 2806   2.946   0.620   1.574  0.3778 -0.5156 -0.1110
  936SOL    HW1 2807   2.932   0.609   1.672 -0.8590  1.6431 -0.7636
  936SOL    HW2 2808   2.925   0.530   1.532 -0.3405 -0.9125 -0.7629
  937SOL     OW 2809   1.872   1.534   1.648  0.5264  0.3809  0.1876
  937SOL    HW1 2810   1.812   1.540   1.568  2.9347 -0.6849 -2.0846
  937SOL    HW2 2811   1.927   1.448   1.639 -0.7449  0.7922  3.0162
  938SOL     OW 2812   0.680   2.168   0.005 -0.4455  0.4207  0.3368
  938SOL    HW1 2813   0.613   2.090   0.011 -2.6364  0.2672 -0.3283
  938SOL    HW2 2814   0.764   2.144   0.052 -3.4143 -1.1117 -0.8565
  939SOL     OW 2815   1.916   0.365   2.866 -0.2267 -0.5510  0.1978
  939SOL    HW1 2816   1.963   0.437   2.924  1.8703  2.3275 -3.5827
  939SOL    HW2 2817   1.930   0.270   2.904 -2.4570 -0.4108 -0.6650
  940SOL     OW 2818   1.513   2.795   1.040  0.7596 -0.3273 -0.5879
  940SOL    HW1 2819   1.551   2.741   1.115 -1.9980  3.0311  0.3267
  940SOL    HW2 2820   1.565   2.781   0.952 -0.1655 -0.3083 -1.3242
  941SOL     OW 2821   1.324   1.899   1.829  0.0418 -0.1807  0.0422
  941SOL    HW1 2822   1.426   1.894   1.826 -1.3593  0.6021 -1.4387
  941SOL    HW2 2823   1.298   1.996   1.843  1.3573 -2.3595 -2.4302
  942SOL     OW 2824   2.923   2.000   2.879 -0.1101  0.3086 -0.0257
  942SOL    HW1 2825   2.887   1.945   2.959  0.0058  0.1998  0.5125
  942SOL    HW2 2826   2.873   1.968   2.793 -2.8250 -0.8198  0.0068
  943SOL     OW 2827   2.614   2.977   1.825 -0.2567 -0.3124 -0.4126
  943SOL    HW1 2828   2.632   3.069   1.864 -1.2438  0.0555 -0.9040
  943SOL    HW2 2829   2.686   2.964   1.748  0.4274  1.2303  0.0548
  944SOL     OW 2830   1.704   2.144   2.828  0.3737 -0.1883  0.1174
  944SOL    HW1 2831   1.722   2.045   2.831 -1.8699  0.4070  1.6114
  944SOL    HW2 2832   1.746   2.193   2.747 -1.3525  0.4881  1.8279
  945SOL     OW 2833   2.992   2.024   1.152 -0.4758 -0.2360 -0.0129
  945SOL    HW1 2834   2.899   1.984   1.165 -0.2217  1.0465 -1.3995
  945SOL    HW2 2835   3.039   2.061   1.239 -0.4717  1.1582  0.3597
  946SOL     OW 2836   1.520   1.182   0.134  0.0719  0.0129 -0.5130
  946SOL    HW1 2837   1.610   1.151   0.105 -2.2416  1.3181  0.9780
  946SOL    HW2 2838   1.443   1.133   0.086 -0.3504  1.2075 -0.8829
  947SOL     OW 2839   0.073   0.916   2.347 -0.1194  0.1375 -0.1991
  947SOL    HW1 2840   0.146   0.981   2.304  1.4717  1.2719 -1.7840
  947SOL    HW2 2841   0.087   0.821   2.316 -0.6084  1.9710 -1.2481
  948SOL     OW 2842   0.215   1.093   0.350 -0.0359 -0.6300 -0.5938
  948SOL    HW1 2843   0.185   1.154   0.428 -2.0477 -1.4718  1.8925
  948SOL    HW2 2844   0.285   1.024   0.383  2.9942  0.0081 -1.0298
  949SOL     OW 2845   0.603   0.350   2.632  0.5253  0.1902  0.2489
  949SOL    HW1 2846   0.623   0.446   2.657 -0.3023 -0.4841  3.7429
  949SOL    HW2 2847   0.662   0.314   2.555  1.6769  0.3443 -0.9091
  950SOL     OW 2848   0.041   0.461   1.294 -0.2829 -0.4527 -0.7884
  950SOL    HW1 2849   0.079   0.457   1.390 -1.7463 -0.6401 -0.5317
  950SOL    HW2 2850   0.046   0.554   1.254  1.5190 -0.3885 -1.4048
  951SOL     OW 2851   0.188   0.891   2.824  0.1313 -0.3365  0.7003
  951SOL    HW1 2852   0.148   0.925   2.733  0.7459  1.0914 -0.0869
  951SOL    HW2 2853   0.165   0.791   2.838 -4.5549  1.0290 -0.3178
  952SOL     OW 2854   2.179   2.159   1.604 -0.3741 -0.4846  0.2938
  952SOL    HW1 2855   2.135   2.071   1.626  2.0961  0.3705 -1.6552
  952SOL    HW2 2856   2.259   2.180   1.666  1.4882 -1.0950 -0.8664
  953SOL     OW 2857   0.211   2.475   2.987  0.2887 -0.4984  0.2946
  953SOL    HW1 2858   0.303   2.501   3.028  0.4162  0.3865 -1.3827
  953SOL    HW2 2859   0.163   2.411   3.054  0.2481 -0.4026  0.1374
  954SOL     OW 2860   2.514   0.739   0.926 -0.2319 -0.1758 -0.4363
  954SOL    HW1 2861   2.548   0.737   1.022  0.2605  0.3650  0.0651
  954SOL    HW2 2862   2.570   0.797   0.865  0.4373  0.3166 -1.5156
  955SOL     OW 2863   1.353   1.239   0.364  0.3550  0.0927  0.2904
  955SOL    HW1 2864   1.405   1.201   0.283 -2.9346 -0.2466  1.4906
  955SOL    HW2 2865   1.264   1.262   0.335  4.4795 -1.3896 -1.8484
  956SOL     OW 2866   1.054   0.725   2.308 -0.1753  0.0361  0.4862
  956SOL    HW1 2867   1.000   0.808   2.294  2.2159 -1.1165  2.0792
  956SOL    HW2 2868   1.063   0.705   2.410  0.7765  1.1645 -4.8569
  957SOL     OW 2869   0.465   0.437   2.202 -0.2740  0.1477 -0.1304
  957SOL    HW1 2870   0.498   0.337   2.186  0.9793 -1.0204  0.2753
  957SOL    HW2 2871   0.443   0.447   2.302 -1.1248  2.6442  0.1996
  958SOL     OW 2872   0.685   2.294   0.787  0.0569  0.2231 -0.2378
  958SOL    HW1 2873   0.686   2.230   0.866 -0.8679  0.1352  0.2152
  958SOL    HW2 2874   0.603   2.355   0.787 -1.8438  0.0216 -1.9778
  959SOL     OW 2875   2.577   0.757   2.039  0.3095  0.1536  0.0680
  959SOL    HW1 2876   2.473   0.749   2.037  0.8247 -0.3738  1.0171
  959SOL    HW2 2877   2.610   0.758   2.137 -1.9197 -1.8749  1.7655
  960SOL     OW 2878   0.183   1.304   2.621  0.0474 -0.4810  0.0695
  960SOL    HW1 2879   0.246   1.387   2.625  2.5666  1.8590  3.6231
  960SOL    HW2 2880   0.092   1.325   2.659 -0.4579 -2.0022 -0.6486
  961SOL     OW 2881   0.654   1.610   0.565  0.2883 -0.4169  0.0161
  961SOL    HW1 2882   0.742   1.662   0.568  1.8726  1.2664  2.2070
  961SOL    HW2 2883   0.679   1.510   0.572  2.2860 -4.1148  0.5280
  962SOL     OW 2884   0.439   1.499   1.108 -0.6211  0.3093 -0.1385
  962SOL    HW1 2885   0.376   1.456   1.173  0.9573 -0.9818 -0.7849
  962SOL    HW2 2886   0.446   1.598   1.132 -0.8655 -0.2515  1.0201
  963SOL     OW 2887   1.402   2.442   3.078  0.1773  0.5109  0.3871
  963SOL    HW1 2888   1.444   2.352   3.050 -0.7448 -2.1067 -2.1026
  963SOL    HW2 2889   1.371   2.494   2.998 -2.5034 -0.7437  0.8842
  964SOL     OW 2890   0.341   2.732   2.684 -0.5115  0.2625  0.2580
  964SOL    HW1 2891   0.444   2.733   2.696 -0.9766  1.4675  0.9524
  964SOL    HW2 2892   0.304   2.639   2.684  1.9000  0.9129 -1.6385
  965SOL     OW 2893   2.645   1.760   2.861  0.3657 -0.1276  0.0217
  965SOL    HW1 2894   2.583   1.695   2.813  0.7885  2.1596 -0.6891
  965SOL    HW2 2895   2.608   1.855   2.857 -2.3837  0.0164  0.9923
  966SOL     OW 2896   2.606   1.359   2.669  0.5741 -0.3558 -0.1363
  966SOL    HW1 2897   2.653   1.354   2.577 -0.0964  2.3876  2.5396
  966SOL    HW2 2898   2.542   1.282   2.677  0.8190  0.1388  1.0176
  967SOL     OW 2899   1.657   0.468   0.673  0.1286 -0.1026  0.6259
  967SOL    HW1 2900   1.752   0.470   0.711 -0.6813  0.1743  0.7304
  967SOL    HW2 2901   1.614   0.555   0.701 -0.1506 -1.1506 -2.5618
  968SOL     OW 2902   2.740   0.038   0.324 -0.2645  0.0594 -0.2349
  968SOL    HW1 2903   2.769   3.052   0.387 -1.5783 -0.0061 -0.6397
  968SOL    HW2 2904   2.677   0.100   0.382 -2.6890 -1.7068  2.9484
  969SOL     OW 2905   0.408   0.799   2.235  0.1157 -0.1554 -0.3197
  969SOL    HW1 2906   0.509   0.814   2.221 -0.3654 -0.9794 -0.8087
  969SOL    HW2 2907   0.364   0.813   2.144  0.7009 -1.7707  0.9339
  970SOL     OW 2908   1.993   1.810   2.819  0.3107 -0.0409 -0.1628
  970SOL    HW1 2909   2.041   1.897   2.797  0.9525 -1.4319  0.3744
  970SOL    HW2 2910   2.055   1.747   2.871  1.8063 -0.2721  1.1727
  971SOL     OW 2911   2.939   3.056   1.946 -0.3403 -0.1375  0.8923
  971SOL    HW1 2912   2.854   0.022   1.956  0.2865 -1.7337 -0.1009
  971SOL    HW2 2913   2.914   2.956   1.968 -0.4212  1.5709  1.3965
  972SOL     OW 2914   0.119   0.595   0.680 -0.2753  0.0808 -0.7803
  972SOL    HW1 2915   0.121   0.497   0.653  1.3287  0.4482 -0.1114
  972SOL    HW2 2916   0.199   0.634   0.630  0.5301 -0.2436  1.0748
  973SOL     OW 2917   2.872   3.076   2.418 -0.5296 -0.0306 -0.0306
  973SOL    HW1 2918   2.771   3.072   2.421  0.2713 -1.5714  1.1504
  973SOL    HW2 2919   2.902   0.074   2.369 -1.2965 -0.2320  3.7940
  974SOL     OW 2920   2.847   0.872   1.474 -0.5936 -0.1471  0.3832
  974SOL    HW1 2921   2.880   0.909   1.385 -0.5097  0.9969  1.0754
  974SOL    HW2 2922   2.872   0.776   1.485  0.2495  2.7483 -1.5467
  975SOL     OW 2923   1.393   2.761   2.410 -0.5498  0.4838  0.4224
  975SOL    HW1 2924   1.376   2.859   2.396  0.0650 -1.6185 -0.9000
  975SOL    HW2 2925   1.339   2.706   2.343 -1.0292 -1.1273  0.9968
  976SOL     OW 2926   1.991   1.361   1.382 -0.8786 -0.0600  0.2421
  976SOL    HW1 2927   1.961   1.268   1.407  0.9530  1.8346  0.6162
  976SOL    HW2 2928   1.933   1.400   1.306  1.0718  4.6158  0.6145
  977SOL     OW 2929   2.660   2.845   2.999 -0.1728  0.0101  0.4950
  977SOL    HW1 2930   2.669   2.760   3.052  0.9397  3.9372  1.2550
  977SOL    HW2 2931   2.592   2.905   3.042  0.8047  1.0236 -2.0189
  978SOL     OW 2932   1.991   1.045   2.315  0.1258 -0.4270 -0.2364
  978SOL    HW1 2933   2.092   1.034   2.325  0.4393  0.2937  0.7702
  978SOL    HW2 2934   1.953   0.952   2.316  2.7617  1.8642  0.4475
  979SOL     OW 2935   0.919   1.156   2.478  0.3069  0.0997  0.2316
  979SOL    HW1 2936   0.829   1.182   2.438  0.1919 -0.4445 -1.1720
  979SOL    HW2 2937   0.970   1.242   2.500 -1.5684 -5.1659  0.9216
  980SOL     OW 2938   1.741   1.862   2.864 -0.1742  0.2596 -0.3947
  980SOL    HW1 2939   1.694   1.789   2.812  0.8817 -1.7617 -4.8777
  980SOL    HW2 2940   1.837   1.837   2.873 -3.1275  1.3034  0.3797
  981SOL     OW 2941   1.061   0.759   1.783  0.5576 -0.3482  0.5532
  981SOL    HW1 2942   1.058   0.786   1.686 -0.3849  2.0706 -0.0170
  981SOL    HW2 2943   0.966   0.772   1.824 -1.7330 -1.0418 -0.2292
  982SOL     OW 2944   0.983   0.024   2.900  0.0924 -0.0049 -0.4708
  982SOL    HW1 2945   1.025   0.106   2.862  0.2548  1.8154  0.2353
  982SOL    HW2 2946   0.914   3.078   2.838 -0.0644 -0.2257 -0.4137
  983SOL     OW 2947   2.248   0.973   0.280 -0.0681 -0.4782 -0.6295
  983SOL    HW1 2948   2.325   0.937   0.226 -2.6645 -2.0935  0.1009
  983SOL    HW2 2949   2.278   1.029   0.359 -1.3017 -2.8459  1.9030
  984SOL     OW 2950   1.280   0.381   0.084  0.2765  0.3241 -0.1458
  984SOL    HW1 2951   1.379   0.353   0.083  2.2275  0.4131 -2.3761
  984SOL    HW2 2952   1.230   0.350   0.170 -0.7618  0.3541  0.7624
  985SOL     OW 2953   1.449   2.787   2.079  0.6027  0.4914 -0.0711
  985SOL    HW1 2954   1.515   2.845   2.131  2.3795 -2.8078  0.6621
  985SOL    HW2 2955   1.414   2.823   1.987 -0.7976 -0.1487 -1.5777
  986SOL     OW 2956   2.396   0.107   2.107 -0.2998 -0.3519 -0.1594
  986SOL    HW1 2957   2.344   0.198   2.101 -0.0769  1.0369  3.0705
  986SOL    HW2 2958   2.367   0.050   2.026 -0.8284 -0.5317 -2.0081
  987SOL     OW 2959   2.219   1.373   1.067 -0.4032 -0.3429  0.4799
  987SOL    HW1 2960   2.252   1.397   0.973  0.3283 -0.1288 -0.9986
  987SOL    HW2 2961   2.173   1.283   1.064 -0.1274  0.1223 -0.8807
  988SOL     OW 2962   2.374   1.003   1.652 -0.3379  0.2582  0.2104
  988SOL    HW1 2963   2.435   0.924   1.676  2.8425 -0.1284 -1.9767
  988SOL    HW2 2964   2.347   1.057   1.733  1.9646 -0.8550 -2.8770
  989SOL     OW 2965   2.085   2.222   0.097 -0.1482  0.4637 -0.6743
  989SOL    HW1 2966   1.989   2.207   0.062 -2.8266  1.5032 -1.2407
  989SOL    HW2 2967   2.119   2.143   0.154  0.0201 -0.0464 -0.2146
  990SOL     OW 2968   1.264   0.664   2.156 -0.2240 -0.5772 -0.1014
  990SOL    HW1 2969   1.189   0.669   2.227  0.8838  0.6102  0.4806
  990SOL    HW2 2970   1.270   0.571   2.123 -2.9885  0.5194  0.7357
  991SOL     OW 2971   1.372   1.039   0.539 -0.1911 -0.2758  0.1771
  991SOL    HW1 2972   1.466   1.025   0.560 -3.7138 -2.1780 -0.3343
  991SOL    HW2 2973   1.367   1.122   0.484 -1.1321 -0.0825 -0.1476
  992SOL     OW 2974   0.065   0.924   1.298 -0.5465 -0.1834 -0.0715
  992SOL    HW1 2975   0.104   1.014   1.327 -1.6615  1.9092  1.6242
  992SOL    HW2 2976   3.058   0.941   1.266  4.0464  1.4474  0.0494
  993SOL     OW 2977   2.546   0.480   2.183  0.3231  0.9645  0.1949
  993SOL    HW1 2978   2.481   0.421   2.133  0.0547  0.3105  1.7699
  993SOL    HW2 2979   2.644   0.454   2.163  0.7077  0.9049 -0.6520
  994SOL     OW 2980   1.610   1.919   1.745  0.0366  0.4058  0.1581
  994SOL    HW1 2981   1.685   1.852   1.769  1.9738 -3.1037  1.9594
  994SOL    HW2 2982   1.644   2.010   1.774 -1.2017 -0.0693 -0.2478
  995SOL     OW 2983   2.351   1.964   3.063  0.4492  0.8108  0.2364
  995SOL    HW1 2984   2.402   1.973   0.062  3.0567 -0.4024 -0.0688
  995SOL    HW2 2985   2.336   1.862   3.049 -0.7361 -2.8056  1.3565
  996SOL     OW 2986   2.255   1.692   0.008 -0.2634 -0.1467  0.0045
  996SOL    HW1 2987   2.160   1.671   0.044  1.4046  1.3883 -1.0289
  996SOL    HW2 2988   2.269   1.659   3.003  1.1312  0.3427 -0.0954
  997SOL     OW 2989   1.514   0.578   2.304 -0.0997  0.2060 -0.1035
  997SOL    HW1 2990   1.509   0.595   2.203 -1.3605  1.5126  0.2784
  997SOL    HW2 2991   1.440   0.633   2.353 -3.0035  3.6449 -0.1948
  998SOL     OW 2992   2.616   0.479   0.508  0.6855  0.3943 -0.8352
  998SOL    HW1 2993   2.586   0.496   0.603 -1.4859  3.5473 -1.3845
  998SOL    HW2 2994   2.583   0.393   0.467 -1.1887 -2.6194  0.7737
  999SOL     OW 2995   2.691   1.302   0.621 -0.7046  0.4836 -0.1507
  999SOL    HW1 2996   2.702   1.403   0.633 -2.5195  0.1171  1.3689
  999SOL    HW2 2997   2.765   1.255   0.563  0.4318 -1.8602 -1.7628
 1000SOL     OW 2998   0.425   1.461   2.057  0.2507 -0.9067 -0.3676
 1000SOL    HW1 2999   0.512   1.424   2.021  1.0792 -2.0729  0.5602
 1000SOL    HW2 3000   0.351   1.445   1.988 -1.5131 -1.3617  1.5496
   3.08892   3.08892   3.08892
