1000 SPC/Fw water molecules t= 340.00000 step= 340000
 3000
    1SOL     OW    1   2.481   0.183   1.358  0.3546 -0.4156 -0.0580
    1SOL    HW1    2   2.569   0.129   1.358 -1.1938  1.7557 -1.6024
    1SOL    HW2    3   2.451   0.188   1.454  1.8930  0.3341  0.9855
    2SOL     OW    4   2.679   2.571   1.082 -0.2123  0.3500  0.0361
    2SOL    HW1    5   2.689   2.643   1.156 -0.3136  1.5023 -1.1905
    2SOL    HW2    6   2.630   2.490   1.120 -0.5676 -1.4043 -1.3243
    3SOL     OW    7   1.176   2.929   2.708  0.4766  0.4275  0.7427
    3SOL    HW1    8   1.261   2.940   2.759  0.0250 -0.0270 -0.8765
    3SOL    HW2    9   1.098   2.949   2.769 -1.1318  2.1580  0.8780
    4SOL     OW   10   1.819   2.525   1.894 -0.3948 -0.3164 -0.4843
    4SOL    HW1   11   1.879   2.516   1.974 -1.5428 -2.6101 -1.1035
    4SOL    HW2   12   1.861   2.581   1.817 -1.0017 -0.5699  1.0509
    5SOL     OW   13   1.574   1.026   1.799 -0.4461 -0.5280  0.3914
    5SOL    HW1   14   1.604   0.965   1.720 -0.8198 -0.6366 -2.4345
    5SOL    HW2   15   1.500   0.981   1.854  2.0170  0.0443  2.1687
    6SOL     OW   16   1.932   2.759   0.758  0.0459  0.2845  0.3300
    6SOL    HW1   17   1.864   2.684   0.757  0.8614 -1.0887 -2.0000
    6SOL    HW2   18   2.006   2.736   0.824 -0.3133 -0.7194  1.5039
    7SOL     OW   19   1.913   1.296   1.039  0.7060 -0.1223 -0.2222
    7SOL    HW1   20   1.860   1.336   1.119  1.8915 -0.3867  3.1191
    7SOL    HW2   21   1.870   1.210   1.003 -0.3729  0.2789 -0.8702
    8SOL     OW   22   0.652   1.891   1.300 -0.7485 -0.2133 -0.0244
    8SOL    HW1   23   0.621   1.811   1.355  0.5056 -1.6447  0.7266
    8SOL    HW2   24   0.661   1.978   1.353  1.4606 -1.6622  1.6466
    9SOL     OW   25   1.225   2.324   1.995  0.0560  0.1183  0.3767
    9SOL    HW1   26   1.149   2.342   2.062 -1.9382  1.3221 -2.4865
    9SOL    HW2   27   1.201   2.246   1.929 -2.9508  0.0113 -2.8517
   10SOL     OW   28   0.275   2.097   0.749  0.5920 -0.0378  0.0949
   10SOL    HW1   29   0.364   2.054   0.768  1.0324 -0.6602 -0.8508
   10SOL    HW2   30   0.231   2.130   0.836  5.8566 -0.6820 -0.7485
   11SOL     OW   31   1.541   2.195   1.168  0.5884 -0.1324  0.3594
   11SOL    HW1   32   1.527   2.282   1.113 -2.4501  1.6135  0.8210
   11SOL    HW2   33   1.481   2.124   1.131  1.0815 -0.3332 -1.3134
   12SOL     OW   34   2.517   0.514   2.286 -0.1476 -0.2626 -0.2064
   12SOL    HW1   35   2.597   0.535   2.228  0.5954 -0.6142 -1.1675
   12SOL    HW2   36   2.503   0.412   2.283 -1.7876 -0.7874 -2.7737
   13SOL     OW   37   2.836   2.750   0.607 -0.9749  0.2264 -0.4388
   13SOL    HW1   38   2.780   2.720   0.686  3.0629  0.2297  0.6647
   13SOL    HW2   39   2.936   2.761   0.632  3.9941 -1.7618  2.1380
   14SOL     OW   40   1.561   1.552   2.981  0.0361 -0.5634  0.1645
   14SOL    HW1   41   1.622   1.473   2.997 -1.5450  2.1574 -0.4073
   14SOL    HW2   42   1.586   1.588   2.890 -1.0747  1.3802 -1.4244
   15SOL     OW   43   2.843   2.610   1.513 -0.0086 -0.6889  0.1242
   15SOL    HW1   44   2.897   2.698   1.517  0.9759  2.7049  1.8481
   15SOL    HW2   45   2.749   2.646   1.537 -0.5765  1.3783 -0.4000
   16SOL     OW   46   2.859   2.799   0.316 -0.0212 -0.2616  0.4026
   16SOL    HW1   47   2.876   2.809   0.415 -0.7353 -3.0341  0.5999
   16SOL    HW2   48   2.948   2.775   0.271  1.0309  0.9484  0.5350
   17SOL     OW   49   0.298   0.507   0.964 -0.1795 -0.5779  0.4286
   17SOL    HW1   50   0.305   0.576   1.041  2.0428  0.4817  1.2109
   17SOL    HW2   51   0.316   0.414   1.001 -0.9788  2.8681  0.5011
   18SOL     OW   52   2.202   0.576   0.467 -0.3732  0.6293  0.1621
   18SOL    HW1   53   2.186   0.676   0.455 -1.4722  3.5920  0.8671
   18SOL    HW2   54   2.272   0.564   0.539 -2.4867  1.3052 -1.9801
   19SOL     OW   55   1.786   1.722   0.184 -0.6016 -0.2324 -0.0516
   19SOL    HW1   56   1.765   1.810   0.134 -1.1374  3.6696  0.7919
   19SOL    HW2   57   1.888   1.702   0.182  0.3435  0.5677  2.4943
   20SOL     OW   58   2.412   2.071   2.233  0.3788 -0.3740  0.1071
   20SOL    HW1   59   2.366   1.994   2.189  3.3728  1.7134  4.4492
   20SOL    HW2   60   2.345   2.135   2.273  2.4861  0.1817  0.0792
   21SOL     OW   61   1.814   0.068   0.459 -0.8137 -0.1508 -0.7926
   21SOL    HW1   62   1.846   3.064   0.477 -1.2532 -1.2240  0.3854
   21SOL    HW2   63   1.892   0.135   0.464 -1.5044 -0.1142  1.0441
   22SOL     OW   64   2.667   0.358   1.764 -0.4935  0.0533 -0.6335
   22SOL    HW1   65   2.581   0.315   1.764  3.7173  1.9473  4.2315
   22SOL    HW2   66   2.681   0.410   1.678 -1.0285 -2.4438 -3.0665
   23SOL     OW   67   0.500   0.707   1.820 -0.0127  0.2557 -0.3073
   23SOL    HW1   68   0.524   0.649   1.901  0.0120 -1.9812  1.3615
   23SOL    HW2   69   0.541   0.796   1.841  1.6054  0.2453  1.1458
   24SOL     OW   70   2.672   2.597   0.438 -0.6259 -0.0485 -0.3239
   24SOL    HW1   71   2.719   2.521   0.392 -1.1915 -0.8675  0.6672
   24SOL    HW2   72   2.733   2.657   0.497  1.5709  0.3879  1.7792
   25SOL     OW   73   1.388   2.719   2.649 -0.3663  0.1214 -0.4372
   25SOL    HW1   74   1.310   2.751   2.596  1.3323  1.1702 -0.4616
   25SOL    HW2   75   1.392   2.775   2.736  0.8016  0.5908  1.7649
   26SOL     OW   76   1.074   2.501   0.058  0.2199  0.0515  0.0458
   26SOL    HW1   77   1.118   2.468   3.070  2.1119 -1.7231 -0.9305
   26SOL    HW2   78   1.137   2.550   0.119  0.3542 -1.3168 -0.0662
   27SOL     OW   79   2.336   0.729   0.143  0.5216 -0.5188 -0.1250
   27SOL    HW1   80   2.241   0.750   0.162 -0.2365  1.4784  2.0350
   27SOL    HW2   81   2.394   0.816   0.124  0.1467 -0.9507 -0.1381
   28SOL     OW   82   0.983   1.626   0.946 -0.3523  0.5280  0.3396
   28SOL    HW1   83   1.069   1.618   0.890 -0.7814  1.4144 -1.3426
   28SOL    HW2   84   0.945   1.535   0.968 -0.8792  1.4966 -2.2085
   29SOL     OW   85   2.982   2.710   1.907  0.2952 -0.1730 -0.6511
   29SOL    HW1   86   3.050   2.729   1.838 -2.3166 -2.1953  2.0847
   29SOL    HW2   87   2.944   2.617   1.890 -1.4050  1.8725 -0.1584
   30SOL     OW   88   1.130   0.018   1.186  0.1485 -0.1020  0.6167
   30SOL    HW1   89   1.193   3.038   1.167 -2.2727 -0.1004  0.3846
   30SOL    HW2   90   1.168   0.113   1.157  3.0327  2.4194  0.2042
   31SOL     OW   91   2.190   2.962   2.388  0.2487  0.3439  0.3384
   31SOL    HW1   92   2.147   2.975   2.478 -0.8155 -1.8914  0.3571
   31SOL    HW2   93   2.124   2.963   2.316 -0.2813  0.5677  0.3510
   32SOL     OW   94   0.820   1.505   0.370 -0.2337 -0.3784 -0.0198
   32SOL    HW1   95   0.912   1.510   0.410 -1.0508 -1.1439 -3.4239
   32SOL    HW2   96   0.742   1.517   0.436 -1.0283  0.3447 -0.4923
   33SOL     OW   97   0.148   1.100   2.534 -0.1639 -0.0176  0.2130
   33SOL    HW1   98   0.209   1.026   2.572  1.1718 -0.4536  2.0391
   33SOL    HW2   99   0.166   1.111   2.438 -3.0113  0.5648  0.5694
   34SOL     OW  100   2.716   3.012   0.604 -0.6677  0.2312 -0.4849
   34SOL    HW1  101   2.758   2.919   0.612  1.0356  2.7607 -0.4946
   34SOL    HW2  102   2.777   3.081   0.561 -1.8543  1.6493 -1.3585
   35SOL     OW  103   2.431   2.999   2.088  0.2725 -0.5214  0.3209
   35SOL    HW1  104   2.411   2.902   2.059  1.7446  0.6290 -0.9158
   35SOL    HW2  105   2.456   3.006   2.183  0.0754  1.3093 -2.6157
   36SOL     OW  106   2.163   2.200   3.076 -0.2153 -0.1096  0.6510
   36SOL    HW1  107   2.241   2.247   3.026 -0.5762 -2.2270  1.2113
   36SOL    HW2  108   2.097   2.170   3.004 -1.6057 -0.9128 -0.9432
   37SOL     OW  109   1.508   0.144   1.955  0.6281 -0.1490  0.7228
   37SOL    HW1  110   1.529   0.046   1.979 -0.9561 -1.4636 -1.9539
   37SOL    HW2  111   1.421   0.151   1.901 -1.8676 -2.5193 -0.6159
   38SOL     OW  112   0.293   0.563   2.645  0.1228 -0.0984  0.1204
   38SOL    HW1  113   0.285   0.626   2.568  0.4986 -1.2290  1.1814
   38SOL    HW2  114   0.381   0.508   2.627  1.8675  1.8571  0.8781
   39SOL     OW  115   1.873   1.351   1.555  0.2891  0.0293  0.1053
   39SOL    HW1  116   1.943   1.293   1.514 -0.7675 -0.3316  1.3330
   39SOL    HW2  117   1.885   1.339   1.655  1.9142  0.0368  1.4092
   40SOL     OW  118   1.224   2.761   0.363  0.1884  0.0111 -0.2157
   40SOL    HW1  119   1.290   2.837   0.379 -1.9306 -1.0853 -0.6619
   40SOL    HW2  120   1.288   2.680   0.356  1.1249 -1.8403 -2.0438
   41SOL     OW  121   2.152   1.251   0.720 -0.3216  0.3216  0.6991
   41SOL    HW1  122   2.094   1.318   0.763 -1.0447  2.8096 -1.5340
   41SOL    HW2  123   2.240   1.297   0.690  3.8701  0.2374  1.6085
   42SOL     OW  124   0.868   0.311   1.253  0.3405  0.0003 -0.1310
   42SOL    HW1  125   0.883   0.319   1.155 -1.6415  0.9451  2.1440
   42SOL    HW2  126   0.939   0.260   1.307  2.7585  0.9115  0.6731
   43SOL     OW  127   3.090   1.519   2.319  0.2267 -0.9875  0.1159
   43SOL    HW1  128   3.029   1.444   2.330  1.3945 -0.1547 -0.6981
   43SOL    HW2  129   0.079   1.507   2.371 -2.1701  0.0718  1.4314
   44SOL     OW  130   2.477   0.010   1.599 -0.0253 -0.0688  0.2930
   44SOL    HW1  131   2.454   0.093   1.655 -0.1312  1.8274  0.3510
   44SOL    HW2  132   2.484   3.026   1.661 -2.9242 -1.0558  1.6332
   45SOL     OW  133   1.133   2.955   2.006  0.2897 -0.0772 -0.4104
   45SOL    HW1  134   1.193   3.015   2.066 -2.2728 -1.7521 -1.8856
   45SOL    HW2  135   1.193   2.895   1.947 -0.1807 -1.3213 -1.0112
   46SOL     OW  136   1.158   2.377   2.477  0.3329 -0.0475  0.2417
   46SOL    HW1  137   1.248   2.341   2.505  0.3651 -1.9533 -2.4287
   46SOL    HW2  138   1.139   2.473   2.509 -0.9244  2.2314 -2.1272
   47SOL     OW  139   1.385   1.692   0.651  0.2826 -0.0760 -0.2246
   47SOL    HW1  140   1.384   1.661   0.554 -0.3090  1.8829  1.1621
   47SOL    HW2  141   1.461   1.645   0.698 -1.0370 -0.7921  0.8440
   48SOL     OW  142   1.143   2.301   0.787 -0.2191  0.0373 -0.1768
   48SOL    HW1  143   1.065   2.311   0.725 -0.7714  1.1085 -0.9441
   48SOL    HW2  144   1.146   2.381   0.854 -0.4831  3.1047  4.6445
   49SOL     OW  145   2.243   2.956   2.829  0.0099  0.8172  0.4177
   49SOL    HW1  146   2.184   3.001   2.760 -0.1080  0.3886 -1.1359
   49SOL    HW2  147   2.183   2.911   2.897 -1.8414  2.7265  2.8324
   50SOL     OW  148   1.814   0.038   2.843 -0.3316 -0.1505  0.0960
   50SOL    HW1  149   1.877   0.091   2.906 -1.2342  2.0770  0.2193
   50SOL    HW2  150   1.773   0.099   2.773  2.1188  0.8057  0.5033
   51SOL     OW  151   2.420   0.614   1.336 -0.4141 -0.8740  0.0440
   51SOL    HW1  152   2.448   0.716   1.334  1.1965  1.0362 -0.2386
   51SOL    HW2  153   2.501   0.553   1.318  2.3690 -1.5273 -2.1807
   52SOL     OW  154   1.034   1.475   0.541 -0.4373 -0.3687  0.2136
   52SOL    HW1  155   1.077   1.538   0.467  2.1034  1.3617  0.0961
   52SOL    HW2  156   1.057   1.518   0.630 -2.5844  0.6434 -2.2470
   53SOL     OW  157   0.116   1.606   2.680 -0.1454  0.8808 -0.1669
   53SOL    HW1  158   0.094   1.703   2.654 -1.8286  0.5590 -2.5994
   53SOL    HW2  159   0.140   1.608   2.780  0.3813  2.8129  0.0947
   54SOL     OW  160   2.679   1.310   1.749  0.6252 -0.1219  0.5043
   54SOL    HW1  161   2.705   1.376   1.678 -3.9703  1.2632 -1.8326
   54SOL    HW2  162   2.679   1.351   1.840  0.6229 -0.3914  2.4992
   55SOL     OW  163   2.346   1.982   0.524  0.4556 -0.1663  0.1677
   55SOL    HW1  164   2.389   1.904   0.573 -1.0553 -1.1598  4.4370
   55SOL    HW2  165   2.292   2.033   0.591  0.7727 -1.2633  0.2569
   56SOL     OW  166   1.555   0.267   1.530 -0.1989  0.1456  0.1512
   56SOL    HW1  167   1.606   0.346   1.559 -3.2016 -4.1856 -1.6133
   56SOL    HW2  168   1.462   0.281   1.567 -2.0008  2.2723 -2.0272
   57SOL     OW  169   1.770   1.109   2.820 -0.5704  0.0072 -0.3746
   57SOL    HW1  170   1.773   1.009   2.806  0.6619  1.2199 -1.9533
   57SOL    HW2  171   1.709   1.138   2.898  0.3699  0.7372 -0.1838
   58SOL     OW  172   3.052   0.545   1.168  0.3970  0.4719 -0.0944
   58SOL    HW1  173   0.030   0.613   1.167 -1.3202  2.3301  2.4148
   58SOL    HW2  174   3.001   0.538   1.080 -1.5452  1.0374  0.0247
   59SOL     OW  175   1.602   2.781   0.268  0.5358  0.4389 -0.3465
   59SOL    HW1  176   1.545   2.863   0.289  1.8392  1.0871 -0.1564
   59SOL    HW2  177   1.602   2.715   0.344  0.7003 -2.0896 -1.8050
   60SOL     OW  178   2.786   1.705   2.951 -0.0655 -0.2856 -0.5065
   60SOL    HW1  179   2.852   1.702   3.029 -0.5203  0.5646  1.4749
   60SOL    HW2  180   2.698   1.735   2.984  2.0096 -2.8891 -1.7137
   61SOL     OW  181   0.859   2.589   0.772  0.1218  0.2693  0.2357
   61SOL    HW1  182   0.881   2.656   0.847  0.7146 -1.2351 -1.4044
   61SOL    HW2  183   0.830   2.498   0.818 -1.0646  0.1755 -1.5772
   62SOL     OW  184   1.783   1.343   2.682  0.0451 -0.0618 -0.6774
   62SOL    HW1  185   1.708   1.409   2.697  0.7542  0.9249  1.3601
   62SOL    HW2  186   1.779   1.265   2.745  0.1077  1.7565  0.2935
   63SOL     OW  187   2.235   2.255   0.223 -0.2381  0.2082 -0.1874
   63SOL    HW1  188   2.253   2.357   0.212  0.3206  3.6989 -1.6924
   63SOL    HW2  189   2.209   2.227   0.129  0.8554  1.3801 -1.8015
   64SOL     OW  190   1.705   0.856   0.042 -0.5172 -0.6314 -0.3235
   64SOL    HW1  191   1.627   0.860   3.070  0.1615  0.2068 -1.3336
   64SOL    HW2  192   1.675   0.793   0.113  0.5032 -0.2756  1.0857
   65SOL     OW  193   1.909   1.762   2.289 -0.3817  0.2365  0.4162
   65SOL    HW1  194   2.008   1.759   2.296 -1.6284 -3.9950 -1.1969
   65SOL    HW2  195   1.878   1.822   2.213  1.0952  1.2310 -0.7658
   66SOL     OW  196   0.286   1.133   1.093 -0.4623  0.4870  0.1663
   66SOL    HW1  197   0.254   1.099   1.000 -0.8511 -1.7659 -2.8137
   66SOL    HW2  198   0.219   1.199   1.131 -0.1382  1.0307  0.6889
   67SOL     OW  199   2.063   3.019   2.629  0.3076 -0.0187  0.2861
   67SOL    HW1  200   2.040   0.007   2.571 -2.4997  0.0947  0.9216
   67SOL    HW2  201   1.995   2.946   2.620  0.5907  0.4450  0.3034
   68SOL     OW  202   1.159   2.421   1.384 -0.0485  0.0324 -0.1350
   68SOL    HW1  203   1.184   2.453   1.290  1.4340 -1.4824  0.5814
   68SOL    HW2  204   1.243   2.391   1.433  0.5281  3.0341  1.3779
   69SOL     OW  205   0.711   2.553   2.947  0.4042  0.5141  0.0027
   69SOL    HW1  206   0.756   2.586   3.035 -0.3948 -2.2667  0.5727
   69SOL    HW2  207   0.756   2.469   2.917  0.1889  3.5374 -0.2001
   70SOL     OW  208   3.089   0.564   2.367  0.3194 -0.1615  0.2932
   70SOL    HW1  209   3.095   0.582   2.267 -1.8318  1.1638  0.3458
   70SOL    HW2  210   3.056   0.648   2.414  0.1536  0.1527  1.4406
   71SOL     OW  211   0.909   1.537   2.884  0.1279 -0.3839 -0.1645
   71SOL    HW1  212   0.856   1.505   2.798  2.1995 -0.6423 -2.5547
   71SOL    HW2  213   0.847   1.599   2.939 -2.5076  0.0019  3.5546
   72SOL     OW  214   2.990   1.762   2.210 -0.0905  0.1383  0.0399
   72SOL    HW1  215   3.018   1.669   2.239  2.6049 -2.2172 -1.3590
   72SOL    HW2  216   3.069   1.822   2.221 -0.3113 -2.0148 -0.6686
   73SOL     OW  217   1.706   1.264   0.362  0.2321 -0.6940  0.2128
   73SOL    HW1  218   1.737   1.195   0.295 -1.9216  1.4818  2.4144
   73SOL    HW2  219   1.754   1.244   0.448  0.9387  1.3936  0.9282
   74SOL     OW  220   2.485   2.619   2.773  0.7348  0.0153  0.1916
   74SOL    HW1  221   2.504   2.681   2.699  0.9720 -1.5850  2.1827
   74SOL    HW2  222   2.392   2.566   2.765 -1.9298 -3.1963 -1.7466
   75SOL     OW  223   2.026   1.976   0.846 -0.3735  0.4003 -0.6648
   75SOL    HW1  224   1.966   2.018   0.918 -1.3328 -1.2316 -0.1806
   75SOL    HW2  225   2.022   1.873   0.850 -0.3092 -0.7340 -0.7885
   76SOL     OW  226   2.625   2.093   2.074 -0.0440  0.2450  0.0222
   76SOL    HW1  227   2.549   2.085   2.139  2.2306 -1.1348 -3.2074
   76SOL    HW2  228   2.615   2.176   2.010  1.5365  1.6187  1.2562
   77SOL     OW  229   2.751   0.158   2.297 -0.4131 -0.0207  0.0103
   77SOL    HW1  230   2.700   0.195   2.215  1.6544  1.3563 -0.0411
   77SOL    HW2  231   2.813   0.231   2.319 -0.7242 -1.4730  2.0317
   78SOL     OW  232   2.041   1.162   0.087  0.7057 -0.1902 -0.0141
   78SOL    HW1  233   2.059   1.151   3.083  2.2444 -0.0135  0.5080
   78SOL    HW2  234   2.110   1.232   0.122  0.5121  2.0486 -0.6043
   79SOL     OW  235   2.517   1.547   2.610 -0.8129 -0.6063 -0.2145
   79SOL    HW1  236   2.478   1.511   2.523 -2.4173  2.2181 -0.9888
   79SOL    HW2  237   2.565   1.636   2.602 -3.9506 -1.7735 -1.2025
   80SOL     OW  238   1.414   1.619   1.561 -0.2594 -0.4066  0.2681
   80SOL    HW1  239   1.496   1.676   1.542  0.1810 -1.3383 -2.2127
   80SOL    HW2  240   1.424   1.558   1.643  2.1304 -0.8343  0.6674
   81SOL     OW  241   1.941   0.649   1.888 -0.8614  0.3683 -0.5827
   81SOL    HW1  242   1.892   0.676   1.976  1.2455  1.0491  2.0083
   81SOL    HW2  243   1.960   0.734   1.835  0.9534  1.8626 -0.2757
   82SOL     OW  244   1.659   1.762   1.429 -0.2100 -0.0710  0.4304
   82SOL    HW1  245   1.746   1.710   1.445  1.5318 -1.0162  1.2129
   82SOL    HW2  246   1.637   1.757   1.327 -1.5339 -1.6979 -2.3917
   83SOL     OW  247   0.198   0.200   0.186  0.4516 -0.8181  0.3649
   83SOL    HW1  248   0.240   0.206   0.094  1.6588  1.1359  0.0442
   83SOL    HW2  249   0.117   0.137   0.181  0.2105  2.2073  2.4158
   84SOL     OW  250   0.500   0.934   0.041  0.4324 -0.0507 -0.1487
   84SOL    HW1  251   0.552   0.893   0.118 -0.9788  0.4314 -1.5273
   84SOL    HW2  252   0.438   0.858   3.095  0.3738 -1.1097 -3.1648
   85SOL     OW  253   2.619   1.857   1.299  0.1231 -0.7259 -0.3060
   85SOL    HW1  254   2.544   1.872   1.234  1.3917 -0.6251  1.7166
   85SOL    HW2  255   2.703   1.916   1.290 -0.0588  0.5035  0.7588
   86SOL     OW  256   0.498   2.640   1.329 -0.4215  0.1841  0.0556
   86SOL    HW1  257   0.554   2.553   1.341  0.7787  1.3609 -0.4271
   86SOL    HW2  258   0.461   2.642   1.230  0.1120 -0.5150 -1.9740
   87SOL     OW  259   0.627   2.443   2.312  0.4347 -0.2067  0.3825
   87SOL    HW1  260   0.684   2.491   2.241  0.9130 -2.3977  2.0740
   87SOL    HW2  261   0.543   2.403   2.269  0.9323  0.1851  1.7442
   88SOL     OW  262   0.164   2.268   0.339  0.0496 -0.0989 -0.0225
   88SOL    HW1  263   0.169   2.167   0.337 -0.8051  1.0319 -2.8059
   88SOL    HW2  264   0.182   2.299   0.433 -1.5661  0.4631  0.1355
   89SOL     OW  265   0.993   0.867   0.953  0.0186 -0.0825  0.7348
   89SOL    HW1  266   1.006   0.765   0.944 -0.0219  1.4451  0.1830
   89SOL    HW2  267   0.962   0.886   1.049 -1.0638  0.9288  2.6098
   90SOL     OW  268   0.247   1.208   1.711 -0.0456 -0.0056  0.1926
   90SOL    HW1  269   0.229   1.307   1.695  0.2486 -1.4345  0.6533
   90SOL    HW2  270   0.339   1.202   1.756  2.7467 -0.3823  0.8269
   91SOL     OW  271   1.067   0.613   0.882  0.1685  0.0764 -0.2519
   91SOL    HW1  272   0.998   0.554   0.840  0.9757  1.4821 -1.1552
   91SOL    HW2  273   1.117   0.566   0.963  1.9507 -2.0901  1.6223
   92SOL     OW  274   1.763   1.063   0.965  0.4156 -0.0210  0.5452
   92SOL    HW1  275   1.812   1.011   0.889 -0.4615  0.4841  1.2593
   92SOL    HW2  276   1.678   1.013   0.997 -0.2700 -2.0746 -0.7128
   93SOL     OW  277   2.603   1.006   2.195  0.0468 -0.0341 -0.2534
   93SOL    HW1  278   2.676   0.939   2.222 -0.2789 -3.8807  1.4615
   93SOL    HW2  279   2.517   0.996   2.248 -0.1853 -1.1442  0.0859
   94SOL     OW  280   1.956   1.843   2.677 -1.0245  0.3166  0.2779
   94SOL    HW1  281   1.904   1.862   2.590 -1.7671 -0.7591  1.1698
   94SOL    HW2  282   2.057   1.850   2.658  0.8482 -1.4617 -2.2429
   95SOL     OW  283   2.770   0.458   1.527  0.0079  0.2793  0.1668
   95SOL    HW1  284   2.855   0.512   1.523 -0.0521  1.1362 -0.1908
   95SOL    HW2  285   2.751   0.404   1.443 -2.4417 -1.2415  2.4097
   96SOL     OW  286   2.538   2.907   1.780 -0.0516  0.0297  0.6050
   96SOL    HW1  287   2.614   2.947   1.839  1.2556 -3.5267 -0.0880
   96SOL    HW2  288   2.459   2.886   1.840 -1.9272 -2.0087 -1.4223
   97SOL     OW  289   2.587   0.980   1.493 -0.1739  0.2318 -0.4116
   97SOL    HW1  290   2.611   0.885   1.520  0.1829 -0.8278  0.5373
   97SOL    HW2  291   2.569   1.031   1.578 -1.1058  0.2853 -1.0916
   98SOL     OW  292   1.714   2.241   1.617 -0.5086 -0.3346  0.4736
   98SOL    HW1  293   1.719   2.141   1.620 -0.3015 -1.1879  1.4456
   98SOL    HW2  294   1.730   2.279   1.713 -0.3986 -1.0488 -1.8034
   99SOL     OW  295   0.531   2.393   1.526  0.2508  0.2209 -0.4674
   99SOL    HW1  296   0.590   2.390   1.444  0.2259 -1.9620  1.2639
   99SOL    HW2  297   0.557   2.464   1.593  0.6600 -1.7404  0.2717
  100SOL     OW  298   1.196   0.526   2.634 -0.2883  0.2151 -0.1339
  100SOL    HW1  299   1.266   0.459   2.671  3.1834  1.2780  2.4711
  100SOL    HW2  300   1.125   0.541   2.705  2.3397 -0.1712 -1.2555
  101SOL     OW  301   2.510   0.151   2.713  0.1282  0.4782  0.1867
  101SOL    HW1  302   2.489   0.046   2.711  0.5550  0.4089  1.3905
  101SOL    HW2  303   2.534   0.187   2.808  1.8616  0.5133 -0.0182
  102SOL     OW  304   0.495   0.656   1.402  0.2660  0.4643 -0.4130
  102SOL    HW1  305   0.458   0.626   1.319 -0.0920  1.1480  3.3572
  102SOL    HW2  306   0.484   0.588   1.477 -0.5556  1.1202 -0.2631
  103SOL     OW  307   1.000   0.676   2.422  0.3654  0.1004 -0.3973
  103SOL    HW1  308   0.994   0.586   2.380 -0.9726 -0.4758 -0.7198
  103SOL    HW2  309   1.091   0.715   2.420 -1.4967  0.4313 -0.2430
  104SOL     OW  310   1.017   0.955   2.632 -0.3672 -0.5822 -0.1714
  104SOL    HW1  311   0.988   1.017   2.711 -1.5663 -1.8179  2.5070
  104SOL    HW2  312   1.097   0.898   2.654 -0.9873  0.9497 -1.9603
  105SOL     OW  313   2.150   2.095   1.647  0.1079  0.5998 -0.2322
  105SOL    HW1  314   2.146   2.128   1.747  2.4714  1.7044  1.5189
  105SOL    HW2  315   2.229   2.141   1.601 -1.0001 -0.1514 -0.2833
  106SOL     OW  316   1.882   2.897   0.532  0.5327  0.1919  0.9104
  106SOL    HW1  317   1.908   2.850   0.621 -1.1612 -2.5867 -0.2928
  106SOL    HW2  318   1.936   2.860   0.454  1.6705  0.4816 -2.8518
  107SOL     OW  319   2.322   1.935   0.941  0.3142 -0.2468 -0.3082
  107SOL    HW1  320   2.228   1.958   0.917  0.2764  0.4136 -0.1665
  107SOL    HW2  321   2.361   1.875   0.872  0.8016  2.8443  3.6502
  108SOL     OW  322   2.684   0.019   1.433 -0.0812 -0.0798  0.0173
  108SOL    HW1  323   2.609   3.093   1.496 -0.8962 -0.0026 -1.7837
  108SOL    HW2  324   2.760   0.060   1.491  2.1784  0.8002  0.3289
  109SOL     OW  325   2.029   2.427   0.964 -0.1663  0.2752 -0.1547
  109SOL    HW1  326   2.006   2.406   1.063  1.8023 -0.0166 -2.4899
  109SOL    HW2  327   2.053   2.526   0.968 -0.2664 -3.1480  2.2607
  110SOL     OW  328   0.692   1.674   1.960 -0.1138 -0.3238 -0.0600
  110SOL    HW1  329   0.650   1.663   1.865 -0.7026  1.5753 -2.2851
  110SOL    HW2  330   0.637   1.751   2.009 -2.3101  0.1644  0.1808
  111SOL     OW  331   1.713   2.166   2.235 -0.5193  0.0184  0.0735
  111SOL    HW1  332   1.801   2.197   2.195 -0.9668  2.0737 -0.1167
  111SOL    HW2  333   1.658   2.141   2.154  3.0602  1.4161  0.7826
  112SOL     OW  334   1.576   1.717   2.499  0.2904 -0.2825 -0.0517
  112SOL    HW1  335   1.517   1.740   2.416 -0.6883  0.2181  1.3474
  112SOL    HW2  336   1.665   1.767   2.481  1.4589  1.6116 -1.1374
  113SOL     OW  337   1.717   1.962   1.643  0.1003 -0.5035  0.1210
  113SOL    HW1  338   1.640   1.951   1.711 -2.4847  2.0754  1.0981
  113SOL    HW2  339   1.711   1.897   1.567  2.1467 -0.5302  1.2489
  114SOL     OW  340   2.853   1.125   0.965  0.4693 -0.1232 -0.1001
  114SOL    HW1  341   2.901   1.059   1.025  0.1381  0.4230 -0.4774
  114SOL    HW2  342   2.780   1.079   0.909 -1.0820  0.0907  0.1402
  115SOL     OW  343   0.592   0.816   0.255  0.4752 -0.7161 -0.9082
  115SOL    HW1  344   0.600   0.851   0.353  0.8528 -0.3674  1.0474
  115SOL    HW2  345   0.556   0.719   0.248  0.1059 -1.2312 -0.1656
  116SOL     OW  346   2.606   1.815   2.609  0.0010  0.1791 -0.0899
  116SOL    HW1  347   2.582   1.889   2.547  0.7276 -3.1600  3.4296
  116SOL    HW2  348   2.620   1.861   2.700  0.9018  1.9744 -0.4185
  117SOL     OW  349   3.092   2.769   0.701  0.0361  0.1399 -0.2036
  117SOL    HW1  350   0.046   2.703   0.639  1.6319 -1.0772  0.6636
  117SOL    HW2  351   0.021   2.765   0.801 -0.1726 -1.4687  2.9559
  118SOL     OW  352   0.815   1.463   2.623  0.5537 -0.4331 -0.2105
  118SOL    HW1  353   0.833   1.555   2.583 -1.0958 -0.3241  1.2112
  118SOL    HW2  354   0.872   1.387   2.583  0.4520  1.9682  1.9706
  119SOL     OW  355   0.502   2.075   0.319  0.1038 -0.5661 -0.3658
  119SOL    HW1  356   0.440   2.029   0.383  1.0220 -0.6005  0.4392
  119SOL    HW2  357   0.527   2.169   0.339  2.0152 -1.0493 -1.7607
  120SOL     OW  358   1.441   0.353   0.297 -0.2547 -0.0782 -0.1735
  120SOL    HW1  359   1.519   0.295   0.282  0.7654  0.3515 -1.2781
  120SOL    HW2  360   1.439   0.375   0.396 -0.9757 -0.2216  0.7470
  121SOL     OW  361   1.373   2.546   0.394  0.5521 -0.8269  0.2924
  121SOL    HW1  362   1.460   2.540   0.342 -0.7484 -0.6100 -0.7080
  121SOL    HW2  363   1.340   2.448   0.411 -2.8539 -1.6859  0.0539
  122SOL     OW  364   2.378   2.483   1.891 -0.5457 -0.8414  0.2256
  122SOL    HW1  365   2.335   2.430   1.813  0.5990 -4.1442 -1.7376
  122SOL    HW2  366   2.475   2.458   1.885  1.2782  1.1975  1.6220
  123SOL     OW  367   0.670   1.754   0.626  0.3658 -0.1251 -0.4713
  123SOL    HW1  368   0.693   1.803   0.539 -0.4890  2.2472 -1.7907
  123SOL    HW2  369   0.726   1.782   0.707  1.5618 -2.1277 -2.7695
  124SOL     OW  370   2.911   0.775   0.210 -0.4146  0.2346 -0.0735
  124SOL    HW1  371   2.996   0.720   0.211 -1.8790 -0.0148  0.1746
  124SOL    HW2  372   2.835   0.736   0.265 -1.9948  1.0842 -0.7783
  125SOL     OW  373   0.557   0.901   0.512  0.0971 -0.4255  0.2941
  125SOL    HW1  374   0.457   0.898   0.539 -2.5281  1.2185 -1.5187
  125SOL    HW2  375   0.592   0.992   0.533 -1.8802 -0.8718  1.0568
  126SOL     OW  376   2.919   1.841   0.760  0.0152  0.3347 -0.3073
  126SOL    HW1  377   2.864   1.798   0.837  2.0853 -0.8936  3.2230
  126SOL    HW2  378   3.011   1.856   0.795  0.1222 -1.1729  1.0084
  127SOL     OW  379   1.416   2.026   1.709  0.7340  0.0987  0.7612
  127SOL    HW1  380   1.448   1.988   1.797  0.8458 -1.2936 -1.1185
  127SOL    HW2  381   1.317   2.061   1.718 -5.5734 -0.8151 -0.6610
  128SOL     OW  382   0.929   1.140   0.073  0.1804 -0.0031  0.0481
  128SOL    HW1  383   0.903   1.211   0.007 -0.6651 -2.4020 -0.4990
  128SOL    HW2  384   1.024   1.153   0.113  0.6710 -1.9813  0.2515
  129SOL     OW  385   1.612   1.747   1.173 -0.1531  0.2508  0.2318
  129SOL    HW1  386   1.630   1.799   1.086 -1.5715 -0.9884 -0.7432
  129SOL    HW2  387   1.535   1.682   1.165 -0.1948  1.1175 -0.8862
  130SOL     OW  388   2.189   1.555   1.511 -0.7371 -0.1009 -0.7916
  130SOL    HW1  389   2.113   1.618   1.524 -0.2397  2.5245  0.9350
  130SOL    HW2  390   2.233   1.533   1.601  1.0269  2.2950 -2.6286
  131SOL     OW  391   0.153   2.833   2.732  0.0959  0.2213  0.0695
  131SOL    HW1  392   0.079   2.785   2.678  2.7921 -0.5780 -1.4042
  131SOL    HW2  393   0.240   2.798   2.698 -5.4943  1.8117 -0.0459
  132SOL     OW  394   2.514   1.586   0.640 -0.3906  0.2227 -0.0952
  132SOL    HW1  395   2.591   1.567   0.576 -0.2634 -0.4622  1.3837
  132SOL    HW2  396   2.547   1.589   0.742  1.8751 -1.0902  2.8072
  133SOL     OW  397   0.492   3.081   1.893 -0.0386 -0.2129  0.2134
  133SOL    HW1  398   0.481   2.977   1.894  0.1953 -2.2645 -0.8955
  133SOL    HW2  399   0.488   0.035   1.980 -0.5836  3.3372 -0.7039
  134SOL     OW  400   0.092   1.776   3.070 -0.5098  0.3060  0.3704
  134SOL    HW1  401   0.007   1.770   0.027 -1.0074  1.3654 -0.8823
  134SOL    HW2  402   0.092   1.865   3.021  1.3925  1.8362 -0.0875
  135SOL     OW  403   1.464   0.640   1.998 -0.4298  0.3030  0.0516
  135SOL    HW1  404   1.425   0.733   1.989  0.0491  0.7935  1.2693
  135SOL    HW2  405   1.521   0.620   1.916 -0.8525 -2.1472  0.6158
  136SOL     OW  406   2.727   1.525   0.482 -0.2344 -0.2352  0.1664
  136SOL    HW1  407   2.796   1.595   0.514  2.3704  3.7921 -0.2569
  136SOL    HW2  408   2.746   1.498   0.387 -0.9670 -1.2874  1.1197
  137SOL     OW  409   2.818   1.730   0.990 -0.0159 -0.2454  0.6148
  137SOL    HW1  410   2.762   1.672   1.049 -1.7663  0.1016 -0.0602
  137SOL    HW2  411   2.885   1.785   1.043 -0.8235 -0.9946 -0.8849
  138SOL     OW  412   2.662   0.649   1.110 -0.0533 -0.1683 -0.4916
  138SOL    HW1  413   2.672   0.561   1.168  0.0559 -3.2109  0.0404
  138SOL    HW2  414   2.622   0.726   1.163  0.4929  0.5690  0.3393
  139SOL     OW  415   1.330   2.565   2.974  0.7617  0.4313  0.5464
  139SOL    HW1  416   1.387   2.644   3.009 -1.5738 -0.3635  1.7925
  139SOL    HW2  417   1.244   2.600   2.933  1.1786 -2.9117  0.3739
  140SOL     OW  418   1.021   1.843   1.108  0.1092 -0.4582 -0.4459
  140SOL    HW1  419   1.002   1.752   1.067 -0.7328 -0.3216 -1.2318
  140SOL    HW2  420   1.066   1.908   1.047  1.1806  0.3128  1.6537
  141SOL     OW  421   1.316   2.292   0.464  0.2380  0.3396  0.8094
  141SOL    HW1  422   1.261   2.223   0.410 -1.4375 -0.2596  0.6363
  141SOL    HW2  423   1.380   2.245   0.530  1.6572  2.3020 -0.1084
  142SOL     OW  424   0.845   0.441   0.793  0.2621  0.7979 -0.4751
  142SOL    HW1  425   0.800   0.529   0.766  1.7203  0.3093 -3.0914
  142SOL    HW2  426   0.844   0.370   0.720  0.3382 -0.9390 -1.4179
  143SOL     OW  427   0.784   1.297   3.024  0.1977 -0.6110 -0.0617
  143SOL    HW1  428   0.731   1.371   2.973 -1.1548  0.0638  1.4049
  143SOL    HW2  429   0.735   1.210   3.000 -1.2411  0.3455 -1.9462
  144SOL     OW  430   1.717   2.585   0.756 -0.5674 -0.8227  0.2294
  144SOL    HW1  431   1.624   2.567   0.717  1.0429 -1.7648 -0.6312
  144SOL    HW2  432   1.791   2.529   0.715  0.3102 -2.1147 -0.0792
  145SOL     OW  433   1.998   0.547   2.676  0.4771 -0.1569  0.1226
  145SOL    HW1  434   1.999   0.540   2.573  0.3169  1.7482 -1.9441
  145SOL    HW2  435   2.089   0.553   2.716 -1.8676  0.5721  1.9127
  146SOL     OW  436   0.213   2.926   0.290  0.1666  0.6650  0.3683
  146SOL    HW1  437   0.190   2.931   0.388  0.8460 -0.8459 -0.4641
  146SOL    HW2  438   0.290   2.990   0.271  0.7409 -1.6653  2.6963
  147SOL     OW  439   2.108   0.379   2.186 -0.0084 -0.3656  0.3015
  147SOL    HW1  440   2.182   0.393   2.253 -0.8276 -1.0182  1.3079
  147SOL    HW2  441   2.110   0.444   2.111  0.6910  2.8876  3.3103
  148SOL     OW  442   1.272   0.293   1.879  0.3781  0.3869  0.4657
  148SOL    HW1  443   1.310   0.348   1.959  3.2749 -1.2964  2.1140
  148SOL    HW2  444   1.190   0.236   1.912 -2.5399 -0.2199 -0.3457
  149SOL     OW  445   1.615   0.264   2.177  0.6518 -0.8641  0.0117
  149SOL    HW1  446   1.656   0.359   2.158  2.2768  1.9610 -1.9159
  149SOL    HW2  447   1.572   0.226   2.094  1.9774 -0.6640 -3.3545
  150SOL     OW  448   0.024   0.075   3.033 -0.0656  0.2081 -0.0742
  150SOL    HW1  449   3.071   0.109   0.018  0.8449 -0.2634 -0.9262
  150SOL    HW2  450   3.070   0.092   2.948  1.7139  2.1327  1.0224
  151SOL     OW  451   0.488   1.274   0.287 -0.0468  0.3632 -0.0273
  151SOL    HW1  452   0.441   1.230   0.205 -0.8898 -1.0031 -1.8179
  151SOL    HW2  453   0.561   1.337   0.258 -0.3713  1.1952  0.9691
  152SOL     OW  454   2.986   0.284   0.430  0.5721 -0.7051 -0.0656
  152SOL    HW1  455   2.920   0.349   0.382 -1.2173  1.9303 -1.5039
  152SOL    HW2  456   3.000   0.322   0.527  0.1076  0.1081  0.3557
  153SOL     OW  457   2.607   0.422   1.241 -0.6440  0.0397  0.0733
  153SOL    HW1  458   2.553   0.339   1.243 -1.3627  1.5217 -2.0448
  153SOL    HW2  459   2.695   0.397   1.198 -0.3118  0.0402  0.3781
  154SOL     OW  460   1.585   2.993   2.062 -0.2866  0.7177  0.4383
  154SOL    HW1  461   1.677   3.004   2.017  0.6281  2.4722  0.5887
  154SOL    HW2  462   1.559   2.897   2.062  2.2326  0.1008 -1.3351
  155SOL     OW  463   0.094   1.866   0.798  0.5225  0.4063 -0.0288
  155SOL    HW1  464   0.152   1.949   0.791 -2.2602  0.3617 -0.0763
  155SOL    HW2  465   0.138   1.783   0.755  3.8347  1.4258 -1.6223
  156SOL     OW  466   2.156   1.880   2.937 -0.3626  0.5786 -0.1930
  156SOL    HW1  467   2.224   1.900   2.865 -3.3618 -1.6705  0.8669
  156SOL    HW2  468   2.085   1.950   2.921  0.9717  0.4547  0.2403
  157SOL     OW  469   0.854   0.130   0.635  0.1153 -1.1729  0.4669
  157SOL    HW1  470   0.835   0.218   0.581 -0.6932 -0.1645 -0.7214
  157SOL    HW2  471   0.946   0.098   0.616 -4.1762 -0.8807  0.7342
  158SOL     OW  472   2.322   0.687   2.198 -0.4542  0.1439 -0.1225
  158SOL    HW1  473   2.394   0.618   2.223  1.5686 -1.2427 -0.1820
  158SOL    HW2  474   2.353   0.736   2.119 -0.5520 -2.0513  0.6618
  159SOL     OW  475   0.153   0.333   0.426  0.4425 -0.2161  0.0319
  159SOL    HW1  476   0.054   0.317   0.416  3.1109  2.2989  1.1984
  159SOL    HW2  477   0.199   0.290   0.346 -1.2499  1.0893 -2.0533
  160SOL     OW  478   1.556   2.101   2.038  0.3050  0.2083  0.6570
  160SOL    HW1  479   1.465   2.111   2.081  1.4705 -0.4848 -1.1574
  160SOL    HW2  480   1.567   2.003   2.002 -0.4356 -2.6293 -2.1794
  161SOL     OW  481   2.743   0.558   2.677  0.5856  0.1494  0.4137
  161SOL    HW1  482   2.790   0.625   2.737  0.2677 -0.2327  0.4831
  161SOL    HW2  483   2.815   0.493   2.645 -0.1665  0.3396  0.0263
  162SOL     OW  484   0.941   2.584   1.739  0.3535  0.4388  0.0201
  162SOL    HW1  485   0.989   2.587   1.650 -1.2086  0.8093 -0.2136
  162SOL    HW2  486   0.884   2.667   1.754 -0.6472  3.1350  1.7646
  163SOL     OW  487   2.750   0.189   2.557  0.0060 -0.3419 -0.2798
  163SOL    HW1  488   2.745   0.177   2.457 -0.1756 -0.7230 -1.4284
  163SOL    HW2  489   2.659   0.166   2.602 -1.1830  1.9533  2.0104
  164SOL     OW  490   2.047   1.593   0.188  0.8491  0.4192 -0.4100
  164SOL    HW1  491   1.996   1.570   0.109 -0.5122  1.3187  0.0343
  164SOL    HW2  492   2.116   1.665   0.168  1.7700  2.2877 -0.5121
  165SOL     OW  493   3.090   0.397   1.604 -0.1385 -0.0107 -0.0067
  165SOL    HW1  494   0.014   0.497   1.623  1.8504 -1.3716  1.2768
  165SOL    HW2  495   3.082   0.377   1.505 -0.5203  0.6044  4.4958
  166SOL     OW  496   2.350   0.535   3.050  0.2615  0.4619  0.0703
  166SOL    HW1  497   2.443   0.530   3.007  0.7167  0.2791 -1.4011
  166SOL    HW2  498   2.330   0.620   0.011  0.0036  1.1681  0.9106
  167SOL     OW  499   2.749   0.788   3.060  0.5997  0.3758  0.2094
  167SOL    HW1  500   2.806   0.792   0.047  3.0856 -1.6458  1.1413
  167SOL    HW2  501   2.798   0.810   2.976 -1.7678  0.8997 -0.1250
  168SOL     OW  502   1.785   2.866   2.816  0.5111 -0.0208  0.2179
  168SOL    HW1  503   1.863   2.849   2.878  0.3370 -0.3846  0.1931
  168SOL    HW2  504   1.786   2.962   2.783  1.7663 -2.8650  1.6342
  169SOL     OW  505   0.200   1.508   0.930  0.0503 -0.2107  0.1548
  169SOL    HW1  506   0.113   1.495   0.877 -1.0700  0.2854  0.1152
  169SOL    HW2  507   0.267   1.452   0.881  1.2646 -3.4164 -1.5943
  170SOL     OW  508   2.954   0.628   1.426 -0.2670  0.9459  0.2918
  170SOL    HW1  509   3.022   0.630   1.503  1.7349 -1.3869  0.5034
  170SOL    HW2  510   3.002   0.597   1.340 -0.0604 -0.5244 -3.9999
  171SOL     OW  511   2.123   2.102   1.972 -0.2972 -0.5293  0.4232
  171SOL    HW1  512   2.033   2.073   1.932  0.0001  1.4858  0.8564
  171SOL    HW2  513   2.182   2.027   2.010 -1.6431  2.2554  0.7201
  172SOL     OW  514   0.250   2.308   1.570  0.2281  0.7672 -0.2360
  172SOL    HW1  515   0.216   2.226   1.623  3.8452 -3.4941  0.6168
  172SOL    HW2  516   0.354   2.302   1.561  3.1578 -0.4616  1.9990
  173SOL     OW  517   1.448   1.013   0.131  0.1717 -0.1177 -0.0364
  173SOL    HW1  518   1.519   0.990   0.206  1.3116  1.7396  1.9519
  173SOL    HW2  519   1.407   0.928   0.096  0.7247  0.0253  1.2747
  174SOL     OW  520   1.368   3.061   2.417 -0.1680 -0.6796  0.2519
  174SOL    HW1  521   1.464   3.076   2.455 -0.9968  2.6405 -1.3771
  174SOL    HW2  522   1.331   2.973   2.449  1.6523 -1.1282 -1.8534
  175SOL     OW  523   1.747   1.766   0.816 -0.1461  0.0299  0.5893
  175SOL    HW1  524   1.819   1.753   0.888  1.7273  1.3416  2.1238
  175SOL    HW2  525   1.670   1.696   0.821  1.8467  2.5683  0.6881
  176SOL     OW  526   1.506   0.069   0.073 -0.1088  0.1535  0.3452
  176SOL    HW1  527   1.568   0.095   0.152 -2.8336 -0.0429  0.4342
  176SOL    HW2  528   1.473   0.150   0.014 -0.4909 -0.8765 -1.3595
  177SOL     OW  529   0.652   1.055   2.958  0.2017 -0.2511  0.7195
  177SOL    HW1  530   0.591   1.009   3.029 -1.3703 -2.9686  0.5113
  177SOL    HW2  531   0.595   1.070   2.874 -1.5383 -2.2671 -0.2247
  178SOL     OW  532   2.684   2.376   2.572  0.2905 -0.3310  0.1827
  178SOL    HW1  533   2.731   2.287   2.537 -0.4173 -0.0255  0.7771
  178SOL    HW2  534   2.589   2.384   2.531 -2.1322 -1.4654  1.3780
  179SOL     OW  535   2.791   0.130   2.953  1.0386 -0.2336 -0.0615
  179SOL    HW1  536   2.859   0.131   2.879  0.1308 -2.0777 -0.1309
  179SOL    HW2  537   2.748   0.039   2.971 -1.2596  1.7269  3.1072
  180SOL     OW  538   1.722   1.140   0.616  0.5880  0.4752 -0.0243
  180SOL    HW1  539   1.653   1.127   0.687  0.7447 -1.3093  0.8466
  180SOL    HW2  540   1.802   1.080   0.639 -0.3365  1.0632 -0.7266
  181SOL     OW  541   1.971   1.561   2.647  0.0825 -0.2337  0.8381
  181SOL    HW1  542   1.939   1.650   2.684  1.4301 -0.5973  0.8173
  181SOL    HW2  543   1.897   1.493   2.664 -0.1832 -1.4975  1.4028
  182SOL     OW  544   2.827   2.599   2.557  0.2968  0.2682 -0.0561
  182SOL    HW1  545   2.807   2.652   2.474 -1.6334  1.1492  1.5903
  182SOL    HW2  546   2.763   2.521   2.563  0.4134  2.5914 -0.3483
  183SOL     OW  547   1.863   0.710   2.160  0.5658 -0.1113  0.2405
  183SOL    HW1  548   1.809   0.796   2.164  0.1995 -1.1344 -0.2031
  183SOL    HW2  549   1.938   0.723   2.228 -1.5840  0.5584 -0.0774
  184SOL     OW  550   0.208   1.467   1.662 -0.4107  0.2738 -0.5117
  184SOL    HW1  551   0.234   1.454   1.562 -1.0286 -2.1692 -1.9652
  184SOL    HW2  552   0.107   1.497   1.668 -0.0414  1.1867 -1.7628
  185SOL     OW  553   1.701   0.312   0.795  0.5186  0.6198  0.3286
  185SOL    HW1  554   1.638   0.320   0.875  1.2440  0.6275  1.3062
  185SOL    HW2  555   1.662   0.242   0.725 -0.4321 -1.8190 -3.5373
  186SOL     OW  556   0.257   2.526   2.859 -0.3502  0.5282 -0.2426
  186SOL    HW1  557   0.197   2.483   2.788  1.0808  1.2127 -1.6306
  186SOL    HW2  558   0.336   2.576   2.820  0.3527  1.5845  0.9969
  187SOL     OW  559   2.753   1.254   0.536 -0.1886 -0.2797 -0.6028
  187SOL    HW1  560   2.748   1.356   0.564 -0.8179  2.0598  0.4685
  187SOL    HW2  561   2.671   1.231   0.482  3.9761 -0.0457 -0.9286
  188SOL     OW  562   2.421   1.358   1.176  0.0824 -0.1652 -0.3498
  188SOL    HW1  563   2.477   1.297   1.229 -0.8545  2.5770 -2.0836
  188SOL    HW2  564   2.442   1.353   1.076  1.5595  0.0211  0.7413
  189SOL     OW  565   2.928   0.363   2.667 -0.5095  0.2356  0.7380
  189SOL    HW1  566   2.855   0.299   2.638  0.7572  1.2533 -2.0450
  189SOL    HW2  567   2.998   0.370   2.593  1.7632 -2.7649 -1.5124
  190SOL     OW  568   1.239   0.993   1.583 -0.2524  0.3243 -0.0667
  190SOL    HW1  569   1.310   1.067   1.598 -2.2166 -0.5098 -1.6885
  190SOL    HW2  570   1.145   1.019   1.614  1.7999  0.1661 -1.3036
  191SOL     OW  571   0.554   0.526   1.998  0.1268  0.6794  0.8974
  191SOL    HW1  572   0.456   0.490   2.017 -0.7685 -0.0448 -1.3747
  191SOL    HW2  573   0.621   0.448   1.999 -1.0299 -1.1199  0.9994
  192SOL     OW  574   1.743   2.082   1.315  0.3432 -0.0491 -0.4108
  192SOL    HW1  575   1.735   2.102   1.414 -0.0348 -1.8164  0.4212
  192SOL    HW2  576   1.661   2.127   1.267 -2.4690 -0.6005 -0.9118
  193SOL     OW  577   1.774   0.660   1.232 -0.0038  0.1785 -0.0229
  193SOL    HW1  578   1.691   0.601   1.264 -2.5419  0.5187  3.4251
  193SOL    HW2  579   1.780   0.658   1.131  1.9539 -0.0648 -0.1244
  194SOL     OW  580   0.517   2.165   1.269 -0.0432  0.2757 -0.1517
  194SOL    HW1  581   0.434   2.113   1.300  0.2180  1.5250 -3.4549
  194SOL    HW2  582   0.523   2.151   1.169 -0.2511 -1.1978 -0.4520
  195SOL     OW  583   1.660   0.186   0.257  0.6716 -0.1361  1.1466
  195SOL    HW1  584   1.726   0.149   0.325 -0.7102 -1.4733  0.4970
  195SOL    HW2  585   1.701   0.244   0.187  0.3496 -1.5429  1.7513
  196SOL     OW  586   0.265   1.414   1.386  0.4550  0.5335  0.0133
  196SOL    HW1  587   0.278   1.513   1.354 -1.5503  3.2945 -0.9895
  196SOL    HW2  588   0.353   1.366   1.397 -0.4139 -0.1646 -0.8217
  197SOL     OW  589   0.787   0.196   1.560 -0.9858 -0.9317  0.6444
  197SOL    HW1  590   0.845   0.142   1.497 -1.5444  0.4728  0.2187
  197SOL    HW2  591   0.837   0.286   1.588  1.2400  1.1671 -0.2777
  198SOL     OW  592   0.717   1.209   1.028 -0.3468  0.0345 -0.3496
  198SOL    HW1  593   0.701   1.292   1.092 -0.0347 -0.3257  1.2160
  198SOL    HW2  594   0.657   1.134   1.053 -0.3540 -0.3123 -0.5699
  199SOL     OW  595   0.038   2.433   1.717  0.3010 -0.1832 -0.3846
  199SOL    HW1  596   0.069   2.527   1.735  0.8068 -2.7979  1.4123
  199SOL    HW2  597   0.110   2.388   1.654  0.1948  1.5735 -1.2528
  200SOL     OW  598   1.668   1.629   1.862 -0.1242 -0.1517 -0.5266
  200SOL    HW1  599   1.751   1.641   1.803  0.8583 -1.5359 -2.8785
  200SOL    HW2  600   1.697   1.579   1.949 -1.1515 -3.4692 -1.3223
  201SOL     OW  601   0.538   1.872   2.085 -0.0572 -0.2117  0.0446
  201SOL    HW1  602   0.527   1.884   2.187  0.9120  2.2839  1.7272
  201SOL    HW2  603   0.455   1.849   2.029  1.2234 -2.8608  1.3662
  202SOL     OW  604   1.531   0.530   3.055  0.2911 -0.3704 -0.1168
  202SOL    HW1  605   1.518   0.583   2.975  2.1650 -1.4467  1.6158
  202SOL    HW2  606   1.550   0.592   0.039  1.0580  1.7534 -0.7402
  203SOL     OW  607   1.316   2.825   1.864  0.0557  0.5122 -0.6942
  203SOL    HW1  608   1.402   2.802   1.921  0.9060 -2.3013 -1.1747
  203SOL    HW2  609   1.265   2.740   1.845 -1.0079  1.2018  0.8287
  204SOL     OW  610   0.569   1.986   1.720 -0.3749 -0.1243  0.1647
  204SOL    HW1  611   0.604   2.022   1.629  1.5419  0.8470  1.3689
  204SOL    HW2  612   0.474   1.961   1.704 -1.6259  1.4506 -2.2104
  205SOL     OW  613   1.521   1.864   1.904  0.1787 -0.8075  0.5914
  205SOL    HW1  614   1.595   1.796   1.885  0.3968  0.8830 -2.7834
  205SOL    HW2  615   1.455   1.818   1.967  1.5013 -1.2905  1.4396
  206SOL     OW  616   0.092   1.462   2.068 -0.4185 -0.4870  0.1387
  206SOL    HW1  617   0.153   1.384   2.074 -1.7645  0.7404 -0.7568
  206SOL    HW2  618   0.060   1.494   2.163 -1.5936  0.4685  0.1767
  207SOL     OW  619   0.813   2.923   2.083 -0.1402  0.2924 -0.0487
  207SOL    HW1  620   0.718   2.924   2.097  0.6868 -0.4308  0.1789
  207SOL    HW2  621   0.857   2.900   2.174 -1.9426  0.9683  1.2470
  208SOL     OW  622   0.573   2.514   1.900  0.0360  0.1663  0.1599
  208SOL    HW1  623   0.581   2.555   1.810  3.4122 -2.4398  2.4463
  208SOL    HW2  624   0.540   2.419   1.891 -1.7679  1.3629 -3.8324
  209SOL     OW  625   1.412   2.944   0.419 -0.7982  0.4177 -0.2436
  209SOL    HW1  626   1.490   2.889   0.455  2.2156  0.7408 -0.4499
  209SOL    HW2  627   1.394   3.025   0.482 -1.5902  2.8368 -0.0242
  210SOL     OW  628   2.620   0.522   0.662 -0.5695 -0.5256 -0.0573
  210SOL    HW1  629   2.587   0.449   0.591 -1.2853 -2.5649 -0.5373
  210SOL    HW2  630   2.651   0.610   0.622  1.8264 -2.9169 -0.1550
  211SOL     OW  631   0.555   0.494   1.646 -0.4215 -1.1581  0.2863
  211SOL    HW1  632   0.535   0.564   1.718 -2.0333  0.0647 -0.2166
  211SOL    HW2  633   0.655   0.476   1.644 -2.4554  0.6526 -2.4527
  212SOL     OW  634   1.401   2.343   1.444  0.1808  0.4216 -0.8178
  212SOL    HW1  635   1.405   2.239   1.447  1.1529 -0.0859 -0.4713
  212SOL    HW2  636   1.478   2.381   1.400  0.3339  0.2974  1.5975
  213SOL     OW  637   2.808   0.314   1.981 -0.3713 -0.4520 -0.4621
  213SOL    HW1  638   2.764   0.321   1.888  1.4146  0.4928 -0.9302
  213SOL    HW2  639   2.910   0.325   1.976  1.4444 -0.7023  1.0033
  214SOL     OW  640   0.767   2.533   2.096 -0.3026 -0.3249 -0.3575
  214SOL    HW1  641   0.704   2.537   2.016  0.4639  1.4378  1.0421
  214SOL    HW2  642   0.844   2.608   2.084  0.8731  2.4690  0.5341
  215SOL     OW  643   2.717   1.532   1.622  0.0846 -0.1778  0.8824
  215SOL    HW1  644   2.787   1.604   1.649 -1.0381 -2.1320 -0.4202
  215SOL    HW2  645   2.696   1.542   1.522  0.9190 -1.4823 -2.7156
  216SOL     OW  646   0.497   1.061   2.295  0.1813 -0.5829 -0.2947
  216SOL    HW1  647   0.480   1.162   2.307  1.2151 -1.4686  1.6829
  216SOL    HW2  648   0.504   1.009   2.382 -1.6616 -2.7343  1.5772
  217SOL     OW  649   2.818   0.315   1.081  0.0967 -0.1228 -0.2812
  217SOL    HW1  650   2.783   0.332   0.986  0.6150 -0.4962  0.0232
  217SOL    HW2  651   2.916   0.294   1.076  1.0073  0.1874 -0.9254
  218SOL     OW  652   1.183   2.029   0.948  0.0553 -0.1347  0.0053
  218SOL    HW1  653   1.226   1.998   0.858  2.6371  2.1483 -1.5045
  218SOL    HW2  654   1.142   2.122   0.939 -1.5289  0.2304  0.1764
  219SOL     OW  655   2.124   2.628   0.578 -0.2824 -0.7646  0.1059
  219SOL    HW1  656   2.177   2.542   0.567 -0.4648 -1.3995 -2.4852
  219SOL    HW2  657   2.067   2.640   0.494 -1.0328 -1.6338  1.7712
  220SOL     OW  658   1.775   2.477   0.082  0.3744  0.0366 -0.0189
  220SOL    HW1  659   1.720   2.483   3.093  1.1674 -0.1855  0.0409
  220SOL    HW2  660   1.820   2.388   0.091 -2.3579  2.8164  0.8900
  221SOL     OW  661   2.976   1.869   0.340  0.0715  0.1960 -0.5065
  221SOL    HW1  662   2.915   1.952   0.340 -2.1815 -1.7564  2.1636
  221SOL    HW2  663   2.970   1.823   0.428  0.5069  0.6510  2.6295
  222SOL     OW  664   0.568   2.424   0.974 -0.0241  0.0788  0.0463
  222SOL    HW1  665   0.521   2.449   0.887 -0.6790  1.3376  1.4541
  222SOL    HW2  666   0.667   2.416   0.959 -2.3179 -0.1089 -0.3522
  223SOL     OW  667   1.121   0.128   0.482 -0.0149 -0.1992  0.1886
  223SOL    HW1  668   1.211   0.115   0.525  1.4840 -0.1158 -2.9644
  223SOL    HW2  669   1.089   0.045   0.429 -0.0533 -0.3484 -3.6219
  224SOL     OW  670   2.752   1.326   1.126 -0.2473  0.5170  0.9806
  224SOL    HW1  671   2.779   1.250   1.060  1.3654 -0.0770 -2.4464
  224SOL    HW2  672   2.724   1.286   1.220  1.1468 -0.3460  1.4245
  225SOL     OW  673   3.039   1.865   1.133 -0.2034  0.6189 -0.5372
  225SOL    HW1  674   3.080   1.906   1.051 -2.7519  3.9369 -1.1788
  225SOL    HW2  675   3.096   1.790   1.170 -0.1289 -1.5354 -0.2328
  226SOL     OW  676   0.896   2.931   0.869  0.2463 -0.3178 -0.5381
  226SOL    HW1  677   0.826   2.930   0.792  0.8586 -0.3635  0.3495
  226SOL    HW2  678   0.867   2.996   0.945 -0.4946 -0.3596  1.3422
  227SOL     OW  679   0.960   1.389   1.598  0.4365  0.0463 -0.7846
  227SOL    HW1  680   0.975   1.468   1.666  0.4106 -0.7604  1.1090
  227SOL    HW2  681   0.970   1.423   1.503  0.6230 -0.8998 -0.8819
  228SOL     OW  682   0.738   0.335   1.970 -0.5588 -0.1129  0.2392
  228SOL    HW1  683   0.775   0.274   1.902 -0.9123 -0.0766  3.0819
  228SOL    HW2  684   0.814   0.371   2.023  2.7716 -1.6460  1.1336
  229SOL     OW  685   3.017   0.813   2.476 -0.2192 -0.2239 -0.0391
  229SOL    HW1  686   3.060   0.803   2.567  0.0700  2.1615 -1.4092
  229SOL    HW2  687   3.022   0.907   2.438 -0.0879 -3.5924 -0.7560
  230SOL     OW  688   3.063   0.794   0.941 -0.4928 -0.3190 -0.5044
  230SOL    HW1  689   2.991   0.722   0.956 -0.2364 -2.1371 -1.9422
  230SOL    HW2  690   3.038   0.874   0.996  0.3609  1.8310  0.6309
  231SOL     OW  691   1.334   0.019   2.167  0.9951  0.3513 -0.0894
  231SOL    HW1  692   1.428   3.095   2.141  0.2880 -2.7575  0.6570
  231SOL    HW2  693   1.336   0.010   2.273  1.5910 -0.8664  3.8694
  232SOL     OW  694   0.130   1.993   0.290 -0.2167  0.4150  0.1193
  232SOL    HW1  695   0.201   1.946   0.350  0.6589  2.1512  0.5165
  232SOL    HW2  696   0.038   1.960   0.311  1.5165  1.2153  2.1290
  233SOL     OW  697   1.515   2.485   2.669 -0.1655  0.0095 -0.0846
  233SOL    HW1  698   1.476   2.412   2.613 -1.5650  0.1621 -1.9958
  233SOL    HW2  699   1.476   2.575   2.638 -2.3451 -1.9744  0.5694
  234SOL     OW  700   0.661   1.238   1.700 -0.5694 -0.0215 -0.3134
  234SOL    HW1  701   0.714   1.154   1.677  0.7795  0.2063 -0.0849
  234SOL    HW2  702   0.721   1.300   1.763 -0.0436  3.2953  3.0711
  235SOL     OW  703   0.075   2.338   2.450 -0.4322 -0.3102  0.6629
  235SOL    HW1  704   0.086   2.236   2.459  4.3680 -1.4682  0.0457
  235SOL    HW2  705   0.093   2.382   2.540 -0.7791 -0.3900  0.1683
  236SOL     OW  706   1.695   1.640   2.751 -0.4968  0.3145 -0.1389
  236SOL    HW1  707   1.738   1.712   2.812  0.0740  0.3738 -1.1243
  236SOL    HW2  708   1.659   1.682   2.667 -1.4911  0.3386  0.5094
  237SOL     OW  709   1.455   0.645   0.650  0.5606  0.0528  0.7299
  237SOL    HW1  710   1.360   0.681   0.674  0.0435 -0.3281 -0.7494
  237SOL    HW2  711   1.526   0.718   0.633  0.5098  0.8255 -1.3898
  238SOL     OW  712   0.987   2.700   2.072  0.0975  0.0109  0.2817
  238SOL    HW1  713   0.957   2.789   2.039  0.7929 -1.5068  1.8347
  238SOL    HW2  714   1.050   2.651   2.007 -1.3858  2.3224  1.2210
  239SOL     OW  715   1.182   2.579   1.890  0.0812 -0.1970 -0.6796
  239SOL    HW1  716   1.093   2.572   1.848  3.3495  1.3371  2.5355
  239SOL    HW2  717   1.213   2.487   1.924  2.6835  1.2815 -1.7838
  240SOL     OW  718   1.882   3.011   0.837 -0.0328 -0.0593 -0.4733
  240SOL    HW1  719   1.904   2.911   0.832  0.9966  2.2889  0.5892
  240SOL    HW2  720   1.956   3.066   0.793 -2.2003  0.6731  2.3608
  241SOL     OW  721   1.207   1.200   2.349 -0.0653  0.0539 -0.0303
  241SOL    HW1  722   1.147   1.127   2.306 -0.7757 -0.7026 -0.4306
  241SOL    HW2  723   1.161   1.244   2.427 -0.2108  0.0939  1.8336
  242SOL     OW  724   2.597   0.567   2.972  0.3062  0.5913  0.1951
  242SOL    HW1  725   2.636   0.643   3.029  1.3299 -0.6433 -2.2208
  242SOL    HW2  726   2.656   0.555   2.891  1.0732  2.6338 -1.4988
  243SOL     OW  727   0.910   0.583   1.392  0.0382 -0.1182 -0.0625
  243SOL    HW1  728   0.876   0.508   1.331 -0.5308  0.6161 -2.3988
  243SOL    HW2  729   1.005   0.608   1.370 -2.7720  1.4869  2.9672
  244SOL     OW  730   1.398   2.899   2.841 -0.4106  0.2885  0.2209
  244SOL    HW1  731   1.329   2.880   2.913 -0.3481  1.2561 -0.5164
  244SOL    HW2  732   1.479   2.946   2.883 -1.0611 -1.9177 -0.0977
  245SOL     OW  733   1.965   2.834   3.034 -0.4174 -0.1791 -0.2489
  245SOL    HW1  734   1.907   2.805   0.013  1.2360 -1.2018  0.6586
  245SOL    HW2  735   2.057   2.858   3.074  0.8082 -0.6356 -0.8838
  246SOL     OW  736   0.723   0.821   1.403 -0.3266  0.5665  0.1654
  246SOL    HW1  737   0.635   0.767   1.408 -1.1560 -0.4895  3.9422
  246SOL    HW2  738   0.801   0.753   1.403  0.4409  1.8634 -0.8467
  247SOL     OW  739   0.280   0.440   2.024  0.4260  0.5705 -0.4631
  247SOL    HW1  740   0.213   0.369   2.056  1.9261 -1.4553 -0.8727
  247SOL    HW2  741   0.296   0.436   1.923  3.2576 -2.7967  0.5638
  248SOL     OW  742   2.991   1.406   1.905 -0.3841  0.8245  0.0869
  248SOL    HW1  743   2.901   1.411   1.954 -0.0672 -2.3556  0.2877
  248SOL    HW2  744   3.068   1.424   1.967 -0.8613 -2.6664  0.2076
  249SOL     OW  745   0.109   0.407   3.086 -0.0205  0.0328 -0.4831
  249SOL    HW1  746   0.198   0.359   3.080 -3.3297 -1.7761  0.2974
  249SOL    HW2  747   0.032   0.346   0.016 -0.5369  3.0893  0.4918
  250SOL     OW  748   3.012   0.098   0.207 -0.2362 -0.2321 -0.0859
  250SOL    HW1  749   2.993   0.148   0.294  0.9761 -2.6950 -0.8712
  250SOL    HW2  750   2.946   0.022   0.200  0.0674  2.3809  1.3302
  251SOL     OW  751   0.827   1.818   1.650 -0.5339  0.2471 -0.3093
  251SOL    HW1  752   0.803   1.915   1.678 -1.1106  2.1210  1.4597
  251SOL    HW2  753   0.747   1.757   1.661  0.3147  0.6729 -1.5127
  252SOL     OW  754   1.868   2.080   1.025 -0.2658 -0.0656  0.1675
  252SOL    HW1  755   1.769   2.095   0.999 -2.0488  0.5360  2.6036
  252SOL    HW2  756   1.885   2.099   1.122  0.8349 -0.1360 -0.4084
  253SOL     OW  757   1.768   1.913   2.483 -0.6280  0.3270  0.2930
  253SOL    HW1  758   1.820   1.856   2.419 -0.7219 -1.7748  3.0871
  253SOL    HW2  759   1.766   2.010   2.451  0.6447  2.7197 -0.9411
  254SOL     OW  760   0.808   2.273   2.107 -0.9375  0.3804 -0.2383
  254SOL    HW1  761   0.754   2.205   2.050  2.8002 -1.9658 -1.6092
  254SOL    HW2  762   0.799   2.372   2.086  0.5477 -1.0244  0.0951
  255SOL     OW  763   1.002   0.128   1.407 -0.8025 -0.1956  0.3455
  255SOL    HW1  764   1.061   0.098   1.328 -3.6603 -0.4627  0.1306
  255SOL    HW2  765   1.045   0.109   1.497  0.3410 -1.0097  1.1977
  256SOL     OW  766   2.311   2.238   1.469 -0.2666  0.8841  0.1349
  256SOL    HW1  767   2.266   2.178   1.398  1.4127 -0.6550 -1.6387
  256SOL    HW2  768   2.408   2.264   1.437  1.3822  2.2233 -0.2129
  257SOL     OW  769   0.589   2.156   2.795 -0.1641 -0.4428 -0.5675
  257SOL    HW1  770   0.519   2.211   2.843 -0.0101 -0.6443 -0.0056
  257SOL    HW2  771   0.632   2.093   2.865  0.6542  1.4607  0.3736
  258SOL     OW  772   0.398   1.451   2.792  0.3015  0.2910  0.4077
  258SOL    HW1  773   0.319   1.489   2.845 -1.7559 -0.5601  0.5277
  258SOL    HW2  774   0.358   1.385   2.725 -0.8961  0.8922 -1.1317
  259SOL     OW  775   0.618   1.533   2.220  0.6360 -0.4009  0.1397
  259SOL    HW1  776   0.614   1.557   2.118  0.4248  1.5642 -4.6012
  259SOL    HW2  777   0.704   1.483   2.233 -3.0024  1.1356  2.6500
  260SOL     OW  778   1.776   0.896   1.364 -0.7418 -0.4963 -0.3630
  260SOL    HW1  779   1.728   0.954   1.296 -3.9817 -0.2359  1.0584
  260SOL    HW2  780   1.795   0.804   1.325  1.7700  2.2096 -1.1007
  261SOL     OW  781   1.156   3.024   0.770 -0.4608 -0.3812  0.1379
  261SOL    HW1  782   1.223   2.959   0.814 -4.8152 -1.6719 -0.0859
  261SOL    HW2  783   1.063   2.985   0.762  0.1462  1.1950 -2.6735
  262SOL     OW  784   2.129   2.140   2.644 -0.1836 -0.0031  0.1810
  262SOL    HW1  785   2.094   2.097   2.557  0.1683  1.1224 -1.8175
  262SOL    HW2  786   2.089   2.232   2.654  0.3544  0.5004  2.1919
  263SOL     OW  787   0.172   1.564   2.929  0.1434  0.0386 -0.2114
  263SOL    HW1  788   0.144   1.652   2.978 -0.5060  0.7517 -0.6279
  263SOL    HW2  789   0.153   1.478   2.985 -1.0879  0.0813 -2.3471
  264SOL     OW  790   0.307   1.971   1.142 -0.2835  0.2503  0.2413
  264SOL    HW1  791   0.318   1.883   1.090  0.7726  2.3791  0.3914
  264SOL    HW2  792   0.314   1.956   1.241 -2.5189  2.7842  0.8312
  265SOL     OW  793   0.683   0.882   0.869  0.0744  0.7700  0.1051
  265SOL    HW1  794   0.767   0.919   0.923  0.8868  0.2775  3.8300
  265SOL    HW2  795   0.630   0.960   0.834  0.3914  0.5339 -0.0989
  266SOL     OW  796   1.408   1.632   0.095  0.1692  0.1120  0.0668
  266SOL    HW1  797   1.463   1.588   0.022 -0.9693 -0.5637 -1.2781
  266SOL    HW2  798   1.465   1.693   0.151 -1.4848 -1.8453 -0.0860
  267SOL     OW  799   0.733   0.882   2.584  0.0067  0.6059 -0.3548
  267SOL    HW1  800   0.831   0.904   2.605  1.5985  0.7088  0.1145
  267SOL    HW2  801   0.717   0.785   2.543  1.2099 -4.8119 -0.5656
  268SOL     OW  802   0.969   0.612   3.050 -0.5004  0.2732 -0.0876
  268SOL    HW1  803   0.932   0.565   0.038  0.3606 -1.6863  2.0332
  268SOL    HW2  804   0.987   0.713   3.052 -0.1168 -0.9711  0.7404
  269SOL     OW  805   1.916   2.838   2.433 -0.2196 -0.0845  0.1898
  269SOL    HW1  806   1.864   2.918   2.389 -1.9146  1.9797  1.5205
  269SOL    HW2  807   1.856   2.773   2.487  2.5232  0.0008  0.3404
  270SOL     OW  808   1.113   1.185   2.785  0.4801 -0.5442 -0.2499
  270SOL    HW1  809   1.189   1.117   2.796  2.5884 -3.1420 -1.0039
  270SOL    HW2  810   1.028   1.136   2.827 -1.2857 -1.6996  1.6629
  271SOL     OW  811   0.027   0.597   0.266 -0.2590  0.3932 -0.1263
  271SOL    HW1  812   0.121   0.619   0.232 -1.2983  0.0569  1.9034
  271SOL    HW2  813   3.091   0.516   0.216 -0.4090 -0.6302  1.3715
  272SOL     OW  814   2.354   1.191   2.536 -0.4640  0.4286 -0.1578
  272SOL    HW1  815   2.268   1.207   2.584 -1.0666 -1.5640  1.5872
  272SOL    HW2  816   2.423   1.138   2.593  0.5887 -2.1112 -0.5798
  273SOL     OW  817   0.270   0.151   2.337  0.0670  0.1594  0.0678
  273SOL    HW1  818   0.268   0.077   2.405  0.5742  2.4724 -1.2002
  273SOL    HW2  819   0.326   0.228   2.376 -0.1372  0.3929  2.3734
  274SOL     OW  820   0.130   0.231   2.106 -0.3177  0.2903  0.1454
  274SOL    HW1  821   0.095   0.149   2.059  1.3539  2.0598  1.3733
  274SOL    HW2  822   0.184   0.212   2.192  0.4132 -1.3336  1.8722
  275SOL     OW  823   1.763   1.408   0.638  0.0299  0.3035  0.3097
  275SOL    HW1  824   1.752   1.309   0.623 -0.6353  0.0761 -1.7283
  275SOL    HW2  825   1.793   1.459   0.555 -1.7606 -1.3243 -1.0299
  276SOL     OW  826   0.288   0.891   2.638  0.3830 -0.0899  0.2924
  276SOL    HW1  827   0.292   0.843   2.545  1.4110 -1.6961 -3.3507
  276SOL    HW2  828   0.383   0.902   2.680  3.1245 -2.2715 -1.0444
  277SOL     OW  829   2.122   2.584   2.523  0.2612 -0.1301 -0.0143
  277SOL    HW1  830   2.193   2.606   2.453 -1.0420 -0.4265  0.1882
  277SOL    HW2  831   2.049   2.656   2.509 -1.8115 -0.4972 -0.2889
  278SOL     OW  832   1.933   0.107   1.793 -0.3487  0.3180 -0.9037
  278SOL    HW1  833   1.907   0.205   1.794 -0.3870  0.7424  2.5265
  278SOL    HW2  834   1.928   0.070   1.700 -1.3843 -0.3326  1.2710
  279SOL     OW  835   1.470   1.210   3.052  0.0670 -0.4620 -0.0983
  279SOL    HW1  836   1.411   1.289   3.091 -0.0679  1.5166  5.0499
  279SOL    HW2  837   1.459   1.136   0.025  0.0558  0.7110 -0.0414
  280SOL     OW  838   0.674   1.429   0.151 -0.2497  0.0441  0.1376
  280SOL    HW1  839   0.724   1.448   0.238  0.4406  0.4207 -0.9163
  280SOL    HW2  840   0.723   1.362   0.088 -0.5242 -2.3470 -1.6605
  281SOL     OW  841   3.019   2.852   1.598  0.3658  0.2175 -0.2225
  281SOL    HW1  842   0.025   2.871   1.601 -0.7584 -0.2204  0.6444
  281SOL    HW2  843   2.967   2.918   1.652 -2.6657  0.4219 -0.3905
  282SOL     OW  844   3.001   2.409   0.779  0.2790  0.2874  0.2284
  282SOL    HW1  845   3.091   2.406   0.733 -0.0269 -0.0831 -2.5368
  282SOL    HW2  846   2.928   2.407   0.710 -2.2171 -0.6751 -1.2512
  283SOL     OW  847   1.141   1.833   2.034  0.2173  0.0827  0.3307
  283SOL    HW1  848   1.119   1.898   2.111 -1.7443 -1.9192  0.9430
  283SOL    HW2  849   1.066   1.770   2.012  1.5706  1.2762 -3.1250
  284SOL     OW  850   1.966   0.434   0.437 -0.4190  0.5530  0.6677
  284SOL    HW1  851   1.982   0.338   0.410  2.3335  2.7178  1.8810
  284SOL    HW2  852   2.054   0.484   0.444  0.1590 -0.0709 -0.0068
  285SOL     OW  853   0.294   2.806   2.413  0.4201 -0.5298 -0.5806
  285SOL    HW1  854   0.239   2.730   2.380  0.6774  3.1565 -2.0840
  285SOL    HW2  855   0.393   2.787   2.420  1.8932  2.6756 -0.1764
  286SOL     OW  856   2.234   2.592   1.330  0.1840  0.3206  0.5461
  286SOL    HW1  857   2.314   2.577   1.386  0.1035  1.1409 -1.5881
  286SOL    HW2  858   2.208   2.688   1.328  1.0738 -2.2547 -1.2918
  287SOL     OW  859   0.632   1.648   0.985 -0.5513 -0.2373 -0.0777
  287SOL    HW1  860   0.650   1.592   0.902 -0.9054 -0.3593  1.8970
  287SOL    HW2  861   0.670   1.745   0.981 -2.1785  2.4401  1.6913
  288SOL     OW  862   1.991   2.116   2.895 -0.1474 -0.1816  0.5779
  288SOL    HW1  863   1.901   2.159   2.922  0.2815  2.8650  1.6931
  288SOL    HW2  864   2.025   2.146   2.801  1.3715  1.2899 -3.6851
  289SOL     OW  865   0.495   1.945   2.344  0.0737  0.4222 -0.5094
  289SOL    HW1  866   0.554   2.021   2.325 -0.7720 -1.8707  1.4559
  289SOL    HW2  867   0.470   1.946   2.446 -0.3206  0.0054  0.9896
  290SOL     OW  868   1.029   2.255   1.084 -0.2090  0.3116 -0.1460
  290SOL    HW1  869   1.117   2.292   1.124  1.7741  1.3971  2.2947
  290SOL    HW2  870   0.981   2.197   1.155 -0.4359 -0.5630 -2.1336
  291SOL     OW  871   1.719   1.294   3.058 -0.6196 -0.0544  0.6270
  291SOL    HW1  872   1.773   1.247   0.030 -0.1114  2.9704 -1.6710
  291SOL    HW2  873   1.621   1.265   3.057 -0.4144 -1.0588 -0.8996
  292SOL     OW  874   1.187   1.297   0.841 -0.1017  0.1167 -0.1146
  292SOL    HW1  875   1.232   1.269   0.755 -2.0070 -1.6207  1.3798
  292SOL    HW2  876   1.227   1.254   0.922 -0.4014  0.7499 -1.7614
  293SOL     OW  877   1.332   2.946   1.124 -0.5877  0.2172 -0.0071
  293SOL    HW1  878   1.421   2.934   1.171 -1.5517  3.5267 -0.3876
  293SOL    HW2  879   1.332   2.900   1.029 -1.3029 -0.3921 -0.0582
  294SOL     OW  880   2.823   1.040   2.734 -0.0211 -0.0771  1.0290
  294SOL    HW1  881   2.874   1.090   2.807 -3.5795 -3.8195 -2.0335
  294SOL    HW2  882   2.865   1.050   2.640  0.0386 -2.0159  0.7892
  295SOL     OW  883   1.615   2.155   2.679 -0.0648 -0.3291 -0.0159
  295SOL    HW1  884   1.640   2.195   2.774  1.1844 -0.0210  1.3070
  295SOL    HW2  885   1.700   2.150   2.623 -1.8029 -0.7421  1.0667
  296SOL     OW  886   2.008   1.129   2.265 -0.4353 -0.1487  0.9544
  296SOL    HW1  887   1.921   1.076   2.244 -0.0378 -0.7906 -2.1073
  296SOL    HW2  888   2.008   1.179   2.356 -1.3915 -1.1401 -2.1100
  297SOL     OW  889   0.190   0.851   2.157  0.1998 -0.2849  0.1310
  297SOL    HW1  890   0.147   0.846   2.065 -0.7032 -2.9991  0.6428
  297SOL    HW2  891   0.182   0.944   2.195  2.6381 -0.7034 -0.4115
  298SOL     OW  892   1.042   2.054   2.219  0.0243 -0.2229  0.6546
  298SOL    HW1  893   1.003   2.140   2.185  0.4053  1.8598  0.8501
  298SOL    HW2  894   0.964   2.005   2.265 -0.9012 -1.8546  0.2667
  299SOL     OW  895   0.810   2.862   2.609  0.5890  0.1935  0.3472
  299SOL    HW1  896   0.830   2.852   2.508  1.7159  0.8035 -0.3527
  299SOL    HW2  897   0.759   2.781   2.651 -0.3784  1.2415  2.8071
  300SOL     OW  898   0.183   1.070   2.903 -0.4882  0.0749  0.0649
  300SOL    HW1  899   0.110   1.056   2.973 -1.3778  1.1379  1.2241
  300SOL    HW2  900   0.203   1.168   2.893 -2.9821 -3.2765 -0.3911
  301SOL     OW  901   1.423   1.186   1.629  0.8364  0.3577  0.2497
  301SOL    HW1  902   1.492   1.146   1.698  2.2239 -0.3961  0.4650
  301SOL    HW2  903   1.386   1.279   1.644 -0.1673 -0.4911 -4.9023
  302SOL     OW  904   2.602   1.990   2.402 -0.0121  0.1519 -0.7269
  302SOL    HW1  905   2.676   2.058   2.392 -0.8900 -0.7253  1.1089
  302SOL    HW2  906   2.530   2.024   2.338  1.7266  2.6321 -1.3343
  303SOL     OW  907   0.072   0.085   2.558 -0.6041 -0.1813  0.4167
  303SOL    HW1  908   0.171   0.076   2.579 -1.6724  0.2895 -0.9771
  303SOL    HW2  909   0.056   0.184   2.543  0.0280 -1.7392  1.8651
  304SOL     OW  910   0.010   0.666   1.640 -0.1982  0.3183  0.3445
  304SOL    HW1  911   0.111   0.682   1.653  1.7152  3.6475 -0.5026
  304SOL    HW2  912   3.055   0.754   1.649  1.2675  0.3661  1.1784
  305SOL     OW  913   2.945   3.062   1.810 -0.0408 -0.1077  0.3886
  305SOL    HW1  914   2.868   3.042   1.871  0.3031  0.9066 -2.0592
  305SOL    HW2  915   2.916   0.038   1.743  0.8920  2.3356 -0.5473
  306SOL     OW  916   2.684   1.234   1.378  0.0334 -0.2397 -0.2113
  306SOL    HW1  917   2.646   1.158   1.436  1.2315 -3.7019  2.3509
  306SOL    HW2  918   2.770   1.259   1.430  0.9241  1.2982  0.6922
  307SOL     OW  919   2.137   0.318   1.093 -0.1271 -0.2403  0.2607
  307SOL    HW1  920   2.053   0.300   1.035 -0.0226  1.8920 -3.5064
  307SOL    HW2  921   2.169   0.415   1.083 -0.0247  2.3780  2.2308
  308SOL     OW  922   2.843   2.029   1.239  0.3876  0.1580  0.0606
  308SOL    HW1  923   2.803   2.088   1.165 -3.3552 -0.6756  0.6106
  308SOL    HW2  924   2.914   1.969   1.194  0.9659  0.3674 -2.9073
  309SOL     OW  925   2.067   1.836   1.588  0.0413 -0.3490 -0.6794
  309SOL    HW1  926   2.045   1.849   1.493  2.1384 -2.6342  0.9368
  309SOL    HW2  927   2.079   1.929   1.630 -1.4691 -0.5172 -0.8904
  310SOL     OW  928   2.389   1.560   0.034  0.4682  0.2191 -0.2031
  310SOL    HW1  929   2.325   1.640   0.052 -3.9954  0.6081  0.0875
  310SOL    HW2  930   2.433   1.573   3.038 -0.0747  0.5361 -0.6214
  311SOL     OW  931   2.157   1.237   2.714 -0.4595  0.1320  0.6224
  311SOL    HW1  932   2.120   1.184   2.795  1.7978  1.8044  1.1804
  311SOL    HW2  933   2.205   1.314   2.758  1.2671 -1.3830  2.5996
  312SOL     OW  934   1.498   2.442   1.722 -0.0696 -0.1335  0.0441
  312SOL    HW1  935   1.480   2.376   1.654 -1.1232  3.9365  3.8571
  312SOL    HW2  936   1.536   2.399   1.806  1.9673 -0.5700  0.7774
  313SOL     OW  937   0.383   2.910   1.119 -0.3526  0.6930 -0.4512
  313SOL    HW1  938   0.340   2.913   1.212 -1.4516  1.3278  1.5692
  313SOL    HW2  939   0.414   2.814   1.096  2.1278 -1.7734  0.4805
  314SOL     OW  940   0.891   1.703   1.406  0.5659  0.0105  0.4537
  314SOL    HW1  941   0.795   1.722   1.400 -0.0432  1.3080  2.2132
  314SOL    HW2  942   0.930   1.758   1.481  0.6406 -0.8683  0.9105
  315SOL     OW  943   0.571   2.885   2.241 -0.2765  0.3720 -0.5452
  315SOL    HW1  944   0.550   2.979   2.254 -2.3566 -1.7311 -0.7993
  315SOL    HW2  945   0.503   2.846   2.182  0.3006  0.8378 -0.2157
  316SOL     OW  946   2.990   2.143   0.927  0.1100 -0.2022 -0.0226
  316SOL    HW1  947   2.980   2.232   0.880  0.5207 -1.4699  1.5009
  316SOL    HW2  948   3.088   2.127   0.945  1.1522  1.0134  3.2160
  317SOL     OW  949   1.856   0.548   0.236 -0.0763 -0.2843 -0.0865
  317SOL    HW1  950   1.824   0.479   0.164  2.4996 -0.8563  0.9842
  317SOL    HW2  951   1.881   0.506   0.322  3.1277  1.5931  0.5241
  318SOL     OW  952   3.040   2.403   0.086 -0.0752 -0.5977  0.2996
  318SOL    HW1  953   2.987   2.468   0.026 -1.0607  0.4209 -0.9123
  318SOL    HW2  954   3.043   2.439   0.179 -2.3243 -0.7168 -0.6972
  319SOL     OW  955   1.703   1.634   0.435 -0.2287  0.0280 -0.3802
  319SOL    HW1  956   1.611   1.595   0.454  0.8172  0.5687  0.1734
  319SOL    HW2  957   1.709   1.668   0.338 -2.2301  2.9949 -1.2595
  320SOL     OW  958   0.542   2.421   2.600 -0.5187 -0.2509 -0.1295
  320SOL    HW1  959   0.553   2.448   2.502 -0.0878 -2.6516 -0.4531
  320SOL    HW2  960   0.548   2.319   2.602  0.7346 -0.0810  0.3059
  321SOL     OW  961   1.033   2.999   0.312 -0.3401 -0.2994 -0.3668
  321SOL    HW1  962   1.024   2.905   0.354 -2.0088  1.0326 -1.5873
  321SOL    HW2  963   1.090   2.995   0.231  0.0241  0.6025 -1.0139
  322SOL     OW  964   2.243   1.135   2.111  0.0996 -0.8375  0.1885
  322SOL    HW1  965   2.148   1.131   2.156 -0.2075 -1.5252 -0.8567
  322SOL    HW2  966   2.305   1.088   2.171 -1.0774  3.5210 -1.7358
  323SOL     OW  967   2.802   0.992   0.594 -0.2667  0.7412  0.4001
  323SOL    HW1  968   2.897   0.983   0.634  0.6801  2.9576  1.3087
  323SOL    HW2  969   2.790   1.088   0.564  0.2135  2.4112 -0.1086
  324SOL     OW  970   0.066   0.412   2.545  0.1892 -0.0546 -0.3011
  324SOL    HW1  971   0.034   0.474   2.469  0.3047  2.2846  1.0211
  324SOL    HW2  972   0.149   0.455   2.587 -0.7992  0.5520  0.6237
  325SOL     OW  973   0.935   0.072   2.345 -0.0563  0.1524  0.1223
  325SOL    HW1  974   1.004   0.100   2.276  0.8811  0.9321 -0.2635
  325SOL    HW2  975   0.953   0.109   2.440  0.8979  0.8184 -0.9921
  326SOL     OW  976   2.427   2.834   1.151 -0.3573  0.4399  0.1105
  326SOL    HW1  977   2.522   2.832   1.181 -1.3033  0.6956 -0.3423
  326SOL    HW2  978   2.414   2.844   1.048 -1.2444 -3.0011 -3.1950
  327SOL     OW  979   1.581   0.653   0.198 -0.6178  0.1795  0.3244
  327SOL    HW1  980   1.660   0.603   0.233 -2.7365 -1.6443  1.1273
  327SOL    HW2  981   1.540   0.711   0.271 -1.2584 -0.3233 -2.5927
  328SOL     OW  982   2.931   1.837   1.966 -0.0109  0.0176  0.0664
  328SOL    HW1  983   2.950   1.785   2.054  0.0603  0.7259 -3.2229
  328SOL    HW2  984   2.960   1.940   1.959 -1.2985  0.3052  0.1769
  329SOL     OW  985   2.372   2.758   1.941  0.7739 -0.0830  0.2579
  329SOL    HW1  986   2.391   2.662   1.922 -1.5094  0.5587 -0.6377
  329SOL    HW2  987   2.299   2.783   1.873  1.3410  1.4049  1.2596
  330SOL     OW  988   2.289   1.491   1.745  0.0379 -0.2225 -0.1941
  330SOL    HW1  989   2.281   1.494   1.849 -0.3887 -0.2501  1.2674
  330SOL    HW2  990   2.369   1.549   1.722 -2.4878  0.2153 -2.7770
  331SOL     OW  991   2.720   2.130   1.000  0.0856 -0.1410 -0.0432
  331SOL    HW1  992   2.816   2.140   0.967 -0.0585 -0.6979  2.1513
  331SOL    HW2  993   2.659   2.093   0.923  0.7792  0.6513  1.1548
  332SOL     OW  994   0.810   2.729   0.081  0.3002  0.0265 -0.7184
  332SOL    HW1  995   0.713   2.750   0.093 -0.0263  0.5270 -0.1604
  332SOL    HW2  996   0.861   2.731   0.171 -0.4909 -1.7294  1.0180
  333SOL     OW  997   2.048   0.133   2.447  0.6753 -0.2890 -0.2249
  333SOL    HW1  998   1.970   0.133   2.379  1.6451 -0.2664  1.2736
  333SOL    HW2  999   2.135   0.178   2.413  2.3216  0.3953 -0.6410
  334SOL     OW 1000   0.597   1.180   0.519  0.2828 -0.1440 -0.0331
  334SOL    HW1 1001   0.680   1.232   0.552 -0.5352  0.7142  1.4325
  334SOL    HW2 1002   0.556   1.221   0.430  3.0561 -0.6253  0.4707
  335SOL     OW 1003   0.149   2.943   2.192  0.2416  0.4795  0.2085
  335SOL    HW1 1004   0.119   2.981   2.285  1.6752  1.6899  0.6615
  335SOL    HW2 1005   0.128   3.006   2.116 -1.9348 -2.4842  0.6460
  336SOL     OW 1006   2.880   3.015   2.229  0.4528  0.7179 -0.0073
  336SOL    HW1 1007   2.974   3.001   2.269  2.8263 -2.5846  1.1107
  336SOL    HW2 1008   2.844   0.009   2.247 -1.9442 -2.2474 -2.9287
  337SOL     OW 1009   1.566   1.525   0.807  0.3289  0.1031 -0.2371
  337SOL    HW1 1010   1.525   1.457   0.872  0.4541  0.7628 -0.0212
  337SOL    HW2 1011   1.619   1.472   0.738  0.7302 -1.0414  0.8885
  338SOL     OW 1012   0.840   1.812   0.823  0.2304  0.5346  0.3215
  338SOL    HW1 1013   0.894   1.731   0.864  1.6534 -1.4904  2.1585
  338SOL    HW2 1014   0.809   1.875   0.896  0.0559  0.0603 -1.1355
  339SOL     OW 1015   3.042   0.995   1.115  0.3017 -0.0434  0.1331
  339SOL    HW1 1016   0.039   1.032   1.111 -0.2631  0.0954  1.6262
  339SOL    HW2 1017   3.023   0.969   1.214 -0.4715  0.2268  0.4663
  340SOL     OW 1018   1.652   2.762   1.848  0.2258 -0.1141  0.0377
  340SOL    HW1 1019   1.718   2.704   1.893  3.2083 -0.5775 -0.2133
  340SOL    HW2 1020   1.643   2.740   1.750 -1.4164  0.5586  0.4118
  341SOL     OW 1021   1.960   1.454   0.818 -0.2213  0.5093 -0.3972
  341SOL    HW1 1022   1.944   1.420   0.911  0.3691  1.7048 -2.3126
  341SOL    HW2 1023   1.876   1.439   0.763 -1.0658 -0.8795 -1.1401
  342SOL     OW 1024   2.851   1.494   0.749 -0.4358 -0.4395  0.5714
  342SOL    HW1 1025   2.887   1.536   0.668 -0.1244 -0.0297  2.3097
  342SOL    HW2 1026   2.821   1.560   0.817  0.3234 -3.6428 -2.0590
  343SOL     OW 1027   2.512   1.105   1.724 -0.8097 -0.6931 -0.1088
  343SOL    HW1 1028   2.539   1.047   1.805  0.4623 -0.0320 -0.3219
  343SOL    HW2 1029   2.575   1.186   1.722  1.1763  0.6224  1.2840
  344SOL     OW 1030   2.022   0.672   0.969 -0.1271 -0.3244 -0.3209
  344SOL    HW1 1031   1.921   0.677   0.951 -0.3397  0.1513  1.3134
  344SOL    HW2 1032   2.036   0.685   1.068 -0.1882 -2.4288 -0.1052
  345SOL     OW 1033   0.328   3.045   2.543  0.2162  0.1828 -0.3623
  345SOL    HW1 1034   0.297   2.961   2.498  0.6568  2.7023  0.3716
  345SOL    HW2 1035   0.420   3.036   2.594  2.0694  0.6446  3.4229
  346SOL     OW 1036   2.602   1.527   0.205 -0.2713 -0.3619 -0.2249
  346SOL    HW1 1037   2.574   1.596   0.276 -0.9699  1.0051 -2.7139
  346SOL    HW2 1038   2.529   1.526   0.128 -0.7512  1.4324 -3.0051
  347SOL     OW 1039   1.892   2.710   1.702 -0.0770 -0.1482  0.0256
  347SOL    HW1 1040   1.957   2.669   1.637 -0.8247  1.7572 -1.3455
  347SOL    HW2 1041   1.866   2.799   1.663  0.4986  0.0293 -2.6100
  348SOL     OW 1042   1.015   1.123   1.656  0.3889  0.1131 -0.6495
  348SOL    HW1 1043   0.999   1.224   1.655  1.7286 -0.6623  1.5760
  348SOL    HW2 1044   0.928   1.073   1.634 -0.6951 -0.2927  0.3640
  349SOL     OW 1045   2.115   1.097   1.838 -0.4277  0.1336  0.4001
  349SOL    HW1 1046   2.184   1.075   1.912  2.7482 -0.9840 -0.6142
  349SOL    HW2 1047   2.161   1.168   1.780 -1.5877  0.3499 -1.4953
  350SOL     OW 1048   2.510   2.392   0.587 -0.2384  0.1556  0.3830
  350SOL    HW1 1049   2.579   2.451   0.538  4.6123 -0.5335  1.4722
  350SOL    HW2 1050   2.520   2.409   0.688 -0.5542  0.2154  1.4092
  351SOL     OW 1051   0.234   0.226   1.577  0.5041 -0.1428  1.1870
  351SOL    HW1 1052   0.239   0.196   1.481  3.8185  2.8340  1.0019
  351SOL    HW2 1053   0.162   0.295   1.597  0.8066  1.3213  1.0881
  352SOL     OW 1054   1.725   2.271   1.889 -0.3458  0.2510  0.3554
  352SOL    HW1 1055   1.746   2.369   1.912 -1.4969 -0.0985 -1.7597
  352SOL    HW2 1056   1.655   2.234   1.955 -2.5866 -1.3273  1.5442
  353SOL     OW 1057   0.807   1.215   2.440  0.0342  0.5999  0.1015
  353SOL    HW1 1058   0.712   1.197   2.455  0.1676  2.5382 -0.5083
  353SOL    HW2 1059   0.856   1.128   2.403  0.4188  0.8005  5.0581
  354SOL     OW 1060   1.360   1.586   0.408  0.0329 -0.2807  0.0073
  354SOL    HW1 1061   1.377   1.488   0.391  2.4261  1.9444  0.0020
  354SOL    HW2 1062   1.267   1.612   0.373  2.4277  2.7207  2.1764
  355SOL     OW 1063   1.944   0.275   0.912 -0.1108 -0.1885 -0.5206
  355SOL    HW1 1064   1.998   0.201   0.868 -1.0390  3.6135  0.7350
  355SOL    HW2 1065   1.862   0.288   0.857  3.2116 -0.7574 -1.5887
  356SOL     OW 1066   2.852   1.228   0.014 -0.6680 -0.5117 -0.0740
  356SOL    HW1 1067   2.883   1.215   3.011  2.9841 -1.4714 -3.4144
  356SOL    HW2 1068   2.894   1.161   0.079  1.4343  3.0548 -1.3371
  357SOL     OW 1069   0.050   3.086   1.960 -0.5582  0.2799  0.6064
  357SOL    HW1 1070   0.134   3.096   1.901  0.7498  1.0635  2.2352
  357SOL    HW2 1071   3.058   3.083   1.913 -1.1429 -0.6420 -0.7707
  358SOL     OW 1072   0.370   1.482   0.100 -0.0751  0.2173 -0.3561
  358SOL    HW1 1073   0.319   1.519   0.017 -1.4066 -1.0060 -1.8709
  358SOL    HW2 1074   0.372   1.381   0.113  0.5843  0.2403  1.6605
  359SOL     OW 1075   2.758   2.948   2.758 -0.0332  0.1039  0.0088
  359SOL    HW1 1076   2.662   2.980   2.736  2.3477  0.7941  0.6806
  359SOL    HW2 1077   2.768   2.879   2.832  0.6825 -0.6596 -1.4057
  360SOL     OW 1078   1.593   1.051   1.204  0.4082 -0.4745  0.7165
  360SOL    HW1 1079   1.597   1.137   1.259 -0.9127 -0.6800  2.2224
  360SOL    HW2 1080   1.498   1.033   1.170 -1.9397 -1.2658 -0.3039
  361SOL     OW 1081   2.025   2.409   1.243  0.0259  0.3763 -0.4039
  361SOL    HW1 1082   2.003   2.332   1.307 -1.9374 -2.4196  0.6866
  361SOL    HW2 1083   2.110   2.453   1.274  1.2043 -0.5324  2.5749
  362SOL     OW 1084   1.462   0.585   1.036  0.0362 -0.0567 -0.0671
  362SOL    HW1 1085   1.493   0.579   1.135  3.1478 -0.4543  0.6757
  362SOL    HW2 1086   1.358   0.586   1.039  0.8695 -0.6218  2.0122
  363SOL     OW 1087   2.241   2.387   0.565 -0.0746  0.1577 -0.1356
  363SOL    HW1 1088   2.338   2.408   0.560  0.7215  0.2235 -1.5101
  363SOL    HW2 1089   2.226   2.304   0.620 -2.2712 -0.5807 -0.7527
  364SOL     OW 1090   0.056   0.421   0.866 -0.5491 -0.4730 -0.4468
  364SOL    HW1 1091   0.028   0.348   0.931 -2.2079  1.5906  1.1824
  364SOL    HW2 1092   0.140   0.467   0.906  0.2995  0.2802  1.1112
  365SOL     OW 1093   0.373   2.934   0.631 -0.4292  0.2880 -0.7538
  365SOL    HW1 1094   0.273   2.962   0.627 -1.2303  0.8005 -0.3261
  365SOL    HW2 1095   0.428   3.016   0.656  0.0173  1.0928 -0.0579
  366SOL     OW 1096   0.097   1.590   0.519 -0.1015 -0.5327  0.0144
  366SOL    HW1 1097   0.161   1.626   0.592 -3.1398 -1.7498  0.9981
  366SOL    HW2 1098   0.154   1.530   0.461  1.8407  1.1701 -1.3113
  367SOL     OW 1099   2.733   2.356   2.839  0.0396  0.2799  0.2806
  367SOL    HW1 1100   2.794   2.430   2.875  0.5900 -2.5171  1.3796
  367SOL    HW2 1101   2.720   2.370   2.737  0.7725 -0.0777  2.9680
  368SOL     OW 1102   2.331   1.767   0.725 -0.0203  0.7570 -0.1123
  368SOL    HW1 1103   2.252   1.708   0.738  1.0179 -1.4343  1.4522
  368SOL    HW2 1104   2.404   1.708   0.688  0.5356  2.5988  2.5952
  369SOL     OW 1105   1.058   0.725   0.292  0.5939 -0.0879  0.5245
  369SOL    HW1 1106   0.983   0.795   0.277  0.5555  3.0234 -4.0902
  369SOL    HW2 1107   1.122   0.710   0.216 -1.6706 -0.7950 -0.0234
  370SOL     OW 1108   0.526   0.066   1.041 -0.2159 -0.0419 -0.1014
  370SOL    HW1 1109   0.491   3.070   1.065  2.5329  1.6006 -0.7596
  370SOL    HW2 1110   0.576   0.109   1.117 -0.9000 -1.4745 -4.2290
  371SOL     OW 1111   2.660   1.345   2.738 -0.2557 -0.3488 -0.0934
  371SOL    HW1 1112   2.601   1.418   2.704  0.9972 -3.3679  2.8193
  371SOL    HW2 1113   2.618   1.288   2.816 -3.7570  0.4527  1.1826
  372SOL     OW 1114   0.705   0.665   2.438 -0.3177 -0.0557 -0.0766
  372SOL    HW1 1115   0.639   0.671   2.357  0.3888 -2.2325 -1.1158
  372SOL    HW2 1116   0.804   0.659   2.412  0.2261 -0.0962  1.1399
  373SOL     OW 1117   0.583   0.456   3.086  0.0922 -0.9078 -0.0325
  373SOL    HW1 1118   0.559   0.436   2.984  0.8672  0.1654 -0.8841
  373SOL    HW2 1119   0.658   0.396   0.019  0.3288  0.9116 -0.9769
  374SOL     OW 1120   1.170   2.136   0.069  0.3576 -0.2424  0.2583
  374SOL    HW1 1121   1.224   2.213   0.031 -0.6161 -1.4969 -1.8552
  374SOL    HW2 1122   1.190   2.039   0.035 -4.7878  0.5083 -0.8533
  375SOL     OW 1123   0.784   2.959   1.552  0.6434  0.2953 -0.2119
  375SOL    HW1 1124   0.883   2.954   1.539  0.1948  0.6029 -1.5633
  375SOL    HW2 1125   0.743   2.976   1.460  0.4100 -3.7556 -1.3608
  376SOL     OW 1126   0.321   2.587   1.983 -0.2360  0.6423  0.1450
  376SOL    HW1 1127   0.249   2.524   2.022 -4.9655 -1.0310  1.1696
  376SOL    HW2 1128   0.412   2.541   1.974  2.6262  0.1716 -0.3642
  377SOL     OW 1129   2.515   2.044   0.075 -0.0645  0.1046 -0.2469
  377SOL    HW1 1130   2.601   2.054   0.130 -3.0374  0.2402  1.3528
  377SOL    HW2 1131   2.442   2.017   0.138 -0.6526 -0.5931  3.3372
  378SOL     OW 1132   2.255   0.182   0.580  0.2889  0.0347  0.0897
  378SOL    HW1 1133   2.290   0.271   0.614  0.9707 -2.0082 -1.4286
  378SOL    HW2 1134   2.335   0.120   0.584  2.0164  1.6505  1.4925
  379SOL     OW 1135   0.977   0.588   0.543 -0.2388 -0.6131 -0.4085
  379SOL    HW1 1136   1.034   0.651   0.493 -0.9074 -2.9464 -0.8945
  379SOL    HW2 1137   0.896   0.636   0.582 -0.1311 -1.3084 -0.9364
  380SOL     OW 1138   2.626   2.324   1.876 -0.3286 -0.0775  0.5057
  380SOL    HW1 1139   2.711   2.368   1.910 -2.0177 -0.3851 -2.7570
  380SOL    HW2 1140   2.656   2.254   1.812  0.3745  0.7058  1.2430
  381SOL     OW 1141   2.725   1.410   2.017  0.2709  0.0810 -0.0339
  381SOL    HW1 1142   2.709   1.508   2.029  0.2326  0.2815 -1.8983
  381SOL    HW2 1143   2.659   1.356   2.078 -0.5337 -2.3258 -0.3751
  382SOL     OW 1144   2.934   2.126   2.876  0.6014 -0.1402 -0.1091
  382SOL    HW1 1145   2.933   2.089   2.971  1.3189  0.9585 -0.5391
  382SOL    HW2 1146   2.879   2.214   2.879 -0.3018 -0.3426 -0.4414
  383SOL     OW 1147   1.480   0.951   2.659 -0.3641  0.0754  0.1735
  383SOL    HW1 1148   1.448   1.048   2.652 -0.6503  3.3932 -0.5506
  383SOL    HW2 1149   1.503   0.916   2.564  0.0952  1.6300  1.3543
  384SOL     OW 1150   1.322   2.080   2.229 -0.0254  0.4151  0.1138
  384SOL    HW1 1151   1.347   2.167   2.279  1.0756  2.0653  0.8349
  384SOL    HW2 1152   1.220   2.072   2.219 -1.1747 -1.6598 -0.0168
  385SOL     OW 1153   2.678   2.668   0.139 -0.4067  0.7096  0.1059
  385SOL    HW1 1154   2.649   2.578   0.173  0.0754 -1.2957 -1.2334
  385SOL    HW2 1155   2.729   2.723   0.211 -0.7310 -0.5536  4.4524
  386SOL     OW 1156   1.514   1.059   0.765  0.6494 -1.0783 -0.4753
  386SOL    HW1 1157   1.425   1.087   0.720 -1.1652  0.1688  1.8401
  386SOL    HW2 1158   1.499   0.973   0.818  0.2391  0.2723  0.4137
  387SOL     OW 1159   2.887   1.872   1.456  0.3995  0.6269  0.0399
  387SOL    HW1 1160   2.852   1.956   1.411  0.2980  2.7306  1.0820
  387SOL    HW2 1161   2.969   1.838   1.403  2.2731 -0.6608 -4.2344
  388SOL     OW 1162   0.495   1.279   1.477  0.5126  0.4218 -0.4277
  388SOL    HW1 1163   0.525   1.293   1.575 -0.2386  1.8500  0.2954
  388SOL    HW2 1164   0.518   1.182   1.448  1.9822 -2.0016  1.5859
  389SOL     OW 1165   2.095   0.918   2.558  0.1992 -0.0679  0.5060
  389SOL    HW1 1166   2.128   0.891   2.651  2.9838  0.5241 -3.4321
  389SOL    HW2 1167   2.036   1.000   2.562 -0.8783 -0.0078 -3.0276
  390SOL     OW 1168   1.009   1.589   0.082  0.1317  0.3692  0.1541
  390SOL    HW1 1169   0.918   1.622   0.047 -1.3285 -3.0919 -0.4040
  390SOL    HW2 1170   1.028   1.494   0.052  1.2546 -1.2151 -1.5330
  391SOL     OW 1171   1.091   1.655   0.349  0.2329 -0.1083  0.0076
  391SOL    HW1 1172   1.077   1.752   0.379  0.0426 -2.0004 -1.8060
  391SOL    HW2 1173   1.043   1.641   0.262 -1.7860 -0.9902  4.8259
  392SOL     OW 1174   2.745   2.913   2.442  0.4476 -0.0133  0.1990
  392SOL    HW1 1175   2.789   2.932   2.354 -0.2122 -0.3382  1.3535
  392SOL    HW2 1176   2.813   2.931   2.513  0.5830 -0.1018  0.9448
  393SOL     OW 1177   1.573   2.159   0.040  0.0550 -0.3669 -0.3844
  393SOL    HW1 1178   1.533   2.097   0.109  1.2225  2.3491  0.7637
  393SOL    HW2 1179   1.506   2.229   0.011  1.1667  1.3945  0.0676
  394SOL     OW 1180   0.688   0.199   2.234  0.6191  0.4136  0.2743
  394SOL    HW1 1181   0.766   0.168   2.294 -2.0954  0.9375 -1.7163
  394SOL    HW2 1182   0.723   0.231   2.139 -0.1307  1.6342 -3.2376
  395SOL     OW 1183   0.317   1.666   1.331  0.2702  0.3546 -0.3408
  395SOL    HW1 1184   0.347   1.761   1.338  0.9390 -1.6619  2.0959
  395SOL    HW2 1185   0.231   1.665   1.280  1.5626  1.1849 -2.3634
  396SOL     OW 1186   2.151   1.503   2.849 -0.1896  0.4704 -0.0197
  396SOL    HW1 1187   2.093   1.543   2.774  0.4989  0.1427 -2.3640
  396SOL    HW2 1188   2.100   1.502   2.938 -0.0706 -1.5112 -0.2475
  397SOL     OW 1189   0.247   0.837   3.032  0.1648  0.0132  0.2052
  397SOL    HW1 1190   0.216   0.763   2.969 -0.8450 -0.9285  2.4433
  397SOL    HW2 1191   0.243   0.925   2.985 -0.5214  1.1452  2.3693
  398SOL     OW 1192   0.827   2.417   0.142  0.2515 -0.6196 -0.5503
  398SOL    HW1 1193   0.915   2.459   0.102  0.8652  0.7152  1.5164
  398SOL    HW2 1194   0.759   2.493   0.163  0.6081 -0.7734  2.4781
  399SOL     OW 1195   1.965   2.377   2.597 -0.0998 -0.0767  0.1031
  399SOL    HW1 1196   1.920   2.421   2.679 -0.0836  0.8885  1.9889
  399SOL    HW2 1197   2.018   2.448   2.548  2.2072 -2.2054  1.5852
  400SOL     OW 1198   0.002   1.138   1.830 -0.7513  0.4078 -0.3473
  400SOL    HW1 1199   3.046   1.223   1.848  0.7990 -0.0064  1.2705
  400SOL    HW2 1200   0.085   1.167   1.775  0.8756  1.4071 -0.4376
  401SOL     OW 1201   0.728   0.705   0.644 -0.8343  0.1582  0.1650
  401SOL    HW1 1202   0.676   0.752   0.574 -0.1707 -1.0925  0.2626
  401SOL    HW2 1203   0.716   0.749   0.736  0.3695  0.6116  4.0369
  402SOL     OW 1204   0.975   0.131   2.630  0.1594  0.1016 -0.6009
  402SOL    HW1 1205   0.937   0.209   2.680  1.6777 -0.4279  0.8469
  402SOL    HW2 1206   0.965   0.044   2.683  1.2425  2.8232 -0.5204
  403SOL     OW 1207   2.528   1.673   1.785  0.0163 -0.4111 -0.1447
  403SOL    HW1 1208   2.576   1.746   1.838  1.3758 -2.4088 -0.2696
  403SOL    HW2 1209   2.598   1.609   1.748  1.5884  0.4306  0.6030
  404SOL     OW 1210   2.567   2.324   1.410  0.7802 -0.1134 -0.0663
  404SOL    HW1 1211   2.664   2.330   1.425  0.1347  1.0499 -0.7028
  404SOL    HW2 1212   2.549   2.331   1.311 -2.4883 -0.1223  1.0674
  405SOL     OW 1213   1.892   0.275   2.618 -0.3235  0.8641 -0.3183
  405SOL    HW1 1214   1.948   0.219   2.556  0.4531  1.5236  1.4672
  405SOL    HW2 1215   1.916   0.372   2.626  1.4113 -0.6774 -0.9455
  406SOL     OW 1216   1.199   1.825   0.037 -0.0718 -0.1218  0.2257
  406SOL    HW1 1217   1.279   1.777   0.081  1.4009  0.3824 -0.2788
  406SOL    HW2 1218   1.124   1.760   0.035  2.4672 -0.3323 -0.5980
  407SOL     OW 1219   1.906   1.727   0.596 -0.1570 -0.4173 -0.7305
  407SOL    HW1 1220   1.862   1.773   0.673  0.3116  0.9638 -4.3970
  407SOL    HW2 1221   1.840   1.679   0.535 -1.8205  0.0960  1.8180
  408SOL     OW 1222   3.091   0.334   1.349 -0.9601  0.4759  0.4154
  408SOL    HW1 1223   3.082   0.397   1.267 -2.6906  1.8877  1.0263
  408SOL    HW2 1224   0.075   0.269   1.337  0.1727 -0.0381 -0.3894
  409SOL     OW 1225   2.233   1.336   0.153  0.2741 -0.0296  0.0015
  409SOL    HW1 1226   2.299   1.270   0.196 -0.8904 -0.1626 -1.3340
  409SOL    HW2 1227   2.281   1.409   0.108 -0.0879  1.3779 -0.0037
  410SOL     OW 1228   2.261   2.329   0.925 -0.0031 -0.6425 -0.2951
  410SOL    HW1 1229   2.169   2.368   0.934  2.4107  3.3715 -1.2932
  410SOL    HW2 1230   2.293   2.272   1.002  0.9231  0.8650 -0.5302
  411SOL     OW 1231   0.388   0.034   0.232  0.2706 -0.0858  0.7251
  411SOL    HW1 1232   0.317   0.109   0.209 -0.2920  4.3203  0.4511
  411SOL    HW2 1233   0.443   0.003   0.153 -0.0125  1.3521  1.7240
  412SOL     OW 1234   1.626   2.827   0.537  0.0331 -0.4654  0.4031
  412SOL    HW1 1235   1.727   2.841   0.515  0.4318 -1.8588 -0.6011
  412SOL    HW2 1236   1.615   2.772   0.624  1.3290 -2.4919 -1.1624
  413SOL     OW 1237   1.815   0.125   2.314 -0.1877  0.1056  0.3761
  413SOL    HW1 1238   1.747   0.184   2.262 -0.5344  3.1109  0.1656
  413SOL    HW2 1239   1.795   0.028   2.309 -2.4805  1.1937 -1.4611
  414SOL     OW 1240   3.052   0.648   0.522  0.0958  0.0627 -0.0386
  414SOL    HW1 1241   3.075   0.640   0.422 -0.1097  1.1460 -0.6013
  414SOL    HW2 1242   0.038   0.623   0.577  0.2410 -0.1560  0.4457
  415SOL     OW 1243   3.021   1.293   0.829 -0.2216  0.3009 -0.2208
  415SOL    HW1 1244   2.967   1.221   0.881  1.3873 -3.4904  1.9244
  415SOL    HW2 1245   2.953   1.361   0.793 -0.0187  1.1459 -0.1544
  416SOL     OW 1246   0.053   0.796   2.729 -0.6408 -0.0398  0.6693
  416SOL    HW1 1247   0.073   0.734   2.803 -1.6031  2.9975  1.3418
  416SOL    HW2 1248   0.136   0.847   2.706 -0.6456 -1.7019 -0.3405
  417SOL     OW 1249   2.533   0.152   0.914  0.1562  0.2502  0.0737
  417SOL    HW1 1250   2.459   0.156   0.982  0.8788 -1.1657 -1.5807
  417SOL    HW2 1251   2.607   0.220   0.922 -0.1859  0.7357 -0.5102
  418SOL     OW 1252   0.890   3.019   2.803 -0.4252 -0.5087 -0.2429
  418SOL    HW1 1253   0.912   2.952   2.881  0.9260 -4.1210  0.4497
  418SOL    HW2 1254   0.866   2.970   2.721 -1.2804  1.7844 -1.4087
  419SOL     OW 1255   0.246   1.039   0.845 -0.0567  0.3004 -0.0516
  419SOL    HW1 1256   0.183   1.096   0.787 -0.1772 -0.1427 -0.6386
  419SOL    HW2 1257   0.244   0.942   0.809 -1.1509 -0.4185 -0.0691
  420SOL     OW 1258   2.922   1.349   1.475 -0.1296  0.5568  0.0078
  420SOL    HW1 1259   2.955   1.400   1.556 -2.1949  0.8790  2.2081
  420SOL    HW2 1260   2.965   1.257   1.468 -0.6788  1.7421  1.5991
  421SOL     OW 1261   1.299   1.931   2.899  0.1248  0.5102  0.1272
  421SOL    HW1 1262   1.378   1.914   2.836  1.3314  0.2329  0.6103
  421SOL    HW2 1263   1.312   1.882   2.987 -3.0246 -3.7618  1.0807
  422SOL     OW 1264   2.425   0.822   2.558 -0.0471 -0.1716 -0.2017
  422SOL    HW1 1265   2.338   0.768   2.562  0.3659  1.9975 -0.6547
  422SOL    HW2 1266   2.507   0.767   2.528  3.0770  0.0913 -0.8040
  423SOL     OW 1267   1.936   1.444   0.363  0.1246 -0.1073 -0.0251
  423SOL    HW1 1268   1.990   1.496   0.295  2.8533 -2.0110  0.2815
  423SOL    HW2 1269   1.847   1.412   0.325 -0.2475 -1.3499  0.0910
  424SOL     OW 1270   0.741   0.965   2.169 -0.5609 -0.0163  0.2682
  424SOL    HW1 1271   0.653   1.007   2.197 -1.9294  0.5517  0.7327
  424SOL    HW2 1272   0.819   0.986   2.229 -0.9033 -0.2898  2.5308
  425SOL     OW 1273   0.003   2.718   2.148 -0.5230  0.0327  0.0230
  425SOL    HW1 1274   3.050   2.726   2.059 -0.6190  1.5944  1.4998
  425SOL    HW2 1275   0.053   2.806   2.166 -0.0132  0.9671 -0.7492
  426SOL     OW 1276   2.414   2.666   0.434  0.3906  0.4098 -0.0914
  426SOL    HW1 1277   2.513   2.641   0.426 -2.2692  1.4912 -1.3966
  426SOL    HW2 1278   2.403   2.715   0.521 -2.4375 -0.5525  0.5860
  427SOL     OW 1279   0.986   0.535   2.796 -0.0677 -0.1811 -0.5914
  427SOL    HW1 1280   0.930   0.595   2.738 -0.2162 -2.2417 -0.1781
  427SOL    HW2 1281   0.978   0.551   2.899 -0.7271  0.9655 -0.2704
  428SOL     OW 1282   2.594   1.236   2.984 -0.3426  0.3977  0.1869
  428SOL    HW1 1283   2.683   1.223   3.035  4.3106  1.2231  0.6372
  428SOL    HW2 1284   2.525   1.286   3.045 -1.3055  2.3712 -2.6480
  429SOL     OW 1285   2.545   0.321   0.144 -0.1105  0.2156  0.2291
  429SOL    HW1 1286   2.464   0.369   0.171  4.0433 -3.0735  1.7519
  429SOL    HW2 1287   2.552   0.292   0.044 -1.0585  0.1029  1.2064
  430SOL     OW 1288   1.442   2.491   2.154 -0.8521  0.0258  0.6181
  430SOL    HW1 1289   1.446   2.595   2.137 -1.5374  0.9785 -0.6570
  430SOL    HW2 1290   1.393   2.455   2.074 -0.7486  1.0248 -3.0510
  431SOL     OW 1291   0.317   2.000   1.415 -0.5690 -0.0563  0.1040
  431SOL    HW1 1292   0.221   2.007   1.396  0.3880 -2.0982 -0.1877
  431SOL    HW2 1293   0.330   1.965   1.511  3.2204 -0.9635 -0.5856
  432SOL     OW 1294   2.140   2.761   2.116  0.3101  0.0811 -0.5156
  432SOL    HW1 1295   2.099   2.854   2.125 -2.9138 -3.0240 -0.0909
  432SOL    HW2 1296   2.215   2.760   2.050  1.9855 -0.3055  0.0188
  433SOL     OW 1297   1.167   2.109   0.327 -0.2956 -0.6831  0.1938
  433SOL    HW1 1298   1.121   2.024   0.350  0.2622  1.9819  2.2484
  433SOL    HW2 1299   1.179   2.125   0.226 -0.1900  2.8239 -0.8264
  434SOL     OW 1300   0.184   1.873   2.679 -0.4525 -0.1720  0.1229
  434SOL    HW1 1301   0.287   1.869   2.670  0.6106 -2.2479 -1.0872
  434SOL    HW2 1302   0.155   1.915   2.766 -0.5200 -1.5597 -1.7731
  435SOL     OW 1303   0.062   1.038   0.451  0.0351  0.0183  0.3988
  435SOL    HW1 1304   3.097   1.114   0.429  0.9925 -1.4571  0.4276
  435SOL    HW2 1305   0.027   0.958   0.507  0.0038  1.7756 -1.6441
  436SOL     OW 1306   0.574   2.641   1.668  0.0121  0.1918  0.7975
  436SOL    HW1 1307   0.508   2.707   1.625  1.5627 -0.0789  0.3124
  436SOL    HW2 1308   0.657   2.695   1.686 -1.4974  1.3332  0.1077
  437SOL     OW 1309   0.754   2.983   0.627  0.2304 -0.3004  0.1765
  437SOL    HW1 1310   0.789   3.083   0.614 -0.3151  1.4593 -2.7793
  437SOL    HW2 1311   0.770   2.922   0.551 -2.1961  1.6729 -0.5463
  438SOL     OW 1312   0.242   2.374   0.646  0.3906  0.3187 -0.0747
  438SOL    HW1 1313   0.295   2.430   0.716  2.4075 -1.3227 -0.2007
  438SOL    HW2 1314   0.256   2.275   0.666  1.5496 -1.6927 -2.8534
  439SOL     OW 1315   0.801   2.333   1.632 -0.0970  0.2551  0.1822
  439SOL    HW1 1316   0.827   2.326   1.532  1.0555 -1.0840  2.4229
  439SOL    HW2 1317   0.833   2.425   1.657 -0.9567  0.4057 -2.6233
  440SOL     OW 1318   2.018   2.999   2.141  0.0285 -0.3930  0.3380
  440SOL    HW1 1319   2.046   3.081   2.084 -0.3565  1.0626 -1.4217
  440SOL    HW2 1320   1.933   2.970   2.093  3.6109  3.0137 -4.3047
  441SOL     OW 1321   3.066   0.398   1.929  0.0972 -0.6606 -0.0667
  441SOL    HW1 1322   0.025   0.347   1.990 -0.7599 -0.9250 -0.0755
  441SOL    HW2 1323   3.064   0.370   1.832  1.8207 -1.5527  0.0189
  442SOL     OW 1324   1.943   2.426   0.702  0.0431 -0.1847 -0.5289
  442SOL    HW1 1325   2.026   2.466   0.653  0.9932  0.6776  0.2073
  442SOL    HW2 1326   1.961   2.428   0.801 -2.0786  0.0155 -0.6046
  443SOL     OW 1327   2.770   0.825   2.289  0.0460 -0.1882 -0.0196
  443SOL    HW1 1328   2.705   0.768   2.343 -2.5414 -0.7736 -2.4152
  443SOL    HW2 1329   2.857   0.836   2.341  1.5531  1.5091 -0.3749
  444SOL     OW 1330   1.774   0.968   2.169  0.2693 -0.0105  0.2071
  444SOL    HW1 1331   1.772   0.986   2.070 -1.1555 -0.2901  1.3276
  444SOL    HW2 1332   1.727   1.042   2.225 -0.0422  2.1646  1.4377
  445SOL     OW 1333   3.094   2.309   1.278  0.0384  0.1260 -0.3701
  445SOL    HW1 1334   0.038   2.334   1.368  2.1985 -0.2549  0.1968
  445SOL    HW2 1335   0.048   2.344   1.196  0.2522  1.7075  0.8492
  446SOL     OW 1336   2.687   1.590   1.165  0.0717 -0.4500  0.1745
  446SOL    HW1 1337   2.649   1.630   1.251  0.0209  0.5326 -0.0778
  446SOL    HW2 1338   2.701   1.493   1.170 -0.3603  1.6005 -2.2365
  447SOL     OW 1339   0.502   1.067   0.784  0.2974  0.0706 -0.3882
  447SOL    HW1 1340   0.404   1.052   0.808  2.3896  2.1123 -0.7011
  447SOL    HW2 1341   0.508   1.104   0.689  0.3407  1.5676  0.3248
  448SOL     OW 1342   1.359   1.702   2.056  0.1009  0.0327 -0.3927
  448SOL    HW1 1343   1.272   1.752   2.049 -0.3710 -1.9273  2.1853
  448SOL    HW2 1344   1.342   1.605   2.045 -0.7152  1.3304 -2.4789
  449SOL     OW 1345   1.432   1.324   0.355  0.0986  0.4648 -0.0942
  449SOL    HW1 1346   1.530   1.296   0.354  1.2180 -1.6329 -1.9880
  449SOL    HW2 1347   1.373   1.240   0.343 -1.7447 -1.3173 -0.9704
  450SOL     OW 1348   2.856   2.656   2.298  0.0669  0.0154 -0.4088
  450SOL    HW1 1349   2.924   2.693   2.238 -1.5675 -2.1320  2.4157
  450SOL    HW2 1350   2.767   2.647   2.252 -0.3747 -2.7559 -0.7602
  451SOL     OW 1351   2.475   0.426   2.645  0.0503  0.1338 -0.7722
  451SOL    HW1 1352   2.561   0.470   2.666 -0.7228  1.6433  1.0339
  451SOL    HW2 1353   2.491   0.323   2.644 -0.6056  2.4012  0.8329
  452SOL     OW 1354   1.562   0.334   1.026  0.4528  0.2172 -0.2889
  452SOL    HW1 1355   1.627   0.312   1.103  0.1443  1.7866 -0.1484
  452SOL    HW2 1356   1.541   0.432   1.026  1.9556  3.4350 -1.2998
  453SOL     OW 1357   1.742   0.901   1.634 -0.2992  0.0600  0.5790
  453SOL    HW1 1358   1.744   0.917   1.528 -1.4032  0.0454 -0.5399
  453SOL    HW2 1359   1.840   0.889   1.665 -0.9597  2.8794  3.2395
  454SOL     OW 1360   2.931   1.692   0.548  0.2612  0.2512  0.3642
  454SOL    HW1 1361   3.031   1.670   0.532  1.2108  0.0681 -0.0739
  454SOL    HW2 1362   2.922   1.771   0.616  1.8269  2.0188  0.4452
  455SOL     OW 1363   2.941   0.021   0.504  0.1081  0.1992 -0.3447
  455SOL    HW1 1364   2.949   0.118   0.469 -0.9870  0.9303  0.4215
  455SOL    HW2 1365   3.025   3.062   0.481  0.5268 -0.0861 -1.0965
  456SOL     OW 1366   0.180   2.758   1.276  0.4242 -0.3183 -0.0252
  456SOL    HW1 1367   0.170   2.811   1.362  0.5427 -1.2876  0.1459
  456SOL    HW2 1368   0.181   2.658   1.296  1.1184 -1.4013  0.8226
  457SOL     OW 1369   1.343   0.022   0.598  0.4239 -0.1401 -0.0961
  457SOL    HW1 1370   1.271   0.002   0.665  2.5439 -0.8148  1.3010
  457SOL    HW2 1371   1.429   0.030   0.656  0.3437 -1.8065  0.3760
  458SOL     OW 1372   2.475   0.029   0.667 -0.7357 -0.1307 -0.4737
  458SOL    HW1 1373   2.490   0.066   0.762  1.9818  0.0898  1.4184
  458SOL    HW2 1374   2.564   3.086   0.634  3.7677 -1.9465  0.5917
  459SOL     OW 1375   2.262   0.584   2.775  0.0725  0.1712  0.1371
  459SOL    HW1 1376   2.327   0.529   2.722 -3.4538 -0.6226 -1.4271
  459SOL    HW2 1377   2.264   0.560   2.874 -1.8333 -1.9697  0.7372
  460SOL     OW 1378   2.947   2.889   2.968  0.2103  0.0962 -0.3334
  460SOL    HW1 1379   2.944   2.988   2.948  1.9728 -2.2621 -1.0670
  460SOL    HW2 1380   3.046   2.852   2.975  3.2622 -1.8845  0.2354
  461SOL     OW 1381   0.996   1.912   0.394 -0.2983  0.1061  0.3617
  461SOL    HW1 1382   0.982   1.948   0.488  0.7652  0.4117 -1.6530
  461SOL    HW2 1383   0.906   1.889   0.360  1.0915  1.2737  0.3176
  462SOL     OW 1384   2.345   2.154   1.107  0.1574 -0.3453 -0.0757
  462SOL    HW1 1385   2.275   2.136   1.178  1.9033  1.1241 -0.0946
  462SOL    HW2 1386   2.360   2.075   1.051  0.5705 -1.4994 -0.1156
  463SOL     OW 1387   2.451   0.945   0.614 -0.2612 -0.4057 -0.5586
  463SOL    HW1 1388   2.366   0.900   0.584 -0.0502  0.9345 -0.0611
  463SOL    HW2 1389   2.529   0.882   0.605 -0.9268 -0.7833 -1.1345
  464SOL     OW 1390   0.264   0.149   1.322 -0.2022 -0.9468 -0.3286
  464SOL    HW1 1391   0.221   0.109   1.235  2.5796 -1.0751  0.6516
  464SOL    HW2 1392   0.339   0.086   1.347 -1.5570  1.5618 -1.9247
  465SOL     OW 1393   2.849   1.494   0.130  0.0973  0.4311  0.3383
  465SOL    HW1 1394   2.753   1.520   0.156  2.6979 -0.8971  1.8020
  465SOL    HW2 1395   2.839   1.401   0.089 -0.7145 -2.6979  3.7303
  466SOL     OW 1396   1.641   0.181   2.674 -0.1081  0.1069  0.0465
  466SOL    HW1 1397   1.722   0.206   2.620 -0.4029  4.1851  1.3299
  466SOL    HW2 1398   1.573   0.258   2.678 -1.7708  1.2429 -2.1921
  467SOL     OW 1399   0.830   0.479   1.641  0.1161 -0.1236 -0.3514
  467SOL    HW1 1400   0.858   0.535   1.721  0.0163 -1.9064 -2.8596
  467SOL    HW2 1401   0.848   0.525   1.550  1.0191 -1.1513 -0.6470
  468SOL     OW 1402   0.551   1.045   2.677 -0.1869 -0.1851  0.0511
  468SOL    HW1 1403   0.588   1.140   2.695  1.7656  1.8757 -1.3710
  468SOL    HW2 1404   0.626   0.991   2.626  3.1421 -1.9964  0.0203
  469SOL     OW 1405   0.203   2.103   0.047  0.4100 -0.2742 -0.6948
  469SOL    HW1 1406   0.204   2.206   0.036  2.4200  1.6131 -0.3470
  469SOL    HW2 1407   0.171   2.084   0.143  1.1775  0.0679 -2.7718
  470SOL     OW 1408   2.227   1.796   2.637  0.0471 -0.3863  0.1490
  470SOL    HW1 1409   2.263   1.704   2.648  2.6866 -1.4666 -3.1155
  470SOL    HW2 1410   2.294   1.870   2.665  2.6978 -0.6223 -1.0516
  471SOL     OW 1411   2.618   1.282   2.232  0.5333  1.0011 -0.0816
  471SOL    HW1 1412   2.609   1.188   2.192 -1.7737 -0.2298 -1.3625
  471SOL    HW2 1413   2.680   1.294   2.310  0.7398 -0.5871 -2.5772
  472SOL     OW 1414   0.520   2.736   0.565  0.1815 -0.0098  0.2090
  472SOL    HW1 1415   0.484   2.710   0.475 -0.5506 -1.6618  1.9642
  472SOL    HW2 1416   0.469   2.817   0.598 -0.8969 -0.1570 -0.3075
  473SOL     OW 1417   0.658   0.010   2.926  0.3742 -0.1620 -0.0580
  473SOL    HW1 1418   0.633   0.022   3.030  1.7189  1.5918  0.3874
  473SOL    HW2 1419   0.756   0.019   2.902  2.2044 -0.2063 -1.3651
  474SOL     OW 1420   1.678   2.944   2.316 -0.3695 -0.1392 -0.1832
  474SOL    HW1 1421   1.609   2.879   2.356 -0.4441 -2.6485  2.7132
  474SOL    HW2 1422   1.655   2.967   2.220 -0.1124 -0.1445 -0.7669
  475SOL     OW 1423   1.648   2.460   0.344 -0.4626 -0.4836 -0.0996
  475SOL    HW1 1424   1.647   2.369   0.394  0.3564  2.7383  1.4379
  475SOL    HW2 1425   1.693   2.449   0.253  0.1876  0.0235 -1.8102
  476SOL     OW 1426   0.215   0.760   0.854  0.3380  0.1250 -0.4505
  476SOL    HW1 1427   0.128   0.790   0.900  3.5762 -1.1004  2.6611
  476SOL    HW2 1428   0.240   0.670   0.888 -0.0948  1.4808 -0.0389
  477SOL     OW 1429   1.409   2.333   0.790  0.2955 -0.4805  0.0997
  477SOL    HW1 1430   1.467   2.272   0.734  1.5406  1.1513 -0.3085
  477SOL    HW2 1431   1.311   2.307   0.785  0.3757 -0.9386  0.7395
  478SOL     OW 1432   0.380   2.312   2.268  0.0251 -0.2585 -0.1827
  478SOL    HW1 1433   0.333   2.294   2.358  2.1057  1.4998  3.9734
  478SOL    HW2 1434   0.316   2.326   2.189  0.4773  0.3728 -0.0113
  479SOL     OW 1435   2.502   0.667   0.884 -0.2936  0.1907 -0.0606
  479SOL    HW1 1436   2.570   0.647   0.805  3.2289 -0.1878 -2.4474
  479SOL    HW2 1437   2.546   0.660   0.978  0.6566 -0.1899 -0.5189
  480SOL     OW 1438   3.096   2.764   0.190  0.6616  0.2034  0.4934
  480SOL    HW1 1439   0.072   2.825   0.216  0.7738 -2.8591 -0.5339
  480SOL    HW2 1440   3.087   2.763   0.090  0.5331 -1.5195  0.4074
  481SOL     OW 1441   2.682   2.764   1.273  0.0153  0.0118 -0.1987
  481SOL    HW1 1442   2.649   2.750   1.369  0.4952  1.8014 -0.3359
  481SOL    HW2 1443   2.713   2.859   1.262  1.5672 -0.6150 -0.0870
  482SOL     OW 1444   1.212   2.129   2.760 -0.0887 -0.1038 -0.2776
  482SOL    HW1 1445   1.247   2.048   2.815 -0.0839 -0.0730 -1.3967
  482SOL    HW2 1446   1.268   2.151   2.678 -1.6660  0.9410 -2.2012
  483SOL     OW 1447   0.474   1.967   2.627  0.1639  0.1276 -0.2857
  483SOL    HW1 1448   0.540   1.905   2.670 -0.1715 -0.9122  0.0916
  483SOL    HW2 1449   0.494   2.063   2.648  0.2997 -2.4885 -2.4843
  484SOL     OW 1450   0.922   0.886   1.216  0.0303 -0.5190  0.1924
  484SOL    HW1 1451   0.843   0.886   1.279  3.0051 -1.2614 -1.1513
  484SOL    HW2 1452   1.011   0.898   1.262  0.5510  0.8243 -1.2444
  485SOL     OW 1453   2.388   0.519   0.282 -0.6995 -0.7260 -0.0745
  485SOL    HW1 1454   2.303   0.507   0.344 -5.4340 -1.0168  0.2802
  485SOL    HW2 1455   2.380   0.609   0.236 -1.3527 -1.4443  1.9354
  486SOL     OW 1456   1.720   0.270   1.238 -0.3939  0.1457  0.1054
  486SOL    HW1 1457   1.692   0.188   1.294 -0.7627 -1.0789  2.2244
  486SOL    HW2 1458   1.824   0.276   1.240 -1.0561  2.5825 -0.1385
  487SOL     OW 1459   0.114   2.419   1.075 -0.8262  0.4357 -0.9226
  487SOL    HW1 1460   0.018   2.451   1.063 -0.2864 -0.0855  2.8596
  487SOL    HW2 1461   0.176   2.497   1.069  1.3513  0.0931 -0.3851
  488SOL     OW 1462   2.525   1.177   0.457  0.5357  0.0040  0.2331
  488SOL    HW1 1463   2.486   1.174   0.365 -0.2754  0.4834 -2.2127
  488SOL    HW2 1464   2.496   1.096   0.513  0.7305  1.5707  2.0340
  489SOL     OW 1465   1.786   3.070   1.076  0.3927  0.2206 -0.1677
  489SOL    HW1 1466   1.792   3.067   0.975  0.2005  2.0030  1.1779
  489SOL    HW2 1467   1.767   0.069   1.108 -0.8377 -0.6176 -0.0181
  490SOL     OW 1468   0.808   0.339   0.482 -0.0672  0.5367 -0.0508
  490SOL    HW1 1469   0.707   0.345   0.476 -1.3663 -0.5002 -0.5688
  490SOL    HW2 1470   0.855   0.430   0.488 -0.6563 -0.3212  0.4658
  491SOL     OW 1471   0.545   2.476   0.686 -0.0492 -0.6356  0.3518
  491SOL    HW1 1472   0.577   2.413   0.614 -0.9235  0.3025  0.4557
  491SOL    HW2 1473   0.545   2.572   0.656 -4.7319 -2.5332  1.8722
  492SOL     OW 1474   1.108   1.346   2.548  0.0363 -0.2728 -1.0241
  492SOL    HW1 1475   1.114   1.300   2.638  0.3205 -1.4413 -2.0845
  492SOL    HW2 1476   1.140   1.442   2.558  0.7390  0.8193  1.4938
  493SOL     OW 1477   0.046   2.755   0.984  0.1511  0.3456 -0.3854
  493SOL    HW1 1478   3.073   2.678   1.000  3.5777  0.4453 -0.3201
  493SOL    HW2 1479   0.066   2.801   1.075  0.8935  1.9721 -0.2695
  494SOL     OW 1480   2.818   2.096   0.298 -0.3011  0.2415 -0.4230
  494SOL    HW1 1481   2.812   2.199   0.316  0.8815  1.4097  0.6610
  494SOL    HW2 1482   2.734   2.053   0.336 -0.4443  2.4511  0.2314
  495SOL     OW 1483   2.547   1.808   3.067 -0.7323  0.0624 -0.3554
  495SOL    HW1 1484   2.519   1.900   3.085  4.0898 -1.0094 -0.7040
  495SOL    HW2 1485   2.495   1.762   2.991  0.3971 -1.2786 -1.0948
  496SOL     OW 1486   2.875   0.175   1.590 -0.6288  0.5495 -0.4725
  496SOL    HW1 1487   2.957   0.235   1.571  3.1492  3.1116  2.7982
  496SOL    HW2 1488   2.813   0.228   1.645  0.5523  0.6990  0.3338
  497SOL     OW 1489   2.480   0.937   0.037  0.9152 -0.2924 -0.2447
  497SOL    HW1 1490   2.422   0.967   3.054  0.1321 -2.4485 -1.0596
  497SOL    HW2 1491   2.573   0.910   0.005 -0.4898  0.5735 -3.3818
  498SOL     OW 1492   0.060   1.983   2.212  0.0496 -0.4941  0.0401
  498SOL    HW1 1493   3.078   2.034   2.184  1.0415 -0.9817 -0.1142
  498SOL    HW2 1494   0.081   2.005   2.310 -0.2565  1.3696 -0.5425
  499SOL     OW 1495   0.886   2.355   2.888  0.1080 -0.2265  0.5996
  499SOL    HW1 1496   0.856   2.267   2.939 -0.1034 -1.2150  0.0040
  499SOL    HW2 1497   0.928   2.325   2.801 -0.0080 -0.9448  4.0795
  500SOL     OW 1498   1.585   2.981   3.005 -0.2353 -0.1444  0.9515
  500SOL    HW1 1499   1.683   2.992   2.968  2.1635  3.3834 -0.7383
  500SOL    HW2 1500   1.555   3.063   3.057 -2.0374  0.0367  0.6695
  501SOL     OW 1501   1.583   0.013   1.653 -0.2721  0.0691 -0.2244
  501SOL    HW1 1502   1.664   3.050   1.649  0.0987 -1.6938 -3.0866
  501SOL    HW2 1503   1.610   0.108   1.650 -1.0393 -1.7586 -1.5000
  502SOL     OW 1504   2.917   0.811   2.074  0.0287 -0.4522 -0.0080
  502SOL    HW1 1505   3.012   0.769   2.086  2.6853 -1.0313  0.8921
  502SOL    HW2 1506   2.856   0.813   2.157  0.3791 -1.1219 -2.5059
  503SOL     OW 1507   2.236   2.270   2.330 -0.1823  0.1395 -0.3128
  503SOL    HW1 1508   2.205   2.304   2.238 -0.4024  0.5508  1.5240
  503SOL    HW2 1509   2.161   2.224   2.382  2.4848 -0.6221  1.7888
  504SOL     OW 1510   1.604   0.698   1.756  0.1550  0.6565  0.0280
  504SOL    HW1 1511   1.654   0.778   1.720  4.5997  0.5888  1.2074
  504SOL    HW2 1512   1.662   0.610   1.735  1.3962 -2.8219 -0.9093
  505SOL     OW 1513   0.791   0.991   1.656  0.1612 -0.4772 -0.3236
  505SOL    HW1 1514   0.769   0.936   1.573  2.0028  0.3964 -1.6800
  505SOL    HW2 1515   0.757   0.946   1.742 -1.2756 -0.6971 -0.0323
  506SOL     OW 1516   0.312   0.758   2.402 -0.1981 -0.5106 -0.3147
  506SOL    HW1 1517   0.243   0.793   2.338 -2.5687  1.4302  1.4115
  506SOL    HW2 1518   0.393   0.713   2.358  1.4891 -4.4148 -2.6347
  507SOL     OW 1519   0.356   2.837   3.027  0.4342 -0.8842 -0.3190
  507SOL    HW1 1520   0.447   2.840   2.979  1.2719  1.7907 -1.2065
  507SOL    HW2 1521   0.307   2.920   2.999  0.5591  0.1347 -0.9267
  508SOL     OW 1522   1.295   0.724   1.695  0.4269 -0.6017  0.0668
  508SOL    HW1 1523   1.397   0.723   1.692  2.5139  1.2143  0.7668
  508SOL    HW2 1524   1.264   0.808   1.649 -0.8715  0.0224  2.0845
  509SOL     OW 1525   1.127   1.993   1.478  0.5501  0.5472  1.3742
  509SOL    HW1 1526   1.140   1.922   1.544  0.5411  1.3094 -0.2468
  509SOL    HW2 1527   1.216   2.017   1.439  0.1371  1.3069  0.6020
  510SOL     OW 1528   2.411   1.393   2.348  0.6172  0.3667 -0.2126
  510SOL    HW1 1529   2.379   1.312   2.402  0.1732 -1.4704  2.5762
  510SOL    HW2 1530   2.489   1.363   2.289  0.6994 -1.9065  0.7639
  511SOL     OW 1531   0.694   1.941   1.041 -0.2654 -0.1211 -0.6265
  511SOL    HW1 1532   0.650   2.031   1.026 -1.0438  1.7374  1.1943
  511SOL    HW2 1533   0.693   1.917   1.140 -0.4310 -0.9074 -1.2221
  512SOL     OW 1534   2.497   2.219   0.360  0.4706  0.5737 -0.1396
  512SOL    HW1 1535   2.398   2.226   0.342 -1.2663  0.7753  0.6365
  512SOL    HW2 1536   2.519   2.284   0.436  1.6638 -3.2168 -2.2976
  513SOL     OW 1537   2.942   1.724   2.716  0.0569 -0.9331  0.1131
  513SOL    HW1 1538   2.968   1.627   2.713 -0.3835 -2.2494  1.1169
  513SOL    HW2 1539   2.888   1.733   2.802 -1.2246 -0.3752 -0.2647
  514SOL     OW 1540   0.139   2.603   2.350 -0.0575  0.3141  0.1318
  514SOL    HW1 1541   0.135   2.503   2.378 -0.0931 -2.0041 -0.2108
  514SOL    HW2 1542   0.101   2.615   2.263  0.5236 -1.3169  3.0893
  515SOL     OW 1543   2.076   1.207   1.440 -0.3039 -0.3076  0.0688
  515SOL    HW1 1544   2.098   1.233   1.342  0.3227  2.2970  0.7518
  515SOL    HW2 1545   2.150   1.236   1.504 -1.9999  2.0723  2.0641
  516SOL     OW 1546   2.529   2.289   3.036  0.4586  0.0108 -0.4201
  516SOL    HW1 1547   2.600   2.302   2.965 -1.2321 -1.3641 -0.9234
  516SOL    HW2 1548   2.510   2.195   3.069  1.0296  2.2852  0.5079
  517SOL     OW 1549   1.355   0.805   0.001 -0.2420  0.1612  0.0846
  517SOL    HW1 1550   1.313   0.853   3.016  0.7091 -1.3494 -0.0279
  517SOL    HW2 1551   1.316   0.713   0.011  0.1431 -1.5890 -0.4281
  518SOL     OW 1552   3.086   2.975   2.409 -0.0103 -0.1449  0.8322
  518SOL    HW1 1553   0.010   3.053   2.471 -1.2880 -2.2575 -0.8534
  518SOL    HW2 1554   3.078   2.882   2.455 -0.4009 -2.2579 -0.9938
  519SOL     OW 1555   1.431   1.808   2.287  0.5312  0.4441 -0.1578
  519SOL    HW1 1556   1.415   1.768   2.192 -2.2385 -0.7664 -1.7395
  519SOL    HW2 1557   1.365   1.888   2.305 -1.0982 -1.0017 -0.2836
  520SOL     OW 1558   3.066   2.735   2.551 -0.7411  0.1025 -0.0701
  520SOL    HW1 1559   0.017   2.685   2.477  0.1163 -2.9923 -2.4470
  520SOL    HW2 1560   2.972   2.695   2.562  0.1688  1.0519  1.8123
  521SOL     OW 1561   0.308   1.668   2.052  0.7594  0.4536  0.0193
  521SOL    HW1 1562   0.348   1.673   2.148  0.9072  0.0274  1.7111
  521SOL    HW2 1563   0.232   1.602   2.054  1.0922  0.1986 -0.1367
  522SOL     OW 1564   0.805   2.830   1.789 -0.4676 -0.2517 -0.2530
  522SOL    HW1 1565   0.772   2.892   1.715  1.6289  0.0737 -1.3202
  522SOL    HW2 1566   0.812   2.883   1.878  0.1483  3.1812  0.8736
  523SOL     OW 1567   0.223   2.490   1.371  0.4355  0.1554  0.1404
  523SOL    HW1 1568   0.240   2.420   1.444 -2.0297  1.7800 -4.7831
  523SOL    HW2 1569   0.310   2.543   1.361  0.1885  0.0685  0.0348
  524SOL     OW 1570   1.457   2.583   0.672  0.3547  0.5208  0.5448
  524SOL    HW1 1571   1.407   2.579   0.587  1.9376 -0.2098  1.4269
  524SOL    HW2 1572   1.419   2.512   0.732  0.6148  2.3688 -2.0593
  525SOL     OW 1573   2.389   0.999   1.110  0.6137  0.1749  0.1752
  525SOL    HW1 1574   2.340   1.086   1.134  3.5691 -0.3581  0.9900
  525SOL    HW2 1575   2.335   0.929   1.060  1.2892  0.5554  2.3665
  526SOL     OW 1576   0.911   2.227   0.656  0.0049  0.2602  0.4617
  526SOL    HW1 1577   0.902   2.238   0.555 -1.6435 -2.0676  0.6663
  526SOL    HW2 1578   0.933   2.129   0.680  1.1697 -2.7616 -0.2407
  527SOL     OW 1579   2.555   2.101   0.792 -0.0107 -0.2029  0.1360
  527SOL    HW1 1580   2.620   2.057   0.722  0.8638 -0.2955 -0.7266
  527SOL    HW2 1581   2.462   2.098   0.758 -1.3047  0.2545 -1.5656
  528SOL     OW 1582   2.189   0.306   3.071 -0.1848 -0.1335  0.0500
  528SOL    HW1 1583   2.248   0.389   3.047 -0.8413 -0.4107 -1.0589
  528SOL    HW2 1584   2.240   0.241   0.035  0.3325 -1.8422 -1.2841
  529SOL     OW 1585   1.118   1.055   1.937  0.4226  0.2565 -0.3177
  529SOL    HW1 1586   1.123   1.147   1.980 -0.6582 -1.8251  0.0644
  529SOL    HW2 1587   1.079   1.057   1.845 -0.8298 -1.1415  2.1464
  530SOL     OW 1588   2.526   1.053   2.696 -0.3705 -0.2168 -0.0426
  530SOL    HW1 1589   2.628   1.071   2.712 -0.0222  0.2002  1.2502
  530SOL    HW2 1590   2.498   0.962   2.664 -0.4564 -1.0842  1.7237
  531SOL     OW 1591   1.013   0.905   3.087  0.0867 -0.0075 -0.2882
  531SOL    HW1 1592   1.088   0.862   0.048  1.7858 -1.6469 -0.8060
  531SOL    HW2 1593   0.982   0.996   0.022 -1.1849 -2.9211 -1.8709
  532SOL     OW 1594   1.788   0.605   0.688 -0.5190 -0.1981 -0.0963
  532SOL    HW1 1595   1.886   0.581   0.662  2.6569  1.7256 -1.5592
  532SOL    HW2 1596   1.731   0.522   0.699 -0.7192 -1.4583 -1.3440
  533SOL     OW 1597   0.458   0.945   2.068 -0.0311  0.6612  0.0235
  533SOL    HW1 1598   0.389   0.871   2.083  3.2386  0.7131 -1.0605
  533SOL    HW2 1599   0.469   0.999   2.154 -0.4519 -1.3228  0.5600
  534SOL     OW 1600   1.555   2.989   2.620  0.4566  0.4609  0.1705
  534SOL    HW1 1601   1.604   3.077   2.639 -0.3795  1.8550 -1.1925
  534SOL    HW2 1602   1.529   2.941   2.706  0.1365  3.6939 -0.5642
  535SOL     OW 1603   0.807   0.035   0.251  0.4404 -0.1211 -0.1236
  535SOL    HW1 1604   0.782   0.064   0.344  2.2764 -0.5218 -0.4662
  535SOL    HW2 1605   0.896   3.084   0.265  1.8107  1.4516 -1.4069
  536SOL     OW 1606   1.210   2.697   1.224  0.4408  0.1303  0.3387
  536SOL    HW1 1607   1.243   2.767   1.159  0.2607 -0.0287 -2.2219
  536SOL    HW2 1608   1.230   2.604   1.185 -1.1063 -1.2402 -0.6053
  537SOL     OW 1609   1.819   2.979   1.943 -0.5313 -0.3369  0.1126
  537SOL    HW1 1610   1.777   2.913   1.875 -0.9445  0.3141 -0.0423
  537SOL    HW2 1611   1.864   3.061   1.905 -1.1595 -0.3523  0.0432
  538SOL     OW 1612   0.429   2.712   2.705 -0.2685 -0.0729 -0.5164
  538SOL    HW1 1613   0.476   2.770   2.775  1.6981  0.5614 -0.2442
  538SOL    HW2 1614   0.491   2.702   2.629 -2.3075 -0.0308  1.5059
  539SOL     OW 1615   2.870   1.739   1.691 -0.6019 -0.2044 -0.3392
  539SOL    HW1 1616   2.870   1.799   1.609  0.6480 -1.9393  0.8974
  539SOL    HW2 1617   2.874   1.792   1.778 -0.5942 -1.0537  1.5630
  540SOL     OW 1618   2.502   2.470   2.211  0.3418  0.1293 -0.1284
  540SOL    HW1 1619   2.480   2.485   2.309 -0.7298 -2.5190 -1.1086
  540SOL    HW2 1620   2.478   2.373   2.192  1.1698 -3.0635  0.3445
  541SOL     OW 1621   0.190   2.905   1.599 -0.0521 -0.2499  0.0278
  541SOL    HW1 1622   0.208   2.980   1.666 -0.4470 -0.3998  0.6870
  541SOL    HW2 1623   0.273   2.847   1.580  3.0102 -1.5079  2.0449
  542SOL     OW 1624   0.005   0.604   2.110  0.0669 -0.3800 -0.4177
  542SOL    HW1 1625   0.104   0.608   2.098  1.7612  0.5039  3.3920
  542SOL    HW2 1626   3.061   0.531   2.052  2.8301  0.2742 -0.3807
  543SOL     OW 1627   0.620   0.472   0.995 -0.1828 -0.1172 -0.0338
  543SOL    HW1 1628   0.695   0.433   0.935 -3.3179 -1.1428  0.0459
  543SOL    HW2 1629   0.543   0.405   1.006  2.1834 -1.9601 -0.1435
  544SOL     OW 1630   2.201   2.067   1.297  0.1197  0.1200  0.3666
  544SOL    HW1 1631   2.262   1.993   1.273 -1.0926  1.1439  0.9777
  544SOL    HW2 1632   2.103   2.040   1.312  0.3295  1.2129  1.9318
  545SOL     OW 1633   1.171   1.560   0.761  0.0377 -0.1623 -0.3207
  545SOL    HW1 1634   1.260   1.595   0.732  1.9854 -0.3976 -0.8926
  545SOL    HW2 1635   1.179   1.472   0.808 -1.5721 -0.2204 -0.5444
  546SOL     OW 1636   2.868   0.408   2.333 -0.3199  0.2395 -0.3584
  546SOL    HW1 1637   2.827   0.459   2.255 -1.7647 -2.6801 -1.2283
  546SOL    HW2 1638   2.954   0.454   2.364 -0.3729  3.1128  2.7038
  547SOL     OW 1639   2.978   0.487   2.902  0.5397  0.6291 -0.4965
  547SOL    HW1 1640   2.950   0.424   2.824 -2.5879  1.2074 -0.5657
  547SOL    HW2 1641   3.067   0.535   2.875  1.6823  1.1404  0.3615
  548SOL     OW 1642   2.547   2.172   2.740  0.1225  0.7319 -0.0966
  548SOL    HW1 1643   2.635   2.195   2.788  0.1997  0.8025 -1.4466
  548SOL    HW2 1644   2.531   2.210   2.651  0.4351 -0.1280  4.8159
  549SOL     OW 1645   2.297   0.441   0.694  0.1942 -0.5440 -0.0995
  549SOL    HW1 1646   2.202   0.465   0.724 -3.4766  1.9076  0.8485
  549SOL    HW2 1647   2.365   0.438   0.767  1.8798 -1.7939  0.7671
  550SOL     OW 1648   2.397   1.336   0.635 -0.4096 -0.3276 -0.6147
  550SOL    HW1 1649   2.433   1.431   0.616  0.8217  0.9855  0.8922
  550SOL    HW2 1650   2.432   1.268   0.565  2.0090 -0.6018  0.0598
  551SOL     OW 1651   1.485   2.646   1.538  0.0408 -0.4475  0.0652
  551SOL    HW1 1652   1.486   2.590   1.624  0.5029  0.5787  0.2591
  551SOL    HW2 1653   1.396   2.690   1.523 -1.6883  0.6938  0.2835
  552SOL     OW 1654   2.405   2.387   2.484  0.3741  0.1800  0.2978
  552SOL    HW1 1655   2.332   2.341   2.424 -0.3280  1.0321  0.3429
  552SOL    HW2 1656   2.369   2.378   2.579  2.2708  1.3957 -0.7549
  553SOL     OW 1657   0.787   2.694   0.554  0.5067 -0.1847  0.0040
  553SOL    HW1 1658   0.822   2.647   0.638  0.5193  1.7490 -0.2058
  553SOL    HW2 1659   0.687   2.701   0.562  2.0795 -1.1939  0.5476
  554SOL     OW 1660   2.050   2.563   1.537 -0.2084  0.3583  0.2379
  554SOL    HW1 1661   2.004   2.474   1.539  1.9794  2.4938  0.3593
  554SOL    HW2 1662   2.098   2.578   1.450  1.9778 -0.5186 -0.2340
  555SOL     OW 1663   1.960   2.258   2.170  0.2648  0.0211 -0.6249
  555SOL    HW1 1664   1.985   2.348   2.131  0.2957 -1.4291 -2.5980
  555SOL    HW2 1665   2.005   2.179   2.116  0.2022 -0.6688 -2.8909
  556SOL     OW 1666   1.147   0.362   0.629  0.4103 -0.3386  0.2456
  556SOL    HW1 1667   1.074   0.437   0.629 -0.5837  1.5257  1.1271
  556SOL    HW2 1668   1.109   0.288   0.569 -1.1106 -2.2598  2.5806
  557SOL     OW 1669   0.953   2.097   1.685  0.0999 -0.0841 -0.0157
  557SOL    HW1 1670   1.005   2.067   1.602  0.2646 -0.9418  2.0421
  557SOL    HW2 1671   0.909   2.188   1.671  1.0275  0.7302  0.3795
  558SOL     OW 1672   2.752   1.385   2.435  0.2336  0.2088  0.3921
  558SOL    HW1 1673   2.744   1.484   2.432  0.7460  0.6932  0.6154
  558SOL    HW2 1674   2.733   1.355   2.531 -2.2853  0.5987 -1.4795
  559SOL     OW 1675   2.040   2.497   2.092 -0.0561  0.2553  0.2014
  559SOL    HW1 1676   2.117   2.434   2.066 -0.7152  0.6032  1.3631
  559SOL    HW2 1677   2.072   2.594   2.099 -1.0503 -0.8430  0.2794
  560SOL     OW 1678   0.515   0.253   2.419 -0.0989  0.9748  0.5186
  560SOL    HW1 1679   0.587   0.246   2.350 -2.9636  2.3311 -0.1153
  560SOL    HW2 1680   0.513   0.170   2.483 -0.9680 -2.3096  0.5119
  561SOL     OW 1681   1.147   0.305   0.256 -0.6157  0.3603  0.3424
  561SOL    HW1 1682   1.248   0.300   0.273 -0.3531  0.8869 -0.6570
  561SOL    HW2 1683   1.099   0.245   0.323  2.4725 -3.0924  1.2345
  562SOL     OW 1684   0.802   1.420   1.877  0.1040  0.5664  0.0622
  562SOL    HW1 1685   0.759   1.508   1.900  2.4546 -3.2770  0.9221
  562SOL    HW2 1686   0.899   1.420   1.905 -2.1069  0.2605  1.1343
  563SOL     OW 1687   1.922   2.244   0.121 -0.0290  0.1969 -0.3659
  563SOL    HW1 1688   2.019   2.227   0.129 -1.0739  2.2556  3.2992
  563SOL    HW2 1689   1.866   2.197   0.195 -3.8604  0.3993  0.4860
  564SOL     OW 1690   2.777   2.310   0.638  0.2621 -0.4257  0.6442
  564SOL    HW1 1691   2.731   2.347   0.723  2.1762  1.6887 -1.2186
  564SOL    HW2 1692   2.783   2.212   0.639 -0.1167  1.6645  0.7173
  565SOL     OW 1693   0.597   3.033   2.666  0.1801  0.0836 -0.1684
  565SOL    HW1 1694   0.619   3.039   2.765 -1.0024 -0.4855  0.5726
  565SOL    HW2 1695   0.666   2.976   2.619 -0.2217  0.8293 -2.0653
  566SOL     OW 1696   1.540   2.735   2.429 -0.2030 -0.2878  0.3616
  566SOL    HW1 1697   1.621   2.716   2.485 -1.9014  1.9467  0.3654
  566SOL    HW2 1698   1.464   2.761   2.489  2.1445 -3.7290 -0.2822
  567SOL     OW 1699   1.970   1.945   1.346 -0.0307  0.0818  0.0187
  567SOL    HW1 1700   1.994   1.861   1.299 -3.2035  2.0737  0.5637
  567SOL    HW2 1701   1.881   1.983   1.310  0.5616  1.0189 -2.3876
  568SOL     OW 1702   1.948   0.852   3.019  0.2399  0.5581  0.0653
  568SOL    HW1 1703   1.857   0.867   3.063 -1.2083 -2.8273 -1.8963
  568SOL    HW2 1704   1.980   0.767   3.057 -1.1256 -1.0138  2.2829
  569SOL     OW 1705   2.304   1.891   2.052  0.1283 -0.5081 -0.3783
  569SOL    HW1 1706   2.273   1.861   1.960  0.5734  0.1131  0.5844
  569SOL    HW2 1707   2.334   1.809   2.098  1.5478  0.0188  1.2740
  570SOL     OW 1708   2.786   2.928   1.970 -0.0496  0.3815  0.4046
  570SOL    HW1 1709   2.802   2.974   2.062  1.5356  1.2874 -0.1541
  570SOL    HW2 1710   2.857   2.852   1.966 -0.3927 -0.4518  3.1244
  571SOL     OW 1711   0.222   0.934   1.267  0.4340  0.6492  0.0224
  571SOL    HW1 1712   0.244   1.026   1.220  0.7751  1.0498  0.0026
  571SOL    HW2 1713   0.227   0.944   1.370  0.0431  2.8215  1.5179
  572SOL     OW 1714   0.091   1.615   1.175 -0.3143  0.0362 -0.4961
  572SOL    HW1 1715   0.024   1.547   1.200  3.0817  1.4112  0.0212
  572SOL    HW2 1716   0.152   1.573   1.105  0.4727  1.7870 -0.4760
  573SOL     OW 1717   0.944   0.501   0.215 -0.1521 -0.1312 -0.2579
  573SOL    HW1 1718   0.960   0.594   0.247 -1.3321  0.3811 -1.9263
  573SOL    HW2 1719   1.032   0.450   0.212  1.3889 -3.9119  1.9612
  574SOL     OW 1720   0.341   0.274   3.067  0.4073 -0.0374  0.5977
  574SOL    HW1 1721   0.399   0.357   3.077 -0.0218 -2.8791  0.8053
  574SOL    HW2 1722   0.369   0.223   2.983 -0.8445 -0.8222 -0.5195
  575SOL     OW 1723   0.832   2.349   0.898  0.3925 -0.0654 -0.1582
  575SOL    HW1 1724   0.836   2.302   0.810 -1.1706 -2.4325 -2.3122
  575SOL    HW2 1725   0.915   2.333   0.960  1.2277 -0.5916 -3.0198
  576SOL     OW 1726   3.041   2.929   1.308  0.1280 -0.1568  0.1558
  576SOL    HW1 1727   2.951   2.961   1.271 -1.0298  2.5928  0.0870
  576SOL    HW2 1728   3.030   2.906   1.406 -2.6036  0.9934 -2.5625
  577SOL     OW 1729   2.676   1.851   1.929 -0.5873  0.3535 -0.4239
  577SOL    HW1 1730   2.632   1.934   1.967 -1.3628 -0.7604  1.8691
  577SOL    HW2 1731   2.783   1.842   1.939  5.0932  1.1696 -0.2573
  578SOL     OW 1732   1.240   2.831   2.464  0.2271  0.2716 -0.0320
  578SOL    HW1 1733   1.185   2.755   2.417 -1.4135 -2.2389 -3.2156
  578SOL    HW2 1734   1.191   2.867   2.543  1.5867 -0.0454 -1.3667
  579SOL     OW 1735   1.886   1.845   2.030 -0.0448 -0.1015 -0.1005
  579SOL    HW1 1736   1.861   1.912   1.957  0.3883 -2.6497  0.0837
  579SOL    HW2 1737   1.943   1.773   1.987  0.0712  1.1621 -0.2176
  580SOL     OW 1738   1.704   0.495   2.072  0.8072  0.7750 -0.4253
  580SOL    HW1 1739   1.621   0.543   2.044  0.6890  4.1621 -0.2662
  580SOL    HW2 1740   1.766   0.559   2.120  0.1075 -3.7445 -3.8103
  581SOL     OW 1741   0.866   1.427   2.271 -0.5163  0.0201 -0.3187
  581SOL    HW1 1742   0.886   1.511   2.326 -0.6322 -1.7468 -1.0704
  581SOL    HW2 1743   0.863   1.347   2.336  1.3494 -0.1896  0.1342
  582SOL     OW 1744   0.131   2.686   1.756  0.2122  0.4291  0.1179
  582SOL    HW1 1745   0.206   2.668   1.819 -4.4280  3.7301  1.8950
  582SOL    HW2 1746   0.165   2.741   1.673  1.6896  0.7174 -2.2970
  583SOL     OW 1747   1.263   1.333   1.353  0.4335  0.2976 -0.1847
  583SOL    HW1 1748   1.279   1.301   1.446  0.5417  0.3848 -1.9680
  583SOL    HW2 1749   1.170   1.375   1.345  0.1355  1.2819  2.4105
  584SOL     OW 1750   1.503   1.899   2.713  0.1651  0.4349  0.6017
  584SOL    HW1 1751   1.529   1.832   2.639  2.0258 -2.1839 -0.5421
  584SOL    HW2 1752   1.547   1.991   2.699  0.3377  1.0149 -1.2350
  585SOL     OW 1753   0.241   2.487   0.225 -0.2216 -0.5003  0.5304
  585SOL    HW1 1754   0.220   2.493   0.125 -1.5545  1.3898 -2.2759
  585SOL    HW2 1755   0.199   2.406   0.267  0.2384  1.3088  1.9478
  586SOL     OW 1756   2.028   1.915   0.452 -0.8276 -0.5920  0.0160
  586SOL    HW1 1757   2.116   1.916   0.499 -0.7306  3.0502  0.4782
  586SOL    HW2 1758   1.972   1.842   0.486 -1.1925  1.9664 -2.5429
  587SOL     OW 1759   2.771   2.018   0.616  0.7817  0.2886 -0.4372
  587SOL    HW1 1760   2.823   1.949   0.672  1.2547 -0.6987  3.0415
  587SOL    HW2 1761   2.709   1.974   0.546  0.1453 -1.3826  0.0907
  588SOL     OW 1762   2.341   0.142   1.120 -0.3058 -0.0360 -0.5305
  588SOL    HW1 1763   2.388   0.147   1.210 -1.6910 -1.0448  0.8082
  588SOL    HW2 1764   2.259   0.200   1.115 -1.5737  2.7748  0.6970
  589SOL     OW 1765   0.566   0.713   1.061  0.2691 -0.5928  0.1525
  589SOL    HW1 1766   0.587   0.611   1.049 -0.6400 -0.5602  2.9093
  589SOL    HW2 1767   0.604   0.771   0.987 -1.4696  1.6443  0.8976
  590SOL     OW 1768   2.616   2.403   0.171 -0.1738  0.0928  0.2761
  590SOL    HW1 1769   2.598   2.365   0.078  2.6004 -0.7055  2.5762
  590SOL    HW2 1770   2.618   2.329   0.241 -0.0262 -2.0684 -0.1097
  591SOL     OW 1771   0.515   2.248   1.836  0.0049  0.3520  0.0715
  591SOL    HW1 1772   0.572   2.168   1.870  1.7869 -0.0849 -1.6467
  591SOL    HW2 1773   0.527   2.246   1.735  1.0972 -0.0096 -1.9379
  592SOL     OW 1774   0.717   1.421   1.449 -0.0502  0.0718 -0.3046
  592SOL    HW1 1775   0.777   1.406   1.529  0.9353 -1.3360  2.0084
  592SOL    HW2 1776   0.642   1.352   1.442  2.5550 -3.0594 -0.5702
  593SOL     OW 1777   0.973   2.072   1.266  0.0709  0.0125 -0.1432
  593SOL    HW1 1778   1.014   2.031   1.351  0.8296  1.0925 -1.3680
  593SOL    HW2 1779   0.929   2.001   1.204  1.8278  1.8884 -1.2313
  594SOL     OW 1780   0.593   1.577   2.956  0.2931  0.0632  0.1718
  594SOL    HW1 1781   0.593   1.566   3.057  1.1513  0.5092  3.1189
  594SOL    HW2 1782   0.518   1.523   2.914  0.9352  1.2801  1.2068
  595SOL     OW 1783   1.183   0.509   1.094  0.1621 -0.1902  0.0583
  595SOL    HW1 1784   1.218   0.420   1.123  0.5841  2.5307 -0.7242
  595SOL    HW2 1785   1.154   0.560   1.177 -0.1998  0.6189  0.6227
  596SOL     OW 1786   0.419   1.444   0.760 -0.3757 -0.2061 -0.1998
  596SOL    HW1 1787   0.508   1.406   0.793  0.9138 -0.3973  1.9277
  596SOL    HW2 1788   0.382   1.399   0.674 -1.4822  1.3820  2.0410
  597SOL     OW 1789   0.078   1.994   2.904  0.4755 -0.4087  0.0790
  597SOL    HW1 1790   3.083   2.031   2.888  0.5884  0.7448  0.6819
  597SOL    HW2 1791   0.141   2.063   2.953 -0.5598  0.1774  1.0343
  598SOL     OW 1792   2.056   2.060   2.395 -0.1301  0.3237  0.0931
  598SOL    HW1 1793   1.967   2.080   2.356  1.4826  2.6534  1.1419
  598SOL    HW2 1794   2.104   1.980   2.357 -0.3621  0.9622  1.9319
  599SOL     OW 1795   1.441   0.369   0.575 -0.0510  0.4721 -0.5263
  599SOL    HW1 1796   1.473   0.456   0.623  0.2424  0.3532  2.4476
  599SOL    HW2 1797   1.342   0.355   0.589  0.5597 -0.1194 -1.6442
  600SOL     OW 1798   0.940   2.701   0.321 -0.0381  0.3819  0.0261
  600SOL    HW1 1799   0.890   2.681   0.408 -1.3992 -2.2228 -2.3875
  600SOL    HW2 1800   1.041   2.701   0.328 -0.9843  0.3338 -0.0297
  601SOL     OW 1801   0.631   0.200   1.258 -0.5109  0.1079  0.2754
  601SOL    HW1 1802   0.568   0.201   1.335  0.3578  0.5138  1.3191
  601SOL    HW2 1803   0.717   0.254   1.276 -0.3292 -1.4910 -0.8651
  602SOL     OW 1804   0.100   2.973   0.538  0.0398 -0.0514 -0.2145
  602SOL    HW1 1805   0.060   2.921   0.616 -2.3540  1.8482 -1.4475
  602SOL    HW2 1806   0.127   3.073   0.555 -0.0437  3.3621  1.3123
  603SOL     OW 1807   0.994   2.602   2.562 -0.2424 -0.1178 -0.2622
  603SOL    HW1 1808   1.004   2.627   2.466  0.0370 -1.5122 -0.0536
  603SOL    HW2 1809   0.901   2.624   2.594  0.5342  2.0224 -0.5438
  604SOL     OW 1810   1.046   2.595   2.846 -0.2798  0.2241  0.7496
  604SOL    HW1 1811   0.972   2.523   2.868  1.8109 -0.3378  2.5938
  604SOL    HW2 1812   1.063   2.601   2.747  0.3731 -0.2437 -0.1474
  605SOL     OW 1813   0.715   0.892   1.899  0.0427 -0.4090 -0.2210
  605SOL    HW1 1814   0.758   0.810   1.866  0.1375 -0.2280  0.1041
  605SOL    HW2 1815   0.732   0.911   2.001 -0.3962 -0.3516  1.6877
  606SOL     OW 1816   1.507   0.552   2.633  0.0528  0.4450  0.4105
  606SOL    HW1 1817   1.512   0.621   2.708 -1.5846 -0.9510  0.2886
  606SOL    HW2 1818   1.467   0.467   2.673 -2.0675  1.7117  0.0001
  607SOL     OW 1819   0.092   1.254   1.250 -0.0668 -0.2670  0.4725
  607SOL    HW1 1820   0.157   1.305   1.313  1.0287  2.0174  2.0817
  607SOL    HW2 1821   0.015   1.311   1.219 -0.9044 -2.0445  2.0964
  608SOL     OW 1822   2.941   2.394   2.340 -0.4639  0.0253  0.5585
  608SOL    HW1 1823   2.914   2.494   2.341  1.0374 -0.5561  0.0046
  608SOL    HW2 1824   3.031   2.376   2.382  2.1404 -1.5260 -1.0349
  609SOL     OW 1825   1.732   0.360   0.057  0.1438  0.4273 -0.1125
  609SOL    HW1 1826   1.805   0.336   3.091 -0.9504 -1.9689 -0.7980
  609SOL    HW2 1827   1.660   0.419   0.016 -0.1393 -0.6164 -0.2154
  610SOL     OW 1828   0.954   2.702   1.008  0.0064  0.0471  0.4787
  610SOL    HW1 1829   0.952   2.802   0.991  1.5639 -0.2934  0.3082
  610SOL    HW2 1830   0.919   2.672   1.098 -0.5608  0.8055 -1.6886
  611SOL     OW 1831   0.885   0.920   0.290 -0.3477  0.3568  0.2949
  611SOL    HW1 1832   0.802   0.862   0.283  3.7392 -2.4136 -1.7780
  611SOL    HW2 1833   0.871   1.012   0.244 -0.0974  1.6346  0.3313
  612SOL     OW 1834   1.301   0.716   2.436 -0.0035  0.2346  0.0740
  612SOL    HW1 1835   1.392   0.749   2.460 -1.1184 -1.3697  0.2907
  612SOL    HW2 1836   1.282   0.630   2.487  1.0762  1.2397 -3.2888
  613SOL     OW 1837   2.172   0.852   0.495 -0.2444  0.3621  0.5616
  613SOL    HW1 1838   2.113   0.867   0.581 -4.7469  0.6460  1.3550
  613SOL    HW2 1839   2.135   0.910   0.418 -0.0046 -1.2232 -2.2064
  614SOL     OW 1840   1.852   0.396   1.849  0.3759 -1.0585 -0.2109
  614SOL    HW1 1841   1.802   0.403   1.940 -0.1466  0.2674 -0.0367
  614SOL    HW2 1842   1.884   0.494   1.827  0.5178  0.1023  1.9218
  615SOL     OW 1843   0.536   2.158   0.996  0.3997 -0.1302 -0.0277
  615SOL    HW1 1844   0.484   2.101   0.930  0.0791  0.8416  3.3004
  615SOL    HW2 1845   0.536   2.261   0.977 -0.7753  1.6511  0.9430
  616SOL     OW 1846   1.733   1.114   2.403 -0.1243 -0.2908  0.0057
  616SOL    HW1 1847   1.677   1.199   2.402 -0.3924 -0.8753  3.6732
  616SOL    HW2 1848   1.815   1.128   2.458 -0.0866 -1.0546 -0.6070
  617SOL     OW 1849   1.844   2.733   0.151 -0.2619 -0.1169 -0.0355
  617SOL    HW1 1850   1.756   2.758   0.193  1.5732  0.4301  2.5427
  617SOL    HW2 1851   1.837   2.635   0.122  0.2267  0.6420 -2.3208
  618SOL     OW 1852   0.912   1.036   2.871 -0.6567  0.2882  0.0254
  618SOL    HW1 1853   0.811   1.042   2.870  2.0316  0.6097  2.9340
  618SOL    HW2 1854   0.941   0.971   2.946  0.8944 -0.6147  1.3534
  619SOL     OW 1855   2.481   1.296   0.900  0.1499  0.5887 -0.2739
  619SOL    HW1 1856   2.522   1.207   0.899 -1.0051 -0.0029  1.1906
  619SOL    HW2 1857   2.412   1.299   0.828 -0.6989 -1.6346  1.2680
  620SOL     OW 1858   2.543   2.735   3.026 -0.1974 -0.5597  0.2216
  620SOL    HW1 1859   2.532   2.680   2.939  1.2669 -0.5023 -0.1285
  620SOL    HW2 1860   2.603   2.692   3.094  0.6993 -0.5032 -1.2367
  621SOL     OW 1861   2.053   1.013   0.320  0.1229  0.1056  0.2367
  621SOL    HW1 1862   2.052   1.060   0.231 -0.0240  0.4037  1.9059
  621SOL    HW2 1863   2.053   1.083   0.400  1.6761  2.4689  0.4086
  622SOL     OW 1864   0.996   2.235   2.631 -0.3751  0.5329 -0.4099
  622SOL    HW1 1865   1.038   2.283   2.549  0.7157  2.6892 -1.2401
  622SOL    HW2 1866   1.068   2.176   2.676  0.2370  0.3019  1.7009
  623SOL     OW 1867   0.335   1.819   0.142 -0.4349  0.0844  0.0428
  623SOL    HW1 1868   0.239   1.810   0.110  0.0609  1.7340 -2.1942
  623SOL    HW2 1869   0.377   1.905   0.103  3.2912  3.9808 -1.8155
  624SOL     OW 1870   0.435   0.136   2.850 -0.0710 -0.5302 -0.0959
  624SOL    HW1 1871   0.530   0.097   2.847 -0.1712  0.4381 -0.1184
  624SOL    HW2 1872   0.370   0.059   2.862  0.1230  1.5488 -0.4823
  625SOL     OW 1873   0.806   1.736   3.065  0.2430 -0.0725 -0.3458
  625SOL    HW1 1874   0.825   1.835   3.058 -0.3534 -1.1817  1.0694
  625SOL    HW2 1875   0.731   1.726   0.034 -0.8895 -0.0953 -3.1548
  626SOL     OW 1876   2.636   0.116   0.297  0.1931 -0.2580 -0.0720
  626SOL    HW1 1877   2.710   0.055   0.255  0.9534 -0.4481 -0.3329
  626SOL    HW2 1878   2.605   0.194   0.239 -2.0692 -0.1066 -1.3282
  627SOL     OW 1879   1.327   1.025   2.901  0.1587  0.4120 -0.1531
  627SOL    HW1 1880   1.377   1.094   2.952 -1.7948 -0.4794 -3.5823
  627SOL    HW2 1881   1.376   1.005   2.813 -1.4945 -2.1300  1.3304
  628SOL     OW 1882   1.240   0.801   2.715  0.6922 -0.1082  0.9240
  628SOL    HW1 1883   1.237   0.699   2.697  1.1726 -1.0117 -1.5476
  628SOL    HW2 1884   1.322   0.828   2.764 -0.6660 -1.4472  0.5604
  629SOL     OW 1885   0.257   0.011   1.775  0.1465 -0.3334 -0.4225
  629SOL    HW1 1886   0.345   0.002   1.824  0.1197 -1.8710  2.1270
  629SOL    HW2 1887   0.259   0.091   1.710 -2.5446 -0.1625 -0.7037
  630SOL     OW 1888   2.609   0.957   1.930 -0.4409 -0.7341 -0.7248
  630SOL    HW1 1889   2.633   0.982   2.026 -0.0269  0.9566  0.5671
  630SOL    HW2 1890   2.695   0.923   1.892 -2.4114  0.7099  3.0570
  631SOL     OW 1891   2.116   0.961   0.741  0.7773 -0.8100 -0.4075
  631SOL    HW1 1892   2.139   1.065   0.734 -0.0712  2.1328 -2.0984
  631SOL    HW2 1893   2.145   0.926   0.833 -0.6093 -0.0932 -0.3178
  632SOL     OW 1894   2.674   0.720   1.611  1.1259 -0.2916  0.0394
  632SOL    HW1 1895   2.735   0.748   1.689  0.0444  0.2023 -2.3172
  632SOL    HW2 1896   2.704   0.639   1.557  0.5216 -0.7176 -0.9579
  633SOL     OW 1897   0.972   2.849   2.986 -0.4756 -0.4750 -0.4464
  633SOL    HW1 1898   0.989   2.756   2.948  1.2255 -1.0930 -1.1776
  633SOL    HW2 1899   0.920   2.846   3.078 -1.7027 -0.1480  3.9485
  634SOL     OW 1900   1.540   2.718   0.016  0.1913  0.4064  0.7484
  634SOL    HW1 1901   1.564   2.718   0.112  1.0579  1.3476 -3.0447
  634SOL    HW2 1902   1.551   2.816   3.079 -0.7255  0.6792  0.1279
  635SOL     OW 1903   2.799   0.394   0.242 -0.4737 -0.6120  0.4889
  635SOL    HW1 1904   2.849   0.393   0.150  0.9309 -0.2571 -0.8672
  635SOL    HW2 1905   2.708   0.355   0.225  1.9692  0.4747 -1.8628
  636SOL     OW 1906   0.289   1.353   0.528  0.5255  0.7093  0.4806
  636SOL    HW1 1907   0.328   1.304   0.448  1.4046 -1.5765 -0.8168
  636SOL    HW2 1908   0.214   1.300   0.567  0.8250 -0.2299  1.0013
  637SOL     OW 1909   0.339   2.690   0.350  0.9215 -0.0315  0.2522
  637SOL    HW1 1910   0.311   2.606   0.299  1.4501 -0.3305 -0.8657
  637SOL    HW2 1911   0.294   2.773   0.309 -0.0315 -0.3418 -1.2150
  638SOL     OW 1912   3.049   2.532   0.333  0.0226 -0.1019 -0.2839
  638SOL    HW1 1913   3.063   2.628   0.287  2.1363  2.7497 -0.5053
  638SOL    HW2 1914   0.026   2.512   0.405 -1.8759  1.2771  1.9638
  639SOL     OW 1915   1.198   1.171   0.188  0.1629  0.0248 -0.2626
  639SOL    HW1 1916   1.254   1.081   0.195  0.1732 -3.2428 -0.0614
  639SOL    HW2 1917   1.227   1.234   0.120  2.9459 -3.0413  0.3112
  640SOL     OW 1918   1.491   2.412   1.034 -0.2035 -0.4658  0.3861
  640SOL    HW1 1919   1.540   2.501   1.029 -1.0627 -0.3062  3.2956
  640SOL    HW2 1920   1.480   2.370   0.940 -2.6561  1.5316 -3.1640
  641SOL     OW 1921   2.944   2.543   1.015 -0.0868  0.3259  0.0967
  641SOL    HW1 1922   2.966   2.501   0.923  4.4524 -2.6323 -0.5096
  641SOL    HW2 1923   2.850   2.527   1.047  2.0744  1.9726  0.4942
  642SOL     OW 1924   0.745   0.060   1.820 -0.0884  0.2333  0.2993
  642SOL    HW1 1925   0.739   0.088   1.719  0.6877 -0.5588 -1.6193
  642SOL    HW2 1926   0.656   0.013   1.855  2.5029 -0.7457  0.1023
  643SOL     OW 1927   0.745   2.199   2.580 -0.6805 -0.1885 -0.3489
  643SOL    HW1 1928   0.841   2.223   2.602  0.7241  3.4880  0.0174
  643SOL    HW2 1929   0.690   2.164   2.658  0.0346 -2.0051  1.0877
  644SOL     OW 1930   1.076   2.499   0.551 -0.2930 -0.2808 -0.3540
  644SOL    HW1 1931   1.140   2.433   0.511  4.8830 -0.2664  0.2215
  644SOL    HW2 1932   0.980   2.470   0.548 -2.9217 -1.8031 -1.6683
  645SOL     OW 1933   1.349   1.404   2.003 -0.0905  0.4854 -0.2882
  645SOL    HW1 1934   1.254   1.379   2.022  1.6487 -0.1079  1.2401
  645SOL    HW2 1935   1.410   1.340   2.053 -2.7328 -0.4300 -0.3111
  646SOL     OW 1936   0.374   1.183   0.058 -0.2535  0.1355  0.3182
  646SOL    HW1 1937   0.277   1.161   0.037 -1.7759 -0.8056 -1.6485
  646SOL    HW2 1938   0.426   1.104   0.016 -0.2174  1.0618 -0.8454
  647SOL     OW 1939   1.135   0.167   0.893  0.6630  0.0842 -0.0608
  647SOL    HW1 1940   1.147   0.240   0.823 -3.2890  0.6423 -1.9873
  647SOL    HW2 1941   1.132   0.075   0.851 -1.8150  0.6076 -0.3509
  648SOL     OW 1942   2.612   2.754   1.533 -0.1368  0.1672  0.0223
  648SOL    HW1 1943   2.609   2.790   1.627 -1.5062 -0.1049 -1.9689
  648SOL    HW2 1944   2.545   2.675   1.523  1.7800 -4.0159  0.6140
  649SOL     OW 1945   0.710   1.999   3.008  0.2703 -0.2125 -0.0330
  649SOL    HW1 1946   0.779   2.071   3.023 -0.6090  0.2727 -2.3832
  649SOL    HW2 1947   0.632   2.006   3.073  3.5356 -1.9518  0.3074
  650SOL     OW 1948   2.688   2.163   1.655 -0.6886 -0.0053  0.0810
  650SOL    HW1 1949   2.654   2.233   1.585 -2.4852 -0.7093  0.0212
  650SOL    HW2 1950   2.667   2.066   1.625 -2.9100 -1.9350 -0.9857
  651SOL     OW 1951   0.228   3.061   2.880 -0.1697  0.3668 -0.0570
  651SOL    HW1 1952   0.199   2.998   2.811  0.3724  1.9844 -0.2131
  651SOL    HW2 1953   0.146   3.096   2.935 -0.9795 -1.8875 -0.0976
  652SOL     OW 1954   2.234   1.781   0.089  0.5623  0.2828  0.0063
  652SOL    HW1 1955   2.203   1.806   3.091  0.5632 -2.5710  2.4080
  652SOL    HW2 1956   2.270   1.861   0.140  0.9065 -1.0135 -3.1405
  653SOL     OW 1957   0.178   0.137   0.609  0.0114 -0.2101  0.2353
  653SOL    HW1 1958   0.230   0.149   0.695 -0.3460 -1.4627  1.6847
  653SOL    HW2 1959   0.199   0.208   0.535 -0.7608  2.9586  0.0773
  654SOL     OW 1960   1.286   3.032   0.168 -0.1892  0.3144  0.4662
  654SOL    HW1 1961   1.322   3.001   0.253 -0.3605  0.5606 -1.6790
  654SOL    HW2 1962   1.348   0.014   0.133  3.6034  2.5674 -3.8037
  655SOL     OW 1963   0.853   2.696   1.306  0.2393 -0.0086 -0.2670
  655SOL    HW1 1964   0.773   2.630   1.302 -1.4985 -2.5791  1.1241
  655SOL    HW2 1965   0.924   2.659   1.369 -1.8869 -1.1274 -0.1197
  656SOL     OW 1966   0.470   0.074   2.152 -0.1100 -0.3593 -1.2064
  656SOL    HW1 1967   0.552   0.118   2.188 -0.9796  0.3351 -3.0831
  656SOL    HW2 1968   0.396   0.098   2.216  1.0036  0.8945  1.9865
  657SOL     OW 1969   1.968   0.540   2.408  0.0010 -0.2619 -0.4687
  657SOL    HW1 1970   1.972   0.459   2.341  0.4833 -2.8638 -2.7379
  657SOL    HW2 1971   2.005   0.628   2.369  2.7906  0.8765  0.0289
  658SOL     OW 1972   2.012   1.670   1.232 -0.1100  0.4298  0.0018
  658SOL    HW1 1973   1.967   1.636   1.319 -1.7702  1.0066 -0.3803
  658SOL    HW2 1974   2.112   1.653   1.244  2.4837 -0.6621  1.8447
  659SOL     OW 1975   2.891   2.614   3.064  0.5785 -0.2133 -0.2997
  659SOL    HW1 1976   2.916   2.711   3.049 -2.0617  1.1306 -0.5873
  659SOL    HW2 1977   2.812   2.606   0.030  0.8908 -1.2085 -0.4157
  660SOL     OW 1978   1.226   0.578   0.106  0.2724 -0.0539  0.8198
  660SOL    HW1 1979   1.305   0.519   0.131  0.6831 -0.5827 -0.8887
  660SOL    HW2 1980   1.159   0.530   0.043 -0.0945 -1.8928  0.5872
  661SOL     OW 1981   2.430   2.843   0.874  0.3138  0.3482 -0.4440
  661SOL    HW1 1982   2.399   2.867   0.779  2.5439 -2.3443  0.3004
  661SOL    HW2 1983   2.518   2.795   0.855 -0.3040 -2.1507 -2.2689
  662SOL     OW 1984   0.433   0.384   0.731  0.1511  0.0984 -0.0907
  662SOL    HW1 1985   0.394   0.473   0.764 -2.2199  1.0803  1.4255
  662SOL    HW2 1986   0.488   0.400   0.647  1.0962 -1.7735  0.4784
  663SOL     OW 1987   1.494   2.307   2.334 -0.6301  0.1112 -1.1663
  663SOL    HW1 1988   1.572   2.262   2.289 -0.0593  0.9970  1.8899
  663SOL    HW2 1989   1.468   2.390   2.285  0.7416 -2.0326 -1.2463
  664SOL     OW 1990   0.672   2.448   1.280  0.1433  0.1795  0.1251
  664SOL    HW1 1991   0.754   2.396   1.300 -0.5719  1.7186 -0.4063
  664SOL    HW2 1992   0.618   2.391   1.215 -3.6706 -1.1979 -1.9027
  665SOL     OW 1993   1.448   2.048   1.425 -0.7954 -0.7987  0.2983
  665SOL    HW1 1994   1.433   2.050   1.525 -1.9268  1.3983  0.0435
  665SOL    HW2 1995   1.492   1.960   1.394  0.5112 -0.8839 -0.2037
  666SOL     OW 1996   0.595   2.821   2.912  0.1832 -0.5800 -0.5061
  666SOL    HW1 1997   0.660   2.895   2.937 -3.3278 -0.2418  0.3053
  666SOL    HW2 1998   0.638   2.729   2.912 -2.8374  0.3788 -1.7634
  667SOL     OW 1999   1.441   1.532   1.306  0.2155 -0.5225 -0.3906
  667SOL    HW1 2000   1.387   1.449   1.316  0.5400  0.8655  0.4042
  667SOL    HW2 2001   1.434   1.589   1.389  1.3114 -0.8069 -0.7086
  668SOL     OW 2002   1.114   0.184   2.165 -0.4696  0.2088  0.3073
  668SOL    HW1 2003   1.212   0.158   2.159 -0.9180 -0.1254  0.9244
  668SOL    HW2 2004   1.061   0.136   2.090 -0.4964  0.6027  0.5008
  669SOL     OW 2005   2.241   2.333   2.044  0.5923  0.1367 -0.2111
  669SOL    HW1 2006   2.295   2.390   1.977 -1.2409 -1.5505  0.3987
  669SOL    HW2 2007   2.211   2.241   2.010 -1.3033 -1.4910 -2.5136
  670SOL     OW 2008   2.310   1.985   0.255 -0.8362 -0.3422  0.3652
  670SOL    HW1 2009   2.328   1.971   0.354  2.1543  0.7312 -2.8374
  670SOL    HW2 2010   2.256   2.071   0.248 -0.6409 -0.4739 -0.5435
  671SOL     OW 2011   1.337   0.987   1.119 -0.1125  0.1286 -0.0710
  671SOL    HW1 2012   1.336   0.928   1.033 -0.4869 -0.0435 -2.8971
  671SOL    HW2 2013   1.310   1.084   1.098  2.1216  0.2159  0.7589
  672SOL     OW 2014   2.374   1.685   2.219  0.6743  0.2851 -0.6819
  672SOL    HW1 2015   2.470   1.671   2.184  1.4475 -2.0306 -1.0567
  672SOL    HW2 2016   2.348   1.618   2.290 -0.3056  1.5950  0.4476
  673SOL     OW 2017   2.616   1.663   2.152 -0.3148 -0.6566 -0.1994
  673SOL    HW1 2018   2.649   1.736   2.090 -1.1667 -0.3634  1.5649
  673SOL    HW2 2019   2.677   1.658   2.236  0.9989  1.8913  1.9098
  674SOL     OW 2020   1.096   2.648   2.310 -0.2741 -0.0463  0.3752
  674SOL    HW1 2021   1.136   2.554   2.288 -0.3981  1.0735 -1.6959
  674SOL    HW2 2022   1.061   2.678   2.221  1.2538 -1.4325  2.6135
  675SOL     OW 2023   0.537   1.025   1.366 -0.3948  0.2936  0.1639
  675SOL    HW1 2024   0.528   1.032   1.264 -0.7574 -0.0060  1.2246
  675SOL    HW2 2025   0.614   0.963   1.398  1.1759 -2.1604  0.0770
  676SOL     OW 2026   2.041   0.477   0.779 -0.2001 -0.0022 -0.2313
  676SOL    HW1 2027   2.013   0.389   0.824 -1.9983 -0.2736 -0.2096
  676SOL    HW2 2028   2.039   0.559   0.835 -0.7723  1.1843  0.7338
  677SOL     OW 2029   2.400   1.618   2.852  0.2086 -0.5439  0.0765
  677SOL    HW1 2030   2.455   1.595   2.766  1.8987 -0.9253  0.9805
  677SOL    HW2 2031   2.309   1.570   2.860 -0.2152  1.7991 -0.7506
  678SOL     OW 2032   0.185   3.031   0.905  0.1466  0.3305  0.8857
  678SOL    HW1 2033   0.258   2.960   0.913 -1.6300 -1.3164 -0.7638
  678SOL    HW2 2034   0.218   0.028   0.898 -3.2689  0.8573 -0.3920
  679SOL     OW 2035   2.422   3.054   0.402  0.2897  0.0305  0.5592
  679SOL    HW1 2036   2.507   0.002   0.370 -0.8389  3.7336  1.4522
  679SOL    HW2 2037   2.438   3.025   0.501  0.3148  2.4081  1.3080
  680SOL     OW 2038   0.179   2.387   2.076 -0.2979  0.2946 -0.1906
  680SOL    HW1 2039   0.207   2.315   2.007 -0.4373 -2.6493 -0.5516
  680SOL    HW2 2040   0.079   2.386   2.088  0.1519 -0.4182 -0.9467
  681SOL     OW 2041   2.575   1.610   1.415 -0.4128  0.1520 -0.0937
  681SOL    HW1 2042   2.598   1.706   1.405 -3.0295  1.5888 -0.2050
  681SOL    HW2 2043   2.484   1.581   1.373 -0.1896 -1.0825 -1.1506
  682SOL     OW 2044   3.009   2.370   2.054 -0.0365  0.2255 -0.3761
  682SOL    HW1 2045   2.951   2.397   1.974 -0.2312  0.3130 -0.7563
  682SOL    HW2 2046   2.965   2.397   2.143  0.3782 -0.3231 -1.7989
  683SOL     OW 2047   2.970   2.183   1.589 -0.1658 -0.5304 -0.1185
  683SOL    HW1 2048   2.943   2.238   1.509 -1.5196  0.1523  0.5700
  683SOL    HW2 2049   2.894   2.156   1.652 -0.8699 -0.3982  2.1544
  684SOL     OW 2050   2.187   1.554   2.466  0.4075  0.3878 -0.5971
  684SOL    HW1 2051   2.100   1.554   2.518  2.5290  0.9105 -0.2421
  684SOL    HW2 2052   2.210   1.470   2.419  0.9894 -0.4668  0.4782
  685SOL     OW 2053   1.532   0.868   0.360  0.5055  0.0487 -0.5661
  685SOL    HW1 2054   1.432   0.891   0.378 -0.1349  1.3516  2.4004
  685SOL    HW2 2055   1.586   0.840   0.446 -0.9279 -1.8212 -0.3054
  686SOL     OW 2056   0.535   0.018   0.715  0.6444 -0.0713  0.9392
  686SOL    HW1 2057   0.547   0.060   0.806 -0.8285 -0.3770  0.1151
  686SOL    HW2 2058   0.619   3.061   0.691 -1.0661 -1.7512  1.7416
  687SOL     OW 2059   1.510   1.241   2.157 -0.4731  0.1098 -0.0869
  687SOL    HW1 2060   1.522   1.308   2.237  1.0965  2.5124  2.3893
  687SOL    HW2 2061   1.474   1.152   2.183  1.6580  1.3982 -0.7550
  688SOL     OW 2062   1.265   1.803   1.269  0.0799  0.4328 -0.5603
  688SOL    HW1 2063   1.197   1.810   1.191  0.9786 -0.0493 -2.3251
  688SOL    HW2 2064   1.228   1.746   1.341 -1.0734 -0.7666  1.1389
  689SOL     OW 2065   1.990   0.261   1.314 -0.0349 -0.4372 -0.0219
  689SOL    HW1 2066   2.059   0.267   1.236  1.8354 -1.5421 -1.3022
  689SOL    HW2 2067   2.022   0.318   1.391  0.1100 -1.3776 -0.4825
  690SOL     OW 2068   2.996   1.445   1.233  0.1510  0.1564  0.0185
  690SOL    HW1 2069   2.967   1.419   1.328  0.1945 -1.3842 -0.9713
  690SOL    HW2 2070   2.915   1.432   1.174 -0.2798 -2.3928  0.0809
  691SOL     OW 2071   0.414   2.624   1.065  0.2632  0.3508  0.3493
  691SOL    HW1 2072   0.476   2.553   1.030  0.4343 -0.1398 -0.8211
  691SOL    HW2 2073   0.365   2.674   0.992 -1.4242  1.2274  0.5586
  692SOL     OW 2074   2.298   0.479   1.717  0.0141  0.1449  0.4074
  692SOL    HW1 2075   2.358   0.557   1.704 -1.1563 -2.3184  1.8772
  692SOL    HW2 2076   2.251   0.490   1.806 -0.4815  1.0459 -2.9835
  693SOL     OW 2077   0.253   1.932   2.017 -1.2209  0.6110  0.2023
  693SOL    HW1 2078   0.263   1.830   2.005  2.7171  0.2812  1.7322
  693SOL    HW2 2079   0.168   1.953   2.069  0.4316  0.5008 -0.3071
  694SOL     OW 2080   1.469   1.456   1.776 -0.2990  0.4137 -0.7094
  694SOL    HW1 2081   1.556   1.508   1.805  2.0484 -2.6890 -0.4068
  694SOL    HW2 2082   1.415   1.441   1.860  0.9970  2.7752  0.7116
  695SOL     OW 2083   0.528   1.014   1.103  0.3163  0.3633  0.1763
  695SOL    HW1 2084   0.432   1.053   1.086 -1.5700 -1.4710  0.4181
  695SOL    HW2 2085   0.549   0.925   1.052  2.2087 -3.6610 -1.8633
  696SOL     OW 2086   1.587   3.031   0.824 -0.1108  0.1277  0.0307
  696SOL    HW1 2087   1.606   0.006   0.758  1.3448 -1.7337  2.1636
  696SOL    HW2 2088   1.672   2.994   0.863  3.5902 -0.8675  1.3704
  697SOL     OW 2089   1.285   0.303   1.605  0.0174  1.3802 -0.0153
  697SOL    HW1 2090   1.282   0.298   1.702 -2.4807  1.8306 -1.4023
  697SOL    HW2 2091   1.229   0.219   1.576 -2.2453 -4.7591  1.6932
  698SOL     OW 2092   1.764   1.465   2.047 -0.3441  0.0696  0.4036
  698SOL    HW1 2093   1.739   1.372   2.029  1.7778  3.4179  0.4359
  698SOL    HW2 2094   1.780   1.483   2.148  1.5646 -0.9237  1.3514
  699SOL     OW 2095   2.205   0.536   1.448 -0.3558 -0.3322  0.1005
  699SOL    HW1 2096   2.292   0.555   1.401 -0.4982 -2.5543 -0.1628
  699SOL    HW2 2097   2.216   0.524   1.551  3.0217 -1.9604  0.3893
  700SOL     OW 2098   0.873   2.189   0.007  0.6136  0.3066  0.7806
  700SOL    HW1 2099   0.858   2.269   0.065  0.7815 -0.0677 -1.2444
  700SOL    HW2 2100   0.956   2.137   0.036 -0.1035 -2.3423  1.8591
  701SOL     OW 2101   2.267   2.478   2.724 -0.2275 -0.5678  0.2453
  701SOL    HW1 2102   2.203   2.511   2.646 -0.0676  1.1277 -1.4894
  701SOL    HW2 2103   2.225   2.495   2.814  0.4273  1.5355 -0.0508
  702SOL     OW 2104   0.868   0.008   1.102  0.3004  0.0028  0.0497
  702SOL    HW1 2105   0.858   0.093   1.050 -0.4556  2.3279  1.4207
  702SOL    HW2 2106   0.963   0.003   1.140  1.8073 -0.1275  1.1338
  703SOL     OW 2107   2.283   0.297   2.403  0.0582 -0.2925 -0.1472
  703SOL    HW1 2108   2.323   0.335   2.487  2.1731  0.7903 -2.4118
  703SOL    HW2 2109   2.356   0.261   2.341  3.2947  0.2364 -0.8125
  704SOL     OW 2110   2.816   2.357   0.376 -0.1506  0.2455  0.7066
  704SOL    HW1 2111   2.898   2.406   0.348 -0.0064  1.4786  0.2000
  704SOL    HW2 2112   2.810   2.352   0.480 -0.1343  1.1916 -0.1361
  705SOL     OW 2113   2.467   0.218   2.238 -0.3034  0.5780  0.0225
  705SOL    HW1 2114   2.447   0.216   2.140  0.8674  0.2873  2.2486
  705SOL    HW2 2115   2.488   0.122   2.266 -0.0010 -1.7604  0.6354
  706SOL     OW 2116   2.202   2.854   1.309 -0.3198  0.3501 -0.0370
  706SOL    HW1 2117   2.286   2.834   1.253  1.6201 -3.1815 -2.6253
  706SOL    HW2 2118   2.134   2.892   1.249  0.1284 -2.9925 -0.7282
  707SOL     OW 2119   0.926   2.865   2.347  0.0084  0.4851 -0.3996
  707SOL    HW1 2120   1.009   2.826   2.311 -0.6283  1.8167 -1.0186
  707SOL    HW2 2121   0.931   2.965   2.358 -1.8495  1.0676 -1.3009
  708SOL     OW 2122   2.894   2.455   1.818  0.0762  0.1990 -0.0511
  708SOL    HW1 2123   2.830   2.429   1.741  0.1797 -0.1527 -2.9920
  708SOL    HW2 2124   2.984   2.434   1.786 -0.6764 -0.3568  2.7757
  709SOL     OW 2125   1.705   0.477   1.641  0.3436 -0.2606  0.0469
  709SOL    HW1 2126   1.772   0.505   1.569 -0.0723  0.4735  2.9548
  709SOL    HW2 2127   1.737   0.428   1.723 -1.4043  3.0735  2.2807
  710SOL     OW 2128   1.246   0.162   2.568 -0.0433  0.2376 -0.0927
  710SOL    HW1 2129   1.149   0.149   2.604 -0.4016 -1.7306 -2.1311
  710SOL    HW2 2130   1.285   0.079   2.521  0.5019 -0.4084  0.2243
  711SOL     OW 2131   0.904   1.808   2.625 -0.2133 -1.2460  0.1818
  711SOL    HW1 2132   0.978   1.798   2.693  0.9194  0.1860  0.1562
  711SOL    HW2 2133   0.815   1.813   2.674  0.0876  1.3972  0.8198
  712SOL     OW 2134   1.085   1.741   2.800 -0.2125  0.0597  0.6636
  712SOL    HW1 2135   1.046   1.662   2.853 -1.3503  0.1230  0.3859
  712SOL    HW2 2136   1.152   1.790   2.855  0.6843 -1.0224  1.2418
  713SOL     OW 2137   1.972   1.247   2.512  0.5215 -0.6745 -0.1030
  713SOL    HW1 2138   1.893   1.289   2.558 -1.4142 -1.0173 -2.0680
  713SOL    HW2 2139   2.049   1.246   2.579  0.1510  2.0346 -0.3488
  714SOL     OW 2140   0.989   1.626   1.775 -0.1731 -0.3493  0.8982
  714SOL    HW1 2141   0.982   1.631   1.877 -1.2043  1.5976  0.6592
  714SOL    HW2 2142   0.942   1.705   1.734  0.6467 -1.1050  1.0043
  715SOL     OW 2143   1.921   0.292   2.956 -0.6649 -0.3182 -0.2847
  715SOL    HW1 2144   2.011   0.270   3.000 -2.8764 -0.3445  1.0941
  715SOL    HW2 2145   1.936   0.325   2.861 -0.6249 -1.6348 -1.4334
  716SOL     OW 2146   2.843   2.369   1.429  0.0467  0.0409  0.2782
  716SOL    HW1 2147   2.847   2.462   1.472 -0.2416  2.4380 -1.2085
  716SOL    HW2 2148   2.906   2.368   1.349  0.8346 -0.6063 -1.4604
  717SOL     OW 2149   2.603   1.028   0.866 -0.0747  0.2308  0.1380
  717SOL    HW1 2150   2.547   0.979   0.934  0.6382  0.6071 -0.5633
  717SOL    HW2 2151   2.556   1.018   0.776 -0.6260 -0.3935 -0.2951
  718SOL     OW 2152   1.185   1.792   1.649  0.5318 -0.2648  0.8864
  718SOL    HW1 2153   1.281   1.760   1.671  2.0918 -0.3553 -1.8301
  718SOL    HW2 2154   1.112   1.730   1.688 -0.1319  0.7179  0.2409
  719SOL     OW 2155   2.594   0.298   2.961 -0.5834  0.6739 -0.2803
  719SOL    HW1 2156   2.599   0.400   2.966 -1.6054  1.5403  0.9893
  719SOL    HW2 2157   2.686   0.255   2.957 -2.4071 -2.7117 -1.4548
  720SOL     OW 2158   0.919   0.264   0.997 -0.2334  0.0734  0.0071
  720SOL    HW1 2159   1.008   0.223   0.969 -0.2494 -1.8976  1.1673
  720SOL    HW2 2160   0.891   0.338   0.931  0.0192  2.6523 -0.0376
  721SOL     OW 2161   2.674   0.773   0.566 -0.2122 -0.1948 -0.0161
  721SOL    HW1 2162   2.701   0.729   0.478  0.1012  2.0676 -1.0363
  721SOL    HW2 2163   2.732   0.858   0.577  0.5162 -1.1211  0.4696
  722SOL     OW 2164   0.562   2.717   2.444 -0.0132  0.0709 -0.0299
  722SOL    HW1 2165   0.592   2.623   2.416  0.2176 -0.9628 -0.1946
  722SOL    HW2 2166   0.596   2.790   2.376  2.8200  1.6734 -2.9490
  723SOL     OW 2167   1.600   0.139   0.618 -0.1921  0.5626  0.0149
  723SOL    HW1 2168   1.672   0.112   0.554  0.8063 -0.9086  1.1135
  723SOL    HW2 2169   1.533   0.203   0.573 -0.1466 -1.7398 -4.3129
  724SOL     OW 2170   0.955   1.642   2.041  0.4587  0.0218  0.4382
  724SOL    HW1 2171   0.980   1.603   2.130  0.7738 -3.4925  1.2723
  724SOL    HW2 2172   0.853   1.650   2.038 -3.2651 -0.0745 -0.3547
  725SOL     OW 2173   1.657   0.050   1.382 -0.0113  0.1031  0.5539
  725SOL    HW1 2174   1.604   0.121   1.442 -0.2724  1.1419 -0.2995
  725SOL    HW2 2175   1.642   3.047   1.400 -0.2855 -1.6690  0.7306
  726SOL     OW 2176   2.302   2.848   0.257 -0.3243 -0.4235  0.0999
  726SOL    HW1 2177   2.354   2.920   0.304  1.1258 -1.6678  1.0774
  726SOL    HW2 2178   2.323   2.759   0.303 -0.9434  0.3509  0.7063
  727SOL     OW 2179   1.269   1.950   0.677  0.1729  0.0865 -0.3507
  727SOL    HW1 2180   1.344   2.018   0.661  1.5763 -1.4123  0.0035
  727SOL    HW2 2181   1.304   1.855   0.674  0.0688 -0.1259  0.4917
  728SOL     OW 2182   2.304   2.711   2.331 -1.0436 -0.2983  0.3116
  728SOL    HW1 2183   2.251   2.678   2.251  1.4291  2.1820  1.3620
  728SOL    HW2 2184   2.275   2.809   2.350 -0.2652 -3.0788  0.8112
  729SOL     OW 2185   1.965   2.303   1.531  0.1060 -0.0454  0.7025
  729SOL    HW1 2186   2.026   2.229   1.561  0.9718  1.5098  0.1816
  729SOL    HW2 2187   1.870   2.277   1.555  3.1360  0.7281 -2.5865
  730SOL     OW 2188   1.565   0.716   2.849 -1.1462  0.2627 -0.1778
  730SOL    HW1 2189   1.656   0.674   2.861 -1.3590 -1.5458 -3.7479
  730SOL    HW2 2190   1.558   0.803   2.797 -1.1233 -2.5740 -0.6947
  731SOL     OW 2191   0.673   2.954   1.293 -0.0748  0.3584  0.1393
  731SOL    HW1 2192   0.723   3.012   1.227 -1.5817  0.3974  0.7359
  731SOL    HW2 2193   0.707   2.858   1.283  0.8956 -1.6222 -0.0834
  732SOL     OW 2194   1.277   0.245   1.142  0.1098  0.2088 -0.5808
  732SOL    HW1 2195   1.366   0.228   1.196  0.2638  0.3959  1.0539
  732SOL    HW2 2196   1.286   0.207   1.050 -0.9799  0.1460  0.5272
  733SOL     OW 2197   0.930   1.077   0.806 -0.1522  0.2041 -0.0886
  733SOL    HW1 2198   0.953   0.991   0.857  0.6520  0.4027  0.7896
  733SOL    HW2 2199   0.924   1.152   0.874  0.8055  1.4796 -1.7587
  734SOL     OW 2200   2.962   2.554   2.822  0.1186 -0.3922  0.0052
  734SOL    HW1 2201   2.917   2.614   2.753  0.4184  1.4090 -1.2733
  734SOL    HW2 2202   2.957   2.580   2.920 -0.2298  0.4495 -0.5057
  735SOL     OW 2203   1.248   2.806   1.494 -0.0392  0.2332  0.4510
  735SOL    HW1 2204   1.261   2.831   1.399 -1.2506 -1.0531  2.2101
  735SOL    HW2 2205   1.267   2.883   1.560 -1.9611 -1.8899 -0.2075
  736SOL     OW 2206   1.786   1.959   0.057 -0.1917  0.0826 -0.0996
  736SOL    HW1 2207   1.711   2.031   0.042  0.4059 -1.1142 -2.2777
  736SOL    HW2 2208   1.880   1.993   0.036 -0.4565  0.5359 -1.2474
  737SOL     OW 2209   0.052   2.040   1.392 -0.2655  0.1836  0.1211
  737SOL    HW1 2210   0.029   2.119   1.331  3.4037 -1.6814 -2.1548
  737SOL    HW2 2211   3.085   2.028   1.468 -1.5779  1.4773  0.1481
  738SOL     OW 2212   1.864   2.509   2.801  0.1237  0.2199 -0.5142
  738SOL    HW1 2213   1.781   2.539   2.849 -0.9351  0.6196 -0.0079
  738SOL    HW2 2214   1.949   2.529   2.861  2.1512 -1.5311  3.4679
  739SOL     OW 2215   1.392   2.251   2.572 -0.2616  0.1724  0.2187
  739SOL    HW1 2216   1.423   2.262   2.473  0.3407  1.1799 -2.7527
  739SOL    HW2 2217   1.467   2.197   2.624  1.3561 -2.9864 -1.0087
  740SOL     OW 2218   1.138   2.568   0.864 -0.2136 -0.6610 -0.3511
  740SOL    HW1 2219   1.121   2.571   0.764 -0.5578 -1.0214  0.3836
  740SOL    HW2 2220   1.071   2.627   0.913 -0.5660  2.1134  0.7583
  741SOL     OW 2221   2.980   1.214   0.402  0.0368  0.1214  0.1052
  741SOL    HW1 2222   2.899   1.233   0.459  2.4205 -0.2488 -0.7089
  741SOL    HW2 2223   3.023   1.301   0.368  3.7068 -1.0971 -0.9427
  742SOL     OW 2224   1.008   1.658   2.327 -0.3257 -0.0205 -0.3042
  742SOL    HW1 2225   1.074   1.633   2.402  1.5143 -1.9816 -0.9808
  742SOL    HW2 2226   0.974   1.753   2.347 -0.2726 -0.7222  0.1186
  743SOL     OW 2227   0.933   0.990   2.368 -0.3261  0.0770  0.3522
  743SOL    HW1 2228   0.950   0.942   2.457 -0.7078  0.0061  1.6480
  743SOL    HW2 2229   1.007   0.963   2.309 -1.8356 -1.5548  0.4274
  744SOL     OW 2230   2.199   2.995   1.543  0.3520  0.2272  0.4228
  744SOL    HW1 2231   2.294   3.029   1.567  2.9255  0.2805 -1.3743
  744SOL    HW2 2232   2.195   2.933   1.462 -0.3837 -0.6130  0.4988
  745SOL     OW 2233   1.711   1.415   1.184 -0.3267 -0.2468  0.3952
  745SOL    HW1 2234   1.719   1.515   1.193 -0.0304 -5.6180 -1.9256
  745SOL    HW2 2235   1.654   1.382   1.265 -0.1126 -0.9874  3.3728
  746SOL     OW 2236   1.846   0.880   0.771  0.2595 -0.4314 -0.2060
  746SOL    HW1 2237   1.943   0.890   0.732  1.8787 -1.1515 -2.4811
  746SOL    HW2 2238   1.820   0.783   0.790 -2.5589 -0.9579  0.5676
  747SOL     OW 2239   2.126   1.578   0.652 -0.4350 -0.2708 -0.1078
  747SOL    HW1 2240   2.064   1.522   0.711  0.4621 -1.7738 -0.7890
  747SOL    HW2 2241   2.067   1.651   0.605 -0.4768  2.6160 -2.0102
  748SOL     OW 2242   0.348   1.657   0.386  0.3323  0.1131  0.4429
  748SOL    HW1 2243   0.328   1.694   0.296 -1.2686 -0.9890  0.6076
  748SOL    HW2 2244   0.379   1.561   0.384 -0.7720  0.2494  2.1291
  749SOL     OW 2245   0.059   2.402   2.723 -0.6318  0.2816 -0.4090
  749SOL    HW1 2246   0.054   2.300   2.729  0.1474 -1.7145 -0.9928
  749SOL    HW2 2247   3.085   2.454   2.771  0.9928 -0.3340  0.5446
  750SOL     OW 2248   2.268   0.813   0.961 -0.0098  0.0509 -0.5419
  750SOL    HW1 2249   2.332   0.748   0.910  0.1376 -1.0667  0.0932
  750SOL    HW2 2250   2.178   0.764   0.967 -0.4743 -0.9499 -0.5245
  751SOL     OW 2251   2.809   3.043   0.153 -0.2538  0.2076  0.3402
  751SOL    HW1 2252   2.749   3.029   0.073 -2.1269  2.1655  0.6993
  751SOL    HW2 2253   2.812   2.963   0.218 -1.1170 -2.1380  1.6943
  752SOL     OW 2254   2.291   2.845   0.634 -0.1044 -0.3837  0.1204
  752SOL    HW1 2255   2.249   2.919   0.579 -0.5082 -1.1047  0.9774
  752SOL    HW2 2256   2.237   2.759   0.636  2.5881  3.0252 -0.1381
  753SOL     OW 2257   1.854   1.499   2.324 -0.4501 -0.3121 -0.7953
  753SOL    HW1 2258   1.940   1.447   2.351  1.6661 -1.4114  0.8835
  753SOL    HW2 2259   1.865   1.600   2.317  0.3646  1.5284 -0.5048
  754SOL     OW 2260   2.253   2.424   1.669 -0.0071 -0.3979 -0.6368
  754SOL    HW1 2261   2.270   2.344   1.606 -0.8750 -0.7130 -0.7646
  754SOL    HW2 2262   2.172   2.478   1.640  0.4207  1.6841  0.0708
  755SOL     OW 2263   2.591   0.879   1.247  0.3488 -0.0007  0.9842
  755SOL    HW1 2264   2.534   0.935   1.183  1.3410 -0.4149 -0.7983
  755SOL    HW2 2265   2.597   0.931   1.331  0.5241 -0.7117  0.0133
  756SOL     OW 2266   1.096   1.384   2.972  0.2093  0.1591 -1.3377
  756SOL    HW1 2267   1.098   1.311   2.899  0.3217  1.8812  0.5688
  756SOL    HW2 2268   1.015   1.440   2.951  0.4038 -3.3062  1.7297
  757SOL     OW 2269   1.648   2.661   1.004  0.2014 -0.1579 -0.6470
  757SOL    HW1 2270   1.691   2.651   0.911  0.0811  2.1979 -0.0904
  757SOL    HW2 2271   1.703   2.606   1.072 -0.8093  1.4852 -1.9526
  758SOL     OW 2272   0.913   2.330   1.369  0.5511  0.4711 -0.0494
  758SOL    HW1 2273   1.000   2.384   1.387  2.2117  1.5198 -0.2945
  758SOL    HW2 2274   0.921   2.233   1.335 -3.4573  0.0070 -1.4996
  759SOL     OW 2275   2.171   1.230   1.188 -0.2046 -0.3289  0.0885
  759SOL    HW1 2276   2.243   1.301   1.203  0.0355  1.4711  1.3247
  759SOL    HW2 2277   2.103   1.262   1.118 -0.1788  0.8595 -0.7103
  760SOL     OW 2278   2.052   0.937   1.425  0.1222 -0.2099  0.1250
  760SOL    HW1 2279   1.950   0.926   1.404 -1.8517 -2.3657 -2.5810
  760SOL    HW2 2280   2.073   1.037   1.411  0.9101  2.3223  1.9105
  761SOL     OW 2281   2.031   2.780   0.332 -0.5469  0.1002 -0.6501
  761SOL    HW1 2282   1.962   2.747   0.260 -1.1989 -0.8040  0.7412
  761SOL    HW2 2283   2.116   2.817   0.290  0.9442 -2.6823  1.9436
  762SOL     OW 2284   1.949   1.511   3.038 -0.2648  0.0463 -0.5428
  762SOL    HW1 2285   1.867   1.451   3.019 -0.0739  1.1438 -0.4842
  762SOL    HW2 2286   1.939   1.599   2.981  0.6913  1.5344  0.8217
  763SOL     OW 2287   0.579   1.660   1.426  0.0862 -0.0270  0.0881
  763SOL    HW1 2288   0.485   1.657   1.385  0.9741  0.6254 -0.3903
  763SOL    HW2 2289   0.625   1.570   1.423  0.7403  1.8447 -0.2786
  764SOL     OW 2290   0.192   2.377   3.074 -0.3700 -0.7362 -0.6858
  764SOL    HW1 2291   0.097   2.373   0.017 -2.4754 -0.6347  3.7171
  764SOL    HW2 2292   0.202   2.443   2.998  0.7836  0.7392  0.5353
  765SOL     OW 2293   0.477   3.080   1.419  0.1039 -0.0949  0.3034
  765SOL    HW1 2294   0.554   3.047   1.359  1.8880 -2.9436 -0.7738
  765SOL    HW2 2295   0.502   0.062   1.479  1.4877 -0.5898  0.8069
  766SOL     OW 2296   2.948   2.111   2.090  0.2551  0.1866 -0.0577
  766SOL    HW1 2297   2.974   2.208   2.078  1.4387 -0.1677  2.4527
  766SOL    HW2 2298   2.851   2.103   2.112  1.2437 -0.8198 -2.0805
  767SOL     OW 2299   3.026   1.071   2.081 -0.5067  0.2636 -0.0325
  767SOL    HW1 2300   2.974   0.982   2.082 -1.0570 -1.9058 -1.1892
  767SOL    HW2 2301   3.067   1.076   1.988 -1.2217  0.4093  0.5774
  768SOL     OW 2302   0.825   0.316   2.836 -0.1005 -0.3502 -0.3432
  768SOL    HW1 2303   0.728   0.342   2.827  2.6946 -0.6131  0.2669
  768SOL    HW2 2304   0.888   0.396   2.836  1.4199 -0.3306 -0.3364
  769SOL     OW 2305   2.099   2.692   0.985 -0.2224 -0.1620 -0.1286
  769SOL    HW1 2306   2.199   2.692   0.965  2.2209  1.7912 -0.8152
  769SOL    HW2 2307   2.071   2.779   1.026  1.7678  0.5392  0.5007
  770SOL     OW 2308   2.976   0.042   2.779  0.0265 -0.6218  0.1310
  770SOL    HW1 2309   2.903   3.072   2.751 -0.9141  3.3976  0.8057
  770SOL    HW2 2310   3.049   0.038   2.710 -2.6007 -1.3656 -1.0172
  771SOL     OW 2311   1.862   2.047   1.854 -0.1364  0.2034  0.4444
  771SOL    HW1 2312   1.821   2.021   1.765  0.7319 -1.0731  1.5291
  771SOL    HW2 2313   1.828   2.140   1.879 -0.4171 -0.3972  1.1586
  772SOL     OW 2314   1.208   0.231   3.081 -0.0464 -0.0990 -0.2013
  772SOL    HW1 2315   1.193   0.264   0.078  2.5806  0.0536  0.9566
  772SOL    HW2 2316   1.126   0.174   3.053 -0.7501  1.2134  2.4516
  773SOL     OW 2317   2.841   0.831   1.809 -0.2812 -0.0698 -0.5516
  773SOL    HW1 2318   2.888   0.798   1.897  0.0223 -1.7359  2.2280
  773SOL    HW2 2319   2.900   0.900   1.757  0.9450 -0.7115  0.0864
  774SOL     OW 2320   1.061   1.005   0.564  0.2268 -0.7008 -0.2351
  774SOL    HW1 2321   1.043   1.073   0.494  0.9793 -0.5558 -1.6031
  774SOL    HW2 2322   1.014   1.031   0.653 -0.9890  0.0434  0.6780
  775SOL     OW 2323   2.630   2.991   3.046 -0.3311  0.1356  0.5692
  775SOL    HW1 2324   2.561   3.070   3.041 -1.8486  0.1775 -0.2702
  775SOL    HW2 2325   2.590   2.897   3.032  0.1839 -1.7884 -0.5584
  776SOL     OW 2326   2.238   1.412   2.067  0.2100 -0.4826 -0.1157
  776SOL    HW1 2327   2.309   1.436   2.136  2.4945  0.5057 -0.8543
  776SOL    HW2 2328   2.227   1.313   2.063 -0.4066  0.5074  1.1372
  777SOL     OW 2329   0.146   1.305   2.728  0.0828 -0.4500 -0.5051
  777SOL    HW1 2330   0.148   1.246   2.646 -2.2869  0.0708  0.7345
  777SOL    HW2 2331   0.116   1.399   2.709  1.3213 -0.5595  1.3971
  778SOL     OW 2332   0.495   0.559   0.221 -0.1245  0.3978 -0.3520
  778SOL    HW1 2333   0.530   0.513   0.136 -3.5298 -1.2302  0.2990
  778SOL    HW2 2334   0.405   0.599   0.200  1.2060  0.4435  1.4278
  779SOL     OW 2335   0.553   0.474   2.571  0.5175  0.3312  0.3925
  779SOL    HW1 2336   0.602   0.552   2.530 -0.1916 -0.4164  3.7456
  779SOL    HW2 2337   0.555   0.397   2.504  0.8561 -1.4977  0.1351
  780SOL     OW 2338   2.174   0.840   2.807  0.0035  0.4394  0.1831
  780SOL    HW1 2339   2.091   0.837   2.863 -0.1715 -0.5707 -3.0914
  780SOL    HW2 2340   2.204   0.744   2.786 -2.2363 -0.3079  0.8154
  781SOL     OW 2341   3.011   0.973   1.649  0.5218  0.1705  0.0802
  781SOL    HW1 2342   3.033   1.020   1.559 -2.0403 -0.1770 -0.3524
  781SOL    HW2 2343   3.032   1.035   1.728 -0.7319  1.8902 -0.0732
  782SOL     OW 2344   0.632   1.819   2.792  0.5255 -0.6281 -0.1302
  782SOL    HW1 2345   0.641   1.889   2.862 -2.1609 -0.8658  0.9853
  782SOL    HW2 2346   0.633   1.730   2.837  1.5983  3.0837 -2.1916
  783SOL     OW 2347   1.039   2.635   1.489 -0.0365  0.7539 -0.1069
  783SOL    HW1 2348   1.091   2.717   1.467  0.6815 -1.4382  0.0473
  783SOL    HW2 2349   1.089   2.549   1.469  0.3581  2.1575 -0.8044
  784SOL     OW 2350   1.449   0.289   3.000 -0.0015 -0.2893 -0.3362
  784SOL    HW1 2351   1.354   0.280   3.028 -1.4580 -1.1925 -0.6522
  784SOL    HW2 2352   1.484   0.386   3.017  1.7555 -0.4780  0.0818
  785SOL     OW 2353   0.942   0.465   2.113  0.8830 -0.5522  0.5254
  785SOL    HW1 2354   0.944   0.440   2.210  0.4939 -1.0469 -0.5500
  785SOL    HW2 2355   1.038   0.475   2.071  1.4822  0.9528 -0.3437
  786SOL     OW 2356   0.713   1.889   0.320  0.3960 -0.2837  0.2491
  786SOL    HW1 2357   0.664   1.831   0.248 -3.6111 -2.4278  0.2979
  786SOL    HW2 2358   0.660   1.974   0.336 -1.5451 -1.1248  0.8842
  787SOL     OW 2359   1.261   0.919   0.373 -0.3747  0.0480  0.3087
  787SOL    HW1 2360   1.219   0.979   0.444  0.3846 -1.1749 -1.0180
  787SOL    HW2 2361   1.204   0.836   0.365 -1.1822 -0.4552  0.0111
  788SOL     OW 2362   2.295   1.592   1.263 -0.0288  0.9715  0.1723
  788SOL    HW1 2363   2.345   1.519   1.212 -0.1828 -1.6582  2.2361
  788SOL    HW2 2364   2.260   1.545   1.351 -1.6518  0.1024 -2.2104
  789SOL     OW 2365   2.948   1.259   2.270 -0.2883 -0.1625 -0.6034
  789SOL    HW1 2366   2.953   1.200   2.189  2.2179  1.4401 -1.4298
  789SOL    HW2 2367   2.868   1.319   2.283 -0.5938  2.1615  0.7999
  790SOL     OW 2368   0.607   3.040   0.094  0.5930 -0.1802  0.6470
  790SOL    HW1 2369   0.589   2.948   0.127 -0.9747 -0.0800 -1.6642
  790SOL    HW2 2370   0.677   3.088   0.152 -1.1561 -1.2266  0.6119
  791SOL     OW 2371   0.286   0.725   0.178  0.0892  0.4760  0.4041
  791SOL    HW1 2372   0.261   0.793   0.253 -1.1473  1.1484  2.5216
  791SOL    HW2 2373   0.254   0.759   0.085  0.9919  1.2526 -0.5034
  792SOL     OW 2374   1.727   0.670   2.528 -0.5234  0.6789  0.1740
  792SOL    HW1 2375   1.652   0.612   2.557  1.8426  2.0080 -1.0844
  792SOL    HW2 2376   1.801   0.613   2.475  1.7924 -1.4760 -0.5388
  793SOL     OW 2377   2.963   0.413   0.661  0.0337 -0.2224  0.2545
  793SOL    HW1 2378   2.966   0.503   0.608 -0.0559  4.1694  0.3404
  793SOL    HW2 2379   3.030   0.420   0.736  0.5357  1.3379 -1.6501
  794SOL     OW 2380   0.325   0.374   1.759 -0.6496 -0.4941  0.0042
  794SOL    HW1 2381   0.422   0.405   1.737  2.4161  0.2765  0.3477
  794SOL    HW2 2382   0.307   0.306   1.688  0.1891  2.7459  2.3472
  795SOL     OW 2383   0.102   1.324   3.074 -0.2061 -0.0702 -0.2292
  795SOL    HW1 2384   0.019   1.372   0.017 -2.8316  0.7604  0.0226
  795SOL    HW2 2385   0.105   1.229   0.018 -3.3096 -0.9046  0.6540
  796SOL     OW 2386   0.113   1.064   0.101 -0.2232 -0.1145  0.3038
  796SOL    HW1 2387   0.175   1.027   0.170 -1.1742 -2.7587  1.2639
  796SOL    HW2 2388   0.016   1.048   0.129 -4.2186  1.0434 -1.8955
  797SOL     OW 2389   1.625   2.509   2.936  0.1555 -0.0431  0.5019
  797SOL    HW1 2390   1.583   2.578   3.000  2.1611  1.8820  2.1258
  797SOL    HW2 2391   1.570   2.491   2.853  2.1432  2.6649  0.9852
  798SOL     OW 2392   2.868   0.587   0.963  0.3260  0.2092  0.4817
  798SOL    HW1 2393   2.847   0.556   0.873 -0.0517  1.1487 -1.2310
  798SOL    HW2 2394   2.781   0.594   1.012  0.3175 -1.2538 -1.8147
  799SOL     OW 2395   2.385   0.804   1.965 -0.2260  0.6108  0.2810
  799SOL    HW1 2396   2.451   0.885   1.975  3.8498  0.8145 -0.8010
  799SOL    HW2 2397   2.359   0.784   1.869 -1.5184 -2.1541  0.2316
  800SOL     OW 2398   0.345   1.905   0.470 -0.2752  0.0433 -0.5191
  800SOL    HW1 2399   0.322   1.922   0.570  2.5347  2.2080  1.2062
  800SOL    HW2 2400   0.359   1.804   0.456  0.3005 -0.6536 -0.1112
  801SOL     OW 2401   1.488   2.122   0.596 -0.2305 -0.4949 -0.3235
  801SOL    HW1 2402   1.536   2.068   0.517 -0.1258 -3.4377 -0.5448
  801SOL    HW2 2403   1.530   2.083   0.680 -1.9327  0.4637  2.3598
  802SOL     OW 2404   1.322   1.516   2.838 -0.9700 -0.4206  0.2400
  802SOL    HW1 2405   1.244   1.478   2.894 -0.4116 -0.7660  1.5920
  802SOL    HW2 2406   1.409   1.528   2.896 -0.4851  0.6114  2.8522
  803SOL     OW 2407   0.117   2.112   1.721 -0.1478  0.0295 -0.1463
  803SOL    HW1 2408   0.026   2.139   1.682 -1.2945 -0.2877 -0.3173
  803SOL    HW2 2409   0.135   2.163   1.809  1.1978  4.1998  0.5198
  804SOL     OW 2410   1.235   2.461   1.092  0.7169 -0.1130 -0.0379
  804SOL    HW1 2411   1.333   2.437   1.071 -2.5522  4.0911  1.4588
  804SOL    HW2 2412   1.200   2.506   1.009 -0.0970 -0.7114  3.8757
  805SOL     OW 2413   2.337   2.002   2.763 -0.2425  1.0291  0.0529
  805SOL    HW1 2414   2.267   2.033   2.695 -1.4522  0.2100  1.9375
  805SOL    HW2 2415   2.407   2.071   2.780 -0.5458 -0.0000 -0.4738
  806SOL     OW 2416   2.088   0.084   0.767  0.7772  0.1062 -0.4150
  806SOL    HW1 2417   2.144   0.039   0.841  2.3237 -1.9691  1.7164
  806SOL    HW2 2418   2.148   0.124   0.697  0.8866 -0.2151  1.2457
  807SOL     OW 2419   2.948   1.097   2.480 -0.2326  0.2845  0.0122
  807SOL    HW1 2420   3.041   1.112   2.520  0.0918 -1.1883 -1.3191
  807SOL    HW2 2421   2.938   1.156   2.396 -1.8968 -0.7564 -0.5467
  808SOL     OW 2422   0.609   1.506   0.548  0.1930 -0.1269  0.3135
  808SOL    HW1 2423   0.619   1.446   0.626 -2.6283 -0.0234  2.0415
  808SOL    HW2 2424   0.618   1.603   0.575  0.1714  0.3772  0.5475
  809SOL     OW 2425   2.759   0.529   2.116  0.5153 -0.0731 -0.2637
  809SOL    HW1 2426   2.802   0.611   2.085 -2.5292 -2.0158  1.5673
  809SOL    HW2 2427   2.776   0.452   2.051 -1.1398  0.5969 -0.5665
  810SOL     OW 2428   1.348   0.521   1.479 -0.6313  0.1261  0.1854
  810SOL    HW1 2429   1.308   0.431   1.514  1.0812 -0.5393  0.8253
  810SOL    HW2 2430   1.353   0.589   1.558 -1.7450 -0.3880 -0.9596
  811SOL     OW 2431   2.355   0.143   2.004  0.0317  0.5155  0.1573
  811SOL    HW1 2432   2.252   0.147   2.014 -0.1125  1.6137 -2.1320
  811SOL    HW2 2433   2.390   0.047   2.027 -0.4803  1.4637  2.0290
  812SOL     OW 2434   1.624   1.962   0.420 -0.2196 -0.2748 -0.0791
  812SOL    HW1 2435   1.707   2.019   0.392  1.7426  3.8891  2.0131
  812SOL    HW2 2436   1.651   1.865   0.429 -1.7388 -1.2619  0.4609
  813SOL     OW 2437   1.120   0.712   1.921 -0.7733  0.7581  0.2338
  813SOL    HW1 2438   1.157   0.706   2.017 -1.5352  0.6881  0.7692
  813SOL    HW2 2439   1.194   0.720   1.849  0.5682 -0.4175 -1.2650
  814SOL     OW 2440   0.337   0.280   1.100  0.2221 -0.1628  0.5255
  814SOL    HW1 2441   0.422   0.222   1.098  0.7042 -0.6792 -0.9569
  814SOL    HW2 2442   0.290   0.265   1.192  1.4734 -0.5957  0.3255
  815SOL     OW 2443   0.559   0.139   0.419  0.4167 -0.4260  0.4939
  815SOL    HW1 2444   0.541   0.109   0.512  0.2456  1.1112  1.9838
  815SOL    HW2 2445   0.497   0.094   0.349 -0.2742 -1.7604 -0.2542
  816SOL     OW 2446   2.180   1.826   2.343  0.1562  0.8811 -0.0652
  816SOL    HW1 2447   2.247   1.767   2.301  1.2944  0.9028  2.8624
  816SOL    HW2 2448   2.189   1.807   2.440  2.1722 -0.0452 -3.0296
  817SOL     OW 2449   1.060   2.816   0.599 -0.7906 -0.1703  0.0674
  817SOL    HW1 2450   1.108   2.777   0.518  1.0419 -0.4517  3.3970
  817SOL    HW2 2451   0.980   2.758   0.619  0.1408 -0.4624  0.1554
  818SOL     OW 2452   1.832   0.618   2.879  0.1339 -0.2265 -0.5400
  818SOL    HW1 2453   1.854   0.573   2.789  2.0604  1.0971 -1.0867
  818SOL    HW2 2454   1.905   0.603   2.950  1.6381 -1.5203  1.7846
  819SOL     OW 2455   2.297   0.120   0.193  0.5064  0.3688 -0.3197
  819SOL    HW1 2456   2.353   0.079   0.268 -3.1171 -1.4628  0.3894
  819SOL    HW2 2457   2.306   0.082   0.103 -2.6505 -1.9821 -0.7281
  820SOL     OW 2458   2.049   0.584   3.073  0.3912 -0.3907 -0.3876
  820SOL    HW1 2459   2.036   0.634   0.067 -1.8900 -1.5411  1.3426
  820SOL    HW2 2460   2.068   0.487   3.091  2.1557  0.6948  1.4433
  821SOL     OW 2461   2.747   0.354   0.831 -0.2240  0.0830 -0.4342
  821SOL    HW1 2462   2.824   0.327   0.768  1.2199 -1.4594 -0.2633
  821SOL    HW2 2463   2.681   0.416   0.780  0.3246  1.9448 -0.7266
  822SOL     OW 2464   1.055   2.376   2.197 -0.3928  0.0770 -0.1034
  822SOL    HW1 2465   1.087   2.371   2.295  2.6395 -0.6508  0.1146
  822SOL    HW2 2466   0.963   2.338   2.180 -2.3474 -1.0836 -1.4448
  823SOL     OW 2467   0.325   1.682   1.773 -0.6420 -0.0375  0.2452
  823SOL    HW1 2468   0.318   1.653   1.870 -0.6695  0.5391 -2.9060
  823SOL    HW2 2469   0.298   1.609   1.707  0.1387 -1.1797 -1.0003
  824SOL     OW 2470   1.456   2.763   2.162  0.1505 -0.1664  0.1742
  824SOL    HW1 2471   1.499   2.707   2.235 -0.7225 -1.0427 -0.1942
  824SOL    HW2 2472   1.381   2.824   2.196 -2.6377 -1.2407 -1.3622
  825SOL     OW 2473   1.645   0.832   0.589  0.1880  0.1313 -0.2790
  825SOL    HW1 2474   1.705   0.768   0.645  0.1231 -2.6107  1.0172
  825SOL    HW2 2475   1.655   0.933   0.614  3.7393  1.6872  4.5858
  826SOL     OW 2476   2.047   0.742   0.189  0.1520  0.3277  0.0069
  826SOL    HW1 2477   2.064   0.826   0.237  2.8065 -2.1286 -0.5214
  826SOL    HW2 2478   1.963   0.692   0.223  0.7249  2.6173 -0.7991
  827SOL     OW 2479   0.404   1.702   2.299  0.1212 -0.6248  0.6887
  827SOL    HW1 2480   0.427   1.798   2.326  0.4955 -1.8962  0.1593
  827SOL    HW2 2481   0.486   1.643   2.291 -2.3565 -0.4019  1.1713
  828SOL     OW 2482   2.279   1.243   1.636  0.6781  0.1700  0.1311
  828SOL    HW1 2483   2.282   1.332   1.682 -2.0503 -2.6489 -0.9823
  828SOL    HW2 2484   2.346   1.179   1.680  0.1916  1.6546  0.1720
  829SOL     OW 2485   0.333   1.692   0.660  0.9839  0.4103  0.1776
  829SOL    HW1 2486   0.349   1.609   0.713  0.7784 -1.2816 -0.2207
  829SOL    HW2 2487   0.404   1.696   0.589  0.6681 -0.4385 -1.1125
  830SOL     OW 2488   1.389   0.837   0.884 -0.3530  0.2239  0.2345
  830SOL    HW1 2489   1.323   0.814   0.816  1.2465  0.3087  1.0950
  830SOL    HW2 2490   1.415   0.749   0.924 -0.4984 -0.3348 -0.6741
  831SOL     OW 2491   2.965   1.731   0.108  0.4354 -0.2267 -0.7863
  831SOL    HW1 2492   2.951   1.787   0.193  0.0159 -3.8899  1.6160
  831SOL    HW2 2493   2.917   1.641   0.119  0.3321  1.3175  0.1461
  832SOL     OW 2494   0.765   0.300   0.119  0.2256  0.3399  0.1247
  832SOL    HW1 2495   0.814   0.372   0.171 -2.1914 -0.8093  0.9507
  832SOL    HW2 2496   0.764   0.214   0.174 -2.7839  1.0544 -0.9314
  833SOL     OW 2497   0.563   0.677   2.215 -0.0691 -0.1153  0.1963
  833SOL    HW1 2498   0.578   0.774   2.182  0.2230  0.4165  0.3296
  833SOL    HW2 2499   0.574   0.612   2.137  2.6247 -0.3012  0.8050
  834SOL     OW 2500   0.181   0.532   0.629  0.1560  0.1472  0.0227
  834SOL    HW1 2501   0.145   0.491   0.712  2.2028 -1.4015 -0.8949
  834SOL    HW2 2502   0.176   0.466   0.552  0.0279  1.4481  0.6171
  835SOL     OW 2503   2.814   3.008   1.201  0.0385  0.1697  0.1539
  835SOL    HW1 2504   2.743   3.051   1.265 -1.0551  1.1101  1.6338
  835SOL    HW2 2505   2.816   3.063   1.115  0.2909 -0.6841 -0.7537
  836SOL     OW 2506   0.473   2.026   0.058  0.8273  0.1298  0.3811
  836SOL    HW1 2507   0.386   2.068   0.019  2.0881  1.0069  1.2693
  836SOL    HW2 2508   0.500   2.061   0.153  1.0307  1.4824 -0.3737
  837SOL     OW 2509   1.603   1.376   2.372 -0.5119 -0.7250  0.5117
  837SOL    HW1 2510   1.565   1.401   2.462 -1.1510  0.4860  0.0222
  837SOL    HW2 2511   1.693   1.432   2.354  3.3114  2.1140 -1.0246
  838SOL     OW 2512   0.301   1.003   1.518 -0.7654 -0.0754 -0.3154
  838SOL    HW1 2513   0.378   1.013   1.450  0.3184  0.0104 -3.6605
  838SOL    HW2 2514   0.284   1.096   1.562 -0.3400  0.0658  1.3359
  839SOL     OW 2515   0.691   1.414   0.819  0.1080 -0.2416 -0.5242
  839SOL    HW1 2516   0.686   1.342   0.890  1.3264 -2.7591 -1.4212
  839SOL    HW2 2517   0.756   1.380   0.748 -3.3184 -0.6120  1.2114
  840SOL     OW 2518   2.069   0.139   2.036  0.0246 -0.7200  0.1273
  840SOL    HW1 2519   2.027   0.121   1.944 -2.4326 -0.9011  1.5446
  840SOL    HW2 2520   2.045   0.230   2.081 -0.5371  1.1026  1.5205
  841SOL     OW 2521   0.631   2.353   0.439 -0.6490  0.3694  0.2556
  841SOL    HW1 2522   0.728   2.337   0.419 -1.9126  1.2080 -0.6799
  841SOL    HW2 2523   0.580   2.367   0.348  0.2623 -1.3842  0.0268
  842SOL     OW 2524   0.306   0.171   0.838  0.0039 -0.1542 -0.4299
  842SOL    HW1 2525   0.289   0.226   0.922 -2.4436  0.6273  0.1671
  842SOL    HW2 2526   0.372   0.225   0.783 -2.7690  1.2509  1.7756
  843SOL     OW 2527   0.624   1.302   2.730 -0.2246 -0.6973 -0.1957
  843SOL    HW1 2528   0.544   1.357   2.753 -0.1456 -0.3701  0.3077
  843SOL    HW2 2529   0.696   1.365   2.686  0.4222 -1.0456 -1.0082
  844SOL     OW 2530   1.347   2.307   3.020 -0.5206  0.0416 -0.0718
  844SOL    HW1 2531   1.319   2.256   2.932 -0.6083 -1.3254 -1.5604
  844SOL    HW2 2532   1.350   2.409   2.997 -0.8442  1.7615  0.5684
  845SOL     OW 2533   2.499   2.778   2.550 -0.2740  0.4167  0.4590
  845SOL    HW1 2534   2.583   2.812   2.507 -2.3886 -0.9661 -0.5088
  845SOL    HW2 2535   2.432   2.751   2.479  1.4108 -0.8730 -0.6632
  846SOL     OW 2536   1.880   1.756   2.918  0.4035  0.1036  0.3368
  846SOL    HW1 2537   1.916   1.807   2.835  4.5765  1.8202  1.1520
  846SOL    HW2 2538   1.886   1.821   2.997 -1.7524  1.6132  1.1245
  847SOL     OW 2539   2.328   0.002   3.042 -0.0366  0.2350 -0.1449
  847SOL    HW1 2540   2.303   3.001   3.026 -0.2935 -0.5671  0.4554
  847SOL    HW2 2541   2.295   0.061   2.965  1.8848  1.8940  1.4090
  848SOL     OW 2542   0.285   0.829   0.590  0.4808 -0.9438 -0.1881
  848SOL    HW1 2543   0.210   0.835   0.658 -0.7914  2.5071  0.1179
  848SOL    HW2 2544   0.328   0.740   0.585  0.1890  1.4878 -0.0686
  849SOL     OW 2545   1.324   3.020   1.664 -0.0043 -0.1197  0.5875
  849SOL    HW1 2546   1.416   3.051   1.634  0.1966  3.0389  3.0141
  849SOL    HW2 2547   1.338   2.968   1.749  0.7848  1.6226  1.2006
  850SOL     OW 2548   0.593   1.709   0.145 -0.8253 -0.3293  0.8443
  850SOL    HW1 2549   0.497   1.725   0.112  0.8966 -0.2913 -0.5213
  850SOL    HW2 2550   0.590   1.615   0.181 -1.4962 -0.8507 -1.8782
  851SOL     OW 2551   0.124   1.201   0.669 -0.5088  0.4186  0.4798
  851SOL    HW1 2552   0.058   1.246   0.731  1.6504 -0.7498  0.5996
  851SOL    HW2 2553   0.082   1.145   0.594 -1.1440 -0.2517 -1.3445
  852SOL     OW 2554   1.649   2.459   1.439  0.1375  0.1075 -0.4441
  852SOL    HW1 2555   1.688   2.390   1.512  4.0731 -1.5091  3.0333
  852SOL    HW2 2556   1.579   2.526   1.475 -0.5837  2.3231 -0.1852
  853SOL     OW 2557   3.076   1.434   0.287 -0.1457 -0.5064  0.3727
  853SOL    HW1 2558   3.002   1.457   0.221  0.5312 -1.2875 -0.7332
  853SOL    HW2 2559   0.017   1.512   0.339  1.8821 -2.5032  0.9564
  854SOL     OW 2560   1.696   1.218   1.961 -0.6842  0.2204  0.5275
  854SOL    HW1 2561   1.628   1.242   2.034  1.8346 -0.0074 -0.3508
  854SOL    HW2 2562   1.664   1.141   1.902  1.9292 -2.6566 -0.7512
  855SOL     OW 2563   0.504   2.334   2.991 -0.6115  0.1062  0.1976
  855SOL    HW1 2564   0.412   2.374   2.979  1.8852 -1.7528  1.0479
  855SOL    HW2 2565   0.583   2.397   2.974  2.4443 -1.0258  0.5893
  856SOL     OW 2566   0.256   0.774   1.697 -0.0399 -0.3808  0.1153
  856SOL    HW1 2567   0.347   0.731   1.711 -2.0925  0.5523  0.1616
  856SOL    HW2 2568   0.276   0.864   1.654 -0.9076  0.5234  2.2431
  857SOL     OW 2569   1.100   1.297   2.103  0.0489 -0.8116 -0.6833
  857SOL    HW1 2570   1.146   1.264   2.189  0.1799 -1.1358 -0.0844
  857SOL    HW2 2571   1.016   1.350   2.135 -3.2271  0.8518  2.1588
  858SOL     OW 2572   0.241   1.505   2.448 -0.1205 -0.0279 -0.5188
  858SOL    HW1 2573   0.194   1.545   2.530 -2.0387 -1.0471  0.4722
  858SOL    HW2 2574   0.283   1.585   2.398 -2.6586  2.5166 -0.7269
  859SOL     OW 2575   2.767   2.989   0.892  0.0792  0.0544 -0.0358
  859SOL    HW1 2576   2.718   3.059   0.842  0.5648  0.6447 -3.0531
  859SOL    HW2 2577   2.865   3.018   0.889 -1.6224  1.8450 -0.5118
  860SOL     OW 2578   2.252   2.816   3.069 -0.0312 -0.3037 -0.2876
  860SOL    HW1 2579   2.263   2.846   0.069 -0.9849  2.0315  0.9867
  860SOL    HW2 2580   2.329   2.761   3.035 -0.9025  1.2581 -0.4050
  861SOL     OW 2581   0.521   0.389   0.476  0.1696 -0.2581  1.1161
  861SOL    HW1 2582   0.542   0.291   0.455  0.0025  1.1749 -1.2711
  861SOL    HW2 2583   0.493   0.436   0.388 -0.3099  0.9386 -0.2069
  862SOL     OW 2584   1.286   0.442   2.105 -0.1119  0.1333 -1.0217
  862SOL    HW1 2585   1.359   0.499   2.069  0.6989  0.6305 -0.3428
  862SOL    HW2 2586   1.324   0.382   2.178  1.0649 -2.3755  0.1108
  863SOL     OW 2587   2.563   2.299   1.147 -0.3290 -0.1506  0.3214
  863SOL    HW1 2588   2.472   2.264   1.126  0.6451 -0.1930 -1.3867
  863SOL    HW2 2589   2.633   2.248   1.092  4.2870  3.5503  0.3941
  864SOL     OW 2590   2.492   3.021   2.344 -0.0616  0.2665 -0.7594
  864SOL    HW1 2591   2.414   3.001   2.400  1.2983  1.1829 -0.9722
  864SOL    HW2 2592   2.584   2.999   2.382  1.6605 -0.1775  1.0079
  865SOL     OW 2593   0.862   0.653   1.859 -0.1253 -0.0249  0.2518
  865SOL    HW1 2594   0.819   0.578   1.912  3.8679 -1.3253  1.3487
  865SOL    HW2 2595   0.959   0.674   1.893  2.6466  1.3572 -2.3208
  866SOL     OW 2596   2.034   2.937   1.104 -0.5864 -0.4523 -0.6230
  866SOL    HW1 2597   2.088   2.991   1.038 -2.2566  1.0024  1.9534
  866SOL    HW2 2598   1.943   2.983   1.115 -1.4538  0.4080 -1.3976
  867SOL     OW 2599   2.618   2.414   0.863  0.0597 -0.1004 -0.1838
  867SOL    HW1 2600   2.579   2.369   0.944  1.8914  0.9720 -1.1331
  867SOL    HW2 2601   2.633   2.514   0.887 -0.6350  1.3393 -0.2662
  868SOL     OW 2602   0.657   2.112   1.496 -0.8745  0.4882 -0.5217
  868SOL    HW1 2603   0.688   2.188   1.558  2.1947  2.0973  2.2776
  868SOL    HW2 2604   0.610   2.149   1.417  2.1218 -0.3563 -0.6080
  869SOL     OW 2605   2.301   2.451   3.063  0.7244  0.0020 -0.0485
  869SOL    HW1 2606   2.402   2.436   3.038  4.0367  2.3485  0.0683
  869SOL    HW2 2607   2.292   2.488   0.061 -0.2081 -0.2400  1.0404
  870SOL     OW 2608   1.980   1.714   0.970  0.0128 -0.6233 -0.8639
  870SOL    HW1 2609   2.006   1.631   0.916  0.7235 -2.1539 -1.7968
  870SOL    HW2 2610   1.989   1.700   1.075 -0.2771  1.9385  0.1347
  871SOL     OW 2611   0.319   1.915   1.657  0.0536 -0.1171  0.8795
  871SOL    HW1 2612   0.252   1.983   1.694  1.0095  0.2080 -1.2597
  871SOL    HW2 2613   0.318   1.828   1.708 -0.5915 -0.6958 -0.8157
  872SOL     OW 2614   0.431   1.318   2.338  0.1848 -0.5336 -0.2362
  872SOL    HW1 2615   0.502   1.371   2.298 -0.6820 -1.4481 -2.5846
  872SOL    HW2 2616   0.378   1.374   2.406  3.3526  0.4460 -2.2340
  873SOL     OW 2617   1.160   2.081   1.872 -0.1631  0.3720 -0.6549
  873SOL    HW1 2618   1.155   1.996   1.926  2.4958 -0.5497 -1.8934
  873SOL    HW2 2619   1.077   2.094   1.812  0.7717  0.0459  1.6546
  874SOL     OW 2620   1.357   0.896   1.952  0.2776 -0.4736 -0.1035
  874SOL    HW1 2621   1.264   0.912   1.916 -0.0651 -0.1757 -1.9335
  874SOL    HW2 2622   1.368   0.927   2.045 -1.0155 -0.5258 -0.4705
  875SOL     OW 2623   2.694   2.721   0.855 -0.0222  0.0084 -0.4568
  875SOL    HW1 2624   2.696   2.684   0.946  1.2634  2.6135 -1.2552
  875SOL    HW2 2625   2.725   2.816   0.864 -0.7640 -1.1775 -0.7263
  876SOL     OW 2626   1.116   1.231   0.442  0.1487 -0.8468  0.6261
  876SOL    HW1 2627   1.137   1.224   0.341  2.2743  0.7499 -1.8529
  876SOL    HW2 2628   1.069   1.315   0.468  0.9532 -3.1378 -1.5097
  877SOL     OW 2629   3.066   0.203   1.023  0.6302 -0.0893  0.4614
  877SOL    HW1 2630   3.016   0.153   0.948  0.6156 -1.2585 -0.9544
  877SOL    HW2 2631   0.010   0.132   1.086  1.6317  0.8307 -1.1137
  878SOL     OW 2632   2.466   1.731   0.328  0.2264 -0.0637 -0.3846
  878SOL    HW1 2633   2.391   1.677   0.372 -0.2885  2.3337  0.0071
  878SOL    HW2 2634   2.441   1.754   0.234  1.2439 -1.5319  2.0735
  879SOL     OW 2635   2.368   1.861   1.186 -0.0669  0.1320 -0.2929
  879SOL    HW1 2636   2.353   1.767   1.225  2.7555  1.1317 -0.5454
  879SOL    HW2 2637   2.332   1.876   1.090  0.4321 -3.3930 -1.3908
  880SOL     OW 2638   0.295   2.720   0.849  0.5622  0.3128  0.0674
  880SOL    HW1 2639   0.194   2.736   0.874 -1.4798  2.2918 -1.2900
  880SOL    HW2 2640   0.317   2.744   0.755 -0.5748  0.2470  0.2139
  881SOL     OW 2641   1.210   0.769   0.701  0.1762  0.3322  0.3295
  881SOL    HW1 2642   1.169   0.846   0.654  0.9378 -0.3014  0.2179
  881SOL    HW2 2643   1.154   0.702   0.746  0.5198 -1.7429  2.2101
  882SOL     OW 2644   2.346   1.032   2.925 -0.2571 -0.0181 -0.2459
  882SOL    HW1 2645   2.280   0.971   2.871  0.1907  1.3851  0.6286
  882SOL    HW2 2646   2.418   1.056   2.861  0.5167 -1.8393 -1.5710
  883SOL     OW 2647   1.119   0.080   1.642  0.0616 -0.0716 -1.2566
  883SOL    HW1 2648   1.074   0.063   1.732 -0.0995 -0.5413  0.6436
  883SOL    HW2 2649   1.200   0.021   1.638 -1.9372  3.3417 -1.5662
  884SOL     OW 2650   3.040   3.085   0.831 -0.2807  0.8771 -0.3168
  884SOL    HW1 2651   0.038   3.064   0.849 -1.1888  0.6408 -1.9948
  884SOL    HW2 2652   3.041   0.034   0.741 -0.7237  1.8519 -3.3287
  885SOL     OW 2653   1.155   0.921   1.332 -0.2266  0.5611  0.0347
  885SOL    HW1 2654   1.182   0.949   1.426  0.2909  1.8127 -3.5968
  885SOL    HW2 2655   1.234   0.944   1.268 -1.7469  0.3373 -0.0054
  886SOL     OW 2656   1.796   0.862   2.752 -0.4725 -0.0640  0.0008
  886SOL    HW1 2657   1.797   0.810   2.664  0.1135 -0.7980 -0.8990
  886SOL    HW2 2658   1.814   0.798   2.828 -1.8978 -0.2388 -0.4048
  887SOL     OW 2659   1.751   0.608   0.977 -0.6711  0.0725  1.0648
  887SOL    HW1 2660   1.728   0.508   0.980  0.5751 -0.4711 -1.7283
  887SOL    HW2 2661   1.685   0.641   0.912 -1.0578  1.7536  3.4225
  888SOL     OW 2662   1.926   1.667   1.753 -0.4217  0.1271 -0.2830
  888SOL    HW1 2663   1.966   1.633   1.839  0.2922  0.2719 -1.5461
  888SOL    HW2 2664   1.994   1.725   1.696  0.5680 -0.0248 -2.8186
  889SOL     OW 2665   2.196   2.160   0.718  0.0117 -0.1092  0.0188
  889SOL    HW1 2666   2.236   2.225   0.786 -0.0022  1.4554 -1.4669
  889SOL    HW2 2667   2.108   2.125   0.758 -1.1338 -0.7879 -0.0199
  890SOL     OW 2668   0.983   1.967   0.660 -0.3851  0.3514 -0.2888
  890SOL    HW1 2669   1.082   1.960   0.671 -2.3509  0.9956 -0.8939
  890SOL    HW2 2670   0.933   1.897   0.717 -0.5848  1.1847  0.3541
  891SOL     OW 2671   2.628   0.679   2.477  0.1203 -0.1964  0.0257
  891SOL    HW1 2672   2.652   0.628   2.562 -0.6956 -0.5482 -2.6987
  891SOL    HW2 2673   2.595   0.612   2.408 -1.7048  0.5329 -0.9626
  892SOL     OW 2674   1.190   0.674   2.184 -0.2365  0.1092 -0.2563
  892SOL    HW1 2675   1.203   0.577   2.155  0.0950  0.8265 -3.2250
  892SOL    HW2 2676   1.245   0.704   2.262 -1.3693  0.7565 -0.7288
  893SOL     OW 2677   1.556   0.490   1.277  0.3266  0.3302 -0.4597
  893SOL    HW1 2678   1.628   0.418   1.301  1.7597 -0.5486 -0.7187
  893SOL    HW2 2679   1.484   0.495   1.352 -0.0086  0.3771 -0.0275
  894SOL     OW 2680   2.554   0.353   0.476 -0.1967  0.2609 -0.4043
  894SOL    HW1 2681   2.496   0.410   0.414  1.0452 -0.5824  0.0904
  894SOL    HW2 2682   2.561   0.255   0.446 -1.4868  0.2847  0.1172
  895SOL     OW 2683   2.068   2.585   2.952  0.6567  0.1282  0.5989
  895SOL    HW1 2684   2.028   2.675   2.984  0.3941  0.2341 -0.6746
  895SOL    HW2 2685   2.130   2.548   3.022 -2.6864  0.2722 -0.2464
  896SOL     OW 2686   1.799   2.937   1.606  0.3030 -0.4830 -0.1718
  896SOL    HW1 2687   1.873   3.000   1.577 -1.3707 -1.8319 -0.9078
  896SOL    HW2 2688   1.730   2.919   1.532 -2.3269  2.5659  0.8427
  897SOL     OW 2689   0.270   2.203   1.928 -0.0059 -0.0655 -0.6283
  897SOL    HW1 2690   0.352   2.253   1.886 -1.1443  3.3590 -2.6955
  897SOL    HW2 2691   0.286   2.105   1.959  2.1700  1.5867  2.5517
  898SOL     OW 2692   2.274   1.820   1.804  0.2728  0.5963 -0.1105
  898SOL    HW1 2693   2.371   1.788   1.802  0.2575  0.3413  2.3381
  898SOL    HW2 2694   2.225   1.837   1.719 -0.0496  0.6933  1.0744
  899SOL     OW 2695   1.750   2.233   0.570  0.1281 -0.6280  0.2499
  899SOL    HW1 2696   1.821   2.287   0.623  0.2224 -0.2860 -4.0565
  899SOL    HW2 2697   1.690   2.183   0.629 -0.3960 -0.9827 -1.6089
  900SOL     OW 2698   0.930   0.164   3.047 -0.5979 -0.0321 -0.0977
  900SOL    HW1 2699   0.883   0.180   2.958  1.3621 -1.4319  0.4510
  900SOL    HW2 2700   0.893   0.221   0.020  0.1013  1.0792  0.2168
  901SOL     OW 2701   1.192   1.625   2.556 -0.2298 -0.4010 -0.4643
  901SOL    HW1 2702   1.269   1.566   2.584 -1.7533  1.2330 -0.5974
  901SOL    HW2 2703   1.149   1.669   2.635  1.9944  1.1564 -0.0462
  902SOL     OW 2704   2.928   0.324   0.008 -0.0564  0.4070  0.2012
  902SOL    HW1 2705   2.934   0.408   3.047 -0.1546  0.0310 -0.2845
  902SOL    HW2 2706   2.890   0.247   3.050 -0.5598 -0.5996  2.0140
  903SOL     OW 2707   2.090   0.759   2.323  0.5053 -0.8630  0.4483
  903SOL    HW1 2708   2.087   0.818   2.407 -1.2434  1.3976 -0.3582
  903SOL    HW2 2709   2.182   0.750   2.286 -1.5181  4.1411 -0.8468
  904SOL     OW 2710   1.592   0.872   2.421  0.1585 -0.8581  0.7169
  904SOL    HW1 2711   1.640   0.962   2.430  2.1287 -0.9042 -0.1507
  904SOL    HW2 2712   1.657   0.801   2.455  0.4083  0.1274  2.2273
  905SOL     OW 2713   2.178   2.828   1.769  0.0409  0.5193  0.1857
  905SOL    HW1 2714   2.174   2.905   1.699  0.5720  1.1218 -2.6079
  905SOL    HW2 2715   2.087   2.800   1.801  1.3996 -2.0032  0.6997
  906SOL     OW 2716   1.827   2.110   0.345  0.6410 -0.3093  0.4577
  906SOL    HW1 2717   1.912   2.062   0.382  0.8567  0.0314 -1.3150
  906SOL    HW2 2718   1.780   2.168   0.414 -3.7456  3.5800 -1.9863
  907SOL     OW 2719   1.390   2.851   0.821  0.5947  0.0040  0.1387
  907SOL    HW1 2720   1.465   2.915   0.828 -1.2199 -1.9304 -2.6092
  907SOL    HW2 2721   1.409   2.773   0.757 -0.9143 -0.7033  0.2517
  908SOL     OW 2722   1.815   2.184   2.482 -0.1813  0.0800 -0.7346
  908SOL    HW1 2723   1.881   2.256   2.525  2.4330  0.6583  1.8046
  908SOL    HW2 2724   1.781   2.218   2.393 -0.2777  0.9727  0.5424
  909SOL     OW 2725   2.170   0.527   1.969 -0.2837 -0.0347  0.4684
  909SOL    HW1 2726   2.073   0.567   1.942 -2.1242  2.6606 -1.6111
  909SOL    HW2 2727   2.231   0.589   2.016  1.5492 -2.5364  0.8943
  910SOL     OW 2728   1.399   0.322   2.718  0.9872 -0.4724 -0.2403
  910SOL    HW1 2729   1.425   0.286   2.810  1.2086 -1.7384  0.0955
  910SOL    HW2 2730   1.326   0.261   2.676 -0.5404  1.6494 -1.3717
  911SOL     OW 2731   2.962   1.034   0.197  0.0452 -0.2502  0.3591
  911SOL    HW1 2732   2.963   1.087   0.284  1.1831 -0.0703 -1.2191
  911SOL    HW2 2733   2.934   0.941   0.219  0.1569 -0.8381  0.7080
  912SOL     OW 2734   0.156   2.605   0.551 -0.1194 -0.1358 -0.2956
  912SOL    HW1 2735   0.185   2.514   0.584  1.2000 -1.2000 -1.4430
  912SOL    HW2 2736   0.219   2.638   0.475  0.3753 -0.2127 -1.7123
  913SOL     OW 2737   2.822   2.157   2.451  0.2651 -0.2880 -0.3687
  913SOL    HW1 2738   2.876   2.235   2.404  2.9552  2.0653 -1.5432
  913SOL    HW2 2739   2.878   2.088   2.497  0.2565 -0.9182  0.7634
  914SOL     OW 2740   1.432   1.960   1.042 -0.3310  1.0997  0.3772
  914SOL    HW1 2741   1.427   1.901   1.128  0.0495 -3.2953 -1.3154
  914SOL    HW2 2742   1.341   1.998   1.017  2.9715  1.9395  0.8369
  915SOL     OW 2743   0.362   2.855   2.053  0.2354  0.0503 -0.0336
  915SOL    HW1 2744   0.351   2.762   2.021  1.6453  2.2117 -1.8494
  915SOL    HW2 2745   0.284   2.871   2.118 -0.3120 -0.5562 -1.6317
  916SOL     OW 2746   0.525   0.236   1.507  0.0670 -0.0321 -0.2665
  916SOL    HW1 2747   0.625   0.223   1.532  0.0840  0.1036 -1.7216
  916SOL    HW2 2748   0.485   0.324   1.537  3.3262 -0.4030 -2.2582
  917SOL     OW 2749   2.704   0.641   0.341  0.0898 -0.0385 -0.3619
  917SOL    HW1 2750   2.745   0.551   0.327 -2.3779  2.3851  2.4682
  917SOL    HW2 2751   2.604   0.636   0.313  2.8778  0.0587  2.0518
  918SOL     OW 2752   1.727   2.244   2.907  0.1370 -0.0516 -0.3806
  918SOL    HW1 2753   1.720   2.346   2.903 -1.8099  0.4493  1.0161
  918SOL    HW2 2754   1.662   2.200   2.971 -0.8160  0.6969 -0.8063
  919SOL     OW 2755   1.603   2.879   1.171 -0.0257  0.3418 -0.3341
  919SOL    HW1 2756   1.655   2.963   1.140  2.1700 -2.3883  0.0253
  919SOL    HW2 2757   1.624   2.798   1.111 -0.7011  1.4634  1.8567
  920SOL     OW 2758   1.347   0.317   2.338 -0.4073 -0.0639  0.0307
  920SOL    HW1 2759   1.314   0.262   2.415  2.0589 -1.5047 -1.3290
  920SOL    HW2 2760   1.444   0.302   2.309 -0.6898 -0.7912  0.5741
  921SOL     OW 2761   2.874   0.781   2.805  0.3017  0.3209 -0.1400
  921SOL    HW1 2762   2.824   0.866   2.772  1.2033  3.0528  3.2807
  921SOL    HW2 2763   2.973   0.780   2.787 -1.4594 -0.9738 -0.8219
  922SOL     OW 2764   0.190   2.161   0.998  0.2347  0.1532  0.3456
  922SOL    HW1 2765   0.238   2.092   1.058  0.7859 -0.2347  1.3435
  922SOL    HW2 2766   0.177   2.250   1.048 -0.5442  1.1536  0.7328
  923SOL     OW 2767   0.595   1.661   1.724  0.6610 -0.3897  0.0034
  923SOL    HW1 2768   0.599   1.629   1.627  0.2388 -0.9064 -1.9362
  923SOL    HW2 2769   0.497   1.655   1.750 -2.1309 -2.3074 -1.7204
  924SOL     OW 2770   1.744   2.703   2.603 -0.2555 -0.2244 -0.6927
  924SOL    HW1 2771   1.736   2.616   2.652  3.0234  0.7262  1.9427
  924SOL    HW2 2772   1.751   2.778   2.673  0.3691  0.5409  1.6222
  925SOL     OW 2773   2.583   1.544   0.907  0.0771  0.8820 -0.1085
  925SOL    HW1 2774   2.560   1.444   0.913  2.8499 -0.8582  0.9735
  925SOL    HW2 2775   2.634   1.576   0.985 -0.1874 -2.6106 -2.4769
  926SOL     OW 2776   2.093   0.696   1.238 -0.0711 -0.6456 -0.3578
  926SOL    HW1 2777   2.161   0.638   1.280 -3.5911  2.4470  1.4586
  926SOL    HW2 2778   2.069   0.771   1.299 -2.4735  0.1948 -0.3234
  927SOL     OW 2779   1.955   0.046   1.515 -0.0137  0.0121  0.5317
  927SOL    HW1 2780   1.939   0.094   1.427  0.2535  0.3933  0.2038
  927SOL    HW2 2781   2.051   0.005   1.520  0.4184  0.4417  1.4048
  928SOL     OW 2782   0.155   1.094   2.252 -0.1797 -0.1089  0.1404
  928SOL    HW1 2783   0.194   1.171   2.196  2.4989  2.3583  1.1372
  928SOL    HW2 2784   0.059   1.082   2.230  1.9298 -0.9123 -0.2456
  929SOL     OW 2785   2.315   0.866   1.476  0.4688 -0.2165 -0.4526
  929SOL    HW1 2786   2.218   0.880   1.476  1.5565  1.0030 -0.0022
  929SOL    HW2 2787   2.361   0.954   1.471  3.2928 -1.9411  0.8129
  930SOL     OW 2788   2.645   2.701   2.138 -0.6275 -0.4516 -0.0669
  930SOL    HW1 2789   2.643   2.766   2.063 -1.5228 -1.0039  0.6095
  930SOL    HW2 2790   2.557   2.652   2.147  0.6743 -0.9056 -0.2390
  931SOL     OW 2791   1.628   1.258   1.431  0.1198 -0.3205 -0.1102
  931SOL    HW1 2792   1.549   1.241   1.497 -0.6627 -1.1504  2.0360
  931SOL    HW2 2793   1.707   1.304   1.484  4.8234  2.2502 -1.1642
  932SOL     OW 2794   0.468   1.181   1.919  0.1184  0.7663 -0.5274
  932SOL    HW1 2795   0.465   1.079   1.930  1.3066  0.4401 -0.6705
  932SOL    HW2 2796   0.555   1.204   1.879  0.7588 -2.8160 -1.9384
  933SOL     OW 2797   2.589   1.931   1.561 -0.0603 -0.4033 -0.2134
  933SOL    HW1 2798   2.577   1.902   1.462 -1.5755 -4.2279  0.2562
  933SOL    HW2 2799   2.575   1.847   1.618  0.1166 -2.9127  0.6437
  934SOL     OW 2800   0.703   2.071   1.955  0.0264  0.4719  0.4717
  934SOL    HW1 2801   0.672   2.006   2.028  0.8722 -2.7852 -0.4819
  934SOL    HW2 2802   0.689   2.030   1.865 -0.9396  0.3592  0.4285
  935SOL     OW 2803   3.050   1.514   1.665  0.2852  0.5730 -0.1898
  935SOL    HW1 2804   3.020   1.608   1.680 -1.3470 -1.4264 -2.1095
  935SOL    HW2 2805   3.009   1.458   1.743 -0.0465  0.0164  3.8260
  936SOL     OW 2806   3.037   1.121   1.426 -0.2792  0.6001 -0.0358
  936SOL    HW1 2807   2.974   1.059   1.375  0.0663  0.6732 -0.1715
  936SOL    HW2 2808   0.006   1.163   1.362 -0.7168  0.2590  0.2874
  937SOL     OW 2809   1.903   0.554   1.455  0.0157  0.7815  0.3620
  937SOL    HW1 2810   2.004   0.545   1.444  5.7797 -1.7357  0.2624
  937SOL    HW2 2811   1.860   0.604   1.374 -3.3475 -0.7092 -3.9487
  938SOL     OW 2812   0.515   2.784   0.158  0.4630 -0.2807  0.0202
  938SOL    HW1 2813   0.468   2.761   0.247 -0.2465 -0.1059  1.3504
  938SOL    HW2 2814   0.454   2.774   0.078 -0.6730 -0.5711  0.7159
  939SOL     OW 2815   2.961   1.981   2.622 -0.2965  0.4787 -0.4100
  939SOL    HW1 2816   2.934   1.884   2.621 -0.0424 -1.5002 -1.3541
  939SOL    HW2 2817   2.957   2.029   2.715  2.5286 -1.0387  2.7132
  940SOL     OW 2818   1.473   1.923   0.186 -0.4047  0.0570  0.1369
  940SOL    HW1 2819   1.374   1.951   0.189 -3.4138 -0.8299 -0.4861
  940SOL    HW2 2820   1.530   1.944   0.267  0.4405 -0.6524  0.6504
  941SOL     OW 2821   2.324   2.519   0.217 -0.3203 -0.2842  0.0498
  941SOL    HW1 2822   2.337   2.582   0.298 -0.1449 -0.8733  0.0043
  941SOL    HW2 2823   2.398   2.455   0.201 -0.0131  0.6176  1.0099
  942SOL     OW 2824   1.591   1.999   0.816  0.2016 -0.2148 -0.3056
  942SOL    HW1 2825   1.660   1.920   0.809  1.6869 -3.2022 -1.8551
  942SOL    HW2 2826   1.533   1.987   0.896  0.9397  0.8443 -1.0735
  943SOL     OW 2827   2.002   0.875   1.733  0.3741  0.4156 -0.2174
  943SOL    HW1 2828   2.053   0.866   1.649 -1.4263 -1.9325  1.7605
  943SOL    HW2 2829   2.036   0.957   1.787  1.7263  2.3220 -1.6510
  944SOL     OW 2830   1.412   0.990   2.220  0.0447  0.0451 -0.4900
  944SOL    HW1 2831   1.474   0.955   2.290 -1.8703  0.0299 -1.5131
  944SOL    HW2 2832   1.319   1.000   2.258  2.0534 -1.4753  2.5401
  945SOL     OW 2833   2.448   2.553   1.507  0.7747  0.1379 -0.3007
  945SOL    HW1 2834   2.484   2.468   1.454  0.7296 -3.4030 -4.2391
  945SOL    HW2 2835   2.389   2.520   1.585  0.8719  1.2251  0.2434
  946SOL     OW 2836   0.252   0.950   0.308  0.2908 -0.1905 -0.0580
  946SOL    HW1 2837   0.186   0.978   0.383  1.4304  0.2534  1.1557
  946SOL    HW2 2838   0.349   0.955   0.337  1.0208  1.7354 -1.0662
  947SOL     OW 2839   1.782   2.521   1.186 -0.0459  0.1412  0.0830
  947SOL    HW1 2840   1.726   2.460   1.242 -0.3035  1.8360 -2.9420
  947SOL    HW2 2841   1.881   2.522   1.216  1.6288 -0.2407 -1.1524
  948SOL     OW 2842   0.378   1.745   0.975 -0.2451  0.3753 -0.0997
  948SOL    HW1 2843   0.318   1.667   0.941 -2.2229 -0.8601 -2.3182
  948SOL    HW2 2844   0.475   1.718   0.980 -2.9323  0.9519 -0.0827
  949SOL     OW 2845   0.953   1.374   1.054  0.2722 -0.0135  0.0427
  949SOL    HW1 2846   0.898   1.293   1.074 -1.5021  1.0396  0.7820
  949SOL    HW2 2847   1.046   1.352   1.018  1.7709  0.0391  0.1943
  950SOL     OW 2848   0.301   0.694   1.167 -0.3227 -0.4029 -0.5382
  950SOL    HW1 2849   0.392   0.728   1.138  1.5741 -1.1183  0.4964
  950SOL    HW2 2850   0.241   0.771   1.201  0.4599 -0.7790 -1.9128
  951SOL     OW 2851   0.683   2.140   2.326  0.0093  0.0005  0.4464
  951SOL    HW1 2852   0.719   2.198   2.249 -2.0114  2.0105 -1.1926
  951SOL    HW2 2853   0.698   2.185   2.420 -0.7738  0.0447  0.3297
  952SOL     OW 2854   1.299   1.385   0.057 -0.4779  0.0857  0.0326
  952SOL    HW1 2855   1.338   1.475   0.090 -1.0350 -0.3072  0.0901
  952SOL    HW2 2856   1.220   1.404   3.089 -1.2248  1.9751  2.1163
  953SOL     OW 2857   1.225   2.878   3.055  0.2231 -0.2147  0.3581
  953SOL    HW1 2858   1.262   2.939   0.026 -2.9738 -0.7884 -0.6849
  953SOL    HW2 2859   1.125   2.877   3.054  3.2988  0.6936 -0.3354
  954SOL     OW 2860   1.801   1.111   0.144  0.5513 -0.2457  0.3455
  954SOL    HW1 2861   1.773   1.021   0.105 -0.2696  1.2652  1.1353
  954SOL    HW2 2862   1.901   1.127   0.134 -0.4107  1.3770 -1.5711
  955SOL     OW 2863   0.079   2.734   2.993 -0.2499  0.0780 -0.7632
  955SOL    HW1 2864   0.165   2.767   3.035  0.1707  0.6411 -1.3732
  955SOL    HW2 2865   0.090   2.711   2.895 -0.9427 -0.4216  0.1453
  956SOL     OW 2866   1.155   0.639   1.322  0.7515  0.1195 -0.1230
  956SOL    HW1 2867   1.173   0.738   1.333 -1.6286 -1.9450 -1.1638
  956SOL    HW2 2868   1.218   0.590   1.386  0.0432  0.2392  0.3539
  957SOL     OW 2869   1.037   1.480   1.321 -0.1551  0.3838 -0.1814
  957SOL    HW1 2870   1.006   1.564   1.365  1.2511 -2.9528 -0.4180
  957SOL    HW2 2871   1.010   1.463   1.225  1.3708  0.2108  1.1242
  958SOL     OW 2872   0.475   1.956   0.828  0.6106  0.3892 -0.3196
  958SOL    HW1 2873   0.424   1.868   0.861 -3.0865 -3.5852  0.6341
  958SOL    HW2 2874   0.561   1.935   0.785 -3.2426 -0.3786 -2.2553
  959SOL     OW 2875   1.306   1.267   1.082  0.4806 -0.2253  0.1400
  959SOL    HW1 2876   1.405   1.285   1.054  0.0578  0.5726 -0.0616
  959SOL    HW2 2877   1.295   1.282   1.183  3.9430 -1.7938 -2.2576
  960SOL     OW 2878   2.994   1.220   2.855  0.0054  0.0517  0.4019
  960SOL    HW1 2879   2.957   1.315   2.843  0.1930 -1.1884  1.4582
  960SOL    HW2 2880   3.087   1.201   2.818  0.3447 -3.0700 -1.6312
  961SOL     OW 2881   0.650   1.420   1.166 -0.2657 -0.2322  0.3312
  961SOL    HW1 2882   0.666   1.513   1.125 -1.4360  1.1099 -2.0941
  961SOL    HW2 2883   0.696   1.419   1.258 -1.1290 -0.2224 -0.2410
  962SOL     OW 2884   0.838   1.299   0.635  0.3912  0.4352 -0.1983
  962SOL    HW1 2885   0.915   1.361   0.610  2.0450 -0.5925  0.8792
  962SOL    HW2 2886   0.879   1.215   0.677 -1.1120 -0.1899  1.8403
  963SOL     OW 2887   1.463   1.472   2.623 -0.4649  0.3004  0.3655
  963SOL    HW1 2888   1.496   1.566   2.593  1.4379  0.8392 -0.9372
  963SOL    HW2 2889   1.419   1.477   2.718  1.1241  0.8582  2.5019
  964SOL     OW 2890   0.736   2.608   2.692 -0.2239 -0.3536 -0.0422
  964SOL    HW1 2891   0.675   2.535   2.647  0.9077 -1.8754 -1.4385
  964SOL    HW2 2892   0.733   2.596   2.795  3.0465  0.1423 -0.5985
  965SOL     OW 2893   0.499   2.408   0.201  0.3249  0.4543  0.3553
  965SOL    HW1 2894   0.522   2.341   0.126 -1.7238  0.4319 -1.2272
  965SOL    HW2 2895   0.404   2.430   0.205  3.6643  1.9830  0.3334
  966SOL     OW 2896   2.876   1.470   2.831  0.1980 -0.4526  0.2115
  966SOL    HW1 2897   2.804   1.415   2.791 -0.3990 -0.8953  1.2093
  966SOL    HW2 2898   2.845   1.554   2.882  1.5802 -2.7867 -0.0248
  967SOL     OW 2899   2.493   2.962   2.749 -0.2003 -0.2101  0.1405
  967SOL    HW1 2900   2.490   2.895   2.674 -0.4837  1.8130 -0.2175
  967SOL    HW2 2901   2.414   2.952   2.815  2.2058 -1.7590 -0.5264
  968SOL     OW 2902   2.067   0.188   0.381 -0.2579  0.6348 -0.5235
  968SOL    HW1 2903   2.109   0.173   0.291  1.5917 -3.0050  1.2651
  968SOL    HW2 2904   2.139   0.164   0.442 -2.0321  0.2109 -1.6886
  969SOL     OW 2905   0.290   1.260   2.109 -0.0603  0.0147 -0.2221
  969SOL    HW1 2906   0.347   1.218   2.037  0.5369 -0.3773 -0.5456
  969SOL    HW2 2907   0.343   1.269   2.196 -1.9319 -2.4925 -0.9314
  970SOL     OW 2908   1.567   1.297   0.980 -0.1049 -0.1642 -0.0378
  970SOL    HW1 2909   1.613   1.355   1.049 -0.1697  0.3967 -0.4507
  970SOL    HW2 2910   1.623   1.222   0.945  2.3559  1.0365 -0.8487
  971SOL     OW 2911   2.242   3.054   0.946  0.1568  0.1747  0.4204
  971SOL    HW1 2912   2.318   3.013   0.891 -0.2046 -0.1853  0.1250
  971SOL    HW2 2913   2.276   0.009   1.027 -0.4448  0.0102  1.2044
  972SOL     OW 2914   0.441   2.831   1.512  0.1914 -0.5598 -0.2963
  972SOL    HW1 2915   0.473   2.760   1.443 -2.3633  0.0786 -0.3846
  972SOL    HW2 2916   0.463   2.925   1.473  0.6428  2.8969 -0.4540
  973SOL     OW 2917   0.546   0.389   2.815 -0.5367  0.0864  0.3609
  973SOL    HW1 2918   0.560   0.441   2.726  1.9981 -2.3184  0.0674
  973SOL    HW2 2919   0.505   0.294   2.804 -0.1307 -0.2776  1.4838
  974SOL     OW 2920   2.007   1.585   2.003 -0.1262  0.5462  0.1791
  974SOL    HW1 2921   1.920   1.532   2.008 -4.3615  0.9267  1.4857
  974SOL    HW2 2922   2.084   1.527   2.030 -2.1574  0.0922 -2.0531
  975SOL     OW 2923   0.100   0.005   1.159 -0.0492  0.2873 -0.7051
  975SOL    HW1 2924   0.058   3.029   1.222  0.3492  3.3092 -1.4162
  975SOL    HW2 2925   0.149   3.065   1.077  2.9658 -1.1713  1.0084
  976SOL     OW 2926   0.875   1.916   2.375 -0.5367  1.5563  0.5164
  976SOL    HW1 2927   0.902   1.880   2.467  0.8502  2.9958 -2.1037
  976SOL    HW2 2928   0.791   1.972   2.376  0.4534 -0.4141 -1.0919
  977SOL     OW 2929   0.917   2.275   0.368  0.7892  0.0853  0.4221
  977SOL    HW1 2930   0.908   2.322   0.277 -2.9902 -2.1975  0.4799
  977SOL    HW2 2931   0.990   2.204   0.361  3.5549 -1.2497  3.2973
  978SOL     OW 2932   2.768   1.679   2.409  0.4417  0.2844  0.2160
  978SOL    HW1 2933   2.857   1.719   2.401  0.0845 -1.6354 -2.0291
  978SOL    HW2 2934   2.711   1.742   2.470 -2.5994  2.8995  0.6137
  979SOL     OW 2935   1.618   2.863   1.430  0.1459 -0.0388 -0.5427
  979SOL    HW1 2936   1.606   2.849   1.329  0.9084 -0.2009  1.8653
  979SOL    HW2 2937   1.571   2.787   1.479 -2.3421  1.1400 -0.5263
  980SOL     OW 2938   1.375   1.205   2.582 -0.4401  0.0996 -0.2796
  980SOL    HW1 2939   1.339   1.206   2.486 -2.8491  0.1480 -0.7812
  980SOL    HW2 2940   1.421   1.294   2.605  0.6887  3.2025  1.3106
  981SOL     OW 2941   2.401   0.226   1.735 -0.2636 -0.1451 -0.5450
  981SOL    HW1 2942   2.340   0.308   1.721  0.6242  0.3833 -0.5560
  981SOL    HW2 2943   2.396   0.191   1.832  1.8252  2.0412  1.4214
  982SOL     OW 2944   0.162   0.619   2.906  0.2624  0.5945 -0.4015
  982SOL    HW1 2945   0.231   0.604   2.838 -1.9827  0.4111  2.9278
  982SOL    HW2 2946   0.151   0.544   2.974  0.2753 -0.4517 -2.6666
  983SOL     OW 2947   2.366   1.012   2.312  0.0531  0.0556 -0.6550
  983SOL    HW1 2948   2.368   1.071   2.392 -3.4476 -1.6357  1.8411
  983SOL    HW2 2949   2.336   0.916   2.334 -1.4538 -0.4738 -0.9675
  984SOL     OW 2950   1.013   0.090   1.921  0.0369 -0.1655  0.3279
  984SOL    HW1 2951   1.031   3.084   1.938  1.4867 -1.2345  2.0332
  984SOL    HW2 2952   0.919   0.107   1.891  1.4184  0.5450  0.7611
  985SOL     OW 2953   1.889   1.608   1.470 -0.1259  0.0378 -0.1159
  985SOL    HW1 2954   1.876   1.508   1.481 -0.0325  0.3373  1.7716
  985SOL    HW2 2955   1.903   1.645   1.562  0.6290 -2.2709 -0.1018
  986SOL     OW 2956   2.421   0.723   1.703  0.1546 -0.0123  0.0565
  986SOL    HW1 2957   2.522   0.718   1.691 -1.6193 -0.7339  0.0620
  986SOL    HW2 2958   2.382   0.781   1.629 -1.2417 -0.1334  2.3589
  987SOL     OW 2959   2.882   0.892   1.329 -0.0977  0.7520 -0.2847
  987SOL    HW1 2960   2.911   0.796   1.342  0.7878 -2.1355  2.3076
  987SOL    HW2 2961   2.792   0.896   1.280  0.8030  2.5842  1.0225
  988SOL     OW 2962   0.092   0.875   1.905 -0.7225  0.1648 -0.3149
  988SOL    HW1 2963   0.088   0.967   1.865  2.2392 -0.8507  0.9555
  988SOL    HW2 2964   0.124   0.809   1.836  2.0916  1.6859  0.0665
  989SOL     OW 2965   2.248   1.615   0.406 -0.1972 -0.4810  0.4206
  989SOL    HW1 2966   2.205   1.597   0.492  0.8785 -1.8380 -0.4346
  989SOL    HW2 2967   2.198   1.578   0.326 -1.0055  0.6011 -1.0063
  990SOL     OW 2968   1.044   0.405   2.372 -0.1523 -0.0139 -0.0763
  990SOL    HW1 2969   1.102   0.430   2.456 -2.5276 -0.7986  0.0620
  990SOL    HW2 2970   1.099   0.338   2.318 -1.8621  3.4453  1.7588
  991SOL     OW 2971   1.314   1.226   0.628 -0.9586 -0.5206 -0.5361
  991SOL    HW1 2972   1.394   1.275   0.595 -1.9076  1.5135  2.2233
  991SOL    HW2 2973   1.236   1.220   0.557 -0.1234  1.4635  0.7822
  992SOL     OW 2974   2.067   1.227   0.455  0.3418 -0.6667  0.5960
  992SOL    HW1 2975   2.029   1.309   0.404 -2.5250 -2.4544 -0.2883
  992SOL    HW2 2976   2.091   1.254   0.553  0.5814  0.7939 -0.8765
  993SOL     OW 2977   3.082   0.877   0.664 -0.4139 -0.2600  0.1857
  993SOL    HW1 2978   3.055   0.844   0.755  0.3734 -3.0929 -2.5681
  993SOL    HW2 2979   3.039   0.818   0.594  0.1457  0.5424 -1.8108
  994SOL     OW 2980   0.081   2.038   2.484 -0.6533  0.0661  0.2206
  994SOL    HW1 2981   3.083   2.031   2.519  2.5840 -2.6273 -0.3301
  994SOL    HW2 2982   0.136   1.978   2.545 -3.3513  1.8256  0.2231
  995SOL     OW 2983   2.030   1.108   2.920 -0.4053 -0.1996  0.3750
  995SOL    HW1 2984   2.015   1.011   2.948  0.0603 -1.0642 -2.4696
  995SOL    HW2 2985   1.938   1.146   2.894 -1.7295 -1.0630 -1.2906
  996SOL     OW 2986   2.391   1.096   0.234  0.2297 -0.6714 -0.0604
  996SOL    HW1 2987   2.313   1.048   0.278 -2.1241  1.9396  0.2429
  996SOL    HW2 2988   2.444   1.047   0.161  2.6373 -1.1634 -0.6652
  997SOL     OW 2989   1.910   1.278   1.822 -0.0561 -0.0004 -0.0472
  997SOL    HW1 2990   1.977   1.208   1.850 -0.1309 -0.3163 -1.2332
  997SOL    HW2 2991   1.823   1.276   1.879 -2.5259 -0.1330  0.4639
  998SOL     OW 2992   2.622   1.944   0.386  0.1384 -0.3831  0.0964
  998SOL    HW1 2993   2.551   2.017   0.400  3.5359  0.1474  3.1192
  998SOL    HW2 2994   2.577   1.856   0.360  2.3216 -2.3289 -1.0315
  999SOL     OW 2995   2.923   2.127   0.047 -1.2515 -0.0505  0.6544
  999SOL    HW1 2996   2.888   2.094   0.137 -1.8813 -0.0088  0.8598
  999SOL    HW2 2997   2.986   2.203   0.056  0.9363 -0.2637 -2.4996
 1000SOL     OW 2998   1.129   0.934   2.179  0.6227 -0.0975 -0.5761
 1000SOL    HW1 2999   1.137   0.833   2.176  0.4547  2.3511  0.4861
 1000SOL    HW2 3000   1.115   0.981   2.090  2.2143 -1.2142  1.5115
   3.09706   3.09706   3.09706
