1000 SPC/Fw water molecules t= 436.00000 step= 436000
 3000
    1SOL     OW    1   3.100   0.066   1.448 -0.5754 -0.2205 -0.5784
    1SOL    HW1    2   0.025   0.127   1.384  1.0703 -4.0941  0.6237
    1SOL    HW2    3   0.037   3.123   1.494  0.3165 -0.1164  2.6753
    2SOL     OW    4   2.869   3.057   0.068  0.4007 -0.5405 -0.0322
    2SOL    HW1    5   2.958   3.013   0.093 -0.9579  0.4353  1.1325
    2SOL    HW2    6   2.790   2.990   0.073  1.4476 -2.0565 -2.5161
    3SOL     OW    7   1.334   2.679   3.108  0.8002 -0.1860  0.1022
    3SOL    HW1    8   1.301   2.586   3.074  0.2711  1.0183 -0.1510
    3SOL    HW2    9   1.417   2.667   0.043  1.5179 -1.0991 -0.1162
    4SOL     OW   10   1.215   2.848   2.334  0.6033 -0.3397  0.2915
    4SOL    HW1   11   1.290   2.782   2.358 -1.0155 -0.4590  1.9816
    4SOL    HW2   12   1.125   2.825   2.382  0.1252  2.2554  0.2616
    5SOL     OW   13   2.345   0.246   2.013  0.1083 -0.7596  0.4511
    5SOL    HW1   14   2.386   0.281   2.100  1.1209 -1.0864 -2.1990
    5SOL    HW2   15   2.257   0.294   1.994 -0.3955  5.2968 -1.3871
    6SOL     OW   16   2.592   2.312   0.783  0.0477  0.2160 -0.0522
    6SOL    HW1   17   2.512   2.283   0.736  1.6349  2.4742  0.7374
    6SOL    HW2   18   2.567   2.314   0.881  1.1381  0.4765 -4.0122
    7SOL     OW   19   1.558   1.909   0.583 -0.3243 -0.3976  0.2930
    7SOL    HW1   20   1.478   1.886   0.528 -1.1123 -0.9903  0.7192
    7SOL    HW2   21   1.544   1.879   0.680 -2.9324 -0.4779  2.7617
    8SOL     OW   22   0.389   1.567   1.050 -0.3349  0.6987 -0.1170
    8SOL    HW1   23   0.342   1.648   1.012  1.0895 -0.5437  1.5037
    8SOL    HW2   24   0.470   1.540   0.996  0.8306 -1.8820  1.3939
    9SOL     OW   25   0.089   2.865   1.447  0.1618  0.2971 -0.1225
    9SOL    HW1   26   0.016   2.872   1.519  0.1695 -1.0779  1.4785
    9SOL    HW2   27   0.128   2.766   1.444  0.1880 -1.7344  0.5448
   10SOL     OW   28   1.133   2.342   0.591 -0.2242  0.6385  0.3801
   10SOL    HW1   29   1.193   2.356   0.676  1.5583  1.4076  0.2232
   10SOL    HW2   30   1.045   2.393   0.596 -2.1130  0.5959  0.0836
   11SOL     OW   31   1.914   1.651   1.133  0.0279  0.2382  0.1108
   11SOL    HW1   32   1.845   1.642   1.061  1.3315  2.4232 -1.4238
   11SOL    HW2   33   1.898   1.581   1.204  3.4125 -0.8219  0.0928
   12SOL     OW   34   0.033   1.019   1.863  0.1609 -0.0142 -0.2410
   12SOL    HW1   35   0.036   0.980   1.773  0.8511  2.9849  1.0221
   12SOL    HW2   36   0.097   0.972   1.926  1.5334 -0.6765  0.0716
   13SOL     OW   37   2.385   2.988   0.181  0.5793  0.0842  0.0535
   13SOL    HW1   38   2.435   2.905   0.150 -3.4260  0.2081  0.0569
   13SOL    HW2   39   2.334   3.033   0.103 -0.4342  1.4406 -0.8581
   14SOL     OW   40   1.422   1.906   0.127 -0.1174 -0.5932 -0.0096
   14SOL    HW1   41   1.401   1.868   0.216  1.2647 -0.6638 -2.1881
   14SOL    HW2   42   1.465   1.999   0.127 -1.3535  3.6891 -0.6548
   15SOL     OW   43   0.046   2.770   1.909 -0.1348 -0.1853  0.6732
   15SOL    HW1   44   0.030   2.690   1.846  0.5334 -0.0669 -1.2734
   15SOL    HW2   45   0.028   2.857   1.861  3.0302  0.0054  0.1997
   16SOL     OW   46   2.848   0.665   0.746 -0.3211 -0.3147  0.1968
   16SOL    HW1   47   2.859   0.680   0.643 -0.3052  1.8927 -0.3702
   16SOL    HW2   48   2.770   0.602   0.761 -1.0419  1.6378  3.7656
   17SOL     OW   49   0.824   0.517   0.745 -0.2287 -0.4466  0.5761
   17SOL    HW1   50   0.847   0.583   0.675 -0.8857 -0.7347 -1.1539
   17SOL    HW2   51   0.851   0.422   0.720  0.9442 -0.4967 -2.2094
   18SOL     OW   52   0.946   0.122   0.777  0.5904  0.0650 -0.1784
   18SOL    HW1   53   0.905   0.087   0.688 -0.4454 -1.9754 -2.2605
   18SOL    HW2   54   0.908   0.068   0.850  1.1085  1.9870  0.7634
   19SOL     OW   55   1.823   1.135   0.761 -0.0087  0.4495  0.2321
   19SOL    HW1   56   1.861   1.228   0.762  0.3871 -0.3984 -0.5233
   19SOL    HW2   57   1.838   1.102   0.672 -1.2594  1.1769 -1.0113
   20SOL     OW   58   2.200   1.694   2.793 -0.4621 -0.9022  1.0151
   20SOL    HW1   59   2.164   1.619   2.733  1.5855  0.7056 -2.7384
   20SOL    HW2   60   2.204   1.776   2.735  0.5050 -1.8967  0.2544
   21SOL     OW   61   1.436   3.086   0.266  0.4524 -0.1149  0.1683
   21SOL    HW1   62   1.420   3.111   0.167 -1.2423  0.1126 -0.0866
   21SOL    HW2   63   1.466   0.040   0.326  1.2310 -0.6121  0.9986
   22SOL     OW   64   2.869   0.992   0.533 -0.2510 -0.0186  0.1761
   22SOL    HW1   65   2.841   1.090   0.525 -0.1079 -0.8371  1.8150
   22SOL    HW2   66   2.793   0.945   0.579  0.0578  0.3219 -0.1128
   23SOL     OW   67   0.800   0.175   1.941  0.1783  0.2640 -0.0979
   23SOL    HW1   68   0.894   0.189   1.913 -3.0338  0.0229  0.3649
   23SOL    HW2   69   0.738   0.244   1.903  0.3074 -0.8171  1.6312
   24SOL     OW   70   1.739   2.460   0.607 -0.5057  0.3845 -0.1388
   24SOL    HW1   71   1.832   2.467   0.575 -5.7216 -1.1603  0.9822
   24SOL    HW2   72   1.712   2.369   0.613  2.5911  2.9637 -0.3478
   25SOL     OW   73   1.780   0.138   2.375 -0.2918 -0.0611 -0.5557
   25SOL    HW1   74   1.758   0.072   2.451 -0.6084  0.6426 -1.2625
   25SOL    HW2   75   1.875   0.109   2.345 -0.0033 -0.3883  2.6385
   26SOL     OW   76   1.668   2.592   2.740  0.5758  0.0911  0.4002
   26SOL    HW1   77   1.714   2.682   2.747  0.0805  1.5652 -0.5978
   26SOL    HW2   78   1.564   2.601   2.726  0.2046 -1.2851 -0.7996
   27SOL     OW   79   1.434   0.428   1.038  0.3743  0.6000  0.6497
   27SOL    HW1   80   1.487   0.470   1.115 -0.9124  1.7965 -0.8624
   27SOL    HW2   81   1.473   0.337   1.009  0.3177 -1.6121 -2.2818
   28SOL     OW   82   0.659   1.752   0.878  0.3612  0.3214  0.2859
   28SOL    HW1   83   0.754   1.729   0.860 -0.6576  0.5604 -0.7994
   28SOL    HW2   84   0.625   1.719   0.968 -3.0540 -1.0297  0.1003
   29SOL     OW   85   2.482   0.587   1.448 -0.1721  0.1799  0.1156
   29SOL    HW1   86   2.440   0.547   1.362 -1.8446 -0.3072  2.0991
   29SOL    HW2   87   2.507   0.507   1.508  0.8224 -2.5027  0.0829
   30SOL     OW   88   1.642   2.397   1.504  0.4335  0.2199 -0.0114
   30SOL    HW1   89   1.722   2.338   1.515 -0.1806 -1.2369  0.8420
   30SOL    HW2   90   1.615   2.395   1.404 -1.3333  0.7198 -0.9984
   31SOL     OW   91   1.850   2.746   1.504  0.2332 -0.1566  0.4352
   31SOL    HW1   92   1.809   2.678   1.438  0.8588 -0.9821  1.6851
   31SOL    HW2   93   1.950   2.749   1.482  0.7428 -0.4907 -0.4023
   32SOL     OW   94   1.904   1.504   2.079  0.0664 -0.0900 -0.0118
   32SOL    HW1   95   1.873   1.442   2.007 -1.0508  1.9567  0.1209
   32SOL    HW2   96   1.990   1.550   2.057 -1.5625  0.0228  2.6646
   33SOL     OW   97   2.476   3.116   2.518 -0.3060 -0.2270  0.3827
   33SOL    HW1   98   2.409   0.040   2.579  0.5565 -0.2222  0.0362
   33SOL    HW2   99   2.427   3.069   2.441  0.5822 -0.4204 -0.7712
   34SOL     OW  100   1.955   0.327   0.477  0.5806  0.3919 -0.1240
   34SOL    HW1  101   2.028   0.395   0.470  0.4849  1.4732  2.3023
   34SOL    HW2  102   1.889   0.350   0.548  1.7747  1.9950  1.5414
   35SOL     OW  103   0.253   2.125   2.007  0.5982 -0.0128  0.0279
   35SOL    HW1  104   0.240   2.190   2.085 -1.9670  3.6334 -0.6106
   35SOL    HW2  105   0.199   2.039   2.026  3.3341 -0.2658 -0.9905
   36SOL     OW  106   2.306   1.962   2.867 -0.3141  0.0818 -0.5002
   36SOL    HW1  107   2.256   1.946   2.954 -1.2725  0.7896 -1.7480
   36SOL    HW2  108   2.414   1.962   2.877  0.7110  0.4239 -0.2949
   37SOL     OW  109   1.406   0.010   1.753 -0.3760  0.5727  0.3129
   37SOL    HW1  110   1.391   0.064   1.836  2.3752 -0.1918 -0.3063
   37SOL    HW2  111   1.434   3.038   1.783  0.1698 -2.3389  0.4925
   38SOL     OW  112   0.945   0.715   2.651  0.0380  0.0880 -0.6279
   38SOL    HW1  113   0.961   0.715   2.751 -1.0854  1.0086  1.0646
   38SOL    HW2  114   1.014   0.774   2.604 -1.7907 -0.4625  0.7498
   39SOL     OW  115   1.877   0.782   1.559 -0.0674  0.7800  0.1257
   39SOL    HW1  116   1.814   0.852   1.525  3.6326  0.5533  0.7935
   39SOL    HW2  117   1.963   0.778   1.502  2.3103 -1.1332 -0.7366
   40SOL     OW  118   0.977   2.369   0.874  0.0798 -0.4874  0.4034
   40SOL    HW1  119   0.942   2.404   0.786  1.2005 -0.7889  0.3156
   40SOL    HW2  120   1.077   2.384   0.877 -0.7513 -0.6895  0.8086
   41SOL     OW  121   2.262   2.190   1.312 -0.3004  0.5092  0.4290
   41SOL    HW1  122   2.208   2.275   1.336 -1.5731  2.2219  1.2860
   41SOL    HW2  123   2.218   2.138   1.238 -2.7459 -0.1452 -2.5737
   42SOL     OW  124   2.655   0.505   0.353 -0.5005 -0.5994 -0.2120
   42SOL    HW1  125   2.562   0.542   0.371  0.8637 -0.3058 -1.2319
   42SOL    HW2  126   2.647   0.421   0.295 -1.7648 -0.0532 -2.2446
   43SOL     OW  127   0.927   1.197   2.567 -0.0220  0.2186 -0.2535
   43SOL    HW1  128   0.851   1.130   2.570 -2.7960  2.5784 -2.0673
   43SOL    HW2  129   0.892   1.281   2.516 -1.3278 -0.2232 -1.5055
   44SOL     OW  130   1.795   2.581   1.299 -0.5951  0.5171 -0.0482
   44SOL    HW1  131   1.763   2.592   1.204 -1.5666  1.4835 -0.3978
   44SOL    HW2  132   1.795   2.486   1.338 -0.7393 -1.0952  1.8538
   45SOL     OW  133   0.876   2.580   2.828  0.4889  0.4320 -0.4132
   45SOL    HW1  134   0.896   2.668   2.877 -1.1771  1.2181  0.0310
   45SOL    HW2  135   0.943   2.561   2.755 -0.3849  2.7522 -0.0764
   46SOL     OW  136   0.640   2.635   1.918 -0.4899  0.3033 -0.1146
   46SOL    HW1  137   0.631   2.716   1.981 -0.4582 -0.3651  0.6790
   46SOL    HW2  138   0.669   2.661   1.823  2.7055  0.1314 -1.8627
   47SOL     OW  139   0.617   1.881   0.591  0.1296  0.9327  0.6085
   47SOL    HW1  140   0.662   1.794   0.619 -0.5871  0.6651 -1.5946
   47SOL    HW2  141   0.528   1.861   0.546 -0.0878 -1.5599 -1.6843
   48SOL     OW  142   0.818   2.752   1.148 -0.0472 -0.3841 -0.7428
   48SOL    HW1  143   0.776   2.849   1.136 -1.6261  1.9710 -1.7405
   48SOL    HW2  144   0.757   2.676   1.179  4.2330  3.4452  1.2826
   49SOL     OW  145   3.044   2.922   2.770 -0.3220 -0.8904  0.5494
   49SOL    HW1  146   3.002   2.900   2.682  1.0149  0.0060 -1.0731
   49SOL    HW2  147   2.992   3.000   2.809  0.2185 -1.0826 -2.4688
   50SOL     OW  148   1.398   1.160   0.570 -0.6953 -0.7097  0.2466
   50SOL    HW1  149   1.318   1.099   0.592  1.5300 -2.1308 -1.5270
   50SOL    HW2  150   1.444   1.122   0.493 -0.2547  1.6690  1.4898
   51SOL     OW  151   2.257   3.046   0.627 -0.0096  0.1508  0.2008
   51SOL    HW1  152   2.286   2.995   0.544  1.3186  0.9331 -2.8311
   51SOL    HW2  153   2.189   3.115   0.599  1.6482 -3.1247  0.5252
   52SOL     OW  154   0.798   1.644   0.513 -0.0879  0.3128  0.3246
   52SOL    HW1  155   0.777   1.607   0.420 -0.3086 -1.5452  0.4666
   52SOL    HW2  156   0.893   1.629   0.536 -1.1713  1.8886 -1.4215
   53SOL     OW  157   0.180   1.353   2.818  0.2526 -1.2434 -0.4688
   53SOL    HW1  158   0.110   1.293   2.865 -1.9104  3.0587 -1.0825
   53SOL    HW2  159   0.257   1.393   2.868 -1.8264 -0.8404 -0.4653
   54SOL     OW  160   2.509   2.074   0.191  0.3434  0.6629  0.0842
   54SOL    HW1  161   2.567   2.039   0.267  0.8521  0.7274 -1.1119
   54SOL    HW2  162   2.413   2.056   0.214 -0.6594  1.7671  1.2104
   55SOL     OW  163   2.534   2.324   1.346  0.0389  0.7364  0.6694
   55SOL    HW1  164   2.566   2.381   1.419  0.2258 -0.1325 -1.1557
   55SOL    HW2  165   2.445   2.280   1.364  1.1434 -1.2984  1.8590
   56SOL     OW  166   1.562   0.044   1.535  0.0290  0.1143  0.1676
   56SOL    HW1  167   1.508   0.021   1.620 -0.6474 -0.0939 -0.0268
   56SOL    HW2  168   1.658   0.013   1.536 -0.5041  4.5705  1.0126
   57SOL     OW  169   1.691   1.813   0.967 -0.1603 -0.0880 -0.0312
   57SOL    HW1  170   1.693   1.874   1.053  0.7876  2.1532  1.4229
   57SOL    HW2  171   1.615   1.842   0.904  0.2677  3.2556 -1.8176
   58SOL     OW  172   2.562   0.264   1.847  0.4528  0.2150 -0.1693
   58SOL    HW1  173   2.581   0.350   1.895 -0.5886 -2.5620 -3.9276
   58SOL    HW2  174   2.466   0.236   1.858  0.9811  0.0954  1.3849
   59SOL     OW  175   1.117   2.522   2.191 -0.3666  0.6051 -0.1684
   59SOL    HW1  176   1.120   2.555   2.285 -1.3001 -0.8209 -2.4887
   59SOL    HW2  177   1.024   2.534   2.147  3.4700 -0.1207  1.3217
   60SOL     OW  178   0.799   0.055   2.644 -0.1039 -0.3021  0.3123
   60SOL    HW1  179   0.770   0.106   2.559  1.2881  0.4215 -0.0606
   60SOL    HW2  180   0.793   0.120   2.725 -0.3129  1.4679 -0.6299
   61SOL     OW  181   0.733   2.155   0.616 -0.1296 -0.4180 -0.0604
   61SOL    HW1  182   0.837   2.147   0.617  1.4141 -2.9623  0.8777
   61SOL    HW2  183   0.698   2.068   0.580 -0.1267  1.1122 -0.4232
   62SOL     OW  184   1.185   1.689   2.139  0.0082 -0.4707 -0.0438
   62SOL    HW1  185   1.095   1.740   2.123  2.1613  2.3130 -0.9657
   62SOL    HW2  186   1.189   1.659   2.237 -1.5893 -1.2630  0.0790
   63SOL     OW  187   0.921   1.677   0.860 -0.0554  0.5007  0.0180
   63SOL    HW1  188   0.984   1.697   0.941  2.3074  2.3301  1.3454
   63SOL    HW2  189   0.985   1.660   0.779  0.3317 -0.7712 -0.6851
   64SOL     OW  190   1.472   1.466   2.922 -0.5008 -0.0686  0.1461
   64SOL    HW1  191   1.414   1.541   2.896  0.1822 -2.4772  0.6474
   64SOL    HW2  192   1.430   1.373   2.915 -1.3064 -1.0098  1.3543
   65SOL     OW  193   1.525   2.199   2.366 -0.8680  0.2505 -0.3168
   65SOL    HW1  194   1.510   2.120   2.308  2.4007 -1.9105 -0.1399
   65SOL    HW2  195   1.618   2.197   2.409  2.0488 -2.0158  0.0405
   66SOL     OW  196   0.063   0.951   1.015  0.0627 -0.1485  0.3177
   66SOL    HW1  197   0.164   0.959   1.004 -1.4613 -1.5368 -3.6688
   66SOL    HW2  198   0.019   0.972   0.924  0.1528 -0.0247 -0.0894
   67SOL     OW  199   2.239   2.612   0.371 -0.2024 -0.4736 -0.3061
   67SOL    HW1  200   2.146   2.593   0.401  2.2867  0.6048 -0.2612
   67SOL    HW2  201   2.288   2.535   0.326  1.2854  0.3038 -3.8391
   68SOL     OW  202   2.620   2.513   1.553  0.2108  0.9486 -0.1820
   68SOL    HW1  203   2.625   2.592   1.488 -0.0593 -0.5101  1.4249
   68SOL    HW2  204   2.603   2.543   1.649  0.7531 -0.0956 -0.2794
   69SOL     OW  205   2.644   2.577   2.734  0.1519  0.2455 -0.3413
   69SOL    HW1  206   2.666   2.507   2.668 -0.0201  1.3640  0.6338
   69SOL    HW2  207   2.607   2.665   2.694 -0.4292 -0.2788  0.6207
   70SOL     OW  208   0.489   1.390   2.601 -0.1281  0.1894  0.1033
   70SOL    HW1  209   0.544   1.350   2.521  0.1622 -1.2517 -4.3231
   70SOL    HW2  210   0.387   1.386   2.580 -2.5961  0.3688 -0.7972
   71SOL     OW  211   0.967   1.198   1.996 -0.1758 -0.2109 -0.0372
   71SOL    HW1  212   0.879   1.153   1.984  1.8354  0.9312  0.8597
   71SOL    HW2  213   0.993   1.258   1.918  0.8223 -0.8371 -0.0782
   72SOL     OW  214   2.474   1.439   2.000 -0.3200 -0.2401  0.0789
   72SOL    HW1  215   2.462   1.502   2.079 -0.1909  1.6079 -2.3591
   72SOL    HW2  216   2.572   1.409   1.996 -1.4154  3.0512 -1.5305
   73SOL     OW  217   0.525   2.018   3.038 -0.2145  0.2243 -0.4190
   73SOL    HW1  218   0.513   2.039   2.937 -1.1367 -1.1812 -2.2610
   73SOL    HW2  219   0.536   1.916   3.055  0.6400  0.4893  0.2734
   74SOL     OW  220   1.467   2.872   1.768 -0.0764  0.3822 -0.2900
   74SOL    HW1  221   1.442   2.819   1.854 -1.0901  0.4275  2.1212
   74SOL    HW2  222   1.550   2.841   1.719 -0.2580  1.8165 -1.5076
   75SOL     OW  223   0.972   2.787   0.630  0.0278  0.3820 -0.1165
   75SOL    HW1  224   1.037   2.766   0.709 -0.2763 -2.7320  1.4937
   75SOL    HW2  225   1.004   2.866   0.578  2.2896 -0.6685  3.4250
   76SOL     OW  226   0.106   1.682   2.734 -0.2416  0.0341  0.1233
   76SOL    HW1  227   0.159   1.614   2.781 -1.9297  1.3757  0.0281
   76SOL    HW2  228   0.024   1.702   2.789  1.7129 -0.7672  0.4919
   77SOL     OW  229   0.351   2.450   1.402  0.5338  0.0170  0.8754
   77SOL    HW1  230   0.377   2.535   1.353  2.2313  0.4145 -2.4482
   77SOL    HW2  231   0.364   2.461   1.501  1.2689 -0.7331 -1.4366
   78SOL     OW  232   2.527   1.125   0.260  0.3096 -0.2580  0.2429
   78SOL    HW1  233   2.597   1.109   0.187 -2.2885  0.9331 -1.7862
   78SOL    HW2  234   2.557   1.207   0.313  2.3846  0.0777 -1.1939
   79SOL     OW  235   0.538   1.735   3.032 -0.0761  0.4931 -0.1166
   79SOL    HW1  236   0.452   1.680   3.043 -1.1392  0.7249  0.9578
   79SOL    HW2  237   0.579   1.711   2.944 -0.3584  2.9970  3.3918
   80SOL     OW  238   1.601   1.764   1.395  0.7058  0.3826  0.0595
   80SOL    HW1  239   1.586   1.769   1.496 -0.1427  1.8339 -0.0851
   80SOL    HW2  240   1.643   1.671   1.373  2.2884  0.2608 -1.5113
   81SOL     OW  241   2.143   0.951   2.287  0.4068  0.5411 -0.3464
   81SOL    HW1  242   2.172   0.863   2.247  0.3342 -0.4140 -2.4489
   81SOL    HW2  243   2.043   0.969   2.268 -0.6808 -1.1017 -1.7781
   82SOL     OW  244   1.563   1.407   1.493 -0.2447 -0.1432 -0.4608
   82SOL    HW1  245   1.516   1.410   1.404  1.2386 -1.2608  2.9697
   82SOL    HW2  246   1.512   1.463   1.558  0.3581 -0.1514 -0.7662
   83SOL     OW  247   0.185   0.368   3.116 -0.0167 -0.1172  0.4476
   83SOL    HW1  248   0.156   0.284   3.060 -2.4891 -1.0897  0.4739
   83SOL    HW2  249   0.288   0.374   0.004  0.0035  2.4457 -1.5839
   84SOL     OW  250   0.552   1.360   0.270  0.4045  0.4750  0.6335
   84SOL    HW1  251   0.560   1.339   0.170 -3.2002  0.6288 -1.3008
   84SOL    HW2  252   0.501   1.448   0.279 -0.0926  0.3888  0.8574
   85SOL     OW  253   2.192   1.762   1.786  0.3514 -0.0222  0.0208
   85SOL    HW1  254   2.230   1.676   1.752  0.9663 -1.5283 -1.3481
   85SOL    HW2  255   2.259   1.836   1.762 -0.1674 -0.0416  1.0768
   86SOL     OW  256   0.513   0.779   1.092 -0.5143 -0.2995  0.0576
   86SOL    HW1  257   0.614   0.784   1.084 -1.5217  3.6867  1.7310
   86SOL    HW2  258   0.477   0.692   1.124 -1.6879  1.3482  0.4973
   87SOL     OW  259   2.723   2.134   2.674 -0.4502  0.2407 -0.0002
   87SOL    HW1  260   2.814   2.177   2.666  0.4424 -0.4620 -0.0077
   87SOL    HW2  261   2.664   2.183   2.609  0.9225 -0.1487  0.9525
   88SOL     OW  262   0.215   2.845   3.101 -0.0301 -0.4068  0.0724
   88SOL    HW1  263   0.267   2.866   0.059 -0.7175  0.1604  0.9200
   88SOL    HW2  264   0.229   2.915   3.027 -0.7081  0.4343 -0.1435
   89SOL     OW  265   1.322   0.381   0.273  0.5320  0.0255  0.6534
   89SOL    HW1  266   1.287   0.396   0.176  1.1975  0.8721 -1.0852
   89SOL    HW2  267   1.380   0.461   0.311  0.4965  1.9287  2.0127
   90SOL     OW  268   2.988   1.617   2.495 -0.0886 -0.8389  0.0777
   90SOL    HW1  269   2.934   1.608   2.580  0.4774 -0.7046 -0.0416
   90SOL    HW2  270   3.030   1.529   2.470 -1.3879  1.6623  0.5829
   91SOL     OW  271   2.221   2.881   1.229  0.0731 -0.1230 -0.3458
   91SOL    HW1  272   2.289   2.949   1.272  1.6081  0.5377  1.1488
   91SOL    HW2  273   2.154   2.922   1.165 -2.1482 -1.7754 -1.2388
   92SOL     OW  274   2.010   1.303   1.004 -0.0071  0.1512 -0.5755
   92SOL    HW1  275   2.066   1.286   0.925 -2.0625  2.0297 -1.8169
   92SOL    HW2  276   2.069   1.310   1.089 -1.3007 -0.8484 -0.3293
   93SOL     OW  277   0.189   1.343   0.317 -0.8340  0.2270 -0.1875
   93SOL    HW1  278   0.263   1.324   0.253 -1.9784 -0.2150 -0.6953
   93SOL    HW2  279   0.148   1.257   0.347 -3.7583  0.7279 -1.3102
   94SOL     OW  280   1.220   2.374   1.517 -0.0240  0.5448 -0.0425
   94SOL    HW1  281   1.307   2.430   1.537  1.6468 -1.5564 -0.5963
   94SOL    HW2  282   1.168   2.364   1.603 -0.9439  2.9881  0.6780
   95SOL     OW  283   0.108   0.727   0.486  0.5588  0.4629 -0.0830
   95SOL    HW1  284   0.197   0.774   0.490 -0.7808  0.2711  0.5421
   95SOL    HW2  285   0.078   0.684   0.571 -0.7548  0.1956 -1.9911
   96SOL     OW  286   0.329   3.102   1.602  0.3953 -0.0785  0.0928
   96SOL    HW1  287   0.300   3.007   1.621  1.0016  1.3744 -2.5915
   96SOL    HW2  288   0.424   3.104   1.565 -0.8853 -0.1362  2.4793
   97SOL     OW  289   2.331   0.347   0.866  0.4038  0.0905 -0.0100
   97SOL    HW1  290   2.375   0.354   0.773  1.2713  0.1972 -0.1545
   97SOL    HW2  291   2.386   0.397   0.935 -0.3802 -1.4549 -1.4949
   98SOL     OW  292   2.809   2.294   1.750 -0.4653  0.0921  0.3520
   98SOL    HW1  293   2.804   2.365   1.820  0.6516 -0.8859 -1.7118
   98SOL    HW2  294   2.829   2.329   1.658 -1.2280  0.4833  1.7996
   99SOL     OW  295   2.986   0.318   1.531 -0.0227  0.0039 -0.0667
   99SOL    HW1  296   3.009   0.220   1.565 -1.5284 -1.7611 -0.7777
   99SOL    HW2  297   2.956   0.376   1.608  1.4786  0.7410 -1.5187
  100SOL     OW  298   1.974   0.376   2.710 -0.3940  0.0694  0.2162
  100SOL    HW1  299   2.030   0.459   2.720 -0.6083 -0.9635  0.0005
  100SOL    HW2  300   1.902   0.387   2.639 -0.5234  2.2905 -1.1169
  101SOL     OW  301   0.767   2.953   2.293  0.3192  0.7222  0.1648
  101SOL    HW1  302   0.824   2.892   2.234 -0.3944 -0.7350 -1.2958
  101SOL    HW2  303   0.750   2.921   2.388 -0.0802 -0.8723 -0.1355
  102SOL     OW  304   0.890   0.368   1.571  0.7842  0.2631  0.0702
  102SOL    HW1  305   0.857   0.304   1.498 -0.5267  1.6711  0.4043
  102SOL    HW2  306   0.902   0.462   1.532 -2.4511  1.2959 -1.2434
  103SOL     OW  307   1.127   0.902   2.579  0.0174 -0.1924  0.5794
  103SOL    HW1  308   1.188   0.828   2.556  1.0396  1.0372  0.6472
  103SOL    HW2  309   1.137   0.983   2.515  0.0819 -0.2732 -0.3368
  104SOL     OW  310   0.249   0.390   1.849  0.2773  0.0277 -0.0608
  104SOL    HW1  311   0.258   0.492   1.863  0.4106  0.6283 -1.3301
  104SOL    HW2  312   0.325   0.348   1.902 -2.1500 -0.0780 -0.6626
  105SOL     OW  313   2.429   1.998   1.697 -0.0757 -0.6284  0.0750
  105SOL    HW1  314   2.531   2.001   1.670  5.8849  1.8708  0.2469
  105SOL    HW2  315   2.414   2.008   1.795 -0.2068  0.0315  0.7477
  106SOL     OW  316   1.039   3.017   0.481 -0.3970 -0.3844  0.3874
  106SOL    HW1  317   1.038   2.996   0.377  2.7111 -0.0808 -1.2505
  106SOL    HW2  318   1.134   3.052   0.505 -0.2632 -0.3582  1.2919
  107SOL     OW  319   2.526   1.948   1.240 -0.2890  0.2503  0.2877
  107SOL    HW1  320   2.481   2.015   1.304  1.5028 -0.7114 -1.3740
  107SOL    HW2  321   2.541   1.985   1.147  0.6466  1.0784 -1.5261
  108SOL     OW  322   0.079   2.251   0.529  0.2923 -0.3580  0.3985
  108SOL    HW1  323   0.157   2.193   0.497  0.9652 -0.4921  1.4546
  108SOL    HW2  324   0.089   2.269   0.632 -2.5697  0.9332  1.2993
  109SOL     OW  325   1.562   3.029   0.590  0.1580 -0.7818  0.1528
  109SOL    HW1  326   1.593   2.973   0.515 -0.2178  0.9216 -0.4010
  109SOL    HW2  327   1.646   3.070   0.627  0.3593  0.0141 -0.5387
  110SOL     OW  328   1.760   1.368   1.082 -0.6250 -0.3772  0.2308
  110SOL    HW1  329   1.856   1.348   1.050 -0.4830  1.2866  1.2581
  110SOL    HW2  330   1.716   1.434   1.016 -1.0045 -3.3253 -1.8729
  111SOL     OW  331   1.665   2.406   1.880  0.5652  0.4703 -0.2308
  111SOL    HW1  332   1.567   2.392   1.874  2.5872 -0.4049 -0.1246
  111SOL    HW2  333   1.712   2.315   1.877 -1.5910  0.8548  0.0774
  112SOL     OW  334   1.953   2.233   2.836 -0.0899 -0.0266 -0.5598
  112SOL    HW1  335   2.022   2.302   2.806 -0.5811  1.0644 -1.1776
  112SOL    HW2  336   1.972   2.191   2.928 -0.8376 -0.2066 -0.7112
  113SOL     OW  337   1.891   1.680   1.669  0.0784 -0.8205 -0.1048
  113SOL    HW1  338   1.943   1.601   1.706  0.7477  2.7267  0.4291
  113SOL    HW2  339   1.943   1.767   1.672  0.6526  1.1197  0.9600
  114SOL     OW  340   0.165   1.100   1.377  0.0097  0.5046 -0.0138
  114SOL    HW1  341   0.075   1.127   1.344  1.7922 -1.2162  1.4568
  114SOL    HW2  342   0.224   1.182   1.394  0.9292 -0.2067  0.6456
  115SOL     OW  343   2.811   0.820   2.858 -0.1512  0.1652  0.6032
  115SOL    HW1  344   2.880   0.827   2.782  2.9816 -1.0533 -1.1147
  115SOL    HW2  345   2.770   0.909   2.884 -1.6930  3.0431 -2.9727
  116SOL     OW  346   2.791   0.354   2.680  0.4758 -0.4874  0.0904
  116SOL    HW1  347   2.762   0.408   2.758  2.8118 -1.0881 -2.5982
  116SOL    HW2  348   2.758   0.400   2.597 -0.3517  0.4504  0.9891
  117SOL     OW  349   2.655   2.870   0.121 -0.5041 -0.2052  0.6302
  117SOL    HW1  350   2.731   2.804   0.107  0.8738 -2.5216 -0.9643
  117SOL    HW2  351   2.582   2.815   0.163 -1.6337 -0.6892 -1.0251
  118SOL     OW  352   0.412   2.205   2.402 -0.2391 -0.0226 -0.1291
  118SOL    HW1  353   0.420   2.201   2.503 -0.2760  0.1790  0.9327
  118SOL    HW2  354   0.316   2.231   2.379 -3.0099  1.2253  0.8199
  119SOL     OW  355   0.782   2.771   0.397  0.0936 -0.7365 -0.1242
  119SOL    HW1  356   0.729   2.687   0.427 -0.9134  1.1910  1.3666
  119SOL    HW2  357   0.834   2.797   0.479  0.2882 -1.1322 -3.2590
  120SOL     OW  358   1.429   0.830   0.403 -0.2906 -0.0544 -0.6110
  120SOL    HW1  359   1.408   0.814   0.501  2.1327 -0.6088 -1.4959
  120SOL    HW2  360   1.513   0.892   0.387  3.0790  1.3742 -1.0423
  121SOL     OW  361   1.733   0.363   0.715  0.2360  0.3728 -0.1893
  121SOL    HW1  362   1.764   0.331   0.804 -0.9128 -0.5486 -2.0745
  121SOL    HW2  363   1.645   0.318   0.696  1.0965  0.5874  0.7548
  122SOL     OW  364   2.138   1.542   2.320 -0.1701  0.1751 -0.2924
  122SOL    HW1  365   2.137   1.577   2.226  1.3740 -0.8065  2.8560
  122SOL    HW2  366   2.215   1.475   2.335  1.4384  0.8632 -0.0784
  123SOL     OW  367   1.090   1.058   0.917 -0.5981  0.2959  0.3784
  123SOL    HW1  368   1.184   1.033   0.893 -1.8835 -3.0280 -0.6299
  123SOL    HW2  369   1.063   1.013   1.006 -1.2201  0.3557  1.1288
  124SOL     OW  370   0.656   0.697   2.906  0.0861  0.0375 -0.2221
  124SOL    HW1  371   0.686   0.648   2.820 -0.1391  1.0289 -1.0017
  124SOL    HW2  372   0.731   0.762   2.937  2.5679  1.3871 -0.3319
  125SOL     OW  373   0.839   0.408   0.060  0.4535 -0.2130  0.0680
  125SOL    HW1  374   0.909   0.346   0.027 -5.2176  3.6471 -0.1230
  125SOL    HW2  375   0.800   0.363   0.142  2.0369 -0.0270 -2.1241
  126SOL     OW  376   0.343   1.732   0.496  0.2334  0.5824 -0.0530
  126SOL    HW1  377   0.242   1.746   0.497  2.0598 -0.5273  0.5576
  126SOL    HW2  378   0.370   1.708   0.594  0.5929 -0.0200  3.4436
  127SOL     OW  379   0.965   2.576   1.818  0.2643  0.0189  0.4181
  127SOL    HW1  380   0.891   2.620   1.763 -0.2737 -1.0243  0.7278
  127SOL    HW2  381   1.049   2.626   1.794 -1.7447 -1.1330  0.3117
  128SOL     OW  382   1.110   1.777   0.358  0.4228  0.0433 -0.3208
  128SOL    HW1  383   1.111   1.723   0.268  0.4511  0.7424  0.2565
  128SOL    HW2  384   1.058   1.868   0.347 -2.0256 -0.9946 -0.2685
  129SOL     OW  385   1.599   1.408   1.889  0.1457 -0.3554  0.0464
  129SOL    HW1  386   1.613   1.493   1.839  1.7920 -0.8594 -0.3197
  129SOL    HW2  387   1.682   1.358   1.907  1.0845 -0.6063 -0.3969
  130SOL     OW  388   2.001   1.923   1.535  0.1972  0.1137  0.5375
  130SOL    HW1  389   2.103   1.924   1.515  4.0261  1.6705 -2.1918
  130SOL    HW2  390   1.953   1.881   1.455 -0.6733 -1.1482  2.0591
  131SOL     OW  391   0.287   2.450   1.979  0.1760  0.3887  0.1123
  131SOL    HW1  392   0.279   2.522   2.051 -1.9399 -1.4341  0.5908
  131SOL    HW2  393   0.197   2.396   1.981 -0.2059  1.1878 -1.0400
  132SOL     OW  394   2.598   1.812   0.776 -0.1750 -0.0991  0.0217
  132SOL    HW1  395   2.552   1.717   0.765  0.9949 -0.0981 -0.2396
  132SOL    HW2  396   2.697   1.800   0.797 -1.5505 -1.7198 -1.6277
  133SOL     OW  397   0.635   0.880   1.644  0.2520  0.3081  0.5795
  133SOL    HW1  398   0.704   0.950   1.653 -0.1857  0.2088  0.7744
  133SOL    HW2  399   0.643   0.807   1.716 -1.7915 -0.1560 -0.1353
  134SOL     OW  400   2.680   1.360   0.412  0.2345 -0.0538 -0.8381
  134SOL    HW1  401   2.779   1.341   0.408 -1.6322  1.5953 -2.4682
  134SOL    HW2  402   2.666   1.462   0.402 -0.5110  1.4991  0.2567
  135SOL     OW  403   1.871   1.018   2.719  0.0297  0.0826 -0.1389
  135SOL    HW1  404   1.814   1.099   2.739  1.9960 -1.2730  0.4609
  135SOL    HW2  405   1.853   0.934   2.777 -1.0760 -2.6501 -0.8994
  136SOL     OW  406   2.887   1.623   1.246 -0.8041 -0.1911 -0.2484
  136SOL    HW1  407   2.958   1.563   1.283 -0.6272  3.2501 -2.4045
  136SOL    HW2  408   2.844   1.676   1.321  0.7899 -1.5493 -1.1397
  137SOL     OW  409   2.308   1.834   0.481  0.8309  0.4373 -0.2312
  137SOL    HW1  410   2.295   1.738   0.515 -0.4034  2.3882  1.3157
  137SOL    HW2  411   2.411   1.847   0.479  1.9584 -0.0777 -1.3388
  138SOL     OW  412   2.648   0.787   0.547  0.2438 -0.2143  0.5778
  138SOL    HW1  413   2.737   0.736   0.531  2.9382 -1.7136 -0.2685
  138SOL    HW2  414   2.601   0.808   0.459 -1.5274  1.3311  0.3643
  139SOL     OW  415   2.981   3.119   2.939 -0.0630  0.0633  0.6616
  139SOL    HW1  416   2.967   3.090   3.035 -1.7051  0.3486 -0.6180
  139SOL    HW2  417   2.895   0.021   2.897 -0.2959  2.0390 -1.4264
  140SOL     OW  418   0.796   1.112   1.668 -0.3422  0.0364  0.3394
  140SOL    HW1  419   0.767   1.110   1.768  0.2097 -1.8072  2.3716
  140SOL    HW2  420   0.788   1.201   1.618  0.5617  1.5537 -4.8810
  141SOL     OW  421   1.387   1.493   0.942  0.4628  0.4089  0.4750
  141SOL    HW1  422   1.307   1.429   0.948  2.5310  0.4800 -0.0114
  141SOL    HW2  423   1.374   1.590   0.968  1.6211 -1.5988  0.9191
  142SOL     OW  424   1.546   0.883   1.066  0.2126  0.1072 -0.9056
  142SOL    HW1  425   1.639   0.875   1.029  0.6250  0.9089  3.2220
  142SOL    HW2  426   1.540   0.868   1.167 -1.6866  2.2322 -1.0992
  143SOL     OW  427   0.672   1.085   2.689 -0.2216 -0.3252 -0.2564
  143SOL    HW1  428   0.696   1.178   2.727  0.4190  0.6082 -0.4770
  143SOL    HW2  429   0.580   1.095   2.645  0.3086  0.8201 -0.0923
  144SOL     OW  430   2.551   0.054   0.316 -0.2898 -0.0266 -0.0635
  144SOL    HW1  431   2.640   0.018   0.338 -1.1236 -0.6072 -0.2803
  144SOL    HW2  432   2.508   3.106   0.260 -0.3956 -2.4741  0.5255
  145SOL     OW  433   2.473   0.191   2.928 -0.4167  0.0988 -0.3515
  145SOL    HW1  434   2.414   0.167   3.010 -1.7149  0.0995 -1.0070
  145SOL    HW2  435   2.471   0.289   2.913 -1.8154  0.2613  1.7256
  146SOL     OW  436   0.036   3.077   0.352 -0.0574 -0.3767  0.5529
  146SOL    HW1  437   0.016   3.029   0.264 -1.0352  0.9686 -1.0953
  146SOL    HW2  438   3.109   0.041   0.348  2.3805 -2.6427  1.6462
  147SOL     OW  439   1.344   1.201   2.875  0.0997  1.0814 -0.0198
  147SOL    HW1  440   1.376   1.109   2.835  0.2256 -0.8504  1.6138
  147SOL    HW2  441   1.264   1.235   2.817 -1.0762  1.5542 -1.0150
  148SOL     OW  442   1.366   0.018   3.122 -0.1888 -0.3835 -0.1984
  148SOL    HW1  443   1.417   0.091   3.068 -1.3231  2.9729 -2.3511
  148SOL    HW2  444   1.336   3.064   3.065 -1.2436  0.9909 -1.4472
  149SOL     OW  445   1.647   0.506   1.995  0.1484 -0.0850 -0.2128
  149SOL    HW1  446   1.645   0.426   2.061  2.2911  1.6346  2.5382
  149SOL    HW2  447   1.720   0.563   2.031 -0.0631  1.0186 -0.9977
  150SOL     OW  448   1.897   3.083   2.816 -0.5157  0.1165 -0.1234
  150SOL    HW1  449   1.844   3.087   2.904  1.1161 -1.7454  0.1275
  150SOL    HW2  450   1.992   3.050   2.830 -0.1866  0.9377 -1.0507
  151SOL     OW  451   0.399   1.566   0.313  0.3713  0.6259  0.9393
  151SOL    HW1  452   0.338   1.567   0.228 -0.9761 -1.8526  1.6212
  151SOL    HW2  453   0.364   1.631   0.384 -0.9544 -0.6417 -0.4432
  152SOL     OW  454   0.474   0.524   1.252 -0.0571 -0.1968  0.2294
  152SOL    HW1  455   0.475   0.451   1.328  0.4342 -0.0779 -0.9949
  152SOL    HW2  456   0.564   0.518   1.203  2.4734 -0.5327 -1.1014
  153SOL     OW  457   2.494   2.921   2.059 -0.0380  0.4856 -0.2707
  153SOL    HW1  458   2.417   2.974   2.018 -0.1329 -0.4931 -2.6177
  153SOL    HW2  459   2.465   2.832   2.091 -0.3788  2.4893 -2.9457
  154SOL     OW  460   2.083   3.010   2.190 -0.1097 -0.7079 -0.0914
  154SOL    HW1  461   2.003   3.057   2.148 -2.4372  1.2073 -2.6124
  154SOL    HW2  462   2.130   2.950   2.125  0.3847 -1.0100  1.3069
  155SOL     OW  463   0.423   1.065   0.685 -0.3503 -0.3723  0.1966
  155SOL    HW1  464   0.343   1.099   0.736 -0.8404  1.1542  0.8505
  155SOL    HW2  465   0.508   1.071   0.740 -1.4516 -0.9562  0.4243
  156SOL     OW  466   2.270   1.579   0.572  0.2610  0.1646 -0.4250
  156SOL    HW1  467   2.327   1.495   0.579  0.8616  0.2250  0.2516
  156SOL    HW2  468   2.174   1.550   0.563 -3.2817  2.8769 -1.0559
  157SOL     OW  469   1.038   0.261   3.084 -0.2162  0.8200 -0.3231
  157SOL    HW1  470   1.047   0.187   3.016  0.2249 -2.5559 -0.9631
  157SOL    HW2  471   1.045   0.221   0.054  0.9879  0.3060 -0.8858
  158SOL     OW  472   1.722   0.984   1.457  0.2213  0.8293  0.0918
  158SOL    HW1  473   1.726   1.053   1.530  2.2909 -1.0058  1.4588
  158SOL    HW2  474   1.753   1.027   1.371 -0.6828  2.7616  2.2135
  159SOL     OW  475   3.105   0.367   0.218  0.8367 -0.0290  0.0820
  159SOL    HW1  476   3.096   0.458   0.257 -1.4575 -0.1149  1.4663
  159SOL    HW2  477   0.040   0.378   0.134  0.1637  1.0877 -0.0094
  160SOL     OW  478   2.381   2.021   1.975 -0.5586  0.2153 -0.0241
  160SOL    HW1  479   2.339   1.975   2.055  0.4259 -1.5462 -2.8525
  160SOL    HW2  480   2.348   2.119   1.978 -1.3463  1.3389  0.8081
  161SOL     OW  481   0.456   0.854   3.021  0.7431  0.5820 -0.2707
  161SOL    HW1  482   0.519   0.788   2.973 -1.2439  1.1638 -1.5456
  161SOL    HW2  483   0.363   0.852   2.975 -1.3117  0.0113  0.8719
  162SOL     OW  484   0.685   0.399   1.800 -0.9535  0.3311  0.5843
  162SOL    HW1  485   0.714   0.352   1.714 -1.6923  0.2913 -0.7772
  162SOL    HW2  486   0.682   0.501   1.784  3.0587 -0.1550 -1.1642
  163SOL     OW  487   2.604   0.161   2.359  0.1978  0.3328 -0.4990
  163SOL    HW1  488   2.549   0.103   2.429  0.8239 -1.9640  3.0729
  163SOL    HW2  489   2.705   0.151   2.370 -1.8019 -1.1811 -1.2168
  164SOL     OW  490   2.248   2.007   0.257 -0.3833 -0.2571 -0.2140
  164SOL    HW1  491   2.179   1.961   0.192 -2.6780 -1.7691 -0.9044
  164SOL    HW2  492   2.267   1.941   0.337  1.6336  1.1129  2.5043
  165SOL     OW  493   0.267   0.112   1.034 -0.6914 -0.4595 -0.0722
  165SOL    HW1  494   0.242   0.183   0.967 -0.8384 -1.8165  0.2698
  165SOL    HW2  495   0.355   0.139   1.075 -0.0952 -0.7648 -1.8174
  166SOL     OW  496   2.795   0.206   0.006 -0.0204  0.3199 -0.3551
  166SOL    HW1  497   2.795   0.177   3.034 -2.3407 -0.0045 -0.2692
  166SOL    HW2  498   2.840   0.132   0.066  0.0572 -1.1552 -0.2944
  167SOL     OW  499   2.295   0.708   0.128 -0.7332 -0.4064 -0.0285
  167SOL    HW1  500   2.267   0.801   0.165 -1.3592  0.6530 -0.0940
  167SOL    HW2  501   2.344   0.723   0.040 -3.4247 -1.0591 -1.0094
  168SOL     OW  502   1.455   2.922   2.189 -0.2599 -0.3636 -0.4074
  168SOL    HW1  503   1.367   2.886   2.227 -0.0034 -1.4875 -0.2308
  168SOL    HW2  504   1.467   3.015   2.225  3.3537 -1.0523  0.5093
  169SOL     OW  505   0.306   1.946   0.711  0.2538 -0.2947 -0.0520
  169SOL    HW1  506   0.236   1.882   0.673 -1.1396 -0.5533  0.5190
  169SOL    HW2  507   0.277   1.972   0.806 -1.8274 -1.3770  2.5442
  170SOL     OW  508   0.105   0.445   1.482 -0.8246 -0.4326 -0.9067
  170SOL    HW1  509   0.173   0.386   1.529  3.0621 -2.5871  2.8508
  170SOL    HW2  510   0.014   0.403   1.502 -1.7383 -0.0961 -0.3000
  171SOL     OW  511   2.653   1.427   2.511 -0.1506 -0.3219  0.1593
  171SOL    HW1  512   2.680   1.388   2.418 -1.0235 -0.9435  1.1334
  171SOL    HW2  513   2.553   1.456   2.525 -0.7964  1.1513  1.3331
  172SOL     OW  514   0.644   1.539   1.206  0.0545  0.1589 -0.4985
  172SOL    HW1  515   0.647   1.483   1.125  0.5971 -1.9057 -1.1164
  172SOL    HW2  516   0.741   1.555   1.228  1.0559  1.5735 -1.4343
  173SOL     OW  517   2.014   2.129   3.083 -0.3161  0.3587 -0.0362
  173SOL    HW1  518   2.028   2.037   3.042 -3.9222  0.1881  0.9210
  173SOL    HW2  519   1.991   2.120   0.052  1.5379  1.6049 -0.9246
  174SOL     OW  520   1.831   0.558   3.037  0.2089 -0.2536  0.4103
  174SOL    HW1  521   1.747   0.595   2.987 -1.3899  0.9050 -1.6694
  174SOL    HW2  522   1.794   0.529   0.005 -2.3018  0.6949  0.7203
  175SOL     OW  523   0.616   1.795   1.780  0.4018  0.3672 -0.3393
  175SOL    HW1  524   0.718   1.786   1.770 -3.4266  0.5872  2.0374
  175SOL    HW2  525   0.594   1.852   1.862  0.9655 -1.6203  0.5688
  176SOL     OW  526   0.740   0.264   0.278 -0.1426 -0.3128  0.2293
  176SOL    HW1  527   0.783   0.294   0.368  1.2211  0.9697 -0.1116
  176SOL    HW2  528   0.640   0.270   0.279  0.9292 -1.5243  0.0044
  177SOL     OW  529   0.061   1.597   0.339 -0.0883 -0.1818 -0.0612
  177SOL    HW1  530   0.123   1.517   0.337  1.7003 -0.6066 -1.7946
  177SOL    HW2  531   3.092   1.565   0.312  0.7854  2.0389  0.8888
  178SOL     OW  532   2.902   2.265   2.418 -0.0521 -0.0939 -0.2910
  178SOL    HW1  533   2.958   2.225   2.499  1.5211 -1.7800  1.3801
  178SOL    HW2  534   2.967   2.287   2.336  0.4936  1.4919  0.0473
  179SOL     OW  535   2.507   2.974   2.961 -0.1401 -0.3707 -0.0440
  179SOL    HW1  536   2.500   3.060   2.909 -0.7086  0.6155  0.3505
  179SOL    HW2  537   2.534   2.987   3.059 -2.6897  1.0223  1.1294
  180SOL     OW  538   2.464   0.726   0.737 -0.7538  0.4729  0.5453
  180SOL    HW1  539   2.370   0.708   0.701 -2.0479 -1.3369 -0.4169
  180SOL    HW2  540   2.535   0.744   0.667 -1.3589  0.0803 -0.8211
  181SOL     OW  541   0.037   0.025   2.493  0.0283 -0.4921  0.5525
  181SOL    HW1  542   3.094   3.121   2.422  0.2293  0.1049  0.3884
  181SOL    HW2  543   0.127   3.103   2.481  0.0346  1.2554  1.6468
  182SOL     OW  544   2.490   2.281   2.625 -0.4844  0.2678  0.2946
  182SOL    HW1  545   2.436   2.206   2.666 -1.1360  1.0932 -1.4077
  182SOL    HW2  546   2.431   2.360   2.591 -1.1042 -0.9772 -1.2329
  183SOL     OW  547   2.771   1.079   1.769 -0.5784  0.2389 -0.0789
  183SOL    HW1  548   2.690   1.026   1.805 -0.6234  0.7557 -2.0616
  183SOL    HW2  549   2.824   1.025   1.701 -0.7900 -0.3207 -1.3865
  184SOL     OW  550   2.806   1.481   0.743  0.5392  0.5184  0.6913
  184SOL    HW1  551   2.829   1.431   0.830  1.3413 -2.0152  0.7590
  184SOL    HW2  552   2.896   1.514   0.706  0.6018 -0.5503 -0.2084
  185SOL     OW  553   3.072   0.469   0.491  0.3264  0.0559 -0.3413
  185SOL    HW1  554   0.048   0.467   0.501 -1.1769  0.7293  0.5903
  185SOL    HW2  555   3.037   0.382   0.523  2.1348 -1.1507 -1.9590
  186SOL     OW  556   2.323   2.465   2.514 -0.5389  0.0860 -0.3381
  186SOL    HW1  557   2.325   2.532   2.589 -0.7292 -0.7721 -2.7501
  186SOL    HW2  558   2.234   2.462   2.471 -1.2872 -1.9469 -1.3044
  187SOL     OW  559   0.459   1.638   0.711 -0.0636  0.1166  0.4950
  187SOL    HW1  560   0.520   1.555   0.702  0.0057 -0.0665 -3.4334
  187SOL    HW2  561   0.503   1.705   0.775  0.0396 -1.9209 -0.9345
  188SOL     OW  562   1.806   1.805   0.550 -0.3172 -0.3239 -0.5284
  188SOL    HW1  563   1.804   1.709   0.581 -0.3440 -0.3890  0.5960
  188SOL    HW2  564   1.713   1.851   0.549  0.3405 -2.3213 -1.7644
  189SOL     OW  565   3.038   1.622   2.924  0.0296 -0.3536 -0.1636
  189SOL    HW1  566   3.001   1.598   2.834  1.9190  0.7829 -1.0716
  189SOL    HW2  567   3.009   1.549   2.996  1.2481  0.2473  0.8221
  190SOL     OW  568   2.476   0.399   2.218  0.4848  0.5006 -0.2026
  190SOL    HW1  569   2.392   0.407   2.281 -1.3356  1.1510  0.5154
  190SOL    HW2  570   2.534   0.325   2.254  0.7376 -3.3461 -0.4813
  191SOL     OW  571   0.981   0.880   2.208 -0.2437 -0.2712 -0.2914
  191SOL    HW1  572   1.002   0.950   2.277 -2.1354  0.4841  0.1333
  191SOL    HW2  573   1.027   0.894   2.118  1.5188 -0.5321  2.2388
  192SOL     OW  574   1.380   1.375   2.071 -0.3112 -0.5297  0.4612
  192SOL    HW1  575   1.466   1.395   2.020  0.3704  3.1653  0.0869
  192SOL    HW2  576   1.305   1.429   2.026  1.2731 -0.3280 -2.9559
  193SOL     OW  577   1.514   2.757   1.019 -0.2179 -0.3247  0.5094
  193SOL    HW1  578   1.453   2.736   1.097  0.9786 -1.6918  0.3414
  193SOL    HW2  579   1.500   2.852   0.986 -0.5435 -1.3704  0.4293
  194SOL     OW  580   1.459   1.702   2.120 -0.0474 -0.1624 -0.3908
  194SOL    HW1  581   1.498   1.637   2.190 -3.0507  0.9160  3.0830
  194SOL    HW2  582   1.358   1.686   2.104 -2.4434 -1.5814 -2.1689
  195SOL     OW  583   2.083   0.118   0.614 -0.3000 -0.2306 -0.2630
  195SOL    HW1  584   2.092   0.168   0.702  1.6994  0.8025  0.0624
  195SOL    HW2  585   2.044   0.177   0.547  1.7649 -1.2256  0.2451
  196SOL     OW  586   1.314   1.340   2.448  0.2523 -0.2085 -0.1863
  196SOL    HW1  587   1.253   1.345   2.527  2.4998  2.6495 -2.1241
  196SOL    HW2  588   1.361   1.250   2.434 -0.4687  2.5220 -2.1490
  197SOL     OW  589   0.411   0.282   2.023 -0.0615  0.0680  0.0857
  197SOL    HW1  590   0.483   0.277   2.100  0.9504 -0.2117  3.0081
  197SOL    HW2  591   0.423   0.198   1.968  3.1683  0.0820  0.2655
  198SOL     OW  592   0.148   1.240   1.027 -0.1214  0.0371 -0.6037
  198SOL    HW1  593   0.127   1.161   1.088  1.2055  0.3862  0.8585
  198SOL    HW2  594   0.156   1.217   0.925  1.0856 -1.6749 -1.3759
  199SOL     OW  595   0.353   2.213   0.944  0.2719  0.8863  0.4528
  199SOL    HW1  596   0.447   2.220   0.907  1.6890  1.8476 -1.1112
  199SOL    HW2  597   0.354   2.230   1.042  0.0874 -2.0291 -0.3291
  200SOL     OW  598   2.123   1.466   0.066 -0.6810  0.0264 -0.1613
  200SOL    HW1  599   2.124   1.530   0.146 -3.1029 -0.2470 -1.5448
  200SOL    HW2  600   2.212   1.438   0.037 -0.8390  2.7210 -0.3235
  201SOL     OW  601   0.575   2.104   1.354  0.5072 -0.2112  0.1921
  201SOL    HW1  602   0.658   2.051   1.380 -1.1060  1.3513 -0.3901
  201SOL    HW2  603   0.525   2.123   1.440  1.0930  0.5934 -1.5274
  202SOL     OW  604   1.110   2.311   0.113 -0.3096 -0.0262 -0.5211
  202SOL    HW1  605   1.019   2.358   0.133 -1.0966  2.1699 -1.7617
  202SOL    HW2  606   1.159   2.370   0.046 -0.6271  1.8581  1.7249
  203SOL     OW  607   1.718   0.358   2.221  0.5738 -0.4726 -0.0730
  203SOL    HW1  608   1.707   0.432   2.290 -3.4445  0.8536 -1.6835
  203SOL    HW2  609   1.729   0.268   2.262  2.8041 -0.0672  0.4492
  204SOL     OW  610   0.278   1.363   1.406 -0.1740  0.6621  0.4544
  204SOL    HW1  611   0.245   1.433   1.339 -0.1418 -0.4107  2.4298
  204SOL    HW2  612   0.380   1.373   1.417  0.2693 -0.2382 -0.1828
  205SOL     OW  613   2.321   1.244   2.565  0.5889  0.6300  0.5266
  205SOL    HW1  614   2.313   1.311   2.641  1.9297  1.8566  3.8342
  205SOL    HW2  615   2.258   1.161   2.581 -1.0623  3.0156 -0.6435
  206SOL     OW  616   0.046   2.035   2.465  0.2893 -0.1874  0.3141
  206SOL    HW1  617   3.098   2.077   2.530 -1.6276  0.4935 -0.7657
  206SOL    HW2  618   0.003   1.962   2.410 -1.0884  1.5757  0.0881
  207SOL     OW  619   0.805   3.031   1.806 -0.2958 -0.2061 -0.2473
  207SOL    HW1  620   0.894   2.979   1.816 -0.4141 -0.9812  1.4464
  207SOL    HW2  621   0.799   3.121   1.849  0.4788 -2.7455  0.7076
  208SOL     OW  622   0.782   2.298   1.579 -0.3437  0.0523  0.5448
  208SOL    HW1  623   0.702   2.258   1.627  3.9570  0.7692 -0.7348
  208SOL    HW2  624   0.807   2.242   1.501 -1.0796  1.7635  0.7472
  209SOL     OW  625   1.103   2.655   2.650 -0.5626  0.0704 -0.2399
  209SOL    HW1  626   1.051   2.698   2.573 -1.4005 -1.5899  1.1585
  209SOL    HW2  627   1.118   2.727   2.724  1.8944  2.9057 -0.5154
  210SOL     OW  628   2.746   1.442   2.036 -0.3034 -0.1780 -0.6568
  210SOL    HW1  629   2.810   1.395   1.976 -0.6715 -0.9051  1.3351
  210SOL    HW2  630   2.775   1.538   2.072 -1.1045  1.2363  0.9637
  211SOL     OW  631   1.139   0.095   2.019  0.4758  0.2568  0.2334
  211SOL    HW1  632   1.115   0.153   2.102 -1.0306  1.5929  2.2790
  211SOL    HW2  633   1.102   0.139   1.936 -2.8865 -2.2958  1.0058
  212SOL     OW  634   1.381   2.361   1.864 -0.0076  0.3408  0.1903
  212SOL    HW1  635   1.368   2.431   1.937  2.7098 -1.0226 -0.2766
  212SOL    HW2  636   1.309   2.293   1.879  0.6932  2.1621 -0.1963
  213SOL     OW  637   2.537   0.947   1.800 -0.2444  0.2674  0.0115
  213SOL    HW1  638   2.498   1.035   1.828 -0.4923  1.5541 -0.9824
  213SOL    HW2  639   2.506   0.932   1.704  0.8099  2.1035  1.5093
  214SOL     OW  640   0.958   1.731   1.518 -0.0090  0.2606  0.2207
  214SOL    HW1  641   1.052   1.759   1.494  0.6197  2.1355 -1.7947
  214SOL    HW2  642   0.933   1.758   1.615 -0.6105  0.2614 -2.7620
  215SOL     OW  643   2.493   2.319   1.057 -0.1211  0.2599  0.5883
  215SOL    HW1  644   2.398   2.281   1.036 -0.9001 -0.7846  0.8149
  215SOL    HW2  645   2.515   2.316   1.153  1.5587 -0.7378 -0.8399
  216SOL     OW  646   3.092   0.735   1.233 -0.0501 -0.2523 -0.0763
  216SOL    HW1  647   0.044   0.667   1.249  1.6236  0.8093 -0.3917
  216SOL    HW2  648   0.012   0.824   1.214  0.7891 -0.9352 -0.0032
  217SOL     OW  649   2.175   0.165   1.470 -0.3532 -0.2828  0.0456
  217SOL    HW1  650   2.253   0.191   1.411 -1.5922  0.2060  0.9252
  217SOL    HW2  651   2.119   0.100   1.417  2.7671 -0.8529 -1.7801
  218SOL     OW  652   1.687   2.548   1.039 -0.4635  0.3424 -0.5324
  218SOL    HW1  653   1.777   2.555   0.989  0.9954  1.9550  0.8889
  218SOL    HW2  654   1.622   2.629   1.033  0.0695 -2.5524  0.2107
  219SOL     OW  655   1.474   2.194   0.139  0.1810  0.1156  0.2258
  219SOL    HW1  656   1.493   2.272   0.073 -1.9599  1.8089 -2.4629
  219SOL    HW2  657   1.399   2.221   0.200  0.1554  1.8448 -2.8073
  220SOL     OW  658   1.787   2.435   2.935 -0.1047 -0.0665 -0.4705
  220SOL    HW1  659   1.746   2.494   2.861  3.8137 -2.3414  1.8985
  220SOL    HW2  660   1.833   2.357   2.902 -2.1340  1.7643  2.8169
  221SOL     OW  661   0.074   2.477   1.382 -0.4987  0.5321  0.4515
  221SOL    HW1  662   0.024   2.418   1.450 -2.2271  0.9382  0.7430
  221SOL    HW2  663   0.174   2.454   1.380 -3.8652  0.5366 -0.6228
  222SOL     OW  664   2.050   2.723   0.709  0.1445  0.1483 -0.0467
  222SOL    HW1  665   1.966   2.776   0.727 -1.2177 -0.4560 -1.6295
  222SOL    HW2  666   2.134   2.761   0.756  1.5932 -0.0087 -1.3716
  223SOL     OW  667   0.611   2.548   2.219  0.1081  0.1096 -0.0121
  223SOL    HW1  668   0.582   2.447   2.225  1.0475 -0.4647 -1.4824
  223SOL    HW2  669   0.667   2.560   2.135 -1.1559  0.7315  0.1913
  224SOL     OW  670   2.871   2.417   1.187  0.6537  0.0309 -0.6294
  224SOL    HW1  671   2.850   2.355   1.269  0.4825 -0.9797  1.9229
  224SOL    HW2  672   2.915   2.505   1.210 -0.3931 -0.6907  1.0502
  225SOL     OW  673   2.161   2.302   0.630 -0.5745  0.2103 -0.3909
  225SOL    HW1  674   2.201   2.365   0.704 -2.3262  0.6733  0.2899
  225SOL    HW2  675   2.174   2.201   0.647  0.1931 -0.8040 -1.7855
  226SOL     OW  676   1.160   2.593   0.438  0.1340  0.0780 -0.3757
  226SOL    HW1  677   1.174   2.509   0.495  1.9388 -2.1056 -0.4719
  226SOL    HW2  678   1.239   2.658   0.432  0.8164 -0.8385  1.0547
  227SOL     OW  679   1.836   0.944   0.987 -0.3170 -0.4399  0.0721
  227SOL    HW1  680   1.823   1.008   0.909 -0.1757  1.1093 -1.3809
  227SOL    HW2  681   1.925   0.899   0.968  0.3236  4.2013  0.9834
  228SOL     OW  682   1.104   0.619   2.215  1.0001 -0.0625 -0.7440
  228SOL    HW1  683   1.058   0.711   2.209  1.1130  3.2566 -0.0963
  228SOL    HW2  684   1.030   0.548   2.236 -3.4763 -1.8422 -1.9243
  229SOL     OW  685   0.038   1.083   2.947 -0.2652  0.0343  0.1142
  229SOL    HW1  686   3.058   1.083   2.939  0.2587 -0.5212 -0.5617
  229SOL    HW2  687   0.060   1.104   3.047  0.2116 -1.8075  3.1726
  230SOL     OW  688   0.770   1.280   1.105 -0.0349  0.0710  0.5146
  230SOL    HW1  689   0.761   1.180   1.122 -1.0041  2.4538 -0.3822
  230SOL    HW2  690   0.846   1.314   1.159 -3.7935 -1.1920  0.0597
  231SOL     OW  691   2.729   3.040   2.569 -0.5554 -0.6288  0.6390
  231SOL    HW1  692   2.802   3.112   2.587  2.4783 -2.5047 -0.6111
  231SOL    HW2  693   2.635   3.082   2.560 -1.8563  4.6315  0.7291
  232SOL     OW  694   0.235   2.457   0.150  0.1138  0.3271  0.4414
  232SOL    HW1  695   0.292   2.436   0.232  2.1569  1.9784 -2.1656
  232SOL    HW2  696   0.138   2.422   0.159 -1.6529 -3.8443 -1.6903
  233SOL     OW  697   1.074   2.218   2.399  0.0917  0.5908 -0.3100
  233SOL    HW1  698   1.035   2.306   2.376 -0.4758 -0.7543 -1.4310
  233SOL    HW2  699   1.162   2.222   2.445  0.6627 -0.2814 -1.9585
  234SOL     OW  700   1.194   1.502   1.947 -0.0755 -0.2998 -0.0775
  234SOL    HW1  701   1.109   1.486   1.895 -0.0356  0.2622 -0.9225
  234SOL    HW2  702   1.183   1.579   2.014  0.8763  1.1139  0.7404
  235SOL     OW  703   0.921   1.805   1.801 -0.5972 -0.5076 -0.1190
  235SOL    HW1  704   0.986   1.879   1.779  0.0946 -1.3606  0.1894
  235SOL    HW2  705   0.928   1.783   1.903  3.0537  0.6695  0.6932
  236SOL     OW  706   1.501   2.876   2.668 -0.4960  0.2795 -0.3717
  236SOL    HW1  707   1.557   2.918   2.744 -2.2043  2.9754 -0.8326
  236SOL    HW2  708   1.454   2.790   2.697  1.8449 -0.2468 -3.0782
  237SOL     OW  709   1.531   0.175   0.966  0.0313 -0.2168 -0.4531
  237SOL    HW1  710   1.513   0.096   1.030  0.0931  1.8197 -0.6961
  237SOL    HW2  711   1.634   0.186   0.958  4.3068 -0.0847  0.2531
  238SOL     OW  712   1.285   0.747   2.872 -0.1606  0.1600 -0.3375
  238SOL    HW1  713   1.261   0.735   2.774 -2.1467 -1.1320  0.0842
  238SOL    HW2  714   1.205   0.738   2.930  1.4267  0.5263  0.1238
  239SOL     OW  715   2.978   0.853   2.639 -0.2179  0.0161 -0.5453
  239SOL    HW1  716   3.014   0.942   2.601  0.5421  1.9822 -1.5533
  239SOL    HW2  717   2.919   0.803   2.572  1.5745 -2.8481 -0.5455
  240SOL     OW  718   2.279   2.835   0.786  0.2165 -0.7852 -0.1694
  240SOL    HW1  719   2.280   2.912   0.721 -0.0909 -1.1347 -0.6145
  240SOL    HW2  720   2.310   2.748   0.739 -1.7436  1.8259  0.8816
  241SOL     OW  721   1.507   1.196   1.264  0.1301  0.0960 -0.0984
  241SOL    HW1  722   1.471   1.295   1.270 -0.0298  1.5477  1.2494
  241SOL    HW2  723   1.477   1.159   1.172 -0.2490  0.4789 -2.1868
  242SOL     OW  724   0.718   0.849   0.744 -0.1702 -0.0272  0.6365
  242SOL    HW1  725   0.696   0.930   0.800  0.9947 -0.5787 -0.4417
  242SOL    HW2  726   0.636   0.796   0.711 -2.7780  0.9565 -0.5202
  243SOL     OW  727   0.086   0.535   0.978  0.1600 -0.2691 -0.1089
  243SOL    HW1  728   0.094   0.539   1.079  1.2461 -0.3390  0.4250
  243SOL    HW2  729   0.150   0.470   0.930  1.2580 -0.0888 -2.6171
  244SOL     OW  730   1.051   0.149   0.207  0.1425  0.2526  0.1557
  244SOL    HW1  731   1.071   0.048   0.205  1.5750 -2.6508 -2.6536
  244SOL    HW2  732   1.093   0.196   0.286 -2.5578  2.0748 -0.6190
  245SOL     OW  733   2.154   0.937   0.242 -0.1128 -0.4539  0.1269
  245SOL    HW1  734   2.064   0.928   0.194  0.6902  1.2994 -3.0191
  245SOL    HW2  735   2.176   1.035   0.252  0.9027  1.0728  2.5954
  246SOL     OW  736   0.071   0.686   1.675  0.1904  0.1694  0.0009
  246SOL    HW1  737   0.119   0.772   1.648  1.5879  1.5530 -0.2619
  246SOL    HW2  738   0.126   0.606   1.647 -2.1633 -1.3337 -0.6338
  247SOL     OW  739   0.619   2.871   2.035 -0.5221 -0.3195  0.1059
  247SOL    HW1  740   0.630   2.948   1.967 -1.0398 -0.5106 -1.0883
  247SOL    HW2  741   0.707   2.856   2.083  3.1513  2.4288 -3.1525
  248SOL     OW  742   0.621   1.328   2.379 -0.0568 -0.0265  0.7342
  248SOL    HW1  743   0.720   1.340   2.400  0.6779  0.6262  0.0423
  248SOL    HW2  744   0.607   1.244   2.317 -0.0358 -0.6700 -3.4382
  249SOL     OW  745   0.646   2.977   2.918  0.2186  0.1822  0.2127
  249SOL    HW1  746   0.590   2.919   2.977 -0.6680  1.0920  1.7296
  249SOL    HW2  747   0.730   2.924   2.890  2.4090 -0.7040  0.9139
  250SOL     OW  748   0.351   0.332   2.562  0.3022 -0.4051  0.0453
  250SOL    HW1  749   0.409   0.252   2.587  0.8653  0.6527  0.5604
  250SOL    HW2  750   0.281   0.314   2.489 -3.4947  0.2623  1.8955
  251SOL     OW  751   3.037   1.697   0.995  0.6002 -0.3350 -0.1294
  251SOL    HW1  752   3.041   1.601   1.034  1.2405 -0.3012  0.7123
  251SOL    HW2  753   3.039   1.759   1.072  0.0410 -1.3783  0.1947
  252SOL     OW  754   1.849   2.861   1.925 -0.1018  0.2095 -0.1013
  252SOL    HW1  755   1.798   2.808   1.855 -0.8725  0.6920  4.0327
  252SOL    HW2  756   1.940   2.820   1.953 -1.4528 -1.2457 -2.2301
  253SOL     OW  757   1.933   1.489   2.972  0.1703  0.0788  0.0948
  253SOL    HW1  758   1.882   1.581   2.966 -1.1209 -2.2026  2.0089
  253SOL    HW2  759   1.994   1.486   3.054  0.2282  1.4521  1.3705
  254SOL     OW  760   0.715   1.486   1.802 -0.9597 -0.2064  0.4429
  254SOL    HW1  761   0.663   1.572   1.797 -1.0046 -2.1250 -0.7912
  254SOL    HW2  762   0.688   1.434   1.883  1.6027  0.1213 -0.7289
  255SOL     OW  763   0.816   3.062   1.480  0.0644  0.6153  0.0562
  255SOL    HW1  764   0.916   3.091   1.460  2.0415 -0.9387  0.9100
  255SOL    HW2  765   0.798   3.034   1.581  0.0226 -2.4804  1.8251
  256SOL     OW  766   0.128   2.308   0.787 -0.3786  0.1266  0.1877
  256SOL    HW1  767   0.211   2.261   0.825  0.7102  2.2161 -2.1646
  256SOL    HW2  768   0.053   2.316   0.858 -0.8335 -1.1695 -2.5607
  257SOL     OW  769   0.311   2.541   2.519  0.4505 -0.2842  0.9000
  257SOL    HW1  770   0.236   2.574   2.577  3.8708 -1.0465  1.0035
  257SOL    HW2  771   0.350   2.453   2.552 -0.7443 -0.6101 -0.8623
  258SOL     OW  772   1.281   2.056   1.984  0.4573 -0.2605  0.4452
  258SOL    HW1  773   1.242   2.017   1.895  0.1609 -1.6284  1.1498
  258SOL    HW2  774   1.247   2.149   2.007  0.0942  0.9892  3.2821
  259SOL     OW  775   1.216   1.586   2.401 -0.2000 -0.6259 -0.0616
  259SOL    HW1  776   1.263   1.497   2.387 -1.1503  0.9253  0.3847
  259SOL    HW2  777   1.193   1.603   2.499  2.6330  0.1770 -2.0919
  260SOL     OW  778   2.302   1.139   2.189  0.0147 -0.1432 -0.2319
  260SOL    HW1  779   2.246   1.059   2.214  0.5242  1.0641 -0.6069
  260SOL    HW2  780   2.308   1.145   2.090  0.2288  1.4258  1.8524
  261SOL     OW  781   1.358   0.978   0.886  0.1328  0.4602 -0.4580
  261SOL    HW1  782   1.415   0.941   0.967  1.3024  0.4272  3.5812
  261SOL    HW2  783   1.425   0.994   0.813  0.8357 -3.2925  3.6686
  262SOL     OW  784   2.100   2.207   2.453  0.5311 -0.4481 -0.7505
  262SOL    HW1  785   2.087   2.300   2.413 -0.7970 -0.1742  1.0322
  262SOL    HW2  786   2.117   2.218   2.555  1.5790  0.2116  0.6075
  263SOL     OW  787   0.936   2.114   1.026  0.3444  0.3150  0.2600
  263SOL    HW1  788   0.852   2.171   1.041  0.5017 -0.7962  1.2054
  263SOL    HW2  789   0.952   2.081   0.930  0.4111  0.3597 -1.1617
  264SOL     OW  790   0.348   2.391   0.425  0.3257 -0.1321  0.8640
  264SOL    HW1  791   0.295   2.440   0.500 -0.7268 -0.9543 -1.4949
  264SOL    HW2  792   0.350   2.291   0.444 -0.6333 -0.1547  0.3802
  265SOL     OW  793   1.249   1.405   0.160  0.4400 -0.2096  0.2806
  265SOL    HW1  794   1.291   1.331   0.099  1.1908 -0.9210 -0.9750
  265SOL    HW2  795   1.191   1.365   0.237 -0.2215  0.8274  1.0775
  266SOL     OW  796   0.640   2.040   2.530 -0.2912  0.0840  0.4524
  266SOL    HW1  797   0.746   2.036   2.533  1.2638 -0.0303  2.3850
  266SOL    HW2  798   0.601   2.074   2.444  1.5220  0.7674 -0.8748
  267SOL     OW  799   1.859   0.994   2.262 -0.0879  0.1445  0.4979
  267SOL    HW1  800   1.837   0.936   2.345  3.6272  0.2782  0.3626
  267SOL    HW2  801   1.796   1.070   2.245 -0.0745 -2.7099 -1.2025
  268SOL     OW  802   0.819   1.355   0.323 -0.2524  0.2265 -0.8322
  268SOL    HW1  803   0.721   1.341   0.343 -0.4415  2.5398  0.2399
  268SOL    HW2  804   0.831   1.434   0.258  1.7305 -1.0230  0.8971
  269SOL     OW  805   2.417   1.879   2.577 -0.6535  0.2626  0.5821
  269SOL    HW1  806   2.445   1.892   2.678  0.8178  2.1206  0.9526
  269SOL    HW2  807   2.508   1.869   2.527 -0.5270  0.2744 -1.1439
  270SOL     OW  808   0.778   2.114   3.066 -0.4268  0.5536 -0.5537
  270SOL    HW1  809   0.691   2.059   3.064 -0.1675  0.8712 -2.0501
  270SOL    HW2  810   0.758   2.209   3.055 -2.1354  1.1915  1.8695
  271SOL     OW  811   0.458   0.332   0.099 -0.2459  0.6854 -0.4975
  271SOL    HW1  812   0.522   0.394   0.053 -1.4635 -1.7063 -0.4026
  271SOL    HW2  813   0.483   0.235   0.103  0.2789 -1.5242 -1.2015
  272SOL     OW  814   3.025   0.167   0.358 -0.1713  0.2119  0.1207
  272SOL    HW1  815   2.989   0.195   0.451  0.3124  1.3173  2.9153
  272SOL    HW2  816   3.038   0.246   0.300  1.4634 -2.0500 -0.2215
  273SOL     OW  817   0.451   0.044   1.880  0.0644 -0.5775  0.5258
  273SOL    HW1  818   0.451   0.021   1.782 -1.0059  0.6117  0.7913
  273SOL    HW2  819   0.386   3.099   1.923  2.8821  0.1125  0.6564
  274SOL     OW  820   2.866   0.549   1.211  0.8428  0.3328  0.1328
  274SOL    HW1  821   2.855   0.477   1.135 -0.1690 -0.5885 -1.5440
  274SOL    HW2  822   2.947   0.610   1.191  1.8525  0.1847  0.6782
  275SOL     OW  823   0.611   1.421   0.943 -0.1564 -0.1201  0.2047
  275SOL    HW1  824   0.623   1.409   0.842  1.9733 -2.3461 -0.5212
  275SOL    HW2  825   0.684   1.374   1.000 -0.0396  1.1206  0.1157
  276SOL     OW  826   0.665   1.119   1.902 -0.1016 -0.7020 -0.0738
  276SOL    HW1  827   0.605   1.196   1.930 -1.7569 -0.3808  1.0785
  276SOL    HW2  828   0.626   1.030   1.932  0.0597 -0.8424 -1.5631
  277SOL     OW  829   1.139   2.273   2.045  0.5210  0.5748  0.1255
  277SOL    HW1  830   1.139   2.373   2.058 -3.0072  0.0024  1.4401
  277SOL    HW2  831   1.044   2.239   2.063 -0.8139  0.1104 -0.2852
  278SOL     OW  832   2.405   2.730   2.388  0.4823  0.1563  0.1255
  278SOL    HW1  833   2.393   2.677   2.473  0.0112  1.7786  0.7690
  278SOL    HW2  834   2.343   2.693   2.311 -0.0894  1.4934  0.2198
  279SOL     OW  835   1.197   1.845   3.085 -0.5807  0.4432  0.0190
  279SOL    HW1  836   1.273   1.891   0.014  0.8128  2.7672  2.4733
  279SOL    HW2  837   1.124   1.916   3.091  1.2457 -0.3365 -1.6764
  280SOL     OW  838   1.179   0.217   0.432 -0.1757  0.9582 -0.4943
  280SOL    HW1  839   1.234   0.136   0.478  3.6854  0.0988 -0.5249
  280SOL    HW2  840   1.235   0.268   0.362  1.3443  3.6345  2.4266
  281SOL     OW  841   0.545   0.345   1.485 -0.1957  0.2531  0.1325
  281SOL    HW1  842   0.565   0.388   1.574 -1.5297 -2.0639 -1.5221
  281SOL    HW2  843   0.459   0.296   1.489  0.4423 -0.2254  0.9145
  282SOL     OW  844   0.211   2.501   0.616  0.0525 -0.2755  0.4504
  282SOL    HW1  845   0.189   2.456   0.706  0.6915 -0.0593  1.6325
  282SOL    HW2  846   0.147   2.575   0.597 -1.4525 -2.0051  2.6067
  283SOL     OW  847   1.526   1.831   1.887 -0.2284 -0.4555  0.9819
  283SOL    HW1  848   1.497   1.765   1.959  1.2171 -1.2303 -0.7300
  283SOL    HW2  849   1.581   1.905   1.929 -1.7880  1.4400 -2.3380
  284SOL     OW  850   2.903   2.847   1.655 -0.1588 -0.3358 -0.1568
  284SOL    HW1  851   2.853   2.942   1.638 -0.9350  3.0762 -0.4687
  284SOL    HW2  852   2.835   2.775   1.635  0.8957 -2.1266  0.7734
  285SOL     OW  853   0.288   2.703   0.404  0.2968 -0.2911 -0.1855
  285SOL    HW1  854   0.195   2.703   0.438  1.0186  0.8448  0.9734
  285SOL    HW2  855   0.309   2.612   0.364 -0.8292  0.0492  1.0267
  286SOL     OW  856   0.396   2.666   1.252 -0.2753  0.2099 -0.1034
  286SOL    HW1  857   0.459   2.742   1.270 -0.2741 -0.7503 -0.7535
  286SOL    HW2  858   0.316   2.697   1.193 -2.9323  0.8239 -0.5197
  287SOL     OW  859   0.624   1.439   0.654 -0.0844  0.2892 -0.0908
  287SOL    HW1  860   0.635   1.343   0.613  2.1909 -1.1674 -0.3924
  287SOL    HW2  861   0.687   1.514   0.617  1.7404  1.1318  0.0788
  288SOL     OW  862   1.819   2.023   2.698 -0.5657 -0.1367  0.1565
  288SOL    HW1  863   1.854   1.926   2.689 -0.3608  0.4041 -0.3106
  288SOL    HW2  864   1.888   2.080   2.748  1.5074  0.8128  1.4006
  289SOL     OW  865   2.597   1.627   0.347  0.1810 -0.5557 -0.0124
  289SOL    HW1  866   2.592   1.716   0.400  0.3027 -0.6767  1.2433
  289SOL    HW2  867   2.504   1.596   0.317  0.9140 -1.4127 -0.5321
  290SOL     OW  868   1.392   1.423   1.263 -0.1913  0.8331  0.0055
  290SOL    HW1  869   1.320   1.475   1.308  3.1188 -3.6906 -2.6986
  290SOL    HW2  870   1.361   1.407   1.166  0.4073  1.2241 -2.0110
  291SOL     OW  871   1.313   1.190   0.023  0.6275  0.0450  0.2146
  291SOL    HW1  872   1.296   1.098   0.062 -0.1975  0.0087  0.6408
  291SOL    HW2  873   1.334   1.189   3.047  0.3665  1.1597 -1.8085
  292SOL     OW  874   1.432   1.552   0.296 -0.1481 -0.2297  0.2757
  292SOL    HW1  875   1.369   1.488   0.250 -3.9025  0.8428 -0.3801
  292SOL    HW2  876   1.492   1.597   0.232 -1.2161 -1.5203  1.4975
  293SOL     OW  877   1.137   2.984   0.909  0.2296 -0.3226  0.3454
  293SOL    HW1  878   1.127   2.884   0.905 -0.6460  1.5693  1.0184
  293SOL    HW2  879   1.096   3.026   0.824 -0.8111  1.8815  0.1390
  294SOL     OW  880   2.142   1.015   2.580 -0.2779 -0.2857  0.5087
  294SOL    HW1  881   2.159   0.999   2.480  1.3982  1.0066 -0.2065
  294SOL    HW2  882   2.043   1.013   2.614 -0.3580 -1.7981 -0.4172
  295SOL     OW  883   1.811   1.729   2.971  0.4701 -0.0151 -0.5104
  295SOL    HW1  884   1.760   1.738   3.057  0.3212  0.4429  1.4874
  295SOL    HW2  885   1.761   1.775   2.893  0.9227  0.0439  0.4377
  296SOL     OW  886   1.234   0.624   1.607  0.2153 -0.1938 -0.4077
  296SOL    HW1  887   1.176   0.704   1.594  1.3896 -1.2726  1.2029
  296SOL    HW2  888   1.275   0.599   1.516 -0.8562 -1.3821 -0.6439
  297SOL     OW  889   0.032   0.666   2.102  0.3942 -0.3410  0.1086
  297SOL    HW1  890   0.021   0.635   2.006 -0.3368  0.8360  0.5125
  297SOL    HW2  891   0.110   0.616   2.142  2.4507  0.6249  0.1628
  298SOL     OW  892   1.411   1.869   1.248 -0.0758 -0.6686 -0.3115
  298SOL    HW1  893   1.343   1.906   1.314 -1.0220  0.6824 -0.6293
  298SOL    HW2  894   1.489   1.823   1.297 -0.9959  1.0287 -0.0946
  299SOL     OW  895   1.250   0.105   2.683  0.3080 -0.2641 -0.0492
  299SOL    HW1  896   1.273   0.010   2.671 -0.3412  0.5786  0.4367
  299SOL    HW2  897   1.159   0.122   2.636  0.5757  0.3247  0.2832
  300SOL     OW  898   2.721   2.091   0.425 -0.2258 -0.2998  0.1773
  300SOL    HW1  899   2.824   2.088   0.444 -0.4454 -0.4416  1.9568
  300SOL    HW2  900   2.692   2.189   0.421  2.0068 -0.4326 -2.7878
  301SOL     OW  901   2.117   0.605   2.747 -0.4647  0.2591 -0.1987
  301SOL    HW1  902   2.171   0.647   2.667  1.5880  0.3339 -2.3843
  301SOL    HW2  903   2.048   0.670   2.785 -0.9021 -0.6731  0.6800
  302SOL     OW  904   2.479   2.270   0.015 -0.1214 -0.3985 -0.2972
  302SOL    HW1  905   2.513   2.201   0.085 -0.3559  0.2792 -0.7133
  302SOL    HW2  906   2.515   2.251   3.049 -0.2261  0.1031  3.9020
  303SOL     OW  907   3.085   2.382   0.158  0.6707  0.1403 -0.3409
  303SOL    HW1  908   2.993   2.376   0.206 -1.7341 -2.1289  1.4076
  303SOL    HW2  909   3.089   2.458   0.092 -0.5673  0.9405  0.3094
  304SOL     OW  910   0.193   1.724   0.942 -0.0176 -0.5718 -0.1124
  304SOL    HW1  911   0.091   1.720   0.961 -0.4325 -2.5634  2.4328
  304SOL    HW2  912   0.216   1.822   0.934  1.0787 -2.0482 -1.2678
  305SOL     OW  913   2.898   0.708   1.731  0.4765 -0.0189  0.1529
  305SOL    HW1  914   2.998   0.695   1.715  0.4683 -0.9835  0.7386
  305SOL    HW2  915   2.849   0.697   1.641  2.1095  0.4817  3.0630
  306SOL     OW  916   1.660   1.553   0.917  0.8043  0.8119  0.3025
  306SOL    HW1  917   1.559   1.532   0.898 -2.3543  0.7661 -1.9375
  306SOL    HW2  918   1.665   1.654   0.947 -0.7085  1.6662 -1.2692
  307SOL     OW  919   0.212   0.327   0.782  0.4410 -0.5413  0.1631
  307SOL    HW1  920   0.191   0.343   0.687  1.9812 -0.8737  2.1646
  307SOL    HW2  921   0.309   0.311   0.784 -4.2674  0.8721  2.5613
  308SOL     OW  922   0.002   1.418   2.145  0.1517  0.2549  0.1799
  308SOL    HW1  923   0.064   1.377   2.215  3.0591  0.8690  2.0115
  308SOL    HW2  924   0.022   1.378   2.053 -2.3397  0.1674 -0.7264
  309SOL     OW  925   2.663   1.895   2.460  0.3998  0.3609  0.2091
  309SOL    HW1  926   2.696   1.978   2.409 -0.0016  0.0236 -0.3475
  309SOL    HW2  927   2.723   1.866   2.536 -0.3159 -0.0983 -5.0175
  310SOL     OW  928   2.631   0.866   3.092 -0.0028 -0.4575  0.1358
  310SOL    HW1  929   2.687   0.789   3.122 -0.3522 -2.6928 -0.2117
  310SOL    HW2  930   2.542   0.832   3.065  1.0280  0.5191  2.6996
  311SOL     OW  931   1.913   0.770   2.883  0.4337  0.5164 -0.5108
  311SOL    HW1  932   1.980   0.826   2.939  1.6679  0.5935  0.9994
  311SOL    HW2  933   1.877   0.691   2.943 -2.1536 -1.0851  0.9212
  312SOL     OW  934   1.464   2.365   2.744 -0.1732 -0.1637 -0.1696
  312SOL    HW1  935   1.408   2.319   2.672 -0.3041  0.5354  0.7242
  312SOL    HW2  936   1.485   2.300   2.822 -0.8304  0.5753  1.3629
  313SOL     OW  937   0.371   0.476   0.300  0.4811  0.0552 -0.5030
  313SOL    HW1  938   0.396   0.406   0.232 -1.7710  0.2023 -0.9030
  313SOL    HW2  939   0.349   0.562   0.248 -1.0148 -1.0925 -3.2121
  314SOL     OW  940   0.805   1.942   1.408 -0.1034  0.0341 -0.1983
  314SOL    HW1  941   0.822   1.925   1.309  0.6531 -0.8707 -0.0111
  314SOL    HW2  942   0.822   1.856   1.458 -1.6388  1.6835  0.5893
  315SOL     OW  943   0.693   1.784   2.142 -0.3887  0.8814  0.5699
  315SOL    HW1  944   0.618   1.823   2.090  2.4226 -2.5100  1.7953
  315SOL    HW2  945   0.669   1.730   2.223 -0.8983 -0.5103 -1.2433
  316SOL     OW  946   0.461   2.557   0.688 -0.8481 -0.0268 -0.0962
  316SOL    HW1  947   0.374   2.550   0.640 -1.0119 -1.1350  1.5375
  316SOL    HW2  948   0.451   2.602   0.781 -0.8326 -2.7732 -0.8356
  317SOL     OW  949   2.387   0.235   1.334  0.3456  0.3338 -0.0872
  317SOL    HW1  950   2.434   0.267   1.419  0.1548  0.1864  0.1386
  317SOL    HW2  951   2.352   0.308   1.272 -1.4106 -0.3077 -2.3045
  318SOL     OW  952   1.801   3.014   0.312 -0.4957 -0.1175  0.0697
  318SOL    HW1  953   1.799   3.118   0.337  1.9999  1.3458 -0.3244
  318SOL    HW2  954   1.898   2.981   0.294 -0.9137 -1.6302  1.1006
  319SOL     OW  955   1.577   0.589   2.876  0.1693 -0.3836  0.3507
  319SOL    HW1  956   1.489   0.636   2.895  1.3509 -0.5793 -1.6664
  319SOL    HW2  957   1.576   0.493   2.901  2.1706  1.4708 -1.0331
  320SOL     OW  958   3.041   2.100   1.905 -0.6701 -0.0526  0.0373
  320SOL    HW1  959   3.044   2.125   1.806  0.5812 -0.5856 -1.3419
  320SOL    HW2  960   2.941   2.088   1.932 -2.6525  0.8492  2.3273
  321SOL     OW  961   0.507   2.463   2.971  0.1478  0.1473  0.2186
  321SOL    HW1  962   0.588   2.425   3.022  0.1568  2.7856  0.2841
  321SOL    HW2  963   0.459   2.538   3.029  1.6039  2.6532  3.1039
  322SOL     OW  964   2.305   0.635   2.414 -0.0730 -0.1069 -0.0108
  322SOL    HW1  965   2.301   0.672   2.314 -1.1256  3.2455 -1.4940
  322SOL    HW2  966   2.271   0.538   2.417  2.5506  0.5096 -2.6342
  323SOL     OW  967   2.340   1.096   0.624  0.5056 -0.3069  0.1294
  323SOL    HW1  968   2.427   1.066   0.674  0.4339 -0.0298 -2.3947
  323SOL    HW2  969   2.290   1.024   0.571 -2.2127 -0.7619 -0.6533
  324SOL     OW  970   2.840   0.353   1.006  0.2683  0.1459 -0.0114
  324SOL    HW1  971   2.929   0.325   0.967  0.1977  3.3450  0.4087
  324SOL    HW2  972   2.777   0.383   0.933  0.8762 -0.4851  2.4686
  325SOL     OW  973   2.769   3.093   1.621  0.0961  0.3604 -0.5993
  325SOL    HW1  974   2.777   0.015   1.709 -0.7409 -1.4813 -2.8970
  325SOL    HW2  975   2.740   0.035   1.553 -0.1200  0.6469  1.6978
  326SOL     OW  976   1.677   2.898   0.068 -0.5389  0.6039 -0.1690
  326SOL    HW1  977   1.659   2.800   0.098  1.6240 -0.5543 -0.7937
  326SOL    HW2  978   1.679   2.954   0.154 -2.3269 -1.0119  0.4212
  327SOL     OW  979   1.832   1.864   0.284  0.0483 -0.0805  0.6736
  327SOL    HW1  980   1.852   1.964   0.293  0.4494 -1.0528 -4.2507
  327SOL    HW2  981   1.834   1.828   0.380  2.4776  3.4908  0.8812
  328SOL     OW  982   3.064   2.348   2.195  0.2082 -0.4136 -0.4101
  328SOL    HW1  983   2.998   2.423   2.215  0.8814 -0.7356  1.0603
  328SOL    HW2  984   3.091   2.344   2.098  0.1548 -0.3627  2.0504
  329SOL     OW  985   3.066   2.094   1.361 -0.5168  0.1119 -0.0604
  329SOL    HW1  986   2.982   2.149   1.363 -1.6026 -1.2456 -0.6374
  329SOL    HW2  987   3.110   2.097   1.454  0.0659 -0.7310 -0.1124
  330SOL     OW  988   2.535   0.852   2.401  0.2319 -0.2213  0.7687
  330SOL    HW1  989   2.458   0.789   2.405  0.8966  0.5679 -0.6271
  330SOL    HW2  990   2.536   0.895   2.307 -0.4863 -0.2200  0.7554
  331SOL     OW  991   2.271   2.205   0.943 -0.3365  0.3082  0.3960
  331SOL    HW1  992   2.201   2.173   1.013 -1.5313 -0.4025  0.8873
  331SOL    HW2  993   2.239   2.284   0.887 -0.1125  1.5649 -2.5343
  332SOL     OW  994   0.518   2.953   1.024 -0.2318  0.3722 -0.3672
  332SOL    HW1  995   0.510   3.033   0.957  1.7927  0.1452  0.7496
  332SOL    HW2  996   0.574   2.981   1.102  0.3252  1.1395 -0.8036
  333SOL     OW  997   2.297   2.030   2.355 -0.2700  0.2158 -0.0364
  333SOL    HW1  998   2.219   2.084   2.394  2.0603 -0.8344  1.2953
  333SOL    HW2  999   2.345   1.994   2.436 -0.5754 -0.6899  0.5488
  334SOL     OW 1000   0.624   1.075   0.865  0.4030  0.0424 -0.0254
  334SOL    HW1 1001   0.717   1.102   0.830  2.3947  0.8414 -0.9711
  334SOL    HW2 1002   0.634   1.077   0.965 -0.7772  2.3648  1.2162
  335SOL     OW 1003   0.044   1.764   2.365 -0.4776 -0.3504  0.3706
  335SOL    HW1 1004   3.095   1.718   2.414  2.8117  1.2216 -2.1463
  335SOL    HW2 1005   0.036   1.752   2.262  0.4676  0.2683 -1.1506
  336SOL     OW 1006   2.332   2.997   2.325 -0.2646 -0.2340 -0.5005
  336SOL    HW1 1007   2.378   2.907   2.343  1.1431 -0.5314  0.6118
  336SOL    HW2 1008   2.246   2.989   2.271  1.8938 -0.6011 -1.3847
  337SOL     OW 1009   1.020   0.816   0.725  0.2275  0.6213 -0.1777
  337SOL    HW1 1010   0.918   0.832   0.735 -3.3684 -1.8368  2.4136
  337SOL    HW2 1011   1.055   0.761   0.802 -2.8642  1.1712  0.7338
  338SOL     OW 1012   1.620   2.043   1.137 -0.5982 -0.2240 -0.0946
  338SOL    HW1 1013   1.531   1.998   1.172 -0.7556 -1.0743 -0.6035
  338SOL    HW2 1014   1.614   2.145   1.115 -1.5775  3.6941  0.2212
  339SOL     OW 1015   0.522   1.755   1.310  0.0830  0.5034 -0.5392
  339SOL    HW1 1016   0.560   1.671   1.266  0.1143 -1.6279 -1.6938
  339SOL    HW2 1017   0.519   1.827   1.234 -1.0088 -0.0444  2.1121
  340SOL     OW 1018   1.048   2.929   1.829  0.2813 -0.7333  0.1479
  340SOL    HW1 1019   1.096   2.845   1.797  1.1801 -2.0548  1.0726
  340SOL    HW2 1020   1.110   2.980   1.892  1.0938 -1.1990 -2.8420
  341SOL     OW 1021   2.278   1.724   0.790 -0.1889 -0.7514  0.5408
  341SOL    HW1 1022   2.354   1.692   0.847 -1.4361  2.7172  2.0864
  341SOL    HW2 1023   2.290   1.690   0.696  1.8287  1.2772  0.7127
  342SOL     OW 1024   2.420   1.369   0.536  0.0438 -0.7216 -0.9927
  342SOL    HW1 1025   2.387   1.274   0.564  2.3995 -2.1539  1.4114
  342SOL    HW2 1026   2.517   1.368   0.500  1.1730  0.6977  1.6509
  343SOL     OW 1027   2.106   0.199   0.859 -0.1600 -0.1213 -0.2654
  343SOL    HW1 1028   2.179   0.269   0.884  1.7443  1.7136  0.5148
  343SOL    HW2 1029   2.101   0.118   0.920  0.5195 -0.5898  2.4878
  344SOL     OW 1030   2.597   0.298   0.197  0.3294 -0.1509  0.4518
  344SOL    HW1 1031   2.674   0.263   0.143 -0.6333 -1.1048  2.9889
  344SOL    HW2 1032   2.546   0.215   0.243 -2.3925 -1.2719  0.8449
  345SOL     OW 1033   0.884   2.522   2.077 -0.3594 -0.2601 -0.3727
  345SOL    HW1 1034   0.900   2.528   1.977  0.3006 -1.8279  0.3166
  345SOL    HW2 1035   0.865   2.423   2.087 -1.2645 -1.8211  0.4358
  346SOL     OW 1036   2.239   2.463   0.846  0.3370  0.4820  0.4011
  346SOL    HW1 1037   2.227   2.485   0.943  0.4052 -0.4787 -1.0349
  346SOL    HW2 1038   2.266   2.543   0.791 -1.9573 -0.4378 -0.1206
  347SOL     OW 1039   2.429   3.079   1.319  0.1486 -0.3198 -0.3156
  347SOL    HW1 1040   2.479   3.034   1.242 -0.9715 -0.3973 -0.0962
  347SOL    HW2 1041   2.432   0.059   1.314 -1.1269  1.1791 -0.5135
  348SOL     OW 1042   0.773   0.642   1.480  0.2030 -0.9259  0.0443
  348SOL    HW1 1043   0.720   0.727   1.448  1.8463 -0.1803 -1.2059
  348SOL    HW2 1044   0.825   0.591   1.407  0.6124 -2.1061  0.4601
  349SOL     OW 1045   2.360   0.462   2.901 -0.3883  0.2513  0.2036
  349SOL    HW1 1046   2.259   0.478   2.886 -2.7464  0.8750  0.7565
  349SOL    HW2 1047   2.409   0.506   2.829 -0.1056 -2.4400  2.5830
  350SOL     OW 1048   2.186   2.337   0.008  0.1654  0.7193 -0.1939
  350SOL    HW1 1049   2.119   2.261   0.005  2.2492  0.3121  0.6214
  350SOL    HW2 1050   2.280   2.300   0.016 -0.2224 -0.5132  0.1376
  351SOL     OW 1051   1.045   0.419   0.558  0.1689 -0.3568 -0.8065
  351SOL    HW1 1052   1.078   0.509   0.522  0.9289 -0.6578  0.9661
  351SOL    HW2 1053   1.099   0.336   0.525 -0.9731 -1.2979  0.2390
  352SOL     OW 1054   1.628   1.948   2.857  0.2254  0.1101  0.1127
  352SOL    HW1 1055   1.559   1.902   2.795 -1.8205 -1.2935 -1.5176
  352SOL    HW2 1056   1.709   1.990   2.814  2.3574  0.8210  3.5302
  353SOL     OW 1057   0.612   1.406   2.866 -0.6278 -0.9062 -0.5788
  353SOL    HW1 1058   0.568   1.389   2.777  0.1770 -1.0901  2.1758
  353SOL    HW2 1059   0.652   1.503   2.861  0.6766 -0.5515  0.4244
  354SOL     OW 1060   0.663   2.454   2.744  0.6135 -0.2070  0.1895
  354SOL    HW1 1061   0.590   2.460   2.816 -2.1438 -1.0170  1.0358
  354SOL    HW2 1062   0.750   2.489   2.780 -0.9955 -0.9017  0.7454
  355SOL     OW 1063   2.341   2.807   1.612  0.3320  0.7846 -0.0888
  355SOL    HW1 1064   2.363   2.906   1.631  2.2680 -1.1028  0.7197
  355SOL    HW2 1065   2.417   2.751   1.578  0.9192 -0.1690  2.4103
  356SOL     OW 1066   2.762   1.067   0.970  0.5160  0.1617 -0.0517
  356SOL    HW1 1067   2.707   1.076   1.060  0.1795  0.4814 -1.1320
  356SOL    HW2 1068   2.826   0.988   0.965 -0.3814  0.5334  2.3205
  357SOL     OW 1069   2.737   0.205   1.454 -0.3501  0.3203  0.4450
  357SOL    HW1 1070   2.822   0.257   1.481 -0.2643 -2.5816 -0.3497
  357SOL    HW2 1071   2.733   0.197   1.353  2.2551  0.0050  0.2342
  358SOL     OW 1072   0.236   1.635   1.710  0.0495 -0.7638  0.1914
  358SOL    HW1 1073   0.307   1.690   1.662  2.5189 -1.0967  0.1464
  358SOL    HW2 1074   0.247   1.656   1.811  1.1806  0.9515  0.2296
  359SOL     OW 1075   2.934   2.862   2.527 -0.3083  0.0250 -0.5910
  359SOL    HW1 1076   2.850   2.927   2.521 -1.8498  1.3917  2.0113
  359SOL    HW2 1077   3.011   2.890   2.469  0.4670  0.7912  3.2164
  360SOL     OW 1078   1.257   0.360   1.296 -0.0450  0.5710 -0.4625
  360SOL    HW1 1079   1.207   0.293   1.237  0.3270 -2.5904 -0.0078
  360SOL    HW2 1080   1.330   0.314   1.348 -0.7475 -0.4025 -1.9727
  361SOL     OW 1081   2.388   2.685   1.171 -0.2594 -0.4593 -0.3914
  361SOL    HW1 1082   2.329   2.764   1.181  3.1648 -0.8320 -2.6300
  361SOL    HW2 1083   2.453   2.689   1.091  2.0394 -1.6731 -2.2183
  362SOL     OW 1084   0.812   0.060   0.557 -0.4630 -0.8465  0.2605
  362SOL    HW1 1085   0.732   3.120   0.548 -2.6565 -1.2881  0.8648
  362SOL    HW2 1086   0.886   0.024   0.497 -1.5433  0.9069 -1.6762
  363SOL     OW 1087   1.151   1.376   0.584  0.7914 -0.0121  0.6923
  363SOL    HW1 1088   1.141   1.340   0.487 -0.5231 -1.0267 -2.5031
  363SOL    HW2 1089   1.172   1.299   0.646 -1.5694  3.3137 -1.9846
  364SOL     OW 1090   0.376   0.840   1.569  0.3828 -0.5491 -0.0794
  364SOL    HW1 1091   0.475   0.843   1.583  0.6135  1.7771 -1.8356
  364SOL    HW2 1092   0.367   0.823   1.468  1.0204 -0.8561 -1.4300
  365SOL     OW 1093   2.872   0.812   0.978 -0.0262  0.5241  0.0235
  365SOL    HW1 1094   2.965   0.795   1.020 -2.0663 -1.9361 -0.4105
  365SOL    HW2 1095   2.870   0.772   0.883  0.0241 -0.5036  0.1102
  366SOL     OW 1096   2.545   1.542   0.803 -0.3456  0.3255 -0.9264
  366SOL    HW1 1097   2.485   1.477   0.851  2.5136 -0.1843 -0.9765
  366SOL    HW2 1098   2.633   1.503   0.777 -1.0735  1.4217 -0.9094
  367SOL     OW 1099   2.046   2.026   2.132 -0.2519 -0.4710  0.2946
  367SOL    HW1 1100   2.117   1.960   2.138  1.1009  0.1777  0.9644
  367SOL    HW2 1101   1.994   2.022   2.221 -1.8000  1.2129  1.4182
  368SOL     OW 1102   2.501   2.019   0.967  0.6353 -0.8910 -0.3119
  368SOL    HW1 1103   2.533   1.975   0.883  1.9583 -0.2743  2.7834
  368SOL    HW2 1104   2.436   2.097   0.943  2.1638  1.1253  0.4855
  369SOL     OW 1105   2.227   2.620   2.728 -0.7079 -0.7549 -0.1009
  369SOL    HW1 1106   2.138   2.661   2.698  0.9185 -0.9744  0.6132
  369SOL    HW2 1107   2.271   2.673   2.800 -1.0416 -2.2761  1.6236
  370SOL     OW 1108   0.110   0.223   1.238 -0.5825  0.2174  0.2569
  370SOL    HW1 1109   0.100   0.315   1.283  0.1910  3.7625  3.8107
  370SOL    HW2 1110   0.193   0.205   1.182 -1.2658 -0.9401  0.0998
  371SOL     OW 1111   0.702   1.924   0.332  0.2146  0.2435 -0.3523
  371SOL    HW1 1112   0.665   1.854   0.268 -0.0316 -1.5921 -0.1719
  371SOL    HW2 1113   0.692   1.889   0.429 -0.4320 -2.3915  0.5472
  372SOL     OW 1114   0.920   1.196   3.046  0.2067 -0.0000 -0.0920
  372SOL    HW1 1115   0.966   1.173   0.008  0.3023 -1.2186  2.6920
  372SOL    HW2 1116   0.950   1.148   2.960  1.1654  1.6587 -0.8188
  373SOL     OW 1117   1.396   2.667   2.397  0.0050  0.0641  0.0456
  373SOL    HW1 1118   1.395   2.667   2.501 -0.3095 -0.7210  1.2503
  373SOL    HW2 1119   1.453   2.594   2.354 -2.2271 -1.1337 -1.0591
  374SOL     OW 1120   0.360   2.167   0.074 -0.9587 -0.5327 -0.2902
  374SOL    HW1 1121   0.433   2.140   0.006  0.1065 -0.6100 -0.8689
  374SOL    HW2 1122   0.359   2.107   0.156  4.1788  2.9178  1.6604
  375SOL     OW 1123   0.670   0.686   1.851  0.4513 -0.6409 -0.0794
  375SOL    HW1 1124   0.642   0.715   1.947 -0.4449 -0.5999  0.0839
  375SOL    HW2 1125   0.763   0.647   1.857 -0.0158  0.9402  1.0411
  376SOL     OW 1126   0.620   2.168   1.731 -0.4764  0.3979 -0.3904
  376SOL    HW1 1127   0.545   2.108   1.697  1.6534 -1.3283  0.4221
  376SOL    HW2 1128   0.583   2.240   1.797  1.4119 -0.8281  1.2896
  377SOL     OW 1129   2.826   1.556   2.714 -0.3406 -0.0405 -0.5524
  377SOL    HW1 1130   2.752   1.529   2.653 -0.5239  1.6088 -0.4539
  377SOL    HW2 1131   2.877   1.467   2.725 -0.6534  1.0182 -1.0437
  378SOL     OW 1132   1.572   2.991   2.932  0.3184  0.6213  0.3597
  378SOL    HW1 1133   1.625   2.981   3.020  0.3583 -1.2896 -0.5876
  378SOL    HW2 1134   1.481   2.945   2.941 -2.2700  1.1996  1.1058
  379SOL     OW 1135   1.743   0.766   0.709 -0.3241 -0.1249  0.0353
  379SOL    HW1 1136   1.704   0.695   0.769 -0.8026  4.2879  0.8720
  379SOL    HW2 1137   1.690   0.853   0.712  0.4159  2.5893  2.5121
  380SOL     OW 1138   0.417   2.054   1.576  0.0969  0.0828  0.3089
  380SOL    HW1 1139   0.391   1.956   1.589 -0.3743 -0.1928  0.1759
  380SOL    HW2 1140   0.337   2.119   1.605  0.1526 -0.6297  2.7702
  381SOL     OW 1141   2.440   1.578   2.566  0.1303 -0.3006  0.0069
  381SOL    HW1 1142   2.446   1.678   2.588 -0.6226  0.4957  0.0463
  381SOL    HW2 1143   2.348   1.546   2.595  4.6761  0.5300  2.1222
  382SOL     OW 1144   0.119   0.236   2.657  0.1486  0.2961  0.2411
  382SOL    HW1 1145   0.094   0.148   2.608 -0.7915  0.7908  0.7366
  382SOL    HW2 1146   0.223   0.243   2.672  1.4944 -1.3981 -0.5137
  383SOL     OW 1147   1.744   1.212   2.905  0.2656 -0.2956  0.0128
  383SOL    HW1 1148   1.785   1.293   2.949 -0.4579  0.5310  1.3767
  383SOL    HW2 1149   1.705   1.146   2.970 -1.9698 -0.9340  3.3486
  384SOL     OW 1150   1.010   2.070   1.490 -0.0519  0.4749  0.0540
  384SOL    HW1 1151   0.936   2.011   1.455  1.4344  0.8126 -1.9565
  384SOL    HW2 1152   0.994   2.170   1.489 -0.4630 -1.3808  1.5167
  385SOL     OW 1153   1.819   2.854   0.802  0.7437  0.8881  0.7426
  385SOL    HW1 1154   1.775   2.880   0.891  1.2431 -2.3380 -2.6066
  385SOL    HW2 1155   1.759   2.790   0.752  1.3880 -0.0750 -0.9015
  386SOL     OW 1156   1.666   2.260   0.969  0.0007 -0.2072  0.1716
  386SOL    HW1 1157   1.746   2.223   0.923  0.7528  2.5490  2.2634
  386SOL    HW2 1158   1.677   2.358   0.987 -0.0324  1.7383  0.4009
  387SOL     OW 1159   2.799   2.242   1.371 -0.1608 -0.1504  0.0026
  387SOL    HW1 1160   2.699   2.251   1.356 -0.6409  1.5285 -1.6286
  387SOL    HW2 1161   2.821   2.167   1.431  0.4470  0.7691 -0.7670
  388SOL     OW 1162   2.751   0.942   1.442  0.7516  0.1579  0.2102
  388SOL    HW1 1163   2.751   0.841   1.440  2.3008  0.2111  1.0292
  388SOL    HW2 1164   2.834   0.981   1.494  0.4725  1.7292  3.6154
  389SOL     OW 1165   2.013   0.637   0.263  0.1760 -0.0407  0.0848
  389SOL    HW1 1166   2.093   0.643   0.199 -0.7113  0.1326  2.0956
  389SOL    HW2 1167   1.928   0.611   0.218  1.5161  0.8192  0.1061
  390SOL     OW 1168   1.473   1.828   2.659  0.2899 -0.2469  0.0096
  390SOL    HW1 1169   1.425   1.849   2.575 -0.3691 -2.6291  2.3129
  390SOL    HW2 1170   1.533   1.743   2.648  2.3015 -1.0117  2.0013
  391SOL     OW 1171   1.029   2.062   0.037  0.4780 -0.1804 -0.2916
  391SOL    HW1 1172   1.072   2.155   0.054  3.9459  1.1223  1.0580
  391SOL    HW2 1173   0.930   2.074   0.011  0.6534  0.7773  2.3263
  392SOL     OW 1174   0.258   2.621   1.697 -0.0858  1.0324 -0.3229
  392SOL    HW1 1175   0.329   2.639   1.627 -4.3542  1.4826  1.0802
  392SOL    HW2 1176   0.297   2.614   1.789 -2.8885  0.3382 -0.9629
  393SOL     OW 1177   1.522   2.634   0.176 -0.0058  0.2149  0.2088
  393SOL    HW1 1178   1.593   2.590   0.228 -1.0811  1.3754 -1.6025
  393SOL    HW2 1179   1.459   2.692   0.237 -1.3541 -3.6032 -0.1526
  394SOL     OW 1180   0.345   0.773   2.268  0.2900 -1.3166  0.0636
  394SOL    HW1 1181   0.315   0.807   2.355  0.2850 -1.7654 -1.6460
  394SOL    HW2 1182   0.318   0.678   2.257  2.6286  1.0555  2.8853
  395SOL     OW 1183   0.429   1.238   1.083 -0.5367  0.2273 -0.2837
  395SOL    HW1 1184   0.484   1.304   1.027  0.8773  0.3577  1.7471
  395SOL    HW2 1185   0.332   1.256   1.056  1.5733  2.5477  2.7788
  396SOL     OW 1186   1.703   1.220   2.251 -0.0658  0.5627 -0.3162
  396SOL    HW1 1187   1.694   1.297   2.308 -0.2606  0.1689 -3.7860
  396SOL    HW2 1188   1.663   1.235   2.159  0.7909 -0.7971  1.9000
  397SOL     OW 1189   0.815   0.020   0.142  0.1373 -0.0295  0.4352
  397SOL    HW1 1190   0.838   0.055   0.045  1.5230 -2.0448  0.3485
  397SOL    HW2 1191   0.792   0.101   0.205  1.5722 -0.6984  4.9041
  398SOL     OW 1192   0.870   2.180   2.798  0.4354  0.1320 -0.2004
  398SOL    HW1 1193   0.829   2.147   2.882  2.6964  2.6134  0.6576
  398SOL    HW2 1194   0.861   2.110   2.726  1.7307  1.1767  4.0549
  399SOL     OW 1195   2.166   1.512   2.592 -0.1404 -0.1415  0.0925
  399SOL    HW1 1196   2.107   1.448   2.644 -0.4885 -0.1882  1.8259
  399SOL    HW2 1197   2.139   1.524   2.495  0.5823  1.6083  0.6250
  400SOL     OW 1198   2.109   1.288   1.568 -0.7035  0.6451 -0.0983
  400SOL    HW1 1199   2.043   1.244   1.510  1.1596 -1.3622  0.4623
  400SOL    HW2 1200   2.152   1.369   1.526 -1.1008 -0.1451 -0.6493
  401SOL     OW 1201   1.197   1.309   1.026 -0.1789 -0.4436 -0.1238
  401SOL    HW1 1202   1.171   1.223   0.983 -1.2937  0.1166 -0.2177
  401SOL    HW2 1203   1.149   1.324   1.111  1.0788  1.4928  1.0447
  402SOL     OW 1204   0.001   2.559   1.733  0.1554  0.2439  0.1137
  402SOL    HW1 1205   3.057   2.554   1.662 -0.1498  3.5619  1.8109
  402SOL    HW2 1206   0.097   2.573   1.699 -2.7608  1.7185 -1.2469
  403SOL     OW 1207   0.165   1.335   2.317 -0.6643 -0.0241  0.6779
  403SOL    HW1 1208   0.141   1.384   2.404 -0.7313  2.5309 -0.9446
  403SOL    HW2 1209   0.158   1.237   2.336  0.6366  1.2598 -0.7780
  404SOL     OW 1210   2.328   1.703   1.380 -0.1869  0.6797  0.2068
  404SOL    HW1 1211   2.329   1.801   1.416  0.5819  0.0849  1.8103
  404SOL    HW2 1212   2.346   1.694   1.281  3.6849  0.0496 -1.4175
  405SOL     OW 1213   2.716   0.526   2.476 -0.2917  0.1998 -0.9300
  405SOL    HW1 1214   2.732   0.625   2.476 -1.9472  0.7309  1.0066
  405SOL    HW2 1215   2.752   0.479   2.392  2.2695 -1.8877 -2.3841
  406SOL     OW 1216   0.935   1.479   3.024 -0.1731  0.1058 -0.1706
  406SOL    HW1 1217   0.925   1.519   3.118 -0.0223  0.4883  1.3053
  406SOL    HW2 1218   0.939   1.377   3.029  1.1726 -2.9665 -0.7168
  407SOL     OW 1219   1.956   2.663   3.072 -0.0033 -0.1008 -0.3700
  407SOL    HW1 1220   1.882   2.607   3.035  1.6322 -1.5375  0.6893
  407SOL    HW2 1221   1.924   2.761   3.077 -2.7711  0.6120  2.7286
  408SOL     OW 1222   0.515   0.070   0.092 -0.0055  0.4162  0.2065
  408SOL    HW1 1223   0.572   3.118   0.135  2.9027 -1.9869  1.4471
  408SOL    HW2 1224   0.489   0.048   3.124  2.7932  0.5008  1.4815
  409SOL     OW 1225   2.353   1.741   1.101 -0.0494  0.4452  0.2090
  409SOL    HW1 1226   2.276   1.801   1.080 -0.7057  1.0152  1.2493
  409SOL    HW2 1227   2.447   1.770   1.072  0.5763 -2.4903  1.6682
  410SOL     OW 1228   2.239   2.176   2.706  0.0221  0.0963 -0.1473
  410SOL    HW1 1229   2.256   2.084   2.750 -0.1028 -0.0275 -0.5423
  410SOL    HW2 1230   2.235   2.249   2.778 -0.9138  1.4871 -0.6663
  411SOL     OW 1231   0.145   1.181   0.759  0.1586 -0.5186  0.1515
  411SOL    HW1 1232   0.077   1.105   0.741 -0.7067 -0.4517 -2.0872
  411SOL    HW2 1233   0.169   1.233   0.677  1.3763  1.3948  4.1817
  412SOL     OW 1234   1.391   2.801   0.358 -0.2684 -0.2608  0.4849
  412SOL    HW1 1235   1.484   2.789   0.394  2.0706  0.0142 -0.0032
  412SOL    HW2 1236   1.376   2.894   0.316  2.0630 -0.3983 -0.9437
  413SOL     OW 1237   1.725   0.347   2.549  0.4903  0.0452  0.2043
  413SOL    HW1 1238   1.622   0.340   2.529  0.6251 -2.5970  2.7995
  413SOL    HW2 1239   1.766   0.258   2.516  1.4433  0.9426 -1.2035
  414SOL     OW 1240   2.856   0.633   0.490 -0.7597 -0.2824  0.1946
  414SOL    HW1 1241   2.792   0.573   0.446  0.6111  1.1192  1.2322
  414SOL    HW2 1242   2.946   0.589   0.486 -1.2585 -1.9581  0.5673
  415SOL     OW 1243   0.861   1.537   1.351 -0.0458  0.0088  0.2045
  415SOL    HW1 1244   0.899   1.620   1.391 -0.2761 -0.4443 -1.8041
  415SOL    HW2 1245   0.821   1.478   1.424 -2.8950  0.3815 -0.5623
  416SOL     OW 1246   0.425   0.043   2.980 -0.2278  0.5689  0.0351
  416SOL    HW1 1247   0.440   0.143   2.960  2.7506 -1.4941 -1.3490
  416SOL    HW2 1248   0.501   3.115   2.948 -1.5470  1.4178  1.1898
  417SOL     OW 1249   2.611   2.951   1.168  0.3061  0.2986 -0.2013
  417SOL    HW1 1250   2.593   2.923   1.072 -1.7201 -1.6580  0.9940
  417SOL    HW2 1251   2.665   2.878   1.221  1.4549 -0.0001 -0.5433
  418SOL     OW 1252   0.736   0.541   2.676  0.1580 -0.2175  0.5351
  418SOL    HW1 1253   0.662   0.517   2.609 -0.5684  0.9638  1.3514
  418SOL    HW2 1254   0.799   0.614   2.641  2.0878 -0.5376  1.6203
  419SOL     OW 1255   0.174   1.495   1.207  0.3217  0.8992 -0.2175
  419SOL    HW1 1256   0.261   1.495   1.144  3.0085 -0.9645 -2.8044
  419SOL    HW2 1257   0.089   1.478   1.155  3.3605  0.7364  1.4885
  420SOL     OW 1258   0.824   1.908   1.136  0.2719 -0.2249 -0.0413
  420SOL    HW1 1259   0.866   1.993   1.093 -1.3469  0.7670  1.6880
  420SOL    HW2 1260   0.721   1.913   1.135  0.3997 -0.0188  0.3311
  421SOL     OW 1261   2.002   2.259   2.020 -0.1331  0.8352 -0.3744
  421SOL    HW1 1262   1.948   2.235   1.933  1.5618 -1.7998 -3.2631
  421SOL    HW2 1263   2.025   2.177   2.073  3.4887  0.9842 -0.1154
  422SOL     OW 1264   3.071   0.450   2.759  0.3434 -0.1262 -0.2205
  422SOL    HW1 1265   0.001   0.379   2.711 -0.9416 -1.3949 -1.4150
  422SOL    HW2 1266   2.975   0.427   2.735  0.7754 -1.3995  1.8219
  423SOL     OW 1267   1.230   2.184   1.074  0.0573 -0.6161  0.3512
  423SOL    HW1 1268   1.133   2.167   1.079 -1.4193 -1.5094  0.5468
  423SOL    HW2 1269   1.276   2.186   1.169  0.8397 -0.2045 -1.7508
  424SOL     OW 1270   0.772   1.377   1.567 -0.4319 -0.0286  0.3465
  424SOL    HW1 1271   0.702   1.366   1.495 -0.4719 -0.7474 -0.0493
  424SOL    HW2 1272   0.740   1.421   1.653  0.1635  0.1159 -0.5166
  425SOL     OW 1273   3.105   2.712   2.174 -0.7322  0.4262 -0.0061
  425SOL    HW1 1274   0.056   2.651   2.210  3.7887  2.8101  0.9581
  425SOL    HW2 1275   3.117   2.731   2.076  2.3588  0.3145 -0.0534
  426SOL     OW 1276   1.817   3.085   0.668  0.1942 -0.2909  0.2648
  426SOL    HW1 1277   1.821   2.991   0.717  1.4599 -1.4008 -1.8096
  426SOL    HW2 1278   1.907   0.004   0.665 -0.1023 -3.3949  0.3579
  427SOL     OW 1279   0.992   0.737   2.909  0.0406  0.0056 -0.3523
  427SOL    HW1 1280   0.953   0.719   3.003 -0.8718 -2.4422 -2.4862
  427SOL    HW2 1281   0.970   0.830   2.879  1.6322  1.4855  0.7418
  428SOL     OW 1282   1.858   1.177   0.162 -0.1140 -1.1768 -0.3249
  428SOL    HW1 1283   1.768   1.202   0.117 -0.2858  0.8240  1.0370
  428SOL    HW2 1284   1.896   1.080   0.144  2.2650  1.3314  0.6477
  429SOL     OW 1285   3.117   2.933   0.588 -0.1425  0.2926 -0.0594
  429SOL    HW1 1286   0.079   2.943   0.645 -0.4843  0.1789  0.2970
  429SOL    HW2 1287   0.006   2.971   0.495  1.2559 -0.5382  1.7972
  430SOL     OW 1288   0.421   2.923   2.218 -0.2382 -0.3682  0.0644
  430SOL    HW1 1289   0.415   2.850   2.289 -0.3307 -0.1290  0.7476
  430SOL    HW2 1290   0.505   2.913   2.162  0.3548 -3.6598 -2.8668
  431SOL     OW 1291   2.665   1.212   1.203 -0.3689 -0.0333  0.4171
  431SOL    HW1 1292   2.579   1.256   1.175  1.4272  0.5627  1.5921
  431SOL    HW2 1293   2.682   1.227   1.303  1.6937 -0.5219 -1.8633
  432SOL     OW 1294   2.021   2.498   2.144  0.5548 -0.2717  0.2679
  432SOL    HW1 1295   1.925   2.529   2.131 -1.9419  0.9543 -0.6738
  432SOL    HW2 1296   2.028   2.403   2.106 -0.3098 -2.5197 -1.3725
  433SOL     OW 1297   1.270   2.379   0.825  0.5726 -0.4643  0.2085
  433SOL    HW1 1298   1.326   2.292   0.834  0.3612 -0.6353 -1.0853
  433SOL    HW2 1299   1.333   2.461   0.831  0.8269  2.7867 -2.7049
  434SOL     OW 1300   0.164   2.224   2.300 -0.5187  0.8924 -0.7121
  434SOL    HW1 1301   0.138   2.152   2.374 -0.1824 -1.3552  0.8203
  434SOL    HW2 1302   0.079   2.254   2.249 -0.1187  1.9198 -1.2971
  435SOL     OW 1303   0.469   0.866   0.298 -0.4441  0.6877  0.6961
  435SOL    HW1 1304   0.412   0.784   0.276 -2.0229  0.1924  0.0664
  435SOL    HW2 1305   0.516   0.902   0.214  0.4663  0.9329 -1.6395
  436SOL     OW 1306   0.496   2.703   1.547  0.3533  0.2128 -0.1149
  436SOL    HW1 1307   0.591   2.673   1.570  1.4684 -0.6006 -1.2665
  436SOL    HW2 1308   0.510   2.783   1.489 -0.7160 -0.5988  1.6716
  437SOL     OW 1309   1.556   2.098   1.563  0.1417 -0.3749 -1.0867
  437SOL    HW1 1310   1.656   2.084   1.559 -2.8559  1.9705  0.1995
  437SOL    HW2 1311   1.544   2.194   1.601  0.4970  0.6045 -2.0658
  438SOL     OW 1312   0.092   1.784   0.619 -0.0044 -0.4003 -0.3166
  438SOL    HW1 1313   0.077   1.687   0.593  0.0177 -0.1170 -2.3514
  438SOL    HW2 1314   3.123   1.823   0.614  3.5179 -0.8215  1.6152
  439SOL     OW 1315   0.016   0.724   0.771 -0.6374 -0.0661 -0.2517
  439SOL    HW1 1316   0.033   0.678   0.861 -0.9705  2.5960  0.1883
  439SOL    HW2 1317   3.069   0.674   0.723  0.5586  0.4636 -1.0854
  440SOL     OW 1318   0.375   2.996   2.704  0.0420  0.2497  0.1771
  440SOL    HW1 1319   0.299   3.002   2.775  0.1598 -2.0547  0.7606
  440SOL    HW2 1320   0.423   2.911   2.721 -0.7333 -0.5688 -0.4917
  441SOL     OW 1321   2.918   0.247   0.615  0.2936 -0.3195  0.5331
  441SOL    HW1 1322   2.972   0.233   0.704  0.4730  1.7031  3.5609
  441SOL    HW2 1323   2.822   0.247   0.640  0.7194 -1.1010  0.5560
  442SOL     OW 1324   1.313   2.219   2.573  0.1270  0.5418  0.1666
  442SOL    HW1 1325   1.307   2.139   2.634 -0.6592 -1.3307  1.0565
  442SOL    HW2 1326   1.387   2.205   2.502  1.1929 -2.7793 -1.0725
  443SOL     OW 1327   0.641   1.255   3.092 -0.4759 -0.0387 -0.0528
  443SOL    HW1 1328   0.622   1.320   3.015 -0.2914  1.2286  0.9590
  443SOL    HW2 1329   0.737   1.223   3.091  1.5210 -1.8439 -0.6176
  444SOL     OW 1330   1.522   1.462   2.290  0.1355 -0.2832  0.2295
  444SOL    HW1 1331   1.461   1.418   2.216 -0.9899  0.0967  0.1301
  444SOL    HW2 1332   1.477   1.436   2.380  0.7392  0.3710  1.0057
  445SOL     OW 1333   0.138   2.989   1.003  0.2709 -0.3232 -0.4713
  445SOL    HW1 1334   0.183   3.080   1.022 -2.4122  0.4478 -1.1821
  445SOL    HW2 1335   0.039   2.997   1.012  3.2375 -0.1340 -0.8093
  446SOL     OW 1336   2.301   0.479   1.241 -0.2081 -0.1797 -0.5938
  446SOL    HW1 1337   2.328   0.498   1.144  0.2458 -0.9642  1.8947
  446SOL    HW2 1338   2.208   0.508   1.264 -4.0879  1.9378 -1.8751
  447SOL     OW 1339   0.212   0.775   2.905 -0.4390 -0.3372 -0.2858
  447SOL    HW1 1340   0.145   0.702   2.913 -1.3691  1.1842  0.5184
  447SOL    HW2 1341   0.175   0.861   2.868 -1.2018 -1.8732 -2.2484
  448SOL     OW 1342   1.384   1.932   1.636  0.0221  0.6728 -0.2702
  448SOL    HW1 1343   1.456   1.989   1.592 -0.0955  3.4692 -0.6614
  448SOL    HW2 1344   1.416   1.895   1.724  2.4603  0.5534 -1.4530
  449SOL     OW 1345   0.908   1.399   0.724  0.4429  0.3380 -0.1080
  449SOL    HW1 1346   0.962   1.465   0.672 -2.5184 -2.5305  0.1917
  449SOL    HW2 1347   0.884   1.431   0.817 -0.3484 -0.3529 -2.3636
  450SOL     OW 1348   2.798   2.090   2.022  0.2531 -0.5614 -0.2522
  450SOL    HW1 1349   2.784   2.133   2.108  1.1513 -0.2512  1.1028
  450SOL    HW2 1350   2.739   2.005   2.008  0.3721  1.4446  1.1088
  451SOL     OW 1351   2.413   1.519   2.883 -0.0403  0.0797 -0.0150
  451SOL    HW1 1352   2.409   1.510   2.986 -0.2895  2.0952  0.9007
  451SOL    HW2 1353   2.341   1.585   2.849  2.4130  2.2854  0.4168
  452SOL     OW 1354   1.599   0.760   1.340 -0.2789 -0.1964  0.0336
  452SOL    HW1 1355   1.525   0.692   1.357  2.4508 -2.4987 -1.0922
  452SOL    HW2 1356   1.614   0.818   1.426 -1.1686  1.5726  2.3083
  453SOL     OW 1357   2.248   1.065   1.686 -0.1993 -0.1106  0.4759
  453SOL    HW1 1358   2.191   1.142   1.650 -0.9515 -2.8388  0.9049
  453SOL    HW2 1359   2.277   1.006   1.613  1.6309  2.5826  5.4057
  454SOL     OW 1360   2.929   0.958   0.151 -0.6515  0.2314 -0.3480
  454SOL    HW1 1361   2.959   0.883   0.088  0.2248  0.8426  1.7869
  454SOL    HW2 1362   2.956   0.936   0.247  1.2449 -0.7664  1.2110
  455SOL     OW 1363   2.679   1.576   1.067  0.2065 -0.3087  0.1473
  455SOL    HW1 1364   2.658   1.630   0.974 -1.3999  0.6747 -3.1332
  455SOL    HW2 1365   2.753   1.622   1.128 -0.2359  1.5981  1.0002
  456SOL     OW 1366   0.824   0.209   1.322 -0.7153 -0.2878 -0.4528
  456SOL    HW1 1367   0.763   0.145   1.372 -0.1128  2.3188 -3.4237
  456SOL    HW2 1368   0.765   0.267   1.268 -1.0732 -2.4939  3.0121
  457SOL     OW 1369   1.737   3.007   1.021 -0.2417 -0.1553  0.0319
  457SOL    HW1 1370   1.692   3.050   1.099 -0.7811 -0.3388 -1.2734
  457SOL    HW2 1371   1.707   3.043   0.931 -0.8951 -1.9024 -1.2827
  458SOL     OW 1372   2.441   0.364   0.581 -0.0868  0.3219 -0.1606
  458SOL    HW1 1373   2.454   0.455   0.534  1.7171  2.0518  1.0419
  458SOL    HW2 1374   2.386   0.301   0.524 -2.5511  2.2371 -1.1951
  459SOL     OW 1375   1.735   0.769   0.153  0.0455  0.0678  0.0744
  459SOL    HW1 1376   1.722   0.681   0.199 -1.2215 -1.5505 -1.9960
  459SOL    HW2 1377   1.646   0.801   0.109 -0.6158  0.6760  0.4394
  460SOL     OW 1378   0.113   2.537   2.699  0.0399 -0.7328  0.4027
  460SOL    HW1 1379   0.015   2.546   2.675  0.9965 -0.2388  3.7489
  460SOL    HW2 1380   0.134   2.590   2.785  0.8876 -1.4381 -3.2482
  461SOL     OW 1381   0.600   1.714   0.170 -0.1888 -0.5286  0.4612
  461SOL    HW1 1382   0.550   1.637   0.211  0.6807 -1.6891 -0.5344
  461SOL    HW2 1383   0.580   1.719   0.070 -3.4066  1.9237 -2.4635
  462SOL     OW 1384   1.995   2.504   0.537 -0.0827  0.0158  0.6300
  462SOL    HW1 1385   2.037   2.420   0.570  1.2783  2.0182 -0.7517
  462SOL    HW2 1386   2.005   2.581   0.599 -1.1744 -2.7987 -2.4903
  463SOL     OW 1387   0.023   0.644   0.226 -0.2119 -0.1295  0.0597
  463SOL    HW1 1388   0.042   0.651   0.326 -0.9480  0.4162  0.2418
  463SOL    HW2 1389   3.050   0.660   0.201 -1.1359  2.1376 -0.9073
  464SOL     OW 1390   0.650   2.560   0.483 -0.4473  0.5029  0.3422
  464SOL    HW1 1391   0.583   2.558   0.564  1.1627  0.2607  1.6584
  464SOL    HW2 1392   0.628   2.482   0.421  0.2115 -0.4043  0.3355
  465SOL     OW 1393   2.407   0.596   0.475  0.1343 -0.1164 -0.2508
  465SOL    HW1 1394   2.312   0.557   0.471  2.1576 -2.8843 -1.4600
  465SOL    HW2 1395   2.413   0.688   0.435  0.5576 -2.4510 -0.6362
  466SOL     OW 1396   2.113   0.114   0.263  0.5766  0.7591 -0.3164
  466SOL    HW1 1397   2.193   0.140   0.321 -0.4872 -0.1624 -2.1427
  466SOL    HW2 1398   2.099   0.014   0.268  0.7853  0.3940  0.2625
  467SOL     OW 1399   1.170   0.492   1.950 -0.6091 -0.1406  0.2946
  467SOL    HW1 1400   1.138   0.514   2.045  1.4070 -0.2754  1.4963
  467SOL    HW2 1401   1.223   0.569   1.914  0.2033 -0.1624 -0.1339
  468SOL     OW 1402   2.922   0.770   2.179  0.7678 -0.2647 -0.3457
  468SOL    HW1 1403   3.011   0.722   2.167 -1.2626 -1.8521  3.3382
  468SOL    HW2 1404   2.897   0.824   2.099  3.2165 -0.1410  1.7513
  469SOL     OW 1405   0.826   2.565   2.414  0.2973 -0.0671 -0.0620
  469SOL    HW1 1406   0.811   2.473   2.456 -1.5027  0.8784  2.3748
  469SOL    HW2 1407   0.752   2.581   2.344  0.3612 -1.1411  0.7853
  470SOL     OW 1408   1.856   1.297   1.916  0.0001  0.4003 -0.6714
  470SOL    HW1 1409   1.927   1.351   1.872  0.9143 -0.3083  2.5109
  470SOL    HW2 1410   1.877   1.197   1.923  1.1864  1.9007  2.5410
  471SOL     OW 1411   2.728   1.109   0.076  0.2983  0.1131  0.2717
  471SOL    HW1 1412   2.672   1.045   0.017  0.2987  1.0307 -1.9021
  471SOL    HW2 1413   2.804   1.052   0.119  2.7221 -1.7899  1.5062
  472SOL     OW 1414   0.387   2.848   0.591 -0.4662 -0.3053  0.3841
  472SOL    HW1 1415   0.410   2.782   0.663 -1.7308  1.2998  2.2268
  472SOL    HW2 1416   0.358   2.805   0.500  1.7968 -2.0017 -2.4809
  473SOL     OW 1417   0.981   2.772   2.449  0.2764  0.0752  0.4045
  473SOL    HW1 1418   0.923   2.686   2.438 -2.3162  0.3921  2.2419
  473SOL    HW2 1419   0.929   2.837   2.506  2.2490  0.8554 -0.9160
  474SOL     OW 1420   1.420   0.112   2.026  0.0169 -0.7095 -0.4329
  474SOL    HW1 1421   1.447   0.130   2.121  2.3677  1.4355 -0.7076
  474SOL    HW2 1422   1.318   0.099   2.018  2.8715  1.5607  1.7050
  475SOL     OW 1423   0.847   2.442   0.155 -0.5290  0.1642  0.0296
  475SOL    HW1 1424   0.893   2.526   0.192  0.7642  1.2494  2.1784
  475SOL    HW2 1425   0.763   2.417   0.213 -1.2857 -1.0757  0.8438
  476SOL     OW 1426   0.596   0.512   0.889 -0.1301  0.1334  0.0680
  476SOL    HW1 1427   0.675   0.526   0.822 -0.9184 -0.9153 -0.6862
  476SOL    HW2 1428   0.530   0.586   0.875 -0.5681 -2.8821  0.8902
  477SOL     OW 1429   1.856   1.853   1.333 -0.1517 -0.1691 -0.4643
  477SOL    HW1 1430   1.757   1.854   1.360  1.1156  0.8873  0.7382
  477SOL    HW2 1431   1.865   1.802   1.245 -0.3211 -2.8067 -2.7913
  478SOL     OW 1432   0.232   1.028   2.756  0.5378 -0.3652 -0.2103
  478SOL    HW1 1433   0.308   1.098   2.762  0.3501 -0.6456 -0.0356
  478SOL    HW2 1434   0.161   1.041   2.826  1.2759 -2.2265  0.3573
  479SOL     OW 1435   0.538   0.045   0.835 -0.4537  0.0737 -0.1031
  479SOL    HW1 1436   0.529   3.125   0.744 -1.5097  1.1755 -0.8611
  479SOL    HW2 1437   0.507   0.142   0.833 -0.3146  1.7877  1.7811
  480SOL     OW 1438   2.606   2.536   0.077 -0.1452  0.4376 -0.4749
  480SOL    HW1 1439   2.650   2.601   0.012  1.7220  0.8951 -0.9384
  480SOL    HW2 1440   2.615   2.440   0.039  1.6529 -2.7457  0.8558
  481SOL     OW 1441   2.663   0.703   1.109 -0.2488 -0.0417 -0.1057
  481SOL    HW1 1442   2.737   0.760   1.063  0.7279  0.6705  0.3870
  481SOL    HW2 1443   2.712   0.631   1.165 -0.6351 -0.5041  1.9781
  482SOL     OW 1444   1.448   2.503   1.633 -0.1907  0.1283 -0.2877
  482SOL    HW1 1445   1.538   2.471   1.594  0.7919  2.2146  0.0661
  482SOL    HW2 1446   1.416   2.452   1.714 -1.4165 -0.3772 -1.2776
  483SOL     OW 1447   0.337   1.557   0.037  0.1625 -0.4124 -0.1536
  483SOL    HW1 1448   0.267   1.628   0.013 -2.7252 -1.3259  0.3046
  483SOL    HW2 1449   0.322   1.470   3.113 -0.4299  1.9141 -2.8241
  484SOL     OW 1450   1.352   1.853   2.408 -0.2086  0.2530  0.3994
  484SOL    HW1 1451   1.313   1.759   2.395  2.1306  0.8590 -1.4012
  484SOL    HW2 1452   1.383   1.892   2.319  0.8500  2.4556 -0.3828
  485SOL     OW 1453   0.245   0.518   2.205  0.0665 -0.5916  0.1087
  485SOL    HW1 1454   0.187   0.443   2.252  0.6575 -2.6281  0.0695
  485SOL    HW2 1455   0.310   0.470   2.140 -0.3030 -0.3621  0.2764
  486SOL     OW 1456   1.276   3.116   0.551  0.2972 -0.6765 -0.1002
  486SOL    HW1 1457   1.277   0.031   0.642  0.1007 -0.7250 -2.6173
  486SOL    HW2 1458   1.370   3.081   0.523 -1.0938 -1.5382  0.1822
  487SOL     OW 1459   1.479   2.972   0.863  0.2829  0.1548 -0.0523
  487SOL    HW1 1460   1.382   2.993   0.881 -0.0777  1.4745 -1.6701
  487SOL    HW2 1461   1.490   2.960   0.762 -1.3250  2.1609 -0.1340
  488SOL     OW 1462   2.109   0.845   0.998  0.4459  0.1487  0.3266
  488SOL    HW1 1463   2.182   0.915   1.009 -0.6734 -0.6167  1.0779
  488SOL    HW2 1464   2.124   0.806   0.904  0.4452 -1.4243 -3.4462
  489SOL     OW 1465   1.357   2.722   1.232 -0.0299  0.0743 -0.2310
  489SOL    HW1 1466   1.390   2.721   1.330  1.3018  3.6559  0.3917
  489SOL    HW2 1467   1.324   2.630   1.206 -0.6084  1.3745  0.1712
  490SOL     OW 1468   0.853   0.769   0.427 -0.2479  0.1051  0.2142
  490SOL    HW1 1469   0.853   0.859   0.470  3.3162 -0.2022  0.6098
  490SOL    HW2 1470   0.946   0.728   0.442  0.6316  0.0850  2.2716
  491SOL     OW 1471   1.069   2.770   0.023 -0.0031 -0.1169 -0.1761
  491SOL    HW1 1472   1.037   2.713   0.104  0.6344 -2.4007 -0.8573
  491SOL    HW2 1473   1.162   2.755   0.003 -1.1371  1.5641 -0.1367
  492SOL     OW 1474   1.231   1.175   2.156  0.1346 -0.1516  0.4479
  492SOL    HW1 1475   1.293   1.253   2.124  1.3550  1.2852  1.6304
  492SOL    HW2 1476   1.153   1.162   2.094  1.2284  1.9228  0.5349
  493SOL     OW 1477   3.024   1.991   0.155 -0.1406  0.4508 -0.2291
  493SOL    HW1 1478   3.100   2.020   0.092 -0.7504 -1.5455 -0.3162
  493SOL    HW2 1479   2.930   1.993   0.110 -3.1251  1.7980  1.9568
  494SOL     OW 1480   2.023   1.423   0.582  0.0533  0.3742 -0.0910
  494SOL    HW1 1481   1.931   1.461   0.616 -0.5986 -0.2456  1.2282
  494SOL    HW2 1482   2.009   1.374   0.492  0.4597 -0.1376 -2.4853
  495SOL     OW 1483   0.145   1.105   2.473 -0.1479 -0.0209 -0.6538
  495SOL    HW1 1484   0.121   1.015   2.443 -0.9090  0.8048 -0.2767
  495SOL    HW2 1485   0.142   1.111   2.575  0.3855  1.7200  0.9154
  496SOL     OW 1486   2.969   3.116   2.285  0.5108 -0.5728  0.1747
  496SOL    HW1 1487   2.874   3.076   2.269  2.1075  0.6855  3.5190
  496SOL    HW2 1488   3.034   3.035   2.296 -0.4751 -0.7647 -1.5041
  497SOL     OW 1489   2.204   0.886   0.508  0.1205 -1.1602 -0.0952
  497SOL    HW1 1490   2.204   0.891   0.405  0.0793  1.8880 -2.4259
  497SOL    HW2 1491   2.112   0.856   0.545 -0.2774  3.1014  1.7013
  498SOL     OW 1492   3.005   2.602   3.077  0.0943  0.4616  0.3269
  498SOL    HW1 1493   2.916   2.594   3.021  1.2125  0.9458 -1.2594
  498SOL    HW2 1494   3.076   2.651   3.021 -0.3304 -0.7202  0.0554
  499SOL     OW 1495   1.644   2.697   0.666  0.3026  0.3365  0.4356
  499SOL    HW1 1496   1.651   2.746   0.572  1.6804 -1.7582 -2.2550
  499SOL    HW2 1497   1.660   2.598   0.665 -2.8042  2.2588  2.0602
  500SOL     OW 1498   1.329   0.705   2.577  0.0258  0.6609 -0.3781
  500SOL    HW1 1499   1.307   0.636   2.509  1.4670  1.1120  1.1974
  500SOL    HW2 1500   1.420   0.735   2.553 -4.2638 -1.2841  0.3565
  501SOL     OW 1501   1.063   0.164   1.144 -0.1609 -0.3555  0.3687
  501SOL    HW1 1502   1.089   0.080   1.092 -1.7258  0.8173  0.3726
  501SOL    HW2 1503   0.999   0.141   1.222  0.0514 -0.0071 -1.9858
  502SOL     OW 1504   3.085   0.176   2.120 -0.2674 -0.3050 -0.4455
  502SOL    HW1 1505   3.048   0.101   2.185 -1.9507 -3.2977  1.8756
  502SOL    HW2 1506   3.056   0.148   2.024  2.6738 -1.4719 -2.9979
  503SOL     OW 1507   1.569   2.465   2.295  0.1962 -0.1557  0.3281
  503SOL    HW1 1508   1.656   2.468   2.253 -0.3332 -0.8981 -0.6724
  503SOL    HW2 1509   1.549   2.364   2.306 -0.3737 -1.5829  2.4307
  504SOL     OW 1510   2.075   0.120   1.851 -0.4535 -0.6875 -0.4697
  504SOL    HW1 1511   2.167   0.102   1.802 -0.2682  0.3601 -0.8808
  504SOL    HW2 1512   1.999   0.104   1.782 -0.9232 -1.6461  1.3488
  505SOL     OW 1513   2.656   1.186   1.511  0.3977 -0.0185 -0.1202
  505SOL    HW1 1514   2.669   1.085   1.494  3.0988 -0.0787  0.0477
  505SOL    HW2 1515   2.722   1.220   1.582  2.5920  2.4903  0.0887
  506SOL     OW 1516   0.333   1.390   2.090  0.5538  0.3991 -0.2096
  506SOL    HW1 1517   0.306   1.369   2.186 -1.2699  0.6454  1.4399
  506SOL    HW2 1518   0.274   1.336   2.029  1.3557  0.9770  1.0001
  507SOL     OW 1519   0.257   2.982   1.282 -0.2838 -0.5076  0.1753
  507SOL    HW1 1520   0.209   2.999   1.196  0.6622 -0.8499  2.9804
  507SOL    HW2 1521   0.192   2.948   1.350  1.6046  0.7383 -1.2618
  508SOL     OW 1522   1.342   0.604   1.324 -0.5184  0.1848 -0.2497
  508SOL    HW1 1523   1.325   0.658   1.235 -0.0139  2.4155  0.1528
  508SOL    HW2 1524   1.323   0.507   1.304  1.9834 -0.0310 -0.9529
  509SOL     OW 1525   1.339   2.171   1.342  0.2669 -0.1886 -0.4349
  509SOL    HW1 1526   1.436   2.176   1.377  1.0248  1.5798 -0.5058
  509SOL    HW2 1527   1.281   2.200   1.424 -0.4815 -1.5381  0.6297
  510SOL     OW 1528   2.945   1.441   3.099 -0.0481  0.2054  0.3041
  510SOL    HW1 1529   2.843   1.426   3.099  0.7503 -1.1759  2.5591
  510SOL    HW2 1530   2.988   1.373   0.036  0.7570 -2.3195 -0.0843
  511SOL     OW 1531   0.549   1.352   1.377  0.0968  0.3998 -0.1862
  511SOL    HW1 1532   0.535   1.268   1.328  1.1925  1.5952 -1.5161
  511SOL    HW2 1533   0.565   1.427   1.312  0.4238 -0.5596  2.7087
  512SOL     OW 1534   2.974   2.443   0.509 -0.1334 -0.5377 -0.1988
  512SOL    HW1 1535   3.052   2.379   0.514 -0.1850  2.8608 -0.1986
  512SOL    HW2 1536   2.924   2.429   0.424 -2.7549 -2.1478  0.7675
  513SOL     OW 1537   0.683   1.668   2.814  0.7386  0.3575  0.4233
  513SOL    HW1 1538   0.781   1.688   2.824  1.1576  2.1187  3.0861
  513SOL    HW2 1539   0.645   1.702   2.726 -1.4005  1.9936 -0.4023
  514SOL     OW 1540   0.089   2.275   2.737 -0.6902 -0.0953 -0.1253
  514SOL    HW1 1541   0.183   2.263   2.773 -3.6657 -0.2665  0.7962
  514SOL    HW2 1542   0.074   2.374   2.717 -1.2222 -1.3774 -0.3053
  515SOL     OW 1543   1.625   1.085   1.975 -0.1664  0.1979 -0.7517
  515SOL    HW1 1544   1.708   1.026   1.983  2.2463  0.6587 -1.1506
  515SOL    HW2 1545   1.573   1.079   1.889 -0.2225 -1.0640 -0.8919
  516SOL     OW 1546   1.984   2.431   0.208  0.4708 -0.3053  0.0842
  516SOL    HW1 1547   2.021   2.460   0.121  1.4301  2.3950 -0.9780
  516SOL    HW2 1548   2.054   2.384   0.261 -0.9327  1.3398 -1.7032
  517SOL     OW 1549   1.064   1.629   0.607  0.1175  0.1646  0.1748
  517SOL    HW1 1550   1.073   1.706   0.536  0.3562  1.1302 -1.8160
  517SOL    HW2 1551   1.129   1.550   0.594  1.2464  2.4075 -1.3687
  518SOL     OW 1552   2.256   2.286   1.962 -0.0407 -0.4332 -0.1620
  518SOL    HW1 1553   2.251   2.370   1.908 -2.3967 -0.9022  1.0930
  518SOL    HW2 1554   2.168   2.271   2.000  3.3898 -0.3062 -1.6945
  519SOL     OW 1555   1.921   2.552   0.928 -0.2393 -0.4570 -0.0099
  519SOL    HW1 1556   2.000   2.550   0.991 -0.6631  1.4875 -3.0028
  519SOL    HW2 1557   1.951   2.592   0.839  1.2326  1.7695  0.1622
  520SOL     OW 1558   2.749   2.438   2.536  0.2934 -0.3705  0.1921
  520SOL    HW1 1559   2.685   2.491   2.473 -0.0327 -2.1545 -0.2627
  520SOL    HW2 1560   2.805   2.379   2.478  0.5984  2.3736  0.5557
  521SOL     OW 1561   2.961   1.125   2.511 -0.1640  0.3390 -0.5738
  521SOL    HW1 1562   3.009   1.204   2.472 -1.2956 -1.2329  1.0315
  521SOL    HW2 1563   2.886   1.086   2.459 -0.2648  0.8693 -1.6337
  522SOL     OW 1564   0.679   0.442   2.066  0.1867  0.2898  0.1601
  522SOL    HW1 1565   0.638   0.422   1.978 -0.8787 -0.5495  1.8670
  522SOL    HW2 1566   0.658   0.534   2.102 -0.8598 -3.1338 -0.1350
  523SOL     OW 1567   0.570   1.961   1.124  0.0558  0.7673 -0.8757
  523SOL    HW1 1568   0.549   2.030   1.194 -1.4079  1.0222 -0.6366
  523SOL    HW2 1569   0.582   1.996   1.031  0.7117 -0.7113 -0.1795
  524SOL     OW 1570   1.659   2.784   0.404 -0.6998  0.3810  0.2211
  524SOL    HW1 1571   1.728   2.854   0.378 -1.0067 -0.1240 -2.3186
  524SOL    HW2 1572   1.701   2.687   0.388  0.9608  0.0697 -2.9767
  525SOL     OW 1573   2.168   0.893   1.433 -0.4462  0.4539  0.3432
  525SOL    HW1 1574   2.217   0.862   1.347 -0.5629 -1.1145 -0.8240
  525SOL    HW2 1575   2.111   0.974   1.406  0.7557  0.2936 -2.7061
  526SOL     OW 1576   0.923   2.511   0.626  0.1716 -0.2728 -0.3768
  526SOL    HW1 1577   0.935   2.612   0.645 -0.3384 -2.1555 -0.3651
  526SOL    HW2 1578   0.847   2.502   0.560  0.3027 -0.6891  0.6027
  527SOL     OW 1579   2.376   2.624   0.662  0.0573  0.6066 -0.0774
  527SOL    HW1 1580   2.474   2.655   0.659 -2.5893  0.9364 -1.5301
  527SOL    HW2 1581   2.337   2.618   0.571  1.0153 -0.7771 -1.8845
  528SOL     OW 1582   1.750   0.521   0.241  0.3145 -0.4267  0.0470
  528SOL    HW1 1583   1.779   0.503   0.338  0.1866 -1.2432 -1.1759
  528SOL    HW2 1584   1.676   0.466   0.212  1.2658 -2.0132  1.7843
  529SOL     OW 1585   1.609   1.570   2.692  0.2026  0.5232  0.2160
  529SOL    HW1 1586   1.571   1.549   2.783  0.6004  1.0408 -5.1022
  529SOL    HW2 1587   1.655   1.483   2.661 -1.0575  0.2619 -0.2863
  530SOL     OW 1588   2.349   0.432   0.212 -0.2146 -0.2761 -0.0456
  530SOL    HW1 1589   2.334   0.521   0.164  0.4150  2.4184 -0.0565
  530SOL    HW2 1590   2.448   0.407   0.201  0.6796  0.0379 -0.0063
  531SOL     OW 1591   1.634   0.891   2.839 -0.2456  0.0196  0.0657
  531SOL    HW1 1592   1.686   0.803   2.830  2.3653 -0.3291 -1.4394
  531SOL    HW2 1593   1.573   0.898   2.924  1.3280 -2.0817  0.5367
  532SOL     OW 1594   1.717   0.543   0.524  0.0399  0.4086 -0.3009
  532SOL    HW1 1595   1.733   0.467   0.586  1.2358 -2.3234  1.9680
  532SOL    HW2 1596   1.723   0.631   0.576  2.8963 -1.5984 -0.1935
  533SOL     OW 1597   0.565   1.087   2.244  0.0679 -0.9839  0.3831
  533SOL    HW1 1598   0.520   1.093   2.149  0.2581 -1.5816 -2.9027
  533SOL    HW2 1599   0.642   1.020   2.248 -0.5068 -2.0852  0.0981
  534SOL     OW 1600   1.503   0.134   2.292  0.1805  1.1891  0.2157
  534SOL    HW1 1601   1.470   0.214   2.345  0.1675  0.7125 -2.6463
  534SOL    HW2 1602   1.602   0.118   2.312  0.9756 -0.5411 -1.6376
  535SOL     OW 1603   0.180   3.026   2.889  0.5056 -0.0255 -0.4838
  535SOL    HW1 1604   0.095   3.017   2.833  0.5939 -0.0515  1.6099
  535SOL    HW2 1605   0.198   3.118   2.923 -1.7062 -0.0171 -1.8534
  536SOL     OW 1606   0.475   0.311   0.764 -0.4161 -0.6693 -0.0785
  536SOL    HW1 1607   0.499   0.344   0.672  1.3356 -2.0155  0.9309
  536SOL    HW2 1608   0.515   0.386   0.827  2.0025  0.5930 -1.7728
  537SOL     OW 1609   1.500   0.559   0.367 -0.5899  0.1673  0.0624
  537SOL    HW1 1610   1.557   0.539   0.447  1.4463  0.4990 -0.6845
  537SOL    HW2 1611   1.480   0.660   0.361 -0.9358  0.5258  2.0154
  538SOL     OW 1612   2.787   2.310   3.116  0.2228 -0.1284  0.5164
  538SOL    HW1 1613   2.748   2.315   3.020  1.2932 -0.2274 -0.9393
  538SOL    HW2 1614   2.805   2.210   0.004 -2.9713 -1.9742  1.6816
  539SOL     OW 1615   2.063   1.859   0.135 -0.2272 -0.2666 -0.2016
  539SOL    HW1 1616   1.966   1.873   0.168 -0.0019  0.3913  1.2994
  539SOL    HW2 1617   2.068   1.833   0.040  1.7783  0.1250  3.6129
  540SOL     OW 1618   0.815   2.555   1.451 -0.4683 -0.0738  0.2430
  540SOL    HW1 1619   0.819   2.464   1.489  1.1130  3.1835 -0.5811
  540SOL    HW2 1620   0.733   2.561   1.384 -0.2675 -2.1759  1.7752
  541SOL     OW 1621   1.902   0.078   2.077  0.1003 -0.2939 -0.3441
  541SOL    HW1 1622   1.976   0.079   2.013 -3.0208 -2.0033 -1.1550
  541SOL    HW2 1623   1.816   0.114   2.033  1.1894 -0.4208  1.9986
  542SOL     OW 1624   0.246   0.820   2.529  0.2370  0.3405  0.0918
  542SOL    HW1 1625   0.179   0.743   2.545 -3.1453 -0.3552  1.0090
  542SOL    HW2 1626   0.257   0.876   2.610  1.9944  0.1322 -2.7285
  543SOL     OW 1627   0.315   0.856   1.312  0.1549  0.3107 -0.2582
  543SOL    HW1 1628   0.318   0.848   1.209 -0.8723  0.3068 -0.4784
  543SOL    HW2 1629   0.242   0.928   1.336  1.3046  3.7709  0.5408
  544SOL     OW 1630   2.455   0.548   0.999 -0.3233 -0.0689  0.1125
  544SOL    HW1 1631   2.521   0.594   1.062 -1.3809 -1.5653 -2.4807
  544SOL    HW2 1632   2.428   0.617   0.930 -4.7069 -1.1813 -2.2369
  545SOL     OW 1633   1.628   2.190   0.620  0.3229 -0.0556 -0.2496
  545SOL    HW1 1634   1.623   2.093   0.593  1.0581  1.6949  0.0512
  545SOL    HW2 1635   1.586   2.214   0.710 -0.7956  2.8343 -0.7531
  546SOL     OW 1636   2.103   2.710   1.744  0.1445  0.1306 -0.4888
  546SOL    HW1 1637   2.163   2.783   1.709 -2.0918 -0.6653 -0.8668
  546SOL    HW2 1638   2.008   2.734   1.718 -3.9729 -3.9793 -0.6256
  547SOL     OW 1639   0.469   0.113   2.621 -0.0836  0.1005  0.1515
  547SOL    HW1 1640   0.566   0.124   2.656  1.8134  0.2317  4.8776
  547SOL    HW2 1641   0.435   0.020   2.644 -0.2361  0.5926 -3.3927
  548SOL     OW 1642   1.939   0.934   0.095 -0.5181  0.5009 -0.5565
  548SOL    HW1 1643   1.997   0.914   0.010 -2.1350  0.9105  0.9163
  548SOL    HW2 1644   1.867   0.867   0.112  0.8207  1.0776  2.5018
  549SOL     OW 1645   3.049   0.887   0.384  0.6792 -0.4791  0.4886
  549SOL    HW1 1646   3.113   0.818   0.428 -1.4530  2.4656 -0.6123
  549SOL    HW2 1647   2.978   0.921   0.449  0.1127  0.7667  1.1526
  550SOL     OW 1648   1.956   1.954   0.755  0.0391  0.7718  0.2008
  550SOL    HW1 1649   1.898   1.893   0.700  0.2893  0.1376 -2.6854
  550SOL    HW2 1650   1.995   1.909   0.833  1.5536  0.2899 -0.7592
  551SOL     OW 1651   1.293   0.135   0.786  0.3708 -0.3036 -0.0831
  551SOL    HW1 1652   1.359   0.162   0.862  0.5567 -0.3018  0.3650
  551SOL    HW2 1653   1.215   0.200   0.773 -1.0244 -1.6763  0.7850
  552SOL     OW 1654   0.024   2.917   2.342 -0.0706 -0.8098  0.1047
  552SOL    HW1 1655   0.111   2.941   2.392 -0.9902  3.1647  2.3996
  552SOL    HW2 1656   0.030   2.844   2.270 -0.3619 -0.2437  0.5579
  553SOL     OW 1657   0.250   3.022   2.439  0.6326 -0.1931  0.0409
  553SOL    HW1 1658   0.280   2.998   2.530  0.1815 -1.0472 -3.2458
  553SOL    HW2 1659   0.322   3.011   2.366  0.6832  1.0352 -2.4307
  554SOL     OW 1660   0.697   3.059   1.236 -0.0029 -0.2458  0.0068
  554SOL    HW1 1661   0.765   3.114   1.170  1.9601  2.6503  1.3725
  554SOL    HW2 1662   0.732   3.077   1.330 -1.0667 -0.3034  0.6165
  555SOL     OW 1663   2.627   2.541   2.323  0.6618 -0.1998 -0.0803
  555SOL    HW1 1664   2.615   2.642   2.338  2.3732  2.1064 -0.0056
  555SOL    HW2 1665   2.550   2.494   2.270  0.5726 -1.3208 -0.4947
  556SOL     OW 1666   1.305   0.358   2.720  0.4139  0.1039  0.3841
  556SOL    HW1 1667   1.219   0.410   2.746 -3.8499  0.2999 -0.5324
  556SOL    HW2 1668   1.280   0.260   2.707 -2.3901  0.6492  1.9394
  557SOL     OW 1669   0.579   1.619   2.340 -0.4540  0.7464 -0.3871
  557SOL    HW1 1670   0.486   1.657   2.344  0.4132  0.9523  1.4942
  557SOL    HW2 1671   0.571   1.519   2.350 -0.4628  0.8933 -0.0561
  558SOL     OW 1672   2.336   0.898   2.781  0.0324 -0.2985  0.6785
  558SOL    HW1 1673   2.426   0.926   2.744 -3.1225  0.7496  0.1622
  558SOL    HW2 1674   2.254   0.922   2.726 -0.5000  0.0587  1.3079
  559SOL     OW 1675   2.460   2.242   2.328  0.0022  0.0618 -0.4150
  559SOL    HW1 1676   2.409   2.157   2.329  0.9122 -0.8217 -1.0454
  559SOL    HW2 1677   2.449   2.294   2.415  0.3327  0.6743 -2.3460
  560SOL     OW 1678   2.598   0.915   2.150  0.1456 -0.5084  0.3640
  560SOL    HW1 1679   2.546   0.990   2.100 -0.1145  0.2050 -0.4380
  560SOL    HW2 1680   2.629   0.844   2.081 -1.1412  0.9256 -0.1503
  561SOL     OW 1681   0.077   0.161   2.947 -0.1565 -0.3429  0.1867
  561SOL    HW1 1682   0.096   0.187   2.851  0.1163 -0.7503 -0.0743
  561SOL    HW2 1683   3.107   0.128   2.958 -1.1917  0.1968 -1.5033
  562SOL     OW 1684   1.055   1.032   1.600 -0.1342 -0.3780 -0.4564
  562SOL    HW1 1685   1.051   0.929   1.609  1.3401  0.0130  0.0912
  562SOL    HW2 1686   0.967   1.070   1.624  2.4745  0.8755 -0.8108
  563SOL     OW 1687   1.574   0.101   2.829  0.0563  0.0264  0.1187
  563SOL    HW1 1688   1.569   0.007   2.864 -0.3162 -0.7965 -0.4068
  563SOL    HW2 1689   1.633   0.103   2.745 -0.0651  0.5750 -0.6069
  564SOL     OW 1690   3.034   2.304   0.946 -0.2470  0.4645  0.2644
  564SOL    HW1 1691   2.950   2.337   0.993 -3.8387  1.3187 -1.6875
  564SOL    HW2 1692   3.062   2.204   0.967  0.9262  0.0021 -0.0093
  565SOL     OW 1693   0.803   2.088   1.911 -0.6578 -0.1115 -0.2801
  565SOL    HW1 1694   0.748   2.112   1.831 -0.6024 -0.4922  1.6264
  565SOL    HW2 1695   0.858   1.999   1.907 -0.8167 -0.3606  1.0497
  566SOL     OW 1696   1.380   2.522   2.097 -0.1499 -0.3246  0.4252
  566SOL    HW1 1697   1.285   2.540   2.132  0.3193 -0.0464 -0.8820
  566SOL    HW2 1698   1.442   2.496   2.174 -0.6631  0.8443  1.4580
  567SOL     OW 1699   2.151   2.546   1.102  0.0358  0.1114  0.2645
  567SOL    HW1 1700   2.129   2.472   1.174 -1.6851 -2.4116  1.7807
  567SOL    HW2 1701   2.212   2.619   1.135  1.4491 -0.0738 -0.3700
  568SOL     OW 1702   1.951   0.803   0.507  0.3749  0.4955 -0.3282
  568SOL    HW1 1703   1.874   0.780   0.562  1.7291  2.3182  0.6786
  568SOL    HW2 1704   1.965   0.736   0.431 -0.0867  0.6728 -4.2035
  569SOL     OW 1705   2.802   1.812   2.659 -0.6087 -0.0917 -0.5150
  569SOL    HW1 1706   2.880   1.859   2.703 -0.1936 -2.3589  0.1579
  569SOL    HW2 1707   2.810   1.711   2.675 -0.5714 -1.6237 -0.7188
  570SOL     OW 1708   2.876   3.083   1.305 -0.3558  0.1154  0.4624
  570SOL    HW1 1709   2.950   0.008   1.352 -0.8065 -1.8480  1.2614
  570SOL    HW2 1710   2.792   0.013   1.284 -0.6633  1.0650 -1.9224
  571SOL     OW 1711   2.920   0.438   1.773  0.4525 -0.2680 -0.3569
  571SOL    HW1 1712   2.991   0.419   1.842 -0.3124 -1.1036 -2.3650
  571SOL    HW2 1713   2.887   0.533   1.778  0.4255  0.9468  0.8924
  572SOL     OW 1714   0.029   2.532   1.092 -0.4705  0.0259 -0.3791
  572SOL    HW1 1715   0.009   2.442   1.056  0.4754  2.2660  1.1828
  572SOL    HW2 1716   0.070   2.517   1.185  2.7578 -0.0212 -2.0296
  573SOL     OW 1717   0.892   0.682   0.023 -0.0733  0.3048  0.2351
  573SOL    HW1 1718   0.853   0.752   0.086  0.2091 -0.5628 -3.2354
  573SOL    HW2 1719   0.875   0.589   0.056 -0.4724  4.4484 -2.5477
  574SOL     OW 1720   2.762   2.676   2.953  0.1619 -0.0117 -0.1026
  574SOL    HW1 1721   2.720   2.618   2.878 -2.2712  0.3361  0.3125
  574SOL    HW2 1722   2.753   2.776   2.937 -1.7897 -1.0195 -0.5769
  575SOL     OW 1723   1.554   2.405   1.266  0.4840  0.2733 -0.2632
  575SOL    HW1 1724   1.454   2.417   1.247  1.4487 -1.6066 -0.4142
  575SOL    HW2 1725   1.610   2.450   1.194 -1.5347 -1.9106  0.3292
  576SOL     OW 1726   1.045   2.625   1.075  0.2116  0.1397  0.6199
  576SOL    HW1 1727   1.076   2.554   1.135  1.4354  0.3687 -1.0363
  576SOL    HW2 1728   0.961   2.672   1.107  0.8548 -2.3859  0.0822
  577SOL     OW 1729   2.430   1.309   0.893 -0.4310  0.0796  0.6805
  577SOL    HW1 1730   2.340   1.284   0.858 -1.2276  0.2791 -0.2114
  577SOL    HW2 1731   2.500   1.238   0.865  0.6653 -0.1112 -0.9814
  578SOL     OW 1732   1.485   0.290   0.631  0.2293 -0.3187 -0.6005
  578SOL    HW1 1733   1.501   0.255   0.541 -0.8594  2.3903  2.0145
  578SOL    HW2 1734   1.436   0.216   0.686 -0.0349 -0.4643  0.8899
  579SOL     OW 1735   2.416   0.727   2.994  0.3005 -0.5487  0.3619
  579SOL    HW1 1736   2.410   0.630   2.972 -0.8800  0.4319 -0.2530
  579SOL    HW2 1737   2.406   0.785   2.908  1.1801  3.6198 -2.6370
  580SOL     OW 1738   1.895   0.739   1.876 -0.2276  0.1210  0.0982
  580SOL    HW1 1739   1.950   0.820   1.859 -1.7683 -2.5242 -0.7324
  580SOL    HW2 1740   1.847   0.745   1.966 -3.0440  1.1313 -1.0555
  581SOL     OW 1741   0.329   0.981   1.017 -0.1913 -0.5851  0.4173
  581SOL    HW1 1742   0.385   1.062   1.057 -0.9044  0.8951  1.8819
  581SOL    HW2 1743   0.399   0.912   0.997 -0.5737  0.4713 -1.9512
  582SOL     OW 1744   2.750   0.048   1.914 -0.6221  0.1571 -0.0581
  582SOL    HW1 1745   2.746   0.008   2.008 -0.3490 -1.6140 -0.5348
  582SOL    HW2 1746   2.678   0.116   1.892  0.6357 -1.1777  0.1650
  583SOL     OW 1747   3.117   0.395   1.949  0.1656 -0.3380  0.0050
  583SOL    HW1 1748   3.094   0.332   2.018  0.2033  2.8613 -3.5554
  583SOL    HW2 1749   0.088   0.385   1.913 -0.4522  1.3870  1.6557
  584SOL     OW 1750   1.512   2.185   2.945  0.5532 -0.1705  0.1616
  584SOL    HW1 1751   1.563   2.193   3.030 -2.3675  1.2205 -0.7897
  584SOL    HW2 1752   1.545   2.103   2.898 -0.4870  1.9366 -0.5291
  585SOL     OW 1753   0.068   2.732   2.891  0.3981  0.2171  0.0965
  585SOL    HW1 1754   0.129   2.768   2.965  0.2368 -0.0080  1.7093
  585SOL    HW2 1755   0.016   2.806   2.842  0.7882 -0.9621  0.5452
  586SOL     OW 1756   1.939   1.709   2.411  0.2659 -0.4622  0.1243
  586SOL    HW1 1757   1.851   1.695   2.359  0.5560  0.7018 -0.7171
  586SOL    HW2 1758   2.004   1.640   2.374  0.2808 -1.0628  0.0328
  587SOL     OW 1759   2.361   2.386   0.265 -0.7114 -0.2519 -0.1613
  587SOL    HW1 1760   2.413   2.365   0.181 -0.2166 -2.1965 -1.4320
  587SOL    HW2 1761   2.288   2.316   0.270  0.8587  0.0960 -3.2395
  588SOL     OW 1762   2.668   0.464   0.825 -0.2617  0.3191  0.0795
  588SOL    HW1 1763   2.606   0.519   0.881  0.9837 -0.1790  0.9379
  588SOL    HW2 1764   2.614   0.419   0.753 -0.4298 -5.4822 -1.3242
  589SOL     OW 1765   0.503   0.690   0.691  0.2780 -0.1201 -0.3215
  589SOL    HW1 1766   0.417   0.741   0.665 -0.9233 -1.1214 -0.9786
  589SOL    HW2 1767   0.503   0.608   0.633  1.5342 -2.2870  1.5346
  590SOL     OW 1768   2.137   2.244   0.353 -0.3076  0.0346 -0.2134
  590SOL    HW1 1769   2.152   2.258   0.454  1.2434  1.5991  0.6852
  590SOL    HW2 1770   2.175   2.153   0.330  3.0127  0.0545 -1.5346
  591SOL     OW 1771   0.368   2.243   1.217  0.1311 -0.0795  0.1303
  591SOL    HW1 1772   0.424   2.179   1.271 -0.9109 -2.2495 -0.3154
  591SOL    HW2 1773   0.364   2.338   1.261  0.2064  0.1788  2.4583
  592SOL     OW 1774   0.987   0.525   1.299  0.0204 -0.0478 -0.1290
  592SOL    HW1 1775   1.066   0.509   1.357  2.8671  1.7485  1.5517
  592SOL    HW2 1776   0.995   0.478   1.208  2.6292 -1.3013 -1.5151
  593SOL     OW 1777   1.005   1.328   1.238 -0.0730 -0.3341  0.0679
  593SOL    HW1 1778   1.053   1.260   1.296  0.9576 -0.3925 -0.7361
  593SOL    HW2 1779   0.968   1.410   1.289 -0.8074  0.6797  3.7373
  594SOL     OW 1780   0.999   2.111   0.561  0.1929  0.5894  0.1686
  594SOL    HW1 1781   1.008   2.066   0.469  2.2033 -0.2705 -1.5113
  594SOL    HW2 1782   1.060   2.188   0.566 -0.5313 -1.9359  0.4669
  595SOL     OW 1783   1.700   0.368   1.388 -0.2512  0.1887  0.0308
  595SOL    HW1 1784   1.755   0.416   1.459 -1.0331 -0.1429  0.3855
  595SOL    HW2 1785   1.613   0.324   1.418  1.4384  2.8590 -1.1976
  596SOL     OW 1786   3.026   1.155   1.294  0.2611  0.5118  0.2694
  596SOL    HW1 1787   2.957   1.082   1.308 -3.3194 -3.0139  1.4384
  596SOL    HW2 1788   3.013   1.211   1.208 -3.4230 -0.5138 -1.3756
  597SOL     OW 1789   0.472   2.711   2.389 -0.0879  0.3715  0.4252
  597SOL    HW1 1790   0.403   2.649   2.424  0.3063  2.4534  0.7387
  597SOL    HW2 1791   0.527   2.669   2.312 -3.1073 -0.8090 -3.3365
  598SOL     OW 1792   2.603   1.832   2.028  0.0245 -0.5280  0.3729
  598SOL    HW1 1793   2.554   1.917   2.000 -0.1257  2.1337  3.9878
  598SOL    HW2 1794   2.540   1.768   2.073 -0.2295 -0.1599 -0.5856
  599SOL     OW 1795   0.815   0.054   2.997 -0.1737 -0.5075 -0.0889
  599SOL    HW1 1796   0.801   0.136   2.941  1.5399  1.1313  0.5874
  599SOL    HW2 1797   0.757   3.099   2.971  2.2454 -0.1325 -0.6758
  600SOL     OW 1798   3.005   2.151   2.654  0.5394 -0.2092  0.5267
  600SOL    HW1 1799   3.086   2.202   2.688  2.3471 -1.4982 -0.1762
  600SOL    HW2 1800   2.993   2.061   2.708 -0.6177  1.5844 -0.8314
  601SOL     OW 1801   0.620   0.877   1.362 -0.2635 -0.0959  0.1088
  601SOL    HW1 1802   0.530   0.860   1.318 -2.0587  2.1714  0.0901
  601SOL    HW2 1803   0.608   0.889   1.462  1.3592 -0.5784 -1.7003
  602SOL     OW 1804   0.856   2.859   0.887 -0.2696 -0.1038 -0.3717
  602SOL    HW1 1805   0.888   2.857   0.792  0.1220 -1.5968 -1.2551
  602SOL    HW2 1806   0.867   2.767   0.930 -0.7028 -1.6098  0.2621
  603SOL     OW 1807   0.318   0.484   2.829  0.2147 -0.0574  0.1252
  603SOL    HW1 1808   0.317   0.446   2.732  1.3223 -0.9181 -2.3671
  603SOL    HW2 1809   0.333   0.584   2.822  1.7282  0.6491 -1.6170
  604SOL     OW 1810   0.761   2.742   1.687 -0.4249 -0.2427 -0.0817
  604SOL    HW1 1811   0.796   2.831   1.723  0.5967 -0.6689 -0.4681
  604SOL    HW2 1812   0.803   2.720   1.596 -0.0963 -1.0366  0.4396
  605SOL     OW 1813   1.507   0.740   2.162  0.7861  0.3529  0.4496
  605SOL    HW1 1814   1.461   0.684   2.091 -0.8959 -0.4835 -2.1169
  605SOL    HW2 1815   1.479   0.839   2.150  0.5612  0.7842 -1.1739
  606SOL     OW 1816   2.308   2.798   2.921  0.1606 -0.6668  0.0696
  606SOL    HW1 1817   2.285   2.722   2.989  1.8375  0.7311 -0.3904
  606SOL    HW2 1818   2.400   2.838   2.939  0.1984  1.0557  1.5641
  607SOL     OW 1819   0.717   0.389   1.106 -0.3696 -0.2128  0.1289
  607SOL    HW1 1820   0.675   0.437   1.028  2.6451  0.3917 -0.6844
  607SOL    HW2 1821   0.817   0.404   1.090 -0.4954  1.5823 -1.8937
  608SOL     OW 1822   0.319   1.714   2.384 -0.4819  0.0959  0.0203
  608SOL    HW1 1823   0.315   1.771   2.467  1.4089  2.2315 -1.3082
  608SOL    HW2 1824   0.226   1.700   2.341 -0.9760 -1.9940 -1.0065
  609SOL     OW 1825   1.534   1.433   0.546 -0.2265  0.3221 -0.0389
  609SOL    HW1 1826   1.484   1.478   0.468  0.2575  0.0197 -0.5578
  609SOL    HW2 1827   1.485   1.350   0.575 -1.8882  1.0243 -1.7071
  610SOL     OW 1828   3.062   0.231   0.844  0.3714 -0.4003 -0.1382
  610SOL    HW1 1829   0.032   0.241   0.801 -0.0944 -1.9259 -0.4915
  610SOL    HW2 1830   3.042   0.130   0.870 -0.4592 -3.2915  0.5260
  611SOL     OW 1831   1.584   1.001   0.725  0.3567 -0.0349  0.4043
  611SOL    HW1 1832   1.656   1.059   0.762 -0.3946 -1.0715  1.1004
  611SOL    HW2 1833   1.530   1.042   0.654  6.0084  0.5199  0.1682
  612SOL     OW 1834   2.120   1.636   0.272  0.1418 -0.0101  0.3176
  612SOL    HW1 1835   2.050   1.610   0.340  0.0418  0.5203  1.7357
  612SOL    HW2 1836   2.101   1.726   0.231  0.3599 -0.5214 -1.3000
  613SOL     OW 1837   1.623   1.033   0.371 -0.2708  0.3282 -0.6829
  613SOL    HW1 1838   1.693   1.070   0.439  1.3939  1.3752 -0.3348
  613SOL    HW2 1839   1.624   1.087   0.284  0.4373 -1.5912 -1.8170
  614SOL     OW 1840   2.863   0.244   2.343 -0.3603 -0.3423  0.1601
  614SOL    HW1 1841   2.907   0.159   2.304 -0.5403 -0.2053 -3.4688
  614SOL    HW2 1842   2.858   0.319   2.273  3.0563 -2.3649  0.8433
  615SOL     OW 1843   0.660   2.037   0.888  0.3158 -0.1064 -0.1813
  615SOL    HW1 1844   0.669   1.948   0.843  2.9679 -0.0222  0.4710
  615SOL    HW2 1845   0.684   2.115   0.822 -0.8859  1.4369 -1.1692
  616SOL     OW 1846   1.709   1.324   2.646  0.1883 -0.1017  0.1094
  616SOL    HW1 1847   1.645   1.278   2.578 -0.9775  0.4215 -0.5840
  616SOL    HW2 1848   1.718   1.276   2.736 -2.5191  1.2108  3.4875
  617SOL     OW 1849   1.247   0.411   0.007 -0.2210 -0.4440  0.0153
  617SOL    HW1 1850   1.169   0.349   3.102  0.4614 -1.0609  1.4153
  617SOL    HW2 1851   1.339   0.381   3.097  0.3683  0.8186  2.2859
  618SOL     OW 1852   2.022   2.471   2.425 -0.5033 -0.1985  0.0612
  618SOL    HW1 1853   2.030   2.510   2.328  2.8379  0.5368  0.3876
  618SOL    HW2 1854   1.925   2.465   2.453  0.9575  0.8458  0.0205
  619SOL     OW 1855   2.105   2.103   1.112 -0.6148  0.5156 -0.4063
  619SOL    HW1 1856   2.008   2.107   1.136  1.7283  0.7905 -2.6283
  619SOL    HW2 1857   2.119   2.012   1.067  0.9149 -0.1603  0.2148
  620SOL     OW 1858   2.123   2.814   2.006  0.0181  0.1392  0.6063
  620SOL    HW1 1859   2.133   2.778   1.909  0.1979  1.0263 -1.0095
  620SOL    HW2 1860   2.159   2.745   2.073 -0.8286  0.0996  2.3869
  621SOL     OW 1861   3.061   1.366   0.680 -0.3448 -0.4383 -0.4023
  621SOL    HW1 1862   0.015   1.426   0.699 -1.9258  2.0060 -1.3391
  621SOL    HW2 1863   3.067   1.280   0.730 -0.9015 -0.0034  2.6995
  622SOL     OW 1864   1.348   1.694   2.873  0.4718 -0.1344 -0.1367
  622SOL    HW1 1865   1.375   1.764   2.803 -0.0809  1.5925 -0.0897
  622SOL    HW2 1866   1.327   1.735   2.966  0.1441 -0.6316 -0.1871
  623SOL     OW 1867   2.875   2.549   2.197  0.2750 -0.6376 -0.0281
  623SOL    HW1 1868   2.799   2.552   2.266 -2.6856 -3.1522 -0.3437
  623SOL    HW2 1869   2.942   2.622   2.199 -0.5227 -1.2030 -1.2163
  624SOL     OW 1870   0.621   2.355   0.289 -0.4189 -0.5735  0.4041
  624SOL    HW1 1871   0.631   2.257   0.304  3.8532  2.8662 -0.9662
  624SOL    HW2 1872   0.526   2.383   0.315  0.1050 -0.8656 -0.5068
  625SOL     OW 1873   0.459   1.872   2.012  0.0567  0.2994  0.0308
  625SOL    HW1 1874   0.410   1.949   2.057 -1.5286  1.2369 -0.9363
  625SOL    HW2 1875   0.388   1.804   1.980  0.0061 -0.8133 -3.9144
  626SOL     OW 1876   0.849   2.812   2.995 -0.4616 -0.2500  0.3571
  626SOL    HW1 1877   0.935   2.800   3.052 -1.0936  0.5550 -0.2875
  626SOL    HW2 1878   0.771   2.791   3.053 -0.0698 -0.2877 -0.6300
  627SOL     OW 1879   1.595   1.514   0.041 -0.0248 -0.5299  0.2612
  627SOL    HW1 1880   1.542   1.493   3.080  2.4721  2.4659  1.3501
  627SOL    HW2 1881   1.655   1.595   0.027  0.7340 -0.1234 -0.3289
  628SOL     OW 1882   1.428   2.152   0.888  0.0148  0.4160 -0.0869
  628SOL    HW1 1883   1.357   2.140   0.961 -0.6151  1.6772 -0.0377
  628SOL    HW2 1884   1.513   2.199   0.924 -2.6782 -0.2544 -3.0623
  629SOL     OW 1885   0.292   0.244   1.577 -0.6132  0.0321 -0.5634
  629SOL    HW1 1886   0.300   0.143   1.562  0.9651  0.0573  2.5565
  629SOL    HW2 1887   0.273   0.264   1.673 -0.3835  0.6031 -1.1011
  630SOL     OW 1888   2.393   0.800   1.595 -0.0802 -0.1064  0.1124
  630SOL    HW1 1889   2.307   0.838   1.567 -0.1426  0.2548 -0.1846
  630SOL    HW2 1890   2.408   0.718   1.534  0.3392 -1.1728 -3.2804
  631SOL     OW 1891   1.362   0.675   1.064  0.5427 -0.2285 -0.0359
  631SOL    HW1 1892   1.438   0.739   1.033  0.9339 -0.7551 -1.1925
  631SOL    HW2 1893   1.383   0.575   1.044  1.1035 -1.8341  0.1217
  632SOL     OW 1894   2.916   0.986   1.991 -0.4019  0.1952  0.6379
  632SOL    HW1 1895   2.850   1.041   1.936  0.7428  1.8489 -1.7437
  632SOL    HW2 1896   3.010   0.990   1.949  0.0851  0.7193 -2.4100
  633SOL     OW 1897   1.455   0.871   3.047 -0.4748  0.1220  0.2983
  633SOL    HW1 1898   1.419   0.916   0.006 -2.1217 -0.1312 -0.5164
  633SOL    HW2 1899   1.380   0.819   2.997 -1.9805  1.9836  0.1961
  634SOL     OW 1900   0.600   2.784   3.110  0.6329 -0.0998 -0.2623
  634SOL    HW1 1901   0.629   2.818   0.073 -1.4946  0.1465 -0.1146
  634SOL    HW2 1902   0.515   2.731   3.118  0.6805  0.1798 -2.0704
  635SOL     OW 1903   3.042   1.442   1.400  0.5150 -0.4417 -0.3475
  635SOL    HW1 1904   3.080   1.538   1.418  1.4353  1.7078 -1.9033
  635SOL    HW2 1905   3.079   1.411   1.312  0.2260 -3.4526 -0.4022
  636SOL     OW 1906   0.205   1.769   0.200  0.0166  0.0483  0.2033
  636SOL    HW1 1907   0.148   1.714   0.267 -2.8132 -0.2175  2.5432
  636SOL    HW2 1908   0.164   1.782   0.108  0.0635  2.4514 -0.2461
  637SOL     OW 1909   0.042   2.671   0.528  0.5739  0.1956 -0.5378
  637SOL    HW1 1910   3.117   2.750   0.569 -1.8604  0.1078  0.9355
  637SOL    HW2 1911   3.097   2.598   0.511 -1.4758 -1.8131  0.1870
  638SOL     OW 1912   3.085   2.900   0.111  0.2507 -0.3119  0.1764
  638SOL    HW1 1913   3.041   2.829   0.172 -1.0338  0.0166  0.1770
  638SOL    HW2 1914   0.028   2.861   0.049  0.0217  3.5657 -1.1488
  639SOL     OW 1915   1.462   0.327   2.950 -0.1195 -0.0185  0.4006
  639SOL    HW1 1916   1.393   0.364   2.888  2.0352 -1.4874  2.8510
  639SOL    HW2 1917   1.501   0.247   2.900 -0.8580  0.4524 -0.4286
  640SOL     OW 1918   2.266   1.979   1.485  0.0883 -0.3248  0.2031
  640SOL    HW1 1919   2.244   2.063   1.432 -0.7696  0.7790  1.2257
  640SOL    HW2 1920   2.327   2.002   1.563 -3.1084  2.7638 -1.5007
  641SOL     OW 1921   2.984   3.013   1.050 -0.4045 -0.3871 -0.3017
  641SOL    HW1 1922   2.955   3.046   1.142  0.4167  2.6526 -2.1827
  641SOL    HW2 1923   2.912   3.033   0.977 -0.7302  2.3803  1.0296
  642SOL     OW 1924   1.240   1.090   1.797  0.0157  0.2327 -0.1167
  642SOL    HW1 1925   1.194   1.065   1.712  0.4776 -1.1797 -0.4524
  642SOL    HW2 1926   1.331   1.036   1.798  1.8508 -0.2585 -0.9496
  643SOL     OW 1927   0.691   1.764   2.536  0.3450 -0.3377  0.5045
  643SOL    HW1 1928   0.643   1.698   2.478  2.1586  2.8816 -0.5085
  643SOL    HW2 1929   0.680   1.858   2.494  0.6115 -0.3911  1.4065
  644SOL     OW 1930   1.889   2.859   2.328  0.3291 -0.3374  0.9781
  644SOL    HW1 1931   1.962   2.920   2.286  1.4242 -1.7302  1.0004
  644SOL    HW2 1932   1.815   2.840   2.263  0.8743  2.0151 -2.7338
  645SOL     OW 1933   1.330   0.699   1.857  0.0496 -0.1127 -0.9152
  645SOL    HW1 1934   1.435   0.709   1.850  1.6818  0.1108  0.6140
  645SOL    HW2 1935   1.286   0.691   1.766  0.9398 -0.5471  4.0024
  646SOL     OW 1936   1.251   2.432   3.039  0.3348  0.2579 -0.1232
  646SOL    HW1 1937   1.174   2.412   2.971 -0.4689 -1.7351 -0.0359
  646SOL    HW2 1938   1.339   2.399   2.997  0.4720  0.9123 -0.6647
  647SOL     OW 1939   1.131   2.716   0.848  0.1092 -0.8414  0.4963
  647SOL    HW1 1940   1.121   2.679   0.944  0.4710 -0.4307  0.0697
  647SOL    HW2 1941   1.211   2.670   0.806  0.4594 -0.0859  0.9090
  648SOL     OW 1942   2.542   2.717   1.411  0.1278 -0.6599  0.4187
  648SOL    HW1 1943   2.623   2.767   1.379  0.1467 -0.4255  1.2069
  648SOL    HW2 1944   2.472   2.716   1.335  2.0023  1.7903 -0.6387
  649SOL     OW 1945   0.790   2.330   2.545  0.1531  0.6497  0.2608
  649SOL    HW1 1946   0.841   2.264   2.601  0.2707 -0.3025  1.4951
  649SOL    HW2 1947   0.724   2.379   2.604 -1.1282  0.0394 -3.3262
  650SOL     OW 1948   2.584   1.942   2.815 -0.2619 -0.4987 -0.4328
  650SOL    HW1 1949   2.656   1.893   2.866 -1.5523 -0.2574  0.0408
  650SOL    HW2 1950   2.630   1.999   2.746  1.2419 -0.8985 -1.1153
  651SOL     OW 1951   2.451   2.438   2.105 -0.0634  0.0922  0.0494
  651SOL    HW1 1952   2.426   2.365   2.168 -0.1798  0.2306 -0.6820
  651SOL    HW2 1953   2.440   2.405   2.006  3.4965  0.2107 -1.0032
  652SOL     OW 1954   2.646   2.554   1.051  0.7762 -0.0772 -1.1592
  652SOL    HW1 1955   2.736   2.512   1.081 -2.3579 -0.3139 -0.6165
  652SOL    HW2 1956   2.574   2.482   1.058  0.6809  0.7392  0.8708
  653SOL     OW 1957   2.818   1.369   0.978 -0.7394  0.3369 -0.1616
  653SOL    HW1 1958   2.777   1.435   1.039  0.7606 -0.8136 -1.1622
  653SOL    HW2 1959   2.784   1.277   1.010 -1.0546  0.4140 -1.1621
  654SOL     OW 1960   1.053   0.462   2.787  0.1734 -0.2391 -0.2268
  654SOL    HW1 1961   1.014   0.516   2.715  0.3639  0.6031 -0.4850
  654SOL    HW2 1962   1.015   0.504   2.872  0.7973 -0.7522  2.5633
  655SOL     OW 1963   1.010   0.405   1.050 -0.6792  0.0738 -0.0544
  655SOL    HW1 1964   1.023   0.383   0.955 -0.5035 -1.3010  3.0105
  655SOL    HW2 1965   1.037   0.319   1.103 -1.1840 -2.2236  0.5757
  656SOL     OW 1966   0.526   2.390   1.859 -0.7345 -0.6235  0.0086
  656SOL    HW1 1967   0.442   2.389   1.915 -0.8446 -2.8223  0.4364
  656SOL    HW2 1968   0.575   2.477   1.891  3.2393  0.8888  3.7172
  657SOL     OW 1969   2.520   0.829   0.306  0.3190 -0.3499 -0.2082
  657SOL    HW1 1970   2.517   0.792   0.210 -0.0484 -0.1336  1.3574
  657SOL    HW2 1971   2.531   0.931   0.308  0.1467 -1.2681  0.4360
  658SOL     OW 1972   1.871   2.093   1.208  0.2875  0.1817 -0.4962
  658SOL    HW1 1973   1.782   2.072   1.172  3.6725  1.3231  0.4505
  658SOL    HW2 1974   1.906   2.018   1.269  0.8845  2.0764 -1.4984
  659SOL     OW 1975   2.792   1.793   2.997  0.4297 -0.3613  0.5090
  659SOL    HW1 1976   2.729   1.717   3.009 -0.7972  0.7292  0.8679
  659SOL    HW2 1977   2.884   1.757   2.979 -1.5450  2.2955 -2.2619
  660SOL     OW 1978   0.792   0.330   0.532 -0.0206 -0.1328  0.1234
  660SOL    HW1 1979   0.792   0.224   0.540  0.3991 -0.9899  1.5073
  660SOL    HW2 1980   0.888   0.363   0.543  1.1517  0.4457  0.1211
  661SOL     OW 1981   1.811   0.163   0.328  0.1668  0.8609 -0.2196
  661SOL    HW1 1982   1.874   0.212   0.386  0.7000 -1.4891  0.2146
  661SOL    HW2 1983   1.832   0.182   0.227  0.2497  0.2166 -0.5592
  662SOL     OW 1984   0.577   3.050   0.550  0.5307 -0.0114  0.6854
  662SOL    HW1 1985   0.549   3.112   0.480  1.1000 -2.2309  4.4672
  662SOL    HW2 1986   0.508   2.976   0.567  0.6811  0.4763  1.2468
  663SOL     OW 1987   1.134   2.947   2.104  0.3078 -0.1955 -0.1928
  663SOL    HW1 1988   1.137   3.049   2.109 -1.1051  0.2079 -0.8120
  663SOL    HW2 1989   1.147   2.915   2.197 -2.2753  0.3216 -1.2371
  664SOL     OW 1990   1.036   2.353   1.692 -0.1818  0.6995  0.2812
  664SOL    HW1 1991   0.943   2.324   1.659 -2.7021 -1.8452 -0.8018
  664SOL    HW2 1992   1.029   2.430   1.759 -1.6851 -0.5140 -0.7271
  665SOL     OW 1993   1.061   2.033   1.750 -0.9903  0.0587  0.2901
  665SOL    HW1 1994   1.052   2.041   1.648 -0.6130  1.7406  3.7426
  665SOL    HW2 1995   1.041   2.125   1.784  0.7473  1.0976  1.7749
  666SOL     OW 1996   0.796   2.919   2.571 -0.1397  0.3598  0.1671
  666SOL    HW1 1997   0.814   3.011   2.615  1.5362  2.4749  1.1183
  666SOL    HW2 1998   0.711   2.873   2.604  2.4170 -0.1829  1.4239
  667SOL     OW 1999   2.036   1.446   1.766  0.0415 -0.1624  0.4453
  667SOL    HW1 2000   2.057   1.376   1.693  1.9130  0.4236 -0.5631
  667SOL    HW2 2001   2.123   1.478   1.806 -1.2586 -0.1479 -0.2172
  668SOL     OW 2002   1.789   3.075   1.764  0.4948  0.4676 -0.2476
  668SOL    HW1 2003   1.816   2.998   1.825 -1.2291  2.3780  0.3190
  668SOL    HW2 2004   1.735   0.020   1.815 -2.0591  0.1663 -1.2978
  669SOL     OW 2005   2.565   2.792   0.941  0.4443 -0.1179  0.6163
  669SOL    HW1 2006   2.597   2.708   0.990 -1.6642 -2.4486 -0.4603
  669SOL    HW2 2007   2.596   2.789   0.846 -2.9956 -2.3542  0.2321
  670SOL     OW 2008   1.383   2.623   2.673 -0.0858 -0.4233 -0.3571
  670SOL    HW1 2009   1.283   2.621   2.664 -3.3073 -1.3357 -0.8324
  670SOL    HW2 2010   1.412   2.527   2.686 -0.4513  3.5139 -0.9315
  671SOL     OW 2011   0.585   1.210   0.510 -0.0998  1.1880  0.5680
  671SOL    HW1 2012   0.556   1.226   0.414 -0.7679 -2.4957  0.3969
  671SOL    HW2 2013   0.528   1.139   0.558  0.8357 -0.5325  2.5056
  672SOL     OW 2014   2.640   1.082   2.843  0.1243  0.5350  0.5094
  672SOL    HW1 2015   2.585   1.156   2.889 -2.3962  0.1501  1.6732
  672SOL    HW2 2016   2.592   1.060   2.757  0.4379  1.4827 -1.4695
  673SOL     OW 2017   0.010   2.128   1.647  0.3296 -0.5797 -0.4449
  673SOL    HW1 2018   0.095   2.183   1.673  0.2431  0.4132 -0.5326
  673SOL    HW2 2019   0.018   2.030   1.630  0.3168  3.2437 -0.5518
  674SOL     OW 2020   0.655   2.259   2.304 -0.0756  0.0924 -0.1764
  674SOL    HW1 2021   0.708   2.268   2.392  1.7804  0.7315 -1.3068
  674SOL    HW2 2022   0.560   2.226   2.315  2.2057 -1.1798  1.4400
  675SOL     OW 2023   1.010   0.769   1.614  0.3931  0.0972 -0.3109
  675SOL    HW1 2024   0.993   0.708   1.693  1.4723 -0.1936  1.9690
  675SOL    HW2 2025   0.945   0.734   1.545  3.0776  0.1269  3.2327
  676SOL     OW 2026   1.962   0.013   1.293 -0.5993  0.1119 -0.2575
  676SOL    HW1 2027   1.981   3.067   1.221 -0.8837 -2.2690 -1.0719
  676SOL    HW2 2028   1.895   3.099   1.358  3.9907  0.3057  0.5472
  677SOL     OW 2029   2.683   1.337   3.097  0.2346  0.2048  0.3579
  677SOL    HW1 2030   2.667   1.334   2.994 -0.7567  0.5237 -1.8710
  677SOL    HW2 2031   2.717   1.253   0.013  1.1085  1.8948 -1.9041
  678SOL     OW 2032   2.454   1.411   1.163  0.3836 -0.1518 -0.6554
  678SOL    HW1 2033   2.525   1.488   1.174 -0.5748 -0.0741 -0.6690
  678SOL    HW2 2034   2.436   1.400   1.065  2.5541  1.5306 -2.6084
  679SOL     OW 2035   2.725   0.554   2.866 -0.4710 -0.1841  0.2431
  679SOL    HW1 2036   2.753   0.643   2.831  1.5951 -2.2178 -1.7919
  679SOL    HW2 2037   2.761   0.537   2.960  0.2055 -1.8464 -0.2847
  680SOL     OW 2038   0.587   1.355   2.023 -0.1765 -0.3160 -1.0570
  680SOL    HW1 2039   0.663   1.388   2.081 -1.2131  2.1217  0.8314
  680SOL    HW2 2040   0.490   1.372   2.053  0.5072  0.5322  0.1747
  681SOL     OW 2041   2.737   2.073   1.623  0.5718  0.1915  0.0936
  681SOL    HW1 2042   2.769   2.144   1.692 -0.5806  3.2227 -0.3764
  681SOL    HW2 2043   2.800   1.995   1.600  0.4372  1.8808  0.7742
  682SOL     OW 2044   0.099   2.153   0.066 -0.5973  0.5885  0.0621
  682SOL    HW1 2045   0.201   2.157   0.071 -0.5250  0.4481  0.0270
  682SOL    HW2 2046   0.057   2.241   0.088 -2.4331 -2.2703 -1.5056
  683SOL     OW 2047   3.076   2.031   0.946  0.1807  0.6930 -0.2733
  683SOL    HW1 2048   3.067   1.994   1.042  1.1749 -1.9475 -0.3315
  683SOL    HW2 2049   3.028   1.977   0.874  0.3343  0.3143 -0.9544
  684SOL     OW 2050   2.983   1.362   2.366 -0.0962 -0.0943 -0.1542
  684SOL    HW1 2051   3.015   1.390   2.273  0.3796  0.7709  2.3493
  684SOL    HW2 2052   2.886   1.333   2.366  3.6464  1.8711 -1.5822
  685SOL     OW 2053   1.351   0.512   0.726 -0.1191 -0.1408  0.1822
  685SOL    HW1 2054   1.261   0.490   0.776 -1.3464  0.3189 -3.0347
  685SOL    HW2 2055   1.383   0.429   0.682  0.9041  0.1410  1.4525
  686SOL     OW 2056   0.544   0.475   0.526  0.2242 -0.1585  0.0707
  686SOL    HW1 2057   0.625   0.416   0.512 -1.6983  0.6504 -0.6867
  686SOL    HW2 2058   0.491   0.495   0.439 -0.5742  0.4132 -1.1834
  687SOL     OW 2059   0.442   1.990   2.725  0.3371 -0.0086 -0.0285
  687SOL    HW1 2060   0.529   1.990   2.674  0.6861 -0.7497  2.4456
  687SOL    HW2 2061   0.365   1.945   2.672  1.0031 -0.7469 -0.1244
  688SOL     OW 2062   2.066   0.442   1.506  0.3573  0.0043 -0.2543
  688SOL    HW1 2063   2.126   0.364   1.516 -1.7393  1.9850 -3.0901
  688SOL    HW2 2064   2.057   0.453   1.406 -0.4813 -2.1709 -0.3183
  689SOL     OW 2065   1.607   0.601   0.879 -0.2996  0.2342 -0.2463
  689SOL    HW1 2066   1.647   0.528   0.940  3.9012 -3.9895 -0.4000
  689SOL    HW2 2067   1.512   0.575   0.850  0.7849 -0.9017  0.3866
  690SOL     OW 2068   3.069   1.427   1.085 -0.8649 -0.5516 -0.4385
  690SOL    HW1 2069   2.975   1.416   1.046  0.1018 -1.3736  0.5332
  690SOL    HW2 2070   0.005   1.350   1.055  2.6790  2.2560 -1.3162
  691SOL     OW 2071   3.114   1.901   1.192  0.1938 -0.3514  0.3919
  691SOL    HW1 2072   0.080   1.864   1.215  1.0487  0.7389 -0.5667
  691SOL    HW2 2073   3.106   1.982   1.253  2.9462 -2.0418 -0.5432
  692SOL     OW 2074   1.199   0.169   1.611  0.4096 -0.0785  0.0655
  692SOL    HW1 2075   1.246   0.081   1.617  0.1409  3.0516 -0.0512
  692SOL    HW2 2076   1.246   0.230   1.675 -0.2978  2.5109  1.6333
  693SOL     OW 2077   0.902   1.439   2.160 -0.1614 -0.2421  0.2618
  693SOL    HW1 2078   0.967   1.507   2.129 -2.9539 -1.3098  0.2593
  693SOL    HW2 2079   0.907   1.351   2.110  1.7906 -2.8656  1.0804
  694SOL     OW 2080   1.776   1.514   0.654  0.2269 -0.1291 -0.1808
  694SOL    HW1 2081   1.742   1.525   0.748 -0.7883 -0.1261 -3.8204
  694SOL    HW2 2082   1.697   1.478   0.598 -0.8573  0.4978 -1.0559
  695SOL     OW 2083   0.742   1.009   1.147  0.2047 -0.5947  0.4462
  695SOL    HW1 2084   0.755   0.930   1.086  1.1793  2.3069 -1.5603
  695SOL    HW2 2085   0.706   0.976   1.239  1.6651  3.0539  2.8373
  696SOL     OW 2086   0.219   0.075   0.487  0.2889  0.1901  0.1556
  696SOL    HW1 2087   0.158   0.019   0.422 -1.5336 -2.1650 -1.5526
  696SOL    HW2 2088   0.209   0.026   0.576  0.2019  0.2248 -0.3473
  697SOL     OW 2089   2.021   0.518   1.256 -0.2112 -0.3664 -0.1983
  697SOL    HW1 2090   1.953   0.588   1.216 -3.1257  3.3805  1.0532
  697SOL    HW2 2091   1.990   0.422   1.264  2.3828  1.9229 -0.1293
  698SOL     OW 2092   1.382   1.320   1.715  0.5172 -0.3488 -0.6022
  698SOL    HW1 2093   1.450   1.376   1.763 -2.3020  2.0347  0.2812
  698SOL    HW2 2094   1.337   1.257   1.784 -0.4069  0.3846  1.3011
  699SOL     OW 2095   0.094   0.339   2.347 -0.3307 -0.4984 -0.1457
  699SOL    HW1 2096   0.045   0.281   2.283  0.5598  1.3374 -2.8342
  699SOL    HW2 2097   0.040   0.356   2.432 -0.0656 -0.6019 -0.3447
  700SOL     OW 2098   1.433   2.630   0.798 -0.0827 -0.4137 -0.4824
  700SOL    HW1 2099   1.512   2.659   0.741  0.8679 -1.5383 -2.9566
  700SOL    HW2 2100   1.446   2.662   0.897  1.4313  1.2821  3.8451
  701SOL     OW 2101   0.115   1.437   2.562 -0.6364  0.6104 -0.1673
  701SOL    HW1 2102   0.106   1.536   2.584 -0.0236 -1.2920 -0.5474
  701SOL    HW2 2103   0.149   1.390   2.647  1.2405 -1.1451  0.3831
  702SOL     OW 2104   0.451   0.101   0.365  0.2356  0.1310  0.3255
  702SOL    HW1 2105   0.360   0.085   0.403  2.1604 -0.7286 -0.2110
  702SOL    HW2 2106   0.440   0.102   0.262 -0.0764  2.2208 -1.5009
  703SOL     OW 2107   1.756   3.094   2.583  0.6499  0.0917  0.2232
  703SOL    HW1 2108   1.811   3.068   2.662 -1.4830  1.2720  2.0010
  703SOL    HW2 2109   1.710   3.010   2.544 -0.7388 -2.7406 -3.3875
  704SOL     OW 2110   2.570   1.880   0.512 -0.4454 -0.2472  0.0041
  704SOL    HW1 2111   2.627   1.957   0.482 -3.4408 -0.2211 -0.3933
  704SOL    HW2 2112   2.582   1.866   0.614  1.5481  0.9091  0.5048
  705SOL     OW 2113   2.697   2.116   2.322 -0.3732  0.5032 -0.4645
  705SOL    HW1 2114   2.611   2.166   2.303 -0.8458 -0.0961 -1.0165
  705SOL    HW2 2115   2.777   2.167   2.360 -3.9717 -0.7755  3.1183
  706SOL     OW 2116   2.853   2.950   0.632  0.0596 -0.6823 -0.0424
  706SOL    HW1 2117   2.827   3.009   0.553  0.6572  0.1631 -2.1548
  706SOL    HW2 2118   2.951   2.938   0.628 -0.9667 -1.2744 -1.9509
  707SOL     OW 2119   1.042   3.006   0.216 -0.0660  0.4041 -0.0094
  707SOL    HW1 2120   1.077   2.927   0.156  1.1309 -0.4688 -0.5071
  707SOL    HW2 2121   0.962   3.050   0.172 -1.8731 -0.3427 -0.5940
  708SOL     OW 2122   0.276   2.235   1.733 -0.5600  0.0568 -0.0283
  708SOL    HW1 2123   0.323   2.325   1.731  2.3045  1.0512  2.1592
  708SOL    HW2 2124   0.282   2.190   1.819 -1.8476  2.7436 -0.1364
  709SOL     OW 2125   1.368   2.752   1.977  0.2685  0.5219  0.4794
  709SOL    HW1 2126   1.380   2.659   2.017  3.0038 -0.7186  0.3938
  709SOL    HW2 2127   1.376   2.818   2.051  1.3135 -0.7999 -5.2986
  710SOL     OW 2128   1.769   2.524   2.490  0.1656  0.2653 -0.2163
  710SOL    HW1 2129   1.745   2.551   2.586  2.1430  1.0033 -0.3640
  710SOL    HW2 2130   1.700   2.565   2.425  0.1753  1.5799  1.2824
  711SOL     OW 2131   1.065   2.335   2.851  0.0601  0.5543  0.8405
  711SOL    HW1 2132   1.066   2.399   2.776  0.1295  1.9423 -0.4627
  711SOL    HW2 2133   0.986   2.272   2.850  1.1724 -0.6753  1.2012
  712SOL     OW 2134   1.170   2.050   2.802  0.5320 -0.0427 -0.3080
  712SOL    HW1 2135   1.174   1.998   2.888  2.0051 -0.4243  1.5386
  712SOL    HW2 2136   1.127   2.144   2.818  0.9083 -0.4374 -0.3854
  713SOL     OW 2137   1.478   0.987   1.747  0.5173  0.2901  0.5744
  713SOL    HW1 2138   1.535   0.908   1.777  2.2470  0.4738 -1.9481
  713SOL    HW2 2139   1.469   0.995   1.648 -0.7774 -0.2113  3.5232
  714SOL     OW 2140   1.136   1.388   1.570  0.0288 -0.2399 -0.3465
  714SOL    HW1 2141   1.213   1.392   1.633 -3.3910 -1.4178  1.0287
  714SOL    HW2 2142   1.141   1.312   1.500  1.1222 -1.9247  1.7385
  715SOL     OW 2143   2.815   3.098   0.347  0.5299 -0.3519 -0.0528
  715SOL    HW1 2144   2.890   0.041   0.366 -0.0122  0.3514 -0.3153
  715SOL    HW2 2145   2.830   3.068   0.248  1.2836 -2.2741  2.0501
  716SOL     OW 2146   0.647   2.548   1.219 -0.5580  0.0032  0.2458
  716SOL    HW1 2147   0.669   2.487   1.140 -2.4652  0.7695  0.6016
  716SOL    HW2 2148   0.550   2.585   1.214 -2.3093  1.3433 -0.5675
  717SOL     OW 2149   2.861   0.472   3.101  0.5837 -0.2538 -0.5088
  717SOL    HW1 2150   2.847   0.374   0.000 -0.6331  0.8144 -0.8977
  717SOL    HW2 2151   2.957   0.490   3.075 -0.1882 -0.8170  0.3699
  718SOL     OW 2152   1.773   1.487   1.334 -0.5810 -0.3763 -0.5617
  718SOL    HW1 2153   1.754   1.431   1.251 -0.4889 -1.8708 -1.4997
  718SOL    HW2 2154   1.722   1.445   1.415 -0.3130  1.6692  0.8028
  719SOL     OW 2155   2.848   2.669   0.169 -0.0479 -0.3572 -0.3589
  719SOL    HW1 2156   2.918   2.639   0.096  0.0250 -1.2879 -0.8144
  719SOL    HW2 2157   2.795   2.587   0.199  0.5040  0.4859 -3.3784
  720SOL     OW 2158   1.104   0.668   0.955 -0.0544 -0.0262 -0.1230
  720SOL    HW1 2159   1.201   0.682   0.994  0.8922  0.9856  4.7286
  720SOL    HW2 2160   1.059   0.591   1.001  0.0454 -1.1877 -0.1932
  721SOL     OW 2161   1.808   0.237   0.978 -0.1974  0.4744  0.2378
  721SOL    HW1 2162   1.895   0.207   0.937 -1.0060  2.0941 -1.3991
  721SOL    HW2 2163   1.824   0.283   1.069 -1.1967  0.4078  0.0283
  722SOL     OW 2164   0.947   1.811   2.075  0.2023  0.2797 -0.0525
  722SOL    HW1 2165   0.847   1.805   2.105 -1.4002 -1.5363  0.2392
  722SOL    HW2 2166   0.989   1.890   2.120 -0.2087 -2.0567 -3.2088
  723SOL     OW 2167   1.064   3.105   1.397 -0.3031  0.0971  0.5720
  723SOL    HW1 2168   1.137   3.068   1.333 -0.6707  0.4414 -0.8625
  723SOL    HW2 2169   1.101   0.053   1.459  2.1239  0.0275  2.0866
  724SOL     OW 2170   1.861   1.938   1.931  0.1161  0.4058  0.2499
  724SOL    HW1 2171   1.809   1.853   1.948 -0.2222 -0.6210  2.2328
  724SOL    HW2 2172   1.931   1.957   2.004 -0.3500 -2.2742  3.7270
  725SOL     OW 2173   1.379   2.737   1.523  0.2608  0.0035 -0.2449
  725SOL    HW1 2174   1.400   2.804   1.598 -1.3580  0.6035  4.9449
  725SOL    HW2 2175   1.411   2.648   1.557 -1.4423 -1.3542 -0.0510
  726SOL     OW 2176   1.547   0.207   0.381 -0.3815 -0.0691 -0.3261
  726SOL    HW1 2177   1.647   0.187   0.366  1.0417 -0.7413  0.4562
  726SOL    HW2 2178   1.514   0.295   0.342 -0.3887 -0.5286  1.2853
  727SOL     OW 2179   1.475   1.892   0.830  0.0488 -0.0583  0.2831
  727SOL    HW1 2180   1.420   1.829   0.891  3.7739 -0.3452  1.7743
  727SOL    HW2 2181   1.463   1.988   0.856  1.1479 -0.4668 -0.6167
  728SOL     OW 2182   1.967   2.716   2.574  0.0189 -0.6390  0.0574
  728SOL    HW1 2183   1.951   2.800   2.517  0.2731  2.4645 -2.4714
  728SOL    HW2 2184   1.947   2.632   2.521  0.4476  1.0745  0.6714
  729SOL     OW 2185   2.236   2.313   1.633  0.1431  0.2829 -0.1248
  729SOL    HW1 2186   2.282   2.376   1.697 -0.9355 -0.8116 -0.2268
  729SOL    HW2 2187   2.217   2.221   1.676  1.3102 -1.7816 -0.2411
  730SOL     OW 2188   1.729   0.616   2.577 -0.3973 -0.3351 -0.2570
  730SOL    HW1 2189   1.672   0.636   2.659 -0.4712 -1.1217  1.3406
  730SOL    HW2 2190   1.715   0.527   2.540 -0.2485 -2.3013 -0.5378
  731SOL     OW 2191   0.505   0.190   1.150 -0.5784  0.2878  0.0588
  731SOL    HW1 2192   0.560   0.273   1.132  1.7190  0.3450 -1.5268
  731SOL    HW2 2193   0.572   0.116   1.166  0.2971 -0.9026  0.3633
  732SOL     OW 2194   1.994   2.950   1.077 -0.4503  0.2976 -0.1866
  732SOL    HW1 2195   1.887   2.944   1.072 -1.5690 -2.4753  1.2546
  732SOL    HW2 2196   2.041   3.003   1.000  0.3421  0.0882 -2.4127
  733SOL     OW 2197   1.053   0.948   1.169  0.0292  0.3911 -0.0353
  733SOL    HW1 2198   0.982   0.974   1.237 -0.6723  1.0257  1.6444
  733SOL    HW2 2199   1.146   0.959   1.211  2.7624 -0.6089  0.3595
  734SOL     OW 2200   2.607   2.367   0.404 -0.2953 -0.0021  0.1406
  734SOL    HW1 2201   2.514   2.388   0.368  0.5639  0.2224  0.1971
  734SOL    HW2 2202   2.650   2.437   0.472  1.2412 -1.2714  3.6534
  735SOL     OW 2203   0.620   0.505   3.081  0.2615 -0.2610  0.0027
  735SOL    HW1 2204   0.639   0.580   3.016  0.2434 -1.8828  2.2954
  735SOL    HW2 2205   0.701   0.479   0.012 -1.5828  1.7981 -0.0550
  736SOL     OW 2206   1.724   2.222   2.519 -0.3139  0.1393 -0.2928
  736SOL    HW1 2207   1.741   2.312   2.553 -0.4505  1.4652 -0.8645
  736SOL    HW2 2208   1.758   2.159   2.589 -2.2695  1.4917  0.2304
  737SOL     OW 2209   1.279   2.465   1.146 -0.0733  0.3994  0.2621
  737SOL    HW1 2210   1.201   2.465   1.213  0.5271 -1.2320  0.1419
  737SOL    HW2 2211   1.274   2.393   1.072 -2.0149 -0.7279 -3.4857
  738SOL     OW 2212   1.709   2.815   2.140 -0.2287  0.3973  0.0047
  738SOL    HW1 2213   1.627   2.859   2.175 -1.5129  1.0933 -1.4992
  738SOL    HW2 2214   1.738   2.862   2.057 -2.0217  0.2050  0.3655
  739SOL     OW 2215   1.087   2.014   2.194 -0.4967 -0.2873  0.3185
  739SOL    HW1 2216   1.171   2.027   2.138  0.4397  2.2017  0.4048
  739SOL    HW2 2217   1.091   2.094   2.257  2.0029  1.6978  0.7436
  740SOL     OW 2218   1.825   2.125   1.572 -0.4633 -0.2845 -0.0569
  740SOL    HW1 2219   1.878   2.038   1.556  0.6829  0.4962 -2.4633
  740SOL    HW2 2220   1.854   2.195   1.506  2.6764 -1.8431  0.7129
  741SOL     OW 2221   2.082   1.835   2.992  0.4339 -0.2536  0.3710
  741SOL    HW1 2222   1.987   1.796   2.975  1.4503  1.2385  0.5551
  741SOL    HW2 2223   2.151   1.780   2.940  0.5978 -0.2437 -1.2449
  742SOL     OW 2224   0.941   0.971   2.793  0.4022  0.0436  0.0916
  742SOL    HW1 2225   0.840   0.989   2.770 -1.8879  1.8138  0.6730
  742SOL    HW2 2226   0.996   1.034   2.739 -0.4582 -4.4692  2.5776
  743SOL     OW 2227   2.518   1.035   2.614 -0.7931  0.4405 -0.1329
  743SOL    HW1 2228   2.527   0.970   2.539  0.0606  1.1674  1.5685
  743SOL    HW2 2229   2.468   1.123   2.582 -0.7303 -1.8518  0.0403
  744SOL     OW 2230   2.293   2.529   1.836 -0.0056 -0.1377  0.3544
  744SOL    HW1 2231   2.223   2.583   1.785  1.8989  0.2720  1.1860
  744SOL    HW2 2232   2.384   2.565   1.814 -0.0810 -1.5268  2.0498
  745SOL     OW 2233   2.696   1.760   1.396 -0.3261  0.5608 -0.2421
  745SOL    HW1 2234   2.633   1.814   1.339  1.3075  1.5917 -1.4708
  745SOL    HW2 2235   2.642   1.701   1.460 -0.8027  1.0550 -1.4911
  746SOL     OW 2236   2.861   1.765   0.813  0.2361 -0.3909 -0.0435
  746SOL    HW1 2237   2.933   1.743   0.881 -0.3884  0.5051 -2.5502
  746SOL    HW2 2238   2.902   1.816   0.736 -0.6853  1.8557  0.0908
  747SOL     OW 2239   1.729   2.532   0.321  0.5665  0.0994  0.0948
  747SOL    HW1 2240   1.830   2.526   0.286  2.6970  1.0653 -2.3290
  747SOL    HW2 2241   1.692   2.442   0.346 -3.8218  1.7416 -1.3377
  748SOL     OW 2242   0.968   1.988   0.309  0.0410  0.2474 -0.1499
  748SOL    HW1 2243   1.007   2.028   0.228 -1.4387 -0.0963  0.5814
  748SOL    HW2 2244   0.871   1.955   0.305  0.5394  0.9973 -0.6235
  749SOL     OW 2245   2.801   0.459   2.213 -0.3430  0.1680  0.2534
  749SOL    HW1 2246   2.844   0.552   2.212  4.3060 -0.6153  0.4943
  749SOL    HW2 2247   2.740   0.449   2.133  3.4877 -1.0684  3.2040
  750SOL     OW 2248   1.469   0.300   1.497 -0.0399  0.2072 -0.5207
  750SOL    HW1 2249   1.427   0.337   1.583  1.6918 -2.5502  4.3048
  750SOL    HW2 2250   1.495   0.201   1.511 -2.5551 -2.8622 -1.6126
  751SOL     OW 2251   2.249   2.620   2.206 -0.4145 -0.4377 -0.6845
  751SOL    HW1 2252   2.164   2.577   2.177 -0.1074 -1.1218  0.0344
  751SOL    HW2 2253   2.323   2.553   2.188  2.1361 -1.6179 -1.0156
  752SOL     OW 2254   2.100   1.846   0.973 -0.2169  0.0773  0.1317
  752SOL    HW1 2255   2.018   1.789   0.969 -2.0221  1.6806 -1.0556
  752SOL    HW2 2256   2.163   1.825   0.900  1.2339  1.0016  1.1036
  753SOL     OW 2257   1.540   0.794   2.419 -0.4029  0.3401  0.2165
  753SOL    HW1 2258   1.637   0.822   2.445  0.4777  0.3001  2.7735
  753SOL    HW2 2259   1.519   0.800   2.317 -0.9254 -0.3503  1.8166
  754SOL     OW 2260   0.235   2.730   1.040 -0.3305 -1.1825 -0.1958
  754SOL    HW1 2261   0.194   2.821   1.016  0.7473 -0.1186 -1.7579
  754SOL    HW2 2262   0.167   2.658   1.049 -2.9035 -1.0175  1.0712
  755SOL     OW 2263   2.315   0.061   1.685  0.5631  0.1788 -0.0413
  755SOL    HW1 2264   2.387   0.005   1.643 -4.2752  3.0412  3.0034
  755SOL    HW2 2265   2.245   0.092   1.618  1.9120 -0.5212 -2.0737
  756SOL     OW 2266   1.533   1.175   2.487  0.2300 -0.0512  0.3649
  756SOL    HW1 2267   1.490   1.115   2.558  0.3724  0.9572  0.6882
  756SOL    HW2 2268   1.559   1.123   2.405 -2.6033 -0.4178  1.5316
  757SOL     OW 2269   3.106   2.982   1.752  0.2995 -0.8321  0.1534
  757SOL    HW1 2270   3.070   3.071   1.780 -0.8941 -0.3323  0.8116
  757SOL    HW2 2271   3.032   2.922   1.727  2.5913  0.3040 -1.6220
  758SOL     OW 2272   0.497   2.936   1.377  0.7182  0.6727  0.1304
  758SOL    HW1 2273   0.398   2.951   1.342 -2.8096  0.6001  1.7333
  758SOL    HW2 2274   0.571   2.985   1.323 -0.2397  3.4609 -1.9437
  759SOL     OW 2275   2.161   1.250   0.798  0.3508 -0.2951  0.0561
  759SOL    HW1 2276   2.165   1.173   0.735 -0.5638 -1.0382 -0.8531
  759SOL    HW2 2277   2.133   1.338   0.753  0.0795  1.0986  1.7703
  760SOL     OW 2278   1.676   0.166   1.895 -0.0926  0.0555  0.5230
  760SOL    HW1 2279   1.665   0.251   1.835  0.9734  2.8205 -1.4665
  760SOL    HW2 2280   1.596   0.143   1.949  0.7456  3.4413  0.0966
  761SOL     OW 2281   2.162   0.496   0.435  0.3973  0.0780  0.3041
  761SOL    HW1 2282   2.207   0.430   0.376  0.4226  0.0940  1.0081
  761SOL    HW2 2283   2.093   0.556   0.384  0.4269 -1.8634 -1.8780
  762SOL     OW 2284   2.417   2.716   0.147  0.5306  0.1986  0.3772
  762SOL    HW1 2285   2.485   2.638   0.138 -1.9482 -2.8372  3.1266
  762SOL    HW2 2286   2.324   2.690   0.116  0.0796  0.2578 -0.1096
  763SOL     OW 2287   0.776   0.761   1.024 -0.5602  0.1427 -0.2453
  763SOL    HW1 2288   0.873   0.751   1.057 -0.4817 -0.3008  0.5417
  763SOL    HW2 2289   0.770   0.738   0.923  1.6249  0.8591 -1.8171
  764SOL     OW 2290   2.163   2.396   2.861  0.4155 -0.3101 -0.6693
  764SOL    HW1 2291   2.175   2.407   2.961 -0.4931  1.2501 -1.3727
  764SOL    HW2 2292   2.190   2.478   2.805 -1.2284 -2.0637 -1.1302
  765SOL     OW 2293   0.186   0.879   2.062 -0.0091 -0.3747 -0.1749
  765SOL    HW1 2294   0.114   0.809   2.081 -1.0645 -0.7277  2.4642
  765SOL    HW2 2295   0.256   0.869   2.138 -1.7544  0.4291  1.1279
  766SOL     OW 2296   2.634   1.359   2.836 -0.5909 -0.5678  0.5921
  766SOL    HW1 2297   2.547   1.415   2.824 -1.9668  2.5083  3.8204
  766SOL    HW2 2298   2.677   1.351   2.744  3.1402  2.9626  1.4733
  767SOL     OW 2299   3.106   1.681   2.111 -0.2039 -0.0316 -0.3024
  767SOL    HW1 2300   3.003   1.696   2.109  0.1603 -0.0982 -0.1626
  767SOL    HW2 2301   3.120   1.579   2.123  0.4908 -2.9573  1.6786
  768SOL     OW 2302   1.035   1.066   0.140 -0.7289  0.2113  0.7054
  768SOL    HW1 2303   0.949   1.016   0.158  2.3683  2.2133 -1.6534
  768SOL    HW2 2304   1.122   1.010   0.145  1.8333 -3.6517  1.2220
  769SOL     OW 2305   1.798   2.818   2.789 -0.2920  0.2126  0.0507
  769SOL    HW1 2306   1.872   2.774   2.737 -2.5724  1.9439  1.3545
  769SOL    HW2 2307   1.826   2.907   2.818 -1.5747 -2.3238 -1.3085
  770SOL     OW 2308   0.779   0.283   2.447  0.3274  0.4000 -0.6309
  770SOL    HW1 2309   0.779   0.231   2.359 -1.5618  0.1625  4.0220
  770SOL    HW2 2310   0.784   0.383   2.432 -2.8753 -2.7223 -0.5512
  771SOL     OW 2311   0.732   2.360   1.037  0.5526 -0.2035  0.6198
  771SOL    HW1 2312   0.658   2.360   0.967  2.8990 -1.0269  2.4015
  771SOL    HW2 2313   0.823   2.369   0.990 -1.5130 -3.4443 -0.5256
  772SOL     OW 2314   0.297   0.687   0.168 -0.0490  0.1902  0.2999
  772SOL    HW1 2315   0.319   0.716   0.074 -1.3758  2.5938  1.7910
  772SOL    HW2 2316   0.197   0.662   0.180  1.4177  0.2279  0.2640
  773SOL     OW 2317   2.130   0.920   1.887 -0.7289  0.2605 -0.0487
  773SOL    HW1 2318   2.182   0.831   1.892 -0.0842 -1.7896 -0.7920
  773SOL    HW2 2319   2.170   0.985   1.822 -0.4816  1.3624 -1.0265
  774SOL     OW 2320   0.854   1.043   0.509 -0.0003 -0.0196 -0.2604
  774SOL    HW1 2321   0.795   1.122   0.481 -0.2891  0.6982 -0.7455
  774SOL    HW2 2322   0.856   1.042   0.611 -2.0206  2.0881 -0.8099
  775SOL     OW 2323   1.855   3.090   3.079 -0.3855  0.2160  0.9923
  775SOL    HW1 2324   1.832   3.010   0.007  3.7549  4.5585 -0.2762
  775SOL    HW2 2325   1.852   0.043   0.016 -0.3783 -1.3576 -0.9002
  776SOL     OW 2326   2.146   0.133   2.414 -0.2247  0.0543 -0.1188
  776SOL    HW1 2327   2.115   0.136   2.513 -0.4256 -0.9573  0.8312
  776SOL    HW2 2328   2.138   0.040   2.377 -0.7873  1.7847 -2.9556
  777SOL     OW 2329   0.874   1.560   0.172  0.1588  0.1877 -0.0026
  777SOL    HW1 2330   0.966   1.606   0.169 -2.1549  0.5916 -0.2403
  777SOL    HW2 2331   0.798   1.627   0.159 -0.6981 -0.5614 -1.1217
  778SOL     OW 2332   0.391   2.892   0.197  0.2763 -0.8237 -0.1795
  778SOL    HW1 2333   0.375   2.841   0.281  1.8471 -1.1185 -0.9085
  778SOL    HW2 2334   0.492   2.925   0.186  3.6064 -0.1715 -2.4628
  779SOL     OW 2335   0.331   1.303   3.062  0.3318  0.1010  0.0758
  779SOL    HW1 2336   0.275   1.234   3.108  3.4513  1.3617  0.0912
  779SOL    HW2 2337   0.419   1.268   3.032 -1.2370  1.6042  2.4623
  780SOL     OW 2338   2.213   0.389   2.370  0.0002 -0.0038  0.0360
  780SOL    HW1 2339   2.147   0.438   2.310 -1.2364  2.2144  2.3945
  780SOL    HW2 2340   2.187   0.293   2.383  0.4577 -0.6775 -0.9031
  781SOL     OW 2341   1.602   0.738   1.783  0.5009  0.1072  0.5104
  781SOL    HW1 2342   1.683   0.780   1.826 -1.4591 -0.7146 -0.6114
  781SOL    HW2 2343   1.630   0.656   1.729 -2.0667 -2.2953 -0.1897
  782SOL     OW 2344   1.703   1.881   2.172 -0.1723 -0.3844  0.0876
  782SOL    HW1 2345   1.770   1.944   2.215 -0.4323  1.1436  0.7361
  782SOL    HW2 2346   1.707   1.787   2.214  0.1867 -1.1608 -0.5456
  783SOL     OW 2347   1.251   2.969   1.168 -0.3774  0.2433  0.6472
  783SOL    HW1 2348   1.282   2.879   1.207 -0.4177  0.5770  0.9763
  783SOL    HW2 2349   1.212   2.969   1.074  0.4639 -1.3511 -3.0524
  784SOL     OW 2350   1.784   0.860   2.500  0.1263  0.0698  0.0774
  784SOL    HW1 2351   1.770   0.763   2.524  1.1598 -2.3911 -0.7270
  784SOL    HW2 2352   1.816   0.912   2.579 -0.0047 -0.0988 -2.2015
  785SOL     OW 2353   1.940   0.216   0.088  0.3254  0.3257  0.3372
  785SOL    HW1 2354   2.015   0.182   0.149  1.7301 -0.7861  0.9523
  785SOL    HW2 2355   1.979   0.272   0.014 -1.3991 -1.9390 -2.0592
  786SOL     OW 2356   2.970   1.903   0.614  0.9100 -0.0332 -0.0632
  786SOL    HW1 2357   2.981   1.882   0.514  1.1229  0.8024  0.5841
  786SOL    HW2 2358   2.918   1.989   0.635 -1.6233  1.2795 -0.2194
  787SOL     OW 2359   1.656   2.230   0.358  0.3626 -0.4928 -0.0630
  787SOL    HW1 2360   1.632   2.225   0.455  0.6134 -1.3944 -0.7320
  787SOL    HW2 2361   1.577   2.211   0.298  0.3134 -0.1982 -1.6608
  788SOL     OW 2362   2.128   1.515   1.420  0.1345 -0.6934 -0.5361
  788SOL    HW1 2363   2.209   1.575   1.427  0.3221 -2.8664 -0.5168
  788SOL    HW2 2364   2.051   1.577   1.398 -0.4216 -0.2632 -0.9500
  789SOL     OW 2365   3.006   1.368   2.714 -0.1673 -0.0396 -0.1790
  789SOL    HW1 2366   3.071   1.389   2.637 -1.1772  2.3133  0.4440
  789SOL    HW2 2367   3.009   1.270   2.734 -0.2347 -0.3746  0.9753
  790SOL     OW 2368   0.466   0.297   2.925  1.0938 -0.6595  0.1032
  790SOL    HW1 2369   0.506   0.339   3.009 -1.9288 -0.1161 -1.2827
  790SOL    HW2 2370   0.398   0.366   2.890  0.3562  0.3763 -0.8482
  791SOL     OW 2371   1.034   0.269   2.554  0.2206 -0.0274 -0.4256
  791SOL    HW1 2372   1.042   0.316   2.644  0.5500  0.2486  2.4737
  791SOL    HW2 2373   0.937   0.258   2.528  1.1840  0.7471  2.5517
  792SOL     OW 2374   1.788   0.728   2.114 -0.4986  0.3493 -0.0367
  792SOL    HW1 2375   1.831   0.812   2.150 -0.9632  2.2923  0.2407
  792SOL    HW2 2376   1.705   0.709   2.164  0.1711 -0.2761  1.2355
  793SOL     OW 2377   2.783   0.656   1.457  0.3477 -0.2281  0.5756
  793SOL    HW1 2378   2.838   0.628   1.381 -2.6174 -0.0244  1.6070
  793SOL    HW2 2379   2.687   0.625   1.447 -0.2357 -0.4217  0.2731
  794SOL     OW 2380   0.311   0.659   1.888  0.4967  0.6461  0.2940
  794SOL    HW1 2381   0.411   0.680   1.894 -3.0544 -0.0856  0.2826
  794SOL    HW2 2382   0.265   0.745   1.858  0.6154  0.9734 -0.5858
  795SOL     OW 2383   2.956   1.383   0.417 -0.3163  0.3847  0.2179
  795SOL    HW1 2384   2.916   1.466   0.367  1.1084  0.0577 -3.3357
  795SOL    HW2 2385   2.983   1.392   0.515  1.4989 -0.7224 -1.4744
  796SOL     OW 2386   0.378   2.621   3.124  0.2115  0.5821 -0.1300
  796SOL    HW1 2387   0.302   2.681   3.113 -0.0969 -0.8758 -0.6681
  796SOL    HW2 2388   0.333   2.539   0.045  3.1177  0.9269 -0.1772
  797SOL     OW 2389   2.229   2.624   3.122  0.1617 -0.2995  0.0800
  797SOL    HW1 2390   2.223   2.529   0.026  0.1766 -1.0987  0.2244
  797SOL    HW2 2391   2.142   2.659   3.082 -0.5817 -0.0358  0.7117
  798SOL     OW 2392   0.124   0.956   1.594 -0.4462 -0.2761  0.1647
  798SOL    HW1 2393   0.222   0.926   1.623  0.6357 -0.4206 -2.9313
  798SOL    HW2 2394   0.136   1.001   1.501  2.3714  0.7204 -3.6808
  799SOL     OW 2395   2.815   0.797   2.431  0.0098  0.4685 -0.2157
  799SOL    HW1 2396   2.869   0.794   2.344 -1.3017  1.0442  1.5262
  799SOL    HW2 2397   2.722   0.835   2.416 -0.2399 -2.2928  0.3057
  800SOL     OW 2398   2.861   2.103   0.751 -0.6187 -0.0761  0.0060
  800SOL    HW1 2399   2.773   2.152   0.757 -1.1440 -2.6055 -1.3083
  800SOL    HW2 2400   2.938   2.133   0.814 -0.1138 -2.1444  0.2216
  801SOL     OW 2401   1.818   1.098   1.211  0.3032 -0.0032  0.0068
  801SOL    HW1 2402   1.842   1.057   1.121  3.0946  3.3319  0.4138
  801SOL    HW2 2403   1.743   1.165   1.207  1.4094 -1.8735  0.4661
  802SOL     OW 2404   1.190   1.851   1.461 -0.5202 -0.3817 -0.2671
  802SOL    HW1 2405   1.263   1.875   1.531  1.1061  1.2762  0.5474
  802SOL    HW2 2406   1.139   1.939   1.440  1.6720 -1.8349  0.2829
  803SOL     OW 2407   3.021   1.817   0.347 -0.0744  0.4478 -0.1858
  803SOL    HW1 2408   3.111   1.779   0.373 -2.0360 -0.0674  0.9887
  803SOL    HW2 2409   3.028   1.874   0.260  0.9728  0.9868 -0.9335
  804SOL     OW 2410   1.071   2.462   1.320 -0.0573 -0.3198 -0.3299
  804SOL    HW1 2411   1.124   2.405   1.384  0.2181  1.9539 -0.5605
  804SOL    HW2 2412   1.005   2.515   1.376  0.7347 -0.7567 -2.4675
  805SOL     OW 2413   1.591   1.248   0.053  0.6351  0.1217  0.2574
  805SOL    HW1 2414   1.614   1.352   0.054  1.2237  2.2888 -1.6535
  805SOL    HW2 2415   1.483   1.240   0.060 -4.2936 -1.4992  2.4615
  806SOL     OW 2416   1.507   0.011   1.202  0.4732  0.1196 -0.9114
  806SOL    HW1 2417   1.417   3.090   1.204  0.5128 -0.7779  1.9266
  806SOL    HW2 2418   1.547   0.017   1.297 -0.2573  1.6227 -1.1107
  807SOL     OW 2419   2.147   2.996   2.862  0.6535  0.1643 -0.2676
  807SOL    HW1 2420   2.204   3.062   2.805  0.1169  1.8838  1.2401
  807SOL    HW2 2421   2.208   2.913   2.877  0.0876  3.1213  1.3622
  808SOL     OW 2422   0.144   1.157   0.065 -0.3698  0.4837 -0.7623
  808SOL    HW1 2423   0.069   1.211   0.108 -0.4703  3.0499 -2.1841
  808SOL    HW2 2424   0.182   1.095   0.133  0.2589  0.2872  0.3775
  809SOL     OW 2425   2.811   1.060   2.277 -0.2202 -0.0442 -0.2025
  809SOL    HW1 2426   2.901   1.035   2.234 -1.7014 -0.0387 -1.4420
  809SOL    HW2 2427   2.740   1.000   2.243  4.0803 -0.9790  2.5711
  810SOL     OW 2428   2.314   3.072   1.950  0.3270 -0.0111 -0.7621
  810SOL    HW1 2429   2.272   0.024   1.997 -1.0221  0.6100 -0.6722
  810SOL    HW2 2430   2.299   3.085   1.849 -0.0264  2.5505 -1.3381
  811SOL     OW 2431   2.557   2.627   1.804 -0.5374 -0.1901 -0.1356
  811SOL    HW1 2432   2.577   2.728   1.804  0.7566  0.6706 -2.3697
  811SOL    HW2 2433   2.633   2.576   1.852  2.5603  0.3584  0.8673
  812SOL     OW 2434   1.646   0.356   0.033 -0.0218  0.2389 -0.1354
  812SOL    HW1 2435   1.570   0.340   3.090  0.5375 -1.1971 -0.7790
  812SOL    HW2 2436   1.712   0.280   0.019 -1.3477 -0.9921  0.2162
  813SOL     OW 2437   2.114   0.366   1.951  0.4778 -0.1915  0.3696
  813SOL    HW1 2438   2.078   0.275   1.917 -0.2383  1.9067 -1.4075
  813SOL    HW2 2439   2.111   0.437   1.875  0.1497 -0.1915  1.1884
  814SOL     OW 2440   1.721   1.213   1.605 -0.4356 -0.0399 -0.0780
  814SOL    HW1 2441   1.763   1.255   1.691  1.5510  1.8568  1.5717
  814SOL    HW2 2442   1.648   1.273   1.567 -1.9305 -1.5783  0.2751
  815SOL     OW 2443   0.337   0.880   0.517  0.3866 -0.0616  0.0413
  815SOL    HW1 2444   0.401   0.864   0.442 -0.4767  1.6148  1.1758
  815SOL    HW2 2445   0.362   0.956   0.580 -0.7603 -0.1343 -2.7914
  816SOL     OW 2446   1.835   1.752   2.670 -0.1436 -0.1210 -0.4722
  816SOL    HW1 2447   1.879   1.724   2.583 -1.6537 -2.5103  0.4737
  816SOL    HW2 2448   1.746   1.701   2.680  1.4056 -0.1918 -0.6713
  817SOL     OW 2449   0.211   3.042   0.706 -0.0705 -0.1925  0.3066
  817SOL    HW1 2450   0.288   2.986   0.673 -0.5398 -1.1806  3.0450
  817SOL    HW2 2451   0.218   3.053   0.807 -0.4462  0.4266 -1.7376
  818SOL     OW 2452   2.043   0.116   2.661  0.0347  0.3103  0.1854
  818SOL    HW1 2453   1.981   0.053   2.705 -1.2397  1.3586 -3.4464
  818SOL    HW2 2454   2.028   0.213   2.699  4.2095 -1.4568 -0.1272
  819SOL     OW 2455   1.156   1.023   0.584  0.7735 -0.4683  0.3243
  819SOL    HW1 2456   1.121   0.965   0.659 -0.8581 -0.8404 -1.9618
  819SOL    HW2 2457   1.077   1.070   0.537 -1.9908 -1.3910  1.3986
  820SOL     OW 2458   2.323   0.993   0.988  0.4602 -0.1582  0.5972
  820SOL    HW1 2459   2.387   0.976   1.063  1.1295 -1.5250 -0.7297
  820SOL    HW2 2460   2.373   1.026   0.906  0.9874  1.2610 -0.7562
  821SOL     OW 2461   2.318   0.164   0.416 -0.5503 -0.5802 -0.4258
  821SOL    HW1 2462   2.381   0.090   0.391  1.9398  0.0490  0.3306
  821SOL    HW2 2463   2.280   0.146   0.506 -0.2538  0.5959 -0.8534
  822SOL     OW 2464   0.563   2.767   2.643  0.0042 -0.7018 -0.0111
  822SOL    HW1 2465   0.581   2.672   2.680 -0.7931 -3.9079 -2.8185
  822SOL    HW2 2466   0.522   2.755   2.551  2.0592  0.8089  0.4022
  823SOL     OW 2467   0.039   2.351   1.943  0.2016 -0.2971  0.2722
  823SOL    HW1 2468   0.006   2.255   1.942 -0.9128  1.3186 -1.2309
  823SOL    HW2 2469   0.007   2.398   1.858 -1.5313 -0.0615  0.8927
  824SOL     OW 2470   0.902   2.799   2.104  0.0299 -0.5687 -0.3943
  824SOL    HW1 2471   0.996   2.840   2.096 -2.3170  1.3506 -0.9422
  824SOL    HW2 2472   0.902   2.700   2.072 -1.7629  2.4528  1.0513
  825SOL     OW 2473   1.385   1.824   0.392 -0.0701 -0.1530 -0.1177
  825SOL    HW1 2474   1.408   1.728   0.370  3.5954  0.0151  1.4970
  825SOL    HW2 2475   1.282   1.839   0.410 -1.7703  0.2109 -1.2855
  826SOL     OW 2476   1.322   2.908   2.963 -0.3982 -0.2194 -0.5502
  826SOL    HW1 2477   1.244   2.905   2.897  0.9597 -1.9959  2.4227
  826SOL    HW2 2478   1.335   2.815   3.003  1.3717  0.1900  0.2270
  827SOL     OW 2479   0.219   1.780   1.299 -0.1359 -0.1889 -0.3581
  827SOL    HW1 2480   0.321   1.784   1.324  0.7518 -0.0621  0.0638
  827SOL    HW2 2481   0.208   1.701   1.237  1.4424 -1.3696  1.3971
  828SOL     OW 2482   2.413   1.318   1.555 -0.1932  0.0061 -0.4437
  828SOL    HW1 2483   2.337   1.275   1.511  0.9732 -0.1159  0.7554
  828SOL    HW2 2484   2.495   1.261   1.531  1.2610  0.9636  0.7229
  829SOL     OW 2485   2.989   2.132   0.398 -0.4287  0.2863  0.0140
  829SOL    HW1 2486   3.066   2.184   0.446  2.2045 -0.0976 -1.3924
  829SOL    HW2 2487   3.024   2.107   0.306  0.9564  0.8675  0.0281
  830SOL     OW 2488   1.106   0.686   0.509 -0.0957  0.2246  0.4977
  830SOL    HW1 2489   1.202   0.715   0.496 -3.0404  0.8870 -0.7802
  830SOL    HW2 2490   1.065   0.734   0.590 -2.2816 -1.6007  0.8103
  831SOL     OW 2491   2.789   2.035   0.001  0.0665  0.6546  0.3395
  831SOL    HW1 2492   2.798   1.939   3.101 -0.7225 -0.1023  2.5142
  831SOL    HW2 2493   2.703   2.050   0.049 -0.2566 -1.1606  0.8394
  832SOL     OW 2494   0.968   2.647   0.260 -0.7458 -0.0619 -0.6230
  832SOL    HW1 2495   0.910   2.716   0.306 -0.6325  0.2159  1.1209
  832SOL    HW2 2496   1.047   2.629   0.322 -0.7145 -1.1192 -0.8324
  833SOL     OW 2497   1.339   0.513   2.318  0.9531  0.2769 -0.5921
  833SOL    HW1 2498   1.242   0.526   2.287 -0.2528 -1.9014 -1.0948
  833SOL    HW2 2499   1.398   0.594   2.318  1.2415  1.4388 -1.1462
  834SOL     OW 2500   3.083   0.990   0.745  0.3878  0.6478 -0.4939
  834SOL    HW1 2501   3.024   1.025   0.666  0.1896  2.0431 -1.1832
  834SOL    HW2 2502   3.096   0.891   0.736 -1.7508  1.6856  1.9996
  835SOL     OW 2503   2.631   0.468   2.011 -0.1459 -0.4383 -0.5194
  835SOL    HW1 2504   2.627   0.559   1.976  2.0267 -2.7775 -1.6903
  835SOL    HW2 2505   2.559   0.453   2.082  0.6873  1.1785 -0.8172
  836SOL     OW 2506   0.561   2.329   0.806 -0.2307  0.3641 -0.3665
  836SOL    HW1 2507   0.507   2.397   0.757  0.5708 -3.1877 -1.1681
  836SOL    HW2 2508   0.629   2.278   0.751  0.6023 -2.3114 -0.9228
  837SOL     OW 2509   2.302   1.789   2.176  0.1552 -0.6043  0.1870
  837SOL    HW1 2510   2.372   1.722   2.217  0.5590 -0.5564  2.5143
  837SOL    HW2 2511   2.307   1.873   2.232 -2.6860  0.7490 -0.5680
  838SOL     OW 2512   0.173   1.379   1.686  0.3440 -0.5949 -0.2839
  838SOL    HW1 2513   0.202   1.348   1.594 -0.5291 -1.3703  0.2518
  838SOL    HW2 2514   0.178   1.480   1.697 -1.6680  1.4288  1.6240
  839SOL     OW 2515   0.196   0.359   0.493  0.8005  0.0231 -0.2739
  839SOL    HW1 2516   0.265   0.400   0.437 -2.8051 -2.9523  3.4819
  839SOL    HW2 2517   0.206   0.258   0.481  0.7726 -2.0308 -2.1646
  840SOL     OW 2518   0.069   0.638   2.590  0.1280  0.1231  0.0953
  840SOL    HW1 2519   0.010   0.714   2.622  3.4747  0.8059 -2.3475
  840SOL    HW2 2520   0.034   0.554   2.641  0.2193  0.0178  2.1191
  841SOL     OW 2521   0.317   2.277   2.904 -0.6118 -0.0242 -0.3511
  841SOL    HW1 2522   0.250   2.260   2.977 -0.1420  0.2212 -0.3906
  841SOL    HW2 2523   0.374   2.359   2.928 -0.8839  1.3867  0.1052
  842SOL     OW 2524   0.771   3.114   0.953 -0.2920 -0.2588 -0.2272
  842SOL    HW1 2525   0.791   3.011   0.944  1.0529 -1.3517  2.5357
  842SOL    HW2 2526   0.683   0.015   0.906 -0.9994 -1.0514  0.1763
  843SOL     OW 2527   0.361   1.576   2.788  0.1802  0.3184  0.3507
  843SOL    HW1 2528   0.356   1.663   2.738 -3.3181 -1.5620  1.2501
  843SOL    HW2 2529   0.438   1.522   2.754 -0.7490  3.7274  3.2341
  844SOL     OW 2530   0.895   2.064   2.553 -0.2293  0.0553 -0.2511
  844SOL    HW1 2531   0.958   2.124   2.503 -2.2313 -0.6104  1.7503
  844SOL    HW2 2532   0.944   1.989   2.598  0.1644 -2.2611  0.2369
  845SOL     OW 2533   2.545   2.801   2.626  0.0521 -0.2213 -0.1660
  845SOL    HW1 2534   2.619   2.873   2.626 -1.1428  1.6029  2.4127
  845SOL    HW2 2535   2.470   2.830   2.563  0.0894 -1.7837  1.1033
  846SOL     OW 2536   2.071   1.211   3.055 -0.7894  0.0601 -0.5863
  846SOL    HW1 2537   2.072   1.276   2.981  0.2409 -2.8150  0.9242
  846SOL    HW2 2538   1.990   1.217   3.118 -2.6515  1.2584  1.5622
  847SOL     OW 2539   2.743   0.135   2.845 -0.1847  0.1108  0.1914
  847SOL    HW1 2540   2.773   0.202   2.773  0.7650 -2.6446 -0.9946
  847SOL    HW2 2541   2.640   0.143   2.864 -1.1793  0.5559  1.2579
  848SOL     OW 2542   2.973   0.769   3.091 -0.4052  0.4378  0.7331
  848SOL    HW1 2543   2.901   0.773   3.015 -1.0929 -2.2504 -0.5048
  848SOL    HW2 2544   3.032   0.691   3.061  0.8424 -0.4210  1.3496
  849SOL     OW 2545   1.464   0.351   2.491  0.7682  0.1671 -0.2853
  849SOL    HW1 2546   1.405   0.351   2.573 -0.3608  0.4317 -1.0441
  849SOL    HW2 2547   1.416   0.407   2.420  1.8787  1.6475  1.1761
  850SOL     OW 2548   0.147   1.047   0.314 -0.6676  0.4032 -0.1416
  850SOL    HW1 2549   0.217   0.998   0.367 -0.7375 -0.5065 -0.3977
  850SOL    HW2 2550   0.056   0.998   0.324  2.3371  3.0006  3.0030
  851SOL     OW 2551   0.328   1.367   0.588 -0.1197 -0.4170 -0.4423
  851SOL    HW1 2552   0.427   1.397   0.589 -0.2463 -1.9818 -1.7917
  851SOL    HW2 2553   0.296   1.373   0.488 -0.2402 -2.2043 -0.0756
  852SOL     OW 2554   1.152   1.160   1.396 -0.1591  0.0528 -0.2718
  852SOL    HW1 2555   1.105   1.112   1.468  2.0799 -0.6798 -3.6584
  852SOL    HW2 2556   1.252   1.164   1.416  0.8711 -2.3098  0.6556
  853SOL     OW 2557   2.369   1.496   0.316 -0.3961 -0.1022  0.4286
  853SOL    HW1 2558   2.382   1.441   0.399  0.6920  2.0534  0.8046
  853SOL    HW2 2559   2.293   1.563   0.336 -1.0764  1.6513  3.3182
  854SOL     OW 2560   1.447   1.004   2.160 -0.0643  0.2672  0.1515
  854SOL    HW1 2561   1.530   1.048   2.116 -1.8087  0.1294  1.4981
  854SOL    HW2 2562   1.361   1.061   2.144 -0.4512  1.1812 -1.0804
  855SOL     OW 2563   0.438   2.303   2.653  0.4105 -0.5731  0.6388
  855SOL    HW1 2564   0.401   2.263   2.739  1.1185 -0.3731  0.6599
  855SOL    HW2 2565   0.533   2.331   2.662 -1.6299  1.5371 -3.4365
  856SOL     OW 2566   1.131   0.886   1.963  0.1348  0.2373  0.5308
  856SOL    HW1 2567   1.162   0.974   1.924  2.8003  1.6377  0.4153
  856SOL    HW2 2568   1.195   0.806   1.961 -0.4098 -0.6391  2.7332
  857SOL     OW 2569   1.093   1.090   2.371 -0.3613 -0.1845  0.0955
  857SOL    HW1 2570   1.064   1.168   2.430 -0.4520 -0.3168  1.4264
  857SOL    HW2 2571   1.167   1.110   2.309 -1.1266  1.3651  0.1733
  858SOL     OW 2572   2.963   1.003   1.575  0.2620  0.1909  0.0462
  858SOL    HW1 2573   2.998   1.096   1.605  0.3352  1.7563  0.2301
  858SOL    HW2 2574   3.040   0.937   1.583  1.3470  0.8160 -1.5031
  859SOL     OW 2575   2.520   0.059   0.971 -0.7024 -0.9687 -0.4809
  859SOL    HW1 2576   2.503   0.058   0.867  0.3937  1.8232  0.5135
  859SOL    HW2 2577   2.598   3.124   0.998  0.1411  0.9407  0.7528
  860SOL     OW 2578   1.691   0.478   1.141 -0.4627 -0.2661  0.5492
  860SOL    HW1 2579   1.752   0.562   1.145  0.4857 -0.1312 -1.5967
  860SOL    HW2 2580   1.695   0.427   1.231  2.8873 -1.9100  0.1199
  861SOL     OW 2581   1.814   0.717   1.179  0.2441  0.0333 -0.1392
  861SOL    HW1 2582   1.737   0.744   1.246 -2.1628 -2.4426  0.2665
  861SOL    HW2 2583   1.854   0.798   1.129 -0.5523  0.3743 -2.3576
  862SOL     OW 2584   1.255   2.966   2.601 -0.0472  0.0390 -0.2480
  862SOL    HW1 2585   1.244   2.963   2.498  2.3597 -0.1596 -0.8646
  862SOL    HW2 2586   1.349   2.937   2.624  0.1551  1.0958 -2.0350
  863SOL     OW 2587   2.789   2.818   1.339 -0.0509  0.8282  0.2628
  863SOL    HW1 2588   2.820   2.918   1.337  2.4013 -1.3564 -0.1399
  863SOL    HW2 2589   2.839   2.762   1.270  2.4857 -1.5088  0.9088
  864SOL     OW 2590   2.664   3.088   2.185 -0.2265  0.2522 -0.2158
  864SOL    HW1 2591   2.606   0.037   2.227 -0.0178  2.4144  0.5543
  864SOL    HW2 2592   2.611   3.016   2.144 -1.3159 -0.0925  1.8255
  865SOL     OW 2593   1.134   1.301   2.734 -0.5815  0.5412  0.3780
  865SOL    HW1 2594   1.053   1.269   2.680  1.2464  0.7571  0.4329
  865SOL    HW2 2595   1.152   1.397   2.712 -2.1186  1.3882 -0.6282
  866SOL     OW 2596   2.215   3.051   0.952  0.2892  0.4693 -0.1184
  866SOL    HW1 2597   2.224   2.978   0.879  0.2695  0.4615 -0.6156
  866SOL    HW2 2598   2.302   3.104   0.974 -0.2715  0.3528  0.1928
  867SOL     OW 2599   2.950   2.727   1.145  0.5389  0.4365  0.1377
  867SOL    HW1 2600   2.961   2.818   1.108  1.2977  0.4267  2.0849
  867SOL    HW2 2601   3.018   2.657   1.115  2.8495 -1.0924  1.3593
  868SOL     OW 2602   0.061   1.698   1.508 -0.5828 -0.4939  0.4897
  868SOL    HW1 2603   0.117   1.731   1.428  0.2734  3.1703 -0.9038
  868SOL    HW2 2604   0.115   1.680   1.595  0.3312 -4.3390  2.5350
  869SOL     OW 2605   1.892   1.995   2.343  0.2552  0.3192  0.2405
  869SOL    HW1 2606   1.900   2.061   2.422 -1.0508  0.1673  2.0807
  869SOL    HW2 2607   1.915   1.904   2.378  0.1667  4.0705  0.3332
  870SOL     OW 2608   1.410   0.770   0.663  0.1440  0.6714  0.0933
  870SOL    HW1 2609   1.427   0.825   0.748  1.5218  0.2181 -1.2457
  870SOL    HW2 2610   1.439   0.676   0.679  0.7032  0.5363  0.0541
  871SOL     OW 2611   2.824   1.699   2.095  0.2117 -0.5096  0.1324
  871SOL    HW1 2612   2.755   1.756   2.048  1.5758  1.2284 -2.3999
  871SOL    HW2 2613   2.801   1.711   2.194  0.9149  0.5712 -1.7903
  872SOL     OW 2614   0.974   1.695   2.869  0.2064  0.1122  0.0023
  872SOL    HW1 2615   1.001   1.761   2.939  2.6965 -0.5427 -0.2174
  872SOL    HW2 2616   0.977   1.607   2.922  1.6905  0.9524 -0.2086
  873SOL     OW 2617   0.975   1.421   1.808 -0.0501  0.2394 -0.0973
  873SOL    HW1 2618   0.878   1.453   1.803  0.0534 -0.9853 -0.4083
  873SOL    HW2 2619   1.024   1.420   1.724  1.2794 -0.2061  0.5786
  874SOL     OW 2620   1.407   1.105   1.489  0.2149  0.5870  0.3400
  874SOL    HW1 2621   1.414   1.185   1.550 -0.6764 -2.2102 -1.6018
  874SOL    HW2 2622   1.463   1.116   1.404  1.7347  0.2459 -1.6750
  875SOL     OW 2623   2.911   0.098   2.581 -0.0847 -0.2880  0.0278
  875SOL    HW1 2624   2.868   0.180   2.530  1.5164  1.6335  3.1138
  875SOL    HW2 2625   3.010   0.088   2.554 -0.2486 -0.4814 -1.8793
  876SOL     OW 2626   1.076   1.281   0.306 -0.4510 -0.0339 -0.3776
  876SOL    HW1 2627   0.984   1.306   0.334  0.5148  1.6767  0.8467
  876SOL    HW2 2628   1.068   1.204   0.242 -0.6820 -1.5315 -1.0275
  877SOL     OW 2629   2.288   2.889   0.395 -0.1998  0.2807 -0.0863
  877SOL    HW1 2630   2.274   2.787   0.383 -0.9298 -1.9184  2.5997
  877SOL    HW2 2631   2.326   2.934   0.310 -0.7208  0.8022  0.3984
  878SOL     OW 2632   1.887   2.142   0.263 -0.6494  0.2876 -0.0265
  878SOL    HW1 2633   1.967   2.200   0.292  0.2800 -2.5503  0.0436
  878SOL    HW2 2634   1.802   2.187   0.292  1.8720  0.4089 -0.4676
  879SOL     OW 2635   0.087   1.914   2.033  0.0225  0.2074 -0.2296
  879SOL    HW1 2636   0.038   1.832   2.060  0.0939  2.6326  1.0670
  879SOL    HW2 2637   0.043   1.980   1.964 -0.6811  2.6248 -3.9307
  880SOL     OW 2638   0.197   1.993   0.964  0.0299 -0.0462 -0.4386
  880SOL    HW1 2639   0.100   2.028   0.961  0.4817 -1.0521 -0.8076
  880SOL    HW2 2640   0.269   2.067   0.965 -0.2606 -0.9618 -0.2137
  881SOL     OW 2641   1.052   0.194   2.269 -0.1061 -0.0301 -0.2905
  881SOL    HW1 2642   1.079   0.221   2.363 -0.1716  1.1559  0.5902
  881SOL    HW2 2643   0.964   0.142   2.270 -0.8667 -1.5839 -2.2494
  882SOL     OW 2644   2.538   1.025   0.795 -0.1494 -0.2866  0.4060
  882SOL    HW1 2645   2.514   0.929   0.790  1.5088 -0.7746  0.9349
  882SOL    HW2 2646   2.626   1.038   0.851  1.0921  1.9718 -0.0269
  883SOL     OW 2647   1.637   0.391   1.755  0.4514 -0.1655  0.6549
  883SOL    HW1 2648   1.648   0.438   1.842 -2.3058 -2.4187  0.6862
  883SOL    HW2 2649   1.699   0.417   1.679 -0.2291 -1.1026 -1.6839
  884SOL     OW 2650   3.003   0.124   1.854  0.2073  0.1327  0.2074
  884SOL    HW1 2651   2.911   0.087   1.880  0.9428  1.2830 -0.7272
  884SOL    HW2 2652   2.996   0.225   1.849 -1.2787 -2.3764  0.5325
  885SOL     OW 2653   1.954   1.395   2.724 -0.0727  0.8685 -0.0278
  885SOL    HW1 2654   1.945   1.429   2.821 -0.3008  0.2913  2.5938
  885SOL    HW2 2655   1.864   1.373   2.679 -0.3570  1.2134 -1.0209
  886SOL     OW 2656   2.244   0.256   3.091  0.1260 -0.4251 -0.1731
  886SOL    HW1 2657   2.265   0.306   0.050  0.2577 -2.4445  0.0662
  886SOL    HW2 2658   2.166   0.295   3.042  0.8315  1.4222 -0.8264
  887SOL     OW 2659   1.197   2.718   1.736  0.3956 -0.2780 -0.2938
  887SOL    HW1 2660   1.268   2.732   1.803 -2.0753  1.0180 -1.6564
  887SOL    HW2 2661   1.234   2.723   1.644 -1.1869  2.4946  0.4863
  888SOL     OW 2662   2.115   1.659   2.013 -0.1830 -0.4453 -0.0880
  888SOL    HW1 2663   2.196   1.693   2.067 -1.2056  2.4869 -1.9179
  888SOL    HW2 2664   2.133   1.692   1.921 -0.8802 -0.1841  3.0583
  889SOL     OW 2665   1.885   2.328   1.372  0.6543  0.1856  0.1158
  889SOL    HW1 2666   1.972   2.384   1.375  1.1001 -0.3358 -3.0526
  889SOL    HW2 2667   1.890   2.250   1.312  1.9949  1.8335 -1.1767
  890SOL     OW 2668   1.337   1.748   1.018  0.0534 -0.2871 -0.3467
  890SOL    HW1 2669   1.364   1.786   1.114 -1.3396  2.0226  0.0739
  890SOL    HW2 2670   1.242   1.764   1.003  2.3816  2.6300  0.1183
  891SOL     OW 2671   3.022   1.247   0.171 -0.2509 -0.2043 -0.1768
  891SOL    HW1 2672   2.988   1.153   0.179  2.8914  1.9487  1.9407
  891SOL    HW2 2673   2.986   1.304   0.253 -0.4083 -0.9837 -0.2199
  892SOL     OW 2674   2.429   1.471   0.025  0.2071  0.0421 -0.2499
  892SOL    HW1 2675   2.520   1.430   0.010  0.1767  2.0590  3.0930
  892SOL    HW2 2676   2.394   1.471   0.124  0.5106 -1.3818  1.5620
  893SOL     OW 2677   2.130   2.453   1.412  0.0250  0.1452  0.0653
  893SOL    HW1 2678   2.129   2.553   1.417  0.7857 -0.6357 -1.6154
  893SOL    HW2 2679   2.165   2.421   1.501 -1.2946  1.4751 -3.1868
  894SOL     OW 2680   2.643   0.180   0.673  0.2386  0.6747  0.2826
  894SOL    HW1 2681   2.585   0.222   0.603 -1.1213  0.3605  1.3370
  894SOL    HW2 2682   2.629   0.077   0.678  0.1455 -1.7758 -0.3859
  895SOL     OW 2683   2.977   2.590   2.617  0.1552  0.2049 -0.5410
  895SOL    HW1 2684   2.957   2.686   2.583  1.6444  1.5174  1.3692
  895SOL    HW2 2685   2.895   2.531   2.617  1.2004 -0.6430  0.9009
  896SOL     OW 2686   2.298   0.083   2.718  0.8012 -0.2061 -0.5297
  896SOL    HW1 2687   2.203   0.107   2.705  0.9793 -1.6425  0.1255
  896SOL    HW2 2688   2.343   0.144   2.791 -0.0116 -0.3278 -1.0080
  897SOL     OW 2689   0.278   1.648   1.994 -0.2400 -0.2782  0.1635
  897SOL    HW1 2690   0.191   1.678   2.040 -2.2361  1.8119  1.3550
  897SOL    HW2 2691   0.323   1.573   2.047 -2.9695 -2.0189 -1.1517
  898SOL     OW 2692   2.895   1.877   1.531 -0.2147 -0.7214 -0.0619
  898SOL    HW1 2693   2.975   1.814   1.536 -0.8493 -1.4797  1.9698
  898SOL    HW2 2694   2.812   1.836   1.483 -3.9048  0.9665 -5.8197
  899SOL     OW 2695   1.786   3.030   1.474 -0.0884  0.4925 -0.1304
  899SOL    HW1 2696   1.792   3.039   1.576 -1.0415  0.6234 -2.0970
  899SOL    HW2 2697   1.794   2.931   1.444  1.9715 -1.6519  0.7861
  900SOL     OW 2698   1.264   0.926   0.122  0.2095  0.1416 -0.2605
  900SOL    HW1 2699   1.223   0.848   0.073  1.7852 -0.6467 -0.1593
  900SOL    HW2 2700   1.295   0.893   0.219  0.2257 -0.5213  1.2516
  901SOL     OW 2701   1.428   1.017   2.691  0.1727  0.3694  0.4712
  901SOL    HW1 2702   1.508   0.968   2.722 -1.6360  2.3407  0.8810
  901SOL    HW2 2703   1.342   0.955   2.679 -2.5341 -1.3237 -0.7522
  902SOL     OW 2704   2.724   2.493   0.596 -0.3992 -0.1115 -0.2903
  902SOL    HW1 2705   2.831   2.481   0.600 -0.7717  0.3447  0.8417
  902SOL    HW2 2706   2.678   2.440   0.667 -0.3693  1.4712  0.2491
  903SOL     OW 2707   2.918   1.290   1.856 -0.1206  0.0247  0.3135
  903SOL    HW1 2708   2.866   1.207   1.831  0.8524 -1.3289  0.3072
  903SOL    HW2 2709   2.989   1.310   1.787  0.0502  0.0854  0.7587
  904SOL     OW 2710   1.869   1.065   0.503 -0.3433  0.0079 -0.5967
  904SOL    HW1 2711   1.908   0.973   0.490  1.9111  2.0298  0.4798
  904SOL    HW2 2712   1.919   1.138   0.458 -1.2792  0.1285 -0.0724
  905SOL     OW 2713   2.115   2.717   1.439  0.1157  0.2517  0.0827
  905SOL    HW1 2714   2.137   2.758   1.351 -1.3316 -1.4854 -0.1820
  905SOL    HW2 2715   2.183   2.759   1.502 -0.9588  1.9941 -3.1902
  906SOL     OW 2716   1.565   2.407   0.014  0.2818 -0.3152  0.3994
  906SOL    HW1 2717   1.552   2.483   0.082 -1.0431 -0.7980  3.8469
  906SOL    HW2 2718   1.656   2.407   3.094  0.0531 -0.8383 -0.2257
  907SOL     OW 2719   0.449   2.734   0.898 -0.2526  0.2667 -0.2929
  907SOL    HW1 2720   0.379   2.703   0.965 -1.2478  1.7552  0.7320
  907SOL    HW2 2721   0.491   2.820   0.938  0.1005 -0.6295 -0.4377
  908SOL     OW 2722   0.796   0.113   2.234 -0.5640  0.2335  0.3065
  908SOL    HW1 2723   0.770   0.017   2.257  1.2477 -1.7293 -0.2688
  908SOL    HW2 2724   0.805   0.128   2.133  0.7617  0.8499  0.6142
  909SOL     OW 2725   2.056   0.547   1.776  0.4959 -0.0667 -0.9424
  909SOL    HW1 2726   2.041   0.539   1.676 -1.1079  1.6562  1.1312
  909SOL    HW2 2727   1.991   0.607   1.819  1.8552  0.4535 -1.0648
  910SOL     OW 2728   1.192   0.689   0.038 -0.3565 -0.0336 -0.2981
  910SOL    HW1 2729   1.092   0.672   0.043  2.3844 -0.6702  2.3909
  910SOL    HW2 2730   1.239   0.602   0.017 -0.6224  0.0311  1.1990
  911SOL     OW 2731   0.035   0.567   2.971 -0.2332 -0.1994 -0.3705
  911SOL    HW1 2732   0.019   0.512   2.887 -0.9432  3.0104  2.7954
  911SOL    HW2 2733   0.096   0.521   3.039 -1.4062 -0.6582  0.4874
  912SOL     OW 2734   2.829   2.401   0.241 -0.8737 -0.1808  0.4145
  912SOL    HW1 2735   2.745   2.388   0.297  3.2330 -1.2469  0.5889
  912SOL    HW2 2736   2.816   2.378   0.138  0.6813 -1.3689  0.0594
  913SOL     OW 2737   2.636   2.329   2.872 -0.1227  0.7294  0.0681
  913SOL    HW1 2738   2.610   2.253   2.809  0.0718 -2.1214 -0.4729
  913SOL    HW2 2739   2.619   2.420   2.834 -0.9827 -0.2734  0.1323
  914SOL     OW 2740   1.634   1.647   1.684  0.1783 -0.2706 -0.3750
  914SOL    HW1 2741   1.610   1.728   1.746 -2.5310  0.8144  1.7544
  914SOL    HW2 2742   1.734   1.655   1.664 -2.2906  0.8264  1.8713
  915SOL     OW 2743   0.185   2.519   2.260 -0.5138 -0.4431 -0.8416
  915SOL    HW1 2744   0.238   2.537   2.346  0.8908 -1.6872  0.2035
  915SOL    HW2 2745   0.155   2.421   2.253 -1.6535 -2.6944 -1.1638
  916SOL     OW 2746   3.053   1.270   1.627 -0.6421  0.5527 -0.4558
  916SOL    HW1 2747   0.025   1.299   1.645  0.1858  0.2487 -0.1888
  916SOL    HW2 2748   3.015   1.321   1.549  1.8136  0.1366 -0.5176
  917SOL     OW 2749   2.210   3.097   0.011 -0.5450  0.0380 -0.0475
  917SOL    HW1 2750   2.185   3.082   3.040  3.1913  1.0593  2.9601
  917SOL    HW2 2751   2.192   0.066   0.047  0.9524 -2.3369 -0.1449
  918SOL     OW 2752   1.764   2.545   2.109  0.1296 -0.1989 -0.2366
  918SOL    HW1 2753   1.709   2.493   2.036 -0.5582 -1.4348  1.4251
  918SOL    HW2 2754   1.733   2.637   2.113 -0.0190 -1.8883 -0.9972
  919SOL     OW 2755   1.826   2.183   1.830 -0.1690 -0.0110  0.2176
  919SOL    HW1 2756   1.833   2.178   1.725  1.0264  0.9652 -1.0384
  919SOL    HW2 2757   1.815   2.093   1.873 -0.7218  2.0861 -0.4329
  920SOL     OW 2758   0.579   0.990   0.078  0.4290 -0.0381 -0.2164
  920SOL    HW1 2759   0.608   1.076   0.039  0.2615 -1.5894  0.9501
  920SOL    HW2 2760   0.532   0.941   0.003  0.9007  2.7458  1.5454
  921SOL     OW 2761   2.915   1.109   2.804 -0.0493  0.4555 -0.5807
  921SOL    HW1 2762   2.830   1.092   2.859 -2.3984  2.1084 -0.8536
  921SOL    HW2 2763   2.889   1.100   2.709  0.8944  1.2178 -0.6393
  922SOL     OW 2764   0.417   2.001   0.273  0.2187 -0.3520  0.9693
  922SOL    HW1 2765   0.370   1.911   0.269  1.7923 -1.3967  0.3592
  922SOL    HW2 2766   0.517   1.987   0.253 -1.0509 -0.4453  1.4891
  923SOL     OW 2767   0.396   1.062   2.004  0.0988  0.0401 -0.0177
  923SOL    HW1 2768   0.372   1.103   1.916 -1.2608 -1.8080 -1.6678
  923SOL    HW2 2769   0.306   1.022   2.039 -1.1752  0.9768  0.8150
  924SOL     OW 2770   1.101   2.878   2.800  0.0661 -0.4295  0.0028
  924SOL    HW1 2771   1.136   2.932   2.720  2.6237  2.5810 -0.7898
  924SOL    HW2 2772   1.015   2.924   2.827 -0.1190  1.8578 -2.3304
  925SOL     OW 2773   2.184   1.339   1.218 -0.0997 -0.6650  0.3539
  925SOL    HW1 2774   2.145   1.419   1.274 -2.1011  1.6149  1.5346
  925SOL    HW2 2775   2.287   1.345   1.210  1.0365 -0.2998 -0.8891
  926SOL     OW 2776   2.070   0.530   2.170  0.0846  0.3922 -0.0211
  926SOL    HW1 2777   2.087   0.463   2.095 -0.2866  2.0251 -0.8314
  926SOL    HW2 2778   1.971   0.565   2.170 -2.2315  0.1593  0.5568
  927SOL     OW 2779   2.837   2.500   1.934  0.7729  0.1526  0.0605
  927SOL    HW1 2780   2.933   2.515   1.904  0.1149  1.3930  0.5277
  927SOL    HW2 2781   2.831   2.518   2.035 -0.4633  0.3124  2.7900
  928SOL     OW 2782   0.446   1.090   2.506  0.5089  0.4066 -0.0077
  928SOL    HW1 2783   0.347   1.100   2.485  1.4381 -1.1985 -2.3398
  928SOL    HW2 2784   0.492   1.063   2.422  0.5163  1.1552  2.5556
  929SOL     OW 2785   2.807   3.109   0.854 -0.0890  0.1164  0.2054
  929SOL    HW1 2786   2.758   0.064   0.819 -0.7295 -3.1808  0.4655
  929SOL    HW2 2787   2.830   3.043   0.779 -0.8600  3.1791  0.7200
  930SOL     OW 2788   2.523   0.323   1.558  0.0901  0.0808  0.1034
  930SOL    HW1 2789   2.532   0.314   1.658  0.3227  1.4907  0.1625
  930SOL    HW2 2790   2.614   0.288   1.520 -1.0119 -1.6688 -0.9650
  931SOL     OW 2791   2.249   1.198   0.257 -0.2479  0.0975  0.3017
  931SOL    HW1 2792   2.224   1.241   0.168  1.5505  1.1452  0.7415
  931SOL    HW2 2793   2.346   1.166   0.265 -1.7411  1.3827  0.6564
  932SOL     OW 2794   2.539   1.569   1.490  0.1042 -0.1718  0.4343
  932SOL    HW1 2795   2.493   1.480   1.521  2.2716 -0.5838  2.6452
  932SOL    HW2 2796   2.472   1.632   1.452  2.3130 -1.0179 -2.1189
  933SOL     OW 2797   2.906   2.561   1.545  0.2151 -0.5124 -0.5284
  933SOL    HW1 2798   2.938   2.612   1.462  2.5455 -3.1506  2.6867
  933SOL    HW2 2799   2.808   2.538   1.530  0.4022  0.0175  0.2279
  934SOL     OW 2800   0.859   2.270   1.303  0.6133 -0.2094 -0.1919
  934SOL    HW1 2801   0.789   2.292   1.229 -2.1598  0.5970 -3.9307
  934SOL    HW2 2802   0.946   2.322   1.285  0.9902  3.1811  0.8905
  935SOL     OW 2803   2.493   1.599   2.260  0.2685  0.0697  0.2577
  935SOL    HW1 2804   2.468   1.511   2.305  2.0575 -0.8331  2.5780
  935SOL    HW2 2805   2.587   1.624   2.295  1.0146  1.5455  1.5620
  936SOL     OW 2806   2.311   1.480   1.758 -0.3371 -0.1415  0.3096
  936SOL    HW1 2807   2.327   1.409   1.687  1.8805  4.4853  0.4633
  936SOL    HW2 2808   2.394   1.490   1.811 -1.0761 -1.8261 -1.4993
  937SOL     OW 2809   1.916   1.017   1.997  0.7635  0.4086 -0.0927
  937SOL    HW1 2810   2.008   0.985   1.959  1.3987 -0.5657  1.1105
  937SOL    HW2 2811   1.922   1.030   2.095 -0.9381  1.1438 -1.2994
  938SOL     OW 2812   0.756   2.395   3.038 -0.0474 -0.1347 -0.0401
  938SOL    HW1 2813   0.780   2.411   0.012  1.9082 -3.0460 -0.0721
  938SOL    HW2 2814   0.809   2.463   2.983 -0.8203  1.2312  2.7536
  939SOL     OW 2815   2.470   0.563   2.645 -0.2496  0.1872  0.3258
  939SOL    HW1 2816   2.399   0.609   2.586 -2.3630  1.4389 -0.7791
  939SOL    HW2 2817   2.563   0.557   2.599  0.6626 -1.3124 -0.5213
  940SOL     OW 2818   1.041   1.752   1.097  0.2962 -0.2511  0.4916
  940SOL    HW1 2819   1.070   1.702   1.179  1.2296  1.3755  1.6705
  940SOL    HW2 2820   0.964   1.817   1.119 -0.2024  2.1403  0.6681
  941SOL     OW 2821   0.832   2.268   2.110 -0.1878  0.4491  0.1496
  941SOL    HW1 2822   0.768   2.267   2.186  1.1093  1.3396 -3.0596
  941SOL    HW2 2823   0.813   2.187   2.054 -1.0826 -0.7228 -0.8112
  942SOL     OW 2824   0.161   1.994   2.928  0.5300 -0.0556 -0.5482
  942SOL    HW1 2825   0.179   2.046   3.017 -0.7228  3.5133  1.4836
  942SOL    HW2 2826   0.230   2.003   2.856 -0.9514  1.6199  2.2293
  943SOL     OW 2827   1.718   2.716   1.732 -0.0377  0.0774  0.5572
  943SOL    HW1 2828   1.705   2.620   1.746  2.7618  1.0775 -0.1982
  943SOL    HW2 2829   1.780   2.732   1.650  0.6042 -1.8378 -0.8517
  944SOL     OW 2830   1.114   1.654   0.122  0.2767 -0.7999 -0.9171
  944SOL    HW1 2831   1.152   1.723   0.054 -2.3431  1.1631 -1.6627
  944SOL    HW2 2832   1.178   1.576   0.140  1.8542 -1.6136  0.4814
  945SOL     OW 2833   2.647   2.748   0.671 -0.3658 -1.4699  0.2518
  945SOL    HW1 2834   2.682   2.654   0.649 -0.3374  0.3095  0.4035
  945SOL    HW2 2835   2.717   2.823   0.648 -0.7431 -0.3534 -0.9202
  946SOL     OW 2836   1.189   1.566   2.665  0.7047  0.5941  0.3103
  946SOL    HW1 2837   1.268   1.585   2.722 -2.9850 -0.1437 -0.4162
  946SOL    HW2 2838   1.106   1.607   2.704 -0.9998  1.1176  1.5040
  947SOL     OW 2839   2.673   0.717   1.919 -0.2270  0.5911  0.0136
  947SOL    HW1 2840   2.618   0.784   1.870  2.8792  1.2739  1.7735
  947SOL    HW2 2841   2.761   0.703   1.866 -2.6762 -3.2639  0.8456
  948SOL     OW 2842   0.148   1.531   0.730 -0.4641 -0.1156  0.6427
  948SOL    HW1 2843   0.222   1.484   0.675 -1.0575 -0.7512  2.0117
  948SOL    HW2 2844   0.187   1.601   0.797 -1.3037  1.8380  2.1306
  949SOL     OW 2845   0.738   0.845   2.316 -0.3458 -0.1588  0.2311
  949SOL    HW1 2846   0.828   0.861   2.259  0.8066 -0.7518 -1.9582
  949SOL    HW2 2847   0.759   0.791   2.400  1.9943 -0.7513 -0.5019
  950SOL     OW 2848   0.179   0.569   1.254  0.2127 -0.5901 -0.0797
  950SOL    HW1 2849   0.283   0.553   1.239  0.4494 -1.3757 -0.1643
  950SOL    HW2 2850   0.161   0.539   1.352 -2.0033  1.3610  0.9141
  951SOL     OW 2851   0.859   1.447   2.443 -0.1831 -0.2355  0.4865
  951SOL    HW1 2852   0.886   1.538   2.481  0.7421 -0.1296  0.1291
  951SOL    HW2 2853   0.879   1.445   2.342  0.7440 -2.6087 -1.6078
  952SOL     OW 2854   1.903   2.198   0.836 -0.0408  0.0003 -0.0405
  952SOL    HW1 2855   1.904   2.111   0.781  0.0282 -2.2969 -0.4018
  952SOL    HW2 2856   1.973   2.262   0.800 -0.2703 -1.8868  0.5928
  953SOL     OW 2857   0.831   0.889   0.189 -0.1181  0.0867  0.0755
  953SOL    HW1 2858   0.837   0.837   0.276 -0.4547  0.3005  1.0462
  953SOL    HW2 2859   0.740   0.934   0.188 -1.4059  1.2256 -1.5623
  954SOL     OW 2860   2.298   0.776   1.214 -0.3339  0.0644  0.0178
  954SOL    HW1 2861   2.383   0.829   1.219 -0.2965 -0.2704  2.8852
  954SOL    HW2 2862   2.249   0.775   1.123 -0.2303 -0.3446 -2.3987
  955SOL     OW 2863   2.016   1.284   0.368 -0.3564 -0.1498  0.1425
  955SOL    HW1 2864   2.110   1.263   0.336  0.2538 -4.0737 -0.3730
  955SOL    HW2 2865   1.951   1.268   0.293  0.6886 -0.1287 -1.1981
  956SOL     OW 2866   0.930   0.590   1.812  0.0277  0.3124 -0.3593
  956SOL    HW1 2867   0.882   0.505   1.779  0.9597 -1.0163  1.4164
  956SOL    HW2 2868   1.023   0.564   1.844 -1.7100 -1.9619 -1.9642
  957SOL     OW 2869   1.934   0.279   1.245  0.3863  0.0659  0.1625
  957SOL    HW1 2870   1.844   0.311   1.287 -1.4634  2.5507  0.7202
  957SOL    HW2 2871   1.955   0.176   1.262  0.6860 -2.0848 -1.7062
  958SOL     OW 2872   0.319   2.124   0.502 -0.1677  0.4930  0.4637
  958SOL    HW1 2873   0.359   2.075   0.416 -0.2406 -0.6602 -1.3612
  958SOL    HW2 2874   0.328   2.073   0.593 -0.8968 -2.4397 -1.4969
  959SOL     OW 2875   2.388   1.188   1.930 -0.5271 -0.1907 -0.2969
  959SOL    HW1 2876   2.335   1.177   1.842  1.5811 -1.3662 -2.7558
  959SOL    HW2 2877   2.403   1.282   1.959  0.3534 -3.3639  1.0832
  960SOL     OW 2878   3.022   1.932   2.810  0.6124 -0.4205  0.0469
  960SOL    HW1 2879   3.122   1.940   2.837 -1.4745 -2.2565  0.8505
  960SOL    HW2 2880   2.958   1.971   2.877 -1.4341  1.1362  0.1886
  961SOL     OW 2881   0.438   1.791   1.595  0.6684 -0.3269 -0.1739
  961SOL    HW1 2882   0.472   1.785   1.499  2.1882  0.6001  0.6011
  961SOL    HW2 2883   0.505   1.767   1.670 -2.9599  0.3138  1.1463
  962SOL     OW 2884   0.861   1.136   0.761  0.5080 -0.1987  0.1899
  962SOL    HW1 2885   0.945   1.118   0.821  1.9484 -0.3889  2.1615
  962SOL    HW2 2886   0.874   1.228   0.718  1.2841  0.8725  0.0872
  963SOL     OW 2887   1.123   1.871   2.591  0.2845 -0.5460  0.0379
  963SOL    HW1 2888   1.176   1.882   2.508 -0.8530  0.5877  0.6720
  963SOL    HW2 2889   1.153   1.936   2.664 -0.6267 -0.8657  0.5091
  964SOL     OW 2890   0.297   2.967   1.967  0.2785  0.2585 -0.2248
  964SOL    HW1 2891   0.198   2.947   1.961  0.7212 -2.7858  1.2293
  964SOL    HW2 2892   0.333   2.927   2.049 -2.6019  0.5241 -0.6545
  965SOL     OW 2893   0.232   1.875   2.595 -0.5567  0.1701  0.0973
  965SOL    HW1 2894   0.177   1.820   2.661  1.3796  0.2359  0.9075
  965SOL    HW2 2895   0.174   1.912   2.520 -0.2504  0.1495  2.5158
  966SOL     OW 2896   0.126   1.728   3.048 -0.3172  0.0578 -0.2152
  966SOL    HW1 2897   0.048   1.684   3.000  0.5257  0.1449  0.5356
  966SOL    HW2 2898   0.134   1.826   3.019 -0.2479  1.1923  0.7866
  967SOL     OW 2899   2.062   2.976   0.266 -0.0981 -0.2386 -0.3206
  967SOL    HW1 2900   2.146   2.931   0.306  0.5378 -0.2038 -0.4056
  967SOL    HW2 2901   2.075   2.992   0.169 -0.8341 -0.5422  1.2946
  968SOL     OW 2902   2.506   3.048   0.724 -0.1897 -0.0080  0.0935
  968SOL    HW1 2903   2.523   2.957   0.761  1.1841  2.8239 -3.6003
  968SOL    HW2 2904   2.403   3.056   0.704 -3.3409 -1.7384 -0.8328
  969SOL     OW 2905   0.149   1.282   1.931  0.0435  0.4305  0.3300
  969SOL    HW1 2906   0.152   1.326   1.839  0.3042  0.6692  1.7498
  969SOL    HW2 2907   0.093   1.199   1.928  1.6109  4.6092  1.4038
  970SOL     OW 2908   1.674   1.780   0.089 -0.5117  0.0687 -0.0516
  970SOL    HW1 2909   1.741   1.815   0.156 -2.0360  0.4157  1.9494
  970SOL    HW2 2910   1.587   1.833   0.102 -1.9836 -1.0599 -0.7757
  971SOL     OW 2911   2.503   3.044   1.571 -0.0081  0.7160 -0.0830
  971SOL    HW1 2912   2.600   3.039   1.601 -1.7440  2.1687  0.1784
  971SOL    HW2 2913   2.498   3.054   1.468 -0.6756  1.3322 -1.7670
  972SOL     OW 2914   2.709   0.152   1.175 -0.2176 -0.1955 -0.0421
  972SOL    HW1 2915   2.610   0.141   1.161 -2.2113 -0.5373  2.1158
  972SOL    HW2 2916   2.746   0.213   1.104 -0.1239 -0.0126 -0.1762
  973SOL     OW 2917   0.451   0.590   2.547  0.3503 -0.4114  0.2048
  973SOL    HW1 2918   0.404   0.506   2.566 -0.5284  1.6444 -0.4150
  973SOL    HW2 2919   0.386   0.662   2.525 -0.3338  1.8410  2.0211
  974SOL     OW 2920   2.731   1.323   2.282  0.1602  0.0371  0.2790
  974SOL    HW1 2921   2.755   1.228   2.255  0.5858  1.1040 -0.1714
  974SOL    HW2 2922   2.721   1.388   2.203 -0.0075 -2.0411 -3.0206
  975SOL     OW 2923   1.020   0.256   1.824 -0.0704 -0.6431  0.2945
  975SOL    HW1 2924   1.062   0.335   1.869 -0.8871 -0.2245  2.9683
  975SOL    HW2 2925   1.005   0.265   1.725 -0.0027  0.3390  0.8111
  976SOL     OW 2926   1.180   1.577   1.361 -0.0610 -0.0791 -0.5749
  976SOL    HW1 2927   1.187   1.675   1.384  2.0464 -0.4805 -2.0847
  976SOL    HW2 2928   1.153   1.517   1.443  0.0857 -2.0862 -1.4506
  977SOL     OW 2929   0.666   2.950   0.210 -0.0850 -0.8517 -0.1365
  977SOL    HW1 2930   0.708   2.897   0.284 -0.3672  0.8944 -2.3441
  977SOL    HW2 2931   0.722   3.028   0.183 -1.5415 -3.5610  3.1108
  978SOL     OW 2932   2.372   1.358   2.325 -0.4502 -0.2163 -0.1074
  978SOL    HW1 2933   2.351   1.292   2.249 -2.3661  1.9886  1.5686
  978SOL    HW2 2934   2.352   1.307   2.409 -2.1576 -0.1364 -1.8294
  979SOL     OW 2935   1.358   0.356   1.756  0.1013  0.1083  0.5707
  979SOL    HW1 2936   1.308   0.416   1.823  1.0741  2.7456  0.4038
  979SOL    HW2 2937   1.456   0.340   1.782 -1.1466  3.0029 -3.0248
  980SOL     OW 2938   1.734   1.637   2.252 -0.3221 -0.0198  0.0501
  980SOL    HW1 2939   1.802   1.593   2.190 -0.2352 -2.4080 -1.7514
  980SOL    HW2 2940   1.652   1.579   2.261  2.0276  1.0564  1.1951
  981SOL     OW 2941   1.817   0.510   1.585 -0.1217  0.3122 -0.0394
  981SOL    HW1 2942   1.829   0.610   1.573  0.8161 -1.4189  1.4033
  981SOL    HW2 2943   1.906   0.458   1.589  0.9939 -1.9589  0.0071
  982SOL     OW 2944   0.720   0.244   2.833  0.1036 -0.2020  0.1417
  982SOL    HW1 2945   0.745   0.330   2.788 -0.5922  0.7394 -4.4974
  982SOL    HW2 2946   0.625   0.245   2.875 -2.3568 -0.3139  0.7884
  983SOL     OW 2947   2.675   0.640   0.107 -0.1636  0.3142 -1.1951
  983SOL    HW1 2948   2.660   0.642   0.209 -1.4729 -1.9019  2.4266
  983SOL    HW2 2949   2.748   0.578   0.076 -1.6204  0.4679  1.4936
  984SOL     OW 2950   0.911   0.430   2.214 -0.3993 -0.1754  0.2526
  984SOL    HW1 2951   0.954   0.337   2.223  2.2930 -0.5815  0.6255
  984SOL    HW2 2952   0.829   0.433   2.149 -2.5603  1.3098 -1.8663
  985SOL     OW 2953   1.460   1.998   2.188  0.2478  0.3126 -0.3720
  985SOL    HW1 2954   1.387   2.014   2.118 -0.0665  0.4771 -0.0500
  985SOL    HW2 2955   1.532   1.932   2.156  0.6568 -0.4469  1.0961
  986SOL     OW 2956   2.632   2.905   1.828 -0.1893  0.2951 -0.1150
  986SOL    HW1 2957   2.670   2.996   1.799  0.6779  0.0063 -0.6177
  986SOL    HW2 2958   2.574   2.911   1.913  1.2600  0.1924 -0.2845
  987SOL     OW 2959   2.053   1.136   1.340  0.4938 -0.3015 -0.3208
  987SOL    HW1 2960   2.119   1.191   1.284 -1.1041  1.1663 -0.2175
  987SOL    HW2 2961   1.960   1.127   1.298 -0.6837 -0.7841 -0.6422
  988SOL     OW 2962   2.763   1.670   2.347  0.4773  0.7298 -0.1506
  988SOL    HW1 2963   2.697   1.738   2.393 -0.0116  1.5428  1.6955
  988SOL    HW2 2964   2.844   1.659   2.402 -2.5757 -2.0246 -0.9408
  989SOL     OW 2965   1.298   2.278   0.310  0.1384 -0.0861  0.0084
  989SOL    HW1 2966   1.223   2.289   0.239 -0.6135  1.8169 -1.0472
  989SOL    HW2 2967   1.264   2.313   0.400 -0.5517 -0.0273 -1.1950
  990SOL     OW 2968   1.995   0.364   2.989 -0.0526  1.1193  0.1291
  990SOL    HW1 2969   1.939   0.445   3.008  0.8072 -2.0952 -1.8167
  990SOL    HW2 2970   1.988   0.327   2.890 -1.7770 -0.1818 -4.4347
  991SOL     OW 2971   1.109   0.331   0.815  0.1011 -0.2656 -0.1905
  991SOL    HW1 2972   1.082   0.381   0.731 -0.8488 -0.9551  0.9398
  991SOL    HW2 2973   1.056   0.243   0.814  2.0364  0.7782 -0.3413
  992SOL     OW 2974   2.531   0.938   1.152 -0.3229 -0.1374 -0.8098
  992SOL    HW1 2975   2.582   1.016   1.187  0.7544 -1.0917  1.6282
  992SOL    HW2 2976   2.586   0.851   1.140  0.2247 -0.1245  1.5527
  993SOL     OW 2977   2.313   0.696   1.894  0.4535  0.3561 -0.0384
  993SOL    HW1 2978   2.384   0.703   1.820 -1.5146 -0.2834 -1.0782
  993SOL    HW2 2979   2.262   0.609   1.878 -2.1568 -0.1082 -1.0635
  994SOL     OW 2980   0.935   1.675   2.587 -0.1535 -0.9661  0.4749
  994SOL    HW1 2981   1.005   1.753   2.590 -0.6375  1.9242  0.5903
  994SOL    HW2 2982   0.837   1.703   2.595 -0.6242 -2.7670 -1.3733
  995SOL     OW 2983   2.093   0.942   2.979  0.5610  0.3033  0.1628
  995SOL    HW1 2984   2.095   1.039   3.009  0.1328  1.9978 -0.9522
  995SOL    HW2 2985   2.163   0.924   2.908 -0.4891  0.9202 -0.3019
  996SOL     OW 2986   2.176   2.025   0.613  0.3510 -0.1171  0.1106
  996SOL    HW1 2987   2.098   1.986   0.667  2.3762  0.1062  0.3275
  996SOL    HW2 2988   2.230   1.961   0.557 -0.7116 -0.2149  0.9041
  997SOL     OW 2989   2.256   0.731   2.164  0.1932 -0.2258  0.1355
  997SOL    HW1 2990   2.175   0.671   2.177 -1.8513  1.0361 -0.0446
  997SOL    HW2 2991   2.291   0.727   2.064  1.7764  1.4255 -0.6615
  998SOL     OW 2992   2.823   1.205   0.719 -0.1152 -0.3739  1.0335
  998SOL    HW1 2993   2.815   1.311   0.725 -1.2907  5.8828  0.9573
  998SOL    HW2 2994   2.833   1.151   0.803 -1.7842 -2.5239 -2.5839
  999SOL     OW 2995   2.872   1.605   0.323 -0.3473 -0.4813  0.0774
  999SOL    HW1 2996   2.767   1.614   0.315 -3.9756 -0.9955 -0.8727
  999SOL    HW2 2997   2.924   1.690   0.340 -1.2960 -1.4995  0.1136
 1000SOL     OW 2998   0.602   0.714   2.107 -0.2404 -0.1562 -0.0291
 1000SOL    HW1 2999   0.672   0.756   2.169  2.3717  0.5922  1.1090
 1000SOL    HW2 3000   0.510   0.756   2.124  0.6486 -5.0776  0.9521
   3.12510   3.12510   3.12510
