1000 SPC/Fw water molecules t= 473.00000 step= 473000
 3000
    1SOL     OW    1   2.773   0.065   1.884 -1.2789 -0.0230 -0.3136
    1SOL    HW1    2   2.778   0.167   1.880  3.0858  1.4788  0.6746
    1SOL    HW2    3   2.711   0.029   1.957  1.0569 -1.4690  0.6610
    2SOL     OW    4   2.926   2.882   2.923 -0.0313  0.2987 -0.0370
    2SOL    HW1    5   2.957   2.898   3.020  0.5490 -0.1953 -0.7001
    2SOL    HW2    6   2.935   2.783   2.905  0.8578  1.0599  1.2059
    3SOL     OW    7   1.143   2.381   0.091 -0.5571 -0.1702  0.4408
    3SOL    HW1    8   1.175   2.326   0.009 -1.5430 -2.1831 -3.5567
    3SOL    HW2    9   1.221   2.438   0.128 -0.8305 -2.4298  0.7420
    4SOL     OW   10   1.495   2.854   2.544 -0.0656  0.0737  1.0058
    4SOL    HW1   11   1.552   2.926   2.509  1.2444 -1.3710  0.5133
    4SOL    HW2   12   1.415   2.886   2.599 -0.0931 -3.9814  0.8017
    5SOL     OW   13   1.854   0.259   2.451  0.8176 -0.2340  0.0105
    5SOL    HW1   14   1.882   0.337   2.390 -0.7735 -0.1377  0.7193
    5SOL    HW2   15   1.767   0.286   2.501 -1.5515  0.9667 -0.9861
    6SOL     OW   16   3.115   1.659   1.079  0.5481 -0.4735  0.1388
    6SOL    HW1   17   0.023   1.744   1.036 -1.4845 -0.4678  0.8808
    6SOL    HW2   18   3.048   1.606   1.015 -0.7255  0.8285 -0.0251
    7SOL     OW   19   1.192   1.802   0.532 -0.2345 -0.2206 -0.0038
    7SOL    HW1   20   1.134   1.721   0.540 -1.6577  0.7437  2.6400
    7SOL    HW2   21   1.285   1.776   0.508  0.9412  0.5850  2.3284
    8SOL     OW   22   0.107   0.575   0.389  0.2891 -0.1493 -0.3247
    8SOL    HW1   23   0.167   0.655   0.356 -1.3893 -0.8583 -1.4904
    8SOL    HW2   24   0.021   0.564   0.334 -2.7676  0.9837 -2.3780
    9SOL     OW   25   0.208   2.954   1.702 -0.3407  0.3376 -0.4159
    9SOL    HW1   26   0.288   2.929   1.638  3.9042  0.1345 -0.8542
    9SOL    HW2   27   0.172   2.872   1.750  0.7841  2.4351  2.0671
   10SOL     OW   28   1.275   2.149   0.300  0.1204 -0.0962  0.2015
   10SOL    HW1   29   1.179   2.152   0.333  0.0111 -1.9096  0.5482
   10SOL    HW2   30   1.343   2.142   0.382 -0.0076  0.8568 -0.0192
   11SOL     OW   31   2.058   0.785   1.339 -0.4206  0.0532  0.7228
   11SOL    HW1   32   2.091   0.754   1.430  2.9308  1.5202 -0.2797
   11SOL    HW2   33   1.977   0.837   1.347  1.5454 -1.3150  0.3127
   12SOL     OW   34   0.288   0.731   2.172 -0.2185 -0.4983  0.0151
   12SOL    HW1   35   0.273   0.810   2.109 -0.0386 -0.3099 -1.6306
   12SOL    HW2   36   0.296   0.760   2.271  0.5077  2.3491  0.1061
   13SOL     OW   37   2.207   2.975   0.382  0.4025  0.0089  0.0154
   13SOL    HW1   38   2.238   3.041   0.313  0.3859 -0.6380  0.5991
   13SOL    HW2   39   2.155   2.894   0.346 -0.0606  1.4407  3.3569
   14SOL     OW   40   2.304   1.984   0.270 -0.2291 -0.2081  0.5935
   14SOL    HW1   41   2.388   1.965   0.206  0.3718  1.7495 -1.5756
   14SOL    HW2   42   2.324   2.010   0.367 -0.0128  1.2748  2.8690
   15SOL     OW   43   2.775   3.118   3.072  1.0379 -0.2819 -0.0717
   15SOL    HW1   44   2.830   3.098   0.023 -1.5212 -0.8974 -2.0275
   15SOL    HW2   45   2.774   3.043   3.002 -1.2428  0.0763 -1.7572
   16SOL     OW   46   3.033   0.597   1.118 -0.1288 -0.5060 -0.0185
   16SOL    HW1   47   3.009   0.506   1.076  1.3166 -1.0895  1.1432
   16SOL    HW2   48   3.104   0.588   1.192 -0.3703 -1.0610  4.0079
   17SOL     OW   49   0.742   0.374   0.841 -0.3741  0.0279 -0.1292
   17SOL    HW1   50   0.681   0.306   0.882  2.7239  0.0842  1.7775
   17SOL    HW2   51   0.699   0.462   0.865  0.2087 -4.5608 -0.2086
   18SOL     OW   52   2.967   3.054   0.969  0.8592  0.0111 -0.1877
   18SOL    HW1   53   2.884   3.074   0.908 -0.7635  0.4845 -2.0278
   18SOL    HW2   54   3.044   3.111   0.941  1.4070  2.6485 -2.2499
   19SOL     OW   55   1.817   1.548   1.269  0.3289  0.1766 -0.2325
   19SOL    HW1   56   1.762   1.592   1.203  0.9414 -0.5008  1.8464
   19SOL    HW2   57   1.906   1.524   1.228  0.0810  0.5434 -0.3435
   20SOL     OW   58   2.125   1.757   2.392  0.2457 -0.2448 -0.5023
   20SOL    HW1   59   2.091   1.846   2.435  0.5400  1.5199 -0.6591
   20SOL    HW2   60   2.055   1.682   2.409  0.0905 -2.9401  0.1100
   21SOL     OW   61   1.282   2.822   0.478 -0.1130  0.4065  0.0280
   21SOL    HW1   62   1.200   2.764   0.478 -2.5037 -0.8430 -0.1754
   21SOL    HW2   63   1.303   2.849   0.381  0.7757 -3.3974 -0.2077
   22SOL     OW   64   2.284   0.718   0.140  0.6124  0.8107 -0.8684
   22SOL    HW1   65   2.361   0.760   0.197  1.7076  0.8685  1.0124
   22SOL    HW2   66   2.293   0.615   0.133 -3.2641 -0.8793 -1.1571
   23SOL     OW   67   0.744   0.525   2.312 -0.2002 -0.8342  0.3205
   23SOL    HW1   68   0.740   0.434   2.266  1.2302 -1.0443  1.0548
   23SOL    HW2   69   0.838   0.561   2.305  1.3442 -2.2452  2.1846
   24SOL     OW   70   2.129   2.223   0.959 -0.3360 -0.0361  0.0076
   24SOL    HW1   71   2.167   2.288   1.026 -1.7997 -0.3791 -0.5890
   24SOL    HW2   72   2.073   2.270   0.892  1.3314 -1.6589  5.6819
   25SOL     OW   73   1.467   0.084   0.011  0.5530  0.3290 -0.4247
   25SOL    HW1   74   1.451   0.059   3.042 -0.2075 -0.8951 -1.5762
   25SOL    HW2   75   1.543   0.020   0.052  2.6388 -4.2409 -2.0523
   26SOL     OW   76   1.055   2.792   2.751  0.2500 -0.2298  0.2365
   26SOL    HW1   77   1.009   2.852   2.821  0.2865 -0.0296 -1.9193
   26SOL    HW2   78   1.004   2.703   2.766  2.0811 -1.1303  1.5962
   27SOL     OW   79   1.180   0.562   1.307  0.0477 -0.1328 -0.1549
   27SOL    HW1   80   1.124   0.614   1.236  0.9826  0.0449  0.0734
   27SOL    HW2   81   1.144   0.469   1.309  1.3349  2.0278  0.0642
   28SOL     OW   82   0.421   1.961   1.038 -0.1766 -0.2893  0.3281
   28SOL    HW1   83   0.457   2.030   0.968 -0.3724  3.4220 -1.1357
   28SOL    HW2   84   0.409   2.002   1.128  1.0387 -2.1141 -1.8173
   29SOL     OW   85   2.500   1.276   1.035  0.1479 -0.6863  0.5284
   29SOL    HW1   86   2.602   1.297   1.020 -0.8942 -0.2892 -0.3434
   29SOL    HW2   87   2.488   1.201   1.101  1.1842 -0.5144  2.4641
   30SOL     OW   88   1.525   0.058   1.794  0.1412 -0.4772  0.1412
   30SOL    HW1   89   1.522   3.094   1.751 -0.1718  0.7469 -2.4086
   30SOL    HW2   90   1.532   0.063   1.896  0.1832  1.2208  0.8402
   31SOL     OW   91   1.328   3.110   1.063 -0.7444  0.2183 -0.0801
   31SOL    HW1   92   1.342   0.081   1.062 -1.3553 -0.0990  0.4802
   31SOL    HW2   93   1.328   3.074   0.965  0.9985 -2.0656 -1.9397
   32SOL     OW   94   2.554   1.120   2.041  0.4469 -0.3388 -0.0077
   32SOL    HW1   95   2.582   1.109   1.944  0.1670  0.7949  0.0395
   32SOL    HW2   96   2.543   1.217   2.063 -0.7613 -3.2586  2.4303
   33SOL     OW   97   2.334   2.814   2.770  1.2923 -0.0177 -0.0956
   33SOL    HW1   98   2.248   2.845   2.814 -1.2065 -1.9728 -2.5296
   33SOL    HW2   99   2.358   2.871   2.688 -1.9446  1.8262  1.1268
   34SOL     OW  100   1.933   0.962   3.102 -0.3731 -0.0176  0.2741
   34SOL    HW1  101   2.013   0.972   0.036  0.0340  0.3954 -1.2218
   34SOL    HW2  102   1.908   0.864   3.089  0.5630  2.6446  1.3672
   35SOL     OW  103   2.914   1.273   1.440  0.1335  0.2433 -0.1865
   35SOL    HW1  104   2.816   1.261   1.480 -3.5149  0.8879 -1.4131
   35SOL    HW2  105   2.989   1.267   1.513 -1.4149 -0.8253  2.9590
   36SOL     OW  106   2.533   2.279   2.858  0.0315  0.2141 -0.3498
   36SOL    HW1  107   2.504   2.320   2.948 -1.8913  2.3489 -0.2963
   36SOL    HW2  108   2.476   2.316   2.782 -1.5209 -2.7172  1.0342
   37SOL     OW  109   1.904   3.087   1.952 -0.4334  0.2131  0.3744
   37SOL    HW1  110   1.940   0.050   1.924  2.5633 -0.9450 -0.3986
   37SOL    HW2  111   1.943   3.011   1.896  0.5256  1.4443  1.3577
   38SOL     OW  112   0.689   0.920   2.409  0.0969 -0.5875 -0.2891
   38SOL    HW1  113   0.617   0.863   2.452  0.3270  1.0627  1.0005
   38SOL    HW2  114   0.670   0.938   2.311  0.6317  0.5934  2.3870
   39SOL     OW  115   1.645   0.502   1.690 -0.4453 -0.2136 -0.2630
   39SOL    HW1  116   1.554   0.462   1.661 -1.2866 -0.7186  0.0863
   39SOL    HW2  117   1.718   0.434   1.700 -2.6851  2.5406 -1.7189
   40SOL     OW  118   0.839   2.297   0.598 -0.1592  0.1827 -0.5498
   40SOL    HW1  119   0.859   2.224   0.528  2.8090 -1.9662  2.3612
   40SOL    HW2  120   0.919   2.358   0.627  1.3097  0.7839 -1.0643
   41SOL     OW  121   2.331   2.257   1.292  0.2896  0.1340  0.5078
   41SOL    HW1  122   2.284   2.314   1.223 -3.1095 -0.2671  1.3816
   41SOL    HW2  123   2.432   2.281   1.299  0.3346  3.4432  1.1860
   42SOL     OW  124   2.464   0.056   0.451 -0.5451  0.0006  0.4321
   42SOL    HW1  125   2.401   0.045   0.371  1.2056  1.0314  0.4770
   42SOL    HW2  126   2.504   0.150   0.444 -1.1617  1.5611 -1.0732
   43SOL     OW  127   0.754   1.445   2.507  0.0139  0.7938 -0.1712
   43SOL    HW1  128   0.740   1.493   2.419  1.8743 -1.3397 -0.9485
   43SOL    HW2  129   0.761   1.341   2.491  0.3113 -3.9136  1.6853
   44SOL     OW  130   2.178   2.955   1.119  0.3532  0.2266  0.1225
   44SOL    HW1  131   2.089   2.911   1.145 -2.1714  0.1540  1.2234
   44SOL    HW2  132   2.158   3.043   1.074  1.4829  1.3954 -1.6113
   45SOL     OW  133   0.333   2.372   2.891  0.2747 -0.1343  0.5600
   45SOL    HW1  134   0.317   2.406   2.985 -0.2389 -1.4912 -0.1613
   45SOL    HW2  135   0.430   2.397   2.868 -0.0655 -0.7499  2.8724
   46SOL     OW  136   0.574   2.753   2.366  0.1215  0.2425  0.3230
   46SOL    HW1  137   0.519   2.716   2.446 -1.5111 -2.7959  1.5328
   46SOL    HW2  138   0.658   2.709   2.335  0.9744  0.9193  1.0914
   47SOL     OW  139   0.474   1.691   0.658 -0.3777 -0.1550  0.5112
   47SOL    HW1  140   0.409   1.754   0.615  1.7693  0.5765  0.1853
   47SOL    HW2  141   0.520   1.634   0.587 -0.0770  1.5580  0.0140
   48SOL     OW  142   0.778   2.757   1.420  0.2121  0.3862 -0.4186
   48SOL    HW1  143   0.835   2.679   1.390 -2.5215  0.1288  1.4751
   48SOL    HW2  144   0.837   2.839   1.432  0.9212  1.7631 -2.6882
   49SOL     OW  145   0.060   3.020   0.144 -0.1418 -0.0828 -0.6517
   49SOL    HW1  146   0.127   2.986   0.220  1.1811 -0.1442  2.4217
   49SOL    HW2  147   0.047   2.952   0.069  0.7141  2.8770 -1.2160
   50SOL     OW  148   1.716   0.571   0.586  0.4704 -0.2193  0.2521
   50SOL    HW1  149   1.619   0.601   0.603 -0.1232  0.3932 -1.3851
   50SOL    HW2  150   1.748   0.608   0.496 -2.8106  0.5206  0.5413
   51SOL     OW  151   1.916   3.118   0.709  0.3027 -0.0750  0.3873
   51SOL    HW1  152   1.924   3.025   0.657  0.5445 -2.7048  1.1893
   51SOL    HW2  153   1.996   0.039   0.674 -0.3787 -1.4327 -0.1500
   52SOL     OW  154   0.532   1.710   1.091  0.1417 -0.2355 -0.3169
   52SOL    HW1  155   0.576   1.681   1.003 -0.1442 -0.5100  3.6484
   52SOL    HW2  156   0.491   1.799   1.079  1.4274 -3.4561 -1.0918
   53SOL     OW  157   0.249   1.219   2.840 -0.1393 -0.4663 -0.1351
   53SOL    HW1  158   0.238   1.118   2.860  1.2108  0.9543 -0.0955
   53SOL    HW2  159   0.240   1.275   2.923 -1.1394 -1.5427 -0.7332
   54SOL     OW  160   2.697   2.267   2.637  0.1661 -0.0177  0.5737
   54SOL    HW1  161   2.645   2.253   2.724 -1.4013 -1.7359  0.3553
   54SOL    HW2  162   2.710   2.178   2.581 -0.3585  1.2192 -0.7027
   55SOL     OW  163   2.602   2.288   1.396 -0.1992  0.6095  0.1991
   55SOL    HW1  164   2.652   2.377   1.387 -0.1553 -0.0472 -1.6116
   55SOL    HW2  165   2.632   2.244   1.485  0.2059 -0.1517  0.5988
   56SOL     OW  166   1.346   0.653   1.502 -0.4172 -0.2450 -0.0265
   56SOL    HW1  167   1.417   0.719   1.474 -0.5845  0.4152  0.9355
   56SOL    HW2  168   1.314   0.593   1.423  2.0167 -0.1726  1.4164
   57SOL     OW  169   1.875   1.738   0.958 -0.0609  0.1372  0.0350
   57SOL    HW1  170   1.965   1.777   0.988  0.2048 -2.6376 -2.4585
   57SOL    HW2  171   1.888   1.676   0.877 -1.2259  3.9429 -1.8622
   58SOL     OW  172   2.139   0.275   2.097 -0.4456  0.0525 -0.3247
   58SOL    HW1  173   2.162   0.248   2.198 -0.7178  2.3016  2.3650
   58SOL    HW2  174   2.169   0.367   2.078 -0.8384 -0.3416 -1.0411
   59SOL     OW  175   1.720   3.042   2.478  0.0850  0.4208  0.0199
   59SOL    HW1  176   1.723   3.044   2.372  1.4498  0.1915 -1.0588
   59SOL    HW2  177   1.810   3.052   2.513 -5.7774 -1.4744 -1.4542
   60SOL     OW  178   1.636   1.851   2.890 -0.4762  0.5369 -0.0859
   60SOL    HW1  179   1.713   1.902   2.846  1.4080  0.5013 -1.4065
   60SOL    HW2  180   1.588   1.803   2.816  1.4136  2.2315  0.5212
   61SOL     OW  181   0.590   2.139   0.196  0.4426 -0.1512 -0.0598
   61SOL    HW1  182   0.544   2.077   0.126  0.9733 -0.2953 -0.9818
   61SOL    HW2  183   0.643   2.076   0.262  3.2190  0.1111  4.1666
   62SOL     OW  184   1.500   1.944   1.569  0.2532  0.0973 -0.3270
   62SOL    HW1  185   1.440   1.908   1.642  0.0607 -0.1299 -1.3024
   62SOL    HW2  186   1.567   1.876   1.532 -1.2050  1.7768 -1.4467
   63SOL     OW  187   1.056   2.030   0.607  0.0247  0.1539 -0.0841
   63SOL    HW1  188   1.011   2.073   0.526 -0.2874 -1.1518  0.5079
   63SOL    HW2  189   1.111   1.947   0.588 -0.9601 -2.1116 -0.6524
   64SOL     OW  190   1.906   1.413   2.633  0.0098 -0.4888 -0.0635
   64SOL    HW1  191   1.804   1.418   2.641  1.9136  0.3317 -0.2062
   64SOL    HW2  192   1.946   1.427   2.540  1.6197  0.5817  1.5729
   65SOL     OW  193   1.715   1.756   1.470 -0.0768 -0.9642  0.3421
   65SOL    HW1  194   1.718   1.677   1.406  1.8877  0.0892  0.9052
   65SOL    HW2  195   1.770   1.835   1.431  0.8459  1.5628 -0.0244
   66SOL     OW  196   3.105   1.019   0.856  0.0801  0.0759  0.1438
   66SOL    HW1  197   3.110   0.917   0.851 -1.2570 -0.5525  1.3324
   66SOL    HW2  198   3.010   1.040   0.897 -0.6135  4.0905 -1.2667
   67SOL     OW  199   2.239   2.430   1.110 -0.2104 -0.1978 -0.3723
   67SOL    HW1  200   2.190   2.505   1.159 -1.7090  1.6267  0.0393
   67SOL    HW2  201   2.324   2.466   1.065 -1.7597  0.8572 -2.8603
   68SOL     OW  202   2.426   2.839   1.711  0.8021 -0.2361  0.0691
   68SOL    HW1  203   2.392   2.771   1.648 -0.1024  0.3980  0.7361
   68SOL    HW2  204   2.366   2.919   1.708 -0.6616  0.4662  1.6748
   69SOL     OW  205   2.701   2.919   2.748 -1.0052 -0.1448  0.5669
   69SOL    HW1  206   2.692   2.847   2.673  2.7187  1.5763  1.6905
   69SOL    HW2  207   2.781   2.896   2.803 -0.0412 -1.9456  0.5573
   70SOL     OW  208   1.051   1.475   2.533  0.5575 -0.0466 -0.3741
   70SOL    HW1  209   1.068   1.455   2.434  0.3100  0.8801 -0.7113
   70SOL    HW2  210   0.996   1.403   2.580 -0.3565  2.7894  0.3307
   71SOL     OW  211   0.770   1.745   2.030  0.8191 -0.4161 -0.1006
   71SOL    HW1  212   0.827   1.671   1.989  3.1495 -1.4805  1.9971
   71SOL    HW2  213   0.782   1.837   1.990  1.2325 -1.2543  1.0060
   72SOL     OW  214   0.014   1.269   1.620  0.6630  0.3873  0.2241
   72SOL    HW1  215   0.018   1.269   1.723 -0.6565 -1.0597  0.5059
   72SOL    HW2  216   0.061   1.349   1.587 -0.3867 -0.8509  0.8456
   73SOL     OW  217   0.628   2.232   2.684 -0.2311 -0.5272 -0.1660
   73SOL    HW1  218   0.692   2.264   2.609  0.2775 -0.4015  0.0076
   73SOL    HW2  219   0.610   2.300   2.753  1.0695 -0.6163  0.0046
   74SOL     OW  220   1.056   0.298   2.274  0.3305 -0.0928  0.2216
   74SOL    HW1  221   1.007   0.224   2.320 -1.0634  0.8370  0.1214
   74SOL    HW2  222   1.067   0.370   2.342  0.0899  3.2581  2.1146
   75SOL     OW  223   1.105   2.995   0.707  0.5374  0.0380 -0.0633
   75SOL    HW1  224   1.068   2.986   0.802  1.3360  0.4651  1.4191
   75SOL    HW2  225   1.200   3.034   0.711 -0.6759 -0.0662 -0.3780
   76SOL     OW  226   0.355   1.558   2.736 -0.8186  0.0485 -0.1206
   76SOL    HW1  227   0.438   1.614   2.714  1.8454 -0.0819 -2.1998
   76SOL    HW2  228   0.295   1.544   2.657  1.7223  0.7451  3.5627
   77SOL     OW  229   0.742   2.580   0.650  0.3305 -0.1041  0.2005
   77SOL    HW1  230   0.735   2.537   0.561 -3.0206 -0.6313  0.4444
   77SOL    HW2  231   0.655   2.563   0.704 -0.3438  0.7595 -0.7031
   78SOL     OW  232   2.587   1.051   3.065  0.4739 -0.2514 -0.5434
   78SOL    HW1  233   2.675   1.017   3.035 -0.6623  0.8762  2.3354
   78SOL    HW2  234   2.589   1.099   0.027 -0.4037 -0.1714  0.4161
   79SOL     OW  235   0.735   1.528   2.769  0.1401 -0.3113 -0.5787
   79SOL    HW1  236   0.743   1.497   2.674  0.2919  0.1446  1.8099
   79SOL    HW2  237   0.674   1.611   2.776  0.9246 -1.3986 -1.0196
   80SOL     OW  238   2.261   1.146   1.382  0.3632  0.0851  0.0154
   80SOL    HW1  239   2.189   1.140   1.459 -2.6912  1.2511  0.7138
   80SOL    HW2  240   2.297   1.242   1.370 -2.8515 -0.7508 -0.3710
   81SOL     OW  241   2.070   0.985   2.428  0.0957  0.4218 -0.0579
   81SOL    HW1  242   2.027   1.011   2.519 -0.3968  1.5619 -1.6475
   81SOL    HW2  243   1.999   0.951   2.366 -0.1821 -0.8034 -0.6964
   82SOL     OW  244   2.302   2.008   1.364  0.7710 -0.3414  0.1672
   82SOL    HW1  245   2.303   2.107   1.337 -0.1750 -1.0063 -1.6527
   82SOL    HW2  246   2.265   1.987   1.461  1.3257 -0.7440  1.3428
   83SOL     OW  247   2.288   2.683   3.080  0.1133 -0.3400  0.5165
   83SOL    HW1  248   2.300   2.706   0.048  1.5484 -0.4374  0.0412
   83SOL    HW2  249   2.381   2.669   3.037  1.3606  1.3303  3.4736
   84SOL     OW  250   0.828   0.688   0.610  0.1139 -0.0119 -0.2890
   84SOL    HW1  251   0.912   0.628   0.629  1.9201 -2.7876 -0.7482
   84SOL    HW2  252   0.746   0.627   0.610 -0.8556 -2.2836 -2.0041
   85SOL     OW  253   2.159   1.577   1.353 -0.3817  0.1278  0.7422
   85SOL    HW1  254   2.124   1.514   1.280 -0.2591 -2.1830  2.0740
   85SOL    HW2  255   2.168   1.670   1.306  3.3405 -1.2921 -0.9937
   86SOL     OW  256   0.554   0.953   1.046 -0.1516 -0.6597 -0.0969
   86SOL    HW1  257   0.631   0.883   1.045 -0.7346 -0.1617 -1.1045
   86SOL    HW2  258   0.572   1.030   0.979 -0.7781  0.5447  0.7917
   87SOL     OW  259   0.123   2.234   2.429 -0.1094 -0.3943 -0.6870
   87SOL    HW1  260   0.195   2.165   2.407 -1.1896 -2.6628 -1.4243
   87SOL    HW2  261   0.129   2.317   2.367 -1.1712  1.3287  2.3279
   88SOL     OW  262   0.226   2.946   0.332  0.3607  0.0576 -0.1316
   88SOL    HW1  263   0.176   2.949   0.424 -1.3081  2.4515  0.6203
   88SOL    HW2  264   0.322   2.975   0.346  1.8521  1.6073  0.0417
   89SOL     OW  265   1.404   0.260   1.040 -0.0729 -0.1078 -0.0969
   89SOL    HW1  266   1.323   0.302   0.999  1.7690  0.3494 -1.6156
   89SOL    HW2  267   1.447   0.327   1.101  1.5363  0.3826 -0.3827
   90SOL     OW  268   3.092   1.077   1.960 -0.1972 -0.0741 -0.1910
   90SOL    HW1  269   3.125   1.056   2.052  3.2986  0.2770  0.0144
   90SOL    HW2  270   3.123   1.001   1.897  0.3023  0.5700  0.7496
   91SOL     OW  271   2.195   2.694   0.662 -0.4227 -0.0965  0.5783
   91SOL    HW1  272   2.140   2.611   0.661  0.1079  0.5412 -1.0688
   91SOL    HW2  273   2.210   2.720   0.760 -1.6611 -0.0691 -0.8766
   92SOL     OW  274   1.639   1.582   1.061  0.0144 -0.1425 -0.3897
   92SOL    HW1  275   1.709   1.638   1.010 -0.6071 -0.5309  1.6168
   92SOL    HW2  276   1.613   1.501   1.007  2.5168  0.8410  3.8653
   93SOL     OW  277   0.473   1.373   0.430  0.0499  0.2547 -0.3737
   93SOL    HW1  278   0.537   1.315   0.376 -0.4085  0.2640 -0.5613
   93SOL    HW2  279   0.519   1.460   0.464 -2.1637  1.3178  2.9670
   94SOL     OW  280   0.717   2.544   0.996 -0.6589 -0.2330  0.3550
   94SOL    HW1  281   0.671   2.541   0.903  0.3652 -1.2494 -0.3725
   94SOL    HW2  282   0.655   2.496   1.063 -0.6794 -2.6918  2.7558
   95SOL     OW  283   0.552   0.950   0.365 -0.0107 -0.1104  0.2890
   95SOL    HW1  284   0.524   1.034   0.416 -0.7270 -1.0457 -0.7430
   95SOL    HW2  285   0.517   0.867   0.415  0.5551 -0.3466  3.2370
   96SOL     OW  286   0.759   2.597   2.249 -0.5073  0.0396  0.2097
   96SOL    HW1  287   0.783   2.500   2.243 -0.3432  1.8330 -0.6276
   96SOL    HW2  288   0.759   2.638   2.154  1.1701 -0.8452 -0.5163
   97SOL     OW  289   2.701   0.954   0.798 -0.0253  0.3866 -0.4792
   97SOL    HW1  290   2.780   0.988   0.848  2.0357  0.8347 -0.7045
   97SOL    HW2  291   2.613   1.008   0.815  0.0934  0.4509 -0.0499
   98SOL     OW  292   0.268   2.113   2.041 -0.4921  0.0979 -0.0151
   98SOL    HW1  293   0.289   2.026   1.991  0.3662  0.8244 -1.1535
   98SOL    HW2  294   0.179   2.154   2.008 -0.2786  0.7156  3.5871
   99SOL     OW  295   0.008   0.435   1.548 -0.1374 -0.6511  0.5729
   99SOL    HW1  296   3.064   0.367   1.574 -1.8396 -1.3584 -2.1937
   99SOL    HW2  297   0.035   0.500   1.624  0.2199 -3.4872  1.0694
  100SOL     OW  298   2.166   0.208   2.398  0.1169 -0.1165 -0.4516
  100SOL    HW1  299   2.216   0.237   2.482 -0.4984 -1.6827  0.7571
  100SOL    HW2  300   2.066   0.212   2.415 -0.9284 -0.0401 -0.9889
  101SOL     OW  301   1.022   3.042   1.999 -0.1478 -0.4175 -0.6903
  101SOL    HW1  302   1.051   3.127   2.041 -2.4817 -0.4345 -0.2631
  101SOL    HW2  303   0.973   2.993   2.074  1.3349 -0.9173 -3.1540
  102SOL     OW  304   0.580   0.609   1.549 -0.1745 -0.0463  0.2517
  102SOL    HW1  305   0.504   0.616   1.616  0.5943  2.4266 -1.1329
  102SOL    HW2  306   0.660   0.656   1.577 -1.8271  1.2403  0.0587
  103SOL     OW  307   0.426   0.847   2.916 -0.4460  0.3639 -0.0251
  103SOL    HW1  308   0.344   0.906   2.944 -1.0347  1.2183  2.7823
  103SOL    HW2  309   0.504   0.908   2.893 -1.5344  0.4015 -1.8997
  104SOL     OW  310   0.535   3.100   1.987 -0.0314 -0.2929 -0.1417
  104SOL    HW1  311   0.619   0.013   1.953 -1.8218  0.6870 -0.9910
  104SOL    HW2  312   0.499   0.037   2.054 -1.1107  0.0199 -0.0592
  105SOL     OW  313   2.764   2.806   1.997  0.2199 -0.3319 -0.0580
  105SOL    HW1  314   2.751   2.796   1.898  3.2225 -1.6245  0.7294
  105SOL    HW2  315   2.680   2.842   2.044 -0.3464  0.0709 -1.8516
  106SOL     OW  316   0.593   3.023   0.754 -0.5857 -0.5567 -0.0708
  106SOL    HW1  317   0.693   3.050   0.751  1.1256 -2.7606 -1.7695
  106SOL    HW2  318   0.577   2.947   0.814  0.2283 -1.7751  0.9863
  107SOL     OW  319   3.115   2.005   1.086  0.4885 -0.3932  0.3764
  107SOL    HW1  320   0.011   2.069   1.161  2.5184  1.0297  1.2648
  107SOL    HW2  321   3.019   1.964   1.101 -0.2506 -0.5621 -1.8794
  108SOL     OW  322   0.518   2.467   0.790  0.3033  0.2251 -0.2639
  108SOL    HW1  323   0.428   2.457   0.834 -2.5245  0.3112  0.3801
  108SOL    HW2  324   0.516   2.393   0.721 -2.3331 -0.2130  0.0357
  109SOL     OW  325   1.650   3.053   0.708 -0.8189  0.2119 -1.2140
  109SOL    HW1  326   1.641   2.986   0.786 -1.0610 -1.6708  0.8881
  109SOL    HW2  327   1.742   3.093   0.722  0.3985  1.6443  2.4579
  110SOL     OW  328   1.762   1.991   0.668 -0.2550 -0.3056  0.0427
  110SOL    HW1  329   1.855   1.948   0.668  0.9609 -0.7837  0.1073
  110SOL    HW2  330   1.747   2.060   0.738  2.5803  1.4634  1.2737
  111SOL     OW  331   1.913   2.733   2.030 -0.7006 -0.0910  0.1806
  111SOL    HW1  332   2.009   2.712   2.005 -1.5091 -0.6539  0.0688
  111SOL    HW2  333   1.909   2.823   2.078  2.9633 -1.6804  3.3886
  112SOL     OW  334   1.759   2.417   2.604  0.1498  0.2965  0.5012
  112SOL    HW1  335   1.766   2.443   2.702  1.5556 -2.9637 -0.2159
  112SOL    HW2  336   1.686   2.479   2.562  1.4218  2.4898  2.2331
  113SOL     OW  337   2.338   2.299   2.041  0.5801  0.1183  0.0746
  113SOL    HW1  338   2.358   2.367   2.114  0.0101 -2.5738  0.4270
  113SOL    HW2  339   2.357   2.343   1.950  4.4220 -1.9633 -1.5452
  114SOL     OW  340   0.313   0.965   1.529  0.4273  0.4907  0.4909
  114SOL    HW1  341   0.214   0.988   1.509  0.4332  0.7167 -1.8210
  114SOL    HW2  342   0.358   0.968   1.437 -0.0216  1.2841 -1.1929
  115SOL     OW  343   2.559   0.570   2.950 -0.1975 -0.3600  0.1110
  115SOL    HW1  344   2.466   0.607   2.950  2.1790 -0.7498 -0.5681
  115SOL    HW2  345   2.606   0.579   3.041 -2.3197 -0.7283 -0.6007
  116SOL     OW  346   2.786   0.310   0.033  0.2801 -0.5018  0.4336
  116SOL    HW1  347   2.884   0.332   0.046 -0.8465 -0.7518  1.3980
  116SOL    HW2  348   2.767   0.224   3.112 -1.0228  0.9725 -1.6880
  117SOL     OW  349   2.744   2.746   0.863  0.3548  0.4110  0.2247
  117SOL    HW1  350   2.658   2.791   0.826 -1.1766 -0.4263  1.4600
  117SOL    HW2  351   2.715   2.686   0.947  2.1576 -1.1190  1.3618
  118SOL     OW  352   1.094   2.248   2.227 -0.8691  0.3013  0.1983
  118SOL    HW1  353   1.086   2.146   2.235  0.9534  0.9234 -2.7567
  118SOL    HW2  354   1.128   2.285   2.316 -0.4188 -0.2543  0.4334
  119SOL     OW  355   0.667   2.729   0.277 -0.0786 -0.0075 -0.0790
  119SOL    HW1  356   0.608   2.773   0.208  2.1318 -0.1036  1.0828
  119SOL    HW2  357   0.661   2.779   0.368  0.8073 -1.8838  1.3189
  120SOL     OW  358   1.378   0.703   0.398 -0.4213  0.3216 -0.3795
  120SOL    HW1  359   1.372   0.602   0.376  1.7639 -0.9175 -3.1947
  120SOL    HW2  360   1.441   0.752   0.335 -1.0673 -0.8958 -0.0738
  121SOL     OW  361   1.763   0.756   1.062  0.4027 -0.0294 -0.1930
  121SOL    HW1  362   1.789   0.812   0.980  0.2826  0.6105  0.5885
  121SOL    HW2  363   1.801   0.811   1.140 -1.0891  1.5734  2.3054
  122SOL     OW  364   2.032   1.569   2.096  0.2186 -0.9137 -0.0331
  122SOL    HW1  365   2.091   1.649   2.070  1.0631  0.5648  1.0041
  122SOL    HW2  366   1.944   1.563   2.040 -0.8391 -2.4427 -1.3957
  123SOL     OW  367   0.330   1.049   0.554  0.3697 -0.7351 -0.5060
  123SOL    HW1  368   0.309   1.152   0.540  2.7026 -0.6579  3.2561
  123SOL    HW2  369   0.325   1.019   0.654  1.8405 -0.9495  2.9255
  124SOL     OW  370   0.755   0.332   2.737 -0.5463 -0.7363  0.9199
  124SOL    HW1  371   0.845   0.285   2.726  1.7417 -1.8975 -2.9970
  124SOL    HW2  372   0.715   0.294   2.827 -0.4570 -1.6365  0.4602
  125SOL     OW  373   0.673   3.037   2.884 -0.6759  0.3311  0.1158
  125SOL    HW1  374   0.755   2.991   2.923 -1.7237 -0.4866 -3.0526
  125SOL    HW2  375   0.678   3.017   2.784  0.6827 -0.7616 -1.2116
  126SOL     OW  376   0.683   1.537   0.144  0.3287  0.1086 -0.3240
  126SOL    HW1  377   0.669   1.439   0.130  0.7965  3.5096  0.1130
  126SOL    HW2  378   0.784   1.559   0.150  1.0395 -0.0896 -1.7880
  127SOL     OW  379   1.136   2.669   0.823 -0.0977 -0.3078  0.0702
  127SOL    HW1  380   1.046   2.717   0.808  2.0334  3.7010  2.0587
  127SOL    HW2  381   1.214   2.708   0.770  1.1379  1.5424  2.2040
  128SOL     OW  382   1.722   2.004   0.215 -0.5656 -0.1767 -0.2865
  128SOL    HW1  383   1.656   1.970   0.143  1.4116  0.9961 -2.2801
  128SOL    HW2  384   1.797   2.058   0.165 -0.2901  0.2742 -0.2064
  129SOL     OW  385   1.865   1.760   1.736  0.4062  0.5495  0.2719
  129SOL    HW1  386   1.917   1.726   1.657 -0.1287  3.3675 -1.2441
  129SOL    HW2  387   1.763   1.740   1.733 -1.8848  0.2178  1.1655
  130SOL     OW  388   2.153   1.816   1.819  0.1013  0.3948  0.4199
  130SOL    HW1  389   2.063   1.763   1.805 -2.4174 -0.3589 -0.1509
  130SOL    HW2  390   2.183   1.826   1.916 -2.1958  0.9153  1.2079
  131SOL     OW  391   0.951   2.533   1.918 -0.2286 -0.4363 -0.0618
  131SOL    HW1  392   0.950   2.630   1.879  0.2358 -0.6032 -2.4878
  131SOL    HW2  393   0.863   2.486   1.887 -1.4129  1.1834  0.2276
  132SOL     OW  394   2.439   1.590   0.722 -0.0131 -0.6620 -0.0150
  132SOL    HW1  395   2.501   1.571   0.642 -2.1256 -1.1272 -2.6383
  132SOL    HW2  396   2.466   1.681   0.763  0.0878  0.1261  2.1203
  133SOL     OW  397   0.786   1.978   1.866  0.7816 -0.1981  0.3897
  133SOL    HW1  398   0.767   1.980   1.765  0.3766 -0.9611 -2.5559
  133SOL    HW2  399   0.737   2.057   1.909 -0.0732  1.7083 -2.8439
  134SOL     OW  400   2.974   1.526   0.890 -0.0193  0.1334 -0.0522
  134SOL    HW1  401   2.928   1.446   0.840 -2.0304  0.4397 -0.9084
  134SOL    HW2  402   2.981   1.599   0.818 -1.8853 -1.6515 -1.0141
  135SOL     OW  403   2.043   1.503   2.868  0.8498  0.6485 -0.2822
  135SOL    HW1  404   2.100   1.580   2.832  0.6687  0.9794 -1.3998
  135SOL    HW2  405   2.007   1.442   2.791 -2.3894 -0.7066  1.7262
  136SOL     OW  406   3.076   1.638   1.355  0.4054 -0.2982 -0.3237
  136SOL    HW1  407   3.075   1.635   1.253 -2.8345 -0.9290  2.5377
  136SOL    HW2  408   0.009   1.712   1.385  2.1104  1.8209 -0.1772
  137SOL     OW  409   2.907   1.332   2.817 -0.0827  0.0866 -0.1577
  137SOL    HW1  410   2.829   1.295   2.768 -0.7374  0.1677 -1.3674
  137SOL    HW2  411   2.886   1.430   2.833  0.2514  2.9574 -1.6185
  138SOL     OW  412   2.741   0.493   0.874  0.4895 -0.4566 -0.1130
  138SOL    HW1  413   2.656   0.513   0.923  0.7071  3.0818 -0.1951
  138SOL    HW2  414   2.777   0.572   0.814 -0.8808  2.6845 -1.1890
  139SOL     OW  415   2.124   2.339   2.763  0.8305 -0.2957  0.2087
  139SOL    HW1  416   2.214   2.369   2.732 -0.3436  0.8269 -0.3407
  139SOL    HW2  417   2.074   2.279   2.695 -1.9764 -0.9036  1.5903
  140SOL     OW  418   0.901   1.553   0.907  0.0939  0.0275  0.7636
  140SOL    HW1  419   0.815   1.612   0.892 -0.3918  1.5521 -0.1940
  140SOL    HW2  420   0.884   1.455   0.873  1.0085 -1.3200 -1.0269
  141SOL     OW  421   1.149   1.250   0.814 -0.8142 -0.3681 -0.1511
  141SOL    HW1  422   1.246   1.291   0.814  1.0838  2.9432 -0.6209
  141SOL    HW2  423   1.124   1.231   0.715 -0.3995 -0.3239  1.9525
  142SOL     OW  424   1.365   0.771   1.238  0.1007 -0.0930  0.7392
  142SOL    HW1  425   1.280   0.716   1.255 -0.6054 -0.0824 -0.0662
  142SOL    HW2  426   1.417   0.719   1.166  3.0953  1.2544  2.9995
  143SOL     OW  427   0.318   0.494   2.985 -0.5019  0.3033  0.3638
  143SOL    HW1  428   0.237   0.456   2.944  0.4327  0.2529  2.3139
  143SOL    HW2  429   0.381   0.532   2.916 -0.3944  0.1192 -1.7893
  144SOL     OW  430   2.533   0.061   0.073 -0.2336 -0.0298  1.0573
  144SOL    HW1  431   2.513   0.164   0.057 -0.2558  2.2269  0.9419
  144SOL    HW2  432   2.619   0.033   0.022  0.4765  0.0105  0.6545
  145SOL     OW  433   2.302   3.037   2.603  0.7192  0.1822 -0.5219
  145SOL    HW1  434   2.314   3.068   2.507 -0.5541  0.7281  1.9525
  145SOL    HW2  435   2.286   3.114   2.674 -2.2561 -1.2592  2.0629
  146SOL     OW  436   2.999   2.671   0.485 -0.0333  0.0682  0.3710
  146SOL    HW1  437   3.061   2.592   0.471 -0.4785  0.0357 -0.7967
  146SOL    HW2  438   2.955   2.699   0.398 -1.9707 -1.2597 -3.9221
  147SOL     OW  439   1.432   0.747   3.124 -0.0142 -0.6448 -0.4493
  147SOL    HW1  440   1.350   0.786   0.042 -1.2789 -1.0664 -1.8112
  147SOL    HW2  441   1.417   0.649   3.100  3.0327  1.4094 -1.8629
  148SOL     OW  442   1.199   0.102   0.049 -0.4556 -0.2465  0.3681
  148SOL    HW1  443   1.185   0.056   0.141 -1.0972  0.4303  2.7823
  148SOL    HW2  444   1.299   0.113   0.030 -1.0600 -0.4059 -1.5277
  149SOL     OW  445   1.416   0.946   2.719  0.5205 -0.1717 -0.0921
  149SOL    HW1  446   1.471   0.906   2.791  0.9651 -0.9301 -1.9380
  149SOL    HW2  447   1.403   0.884   2.640  1.2419  3.2212  3.8786
  150SOL     OW  448   1.453   2.893   2.949 -0.4091  0.1032  0.1497
  150SOL    HW1  449   1.540   2.943   2.935  2.3224 -1.5703  0.4649
  150SOL    HW2  450   1.446   2.824   3.024 -0.3510 -1.7989  2.2116
  151SOL     OW  451   3.074   1.337   0.060 -1.2391  0.3102 -0.2892
  151SOL    HW1  452   3.003   1.265   0.045 -1.5456 -0.6632  1.1124
  151SOL    HW2  453   3.112   1.318   0.154 -1.2389  2.1894 -1.6040
  152SOL     OW  454   0.694   0.314   1.699  0.3336  0.3089 -0.3153
  152SOL    HW1  455   0.792   0.334   1.702 -3.6969  0.4223 -0.1808
  152SOL    HW2  456   0.652   0.359   1.620  0.4451  0.5782  2.1599
  153SOL     OW  457   2.516   0.083   2.042 -0.0202 -0.7171 -0.1472
  153SOL    HW1  458   2.428   0.072   1.999  1.0772 -0.4112  2.0548
  153SOL    HW2  459   2.532   0.184   2.066 -0.2259  2.4496 -2.9647
  154SOL     OW  460   2.243   0.016   1.972  0.3600  0.3563 -0.5384
  154SOL    HW1  461   2.249   3.068   2.037 -1.2749  1.4978  2.2911
  154SOL    HW2  462   2.207   0.096   2.019  0.6334 -3.8436 -0.5351
  155SOL     OW  463   0.031   1.228   0.304  0.8452 -0.2256 -0.0292
  155SOL    HW1  464   0.109   1.210   0.368  1.4906 -1.0555 -0.5154
  155SOL    HW2  465   3.099   1.145   0.311  1.2326 -2.9614 -0.3438
  156SOL     OW  466   1.652   1.241   0.166  0.4306  0.3338  0.0406
  156SOL    HW1  467   1.590   1.189   0.231 -2.8313  1.1753  0.4902
  156SOL    HW2  468   1.656   1.197   0.076 -1.4415 -0.7496  0.6866
  157SOL     OW  469   0.907   2.494   3.105  0.1911 -0.5493  0.1834
  157SOL    HW1  470   0.990   2.447   0.009 -2.8299  0.5919 -1.2329
  157SOL    HW2  471   0.826   2.439   0.009 -1.3337  0.4670 -1.1725
  158SOL     OW  472   1.709   0.986   1.495 -0.4660  0.4295  0.5216
  158SOL    HW1  473   1.730   0.953   1.588 -0.7967 -1.1175 -1.4267
  158SOL    HW2  474   1.646   1.068   1.497 -1.1099 -0.3268 -0.0594
  159SOL     OW  475   3.012   0.280   0.652 -0.0966  0.1831  0.4859
  159SOL    HW1  476   3.014   0.296   0.554 -1.1483  1.8069  2.7337
  159SOL    HW2  477   2.917   0.246   0.676 -1.2301 -0.1005  1.3851
  160SOL     OW  478   2.495   1.968   1.722  0.2735  0.1957 -0.0212
  160SOL    HW1  479   2.520   1.874   1.712 -0.7504  1.7728  0.4622
  160SOL    HW2  480   2.406   1.982   1.671 -1.7100 -1.9765 -3.0987
  161SOL     OW  481   0.057   0.172   0.186 -0.1444 -0.5593 -0.3984
  161SOL    HW1  482   0.059   0.069   0.193 -0.0045  1.5697  0.3799
  161SOL    HW2  483   0.138   0.216   0.236  3.7359 -0.5544  2.3652
  162SOL     OW  484   0.525   0.623   2.137  0.2114 -0.2728  0.7245
  162SOL    HW1  485   0.436   0.679   2.141  0.0713  0.7111  3.6384
  162SOL    HW2  486   0.565   0.618   2.229 -1.0984  0.2094  0.0447
  163SOL     OW  487   2.986   3.122   2.564 -0.3304 -0.1967 -0.3686
  163SOL    HW1  488   2.902   0.036   2.533  1.7120 -2.1868  0.3340
  163SOL    HW2  489   3.001   3.030   2.519 -0.0946 -0.9662  3.0570
  164SOL     OW  490   2.357   1.538   0.074 -0.5744 -0.0837  0.0186
  164SOL    HW1  491   2.304   1.618   0.110  0.5515 -1.5374  0.4845
  164SOL    HW2  492   2.290   1.466   0.046  1.1389  1.5342  0.6309
  165SOL     OW  493   0.647   0.160   1.283  0.3256  0.8751 -0.3246
  165SOL    HW1  494   0.641   0.247   1.335  1.4450 -1.8375 -0.0263
  165SOL    HW2  495   0.743   0.120   1.290  0.7719  1.2926 -1.1343
  166SOL     OW  496   3.023   0.302   0.377 -0.1743 -0.0061  0.5367
  166SOL    HW1  497   3.111   0.278   0.332 -2.6236 -0.0167 -1.2595
  166SOL    HW2  498   2.964   0.213   0.376 -1.7742 -2.0055 -1.1270
  167SOL     OW  499   2.282   0.491   0.694 -0.1354 -0.1099 -0.2804
  167SOL    HW1  500   2.333   0.500   0.785  4.4762  0.9570  0.0057
  167SOL    HW2  501   2.194   0.436   0.706 -3.8284 -2.3455 -0.9651
  168SOL     OW  502   1.146   0.465   2.477  0.3100 -0.2732 -0.1199
  168SOL    HW1  503   1.112   0.494   2.563  2.3426 -0.0997 -0.3638
  168SOL    HW2  504   1.102   0.532   2.409 -2.4832  1.2112 -0.4048
  169SOL     OW  505   0.893   1.932   1.183 -0.2047 -0.1779  0.0732
  169SOL    HW1  506   0.981   1.904   1.137  0.7314  0.0409 -0.1947
  169SOL    HW2  507   0.856   2.020   1.148 -2.5213  0.0911  0.1314
  170SOL     OW  508   3.011   0.188   1.711  0.3665 -0.6648  0.5226
  170SOL    HW1  509   3.089   0.131   1.679 -0.4631  1.3709 -0.1615
  170SOL    HW2  510   2.938   0.125   1.745  0.6253 -3.8764  1.6705
  171SOL     OW  511   2.608   0.948   2.230  0.6422  0.1642 -0.1765
  171SOL    HW1  512   2.586   1.020   2.160 -0.7097  1.2674  2.4103
  171SOL    HW2  513   2.567   0.862   2.200  1.6001 -2.3014 -1.6321
  172SOL     OW  514   1.336   2.191   1.172  0.3244 -0.0837  0.1109
  172SOL    HW1  515   1.262   2.216   1.107 -2.3819 -0.2050 -0.6084
  172SOL    HW2  516   1.377   2.111   1.130  1.6568  0.9496  0.0545
  173SOL     OW  517   2.461   2.391   3.093 -0.4732 -0.1124 -0.0123
  173SOL    HW1  518   2.382   2.393   0.023  1.4637 -0.6145  0.0136
  173SOL    HW2  519   2.529   2.464   3.127 -2.1932 -0.2110 -2.6610
  174SOL     OW  520   1.788   0.655   0.298  1.1612  0.1657 -0.2956
  174SOL    HW1  521   1.778   0.568   0.243 -0.5973 -0.2267 -0.5538
  174SOL    HW2  522   1.880   0.698   0.290  1.0050  1.6430 -3.0348
  175SOL     OW  523   0.773   1.812   1.393  0.0567 -0.5814 -0.0367
  175SOL    HW1  524   0.727   1.725   1.371 -2.8985  2.0745  1.5763
  175SOL    HW2  525   0.803   1.857   1.301  0.2502  0.9336 -2.4209
  176SOL     OW  526   0.350   3.127   0.670  0.4164 -0.1983 -0.2473
  176SOL    HW1  527   0.442   3.086   0.685 -1.0134  2.0619  1.6751
  176SOL    HW2  528   0.283   3.053   0.638 -2.8050  2.2955  0.5647
  177SOL     OW  529   2.893   1.395   0.335 -0.3334  0.1477 -0.4473
  177SOL    HW1  530   2.922   1.297   0.323 -1.3979  2.9491 -0.6652
  177SOL    HW2  531   2.971   1.456   0.362  0.1054  0.8586  0.0524
  178SOL     OW  532   2.703   2.528   2.078  0.2281  0.1394  0.1545
  178SOL    HW1  533   2.726   2.625   2.051 -0.4677  1.4842 -0.8461
  178SOL    HW2  534   2.627   2.524   2.142 -0.7455  0.7989 -2.3485
  179SOL     OW  535   2.305   0.003   0.196 -0.2329 -0.2218 -0.3537
  179SOL    HW1  536   2.398   0.033   0.170  1.0177 -2.2416 -0.6136
  179SOL    HW2  537   2.240   3.112   0.118 -0.0201  1.0669 -0.3149
  180SOL     OW  538   2.367   0.606   0.436 -0.0128  0.0261 -0.6082
  180SOL    HW1  539   2.314   0.570   0.520 -0.1757 -0.8458  3.9372
  180SOL    HW2  540   2.377   0.710   0.439 -0.8997 -0.9883 -1.2866
  181SOL     OW  541   3.024   0.011   2.833  1.0878  0.6050 -0.7708
  181SOL    HW1  542   3.029   3.128   2.732 -0.7536 -1.7709  0.0715
  181SOL    HW2  543   2.981   3.053   2.874 -0.4466  0.0999  3.2454
  182SOL     OW  544   2.658   2.038   2.475 -0.5269 -0.5588 -0.5036
  182SOL    HW1  545   2.645   2.052   2.379  3.3820 -0.8860 -0.1913
  182SOL    HW2  546   2.696   1.943   2.486 -0.6129 -0.0390 -0.6874
  183SOL     OW  547   2.990   0.890   1.493  0.2731 -0.3279  0.1458
  183SOL    HW1  548   3.039   0.963   1.447 -3.1104 -2.8237 -0.1648
  183SOL    HW2  549   2.964   0.917   1.587  1.0995 -0.2141 -1.3475
  184SOL     OW  550   0.096   1.385   1.092  0.1571  0.9073  0.7121
  184SOL    HW1  551   0.073   1.483   1.070 -2.7230 -1.1028 -0.6701
  184SOL    HW2  552   0.050   1.322   1.032  3.4846  0.7748  0.4959
  185SOL     OW  553   2.961   3.005   1.306 -0.4070  0.1346  0.4748
  185SOL    HW1  554   2.944   2.912   1.270  0.9637  3.2770 -1.4544
  185SOL    HW2  555   2.906   3.070   1.249 -2.0465  1.6495 -0.1769
  186SOL     OW  556   2.109   2.496   2.214  0.2823  0.0505 -0.5007
  186SOL    HW1  557   2.084   2.415   2.155 -2.6352  0.6055 -0.9018
  186SOL    HW2  558   2.136   2.461   2.306 -0.4478 -0.1551 -1.0456
  187SOL     OW  559   0.221   1.304   0.525  0.6922 -0.1799  0.3914
  187SOL    HW1  560   0.299   1.357   0.495 -2.5217 -1.1652  0.7184
  187SOL    HW2  561   0.209   1.323   0.625  1.7824 -2.1975 -0.4498
  188SOL     OW  562   1.958   1.855   3.072  0.1130  0.1298  0.0583
  188SOL    HW1  563   1.924   1.935   3.127 -0.4623 -0.1846 -2.3192
  188SOL    HW2  564   2.017   1.796   3.129 -0.0195  2.8448 -0.7386
  189SOL     OW  565   0.078   1.770   3.006 -0.8337 -1.1432 -0.1276
  189SOL    HW1  566   0.174   1.729   3.002  2.3191 -1.0152  0.6420
  189SOL    HW2  567   0.070   1.834   2.931  0.2062 -0.6978 -0.7447
  190SOL     OW  568   2.228   0.561   2.452  0.0905 -0.4035  0.3543
  190SOL    HW1  569   2.246   0.651   2.504  0.9519  0.7424  2.8242
  190SOL    HW2  570   2.302   0.493   2.481  2.5328 -0.5745 -0.6563
  191SOL     OW  571   0.768   1.347   2.200 -0.1815 -0.2422  0.1330
  191SOL    HW1  572   0.775   1.318   2.101 -2.0416 -0.4928 -1.0703
  191SOL    HW2  573   0.692   1.301   2.254 -2.5179 -0.7265  0.0781
  192SOL     OW  574   1.793   1.507   1.945 -0.1718 -0.6852 -0.0736
  192SOL    HW1  575   1.780   1.582   1.874  0.7349  2.1397 -1.0129
  192SOL    HW2  576   1.788   1.415   1.906  1.4318 -1.7717 -1.2086
  193SOL     OW  577   0.848   3.090   0.757 -0.0318  0.6199  0.3253
  193SOL    HW1  578   0.922   3.073   0.691  0.2550  4.1565  1.0694
  193SOL    HW2  579   0.884   3.093   0.855  2.2891 -0.3269  0.0392
  194SOL     OW  580   1.462   1.347   1.806  0.0869  0.0018 -0.0273
  194SOL    HW1  581   1.427   1.333   1.715  1.6506 -2.0453  3.4353
  194SOL    HW2  582   1.377   1.350   1.868 -1.7763  1.7097 -0.5008
  195SOL     OW  583   1.837   0.138   0.914  0.2751  0.4987  0.2511
  195SOL    HW1  584   1.828   0.237   0.896 -0.4517 -2.6727  0.7344
  195SOL    HW2  585   1.863   0.088   0.829  1.0527  0.1670  0.7697
  196SOL     OW  586   1.113   1.587   2.032  0.8325 -0.2842 -0.3135
  196SOL    HW1  587   1.168   1.673   2.058  4.1111 -0.6841 -1.3590
  196SOL    HW2  588   1.045   1.610   1.965  0.3422 -0.8486  4.2762
  197SOL     OW  589   0.546   0.205   2.596 -0.5240 -0.5148 -0.1821
  197SOL    HW1  590   0.630   0.256   2.635  4.7742  2.8328  0.9330
  197SOL    HW2  591   0.572   0.118   2.545 -1.9912  2.9583 -0.8467
  198SOL     OW  592   2.860   1.079   0.967 -0.3261 -0.2871 -0.2962
  198SOL    HW1  593   2.862   1.028   1.059  0.4091 -0.9531  2.4815
  198SOL    HW2  594   2.814   1.166   0.982  2.9612 -2.3368  1.3206
  199SOL     OW  595   0.517   2.355   1.086  0.1602 -0.3317 -0.1989
  199SOL    HW1  596   0.528   2.270   1.034 -0.1665 -1.8056 -1.1751
  199SOL    HW2  597   0.418   2.367   1.105 -1.1865 -0.2756 -1.0975
  200SOL     OW  598   2.918   1.931   2.822  0.2460 -0.5305  0.5058
  200SOL    HW1  599   2.948   1.838   2.852  1.4997  2.0009  0.5997
  200SOL    HW2  600   2.830   1.922   2.780  2.5374  1.2469 -0.2249
  201SOL     OW  601   0.907   2.542   1.313  0.3007  0.0535  0.5854
  201SOL    HW1  602   0.949   2.554   1.222 -2.0018 -0.6953  1.8283
  201SOL    HW2  603   0.836   2.467   1.320 -1.2860 -0.8190 -1.1256
  202SOL     OW  604   1.031   2.796   0.251 -0.0821  0.0731 -0.1763
  202SOL    HW1  605   0.947   2.775   0.193 -2.6199 -0.7708 -0.0148
  202SOL    HW2  606   1.125   2.776   0.208  0.0411 -0.9779  0.6246
  203SOL     OW  607   1.731   2.999   2.892  0.3755  0.0125  0.6334
  203SOL    HW1  608   1.701   3.081   2.835 -1.5457 -0.3551  0.1822
  203SOL    HW2  609   1.821   2.963   2.846  4.1169 -1.3899 -0.2940
  204SOL     OW  610   0.506   1.708   1.503  0.5451 -0.0465  0.6040
  204SOL    HW1  611   0.509   1.701   1.400  0.9125  2.0808 -0.3253
  204SOL    HW2  612   0.600   1.726   1.539  0.4893  1.4161  3.0949
  205SOL     OW  613   2.227   1.343   2.399 -0.3288  0.1749 -0.4002
  205SOL    HW1  614   2.308   1.379   2.343  2.3611 -0.9520  1.5318
  205SOL    HW2  615   2.186   1.268   2.342 -0.4530 -1.8630  1.1483
  206SOL     OW  616   0.267   2.126   2.996  0.4787  0.1240  0.0384
  206SOL    HW1  617   0.183   2.069   2.970 -0.0034 -1.7199 -0.4441
  206SOL    HW2  618   0.254   2.225   2.973  2.2273 -0.3670  0.4923
  207SOL     OW  619   0.541   2.292   2.328 -0.2020 -0.8285 -0.2396
  207SOL    HW1  620   0.642   2.278   2.320  0.9763 -0.4933  0.4893
  207SOL    HW2  621   0.494   2.325   2.242 -3.9278  0.7615 -0.6577
  208SOL     OW  622   0.051   2.755   1.386 -0.4332 -0.5874  0.4987
  208SOL    HW1  623   0.043   2.732   1.487  0.0014  1.2232 -1.0364
  208SOL    HW2  624   0.103   2.843   1.357  1.1453  1.3603 -0.7506
  209SOL     OW  625   1.339   2.851   2.259  0.4621 -0.4452  0.0258
  209SOL    HW1  626   1.282   2.768   2.242 -0.6222 -0.2971 -0.6522
  209SOL    HW2  627   1.361   2.865   2.358  1.7670  1.1610  0.5681
  210SOL     OW  628   2.878   1.139   2.099  0.3488  0.4099 -0.1736
  210SOL    HW1  629   2.956   1.094   2.053  1.0410  0.7688 -1.6296
  210SOL    HW2  630   2.850   1.075   2.178  0.6185 -1.5467  2.1609
  211SOL     OW  631   1.545   0.033   2.068 -0.7571  0.2446  0.3591
  211SOL    HW1  632   1.603   3.101   2.127 -0.4846  0.0250  1.1423
  211SOL    HW2  633   1.457   3.113   2.054  1.6735  0.9221  4.2869
  212SOL     OW  634   1.726   2.745   1.816 -0.3463  0.1403  0.2583
  212SOL    HW1  635   1.784   2.713   1.896 -3.6398 -2.3360  0.3731
  212SOL    HW2  636   1.780   2.787   1.743 -0.6390 -1.1136 -1.5480
  213SOL     OW  637   2.523   0.542   1.638  0.1110  0.4189 -0.0817
  213SOL    HW1  638   2.506   0.527   1.537 -0.0437 -1.1425  0.7252
  213SOL    HW2  639   2.624   0.537   1.664  0.4562 -0.7437  3.0220
  214SOL     OW  640   0.760   2.202   0.838 -0.5838 -0.3156 -0.5767
  214SOL    HW1  641   0.781   2.103   0.841  0.6326  3.2129 -0.6808
  214SOL    HW2  642   0.797   2.246   0.755 -0.8770 -0.6066  2.6467
  215SOL     OW  643   2.460   1.835   0.808 -0.6726 -0.9313  0.6560
  215SOL    HW1  644   2.536   1.857   0.873 -0.1365  1.4698 -1.3963
  215SOL    HW2  645   2.465   1.894   0.721 -0.7930 -0.9888 -0.2472
  216SOL     OW  646   2.751   0.592   1.821 -0.1472  0.8072 -0.3674
  216SOL    HW1  647   2.716   0.670   1.877 -0.1220 -2.7753 -0.1986
  216SOL    HW2  648   2.793   0.618   1.733 -0.0324  0.9216  1.7641
  217SOL     OW  649   2.105   0.477   1.479  0.1146 -0.2992 -0.3451
  217SOL    HW1  650   2.139   0.480   1.382 -1.9059  0.1221  0.6061
  217SOL    HW2  651   2.086   0.571   1.515  1.1396  0.9018  1.0750
  218SOL     OW  652   1.948   2.377   1.245  0.6733 -0.5636  0.4191
  218SOL    HW1  653   1.965   2.475   1.249  0.3515 -1.1711 -1.2259
  218SOL    HW2  654   1.892   2.358   1.326  0.4042  0.0018 -0.6661
  219SOL     OW  655   2.228   2.393   0.093  0.0274 -0.0307 -0.7384
  219SOL    HW1  656   2.186   2.298   0.109  0.9424  0.0627 -0.0258
  219SOL    HW2  657   2.158   2.466   0.118 -3.6086  2.0101 -1.5448
  220SOL     OW  658   1.547   2.727   0.093  0.1124  0.7867 -0.1017
  220SOL    HW1  659   1.564   2.681   0.181 -1.2827 -0.1179  1.6738
  220SOL    HW2  660   1.631   2.776   0.068 -1.6154 -0.8379 -1.1760
  221SOL     OW  661   3.066   2.135   1.789 -0.0181 -0.2196 -0.2124
  221SOL    HW1  662   3.024   2.080   1.716  1.5303  1.3594  1.4947
  221SOL    HW2  663   3.025   2.107   1.879  0.1941 -0.4661  0.6021
  222SOL     OW  664   2.069   2.584   0.919  0.1634  0.2806 -0.2248
  222SOL    HW1  665   2.147   2.643   0.923 -2.0747 -2.0313  1.9073
  222SOL    HW2  666   2.095   2.487   0.911  1.9419  2.0403  1.4907
  223SOL     OW  667   1.409   2.631   1.291 -0.2786  0.0096 -0.0502
  223SOL    HW1  668   1.422   2.685   1.376  3.1880 -1.2267 -0.1099
  223SOL    HW2  669   1.391   2.531   1.310 -0.1510 -1.6759  1.3695
  224SOL     OW  670   2.775   2.541   1.436 -0.2184  0.3457 -0.4145
  224SOL    HW1  671   2.845   2.601   1.393  0.4298  0.9013  2.7386
  224SOL    HW2  672   2.801   2.520   1.530  1.2598  0.8589 -2.1927
  225SOL     OW  673   2.279   2.089   0.767 -0.6374  0.1382  0.3832
  225SOL    HW1  674   2.280   1.989   0.773  1.4903  0.8577 -0.6468
  225SOL    HW2  675   2.211   2.125   0.831  2.0146  0.0768 -1.0274
  226SOL     OW  676   1.361   2.497   0.228  0.3840  0.8501 -0.1680
  226SOL    HW1  677   1.411   2.409   0.196  3.6306 -3.1026 -2.1253
  226SOL    HW2  678   1.344   2.490   0.328 -0.3092  0.4004 -1.1216
  227SOL     OW  679   2.040   1.008   0.573 -0.5179  0.3658  0.2863
  227SOL    HW1  680   1.953   1.054   0.595  1.8559 -0.5563  0.2197
  227SOL    HW2  681   2.049   0.912   0.598 -0.2433  0.0813  0.3261
  228SOL     OW  682   1.760   0.468   0.087 -0.1968  0.0267  0.1595
  228SOL    HW1  683   1.826   0.408   0.035 -0.3662  2.7142 -0.0533
  228SOL    HW2  684   1.669   0.423   0.108 -0.3761 -0.3907  1.2555
  229SOL     OW  685   2.832   0.979   2.395 -0.5174 -0.3591 -0.2384
  229SOL    HW1  686   2.749   0.964   2.340 -0.8960  0.2551  1.6076
  229SOL    HW2  687   2.854   0.893   2.447 -1.2008 -2.0994  1.3360
  230SOL     OW  688   0.398   1.205   0.935 -0.2606  0.6253 -0.1818
  230SOL    HW1  689   0.419   1.235   1.028  0.7365 -0.1869 -1.2675
  230SOL    HW2  690   0.482   1.189   0.882 -1.8788  0.5984  1.4967
  231SOL     OW  691   2.503   0.350   2.807 -0.3526  0.4108 -0.3628
  231SOL    HW1  692   2.526   0.433   2.863 -0.9317  0.8893 -0.9269
  231SOL    HW2  693   2.575   0.279   2.818 -0.1235 -1.5985  0.3271
  232SOL     OW  694   2.845   2.052   0.682 -0.3397 -0.3375 -0.1456
  232SOL    HW1  695   2.924   2.072   0.739  0.0729  1.3793 -0.7575
  232SOL    HW2  696   2.797   2.137   0.654  0.4287  0.3596  1.2206
  233SOL     OW  697   1.637   2.634   2.447  0.4254 -0.8080  0.1241
  233SOL    HW1  698   1.622   2.719   2.500 -0.7572 -0.4585  0.8351
  233SOL    HW2  699   1.712   2.646   2.380 -3.8646  0.9647 -1.1963
  234SOL     OW  700   1.340   1.969   1.362  0.0960 -0.0102  0.1308
  234SOL    HW1  701   1.407   1.993   1.433  1.0083 -1.1645  0.9117
  234SOL    HW2  702   1.320   2.056   1.309 -2.8861  1.0417 -1.4383
  235SOL     OW  703   1.036   1.887   1.777  0.5193  0.2029 -0.2837
  235SOL    HW1  704   0.948   1.916   1.818 -1.1854  0.7284  0.2238
  235SOL    HW2  705   1.010   1.840   1.685 -0.2302 -2.8972 -3.9934
  236SOL     OW  706   0.908   2.569   2.820  0.2405 -0.2298  0.0995
  236SOL    HW1  707   0.957   2.503   2.762  2.1299 -1.9905  1.1851
  236SOL    HW2  708   0.917   2.548   2.916 -2.3203 -0.1968 -2.2337
  237SOL     OW  709   0.436   0.063   1.441 -0.1322 -0.0356  0.0932
  237SOL    HW1  710   0.515   0.085   1.379  1.5415 -1.1595 -0.8737
  237SOL    HW2  711   0.427   3.089   1.447 -3.3360  2.3816  0.4910
  238SOL     OW  712   1.061   0.733   0.342 -0.0004 -0.5359  0.2782
  238SOL    HW1  713   1.108   0.781   0.421  1.3647  0.2913 -0.1868
  238SOL    HW2  714   0.967   0.767   0.336 -1.3032 -1.3387 -0.1005
  239SOL     OW  715   2.303   0.687   2.995 -0.1973  0.1045 -0.1004
  239SOL    HW1  716   2.293   0.736   2.908  0.0302  0.0274 -1.8291
  239SOL    HW2  717   2.312   0.758   3.069 -3.9357 -0.1624  1.6643
  240SOL     OW  718   2.617   2.149   1.054  0.6310 -0.4132  0.4191
  240SOL    HW1  719   2.624   2.134   1.153 -1.0357  1.8416 -0.1856
  240SOL    HW2  720   2.620   2.059   1.005 -2.1448  0.4732  1.1676
  241SOL     OW  721   1.189   1.585   0.863  0.2261 -0.0466 -0.3655
  241SOL    HW1  722   1.232   1.610   0.955  1.7695 -0.3705 -0.2388
  241SOL    HW2  723   1.087   1.585   0.860  1.1791  0.8823  1.6036
  242SOL     OW  724   0.983   0.423   0.908  0.2084  0.0751  0.4820
  242SOL    HW1  725   0.885   0.413   0.882 -1.5549 -1.5025  0.0990
  242SOL    HW2  726   1.041   0.454   0.831 -0.8280 -0.9880  0.2408
  243SOL     OW  727   0.584   0.551   0.979 -0.2539  0.2890 -0.1491
  243SOL    HW1  728   0.530   0.517   1.057  1.1418  0.1576 -1.6743
  243SOL    HW2  729   0.541   0.631   0.933  1.3255  2.4038 -1.6714
  244SOL     OW  730   1.266   0.038   0.423  0.7897  0.4055  0.5333
  244SOL    HW1  731   1.284   3.073   0.395  1.5501 -0.3322 -0.3836
  244SOL    HW2  732   1.168   0.061   0.409  3.1681 -2.7874 -1.9686
  245SOL     OW  733   2.042   0.729   0.352 -0.6923 -0.0527 -0.2536
  245SOL    HW1  734   2.099   0.728   0.440 -1.6106  0.7835 -1.1309
  245SOL    HW2  735   2.089   0.778   0.276 -2.0777  1.3407  2.5868
  246SOL     OW  736   0.439   0.165   1.699  0.3456  0.2783  0.2945
  246SOL    HW1  737   0.433   0.131   1.600  0.8539  0.7767 -0.6352
  246SOL    HW2  738   0.520   0.218   1.720 -1.0401 -2.4699  0.2220
  247SOL     OW  739   1.064   0.211   1.997 -0.0767 -0.5376  0.4863
  247SOL    HW1  740   1.152   0.251   1.962 -0.9165  1.3158  0.9709
  247SOL    HW2  741   1.049   0.244   2.091 -3.1484 -2.3821  0.3938
  248SOL     OW  742   0.487   1.719   1.998  0.0004 -0.0987 -0.1221
  248SOL    HW1  743   0.583   1.748   2.005 -0.6114  0.0409 -0.0095
  248SOL    HW2  744   0.452   1.686   2.091 -3.3119  1.3415  0.9609
  249SOL     OW  745   0.539   2.516   0.402  0.1312  0.4059  0.1037
  249SOL    HW1  746   0.444   2.550   0.384 -0.8274 -1.1763  1.3587
  249SOL    HW2  747   0.599   2.565   0.336 -1.9059 -2.0534  0.3400
  250SOL     OW  748   0.717   0.304   2.173 -0.7316  0.0132  0.0976
  250SOL    HW1  749   0.638   0.243   2.196 -0.7867 -0.9697 -1.8134
  250SOL    HW2  750   0.723   0.302   2.070  1.4623 -1.1334 -2.4958
  251SOL     OW  751   2.927   1.983   1.597  0.2157  0.2000 -0.2892
  251SOL    HW1  752   2.929   1.881   1.585  0.7491  0.3194 -0.1369
  251SOL    HW2  753   2.830   2.020   1.600 -0.7660  0.4099 -0.5791
  252SOL     OW  754   1.309   0.234   1.877 -0.3457  0.3465  0.3533
  252SOL    HW1  755   1.332   0.259   1.977  1.7937  1.1977  3.0288
  252SOL    HW2  756   1.384   0.175   1.833  2.7889 -2.4875  0.3604
  253SOL     OW  757   2.366   2.049   2.209  0.0436 -0.2912 -0.1588
  253SOL    HW1  758   2.381   2.132   2.149  1.9430  2.3256 -1.0753
  253SOL    HW2  759   2.374   2.082   2.304  1.3106  0.5078  3.1537
  254SOL     OW  760   0.911   1.485   1.165  0.1408 -0.5158 -0.0536
  254SOL    HW1  761   0.857   1.560   1.210  1.5929  1.3220 -0.7717
  254SOL    HW2  762   0.936   1.504   1.069  1.3679  1.4427 -0.7110
  255SOL     OW  763   0.385   2.881   1.950 -0.1745  0.2253  0.2641
  255SOL    HW1  764   0.449   2.961   1.946 -0.8035 -1.3875  1.6289
  255SOL    HW2  765   0.340   2.868   1.857 -1.5958  1.4001  0.5440
  256SOL     OW  766   0.446   2.734   0.668 -0.0621  0.0825 -0.8442
  256SOL    HW1  767   0.459   2.633   0.694 -1.3896 -0.5986 -0.5646
  256SOL    HW2  768   0.471   2.750   0.574 -1.3653  1.0001  1.4534
  257SOL     OW  769   1.223   2.611   2.278  0.7794  0.1759  0.4133
  257SOL    HW1  770   1.283   2.575   2.349  0.6886  1.3117 -0.2671
  257SOL    HW2  771   1.215   2.544   2.201  0.4922 -2.8754 -0.7757
  258SOL     OW  772   1.488   2.186   2.174 -0.4721  0.2422 -0.0408
  258SOL    HW1  773   1.447   2.240   2.096 -1.3310 -0.4533 -1.7905
  258SOL    HW2  774   1.569   2.233   2.209 -0.2672 -1.4042 -0.2782
  259SOL     OW  775   0.965   0.902   2.356  0.4997 -0.3465  0.1479
  259SOL    HW1  776   0.959   0.954   2.270  1.6512 -1.9976  0.1461
  259SOL    HW2  777   0.872   0.887   2.397  1.4831 -4.6376 -1.5155
  260SOL     OW  778   2.744   0.652   2.734  0.6205  0.2776 -0.2284
  260SOL    HW1  779   2.738   0.724   2.811  3.2874  0.0567  0.8204
  260SOL    HW2  780   2.729   0.562   2.774 -0.3185  1.6276  0.7438
  261SOL     OW  781   0.855   1.305   0.750 -0.2626  0.7657  0.0493
  261SOL    HW1  782   0.936   1.247   0.772 -1.6553 -0.2524  1.8054
  261SOL    HW2  783   0.823   1.286   0.654 -1.0568 -4.5136 -1.1532
  262SOL     OW  784   2.361   2.116   2.471  0.3453 -0.4594  0.3923
  262SOL    HW1  785   2.280   2.069   2.506 -0.9245  1.8257  1.5079
  262SOL    HW2  786   2.446   2.084   2.518  2.2190  1.2755 -2.0889
  263SOL     OW  787   0.762   2.800   1.045 -0.2461  0.1449 -0.0803
  263SOL    HW1  788   0.841   2.820   1.106  0.6063  2.2449  2.3980
  263SOL    HW2  789   0.741   2.699   1.031  0.8682  0.9631  0.5716
  264SOL     OW  790   2.864   2.236   0.423 -0.0599  0.5140 -0.6578
  264SOL    HW1  791   2.807   2.268   0.503 -1.4745 -1.6808 -1.7795
  264SOL    HW2  792   2.815   2.163   0.373  0.9573  1.1406  1.0658
  265SOL     OW  793   1.912   1.123   2.616 -0.6278  0.2525  0.3852
  265SOL    HW1  794   1.832   1.100   2.555 -0.0188 -2.1618  3.5734
  265SOL    HW2  795   1.929   1.223   2.631  1.7155  0.2725  1.3345
  266SOL     OW  796   1.323   1.959   2.254 -0.1308  0.4493  0.1405
  266SOL    HW1  797   1.383   2.032   2.217  1.5800  0.6705  0.9481
  266SOL    HW2  798   1.236   1.993   2.297 -2.0264 -0.4616 -0.0685
  267SOL     OW  799   2.590   0.687   2.460 -0.1042  0.7238 -0.2218
  267SOL    HW1  800   2.537   0.768   2.493 -0.6883 -0.3734  2.2467
  267SOL    HW2  801   2.672   0.672   2.517  2.6605  2.5231  2.0533
  268SOL     OW  802   1.009   1.181   2.972  0.6978 -0.1541  0.7239
  268SOL    HW1  803   0.954   1.263   2.945 -0.1378  1.5695 -1.2276
  268SOL    HW2  804   1.097   1.179   2.921  1.3244 -0.4036  2.7663
  269SOL     OW  805   2.967   2.158   2.036  0.4795  0.3386  0.3641
  269SOL    HW1  806   2.915   2.104   2.106 -0.8208 -0.9735 -0.0793
  269SOL    HW2  807   2.992   2.250   2.075 -0.8388  1.4502 -0.7763
  270SOL     OW  808   0.077   1.893   0.135 -0.4746 -0.0413  0.4112
  270SOL    HW1  809   0.001   1.846   0.184  0.7349  1.0795  0.7901
  270SOL    HW2  810   0.102   1.840   0.053  0.7648  0.0303 -1.5959
  271SOL     OW  811   0.214   0.331   0.346 -0.8061  0.0870 -0.1419
  271SOL    HW1  812   0.273   0.313   0.428 -4.0251 -1.6990 -0.6402
  271SOL    HW2  813   0.165   0.422   0.358 -0.8823 -1.9976  0.2269
  272SOL     OW  814   3.128   2.814   0.672  0.2894  0.5800 -0.4312
  272SOL    HW1  815   3.079   2.823   0.764 -1.4494 -0.9168  0.9215
  272SOL    HW2  816   3.087   2.751   0.601 -0.4565 -2.0557  0.7459
  273SOL     OW  817   0.244   3.073   2.163 -0.6296 -0.1587 -0.0691
  273SOL    HW1  818   0.215   2.984   2.199  1.3006  0.6950 -0.3011
  273SOL    HW2  819   0.237   3.078   2.060  2.5791  1.2969 -0.6925
  274SOL     OW  820   0.433   0.426   1.185 -0.6507 -0.0324 -0.3291
  274SOL    HW1  821   0.405   0.355   1.115 -1.2077  0.4767  1.0876
  274SOL    HW2  822   0.357   0.496   1.194  2.3268 -0.7968  0.1352
  275SOL     OW  823   1.122   1.855   0.997  0.2877  0.2275  0.1524
  275SOL    HW1  824   1.185   1.848   0.917  0.1395  2.4310  0.1357
  275SOL    HW2  825   1.174   1.815   1.078  1.5298  0.3643 -1.1842
  276SOL     OW  826   0.577   1.471   1.828  0.2399 -0.0442 -0.1739
  276SOL    HW1  827   0.572   1.556   1.885  0.3966  0.7363  0.1446
  276SOL    HW2  828   0.483   1.444   1.785 -2.6482  2.0366 -1.2030
  277SOL     OW  829   1.371   2.328   1.957 -0.6122  0.3860 -0.5843
  277SOL    HW1  830   1.300   2.397   1.994 -0.3910  0.8664  0.9354
  277SOL    HW2  831   1.332   2.263   1.889  0.4791  0.1227 -1.7030
  278SOL     OW  832   2.232   2.948   2.157  0.3847  0.2276  0.3035
  278SOL    HW1  833   2.235   2.854   2.125 -0.1826  2.3262  1.4285
  278SOL    HW2  834   2.140   2.966   2.201  1.5549  1.4370  1.3203
  279SOL     OW  835   1.759   1.662   3.062  0.1347 -0.2494 -0.1176
  279SOL    HW1  836   1.682   1.695   3.006  0.4718  1.6411  2.0318
  279SOL    HW2  837   1.824   1.742   3.064 -3.3571  1.6065 -0.2174
  280SOL     OW  838   1.666   0.296   0.601  0.2306 -0.4091  0.1486
  280SOL    HW1  839   1.667   0.269   0.700 -0.8953 -0.2543  0.0738
  280SOL    HW2  840   1.672   0.394   0.589  0.5551 -1.8697  0.9983
  281SOL     OW  841   0.383   0.375   2.100  0.3052  0.2294  0.4184
  281SOL    HW1  842   0.338   0.400   2.003  2.6003 -0.1655 -3.5778
  281SOL    HW2  843   0.456   0.430   2.131 -1.5201 -0.5189 -2.3252
  282SOL     OW  844   0.243   2.891   0.609 -0.0256 -0.1366  0.8891
  282SOL    HW1  845   0.145   2.863   0.632 -0.7837 -1.1660 -0.2529
  282SOL    HW2  846   0.315   2.832   0.649 -0.5989 -0.8732  1.1577
  283SOL     OW  847   1.355   2.386   1.373 -0.2444  0.3536  0.0496
  283SOL    HW1  848   1.354   2.309   1.303  0.3898 -0.8382 -1.1590
  283SOL    HW2  849   1.402   2.355   1.457  1.6694  1.3693 -0.1816
  284SOL     OW  850   2.275   2.696   1.389  0.2861  0.5999 -0.1925
  284SOL    HW1  851   2.376   2.691   1.364  1.5488 -2.1213 -0.9434
  284SOL    HW2  852   2.209   2.685   1.312 -2.2448  0.3369  1.9058
  285SOL     OW  853   0.517   2.151   0.896  0.4357  0.4467  0.1777
  285SOL    HW1  854   0.620   2.164   0.880  0.6318  1.4007  2.3851
  285SOL    HW2  855   0.465   2.143   0.807  0.9492  1.0501  0.8506
  286SOL     OW  856   0.102   2.750   1.866  0.3192 -1.0384  0.5612
  286SOL    HW1  857   0.018   2.786   1.908 -0.1256  0.9087 -1.0906
  286SOL    HW2  858   0.087   2.663   1.813 -0.0859 -1.4695 -1.8175
  287SOL     OW  859   0.645   1.129   0.847 -0.1437 -0.1025  0.7601
  287SOL    HW1  860   0.702   1.197   0.797  1.9608  0.9186  0.0143
  287SOL    HW2  861   0.660   1.038   0.796 -0.0657 -0.1706 -0.1302
  288SOL     OW  862   1.306   2.070   2.597  0.3462  0.6349 -0.7342
  288SOL    HW1  863   1.341   1.993   2.546 -0.9634 -0.8916  0.6611
  288SOL    HW2  864   1.253   2.038   2.681 -2.2746 -0.4113  1.0778
  289SOL     OW  865   2.565   1.553   2.811  0.1421 -0.4222  0.3934
  289SOL    HW1  866   2.568   1.545   2.911 -0.2769 -2.1551 -3.1579
  289SOL    HW2  867   2.472   1.520   2.781 -1.0068 -3.3908  1.0486
  290SOL     OW  868   1.274   1.619   1.135  0.4685  0.5648 -0.0630
  290SOL    HW1  869   1.227   1.554   1.196 -1.3355 -0.1340 -1.2294
  290SOL    HW2  870   1.361   1.658   1.173  0.9674 -2.1569  0.4264
  291SOL     OW  871   1.199   0.872   0.124 -0.1928 -0.2219  0.1388
  291SOL    HW1  872   1.161   0.822   0.205 -2.3590  0.6050 -2.4075
  291SOL    HW2  873   1.135   0.876   0.046  1.6968 -0.7940 -2.1485
  292SOL     OW  874   1.983   1.634   0.258 -0.4261  0.3849 -0.0291
  292SOL    HW1  875   2.039   1.550   0.290  4.3559 -2.9633  1.0199
  292SOL    HW2  876   1.887   1.607   0.230 -1.3702  0.1404  1.0981
  293SOL     OW  877   1.695   0.011   1.103  0.7397  0.5472 -0.0094
  293SOL    HW1  878   1.658   0.073   1.179 -0.0844  1.5242 -0.1927
  293SOL    HW2  879   1.749   0.055   1.029 -3.0458  0.0135 -4.6390
  294SOL     OW  880   2.199   0.977   0.110 -0.0237 -0.0522 -0.3221
  294SOL    HW1  881   2.231   0.883   0.132  1.7483  0.0901  0.6019
  294SOL    HW2  882   2.198   1.015   0.204 -0.9968 -0.2412 -1.4430
  295SOL     OW  883   2.093   1.978   2.556  0.0702 -0.3198  1.0644
  295SOL    HW1  884   2.102   1.921   2.639  0.9435 -0.0829 -1.8145
  295SOL    HW2  885   2.053   2.075   2.567  0.9305  1.1718 -1.8256
  296SOL     OW  886   1.482   1.509   1.457 -0.7913 -0.2350 -0.6912
  296SOL    HW1  887   1.491   1.583   1.387 -0.1378 -0.8162  0.0835
  296SOL    HW2  888   1.424   1.538   1.535 -0.0026 -0.1139 -1.8122
  297SOL     OW  889   0.227   0.834   2.450 -0.1106  0.5715 -0.6306
  297SOL    HW1  890   0.154   0.774   2.496 -2.9905  1.9290  1.4491
  297SOL    HW2  891   0.281   0.882   2.524 -1.4388  1.8607  0.8950
  298SOL     OW  892   1.800   2.513   1.426 -0.1755  0.1872  0.7353
  298SOL    HW1  893   1.743   2.459   1.491 -1.9113  0.1646 -0.5575
  298SOL    HW2  894   1.848   2.596   1.461 -2.2779  0.7678 -2.0876
  299SOL     OW  895   1.081   0.478   2.749  0.4790 -0.0016 -0.4508
  299SOL    HW1  896   1.181   0.492   2.747  0.4986  0.6855 -0.1353
  299SOL    HW2  897   1.050   0.386   2.775 -0.7085  1.2062 -0.5418
  300SOL     OW  898   2.264   1.541   0.411  0.3909 -0.3639  0.3464
  300SOL    HW1  899   2.364   1.531   0.391 -1.6228 -1.3423  0.1136
  300SOL    HW2  900   2.212   1.473   0.356  0.6117 -2.4964  1.5918
  301SOL     OW  901   2.405   0.370   2.557 -0.7259  0.3549 -0.5891
  301SOL    HW1  902   2.460   0.325   2.485 -2.2518  1.0449  0.4275
  301SOL    HW2  903   2.452   0.373   2.649  1.9301 -0.8835  1.2339
  302SOL     OW  904   2.699   1.767   2.478  0.0271 -0.7035  0.1889
  302SOL    HW1  905   2.767   1.708   2.431 -2.2837  0.7086 -0.2341
  302SOL    HW2  906   2.601   1.746   2.443 -4.8619  0.1221  1.8791
  303SOL     OW  907   3.058   2.521   2.528 -0.1935 -0.1846 -0.3034
  303SOL    HW1  908   3.079   2.569   2.442 -1.2696  3.2286 -1.9956
  303SOL    HW2  909   3.122   2.540   2.606  0.7275  0.3096 -1.0454
  304SOL     OW  910   2.949   1.349   1.193  0.2364 -0.3165 -0.5208
  304SOL    HW1  911   2.933   1.315   1.287 -0.2363  0.9242 -1.2492
  304SOL    HW2  912   3.046   1.369   1.180 -2.2212 -0.0029  1.2339
  305SOL     OW  913   0.125   0.299   2.312 -0.0366  0.2951 -0.0703
  305SOL    HW1  914   0.140   0.229   2.238 -0.9735  0.7908 -1.2963
  305SOL    HW2  915   0.074   0.264   2.396  0.8841  1.9583  0.6911
  306SOL     OW  916   1.272   1.364   0.347 -0.8044  0.2084 -0.4856
  306SOL    HW1  917   1.301   1.279   0.300  0.8505 -1.6009 -0.1573
  306SOL    HW2  918   1.356   1.387   0.404 -0.3672 -0.4424 -0.7716
  307SOL     OW  919   2.841   0.070   1.147  0.5677  0.7458  0.2477
  307SOL    HW1  920   2.879   0.026   1.065  0.2655  1.2484  1.4788
  307SOL    HW2  921   2.899   0.155   1.171  1.1527  2.4384  0.4689
  308SOL     OW  922   2.999   1.679   2.641 -0.2265 -0.2540 -0.0019
  308SOL    HW1  923   2.951   1.637   2.721 -0.2999  1.5263 -0.4051
  308SOL    HW2  924   2.937   1.686   2.561 -0.5861 -1.0560 -2.0656
  309SOL     OW  925   0.106   1.956   2.815  0.1623 -0.1550 -0.2873
  309SOL    HW1  926   0.037   1.993   2.752 -0.8044 -0.5531 -0.2810
  309SOL    HW2  927   0.199   1.944   2.771  1.2399  0.7523  0.1264
  310SOL     OW  928   2.480   0.292   3.124 -0.1064 -0.3031 -0.3879
  310SOL    HW1  929   2.460   0.298   3.027  0.9487 -0.4522  2.1900
  310SOL    HW2  930   2.406   0.336   0.049 -0.0094 -2.0759 -2.0929
  311SOL     OW  931   1.997   0.961   2.816  0.1675 -0.2639 -0.2093
  311SOL    HW1  932   1.969   1.035   2.753  0.4050 -1.7519  0.1958
  311SOL    HW2  933   1.966   0.978   2.914  0.5736  0.3192  2.8746
  312SOL     OW  934   1.215   1.373   1.917 -0.1587 -0.2449 -0.3154
  312SOL    HW1  935   1.201   1.457   1.970  2.2993  0.1298 -0.6295
  312SOL    HW2  936   1.138   1.348   1.856  0.4831 -2.3399 -2.7484
  313SOL     OW  937   3.104   0.634   0.084  0.0254 -0.3238  0.7219
  313SOL    HW1  938   3.099   0.539   0.052  1.3457  2.0983 -0.8574
  313SOL    HW2  939   3.027   0.659   0.140  3.4534 -0.4613 -3.6281
  314SOL     OW  940   0.390   1.932   1.457  0.1141  0.1348  0.3499
  314SOL    HW1  941   0.409   1.990   1.538 -3.5037 -2.9615  1.9638
  314SOL    HW2  942   0.425   1.834   1.466 -3.0239 -1.8452 -0.1066
  315SOL     OW  943   1.207   1.677   1.436  0.4129 -0.3742  0.2660
  315SOL    HW1  944   1.242   1.636   1.523 -1.2414  1.3768 -1.7453
  315SOL    HW2  945   1.257   1.758   1.409 -2.2006  0.5353  1.2673
  316SOL     OW  946   0.210   2.282   0.505  0.4010  0.2932 -0.4235
  316SOL    HW1  947   0.146   2.208   0.470 -2.2026  1.8877 -0.9582
  316SOL    HW2  948   0.278   2.238   0.567 -3.1551 -1.3851  2.0868
  317SOL     OW  949   2.575   0.357   1.122 -0.0713 -0.2852 -0.4660
  317SOL    HW1  950   2.520   0.394   1.203  1.3513 -0.7601  2.4384
  317SOL    HW2  951   2.598   0.256   1.125  0.9017 -1.4962  0.4500
  318SOL     OW  952   1.345   2.960   0.246 -0.3370 -0.0210  0.0850
  318SOL    HW1  953   1.305   2.888   0.187  2.1492  1.0412  2.7925
  318SOL    HW2  954   1.411   3.024   0.196  1.9226  0.7359  0.3759
  319SOL     OW  955   1.644   0.045   2.706 -0.0058 -0.3331 -0.5578
  319SOL    HW1  956   1.659   0.141   2.682  1.9653  1.1499  0.2446
  319SOL    HW2  957   1.652   3.109   2.627  0.4036 -2.5883 -3.1443
  320SOL     OW  958   2.612   2.064   1.966 -0.0144 -0.3755 -0.3348
  320SOL    HW1  959   2.665   1.981   1.985 -1.4922 -0.0004 -0.8873
  320SOL    HW2  960   2.555   2.045   1.883 -0.3961  1.1414 -0.7483
  321SOL     OW  961   0.127   2.624   0.118  0.3268 -0.9053  0.4280
  321SOL    HW1  962   0.172   2.645   0.206  0.9951  0.2230 -1.4132
  321SOL    HW2  963   0.132   2.524   0.100  0.4998 -0.3534  1.8325
  322SOL     OW  964   2.655   0.878   1.829 -0.1736  0.1203 -0.2908
  322SOL    HW1  965   2.624   0.956   1.771  0.1021 -1.6326  0.5929
  322SOL    HW2  966   2.602   0.865   1.915  0.9193 -1.6433  1.5649
  323SOL     OW  967   1.878   1.247   0.305  0.4195  0.0865 -0.1997
  323SOL    HW1  968   1.793   1.236   0.246  0.3042 -3.1905  0.8931
  323SOL    HW2  969   1.871   1.207   0.399 -1.1230 -0.4548 -0.7325
  324SOL     OW  970   0.111   0.365   1.279  0.3623  0.2506 -0.5316
  324SOL    HW1  971   0.160   0.432   1.225 -2.1811  0.2550  4.0437
  324SOL    HW2  972   0.109   0.396   1.373 -1.5780  1.4945 -2.6802
  325SOL     OW  973   2.750   3.051   1.516  0.3065 -0.0832 -0.2114
  325SOL    HW1  974   2.830   3.064   1.460 -0.1228 -1.9509  0.1341
  325SOL    HW2  975   2.736   3.127   1.577  3.4151 -3.0736 -2.7719
  326SOL     OW  976   1.612   2.609   0.349 -0.0685  0.1120  0.2985
  326SOL    HW1  977   1.536   2.614   0.419 -1.7212  0.3901  0.5708
  326SOL    HW2  978   1.641   2.514   0.330  2.6916  3.4985  0.7741
  327SOL     OW  979   2.000   2.286   0.337  0.2651  0.3435  0.5637
  327SOL    HW1  980   1.911   2.250   0.373  0.3093  1.2766  2.2087
  327SOL    HW2  981   2.067   2.214   0.304  1.4443 -2.0647 -0.3000
  328SOL     OW  982   2.653   2.334   1.895 -0.1170 -0.6041 -0.1583
  328SOL    HW1  983   2.614   2.242   1.919  1.2226 -1.3084 -2.4893
  328SOL    HW2  984   2.654   2.397   1.974 -2.4087  0.5043 -1.5277
  329SOL     OW  985   0.250   2.337   1.148 -0.2486 -0.4288 -0.5884
  329SOL    HW1  986   0.194   2.395   1.211  1.1163 -0.7144  1.0735
  329SOL    HW2  987   0.273   2.251   1.188 -3.2696  0.0924 -1.8235
  330SOL     OW  988   2.278   0.811   2.521  0.2774  0.1704  0.6471
  330SOL    HW1  989   2.220   0.868   2.459  1.7149 -2.1871 -0.0828
  330SOL    HW2  990   2.373   0.851   2.514  0.9561  1.5185  0.6237
  331SOL     OW  991   2.222   1.427   0.674 -0.6222  0.6756  0.2247
  331SOL    HW1  992   2.208   1.451   0.570 -3.3539  0.8758 -3.0463
  331SOL    HW2  993   2.302   1.482   0.710 -0.7389 -0.8555 -0.8284
  332SOL     OW  994   0.103   3.001   1.265 -0.4384 -0.3714  0.2185
  332SOL    HW1  995   0.005   2.994   1.245 -1.0600 -1.1095  0.6067
  332SOL    HW2  996   0.138   3.095   1.290 -2.5106  0.5217  3.0742
  333SOL     OW  997   0.131   1.707   1.982  0.1778  0.1011  0.4064
  333SOL    HW1  998   0.171   1.800   1.981  0.2265 -1.8012 -1.7097
  333SOL    HW2  999   0.199   1.628   1.962  0.8496 -2.1721 -3.3827
  334SOL     OW 1000   0.359   0.872   1.210  0.2246  0.0054  0.5136
  334SOL    HW1 1001   0.259   0.894   1.191  0.4282  3.3999 -0.2162
  334SOL    HW2 1002   0.414   0.915   1.136 -3.1635 -0.5686 -2.5450
  335SOL     OW 1003   2.993   1.703   1.900 -0.3466 -0.3072 -0.1783
  335SOL    HW1 1004   3.094   1.703   1.872  3.1943 -2.0621 -0.1198
  335SOL    HW2 1005   2.976   1.608   1.941 -1.1668 -1.6469  1.3206
  336SOL     OW 1006   1.956   2.942   2.747  0.0722  0.4872  0.5020
  336SOL    HW1 1007   1.961   2.854   2.693 -1.7814 -2.0550 -2.6268
  336SOL    HW2 1008   2.014   2.933   2.831  0.9845  0.4156 -1.9412
  337SOL     OW 1009   0.736   0.595   1.231 -0.4206  0.4889  0.0307
  337SOL    HW1 1010   0.696   0.672   1.283 -0.4953  0.9518  1.6220
  337SOL    HW2 1011   0.689   0.583   1.138  0.8645  0.7515 -2.4363
  338SOL     OW 1012   1.545   2.343   1.025  0.3513  0.0303  0.0462
  338SOL    HW1 1013   1.608   2.393   1.091  3.5856 -0.1526 -1.0919
  338SOL    HW2 1014   1.473   2.300   1.078  2.6999 -0.4740 -0.5801
  339SOL     OW 1015   0.411   2.128   1.270  0.0260 -0.8501  0.1853
  339SOL    HW1 1016   0.391   2.209   1.330 -1.2704  0.8001  1.0294
  339SOL    HW2 1017   0.409   2.049   1.337  2.9379 -1.5563  1.7670
  340SOL     OW 1018   0.485   0.150   2.184 -0.1920 -0.0114 -0.4275
  340SOL    HW1 1019   0.455   0.236   2.142 -0.1857 -0.5330  1.7658
  340SOL    HW2 1020   0.414   0.087   2.214 -0.9182  0.3869  0.4385
  341SOL     OW 1021   1.947   1.532   0.671  0.2528  0.2004 -0.5324
  341SOL    HW1 1022   1.936   1.631   0.675  0.4536 -2.6435 -1.5725
  341SOL    HW2 1023   2.044   1.509   0.644  1.7535 -0.4545 -2.0422
  342SOL     OW 1024   1.737   1.425   0.520 -0.1773  0.1632  0.3227
  342SOL    HW1 1025   1.751   1.408   0.419 -0.3878  0.6156 -1.3681
  342SOL    HW2 1026   1.823   1.457   0.567  0.4000 -0.3751 -1.7372
  343SOL     OW 1027   2.093   0.023   0.956 -0.0816 -0.1442 -0.0065
  343SOL    HW1 1028   2.141   0.032   0.865  0.7159 -3.1695 -1.6088
  343SOL    HW2 1029   1.990   0.045   0.944 -2.1238  2.0548  0.4414
  344SOL     OW 1030   2.706   0.186   2.805  0.2691 -0.1384  0.4235
  344SOL    HW1 1031   2.786   0.160   2.860 -2.5417 -1.1952  0.7771
  344SOL    HW2 1032   2.655   0.101   2.777 -1.1361 -1.3408  2.3095
  345SOL     OW 1033   1.283   2.806   1.134  0.2158 -0.1918  0.9024
  345SOL    HW1 1034   1.315   2.897   1.162 -0.4408  2.0107 -0.2644
  345SOL    HW2 1035   1.340   2.731   1.174  0.4190 -1.3169 -0.1802
  346SOL     OW 1036   2.274   2.321   1.562  0.2916 -0.2078  0.2682
  346SOL    HW1 1037   2.196   2.267   1.600 -1.5957 -2.8702  2.9666
  346SOL    HW2 1038   2.293   2.314   1.464 -1.0244 -2.0326  0.7529
  347SOL     OW 1039   2.466   0.014   0.898  0.1309 -0.4373  0.6877
  347SOL    HW1 1040   2.438   0.106   0.868 -0.1941  0.7808  1.8003
  347SOL    HW2 1041   2.476   0.023   0.999 -0.1028  1.2802 -1.4166
  348SOL     OW 1042   0.798   0.957   1.334  0.5858  0.4028 -0.0952
  348SOL    HW1 1043   0.811   1.018   1.252  1.5543  1.5010  0.6731
  348SOL    HW2 1044   0.701   0.920   1.334  0.5249  0.0372 -4.6692
  349SOL     OW 1045   2.182   0.180   2.987  0.3471 -0.4800  0.3269
  349SOL    HW1 1046   2.179   0.278   2.972  0.4722 -1.1640  1.0481
  349SOL    HW2 1047   2.211   0.131   2.902 -1.0254  1.6134 -0.2141
  350SOL     OW 1048   2.536   1.954   0.106  0.1841  0.3220  0.6199
  350SOL    HW1 1049   2.592   1.869   0.089  1.0405  1.0863 -0.8557
  350SOL    HW2 1050   2.540   2.016   0.025 -1.4579 -0.8653 -3.6587
  351SOL     OW 1051   1.318   0.397   0.613  0.3539  0.3803 -0.4115
  351SOL    HW1 1052   1.291   0.300   0.646  0.3105 -2.0094  1.3017
  351SOL    HW2 1053   1.321   0.400   0.513  0.5597  2.8437  0.5228
  352SOL     OW 1054   2.004   2.243   2.543  0.5336  0.2451 -0.0236
  352SOL    HW1 1055   1.917   2.288   2.561  0.3282  1.3391  0.4866
  352SOL    HW2 1056   2.063   2.306   2.486 -1.1321  1.6309  3.8854
  353SOL     OW 1057   0.360   0.705   0.013 -0.7039 -0.0973 -0.6822
  353SOL    HW1 1058   0.336   0.620   3.099  0.4948  2.2725  0.0181
  353SOL    HW2 1059   0.388   0.771   3.071 -0.3781 -0.0815 -0.6706
  354SOL     OW 1060   1.218   2.049   3.119 -0.5475  0.0602 -0.2886
  354SOL    HW1 1061   1.115   2.048   3.127  0.6276  0.3676  1.6091
  354SOL    HW2 1062   1.252   2.067   0.081  0.7906 -2.0076 -1.8791
  355SOL     OW 1063   2.697   2.826   1.718  0.2125  0.0157  0.0006
  355SOL    HW1 1064   2.732   2.894   1.650 -0.1207 -1.5356 -0.9339
  355SOL    HW2 1065   2.599   2.821   1.725  1.4146 -2.9976  0.0634
  356SOL     OW 1066   2.773   0.982   0.533  0.3019 -0.1076 -0.4199
  356SOL    HW1 1067   2.831   0.902   0.515 -2.3031  2.6191  3.3646
  356SOL    HW2 1068   2.755   0.995   0.634 -3.5914  0.6047  3.1309
  357SOL     OW 1069   2.454   0.489   0.901 -0.2607  0.1001 -0.1391
  357SOL    HW1 1070   2.465   0.579   0.941  1.5043 -1.4061 -0.2787
  357SOL    HW2 1071   2.490   0.412   0.962 -0.8336 -0.5095 -1.4681
  358SOL     OW 1072   0.993   2.535   1.054  0.1418 -0.2341  0.0633
  358SOL    HW1 1073   0.906   2.524   1.004  1.5222 -0.0950  1.7093
  358SOL    HW2 1074   1.069   2.578   1.002  2.0209 -0.6800 -1.0865
  359SOL     OW 1075   0.092   2.476   2.742 -0.2863 -0.7141 -0.3093
  359SOL    HW1 1076   0.180   2.454   2.783 -0.9215 -1.4611  0.5552
  359SOL    HW2 1077   0.047   2.557   2.791  1.9961 -2.6086  1.1002
  360SOL     OW 1078   0.697   1.036   1.770 -0.1182 -0.6347  0.2637
  360SOL    HW1 1079   0.730   1.047   1.670  0.6431 -1.1192 -2.4522
  360SOL    HW2 1080   0.649   0.950   1.782 -1.9440  0.2247 -2.2432
  361SOL     OW 1081   2.660   2.996   0.406 -0.0731 -0.4043 -0.3646
  361SOL    HW1 1082   2.726   2.979   0.479  1.2387 -0.6556 -1.9173
  361SOL    HW2 1083   2.586   3.066   0.430 -1.8770  1.4909 -0.0158
  362SOL     OW 1084   0.220   0.064   0.916  0.0979  0.1015 -0.0066
  362SOL    HW1 1085   0.285   0.060   0.835  3.6032  0.0129  0.2418
  362SOL    HW2 1086   0.262   0.010   0.999 -0.2278 -2.1793  0.1049
  363SOL     OW 1087   0.772   1.161   0.521 -0.4636  0.1025  0.3440
  363SOL    HW1 1088   0.744   1.065   0.533 -0.4489  0.8196 -1.8799
  363SOL    HW2 1089   0.833   1.174   0.439  1.3686 -1.3684 -3.4438
  364SOL     OW 1090   0.810   1.414   1.658 -0.0974  0.2006  0.3366
  364SOL    HW1 1091   0.803   1.323   1.614 -0.9326  0.4594  1.7100
  364SOL    HW2 1092   0.722   1.447   1.701  1.6542  0.4618  1.9742
  365SOL     OW 1093   2.463   0.892   0.546 -0.7057  0.0908  0.1164
  365SOL    HW1 1094   2.557   0.926   0.544  1.8449 -0.9174  2.2798
  365SOL    HW2 1095   2.422   0.902   0.637 -1.1939 -1.3125 -4.1086
  366SOL     OW 1096   2.855   1.910   1.141 -0.1056 -0.0181  0.3236
  366SOL    HW1 1097   2.808   1.974   1.201  0.6075  3.4004  3.4865
  366SOL    HW2 1098   2.831   1.819   1.170  0.5321  0.3442 -0.0186
  367SOL     OW 1099   2.053   2.258   1.971 -0.0316 -0.3740 -0.2428
  367SOL    HW1 1100   1.987   2.197   2.020 -2.0211  1.1275 -1.2858
  367SOL    HW2 1101   2.141   2.258   2.015 -1.2052  2.7712  2.9768
  368SOL     OW 1102   2.744   1.326   1.015 -0.1794  0.1744  0.5007
  368SOL    HW1 1103   2.763   1.366   0.927 -0.3646  0.7378  3.0719
  368SOL    HW2 1104   2.823   1.327   1.078 -0.9097  0.3938 -0.4949
  369SOL     OW 1105   2.605   2.579   0.075  0.0650  0.0895 -0.0110
  369SOL    HW1 1106   2.582   2.636   0.157 -2.4824 -0.8308 -0.4006
  369SOL    HW2 1107   2.600   2.639   3.125 -0.1592 -2.7536  2.3368
  370SOL     OW 1108   0.051   0.018   1.588  0.1669  0.5567 -0.0066
  370SOL    HW1 1109   0.088   3.062   1.623  0.6300 -1.6353  0.9323
  370SOL    HW2 1110   0.079   0.039   1.490  1.1273  0.0771 -0.6039
  371SOL     OW 1111   0.580   1.742   2.700  0.5207  0.2581  0.0585
  371SOL    HW1 1112   0.586   1.823   2.764  0.1057 -0.0581  1.2170
  371SOL    HW2 1113   0.634   1.760   2.613 -1.1311 -0.1232  0.8048
  372SOL     OW 1114   0.953   1.090   0.346 -0.7122  0.1434 -0.3077
  372SOL    HW1 1115   0.914   1.001   0.374  1.4825  1.5970 -2.3158
  372SOL    HW2 1116   0.939   1.108   0.247  0.1626  0.6516  2.2988
  373SOL     OW 1117   1.537   2.536   2.999 -0.2478 -0.2481  0.2216
  373SOL    HW1 1118   1.521   2.588   3.085  1.1011  0.6817  1.0155
  373SOL    HW2 1119   1.491   2.580   2.920 -0.7114 -0.5902 -1.2272
  374SOL     OW 1120   0.287   1.981   0.288  0.4122 -0.4138  0.0487
  374SOL    HW1 1121   0.324   2.073   0.264  1.2066  0.4454 -1.3916
  374SOL    HW2 1122   0.225   1.955   0.216  1.4750  1.7072  0.0419
  375SOL     OW 1123   0.935   1.600   1.821  0.7304 -0.6133 -0.0690
  375SOL    HW1 1124   0.879   1.521   1.784 -2.6282 -0.5043 -3.0020
  375SOL    HW2 1125   0.946   1.670   1.746  0.3075 -1.4959 -3.5153
  376SOL     OW 1126   0.725   2.428   1.847 -0.0119  0.2573 -0.1102
  376SOL    HW1 1127   0.646   2.451   1.786  0.2446 -1.7044  0.5870
  376SOL    HW2 1128   0.710   2.346   1.902  0.7962  2.1258  1.7064
  377SOL     OW 1129   2.384   1.535   2.194  0.2169 -0.3646  0.5855
  377SOL    HW1 1130   2.357   1.631   2.183  1.8160 -1.2504  2.5559
  377SOL    HW2 1131   2.463   1.525   2.259 -0.3424  0.5538  0.1205
  378SOL     OW 1132   0.903   2.910   2.982 -0.4264 -0.4068  0.3459
  378SOL    HW1 1133   0.896   2.847   3.061  1.9713 -0.4866 -2.8763
  378SOL    HW2 1134   0.960   2.993   2.996 -2.6522 -0.5837 -2.9123
  379SOL     OW 1135   2.041   0.362   0.703 -0.2118 -0.6246 -0.5823
  379SOL    HW1 1136   2.003   0.299   0.631  1.7177  0.3433  0.3783
  379SOL    HW2 1137   1.995   0.356   0.795 -0.1476 -1.4813  1.0463
  380SOL     OW 1138   3.110   2.068   1.371  0.1725  0.1310  0.3131
  380SOL    HW1 1139   3.043   2.043   1.445  2.2257  0.4349  0.2520
  380SOL    HW2 1140   3.059   2.140   1.315  3.1335  0.9730  0.2389
  381SOL     OW 1141   1.847   2.006   1.833 -0.3251 -0.5451 -0.4027
  381SOL    HW1 1142   1.825   2.067   1.753 -0.8455 -2.7953  0.4403
  381SOL    HW2 1143   1.855   1.906   1.803  2.1000  0.1152  0.3268
  382SOL     OW 1144   3.006   0.274   2.888  0.0829 -0.1507  0.8960
  382SOL    HW1 1145   3.005   0.173   2.875  0.6661  0.0440 -0.3718
  382SOL    HW2 1146   2.956   0.315   2.805 -1.3516 -3.3475  1.0142
  383SOL     OW 1147   1.613   1.408   2.656 -0.3173  0.2572  0.0210
  383SOL    HW1 1148   1.547   1.333   2.626  0.3694 -2.1909  0.6303
  383SOL    HW2 1149   1.633   1.393   2.754  1.8403 -1.4605 -0.4492
  384SOL     OW 1150   1.128   2.278   1.047 -0.2353 -0.0986 -0.0112
  384SOL    HW1 1151   1.121   2.378   1.075 -0.3231 -0.5963  0.3792
  384SOL    HW2 1152   1.034   2.242   1.037  3.3062  1.0961 -0.0092
  385SOL     OW 1153   1.969   2.349   0.768 -0.0461 -0.3180  0.0360
  385SOL    HW1 1154   1.901   2.425   0.780  2.0622 -3.0330 -3.1910
  385SOL    HW2 1155   2.015   2.364   0.680  2.2906  1.4776  0.3397
  386SOL     OW 1156   2.038   1.965   1.017  0.1431  0.1906 -0.1523
  386SOL    HW1 1157   2.087   2.053   1.011 -1.2652  0.3661  4.0950
  386SOL    HW2 1158   2.028   1.946   1.116 -1.5317 -1.5340  0.7031
  387SOL     OW 1159   0.349   2.240   1.541  0.4074  0.7873 -0.4438
  387SOL    HW1 1160   0.247   2.253   1.547  0.0503  0.2609 -0.9876
  387SOL    HW2 1161   0.382   2.169   1.613 -0.8307 -2.0049  1.7023
  388SOL     OW 1162   3.047   0.571   1.785 -0.0457 -0.0032 -0.0962
  388SOL    HW1 1163   2.951   0.593   1.779  2.2280  1.2429  0.3305
  388SOL    HW2 1164   3.061   0.478   1.828  2.5139  1.9528  0.2408
  389SOL     OW 1165   1.803   1.137   0.607 -0.0177 -0.0598  0.0566
  389SOL    HW1 1166   1.808   1.189   0.689 -0.5441 -0.9051 -2.0187
  389SOL    HW2 1167   1.705   1.120   0.590  0.0898  1.6799 -1.6153
  390SOL     OW 1168   1.043   2.417   2.661  0.0160 -0.0796  0.7540
  390SOL    HW1 1169   0.952   2.383   2.633  0.9177  0.3390  0.5854
  390SOL    HW2 1170   1.119   2.373   2.606  0.2660 -1.7512  2.0965
  391SOL     OW 1171   0.861   2.030   2.875 -0.1246  0.3533  0.4067
  391SOL    HW1 1172   0.761   2.016   2.878  2.3437 -0.5193  0.8180
  391SOL    HW2 1173   0.877   2.120   2.827 -1.8276  0.6168 -1.2004
  392SOL     OW 1174   3.027   2.811   2.081  0.5984 -0.4065  0.6333
  392SOL    HW1 1175   2.935   2.775   2.058  0.5787  0.0668  0.4773
  392SOL    HW2 1176   3.030   2.914   2.075  1.9245 -3.3142  1.0520
  393SOL     OW 1177   1.909   2.455   0.159 -0.0495 -0.1815  0.3595
  393SOL    HW1 1178   1.812   2.434   0.142 -2.0281 -0.7812 -0.1416
  393SOL    HW2 1179   1.954   2.386   0.214 -3.0441  1.1739 -0.9260
  394SOL     OW 1180   0.558   0.613   2.476 -0.4066  0.4553  0.0601
  394SOL    HW1 1181   0.478   0.556   2.472  2.6189  2.0101  1.4628
  394SOL    HW2 1182   0.630   0.587   2.411 -0.3533  0.2819  4.0379
  395SOL     OW 1183   0.483   1.197   1.219 -0.0156  0.1816  0.1982
  395SOL    HW1 1184   0.507   1.098   1.188  3.9656 -0.4849 -0.0821
  395SOL    HW2 1185   0.568   1.238   1.264  2.6896  1.3672 -0.1175
  396SOL     OW 1186   1.546   1.579   2.127 -0.1045  0.0953  0.6448
  396SOL    HW1 1187   1.638   1.567   2.075  1.0769  3.7689 -0.4932
  396SOL    HW2 1188   1.553   1.533   2.216 -1.8430 -0.5993  0.4210
  397SOL     OW 1189   0.852   0.441   3.059 -0.2010 -0.0975 -0.0970
  397SOL    HW1 1190   0.783   0.517   3.066  0.0138  0.6232  0.7041
  397SOL    HW2 1191   0.814   0.356   3.010  1.4583 -0.7241  0.9621
  398SOL     OW 1192   0.319   1.936   2.525  0.5502 -0.5842  0.8779
  398SOL    HW1 1193   0.342   1.994   2.606 -2.5354  3.0682 -1.7098
  398SOL    HW2 1194   0.326   1.996   2.442  1.8405 -0.5103  3.0927
  399SOL     OW 1195   2.925   1.958   2.257  0.0159 -0.3559  0.1416
  399SOL    HW1 1196   2.934   1.960   2.361 -0.5668 -1.3399  0.9437
  399SOL    HW2 1197   3.015   1.931   2.222 -1.0671 -2.6455 -0.7191
  400SOL     OW 1198   2.372   0.779   1.637  0.1630 -0.7479  0.5016
  400SOL    HW1 1199   2.420   0.853   1.582  1.0834  1.4343  0.7605
  400SOL    HW2 1200   2.422   0.694   1.617 -2.2945  4.1364 -1.8694
  401SOL     OW 1201   1.101   1.525   0.544 -0.3049  0.1692  0.2735
  401SOL    HW1 1202   1.081   1.474   0.635 -1.0918  1.1148  2.5493
  401SOL    HW2 1203   1.170   1.478   0.486 -0.3697 -0.7476 -2.5187
  402SOL     OW 1204   3.117   2.627   2.261  0.2598 -0.1307  0.4724
  402SOL    HW1 1205   3.086   2.673   2.175  2.8446 -0.6206  1.2117
  402SOL    HW2 1206   0.087   2.599   2.264 -0.2442  0.9155 -1.2584
  403SOL     OW 1207   0.376   1.590   2.214  0.1668 -0.1288  0.1026
  403SOL    HW1 1208   0.308   1.634   2.274  1.8530 -0.9477  1.3242
  403SOL    HW2 1209   0.365   1.488   2.226 -0.6506  1.2470 -0.2931
  404SOL     OW 1210   1.795   2.150   1.587 -0.3775  0.1360 -0.2452
  404SOL    HW1 1211   1.737   2.233   1.589 -0.5934 -0.6342  0.1086
  404SOL    HW2 1212   1.789   2.106   1.497  0.6860  0.7208  2.9351
  405SOL     OW 1213   3.022   2.609   2.907 -0.8299 -0.6136 -0.5739
  405SOL    HW1 1214   3.027   2.591   3.008 -0.2927  0.7143  2.1045
  405SOL    HW2 1215   2.957   2.552   2.856 -1.1049  0.6881 -2.1823
  406SOL     OW 1216   0.683   1.298   0.029  0.5906 -0.7119 -0.2795
  406SOL    HW1 1217   0.773   1.257   0.048 -0.2593  1.0646 -0.7424
  406SOL    HW2 1218   0.664   1.310   3.059 -0.9053 -0.7054 -0.5253
  407SOL     OW 1219   2.067   2.578   2.940  0.2895 -0.2429 -0.6354
  407SOL    HW1 1220   2.106   2.509   2.878  2.4108  1.5271  0.3999
  407SOL    HW2 1221   2.140   2.627   2.995  1.1640  0.8077  0.8809
  408SOL     OW 1222   2.922   2.997   0.130 -0.6729 -0.2961 -0.0596
  408SOL    HW1 1223   2.891   2.909   0.167 -0.3412 -0.2272  1.3490
  408SOL    HW2 1224   3.022   3.021   0.142 -1.0291  0.9396  0.7977
  409SOL     OW 1225   2.156   1.510   0.934  0.3308  0.7633  0.2363
  409SOL    HW1 1226   2.182   1.605   0.917  1.7472 -2.0547  1.9314
  409SOL    HW2 1227   2.175   1.450   0.853  0.5885  3.1285 -1.9906
  410SOL     OW 1228   2.860   1.831   0.518  0.4246  0.4563  0.1779
  410SOL    HW1 1229   2.851   1.924   0.559  0.8153 -1.6827  2.7009
  410SOL    HW2 1230   2.895   1.764   0.590 -1.6270  0.3479 -0.6839
  411SOL     OW 1231   0.221   1.354   0.792 -0.2172 -0.1724  0.3280
  411SOL    HW1 1232   0.227   1.454   0.824  1.0430 -1.6336  0.7767
  411SOL    HW2 1233   0.300   1.301   0.832 -1.1717 -0.6253  0.4197
  412SOL     OW 1234   2.362   2.145   0.486  0.6204  0.1939 -0.2741
  412SOL    HW1 1235   2.353   2.237   0.441 -2.7154  0.9073  1.0575
  412SOL    HW2 1236   2.311   2.139   0.577 -1.8067  0.5086 -0.7714
  413SOL     OW 1237   1.928   0.868   2.207 -0.4012 -0.0236  0.8509
  413SOL    HW1 1238   1.858   0.791   2.202  0.1628 -1.3351 -0.4128
  413SOL    HW2 1239   1.957   0.887   2.110  2.7026  1.4365 -0.7769
  414SOL     OW 1240   2.855   0.099   0.399  0.1267  0.0980  0.3797
  414SOL    HW1 1241   2.857   0.022   0.329 -0.9344  1.8152 -1.7182
  414SOL    HW2 1242   2.835   0.064   0.496  0.6452  0.4564 -0.7275
  415SOL     OW 1243   0.870   2.193   1.084 -0.1476 -0.1299 -0.0985
  415SOL    HW1 1244   0.833   2.245   1.158  3.6262 -1.7972 -0.7216
  415SOL    HW2 1245   0.829   2.222   0.994 -0.5142  0.2197  1.0116
  416SOL     OW 1246   0.314   2.874   2.744 -0.0364 -0.3284 -0.6963
  416SOL    HW1 1247   0.279   2.939   2.672 -0.8114  0.7892 -0.5431
  416SOL    HW2 1248   0.352   2.788   2.705  1.4876 -1.3538  1.7863
  417SOL     OW 1249   2.812   0.712   1.258 -0.2673  0.0820 -0.3598
  417SOL    HW1 1250   2.910   0.708   1.221  1.5460  0.7566 -1.8326
  417SOL    HW2 1251   2.777   0.618   1.253 -0.8877  1.7058 -0.0702
  418SOL     OW 1252   3.058   0.354   0.034  0.1381  0.1859 -0.0722
  418SOL    HW1 1253   3.113   0.284   0.086  1.9774 -1.8556 -0.9028
  418SOL    HW2 1254   3.058   0.335   3.059 -0.5598  0.5457 -1.8595
  419SOL     OW 1255   0.305   1.538   1.615 -0.1438 -0.0098 -0.4048
  419SOL    HW1 1256   0.249   1.479   1.553 -0.3829 -0.4400 -0.4782
  419SOL    HW2 1257   0.377   1.587   1.560  0.1363  2.0399 -3.1147
  420SOL     OW 1258   0.633   1.594   0.454 -0.7762 -0.0369 -0.0284
  420SOL    HW1 1259   0.597   1.648   0.376 -0.0514  0.5213 -3.5084
  420SOL    HW2 1260   0.723   1.548   0.419  2.2867 -0.4855 -2.8059
  421SOL     OW 1261   2.221   2.408   2.451  0.0097 -0.9518 -0.5028
  421SOL    HW1 1262   2.275   2.331   2.417 -2.5302  0.6591 -1.0939
  421SOL    HW2 1263   2.289   2.470   2.495  1.3671 -1.1228  2.0409
  422SOL     OW 1264   0.114   0.412   2.840 -0.5630  0.3920  0.2477
  422SOL    HW1 1265   0.150   0.436   2.749  1.1679 -1.1537  0.0546
  422SOL    HW2 1266   0.031   0.354   2.836 -0.2310 -2.4189  0.5034
  423SOL     OW 1267   1.377   2.183   0.594 -0.0943  0.2848 -0.2124
  423SOL    HW1 1268   1.406   2.280   0.571  0.5626  1.4853  0.5466
  423SOL    HW2 1269   1.307   2.181   0.668  0.4400  1.7772 -0.5217
  424SOL     OW 1270   0.724   1.968   1.603 -0.3736  0.3651  0.2030
  424SOL    HW1 1271   0.767   2.062   1.611  0.1029 -1.1606  1.4716
  424SOL    HW2 1272   0.740   1.918   1.515 -0.8228 -3.7159 -1.9558
  425SOL     OW 1273   2.693   2.668   2.604 -0.9168  0.1989 -0.2788
  425SOL    HW1 1274   2.738   2.662   2.513 -0.4040  0.0072 -1.5899
  425SOL    HW2 1275   2.726   2.602   2.674  1.2274 -3.3252  0.6402
  426SOL     OW 1276   1.917   0.670   0.727 -0.2968  0.0444  0.6286
  426SOL    HW1 1277   1.946   0.620   0.809 -1.8398  0.7757 -1.6026
  426SOL    HW2 1278   1.849   0.615   0.671 -0.0501 -0.6428  1.1439
  427SOL     OW 1279   0.188   1.360   3.087  0.7497 -0.0983 -0.0932
  427SOL    HW1 1280   0.244   1.296   0.012 -0.3737  0.8940 -0.2794
  427SOL    HW2 1281   0.089   1.355   3.116 -1.4043 -1.2492 -3.1480
  428SOL     OW 1282   1.307   1.255   0.005 -0.5655 -0.1078  0.0153
  428SOL    HW1 1283   1.290   1.205   0.093 -4.3307  0.4773  0.3023
  428SOL    HW2 1284   1.278   1.200   3.053 -1.3458 -0.0083 -1.4089
  429SOL     OW 1285   2.832   2.582   0.667  0.0946  0.2460 -0.2871
  429SOL    HW1 1286   2.791   2.647   0.733 -2.6862 -0.9997  0.5844
  429SOL    HW2 1287   2.873   2.624   0.583 -1.0966 -0.4257 -0.6473
  430SOL     OW 1288   0.372   2.389   2.499  0.0395  0.3344  0.2134
  430SOL    HW1 1289   0.311   2.316   2.535 -0.8702 -0.0504  0.7055
  430SOL    HW2 1290   0.451   2.349   2.447  3.0056 -1.0581  0.2501
  431SOL     OW 1291   2.902   1.134   0.337  0.0163 -0.2318  0.0375
  431SOL    HW1 1292   2.906   1.070   0.414  2.3697  0.6856  0.7552
  431SOL    HW2 1293   2.809   1.149   0.302  0.8755  1.2443  4.2119
  432SOL     OW 1294   2.221   2.704   2.069  0.1827 -0.0348  0.1100
  432SOL    HW1 1295   2.316   2.685   2.029  0.5015  1.5861  0.7408
  432SOL    HW2 1296   2.206   2.625   2.130  0.5155 -1.3269  0.5687
  433SOL     OW 1297   1.489   2.527   0.810 -0.8925  0.1640 -0.4021
  433SOL    HW1 1298   1.505   2.474   0.895  0.8245 -2.0216  0.1377
  433SOL    HW2 1299   1.437   2.620   0.822 -0.6717  2.6060 -2.2388
  434SOL     OW 1300   1.042   1.971   2.318 -0.0064 -0.4565  0.0236
  434SOL    HW1 1301   0.948   1.993   2.286  0.6705 -0.3794 -0.2753
  434SOL    HW2 1302   1.040   1.913   2.402  2.1967  0.0872  1.0975
  435SOL     OW 1303   2.879   1.141   3.108 -0.0488 -0.6935  0.2898
  435SOL    HW1 1304   2.878   1.146   3.004 -0.8524  0.5988 -1.3333
  435SOL    HW2 1305   2.920   1.054   0.014 -1.0576 -0.5688  0.0651
  436SOL     OW 1306   0.274   2.782   2.197  0.3460  0.0583  0.9074
  436SOL    HW1 1307   0.292   2.831   2.108 -2.4042  0.4665 -0.8921
  436SOL    HW2 1308   0.359   2.753   2.246  2.4699  1.1740 -0.2703
  437SOL     OW 1309   1.850   2.974   1.573  0.2893 -0.3180 -0.6156
  437SOL    HW1 1310   1.924   2.956   1.639 -0.4888  2.0178  0.3200
  437SOL    HW2 1311   1.844   3.068   1.553  3.7857 -4.8937  0.4771
  438SOL     OW 1312   0.067   1.848   0.689 -0.6138 -0.1866 -0.5758
  438SOL    HW1 1313   0.013   1.933   0.683  0.7218  1.8913 -3.9280
  438SOL    HW2 1314   0.113   1.847   0.780  1.6606 -0.2152  2.8188
  439SOL     OW 1315   0.370   0.301   0.944 -0.6253 -0.7140 -0.0640
  439SOL    HW1 1316   0.468   0.266   0.954  0.4682  1.3389  1.9915
  439SOL    HW2 1317   0.303   0.227   0.924 -0.6115  0.5189  1.7085
  440SOL     OW 1318   2.977   2.833   2.505  0.2152 -0.3028 -0.2733
  440SOL    HW1 1319   2.938   2.775   2.579 -1.1351  1.9451  0.4179
  440SOL    HW2 1320   2.902   2.861   2.440  1.9678  0.7486 -1.2983
  441SOL     OW 1321   0.181   0.975   0.332  0.0247 -0.2309 -0.1469
  441SOL    HW1 1322   0.247   1.003   0.408  2.0198  2.4434  0.3597
  441SOL    HW2 1323   0.201   0.878   0.313 -2.1387  0.0316  0.2420
  442SOL     OW 1324   1.416   2.496   2.448  0.0256  0.2642 -0.3763
  442SOL    HW1 1325   1.490   2.564   2.434 -1.2061 -4.0510 -1.8959
  442SOL    HW2 1326   1.441   2.416   2.508 -1.3964  1.8634  0.2415
  443SOL     OW 1327   0.601   0.142   0.354  0.0809  0.1290 -0.3915
  443SOL    HW1 1328   0.689   0.092   0.342 -0.2111 -0.7042  0.6908
  443SOL    HW2 1329   0.587   0.220   0.286  0.0599  0.9254 -0.3839
  444SOL     OW 1330   1.515   1.713   2.694 -0.0420  0.0208 -0.1720
  444SOL    HW1 1331   1.477   1.766   2.620 -2.3113 -0.0994  0.4718
  444SOL    HW2 1332   1.591   1.653   2.663 -0.1205  2.6430 -3.0466
  445SOL     OW 1333   0.094   0.472   0.626 -0.6715  0.5292  0.5258
  445SOL    HW1 1334   0.018   0.411   0.652  2.8671  1.7583 -0.6557
  445SOL    HW2 1335   0.099   0.495   0.522 -1.1031  0.8919 -1.6720
  446SOL     OW 1336   1.819   0.900   0.849 -0.4994  0.6369  0.3714
  446SOL    HW1 1337   1.855   0.818   0.789  2.1430 -1.3191 -1.4952
  446SOL    HW2 1338   1.725   0.923   0.826  1.0529 -1.2642  0.9086
  447SOL     OW 1339   3.034   0.929   0.083 -0.2367 -0.3212 -0.7446
  447SOL    HW1 1340   3.016   0.832   0.055 -0.8202  0.8757 -0.3084
  447SOL    HW2 1341   3.088   0.941   0.170 -1.9989 -2.1576 -2.5637
  448SOL     OW 1342   1.789   2.033   1.345 -0.2899  0.0966 -0.1515
  448SOL    HW1 1343   1.723   2.011   1.275 -0.4412  1.1708  2.9729
  448SOL    HW2 1344   1.882   2.055   1.304  1.7929  3.1059  0.0168
  449SOL     OW 1345   0.953   1.473   0.112  0.6128  0.0996  0.0942
  449SOL    HW1 1346   0.933   1.454   0.014 -1.1091  1.3722  1.7195
  449SOL    HW2 1347   1.052   1.512   0.125  3.2114  2.3383 -0.0722
  450SOL     OW 1348   2.398   2.792   2.352  0.2045 -0.5475  0.4019
  450SOL    HW1 1349   2.304   2.828   2.354  1.7920 -0.8822  1.4964
  450SOL    HW2 1350   2.459   2.849   2.299 -0.8503  1.0480 -1.7024
  451SOL     OW 1351   2.247   0.852   2.785  0.6180  0.2873  0.1046
  451SOL    HW1 1352   2.158   0.899   2.803 -2.0682 -1.9074  1.7411
  451SOL    HW2 1353   2.256   0.833   2.684 -1.3649  1.2531  1.0519
  452SOL     OW 1354   1.609   1.105   1.063 -0.1847  0.2166 -0.1468
  452SOL    HW1 1355   1.520   1.089   1.114 -0.5355  0.6776  0.7426
  452SOL    HW2 1356   1.691   1.092   1.128  1.3457 -1.2495  2.4101
  453SOL     OW 1357   1.719   0.717   1.501  0.5282  0.5863 -0.1780
  453SOL    HW1 1358   1.676   0.661   1.575 -0.7633 -3.7109  3.3638
  453SOL    HW2 1359   1.689   0.813   1.497  1.8248 -1.2879 -0.3396
  454SOL     OW 1360   2.666   1.172   2.728  0.3735  0.1071  0.1999
  454SOL    HW1 1361   2.726   1.091   2.750  0.3027 -0.5737  3.6740
  454SOL    HW2 1362   2.571   1.144   2.755 -1.5408 -0.2354  0.5056
  455SOL     OW 1363   2.817   1.640   1.198 -0.2631 -0.0903  0.0680
  455SOL    HW1 1364   2.888   1.635   1.273  0.7804 -1.3179 -0.5285
  455SOL    HW2 1365   2.854   1.580   1.121  0.2094  0.4560  1.1434
  456SOL     OW 1366   1.400   2.850   1.502  0.1570  0.4596 -0.5801
  456SOL    HW1 1367   1.420   2.857   1.605  0.4902 -1.2480  0.5722
  456SOL    HW2 1368   1.416   2.929   1.440 -1.2108 -0.9732  1.7197
  457SOL     OW 1369   1.636   2.913   0.944  0.3681  0.1768 -0.4041
  457SOL    HW1 1370   1.685   2.829   0.980  0.8533  0.1919 -0.6920
  457SOL    HW2 1371   1.644   2.991   1.005 -1.0283 -0.1189 -0.1730
  458SOL     OW 1372   3.013   2.802   0.915 -0.0218  0.6113 -0.6513
  458SOL    HW1 1373   2.914   2.781   0.901  2.7080  1.4676 -0.5085
  458SOL    HW2 1374   3.026   2.903   0.930 -0.7222 -2.1890 -3.1831
  459SOL     OW 1375   1.578   0.814   0.225 -0.1054 -0.2277  0.4021
  459SOL    HW1 1376   1.550   0.793   0.131 -0.4722  0.8943  2.9313
  459SOL    HW2 1377   1.658   0.757   0.254  0.8782  1.5572  2.5867
  460SOL     OW 1378   0.423   2.642   2.618  0.2823  0.3810 -0.4991
  460SOL    HW1 1379   0.394   2.557   2.573 -2.2832 -1.1695  2.7123
  460SOL    HW2 1380   0.526   2.649   2.621  0.4455  0.0795 -0.1112
  461SOL     OW 1381   0.285   1.526   0.286 -0.3113  0.3215  0.3778
  461SOL    HW1 1382   0.313   1.427   0.290  1.3861  2.0050 -1.9037
  461SOL    HW2 1383   0.354   1.582   0.237 -0.0421  0.3697 -0.3718
  462SOL     OW 1384   1.781   2.179   0.425 -0.1067 -0.4424  0.6473
  462SOL    HW1 1385   1.780   2.166   0.527  1.0783 -0.5837  1.6153
  462SOL    HW2 1386   1.731   2.111   0.367 -0.6341  0.3781 -0.6529
  463SOL     OW 1387   2.542   0.325   0.492  0.0425 -0.1294  0.0687
  463SOL    HW1 1388   2.476   0.401   0.502 -2.9283  0.9579 -3.5747
  463SOL    HW2 1389   2.615   0.346   0.421  0.2119  0.3399  0.2643
  464SOL     OW 1390   0.912   2.136   0.400 -0.4088  0.5673 -0.0913
  464SOL    HW1 1391   0.936   2.202   0.327 -1.2823  0.6343 -0.3253
  464SOL    HW2 1392   0.862   2.060   0.362  3.7392  3.3091  0.2982
  465SOL     OW 1393   2.192   0.510   1.222 -0.2957 -0.1202  0.4257
  465SOL    HW1 1394   2.167   0.421   1.176  1.1594 -1.1389  1.2524
  465SOL    HW2 1395   2.163   0.593   1.168 -1.0003  0.7098 -3.2826
  466SOL     OW 1396   2.196   0.057   0.699  0.4209 -0.7148  0.3295
  466SOL    HW1 1397   2.265   0.021   0.635 -0.1512  1.4551 -1.6596
  466SOL    HW2 1398   2.231   0.145   0.732 -1.5247 -1.8601  1.5251
  467SOL     OW 1399   1.013   0.632   2.300  0.3764 -0.4214  0.5625
  467SOL    HW1 1400   0.979   0.720   2.325 -1.1177 -3.4726 -2.4377
  467SOL    HW2 1401   1.091   0.639   2.234  3.4352 -0.6472 -0.4745
  468SOL     OW 1402   2.499   0.367   2.064  0.9690 -0.0598  0.2893
  468SOL    HW1 1403   2.432   0.418   2.006 -1.2919  0.6320  1.7720
  468SOL    HW2 1404   2.542   0.439   2.132  2.6287  1.1425  1.4656
  469SOL     OW 1405   1.018   2.782   1.765  0.2062  0.0350 -0.4084
  469SOL    HW1 1406   1.073   2.776   1.682 -3.9774  1.0055  1.9328
  469SOL    HW2 1407   0.958   2.863   1.764  0.3525 -0.9830  2.7234
  470SOL     OW 1408   2.316   1.169   1.831  0.1935 -0.0688 -0.0764
  470SOL    HW1 1409   2.299   1.073   1.855 -0.2600 -1.0238 -1.9418
  470SOL    HW2 1410   2.266   1.243   1.886 -0.3613  1.4595 -0.6979
  471SOL     OW 1411   2.971   1.621   3.106  0.1132 -0.3972 -0.4848
  471SOL    HW1 1412   3.057   1.671   3.083 -0.8963 -2.1080 -0.6918
  471SOL    HW2 1413   2.984   1.530   0.019  0.9220 -0.3995  0.3873
  472SOL     OW 1414   0.381   2.132   0.639  0.1158  0.3760 -0.3924
  472SOL    HW1 1415   0.384   2.037   0.606  1.0900  1.4592 -3.2533
  472SOL    HW2 1416   0.467   2.177   0.611  0.8594 -0.4582  0.2973
  473SOL     OW 1417   1.164   2.456   2.066 -0.8873 -0.0745 -0.1676
  473SOL    HW1 1418   1.077   2.479   2.010 -0.5984  0.7535 -2.7764
  473SOL    HW2 1419   1.155   2.367   2.119 -0.0473 -1.1064  0.3089
  474SOL     OW 1420   0.962   2.898   2.496 -0.5567 -0.2780 -0.6610
  474SOL    HW1 1421   0.954   2.813   2.441 -1.7339  3.5926  0.0998
  474SOL    HW2 1422   0.996   2.865   2.585 -3.3140  0.5832 -0.3439
  475SOL     OW 1423   0.921   2.259   0.157  0.3103 -0.8132 -0.2375
  475SOL    HW1 1424   1.009   2.315   0.158 -0.4078 -0.0217 -0.8322
  475SOL    HW2 1425   0.936   2.180   0.099 -0.2079  0.2509 -0.7952
  476SOL     OW 1426   1.022   0.657   1.108  0.5638 -0.3171  0.4380
  476SOL    HW1 1427   1.007   0.581   1.042  2.1214  0.8881  0.6528
  476SOL    HW2 1428   0.936   0.667   1.161  1.4572 -2.0332  0.3435
  477SOL     OW 1429   2.029   2.094   1.259  0.1679 -0.1771 -0.0263
  477SOL    HW1 1430   2.105   2.085   1.326  0.8732 -0.4774 -1.1273
  477SOL    HW2 1431   2.023   2.196   1.235 -0.6285 -0.0123 -0.8332
  478SOL     OW 1432   0.028   0.732   2.966  0.0824 -0.0860 -0.4325
  478SOL    HW1 1433   0.068   0.669   2.895 -0.4832  1.2588  1.0660
  478SOL    HW2 1434   0.039   0.694   3.056 -1.9835  0.6291 -3.4185
  479SOL     OW 1435   0.896   0.050   1.285 -0.4174  0.0544 -0.1627
  479SOL    HW1 1436   0.980   0.112   1.268  0.7617  1.9560 -1.2666
  479SOL    HW2 1437   0.922   3.099   1.341 -1.4854  0.6971  0.2398
  480SOL     OW 1438   2.571   2.413   0.419 -0.2698 -0.2760  0.4469
  480SOL    HW1 1439   2.630   2.363   0.349  0.4182 -1.9879 -1.6035
  480SOL    HW2 1440   2.592   2.383   0.516 -0.6906 -2.3949  3.5243
  481SOL     OW 1441   0.022   0.682   1.385  0.2968  0.3538 -0.1587
  481SOL    HW1 1442   3.078   0.750   1.417 -0.0429 -4.0541 -0.5568
  481SOL    HW2 1443   0.029   0.605   1.447 -0.4504  1.8019  2.6289
  482SOL     OW 1444   0.997   3.058   0.973 -0.3365 -0.0203  0.4456
  482SOL    HW1 1445   1.053   0.009   1.000 -1.6136  1.4275 -0.1086
  482SOL    HW2 1446   0.987   2.997   1.055  0.8792 -0.1596  0.7927
  483SOL     OW 1447   0.092   1.547   2.612 -0.0105 -0.9306  0.4178
  483SOL    HW1 1448   0.107   1.492   2.698  1.8781 -2.4709 -1.8168
  483SOL    HW2 1449   0.015   1.615   2.621 -1.2567  0.1562 -0.4782
  484SOL     OW 1450   1.617   1.826   2.250 -0.7380  0.0938  0.2336
  484SOL    HW1 1451   1.565   1.909   2.222 -0.5019  2.2561 -0.7537
  484SOL    HW2 1452   1.581   1.743   2.201  1.6938 -1.9765  1.3050
  485SOL     OW 1453   0.271   3.041   2.539 -0.5307  0.0852  0.4295
  485SOL    HW1 1454   0.241   0.001   2.576 -1.0271 -2.3498 -0.4853
  485SOL    HW2 1455   0.203   2.999   2.475  1.2523  1.2969  1.7741
  486SOL     OW 1456   1.361   3.018   0.658  0.0924 -0.3943 -0.0830
  486SOL    HW1 1457   1.462   3.002   0.670  1.2365 -1.3538 -2.9926
  486SOL    HW2 1458   1.325   2.932   0.615  0.5814  0.6939  1.4325
  487SOL     OW 1459   1.533   0.166   0.820 -0.0672  0.2842 -0.1372
  487SOL    HW1 1460   1.588   0.080   0.813  0.2958  0.4053  1.2233
  487SOL    HW2 1461   1.527   0.194   0.923  1.3002  0.7848  5.1978
  488SOL     OW 1462   2.235   0.977   0.957  1.0004 -0.0104  0.1392
  488SOL    HW1 1463   2.323   0.993   0.910  1.2557 -1.0244 -1.5000
  488SOL    HW2 1464   2.166   1.043   0.918  2.6186  0.3552  1.6887
  489SOL     OW 1465   1.182   0.056   1.457 -0.0038  0.1807 -0.3349
  489SOL    HW1 1466   1.273   0.013   1.432 -2.3502  2.3081 -2.6764
  489SOL    HW2 1467   1.166   0.130   1.387  1.7963  2.7411 -0.0516
  490SOL     OW 1468   0.630   0.672   0.054 -0.4950 -0.3578 -0.0486
  490SOL    HW1 1469   0.619   0.637   0.148 -2.0242 -0.1045  0.7096
  490SOL    HW2 1470   0.538   0.674   0.009  1.4800  0.5968  1.8487
  491SOL     OW 1471   0.934   2.932   0.485 -0.1534  0.0045 -0.1150
  491SOL    HW1 1472   0.991   2.930   0.572  1.8318 -0.0962  2.3846
  491SOL    HW2 1473   0.987   2.881   0.411  0.0006 -3.2368  1.3855
  492SOL     OW 1474   1.324   1.572   1.675  0.6182  0.0367 -0.5530
  492SOL    HW1 1475   1.310   1.656   1.728 -0.4659 -0.9959 -1.2056
  492SOL    HW2 1476   1.233   1.521   1.682 -0.5891 -0.8237  1.9108
  493SOL     OW 1477   0.508   1.804   0.263 -0.7856 -0.2112  0.4483
  493SOL    HW1 1478   0.419   1.849   0.278  0.8335 -0.2892 -0.1253
  493SOL    HW2 1479   0.505   1.750   0.179  0.8150 -0.3876 -0.3878
  494SOL     OW 1480   1.995   1.831   0.646  0.3608  0.7189  0.6059
  494SOL    HW1 1481   2.096   1.821   0.623  2.5155 -1.4014 -0.5495
  494SOL    HW2 1482   1.934   1.812   0.563 -1.1175 -0.8235  2.2896
  495SOL     OW 1483   0.088   1.361   2.401  1.0428 -0.2929 -0.5903
  495SOL    HW1 1484   0.073   1.446   2.458  0.2960  3.9984  1.4556
  495SOL    HW2 1485   0.008   1.297   2.413  0.5304 -0.7027 -0.2137
  496SOL     OW 1486   0.519   3.077   2.494 -0.2072  0.6939 -0.0581
  496SOL    HW1 1487   0.417   3.064   2.514 -0.3083 -1.7217  0.9360
  496SOL    HW2 1488   0.529   3.048   2.396 -2.8570  0.1979  1.5987
  497SOL     OW 1489   1.500   1.125   0.582 -0.1341 -0.1272  0.1016
  497SOL    HW1 1490   1.506   1.087   0.486  0.9011 -0.6185 -2.7410
  497SOL    HW2 1491   1.490   1.229   0.588 -0.9086  0.6433 -0.1797
  498SOL     OW 1492   2.849   2.750   0.256 -0.1146 -0.0771 -0.1125
  498SOL    HW1 1493   2.849   2.694   0.171  1.1878 -2.4978 -1.7012
  498SOL    HW2 1494   2.764   2.730   0.316 -3.8048 -1.4631 -1.0818
  499SOL     OW 1495   2.105   2.434   0.550  0.1239  0.3626  0.5785
  499SOL    HW1 1496   2.052   2.399   0.471  0.0255 -0.5392  3.3270
  499SOL    HW2 1497   2.191   2.458   0.504 -1.2883 -1.1296 -2.0520
  500SOL     OW 1498   0.429   0.622   2.758 -0.0114 -0.4369 -0.3114
  500SOL    HW1 1499   0.415   0.713   2.800  1.1982 -2.6340  1.0635
  500SOL    HW2 1500   0.525   0.602   2.738  0.1089 -0.0559  0.7923
  501SOL     OW 1501   1.474   2.883   1.777 -0.0584 -0.4337 -0.3724
  501SOL    HW1 1502   1.561   2.838   1.803 -2.0097 -1.3334  1.4540
  501SOL    HW2 1503   1.435   2.932   1.855  1.3720 -0.0832 -0.6412
  502SOL     OW 1504   0.031   0.201   2.543  0.4632  0.7416  0.0121
  502SOL    HW1 1505   3.094   0.123   2.557 -0.3171  3.1027 -0.1070
  502SOL    HW2 1506   0.111   0.208   2.610  0.5831  0.1226 -1.5931
  503SOL     OW 1507   1.839   2.465   2.096 -0.6754  0.4397 -0.1974
  503SOL    HW1 1508   1.809   2.423   2.010 -1.1773  1.0221  0.7835
  503SOL    HW2 1509   1.882   2.558   2.081 -0.6640  0.4955 -0.5280
  504SOL     OW 1510   1.808   0.103   1.539 -0.5666 -0.0170 -0.3056
  504SOL    HW1 1511   1.715   0.142   1.544 -0.2238 -0.3418 -0.0828
  504SOL    HW2 1512   1.880   0.169   1.511 -0.3700 -0.2403 -1.4425
  505SOL     OW 1513   2.589   1.689   1.623  0.0842 -0.3212 -0.1383
  505SOL    HW1 1514   2.690   1.694   1.610  0.0294 -1.6952  2.1509
  505SOL    HW2 1515   2.534   1.739   1.550 -1.2185  3.2511 -2.6779
  506SOL     OW 1516   0.244   1.454   1.870 -0.5832 -0.6335 -0.1274
  506SOL    HW1 1517   0.145   1.425   1.888  0.6039  1.9994 -1.3662
  506SOL    HW2 1518   0.265   1.458   1.768 -1.6928  1.0951 -0.3264
  507SOL     OW 1519   0.433   2.910   1.549 -0.0396  0.0973  0.3425
  507SOL    HW1 1520   0.519   2.955   1.597  3.7822 -1.0998  1.7629
  507SOL    HW2 1521   0.465   2.824   1.501 -1.8298 -2.6754 -1.4315
  508SOL     OW 1522   0.970   0.883   1.535 -0.1533 -0.5191  0.9067
  508SOL    HW1 1523   0.894   0.841   1.591 -0.0143 -0.4443 -1.7438
  508SOL    HW2 1524   0.935   0.901   1.443 -0.7699  0.2295 -0.7210
  509SOL     OW 1525   1.540   2.547   1.791 -0.1479  0.3383  0.2525
  509SOL    HW1 1526   1.605   2.622   1.811 -0.3445 -2.3316 -1.5581
  509SOL    HW2 1527   1.444   2.578   1.790 -2.0304 -0.2745  0.7375
  510SOL     OW 1528   2.423   1.082   2.776 -0.1495  0.0375  0.2729
  510SOL    HW1 1529   2.378   0.990   2.770 -2.6540  0.6608 -0.9282
  510SOL    HW2 1530   2.376   1.133   2.852 -0.0987  0.1867 -0.1788
  511SOL     OW 1531   0.720   1.314   1.315 -0.4540  0.2608  0.1202
  511SOL    HW1 1532   0.791   1.312   1.237  1.9590 -1.0361 -2.2413
  511SOL    HW2 1533   0.753   1.272   1.403  1.2107 -0.5350  3.0607
  512SOL     OW 1534   2.653   1.603   0.531 -0.1433 -0.4208  0.4827
  512SOL    HW1 1535   2.734   1.667   0.538  0.9236 -0.0235 -0.7249
  512SOL    HW2 1536   2.618   1.599   0.433 -3.0721  0.5911  4.3146
  513SOL     OW 1537   0.731   1.794   2.472  0.2026  0.4335  0.1020
  513SOL    HW1 1538   0.827   1.773   2.496  4.0153 -0.7176 -2.1998
  513SOL    HW2 1539   0.698   1.726   2.403 -1.3612 -0.6825 -3.1892
  514SOL     OW 1540   0.081   2.245   1.562 -0.0929  0.7227 -0.2284
  514SOL    HW1 1541   0.087   2.180   1.484  0.2323 -0.9148  1.4798
  514SOL    HW2 1542   0.025   2.196   1.634  0.5448  0.3963  1.7902
  515SOL     OW 1543   2.144   1.163   1.618 -0.5802  0.4771  0.0898
  515SOL    HW1 1544   2.230   1.181   1.670  0.2523 -2.0583 -0.7052
  515SOL    HW2 1545   2.086   1.247   1.607  0.0634 -0.0819  0.7988
  516SOL     OW 1546   2.575   2.923   0.152  0.5375  0.0789 -0.2373
  516SOL    HW1 1547   2.527   3.009   0.116 -1.5506  0.5828 -2.0073
  516SOL    HW2 1548   2.643   2.941   0.229 -0.7855 -0.6292 -0.0040
  517SOL     OW 1549   1.094   1.653   3.018 -0.3975 -0.6729  0.5547
  517SOL    HW1 1550   1.170   1.625   2.959  0.2380 -1.2093 -0.1635
  517SOL    HW2 1551   1.117   1.640   3.115 -2.1280 -0.2144  1.2157
  518SOL     OW 1552   1.401   3.091   1.322  0.1445  0.3544  0.2966
  518SOL    HW1 1553   1.489   0.009   1.348 -0.3329 -0.3949  2.8574
  518SOL    HW2 1554   1.379   3.098   1.221 -0.3928  0.8057  1.2121
  519SOL     OW 1555   2.277   2.757   0.950 -0.1481  0.3478 -0.0199
  519SOL    HW1 1556   2.261   2.848   0.995  2.6337  2.5497 -1.2453
  519SOL    HW2 1557   2.361   2.756   0.891  1.6277 -0.6119  1.1048
  520SOL     OW 1558   3.003   2.452   2.071 -0.3626  0.2528 -0.5495
  520SOL    HW1 1559   2.906   2.474   2.083 -1.0348  0.7907  0.1471
  520SOL    HW2 1560   3.056   2.489   2.151 -0.0777 -0.7821  1.2218
  521SOL     OW 1561   2.846   0.976   2.764  0.5750  0.5330  0.4230
  521SOL    HW1 1562   2.880   0.930   2.848  0.3223 -1.5590  0.1097
  521SOL    HW2 1563   2.885   0.946   2.677 -2.3308 -0.5008  1.1963
  522SOL     OW 1564   0.935   0.680   2.727 -0.0520  0.4872  0.1509
  522SOL    HW1 1565   0.987   0.592   2.737 -1.7673  0.7130  1.1594
  522SOL    HW2 1566   0.838   0.649   2.711  2.2344  0.5506 -2.1695
  523SOL     OW 1567   0.049   2.313   0.736 -0.4877 -0.0791 -0.2907
  523SOL    HW1 1568   0.118   2.351   0.803  1.7935  0.5122 -1.1782
  523SOL    HW2 1569   0.090   2.285   0.646 -1.7461  1.4765 -2.3434
  524SOL     OW 1570   1.968   2.679   0.039 -0.1336 -0.1440 -0.2118
  524SOL    HW1 1571   1.932   2.604   0.096  0.8016  2.0184 -1.1821
  524SOL    HW2 1572   2.007   2.634   3.085  1.7006 -1.2935  0.4765
  525SOL     OW 1573   2.456   0.491   1.321 -0.2396  0.2651 -0.0526
  525SOL    HW1 1574   2.477   0.590   1.305  0.1709  0.9741  1.7961
  525SOL    HW2 1575   2.360   0.482   1.293 -1.7444 -0.0279 -1.2971
  526SOL     OW 1576   1.129   2.602   0.475 -0.1695  0.1550  0.1591
  526SOL    HW1 1577   1.092   2.535   0.543  0.4917 -0.7738 -1.1094
  526SOL    HW2 1578   1.056   2.654   0.426  1.8325 -0.8976  1.9410
  527SOL     OW 1579   2.404   2.806   0.509 -0.1681  0.1370 -0.1704
  527SOL    HW1 1580   2.332   2.748   0.554  0.8247  0.0008 -1.7386
  527SOL    HW2 1581   2.351   2.882   0.466 -1.9054  0.1427  2.6473
  528SOL     OW 1582   1.846   0.712   3.048 -0.8644  0.5749 -0.4750
  528SOL    HW1 1583   1.751   0.712   3.011  0.5608 -0.8187 -1.1908
  528SOL    HW2 1584   1.857   0.637   3.115  0.2880  0.4516 -1.7690
  529SOL     OW 1585   1.677   1.484   2.379  0.2684  0.8595  0.0977
  529SOL    HW1 1586   1.662   1.480   2.478  2.5379  0.7437  0.1274
  529SOL    HW2 1587   1.768   1.448   2.355  0.1501  0.6048 -1.0483
  530SOL     OW 1588   2.521   2.697   2.923 -0.1971  0.5883 -0.7840
  530SOL    HW1 1589   2.450   2.752   2.876  0.5284 -1.7515 -2.6664
  530SOL    HW2 1590   2.609   2.719   2.876 -0.8678  1.8999  0.1156
  531SOL     OW 1591   1.713   1.096   3.039 -0.1077 -0.2903  0.2979
  531SOL    HW1 1592   1.785   1.037   3.078 -0.0813 -0.6351 -0.9290
  531SOL    HW2 1593   1.668   1.040   2.967  1.5920 -1.9270 -0.3020
  532SOL     OW 1594   1.745   0.399   0.864  0.4451 -0.0389  0.6844
  532SOL    HW1 1595   1.654   0.427   0.821  0.1516  1.1042 -0.9483
  532SOL    HW2 1596   1.765   0.456   0.944 -0.7355 -3.4329 -0.6501
  533SOL     OW 1597   0.594   1.060   2.855  0.0747  0.3339 -0.4805
  533SOL    HW1 1598   0.561   1.153   2.852 -3.3398  0.7495  0.9530
  533SOL    HW2 1599   0.686   1.045   2.818  0.1158 -1.6534  0.5131
  534SOL     OW 1600   1.539   0.291   0.186  0.2499 -0.2377 -0.4666
  534SOL    HW1 1601   1.567   0.245   0.272 -1.1244  0.7158 -1.1190
  534SOL    HW2 1602   1.523   0.222   0.114 -0.7681 -0.6249  1.9676
  535SOL     OW 1603   0.652   2.381   3.108  0.0527  0.1114 -0.6412
  535SOL    HW1 1604   0.556   2.409   3.119 -4.6081 -0.7908  2.0491
  535SOL    HW2 1605   0.666   2.297   0.034 -1.0650 -2.1482  1.0418
  536SOL     OW 1606   0.480   3.021   0.316  0.1830  0.3662  0.4324
  536SOL    HW1 1607   0.520   3.112   0.292 -1.8884 -0.6292  0.3378
  536SOL    HW2 1608   0.545   2.979   0.381  3.1116  2.2914 -1.6132
  537SOL     OW 1609   1.920   0.266   0.470  0.0865  0.4785 -0.2109
  537SOL    HW1 1610   1.953   0.168   0.456 -1.2306 -1.6413 -2.4111
  537SOL    HW2 1611   1.823   0.264   0.503  0.3228  1.9623 -3.2012
  538SOL     OW 1612   2.528   1.998   2.928  0.3452 -0.2602  0.4100
  538SOL    HW1 1613   2.515   2.100   2.910 -0.2977 -0.4247 -0.2458
  538SOL    HW2 1614   2.575   1.945   2.849  1.7782 -3.9565 -1.9402
  539SOL     OW 1615   2.587   1.516   3.083 -0.2719  0.2014  0.1946
  539SOL    HW1 1616   2.493   1.521   3.127 -1.0551 -0.6748 -0.3603
  539SOL    HW2 1617   2.643   1.452   0.006  0.0210  2.8562 -1.2674
  540SOL     OW 1618   0.879   3.027   1.749 -0.3928 -0.2414 -0.4614
  540SOL    HW1 1619   0.919   3.019   1.844 -0.5156  1.0446 -0.5584
  540SOL    HW2 1620   0.926   3.093   1.692  0.6451  0.1134 -0.2894
  541SOL     OW 1621   2.349   0.022   2.321  0.2152 -0.4912 -0.1826
  541SOL    HW1 1622   2.269   0.085   2.334 -1.5598  1.2838  2.0413
  541SOL    HW2 1623   2.317   3.082   2.252 -0.5858  1.0532 -0.6344
  542SOL     OW 1624   0.201   0.969   2.965  0.2240  0.1333 -0.0646
  542SOL    HW1 1625   0.123   0.907   2.939 -0.1077  0.5884  1.6619
  542SOL    HW2 1626   0.179   1.012   3.052  0.1148 -0.0484 -0.2487
  543SOL     OW 1627   0.437   0.755   0.807 -0.3429 -0.3652 -0.2383
  543SOL    HW1 1628   0.375   0.834   0.808 -0.6625 -1.1696  0.3037
  543SOL    HW2 1629   0.391   0.669   0.768 -1.5840 -3.7360  1.1245
  544SOL     OW 1630   2.543   0.766   1.303  0.6134 -0.6669 -0.6674
  544SOL    HW1 1631   2.637   0.774   1.271  2.4414 -1.5493 -0.1578
  544SOL    HW2 1632   2.512   0.844   1.365 -3.6609 -1.6157 -0.6477
  545SOL     OW 1633   1.418   1.737   0.416 -0.6778 -0.9701 -0.3967
  545SOL    HW1 1634   1.460   1.808   0.474  0.2158 -0.9495 -2.2790
  545SOL    HW2 1635   1.453   1.739   0.320  0.5156  1.2941 -0.4906
  546SOL     OW 1636   2.340   2.562   1.612 -0.3382  0.0571 -0.3704
  546SOL    HW1 1637   2.328   2.459   1.589  1.6896 -2.2427 -0.2727
  546SOL    HW2 1638   2.311   2.616   1.528 -1.4625 -0.5704  0.7198
  547SOL     OW 1639   0.821   2.322   2.280  0.2640  1.0218  0.4257
  547SOL    HW1 1640   0.911   2.294   2.237 -0.1218 -2.8567 -0.8140
  547SOL    HW2 1641   0.832   2.371   2.367  0.0638 -1.3885  1.1564
  548SOL     OW 1642   1.341   0.547   2.794  0.3340 -0.5215 -0.3590
  548SOL    HW1 1643   1.334   0.553   2.896  1.5865 -2.1227  2.1368
  548SOL    HW2 1644   1.431   0.509   2.771  1.9716  1.3084 -3.3951
  549SOL     OW 1645   2.677   0.616   0.232 -0.4202  0.2556  0.2131
  549SOL    HW1 1646   2.651   0.520   0.252  0.9234 -2.8510 -0.2042
  549SOL    HW2 1647   2.601   0.680   0.253 -0.2767 -0.5309  1.6021
  550SOL     OW 1648   2.236   1.032   0.371 -0.2697  0.0033 -0.0861
  550SOL    HW1 1649   2.290   1.116   0.397  0.0380 -0.4963  2.2027
  550SOL    HW2 1650   2.167   1.002   0.443 -2.0573 -0.2320 -0.8480
  551SOL     OW 1651   1.503   0.447   1.210  0.1140  0.4425 -0.2275
  551SOL    HW1 1652   1.492   0.507   1.126 -2.0756 -0.4567  0.8004
  551SOL    HW2 1653   1.573   0.493   1.268  0.9104 -0.0983  1.2454
  552SOL     OW 1654   1.992   3.125   2.523  0.4824  0.1016  0.2209
  552SOL    HW1 1655   1.950   0.087   2.537 -0.1405  1.6739 -0.7574
  552SOL    HW2 1656   1.996   3.074   2.610 -0.2419 -0.8808 -0.4502
  553SOL     OW 1657   0.594   2.988   2.236  0.5464  0.0382 -0.3278
  553SOL    HW1 1658   0.577   2.897   2.276 -1.1869  3.3176 -0.0621
  553SOL    HW2 1659   0.550   3.003   2.147 -0.9853  0.3475 -1.4787
  554SOL     OW 1660   0.185   0.124   1.345 -0.2399 -0.5938  0.4764
  554SOL    HW1 1661   0.165   0.219   1.318  0.5660  1.4683  1.4261
  554SOL    HW2 1662   0.275   0.119   1.389 -2.6236 -2.0545 -0.3490
  555SOL     OW 1663   2.526   1.842   2.233  0.1991 -0.2050  0.2366
  555SOL    HW1 1664   2.464   1.926   2.230 -2.8952  1.1526  1.7826
  555SOL    HW2 1665   2.603   1.842   2.169 -2.5908  1.4343 -0.0576
  556SOL     OW 1666   1.115   0.390   0.013  0.4641 -0.2704  0.5902
  556SOL    HW1 1667   1.108   0.291   0.021 -1.3160  1.8081  1.6837
  556SOL    HW2 1668   1.034   0.431   3.096 -1.0707 -0.6186  2.1461
  557SOL     OW 1669   0.328   2.103   2.317 -0.2064  0.3395  0.1672
  557SOL    HW1 1670   0.419   2.146   2.325  0.8196 -1.5817 -1.3676
  557SOL    HW2 1671   0.304   2.099   2.219  1.3799  1.5435  0.3933
  558SOL     OW 1672   1.804   0.549   2.635 -0.0828  0.5457 -0.0407
  558SOL    HW1 1673   1.811   0.539   2.534  2.1817  1.5564  1.7379
  558SOL    HW2 1674   1.886   0.603   2.672 -0.8671  4.6275  1.8846
  559SOL     OW 1675   2.228   1.984   1.622 -0.0890 -0.0848 -0.2744
  559SOL    HW1 1676   2.203   1.903   1.683 -0.0732  2.4093  0.8373
  559SOL    HW2 1677   2.188   2.069   1.662 -0.9750  0.8069 -0.1180
  560SOL     OW 1678   2.031   0.962   1.987 -0.0018 -0.0337 -0.1240
  560SOL    HW1 1679   2.130   0.955   1.961 -1.5058  0.9794  2.3700
  560SOL    HW2 1680   1.970   0.997   1.916  1.8605  0.2305  3.2497
  561SOL     OW 1681   0.150   0.134   2.922  0.1264 -0.3823  0.2593
  561SOL    HW1 1682   0.055   0.103   2.930 -0.1138 -1.1698 -0.1465
  561SOL    HW2 1683   0.212   0.086   2.990 -2.0443 -1.5101  0.3095
  562SOL     OW 1684   0.968   1.730   1.572  0.5765 -0.3073  0.0004
  562SOL    HW1 1685   1.040   1.688   1.514  0.2846  2.8196  0.0090
  562SOL    HW2 1686   0.899   1.770   1.513  1.0773  1.6014 -0.4268
  563SOL     OW 1687   0.988   0.057   3.000 -0.4079  0.1842  0.3606
  563SOL    HW1 1688   1.064   0.084   3.062 -0.3557  0.8610  0.8260
  563SOL    HW2 1689   0.902   0.117   3.004  1.0235  0.3408  0.2805
  564SOL     OW 1690   2.960   2.420   0.838 -0.3935  0.8101  0.2665
  564SOL    HW1 1691   3.038   2.371   0.791  0.2585 -2.7281  0.4913
  564SOL    HW2 1692   2.930   2.493   0.778 -3.0657  0.1909  0.3794
  565SOL     OW 1693   0.710   2.305   1.269  0.2541  0.5274 -0.6405
  565SOL    HW1 1694   0.682   2.285   1.367  1.2070 -0.7825  1.4021
  565SOL    HW2 1695   0.632   2.343   1.212  0.3896  1.2673 -3.2448
  566SOL     OW 1696   1.227   0.059   2.657  0.4745  0.4927  0.2140
  566SOL    HW1 1697   1.241   3.089   2.676  0.0959 -2.4339  1.1062
  566SOL    HW2 1698   1.142   0.061   2.602  2.8142  0.4334  1.2015
  567SOL     OW 1699   2.507   2.888   0.765 -0.4829 -0.0039  0.2089
  567SOL    HW1 1700   2.462   2.974   0.798  0.5538  0.6931  1.0781
  567SOL    HW2 1701   2.484   2.868   0.667 -1.8814 -1.4195 -0.0905
  568SOL     OW 1702   1.376   1.413   0.802 -0.8496  0.4376 -0.5968
  568SOL    HW1 1703   1.297   1.468   0.835 -0.8672 -2.7061  0.6788
  568SOL    HW2 1704   1.378   1.425   0.698 -4.8784  0.5479 -2.5556
  569SOL     OW 1705   2.638   1.414   2.604 -0.2070  0.2258  0.5406
  569SOL    HW1 1706   2.621   1.479   2.681  2.6305 -0.5877 -1.8317
  569SOL    HW2 1707   2.638   1.317   2.647  1.1533 -2.8897 -0.0539
  570SOL     OW 1708   3.122   0.333   1.891  0.4623  0.2172  0.4167
  570SOL    HW1 1709   0.026   0.260   1.957  0.2638  0.0640 -0.8394
  570SOL    HW2 1710   3.066   0.281   1.821  0.7829 -0.9270 -0.1055
  571SOL     OW 1711   0.227   0.017   1.899  0.2176 -0.0760 -0.3536
  571SOL    HW1 1712   0.297   0.081   1.859  0.3046  2.6801 -2.9206
  571SOL    HW2 1713   0.203   3.074   1.830 -0.8846  0.8599  0.9892
  572SOL     OW 1714   2.999   2.256   1.234 -0.2920 -0.0054  0.5519
  572SOL    HW1 1715   2.918   2.291   1.182 -0.2766  0.8465  1.2955
  572SOL    HW2 1716   3.073   2.327   1.240  3.8984  0.2453 -2.4858
  573SOL     OW 1717   0.948   0.816   3.095  0.1328 -0.1245 -0.2404
  573SOL    HW1 1718   0.851   0.836   3.121 -0.9448  0.4429  1.2086
  573SOL    HW2 1719   0.964   0.727   3.054 -0.2055  0.8423  1.1251
  574SOL     OW 1720   2.362   2.467   2.755  0.2923  0.1179  0.1971
  574SOL    HW1 1721   2.379   2.535   2.680  0.1292  3.0806  2.7750
  574SOL    HW2 1722   2.377   2.505   2.845 -0.0637 -3.1897 -2.6017
  575SOL     OW 1723   1.406   2.772   0.879  0.1888 -0.7854  0.3922
  575SOL    HW1 1724   1.328   2.774   0.945  1.0614 -0.3368  1.8226
  575SOL    HW2 1725   1.489   2.826   0.910  1.7978 -0.4688  0.8067
  576SOL     OW 1726   1.130   0.193   0.971 -0.2897 -0.1938  0.3603
  576SOL    HW1 1727   1.161   0.140   0.887 -0.1259 -0.3425 -2.8916
  576SOL    HW2 1728   1.086   0.281   0.945  0.2540  1.8130  1.7535
  577SOL     OW 1729   2.260   1.162   0.653  0.3752  0.3190 -0.4067
  577SOL    HW1 1730   2.239   1.264   0.650  1.2193  0.3518 -2.9389
  577SOL    HW2 1731   2.180   1.102   0.629 -0.9853 -0.9267 -4.0628
  578SOL     OW 1732   1.985   0.535   0.959 -0.0242 -0.1115 -0.2162
  578SOL    HW1 1733   2.041   0.463   1.005 -0.8955 -1.2877 -1.1897
  578SOL    HW2 1734   2.022   0.626   0.988  1.0478 -0.6905  0.0667
  579SOL     OW 1735   1.664   0.595   2.854 -0.4096  0.4583  1.1409
  579SOL    HW1 1736   1.675   0.509   2.907 -0.8718  1.6664  1.8097
  579SOL    HW2 1737   1.712   0.582   2.765  0.1856  0.1086  1.7220
  580SOL     OW 1738   1.575   0.815   2.034  0.1244  0.1674 -0.2280
  580SOL    HW1 1739   1.491   0.851   1.992  1.0090  0.5060  2.7076
  580SOL    HW2 1740   1.590   0.852   2.129 -0.3519 -1.6949  2.5457
  581SOL     OW 1741   0.365   0.487   0.732  0.8503  0.8355  0.2154
  581SOL    HW1 1742   0.373   0.428   0.816 -1.7483 -0.6635  0.1741
  581SOL    HW2 1743   0.272   0.468   0.694 -1.6269 -0.5080  0.0241
  582SOL     OW 1744   2.723   0.342   1.899  0.3514  0.4695  0.3427
  582SOL    HW1 1745   2.740   0.428   1.854  0.6544 -0.6461 -0.0882
  582SOL    HW2 1746   2.631   0.348   1.940 -0.9108 -0.4475 -2.0868
  583SOL     OW 1747   0.212   0.505   2.600  0.4086 -0.8538  0.1832
  583SOL    HW1 1748   0.284   0.546   2.660 -0.5050 -0.2234  0.6680
  583SOL    HW2 1749   0.259   0.447   2.529  1.7854 -1.7936 -2.4938
  584SOL     OW 1750   2.142   2.141   0.113  1.0392  0.4143 -0.3465
  584SOL    HW1 1751   2.204   2.086   0.172 -0.3240 -0.3365 -0.8694
  584SOL    HW2 1752   2.151   2.100   0.018 -2.1700 -0.9360 -0.4251
  585SOL     OW 1753   0.168   2.362   0.091  0.0129 -0.2335  0.2581
  585SOL    HW1 1754   0.091   2.300   0.095  1.9946 -0.0008 -0.4693
  585SOL    HW2 1755   0.246   2.332   0.140 -5.2826  2.1551  0.1203
  586SOL     OW 1756   1.980   1.463   2.357 -0.0993  0.5398  0.0260
  586SOL    HW1 1757   1.991   1.493   2.261 -0.7929 -0.2178  2.2200
  586SOL    HW2 1758   2.071   1.441   2.394  0.6823 -0.2059 -0.1300
  587SOL     OW 1759   2.657   1.838   2.759  0.2880 -0.5960 -0.3436
  587SOL    HW1 1760   2.629   1.750   2.798 -0.4784  2.5130 -1.1413
  587SOL    HW2 1761   2.672   1.810   2.662 -1.3281 -0.3384  1.3415
  588SOL     OW 1762   2.985   0.267   1.231 -0.0243 -0.4762  0.0281
  588SOL    HW1 1763   2.979   0.305   1.140  0.0637 -1.2523 -1.9217
  588SOL    HW2 1764   3.079   0.281   1.268  1.1532 -1.8382  2.9399
  589SOL     OW 1765   0.993   0.214   0.396  0.5315 -0.1003 -0.2168
  589SOL    HW1 1766   1.025   0.305   0.368  0.9981  0.5819  2.1011
  589SOL    HW2 1767   0.940   0.221   0.482 -0.4179 -0.7060  1.0343
  590SOL     OW 1768   2.515   1.943   0.567 -0.2895 -0.2877 -0.1927
  590SOL    HW1 1769   2.472   2.032   0.546 -1.0525 -0.7936 -0.9020
  590SOL    HW2 1770   2.579   1.922   0.495 -1.4092 -1.1114  1.0580
  591SOL     OW 1771   0.412   2.640   1.175  0.5113  0.3562 -0.2570
  591SOL    HW1 1772   0.310   2.630   1.188 -1.0418 -2.1175  0.6144
  591SOL    HW2 1773   0.426   2.706   1.100 -0.0286  1.5251  1.1474
  592SOL     OW 1774   1.387   1.047   1.198 -0.3552  0.6880  0.0674
  592SOL    HW1 1775   1.329   1.106   1.258 -3.3985  0.9326 -1.9938
  592SOL    HW2 1776   1.366   0.951   1.209  1.9934  0.4463 -2.3750
  593SOL     OW 1777   1.031   2.330   1.714 -0.1266 -0.1357 -0.4084
  593SOL    HW1 1778   1.083   2.383   1.644  0.9759  0.8509  1.3769
  593SOL    HW2 1779   1.000   2.401   1.783  1.3903 -0.5271 -1.6054
  594SOL     OW 1780   1.193   1.592   0.150 -0.3297  0.1188 -0.1609
  594SOL    HW1 1781   1.224   1.516   0.212 -1.5175 -1.0050  1.1160
  594SOL    HW2 1782   1.274   1.656   0.132  0.6483 -3.9817  0.1418
  595SOL     OW 1783   1.540   1.199   1.500  0.3183  0.6451  0.4042
  595SOL    HW1 1784   1.622   1.257   1.479 -0.9578 -2.3997 -0.4734
  595SOL    HW2 1785   1.464   1.199   1.428 -5.3363  1.3552  0.2723
  596SOL     OW 1786   0.009   0.834   1.824  1.1605  0.2878 -0.1885
  596SOL    HW1 1787   3.113   0.736   1.823  0.7882  1.7705  0.0861
  596SOL    HW2 1788   3.061   0.884   1.778  0.4198  0.4530 -0.4781
  597SOL     OW 1789   1.336   2.990   2.028  0.2225  0.0711 -0.7588
  597SOL    HW1 1790   1.240   3.008   2.002  1.4423 -0.4352 -0.7725
  597SOL    HW2 1791   1.332   2.927   2.107 -0.6520  2.0164 -0.6860
  598SOL     OW 1792   2.640   1.285   1.519 -0.1161  0.3797 -0.0533
  598SOL    HW1 1793   2.591   1.321   1.436 -1.3545  1.8573 -0.0159
  598SOL    HW2 1794   2.646   1.363   1.585  1.1449  0.9767  0.4204
  599SOL     OW 1795   0.837   2.740   0.062  0.5089  0.0488  0.4737
  599SOL    HW1 1796   0.778   2.730   0.147 -1.2935  2.4519  3.4666
  599SOL    HW2 1797   0.859   2.650   0.020 -0.5184  2.0131  1.6092
  600SOL     OW 1798   3.005   2.372   0.230  0.1565 -0.1313  0.7255
  600SOL    HW1 1799   2.954   2.345   0.315  1.4138  1.6034  1.0993
  600SOL    HW2 1800   3.055   2.296   0.182  2.3313 -1.6669 -0.4367
  601SOL     OW 1801   0.578   0.785   1.353  0.3521 -0.3070 -0.4621
  601SOL    HW1 1802   0.491   0.796   1.301 -0.5960  0.4982 -0.4200
  601SOL    HW2 1803   0.567   0.724   1.434 -1.8149  0.1273  0.3775
  602SOL     OW 1804   0.594   0.171   0.977  0.1216 -0.2183 -0.3467
  602SOL    HW1 1805   0.601   0.160   1.076 -0.2247 -0.5413 -1.9199
  602SOL    HW2 1806   0.615   0.081   0.931  1.7167 -2.5584 -0.6611
  603SOL     OW 1807   0.265   0.164   2.677 -0.5927  1.0039 -0.4757
  603SOL    HW1 1808   0.237   0.155   2.772 -0.7554 -1.5570  0.1139
  603SOL    HW2 1809   0.362   0.197   2.671  4.9054 -0.7682  0.6240
  604SOL     OW 1810   1.122   2.490   1.482  0.5262 -0.3258 -0.1754
  604SOL    HW1 1811   1.190   2.445   1.421 -0.4216  2.7512 -0.7229
  604SOL    HW2 1812   1.034   2.499   1.433  1.7289  1.0027  3.3746
  605SOL     OW 1813   1.572   1.144   1.977  0.3777  0.1745  0.2990
  605SOL    HW1 1814   1.545   1.206   1.899 -0.6777  0.4824  2.7197
  605SOL    HW2 1815   1.480   1.112   2.007 -1.1107 -2.6641  0.0260
  606SOL     OW 1816   2.156   2.887   2.955  0.2800 -0.5488  0.1723
  606SOL    HW1 1817   2.182   2.806   3.011 -0.4849  0.7676 -0.5335
  606SOL    HW2 1818   2.121   2.962   3.019 -1.9647  1.5457 -0.2357
  607SOL     OW 1819   0.795   0.138   1.947 -0.0001 -0.0415  0.1079
  607SOL    HW1 1820   0.889   0.180   1.959  0.1686  1.6166 -1.1210
  607SOL    HW2 1821   0.763   0.153   1.854 -1.6529 -0.1599  1.5958
  608SOL     OW 1822   0.226   2.466   2.279 -0.0466 -0.0685 -0.3707
  608SOL    HW1 1823   0.272   2.504   2.195 -0.6363 -0.7616 -0.2567
  608SOL    HW2 1824   0.284   2.445   2.362 -0.8800 -1.6849  2.0746
  609SOL     OW 1825   1.236   1.109   0.218 -0.3548  0.3734  0.1128
  609SOL    HW1 1826   1.151   1.132   0.266  0.3513 -3.4125  2.0792
  609SOL    HW2 1827   1.221   1.021   0.173 -0.4871 -2.6819  1.2431
  610SOL     OW 1828   0.321   3.018   1.091  0.2345  0.1220 -0.0268
  610SOL    HW1 1829   0.414   3.001   1.126 -0.8662 -0.2878  1.9336
  610SOL    HW2 1830   0.251   2.987   1.157 -4.2065 -0.5640 -0.1605
  611SOL     OW 1831   1.124   1.173   0.562  0.1064  0.7845 -0.0335
  611SOL    HW1 1832   1.047   1.175   0.492  0.5180  0.6539  0.3061
  611SOL    HW2 1833   1.166   1.081   0.569 -3.5672  2.2942  1.4892
  612SOL     OW 1834   2.186   1.772   0.126 -0.2291  0.1066  0.3288
  612SOL    HW1 1835   2.224   1.859   0.169 -0.7817  2.3711 -1.3300
  612SOL    HW2 1836   2.112   1.725   0.180 -0.1794  0.4312 -2.5542
  613SOL     OW 1837   1.735   1.509   0.179 -0.1971  0.0992 -0.3784
  613SOL    HW1 1838   1.698   1.416   0.153 -2.5873 -3.2726 -0.8310
  613SOL    HW2 1839   1.708   1.582   0.113  2.0644 -2.1029 -2.7786
  614SOL     OW 1840   2.714   0.149   2.499  0.0052 -0.6703  0.1323
  614SOL    HW1 1841   2.667   0.203   2.425 -1.7543  1.3819  0.4373
  614SOL    HW2 1842   2.745   0.217   2.567 -2.7898 -0.8313 -0.4893
  615SOL     OW 1843   0.888   1.493   0.373 -0.1318 -0.6858 -0.5175
  615SOL    HW1 1844   0.924   1.477   0.281 -0.0856  0.2326  1.7017
  615SOL    HW2 1845   0.961   1.497   0.444 -0.8989 -0.3710  1.5788
  616SOL     OW 1846   1.594   0.862   2.926 -0.0150 -0.1316 -0.5225
  616SOL    HW1 1847   1.613   0.766   2.911 -0.3164  3.6551  1.6441
  616SOL    HW2 1848   1.526   0.863   3.000  0.2385 -1.2461 -2.0105
  617SOL     OW 1849   1.505   0.146   0.423 -0.1998 -0.3667 -0.3345
  617SOL    HW1 1850   1.534   0.216   0.496  3.4549  1.1099 -0.0168
  617SOL    HW2 1851   1.410   0.113   0.428  0.1510 -2.7178  0.5584
  618SOL     OW 1852   3.007   1.981   2.507 -0.3773  0.1416 -0.0384
  618SOL    HW1 1853   2.979   1.910   2.571  1.5043  1.4522 -0.9672
  618SOL    HW2 1854   3.008   2.077   2.547 -2.7228 -0.0135 -0.5120
  619SOL     OW 1855   2.231   1.771   0.942  0.0922 -0.2677 -0.3763
  619SOL    HW1 1856   2.173   1.853   0.920  0.8480  3.6356  0.7453
  619SOL    HW2 1857   2.315   1.775   0.884 -1.2852 -1.2275  1.9210
  620SOL     OW 1858   2.466   0.212   1.402 -0.5183 -0.5563 -0.6004
  620SOL    HW1 1859   2.442   0.305   1.363  0.0069  3.1515 -1.6237
  620SOL    HW2 1860   2.389   0.174   1.463  0.1657 -0.0877 -0.9507
  621SOL     OW 1861   3.071   2.064   0.819  0.2587  0.0809  0.8957
  621SOL    HW1 1862   3.069   2.038   0.917 -0.0189  1.5911  0.0669
  621SOL    HW2 1863   3.110   2.156   0.808 -0.1586 -0.6071  1.5838
  622SOL     OW 1864   0.663   1.618   2.286 -0.3172  0.2654 -0.1468
  622SOL    HW1 1865   0.559   1.620   2.281  0.1663  0.9949  0.7992
  622SOL    HW2 1866   0.706   1.545   2.224  0.8330 -1.4928 -1.0750
  623SOL     OW 1867   2.455   2.593   2.528  0.5401  0.4269  0.5815
  623SOL    HW1 1868   2.426   2.683   2.489 -1.4094 -4.4373  0.5829
  623SOL    HW2 1869   2.554   2.599   2.550 -1.3244  2.6013  0.1015
  624SOL     OW 1870   0.931   1.768   0.325 -0.9234 -0.4504  0.4730
  624SOL    HW1 1871   0.906   1.677   0.361  3.7865  2.3109 -2.4003
  624SOL    HW2 1872   1.024   1.762   0.288  2.3024  0.1375  1.3827
  625SOL     OW 1873   0.761   1.932   2.243 -0.2794 -0.3951  0.0284
  625SOL    HW1 1874   0.737   1.900   2.338  2.7974 -1.1699  0.6049
  625SOL    HW2 1875   0.755   1.859   2.172  1.5138 -0.5733 -1.6552
  626SOL     OW 1876   0.067   2.479   0.391 -0.2189 -0.1523 -0.3106
  626SOL    HW1 1877   0.132   2.409   0.424 -0.8578  2.5833 -2.0325
  626SOL    HW2 1878   0.004   2.436   0.318 -0.9523 -0.1261  1.9716
  627SOL     OW 1879   1.019   1.754   2.536 -0.4883 -0.3845  0.6464
  627SOL    HW1 1880   1.033   1.655   2.524  0.6062  0.7281  2.5875
  627SOL    HW2 1881   1.038   1.772   2.634 -1.8181 -0.3984 -1.0458
  628SOL     OW 1882   1.497   1.932   0.624  0.1182 -0.2991 -0.1681
  628SOL    HW1 1883   1.446   2.018   0.612 -0.8764  0.7861  0.1310
  628SOL    HW2 1884   1.594   1.949   0.654  0.5095 -0.0834 -1.2867
  629SOL     OW 1885   0.808   0.721   1.660  0.2934  0.7103  0.4286
  629SOL    HW1 1886   0.745   0.714   1.736  1.9830  1.3634  0.2000
  629SOL    HW2 1887   0.848   0.628   1.648 -2.6689  2.0540 -0.4056
  630SOL     OW 1888   2.668   0.211   1.613 -0.7057  0.5913  0.0389
  630SOL    HW1 1889   2.591   0.207   1.545  0.5423 -1.2016  1.3961
  630SOL    HW2 1890   2.640   0.231   1.706  0.6834  0.2280 -2.9775
  631SOL     OW 1891   1.446   0.569   0.782 -0.4511 -0.4238  0.3009
  631SOL    HW1 1892   1.387   0.650   0.772 -0.1141 -1.2806 -0.4813
  631SOL    HW2 1893   1.410   0.499   0.716 -0.1981  3.5356  0.0176
  632SOL     OW 1894   2.164   0.546   2.061  0.5048  0.5137  0.3319
  632SOL    HW1 1895   2.191   0.627   2.121 -1.6936 -1.2925  0.7169
  632SOL    HW2 1896   2.209   0.555   1.967  2.8007  1.2948 -1.9377
  633SOL     OW 1897   1.233   1.134   2.844  0.1834  0.5450  0.4167
  633SOL    HW1 1898   1.255   1.227   2.799  0.4685  1.7297  0.4190
  633SOL    HW2 1899   1.272   1.062   2.785 -1.1974  0.8301  1.0977
  634SOL     OW 1900   0.385   2.287   0.246 -0.1341  0.2243  1.3957
  634SOL    HW1 1901   0.376   2.318   0.340 -1.7854 -1.4240 -2.4197
  634SOL    HW2 1902   0.472   2.235   0.229 -0.0053 -0.9495 -0.4548
  635SOL     OW 1903   2.892   1.472   1.988 -0.5204 -0.3843 -0.9135
  635SOL    HW1 1904   2.868   1.456   2.085 -0.6088 -1.3671 -1.2243
  635SOL    HW2 1905   2.814   1.488   1.932  0.5696  0.8459  2.4229
  636SOL     OW 1906   0.500   1.981   3.086 -0.7463  1.0906 -0.1118
  636SOL    HW1 1907   0.501   1.885   3.117  2.2167  2.0221  2.1297
  636SOL    HW2 1908   0.408   2.026   3.075 -2.5216  1.2233  1.8121
  637SOL     OW 1909   0.042   2.087   0.432  0.2243 -0.0907  0.1092
  637SOL    HW1 1910   0.091   2.041   0.355 -2.1584  1.2989 -2.7762
  637SOL    HW2 1911   3.067   2.090   0.419 -0.8910  1.2042 -1.2405
  638SOL     OW 1912   2.639   2.672   0.431  0.3129 -0.4166 -0.2272
  638SOL    HW1 1913   2.560   2.720   0.468  1.6350 -1.2382  1.1682
  638SOL    HW2 1914   2.620   2.571   0.434 -1.8822 -0.8405  2.4192
  639SOL     OW 1915   1.067   0.467   0.296 -0.3619 -0.0560 -0.4332
  639SOL    HW1 1916   1.058   0.452   0.192  0.6273 -1.2017 -5.5352
  639SOL    HW2 1917   1.079   0.567   0.321  0.9399 -0.3193  0.8038
  640SOL     OW 1918   2.397   2.440   1.832 -0.3697 -0.4367  0.1959
  640SOL    HW1 1919   2.490   2.394   1.840  2.0759 -1.7030 -1.1883
  640SOL    HW2 1920   2.382   2.478   1.738 -3.1201 -1.8411  1.7028
  641SOL     OW 1921   2.570   2.948   1.335 -0.1727  1.2394  0.0660
  641SOL    HW1 1922   2.553   3.008   1.254  0.0177 -1.0915  0.1714
  641SOL    HW2 1923   2.644   2.984   1.399 -0.1835  0.4102 -0.4389
  642SOL     OW 1924   1.382   1.021   1.649  0.3258  0.4514 -0.2518
  642SOL    HW1 1925   1.452   1.071   1.594  1.0032 -1.8198  0.5353
  642SOL    HW2 1926   1.432   0.969   1.723  1.9629 -2.8931  2.2134
  643SOL     OW 1927   1.065   1.415   2.238  0.2815  0.3215 -0.2238
  643SOL    HW1 1928   0.967   1.385   2.238 -0.2694  0.8037 -0.8616
  643SOL    HW2 1929   1.081   1.487   2.173  2.4723 -0.7788  2.7177
  644SOL     OW 1930   1.305   0.335   2.149 -0.0925  0.2029 -0.3695
  644SOL    HW1 1931   1.222   0.330   2.217 -1.7125  1.3819  2.1679
  644SOL    HW2 1932   1.393   0.334   2.200  0.8903  0.3782  0.3449
  645SOL     OW 1933   1.964   1.368   1.615 -0.1318  0.0678 -0.3444
  645SOL    HW1 1934   1.873   1.364   1.568  0.2384  1.8539  2.5601
  645SOL    HW2 1935   1.989   1.465   1.646  0.0341  1.5276 -0.9027
  646SOL     OW 1936   1.450   2.272   0.125  0.3097  0.3439  0.1391
  646SOL    HW1 1937   1.457   2.242   0.027  1.5240 -0.0932  1.2107
  646SOL    HW2 1938   1.391   2.206   0.179  0.2662 -1.5543 -0.0061
  647SOL     OW 1939   1.774   2.672   1.027  0.1013  0.4406 -0.5025
  647SOL    HW1 1940   1.835   2.601   0.977  0.1282  0.9499 -1.2067
  647SOL    HW2 1941   1.725   2.630   1.105  0.1007 -2.8118 -1.1433
  648SOL     OW 1942   3.109   2.596   1.634 -0.1481  0.0793  0.4999
  648SOL    HW1 1943   3.011   2.575   1.661 -0.5779 -0.6814  1.3827
  648SOL    HW2 1944   0.024   2.512   1.616  0.1803  3.9883  1.0306
  649SOL     OW 1945   1.245   2.611   3.022 -0.3351  0.3279  0.3642
  649SOL    HW1 1946   1.251   2.510   3.009 -2.0783 -1.4301 -1.4263
  649SOL    HW2 1947   1.172   2.646   2.961  1.3324 -1.6416 -1.9375
  650SOL     OW 1948   2.764   1.716   0.172  0.2659 -0.2720 -0.9020
  650SOL    HW1 1949   2.844   1.748   0.220 -0.6532  1.0428 -3.3291
  650SOL    HW2 1950   2.782   1.672   0.083  0.3318 -0.0058  3.6204
  651SOL     OW 1951   2.730   2.133   2.213  0.0239  0.2075  0.5698
  651SOL    HW1 1952   2.702   2.117   2.115  2.3066  1.5194  1.3072
  651SOL    HW2 1953   2.809   2.074   2.242 -2.7717  1.0099 -1.3906
  652SOL     OW 1954   2.306   2.400   0.361  0.2328 -0.0904  0.2829
  652SOL    HW1 1955   2.284   2.415   0.265 -0.3427 -1.9636 -1.3700
  652SOL    HW2 1956   2.408   2.407   0.376 -0.5674 -1.6085 -1.0145
  653SOL     OW 1957   2.906   1.722   1.637 -0.0428 -0.2045 -0.5843
  653SOL    HW1 1958   2.932   1.727   1.733  1.3512  1.9706 -2.2358
  653SOL    HW2 1959   2.969   1.655   1.592 -1.3253 -0.2494 -0.6029
  654SOL     OW 1960   0.922   1.097   0.086  0.0937 -0.3191 -0.1526
  654SOL    HW1 1961   0.968   1.129   3.128 -2.0056  0.7187  1.7808
  654SOL    HW2 1962   0.836   1.042   0.074  1.5409  1.4340 -0.2033
  655SOL     OW 1963   1.100   1.137   1.080 -0.1720 -0.3723 -0.2606
  655SOL    HW1 1964   1.165   1.147   1.156  1.3798  0.9891  2.2930
  655SOL    HW2 1965   1.134   1.172   0.988 -0.0779  1.5360  0.9060
  656SOL     OW 1966   1.624   2.803   2.122  0.2407  0.0494  0.4425
  656SOL    HW1 1967   1.531   2.803   2.088  3.0547 -0.5799 -0.7768
  656SOL    HW2 1968   1.664   2.709   2.110 -1.9278 -1.4843 -1.0698
  657SOL     OW 1969   2.119   1.377   0.236 -0.6343 -0.7234 -0.1050
  657SOL    HW1 1970   2.056   1.315   0.282  4.2436 -1.3760 -3.4113
  657SOL    HW2 1971   2.119   1.369   0.136  0.2827 -0.7643  3.7892
  658SOL     OW 1972   1.930   2.746   1.465 -0.1969  0.1746 -0.1012
  658SOL    HW1 1973   2.002   2.702   1.524  0.1109  2.3167 -0.4067
  658SOL    HW2 1974   1.902   2.836   1.496  1.3943 -2.5714  0.2824
  659SOL     OW 1975   3.018   1.767   0.294 -0.6587  0.1762  0.2787
  659SOL    HW1 1976   3.053   1.670   0.305  2.2249  0.3750  0.9470
  659SOL    HW2 1977   2.963   1.788   0.374  2.4202  0.0233  0.9805
  660SOL     OW 1978   1.280   0.135   0.740 -0.3842 -0.1646  1.0239
  660SOL    HW1 1979   1.302   0.062   0.673 -1.1750 -0.6447 -0.2650
  660SOL    HW2 1980   1.363   0.157   0.794  0.7680  0.2201  0.7675
  661SOL     OW 1981   1.958   0.311   3.083  0.6730  0.3555 -0.1800
  661SOL    HW1 1982   2.045   0.340   3.043 -1.2310 -2.6724  3.9543
  661SOL    HW2 1983   1.974   0.221   0.002 -0.7623 -1.6030  1.6457
  662SOL     OW 1984   0.392   0.218   0.527  0.0092 -0.4941 -0.4056
  662SOL    HW1 1985   0.366   0.144   0.591  1.3552  0.6311 -0.9381
  662SOL    HW2 1986   0.475   0.190   0.471  0.8678  0.5044 -2.4742
  663SOL     OW 1987   1.454   2.611   2.733 -0.0250 -0.2307 -0.1404
  663SOL    HW1 1988   1.436   2.701   2.683 -0.7945  1.5949 -2.1449
  663SOL    HW2 1989   1.401   2.531   2.703 -0.0478 -0.8389 -0.3212
  664SOL     OW 1990   0.537   2.440   1.650  0.1164  0.5098  0.1699
  664SOL    HW1 1991   0.475   2.376   1.603  0.7142 -0.8441  1.8406
  664SOL    HW2 1992   0.534   2.534   1.604 -0.7154  0.9721 -1.0189
  665SOL     OW 1993   1.640   2.506   1.215  0.0619  0.5099  0.1828
  665SOL    HW1 1994   1.559   2.557   1.256  1.3468 -0.6678 -0.3610
  665SOL    HW2 1995   1.712   2.492   1.287 -1.1922  0.4676 -1.4359
  666SOL     OW 1996   0.978   2.641   2.415  0.2962 -0.4513 -0.8240
  666SOL    HW1 1997   1.064   2.613   2.372 -0.9171  0.2233 -2.3401
  666SOL    HW2 1998   0.906   2.635   2.343  1.7336  0.2344 -2.2721
  667SOL     OW 1999   2.819   0.622   1.582  0.0346  0.0163  0.0280
  667SOL    HW1 2000   2.814   0.694   1.513  0.5853  0.8644 -1.7500
  667SOL    HW2 2001   2.853   0.528   1.556  0.1695 -1.4557 -0.8654
  668SOL     OW 2002   1.087   0.195   1.676  0.0254  0.0126  0.1433
  668SOL    HW1 2003   1.126   0.143   1.595  3.1129  0.3893  3.3065
  668SOL    HW2 2004   1.156   0.192   1.754  1.9381  0.5136 -0.5229
  669SOL     OW 2005   2.080   2.626   1.210  0.0144  0.0929 -0.5165
  669SOL    HW1 2006   2.033   2.701   1.263 -1.0441  2.5604  2.6455
  669SOL    HW2 2007   2.084   2.642   1.110  3.1510  1.5934  1.5618
  670SOL     OW 2008   1.528   2.261   3.001  0.0174 -0.1835 -0.6347
  670SOL    HW1 2009   1.541   2.364   2.992  0.2495  0.4201  0.1147
  670SOL    HW2 2010   1.621   2.216   3.000  1.4157 -0.2597  0.8942
  671SOL     OW 2011   0.494   1.175   0.179  0.1800  0.0399  0.0563
  671SOL    HW1 2012   0.551   1.224   0.112 -0.2021 -3.0622 -0.3176
  671SOL    HW2 2013   0.542   1.087   0.197 -0.8866 -0.2746 -1.4127
  672SOL     OW 2014   2.883   0.777   2.976 -0.0242 -0.2213 -0.3767
  672SOL    HW1 2015   2.978   0.759   2.938  2.1112 -2.0858 -0.8515
  672SOL    HW2 2016   2.844   0.692   3.016  0.0048 -2.0824  1.5319
  673SOL     OW 2017   0.108   1.847   1.430 -0.0685 -0.1932 -0.2945
  673SOL    HW1 2018   0.051   1.933   1.411  1.4210  0.4564  1.1878
  673SOL    HW2 2019   0.202   1.869   1.401 -2.8609 -0.6776  0.4289
  674SOL     OW 2020   1.432   2.201   1.586 -0.3793  0.1015  0.0687
  674SOL    HW1 2021   1.364   2.201   1.666  1.2382  1.0532 -1.4167
  674SOL    HW2 2022   1.474   2.109   1.563 -0.2264  0.1230 -0.6260
  675SOL     OW 2023   1.163   1.436   1.319  0.2119 -0.1870 -0.4938
  675SOL    HW1 2024   1.198   1.520   1.369 -1.3210  2.0126 -0.8095
  675SOL    HW2 2025   1.073   1.458   1.270 -0.7280 -0.1339 -2.2072
  676SOL     OW 2026   2.438   0.728   1.041  0.3383  0.1001  0.2473
  676SOL    HW1 2027   2.362   0.791   1.019 -0.7099  0.7599  1.6687
  676SOL    HW2 2028   2.458   0.726   1.140 -1.0347  1.3241 -1.7412
  677SOL     OW 2029   2.708   0.317   0.289  0.0793 -0.9708 -0.0286
  677SOL    HW1 2030   2.768   0.242   0.323  1.7603 -1.1421  0.3747
  677SOL    HW2 2031   2.725   0.322   0.188  0.6728  0.4493 -1.5750
  678SOL     OW 2032   2.358   1.480   1.096  0.1365 -0.1305 -0.3911
  678SOL    HW1 2033   2.417   1.409   1.056 -1.1043  0.5633  1.2553
  678SOL    HW2 2034   2.275   1.501   1.040  1.3679 -2.5046 -3.0840
  679SOL     OW 2035   2.785   0.579   3.124  0.0574 -0.0230 -0.0477
  679SOL    HW1 2036   2.747   0.603   0.088 -1.0799 -1.2037  1.2300
  679SOL    HW2 2037   2.803   0.476   0.006 -1.4683 -1.1619 -0.7112
  680SOL     OW 2038   0.326   1.319   2.278  0.3107 -0.0509 -0.1695
  680SOL    HW1 2039   0.400   1.279   2.338  1.7117 -0.2790 -1.1432
  680SOL    HW2 2040   0.238   1.325   2.331 -2.3637  1.5594 -0.3969
  681SOL     OW 2041   2.703   2.168   1.636  0.5049  0.4040  0.1405
  681SOL    HW1 2042   2.711   2.232   1.712  0.0200 -2.8073 -0.2663
  681SOL    HW2 2043   2.631   2.098   1.659  1.1516 -1.2997 -1.4215
  682SOL     OW 2044   0.608   1.960   2.850  1.1447  0.2818 -0.0644
  682SOL    HW1 2045   0.559   1.959   2.942 -4.9106 -2.4136  1.2522
  682SOL    HW2 2046   0.562   2.026   2.788 -1.6522 -0.4773  0.7646
  683SOL     OW 2047   2.694   2.043   1.295 -0.7540 -0.2437  0.4283
  683SOL    HW1 2048   2.634   1.981   1.353  0.7762 -0.1030  0.6162
  683SOL    HW2 2049   2.679   2.140   1.323 -2.4110 -1.7328 -1.2110
  684SOL     OW 2050   2.772   1.203   1.849  0.2911 -0.0034  0.4337
  684SOL    HW1 2051   2.729   1.295   1.824  0.5938  1.9659 -0.5290
  684SOL    HW2 2052   2.804   1.192   1.948  0.7681  1.1822  3.7167
  685SOL     OW 2053   1.162   0.866   0.995 -0.8573  0.1490  0.3611
  685SOL    HW1 2054   1.132   0.956   1.032 -5.0590  1.1131  0.3564
  685SOL    HW2 2055   1.128   0.789   1.054  1.8056 -0.0109  0.0455
  686SOL     OW 2056   0.690   0.188   2.962  0.4056  0.2912 -0.2586
  686SOL    HW1 2057   0.687   0.090   2.937  0.7268 -0.0635  0.6255
  686SOL    HW2 2058   0.603   0.220   3.008  1.6220 -0.1497 -1.4469
  687SOL     OW 2059   0.662   2.190   1.980 -0.4530 -0.0044 -0.7325
  687SOL    HW1 2060   0.585   2.260   1.983  2.4759  0.0223  1.4556
  687SOL    HW2 2061   0.689   2.168   2.074  1.6289  0.2197  1.8473
  688SOL     OW 2062   2.003   0.241   1.427  0.3566  0.8934  0.0968
  688SOL    HW1 2063   1.961   0.242   1.335 -1.6028 -0.0179  0.3869
  688SOL    HW2 2064   2.019   0.335   1.462  1.0403 -3.9468 -0.9410
  689SOL     OW 2065   2.165   0.737   0.612  0.2331  0.1867  0.0704
  689SOL    HW1 2066   2.086   0.700   0.664 -1.5976  0.3756  2.1397
  689SOL    HW2 2067   2.249   0.721   0.665 -1.5251  1.5655 -0.1396
  690SOL     OW 2068   0.085   1.084   1.427 -0.8573  0.0384 -0.2216
  690SOL    HW1 2069   0.129   1.153   1.369 -0.6662 -0.0564  0.7174
  690SOL    HW2 2070   0.037   1.126   1.510 -0.8072  2.2796  0.7276
  691SOL     OW 2071   0.276   0.856   1.754  0.0181  0.1625 -0.7058
  691SOL    HW1 2072   0.290   0.899   1.663  2.0438  1.0407 -0.5720
  691SOL    HW2 2073   0.179   0.847   1.785 -1.4508 -0.8025  0.3408
  692SOL     OW 2074   0.606   1.007   2.141 -0.0791 -0.1408 -0.3099
  692SOL    HW1 2075   0.535   0.958   2.083  0.2470 -1.0075 -0.4188
  692SOL    HW2 2076   0.655   1.077   2.082 -1.0417  0.7561 -2.1662
  693SOL     OW 2077   0.328   1.208   2.017 -0.5524  0.2248 -0.3856
  693SOL    HW1 2078   0.283   1.281   1.965  1.0948 -0.9351  1.3762
  693SOL    HW2 2079   0.355   1.255   2.105 -2.3823 -0.5616  1.3666
  694SOL     OW 2080   1.484   1.448   0.494  0.5234 -0.3627 -0.2433
  694SOL    HW1 2081   1.587   1.434   0.501 -0.2095  2.4000 -0.5491
  694SOL    HW2 2082   1.461   1.543   0.474  0.0158 -2.2207  0.4523
  695SOL     OW 2083   0.256   1.004   0.825 -0.4099  0.3828  0.2769
  695SOL    HW1 2084   0.297   1.073   0.889  0.6542  2.5315 -2.4949
  695SOL    HW2 2085   0.155   1.017   0.823  1.5868 -0.5779 -0.1616
  696SOL     OW 2086   0.561   2.304   0.564  0.6037  0.0303  0.4528
  696SOL    HW1 2087   0.551   2.374   0.489 -2.5320  0.3038 -1.9776
  696SOL    HW2 2088   0.661   2.289   0.580  3.1642 -0.2225 -2.9849
  697SOL     OW 2089   1.135   0.654   1.656 -0.7324  0.3989  0.3590
  697SOL    HW1 2090   1.224   0.648   1.611  0.7646 -0.1278  0.3441
  697SOL    HW2 2091   1.086   0.730   1.615 -0.1331 -0.1500  0.5045
  698SOL     OW 2092   1.634   1.583   1.732 -0.1630  0.3145  0.1057
  698SOL    HW1 2093   1.557   1.557   1.793  1.7581  0.4828 -0.0575
  698SOL    HW2 2094   1.605   1.602   1.636 -0.2579  1.8443  4.3187
  699SOL     OW 2095   0.003   0.659   2.501 -0.2283  0.3727  0.2706
  699SOL    HW1 2096   0.010   0.622   2.408  1.7311  1.5432  1.5469
  699SOL    HW2 2097   0.062   0.595   2.560 -2.4531 -0.6237  3.6170
  700SOL     OW 2098   1.768   2.548   0.765 -0.1200 -0.2507 -0.9159
  700SOL    HW1 2099   1.795   2.646   0.766  0.2745 -2.7749 -2.9856
  700SOL    HW2 2100   1.666   2.541   0.754 -0.7169  2.9041  0.2130
  701SOL     OW 2101   0.195   1.712   2.382  0.1847  1.0108 -0.2756
  701SOL    HW1 2102   0.154   1.661   2.461 -0.2531 -2.0747 -0.5836
  701SOL    HW2 2103   0.251   1.790   2.419  0.4454  0.0101 -0.3982
  702SOL     OW 2104   0.442   0.255   3.073  0.2108 -0.5789 -0.0810
  702SOL    HW1 2105   0.377   0.172   3.083 -0.8590  1.8918 -2.0326
  702SOL    HW2 2106   0.390   0.341   3.053 -1.4150  0.2920  0.4823
  703SOL     OW 2107   1.504   0.347   2.946  0.1512  0.7192  0.2850
  703SOL    HW1 2108   1.600   0.320   2.935 -3.3696  3.2169  0.1210
  703SOL    HW2 2109   1.441   0.270   2.927  0.8983  0.7873 -1.9577
  704SOL     OW 2110   2.709   1.923   0.901 -0.0130  0.3574  0.3611
  704SOL    HW1 2111   2.774   1.904   0.976  0.3943  0.6194 -0.8733
  704SOL    HW2 2112   2.760   1.959   0.821  0.3304  1.5678 -0.1341
  705SOL     OW 2113   2.764   1.851   2.052  0.6430  0.2549 -0.5011
  705SOL    HW1 2114   2.818   1.787   1.998 -2.3514 -0.5885 -0.9412
  705SOL    HW2 2115   2.820   1.873   2.135 -2.3548 -3.0094  3.6403
  706SOL     OW 2116   0.086   2.639   0.966 -0.1651 -0.3216  0.2871
  706SOL    HW1 2117   0.013   2.698   0.926  2.3897 -2.1300 -0.3521
  706SOL    HW2 2118   0.168   2.694   0.964 -0.4917 -0.6529  1.2143
  707SOL     OW 2119   0.832   0.014   0.343 -0.0101  0.1878  0.0169
  707SOL    HW1 2120   0.873   3.060   0.395  0.7049 -0.0100 -4.8632
  707SOL    HW2 2121   0.888   0.099   0.346  1.2360 -0.3135  0.2615
  708SOL     OW 2122   0.788   2.259   1.643  0.2814 -0.1517  0.0771
  708SOL    HW1 2123   0.885   2.283   1.665  2.2361  0.6929 -0.8934
  708SOL    HW2 2124   0.726   2.327   1.678  3.6911  0.6415 -1.8697
  709SOL     OW 2125   1.717   0.282   2.159  0.1338  0.0863  0.0128
  709SOL    HW1 2126   1.689   0.295   2.257  0.1933 -0.9767  0.4041
  709SOL    HW2 2127   1.668   0.196   2.118 -2.3924 -1.6140 -0.7193
  710SOL     OW 2128   1.293   2.924   2.700 -0.2317  0.8700 -0.0727
  710SOL    HW1 2129   1.205   2.872   2.693  0.7251 -1.6850 -1.6807
  710SOL    HW2 2130   1.338   2.900   2.789  1.1515  0.4860 -0.4144
  711SOL     OW 2131   1.218   2.298   2.467  0.0857  0.0070  0.0943
  711SOL    HW1 2132   1.257   2.214   2.521  3.5224 -0.8784  1.3969
  711SOL    HW2 2133   1.293   2.365   2.450 -1.8775 -1.2324 -1.1850
  712SOL     OW 2134   1.198   2.047   2.838 -0.7777  0.5293 -0.0361
  712SOL    HW1 2135   1.129   1.974   2.836  2.0255  0.5105 -0.9178
  712SOL    HW2 2136   1.225   2.062   2.937  2.3189  1.5529  4.3387
  713SOL     OW 2137   0.931   0.888   2.016  0.3421  0.0010 -0.0952
  713SOL    HW1 2138   0.878   0.899   1.929 -1.4050 -1.0078  2.7288
  713SOL    HW2 2139   1.022   0.844   1.996  2.4055  0.0282 -1.9844
  714SOL     OW 2140   1.492   1.702   1.266  0.2861  0.2426 -0.0572
  714SOL    HW1 2141   1.549   1.666   1.189 -1.2264 -1.5788  1.7825
  714SOL    HW2 2142   1.492   1.806   1.263  0.1208 -0.4548  0.4080
  715SOL     OW 2143   2.723   0.256   0.705  0.2549 -0.0742 -0.0318
  715SOL    HW1 2144   2.736   0.330   0.773 -0.0914  0.4589  1.3130
  715SOL    HW2 2145   2.672   0.286   0.619 -0.1822 -0.5459  2.0217
  716SOL     OW 2146   0.641   2.871   0.502 -0.1212  0.3951  0.2578
  716SOL    HW1 2147   0.742   2.879   0.504  0.3789 -1.8618  2.3797
  716SOL    HW2 2148   0.598   2.899   0.587 -1.9190 -0.1923 -2.3332
  717SOL     OW 2149   2.954   0.577   0.327 -0.1065 -0.0087  0.1282
  717SOL    HW1 2150   2.985   0.480   0.334 -0.6237  4.1608  0.9065
  717SOL    HW2 2151   2.854   0.581   0.308  1.2243 -3.1313  0.3466
  718SOL     OW 2152   1.690   1.933   1.072  0.2475 -0.7572 -0.0202
  718SOL    HW1 2153   1.747   1.868   1.020 -2.2820  0.0477 -1.7694
  718SOL    HW2 2154   1.684   2.022   1.023 -2.0343 -0.6992  1.5894
  719SOL     OW 2155   2.820   2.345   1.069  0.6610 -0.2012 -0.1273
  719SOL    HW1 2156   2.742   2.283   1.056  2.1222 -0.1753  0.1904
  719SOL    HW2 2157   2.869   2.368   0.982 -0.8436 -0.8758  3.0680
  720SOL     OW 2158   0.810   1.137   1.107  0.4023 -0.3661 -0.1847
  720SOL    HW1 2159   0.912   1.146   1.108  1.3941 -1.0438 -2.7902
  720SOL    HW2 2160   0.764   1.159   1.021 -0.2230  0.2111  0.3760
  721SOL     OW 2161   1.513   0.660   1.042  0.6353  0.4509 -0.1919
  721SOL    HW1 2162   1.492   0.639   0.949 -2.6064  4.5465  3.8418
  721SOL    HW2 2163   1.602   0.708   1.044 -0.0150 -0.8607  0.7228
  722SOL     OW 2164   1.261   1.221   2.156 -0.6432 -0.1794 -0.3088
  722SOL    HW1 2165   1.269   1.249   2.059 -0.9401  0.4246 -0.4377
  722SOL    HW2 2166   1.185   1.263   2.207 -1.0613  0.1805 -1.7712
  723SOL     OW 2167   1.006   2.973   1.411 -0.3890 -0.0565  0.3169
  723SOL    HW1 2168   1.066   3.054   1.434 -0.9422 -0.4672  1.3280
  723SOL    HW2 2169   1.055   2.883   1.434 -0.8354 -0.9843  1.2885
  724SOL     OW 2170   2.050   2.166   1.690 -0.0280  0.3005 -1.0952
  724SOL    HW1 2171   2.038   2.179   1.793 -1.0309  1.0175  2.7867
  724SOL    HW2 2172   1.963   2.157   1.639 -0.6621  3.3971  1.9936
  725SOL     OW 2173   1.001   2.837   1.176 -0.2664  0.0390 -0.4463
  725SOL    HW1 2174   0.993   2.890   1.260  1.4509 -0.0922  0.2688
  725SOL    HW2 2175   1.097   2.815   1.155 -0.3133 -0.7157  1.5510
  726SOL     OW 2176   1.676   3.103   0.155 -0.7886 -0.5455  0.0046
  726SOL    HW1 2177   1.667   3.097   0.255  1.7546  3.3205 -1.2804
  726SOL    HW2 2178   1.738   3.030   0.117  0.5237  1.5841  0.0743
  727SOL     OW 2179   1.332   1.811   0.838 -0.1584  0.0639  0.3686
  727SOL    HW1 2180   1.365   1.866   0.758 -1.9572  1.6775  1.6437
  727SOL    HW2 2181   1.300   1.720   0.804 -0.3289 -1.3573  1.2560
  728SOL     OW 2182   1.901   0.268   1.973 -0.1336 -0.0892 -0.1510
  728SOL    HW1 2183   1.830   0.279   2.050 -1.7967  0.6129 -0.9530
  728SOL    HW2 2184   1.995   0.252   2.013  1.5717  2.6980  1.0860
  729SOL     OW 2185   2.523   1.855   1.381  0.1459  0.2250  0.1012
  729SOL    HW1 2186   2.434   1.908   1.356  0.7664 -0.5837 -0.3347
  729SOL    HW2 2187   2.537   1.774   1.317 -0.0460 -0.6649 -2.8210
  730SOL     OW 2188   1.965   0.481   2.352 -0.0049 -0.1236  0.6792
  730SOL    HW1 2189   2.052   0.512   2.390 -2.8171 -0.7579 -2.3098
  730SOL    HW2 2190   1.933   0.539   2.277 -1.1937  1.5812 -0.6325
  731SOL     OW 2191   0.562   0.368   1.419 -0.0859  0.7046 -0.1212
  731SOL    HW1 2192   0.571   0.458   1.469  0.7590  0.6738 -0.0778
  731SOL    HW2 2193   0.508   0.388   1.333  1.9762 -1.6922 -0.4651
  732SOL     OW 2194   1.818   0.318   1.245 -0.4986  0.9594 -0.4020
  732SOL    HW1 2195   1.815   0.420   1.257  1.2235 -0.9541 -1.2818
  732SOL    HW2 2196   1.733   0.267   1.272 -0.0150 -1.2445  1.3091
  733SOL     OW 2197   0.856   1.143   1.504  0.0526 -0.8002 -0.7737
  733SOL    HW1 2198   0.832   1.081   1.426  0.8707  1.1560 -1.3009
  733SOL    HW2 2199   0.959   1.139   1.517 -3.2214  1.4696  1.0664
  734SOL     OW 2200   2.561   1.574   0.266  0.0710  0.1523  0.6382
  734SOL    HW1 2201   2.495   1.538   0.196  2.3962  2.2624 -1.5668
  734SOL    HW2 2202   2.638   1.636   0.233 -4.2941 -1.6913  0.4446
  735SOL     OW 2203   0.321   0.722   0.295  0.2866  1.0624 -0.3687
  735SOL    HW1 2204   0.325   0.702   0.192  2.1523 -0.0451 -1.6953
  735SOL    HW2 2205   0.405   0.673   0.329  0.7274  0.9439 -3.4305
  736SOL     OW 2206   1.813   2.499   2.856  0.2171  1.5525 -0.1250
  736SOL    HW1 2207   1.895   2.530   2.899 -1.3485 -0.1817 -2.3152
  736SOL    HW2 2208   1.729   2.523   2.913 -2.6298  0.0480 -1.1911
  737SOL     OW 2209   0.868   1.927   0.808 -0.5150 -0.0013 -0.7434
  737SOL    HW1 2210   0.934   1.904   0.880 -1.4240 -1.0111 -3.4317
  737SOL    HW2 2211   0.928   1.964   0.725  3.9582  1.8136 -1.6762
  738SOL     OW 2212   1.999   3.014   2.273 -0.0196  0.2986  0.0231
  738SOL    HW1 2213   1.902   3.035   2.244  1.0756  0.8853 -0.2739
  738SOL    HW2 2214   2.017   3.041   2.371  0.4216  0.0879 -3.0601
  739SOL     OW 2215   1.755   2.247   2.233  0.6697 -0.5907 -0.1609
  739SOL    HW1 2216   1.831   2.188   2.195  0.3778 -1.5407 -0.6782
  739SOL    HW2 2217   1.761   2.350   2.206  1.3723  2.3107 -0.6193
  740SOL     OW 2218   1.679   2.331   1.917  0.7451  0.7896  0.2001
  740SOL    HW1 2219   1.603   2.388   1.876  0.3746  3.3974 -1.3022
  740SOL    HW2 2220   1.643   2.238   1.932 -1.7439 -2.9893 -0.1433
  741SOL     OW 2221   2.339   1.496   2.621 -0.1895  0.1925  0.2063
  741SOL    HW1 2222   2.324   1.414   2.563  0.1181 -2.0121 -1.4849
  741SOL    HW2 2223   2.391   1.568   2.573 -4.2513 -2.1626 -0.4267
  742SOL     OW 2224   0.894   1.441   2.950 -0.2797 -0.3641 -0.3996
  742SOL    HW1 2225   0.955   1.522   2.958 -0.7490 -0.2828  0.5139
  742SOL    HW2 2226   0.823   1.471   2.882  0.5341  0.8482  0.2457
  743SOL     OW 2227   1.708   1.090   2.441 -0.2660  0.1700 -0.7123
  743SOL    HW1 2228   1.740   1.126   2.353 -0.5827 -2.0843  1.5543
  743SOL    HW2 2229   1.621   1.139   2.465 -2.8194 -0.3340 -0.3446
  744SOL     OW 2230   2.292   3.026   1.370  0.2959 -0.2989 -0.4013
  744SOL    HW1 2231   2.371   2.962   1.381 -2.0460 -0.8596 -0.2146
  744SOL    HW2 2232   2.232   2.998   1.293 -1.1479  0.5523 -0.2684
  745SOL     OW 2233   2.462   1.088   0.816  0.7061  0.2185 -0.2596
  745SOL    HW1 2234   2.489   1.167   0.875  1.1963  4.7164  0.6496
  745SOL    HW2 2235   2.380   1.118   0.756 -2.5166  0.8008 -1.9823
  746SOL     OW 2236   2.195   1.804   1.228  0.2130 -1.1037  0.3757
  746SOL    HW1 2237   2.214   1.789   1.131  0.4040  0.3440  2.3644
  746SOL    HW2 2238   2.248   1.879   1.272  0.0417  1.5124  1.8019
  747SOL     OW 2239   2.009   2.816   0.289 -0.2526  0.4908 -0.1176
  747SOL    HW1 2240   1.922   2.800   0.340  0.1897  0.7227 -0.4149
  747SOL    HW2 2241   2.003   2.772   0.197  0.6406 -0.1846 -1.9380
  748SOL     OW 2242   0.933   2.037   0.010  0.0407 -0.2346 -0.4242
  748SOL    HW1 2243   0.946   1.954   0.070 -0.0837 -0.6357  2.0417
  748SOL    HW2 2244   0.883   2.016   3.055 -2.4129  0.1107  1.5680
  749SOL     OW 2245   2.859   0.297   2.264  0.0858  0.3233 -0.2282
  749SOL    HW1 2246   2.891   0.385   2.289  0.6127 -3.4846 -0.9830
  749SOL    HW2 2247   2.881   0.268   2.171  1.6889 -0.5051 -1.8244
  750SOL     OW 2248   1.169   0.760   1.931  0.4461  0.0458 -0.5422
  750SOL    HW1 2249   1.187   0.704   2.014  2.0707 -0.2627  1.4036
  750SOL    HW2 2250   1.158   0.707   1.846  0.7737  0.6943 -1.3874
  751SOL     OW 2251   2.461   2.713   1.947 -0.0214 -0.2474 -0.4646
  751SOL    HW1 2252   2.434   2.624   1.914  0.0633 -0.3979 -2.8627
  751SOL    HW2 2253   2.448   2.776   1.868 -0.7402 -0.8129  1.5786
  752SOL     OW 2254   2.029   1.410   1.162 -0.2118 -0.2981 -0.2763
  752SOL    HW1 2255   2.027   1.310   1.175  1.4198  1.4631  2.5141
  752SOL    HW2 2256   2.064   1.442   1.075  0.0400 -0.9910  0.8211
  753SOL     OW 2257   1.285   1.079   2.392 -0.5927  0.5211  0.5317
  753SOL    HW1 2258   1.303   1.146   2.313  0.6361  1.6124  0.9075
  753SOL    HW2 2259   1.289   0.986   2.361  0.5508  4.1999  0.3117
  754SOL     OW 2260   0.243   2.438   0.893  0.4084  0.1523 -0.3568
  754SOL    HW1 2261   0.172   2.505   0.910  1.0543 -1.1513  0.5796
  754SOL    HW2 2262   0.261   2.386   0.975 -0.1459 -1.0640 -1.3809
  755SOL     OW 2263   2.565   0.065   1.189 -0.5935  0.1898  0.1259
  755SOL    HW1 2264   2.667   0.062   1.181 -0.8685 -1.5596 -0.1571
  755SOL    HW2 2265   2.537   0.099   1.281  3.6398  0.4497 -0.9510
  756SOL     OW 2266   1.918   2.062   2.093  0.2583  0.2648  0.0548
  756SOL    HW1 2267   1.885   2.036   1.997 -3.0978 -2.5038 -0.4713
  756SOL    HW2 2268   1.968   1.981   2.129 -1.3189  1.3183 -1.7788
  757SOL     OW 2269   2.973   3.083   2.037  0.3369  0.5434 -0.6092
  757SOL    HW1 2270   2.907   3.119   1.963 -1.7885 -2.6640  0.8125
  757SOL    HW2 2271   2.930   3.079   2.131 -1.2809 -1.7995  0.7687
  758SOL     OW 2272   0.515   2.673   1.438  0.2411 -0.1248 -0.2275
  758SOL    HW1 2273   0.618   2.689   1.435  1.8649 -3.3824 -0.5081
  758SOL    HW2 2274   0.481   2.632   1.348 -1.0534 -1.4332 -1.2311
  759SOL     OW 2275   2.007   1.100   0.877  0.2264 -0.4303  0.4605
  759SOL    HW1 2276   1.943   1.027   0.853 -1.6406 -0.1063  0.9193
  759SOL    HW2 2277   1.966   1.200   0.870 -0.5513  3.8202  1.6404
  760SOL     OW 2278   1.377   0.421   1.681 -0.4096  0.1691  0.1212
  760SOL    HW1 2279   1.336   0.395   1.766  0.7904  1.0809  1.9005
  760SOL    HW2 2280   1.340   0.510   1.643  2.3483 -1.1569 -0.2802
  761SOL     OW 2281   2.071   0.299   1.094  0.2390  0.2242 -0.1807
  761SOL    HW1 2282   2.100   0.203   1.067  1.1341  1.0676  1.2206
  761SOL    HW2 2283   1.973   0.297   1.128  0.4854 -0.2210 -1.3640
  762SOL     OW 2284   1.773   2.820   0.399 -0.3154 -0.3440 -0.3667
  762SOL    HW1 2285   1.719   2.906   0.401  0.1083 -1.2627 -0.6766
  762SOL    HW2 2286   1.709   2.744   0.372  0.3609  0.7308 -0.2082
  763SOL     OW 2287   0.904   0.396   1.352 -0.2038 -0.0091 -0.1358
  763SOL    HW1 2288   0.902   0.394   1.454 -0.9457  1.9082  0.3809
  763SOL    HW2 2289   0.833   0.462   1.315 -0.7473  2.7212 -0.3475
  764SOL     OW 2290   2.469   2.527   2.244 -0.0891  0.1655 -0.2368
  764SOL    HW1 2291   2.523   2.475   2.310 -2.5296 -1.5242  0.4420
  764SOL    HW2 2292   2.436   2.613   2.288 -4.6985 -0.5352 -0.1483
  765SOL     OW 2293   2.998   1.200   2.460 -0.0982  0.3909 -0.3275
  765SOL    HW1 2294   2.931   1.132   2.437  3.1897  0.5180  1.1262
  765SOL    HW2 2295   3.036   1.185   2.553 -0.4083  0.5269  3.4125
  766SOL     OW 2296   2.891   1.375   2.268  0.3959 -0.2267 -0.0797
  766SOL    HW1 2297   2.949   1.345   2.347  2.4631 -0.0966  1.9037
  766SOL    HW2 2298   2.899   1.299   2.196 -0.8128 -0.1060 -2.1402
  767SOL     OW 2299   0.461   2.066   1.695  0.3492  0.1216 -0.4661
  767SOL    HW1 2300   0.563   2.042   1.683  4.6523 -0.9709  0.4784
  767SOL    HW2 2301   0.414   2.006   1.763  0.2946  1.1941  1.9802
  768SOL     OW 2302   0.668   0.962   0.021 -0.2204 -0.0277  0.0563
  768SOL    HW1 2303   0.664   1.012   3.063 -0.1917  0.0673  2.5308
  768SOL    HW2 2304   0.632   0.863   0.017  2.5532 -1.4704  0.5834
  769SOL     OW 2305   1.265   2.755   0.100  0.2840 -0.4189 -0.1633
  769SOL    HW1 2306   1.247   2.708   0.013  1.9597  1.3605  2.5026
  769SOL    HW2 2307   1.351   2.706   0.126  2.0210  0.8121  2.7941
  770SOL     OW 2308   0.988   0.024   2.518 -0.2202 -0.5342 -0.1822
  770SOL    HW1 2309   0.944   0.061   2.436 -1.4749 -0.8745  0.5194
  770SOL    HW2 2310   0.991   3.051   2.504  0.1215 -1.7731 -0.8136
  771SOL     OW 2311   0.899   2.768   0.793  0.3469  0.2055  0.2446
  771SOL    HW1 2312   0.839   2.696   0.744  0.8558 -0.5379 -0.1156
  771SOL    HW2 2313   0.862   2.809   0.880  0.2484  2.2904  2.8005
  772SOL     OW 2314   2.491   0.809   0.285  0.2270  0.3184  0.1536
  772SOL    HW1 2315   2.473   0.849   0.378 -1.0745  0.8524  2.4029
  772SOL    HW2 2316   2.558   0.872   0.239  0.3693 -0.3435  2.3222
  773SOL     OW 2317   1.957   0.945   1.688 -0.0878 -0.2172  0.1982
  773SOL    HW1 2318   2.003   0.855   1.698 -2.2145 -0.6447  1.2558
  773SOL    HW2 2319   2.025   1.024   1.675  0.8853  3.1352 -0.0835
  774SOL     OW 2320   0.781   0.203   0.572 -0.3613 -0.3271  0.1211
  774SOL    HW1 2321   0.775   0.132   0.640 -0.8038 -0.7153 -0.2379
  774SOL    HW2 2322   0.713   0.195   0.496  1.9793  1.2751  0.1027
  775SOL     OW 2323   1.664   3.083   0.422  0.0651 -0.3879  0.4002
  775SOL    HW1 2324   1.653   3.054   0.520 -0.8337 -1.0690  0.8740
  775SOL    HW2 2325   1.599   0.033   0.417 -2.8033 -0.1269  1.5770
  776SOL     OW 2326   2.495   0.253   2.329  0.0234 -0.0720 -0.0627
  776SOL    HW1 2327   2.484   0.291   2.236  1.4931 -0.9485 -1.0087
  776SOL    HW2 2328   2.458   0.157   2.340  0.3540 -0.5588 -0.4359
  777SOL     OW 2329   1.486   1.475   3.086 -0.6332 -0.3054  0.1398
  777SOL    HW1 2330   1.576   1.441   3.051  1.8850 -4.0513 -1.2349
  777SOL    HW2 2331   1.429   1.399   3.124 -2.5868  0.4518  0.7553
  778SOL     OW 2332   0.276   2.663   0.343 -0.1357  0.6565  0.0801
  778SOL    HW1 2333   0.208   2.625   0.411 -2.2076  0.1485 -0.0022
  778SOL    HW2 2334   0.274   2.762   0.346 -1.4174 -1.5430  1.3492
  779SOL     OW 2335   3.118   1.500   0.405 -0.3202 -0.6016 -0.5108
  779SOL    HW1 2336   3.120   1.393   0.414 -1.5989 -1.6245  0.4044
  779SOL    HW2 2337   0.086   1.528   0.393 -0.4157 -2.2725 -0.3971
  780SOL     OW 2338   1.825   0.309   1.723  0.0270  0.0682 -0.8773
  780SOL    HW1 2339   1.848   0.288   1.819  1.2251  3.1257  1.1824
  780SOL    HW2 2340   1.833   0.225   1.665  2.3682 -0.0745 -2.4615
  781SOL     OW 2341   1.735   1.376   1.476 -0.3096  0.1835 -0.0901
  781SOL    HW1 2342   1.650   1.426   1.482  1.0531 -1.6384 -0.6697
  781SOL    HW2 2343   1.791   1.410   1.397  1.4281  0.0961 -1.7444
  782SOL     OW 2344   1.912   2.463   1.820  0.1665 -0.2059  0.3113
  782SOL    HW1 2345   1.814   2.425   1.818  3.2070  0.2508 -1.1152
  782SOL    HW2 2346   1.975   2.396   1.863  0.6876 -1.6860  1.1454
  783SOL     OW 2347   1.233   0.613   2.160  0.0583 -0.0669  0.0019
  783SOL    HW1 2348   1.284   0.691   2.210 -3.1039  1.2342  2.3902
  783SOL    HW2 2349   1.288   0.527   2.140 -0.8186 -3.5717 -0.3364
  784SOL     OW 2350   1.751   1.212   2.206  0.5700 -0.5189  0.2509
  784SOL    HW1 2351   1.694   1.196   2.123  1.3574 -0.0851  2.5263
  784SOL    HW2 2352   1.845   1.208   2.174 -0.8447  0.9997  0.8215
  785SOL     OW 2353   2.064   0.444   0.327  0.2275  0.0336 -0.3247
  785SOL    HW1 2354   2.049   0.536   0.367 -1.8371  0.7286 -0.3262
  785SOL    HW2 2355   2.013   0.373   0.373  2.4470 -2.6722 -2.7397
  786SOL     OW 2356   2.809   1.331   0.746  0.1567  0.2732  0.1622
  786SOL    HW1 2357   2.749   1.326   0.667 -0.3073 -1.0983  0.1746
  786SOL    HW2 2358   2.904   1.298   0.717  2.0790 -1.2708 -0.9581
  787SOL     OW 2359   1.851   1.801   0.415  0.4446  0.3309 -0.1285
  787SOL    HW1 2360   1.802   1.849   0.339 -1.0275  1.9890 -1.1511
  787SOL    HW2 2361   1.896   1.718   0.377 -2.0075  1.4945  1.4296
  788SOL     OW 2362   2.398   1.397   1.353 -0.4235 -0.5660 -0.4066
  788SOL    HW1 2363   2.403   1.436   1.259  1.0919  1.8981 -0.5457
  788SOL    HW2 2364   2.345   1.458   1.409 -0.9616  1.1400  0.6329
  789SOL     OW 2365   2.905   1.642   2.363 -0.2742 -0.1595  0.3228
  789SOL    HW1 2366   2.910   1.548   2.326 -0.9660 -1.2784  1.2583
  789SOL    HW2 2367   2.980   1.702   2.315  0.1206  1.7486 -2.3468
  790SOL     OW 2368   0.702   2.957   2.637  0.4014  0.5660 -0.9954
  790SOL    HW1 2369   0.784   2.962   2.581 -2.8368  1.3220  2.1997
  790SOL    HW2 2370   0.624   2.991   2.578 -1.9823 -1.0634 -0.0005
  791SOL     OW 2371   0.684   2.666   2.684 -0.0612 -0.1092 -0.1725
  791SOL    HW1 2372   0.772   2.640   2.726  0.6177  0.8406 -2.0693
  791SOL    HW2 2373   0.684   2.764   2.663  0.8206  1.6662 -0.7328
  792SOL     OW 2374   1.555   0.543   2.148 -0.4982 -0.5607  0.1686
  792SOL    HW1 2375   1.614   0.464   2.127 -1.3637 -1.8213  2.0800
  792SOL    HW2 2376   1.580   0.622   2.089  2.1078 -3.4541 -2.1570
  793SOL     OW 2377   2.754   0.031   2.228 -0.1929  0.0639  0.4762
  793SOL    HW1 2378   2.780   0.115   2.281  2.8695  0.9197  1.0441
  793SOL    HW2 2379   2.657   0.042   2.190 -1.4765  0.8874 -4.2898
  794SOL     OW 2380   0.641   0.701   1.872 -0.2314 -0.1235  0.5850
  794SOL    HW1 2381   0.631   0.651   1.960 -1.6396 -0.7392 -3.1439
  794SOL    HW2 2382   0.552   0.690   1.825  2.2032 -1.7791  0.8572
  795SOL     OW 2383   2.682   1.344   0.521 -0.0625 -0.2322 -0.0752
  795SOL    HW1 2384   2.648   1.440   0.524  1.1022 -0.3753 -1.8588
  795SOL    HW2 2385   2.749   1.344   0.443 -0.9380  0.2544 -0.3327
  796SOL     OW 2386   2.879   2.479   2.728  0.0122 -0.8897  0.5336
  796SOL    HW1 2387   2.831   2.390   2.717  0.5134 -0.2467  1.4822
  796SOL    HW2 2388   2.958   2.477   2.661 -2.3294  0.6589 -0.1793
  797SOL     OW 2389   2.636   2.265   0.205 -0.7132  0.2207 -0.0670
  797SOL    HW1 2390   2.709   2.250   0.133  1.8796 -1.2992 -1.5599
  797SOL    HW2 2391   2.543   2.284   0.166 -0.7661 -0.0071 -1.1887
  798SOL     OW 2392   0.396   0.615   1.749 -0.4694 -0.3182 -0.3992
  798SOL    HW1 2393   0.342   0.533   1.773  0.3835  1.9927  0.0126
  798SOL    HW2 2394   0.335   0.693   1.747  0.1739 -1.7075 -0.6255
  799SOL     OW 2395   2.612   0.570   2.197 -0.2109 -0.6236  0.1522
  799SOL    HW1 2396   2.708   0.556   2.167  1.6885  0.8241 -0.2912
  799SOL    HW2 2397   2.610   0.583   2.296  0.8216  1.3891 -2.7589
  800SOL     OW 2398   2.708   2.319   0.626 -0.4130 -0.0517 -0.5676
  800SOL    HW1 2399   2.642   2.299   0.703  2.8224  0.1362 -2.7511
  800SOL    HW2 2400   2.744   2.416   0.633 -0.5779 -0.9626 -1.5482
  801SOL     OW 2401   1.301   0.785   0.781  0.1488  0.3675 -0.2938
  801SOL    HW1 2402   1.238   0.799   0.863 -1.3020  1.1332 -0.3598
  801SOL    HW2 2403   1.384   0.850   0.790 -0.0989  0.5979 -0.0540
  802SOL     OW 2404   1.437   1.977   1.047  0.6823 -0.0217  0.1815
  802SOL    HW1 2405   1.533   1.949   1.075  1.1499 -0.5735  0.2474
  802SOL    HW2 2406   1.392   1.920   0.976 -0.9714 -1.2418  2.0484
  803SOL     OW 2407   2.988   1.651   0.653  0.5510  0.2416 -0.3432
  803SOL    HW1 2408   3.007   1.574   0.584  0.8177 -0.4666  0.6476
  803SOL    HW2 2409   3.068   1.711   0.664 -1.2462  1.4810  0.1269
  804SOL     OW 2410   1.380   2.502   0.514  0.2288  0.1563  0.2815
  804SOL    HW1 2411   1.296   2.550   0.498  3.4245 -0.9130  1.9112
  804SOL    HW2 2412   1.402   2.490   0.613  0.8185  2.1294 -0.2863
  805SOL     OW 2413   1.466   1.882   2.484 -0.2070  0.3135  0.0237
  805SOL    HW1 2414   1.410   1.884   2.396 -1.2991  0.2975  1.0276
  805SOL    HW2 2415   1.560   1.917   2.468 -2.4548  1.4430 -0.0615
  806SOL     OW 2416   1.583   0.189   1.321  0.0629  0.3594 -0.1950
  806SOL    HW1 2417   1.569   0.225   1.413 -1.0992  1.0907  0.5701
  806SOL    HW2 2418   1.549   0.256   1.254  0.3135 -2.1175 -0.9786
  807SOL     OW 2419   2.108   3.100   0.001 -0.4520  0.1918  0.2088
  807SOL    HW1 2420   2.029   0.004   0.056 -0.5819 -1.8026  0.9242
  807SOL    HW2 2421   2.138   0.046   3.066 -0.0584  2.8483 -0.2430
  808SOL     OW 2422   0.501   1.714   0.017 -0.3567  0.4803  0.2188
  808SOL    HW1 2423   0.415   1.677   3.098 -2.0097 -1.0768  0.3789
  808SOL    HW2 2424   0.575   1.641   0.027  2.7120  0.7150  1.2304
  809SOL     OW 2425   2.871   0.762   2.529  0.0393 -0.0472  0.0634
  809SOL    HW1 2426   2.972   0.741   2.535 -1.6370 -1.0377  0.8378
  809SOL    HW2 2427   2.831   0.724   2.617 -1.6249  0.3249  2.3828
  810SOL     OW 2428   2.946   0.363   2.638  0.1173  0.5259  0.2629
  810SOL    HW1 2429   2.945   0.455   2.598  0.0522  0.8213  0.5352
  810SOL    HW2 2430   3.028   0.307   2.600  1.2803 -0.7540 -1.1511
  811SOL     OW 2431   2.066   2.638   1.692 -0.0656 -0.1664 -0.4169
  811SOL    HW1 2432   1.998   2.572   1.734 -0.9792 -0.3841  0.4694
  811SOL    HW2 2433   2.160   2.601   1.688  1.0471 -0.4928 -1.4651
  812SOL     OW 2434   1.340   0.429   0.352  0.0101  0.2344  0.5842
  812SOL    HW1 2435   1.240   0.432   0.327  1.9284  1.7148 -1.8337
  812SOL    HW2 2436   1.393   0.376   0.278 -0.7695 -1.6236 -1.0760
  813SOL     OW 2437   1.708   0.620   1.916  0.4422 -0.2646  0.6018
  813SOL    HW1 2438   1.646   0.699   1.948  1.7728  3.5140 -1.3052
  813SOL    HW2 2439   1.668   0.579   1.827 -3.3634 -2.6778 -2.3631
  814SOL     OW 2440   2.051   1.102   1.162 -0.5883  0.0170  0.0866
  814SOL    HW1 2441   2.138   1.098   1.216  0.5989  0.2911 -0.3318
  814SOL    HW2 2442   2.072   1.083   1.062  1.5617 -1.0675  1.3008
  815SOL     OW 2443   0.678   0.881   0.735  0.1740 -0.0618 -0.2660
  815SOL    HW1 2444   0.760   0.821   0.719 -0.0093 -0.7991  0.0899
  815SOL    HW2 2445   0.600   0.820   0.772 -0.7512 -2.2659  1.2351
  816SOL     OW 2446   2.147   2.107   2.957 -0.7798 -0.1687  0.4003
  816SOL    HW1 2447   2.129   2.198   2.910  1.1766  1.5341 -0.0720
  816SOL    HW2 2448   2.130   2.026   2.896  2.1303  1.3279 -0.1141
  817SOL     OW 2449   2.930   2.720   1.267 -0.4509 -0.0339  0.0224
  817SOL    HW1 2450   2.901   2.705   1.172 -0.1706  0.4633  1.4139
  817SOL    HW2 2451   3.030   2.745   1.272  2.0064  0.5764 -0.4866
  818SOL     OW 2452   1.345   0.500   3.064 -0.0595  0.1070 -0.3337
  818SOL    HW1 2453   1.260   0.466   3.113 -1.2563  2.0785 -0.0810
  818SOL    HW2 2454   1.400   0.421   3.028 -1.1444  0.9400  2.0098
  819SOL     OW 2455   0.626   0.476   0.602 -0.4823 -0.7241  0.3283
  819SOL    HW1 2456   0.534   0.476   0.638  3.5908  1.1641 -1.8118
  819SOL    HW2 2457   0.694   0.418   0.653 -2.6177  0.2315 -1.6573
  820SOL     OW 2458   2.101   0.752   1.065  0.8360 -0.4506  0.5326
  820SOL    HW1 2459   2.141   0.827   1.013  1.0541  0.8443 -0.3827
  820SOL    HW2 2460   2.085   0.771   1.166 -0.7773 -1.6922  0.9386
  821SOL     OW 2461   2.823   3.013   0.609  0.3797  0.2563  0.1122
  821SOL    HW1 2462   2.778   3.055   0.695  1.3232  4.1172 -0.8612
  821SOL    HW2 2463   2.859   2.919   0.620  2.3620 -0.4670 -0.1145
  822SOL     OW 2464   0.812   2.446   2.520  0.3225 -0.2104  0.0648
  822SOL    HW1 2465   0.869   2.529   2.497 -0.6059 -0.4598  1.5697
  822SOL    HW2 2466   0.724   2.465   2.568 -3.6175 -1.0564  0.0382
  823SOL     OW 2467   3.125   1.334   1.892 -0.1084  0.1169  0.5985
  823SOL    HW1 2468   3.036   1.376   1.917  0.5760 -0.7845  0.0669
  823SOL    HW2 2469   0.001   1.239   1.935  0.8122 -0.6097  0.7940
  824SOL     OW 2470   0.875   2.956   2.217 -0.1468 -0.0970  0.2515
  824SOL    HW1 2471   0.925   2.941   2.305  0.9352  0.9623  4.0064
  824SOL    HW2 2472   0.779   2.957   2.240  4.6220  1.6690  1.7117
  825SOL     OW 2473   1.551   1.960   3.119  0.7750 -0.4029 -0.2979
  825SOL    HW1 2474   1.482   2.023   3.083  2.5353 -0.1251  1.4760
  825SOL    HW2 2475   1.613   1.925   3.046 -1.9645 -2.2149  2.0489
  826SOL     OW 2476   1.249   2.329   2.957  0.0172  0.3226 -0.0183
  826SOL    HW1 2477   1.350   2.323   2.971  1.3457  0.0236 -0.0711
  826SOL    HW2 2478   1.228   2.277   2.874  1.0721 -1.1368 -0.7501
  827SOL     OW 2479   0.318   1.883   1.880 -0.3725  0.0589 -0.3467
  827SOL    HW1 2480   0.250   1.833   1.818 -1.0119 -3.6642  1.4257
  827SOL    HW2 2481   0.380   1.807   1.920  2.2347  0.5741 -2.2538
  828SOL     OW 2482   0.185   1.863   0.952  0.2651 -0.1783  0.2597
  828SOL    HW1 2483   0.280   1.891   0.976 -1.3318  0.7365  0.7453
  828SOL    HW2 2484   0.122   1.938   0.987  0.3205 -0.5367  0.4763
  829SOL     OW 2485   2.870   2.539   0.074 -0.3776  0.2720  0.0562
  829SOL    HW1 2486   2.924   2.479   0.140  2.6410  0.5906  0.6056
  829SOL    HW2 2487   2.776   2.506   0.069 -0.7827  1.3495 -0.8538
  830SOL     OW 2488   1.223   0.901   0.559  0.0704 -0.3264 -0.2207
  830SOL    HW1 2489   1.296   0.872   0.495  0.6281 -1.1389  1.1614
  830SOL    HW2 2490   1.239   0.868   0.654 -3.0368  3.0193 -1.1570
  831SOL     OW 2491   2.786   2.219   3.075 -0.3905  0.8696 -0.7866
  831SOL    HW1 2492   2.873   2.200   3.032  0.0945 -1.0815  2.0062
  831SOL    HW2 2493   2.711   2.193   3.017 -2.3150  0.5975  3.9611
  832SOL     OW 2494   1.670   2.351   0.274  0.0150 -0.1326 -0.4808
  832SOL    HW1 2495   1.593   2.318   0.215 -1.5389 -0.3965  0.1232
  832SOL    HW2 2496   1.714   2.284   0.349  0.2809 -0.6583  3.0128
  833SOL     OW 2497   0.364   0.967   2.640 -0.3641 -0.0531  0.2593
  833SOL    HW1 2498   0.412   0.960   2.728  1.3846  2.1739 -1.4648
  833SOL    HW2 2499   0.317   1.055   2.628  0.1155  0.2213 -2.8474
  834SOL     OW 2500   3.052   0.756   0.893  0.2026  0.0434  0.2576
  834SOL    HW1 2501   3.046   0.704   0.982 -2.8363 -0.3311 -0.3239
  834SOL    HW2 2502   2.972   0.736   0.836  1.4004 -0.7675  3.0283
  835SOL     OW 2503   2.178   0.746   2.248  0.0330 -0.1801 -0.4408
  835SOL    HW1 2504   2.203   0.671   2.319  0.4715  1.4057  0.9301
  835SOL    HW2 2505   2.083   0.774   2.252  0.7053  1.3733 -0.3039
  836SOL     OW 2506   0.728   1.942   0.321  0.1923  0.1877 -0.4301
  836SOL    HW1 2507   0.640   1.886   0.310  1.0589  0.1042 -1.0584
  836SOL    HW2 2508   0.800   1.867   0.336  2.6450 -1.7604  1.1074
  837SOL     OW 2509   2.482   1.378   2.008  0.3629  0.1827  0.0822
  837SOL    HW1 2510   2.437   1.435   2.082  2.1177 -0.0991  0.2453
  837SOL    HW2 2511   2.410   1.321   1.959 -0.7745  1.4684 -4.0334
  838SOL     OW 2512   0.053   1.005   2.241  0.0701  0.3758  0.6044
  838SOL    HW1 2513   0.143   0.974   2.264 -0.5359 -0.0906  0.4290
  838SOL    HW2 2514   0.010   1.046   2.321  1.2622 -0.5170 -1.2495
  839SOL     OW 2515   0.436   2.950   2.979  0.0764 -0.2553  0.2271
  839SOL    HW1 2516   0.387   2.917   2.895 -0.9574  0.3609 -2.6160
  839SOL    HW2 2517   0.516   3.006   2.948  1.4453  1.6302 -0.9817
  840SOL     OW 2518   0.003   1.208   2.690  0.4145 -0.0305 -0.6249
  840SOL    HW1 2519   0.087   1.207   2.745  0.2704 -0.4631 -0.7261
  840SOL    HW2 2520   3.062   1.272   2.730 -0.4300  0.1549 -0.7975
  841SOL     OW 2521   0.379   2.126   2.721  0.0915 -0.0798  0.0676
  841SOL    HW1 2522   0.321   2.166   2.798 -0.1377  2.4448  2.1926
  841SOL    HW2 2523   0.471   2.174   2.707 -0.2000  2.0056  3.2138
  842SOL     OW 2524   1.084   0.226   1.241  0.0370  0.1955  0.2094
  842SOL    HW1 2525   1.107   0.211   1.140  0.3930  1.6477 -0.4073
  842SOL    HW2 2526   1.005   0.291   1.245  0.9291 -1.9367  0.7836
  843SOL     OW 2527   3.107   1.737   2.215  0.2199  0.2268 -0.8573
  843SOL    HW1 2528   3.126   1.735   2.117  0.0973 -0.5900  1.6031
  843SOL    HW2 2529   0.061   1.743   2.271 -1.7728  0.8041  0.1422
  844SOL     OW 2530   1.727   2.017   2.428 -0.0788 -0.6799  0.3393
  844SOL    HW1 2531   1.734   1.944   2.359 -0.0282  1.5889  2.2310
  844SOL    HW2 2532   1.726   2.106   2.381 -2.2561 -0.8318  1.8496
  845SOL     OW 2533   2.156   2.825   2.474 -0.4511 -0.6860 -0.2816
  845SOL    HW1 2534   2.110   2.768   2.546  1.2494  0.3844  0.9367
  845SOL    HW2 2535   2.181   2.910   2.527  0.3068  1.5423  1.5967
  846SOL     OW 2536   2.393   1.758   2.979 -0.2490 -0.2075 -1.1114
  846SOL    HW1 2537   2.425   1.853   2.984 -1.6024 -1.6302 -0.9538
  846SOL    HW2 2538   2.366   1.722   3.069  1.5450  0.4395 -1.8465
  847SOL     OW 2539   2.315   0.132   2.755 -0.6935  0.2736 -0.4369
  847SOL    HW1 2540   2.315   0.236   2.760 -0.9855 -1.2820  0.8169
  847SOL    HW2 2541   2.410   0.091   2.757 -0.4868 -0.4379 -1.1657
  848SOL     OW 2542   2.318   0.456   0.207  0.4004  0.3952 -0.1831
  848SOL    HW1 2543   2.216   0.440   0.217 -1.2501 -2.2583  0.4022
  848SOL    HW2 2544   2.359   0.490   0.294 -1.1339  1.9779 -0.7084
  849SOL     OW 2545   1.428   0.075   2.866 -0.1349 -0.3532 -0.3681
  849SOL    HW1 2546   1.337   0.089   2.820  0.8131  1.3413  1.6861
  849SOL    HW2 2547   1.510   0.061   2.803 -0.7594 -1.7152  0.2861
  850SOL     OW 2548   2.948   0.782   0.509 -0.7418  0.5073 -0.1326
  850SOL    HW1 2549   2.958   0.714   0.432 -1.5083  0.9947 -1.1949
  850SOL    HW2 2550   3.044   0.800   0.534 -0.2737  0.8339 -0.2607
  851SOL     OW 2551   0.223   1.287   1.295  1.0397 -0.0242 -0.0346
  851SOL    HW1 2552   0.321   1.270   1.270 -1.0768  0.4473  1.0475
  851SOL    HW2 2553   0.167   1.321   1.216  0.3877  0.0629 -1.9014
  852SOL     OW 2554   1.355   0.804   2.298  0.0992 -0.8793 -0.2610
  852SOL    HW1 2555   1.448   0.846   2.286 -0.3299  1.8604  0.6772
  852SOL    HW2 2556   1.335   0.793   2.396  0.5878  0.0112 -1.4031
  853SOL     OW 2557   2.168   1.364   3.098 -0.2673  0.0888 -0.3676
  853SOL    HW1 2558   2.215   1.278   3.067 -1.8367  0.8809 -0.3958
  853SOL    HW2 2559   2.109   1.391   3.026  2.6895  0.8788  0.2564
  854SOL     OW 2560   1.336   1.004   1.983  0.1248  0.6929  0.8995
  854SOL    HW1 2561   1.275   0.931   1.944 -2.1010  1.6080 -1.2874
  854SOL    HW2 2562   1.290   1.055   2.059 -1.2592  1.1531 -0.7789
  855SOL     OW 2563   0.320   2.565   2.015  0.2207  0.0325  0.6946
  855SOL    HW1 2564   0.305   2.665   2.005 -0.9277 -0.0180 -1.3890
  855SOL    HW2 2565   0.249   2.518   1.956 -0.7084  1.3812 -1.1655
  856SOL     OW 2566   0.780   1.159   2.509 -0.3516  0.3717 -0.1289
  856SOL    HW1 2567   0.879   1.151   2.533 -2.8638 -1.0058  1.4381
  856SOL    HW2 2568   0.743   1.067   2.479 -0.6628 -1.9979 -1.3552
  857SOL     OW 2569   0.852   1.012   2.790 -0.3915  0.7066 -0.4010
  857SOL    HW1 2570   0.899   1.040   2.877  0.3539 -1.0860 -0.2682
  857SOL    HW2 2571   0.900   0.936   2.742  0.4974  0.6889 -0.4726
  858SOL     OW 2572   0.279   0.355   1.802  0.0100 -0.3432 -0.2682
  858SOL    HW1 2573   0.343   0.284   1.769  1.0089  2.4098  2.3364
  858SOL    HW2 2574   0.186   0.321   1.792  1.8071 -1.5135  0.4266
  859SOL     OW 2575   2.413   0.216   0.736 -0.2677  0.2743 -0.0466
  859SOL    HW1 2576   2.452   0.184   0.649  0.7908  1.0861 -0.8668
  859SOL    HW2 2577   2.434   0.314   0.753 -1.4917 -1.7699  1.8172
  860SOL     OW 2578   1.112   1.112   1.613 -0.0292  1.3335 -0.6365
  860SOL    HW1 2579   1.061   1.022   1.618  0.8533  0.2739  0.6779
  860SOL    HW2 2580   1.211   1.094   1.621 -0.7039  3.4468  0.2745
  861SOL     OW 2581   1.816   0.975   1.237 -0.0501 -0.3422  0.4392
  861SOL    HW1 2582   1.900   1.029   1.214 -0.1327  2.7984 -2.2065
  861SOL    HW2 2583   1.779   0.983   1.331  0.5841 -0.6605  2.4743
  862SOL     OW 2584   0.877   0.101   2.275  0.3449  0.4919 -0.3114
  862SOL    HW1 2585   0.864   0.015   2.220 -2.0390  1.0372 -0.2904
  862SOL    HW2 2586   0.828   0.181   2.237 -1.6933 -1.8061  0.3003
  863SOL     OW 2587   2.830   0.376   1.442  0.6155 -1.0553 -0.4766
  863SOL    HW1 2588   2.759   0.320   1.485  0.4140  0.7759  1.0319
  863SOL    HW2 2589   2.886   0.324   1.378 -0.7563  2.1966  1.2162
  864SOL     OW 2590   2.772   2.918   2.359  0.3055  0.0673 -0.1513
  864SOL    HW1 2591   2.715   2.853   2.302 -0.2003  0.6290 -0.6457
  864SOL    HW2 2592   2.769   3.008   2.314  0.1057 -3.1753  1.0932
  865SOL     OW 2593   1.050   1.152   2.557 -0.4688 -0.2687 -0.2031
  865SOL    HW1 2594   1.077   1.128   2.649  0.8692  1.1531  0.0832
  865SOL    HW2 2595   1.128   1.140   2.494  1.0546 -0.1285 -0.8077
  866SOL     OW 2596   2.703   2.599   1.080 -0.2943  0.2633  0.1286
  866SOL    HW1 2597   2.650   2.619   1.169  1.1801  2.4322 -0.9799
  866SOL    HW2 2598   2.770   2.522   1.097  2.3641 -1.3956  2.5587
  867SOL     OW 2599   2.572   2.685   1.311  0.5829 -0.2812  0.1972
  867SOL    HW1 2600   2.590   2.781   1.306 -0.4357 -2.6224 -2.5130
  867SOL    HW2 2601   2.632   2.646   1.381 -2.4764  1.0552  1.8327
  868SOL     OW 2602   0.100   1.455   1.458 -0.3598 -0.0840 -0.6810
  868SOL    HW1 2603   0.154   1.407   1.386  1.7377  1.9150 -0.0865
  868SOL    HW2 2604   0.032   1.522   1.415  0.8504  1.1576  0.5346
  869SOL     OW 2605   2.203   1.808   2.099  0.2232 -0.4488 -1.0069
  869SOL    HW1 2606   2.266   1.892   2.106  1.8044  1.7609  1.3812
  869SOL    HW2 2607   2.164   1.782   2.191 -1.3747 -2.4777  1.4558
  870SOL     OW 2608   1.538   0.967   0.828 -0.2954  0.0857  0.2733
  870SOL    HW1 2609   1.537   1.020   0.913 -1.1642 -0.6404  3.6496
  870SOL    HW2 2610   1.510   1.016   0.740  2.0176  0.4437 -1.0851
  871SOL     OW 2611   2.635   1.463   1.781 -0.1048  0.2194  0.2112
  871SOL    HW1 2612   2.577   1.440   1.866 -0.0807  1.8359 -1.3271
  871SOL    HW2 2613   2.608   1.554   1.739 -0.3042 -0.1269 -1.3308
  872SOL     OW 2614   1.324   1.586   2.859  0.3577 -0.8765 -0.0710
  872SOL    HW1 2615   1.379   1.565   2.944 -0.4541 -3.8889  0.1751
  872SOL    HW2 2616   1.383   1.636   2.795  0.5202 -2.2888  1.6160
  873SOL     OW 2617   1.088   1.394   1.669 -0.1444  0.2333  0.2102
  873SOL    HW1 2618   0.996   1.432   1.683  0.6763 -2.6142  1.2881
  873SOL    HW2 2619   1.077   1.295   1.650 -0.5203 -1.8515 -0.8149
  874SOL     OW 2620   1.249   1.206   1.374 -0.0744  0.2801  0.6018
  874SOL    HW1 2621   1.224   1.173   1.465 -0.5839  1.5195 -0.0386
  874SOL    HW2 2622   1.222   1.302   1.363  1.1630 -1.5744 -0.2976
  875SOL     OW 2623   2.555   0.003   2.672 -0.0530  0.1188  0.1220
  875SOL    HW1 2624   2.606   0.056   2.597  3.5644 -0.5752  0.3533
  875SOL    HW2 2625   2.592   3.035   2.669  0.8335 -0.0605  0.6726
  876SOL     OW 2626   0.803   0.865   0.401  0.1768 -0.1556 -0.0809
  876SOL    HW1 2627   0.718   0.891   0.356  2.3352 -0.3890 -2.4333
  876SOL    HW2 2628   0.791   0.800   0.483 -1.7875 -1.4954  1.7805
  877SOL     OW 2629   1.939   2.883   0.593 -0.3662 -0.5502  0.2130
  877SOL    HW1 2630   1.872   2.852   0.522  2.1010  1.7351  0.9761
  877SOL    HW2 2631   2.025   2.836   0.570 -0.1250 -0.3943 -0.0564
  878SOL     OW 2632   2.665   2.026   0.350 -0.4617  0.3348  0.0867
  878SOL    HW1 2633   2.701   1.945   0.298  0.8293  2.4427 -1.5161
  878SOL    HW2 2634   2.621   2.094   0.292  1.2551 -2.6710 -0.0362
  879SOL     OW 2635   0.078   2.408   1.891  0.0796  0.1431  0.2084
  879SOL    HW1 2636   3.126   2.424   1.945  4.0177 -3.3189 -0.4663
  879SOL    HW2 2637   0.053   2.345   1.814 -1.0529 -1.2414  0.1835
  880SOL     OW 2638   0.255   1.617   0.862 -0.0639 -0.2138  0.3052
  880SOL    HW1 2639   0.235   1.693   0.930  1.9097  1.3359 -1.5596
  880SOL    HW2 2640   0.319   1.658   0.793 -1.5384  0.0750 -2.0789
  881SOL     OW 2641   1.362   0.336   2.585 -0.6381 -0.1418 -0.0835
  881SOL    HW1 2642   1.326   0.247   2.612  1.9406  1.7622  1.9646
  881SOL    HW2 2643   1.282   0.392   2.549 -1.2531 -0.1788 -0.8515
  882SOL     OW 2644   2.429   1.237   0.470 -0.0190  0.4719 -0.0983
  882SOL    HW1 2645   2.524   1.252   0.500 -1.6911 -0.4478 -2.6210
  882SOL    HW2 2646   2.367   1.200   0.548 -1.2191  0.2048  1.1186
  883SOL     OW 2647   1.596   0.602   2.433 -0.2216  0.0099 -0.3580
  883SOL    HW1 2648   1.499   0.595   2.464 -2.7238 -0.2453 -0.5437
  883SOL    HW2 2649   1.605   0.565   2.338 -0.3253 -1.1306  1.5664
  884SOL     OW 2650   0.052   0.132   2.067  0.3036  0.2606  0.6600
  884SOL    HW1 2651   3.118   0.053   2.068 -0.2255  1.0011  0.9748
  884SOL    HW2 2652   0.135   0.108   2.009  0.5152  0.4403  0.6195
  885SOL     OW 2653   2.103   1.152   2.217  0.1134 -0.3881 -0.0445
  885SOL    HW1 2654   2.076   1.092   2.137  1.3917  0.3606 -1.5011
  885SOL    HW2 2655   2.089   1.112   2.312 -0.7701  1.2306 -0.1748
  886SOL     OW 2656   1.770   0.309   2.887 -0.4633  0.5096  0.0604
  886SOL    HW1 2657   1.831   0.289   2.968 -2.0699  0.6452  0.0506
  886SOL    HW2 2658   1.829   0.326   2.803  0.9260 -0.4009 -0.8351
  887SOL     OW 2659   1.152   2.749   1.509 -0.1359 -0.3333  0.0878
  887SOL    HW1 2660   1.240   2.777   1.465  3.1558  0.4237  0.8484
  887SOL    HW2 2661   1.145   2.647   1.504  1.5107  0.8666  1.4087
  888SOL     OW 2662   2.467   0.977   1.435 -0.5408  0.6617 -0.2851
  888SOL    HW1 2663   2.392   1.020   1.383  2.3332 -0.5373 -0.2662
  888SOL    HW2 2664   2.490   1.032   1.521  2.6825  2.6237  0.1921
  889SOL     OW 2665   1.919   2.868   1.164 -0.2533  0.3013 -0.0131
  889SOL    HW1 2666   1.863   2.835   1.085 -2.5032 -2.1187 -3.6910
  889SOL    HW2 2667   1.867   2.841   1.252  0.1737  1.6238  0.2900
  890SOL     OW 2668   1.052   2.439   0.682 -0.1854 -0.4661  0.1318
  890SOL    HW1 2669   1.112   2.363   0.716  1.4023  2.2488  1.8929
  890SOL    HW2 2670   1.064   2.512   0.750  3.2394  0.7430 -2.0206
  891SOL     OW 2671   2.742   1.333   0.109 -0.4397  0.1779 -0.2064
  891SOL    HW1 2672   2.782   1.370   0.195 -1.1125 -0.3571 -3.2645
  891SOL    HW2 2673   2.805   1.266   0.058  1.4511 -2.1648 -2.2306
  892SOL     OW 2674   2.379   1.717   2.447  0.0630  0.5510  0.0523
  892SOL    HW1 2675   2.426   1.767   2.367  2.2760  0.4171 -0.7410
  892SOL    HW2 2676   2.278   1.707   2.434  0.1952  0.1217  0.0992
  893SOL     OW 2677   2.455   2.484   0.959  0.4439 -0.1531  0.5488
  893SOL    HW1 2678   2.475   2.393   0.922  0.4602 -1.9619  0.1578
  893SOL    HW2 2679   2.548   2.531   0.973  2.3483 -0.1605  2.3270
  894SOL     OW 2680   0.060   0.833   0.620 -0.2055  0.9870 -0.5728
  894SOL    HW1 2681   0.092   0.752   0.677  0.1219 -1.8685  1.0886
  894SOL    HW2 2682   0.136   0.888   0.591 -0.5448 -0.2632  1.8722
  895SOL     OW 2683   2.697   2.388   2.353 -0.5480  0.0884  0.3464
  895SOL    HW1 2684   2.685   2.358   2.447 -0.7953  0.6416 -3.9786
  895SOL    HW2 2685   2.728   2.315   2.286  0.2551  1.3524 -2.5526
  896SOL     OW 2686   1.960   2.688   2.632  0.3935 -0.0155 -0.3944
  896SOL    HW1 2687   1.969   2.652   2.728  0.1743  0.5342  0.0023
  896SOL    HW2 2688   1.883   2.644   2.584 -2.0440 -3.8690  0.2051
  897SOL     OW 2689   0.142   1.748   1.702 -0.3512  0.0801 -0.0724
  897SOL    HW1 2690   0.179   1.658   1.687  2.5720  3.1212 -0.9082
  897SOL    HW2 2691   0.126   1.801   1.615  0.4345 -1.4085 -2.4831
  898SOL     OW 2692   0.460   2.332   2.071 -0.7058 -0.3789  0.5040
  898SOL    HW1 2693   0.399   2.246   2.063  0.9807 -1.6151  0.2365
  898SOL    HW2 2694   0.415   2.417   2.042  1.3238 -0.8289  0.9415
  899SOL     OW 2695   1.548   0.224   1.586  0.3307  0.2444  0.3298
  899SOL    HW1 2696   1.479   0.297   1.612 -0.3418  1.8996  0.8939
  899SOL    HW2 2697   1.547   0.152   1.657  2.2240 -0.7027 -4.7301
  900SOL     OW 2698   1.495   1.066   0.320  0.1794 -0.4328 -0.5212
  900SOL    HW1 2699   1.522   0.972   0.300  1.9714 -0.6183  0.5699
  900SOL    HW2 2700   1.401   1.082   0.286 -2.7134  2.3432  0.6069
  901SOL     OW 2701   1.440   1.175   2.590 -0.1330 -0.0276 -0.3496
  901SOL    HW1 2702   1.384   1.157   2.507  0.0463 -2.2915 -2.3608
  901SOL    HW2 2703   1.446   1.092   2.647 -0.7700  1.0385  1.3428
  902SOL     OW 2704   0.046   2.515   1.236  0.1671 -0.0925 -0.2602
  902SOL    HW1 2705   0.056   2.595   1.302  0.6745  3.5139 -1.4155
  902SOL    HW2 2706   0.053   2.551   1.137  0.8382  2.5908 -1.4951
  903SOL     OW 2707   2.628   1.487   2.342  0.2871 -0.0007  0.2083
  903SOL    HW1 2708   2.633   1.458   2.442 -2.1304 -1.1998  2.2219
  903SOL    HW2 2709   2.694   1.433   2.289 -1.8643 -0.5629 -1.7349
  904SOL     OW 2710   1.442   1.728   0.097 -0.6285  0.7116  0.5514
  904SOL    HW1 2711   1.471   1.642   0.048 -1.5159  0.0947 -2.4872
  904SOL    HW2 2712   1.472   1.815   0.047  4.8176 -1.5347  2.1944
  905SOL     OW 2713   2.023   2.911   1.775 -0.0602 -0.1689 -0.1802
  905SOL    HW1 2714   2.039   2.808   1.748  0.4830 -4.6648  0.2484
  905SOL    HW2 2715   2.115   2.959   1.760  2.8382  0.4518  1.4289
  906SOL     OW 2716   1.784   2.884   0.013  0.0227  0.3255 -0.2697
  906SOL    HW1 2717   1.861   2.814   0.009  1.5678 -0.9546 -0.8965
  906SOL    HW2 2718   1.787   2.946   3.061 -1.2472 -0.2760 -1.5238
  907SOL     OW 2719   0.317   2.770   0.930 -0.0825 -0.4122 -0.1679
  907SOL    HW1 2720   0.318   2.870   0.942  2.5135  0.9600  0.8461
  907SOL    HW2 2721   0.366   2.747   0.841  1.9065 -0.5412 -1.2055
  908SOL     OW 2722   0.620   3.041   1.710  0.0902 -1.1618 -0.3332
  908SOL    HW1 2723   0.560   3.084   1.785 -2.5059  0.5629  0.7203
  908SOL    HW2 2724   0.723   3.045   1.728  2.1515 -0.2220  1.4654
  909SOL     OW 2725   1.797   0.563   1.300  0.4172  0.5555  0.7400
  909SOL    HW1 2726   1.782   0.603   1.392 -1.8124  1.1447  0.9127
  909SOL    HW2 2727   1.806   0.638   1.234  0.0498 -2.0339  2.4978
  910SOL     OW 2728   0.539   0.576   0.358  0.0115 -0.1484 -0.2633
  910SOL    HW1 2729   0.570   0.546   0.452 -0.2075  2.3051  0.2330
  910SOL    HW2 2730   0.532   0.494   0.297 -0.4149  1.2880 -1.7123
  911SOL     OW 2731   0.299   0.022   3.118 -0.5089  0.1649 -0.2465
  911SOL    HW1 2732   0.213   3.124   0.046 -1.7990 -1.2226  1.6265
  911SOL    HW2 2733   0.347   3.071   3.079 -1.4839  0.5442  0.5931
  912SOL     OW 2734   0.005   2.220   2.672 -0.1810 -0.0150  0.1371
  912SOL    HW1 2735   0.017   2.321   2.697  0.4749 -1.0572  2.0312
  912SOL    HW2 2736   0.041   2.213   2.576 -1.7967  0.0589 -0.2716
  913SOL     OW 2737   2.387   2.749   0.199 -0.1903  0.4535  0.2101
  913SOL    HW1 2738   2.393   2.744   0.300 -0.5680  1.0878  1.0322
  913SOL    HW2 2739   2.446   2.824   0.164  2.0270  1.1473  0.3657
  914SOL     OW 2740   1.319   1.779   2.038  0.1338  0.2212 -0.1737
  914SOL    HW1 2741   1.374   1.699   2.066 -0.0712  0.1941  0.6558
  914SOL    HW2 2742   1.314   1.849   2.111 -1.7962 -0.3140 -0.2412
  915SOL     OW 2743   2.815   2.627   2.358  0.3870  0.2272 -0.3649
  915SOL    HW1 2744   2.915   2.617   2.355 -0.4954 -1.2748  1.7697
  915SOL    HW2 2745   2.776   2.534   2.370  0.3212  0.8238 -1.0456
  916SOL     OW 2746   2.935   0.569   2.297  0.3333 -0.9581  0.7108
  916SOL    HW1 2747   2.922   0.649   2.357  0.2880  1.0293 -0.3131
  916SOL    HW2 2748   3.025   0.569   2.256 -3.2184 -0.7537  0.4933
  917SOL     OW 2749   1.909   0.112   0.120 -0.0952 -0.5347  0.1883
  917SOL    HW1 2750   1.945   0.098   0.213  1.6139 -1.8168 -1.2072
  917SOL    HW2 2751   1.821   0.059   0.106  0.6099 -1.0168 -0.8633
  918SOL     OW 2752   1.913   2.672   2.327  0.0535 -0.3648  0.1339
  918SOL    HW1 2753   1.992   2.734   2.346  1.0315 -0.1819 -1.4132
  918SOL    HW2 2754   1.956   2.588   2.287 -1.2001 -1.2027  1.1365
  919SOL     OW 2755   1.649   2.379   1.611 -0.0438  0.4804  0.7566
  919SOL    HW1 2756   1.619   2.454   1.674  2.6551  2.3982 -1.5972
  919SOL    HW2 2757   1.573   2.313   1.605  2.5026  2.5997 -0.4883
  920SOL     OW 2758   0.249   1.144   0.088 -0.4770 -0.7523 -0.4467
  920SOL    HW1 2759   0.194   1.107   0.167 -0.6833  1.6207  0.5845
  920SOL    HW2 2760   0.346   1.157   0.122 -0.0940  1.6946  2.2640
  921SOL     OW 2761   2.507   0.946   2.494  0.5465 -0.4007 -0.0020
  921SOL    HW1 2762   2.539   0.943   2.395  0.5230 -0.7183 -0.5630
  921SOL    HW2 2763   2.485   1.040   2.523  0.5735 -3.0396 -1.0582
  922SOL     OW 2764   1.015   1.818   2.806 -0.2749  0.2225 -0.2447
  922SOL    HW1 2765   0.941   1.884   2.827  0.0397  0.5603 -0.6013
  922SOL    HW2 2766   1.026   1.766   2.892 -0.3304 -1.4788  0.0135
  923SOL     OW 2767   0.574   1.203   2.320  0.4259 -0.7322  0.1124
  923SOL    HW1 2768   0.626   1.189   2.407 -2.7425 -2.9887 -2.7786
  923SOL    HW2 2769   0.583   1.122   2.261  2.1084  0.2682  2.6493
  924SOL     OW 2770   0.574   2.441   2.845  0.3068  0.4751 -0.2962
  924SOL    HW1 2771   0.608   2.443   2.940 -0.2723 -0.2418  3.0633
  924SOL    HW2 2772   0.587   2.534   2.809  0.2053 -1.2459  1.0096
  925SOL     OW 2773   1.590   1.367   0.941 -0.2652 -0.1784 -0.2718
  925SOL    HW1 2774   1.597   1.277   0.992 -1.8417  1.3563 -2.2918
  925SOL    HW2 2775   1.504   1.367   0.885  0.7432  2.3731 -0.7039
  926SOL     OW 2776   1.630   0.322   2.577  0.0466  0.3952  0.2417
  926SOL    HW1 2777   1.528   0.335   2.563  1.6467  1.0982 -0.8358
  926SOL    HW2 2778   1.663   0.411   2.611 -2.3357  1.2898  0.4045
  927SOL     OW 2779   2.565   2.930   2.131  0.0081  0.3699  0.4054
  927SOL    HW1 2780   2.497   2.863   2.093  1.6412  1.4233 -0.9531
  927SOL    HW2 2781   2.545   3.023   2.099 -0.8198 -1.4146  2.4146
  928SOL     OW 2782   0.553   1.319   2.898  0.3664 -0.2120 -0.5708
  928SOL    HW1 2783   0.465   1.337   2.851  1.1783  0.1453 -0.9421
  928SOL    HW2 2784   0.615   1.399   2.886 -0.6781  1.2677 -1.3421
  929SOL     OW 2785   3.086   0.148   0.857  0.6137  0.2855 -0.1746
  929SOL    HW1 2786   3.084   0.189   0.763 -4.3869 -1.4208  0.4149
  929SOL    HW2 2787   0.052   0.123   0.881 -1.0918  0.5481  0.8209
  930SOL     OW 2788   2.350   0.510   1.856  0.0447  0.2595  0.7374
  930SOL    HW1 2789   2.289   0.440   1.818 -3.4158 -1.7414  0.4328
  930SOL    HW2 2790   2.422   0.527   1.786  0.6312  3.0455 -0.4319
  931SOL     OW 2791   2.313   1.095   3.030  0.2927  0.0242  0.3155
  931SOL    HW1 2792   2.268   1.061   3.111  3.3066  2.8853 -0.1303
  931SOL    HW2 2793   2.412   1.064   3.015 -0.1051 -0.0525  1.2151
  932SOL     OW 2794   2.539   1.665   1.198 -0.5270  0.0309  0.1094
  932SOL    HW1 2795   2.636   1.657   1.169 -0.0894  0.2256 -1.1948
  932SOL    HW2 2796   2.484   1.603   1.138 -2.2658 -1.4531 -1.0086
  933SOL     OW 2797   2.851   2.572   1.697  0.4573  0.2248 -0.0130
  933SOL    HW1 2798   2.864   2.570   1.797  0.8233  2.8422  1.6543
  933SOL    HW2 2799   2.780   2.638   1.669  1.1858 -0.7695 -0.9029
  934SOL     OW 2800   0.572   3.011   1.164 -0.1508  0.0326  0.7040
  934SOL    HW1 2801   0.646   2.960   1.109  0.4240  1.9886 -3.5635
  934SOL    HW2 2802   0.620   3.075   1.227  3.0334  0.8059  0.9890
  935SOL     OW 2803   2.453   0.771   2.102  0.2179  0.8503 -0.3461
  935SOL    HW1 2804   2.370   0.789   2.158  1.8728  0.5680 -0.3573
  935SOL    HW2 2805   2.510   0.696   2.135 -2.4440 -0.2981 -2.2624
  936SOL     OW 2806   2.281   0.902   1.901  0.4597  0.3794 -0.0077
  936SOL    HW1 2807   2.309   0.843   1.819 -1.5403  0.5269 -0.9196
  936SOL    HW2 2808   2.325   0.860   1.981 -0.1646 -0.9596 -4.3523
  937SOL     OW 2809   1.811   1.231   1.856  0.5242  0.0305 -0.2779
  937SOL    HW1 2810   1.723   1.188   1.891 -0.2305 -1.6599 -0.5138
  937SOL    HW2 2811   1.809   1.254   1.755  1.9827  3.1346 -3.8624
  938SOL     OW 2812   0.437   2.536   3.111  0.1577  0.0890 -0.0863
  938SOL    HW1 2813   0.483   2.624   3.123 -2.2772 -0.5403 -0.3108
  938SOL    HW2 2814   0.374   2.517   0.056 -2.1687  0.1394 -0.0713
  939SOL     OW 2815   2.162   0.447   2.964 -0.4918  0.2781 -0.6466
  939SOL    HW1 2816   2.086   0.489   2.912  0.4788  0.8608 -1.5134
  939SOL    HW2 2817   2.230   0.519   2.984 -5.5477 -0.3040 -2.7930
  940SOL     OW 2818   1.183   2.209   0.784 -0.9879 -0.7598 -0.6109
  940SOL    HW1 2819   1.183   2.204   0.887  0.7793 -0.6566  1.4491
  940SOL    HW2 2820   1.127   2.138   0.741 -1.6682 -0.4455  1.3003
  941SOL     OW 2821   1.248   2.163   1.794  0.0210 -0.3815  0.2517
  941SOL    HW1 2822   1.165   2.200   1.748  1.7959 -2.0066  0.2638
  941SOL    HW2 2823   1.238   2.063   1.822  0.1159  2.8306  0.0685
  942SOL     OW 2824   3.125   2.164   0.083 -0.4221  0.5134  0.3264
  942SOL    HW1 2825   0.028   2.070   0.102  1.0841 -1.6104  1.2162
  942SOL    HW2 2826   3.082   2.168   3.120  2.5581 -0.0358 -1.7703
  943SOL     OW 2827   2.237   0.118   1.498  0.2744 -0.1844 -0.1554
  943SOL    HW1 2828   2.256   0.029   1.451  1.3108 -1.3121 -1.5338
  943SOL    HW2 2829   2.154   0.166   1.457  0.6318  1.6529 -1.3321
  944SOL     OW 2830   1.798   2.202   2.929 -0.1025  0.7623 -0.0048
  944SOL    HW1 2831   1.804   2.139   2.849 -0.9770 -0.4031  2.7243
  944SOL    HW2 2832   1.813   2.302   2.905  0.0609 -0.9877 -0.1755
  945SOL     OW 2833   2.523   2.239   0.817  0.1063  0.0860  0.6449
  945SOL    HW1 2834   2.541   2.218   0.912  0.5366 -0.5157 -2.3607
  945SOL    HW2 2835   2.452   2.174   0.785 -1.8967 -1.4739 -1.2524
  946SOL     OW 2836   1.243   1.396   2.703  0.4718  0.0698 -0.2888
  946SOL    HW1 2837   1.167   1.430   2.637 -3.2286  2.4765 -0.6002
  946SOL    HW2 2838   1.278   1.477   2.756 -2.4225 -0.9834 -0.2288
  947SOL     OW 2839   0.078   0.572   2.234 -0.1473 -0.0897 -0.4344
  947SOL    HW1 2840   0.142   0.640   2.194 -0.8170  0.9569 -0.6027
  947SOL    HW2 2841   0.125   0.482   2.243 -0.5378  1.0014 -0.1446
  948SOL     OW 2842   3.057   1.240   0.673 -0.1479 -0.4309  0.0323
  948SOL    HW1 2843   0.025   1.278   0.668 -0.3051  0.1299  2.6333
  948SOL    HW2 2844   3.054   1.157   0.733 -0.3409 -2.3262  3.2623
  949SOL     OW 2845   0.696   0.579   2.691  0.6884  0.0117 -0.3505
  949SOL    HW1 2846   0.663   0.589   2.593 -0.2852 -0.9751 -0.0422
  949SOL    HW2 2847   0.732   0.481   2.705 -0.3004 -0.6191  3.1262
  950SOL     OW 2848   0.238   0.605   1.218  0.1427  0.1523  0.4410
  950SOL    HW1 2849   0.166   0.635   1.283  2.2328  1.1756  1.6283
  950SOL    HW2 2850   0.296   0.684   1.202 -1.3842 -5.3934 -0.3058
  951SOL     OW 2851   0.298   1.222   2.564  0.0822  0.0875  0.4740
  951SOL    HW1 2852   0.219   1.270   2.524 -1.3877 -0.9004  0.1146
  951SOL    HW2 2853   0.327   1.263   2.645 -0.1745 -0.4388 -1.4594
  952SOL     OW 2854   1.698   2.159   0.876  0.2774  0.4637  0.0814
  952SOL    HW1 2855   1.612   2.211   0.902 -1.0667  0.0381  1.7037
  952SOL    HW2 2856   1.780   2.218   0.884 -1.6518  1.7077  2.8866
  953SOL     OW 2857   0.498   2.833   0.091 -0.6813  0.3803  0.3912
  953SOL    HW1 2858   0.464   2.901   0.162  0.6405 -1.2099 -1.2246
  953SOL    HW2 2859   0.489   2.880   0.000  0.3666  2.6505  1.2787
  954SOL     OW 2860   2.820   0.990   1.221  0.1245  0.3693  0.2657
  954SOL    HW1 2861   2.788   1.064   1.284  1.9688 -0.4947  0.0730
  954SOL    HW2 2862   2.824   0.897   1.263  0.8077  0.7126 -3.2280
  955SOL     OW 2863   1.723   1.383   2.943 -0.4115 -0.5999  0.0102
  955SOL    HW1 2864   1.800   1.443   2.966 -1.4095  1.4220  0.8915
  955SOL    HW2 2865   1.744   1.285   2.968  0.5067  1.9689 -1.2561
  956SOL     OW 2866   1.330   0.729   2.571 -0.0011 -0.2928 -0.3687
  956SOL    HW1 2867   1.338   0.670   2.659  1.7700  1.2641  3.2200
  956SOL    HW2 2868   1.234   0.768   2.569  2.2889  1.2946  0.2203
  957SOL     OW 2869   0.968   0.428   1.648 -0.1727  0.3774  0.7111
  957SOL    HW1 2870   1.029   0.512   1.646 -1.7515  0.7254 -4.1858
  957SOL    HW2 2871   1.019   0.339   1.641  2.5300  0.3241 -1.9401
  958SOL     OW 2872   0.308   1.883   0.537  0.2175  0.1729  0.0577
  958SOL    HW1 2873   0.212   1.851   0.565 -1.6209 -0.4508 -0.1999
  958SOL    HW2 2874   0.300   1.930   0.449  0.5698  1.1199  0.2413
  959SOL     OW 2875   2.118   0.706   1.629 -0.0813 -0.2958  0.6236
  959SOL    HW1 2876   2.217   0.723   1.622  1.5893 -0.0246 -0.9262
  959SOL    HW2 2877   2.099   0.630   1.700 -2.8224 -2.1502  3.5783
  960SOL     OW 2878   0.300   1.614   2.998 -0.2084  0.2297 -0.4859
  960SOL    HW1 2879   0.312   1.584   2.897  1.5055  0.6918 -2.6837
  960SOL    HW2 2880   0.242   1.547   3.049  0.3367  0.5537  2.3459
  961SOL     OW 2881   0.678   1.724   0.864  0.0017  0.0537 -0.1747
  961SOL    HW1 2882   0.614   1.715   0.785 -0.4891  0.5302  1.0268
  961SOL    HW2 2883   0.726   1.812   0.858 -1.2120  1.1202  0.1146
  962SOL     OW 2884   0.670   1.588   1.296 -0.3474 -0.0353 -0.2318
  962SOL    HW1 2885   0.612   1.610   1.213  1.5565 -2.6821 -1.0299
  962SOL    HW2 2886   0.688   1.492   1.311  3.0342  1.2694 -0.9784
  963SOL     OW 2887   1.465   2.291   2.632 -0.2346 -0.5191  0.3341
  963SOL    HW1 2888   1.436   2.195   2.631 -0.0022  2.4476 -1.7552
  963SOL    HW2 2889   1.567   2.291   2.629  1.3209  0.2708 -1.7502
  964SOL     OW 2890   0.093   2.906   2.351  0.0911 -0.2321  0.1106
  964SOL    HW1 2891   3.129   2.870   2.378 -1.4004 -1.4443  0.5471
  964SOL    HW2 2892   0.139   2.835   2.289  2.3389 -2.4469 -0.9727
  965SOL     OW 2893   3.033   2.139   2.952 -0.3228  0.4696  0.4362
  965SOL    HW1 2894   3.080   2.192   2.881 -1.3274  0.4885  2.7226
  965SOL    HW2 2895   2.981   2.063   2.906 -4.6742  0.0300 -3.1229
  966SOL     OW 2896   2.850   1.593   2.857 -0.1437 -0.0755 -0.1108
  966SOL    HW1 2897   2.750   1.572   2.867 -0.3977 -3.2459 -0.0746
  966SOL    HW2 2898   2.887   1.613   2.948  0.1152 -0.0194  0.1602
  967SOL     OW 2899   1.990   0.011   0.361 -0.2380 -0.1111 -0.6788
  967SOL    HW1 2900   1.899   3.091   0.355 -2.3261 -1.2682 -0.4056
  967SOL    HW2 2901   2.067   3.074   0.387 -0.9577 -1.9533 -1.3428
  968SOL     OW 2902   2.739   0.004   0.836 -0.0048  0.2866  0.0165
  968SOL    HW1 2903   2.646   3.113   0.871  3.9839 -0.7917 -0.1581
  968SOL    HW2 2904   2.749   0.102   0.803  1.9466  2.5259  0.4942
  969SOL     OW 2905   0.357   0.941   2.001 -0.6211  0.6846 -0.2537
  969SOL    HW1 2906   0.359   0.914   1.901 -0.1577  0.6561  0.9267
  969SOL    HW2 2907   0.341   1.039   2.018 -1.3245  0.9029 -0.1150
  970SOL     OW 2908   2.040   1.876   2.816 -0.1054  0.4252 -0.5119
  970SOL    HW1 2909   2.106   1.802   2.791  0.5434  1.1043  0.2682
  970SOL    HW2 2910   1.998   1.866   2.908 -1.7008 -1.4359 -2.9316
  971SOL     OW 2911   2.259   0.351   1.670  0.3365 -0.1379  0.0478
  971SOL    HW1 2912   2.264   0.264   1.619 -0.3885 -0.7848  2.6575
  971SOL    HW2 2913   2.191   0.415   1.620 -0.4853  2.2263 -0.9597
  972SOL     OW 2914   2.988   0.365   0.996  0.2869  0.2189 -0.5425
  972SOL    HW1 2915   2.911   0.414   0.949  2.1334 -0.4368  1.4313
  972SOL    HW2 2916   3.036   0.296   0.934  1.8227 -0.9658 -1.2517
  973SOL     OW 2917   0.400   0.384   2.421  0.4116  0.2087  0.1686
  973SOL    HW1 2918   0.337   0.358   2.346 -0.2566  1.5665  0.3095
  973SOL    HW2 2919   0.429   0.295   2.468 -1.5382 -4.5121  0.8222
  974SOL     OW 2920   2.893   0.975   1.743  0.2342 -0.3252 -0.5774
  974SOL    HW1 2921   2.890   1.074   1.769  1.5809 -1.1488  1.8454
  974SOL    HW2 2922   2.801   0.926   1.761 -0.5858  0.2849  1.0144
  975SOL     OW 2923   1.734   3.020   2.201 -0.3122  0.3335 -0.3933
  975SOL    HW1 2924   1.789   3.050   2.121  0.7719 -1.2996 -0.9602
  975SOL    HW2 2925   1.686   2.933   2.172  1.4433  0.4317  0.8039
  976SOL     OW 2926   2.092   1.609   1.602  0.7716  0.8825 -0.0911
  976SOL    HW1 2927   2.108   1.601   1.503 -1.0948 -1.5151  1.1095
  976SOL    HW2 2928   2.175   1.649   1.640 -2.8226 -1.5705 -0.7623
  977SOL     OW 2929   0.030   2.818   3.097  0.2842 -0.8508  0.2270
  977SOL    HW1 2930   0.024   2.774   3.003 -1.1165 -2.2418  1.3851
  977SOL    HW2 2931   0.066   2.747   0.028  1.2689  2.4878  1.1851
  978SOL     OW 2932   2.188   1.341   2.019  0.7575  0.0351 -0.0383
  978SOL    HW1 2933   2.135   1.409   2.070  1.7428 -1.6986 -1.5129
  978SOL    HW2 2934   2.158   1.253   2.061 -0.8085 -0.9336  2.9523
  979SOL     OW 2935   1.096   0.842   2.583 -0.0780  0.2090  0.0262
  979SOL    HW1 2936   1.018   0.796   2.631 -1.7828  0.8446 -0.7237
  979SOL    HW2 2937   1.054   0.904   2.506  1.5746  1.9643  0.1735
  980SOL     OW 2938   1.800   1.979   2.719  0.3310 -0.6386  0.4470
  980SOL    HW1 2939   1.786   1.982   2.616 -0.3528 -1.9087 -0.4193
  980SOL    HW2 2940   1.888   1.936   2.746  0.0478  0.9730  1.3336
  981SOL     OW 2941   1.684   0.931   1.759  0.6252 -0.0846  0.1456
  981SOL    HW1 2942   1.782   0.964   1.738  1.1147  1.5153  1.0044
  981SOL    HW2 2943   1.650   0.965   1.846  1.3173  0.2301  1.5018
  982SOL     OW 2944   0.448   0.358   0.217  0.2728  0.5995  0.0159
  982SOL    HW1 2945   0.355   0.357   0.257 -1.3272  0.2241 -0.9037
  982SOL    HW2 2946   0.447   0.313   0.126 -1.9477 -0.5692 -1.2638
  983SOL     OW 2947   2.001   0.651   2.821 -0.5603  0.5298 -0.1958
  983SOL    HW1 2948   2.050   0.736   2.791  1.7009  1.5048  0.4723
  983SOL    HW2 2949   1.937   0.675   2.901 -3.1758 -2.8629  0.2663
  984SOL     OW 2950   0.986   0.192   2.748 -0.7138  0.0868  0.2633
  984SOL    HW1 2951   1.001   0.138   2.660  0.8113  0.1295 -0.7852
  984SOL    HW2 2952   1.003   0.131   2.830  1.2974 -3.3408  0.2888
  985SOL     OW 2953   1.308   2.685   1.804  0.1742 -0.3493 -0.1236
  985SOL    HW1 2954   1.209   2.699   1.812 -3.4565 -0.1584  0.2174
  985SOL    HW2 2955   1.352   2.774   1.786  1.0399 -0.0970 -0.5748
  986SOL     OW 2956   2.243   3.055   1.715 -0.2606 -0.1656  0.5572
  986SOL    HW1 2957   2.249   3.107   1.622  0.8020 -1.6505 -1.8145
  986SOL    HW2 2958   2.237   3.126   1.793 -0.4571  1.4278  0.9418
  987SOL     OW 2959   1.862   1.327   0.823  0.3198 -0.1385 -0.4708
  987SOL    HW1 2960   1.777   1.346   0.875  1.2283  1.3208  0.6993
  987SOL    HW2 2961   1.883   1.413   0.773 -1.1094  0.1633  2.1978
  988SOL     OW 2962   2.526   1.094   1.680  0.0949  0.1824  0.2239
  988SOL    HW1 2963   2.444   1.116   1.736  0.4586  1.3419 -0.7811
  988SOL    HW2 2964   2.576   1.175   1.649 -0.3407 -0.0895 -1.6493
  989SOL     OW 2965   1.895   2.108   0.029 -0.5065  0.2232  0.0096
  989SOL    HW1 2966   1.887   2.142   3.064 -0.7065  1.6924  0.4641
  989SOL    HW2 2967   1.983   2.143   0.068 -0.4338  0.2319 -3.8846
  990SOL     OW 2968   1.623   0.878   2.301  0.1090 -0.0798 -0.6247
  990SOL    HW1 2969   1.629   0.785   2.342  1.0710  2.0264  0.2713
  990SOL    HW2 2970   1.685   0.940   2.353 -2.3096  0.3136  1.5277
  991SOL     OW 2971   1.121   0.569   0.691 -0.2509  0.1690 -0.4206
  991SOL    HW1 2972   1.197   0.516   0.641 -0.0102 -0.5932 -0.3431
  991SOL    HW2 2973   1.157   0.665   0.704  1.2867 -1.2609  1.5014
  992SOL     OW 2974   0.100   0.940   1.172 -0.1773  0.2607 -0.0297
  992SOL    HW1 2975   0.073   0.979   1.263  0.3425 -1.6012  3.3549
  992SOL    HW2 2976   0.047   0.976   1.098  0.9747  1.8367  2.4364
  993SOL     OW 2977   2.009   0.525   1.818  0.3480  0.1083 -0.2927
  993SOL    HW1 2978   2.009   0.459   1.896 -1.3439 -0.9624 -0.8714
  993SOL    HW2 2979   1.916   0.545   1.784  1.7576 -0.6122  0.7673
  994SOL     OW 2980   1.296   1.832   1.782 -0.3308  0.0131 -0.3506
  994SOL    HW1 2981   1.307   1.823   1.883 -3.3259  0.9026 -0.6979
  994SOL    HW2 2982   1.196   1.853   1.764 -0.1453  0.5149  0.5796
  995SOL     OW 2983   2.206   1.674   2.781  0.1819  0.0017  0.0975
  995SOL    HW1 2984   2.241   1.596   2.722  0.8482 -3.2550  0.1495
  995SOL    HW2 2985   2.275   1.718   2.841  0.6287 -0.0651  1.6280
  996SOL     OW 2986   2.263   1.773   0.545 -0.1303 -0.2079  0.3215
  996SOL    HW1 2987   2.358   1.807   0.547 -0.0871 -0.2346 -0.1768
  996SOL    HW2 2988   2.263   1.698   0.473  1.0987 -0.2144 -0.8142
  997SOL     OW 2989   1.898   0.587   2.098  0.1849 -0.2158 -0.2134
  997SOL    HW1 2990   1.836   0.592   2.017  2.5896  0.8504  0.3744
  997SOL    HW2 2991   1.995   0.563   2.077  0.2026 -2.1705  2.0716
  998SOL     OW 2992   2.830   0.706   0.735 -0.3260  0.5707  0.7492
  998SOL    HW1 2993   2.786   0.794   0.759 -0.3551 -1.1715  1.1381
  998SOL    HW2 2994   2.882   0.718   0.647 -1.2252  1.7330  0.0520
  999SOL     OW 2995   2.602   1.130   0.233 -0.2621 -0.1376 -0.3847
  999SOL    HW1 2996   2.634   1.214   0.188 -1.0374  0.5461  0.5253
  999SOL    HW2 2997   2.555   1.153   0.323 -2.4609 -0.9367  3.5669
 1000SOL     OW 2998   0.656   1.221   1.961 -0.0288  0.4163  0.2318
 1000SOL    HW1 2999   0.629   1.310   1.927  0.3431 -0.3023  1.1890
 1000SOL    HW2 3000   0.660   1.161   1.879 -2.0359  0.1906 -0.1161
   3.12933   3.12933   3.12933
