1000 SPC/Fw water molecules t=  99.00000 step= 99000
 3000
    1SOL     OW    1   1.963   2.386   0.589  0.5031  0.1939 -0.4162
    1SOL    HW1    2   1.865   2.351   0.572 -0.1682  1.4746 -1.9410
    1SOL    HW2    3   1.977   2.384   0.692  1.0272 -1.4266  3.4210
    2SOL     OW    4   1.140   1.188   2.023  0.4271  0.4264 -0.5291
    2SOL    HW1    5   1.132   1.237   2.115  1.5165 -0.8170  1.4977
    2SOL    HW2    6   1.192   1.246   1.958 -0.3305 -1.3136  0.6460
    3SOL     OW    7   1.343   2.543   2.398  0.1688  0.4459 -0.2404
    3SOL    HW1    8   1.392   2.527   2.308  0.9143  2.1034 -3.4222
    3SOL    HW2    9   1.262   2.479   2.413 -2.0090 -1.3303  0.1783
    4SOL     OW   10   1.313   2.162   2.311 -0.2941 -0.1086  0.3697
    4SOL    HW1   11   1.410   2.128   2.297 -1.9305  0.2183 -0.2571
    4SOL    HW2   12   1.302   2.222   2.394  1.7418  2.4360 -0.8666
    5SOL     OW   13   0.485   0.644   1.790  1.0348  0.3224  0.1526
    5SOL    HW1   14   0.502   0.662   1.890  0.7046  0.1228 -1.6237
    5SOL    HW2   15   0.562   0.678   1.735 -0.1919  1.9547  0.1662
    6SOL     OW   16   2.048   0.922   2.823 -0.0442  0.4033  0.1595
    6SOL    HW1   17   2.074   1.014   2.784  4.1035 -2.8115  3.6400
    6SOL    HW2   18   2.110   0.845   2.791 -0.1217 -1.6894 -0.2985
    7SOL     OW   19   0.670   0.337   1.580 -0.5609  0.8476 -0.0064
    7SOL    HW1   20   0.707   0.367   1.671 -1.3507  0.8394  0.6740
    7SOL    HW2   21   0.671   0.409   1.508 -1.5603 -1.4078 -0.1148
    8SOL     OW   22   1.803   2.985   1.937  0.0027 -0.1275  0.2343
    8SOL    HW1   23   1.885   3.045   1.964  1.0561 -1.1500  0.8038
    8SOL    HW2   24   1.836   2.898   1.899 -1.5961  1.0265  0.8387
    9SOL     OW   25   0.133   0.518   0.526  0.3559 -0.3607 -0.0460
    9SOL    HW1   26   0.123   0.423   0.554  1.0338  4.1260  0.6192
    9SOL    HW2   27   0.146   0.583   0.604  0.8050  0.7188  0.1683
   10SOL     OW   28   0.596   2.128   2.545  0.2183  0.0825 -0.5463
   10SOL    HW1   29   0.562   2.202   2.491  1.5068 -0.6551  2.5371
   10SOL    HW2   30   0.562   2.131   2.640 -1.0829 -0.9462  0.6344
   11SOL     OW   31   0.818   1.679   0.126  0.2095 -0.0588  0.3412
   11SOL    HW1   32   0.920   1.667   0.143 -0.3841 -2.7841 -0.8463
   11SOL    HW2   33   0.772   1.587   0.149  1.9387 -0.0300 -0.4078
   12SOL     OW   34   0.081   2.843   1.363 -0.0750  0.0455  0.0663
   12SOL    HW1   35   0.045   2.914   1.428 -1.0338  0.8809  2.5253
   12SOL    HW2   36   0.057   2.888   1.274  1.3716  0.5592  1.3022
   13SOL     OW   37   0.720   3.018   0.505 -0.3297 -0.0022  0.0271
   13SOL    HW1   38   0.804   2.966   0.528 -1.9306 -0.0460  0.2478
   13SOL    HW2   39   0.732   3.083   0.426 -1.1111 -0.2982 -1.0612
   14SOL     OW   40   1.654   1.639   0.758  0.3010 -0.5285 -0.3933
   14SOL    HW1   41   1.602   1.641   0.849 -0.6850 -1.2490 -1.6078
   14SOL    HW2   42   1.756   1.651   0.766 -0.7047  0.2302  0.2933
   15SOL     OW   43   2.956   1.647   2.465  0.1820  0.4663  0.1324
   15SOL    HW1   44   2.882   1.622   2.532  1.2086 -0.3960 -0.7123
   15SOL    HW2   45   2.946   1.748   2.454  0.9987 -0.1396 -2.0293
   16SOL     OW   46   1.489   0.395   2.492 -0.0269  0.3690  0.5346
   16SOL    HW1   47   1.418   0.446   2.541  1.8778  1.7908 -1.1284
   16SOL    HW2   48   1.442   0.307   2.453 -0.1139 -2.9978  0.1804
   17SOL     OW   49   0.294   2.317   2.217  0.7638  0.6799 -0.5833
   17SOL    HW1   50   0.314   2.219   2.206 -0.3830 -0.1667  1.2566
   17SOL    HW2   51   0.195   2.336   2.223  0.3267 -0.5275  1.2868
   18SOL     OW   52   1.129   1.192   0.313 -0.1706  0.2893 -0.7707
   18SOL    HW1   53   1.199   1.242   0.366 -2.1717  0.7378  1.1035
   18SOL    HW2   54   1.132   1.091   0.318 -3.1076  0.2461 -1.2551
   19SOL     OW   55   2.399   1.423   2.504  0.2233 -0.2288 -0.0870
   19SOL    HW1   56   2.445   1.348   2.561  0.4836 -1.8246 -0.1983
   19SOL    HW2   57   2.296   1.414   2.519 -2.1749 -1.7718 -0.3801
   20SOL     OW   58   2.542   2.203   2.411 -0.0061 -0.0336 -0.2825
   20SOL    HW1   59   2.520   2.215   2.314 -0.3167 -1.5115 -0.0205
   20SOL    HW2   60   2.561   2.291   2.449 -0.8638 -3.6473 -0.8127
   21SOL     OW   61   1.090   2.345   0.122  0.1415  0.1240  0.0031
   21SOL    HW1   62   1.047   2.429   0.088 -2.6379 -0.1647 -0.4379
   21SOL    HW2   63   1.055   2.266   0.064  2.0956  0.3227  1.0259
   22SOL     OW   64   2.152   2.225   1.336  0.9392  0.1992  0.4709
   22SOL    HW1   65   2.206   2.309   1.361  1.3730  0.4019  1.8331
   22SOL    HW2   66   2.197   2.177   1.256  1.2544  0.4893 -1.5922
   23SOL     OW   67   0.319   1.194   1.690 -0.2178 -0.4375 -0.5211
   23SOL    HW1   68   0.356   1.193   1.790 -1.5050 -2.6992  0.6144
   23SOL    HW2   69   0.368   1.129   1.630 -1.5833 -0.9209 -0.4796
   24SOL     OW   70   2.205   1.846   2.015 -0.4541  0.2333  0.0727
   24SOL    HW1   71   2.120   1.807   2.063 -0.8758  0.7516  0.5473
   24SOL    HW2   72   2.285   1.806   2.051 -3.0817  2.4961  0.8555
   25SOL     OW   73   1.851   0.652   2.304 -0.0409 -0.3872 -0.2409
   25SOL    HW1   74   1.833   0.605   2.217 -1.2322  1.3387  0.5530
   25SOL    HW2   75   1.767   0.655   2.366  0.2831  2.2609  1.1025
   26SOL     OW   76   1.508   0.268   0.668  0.2552 -0.0848  0.4901
   26SOL    HW1   77   1.424   0.218   0.633  0.7444 -0.5905 -1.0160
   26SOL    HW2   78   1.519   0.352   0.606  0.4948  0.0024  0.3923
   27SOL     OW   79   0.849   1.791   0.421 -0.4643  0.6513  0.0397
   27SOL    HW1   80   0.779   1.816   0.350 -1.1674 -1.9279 -2.1587
   27SOL    HW2   81   0.807   1.773   0.512 -2.1306 -0.5126  2.6447
   28SOL     OW   82   2.739   1.730   1.186  0.3937  0.2968  0.2244
   28SOL    HW1   83   2.739   1.631   1.158  0.2692  1.2299  1.2990
   28SOL    HW2   84   2.648   1.760   1.222 -1.9709  0.3156 -1.6946
   29SOL     OW   85   2.245   2.751   1.824  0.8662  0.3318  0.0015
   29SOL    HW1   86   2.162   2.802   1.790  0.9426 -1.1317  3.1367
   29SOL    HW2   87   2.329   2.811   1.824 -0.0586  0.4433  4.5073
   30SOL     OW   88   0.750   2.945   1.356 -0.2724  0.0916  0.2248
   30SOL    HW1   89   0.837   2.930   1.307  1.9834 -0.6723 -0.0226
   30SOL    HW2   90   0.745   3.046   1.375  0.1594  2.1244 -2.7633
   31SOL     OW   91   2.819   2.294   1.925  0.0320  0.2976  0.5949
   31SOL    HW1   92   2.905   2.346   1.917 -1.7840 -1.2987 -0.3097
   31SOL    HW2   93   2.759   2.337   1.993 -1.8083 -1.6856 -2.6304
   32SOL     OW   94   1.532   1.433   1.672  0.2850  0.6983 -0.4219
   32SOL    HW1   95   1.470   1.512   1.652 -0.8925  0.4071  0.3495
   32SOL    HW2   96   1.630   1.454   1.650 -0.6921 -0.4997  0.3919
   33SOL     OW   97   0.304   0.235   2.960  0.7985  0.2924 -0.3267
   33SOL    HW1   98   0.403   0.233   2.963 -4.1136 -1.3299 -2.7939
   33SOL    HW2   99   0.255   0.151   2.997  0.4312  0.4106 -2.4209
   34SOL     OW  100   2.127   0.073   1.096 -1.0092  0.4664 -0.1161
   34SOL    HW1  101   2.156   0.163   1.136 -2.8597  0.7401  0.4666
   34SOL    HW2  102   2.208   0.008   1.103 -0.0112  0.8008 -1.9404
   35SOL     OW  103   2.528   3.091   1.597 -0.4418 -0.3071 -0.1593
   35SOL    HW1  104   2.460   3.083   1.672  2.5529 -0.6843  1.0917
   35SOL    HW2  105   2.623   3.074   1.632  1.4996 -1.4037  1.3561
   36SOL     OW  106   2.649   2.867   2.561  0.3044 -0.5930  0.6158
   36SOL    HW1  107   2.591   2.921   2.628 -1.3862  0.5294  3.6771
   36SOL    HW2  108   2.693   2.794   2.610  0.6269 -0.5141 -0.0522
   37SOL     OW  109   1.104   2.861   2.991 -0.2700 -0.1716 -0.7544
   37SOL    HW1  110   1.174   2.922   2.954 -1.5234 -1.4239 -0.8317
   37SOL    HW2  111   1.138   2.780   3.043 -0.2697 -2.1327 -1.6331
   38SOL     OW  112   2.723   1.188   2.844  0.0094  0.1876  0.1167
   38SOL    HW1  113   2.811   1.176   2.900  2.0986 -2.0003  2.6962
   38SOL    HW2  114   2.654   1.133   2.895 -0.5820  0.1813  0.4137
   39SOL     OW  115   2.275   2.127   1.994  0.6459 -0.0817 -0.3425
   39SOL    HW1  116   2.261   2.025   1.994 -3.6941 -1.0733 -0.8013
   39SOL    HW2  117   2.198   2.176   2.041 -2.2485  2.0817  0.4331
   40SOL     OW  118   0.429   0.134   2.633  0.1544 -0.0317 -0.1008
   40SOL    HW1  119   0.472   0.116   2.726  0.2065  1.0829  0.3576
   40SOL    HW2  120   0.476   0.206   2.582 -0.0755 -2.4489 -2.6640
   41SOL     OW  121   1.533   1.241   1.452  0.0075 -0.7452 -0.7809
   41SOL    HW1  122   1.523   1.308   1.535  0.9272  1.7689  1.6163
   41SOL    HW2  123   1.524   1.146   1.489  0.3036  0.3566  1.2214
   42SOL     OW  124   0.030   0.236   2.074  0.2860 -0.0607 -0.1641
   42SOL    HW1  125   0.001   0.244   1.978  0.7229 -0.9667  1.6595
   42SOL    HW2  126   3.089   0.307   2.135  0.5251  1.8841 -1.9287
   43SOL     OW  127   1.702   1.351   1.943 -0.2590 -0.7859 -0.3276
   43SOL    HW1  128   1.646   1.334   2.031  1.4443 -0.7143 -0.0259
   43SOL    HW2  129   1.645   1.355   1.859 -2.5482  1.2011 -0.5234
   44SOL     OW  130   3.005   0.030   0.019 -0.2350 -0.3325 -0.3572
   44SOL    HW1  131   2.955   0.021   3.039 -1.2069 -0.3809 -2.3243
   44SOL    HW2  132   2.985   3.058   0.082 -0.0106 -0.9676 -1.5389
   45SOL     OW  133   0.723   1.957   1.193  0.3058 -0.2658  0.0674
   45SOL    HW1  134   0.824   1.964   1.213 -0.8085  0.7982 -0.5167
   45SOL    HW2  135   0.671   1.910   1.264 -0.7102  0.9592  0.8086
   46SOL     OW  136   2.431   2.925   1.883 -0.3033 -0.2864  0.2076
   46SOL    HW1  137   2.417   3.023   1.852 -1.8565 -1.6811 -1.7032
   46SOL    HW2  138   2.528   2.902   1.905  0.7739 -0.3822  0.0719
   47SOL     OW  139   0.993   1.971   1.298  0.4286  0.3813 -0.1073
   47SOL    HW1  140   1.013   2.069   1.293  0.3255 -1.2116  0.5614
   47SOL    HW2  141   0.973   1.947   1.396 -0.9082 -0.0523  1.8290
   48SOL     OW  142   0.294   2.622   0.301 -0.0650 -0.2791  0.1931
   48SOL    HW1  143   0.247   2.598   0.386 -3.0456  0.0245  2.9938
   48SOL    HW2  144   0.299   2.724   0.303  1.1204  0.8990  0.0983
   49SOL     OW  145   2.909   1.607   1.938 -0.5644  0.2403 -0.7240
   49SOL    HW1  146   2.903   1.620   2.037 -3.4647  0.8654 -3.2705
   49SOL    HW2  147   2.814   1.608   1.896  0.9129 -2.2035  0.7098
   50SOL     OW  148   2.121   0.890   0.464  0.0919 -0.6642  0.3641
   50SOL    HW1  149   2.090   0.901   0.367 -1.4066 -0.1845  3.4552
   50SOL    HW2  150   2.038   0.882   0.529  0.9795  3.1717  1.6171
   51SOL     OW  151   1.260   0.764   0.900  0.0299  0.1505  0.1980
   51SOL    HW1  152   1.278   0.756   1.003  2.5983  0.5756  1.7340
   51SOL    HW2  153   1.164   0.728   0.878  1.4980 -0.5215  0.3369
   52SOL     OW  154   1.184   1.367   0.078 -0.2004 -0.1980  0.0727
   52SOL    HW1  155   1.173   1.294   0.151  0.2031  0.9386  1.3881
   52SOL    HW2  156   1.172   1.458   0.118 -0.2817 -2.6654 -0.7482
   53SOL     OW  157   0.979   2.433   2.790 -0.4234 -0.5229 -0.5910
   53SOL    HW1  158   0.963   2.337   2.813  2.3047 -0.2647 -1.1593
   53SOL    HW2  159   1.067   2.451   2.841  0.4632 -1.3963  1.6952
   54SOL     OW  160   1.754   0.659   1.655  0.4724  0.5642 -0.3591
   54SOL    HW1  161   1.794   0.565   1.673 -0.8744 -2.8083 -0.4892
   54SOL    HW2  162   1.735   0.679   1.558 -2.8025 -0.1161  1.2588
   55SOL     OW  163   2.346   2.622   0.129  0.0593 -0.1490 -0.4464
   55SOL    HW1  164   2.313   2.539   0.177  1.3921  1.6838  0.2649
   55SOL    HW2  165   2.429   2.657   0.178 -1.1628  0.8111 -1.2585
   56SOL     OW  166   0.711   2.409   1.863  0.2221 -0.0522 -0.2244
   56SOL    HW1  167   0.616   2.400   1.906 -1.5018  1.8058  0.2478
   56SOL    HW2  168   0.713   2.478   1.789 -0.8406  1.8482 -1.0224
   57SOL     OW  169   1.755   0.989   2.476  0.4054 -0.5340  0.2013
   57SOL    HW1  170   1.682   0.932   2.430 -2.3430 -3.4889  1.0778
   57SOL    HW2  171   1.764   0.963   2.577 -2.5601  0.9362 -0.1552
   58SOL     OW  172   2.930   1.123   1.939  0.4221 -0.5499  0.1100
   58SOL    HW1  173   3.020   1.159   1.912  0.2909 -2.7827  1.7366
   58SOL    HW2  174   2.861   1.195   1.953  2.3577 -1.3947 -2.6729
   59SOL     OW  175   0.570   2.951   2.275 -0.4035 -0.0440 -0.5324
   59SOL    HW1  176   0.668   2.933   2.300 -0.7949  0.3038  0.1011
   59SOL    HW2  177   0.502   2.883   2.309 -0.3014  2.2350 -0.3817
   60SOL     OW  178   2.739   2.107   0.480  0.3377  0.4458  0.5481
   60SOL    HW1  179   2.738   2.003   0.484  2.3270 -3.2431  1.5588
   60SOL    HW2  180   2.716   2.135   0.381  2.3696 -1.4370  0.8647
   61SOL     OW  181   0.653   2.735   0.422 -0.0087  0.1104  0.3031
   61SOL    HW1  182   0.667   2.733   0.320  1.0324 -2.5210  1.0904
   61SOL    HW2  183   0.695   2.815   0.469  1.7694  0.6298 -0.3716
   62SOL     OW  184   1.954   2.665   2.702  0.1578 -0.1358 -0.2926
   62SOL    HW1  185   1.884   2.648   2.628 -0.7120 -0.3457 -0.6325
   62SOL    HW2  186   2.048   2.683   2.662 -0.6023  0.7116  0.6427
   63SOL     OW  187   2.069   0.473   3.098  0.4168  0.8022 -0.1888
   63SOL    HW1  188   2.121   0.464   3.014  0.8051  0.1436  2.1402
   63SOL    HW2  189   2.013   0.392   0.012 -1.8840 -1.6975  1.0208
   64SOL     OW  190   0.784   1.040   2.783 -0.2487  0.5824 -0.5697
   64SOL    HW1  191   0.863   1.047   2.848  1.0156  2.2900  2.0170
   64SOL    HW2  192   0.699   1.019   2.834  0.8879  0.4242 -1.6338
   65SOL     OW  193   1.522   3.095   0.487 -0.2668 -0.2365 -0.6394
   65SOL    HW1  194   1.508   3.000   0.515  1.3772  4.2122 -0.5547
   65SOL    HW2  195   1.605   0.031   0.533  0.8775  2.0541 -3.0164
   66SOL     OW  196   0.567   1.467   1.866  0.1484 -0.1421  0.6572
   66SOL    HW1  197   0.542   1.474   1.963 -0.0525 -1.0611 -1.8450
   66SOL    HW2  198   0.645   1.393   1.860  1.6931 -0.5000  2.1756
   67SOL     OW  199   2.214   2.825   2.318  0.1013  0.4512  0.2196
   67SOL    HW1  200   2.183   2.760   2.240  2.5601 -0.8684  0.1434
   67SOL    HW2  201   2.303   2.871   2.304  0.1524  2.8092  0.0281
   68SOL     OW  202   0.736   0.716   1.643 -0.0459  0.0342 -0.0764
   68SOL    HW1  203   0.791   0.790   1.690 -1.0322 -1.1452  0.2964
   68SOL    HW2  204   0.771   0.674   1.562  1.3690  2.9266  3.8031
   69SOL     OW  205   2.112   2.759   0.271  0.5524  0.0769 -0.9306
   69SOL    HW1  206   2.139   2.828   0.341 -0.6078  0.8376 -0.3402
   69SOL    HW2  207   2.163   2.782   0.184 -0.1316 -1.2080  0.2239
   70SOL     OW  208   2.485   0.675   2.667 -0.1481  0.3371  0.2031
   70SOL    HW1  209   2.561   0.744   2.663  1.9820 -1.3322 -1.5607
   70SOL    HW2  210   2.496   0.611   2.744 -0.8201 -0.4770  0.6585
   71SOL     OW  211   2.987   2.089   0.301 -0.0547 -0.3332 -0.0950
   71SOL    HW1  212   2.993   1.987   0.309  0.2355 -1.8921 -1.0684
   71SOL    HW2  213   2.900   2.112   0.256  0.0972  2.5643 -0.0074
   72SOL     OW  214   3.043   1.802   0.605 -0.5455 -0.0202 -0.0595
   72SOL    HW1  215   3.020   1.876   0.669  0.6090  0.5828 -1.9414
   72SOL    HW2  216   3.053   1.716   0.655  0.4599  0.2356  0.9953
   73SOL     OW  217   0.886   0.749   0.593  0.2959 -0.0530 -0.1526
   73SOL    HW1  218   0.785   0.747   0.591 -0.0976  2.5985  1.2170
   73SOL    HW2  219   0.923   0.847   0.608  1.3556 -0.4544 -2.2436
   74SOL     OW  220   0.171   1.815   2.043  0.5173 -0.2425 -0.1697
   74SOL    HW1  221   0.203   1.810   2.138 -1.4062  0.2107 -0.4508
   74SOL    HW2  222   0.228   1.881   1.994  1.9587 -2.6856  0.3999
   75SOL     OW  223   1.879   1.549   1.360  0.0781  0.2298  0.1830
   75SOL    HW1  224   1.982   1.561   1.347  1.3821 -1.0033 -0.6226
   75SOL    HW2  225   1.829   1.541   1.272  1.5568  1.6814  1.5996
   76SOL     OW  226   1.892   1.908   0.846 -0.0250  0.1087  0.1422
   76SOL    HW1  227   1.896   1.880   0.944 -2.1699  1.4032 -2.6650
   76SOL    HW2  228   1.987   1.925   0.811  0.3876 -0.3336  2.0638
   77SOL     OW  229   2.447   1.655   1.799 -0.3644 -0.0955  0.4198
   77SOL    HW1  230   2.425   1.662   1.897  0.0753  1.4672 -0.9748
   77SOL    HW2  231   2.409   1.741   1.755 -1.9061  2.0193 -0.6901
   78SOL     OW  232   1.496   0.913   0.593 -0.1448  0.0598 -0.2836
   78SOL    HW1  233   1.420   0.857   0.560 -0.8465 -1.2832 -0.2572
   78SOL    HW2  234   1.586   0.868   0.568 -0.3570 -1.5110 -0.5312
   79SOL     OW  235   2.119   1.864   1.454 -0.4841 -0.3496 -0.3212
   79SOL    HW1  236   2.087   1.904   1.367 -0.5258  2.2622  0.8053
   79SOL    HW2  237   2.176   1.935   1.504  0.6803  1.8066  1.1698
   80SOL     OW  238   1.088   0.431   1.310 -0.3802 -0.3227 -0.4235
   80SOL    HW1  239   1.043   0.447   1.403  2.6020  0.5495 -1.4204
   80SOL    HW2  240   1.148   0.346   1.315 -0.5017 -1.6842  1.2068
   81SOL     OW  241   0.567   2.313   0.735 -0.0713 -0.1579  0.2039
   81SOL    HW1  242   0.565   2.261   0.821 -0.6868  1.0182 -2.0641
   81SOL    HW2  243   0.643   2.288   0.667  0.9666 -2.3002 -1.1756
   82SOL     OW  244   1.216   0.246   1.607  0.3366  0.2729 -0.7194
   82SOL    HW1  245   1.159   0.272   1.690  1.1155  2.0773 -1.9241
   82SOL    HW2  246   1.271   0.325   1.571  0.0772 -0.1203  0.5809
   83SOL     OW  247   0.870   1.723   0.688 -0.4794  0.4137 -0.0775
   83SOL    HW1  248   0.834   1.763   0.776 -0.1055 -1.5197 -1.7001
   83SOL    HW2  249   0.882   1.626   0.699  1.9730  0.4895 -0.8043
   84SOL     OW  250   2.761   1.263   0.131  0.2415  0.2218 -0.0752
   84SOL    HW1  251   2.687   1.288   0.066  0.2964  0.4306  0.8647
   84SOL    HW2  252   2.846   1.228   0.088  1.7781 -1.5518 -1.9162
   85SOL     OW  253   3.096   2.590   1.263  0.2146  1.1939 -0.1802
   85SOL    HW1  254   0.015   2.682   1.300  1.1623  1.7969 -1.7561
   85SOL    HW2  255   3.070   2.523   1.335 -2.0197  0.3214 -1.2317
   86SOL     OW  256   1.746   2.627   0.912 -0.3832 -0.7735  0.1251
   86SOL    HW1  257   1.821   2.567   0.942 -0.4501 -0.9930 -1.4144
   86SOL    HW2  258   1.695   2.587   0.834 -0.4901  0.9431  4.9336
   87SOL     OW  259   0.005   1.567   0.747  0.0574 -0.1817  0.3315
   87SOL    HW1  260   3.103   1.608   0.840 -4.2041  0.0795  1.8663
   87SOL    HW2  261   0.014   1.464   0.755  0.2800  2.6209 -3.1003
   88SOL     OW  262   0.707   0.549   1.355 -0.2488 -0.0809 -0.0956
   88SOL    HW1  263   0.675   0.598   1.275  0.0532  1.7854  4.6706
   88SOL    HW2  264   0.803   0.520   1.351  1.5006 -0.6954  1.6174
   89SOL     OW  265   0.808   2.758   2.014 -0.1193 -0.0210 -0.6100
   89SOL    HW1  266   0.793   2.790   1.918 -1.0904 -3.2327 -2.7313
   89SOL    HW2  267   0.716   2.732   2.046 -0.5430  1.0391 -1.4907
   90SOL     OW  268   0.082   1.714   1.333  0.3312  0.4047  0.2166
   90SOL    HW1  269   0.175   1.762   1.319  0.6227  0.7430 -0.4143
   90SOL    HW2  270   0.006   1.773   1.302 -1.2494 -2.1782  3.2478
   91SOL     OW  271   1.166   2.078   0.897  0.7949  0.2645 -0.2446
   91SOL    HW1  272   1.213   2.153   0.847 -0.9122 -2.9772  0.8926
   91SOL    HW2  273   1.111   2.023   0.833  1.1101  1.2928 -1.6818
   92SOL     OW  274   2.879   2.819   1.514  0.2652 -0.8413 -0.2253
   92SOL    HW1  275   2.823   2.861   1.590 -0.1269  1.5618  1.1070
   92SOL    HW2  276   2.910   2.887   1.446  0.4815  0.3073 -2.6508
   93SOL     OW  277   3.008   1.389   2.985 -0.2146  0.1745  0.2381
   93SOL    HW1  278   3.080   1.383   2.912  0.5525  1.2811  0.8225
   93SOL    HW2  279   2.991   1.301   3.030 -1.5050 -1.3074 -0.7241
   94SOL     OW  280   2.689   2.847   1.888  0.6478 -0.1975  0.4820
   94SOL    HW1  281   2.712   2.751   1.858  0.5683 -0.7691  2.9911
   94SOL    HW2  282   2.769   2.912   1.892  0.4549  2.6296  2.7032
   95SOL     OW  283   1.499   0.650   1.752  0.1768  0.7159  0.3534
   95SOL    HW1  284   1.480   0.587   1.831  0.1261  2.6459  1.1242
   95SOL    HW2  285   1.590   0.643   1.704  0.6253  2.6302  2.3905
   96SOL     OW  286   2.551   0.264   1.819  0.2351 -0.3121  0.1338
   96SOL    HW1  287   2.615   0.299   1.747 -0.7858  0.5372 -0.6228
   96SOL    HW2  288   2.598   0.237   1.902 -4.2855 -0.4948 -3.2018
   97SOL     OW  289   2.204   2.872   1.456 -0.1827 -0.1165 -0.2318
   97SOL    HW1  290   2.299   2.855   1.475 -3.6472  0.1680 -3.1694
   97SOL    HW2  291   2.148   2.844   1.533 -1.1595 -0.6641  0.1011
   98SOL     OW  292   2.109   2.765   1.237  0.0885 -0.4791 -0.5133
   98SOL    HW1  293   2.161   2.777   1.324 -0.8041 -1.3371 -0.9804
   98SOL    HW2  294   2.019   2.727   1.263 -0.9975  3.9779  0.1341
   99SOL     OW  295   2.820   0.281   2.051  0.7220 -0.4334  0.4829
   99SOL    HW1  296   2.910   0.251   2.092 -0.2729 -3.7373 -1.5226
   99SOL    HW2  297   2.833   0.372   1.998  1.8288  0.5229  0.4652
  100SOL     OW  298   2.053   1.504   1.761 -0.3428  0.0023  0.1616
  100SOL    HW1  299   2.023   1.593   1.794  0.5554  0.0696 -1.7322
  100SOL    HW2  300   2.091   1.446   1.834  0.1174  0.9704  2.1182
  101SOL     OW  301   1.761   0.316   0.452 -0.4669 -0.2456  0.1878
  101SOL    HW1  302   1.802   0.287   0.537 -0.6399 -1.0883 -1.5369
  101SOL    HW2  303   1.789   0.256   0.373  0.6176 -0.2547 -0.0638
  102SOL     OW  304   0.451   0.664   1.400 -0.4042  0.1060  0.1954
  102SOL    HW1  305   0.382   0.622   1.336  0.4948 -0.8565  0.4140
  102SOL    HW2  306   0.534   0.598   1.414  0.3737  0.2791 -0.6792
  103SOL     OW  307   2.544   0.213   2.700 -0.1719  0.0943  0.1221
  103SOL    HW1  308   2.639   0.243   2.724  3.0688  0.6575  0.4868
  103SOL    HW2  309   2.481   0.239   2.779 -0.5746  0.2632 -0.0081
  104SOL     OW  310   2.955   3.005   1.903 -0.0311  0.3586 -0.4944
  104SOL    HW1  311   3.046   3.049   1.883  1.4314  1.7840 -0.0046
  104SOL    HW2  312   2.961   2.952   1.990 -0.6247  1.7540  1.6025
  105SOL     OW  313   1.541   0.874   2.048 -0.4503  0.0274  0.0760
  105SOL    HW1  314   1.499   0.889   1.952 -0.9433  3.2499 -1.2022
  105SOL    HW2  315   1.528   0.779   2.082 -2.1166  1.6038  0.3530
  106SOL     OW  316   1.744   0.392   0.845  0.5411  0.0113 -0.3715
  106SOL    HW1  317   1.786   0.307   0.874  0.4037 -0.4673  1.7474
  106SOL    HW2  318   1.643   0.387   0.870  0.4863 -0.7843 -1.7415
  107SOL     OW  319   0.709   1.162   1.132 -0.2719 -0.3273 -0.2071
  107SOL    HW1  320   0.732   1.067   1.158 -1.5831  0.7784 -2.9249
  107SOL    HW2  321   0.687   1.161   1.035 -0.4917 -0.7858 -0.8602
  108SOL     OW  322   0.083   0.559   2.656  0.4390 -0.3324  0.4595
  108SOL    HW1  323   0.025   0.480   2.680  0.2165 -0.2396  1.7204
  108SOL    HW2  324   0.122   0.546   2.561  0.7342  0.7092 -0.0398
  109SOL     OW  325   1.848   0.113   0.300  0.3579 -0.2608 -0.2963
  109SOL    HW1  326   1.816   0.029   0.255  3.0492 -0.2108  0.6858
  109SOL    HW2  327   1.942   0.097   0.347 -0.1451  0.3082  0.5060
  110SOL     OW  328   3.095   1.878   2.877  0.1754 -0.4868 -0.1099
  110SOL    HW1  329   0.006   1.963   2.931  3.0408 -0.4646  0.5057
  110SOL    HW2  330   0.020   1.795   2.932  0.5201  0.0957 -2.3463
  111SOL     OW  331   2.260   0.216   2.338  0.1875 -0.1466 -0.5932
  111SOL    HW1  332   2.241   0.167   2.253 -1.1447 -0.0218 -0.5712
  111SOL    HW2  333   2.340   0.168   2.381 -3.1330 -0.2562 -0.0698
  112SOL     OW  334   2.329   3.011   1.145  0.1661  0.5258  0.1130
  112SOL    HW1  335   2.389   2.955   1.089 -2.5637  1.9294  3.0624
  112SOL    HW2  336   2.354   3.021   1.241 -0.6079 -3.4863 -1.2338
  113SOL     OW  337   2.454   2.557   2.098 -0.0599 -0.2105 -0.2266
  113SOL    HW1  338   2.452   2.543   1.997  1.2268 -1.4034  2.8249
  113SOL    HW2  339   2.373   2.520   2.149  0.0085  1.2210 -0.7558
  114SOL     OW  340   2.837   3.038   0.694  0.1939  0.0655 -0.3398
  114SOL    HW1  341   2.834   0.031   0.716 -1.1313  1.0859 -0.4041
  114SOL    HW2  342   2.746   3.006   0.647 -1.6432 -2.6793  1.5737
  115SOL     OW  343   2.790   1.731   0.146 -0.4613  0.2989 -0.2150
  115SOL    HW1  344   2.883   1.765   0.183  2.2040 -1.0148  2.4501
  115SOL    HW2  345   2.763   1.649   0.202  0.0006 -2.2157 -1.7786
  116SOL     OW  346   0.212   1.475   2.027  0.2915 -0.4384  0.3549
  116SOL    HW1  347   0.191   1.574   2.032 -1.3751 -0.2125 -1.4195
  116SOL    HW2  348   0.160   1.439   1.948  1.4505  1.6849  2.8390
  117SOL     OW  349   2.484   2.841   1.009 -0.1413 -0.1022 -0.6126
  117SOL    HW1  350   2.578   2.823   1.039 -4.4407 -1.1539  1.4210
  117SOL    HW2  351   2.420   2.757   1.017 -2.0854 -1.3844  3.1312
  118SOL     OW  352   0.330   2.250   1.798  0.7519  0.6910 -0.0869
  118SOL    HW1  353   0.231   2.221   1.777  1.2154  0.2399  0.0954
  118SOL    HW2  354   0.370   2.267   1.711 -0.3711 -2.1019  1.9593
  119SOL     OW  355   1.315   2.176   1.265 -0.2576  0.0934 -0.1724
  119SOL    HW1  356   1.217   2.202   1.247 -0.8538 -1.0511 -0.8853
  119SOL    HW2  357   1.353   2.101   1.201  3.6088 -2.9173 -1.4262
  120SOL     OW  358   0.262   1.913   1.678 -0.6445  0.0327  0.1639
  120SOL    HW1  359   0.237   1.813   1.681  1.7108  0.6868 -0.2719
  120SOL    HW2  360   0.302   1.933   1.769 -0.1211 -0.9949 -1.1821
  121SOL     OW  361   2.561   1.426   0.965  0.2910  0.2419 -0.1103
  121SOL    HW1  362   2.619   1.425   1.044 -1.8857  2.5727 -2.1568
  121SOL    HW2  363   2.537   1.523   0.939 -0.3928  0.4931  0.6745
  122SOL     OW  364   2.005   1.712   2.448  0.4098 -0.0159 -0.2756
  122SOL    HW1  365   2.066   1.656   2.505  0.7467  1.6599 -1.8787
  122SOL    HW2  366   2.046   1.805   2.454 -1.3274  0.0104 -1.0762
  123SOL     OW  367   2.706   2.702   0.689  0.3018 -0.2611  0.5652
  123SOL    HW1  368   2.802   2.711   0.731  1.7245  0.6116  1.3460
  123SOL    HW2  369   2.649   2.630   0.722  1.2978  2.0866 -1.7221
  124SOL     OW  370   1.341   1.202   2.729 -0.0526  0.5822  0.1602
  124SOL    HW1  371   1.325   1.231   2.824  2.8874 -0.9824  0.0767
  124SOL    HW2  372   1.398   1.275   2.686  0.8912 -4.4938 -0.0569
  125SOL     OW  373   0.297   1.600   2.862 -0.1586  0.9462  1.1874
  125SOL    HW1  374   0.279   1.653   2.774 -2.6572 -0.0587 -2.6940
  125SOL    HW2  375   0.331   1.502   2.840 -1.7287 -2.1495 -1.9296
  126SOL     OW  376   0.016   2.311   0.331 -0.2275 -1.0613  0.3101
  126SOL    HW1  377   0.117   2.312   0.345 -1.8821 -0.7791  0.0617
  126SOL    HW2  378   3.084   2.216   0.332  0.8634  0.3236  1.3929
  127SOL     OW  379   0.357   1.552   0.907  0.1910  0.0694  0.4261
  127SOL    HW1  380   0.308   1.462   0.908 -1.9966  3.8876  0.4221
  127SOL    HW2  381   0.307   1.620   0.964  0.6781 -0.0564  0.0074
  128SOL     OW  382   1.523   1.065   0.019  0.4435  0.4226 -0.5141
  128SOL    HW1  383   1.574   1.067   0.106 -0.5559  1.8631  1.7225
  128SOL    HW2  384   1.508   0.963   0.001 -1.6129 -1.7523  0.3527
  129SOL     OW  385   2.288   1.799   1.143  0.4838  0.8490 -0.3397
  129SOL    HW1  386   2.260   1.888   1.109  0.7285 -2.3638 -0.8395
  129SOL    HW2  387   2.357   1.805   1.218  0.5235 -0.4281  1.5471
  130SOL     OW  388   1.955   1.322   0.281  0.8145  0.6193 -0.2138
  130SOL    HW1  389   2.023   1.334   0.207  2.3542 -0.6675 -2.0623
  130SOL    HW2  390   2.000   1.297   0.371 -1.2490  0.6462  0.8015
  131SOL     OW  391   2.800   1.309   2.620 -0.2615 -0.3658  0.1665
  131SOL    HW1  392   2.774   1.245   2.698 -0.5669 -0.0284  0.6191
  131SOL    HW2  393   2.784   1.409   2.639 -0.6625 -2.2738  1.0718
  132SOL     OW  394   1.899   1.733   1.828  0.4796 -0.2745 -0.3375
  132SOL    HW1  395   1.884   1.826   1.872 -0.7905 -0.3375 -0.9540
  132SOL    HW2  396   1.862   1.743   1.736  1.2005 -0.2447  0.1657
  133SOL     OW  397   0.258   1.175   3.043 -0.5166  0.4783  0.0172
  133SOL    HW1  398   0.230   1.119   0.019 -1.4461 -2.4334  1.5901
  133SOL    HW2  399   0.334   1.240   3.066 -1.9532 -0.8105  1.2227
  134SOL     OW  400   2.698   1.098   0.692  0.6010 -0.0435 -0.4857
  134SOL    HW1  401   2.698   1.185   0.744 -1.8692 -0.9168 -1.0766
  134SOL    HW2  402   2.724   1.121   0.597 -2.3367  0.3520 -1.3467
  135SOL     OW  403   2.515   0.964   0.225  0.1515  0.0759 -0.0541
  135SOL    HW1  404   2.468   1.059   0.230 -1.5256  3.7203  0.3220
  135SOL    HW2  405   2.443   0.901   0.192 -4.4606  2.5160  1.0073
  136SOL     OW  406   1.848   1.769   1.523 -0.1794 -0.4922 -0.1763
  136SOL    HW1  407   1.942   1.804   1.502 -1.0800  0.9802  1.2724
  136SOL    HW2  408   1.834   1.686   1.465 -0.5478 -0.7520  0.5696
  137SOL     OW  409   2.628   2.246   0.710  0.1843  0.2845  0.2972
  137SOL    HW1  410   2.670   2.184   0.637 -1.4092 -2.7773 -0.5540
  137SOL    HW2  411   2.695   2.283   0.777  0.5845 -0.5015  0.2510
  138SOL     OW  412   2.094   0.207   1.788  0.8056 -0.1869 -0.2720
  138SOL    HW1  413   2.034   0.212   1.704 -1.1553  2.8879  1.7355
  138SOL    HW2  414   2.151   0.288   1.801 -2.0243  0.1025  0.3852
  139SOL     OW  415   2.693   0.342   0.207  0.0985 -0.0609 -0.2015
  139SOL    HW1  416   2.701   0.254   0.155  1.3451  1.4075  1.7815
  139SOL    HW2  417   2.722   0.328   0.305  0.6383  1.6585  3.3133
  140SOL     OW  418   1.241   1.772   2.526 -0.1975  0.2749 -0.5286
  140SOL    HW1  419   1.293   1.696   2.476 -1.4818  1.4205  1.4448
  140SOL    HW2  420   1.143   1.740   2.536 -0.8713  0.1517  2.5219
  141SOL     OW  421   0.605   0.690   2.043  0.1643  0.5119 -0.0858
  141SOL    HW1  422   0.503   0.682   2.078 -0.1480  1.6941  1.2035
  141SOL    HW2  423   0.638   0.784   2.061  1.1675 -2.0649  3.4121
  142SOL     OW  424   2.313   2.597   2.785 -0.0296 -0.3580 -0.4361
  142SOL    HW1  425   2.306   2.668   2.863 -2.0003  1.7277  2.0871
  142SOL    HW2  426   2.277   2.641   2.699  0.8236  0.9811 -2.5754
  143SOL     OW  427   1.046   1.985   0.338 -0.0893 -0.1674  0.4133
  143SOL    HW1  428   1.073   2.066   0.392  1.0671 -2.1107  0.3150
  143SOL    HW2  429   0.983   1.919   0.393  0.7191 -0.6787  0.2516
  144SOL     OW  430   0.961   2.665   0.309  0.1728 -0.0836  0.1112
  144SOL    HW1  431   0.958   2.596   0.381 -1.4298  1.5234 -0.6493
  144SOL    HW2  432   0.939   2.632   0.219  0.4484 -0.3289  2.0911
  145SOL     OW  433   1.754   1.956   2.597 -0.4978  0.5089 -0.3056
  145SOL    HW1  434   1.766   1.972   2.697 -0.2504  0.9390 -1.2298
  145SOL    HW2  435   1.693   1.876   2.585  0.3242  0.3702 -0.6481
  146SOL     OW  436   2.608   2.474   3.059 -0.4283  0.0604  0.0093
  146SOL    HW1  437   2.608   2.567   3.020 -0.6446 -1.9783 -0.2379
  146SOL    HW2  438   2.519   2.427   3.068  0.3594 -0.7294  0.5832
  147SOL     OW  439   0.046   1.251   1.366  0.0151 -0.0669  0.6234
  147SOL    HW1  440   0.082   1.344   1.398  0.8762  0.2922 -1.1176
  147SOL    HW2  441   3.057   1.235   1.392  1.0488  1.8833  1.9247
  148SOL     OW  442   1.832   3.008   0.135 -0.5077 -0.0666 -0.2317
  148SOL    HW1  443   1.790   2.916   0.137 -1.1217  0.8206 -0.2642
  148SOL    HW2  444   1.834   3.040   0.041 -2.3980 -3.2513  2.1189
  149SOL     OW  445   0.756   1.902   2.821  0.1590  0.1092  0.2953
  149SOL    HW1  446   0.673   1.895   2.759 -0.4454 -0.3912 -0.0214
  149SOL    HW2  447   0.757   1.841   2.904  2.3690 -1.1344  0.2269
  150SOL     OW  448   0.320   2.296   0.638 -0.2440  0.4128 -0.5795
  150SOL    HW1  449   0.314   2.252   0.545  2.0751  2.4792  0.2794
  150SOL    HW2  450   0.418   2.295   0.669  2.4048  0.8198  2.0925
  151SOL     OW  451   0.486   1.486   0.349 -0.6088  0.3782  0.1384
  151SOL    HW1  452   0.420   1.414   0.372  1.9788  2.7192 -0.7504
  151SOL    HW2  453   0.445   1.573   0.346 -0.7457 -3.2819 -2.3744
  152SOL     OW  454   2.741   1.804   0.742  0.2499 -0.0128  0.0839
  152SOL    HW1  455   2.651   1.827   0.784 -0.6302  0.1898 -0.0994
  152SOL    HW2  456   2.749   1.824   0.645  0.6984  2.8122  1.6989
  153SOL     OW  457   2.154   2.545   0.444  0.0319 -0.0572  0.2345
  153SOL    HW1  458   2.106   2.619   0.385  0.9791  2.8608 -1.6875
  153SOL    HW2  459   2.087   2.490   0.497 -1.3884  2.7152 -3.8620
  154SOL     OW  460   0.774   2.756   0.830  0.6410  0.3477  0.4208
  154SOL    HW1  461   0.757   2.858   0.811  1.7737  2.1223  1.2876
  154SOL    HW2  462   0.707   2.694   0.783 -1.2850 -1.7295 -1.5060
  155SOL     OW  463   0.219   1.764   1.029 -0.0649  0.8948 -0.0562
  155SOL    HW1  464   0.254   1.789   1.122  1.3957  2.1037  1.1441
  155SOL    HW2  465   0.231   1.837   0.959  1.6167 -2.4063 -0.5513
  156SOL     OW  466   2.383   2.308   0.046 -0.1717  0.4913  0.1982
  156SOL    HW1  467   2.443   2.229   0.023  1.4966  0.2952 -0.5919
  156SOL    HW2  468   2.376   2.326   0.148  1.6214 -3.1338  2.9698
  157SOL     OW  469   0.694   1.913   1.643  0.2011  0.4930  0.8570
  157SOL    HW1  470   0.658   1.882   1.731  0.4023  0.5029 -4.5794
  157SOL    HW2  471   0.664   1.848   1.573  1.0148  0.4623  1.5197
  158SOL     OW  472   1.475   0.787   3.088 -0.1499 -0.0074  0.5707
  158SOL    HW1  473   1.479   0.707   3.017  0.3731 -3.9249 -1.2847
  158SOL    HW2  474   1.568   0.806   0.006  0.7006 -3.0174  0.9686
  159SOL     OW  475   1.198   0.853   3.021  0.3770  0.0158  0.0333
  159SOL    HW1  476   1.168   0.809   2.935  0.8131  2.3412  2.6214
  159SOL    HW2  477   1.293   0.834   3.037  0.6626  0.5977  1.2881
  160SOL     OW  478   0.954   1.397   0.363 -0.5032 -0.4644  0.0176
  160SOL    HW1  479   1.004   1.481   0.393  0.2572  2.6468  1.0612
  160SOL    HW2  480   1.024   1.323   0.343  2.0702 -2.3609  0.7649
  161SOL     OW  481   0.138   2.315   2.722  0.2851 -0.1374 -0.1050
  161SOL    HW1  482   0.043   2.291   2.700  0.8529  1.1959  0.9406
  161SOL    HW2  483   0.163   2.288   2.816 -0.9188  1.0895  0.7461
  162SOL     OW  484   0.339   2.332   0.975  0.4934 -0.3972  0.3849
  162SOL    HW1  485   0.273   2.256   0.967  0.2786  0.6675  1.6646
  162SOL    HW2  486   0.432   2.299   0.979 -5.3523 -0.4312  4.6358
  163SOL     OW  487   2.955   0.647   2.766 -0.2148 -0.2403  0.1635
  163SOL    HW1  488   3.046   0.652   2.713 -2.1628  3.4044 -0.1189
  163SOL    HW2  489   2.967   0.637   2.867  0.5037  0.8794  1.0317
  164SOL     OW  490   0.502   3.054   2.825 -0.5990 -0.3982 -0.1953
  164SOL    HW1  491   0.424   3.008   2.866  3.0040 -2.6829 -2.4930
  164SOL    HW2  492   0.524   3.010   2.739 -0.3854 -0.4149  1.6132
  165SOL     OW  493   2.312   0.394   1.827  0.0775 -0.0393 -0.6458
  165SOL    HW1  494   2.301   0.436   1.920  1.5158  0.3540 -1.4808
  165SOL    HW2  495   2.391   0.330   1.822 -1.2370  1.6640 -1.4032
  166SOL     OW  496   1.945   2.479   1.631  0.4012 -0.8987  0.3922
  166SOL    HW1  497   1.965   2.381   1.659 -0.9590 -1.7518 -1.2100
  166SOL    HW2  498   1.861   2.506   1.681  1.9271 -0.6104 -3.2335
  167SOL     OW  499   1.269   0.785   2.280  0.2009 -0.0210 -0.2973
  167SOL    HW1  500   1.210   0.870   2.290 -1.2846  0.1603 -2.0535
  167SOL    HW2  501   1.362   0.794   2.316 -1.1182 -0.5062  0.7067
  168SOL     OW  502   2.285   0.061   2.111  0.4062 -0.5577 -0.0609
  168SOL    HW1  503   2.326   0.098   2.024 -1.3962  3.1822  1.5239
  168SOL    HW2  504   2.322   3.081   2.150 -1.7599 -1.8755 -0.0042
  169SOL     OW  505   0.217   1.038   0.381  0.4439 -0.2457  0.3841
  169SOL    HW1  506   0.292   0.969   0.370  1.8701  1.6394  2.6259
  169SOL    HW2  507   0.158   1.030   0.295 -0.1859 -1.4708 -0.8209
  170SOL     OW  508   3.048   1.495   1.744  0.0258 -0.1882 -0.4474
  170SOL    HW1  509   3.003   1.532   1.658 -1.4664 -0.1163 -0.4424
  170SOL    HW2  510   2.993   1.520   1.825 -0.6310  0.3904  4.4739
  171SOL     OW  511   1.065   2.267   2.166 -0.4253  0.1256 -0.8283
  171SOL    HW1  512   0.972   2.309   2.173  0.0924  2.5194 -3.2102
  171SOL    HW2  513   1.101   2.234   2.255 -1.2187  0.0147 -0.0273
  172SOL     OW  514   0.812   2.365   2.132 -0.0380  0.2269  0.4063
  172SOL    HW1  515   0.803   2.380   2.029 -0.3907  2.1822 -0.1018
  172SOL    HW2  516   0.782   2.444   2.184  2.9178  0.0503 -0.0586
  173SOL     OW  517   1.268   2.542   0.850 -0.1785  0.0225  0.4462
  173SOL    HW1  518   1.310   2.581   0.933 -1.1332 -0.6583  0.3028
  173SOL    HW2  519   1.316   2.576   0.766 -1.0889 -0.5660  0.0917
  174SOL     OW  520   1.916   0.159   0.638  0.0548  0.4443 -0.1797
  174SOL    HW1  521   1.981   0.136   0.713 -3.3716 -1.0528 -0.4788
  174SOL    HW2  522   1.969   0.188   0.554 -0.1061  0.6516 -0.2040
  175SOL     OW  523   1.073   1.646   0.433  0.2679  0.3789 -0.2467
  175SOL    HW1  524   1.128   1.703   0.499 -0.5423  1.6843  1.1180
  175SOL    HW2  525   0.991   1.695   0.393 -0.9906 -0.1399  0.8483
  176SOL     OW  526   1.174   1.470   0.856 -0.1599 -0.3703  0.4740
  176SOL    HW1  527   1.217   1.563   0.843  1.1176 -1.3701  1.6826
  176SOL    HW2  528   1.077   1.472   0.887 -0.7676 -0.6739  0.7049
  177SOL     OW  529   1.358   0.770   1.176 -0.3634 -0.5424  0.5665
  177SOL    HW1  530   1.401   0.859   1.202 -0.0988  0.4906  2.4206
  177SOL    HW2  531   1.425   0.691   1.170 -1.8549 -1.0583 -0.9793
  178SOL     OW  532   2.745   1.512   0.300  0.8082 -0.0047  0.6402
  178SOL    HW1  533   2.803   1.485   0.380  1.5041  0.1338 -0.3311
  178SOL    HW2  534   2.727   1.425   0.246 -2.4209  0.9850  2.2281
  179SOL     OW  535   0.596   2.351   0.169 -0.1266 -0.5510 -0.2758
  179SOL    HW1  536   0.563   2.410   0.244  1.6024 -3.6099  0.5513
  179SOL    HW2  537   0.537   2.360   0.086 -1.1435  0.3133 -1.8665
  180SOL     OW  538   1.812   1.466   1.621 -0.2437  0.5249 -0.0812
  180SOL    HW1  539   1.890   1.463   1.682 -0.1142  0.7318 -2.3027
  180SOL    HW2  540   1.842   1.479   1.527 -2.4784 -1.4768  3.0654
  181SOL     OW  541   0.818   0.953   2.372 -0.4023 -0.2452 -0.3841
  181SOL    HW1  542   0.787   0.913   2.280 -1.1913 -1.0305 -1.5465
  181SOL    HW2  543   0.920   0.936   2.378 -1.2903 -0.7194  0.3740
  182SOL     OW  544   2.864   1.049   2.292 -0.2230 -0.1090 -0.4908
  182SOL    HW1  545   2.793   1.109   2.335  0.4552  2.0473 -0.7865
  182SOL    HW2  546   2.831   1.014   2.200  1.2026  1.0692 -4.2731
  183SOL     OW  547   1.592   0.616   2.176  0.0395 -0.3088  0.0968
  183SOL    HW1  548   1.661   0.561   2.121 -2.0722 -3.0872  0.6614
  183SOL    HW2  549   1.502   0.574   2.161  2.0875 -0.2105  0.8209
  184SOL     OW  550   0.222   0.603   1.762 -0.3265 -0.2260 -0.2770
  184SOL    HW1  551   0.202   0.577   1.857  1.2496  1.1321  0.6346
  184SOL    HW2  552   0.321   0.626   1.761 -1.9231  0.4420 -0.7866
  185SOL     OW  553   2.280   1.697   0.528  0.9546  0.1537 -0.2247
  185SOL    HW1  554   2.353   1.649   0.475  1.4432  2.1581  1.4166
  185SOL    HW2  555   2.197   1.637   0.531 -0.2830  0.6357 -0.7444
  186SOL     OW  556   0.539   2.079   0.050 -0.1718 -0.2250 -0.7238
  186SOL    HW1  557   0.617   2.105   3.095 -1.4308  1.0657 -0.8173
  186SOL    HW2  558   0.568   2.090   0.147  0.5985  1.6180 -1.3929
  187SOL     OW  559   2.418   1.756   3.026  0.0533 -0.1437  0.4806
  187SOL    HW1  560   2.389   1.729   2.931  0.9564 -0.3190  1.1878
  187SOL    HW2  561   2.514   1.785   3.033 -0.6262 -1.9449 -3.5040
  188SOL     OW  562   0.985   2.626   0.724  0.3016  0.3715  0.1361
  188SOL    HW1  563   1.077   2.638   0.766 -2.8488  1.0161 -1.0206
  188SOL    HW2  564   0.907   2.656   0.784  1.5097  3.4480 -0.4778
  189SOL     OW  565   1.950   1.083   2.318  0.2540 -0.2929  1.0614
  189SOL    HW1  566   1.883   1.063   2.389  1.1129 -0.7084 -2.2189
  189SOL    HW2  567   1.956   1.185   2.314 -2.5937 -0.9809 -0.4565
  190SOL     OW  568   0.928   2.036   2.312  0.2638  0.6801  0.2412
  190SOL    HW1  569   0.892   1.942   2.301 -0.0349 -0.1901  0.9206
  190SOL    HW2  570   0.941   2.062   2.413  3.7467 -0.0802  1.9962
  191SOL     OW  571   2.401   0.628   1.461  0.3237 -0.4143 -0.3501
  191SOL    HW1  572   2.344   0.553   1.500  0.5346  0.0075  1.4866
  191SOL    HW2  573   2.400   0.615   1.361 -0.7046  3.0283  2.7162
  192SOL     OW  574   2.272   0.512   2.356 -0.5766  0.4724  0.0503
  192SOL    HW1  575   2.367   0.523   2.384 -1.0616  0.8472 -0.2134
  192SOL    HW2  576   2.254   0.413   2.335 -0.5883  0.0436  1.8362
  193SOL     OW  577   0.703   0.325   0.734 -0.2513  0.5323  0.2986
  193SOL    HW1  578   0.689   0.270   0.648  0.8271 -1.0712 -0.5285
  193SOL    HW2  579   0.715   0.260   0.816 -3.2381 -2.5590  0.3393
  194SOL     OW  580   1.304   2.420   1.641 -0.3556 -0.0441 -0.0269
  194SOL    HW1  581   1.242   2.454   1.720 -2.5008  0.2167  0.1839
  194SOL    HW2  582   1.296   2.317   1.643 -2.2463  2.1058 -0.7213
  195SOL     OW  583   2.657   0.778   0.936 -0.0989  0.1320  0.2468
  195SOL    HW1  584   2.573   0.833   0.922  2.2440 -0.3980  4.7021
  195SOL    HW2  585   2.737   0.839   0.955  3.3191  2.0475 -0.1981
  196SOL     OW  586   1.171   1.848   1.724 -0.3191  0.0765 -0.2179
  196SOL    HW1  587   1.120   1.912   1.664  1.0851  0.5882  4.6303
  196SOL    HW2  588   1.134   1.835   1.820 -1.7582 -0.1953 -2.7463
  197SOL     OW  589   0.256   0.748   2.350  0.7168 -0.3927 -0.0386
  197SOL    HW1  590   0.296   0.756   2.259  2.1658  0.8296 -0.2873
  197SOL    HW2  591   0.203   0.661   2.348 -0.1939  1.7021 -0.4543
  198SOL     OW  592   1.537   1.146   0.389  0.2201 -0.5087  0.5140
  198SOL    HW1  593   1.536   1.117   0.486 -0.2211 -0.7313 -0.6277
  198SOL    HW2  594   1.450   1.194   0.368 -0.6885 -0.3800  1.3248
  199SOL     OW  595   2.586   0.491   2.082 -0.0325  0.0027  0.0591
  199SOL    HW1  596   2.616   0.410   2.131 -1.1326  3.0724 -0.1553
  199SOL    HW2  597   2.484   0.497   2.074  1.2589  0.6057 -0.1534
  200SOL     OW  598   2.272   2.441   2.464  0.0033 -0.1065 -0.4794
  200SOL    HW1  599   2.373   2.430   2.477 -1.9193  0.0940 -0.2736
  200SOL    HW2  600   2.214   2.375   2.518 -3.7391  0.5292  2.2097
  201SOL     OW  601   2.117   0.059   1.492  0.7832  0.5880  0.3950
  201SOL    HW1  602   2.017   0.085   1.517 -0.6976 -0.6732 -1.3846
  201SOL    HW2  603   2.136   3.068   1.478  0.7335 -1.4706 -0.0927
  202SOL     OW  604   2.156   2.934   3.096 -0.0067  0.0251 -0.3511
  202SOL    HW1  605   2.199   3.027   3.077  0.5628 -0.8001 -0.9886
  202SOL    HW2  606   2.052   2.937   3.089 -1.8414  2.3535 -0.6364
  203SOL     OW  607   0.857   2.034   2.597  0.1413 -0.1310  0.4984
  203SOL    HW1  608   0.854   2.002   2.695  0.6665 -0.3707  2.0093
  203SOL    HW2  609   0.765   2.072   2.570 -0.7745 -3.1360 -0.7475
  204SOL     OW  610   0.802   1.293   2.661  0.0835  0.2189  0.0451
  204SOL    HW1  611   0.773   1.380   2.706  0.3614 -1.7591 -2.8805
  204SOL    HW2  612   0.786   1.212   2.724 -0.7855  0.9684 -0.3957
  205SOL     OW  613   0.985   0.927   1.387 -0.2709 -0.7299 -0.2223
  205SOL    HW1  614   1.031   0.833   1.382 -0.9613 -2.0922 -0.8115
  205SOL    HW2  615   0.906   0.940   1.323 -0.1490  0.1709 -2.4553
  206SOL     OW  616   0.398   0.454   2.582 -0.5277  0.0408 -0.1241
  206SOL    HW1  617   0.475   0.520   2.580  0.1279  2.5327  0.6307
  206SOL    HW2  618   0.353   0.441   2.493  0.5186  0.1586  1.3186
  207SOL     OW  619   1.844   2.417   1.970  0.3892 -0.3090 -0.2282
  207SOL    HW1  620   1.853   2.496   2.030  2.2067 -0.7908  2.0152
  207SOL    HW2  621   1.762   2.408   1.914 -0.0190  1.7687  0.5669
  208SOL     OW  622   0.972   2.718   1.033 -0.3545 -0.0266  0.2489
  208SOL    HW1  623   0.900   2.739   0.962 -2.6346  1.3067  1.7340
  208SOL    HW2  624   0.989   2.618   1.027 -0.6721  1.4149  0.2429
  209SOL     OW  625   1.260   1.525   2.811  0.5833  0.0614 -0.2397
  209SOL    HW1  626   1.284   1.558   2.904  1.9028  1.6034  1.1873
  209SOL    HW2  627   1.339   1.489   2.761 -3.3358  0.3809  0.3462
  210SOL     OW  628   2.272   0.815   0.808  0.1362 -0.2143 -0.2815
  210SOL    HW1  629   2.324   0.891   0.846 -1.0416 -0.5790 -1.5473
  210SOL    HW2  630   2.302   0.789   0.716  1.5181 -0.7458  4.0943
  211SOL     OW  631   0.928   2.847   0.526  0.0066  0.1938 -0.4258
  211SOL    HW1  632   0.969   2.795   0.603  0.1761  0.7241  2.2627
  211SOL    HW2  633   0.937   2.793   0.435  1.0855 -2.3906  0.3513
  212SOL     OW  634   2.387   1.944   0.628  0.0909  0.0876 -0.2134
  212SOL    HW1  635   2.341   1.865   0.591 -0.2944  1.8721  2.5346
  212SOL    HW2  636   2.395   2.020   0.558  0.9518  1.1083 -1.5320
  213SOL     OW  637   1.844   0.622   2.731 -0.0613 -0.2814 -0.3295
  213SOL    HW1  638   1.829   0.605   2.828  1.5909  2.2538 -3.6780
  213SOL    HW2  639   1.853   0.722   2.703 -3.5549  1.5199 -0.7175
  214SOL     OW  640   1.068   1.844   1.968 -0.1096 -0.2604  0.2073
  214SOL    HW1  641   0.969   1.871   1.972  0.0977 -0.4426 -1.8456
  214SOL    HW2  642   1.096   1.795   2.054 -2.7143  1.9816 -0.7063
  215SOL     OW  643   0.579   1.573   0.629 -0.2215  0.2496 -0.1272
  215SOL    HW1  644   0.585   1.535   0.534 -0.5971 -0.2727 -3.8282
  215SOL    HW2  645   0.491   1.628   0.635 -1.7530 -0.0625  0.5662
  216SOL     OW  646   0.003   3.012   2.414 -0.1580 -0.1833 -0.2615
  216SOL    HW1  647   0.028   2.912   2.403 -1.7911  0.5615 -0.1883
  216SOL    HW2  648   0.052   3.067   2.346  2.5941 -1.2534 -0.5615
  217SOL     OW  649   2.430   0.838   1.223 -0.1281 -0.2130 -0.1875
  217SOL    HW1  650   2.450   0.738   1.227 -0.1485  2.5066 -0.5083
  217SOL    HW2  651   2.502   0.879   1.284  0.2626 -0.3404  2.2050
  218SOL     OW  652   1.388   1.834   2.052 -0.2155 -0.2088  0.1584
  218SOL    HW1  653   1.392   1.869   1.956  0.5086  0.7700  1.0756
  218SOL    HW2  654   1.306   1.875   2.095 -0.3764 -0.6517 -0.1214
  219SOL     OW  655   1.741   1.613   0.004 -0.7983 -0.5171  1.0289
  219SOL    HW1  656   1.731   1.596   0.104 -1.3778 -1.5893  0.1761
  219SOL    HW2  657   1.716   1.710   3.091 -2.0514 -3.6905 -1.0982
  220SOL     OW  658   2.061   0.879   0.172  0.0807 -0.1024  0.1544
  220SOL    HW1  659   2.019   0.968   0.154  0.3030  0.2517 -0.2426
  220SOL    HW2  660   2.065   0.827   0.083 -0.1946 -1.4099 -2.1257
  221SOL     OW  661   0.192   0.635   0.135 -0.2980 -0.6077 -0.5046
  221SOL    HW1  662   0.235   0.714   0.075  3.6394  0.9725 -2.5421
  221SOL    HW2  663   0.187   0.543   0.086  0.8257 -1.5809 -0.5313
  222SOL     OW  664   1.479   1.937   0.620 -1.2663  0.0397 -0.1007
  222SOL    HW1  665   1.539   1.863   0.584  1.4100 -0.5875  1.2614
  222SOL    HW2  666   1.516   1.968   0.709 -1.0452  0.3813  0.7465
  223SOL     OW  667   0.863   0.063   3.015 -0.3887  0.1633 -0.0190
  223SOL    HW1  668   0.923   0.065   3.097  1.1073  2.4401  0.4468
  223SOL    HW2  669   0.855   3.074   2.970  1.4607 -0.1388  0.8026
  224SOL     OW  670   1.865   3.004   1.434 -0.1699 -0.0931 -0.0618
  224SOL    HW1  671   1.790   2.935   1.414 -1.6166 -1.9073  1.1891
  224SOL    HW2  672   1.913   3.025   1.347 -0.0555  0.0089 -1.7303
  225SOL     OW  673   0.650   2.279   1.243 -0.5434 -0.0729  0.0417
  225SOL    HW1  674   0.635   2.232   1.332 -1.6205  0.2892  0.2026
  225SOL    HW2  675   0.663   2.383   1.245  1.9461  1.8468 -2.5966
  226SOL     OW  676   1.075   1.610   0.167 -0.1855  0.2691 -0.5871
  226SOL    HW1  677   1.127   1.675   0.111 -0.7892  0.7148 -1.9045
  226SOL    HW2  678   1.093   1.622   0.269 -1.2999  0.7258 -0.3672
  227SOL     OW  679   1.148   1.798   1.114  0.7988 -0.3480  0.2289
  227SOL    HW1  680   1.104   1.708   1.127 -1.8933  1.0461 -0.5876
  227SOL    HW2  681   1.115   1.873   1.178 -3.0207  0.8203  0.8606
  228SOL     OW  682   0.316   1.662   0.629  0.2306  0.1107 -0.4160
  228SOL    HW1  683   0.253   1.647   0.708  1.9674  2.4637 -2.4471
  228SOL    HW2  684   0.276   1.735   0.573 -0.2622 -1.6323 -2.1244
  229SOL     OW  685   1.983   0.346   2.725 -0.5737  0.6662 -0.3716
  229SOL    HW1  686   1.972   0.283   2.644  1.7686  1.9660  0.2614
  229SOL    HW2  687   1.947   0.439   2.703 -0.4007 -0.6132 -2.8433
  230SOL     OW  688   1.766   1.257   2.856 -0.6126  0.6540 -0.0889
  230SOL    HW1  689   1.714   1.338   2.889 -0.9709 -0.2775 -3.3999
  230SOL    HW2  690   1.714   1.169   2.854  0.8040 -0.4315 -0.2114
  231SOL     OW  691   0.975   1.721   2.574 -0.4342  0.0039  0.1741
  231SOL    HW1  692   0.913   1.649   2.525  0.7305 -2.3436  1.2296
  231SOL    HW2  693   0.940   1.814   2.561 -0.1358 -0.2133 -2.7674
  232SOL     OW  694   2.432   2.144   0.440  0.1711  0.4033  0.3242
  232SOL    HW1  695   2.510   2.203   0.471  0.3285 -0.7228 -0.4763
  232SOL    HW2  696   2.460   2.086   0.364 -1.4237  1.9807  0.5802
  233SOL     OW  697   2.956   2.536   0.359 -0.2148  0.5578 -0.1325
  233SOL    HW1  698   3.029   2.463   0.336  3.5963 -5.8502  0.0428
  233SOL    HW2  699   2.862   2.509   0.322 -2.1358 -0.9948 -1.3215
  234SOL     OW  700   0.682   0.412   2.784 -0.3177  0.0247 -0.4426
  234SOL    HW1  701   0.672   0.406   2.679 -1.7321  1.3486 -4.5070
  234SOL    HW2  702   0.728   0.499   2.818  0.5453 -0.1597 -0.9108
  235SOL     OW  703   2.832   0.265   2.802  0.5528 -0.8126 -0.1301
  235SOL    HW1  704   2.837   0.338   2.877 -0.1093  0.9710  0.5379
  235SOL    HW2  705   2.852   0.176   2.849 -3.4654  2.4527  1.9231
  236SOL     OW  706   1.835   2.377   1.151  0.1066 -0.3216  0.0386
  236SOL    HW1  707   1.866   2.295   1.200  0.3592 -0.3580  0.2804
  236SOL    HW2  708   1.864   2.373   1.052 -1.3205  1.2748 -0.3803
  237SOL     OW  709   0.796   1.792   2.314 -0.1002  0.3162  0.4792
  237SOL    HW1  710   0.785   1.810   2.213  0.6589  0.0464  0.5114
  237SOL    HW2  711   0.828   1.697   2.338 -1.2861 -1.7337 -2.8062
  238SOL     OW  712   1.334   0.155   2.439 -0.2888 -0.8834  0.0521
  238SOL    HW1  713   1.351   0.075   2.500 -1.7534 -2.8918  0.9225
  238SOL    HW2  714   1.314   0.125   2.346 -1.1879 -0.9994 -2.1134
  239SOL     OW  715   0.346   2.010   1.942 -0.1895  0.5624  0.0790
  239SOL    HW1  716   0.375   2.011   2.037  2.2639 -0.5942  0.9454
  239SOL    HW2  717   0.343   2.107   1.913 -0.8682  0.0557  2.0334
  240SOL     OW  718   2.319   2.350   0.316 -0.2907  0.0550  0.2314
  240SOL    HW1  719   2.264   2.409   0.376 -0.2013  0.4050  0.6860
  240SOL    HW2  720   2.345   2.267   0.374  1.7404 -1.2401  0.8637
  241SOL     OW  721   2.420   0.967   0.989 -0.2786 -0.2154  0.1698
  241SOL    HW1  722   2.417   0.920   1.074  0.4706  0.7348 -2.2158
  241SOL    HW2  723   2.410   1.065   1.004 -1.8182  0.9261  2.0778
  242SOL     OW  724   2.223   2.453   2.196  0.0102  0.4382 -0.3767
  242SOL    HW1  725   2.168   2.371   2.173 -1.3801  0.0450 -0.0144
  242SOL    HW2  726   2.241   2.448   2.300 -2.3602 -1.1983  0.1021
  243SOL     OW  727   0.761   2.557   1.657  0.1906 -0.3727  0.0730
  243SOL    HW1  728   0.777   2.540   1.557 -1.0179  1.8084  1.0357
  243SOL    HW2  729   0.767   2.655   1.684  1.2437 -2.3559 -0.8459
  244SOL     OW  730   2.180   0.467   2.833 -0.2823  0.1999 -0.0287
  244SOL    HW1  731   2.113   0.407   2.782  2.9565 -2.4420  1.3509
  244SOL    HW2  732   2.196   0.559   2.792  1.4209  2.1585  0.1519
  245SOL     OW  733   1.502   0.194   1.279 -0.0384  0.0543  0.8020
  245SOL    HW1  734   1.407   0.180   1.306  1.0439 -1.1718 -2.7325
  245SOL    HW2  735   1.514   0.188   1.177  0.1630 -2.1805  1.7862
  246SOL     OW  736   1.708   2.575   3.064 -0.0187  0.4421 -0.6796
  246SOL    HW1  737   1.785   2.553   3.002  2.1399 -0.1518 -0.4744
  246SOL    HW2  738   1.673   2.673   3.045  2.4956  0.5886  0.2758
  247SOL     OW  739   1.230   0.503   2.265  0.6766  0.0003 -0.2889
  247SOL    HW1  740   1.202   0.454   2.351 -0.0671  1.3627  2.8972
  247SOL    HW2  741   1.255   0.600   2.278  1.6442 -1.3721  0.8267
  248SOL     OW  742   0.573   1.775   1.848  0.5768  0.0085  0.1261
  248SOL    HW1  743   0.592   1.673   1.858  0.0572 -4.6494  1.7417
  248SOL    HW2  744   0.472   1.793   1.839 -2.2338  0.7998 -1.7406
  249SOL     OW  745   2.396   0.301   0.621 -0.2060 -0.4616 -0.4167
  249SOL    HW1  746   2.351   0.357   0.543 -2.2672  2.7572 -2.8021
  249SOL    HW2  747   2.344   0.319   0.703  1.5049 -1.7630 -1.7818
  250SOL     OW  748   2.842   0.473   3.076 -0.3093  0.1871  0.0603
  250SOL    HW1  749   2.889   0.400   0.021  1.0269  0.1403 -1.6514
  250SOL    HW2  750   2.795   0.536   0.035 -0.6713  1.5157  1.3601
  251SOL     OW  751   1.463   0.554   2.929  0.1587  0.1818  0.2725
  251SOL    HW1  752   1.430   0.551   2.834  2.3146 -1.1357  0.3432
  251SOL    HW2  753   1.395   0.503   2.987  1.9454  1.6923 -1.3841
  252SOL     OW  754   1.851   1.971   1.934 -0.1336 -0.4408  0.3450
  252SOL    HW1  755   1.749   1.989   1.936 -0.5159  1.1756  1.5567
  252SOL    HW2  756   1.893   1.973   2.025  0.6394  1.4686 -0.3589
  253SOL     OW  757   2.387   2.438   1.194 -0.2375  0.7664 -0.2321
  253SOL    HW1  758   2.360   2.523   1.153 -0.9904 -2.0771 -0.1819
  253SOL    HW2  759   2.378   2.436   1.298 -1.8363 -0.5564 -2.1337
  254SOL     OW  760   2.836   1.184   1.048  0.3356  0.0639  0.2963
  254SOL    HW1  761   2.770   1.229   1.110  2.0808 -1.1158 -0.6867
  254SOL    HW2  762   2.879   1.253   0.987 -0.9091  0.8055 -0.1548
  255SOL     OW  763   1.558   0.168   0.991  0.0350  0.6053  0.3425
  255SOL    HW1  764   1.533   0.073   0.953  0.4521 -0.3762  0.6141
  255SOL    HW2  765   1.492   0.237   0.951 -0.9707  2.3580 -1.4547
  256SOL     OW  766   1.466   2.314   1.425 -0.5206 -0.3796 -0.1422
  256SOL    HW1  767   1.409   2.343   1.505  0.6667 -2.0696 -1.4060
  256SOL    HW2  768   1.409   2.264   1.355 -3.3341  0.2077 -2.8804
  257SOL     OW  769   0.625   2.975   2.590  0.2792 -0.1345 -0.0790
  257SOL    HW1  770   0.703   3.034   2.608 -2.4475 -1.3746 -1.9200
  257SOL    HW2  771   0.598   2.974   2.494 -1.3340 -1.8717  1.3531
  258SOL     OW  772   0.944   2.404   0.570 -0.3986 -0.3203 -0.9306
  258SOL    HW1  773   0.979   2.488   0.626 -0.7211  2.4196  1.3653
  258SOL    HW2  774   0.938   2.324   0.635 -0.8692 -2.9894 -0.1376
  259SOL     OW  775   1.599   3.057   2.699  0.6714  0.0551  0.1183
  259SOL    HW1  776   1.607   0.042   2.739 -0.4867 -3.0539  1.5686
  259SOL    HW2  777   1.690   3.010   2.698  1.8827  0.8687 -0.7018
  260SOL     OW  778   2.362   0.129   1.415  0.1730  0.3832  0.0042
  260SOL    HW1  779   2.263   0.132   1.446 -2.0107  1.1811  0.0838
  260SOL    HW2  780   2.422   0.079   1.483  1.9251 -2.3293 -1.3997
  261SOL     OW  781   0.656   0.538   2.489  0.0039 -0.3705 -0.0521
  261SOL    HW1  782   0.604   0.624   2.473  0.7663  0.0518 -0.5333
  261SOL    HW2  783   0.754   0.540   2.444  2.3041  2.5006 -2.0630
  262SOL     OW  784   0.483   2.352   2.423 -0.3712 -0.3326  0.1660
  262SOL    HW1  785   0.413   2.315   2.358 -1.5643 -1.0083 -0.6026
  262SOL    HW2  786   0.547   2.411   2.368  1.7578 -0.9176 -0.2185
  263SOL     OW  787   0.243   1.746   2.651  0.0144  0.2163  0.5561
  263SOL    HW1  788   0.161   1.805   2.646  0.8009 -1.4315 -2.6129
  263SOL    HW2  789   0.231   1.675   2.575  0.6162 -2.0137 -0.8305
  264SOL     OW  790   1.325   1.271   0.742  0.3516  0.0816  0.5771
  264SOL    HW1  791   1.293   1.186   0.789 -0.2328 -0.5002 -0.1090
  264SOL    HW2  792   1.265   1.350   0.777 -0.5373  2.2360  1.0619
  265SOL     OW  793   1.484   2.858   0.648 -0.6975  0.1742  0.0066
  265SOL    HW1  794   1.492   2.758   0.640  0.0308  0.1890 -1.4577
  265SOL    HW2  795   1.517   2.890   0.742  0.3209 -0.2126 -0.2664
  266SOL     OW  796   1.687   0.691   1.400  0.0659  0.6698  0.0760
  266SOL    HW1  797   1.666   0.592   1.380 -0.4914 -1.6456  1.4788
  266SOL    HW2  798   1.724   0.739   1.315  1.7061  0.4303 -1.2388
  267SOL     OW  799   2.482   1.230   2.703 -0.4403  0.3343 -0.2997
  267SOL    HW1  800   2.425   1.145   2.718 -0.7752 -0.4577  1.6446
  267SOL    HW2  801   2.570   1.229   2.752 -1.2061 -0.3468 -0.0675
  268SOL     OW  802   1.303   0.395   3.081 -0.4529  0.2922  0.0981
  268SOL    HW1  803   1.367   0.341   0.035  1.4423 -1.2865  1.2161
  268SOL    HW2  804   1.222   0.414   0.034 -1.7547 -0.1578  1.8726
  269SOL     OW  805   2.942   0.863   2.465  0.3236 -0.9066  0.2191
  269SOL    HW1  806   3.038   0.859   2.500 -0.4742 -1.9630 -1.4432
  269SOL    HW2  807   2.931   0.940   2.395 -0.7981  1.9830  1.3596
  270SOL     OW  808   0.077   1.500   0.331  0.0975 -0.0306  0.1365
  270SOL    HW1  809   0.147   1.434   0.356 -1.0720 -0.2234  0.6429
  270SOL    HW2  810   0.112   1.581   0.280 -0.6842 -3.5014  3.3077
  271SOL     OW  811   2.510   1.060   2.950 -0.1250 -0.0851  0.2245
  271SOL    HW1  812   2.421   1.036   2.904  0.5638  0.6035  2.1591
  271SOL    HW2  813   2.564   0.977   2.963 -0.8614 -0.1757 -0.1200
  272SOL     OW  814   2.950   2.540   2.220 -0.3347  0.0309 -0.0822
  272SOL    HW1  815   2.964   2.636   2.190  1.0286  1.2316  0.2378
  272SOL    HW2  816   2.922   2.543   2.317  1.1583  0.4026 -1.4170
  273SOL     OW  817   0.162   0.208   0.381  0.3764 -0.0606 -0.3886
  273SOL    HW1  818   0.112   0.294   0.357 -0.0355  3.1514 -0.8574
  273SOL    HW2  819   0.211   0.220   0.471  1.3440  1.2693 -0.5677
  274SOL     OW  820   0.891   2.087   0.987 -0.1612  0.8382 -0.6262
  274SOL    HW1  821   0.811   2.085   1.053  0.5236  0.0098 -0.1066
  274SOL    HW2  822   0.973   2.129   1.035  0.8811  1.1946 -1.8802
  275SOL     OW  823   2.371   0.787   0.511 -0.1589 -0.1775  0.2016
  275SOL    HW1  824   2.285   0.806   0.462 -0.6626  2.3796  1.1404
  275SOL    HW2  825   2.423   0.872   0.528 -2.5410 -3.9706  2.8692
  276SOL     OW  826   2.495   1.551   1.430 -0.5760 -0.4273  0.7548
  276SOL    HW1  827   2.414   1.510   1.480  0.9213 -2.6011  1.0131
  276SOL    HW2  828   2.581   1.531   1.477  1.1358  0.0516 -3.1216
  277SOL     OW  829   2.537   3.051   0.823 -0.2608  0.0905  0.0502
  277SOL    HW1  830   2.546   0.019   0.889  0.5974 -0.4457 -0.9049
  277SOL    HW2  831   2.530   2.969   0.877  1.6739  1.6551  0.8694
  278SOL     OW  832   1.478   3.059   2.101  0.2308  0.0004  0.3538
  278SOL    HW1  833   1.480   2.970   2.053 -2.1084  1.9348  2.3159
  278SOL    HW2  834   1.522   3.046   2.190 -3.1894  0.9546  0.7260
  279SOL     OW  835   1.394   2.612   1.106 -0.2064 -0.3242 -0.0518
  279SOL    HW1  836   1.409   2.716   1.110  1.0706  0.8071  2.5860
  279SOL    HW2  837   1.473   2.561   1.147 -0.0889 -1.7806  0.4312
  280SOL     OW  838   0.680   1.150   0.883 -0.0314 -0.4095 -0.0163
  280SOL    HW1  839   0.725   1.229   0.831 -1.8810 -0.8344 -1.9857
  280SOL    HW2  840   0.585   1.139   0.851  0.2560  2.4599 -2.0258
  281SOL     OW  841   2.357   1.453   2.857  0.1078  0.6363  0.4299
  281SOL    HW1  842   2.385   1.369   2.797 -2.0910 -0.4497  0.5198
  281SOL    HW2  843   2.368   1.539   2.802 -1.0527  0.2949 -0.8423
  282SOL     OW  844   0.271   1.319   0.401  0.6250 -0.2008  0.4817
  282SOL    HW1  845   0.245   1.225   0.368  0.4275 -2.5180 -0.4033
  282SOL    HW2  846   0.300   1.324   0.498 -1.8067  0.5009  3.2197
  283SOL     OW  847   1.885   2.944   2.702 -0.0559 -0.2121  0.0845
  283SOL    HW1  848   1.929   3.003   2.635 -3.2793 -3.1375  3.4719
  283SOL    HW2  849   1.918   2.849   2.693  1.7634 -4.3471  0.1560
  284SOL     OW  850   0.994   0.148   0.134  0.1643 -0.3792 -0.0149
  284SOL    HW1  851   1.068   0.080   0.169  1.8126 -1.1612 -0.1759
  284SOL    HW2  852   1.026   0.244   0.148 -1.8232  2.3316  2.4647
  285SOL     OW  853   2.097   1.359   2.537  0.2836 -0.3719  0.9621
  285SOL    HW1  854   2.034   1.370   2.456 -0.2358  2.0629 -0.9312
  285SOL    HW2  855   2.060   1.429   2.602 -0.6756 -0.5115 -0.5242
  286SOL     OW  856   1.645   2.452   0.725  0.6875  0.2155  0.0856
  286SOL    HW1  857   1.641   2.399   0.813  0.8664  0.8633  1.8533
  286SOL    HW2  858   1.680   2.398   0.647  0.3184  2.0259  0.0037
  287SOL     OW  859   1.557   0.954   0.865 -0.2749  0.7040  0.1633
  287SOL    HW1  860   1.530   1.042   0.901  0.9734 -0.1116 -2.2291
  287SOL    HW2  861   1.513   0.933   0.774  2.1400 -1.1399  0.2933
  288SOL     OW  862   0.683   2.683   2.532  0.1182  1.2950  0.1721
  288SOL    HW1  863   0.620   2.629   2.596  1.7169 -3.2055  2.1457
  288SOL    HW2  864   0.668   2.784   2.525  0.8209 -0.3523 -0.5646
  289SOL     OW  865   0.275   1.302   0.929  0.0381  0.0746 -0.6106
  289SOL    HW1  866   0.334   1.284   1.011 -1.1784 -0.2422  2.0583
  289SOL    HW2  867   0.176   1.294   0.961 -0.2529  1.1767 -0.6052
  290SOL     OW  868   1.342   2.282   0.815  0.3720 -0.2849 -0.0841
  290SOL    HW1  869   1.315   2.376   0.840 -1.4576  1.7713  0.9865
  290SOL    HW2  870   1.343   2.270   0.712  1.3134  1.1708  2.7391
  291SOL     OW  871   1.430   0.066   0.231 -0.6044 -0.4420  0.3177
  291SOL    HW1  872   1.445   0.036   0.325  0.2770  1.2464 -0.0778
  291SOL    HW2  873   1.480   0.155   0.228 -2.1745  2.8477  2.4141
  292SOL     OW  874   0.456   0.276   2.278  0.0653  0.7822  0.7787
  292SOL    HW1  875   0.361   0.262   2.312 -0.1229  0.5370  0.5060
  292SOL    HW2  876   0.528   0.285   2.353 -3.3857 -0.1449 -0.1323
  293SOL     OW  877   2.864   1.848   0.994  0.3269  0.1278  0.3038
  293SOL    HW1  878   2.816   1.830   0.907 -0.4050 -2.6521  0.2884
  293SOL    HW2  879   2.816   1.802   1.070  0.3391  1.0041  2.1860
  294SOL     OW  880   0.800   0.073   2.193 -0.3055 -0.2165 -0.2129
  294SOL    HW1  881   0.705   0.068   2.167  0.8515 -1.6498 -1.2683
  294SOL    HW2  882   0.852   0.007   2.134  1.5018 -0.1732  0.6220
  295SOL     OW  883   1.269   1.738   0.869  0.0953 -0.2054  0.1841
  295SOL    HW1  884   1.351   1.707   0.920  3.9758 -1.2975 -0.2015
  295SOL    HW2  885   1.199   1.770   0.936 -1.4212 -1.9381 -0.2592
  296SOL     OW  886   2.521   1.623   0.400  0.4507  0.2560  0.0193
  296SOL    HW1  887   2.479   1.677   0.323 -0.6635 -0.2528  1.4714
  296SOL    HW2  888   2.600   1.567   0.364  0.9714 -0.2545 -2.8585
  297SOL     OW  889   2.699   0.094   0.105 -0.1903  0.7028 -0.3885
  297SOL    HW1  890   2.682   0.031   0.183 -0.8294  0.0168  0.7224
  297SOL    HW2  891   2.656   0.062   0.017 -1.8152 -0.8322 -1.4978
  298SOL     OW  892   1.081   0.397   2.719  0.0870 -0.1959 -0.1006
  298SOL    HW1  893   1.083   0.380   2.620 -1.5787  0.3555 -0.3806
  298SOL    HW2  894   1.015   0.330   2.758 -0.8494  1.4907 -0.3855
  299SOL     OW  895   0.626   2.531   2.285  0.1572 -0.1737 -0.2931
  299SOL    HW1  896   0.596   2.599   2.215 -1.9064  1.3064  0.4456
  299SOL    HW2  897   0.662   2.580   2.368  1.4468  0.2282  3.2090
  300SOL     OW  898   2.848   3.052   2.175  0.0612 -0.2368  0.5277
  300SOL    HW1  899   2.795   3.021   2.258  0.0396 -0.2712 -1.1890
  300SOL    HW2  900   2.782   3.090   2.107 -1.1477  1.7699 -1.6621
  301SOL     OW  901   1.590   0.273   1.676  0.8784 -0.1667  0.0861
  301SOL    HW1  902   1.499   0.324   1.658 -1.0161 -0.1569 -1.7647
  301SOL    HW2  903   1.603   0.189   1.620 -1.5081 -0.9670  2.1618
  302SOL     OW  904   0.281   2.425   0.136 -0.3110 -0.1349  0.0224
  302SOL    HW1  905   0.282   2.514   0.181  1.6214 -0.1939 -0.8131
  302SOL    HW2  906   0.332   2.439   0.051  0.5325  0.1600 -0.5989
  303SOL     OW  907   1.842   2.176   1.337 -0.2113 -0.0450 -0.3882
  303SOL    HW1  908   1.771   2.151   1.409  0.3804  1.8534 -0.2445
  303SOL    HW2  909   1.929   2.218   1.374  0.0716  0.3388  0.2915
  304SOL     OW  910   2.679   0.887   1.341 -0.1348  0.2485 -0.2788
  304SOL    HW1  911   2.742   0.839   1.276 -1.4792  0.5048 -0.3634
  304SOL    HW2  912   2.698   0.871   1.443  2.1532 -1.2024  3.7129
  305SOL     OW  913   0.790   1.416   0.709  0.1734 -0.7795  0.3112
  305SOL    HW1  914   0.809   1.433   0.805 -2.1722  0.7976 -1.4222
  305SOL    HW2  915   0.721   1.480   0.674  2.1049  0.5325 -2.6687
  306SOL     OW  916   0.444   1.385   2.812 -0.0600 -0.0205 -0.5325
  306SOL    HW1  917   0.463   1.309   2.879 -4.2503 -0.2962 -2.4986
  306SOL    HW2  918   0.428   1.345   2.720  0.0578 -1.8068 -0.2400
  307SOL     OW  919   1.012   0.126   1.481  0.6391 -0.3904 -0.0479
  307SOL    HW1  920   1.073   0.181   1.543  1.2556  0.6421  1.3313
  307SOL    HW2  921   1.042   0.030   1.476 -1.6525  2.0874  0.9850
  308SOL     OW  922   0.075   0.707   1.049  0.4763 -0.4689 -1.0016
  308SOL    HW1  923   0.004   0.652   1.008  2.0327 -0.8875 -0.6400
  308SOL    HW2  924   0.167   0.673   1.030 -2.9447  0.6488  0.1860
  309SOL     OW  925   2.360   1.239   1.031  0.3054 -0.1652  0.4152
  309SOL    HW1  926   2.289   1.223   0.958  1.0816  1.7389  1.1200
  309SOL    HW2  927   2.433   1.297   0.997  0.8445  1.0162 -1.2652
  310SOL     OW  928   0.491   1.870   2.734  0.0970 -0.8238 -0.5120
  310SOL    HW1  929   0.412   1.817   2.707  0.1663  2.8174 -2.7913
  310SOL    HW2  930   0.473   1.970   2.746  1.6058  2.3273  0.0150
  311SOL     OW  931   2.561   2.691   2.381  0.1312 -0.0663 -0.5087
  311SOL    HW1  932   2.586   2.717   2.285 -0.3077  3.4500  0.2875
  311SOL    HW2  933   2.565   2.770   2.447  0.1372 -1.9970  0.1373
  312SOL     OW  934   2.198   1.979   3.026  0.1181 -0.2878  0.6567
  312SOL    HW1  935   2.131   1.931   3.086 -0.6148 -1.2286 -2.0877
  312SOL    HW2  936   2.293   1.950   3.043 -0.4975  1.4299  0.8295
  313SOL     OW  937   0.398   0.207   0.600 -0.3295  0.6651  0.5644
  313SOL    HW1  938   0.480   0.254   0.555  1.7390  1.3798 -2.8971
  313SOL    HW2  939   0.404   0.105   0.590 -1.4437 -2.0345  0.3154
  314SOL     OW  940   2.032   1.202   2.767  0.2552  0.1671 -0.4112
  314SOL    HW1  941   1.933   1.223   2.796  0.2314 -0.7907 -0.3398
  314SOL    HW2  942   2.054   1.259   2.685 -1.1526 -0.8294  0.6637
  315SOL     OW  943   1.670   0.198   2.395  0.0743  0.0177  0.2098
  315SOL    HW1  944   1.630   0.280   2.440 -0.7884 -0.0451 -2.3085
  315SOL    HW2  945   1.742   0.215   2.327  0.6047 -0.1387 -1.5412
  316SOL     OW  946   3.080   1.047   0.765 -0.0313  0.6244 -0.0544
  316SOL    HW1  947   3.000   0.982   0.746 -1.7639  2.1607  0.9453
  316SOL    HW2  948   0.002   1.042   0.863  2.6846 -0.7358  1.5687
  317SOL     OW  949   0.405   2.748   2.958  0.1070 -0.0542 -0.0314
  317SOL    HW1  950   0.337   2.822   2.954  0.1567 -1.2305  1.7619
  317SOL    HW2  951   0.486   2.788   2.999 -1.6179 -0.4669 -0.4541
  318SOL     OW  952   2.452   2.496   0.803  0.2546 -1.1108 -0.2238
  318SOL    HW1  953   2.433   2.397   0.795 -0.6064 -0.8781 -1.3926
  318SOL    HW2  954   2.422   2.534   0.889 -2.4851  0.2656  2.3357
  319SOL     OW  955   1.082   1.903   2.872  0.1289  0.4947  0.2181
  319SOL    HW1  956   1.149   1.945   2.802  0.1593  0.2338 -2.1251
  319SOL    HW2  957   1.046   1.812   2.841 -2.7160 -1.4197 -0.4326
  320SOL     OW  958   0.605   1.691   1.491 -0.4082  0.2953 -0.2828
  320SOL    HW1  959   0.621   1.685   1.392  2.2454  2.2685  1.6692
  320SOL    HW2  960   0.524   1.640   1.520  1.4582 -0.7394  1.1164
  321SOL     OW  961   1.055   2.644   2.041 -0.6640  0.1832  0.5941
  321SOL    HW1  962   0.954   2.665   2.026  3.4665 -1.3097  2.2082
  321SOL    HW2  963   1.102   2.733   2.036 -0.0761 -3.8400 -1.1828
  322SOL     OW  964   2.437   1.717   2.075  0.0629  0.4313 -0.1287
  322SOL    HW1  965   2.421   1.645   2.146  0.1725  0.2108 -0.4129
  322SOL    HW2  966   2.516   1.784   2.096 -0.1275  0.5402  1.5863
  323SOL     OW  967   2.801   0.202   0.748  0.3856 -0.8839 -0.0930
  323SOL    HW1  968   2.737   0.276   0.718  0.4151 -1.7131  2.2185
  323SOL    HW2  969   2.843   0.229   0.836  2.3554 -0.4930 -0.8477
  324SOL     OW  970   2.837   2.684   2.657 -0.0398  0.0224 -0.2127
  324SOL    HW1  971   2.886   2.655   2.740  0.9602 -0.4894  1.2058
  324SOL    HW2  972   2.844   2.611   2.588  0.0477  2.2855 -1.2097
  325SOL     OW  973   1.111   0.345   2.459  0.6068 -0.3332  0.2024
  325SOL    HW1  974   1.192   0.286   2.471 -0.8093 -2.3546 -1.6147
  325SOL    HW2  975   1.028   0.286   2.448  0.0517  1.3581  1.4779
  326SOL     OW  976   2.194   2.516   1.673 -0.6104 -0.1417  0.5468
  326SOL    HW1  977   2.196   2.604   1.724  0.7064  1.9055  0.5198
  326SOL    HW2  978   2.100   2.502   1.636  0.4586  1.3093  0.4174
  327SOL     OW  979   2.110   0.132   0.448  0.5641  0.2505  0.1523
  327SOL    HW1  980   2.149   0.207   0.392  0.4433 -0.4020  1.3537
  327SOL    HW2  981   2.182   0.093   0.500 -3.9144  1.3922 -0.7529
  328SOL     OW  982   0.353   1.210   1.951 -0.2152 -0.2316 -0.0662
  328SOL    HW1  983   0.407   1.165   2.025  2.7570 -2.5228  1.6804
  328SOL    HW2  984   0.321   1.299   1.985  1.3321 -0.8784 -1.3580
  329SOL     OW  985   2.234   0.458   1.586  0.2114  0.2129 -0.6179
  329SOL    HW1  986   2.136   0.461   1.606 -2.1054 -0.0438  0.2176
  329SOL    HW2  987   2.286   0.442   1.671  3.1816  0.1062  1.2932
  330SOL     OW  988   0.081   1.001   1.013  0.4448  0.0478 -0.1396
  330SOL    HW1  989   0.085   1.060   1.095 -1.0092 -1.7045 -1.3302
  330SOL    HW2  990   0.043   0.907   1.032  0.5469  2.2894 -0.3062
  331SOL     OW  991   0.734   1.373   2.198  0.1067  0.3829  0.4045
  331SOL    HW1  992   0.803   1.423   2.145  0.3335 -0.3644  1.9875
  331SOL    HW2  993   0.762   1.358   2.290 -0.8996 -0.4640 -2.4395
  332SOL     OW  994   0.219   2.681   1.520  0.7211 -0.7486 -0.1761
  332SOL    HW1  995   0.169   2.747   1.451  1.1350  1.3684 -1.4345
  332SOL    HW2  996   0.268   2.604   1.476  1.2998  1.5488 -1.6563
  333SOL     OW  997   2.478   0.176   0.984  0.0390  0.0736 -0.5476
  333SOL    HW1  998   2.569   0.147   1.026  2.3040  0.7605  2.5816
  333SOL    HW2  999   2.412   0.199   1.059  0.0502 -1.1482  0.5846
  334SOL     OW 1000   0.292   1.335   0.670  0.6886 -0.1370 -0.3035
  334SOL    HW1 1001   0.329   1.426   0.682 -0.6013 -3.3135 -3.1155
  334SOL    HW2 1002   0.285   1.296   0.764 -1.5122 -0.2227  0.2113
  335SOL     OW 1003   0.146   2.700   2.814 -0.4332  0.1805  0.1499
  335SOL    HW1 1004   0.137   2.797   2.790 -1.0520  0.2424 -0.2550
  335SOL    HW2 1005   0.212   2.684   2.895  1.4049 -1.4351  2.7488
  336SOL     OW 1006   2.968   2.825   2.160 -0.1116 -0.3367  1.0428
  336SOL    HW1 1007   3.048   2.823   2.220 -1.7413  2.4339 -0.6127
  336SOL    HW2 1008   2.900   2.897   2.191  1.6533 -1.1371  0.2890
  337SOL     OW 1009   2.000   2.226   1.704 -0.4166 -0.4300 -0.6441
  337SOL    HW1 1010   1.909   2.206   1.745  0.8444  1.0513  0.5487
  337SOL    HW2 1011   2.065   2.151   1.718  0.1721  1.7773  0.6182
  338SOL     OW 1012   0.897   0.230   2.817 -0.0414  0.3341 -0.1134
  338SOL    HW1 1013   0.878   0.164   2.895 -1.2110 -2.0676  1.6781
  338SOL    HW2 1014   0.819   0.296   2.822 -2.3581  0.0276  2.1055
  339SOL     OW 1015   0.545   1.183   2.149 -0.0657 -0.4721 -0.1036
  339SOL    HW1 1016   0.507   1.196   2.241 -0.1115  1.9605 -0.7394
  339SOL    HW2 1017   0.620   1.249   2.137 -0.4869  2.9286 -1.4656
  340SOL     OW 1018   1.587   2.987   0.883 -0.0957  0.0988 -0.2393
  340SOL    HW1 1019   1.671   2.946   0.925  1.0335 -0.4345  4.1678
  340SOL    HW2 1020   1.615   3.055   0.815 -0.4720 -0.6988  0.5723
  341SOL     OW 1021   1.835   1.028   0.812 -0.0194 -0.1030  0.2497
  341SOL    HW1 1022   1.742   1.013   0.859 -4.0776 -0.8010 -1.6700
  341SOL    HW2 1023   1.915   1.019   0.872  0.5775  0.3269 -1.7965
  342SOL     OW 1024   2.324   2.748   2.998 -0.2289 -0.0558  0.0376
  342SOL    HW1 1025   2.255   2.826   3.020 -3.1672  0.9599  0.9333
  342SOL    HW2 1026   2.337   2.701   3.088 -0.2687  0.3408  1.4088
  343SOL     OW 1027   0.961   2.249   1.490  0.1824  0.2836  0.0754
  343SOL    HW1 1028   0.938   2.269   1.588  0.7056 -0.4565  3.2589
  343SOL    HW2 1029   1.026   2.318   1.445  1.9654  1.5583 -0.6374
  344SOL     OW 1030   2.307   2.418   1.461 -0.2194  0.6043  0.6357
  344SOL    HW1 1031   2.253   2.460   1.542  0.7860 -0.4691  1.2879
  344SOL    HW2 1032   2.402   2.403   1.490  1.3210  0.6725  0.2097
  345SOL     OW 1033   2.663   1.878   3.045 -0.2485 -0.1326  0.3583
  345SOL    HW1 1034   2.715   1.853   2.961 -0.5081  0.2364  1.1845
  345SOL    HW2 1035   2.719   1.838   0.011 -1.3219  1.5924  2.3203
  346SOL     OW 1036   2.157   1.889   0.790 -0.7505  0.4352  0.0694
  346SOL    HW1 1037   2.196   1.801   0.812 -0.9783  0.2216 -1.8181
  346SOL    HW2 1038   2.211   1.935   0.716  1.3296 -1.0848  0.0529
  347SOL     OW 1039   1.615   1.895   1.005  0.4500 -0.0139  0.2134
  347SOL    HW1 1040   1.654   1.905   0.911 -0.7650  2.5952 -2.8965
  347SOL    HW2 1041   1.529   1.944   1.026  3.4823 -0.3663  1.2299
  348SOL     OW 1042   0.524   1.891   2.367 -0.2719  0.1896  0.0007
  348SOL    HW1 1043   0.529   1.945   2.455 -1.2917 -0.7634  3.6714
  348SOL    HW2 1044   0.610   1.850   2.340 -1.2784  2.3874 -0.3645
  349SOL     OW 1045   2.025   1.289   0.554  0.0963 -0.5547  0.2480
  349SOL    HW1 1046   2.113   1.250   0.587  1.3815 -0.6878 -2.2436
  349SOL    HW2 1047   1.955   1.277   0.623  2.2922 -1.6171 -1.7609
  350SOL     OW 1048   2.965   2.468   0.638  0.0553 -0.2804 -0.1807
  350SOL    HW1 1049   2.896   2.409   0.687 -0.4016  1.0313  1.0852
  350SOL    HW2 1050   2.948   2.481   0.537 -0.6426  2.0720  0.5536
  351SOL     OW 1051   0.447   2.752   1.651 -0.0738 -0.0963  0.0736
  351SOL    HW1 1052   0.520   2.740   1.583  0.0280  0.4182 -2.0066
  351SOL    HW2 1053   0.364   2.703   1.617 -0.2151  1.0404 -1.5692
  352SOL     OW 1054   0.447   1.490   1.310 -0.0336 -0.1883 -0.2474
  352SOL    HW1 1055   0.461   1.391   1.304 -1.1663 -0.9212  0.0184
  352SOL    HW2 1056   0.361   1.508   1.366 -0.5065  0.3566 -1.3922
  353SOL     OW 1057   1.100   1.281   2.268 -0.2182 -0.0692 -0.1891
  353SOL    HW1 1058   1.015   1.321   2.307  2.7718 -0.0272 -0.0698
  353SOL    HW2 1059   1.179   1.317   2.319  3.8292 -1.3532 -0.8176
  354SOL     OW 1060   1.233   3.077   1.821  0.0754  0.2217  0.3037
  354SOL    HW1 1061   1.285   3.077   1.732  1.2532 -0.5937 -0.0361
  354SOL    HW2 1062   1.201   0.059   1.840  0.1090 -5.7159  0.3692
  355SOL     OW 1063   2.503   1.035   0.523 -0.4400  0.1350 -0.1266
  355SOL    HW1 1064   2.568   1.055   0.603 -0.2395 -0.5606  1.6414
  355SOL    HW2 1065   2.531   1.075   0.432 -2.2045 -0.2473 -2.1738
  356SOL     OW 1066   2.925   1.696   1.541  0.3601 -0.3039  0.0923
  356SOL    HW1 1067   2.839   1.739   1.573 -0.6725 -1.0103 -0.3908
  356SOL    HW2 1068   3.004   1.768   1.539  0.2092  2.1379  1.7613
  357SOL     OW 1069   0.516   2.721   1.162 -1.0800  0.3959 -0.4602
  357SOL    HW1 1070   0.431   2.669   1.162  3.2010  1.3517 -1.5975
  357SOL    HW2 1071   0.505   2.810   1.214  1.0643 -1.1683 -2.0894
  358SOL     OW 1072   2.684   1.536   1.769 -0.2592 -0.1340  0.2018
  358SOL    HW1 1073   2.701   1.498   1.678  0.8469  1.0618  0.3902
  358SOL    HW2 1074   2.608   1.606   1.770  2.8314  0.4897 -3.0920
  359SOL     OW 1075   2.270   2.941   2.620  0.3093  0.0320  0.4371
  359SOL    HW1 1076   2.246   2.841   2.603 -4.0267 -0.1302 -1.9004
  359SOL    HW2 1077   2.182   2.989   2.592  0.7397 -2.2462 -2.3343
  360SOL     OW 1078   0.967   0.359   0.836 -0.4554 -0.3023 -0.2739
  360SOL    HW1 1079   1.048   0.333   0.776 -0.2101 -0.8460 -1.3437
  360SOL    HW2 1080   0.879   0.360   0.783 -1.1406  2.2252  0.5350
  361SOL     OW 1081   2.072   0.137   0.837 -0.6136  0.5914  0.7035
  361SOL    HW1 1082   2.126   0.226   0.820 -1.4053  1.3270 -0.4116
  361SOL    HW2 1083   2.103   0.097   0.928 -0.8070  3.6177 -0.1036
  362SOL     OW 1084   1.965   1.251   1.206 -0.5299  0.1362  0.2409
  362SOL    HW1 1085   1.998   1.312   1.128 -1.8524 -0.2947 -0.1619
  362SOL    HW2 1086   2.034   1.246   1.280  1.1253 -0.1948 -1.5968
  363SOL     OW 1087   2.139   1.466   2.167  0.5755 -0.4570  0.1067
  363SOL    HW1 1088   2.233   1.498   2.170 -1.3655 -0.5562  0.2506
  363SOL    HW2 1089   2.127   1.399   2.089 -3.1544 -1.1613 -0.5864
  364SOL     OW 1090   0.407   3.014   1.586  0.5984  0.2608  0.1051
  364SOL    HW1 1091   0.424   2.915   1.611 -0.1467 -2.1858  1.3041
  364SOL    HW2 1092   0.305   3.039   1.576 -1.9811  1.3451  0.1794
  365SOL     OW 1093   0.601   0.137   3.004 -0.0879 -0.0774 -0.5200
  365SOL    HW1 1094   0.554   0.070   2.943  1.2116 -1.6687  1.3684
  365SOL    HW2 1095   0.701   0.110   3.012  0.6324  0.3198  0.0890
  366SOL     OW 1096   1.915   2.513   2.914  0.0608 -0.0115 -0.4315
  366SOL    HW1 1097   1.939   2.578   2.837  1.4576 -0.1868 -0.1561
  366SOL    HW2 1098   1.997   2.472   2.958 -1.2348 -0.1148 -1.3067
  367SOL     OW 1099   2.872   2.379   2.989 -0.4865  0.1482 -0.3388
  367SOL    HW1 1100   2.789   2.412   3.037 -0.3148 -0.3791  0.3437
  367SOL    HW2 1101   2.942   2.343   3.054 -0.8920  0.6109  1.8173
  368SOL     OW 1102   0.245   1.068   1.308  0.2717 -0.2391 -0.9505
  368SOL    HW1 1103   0.159   1.131   1.315 -5.6839  3.8010  0.4573
  368SOL    HW2 1104   0.323   1.087   1.364 -1.2879 -0.1168 -1.8357
  369SOL     OW 1105   0.851   2.891   2.979 -0.0937  0.4972  0.1118
  369SOL    HW1 1106   0.957   2.879   2.989 -1.2688  0.4281 -0.4972
  369SOL    HW2 1107   0.815   2.809   2.929  0.0663 -3.7234 -0.6470
  370SOL     OW 1108   2.708   0.824   0.351 -0.1346  0.2699 -0.1436
  370SOL    HW1 1109   2.798   0.872   0.339 -0.5875 -0.5660 -0.0062
  370SOL    HW2 1110   2.637   0.880   0.315  1.5431 -0.4592 -1.9796
  371SOL     OW 1111   1.712   2.294   0.523 -0.0812 -0.2668  0.5792
  371SOL    HW1 1112   1.692   2.200   0.544  0.7365  0.5236  0.2650
  371SOL    HW2 1113   1.699   2.319   0.424  0.3372  0.2763 -0.3477
  372SOL     OW 1114   3.065   1.045   2.837 -0.3104  0.1020 -0.1567
  372SOL    HW1 1115   0.013   0.967   2.810 -0.7953 -0.1773 -0.0759
  372SOL    HW2 1116   3.053   1.106   2.756  0.4818 -1.1356 -2.5398
  373SOL     OW 1117   2.960   1.467   1.210 -0.0665  0.0853 -0.2412
  373SOL    HW1 1118   2.992   1.493   1.300 -4.4704  0.1740 -2.1634
  373SOL    HW2 1119   3.012   1.502   1.130 -0.1369  0.2843 -1.5437
  374SOL     OW 1120   0.607   2.889   3.082 -0.2462 -0.7848 -0.1975
  374SOL    HW1 1121   0.567   2.975   0.021  0.8163  2.9254 -0.5890
  374SOL    HW2 1122   0.708   2.900   3.068 -2.3461 -1.1234  1.9700
  375SOL     OW 1123   0.177   0.064   0.012  0.0041  0.1051 -0.6011
  375SOL    HW1 1124   0.227   0.107   0.092  2.1474 -1.9840  0.5149
  375SOL    HW2 1125   0.078   0.089   0.025 -1.5911  1.3226 -0.5016
  376SOL     OW 1126   0.090   2.224   1.677 -0.0732  0.1330  0.5919
  376SOL    HW1 1127   3.104   2.205   1.636  1.1971  1.9950 -0.0464
  376SOL    HW2 1128   0.152   2.251   1.598 -0.5051 -2.4509  1.6261
  377SOL     OW 1129   1.554   2.484   2.581 -0.1929 -0.3562 -0.6961
  377SOL    HW1 1130   1.572   2.387   2.573  1.6131  0.0263 -1.8005
  377SOL    HW2 1131   1.465   2.517   2.547 -0.0334  0.1014 -1.3079
  378SOL     OW 1132   0.596   0.404   3.095 -0.2860  0.1886  0.3242
  378SOL    HW1 1133   0.555   0.474   3.037  0.2626 -1.1563 -1.4266
  378SOL    HW2 1134   0.586   0.312   3.052 -0.9274  2.3468 -0.5787
  379SOL     OW 1135   0.630   1.045   0.497 -0.3778  0.3657 -0.1449
  379SOL    HW1 1136   0.723   1.075   0.463  1.6719 -1.8938 -0.5740
  379SOL    HW2 1137   0.636   0.945   0.515 -0.6430  3.2709  0.0462
  380SOL     OW 1138   3.053   1.851   1.890  0.0967 -0.3922 -0.2387
  380SOL    HW1 1139   2.993   1.767   1.883  0.0450 -0.8331  0.0332
  380SOL    HW2 1140   0.033   1.832   1.944  1.4895  0.5264  2.3955
  381SOL     OW 1141   0.225   0.964   1.909 -0.1601  0.7391 -0.3242
  381SOL    HW1 1142   0.273   1.048   1.883  3.2247  1.2516  0.0331
  381SOL    HW2 1143   0.152   0.945   1.840  1.1949 -0.3916  1.0585
  382SOL     OW 1144   2.494   1.997   0.224 -0.4137 -0.5642 -0.0878
  382SOL    HW1 1145   2.463   1.902   0.220  0.5186 -0.5085  0.2294
  382SOL    HW2 1146   2.514   2.035   0.132 -1.7329 -0.0716  0.0786
  383SOL     OW 1147   2.803   1.936   2.803  0.1281  0.4850  0.1305
  383SOL    HW1 1148   2.900   1.891   2.817  1.6603  0.7516  1.9952
  383SOL    HW2 1149   2.808   2.034   2.810 -1.2797 -0.1739 -1.2984
  384SOL     OW 1150   0.396   2.380   2.690  0.2046  0.3018 -0.7392
  384SOL    HW1 1151   0.297   2.358   2.702  0.4072  0.0008  0.7991
  384SOL    HW2 1152   0.418   2.393   2.592  0.5125  1.1281  0.2191
  385SOL     OW 1153   0.031   1.293   1.030  0.0354  1.0377  0.0015
  385SOL    HW1 1154   3.093   1.273   1.122  0.2282 -1.1606 -0.2528
  385SOL    HW2 1155   3.061   1.310   0.960  1.1689  1.5250 -0.7292
  386SOL     OW 1156   2.137   1.614   1.341  0.2305  0.3426  0.2874
  386SOL    HW1 1157   2.146   1.689   1.418 -0.3083  2.0392  3.0080
  386SOL    HW2 1158   2.199   1.636   1.266  0.3643  0.2677  0.7583
  387SOL     OW 1159   2.716   1.313   1.917 -0.0108  0.2319 -0.2483
  387SOL    HW1 1160   2.694   1.245   1.845 -0.9950  3.7017 -2.3107
  387SOL    HW2 1161   2.708   1.405   1.877  2.4448  1.2110  0.5269
  388SOL     OW 1162   2.688   1.419   2.189  0.0749 -0.1011 -0.0459
  388SOL    HW1 1163   2.696   1.374   2.277  0.2554  0.9342 -1.1429
  388SOL    HW2 1164   2.699   1.359   2.109 -0.8633  0.4969  1.0942
  389SOL     OW 1165   2.151   1.302   1.939 -0.6639  0.5219  0.3617
  389SOL    HW1 1166   2.071   1.242   1.957 -1.4177  0.3511  1.3354
  389SOL    HW2 1167   2.241   1.260   1.954 -0.4095 -0.0321  0.9204
  390SOL     OW 1168   1.763   2.786   0.391 -0.2484  0.0112  0.2460
  390SOL    HW1 1169   1.834   2.856   0.375 -2.0065 -1.8866 -0.2404
  390SOL    HW2 1170   1.785   2.727   0.476  0.3808 -1.6576  1.8281
  391SOL     OW 1171   2.509   1.896   0.861 -0.4580  0.2624  0.2115
  391SOL    HW1 1172   2.508   1.967   0.934 -0.0160  0.2732 -2.3251
  391SOL    HW2 1173   2.453   1.930   0.784  0.6529  1.1148  2.5059
  392SOL     OW 1174   2.941   2.569   1.023 -0.4769  0.0472 -0.1223
  392SOL    HW1 1175   2.982   2.603   0.940 -1.0213  1.1130  0.7438
  392SOL    HW2 1176   3.004   2.587   1.105 -0.3296 -1.4039  0.5981
  393SOL     OW 1177   1.812   1.980   2.876  0.4153  0.2284 -0.3204
  393SOL    HW1 1178   1.909   1.982   2.900 -0.0577  2.8901 -0.4151
  393SOL    HW2 1179   1.764   1.901   2.927  0.1204 -1.4687  1.6090
  394SOL     OW 1180   0.200   0.247   2.713  0.2035  0.1106 -0.0738
  394SOL    HW1 1181   0.286   0.213   2.672  0.5931  0.0719  0.7599
  394SOL    HW2 1182   0.211   0.241   2.817 -0.5397  2.9613 -0.0594
  395SOL     OW 1183   0.880   0.830   0.953  0.0402  0.6467 -0.4746
  395SOL    HW1 1184   0.930   0.746   0.908  1.5497 -0.7201  0.6083
  395SOL    HW2 1185   0.896   0.912   0.895 -1.2536  0.4541 -1.0310
  396SOL     OW 1186   1.155   0.920   0.349  0.2572 -0.4890  0.5381
  396SOL    HW1 1187   1.090   0.872   0.417 -0.1612 -0.4882  0.7665
  396SOL    HW2 1188   1.158   0.869   0.261 -1.6491 -1.3485  1.6888
  397SOL     OW 1189   0.331   0.738   2.064 -0.3568 -0.4405 -0.5694
  397SOL    HW1 1190   0.298   0.824   2.014 -2.1740  0.7144 -2.2189
  397SOL    HW2 1191   0.269   0.656   2.050  1.7636 -0.3992  0.1307
  398SOL     OW 1192   1.308   0.115   0.563 -0.1823  0.0436  0.5771
  398SOL    HW1 1193   1.387   0.062   0.534 -1.9093 -1.5094  0.6332
  398SOL    HW2 1194   1.221   0.068   0.542  3.1948  0.8831 -3.4219
  399SOL     OW 1195   2.020   2.840   1.689 -0.0354  0.1126  0.0799
  399SOL    HW1 1196   1.942   2.789   1.731 -1.7338  2.1243 -0.9826
  399SOL    HW2 1197   1.989   2.906   1.622  0.8647  0.7341 -0.3448
  400SOL     OW 1198   1.128   1.679   2.189 -0.6412 -0.0041 -0.3745
  400SOL    HW1 1199   1.141   1.770   2.228  2.3529  0.5012 -1.1936
  400SOL    HW2 1200   1.217   1.624   2.176  1.5110  0.4924 -0.1720
  401SOL     OW 1201   0.560   0.969   2.908 -0.2341 -0.0512 -0.2641
  401SOL    HW1 1202   0.534   0.897   2.975  0.3194  2.1186  0.4351
  401SOL    HW2 1203   0.477   0.985   2.845 -1.9706 -1.2457 -0.3252
  402SOL     OW 1204   2.941   1.891   1.308 -0.4437  0.4421 -0.0139
  402SOL    HW1 1205   2.893   1.895   1.399 -3.6931  0.4877  0.2063
  402SOL    HW2 1206   2.879   1.842   1.244  0.6922  1.1466  0.1102
  403SOL     OW 1207   3.094   0.930   2.065  0.6483  0.0558 -0.4194
  403SOL    HW1 1208   3.033   1.004   2.024 -0.8273 -1.6736 -0.0119
  403SOL    HW2 1209   0.087   0.945   2.060 -1.5192  0.3931 -4.2694
  404SOL     OW 1210   0.041   2.653   1.729 -0.6201  0.1947  0.0377
  404SOL    HW1 1211   0.119   2.646   1.660  2.2116 -1.4450 -3.5380
  404SOL    HW2 1212   3.055   2.643   1.686  0.5661 -1.1143  1.9417
  405SOL     OW 1213   0.642   0.361   2.085  0.0076 -0.2403  0.0231
  405SOL    HW1 1214   0.742   0.373   2.100 -3.5827  1.4960  0.1431
  405SOL    HW2 1215   0.590   0.322   2.162  0.9421  0.7797 -0.9530
  406SOL     OW 1216   1.584   2.127   2.287  0.4515  0.0494  0.0252
  406SOL    HW1 1217   1.665   2.179   2.251 -1.1850 -2.3598  2.4762
  406SOL    HW2 1218   1.607   2.030   2.291 -1.4995  0.8411 -2.7253
  407SOL     OW 1219   1.378   1.559   2.413  0.4775  0.8844 -0.2558
  407SOL    HW1 1220   1.406   1.596   2.322 -1.2247  1.8026 -2.6193
  407SOL    HW2 1221   1.300   1.492   2.409  0.2453 -0.0929  2.6437
  408SOL     OW 1222   0.868   0.186   2.417  0.4414 -0.3152 -0.5839
  408SOL    HW1 1223   0.825   0.149   2.332  0.1616  1.4381 -1.6004
  408SOL    HW2 1224   0.861   0.122   2.496  1.7236  0.3711 -1.1117
  409SOL     OW 1225   0.516   2.072   0.379  0.1263  0.1108 -0.1878
  409SOL    HW1 1226   0.531   1.976   0.345  0.7935 -1.1068 -0.9211
  409SOL    HW2 1227   0.594   2.120   0.421 -0.1282 -0.4719 -0.5107
  410SOL     OW 1228   2.779   1.109   0.410  0.5796  0.1881 -0.4103
  410SOL    HW1 1229   2.850   1.036   0.416 -0.1384  0.2601 -0.6982
  410SOL    HW2 1230   2.771   1.132   0.311  1.7014  0.5341  3.0623
  411SOL     OW 1231   2.902   3.025   0.963  0.1744 -0.3632  0.1326
  411SOL    HW1 1232   2.846   3.093   1.017  1.2386 -0.5887 -2.3549
  411SOL    HW2 1233   2.876   3.023   0.860 -2.4879 -0.5300 -3.4587
  412SOL     OW 1234   1.497   1.005   1.211 -0.6776  0.0516 -0.4166
  412SOL    HW1 1235   1.498   1.087   1.149 -0.6587 -1.6706 -1.9430
  412SOL    HW2 1236   1.593   0.991   1.249 -0.4147  1.5136  0.6773
  413SOL     OW 1237   0.633   2.741   1.459  0.0388  0.0083  0.6706
  413SOL    HW1 1238   0.672   2.827   1.426 -1.3983  0.7739  1.9588
  413SOL    HW2 1239   0.659   2.667   1.393 -2.0944  0.2138 -1.1792
  414SOL     OW 1240   2.766   1.587   2.673 -0.1840 -0.0841 -0.2858
  414SOL    HW1 1241   2.723   1.673   2.651  1.1661 -1.8862  0.9870
  414SOL    HW2 1242   2.788   1.575   2.773  1.2581 -1.5325 -1.8835
  415SOL     OW 1243   0.409   2.486   3.008 -0.0868 -0.0472 -0.0281
  415SOL    HW1 1244   0.337   2.421   2.979  2.0002 -1.3554 -0.0182
  415SOL    HW2 1245   0.392   2.582   2.978 -1.4582 -0.7408  5.5306
  416SOL     OW 1246   2.014   2.996   0.603  0.6758 -0.0946  0.5970
  416SOL    HW1 1247   2.015   3.098   0.609  1.9393 -1.8063 -0.9131
  416SOL    HW2 1248   2.089   2.962   0.547 -0.9174 -1.8101  2.1758
  417SOL     OW 1249   0.344   0.668   0.936  0.2222 -0.5516  0.0154
  417SOL    HW1 1250   0.436   0.709   0.947 -0.0276 -4.3789 -0.4203
  417SOL    HW2 1251   0.363   0.570   0.956  0.7316  0.1025  1.0945
  418SOL     OW 1252   2.568   0.348   1.370 -0.1621  0.2196  0.2275
  418SOL    HW1 1253   2.607   0.392   1.454  0.1548 -0.0404 -0.0405
  418SOL    HW2 1254   2.485   0.294   1.391  1.0597 -1.3023  1.1614
  419SOL     OW 1255   3.048   0.416   0.310  0.4703  0.0500  0.1702
  419SOL    HW1 1256   3.041   0.515   0.295  3.4851 -1.6537 -0.5628
  419SOL    HW2 1257   2.995   0.383   0.393 -0.4461  3.2235  3.9227
  420SOL     OW 1258   0.359   1.457   1.714 -0.3452 -0.2852  0.2052
  420SOL    HW1 1259   0.450   1.459   1.769 -0.1603  0.5714  0.6280
  420SOL    HW2 1260   0.346   1.359   1.687 -0.6830  0.0863 -0.7496
  421SOL     OW 1261   1.082   3.082   0.488 -0.2397  0.3071 -0.7980
  421SOL    HW1 1262   1.006   3.010   0.505 -2.6269 -0.2879 -1.8574
  421SOL    HW2 1263   1.117   3.081   0.397 -1.4038 -3.0263  0.3473
  422SOL     OW 1264   0.090   0.470   1.586  0.1236 -0.2475  0.5768
  422SOL    HW1 1265   0.135   0.510   1.663 -1.3171  1.8704  0.1378
  422SOL    HW2 1266   0.085   0.537   1.510  1.0749  0.2355 -1.3514
  423SOL     OW 1267   1.217   1.059   1.397 -0.3711  0.0505 -0.1179
  423SOL    HW1 1268   1.287   1.001   1.347 -0.4216 -0.0810  0.7370
  423SOL    HW2 1269   1.121   1.029   1.369 -0.5947 -0.5740 -1.1199
  424SOL     OW 1270   2.026   1.555   2.748 -0.0208 -0.2448  0.1916
  424SOL    HW1 1271   2.047   1.520   2.839  1.8336  1.8806 -1.9014
  424SOL    HW2 1272   1.924   1.548   2.737 -1.0135  0.0208 -0.2782
  425SOL     OW 1273   3.022   0.415   2.236 -0.1098  0.4724 -0.3880
  425SOL    HW1 1274   2.973   0.363   2.311  0.5277  0.7194 -0.0332
  425SOL    HW2 1275   2.953   0.481   2.195 -2.0322  2.5452 -1.4777
  426SOL     OW 1276   0.264   2.981   2.945  0.7124 -0.3221  0.3485
  426SOL    HW1 1277   0.226   3.030   3.020  0.7234 -3.8209 -2.6866
  426SOL    HW2 1278   0.196   2.982   2.864  0.7221 -3.6373 -0.0901
  427SOL     OW 1279   1.131   1.028   2.651 -0.9038  0.2815 -0.0064
  427SOL    HW1 1280   1.184   1.109   2.679 -2.9267 -0.0507 -1.1297
  427SOL    HW2 1281   1.068   1.008   2.725  2.2387  0.1488 -1.3840
  428SOL     OW 1282   2.658   1.169   1.695 -0.0531 -0.1137 -0.1603
  428SOL    HW1 1283   2.664   1.076   1.726  2.5478  1.8974  0.5880
  428SOL    HW2 1284   2.656   1.170   1.593 -2.8630  2.6051  2.0053
  429SOL     OW 1285   2.363   2.628   0.580  0.5773 -0.1268  0.0831
  429SOL    HW1 1286   2.396   2.559   0.646  1.5991  0.3022  2.0887
  429SOL    HW2 1287   2.274   2.600   0.542 -0.8916 -1.3146  0.7560
  430SOL     OW 1288   0.841   1.233   2.408 -0.5731 -0.4822  0.3109
  430SOL    HW1 1289   0.846   1.133   2.398  0.2442  2.9757 -0.8166
  430SOL    HW2 1290   0.831   1.264   2.506  1.4319 -0.9362 -1.5125
  431SOL     OW 1291   2.745   1.493   1.507 -0.4146 -0.0689  0.3490
  431SOL    HW1 1292   2.779   1.589   1.508  0.9470 -3.0407 -1.1840
  431SOL    HW2 1293   2.818   1.419   1.520  1.2185 -1.1165  1.7937
  432SOL     OW 1294   1.020   2.719   2.324  0.0509  0.2249 -0.5215
  432SOL    HW1 1295   1.049   2.675   2.238 -1.4599 -1.7399  0.8425
  432SOL    HW2 1296   1.020   2.654   2.398 -1.1037 -1.4341 -0.0113
  433SOL     OW 1297   2.005   0.233   2.480 -0.2753 -0.2424 -0.0951
  433SOL    HW1 1298   2.104   0.253   2.447  1.4920 -0.3133 -3.1418
  433SOL    HW2 1299   1.940   0.253   2.404  0.1916 -1.9643 -0.7760
  434SOL     OW 1300   0.393   2.768   2.387 -0.3431  0.3711  0.1987
  434SOL    HW1 1301   0.372   2.721   2.470  0.6030  1.9891 -1.6070
  434SOL    HW2 1302   0.365   2.712   2.306 -0.2033 -0.4171 -1.6598
  435SOL     OW 1303   0.014   2.801   0.333 -0.3630  1.0003  0.2405
  435SOL    HW1 1304   3.094   2.852   0.418  0.6952 -0.6105 -0.2263
  435SOL    HW2 1305   3.065   2.714   0.324 -1.4898 -1.1917 -1.2504
  436SOL     OW 1306   0.841   0.610   2.130 -0.0232 -0.1969 -0.2141
  436SOL    HW1 1307   0.748   0.635   2.101  4.0512 -1.4529  1.8273
  436SOL    HW2 1308   0.858   0.509   2.127 -0.9536 -0.5771 -2.2263
  437SOL     OW 1309   0.059   2.748   2.349  0.3523  0.1512 -0.1453
  437SOL    HW1 1310   0.030   2.696   2.431 -2.1257 -2.1169 -0.5086
  437SOL    HW2 1311   0.131   2.698   2.300 -3.2229  0.9852  3.5658
  438SOL     OW 1312   0.776   1.297   1.824 -0.2137  0.0173 -0.0648
  438SOL    HW1 1313   0.801   1.236   1.899  1.0093  3.2969  0.3160
  438SOL    HW2 1314   0.853   1.362   1.799  2.2685 -0.6701  0.4904
  439SOL     OW 1315   2.376   0.964   2.133  0.1195 -0.5940 -0.3300
  439SOL    HW1 1316   2.320   0.982   2.217 -1.5915 -0.3164 -0.1042
  439SOL    HW2 1317   2.401   1.058   2.098  0.2396  0.6415  1.0859
  440SOL     OW 1318   0.388   0.828   0.362  0.2834 -0.1680  0.4956
  440SOL    HW1 1319   0.428   0.819   0.272 -0.3141 -0.7714  0.6293
  440SOL    HW2 1320   0.338   0.743   0.388  4.2461  1.3331  0.8021
  441SOL     OW 1321   0.888   2.559   1.409  0.0531 -0.1265 -0.1660
  441SOL    HW1 1322   0.979   2.513   1.400 -0.5664  1.4040  0.1542
  441SOL    HW2 1323   0.829   2.551   1.327  2.8636  0.7895 -1.3430
  442SOL     OW 1324   2.605   1.357   0.707  0.3467 -0.0992 -1.1555
  442SOL    HW1 1325   2.579   1.358   0.806  0.1774 -1.9102  3.3439
  442SOL    HW2 1326   2.682   1.424   0.689 -0.0209  1.5259 -1.1589
  443SOL     OW 1327   2.645   1.962   2.397  0.1221 -0.7417 -0.0194
  443SOL    HW1 1328   2.595   2.048   2.410  0.2965 -0.0778 -1.6933
  443SOL    HW2 1329   2.631   1.931   2.302 -1.8232 -2.2662  0.9749
  444SOL     OW 1330   1.614   1.478   2.926  0.3885 -0.0869 -0.6281
  444SOL    HW1 1331   1.655   1.529   3.004 -0.9316 -0.5107 -0.1463
  444SOL    HW2 1332   1.534   1.420   2.953  1.7346  1.6224 -0.8085
  445SOL     OW 1333   2.593   2.802   2.148  0.7729  0.4219 -0.2269
  445SOL    HW1 1334   2.527   2.728   2.129 -0.6881  0.2979 -0.4979
  445SOL    HW2 1335   2.631   2.844   2.064 -0.7432 -3.3695  0.5741
  446SOL     OW 1336   0.493   1.069   1.464 -0.2648  0.0065 -0.1070
  446SOL    HW1 1337   0.519   0.985   1.415 -1.5778 -2.0397  0.9004
  446SOL    HW2 1338   0.568   1.102   1.524 -0.5959 -0.1627 -0.0510
  447SOL     OW 1339   0.848   1.410   0.968 -0.4463  0.1725 -0.4334
  447SOL    HW1 1340   0.884   1.332   1.025 -1.8278 -0.9841  0.5354
  447SOL    HW2 1341   0.751   1.428   0.992  3.3819  1.4501 -0.9201
  448SOL     OW 1342   1.218   1.153   1.665  0.0508 -0.2442  0.0414
  448SOL    HW1 1343   1.160   1.090   1.716  1.0707  1.8154 -1.8844
  448SOL    HW2 1344   1.249   1.108   1.577 -1.8143 -1.1998  1.2707
  449SOL     OW 1345   3.079   2.152   2.326  0.1140 -0.4036 -0.7142
  449SOL    HW1 1346   3.088   2.227   2.259 -0.5061 -0.1540  1.8105
  449SOL    HW2 1347   0.063   2.131   2.366  2.2192  2.9802  2.7884
  450SOL     OW 1348   2.824   2.006   1.947 -0.4278  0.4396  0.5100
  450SOL    HW1 1349   2.835   2.107   1.944 -1.1598 -0.5195 -0.6262
  450SOL    HW2 1350   2.921   1.968   1.948 -0.7417 -0.9735 -1.3939
  451SOL     OW 1351   2.193   0.973   1.213 -0.2678  0.1349 -0.0628
  451SOL    HW1 1352   2.128   0.931   1.277 -1.1673  0.5570 -3.6392
  451SOL    HW2 1353   2.279   0.920   1.199  0.1927 -0.2137  0.5640
  452SOL     OW 1354   0.449   1.218   1.155 -0.4851 -0.1126  0.0131
  452SOL    HW1 1355   0.547   1.190   1.160 -0.5156 -0.0752 -1.5922
  452SOL    HW2 1356   0.397   1.154   1.216 -0.6032 -1.5690  4.0834
  453SOL     OW 1357   0.589   1.452   1.024 -0.2843 -0.2968 -0.1206
  453SOL    HW1 1358   0.542   1.384   1.076 -1.1642  1.4289 -2.3146
  453SOL    HW2 1359   0.524   1.506   0.971 -0.5367 -1.4420  1.9728
  454SOL     OW 1360   0.401   1.814   0.183  0.1563 -0.0636  0.5999
  454SOL    HW1 1361   0.488   1.866   0.177 -1.3804 -2.9366  0.3587
  454SOL    HW2 1362   0.412   1.729   0.123 -0.9281 -1.5634  0.0297
  455SOL     OW 1363   1.906   0.833   0.637 -0.3150  0.6305 -0.0571
  455SOL    HW1 1364   1.922   0.749   0.695  0.4511 -0.8575  1.4937
  455SOL    HW2 1365   1.870   0.909   0.697  1.9273  0.7556 -0.7953
  456SOL     OW 1366   1.988   2.443   0.878  0.1457 -0.6196 -0.0423
  456SOL    HW1 1367   2.051   2.529   0.863  3.0533  3.3040  2.5430
  456SOL    HW2 1368   2.044   2.367   0.913  0.5246 -2.4005 -2.9485
  457SOL     OW 1369   2.050   3.071   2.513 -0.6270  0.4441  0.0583
  457SOL    HW1 1370   2.026   0.060   2.498 -2.0584 -0.2912  0.2298
  457SOL    HW2 1371   2.024   3.020   2.429  1.4982 -1.3812  1.7893
  458SOL     OW 1372   2.246   0.358   0.352  0.6177 -0.1835  0.2362
  458SOL    HW1 1373   2.314   0.348   0.275 -1.2295 -1.0206 -2.2225
  458SOL    HW2 1374   2.180   0.440   0.342 -2.6206  1.9850  1.7010
  459SOL     OW 1375   0.014   1.114   2.363 -0.1178  0.1942  0.0022
  459SOL    HW1 1376   3.028   1.095   2.319  1.5406 -1.4826  0.1865
  459SOL    HW2 1377   0.066   1.185   2.312  1.0859  1.8239 -1.7812
  460SOL     OW 1378   0.250   0.811   3.039 -0.1324  0.3521  0.0009
  460SOL    HW1 1379   0.208   0.792   2.947  2.7936 -1.7047  2.2240
  460SOL    HW2 1380   0.335   0.868   3.029 -1.7911 -1.6682 -0.2824
  461SOL     OW 1381   2.815   2.377   0.870  0.1818  0.7799 -0.3307
  461SOL    HW1 1382   2.857   2.449   0.932  0.2140 -0.9086  1.8965
  461SOL    HW2 1383   2.844   2.285   0.907 -0.0069 -1.0633  1.6992
  462SOL     OW 1384   0.266   0.203   1.761 -0.3762  0.4727  0.0419
  462SOL    HW1 1385   0.329   0.257   1.817 -0.7234 -2.6810  0.3453
  462SOL    HW2 1386   0.304   0.176   1.669 -0.1613  1.8355  0.8494
  463SOL     OW 1387   2.061   2.259   2.092 -0.0284  0.7498  0.4589
  463SOL    HW1 1388   1.997   2.180   2.112  1.2747 -0.7275  0.0464
  463SOL    HW2 1389   2.012   2.339   2.049 -0.5101 -2.8657  0.2988
  464SOL     OW 1390   0.438   0.169   1.514 -0.6980 -0.5864 -0.0202
  464SOL    HW1 1391   0.510   0.235   1.538 -2.1205 -2.6809  0.6517
  464SOL    HW2 1392   0.470   0.072   1.521 -1.1159 -0.5707 -0.7116
  465SOL     OW 1393   0.739   0.114   1.435 -0.2385 -0.1210 -0.3728
  465SOL    HW1 1394   0.838   0.118   1.449 -0.2168 -0.1592  3.0394
  465SOL    HW2 1395   0.700   0.164   1.512 -0.8743 -2.6683 -2.3971
  466SOL     OW 1396   1.431   1.899   1.784 -0.1952  0.3327 -0.0994
  466SOL    HW1 1397   1.482   1.860   1.703  1.7217  0.5585 -4.7029
  466SOL    HW2 1398   1.330   1.887   1.765  1.6377 -1.7780 -1.4227
  467SOL     OW 1399   0.354   1.807   1.315 -0.0149 -0.1447 -0.6046
  467SOL    HW1 1400   0.439   1.752   1.310  0.0646  0.9517 -0.8046
  467SOL    HW2 1401   0.364   1.892   1.366 -1.5729  0.1876  0.6883
  468SOL     OW 1402   2.346   2.140   2.563 -0.1980 -0.2085 -0.2052
  468SOL    HW1 1403   2.430   2.149   2.504  1.0539 -0.6246  0.8867
  468SOL    HW2 1404   2.289   2.065   2.528  1.1223  2.2589 -1.3780
  469SOL     OW 1405   1.349   2.260   0.532  0.7544 -0.0771 -0.3179
  469SOL    HW1 1406   1.282   2.209   0.475  3.5289  2.8433  1.0264
  469SOL    HW2 1407   1.362   2.354   0.509 -1.9004 -0.2471  2.4411
  470SOL     OW 1408   2.188   1.626   0.956  0.5639  0.0018  0.3072
  470SOL    HW1 1409   2.221   1.687   1.035  0.7038  2.6194  0.5606
  470SOL    HW2 1410   2.265   1.600   0.897  0.5251 -1.5656  0.7829
  471SOL     OW 1411   0.528   2.494   0.390  0.7483  0.2144 -0.0196
  471SOL    HW1 1412   0.438   2.530   0.369 -0.7256 -2.1267  0.7537
  471SOL    HW2 1413   0.595   2.565   0.389  3.3646 -1.8761  2.5274
  472SOL     OW 1414   2.681   1.850   2.131  0.4422  0.9237 -0.2914
  472SOL    HW1 1415   2.736   1.778   2.177  0.6261  2.2755  1.1690
  472SOL    HW2 1416   2.738   1.913   2.069 -0.5112  1.8149  1.3050
  473SOL     OW 1417   1.207   2.870   0.650 -0.2614  0.0864 -0.4506
  473SOL    HW1 1418   1.310   2.870   0.651  2.3041 -0.4124  2.0552
  473SOL    HW2 1419   1.176   2.899   0.560  1.7614 -2.3547  3.6691
  474SOL     OW 1420   2.941   3.054   1.339  0.3265 -0.1507 -0.3243
  474SOL    HW1 1421   2.850   3.089   1.322  0.8900 -0.9419 -2.1683
  474SOL    HW2 1422   3.011   0.006   1.293  2.2906  0.9831 -1.1090
  475SOL     OW 1423   1.682   2.487   1.756 -0.0398  0.5216  0.1634
  475SOL    HW1 1424   1.661   2.385   1.737 -3.2740 -1.5393  1.4518
  475SOL    HW2 1425   1.596   2.542   1.745 -3.0130  0.1488  1.2358
  476SOL     OW 1426   0.377   0.411   1.008  0.5526  0.2763  0.1260
  476SOL    HW1 1427   0.467   0.391   1.058  1.0864 -0.5341  1.9017
  476SOL    HW2 1428   0.319   0.326   1.013  0.9738  0.7565  1.9673
  477SOL     OW 1429   1.024   2.416   1.026 -0.0133  0.1039 -0.3782
  477SOL    HW1 1430   0.931   2.390   1.002  3.3163  1.4710  0.4112
  477SOL    HW2 1431   1.089   2.401   0.948 -0.4301 -2.3794  1.9778
  478SOL     OW 1432   0.535   2.619   2.744 -0.0348 -0.3407  0.0767
  478SOL    HW1 1433   0.514   2.521   2.760 -0.9481 -0.9069  1.0823
  478SOL    HW2 1434   0.478   2.684   2.793  0.0523 -1.3638  1.7004
  479SOL     OW 1435   0.141   0.537   2.002 -0.4369 -0.0923  0.2254
  479SOL    HW1 1436   0.063   0.594   2.041 -1.2588 -2.6288  0.0789
  479SOL    HW2 1437   0.144   0.452   2.056 -2.1411  1.1615  1.8275
  480SOL     OW 1438   0.037   2.080   3.050 -0.5554 -1.0764  0.4232
  480SOL    HW1 1439   0.010   2.172   3.089 -1.1939  1.3358  2.6734
  480SOL    HW2 1440   0.125   2.039   3.090  2.4757 -1.2818 -0.5560
  481SOL     OW 1441   1.496   2.495   2.176  0.6249 -0.1874  0.2892
  481SOL    HW1 1442   1.581   2.440   2.175 -0.1101  0.0610 -2.3490
  481SOL    HW2 1443   1.423   2.448   2.120 -0.4103 -0.5703 -1.3337
  482SOL     OW 1444   1.481   2.050   2.890  0.6640 -0.3516 -0.0335
  482SOL    HW1 1445   1.563   2.109   2.888 -2.6028 -0.2064  0.1761
  482SOL    HW2 1446   1.508   1.948   2.888  0.3804 -3.6942  3.6312
  483SOL     OW 1447   0.763   2.594   2.910  0.1726 -0.0742 -0.2266
  483SOL    HW1 1448   0.673   2.630   2.868 -0.4755  0.8882 -0.1927
  483SOL    HW2 1449   0.831   2.555   2.846  1.3044  0.6193 -0.1796
  484SOL     OW 1450   0.027   0.053   0.880 -0.5933  0.8737 -0.1577
  484SOL    HW1 1451   3.049   0.010   0.915 -1.9075 -1.1519  1.6365
  484SOL    HW2 1452   0.062   3.106   0.798  0.0077 -0.4835  0.1040
  485SOL     OW 1453   1.695   0.768   0.498  0.5075 -0.0345 -0.6170
  485SOL    HW1 1454   1.774   0.795   0.558  0.5013 -0.0951 -2.6296
  485SOL    HW2 1455   1.654   0.681   0.526 -1.8839 -1.0316 -2.0287
  486SOL     OW 1456   1.874   2.676   2.128 -0.1707 -0.0178 -0.3542
  486SOL    HW1 1457   1.974   2.695   2.128 -0.9502  1.0507 -0.3965
  486SOL    HW2 1458   1.825   2.718   2.207  2.8498 -2.1320 -2.5728
  487SOL     OW 1459   1.678   2.066   0.781 -0.1312  0.7707 -0.3909
  487SOL    HW1 1460   1.651   2.138   0.850  1.0803  1.2738  1.2311
  487SOL    HW2 1461   1.772   2.027   0.797  1.8754 -0.0819 -0.7804
  488SOL     OW 1462   1.737   0.812   0.030 -0.4043  0.0283  0.3089
  488SOL    HW1 1463   1.735   0.811   0.130  2.3680  0.6725 -1.4478
  488SOL    HW2 1464   1.802   0.739   0.003  0.8744  0.7064 -0.0707
  489SOL     OW 1465   2.350   0.024   0.609  0.3496 -0.2449 -0.0835
  489SOL    HW1 1466   2.352   0.001   0.707  1.9998 -0.4558 -0.2622
  489SOL    HW2 1467   2.401   0.110   0.583  1.5857 -1.5138 -1.9854
  490SOL     OW 1468   1.639   2.835   2.969  0.4923 -0.0152  0.0395
  490SOL    HW1 1469   1.561   2.883   3.018 -0.1432 -0.2432  1.6160
  490SOL    HW2 1470   1.711   2.900   2.937  0.7471  2.2227 -0.0414
  491SOL     OW 1471   0.887   0.393   1.106  0.3235  0.2398 -0.4457
  491SOL    HW1 1472   0.926   0.415   1.017  0.8586  2.5585 -2.7576
  491SOL    HW2 1473   0.954   0.408   1.181  0.5161  0.0491 -2.2649
  492SOL     OW 1474   1.757   0.467   0.150  0.0250  0.4289 -0.1283
  492SOL    HW1 1475   1.811   0.381   0.131 -2.7934  0.6048  1.2095
  492SOL    HW2 1476   1.796   0.508   0.234  2.5011 -0.3000 -2.1572
  493SOL     OW 1477   2.057   2.170   2.905 -0.5210  0.5194  0.1922
  493SOL    HW1 1478   2.076   2.244   2.972  2.7418  2.1358 -0.1286
  493SOL    HW2 1479   2.112   2.084   2.926  0.3609  1.0917  0.6643
  494SOL     OW 1480   0.359   0.986   0.971 -0.3472 -0.5273  0.0203
  494SOL    HW1 1481   0.397   1.019   0.885 -1.1198  0.9041  2.2490
  494SOL    HW2 1482   0.257   1.006   0.975  2.1175 -1.3929  1.8386
  495SOL     OW 1483   0.140   3.069   1.576  0.0226  0.2277  0.0739
  495SOL    HW1 1484   0.147   0.063   1.554  1.1285  1.7047 -2.0280
  495SOL    HW2 1485   0.117   3.055   1.676  1.5606  0.8636 -0.4906
  496SOL     OW 1486   2.731   2.588   1.810  0.5376  0.2821 -0.2028
  496SOL    HW1 1487   2.794   2.544   1.735  0.5577  0.2616 -3.8342
  496SOL    HW2 1488   2.671   2.514   1.848 -0.3658 -0.3325 -1.4758
  497SOL     OW 1489   1.507   1.762   2.615 -0.3595 -0.1039 -0.0294
  497SOL    HW1 1490   1.409   1.793   2.598 -3.0696 -1.6678 -2.2143
  497SOL    HW2 1491   1.519   1.682   2.553  1.7271  0.5268  1.2447
  498SOL     OW 1492   0.479   1.812   0.876 -0.3118 -0.0824  0.2558
  498SOL    HW1 1493   0.471   1.714   0.856  0.7083  0.9478 -0.5372
  498SOL    HW2 1494   0.405   1.869   0.834  1.2066 -2.4910  1.7783
  499SOL     OW 1495   0.182   1.474   1.438 -0.4023 -0.6482  0.7783
  499SOL    HW1 1496   0.220   1.470   1.532 -0.8861 -1.4780 -1.2391
  499SOL    HW2 1497   0.111   1.545   1.429 -0.5060 -0.2401  2.6707
  500SOL     OW 1498   1.414   2.489   0.379 -0.6033  0.1691  0.2574
  500SOL    HW1 1499   1.395   2.411   0.318 -1.6104 -0.9552  1.5024
  500SOL    HW2 1500   1.421   2.569   0.316  2.1055  2.4358 -2.3535
  501SOL     OW 1501   2.193   2.294   0.994 -0.1770  0.0103  0.4100
  501SOL    HW1 1502   2.236   2.368   1.047  0.8105  0.9588 -4.1902
  501SOL    HW2 1503   2.252   2.266   0.916 -1.7863 -1.8866  0.8298
  502SOL     OW 1504   0.078   0.873   1.669  0.3797  0.0424  0.6095
  502SOL    HW1 1505   0.148   0.860   1.590 -1.2053  1.4137  0.3956
  502SOL    HW2 1506   0.080   0.787   1.716  1.0914  2.6300  0.9078
  503SOL     OW 1507   2.358   0.067   1.823  0.2539 -0.1191 -0.0256
  503SOL    HW1 1508   2.266   0.098   1.789 -1.8015 -1.1379  0.8614
  503SOL    HW2 1509   2.426   0.144   1.825 -1.3407  0.8290  1.6002
  504SOL     OW 1510   2.002   0.682   1.946 -0.0880  0.0727  0.7356
  504SOL    HW1 1511   1.941   0.762   1.942  0.6106 -0.9792 -0.3187
  504SOL    HW2 1512   2.097   0.716   1.937 -0.9477 -0.0268 -0.5469
  505SOL     OW 1513   1.118   2.997   2.351  0.9144 -0.3553 -0.8766
  505SOL    HW1 1514   1.184   2.997   2.429 -0.4818  0.7991  1.2124
  505SOL    HW2 1515   1.083   2.902   2.338  0.2950  1.0467 -3.3482
  506SOL     OW 1516   0.452   0.374   1.878  0.1777  0.4932 -0.3961
  506SOL    HW1 1517   0.514   0.376   1.957 -0.4084 -1.0092 -0.6635
  506SOL    HW2 1518   0.467   0.457   1.821  0.1890 -0.0953  1.3172
  507SOL     OW 1519   1.582   0.264   2.908  0.0447 -0.0973  0.0068
  507SOL    HW1 1520   1.626   0.354   2.923 -1.5278 -1.1207 -0.5209
  507SOL    HW2 1521   1.486   0.271   2.859 -1.9866 -1.4170  0.0701
  508SOL     OW 1522   2.558   0.597   2.415 -0.0414 -0.2488  0.0242
  508SOL    HW1 1523   2.545   0.627   2.513  1.5261 -0.3093  1.2583
  508SOL    HW2 1524   2.551   0.679   2.354 -1.2525  0.4491  0.6538
  509SOL     OW 1525   0.934   1.518   2.084 -0.1770 -0.7126 -0.3777
  509SOL    HW1 1526   1.006   1.580   2.119  0.4319  1.5148  2.0457
  509SOL    HW2 1527   0.921   1.521   1.983 -0.0573  1.2269  0.8469
  510SOL     OW 1528   3.013   0.526   0.913 -0.2773 -0.0967  0.0702
  510SOL    HW1 1529   3.054   0.567   0.831  1.1958 -0.5713 -2.0312
  510SOL    HW2 1530   2.907   0.523   0.902 -0.0237  0.6927  1.7710
  511SOL     OW 1531   1.573   1.325   0.696  0.0618 -0.4101 -0.0525
  511SOL    HW1 1532   1.483   1.285   0.684 -0.1631 -1.7023 -0.3043
  511SOL    HW2 1533   1.584   1.426   0.678 -0.4787 -0.2457  1.2758
  512SOL     OW 1534   0.726   1.452   0.219 -0.4164 -0.0806  0.3603
  512SOL    HW1 1535   0.651   1.449   0.285  2.1809  0.8422  1.1663
  512SOL    HW2 1536   0.811   1.410   0.254 -2.0274  0.2168 -0.4294
  513SOL     OW 1537   0.257   2.554   0.587  0.0826  0.2376  0.5103
  513SOL    HW1 1538   0.302   2.629   0.642  0.7642  0.2034 -0.4218
  513SOL    HW2 1539   0.266   2.464   0.630  1.3366  0.0460 -3.2938
  514SOL     OW 1540   0.270   2.040   0.050  0.5567 -0.0288  0.0767
  514SOL    HW1 1541   0.372   2.043   0.043 -1.6020  1.2350 -0.6204
  514SOL    HW2 1542   0.248   1.961   0.107 -1.5911 -0.5133  3.8006
  515SOL     OW 1543   2.505   0.539   0.215 -0.2148 -0.1118  0.1500
  515SOL    HW1 1544   2.584   0.479   0.209 -1.8028 -1.5445  0.4749
  515SOL    HW2 1545   2.495   0.572   0.312 -0.2979  0.3606  0.3401
  516SOL     OW 1546   2.278   2.663   1.052 -0.0631 -0.3049  0.4348
  516SOL    HW1 1547   2.230   2.719   1.125  0.9138  0.2361  1.2079
  516SOL    HW2 1548   2.227   2.662   0.962  0.9708 -1.4321 -2.1415
  517SOL     OW 1549   1.375   1.626   3.074  0.2200 -0.6985  0.5792
  517SOL    HW1 1550   1.413   1.596   0.054 -2.6213 -0.2416 -1.3706
  517SOL    HW2 1551   1.304   1.704   3.090  0.2218 -0.2286  1.5351
  518SOL     OW 1552   1.399   0.435   1.552  0.3324  0.9628  0.2967
  518SOL    HW1 1553   1.474   0.429   1.484 -0.3256 -1.4351  1.1712
  518SOL    HW2 1554   1.379   0.524   1.584  4.0695 -4.2420 -1.2650
  519SOL     OW 1555   2.969   2.077   0.668 -0.3692  0.0681 -0.7283
  519SOL    HW1 1556   3.047   2.141   0.662 -1.1340 -0.1258 -0.1516
  519SOL    HW2 1557   2.900   2.093   0.595  0.1909  0.6298  1.1545
  520SOL     OW 1558   2.329   2.274   1.766  0.5832 -0.2171  0.1877
  520SOL    HW1 1559   2.294   2.218   1.846  0.0754  1.0100 -1.6975
  520SOL    HW2 1560   2.253   2.338   1.738  0.3851  2.8850 -2.1622
  521SOL     OW 1561   1.069   2.938   2.664 -0.7734 -0.3210  0.1045
  521SOL    HW1 1562   1.131   2.892   2.597  0.6135  0.7054  0.0918
  521SOL    HW2 1563   1.099   2.918   2.760 -1.8367  0.0267  0.8962
  522SOL     OW 1564   2.619   0.118   2.094  0.3853  0.6213  0.3237
  522SOL    HW1 1565   2.705   0.175   2.076  2.4823  1.8669 -0.2450
  522SOL    HW2 1566   2.574   0.146   2.183  1.4292 -2.0254  0.4996
  523SOL     OW 1567   1.276   2.148   1.717 -0.4687 -0.7048  0.2632
  523SOL    HW1 1568   1.205   2.112   1.780 -2.7203  2.1533 -1.2123
  523SOL    HW2 1569   1.304   2.084   1.646 -2.6032  0.0541  2.6005
  524SOL     OW 1570   2.099   2.158   0.137  0.2001  0.4253 -0.0647
  524SOL    HW1 1571   2.102   2.240   0.199 -0.3356 -1.0325  2.9309
  524SOL    HW2 1572   2.160   2.178   0.061 -1.2863 -3.9388 -0.5556
  525SOL     OW 1573   2.988   0.914   0.338  0.3743  0.3913  0.1109
  525SOL    HW1 1574   3.045   0.974   0.279  0.2254 -1.7058  0.5276
  525SOL    HW2 1575   3.034   0.831   0.363  0.2237 -1.6260  1.5402
  526SOL     OW 1576   1.060   2.917   1.209  0.3231  0.2096  0.4851
  526SOL    HW1 1577   1.147   2.953   1.174 -1.3707 -2.7042  2.4110
  526SOL    HW2 1578   1.023   2.840   1.147  0.3157 -1.8938 -0.5075
  527SOL     OW 1579   2.798   1.541   0.701 -0.1243 -0.0101  0.0136
  527SOL    HW1 1580   2.785   1.637   0.735 -2.1367 -0.5995  0.4782
  527SOL    HW2 1581   2.859   1.537   0.618  1.0587  2.9589 -0.2923
  528SOL     OW 1582   0.487   0.744   2.501  0.6108  0.0834 -0.0734
  528SOL    HW1 1583   0.505   0.828   2.550 -2.0662 -2.6001 -2.9753
  528SOL    HW2 1584   0.393   0.741   2.456 -1.8780 -1.6847 -2.1272
  529SOL     OW 1585   1.013   1.637   2.826  0.2817  0.1199 -0.0310
  529SOL    HW1 1586   1.093   1.571   2.837 -1.7548 -0.3069 -1.2735
  529SOL    HW2 1587   1.002   1.645   2.725  4.9164 -2.9977 -2.4681
  530SOL     OW 1588   1.498   1.344   2.146  0.2182  0.5506 -0.1890
  530SOL    HW1 1589   1.461   1.252   2.149  3.4818  2.1059 -0.3824
  530SOL    HW2 1590   1.561   1.361   2.225 -0.8972 -0.3139 -0.3468
  531SOL     OW 1591   0.726   2.266   2.963  0.2664  0.0328  0.1020
  531SOL    HW1 1592   0.811   2.238   3.010  0.0235  1.5186  0.4511
  531SOL    HW2 1593   0.700   2.363   2.989 -0.8877 -0.8001 -2.0643
  532SOL     OW 1594   2.338   0.757   0.200 -1.0758  0.0739  0.9273
  532SOL    HW1 1595   2.397   0.669   0.183  2.3745 -0.2197  3.2253
  532SOL    HW2 1596   2.251   0.728   0.238  1.7148 -0.1642  0.3189
  533SOL     OW 1597   3.082   0.302   1.814  0.0570  0.2977  0.1584
  533SOL    HW1 1598   0.075   0.311   1.781  1.3883 -0.8468 -4.1579
  533SOL    HW2 1599   3.052   0.400   1.823 -0.8809  0.6493  0.8479
  534SOL     OW 1600   1.731   0.535   2.992 -0.0359  0.4613  0.4271
  534SOL    HW1 1601   1.638   0.564   2.963 -2.0994  1.1654  1.5901
  534SOL    HW2 1602   1.723   0.502   3.088  0.8847  2.4505  2.5388
  535SOL     OW 1603   0.745   0.054   0.289  0.0229  0.0566  0.4216
  535SOL    HW1 1604   0.829   0.079   0.245 -3.2533 -0.0080 -0.7210
  535SOL    HW2 1605   0.684   0.023   0.216  1.1683 -0.3200  1.2107
  536SOL     OW 1606   0.481   1.531   2.124  0.3054  0.4413 -0.4605
  536SOL    HW1 1607   0.376   1.523   2.126 -1.5976 -1.0040  1.1711
  536SOL    HW2 1608   0.518   1.491   2.209 -1.4950  1.4137 -0.6199
  537SOL     OW 1609   0.433   2.412   1.983 -0.2242  0.4887 -0.0967
  537SOL    HW1 1610   0.373   2.360   1.917  0.2081 -0.0992 -0.6383
  537SOL    HW2 1611   0.413   2.396   2.084 -1.2345  0.8084  0.7463
  538SOL     OW 1612   3.002   1.821   0.298  0.0781  0.0023 -0.3393
  538SOL    HW1 1613   3.093   1.809   0.251 -0.0560 -0.8529 -4.2488
  538SOL    HW2 1614   3.005   1.787   0.397 -0.6613 -0.5640  2.6707
  539SOL     OW 1615   2.549   0.529   2.971  0.2091 -0.1925 -0.1655
  539SOL    HW1 1616   2.490   0.454   2.950 -1.0004  0.2751  1.1195
  539SOL    HW2 1617   2.630   0.497   3.018 -0.0038  0.3624  0.5075
  540SOL     OW 1618   1.356   0.851   2.752 -0.9698 -0.4351  0.7129
  540SOL    HW1 1619   1.435   0.902   2.790  0.6507 -2.3285 -1.3879
  540SOL    HW2 1620   1.289   0.909   2.706 -3.9474 -2.9233 -0.2075
  541SOL     OW 1621   0.851   0.365   1.785  0.3666 -0.3190  0.5588
  541SOL    HW1 1622   0.835   0.268   1.770  0.3893  0.3712 -0.1823
  541SOL    HW2 1623   0.807   0.394   1.873  1.8328 -1.6243  3.0644
  542SOL     OW 1624   1.804   2.609   2.486 -0.2044 -0.5456  0.1405
  542SOL    HW1 1625   1.721   2.551   2.496 -0.2295  0.1966  2.7302
  542SOL    HW2 1626   1.790   2.699   2.439 -0.6742 -1.0026 -1.7924
  543SOL     OW 1627   0.513   2.867   0.922 -0.5331 -0.6286  0.2327
  543SOL    HW1 1628   0.546   2.806   0.999 -1.8493  1.0567  0.4174
  543SOL    HW2 1629   0.585   2.934   0.884  2.9511 -2.9250  0.9301
  544SOL     OW 1630   2.835   1.645   2.208 -0.0564 -0.2004  0.3447
  544SOL    HW1 1631   2.768   1.567   2.191  1.5924  1.0284 -1.1876
  544SOL    HW2 1632   2.890   1.631   2.295  0.7374 -2.1015  0.5287
  545SOL     OW 1633   2.007   1.986   1.222 -0.2720 -0.3944  0.0576
  545SOL    HW1 1634   1.948   2.065   1.238  0.7472 -0.9450  0.0821
  545SOL    HW2 1635   1.958   1.903   1.184 -2.1512 -0.7191 -0.6266
  546SOL     OW 1636   0.202   0.218   2.394 -0.4852  0.7024  0.4455
  546SOL    HW1 1637   0.183   0.128   2.332 -0.6128 -1.9880 -2.8885
  546SOL    HW2 1638   0.211   0.189   2.488 -0.8837 -1.5836 -0.2585
  547SOL     OW 1639   1.448   0.416   0.944  0.2253  0.8001  0.4531
  547SOL    HW1 1640   1.478   0.477   1.014 -1.2176 -3.3066 -4.0402
  547SOL    HW2 1641   1.392   0.463   0.870 -2.6094  0.6303 -3.1265
  548SOL     OW 1642   1.237   2.427   2.915 -0.3632 -0.4439 -0.4352
  548SOL    HW1 1643   1.288   2.354   2.965 -0.9817 -0.1769 -0.6551
  548SOL    HW2 1644   1.298   2.485   2.863  0.4055  3.1343  1.2501
  549SOL     OW 1645   2.227   0.724   2.704  0.4988 -0.6848 -0.1414
  549SOL    HW1 1646   2.327   0.728   2.679 -1.5979 -0.9411 -0.5372
  549SOL    HW2 1647   2.169   0.716   2.619  0.0244  0.4898  0.3865
  550SOL     OW 1648   2.726   1.842   0.462  0.6121  0.2579 -0.0822
  550SOL    HW1 1649   2.661   1.763   0.447  1.4914 -0.9627 -2.0563
  550SOL    HW2 1650   2.796   1.838   0.389 -0.2671  1.2412 -1.6352
  551SOL     OW 1651   1.173   2.888   2.010 -0.1024  0.0530  0.4339
  551SOL    HW1 1652   1.209   2.937   1.925  2.4480  0.5954 -0.7599
  551SOL    HW2 1653   1.238   2.815   2.036 -1.2262  0.9006 -0.7918
  552SOL     OW 1654   3.014   2.252   2.605 -0.4052 -0.2527  0.2107
  552SOL    HW1 1655   3.013   2.195   2.519  0.2189 -3.2312 -2.4881
  552SOL    HW2 1656   2.939   2.228   2.673 -2.9560 -0.3520  1.4915
  553SOL     OW 1657   0.287   2.551   1.128 -0.3742 -0.2597 -0.5979
  553SOL    HW1 1658   0.328   2.476   1.071  0.0333 -1.6887 -0.3462
  553SOL    HW2 1659   0.187   2.538   1.132  1.1530  1.4129  0.4768
  554SOL     OW 1660   2.325   1.898   1.747  0.2750 -0.2251 -0.0803
  554SOL    HW1 1661   2.267   1.894   1.831  1.4281 -4.0240 -1.7341
  554SOL    HW2 1662   2.297   1.968   1.678 -0.4751  0.8082 -0.5747
  555SOL     OW 1663   1.598   2.054   1.936 -0.1326  0.8950 -0.2856
  555SOL    HW1 1664   1.543   1.986   1.886  2.2432  0.5866  1.3249
  555SOL    HW2 1665   1.540   2.136   1.957  0.3182  1.9924 -1.9938
  556SOL     OW 1666   1.504   1.645   1.006 -0.1752  0.0781  0.2843
  556SOL    HW1 1667   1.493   1.597   1.094  1.3492  0.3021 -2.1696
  556SOL    HW2 1668   1.556   1.732   1.011  1.9344 -2.0590  0.2511
  557SOL     OW 1669   1.303   3.092   1.565 -0.0541  0.3072 -0.0346
  557SOL    HW1 1670   1.292   0.082   1.569 -0.3565 -2.7151  0.8902
  557SOL    HW2 1671   1.214   3.054   1.537  1.2867 -0.6034 -0.8421
  558SOL     OW 1672   0.571   0.013   1.862  0.3817  0.2445 -0.0276
  558SOL    HW1 1673   0.558   0.033   1.961  2.2675 -1.1650 -1.1377
  558SOL    HW2 1674   0.493   0.041   1.803 -2.7248 -0.5856  0.2246
  559SOL     OW 1675   2.251   2.900   0.485 -0.3354 -0.0963  0.1274
  559SOL    HW1 1676   2.310   2.976   0.521 -0.2711  1.9995 -0.0540
  559SOL    HW2 1677   2.306   2.813   0.487  0.5942 -0.7534 -0.1514
  560SOL     OW 1678   1.422   2.588   0.626 -0.2889 -0.0547 -0.3015
  560SOL    HW1 1679   1.414   2.557   0.528 -3.2456  0.9489 -2.5142
  560SOL    HW2 1680   1.501   2.542   0.679  1.2930  1.4606  0.9637
  561SOL     OW 1681   1.095   0.403   0.146  0.0860 -0.0578  0.6228
  561SOL    HW1 1682   1.014   0.436   0.086 -1.3269  0.2351  0.5921
  561SOL    HW2 1683   1.100   0.459   0.231 -1.3185  0.5068 -0.5019
  562SOL     OW 1684   0.456   1.389   2.377  0.0338 -0.3962 -0.4901
  562SOL    HW1 1685   0.415   1.319   2.442 -0.7808  0.5399  4.1131
  562SOL    HW2 1686   0.488   1.473   2.425  1.2417 -0.6754  1.2891
  563SOL     OW 1687   1.597   2.211   2.533  0.1339 -0.2664 -0.2006
  563SOL    HW1 1688   1.601   2.179   2.436  1.8932 -0.8779 -1.4591
  563SOL    HW2 1689   1.655   2.156   2.595 -3.2348 -0.4169 -0.0295
  564SOL     OW 1690   2.894   0.924   0.972  0.4357  0.2542 -0.1646
  564SOL    HW1 1691   2.892   1.025   0.988 -0.0658  0.3058  0.8280
  564SOL    HW2 1692   2.922   0.892   0.878 -0.6372  2.5224 -2.0538
  565SOL     OW 1693   0.520   0.816   0.111  0.5070  0.2350  0.1964
  565SOL    HW1 1694   0.511   0.775   0.016 -2.1291 -0.7685  0.6550
  565SOL    HW2 1695   0.605   0.789   0.157  2.1001 -0.2298  0.1501
  566SOL     OW 1696   2.498   3.048   2.725 -0.1370  0.1648 -0.4812
  566SOL    HW1 1697   2.495   0.038   2.707 -2.8555 -1.1839 -1.7857
  566SOL    HW2 1698   2.402   3.010   2.720 -0.4047 -2.1032  1.2502
  567SOL     OW 1699   1.550   1.196   1.009 -0.5411 -0.4926  0.3872
  567SOL    HW1 1700   1.491   1.237   0.934 -2.9509 -0.0538 -3.2445
  567SOL    HW2 1701   1.592   1.260   1.075 -0.7316  1.3547  0.4970
  568SOL     OW 1702   1.550   1.780   2.872  0.8283 -0.2730  0.5344
  568SOL    HW1 1703   1.535   1.777   2.771  3.1432 -0.0337  0.7932
  568SOL    HW2 1704   1.498   1.705   2.916  1.2723 -0.9055 -0.8071
  569SOL     OW 1705   2.155   1.520   3.007  0.5629 -0.2289  0.0244
  569SOL    HW1 1706   2.233   1.496   2.948  0.4875  1.5469 -2.8898
  569SOL    HW2 1707   2.170   1.489   3.103  1.5831  0.7399  5.1756
  570SOL     OW 1708   3.085   2.395   1.871  0.3212 -0.9706  0.0373
  570SOL    HW1 1709   3.095   2.495   1.857 -0.6675  1.0834  0.6916
  570SOL    HW2 1710   0.029   2.354   1.794 -1.0256 -1.7622  0.6190
  571SOL     OW 1711   2.729   1.896   1.542 -0.1010 -0.0777  0.0376
  571SOL    HW1 1712   2.702   1.956   1.462 -0.8599  3.8448 -3.6718
  571SOL    HW2 1713   2.704   1.942   1.636 -1.9812 -0.9420  0.6842
  572SOL     OW 1714   1.842   2.093   0.139  0.2657  0.1701 -0.2695
  572SOL    HW1 1715   1.770   2.163   0.151  1.8689 -2.6906 -0.3339
  572SOL    HW2 1716   1.940   2.126   0.148 -0.2937  0.2931 -2.1623
  573SOL     OW 1717   1.645   2.296   0.253  0.6559 -0.1398 -0.2330
  573SOL    HW1 1718   1.541   2.283   0.243 -0.3001 -1.0944  1.3345
  573SOL    HW2 1719   1.675   2.392   0.228 -0.5196  0.4368 -1.2381
  574SOL     OW 1720   1.211   0.168   1.285 -0.1539  0.0928  0.4139
  574SOL    HW1 1721   1.133   0.147   1.350 -3.9780 -0.4408  1.6204
  574SOL    HW2 1722   1.226   0.100   1.212  2.1324  3.7198  0.3257
  575SOL     OW 1723   0.709   1.147   1.604  0.6555 -0.0222 -0.4679
  575SOL    HW1 1724   0.690   1.214   1.681 -1.1827 -0.2457  1.5180
  575SOL    HW2 1725   0.783   1.080   1.625  0.3661 -0.8435 -0.2072
  576SOL     OW 1726   2.720   0.356   1.633  0.0302  0.2306 -0.1168
  576SOL    HW1 1727   2.793   0.285   1.638 -1.1609  0.0578  2.7458
  576SOL    HW2 1728   2.762   0.446   1.629 -2.2201 -0.1426  0.1410
  577SOL     OW 1729   1.343   1.275   2.387 -0.0023 -0.1614  0.4096
  577SOL    HW1 1730   1.383   1.238   2.476 -1.7644  0.5320  2.8533
  577SOL    HW2 1731   1.349   1.197   2.322  0.5609  0.7470  0.4788
  578SOL     OW 1732   1.937   1.345   2.321 -0.0916 -0.2541 -0.0081
  578SOL    HW1 1733   1.843   1.386   2.331  0.8923  1.1354 -2.6531
  578SOL    HW2 1734   1.995   1.395   2.248  0.5020 -0.3053 -1.7256
  579SOL     OW 1735   1.326   2.017   1.482  0.0570 -0.3649  1.2081
  579SOL    HW1 1736   1.332   2.072   1.399  1.1371 -3.3321  2.6251
  579SOL    HW2 1737   1.319   1.920   1.452 -2.0307  3.2465  3.2067
  580SOL     OW 1738   1.362   2.299   0.191  0.4842  0.0352 -0.1305
  580SOL    HW1 1739   1.385   2.286   0.095 -0.6596  0.9984  2.2787
  580SOL    HW2 1740   1.258   2.296   0.204 -0.1519  1.1258 -1.7563
  581SOL     OW 1741   1.038   0.807   2.041 -0.1789 -0.2438 -0.1546
  581SOL    HW1 1742   0.973   0.734   2.042  0.8347  2.4099 -2.2809
  581SOL    HW2 1743   1.103   0.804   2.121  1.2875  0.0676 -1.0708
  582SOL     OW 1744   0.902   0.976   1.636  0.3869  0.3761 -0.1329
  582SOL    HW1 1745   0.974   0.949   1.702  0.1638  2.1021 -0.6915
  582SOL    HW2 1746   0.928   0.957   1.541 -1.1867  1.0500  3.4603
  583SOL     OW 1747   0.908   1.057   1.998 -0.3507 -0.6446  0.0037
  583SOL    HW1 1748   0.918   0.959   2.014 -0.4189 -0.5337 -0.0507
  583SOL    HW2 1749   0.997   1.105   2.021 -0.8264  0.6470  2.0570
  584SOL     OW 1750   2.367   2.238   0.796  0.6450 -0.0498 -0.2237
  584SOL    HW1 1751   2.463   2.218   0.774  0.7850 -0.1707 -0.4264
  584SOL    HW2 1752   2.318   2.257   0.708 -1.3014  2.1852 -2.4675
  585SOL     OW 1753   1.845   0.204   2.938  0.2684 -0.4062  0.2040
  585SOL    HW1 1754   1.741   0.199   2.936 -3.2425 -1.1375  1.9686
  585SOL    HW2 1755   1.884   0.268   2.873 -2.1041 -3.1150  3.0339
  586SOL     OW 1756   0.135   2.143   0.994 -0.3085 -0.0399 -0.5763
  586SOL    HW1 1757   0.075   2.151   0.913 -1.6824 -1.5392  0.4732
  586SOL    HW2 1758   0.068   2.121   1.069  1.2564 -1.3085  0.4770
  587SOL     OW 1759   1.698   1.873   0.042 -0.3837 -0.7072  0.1784
  587SOL    HW1 1760   1.742   1.958   0.080 -0.3521  0.0616  1.0439
  587SOL    HW2 1761   1.596   1.891   0.051 -0.9036  1.2041 -1.4132
  588SOL     OW 1762   0.180   0.216   1.019 -0.1444 -0.1849  0.4735
  588SOL    HW1 1763   0.130   0.195   1.105 -3.0918  0.8400  0.6414
  588SOL    HW2 1764   0.151   0.155   0.938  0.2210 -1.5654 -2.0149
  589SOL     OW 1765   1.356   0.559   0.748 -0.6160  0.1693  0.4973
  589SOL    HW1 1766   1.359   0.650   0.799  0.6060 -0.8528 -1.6390
  589SOL    HW2 1767   1.393   0.564   0.652  0.3900 -2.3262 -0.1338
  590SOL     OW 1768   1.397   1.304   3.007  0.1221 -0.2108  0.0246
  590SOL    HW1 1769   1.310   1.329   3.059  1.7649 -0.7644  0.4354
  590SOL    HW2 1770   1.449   1.234   3.060 -1.6141  1.4737  0.7949
  591SOL     OW 1771   2.551   2.462   2.512  0.0211 -0.4651  0.8202
  591SOL    HW1 1772   2.579   2.460   2.606  0.9066 -0.4552 -2.4680
  591SOL    HW2 1773   2.590   2.543   2.464  2.6506 -0.6671  4.0388
  592SOL     OW 1774   1.642   2.111   1.508 -0.6663 -0.7707 -0.2812
  592SOL    HW1 1775   1.575   2.179   1.471  2.1216 -0.2426 -0.6645
  592SOL    HW2 1776   1.594   2.025   1.538 -0.3014 -3.3819  0.2534
  593SOL     OW 1777   0.774   0.142   0.934  0.1037 -0.1217  0.3573
  593SOL    HW1 1778   0.734   0.120   1.030 -1.8618 -1.0014 -0.7686
  593SOL    HW2 1779   0.861   0.191   0.934 -2.1257 -1.9567 -1.8113
  594SOL     OW 1780   2.894   0.607   2.444 -0.8616 -0.2023 -0.2313
  594SOL    HW1 1781   2.902   0.711   2.445 -2.6711 -0.0473 -0.7500
  594SOL    HW2 1782   2.955   0.568   2.515  0.7924 -2.0625 -0.2210
  595SOL     OW 1783   0.735   2.569   1.199 -0.0503 -0.2409  0.2753
  595SOL    HW1 1784   0.772   2.558   1.107  0.1739  0.2782  2.8226
  595SOL    HW2 1785   0.645   2.618   1.190  2.4345 -0.8503 -1.0124
  596SOL     OW 1786   0.222   0.830   1.435  0.0277  0.1168  0.2688
  596SOL    HW1 1787   0.225   0.914   1.376 -1.7393 -1.6710 -1.9660
  596SOL    HW2 1788   0.309   0.773   1.432  2.7227 -2.2643 -0.0709
  597SOL     OW 1789   1.444   1.880   0.228  0.5701 -0.5629 -0.2122
  597SOL    HW1 1790   1.466   1.780   0.224 -0.5862  0.4982  0.4356
  597SOL    HW2 1791   1.513   1.931   0.283 -0.5433  0.9675 -1.2634
  598SOL     OW 1792   0.515   2.852   1.895  0.3648  0.0320 -0.2877
  598SOL    HW1 1793   0.475   2.817   1.804 -0.2145  0.5861 -0.7991
  598SOL    HW2 1794   0.534   2.955   1.893  2.7529 -0.3985 -0.4046
  599SOL     OW 1795   2.395   1.728   2.724 -0.3263  0.0554  0.8829
  599SOL    HW1 1796   2.320   1.792   2.698  0.5271  3.6717 -3.6911
  599SOL    HW2 1797   2.481   1.750   2.682  0.4407  0.7729  0.5837
  600SOL     OW 1798   0.922   1.089   0.119 -0.2075 -0.2323  0.1997
  600SOL    HW1 1799   0.974   1.125   0.201  1.5188  3.4062  2.1941
  600SOL    HW2 1800   0.938   1.149   0.036 -0.6726  2.5341 -2.7300
  601SOL     OW 1801   0.601   0.784   0.929 -0.1829  0.0831 -0.2548
  601SOL    HW1 1802   0.564   0.865   0.973  1.1418 -2.8586 -0.4613
  601SOL    HW2 1803   0.700   0.782   0.927 -1.4686 -0.3004  1.3059
  602SOL     OW 1804   1.666   0.071   0.715  0.5506 -0.1033  0.2799
  602SOL    HW1 1805   1.768   0.088   0.697 -0.5906  0.7204  1.3679
  602SOL    HW2 1806   1.612   0.160   0.711 -0.5507 -0.1802 -0.2220
  603SOL     OW 1807   0.828   2.927   2.365 -0.4260  0.3010 -0.2759
  603SOL    HW1 1808   0.885   2.845   2.355 -0.0828  0.9985 -0.6987
  603SOL    HW2 1809   0.887   3.012   2.380  0.0398  0.8859 -2.3274
  604SOL     OW 1810   2.961   3.093   2.621 -0.2642  0.1837  1.0563
  604SOL    HW1 1811   3.016   3.047   2.548 -1.7769 -0.2917  1.7057
  604SOL    HW2 1812   2.867   0.004   2.582 -3.1064 -1.6768 -1.3839
  605SOL     OW 1813   2.698   1.396   1.220 -0.6178 -0.7075  0.7384
  605SOL    HW1 1814   2.661   1.432   1.306 -1.8615 -2.2462 -2.3187
  605SOL    HW2 1815   2.798   1.423   1.218  1.5158 -1.9067  2.2097
  606SOL     OW 1816   0.660   1.532   2.742 -0.1645  0.1423 -0.5393
  606SOL    HW1 1817   0.694   1.599   2.812 -0.3157  0.4714 -0.4680
  606SOL    HW2 1818   0.568   1.500   2.768  0.8438 -2.1502 -2.2024
  607SOL     OW 1819   0.611   0.253   0.421  0.5444  0.0732 -0.0022
  607SOL    HW1 1820   0.676   0.188   0.373  1.0496 -3.0469 -0.4233
  607SOL    HW2 1821   0.586   0.326   0.350  2.3962  0.2557 -1.6233
  608SOL     OW 1822   1.780   1.603   2.016  0.1305  0.3096  0.3864
  608SOL    HW1 1823   1.756   1.503   1.995  0.1641 -0.6311  1.2513
  608SOL    HW2 1824   1.849   1.641   1.952 -1.4277 -1.1534  0.5244
  609SOL     OW 1825   2.725   0.092   1.075  0.2195 -0.0681  0.0252
  609SOL    HW1 1826   2.699   0.056   1.167 -0.9614  0.6505 -1.1635
  609SOL    HW2 1827   2.795   0.169   1.071 -2.6581 -0.3650 -2.2434
  610SOL     OW 1828   0.391   2.761   0.705  0.7216 -0.1994 -0.0075
  610SOL    HW1 1829   0.409   2.829   0.632 -0.1268  0.6240 -0.6783
  610SOL    HW2 1830   0.414   2.801   0.795 -0.8715 -0.2024 -0.2136
  611SOL     OW 1831   1.530   1.044   2.846  0.0395 -0.3040  0.2782
  611SOL    HW1 1832   1.470   1.097   2.780 -1.5826 -0.3953 -2.7988
  611SOL    HW2 1833   1.516   1.071   2.943  2.5926 -1.6544  2.2428
  612SOL     OW 1834   0.688   2.133   2.179  0.7415  0.4734  0.0543
  612SOL    HW1 1835   0.732   2.107   2.267 -0.5989 -1.1138  0.3039
  612SOL    HW2 1836   0.724   2.221   2.149  1.8406  1.5964  0.9918
  613SOL     OW 1837   0.604   2.575   0.725 -0.1169 -0.3165 -0.1266
  613SOL    HW1 1838   0.573   2.473   0.724 -0.2640  0.4546 -0.8765
  613SOL    HW2 1839   0.532   2.645   0.697 -3.0413  0.2858 -0.5876
  614SOL     OW 1840   2.478   2.771   1.554 -0.8635  0.8303 -0.1662
  614SOL    HW1 1841   2.463   2.676   1.528  3.6043  0.7062  1.5212
  614SOL    HW2 1842   2.576   2.798   1.559  1.6195  0.7134  0.1213
  615SOL     OW 1843   1.737   1.197   0.212  0.1799 -0.0159 -0.6290
  615SOL    HW1 1844   1.682   1.182   0.301  1.9180  1.0021  0.9866
  615SOL    HW2 1845   1.817   1.257   0.240 -2.1265  0.1862 -1.1469
  616SOL     OW 1846   1.568   0.886   0.275 -0.1612 -0.4878 -0.5336
  616SOL    HW1 1847   1.618   0.851   0.354 -1.8753  2.7811  0.4813
  616SOL    HW2 1848   1.511   0.962   0.303  1.5975 -1.0335 -3.4917
  617SOL     OW 1849   1.015   1.030   2.925  0.8133 -0.1819  0.9845
  617SOL    HW1 1850   1.081   0.973   2.976  1.4709  0.6186  0.0087
  617SOL    HW2 1851   1.020   1.124   2.960  0.8362  0.4737 -3.0455
  618SOL     OW 1852   0.826   0.094   1.818 -0.3181 -0.9919  0.3297
  618SOL    HW1 1853   0.906   0.057   1.870  1.3568 -0.9497  1.5754
  618SOL    HW2 1854   0.734   0.046   1.832 -2.9597  1.1234 -1.1911
  619SOL     OW 1855   2.884   1.252   1.510  0.2801  0.3621 -0.4777
  619SOL    HW1 1856   2.914   1.175   1.575 -0.7569 -0.9037  0.1549
  619SOL    HW2 1857   2.787   1.232   1.473 -0.1909 -2.4776  0.0931
  620SOL     OW 1858   2.314   1.011   2.704  0.2403 -0.3902  0.0054
  620SOL    HW1 1859   2.339   1.020   2.606 -0.1716  1.1350  2.2031
  620SOL    HW2 1860   2.278   0.922   2.732 -0.7767  0.3476  1.4264
  621SOL     OW 1861   2.576   2.354   1.462  0.2951 -0.3243  0.1045
  621SOL    HW1 1862   2.647   2.379   1.401 -0.5931 -0.0592  1.1153
  621SOL    HW2 1863   2.611   2.342   1.556  1.9974 -2.8973 -1.8750
  622SOL     OW 1864   0.910   0.742   2.616  0.1843  0.0116  0.1481
  622SOL    HW1 1865   0.893   0.667   2.547  1.2872  0.6826  0.2125
  622SOL    HW2 1866   0.937   0.825   2.572 -2.3778 -3.0239  2.3717
  623SOL     OW 1867   1.095   0.656   2.798  0.5629  1.2822 -0.3411
  623SOL    HW1 1868   1.090   0.550   2.795 -1.2470 -2.4259 -1.1551
  623SOL    HW2 1869   1.023   0.694   2.737  2.7939  1.5802 -1.7045
  624SOL     OW 1870   1.991   0.744   3.041  0.2895  0.3349  0.4161
  624SOL    HW1 1871   1.980   0.802   2.955 -0.7549 -1.6493 -1.0103
  624SOL    HW2 1872   2.006   0.648   3.012  0.4062  0.5301  0.3987
  625SOL     OW 1873   1.171   1.255   1.037  0.1057 -0.0720 -0.0361
  625SOL    HW1 1874   1.191   1.333   0.981 -3.4172 -0.3578  2.1555
  625SOL    HW2 1875   1.205   1.276   1.127 -0.0295  1.5121  1.6089
  626SOL     OW 1876   1.711   1.234   2.573 -0.3419  0.0706 -0.6908
  626SOL    HW1 1877   1.717   1.144   2.529 -4.8420 -0.2237  1.4255
  626SOL    HW2 1878   1.760   1.237   2.665  4.3551 -0.9727 -0.5044
  627SOL     OW 1879   0.866   0.012   2.625  0.5946  0.4614 -0.0481
  627SOL    HW1 1880   0.940   3.052   2.628  1.2403  3.0594  0.0642
  627SOL    HW2 1881   0.880   0.084   2.698 -1.5555  1.4041  0.6771
  628SOL     OW 1882   2.509   0.130   2.432  0.5312 -0.0957 -0.4450
  628SOL    HW1 1883   2.501   0.145   2.534 -0.6240 -0.1116 -1.0498
  628SOL    HW2 1884   2.566   0.208   2.396  1.4969  0.6816  1.5344
  629SOL     OW 1885   0.801   0.635   2.853  0.0686 -0.4717 -0.3010
  629SOL    HW1 1886   0.836   0.684   2.774 -0.7246 -1.8443 -0.3501
  629SOL    HW2 1887   0.837   0.683   2.943 -0.5426  3.1016  1.1082
  630SOL     OW 1888   1.212   0.299   2.098  0.2047 -0.1767 -0.2867
  630SOL    HW1 1889   1.221   0.377   2.165  0.0991  0.0941 -0.2426
  630SOL    HW2 1890   1.229   0.205   2.137 -0.8883  1.1594  1.0878
  631SOL     OW 1891   2.905   0.864   0.716  0.5974  0.2156 -0.2370
  631SOL    HW1 1892   2.812   0.901   0.701  2.0145 -2.5656  1.2770
  631SOL    HW2 1893   2.909   0.772   0.673 -0.0322  2.6911  3.2244
  632SOL     OW 1894   2.031   0.835   1.370  0.4397 -0.0057  0.0192
  632SOL    HW1 1895   2.042   0.862   1.465  0.2534 -1.9247 -0.3698
  632SOL    HW2 1896   2.061   0.737   1.362  0.2378 -0.3529  0.3914
  633SOL     OW 1897   1.151   1.020   0.863  0.3991  0.6049  0.3736
  633SOL    HW1 1898   1.192   0.931   0.893 -1.0227 -1.7559  0.6401
  633SOL    HW2 1899   1.170   1.088   0.934  0.4782  0.0486  0.9304
  634SOL     OW 1900   1.788   2.878   0.996  0.0701 -0.3265  0.2137
  634SOL    HW1 1901   1.833   2.884   1.085 -0.8039 -1.5558  1.2774
  634SOL    HW2 1902   1.771   2.779   0.970  0.8441  2.3581 -0.7162
  635SOL     OW 1903   1.714   0.776   1.040 -0.1785 -0.4016 -0.0086
  635SOL    HW1 1904   1.655   0.841   0.986  3.6946  0.0579 -0.7096
  635SOL    HW2 1905   1.749   0.827   1.121 -1.1110 -0.2164 -0.2847
  636SOL     OW 1906   0.991   0.987   0.648  0.5130 -0.3495 -0.0982
  636SOL    HW1 1907   0.949   1.075   0.623 -0.0817 -2.8715 -0.0778
  636SOL    HW2 1908   1.058   1.003   0.723 -2.8349 -0.8761  1.0455
  637SOL     OW 1909   2.548   2.120   3.061 -0.6883  0.3308 -0.0159
  637SOL    HW1 1910   2.586   2.028   3.051  0.2739  3.2567 -2.1432
  637SOL    HW2 1911   2.513   2.154   2.970  0.8496 -0.8310  0.3288
  638SOL     OW 1912   1.325   2.767   2.589 -0.6869  0.0300  0.0462
  638SOL    HW1 1913   1.331   2.711   2.500  0.7235  2.1844 -4.0482
  638SOL    HW2 1914   1.364   2.713   2.670  1.0239 -1.0412 -1.5682
  639SOL     OW 1915   1.060   2.231   1.199  0.0126  0.2363 -0.0205
  639SOL    HW1 1916   1.004   2.273   1.274  1.2248  1.6357 -0.8812
  639SOL    HW2 1917   1.065   2.300   1.122  2.3926 -0.3813 -0.2247
  640SOL     OW 1918   2.533   2.649   0.363 -0.6057  0.2228  0.4628
  640SOL    HW1 1919   2.586   2.728   0.390 -2.4790 -1.6188 -0.0676
  640SOL    HW2 1920   2.468   2.632   0.438  0.2186  0.7460 -2.1971
  641SOL     OW 1921   0.510   0.401   0.237  0.2366 -0.1862  0.1806
  641SOL    HW1 1922   0.424   0.453   0.255 -0.2735  1.0672 -1.2847
  641SOL    HW2 1923   0.543   0.412   0.138  1.1348  0.5294  1.1625
  642SOL     OW 1924   2.893   0.739   1.206  0.1220 -0.3323 -0.3645
  642SOL    HW1 1925   2.828   0.665   1.184  1.3377  0.8788  0.7525
  642SOL    HW2 1926   2.895   0.798   1.124  2.1176  0.5934 -1.2112
  643SOL     OW 1927   0.796   1.884   2.041 -0.1071 -0.1259  0.2366
  643SOL    HW1 1928   0.724   1.861   1.977  1.6998  2.1320  2.5369
  643SOL    HW2 1929   0.771   1.977   2.086 -0.7363  0.0986  1.2084
  644SOL     OW 1930   1.399   2.628   0.154  0.7256 -0.3298 -0.5486
  644SOL    HW1 1931   1.430   2.537   0.119 -0.3520  1.0178  3.0866
  644SOL    HW2 1932   1.473   2.699   0.149 -0.0827  0.8455 -0.3907
  645SOL     OW 1933   2.191   2.225   0.584 -0.0586 -0.0794 -0.3972
  645SOL    HW1 1934   2.182   2.137   0.532  0.3989  0.5832 -2.0183
  645SOL    HW2 1935   2.096   2.269   0.579 -1.3407 -1.7492  1.8980
  646SOL     OW 1936   1.179   2.821   0.229 -0.0729  0.0991  0.4718
  646SOL    HW1 1937   1.106   2.759   0.266  0.3434  0.7131 -0.0821
  646SOL    HW2 1938   1.267   2.771   0.217  0.2743  2.3017 -0.8496
  647SOL     OW 1939   0.544   2.653   2.060  0.0891  0.4187 -0.1415
  647SOL    HW1 1940   0.530   2.735   2.004  3.4411  3.5619 -0.2726
  647SOL    HW2 1941   0.485   2.574   2.037 -0.3188 -3.3354 -0.0098
  648SOL     OW 1942   1.804   0.931   1.261  0.2703  0.2306  0.3116
  648SOL    HW1 1943   1.808   1.032   1.243 -1.2683 -1.9682 -2.5359
  648SOL    HW2 1944   1.888   0.898   1.310 -0.7802  3.0837 -1.0411
  649SOL     OW 1945   1.478   2.629   2.798  0.0499 -0.1290  0.2746
  649SOL    HW1 1946   1.528   2.557   2.739  2.3144 -1.0286 -1.0938
  649SOL    HW2 1947   1.545   2.677   2.862 -0.0240  0.0232  2.7130
  650SOL     OW 1948   2.296   1.506   1.629 -0.1801  0.0450  0.3576
  650SOL    HW1 1949   2.352   1.553   1.703  1.3809  2.4813 -0.0399
  650SOL    HW2 1950   2.200   1.514   1.652  3.0438  1.1948 -1.6712
  651SOL     OW 1951   1.313   2.193   3.033  0.0017  0.5995 -0.2188
  651SOL    HW1 1952   1.289   2.144   0.012  0.8718 -0.5816  0.0695
  651SOL    HW2 1953   1.356   2.129   2.963  1.5514  0.7448  2.2401
  652SOL     OW 1954   0.926   2.588   0.053 -0.0807  0.0512  0.4199
  652SOL    HW1 1955   1.021   2.611   0.023 -0.5676 -0.8714 -2.9606
  652SOL    HW2 1956   0.866   2.575   3.082  2.4673 -2.7124  2.7891
  653SOL     OW 1957   2.512   2.047   1.072 -0.0931 -0.1402  0.6351
  653SOL    HW1 1958   2.557   2.142   1.075  0.7943  1.5089  0.1625
  653SOL    HW2 1959   2.410   2.049   1.099 -2.6055 -0.9831 -0.8241
  654SOL     OW 1960   2.920   2.577   1.603 -0.0120  0.3400  0.0403
  654SOL    HW1 1961   2.917   2.671   1.566 -1.7197  1.1954  1.8673
  654SOL    HW2 1962   2.932   2.508   1.528 -1.5689 -0.4253 -2.2910
  655SOL     OW 1963   3.054   2.096   1.180 -0.2514 -0.2011 -0.0229
  655SOL    HW1 1964   3.018   2.003   1.200  0.8011  3.7960 -1.8463
  655SOL    HW2 1965   2.982   2.165   1.201  0.9461  0.0011 -0.1899
  656SOL     OW 1966   0.104   2.973   2.732 -0.3886 -0.2946  0.3897
  656SOL    HW1 1967   0.171   2.988   2.654  0.1193  3.3083 -0.6921
  656SOL    HW2 1968   0.018   3.017   2.711  1.6352 -3.5524 -0.0073
  657SOL     OW 1969   0.046   1.025   0.138  0.6972 -0.1127  0.6690
  657SOL    HW1 1970   0.004   1.085   0.064  2.5295 -0.4198 -0.2693
  657SOL    HW2 1971   0.063   0.930   0.107 -2.9451 -2.1098  0.7658
  658SOL     OW 1972   1.931   1.641   0.738  0.6274 -0.5033 -0.1026
  658SOL    HW1 1973   1.963   1.573   0.806  4.2515 -3.1675 -0.2814
  658SOL    HW2 1974   1.959   1.737   0.758  0.6491 -0.8817 -0.9503
  659SOL     OW 1975   1.629   0.415   1.350  0.0920  0.4725 -0.0630
  659SOL    HW1 1976   1.730   0.414   1.354 -1.0437 -0.5836 -0.3570
  659SOL    HW2 1977   1.586   0.323   1.325  1.3877 -2.2903 -0.8295
  660SOL     OW 1978   1.499   1.616   0.221  0.9752  0.2696 -0.1347
  660SOL    HW1 1979   1.593   1.589   0.237 -1.8821  1.9753 -0.6076
  660SOL    HW2 1980   1.437   1.598   0.298  3.2135 -1.5816  0.9540
  661SOL     OW 1981   0.193   1.905   0.545  0.1126 -0.4325  0.2069
  661SOL    HW1 1982   0.221   1.971   0.468 -3.2411 -0.7106 -1.9730
  661SOL    HW2 1983   0.095   1.869   0.527  1.3082  0.8463 -0.6258
  662SOL     OW 1984   3.036   0.675   2.056  0.7913 -0.2082 -0.5595
  662SOL    HW1 1985   2.943   0.669   2.095  3.0193 -0.6244  2.0508
  662SOL    HW2 1986   3.067   0.775   2.052 -0.7888 -0.7673  0.5323
  663SOL     OW 1987   2.036   1.405   0.982  0.1240 -0.1112  0.4319
  663SOL    HW1 1988   2.062   1.332   0.915 -1.3450  3.1357  0.8896
  663SOL    HW2 1989   2.109   1.476   0.982 -1.9213 -0.0106  1.7000
  664SOL     OW 1990   0.632   0.366   1.097 -0.0318 -0.6268  0.7131
  664SOL    HW1 1991   0.738   0.380   1.107  0.9850 -0.4217  1.5782
  664SOL    HW2 1992   0.608   0.268   1.111  2.7653  0.5920  0.5476
  665SOL     OW 1993   1.268   3.074   2.851 -0.8395 -0.2417 -0.2345
  665SOL    HW1 1994   1.336   3.045   2.779  1.3286 -1.5312  0.1847
  665SOL    HW2 1995   1.266   0.070   2.853 -3.8047  1.9120 -0.2703
  666SOL     OW 1996   0.136   0.484   2.374  0.4450  0.1236  0.3538
  666SOL    HW1 1997   0.172   0.388   2.369 -1.8356  0.3312  2.6960
  666SOL    HW2 1998   0.044   0.481   2.332 -1.8840  0.9202  0.5083
  667SOL     OW 1999   1.997   1.762   2.174  0.1921 -0.1835 -0.2093
  667SOL    HW1 2000   2.020   1.726   2.269  0.2012 -1.0307  0.6213
  667SOL    HW2 2001   1.933   1.696   2.128 -1.9539  0.5411  1.2588
  668SOL     OW 2002   0.077   1.656   3.011  0.1421  0.1393  0.3511
  668SOL    HW1 2003   0.152   1.621   2.946  1.9730 -0.4896  1.9672
  668SOL    HW2 2004   3.097   1.602   3.006  1.0957  4.7432 -0.9269
  669SOL     OW 2005   2.187   2.708   2.540 -0.0755  0.6993  0.1758
  669SOL    HW1 2006   2.198   2.603   2.510  0.6131 -3.0579  0.0395
  669SOL    HW2 2007   2.205   2.768   2.456  1.5678 -2.9696 -0.7199
  670SOL     OW 2008   2.421   1.008   2.451 -0.1354 -0.0693 -0.7224
  670SOL    HW1 2009   2.486   0.969   2.387 -1.4083  0.3706 -0.1679
  670SOL    HW2 2010   2.322   0.992   2.423  0.1883  1.2519 -1.4673
  671SOL     OW 2011   2.403   1.226   0.244 -0.2748 -0.0838 -0.1739
  671SOL    HW1 2012   2.464   1.252   0.164 -1.4603  0.8094 -0.1572
  671SOL    HW2 2013   2.434   1.271   0.330 -1.5864 -0.4797 -0.8685
  672SOL     OW 2014   2.657   1.238   2.401  0.1189 -0.1736 -0.2645
  672SOL    HW1 2015   2.711   1.272   2.481  0.7818 -0.2970 -1.2006
  672SOL    HW2 2016   2.562   1.213   2.435  0.3584 -1.2462 -0.2909
  673SOL     OW 2017   2.649   1.152   1.428 -0.4043 -0.5659 -0.4435
  673SOL    HW1 2018   2.601   1.222   1.376  0.9988 -2.1602  1.1400
  673SOL    HW2 2019   2.636   1.062   1.381  0.3938 -1.7840 -0.6654
  674SOL     OW 2020   1.566   1.828   1.563  0.7814  0.3884  0.0431
  674SOL    HW1 2021   1.666   1.817   1.555 -0.7283  0.6495 -0.4835
  674SOL    HW2 2022   1.517   1.800   1.480  1.5363 -3.1061 -1.1383
  675SOL     OW 2023   2.937   0.275   1.033  0.6681  0.2641 -0.3947
  675SOL    HW1 2024   2.972   0.370   1.024 -0.3398  2.6458 -1.6952
  675SOL    HW2 2025   3.017   0.211   1.040 -2.9096 -2.6528 -0.4236
  676SOL     OW 2026   2.037   0.971   0.992 -0.2024  0.4927 -0.1107
  676SOL    HW1 2027   2.074   0.995   1.085  2.2724 -1.9334  1.1566
  676SOL    HW2 2028   2.098   0.922   0.931  1.1532  1.0084 -2.2770
  677SOL     OW 2029   1.627   1.756   2.202 -0.0777  1.0049 -0.0840
  677SOL    HW1 2030   1.550   1.807   2.156  2.1250 -0.7962  2.2039
  677SOL    HW2 2031   1.684   1.700   2.141  1.5898  2.0727  1.0822
  678SOL     OW 2032   3.063   1.659   1.009  0.1280 -0.5575  0.6124
  678SOL    HW1 2033   0.045   1.705   1.018  1.9025  2.1179  2.2465
  678SOL    HW2 2034   2.984   1.724   0.995  1.3437 -2.0796 -0.3676
  679SOL     OW 2035   3.045   2.956   0.560  0.2536  0.2083  0.9895
  679SOL    HW1 2036   2.968   2.968   0.627 -0.5279  0.1651 -1.1052
  679SOL    HW2 2037   0.029   2.959   0.610 -0.0425 -1.1398  0.5535
  680SOL     OW 2038   0.186   2.224   1.419 -0.7934 -0.0753 -0.3430
  680SOL    HW1 2039   0.261   2.157   1.435 -0.2360  0.1634  2.1557
  680SOL    HW2 2040   0.128   2.187   1.344  0.1594 -1.2537  2.0634
  681SOL     OW 2041   0.770   0.899   1.226  0.2820 -0.4786 -0.0553
  681SOL    HW1 2042   0.672   0.865   1.211 -1.2858 -2.1883  1.3569
  681SOL    HW2 2043   0.834   0.852   1.161 -1.5220  1.0956  0.6323
  682SOL     OW 2044   1.845   2.653   0.622 -0.2776 -0.0216 -0.2403
  682SOL    HW1 2045   1.867   2.691   0.710 -0.6261  1.3996 -2.1161
  682SOL    HW2 2046   1.877   2.554   0.618 -0.3481 -1.2386  1.8511
  683SOL     OW 2047   2.154   1.316   1.423 -0.4524  0.0061  0.3110
  683SOL    HW1 2048   2.161   1.419   1.408  2.0344  1.2988  1.9636
  683SOL    HW2 2049   2.234   1.267   1.390 -0.9333  3.8013 -2.5953
  684SOL     OW 2050   0.173   1.645   1.758 -0.0949 -0.4905  0.3088
  684SOL    HW1 2051   0.245   1.577   1.743 -3.2601  0.4984 -1.5329
  684SOL    HW2 2052   0.081   1.600   1.763 -2.6717  1.6462 -1.5496
  685SOL     OW 2053   2.381   1.746   0.180  0.4254  0.0864 -0.4327
  685SOL    HW1 2054   2.288   1.702   0.197 -1.3947 -1.9270  0.1564
  685SOL    HW2 2055   2.389   1.758   0.078 -0.6138  1.8558  1.4471
  686SOL     OW 2056   2.964   0.351   0.557  0.2979 -0.2998  0.3257
  686SOL    HW1 2057   2.930   0.260   0.585 -1.9204 -0.2956  3.1882
  686SOL    HW2 2058   3.061   0.362   0.580 -4.0561 -1.4091 -3.2616
  687SOL     OW 2059   1.462   3.010   0.006 -0.5058 -0.1683 -0.2418
  687SOL    HW1 2060   1.468   3.076   0.081  0.5468  1.2174 -0.6133
  687SOL    HW2 2061   1.373   3.013   3.066  3.4942  0.0759 -1.0106
  688SOL     OW 2062   1.956   2.012   2.213 -0.2237 -0.1617  0.0100
  688SOL    HW1 2063   1.967   1.913   2.201  1.5541  0.0827  2.0029
  688SOL    HW2 2064   1.945   2.036   2.311 -0.1736  0.9280  4.0263
  689SOL     OW 2065   2.751   0.901   2.066  0.4184  0.1296 -0.5144
  689SOL    HW1 2066   2.736   0.810   2.023 -0.0099  1.1201 -0.3011
  689SOL    HW2 2067   2.779   0.962   1.989 -1.4635 -1.0667 -1.0658
  690SOL     OW 2068   2.147   1.189   0.852 -0.0493  0.2797  0.2272
  690SOL    HW1 2069   2.177   1.162   0.758 -2.5847  1.2313  0.2741
  690SOL    HW2 2070   2.089   1.118   0.896  0.8072  0.1677 -1.9067
  691SOL     OW 2071   1.262   1.310   1.274 -0.4420  0.5987 -0.1928
  691SOL    HW1 2072   1.266   1.213   1.312 -2.2715 -1.0167  0.7425
  691SOL    HW2 2073   1.187   1.368   1.316  0.4371  1.4250 -0.3332
  692SOL     OW 2074   1.898   0.257   2.236 -0.5622 -0.3468 -0.1031
  692SOL    HW1 2075   1.917   0.195   2.161 -1.4419 -0.1990  0.9298
  692SOL    HW2 2076   1.880   0.352   2.197  0.5035  0.8329 -2.6427
  693SOL     OW 2077   0.112   1.375   2.824  0.0608 -0.1638 -0.1367
  693SOL    HW1 2078   0.161   1.306   2.887  1.7464 -2.5218  4.5479
  693SOL    HW2 2079   0.070   1.326   2.747 -0.1208  2.3942  3.1059
  694SOL     OW 2080   2.143   2.650   0.816 -0.2001  0.0702  0.5354
  694SOL    HW1 2081   2.220   2.657   0.748 -2.0510 -0.8780 -0.8489
  694SOL    HW2 2082   2.087   2.738   0.813 -2.7175  1.2827  1.4550
  695SOL     OW 2083   1.491   1.414   2.626  0.4485 -0.3659 -0.3322
  695SOL    HW1 2084   1.571   1.351   2.622 -0.7381  0.5375  0.3300
  695SOL    HW2 2085   1.448   1.445   2.539  0.7219  3.5335  0.7043
  696SOL     OW 2086   1.897   0.204   1.558  0.1340 -0.1518 -0.0421
  696SOL    HW1 2087   1.886   0.295   1.603  0.7118  0.9433  0.3181
  696SOL    HW2 2088   1.803   0.162   1.537 -1.4146 -0.0376  1.3829
  697SOL     OW 2089   1.759   0.342   1.875  0.2852 -0.0196 -0.0521
  697SOL    HW1 2090   1.728   0.271   1.941  2.0393 -0.9970 -0.8792
  697SOL    HW2 2091   1.713   0.322   1.783 -1.1582  1.3106  0.6151
  698SOL     OW 2092   1.681   1.402   2.335 -0.3586 -0.0282  0.3388
  698SOL    HW1 2093   1.699   1.335   2.409 -2.0685  0.0827  1.6738
  698SOL    HW2 2094   1.672   1.493   2.374 -1.0245 -1.4759  0.0311
  699SOL     OW 2095   1.830   1.291   0.752  0.5682 -0.3597 -0.4675
  699SOL    HW1 2096   1.724   1.301   0.737 -2.3554  0.7178  0.0946
  699SOL    HW2 2097   1.844   1.194   0.792  2.3302 -1.0632  1.3383
  700SOL     OW 2098   1.570   2.831   0.216 -0.4886  0.1900 -0.0315
  700SOL    HW1 2099   1.637   2.807   0.293 -2.1352 -0.2791 -0.6719
  700SOL    HW2 2100   1.548   2.929   0.211 -2.0006 -0.7513  1.0909
  701SOL     OW 2101   0.165   0.227   1.491  0.0625  0.3041 -0.1108
  701SOL    HW1 2102   0.135   0.314   1.536 -0.3915  0.1220  1.1506
  701SOL    HW2 2103   0.268   0.216   1.487  1.2265 -0.4831 -1.2461
  702SOL     OW 2104   1.669   2.824   1.363  0.2243  0.1109  0.4257
  702SOL    HW1 2105   1.710   2.733   1.353 -1.7742  2.1570 -2.3915
  702SOL    HW2 2106   1.588   2.829   1.427 -2.1603  0.7716 -0.9323
  703SOL     OW 2107   2.419   2.992   2.264 -0.0017  0.0177 -0.0836
  703SOL    HW1 2108   2.455   3.056   2.336  0.3147 -0.7775 -1.8128
  703SOL    HW2 2109   2.495   2.935   2.221 -0.4068 -0.8360 -0.9216
  704SOL     OW 2110   1.588   2.285   0.928 -0.3502  0.0776 -0.2666
  704SOL    HW1 2111   1.593   2.326   1.023 -0.2814 -0.9811  0.3337
  704SOL    HW2 2112   1.490   2.255   0.914  0.1255 -0.7115  2.9779
  705SOL     OW 2113   0.254   1.755   2.287 -0.5104  0.5076 -0.3895
  705SOL    HW1 2114   0.349   1.788   2.292  1.5982 -3.5126 -1.0221
  705SOL    HW2 2115   0.231   1.685   2.359 -1.5259 -0.1017 -0.6778
  706SOL     OW 2116   1.919   0.280   0.070  0.6226  0.1461 -0.0869
  706SOL    HW1 2117   1.880   0.238   3.093 -1.0858  0.9425  2.0953
  706SOL    HW2 2118   1.915   0.220   0.152  0.8370  0.2594 -0.6348
  707SOL     OW 2119   1.363   2.709   2.074 -0.1937 -0.0268 -0.6891
  707SOL    HW1 2120   1.416   2.628   2.107 -0.1352  2.2429  1.4907
  707SOL    HW2 2121   1.431   2.769   2.033 -1.5867 -0.8517 -0.2801
  708SOL     OW 2122   0.665   2.136   1.491 -0.3954  0.0015  0.0944
  708SOL    HW1 2123   0.667   2.043   1.528  0.0974 -0.1244 -1.0517
  708SOL    HW2 2124   0.758   2.180   1.493  2.1111 -2.2612  2.0064
  709SOL     OW 2125   2.640   0.690   1.901 -0.1760 -0.4421  0.0409
  709SOL    HW1 2126   2.613   0.616   1.966 -0.2126  1.8924  2.5235
  709SOL    HW2 2127   2.714   0.653   1.842  0.9087  3.1761  1.3834
  710SOL     OW 2128   2.925   0.194   1.597 -0.2801 -0.5809 -0.3813
  710SOL    HW1 2129   2.970   0.222   1.513 -1.6347 -1.0445 -1.9674
  710SOL    HW2 2130   2.984   0.220   1.676 -1.2202 -0.0958 -2.1135
  711SOL     OW 2131   0.045   2.283   0.691 -0.2498 -0.1559  0.7817
  711SOL    HW1 2132   0.143   2.311   0.680  0.9047 -1.6658  0.2614
  711SOL    HW2 2133   3.084   2.359   0.672 -0.3037 -5.1432  1.3695
  712SOL     OW 2134   0.300   3.013   2.528 -0.3464  0.0101 -0.1943
  712SOL    HW1 2135   0.367   3.086   2.534  1.1112  0.8444  2.4372
  712SOL    HW2 2136   0.323   2.944   2.455 -2.3312 -1.5244 -0.0073
  713SOL     OW 2137   2.088   0.538   0.240  0.2419 -0.3599  0.2018
  713SOL    HW1 2138   2.089   0.528   0.136 -2.2232 -0.9767  3.0010
  713SOL    HW2 2139   2.008   0.600   0.259 -1.3004 -1.2407  0.7520
  714SOL     OW 2140   1.630   2.033   0.387  0.3342  0.2189  0.2057
  714SOL    HW1 2141   1.640   2.128   0.345 -0.2631 -0.0885 -0.2612
  714SOL    HW2 2142   1.541   2.031   0.440 -1.5772  0.4614  1.5526
  715SOL     OW 2143   0.035   0.675   0.344  0.0585 -0.1109  0.6449
  715SOL    HW1 2144   0.082   0.669   0.256 -2.8556  2.8351  2.1119
  715SOL    HW2 2145   0.079   0.607   0.409 -1.7191 -1.6326  1.5009
  716SOL     OW 2146   0.947   3.009   2.007  0.2426 -0.4461  0.0493
  716SOL    HW1 2147   1.046   2.978   2.013 -0.2164  1.9003  2.6145
  716SOL    HW2 2148   0.884   2.927   2.003  1.2390  2.1355  1.3533
  717SOL     OW 2149   0.331   0.566   2.839 -0.0846  0.0434  0.2797
  717SOL    HW1 2150   0.303   0.554   2.738 -0.4361 -0.1704 -0.3863
  717SOL    HW2 2151   0.303   0.485   2.890 -0.7384 -1.0623  0.9767
  718SOL     OW 2152   1.333   0.670   0.497 -0.4593 -0.3690  0.3433
  718SOL    HW1 2153   1.357   0.679   0.399  0.8810  0.9166  0.8824
  718SOL    HW2 2154   1.235   0.651   0.505  3.2776 -0.9163 -1.4025
  719SOL     OW 2155   2.507   2.221   2.807  0.1889 -0.2882  0.3228
  719SOL    HW1 2156   2.437   2.183   2.746 -1.2306  1.9369  0.4084
  719SOL    HW2 2157   2.518   2.319   2.787 -0.1088  0.3905 -0.5797
  720SOL     OW 2158   1.442   0.911   1.810 -0.2880 -0.1405  0.1361
  720SOL    HW1 2159   1.501   0.970   1.750  1.0523  1.9323  0.7189
  720SOL    HW2 2160   1.459   0.813   1.782 -0.3037 -1.7200 -0.5860
  721SOL     OW 2161   0.027   2.925   1.114  0.6836  0.2756  0.9148
  721SOL    HW1 2162   3.039   2.930   1.077 -1.2384 -4.2322  2.3815
  721SOL    HW2 2163   0.095   2.922   1.040  0.1832  0.9928  2.7283
  722SOL     OW 2164   1.268   1.972   2.697  0.1189  0.3778  0.1735
  722SOL    HW1 2165   1.361   1.999   2.724 -1.5318 -1.4318 -1.9887
  722SOL    HW2 2166   1.255   1.900   2.623 -1.9814  0.1438  1.7213
  723SOL     OW 2167   1.649   0.541   0.605  0.1012  0.3901 -0.0477
  723SOL    HW1 2168   1.683   0.472   0.531  0.0972 -0.2582  0.7383
  723SOL    HW2 2169   1.660   0.501   0.701  1.0718  2.8821 -0.3107
  724SOL     OW 2170   0.505   2.151   2.790 -0.4141  0.1924  0.1628
  724SOL    HW1 2171   0.467   2.239   2.761 -0.3046 -2.0421  1.4232
  724SOL    HW2 2172   0.598   2.167   2.828  0.1158 -1.5819 -0.8265
  725SOL     OW 2173   0.003   0.665   1.374  0.1715  0.2586 -0.1056
  725SOL    HW1 2174   3.050   0.714   1.310  2.3950 -1.9386 -1.3179
  725SOL    HW2 2175   0.066   0.731   1.421  0.6984 -1.5432  2.1096
  726SOL     OW 2176   2.005   2.860   0.830 -0.1052 -0.3095 -0.0507
  726SOL    HW1 2177   2.003   2.911   0.746  0.9293 -0.4211  2.8978
  726SOL    HW2 2178   1.935   2.901   0.893 -0.1728 -0.3360  1.5777
  727SOL     OW 2179   1.914   1.183   1.959 -0.2112  0.4171  0.3084
  727SOL    HW1 2180   1.839   1.251   1.956 -0.0236  1.1596  1.6465
  727SOL    HW2 2181   1.882   1.102   2.008 -1.8246  1.7872  0.1425
  728SOL     OW 2182   1.419   2.840   1.484 -0.4912  0.0135 -0.1568
  728SOL    HW1 2183   1.401   2.942   1.499  0.0537 -1.3796  0.0869
  728SOL    HW2 2184   1.334   2.793   1.447  0.4554 -1.1253 -2.9368
  729SOL     OW 2185   1.854   0.481   2.068 -0.6845 -0.6993 -0.4174
  729SOL    HW1 2186   1.912   0.549   2.021 -0.3922  0.6983  1.4237
  729SOL    HW2 2187   1.790   0.439   2.006 -0.2001 -1.6526  2.4362
  730SOL     OW 2188   0.509   0.891   1.189  0.1915 -0.4883  0.3016
  730SOL    HW1 2189   0.455   0.814   1.226 -0.5169  0.5916 -0.6582
  730SOL    HW2 2190   0.453   0.943   1.120  1.9423 -2.4585  2.0497
  731SOL     OW 2191   0.351   0.163   0.214 -0.4479  0.0298  0.2847
  731SOL    HW1 2192   0.280   0.147   0.284 -1.7502 -0.4713 -2.1629
  731SOL    HW2 2193   0.401   0.252   0.245  0.5091  1.5551  3.2016
  732SOL     OW 2194   0.611   0.775   0.533  0.0433 -0.0305 -0.5480
  732SOL    HW1 2195   0.595   0.729   0.626 -0.8093  1.5136 -1.2139
  732SOL    HW2 2196   0.524   0.793   0.488  2.8420  0.2875  0.1847
  733SOL     OW 2197   1.342   1.562   2.112 -0.4140 -0.2640  0.3274
  733SOL    HW1 2198   1.387   1.645   2.065  2.4918  0.3826 -0.8040
  733SOL    HW2 2199   1.410   1.481   2.102  1.3692 -5.0524  0.8866
  734SOL     OW 2200   0.031   2.363   2.143  0.0433  0.2305 -0.2629
  734SOL    HW1 2201   0.019   2.354   2.043 -1.1371  1.0046  4.6482
  734SOL    HW2 2202   3.070   2.424   2.183  1.3138 -2.2254 -1.0962
  735SOL     OW 2203   1.824   0.203   1.088  0.5813  0.1689  0.4478
  735SOL    HW1 2204   1.877   0.127   1.046 -2.4518 -0.9333 -1.6188
  735SOL    HW2 2205   1.724   0.189   1.065  0.3012  0.7559  3.0059
  736SOL     OW 2206   0.991   1.279   3.029 -0.0534  0.0947 -0.1235
  736SOL    HW1 2207   0.897   1.322   3.031  0.4570 -0.4908  0.1288
  736SOL    HW2 2208   1.060   1.332   3.084 -0.5807 -0.3170 -0.8728
  737SOL     OW 2209   2.884   0.632   0.576 -0.8687  0.0853  0.3067
  737SOL    HW1 2210   2.879   0.536   0.594  1.9643  3.1262 -1.8810
  737SOL    HW2 2211   2.839   0.660   0.491  2.8590 -1.3026  3.1690
  738SOL     OW 2212   0.457   2.310   1.571  0.1095 -0.2513  0.1162
  738SOL    HW1 2213   0.436   2.395   1.522 -1.6421  2.2774  0.0296
  738SOL    HW2 2214   0.557   2.304   1.580  0.2384 -1.6548 -1.9231
  739SOL     OW 2215   1.177   2.621   3.096  0.9031  0.4843  0.2704
  739SOL    HW1 2216   1.184   2.546   3.032  0.1610  1.5331  0.0645
  739SOL    HW2 2217   1.259   2.617   0.052  1.3966 -1.5647 -3.4491
  740SOL     OW 2218   1.867   2.603   1.367 -0.0503  0.0470  0.2251
  740SOL    HW1 2219   1.902   2.575   1.459  0.0195  0.8310  0.1615
  740SOL    HW2 2220   1.844   2.520   1.308  1.0005 -4.5422 -3.4847
  741SOL     OW 2221   2.261   0.322   0.848  0.0842 -0.8367 -0.1665
  741SOL    HW1 2222   2.239   0.411   0.898 -0.9131  3.1350  0.1309
  741SOL    HW2 2223   2.356   0.291   0.868  1.0414  1.8828 -1.4897
  742SOL     OW 2224   1.125   2.381   2.442  0.1628  0.0629 -0.3052
  742SOL    HW1 2225   1.114   2.303   2.503 -0.7063  4.0190  0.2087
  742SOL    HW2 2226   1.062   2.462   2.465  0.4802  1.5605 -0.0532
  743SOL     OW 2227   2.550   0.907   1.769  0.1417  0.0213 -0.5086
  743SOL    HW1 2228   2.454   0.887   1.740 -2.0478  2.5803  1.2911
  743SOL    HW2 2229   2.575   0.838   1.840 -1.6218 -0.0699 -0.4436
  744SOL     OW 2230   2.187   0.592   0.943  0.4165 -0.0601 -0.1849
  744SOL    HW1 2231   2.231   0.672   0.893 -0.7755  0.7694 -2.1984
  744SOL    HW2 2232   2.086   0.600   0.935  4.1240  0.3172 -0.1536
  745SOL     OW 2233   2.410   1.276   1.763  0.3695 -0.1197  0.0636
  745SOL    HW1 2234   2.351   1.334   1.705  1.4524 -0.4480  2.2479
  745SOL    HW2 2235   2.497   1.256   1.715  0.5517 -1.1610 -0.5089
  746SOL     OW 2236   1.244   1.825   0.582 -0.0770  0.2892 -0.3522
  746SOL    HW1 2237   1.320   1.882   0.552 -1.2327 -1.7338  2.0049
  746SOL    HW2 2238   1.264   1.817   0.684  1.5381  1.4469 -2.6464
  747SOL     OW 2239   1.845   1.795   1.097  0.3046  0.5559 -0.0672
  747SOL    HW1 2240   1.754   1.845   1.102  1.5191 -0.3155 -0.0321
  747SOL    HW2 2241   1.839   1.695   1.083  0.2737  0.3773 -0.1172
  748SOL     OW 2242   0.251   2.935   0.345  1.1971  0.2059 -0.9166
  748SOL    HW1 2243   0.161   2.885   0.354  0.8343  1.4908 -0.7629
  748SOL    HW2 2244   0.253   2.975   0.256  2.8074 -1.4565  2.2839
  749SOL     OW 2245   0.111   0.901   2.498 -0.4205 -0.3602  0.1803
  749SOL    HW1 2246   0.173   0.843   2.437  2.6454  1.4423 -1.7200
  749SOL    HW2 2247   0.102   0.991   2.450  0.7852  2.9188 -1.8864
  750SOL     OW 2248   1.569   2.853   1.948 -0.4400  0.1347  0.4302
  750SOL    HW1 2249   1.555   2.797   1.862 -0.4460 -0.9834 -0.0395
  750SOL    HW2 2250   1.655   2.915   1.943  2.6760  1.4782 -2.3555
  751SOL     OW 2251   2.765   0.685   0.105  0.0795 -0.6617  0.8874
  751SOL    HW1 2252   2.747   0.736   0.191  0.7401  1.5923  1.6014
  751SOL    HW2 2253   2.789   0.745   0.027  0.4052  0.6789 -0.7387
  752SOL     OW 2254   0.233   1.933   0.823 -0.1914 -0.2484  0.0336
  752SOL    HW1 2255   0.212   1.931   0.726  1.2458 -0.3399  0.0636
  752SOL    HW2 2256   0.209   2.024   0.865  0.0285  1.9566  0.0812
  753SOL     OW 2257   1.181   2.912   0.919 -0.7038 -0.3903  0.1572
  753SOL    HW1 2258   1.193   2.923   0.816 -0.5836  1.3550 -0.3313
  753SOL    HW2 2259   1.127   2.827   0.940  1.6151 -0.0176 -2.2666
  754SOL     OW 2260   0.533   0.058   2.131  0.3391 -0.9326  0.1607
  754SOL    HW1 2261   0.473   0.125   2.178  1.1644 -0.3474 -0.3667
  754SOL    HW2 2262   0.537   3.076   2.185  1.8688  0.3666 -0.1911
  755SOL     OW 2263   1.881   1.051   0.041 -0.2050 -0.3160 -0.2781
  755SOL    HW1 2264   1.825   1.109   0.100  0.6705 -1.0557 -1.4286
  755SOL    HW2 2265   1.827   0.963   0.030 -0.3321  0.0442  2.4612
  756SOL     OW 2266   2.129   2.278   2.657  0.1772 -0.0894  0.6852
  756SOL    HW1 2267   2.208   2.218   2.632  0.5356  2.3236  2.5275
  756SOL    HW2 2268   2.085   2.245   2.743 -0.7981  1.2295 -0.1973
  757SOL     OW 2269   1.878   0.690   0.291  0.0973 -0.2216 -0.3579
  757SOL    HW1 2270   1.948   0.755   0.261  2.8093 -2.5871  0.4110
  757SOL    HW2 2271   1.816   0.724   0.362  0.2311 -0.1131  0.8164
  758SOL     OW 2272   1.906   0.358   1.309 -0.2934  0.3944  0.9929
  758SOL    HW1 2273   1.906   0.301   1.221 -0.8095 -3.0035 -2.3392
  758SOL    HW2 2274   1.922   0.301   1.392  1.3369 -2.5298  1.7229
  759SOL     OW 2275   2.754   0.482   1.176  0.1756 -0.1545  0.1663
  759SOL    HW1 2276   2.686   0.431   1.234 -0.2193 -0.0082  2.0330
  759SOL    HW2 2277   2.740   0.477   1.073  2.4078 -0.0844 -0.6264
  760SOL     OW 2278   2.363   1.207   1.292  0.5975  0.1255  0.2167
  760SOL    HW1 2279   2.384   1.263   1.210 -2.0483  0.1637  0.2694
  760SOL    HW2 2280   2.310   1.124   1.260 -1.7235  1.2012  0.7762
  761SOL     OW 2281   0.391   0.542   0.468 -0.0944  0.9502  0.1219
  761SOL    HW1 2282   0.457   0.525   0.542  1.8278 -1.3042  1.0403
  761SOL    HW2 2283   0.295   0.538   0.497  1.0189  0.7810 -0.8603
  762SOL     OW 2284   1.353   1.979   1.078  0.8661  0.4070 -0.0792
  762SOL    HW1 2285   1.301   2.032   1.005 -0.2447 -0.9390 -2.7617
  762SOL    HW2 2286   1.294   1.902   1.101 -1.2323 -0.1425 -1.1629
  763SOL     OW 2287   1.293   1.352   1.866 -0.2795 -0.6360  0.1751
  763SOL    HW1 2288   1.286   1.450   1.841 -0.3063  2.8823  1.4094
  763SOL    HW2 2289   1.315   1.297   1.784 -1.8327 -1.0613  2.0195
  764SOL     OW 2290   0.025   1.913   2.600  0.4692 -0.1327  0.8249
  764SOL    HW1 2291   3.060   1.914   2.528 -0.8966 -0.1826 -1.0870
  764SOL    HW2 2292   3.091   1.945   2.689 -0.1755  1.7760  0.7656
  765SOL     OW 2293   1.194   2.683   1.284 -0.0427 -0.3720  0.3028
  765SOL    HW1 2294   1.266   2.654   1.218  2.7225 -0.6045 -0.8643
  765SOL    HW2 2295   1.115   2.726   1.234 -0.9473  0.2323 -3.1365
  766SOL     OW 2296   2.860   2.458   2.492  0.2197  0.0065 -0.0085
  766SOL    HW1 2297   2.774   2.406   2.474 -3.1920  2.0620 -0.9520
  766SOL    HW2 2298   2.931   2.391   2.536  3.6748 -3.8061  1.8804
  767SOL     OW 2299   1.086   0.980   2.359 -0.2652 -0.5105 -0.4136
  767SOL    HW1 2300   1.114   0.995   2.453 -4.0782  1.2259  0.2136
  767SOL    HW2 2301   1.074   1.068   2.305  1.9140 -3.5176 -0.8389
  768SOL     OW 2302   1.010   2.186   3.036  0.0717  0.3483  0.3866
  768SOL    HW1 2303   1.099   2.204   3.000 -0.3336 -0.3162  0.9722
  768SOL    HW2 2304   0.983   2.092   3.009  4.5809  0.9134  0.2223
  769SOL     OW 2305   0.556   2.195   0.990 -0.2075  0.2701 -0.0082
  769SOL    HW1 2306   0.515   2.102   0.968  0.0654 -3.1486 -0.5311
  769SOL    HW2 2307   0.592   2.196   1.087 -0.0309 -1.2956 -1.2717
  770SOL     OW 2308   1.765   0.920   2.741  0.4758 -0.3809  0.1433
  770SOL    HW1 2309   1.858   0.923   2.775 -1.0243  0.3762 -0.2342
  770SOL    HW2 2310   1.697   0.968   2.795  2.5539 -1.2269 -2.7509
  771SOL     OW 2311   0.156   0.034   2.197  0.4218  0.1007  0.0754
  771SOL    HW1 2312   0.210   3.081   2.138  1.0410  2.6352  1.1513
  771SOL    HW2 2313   0.106   0.097   2.135  1.5591 -2.4060  2.0948
  772SOL     OW 2314   2.153   2.689   2.088  1.0729 -0.1645 -0.4781
  772SOL    HW1 2315   2.187   2.600   2.115  0.5516  1.5156  0.0846
  772SOL    HW2 2316   2.181   2.708   1.993  1.2020  0.8222 -1.7074
  773SOL     OW 2317   0.956   1.978   1.582 -0.1478  0.6353 -0.7539
  773SOL    HW1 2318   0.861   1.967   1.625 -1.2865  2.1118 -1.5509
  773SOL    HW2 2319   0.978   2.072   1.557  1.9638  2.1202 -1.8457
  774SOL     OW 2320   1.109   0.240   1.859 -0.3378  0.2402 -0.0330
  774SOL    HW1 2321   1.140   0.270   1.950  1.8085 -0.4520 -0.6807
  774SOL    HW2 2322   1.011   0.275   1.846 -2.2919  0.5669 -2.0561
  775SOL     OW 2323   1.907   3.037   2.953  0.8837 -0.4290  0.2953
  775SOL    HW1 2324   1.917   0.031   2.955  2.7762  1.2744  0.3047
  775SOL    HW2 2325   1.888   3.005   2.860  1.9006  1.0691 -1.2405
  776SOL     OW 2326   2.820   0.591   2.188  0.1974 -0.0567  0.5847
  776SOL    HW1 2327   2.832   0.607   2.288  1.3025  2.2671 -1.2526
  776SOL    HW2 2328   2.719   0.583   2.165 -3.0302 -1.0471  1.1992
  777SOL     OW 2329   2.479   2.224   2.157  0.5009 -0.0507 -0.3355
  777SOL    HW1 2330   2.408   2.220   2.084  0.9480 -0.1229 -0.3266
  777SOL    HW2 2331   2.559   2.281   2.135 -0.2363 -1.3410  1.7777
  778SOL     OW 2332   1.803   0.944   2.058 -0.8074 -0.0298 -0.2250
  778SOL    HW1 2333   1.834   0.931   2.151 -0.1927  1.8583 -1.4939
  778SOL    HW2 2334   1.704   0.927   2.052  0.0901 -0.0535  0.3018
  779SOL     OW 2335   2.641   0.418   0.652 -0.2644 -0.3585 -0.6981
  779SOL    HW1 2336   2.558   0.354   0.659 -0.3022 -2.4271  0.6546
  779SOL    HW2 2337   2.624   0.498   0.590 -0.7431 -0.8321  0.6502
  780SOL     OW 2338   2.358   0.349   0.089 -0.1943 -0.0842 -0.2125
  780SOL    HW1 2339   2.432   0.415   0.099 -0.1405 -0.0419 -1.3018
  780SOL    HW2 2340   2.275   0.389   0.047 -0.9056 -2.3471  2.0345
  781SOL     OW 2341   0.296   2.460   1.392  0.0287  0.2931  0.0034
  781SOL    HW1 2342   0.300   2.477   1.290 -4.3283 -1.0864  0.9012
  781SOL    HW2 2343   0.238   2.376   1.412  1.4679  1.7430 -0.6762
  782SOL     OW 2344   2.177   2.407   2.977  0.2484 -0.1795 -0.1448
  782SOL    HW1 2345   2.206   2.450   2.888 -1.1342  0.6128 -0.8108
  782SOL    HW2 2346   2.254   2.395   3.041 -1.2888 -0.5519  0.0463
  783SOL     OW 2347   0.850   1.235   1.380 -0.0975 -0.4122  0.1185
  783SOL    HW1 2348   0.782   1.222   1.304 -0.9186 -1.2043 -0.8700
  783SOL    HW2 2349   0.814   1.193   1.468 -0.6891 -1.7880 -0.4399
  784SOL     OW 2350   1.356   0.571   2.666 -0.1259 -0.2372  0.0478
  784SOL    HW1 2351   1.258   0.546   2.679  1.0342 -1.1779 -2.6079
  784SOL    HW2 2352   1.358   0.672   2.686 -0.0420 -0.0488 -1.2275
  785SOL     OW 2353   2.309   0.266   1.182 -0.3637 -0.1493 -0.1437
  785SOL    HW1 2354   2.343   0.205   1.258  0.0846 -1.7752 -0.6880
  785SOL    HW2 2355   2.323   0.365   1.202  1.3382  0.2797  1.1162
  786SOL     OW 2356   1.095   2.117   1.923 -0.4022  0.1980 -0.2733
  786SOL    HW1 2357   1.079   2.025   1.960 -0.4507  0.4697 -1.9652
  786SOL    HW2 2358   1.124   2.174   2.007 -1.9697  0.6483  2.8083
  787SOL     OW 2359   1.542   0.577   1.135 -0.2249 -0.4562 -0.4007
  787SOL    HW1 2360   1.618   0.629   1.088  0.6184  1.8023  0.1205
  787SOL    HW2 2361   1.579   0.521   1.211 -3.1993  0.0085  1.1746
  788SOL     OW 2362   0.167   0.686   0.730 -0.2953  0.7198 -0.0660
  788SOL    HW1 2363   0.248   0.673   0.793  0.2366  1.6294  3.9048
  788SOL    HW2 2364   0.168   0.779   0.692  2.1909 -1.9517  1.5705
  789SOL     OW 2365   0.380   2.049   1.477  0.7992  0.3659 -0.0167
  789SOL    HW1 2366   0.448   2.121   1.505 -1.0450 -1.9786  1.3470
  789SOL    HW2 2367   0.334   2.003   1.556  0.6260  0.0478 -0.4967
  790SOL     OW 2368   0.910   0.570   2.414 -0.5621  0.2227  0.3334
  790SOL    HW1 2369   0.972   0.487   2.428  0.6140 -2.4662  0.3868
  790SOL    HW2 2370   0.906   0.604   2.315 -2.1914 -0.9310  1.3266
  791SOL     OW 2371   1.911   0.605   0.887  0.2796  0.2391  0.4810
  791SOL    HW1 2372   1.847   0.651   0.948  2.4493 -0.5828 -1.0172
  791SOL    HW2 2373   1.862   0.521   0.852 -1.3679 -0.7049 -1.9629
  792SOL     OW 2374   1.244   2.436   2.044  0.4747 -0.1688 -0.5119
  792SOL    HW1 2375   1.198   2.529   2.051 -0.7046 -1.1613  0.5146
  792SOL    HW2 2376   1.187   2.359   2.085 -0.6689 -3.2050 -2.5985
  793SOL     OW 2377   1.073   0.632   0.421 -0.3302 -0.0244 -0.2222
  793SOL    HW1 2378   1.066   0.669   0.325 -3.0921  1.6513 -0.0995
  793SOL    HW2 2379   1.003   0.676   0.480  3.1284  1.6428 -0.6232
  794SOL     OW 2380   0.687   0.934   2.100 -0.1490 -0.3283  0.3921
  794SOL    HW1 2381   0.622   0.996   2.139  2.7282  2.7661 -1.6956
  794SOL    HW2 2382   0.756   0.994   2.054  0.4037 -0.4690 -0.9487
  795SOL     OW 2383   0.176   2.105   2.501 -0.1068 -0.0067  0.2783
  795SOL    HW1 2384   0.132   2.016   2.527 -1.5693  0.4640 -0.6349
  795SOL    HW2 2385   0.150   2.179   2.565  1.6515 -2.5463  1.4509
  796SOL     OW 2386   2.559   0.807   2.260 -0.3315 -0.3995 -0.1299
  796SOL    HW1 2387   2.474   0.833   2.208 -0.1326  1.1357  1.5068
  796SOL    HW2 2388   2.643   0.832   2.206 -0.5160  0.2503  0.0983
  797SOL     OW 2389   2.795   2.222   2.784 -0.2360  0.0723  0.0369
  797SOL    HW1 2390   2.695   2.214   2.787 -0.9624  0.4382  2.4157
  797SOL    HW2 2391   2.827   2.293   2.853  0.9445  0.7804 -1.1726
  798SOL     OW 2392   0.243   2.608   2.191  0.1863 -0.3884 -0.2361
  798SOL    HW1 2393   0.193   2.637   2.103 -1.6238 -1.3034 -0.1861
  798SOL    HW2 2394   0.264   2.510   2.198  2.3273  2.4900  1.0626
  799SOL     OW 2395   0.119   2.584   2.564  0.5061  0.2138  0.2949
  799SOL    HW1 2396   0.148   2.494   2.608  1.6747  0.5790 -1.1179
  799SOL    HW2 2397   0.104   2.649   2.638  1.8562  3.3489 -0.5435
  800SOL     OW 2398   0.308   2.254   0.363  0.0708  0.0500 -0.0480
  800SOL    HW1 2399   0.289   2.315   0.280 -1.1028  0.2180  0.0001
  800SOL    HW2 2400   0.398   2.210   0.345 -0.1577  0.7286  0.9136
  801SOL     OW 2401   1.816   1.510   1.091  0.0991 -0.0885  0.0785
  801SOL    HW1 2402   1.749   1.432   1.105  0.5145 -0.9580 -0.2669
  801SOL    HW2 2403   1.907   1.472   1.060  0.2480 -1.6163  1.0191
  802SOL     OW 2404   0.008   1.295   0.661  0.2416  0.4029 -0.1813
  802SOL    HW1 2405   0.106   1.325   0.643  1.5176  1.8276  2.0885
  802SOL    HW2 2406   0.007   1.190   0.667  1.4454 -0.0855  0.8573
  803SOL     OW 2407   1.187   1.943   2.227 -0.0225 -0.1604 -0.4372
  803SOL    HW1 2408   1.247   2.021   2.264  0.7620  0.4010 -1.3498
  803SOL    HW2 2409   1.090   1.965   2.254 -0.6927 -1.0596 -1.6108
  804SOL     OW 2410   1.401   1.585   0.464  0.5133  0.2784 -0.6037
  804SOL    HW1 2411   1.485   1.642   0.467 -0.5913  0.3174 -2.5409
  804SOL    HW2 2412   1.319   1.637   0.498 -1.1122  1.6515  0.9226
  805SOL     OW 2413   2.523   1.295   0.004 -0.2590  0.5212  0.2917
  805SOL    HW1 2414   2.505   1.367   3.045  1.2194 -2.2411  2.1828
  805SOL    HW2 2415   2.508   1.198   3.071  1.5794  0.3239 -1.3031
  806SOL     OW 2416   0.450   2.971   0.557  0.1612  0.0171  0.1558
  806SOL    HW1 2417   0.553   2.976   0.537 -1.9536  1.0192  1.1842
  806SOL    HW2 2418   0.388   2.966   0.477  2.2565  2.0062  2.9693
  807SOL     OW 2419   2.079   1.855   2.799  0.2138  0.4083  0.4922
  807SOL    HW1 2420   2.131   1.889   2.882 -2.0926  1.6272  1.2421
  807SOL    HW2 2421   2.058   1.756   2.793 -1.1040  1.0293  0.2750
  808SOL     OW 2422   0.963   1.594   1.146 -0.0019 -0.2687  0.1050
  808SOL    HW1 2423   0.915   1.530   1.086 -0.8580  1.2878 -0.3187
  808SOL    HW2 2424   0.898   1.671   1.177 -1.1851  2.1508  2.7405
  809SOL     OW 2425   2.568   0.630   0.467  0.0546  0.1175  0.0446
  809SOL    HW1 2426   2.480   0.683   0.472 -2.6419  1.3098  1.9063
  809SOL    HW2 2427   2.640   0.691   0.431 -2.0302  0.0184 -1.0309
  810SOL     OW 2428   0.861   1.212   0.553 -0.1339  0.7377  0.4161
  810SOL    HW1 2429   0.813   1.259   0.632  1.8834 -0.9090  1.7127
  810SOL    HW2 2430   0.885   1.277   0.476 -1.5869 -0.8623  0.7557
  811SOL     OW 2431   1.589   2.446   1.223  0.0923  0.1725 -0.4967
  811SOL    HW1 2432   1.680   2.409   1.191  0.3657 -0.3405  1.1804
  811SOL    HW2 2433   1.561   2.401   1.312  2.1635 -0.0049 -0.5050
  812SOL     OW 2434   1.104   2.503   1.795 -0.4122 -0.8485 -0.2905
  812SOL    HW1 2435   1.103   2.559   1.883 -2.7084 -0.2440 -1.1309
  812SOL    HW2 2436   1.016   2.452   1.785  0.3237 -0.6904  0.2775
  813SOL     OW 2437   0.839   2.834   1.746  0.0783  0.3223 -0.4607
  813SOL    HW1 2438   0.801   2.923   1.714 -0.1088  0.9832  0.1758
  813SOL    HW2 2439   0.903   2.800   1.675  0.2927  0.2867  0.1658
  814SOL     OW 2440   0.970   2.566   2.550 -0.3315  0.0174 -0.3684
  814SOL    HW1 2441   0.980   2.528   2.642  1.2329  0.0650 -0.6523
  814SOL    HW2 2442   0.889   2.627   2.544  1.4123  0.1357  0.2618
  815SOL     OW 2443   0.644   0.286   2.472 -0.0219  0.0103 -0.7649
  815SOL    HW1 2444   0.735   0.245   2.460  1.2884  0.5246  2.6420
  815SOL    HW2 2445   0.649   0.390   2.482  0.7437 -2.1120  0.6506
  816SOL     OW 2446   2.369   0.281   2.883  0.2319 -0.0250 -0.2400
  816SOL    HW1 2447   2.290   0.345   2.863  0.7397 -0.5050 -0.2742
  816SOL    HW2 2448   2.346   0.213   2.953 -0.4720  2.5277 -0.7074
  817SOL     OW 2449   2.016   0.050   2.023  0.1432 -0.0113  0.5893
  817SOL    HW1 2450   2.109   0.058   2.061 -2.0416 -0.3475  1.7349
  817SOL    HW2 2451   1.999   0.108   1.934 -0.2434 -0.9672 -0.2779
  818SOL     OW 2452   1.390   0.650   0.247 -0.4534 -0.6025 -0.3269
  818SOL    HW1 2453   1.457   0.724   0.225  0.7377  1.0591 -2.0189
  818SOL    HW2 2454   1.430   0.561   0.217 -1.4095  1.0038  0.0765
  819SOL     OW 2455   1.728   1.645   2.437  0.0267 -0.1081  0.1136
  819SOL    HW1 2456   1.699   1.706   2.360  1.4934  0.8916 -0.4467
  819SOL    HW2 2457   1.827   1.666   2.450  1.8953 -0.5783  1.0113
  820SOL     OW 2458   0.133   1.767   0.170  0.1655  0.7232  0.2369
  820SOL    HW1 2459   0.122   1.700   0.090 -1.7836  2.4638  0.0879
  820SOL    HW2 2460   0.230   1.783   0.200  0.2971 -0.6238  0.4620
  821SOL     OW 2461   0.159   2.948   0.726  0.3645  0.3154  0.5523
  821SOL    HW1 2462   0.248   2.938   0.674  2.6037 -0.2990  1.2786
  821SOL    HW2 2463   0.167   2.900   0.816  0.8386  2.6476  3.0819
  822SOL     OW 2464   2.568   2.488   2.779  0.1458 -0.7501  0.0470
  822SOL    HW1 2465   2.474   2.525   2.799  1.5464 -0.3293  1.8349
  822SOL    HW2 2466   2.634   2.547   2.833  2.3647 -0.8290  0.1921
  823SOL     OW 2467   1.243   0.050   2.191 -0.5166  0.2335 -0.0856
  823SOL    HW1 2468   1.327   0.014   2.146  0.3922  2.8924  1.5764
  823SOL    HW2 2469   1.197   3.083   2.245 -0.1560 -0.0834 -0.1186
  824SOL     OW 2470   2.688   2.416   2.124 -0.7865  0.3016 -0.4883
  824SOL    HW1 2471   2.786   2.444   2.146  2.4183  2.5317 -1.2030
  824SOL    HW2 2472   2.620   2.487   2.136 -1.0420 -1.6712  0.0109
  825SOL     OW 2473   2.920   1.938   2.438 -0.2303 -0.2005 -0.4202
  825SOL    HW1 2474   2.819   1.957   2.431 -1.5715  0.2761  1.2206
  825SOL    HW2 2475   2.964   2.003   2.374 -1.5839 -1.1763  0.7929
  826SOL     OW 2476   2.185   0.941   2.324  0.5694 -0.2422  0.0724
  826SOL    HW1 2477   2.141   0.861   2.371 -0.5794  0.8046  2.0952
  826SOL    HW2 2478   2.108   0.997   2.283 -1.3854 -2.3720  0.8740
  827SOL     OW 2479   2.624   2.074   1.368  0.5274 -0.7395  0.0873
  827SOL    HW1 2480   2.590   2.152   1.415  0.7503  0.9999 -1.0347
  827SOL    HW2 2481   2.590   2.069   1.266  1.3078  0.8740 -1.1501
  828SOL     OW 2482   0.093   0.001   1.842  0.0438  0.1927  0.0805
  828SOL    HW1 2483   0.157   3.059   1.906 -2.3970 -1.3520 -0.6712
  828SOL    HW2 2484   0.137   0.096   1.813  0.2584  0.7095 -0.7193
  829SOL     OW 2485   1.095   2.173   2.580  0.7575 -0.0646  0.2465
  829SOL    HW1 2486   1.162   2.107   2.610 -1.5466  2.5165  0.6543
  829SOL    HW2 2487   0.995   2.144   2.583 -1.7796 -0.6540  1.3006
  830SOL     OW 2488   0.987   0.624   0.816  0.4022  0.1409  0.2692
  830SOL    HW1 2489   0.972   0.526   0.836 -2.5236  2.4841  2.4333
  830SOL    HW2 2490   0.955   0.644   0.719 -0.8122 -0.2883 -4.8002
  831SOL     OW 2491   2.818   1.583   2.947 -0.0749  0.0054  0.3298
  831SOL    HW1 2492   2.804   1.606   3.046 -2.3762 -1.0982 -1.1838
  831SOL    HW2 2493   2.876   1.498   2.953 -0.2953  0.0803  4.3835
  832SOL     OW 2494   1.793   2.273   2.209 -0.0551  0.0077  0.5887
  832SOL    HW1 2495   1.871   2.289   2.281  1.8262  0.9799  2.2932
  832SOL    HW2 2496   1.801   2.337   2.132  1.5748  1.7772 -1.6880
  833SOL     OW 2497   0.918   0.310   2.123  0.2638 -0.2280 -0.1225
  833SOL    HW1 2498   1.016   0.306   2.134 -0.5177 -1.1907  0.7698
  833SOL    HW2 2499   0.880   0.217   2.140 -0.7286 -0.8406 -0.2697
  834SOL     OW 2500   0.029   0.184   1.246 -0.4218 -0.0666 -0.1879
  834SOL    HW1 2501   3.092   0.272   1.245  3.3060  0.0181 -2.0113
  834SOL    HW2 2502   0.096   0.186   1.329  1.8668  1.8723 -0.5761
  835SOL     OW 2503   2.638   0.808   2.945  0.3143  0.2620 -0.4189
  835SOL    HW1 2504   2.587   0.720   2.949  0.3060  1.3253 -1.2518
  835SOL    HW2 2505   2.689   0.812   2.861 -0.3939 -1.3289  2.6175
  836SOL     OW 2506   1.237   2.028   0.139  0.7682 -0.0390 -0.1767
  836SOL    HW1 2507   1.325   1.985   0.173  2.7048  1.9412 -0.4848
  836SOL    HW2 2508   1.162   2.019   0.212 -1.0590  0.3694 -0.9403
  837SOL     OW 2509   1.625   1.734   0.507  0.1679 -0.4021  0.2294
  837SOL    HW1 2510   1.638   1.693   0.601 -3.1718 -1.7421  0.8758
  837SOL    HW2 2511   1.710   1.781   0.465  2.3808 -0.2942 -0.0697
  838SOL     OW 2512   1.354   1.093   2.179 -0.1069  0.0993  0.2869
  838SOL    HW1 2513   1.419   1.026   2.137  0.8259 -2.2172  1.2328
  838SOL    HW2 2514   1.281   1.115   2.109 -1.8033  0.0521 -1.3201
  839SOL     OW 2515   0.822   1.525   2.444  0.6366 -0.2524 -0.1677
  839SOL    HW1 2516   0.733   1.521   2.393 -1.5102  3.2721 -1.9036
  839SOL    HW2 2517   0.840   1.442   2.501  0.8345  1.0336 -1.4431
  840SOL     OW 2518   0.881   2.172   0.736 -0.8411 -0.7996 -0.0443
  840SOL    HW1 2519   0.876   2.150   0.834  1.0197 -0.1431  0.0069
  840SOL    HW2 2520   0.919   2.089   0.685  2.4884 -2.2127 -2.3790
  841SOL     OW 2521   1.741   2.557   0.237  0.1401  0.3085 -0.5769
  841SOL    HW1 2522   1.749   2.635   0.300  0.6930 -0.5288  0.3398
  841SOL    HW2 2523   1.748   2.584   0.141 -0.6761 -1.3182  1.3813
  842SOL     OW 2524   0.519   0.696   2.965  0.9404 -0.7134  0.2159
  842SOL    HW1 2525   0.614   0.688   2.921 -0.6574  1.1142 -0.2018
  842SOL    HW2 2526   0.448   0.655   2.902  2.5097  1.4020 -1.1813
  843SOL     OW 2527   1.187   0.330   0.698 -0.1769 -0.3383  0.3424
  843SOL    HW1 2528   1.252   0.256   0.675 -0.6627  1.9122 -0.3017
  843SOL    HW2 2529   1.243   0.410   0.738  1.4571 -1.6052 -1.9309
  844SOL     OW 2530   2.582   0.031   2.985 -0.4127 -0.3669  0.3926
  844SOL    HW1 2531   2.535   3.089   2.907 -0.4585 -0.3497 -0.4437
  844SOL    HW2 2532   2.675   0.055   2.955  1.7662  1.5089 -1.1639
  845SOL     OW 2533   2.917   2.169   1.576 -0.6869  0.1708  0.4660
  845SOL    HW1 2534   2.822   2.193   1.602  0.3638 -1.0755  0.9347
  845SOL    HW2 2535   2.924   2.070   1.578 -0.5182  1.6236  0.5417
  846SOL     OW 2536   2.443   1.517   2.251  0.2185 -0.4437 -0.0387
  846SOL    HW1 2537   2.433   1.525   2.351  0.1055  0.9666 -1.0241
  846SOL    HW2 2538   2.539   1.497   2.225 -1.5655  3.1505  1.1373
  847SOL     OW 2539   1.163   0.688   1.599  0.1199  0.4248 -0.6111
  847SOL    HW1 2540   1.144   0.782   1.631 -2.2538  1.1353 -0.6601
  847SOL    HW2 2541   1.168   0.684   1.498 -0.7674  1.6822  1.5533
  848SOL     OW 2542   2.588   2.708   2.952 -0.4515  0.6783 -0.6904
  848SOL    HW1 2543   2.494   2.742   2.966  2.3631  0.4220  0.1966
  848SOL    HW2 2544   2.652   2.782   2.930  1.0197 -0.8399  2.4027
  849SOL     OW 2545   0.516   3.090   0.109 -0.3355  0.5577 -0.0263
  849SOL    HW1 2546   0.468   0.043   0.174  1.1112 -3.4698 -0.7839
  849SOL    HW2 2547   0.523   0.032   0.019 -0.0590 -3.3702  1.6809
  850SOL     OW 2548   1.283   3.044   1.142  0.0783  0.1638  0.0161
  850SOL    HW1 2549   1.365   2.990   1.165 -0.8407 -1.6597 -0.9605
  850SOL    HW2 2550   1.252   3.024   1.045  1.6802  2.9351  1.5102
  851SOL     OW 2551   2.649   0.344   2.337  0.0124  0.1142 -0.3262
  851SOL    HW1 2552   2.632   0.434   2.378 -0.1552 -1.5577  0.9184
  851SOL    HW2 2553   2.749   0.321   2.361  3.1360 -1.5020 -0.9387
  852SOL     OW 2554   1.548   0.826   2.365  0.3798 -0.6385 -0.5937
  852SOL    HW1 2555   1.584   0.764   2.434 -0.9643  2.5726 -3.0042
  852SOL    HW2 2556   1.575   0.795   2.272  1.1640  0.8398 -1.3395
  853SOL     OW 2557   3.017   0.061   0.379  0.4933  0.3397 -0.4184
  853SOL    HW1 2558   3.024   3.082   0.429 -0.1542  1.4223  1.0800
  853SOL    HW2 2559   3.106   0.102   0.364 -2.3934  1.4893  1.9374
  854SOL     OW 2560   2.443   1.221   2.039  0.4818 -0.6109 -0.4420
  854SOL    HW1 2561   2.483   1.308   2.075 -0.3195  0.5787  0.9568
  854SOL    HW2 2562   2.440   1.235   1.937  2.0840 -1.1044 -0.9447
  855SOL     OW 2563   0.693   2.706   0.172 -0.0182 -0.1040 -0.4205
  855SOL    HW1 2564   0.654   2.778   0.110 -0.0276  1.3486 -2.8909
  855SOL    HW2 2565   0.772   2.658   0.129  0.4667  0.7820 -1.2521
  856SOL     OW 2566   2.851   3.096   2.907 -0.5732  0.2430  0.2184
  856SOL    HW1 2567   2.876   3.092   2.809  1.0673 -0.2713  1.1115
  856SOL    HW2 2568   2.833   3.000   2.943 -1.7787  0.1511  1.1654
  857SOL     OW 2569   1.032   2.732   1.580  0.0029 -0.1601 -0.2932
  857SOL    HW1 2570   0.971   2.670   1.526 -1.9738 -2.5066 -0.6183
  857SOL    HW2 2571   1.094   2.687   1.648  2.1170  1.5552 -1.1395
  858SOL     OW 2572   2.705   2.247   1.679 -0.0127  0.4805 -0.3424
  858SOL    HW1 2573   2.762   2.292   1.746 -1.3224  1.7320 -2.8396
  858SOL    HW2 2574   2.654   2.166   1.725 -0.6876 -2.2429  0.6552
  859SOL     OW 2575   1.700   2.216   1.755 -0.3336  0.1175 -0.2451
  859SOL    HW1 2576   1.695   2.176   1.661 -0.2596  0.8506  2.3156
  859SOL    HW2 2577   1.665   2.157   1.833 -1.5943  0.2977  0.5125
  860SOL     OW 2578   2.334   0.104   3.084  0.0134  0.0885  0.4167
  860SOL    HW1 2579   2.428   0.064   3.062  2.4398 -1.8685 -5.6925
  860SOL    HW2 2580   2.349   0.174   0.049  1.0728 -2.3345  1.3164
  861SOL     OW 2581   2.607   2.944   0.580 -0.4715  0.0006 -0.6157
  861SOL    HW1 2582   2.611   2.844   0.602 -1.0456  0.3046 -1.2195
  861SOL    HW2 2583   2.569   3.001   0.655  0.8502 -1.3087 -2.6792
  862SOL     OW 2584   1.584   3.040   2.359 -0.4363  0.5319  0.6462
  862SOL    HW1 2585   1.515   3.026   2.435 -1.1165  1.8748  0.8157
  862SOL    HW2 2586   1.622   0.031   2.364 -0.0261  2.1863  0.9681
  863SOL     OW 2587   0.263   0.564   1.252  0.1141  0.3830 -0.2514
  863SOL    HW1 2588   0.164   0.588   1.265 -2.4089  0.5670  2.3517
  863SOL    HW2 2589   0.286   0.525   1.160  0.9045  2.1316 -0.3935
  864SOL     OW 2590   0.265   2.945   1.985 -0.5451  0.1614 -0.0068
  864SOL    HW1 2591   0.362   2.921   1.956 -0.0435  1.1596  1.4272
  864SOL    HW2 2592   0.201   2.865   1.993  3.0801 -0.1175 -0.4448
  865SOL     OW 2593   0.477   1.317   0.006 -0.2461 -0.2889 -0.2801
  865SOL    HW1 2594   0.568   1.357   3.085  2.1193 -0.7452  0.1765
  865SOL    HW2 2595   0.500   1.241   0.069  1.3633  1.4229  0.2089
  866SOL     OW 2596   3.079   0.632   3.021  0.5850  0.3766 -0.2644
  866SOL    HW1 2597   0.018   0.547   2.996 -1.9366  0.7561  1.0399
  866SOL    HW2 2598   0.032   0.683   3.078 -0.8322  1.3374 -0.4274
  867SOL     OW 2599   2.815   2.851   3.009  0.2877 -0.1394 -0.1600
  867SOL    HW1 2600   2.871   2.874   3.092 -1.4506  0.9506 -1.7536
  867SOL    HW2 2601   2.851   2.765   2.961 -1.1415 -1.9913  0.3856
  868SOL     OW 2602   1.494   0.383   0.214 -0.2005  0.2087  0.4458
  868SOL    HW1 2603   1.441   0.376   0.305  0.6736  1.7231 -0.6339
  868SOL    HW2 2604   1.583   0.431   0.216  1.4345  0.1957 -1.4032
  869SOL     OW 2605   2.479   1.336   0.472 -0.1450  0.3940  0.2488
  869SOL    HW1 2606   2.458   1.436   0.452 -1.5217  1.6019 -1.1082
  869SOL    HW2 2607   2.529   1.320   0.563  2.5318 -1.0859  4.2814
  870SOL     OW 2608   2.054   1.554   0.502  0.3786 -0.3916  0.0196
  870SOL    HW1 2609   2.072   1.457   0.517  1.3862  1.5390  0.2166
  870SOL    HW2 2610   1.980   1.572   0.565  1.2842 -4.3843 -3.0330
  871SOL     OW 2611   1.491   1.509   1.243 -0.0157  0.0005 -0.2029
  871SOL    HW1 2612   1.433   1.427   1.242  1.5231 -0.0306  0.2314
  871SOL    HW2 2613   1.588   1.494   1.263 -1.4607 -0.3364 -0.7405
  872SOL     OW 2614   1.299   1.625   1.646 -0.4410  0.4562  0.4242
  872SOL    HW1 2615   1.239   1.544   1.641  0.0081  1.5443  2.0055
  872SOL    HW2 2616   1.245   1.710   1.677  0.0902  1.4859 -1.6634
  873SOL     OW 2617   0.552   1.590   2.500  0.5000 -0.2053  0.6685
  873SOL    HW1 2618   0.598   1.577   2.589 -0.3346  1.5217  0.6219
  873SOL    HW2 2619   0.483   1.668   2.503  2.1752 -1.0030 -1.0159
  874SOL     OW 2620   1.033   1.416   1.368 -0.5570 -0.6428  0.0222
  874SOL    HW1 2621   1.025   1.480   1.288  0.5091  0.5729 -1.4931
  874SOL    HW2 2622   0.958   1.351   1.365  1.2382  2.1381 -1.3805
  875SOL     OW 2623   2.350   0.555   1.205 -0.1762  0.0934  0.1157
  875SOL    HW1 2624   2.356   0.579   1.103  1.9499  2.5318  0.8243
  875SOL    HW2 2625   2.260   0.570   1.246  1.1640 -0.7527  0.0434
  876SOL     OW 2626   0.855   0.774   3.094  0.3070  0.7499 -0.5118
  876SOL    HW1 2627   0.846   0.786   0.087 -0.4201  0.2726  0.6582
  876SOL    HW2 2628   0.911   0.849   3.056 -0.2033 -1.9570  2.8774
  877SOL     OW 2629   3.000   0.426   1.307 -0.4520 -0.0748  0.0749
  877SOL    HW1 2630   2.909   0.443   1.259 -1.9012 -0.5925 -2.1060
  877SOL    HW2 2631   3.041   0.506   1.350 -2.1403 -2.7877 -1.5654
  878SOL     OW 2632   1.507   2.415   3.101 -0.0921  0.1242 -0.2884
  878SOL    HW1 2633   1.587   2.476   3.096  0.1443 -3.7346  2.8783
  878SOL    HW2 2634   1.523   2.332   3.040 -0.2817 -0.2449 -2.9008
  879SOL     OW 2635   2.237   2.090   1.565 -0.1899  0.8265 -0.3761
  879SOL    HW1 2636   2.189   2.135   1.488  5.0372  0.3222  2.2915
  879SOL    HW2 2637   2.280   2.151   1.633 -1.6779  0.4162 -1.4530
  880SOL     OW 2638   1.067   2.970   1.475 -0.0569  0.2601  0.8293
  880SOL    HW1 2639   1.070   2.884   1.529  1.5590 -1.2226  0.3168
  880SOL    HW2 2640   1.052   2.950   1.375 -1.5873 -0.8717  1.8517
  881SOL     OW 2641   1.182   1.809   0.003  0.4192  0.7527 -0.0498
  881SOL    HW1 2642   1.135   1.837   3.022  2.0778 -1.6613  1.6343
  881SOL    HW2 2643   1.218   1.891   0.052 -0.2725  0.7816 -1.4461
  882SOL     OW 2644   2.287   0.781   1.951 -0.4510 -0.5242  0.0518
  882SOL    HW1 2645   2.330   0.841   2.023 -3.3330 -0.3532 -0.7845
  882SOL    HW2 2646   2.319   0.806   1.860  2.2098 -0.0736  1.0100
  883SOL     OW 2647   1.470   0.472   1.962 -0.0554  0.1224 -0.7626
  883SOL    HW1 2648   1.488   0.388   1.916 -1.5520  0.9247 -1.3832
  883SOL    HW2 2649   1.375   0.461   1.994 -0.4738 -2.6062 -0.8481
  884SOL     OW 2650   3.050   0.289   0.078  0.1532 -0.3687 -0.2882
  884SOL    HW1 2651   3.023   0.193   0.091 -2.3086  3.1531 -0.4889
  884SOL    HW2 2652   3.035   0.336   0.163  0.5735 -0.5771 -2.5335
  885SOL     OW 2653   0.720   2.295   0.473  0.6399  0.3576  0.1756
  885SOL    HW1 2654   0.799   2.345   0.521  1.0594 -0.2301  1.0840
  885SOL    HW2 2655   0.642   2.357   0.445  0.4539 -1.5778 -1.0288
  886SOL     OW 2656   1.756   1.535   2.696 -0.3131 -0.0955  0.8499
  886SOL    HW1 2657   1.704   1.591   2.626 -2.4067 -0.3728  1.4639
  886SOL    HW2 2658   1.696   1.512   2.779  0.4374  0.1824 -0.9654
  887SOL     OW 2659   1.962   0.464   1.757  0.0193 -0.6978  0.3588
  887SOL    HW1 2660   2.020   0.528   1.807  0.9294 -0.3955 -0.3387
  887SOL    HW2 2661   1.898   0.417   1.813  1.6760  1.8567 -0.1118
  888SOL     OW 2662   2.747   0.838   1.588  0.0115 -0.6077 -0.3587
  888SOL    HW1 2663   2.666   0.882   1.631 -1.5462 -2.2347 -2.0237
  888SOL    HW2 2664   2.829   0.892   1.600 -2.2171  3.0941  0.5803
  889SOL     OW 2665   3.007   2.685   0.775  0.4126 -0.0356  0.2316
  889SOL    HW1 2666   2.995   2.588   0.734  2.0239  0.7643 -2.2372
  889SOL    HW2 2667   3.076   2.737   0.725 -1.9199 -2.0276 -1.2444
  890SOL     OW 2668   2.969   2.609   2.882  0.2282  0.0946 -0.1417
  890SOL    HW1 2669   2.954   2.515   2.926  0.7356 -2.9027 -1.1011
  890SOL    HW2 2670   3.064   2.643   2.882  0.0392  2.9945  2.1335
  891SOL     OW 2671   0.780   1.665   2.952  0.2900  0.7604  0.0695
  891SOL    HW1 2672   0.787   1.692   3.050  0.1079  0.4355  1.4816
  891SOL    HW2 2673   0.874   1.656   2.909  1.6738  1.4826  0.6515
  892SOL     OW 2674   0.220   2.798   0.958 -0.1111  0.2238 -0.5079
  892SOL    HW1 2675   0.317   2.831   0.971 -0.9508 -0.5350  4.4284
  892SOL    HW2 2676   0.205   2.711   1.005  0.8416  1.8118  1.0160
  893SOL     OW 2677   0.459   3.004   1.259 -0.2329  0.3877  0.1276
  893SOL    HW1 2678   0.398   3.050   1.195 -0.3989 -0.2389  3.1021
  893SOL    HW2 2679   0.423   3.018   1.355  1.2857 -3.0165 -0.8251
  894SOL     OW 2680   2.952   1.355   0.862 -0.2634 -0.6899  0.3495
  894SOL    HW1 2681   2.999   1.321   0.772 -3.3228 -1.3399 -0.0880
  894SOL    HW2 2682   2.891   1.433   0.834  0.0382 -0.6438 -1.6891
  895SOL     OW 2683   2.433   2.535   1.834 -0.2014 -0.4520 -0.6810
  895SOL    HW1 2684   2.401   2.443   1.808  2.2346  1.4281 -1.1592
  895SOL    HW2 2685   2.380   2.617   1.799 -1.1699 -1.0115  0.0973
  896SOL     OW 2686   0.970   0.504   1.547  0.1895  0.2284 -0.0001
  896SOL    HW1 2687   0.897   0.460   1.602  1.6132 -0.8398  1.7604
  896SOL    HW2 2688   1.037   0.554   1.601  0.5066  1.8104  0.3070
  897SOL     OW 2689   0.943   1.541   1.801 -0.3234  0.4729  0.2053
  897SOL    HW1 2690   1.030   1.503   1.755  2.2676 -3.3844 -4.1639
  897SOL    HW2 2691   0.910   1.617   1.741 -2.3089 -0.9324 -1.8477
  898SOL     OW 2692   1.474   2.681   1.711  0.0290  0.0286 -0.0669
  898SOL    HW1 2693   1.404   2.604   1.707 -0.3024  1.7436 -2.9223
  898SOL    HW2 2694   1.464   2.742   1.630 -0.8243 -0.3805  0.7162
  899SOL     OW 2695   0.730   0.700   0.248 -0.3913  0.0283 -0.0367
  899SOL    HW1 2696   0.704   0.699   0.347 -1.1961  0.9102 -1.1639
  899SOL    HW2 2697   0.730   0.603   0.212  0.2127 -1.7538  0.0219
  900SOL     OW 2698   1.421   2.268   1.917 -0.3540  0.0482  0.1377
  900SOL    HW1 2699   1.361   2.334   1.964 -3.9742 -1.9854  1.0585
  900SOL    HW2 2700   1.374   2.231   1.833 -1.3286  1.1810 -0.9903
  901SOL     OW 2701   1.090   2.261   0.379  0.0504 -0.4815 -0.7299
  901SOL    HW1 2702   1.028   2.310   0.441  0.3537 -1.5245  0.0842
  901SOL    HW2 2703   1.083   2.303   0.287 -0.0832 -0.3728 -0.2434
  902SOL     OW 2704   1.749   1.563   0.280  0.4789 -0.1976  0.0768
  902SOL    HW1 2705   1.797   1.643   0.324  1.6740 -0.1978 -1.7228
  902SOL    HW2 2706   1.798   1.470   0.297 -0.4277 -3.3073 -1.0211
  903SOL     OW 2707   2.183   1.349   0.126 -0.0983 -0.5038  0.3073
  903SOL    HW1 2708   2.270   1.314   0.167 -1.4756 -0.6109 -0.2391
  903SOL    HW2 2709   2.150   1.284   0.052  0.6419 -1.7293 -2.1498
  904SOL     OW 2710   0.736   1.391   3.051 -0.5245  0.0991  0.1236
  904SOL    HW1 2711   0.741   1.483   2.993 -2.1360  1.9548  0.7694
  904SOL    HW2 2712   0.726   1.411   0.043 -1.7346  0.4040  2.4699
  905SOL     OW 2713   1.970   2.995   1.191 -0.5864  0.3968 -0.0532
  905SOL    HW1 2714   2.016   3.076   1.144 -0.9308  1.3288 -0.5354
  905SOL    HW2 2715   2.038   2.919   1.192  2.1741  1.7993  3.6222
  906SOL     OW 2716   2.858   2.314   1.172 -0.3219 -0.0097 -0.8773
  906SOL    HW1 2717   2.894   2.382   1.106 -0.1041  0.1392  1.0873
  906SOL    HW2 2718   2.761   2.296   1.166  1.1890 -1.1260 -1.1620
  907SOL     OW 2719   1.150   0.704   0.143 -0.2146 -0.8587 -0.2578
  907SOL    HW1 2720   1.151   0.754   0.053  1.2163  2.5651  2.4608
  907SOL    HW2 2721   1.240   0.660   0.166 -1.1584 -1.0626 -0.0754
  908SOL     OW 2722   1.504   2.894   1.147  0.1121 -0.3915 -0.6473
  908SOL    HW1 2723   1.546   2.921   1.061  0.6404  0.7166 -1.0307
  908SOL    HW2 2724   1.578   2.869   1.210  1.2017  0.7168  0.4313
  909SOL     OW 2725   2.121   1.204   1.676 -0.5142  0.7447  0.3016
  909SOL    HW1 2726   2.148   1.253   1.762 -0.6583  1.8024  1.0748
  909SOL    HW2 2727   2.137   1.271   1.601  0.5074 -1.8219  0.2833
  910SOL     OW 2728   1.674   0.130   2.019  0.2010  0.0560 -0.2141
  910SOL    HW1 2729   1.602   0.095   2.081  0.2934 -0.8011  2.6781
  910SOL    HW2 2730   1.717   0.048   1.974  1.9605 -3.3928 -1.0444
  911SOL     OW 2731   2.740   0.797   2.696  0.1317  0.2577 -0.1699
  911SOL    HW1 2732   2.757   0.843   2.606 -3.3263 -0.5429  0.0580
  911SOL    HW2 2733   2.818   0.736   2.727  2.6567 -1.4930 -1.1381
  912SOL     OW 2734   0.034   1.242   1.785  0.1580  0.2862  0.3585
  912SOL    HW1 2735   3.098   1.333   1.768 -0.4677  2.6207  1.7050
  912SOL    HW2 2736   0.120   1.226   1.732 -1.9188 -1.4524 -0.9041
  913SOL     OW 2737   2.957   2.385   1.406 -0.0250 -0.1375 -0.5113
  913SOL    HW1 2738   2.940   2.305   1.459  0.6776 -0.4427 -3.3095
  913SOL    HW2 2739   2.926   2.369   1.308  1.9063 -1.1636 -1.3765
  914SOL     OW 2740   1.599   1.000   1.570 -0.6782  0.4861 -0.0062
  914SOL    HW1 2741   1.637   0.907   1.553  0.4085 -0.2564 -0.5035
  914SOL    HW2 2742   1.674   1.068   1.589 -1.8235 -1.1259 -0.1684
  915SOL     OW 2743   2.108   0.558   1.350  0.6162  0.0970 -0.2341
  915SOL    HW1 2744   2.140   0.517   1.441  0.0712  1.3498  0.9422
  915SOL    HW2 2745   2.033   0.501   1.308 -2.8129 -1.4315 -1.2892
  916SOL     OW 2746   2.604   2.294   1.094 -0.5947  0.2299 -0.1571
  916SOL    HW1 2747   2.525   2.357   1.113 -0.4211  3.5590 -1.6621
  916SOL    HW2 2748   2.658   2.316   1.007 -0.4436  0.0267 -0.4165
  917SOL     OW 2749   1.706   2.243   2.916 -0.1322 -0.3457  0.5510
  917SOL    HW1 2750   1.759   2.325   2.879  1.9840  2.1747 -0.1272
  917SOL    HW2 2751   1.767   2.162   2.915 -2.0999  3.2478 -0.2993
  918SOL     OW 2752   1.762   2.829   2.330  0.1964  0.1788 -0.7936
  918SOL    HW1 2753   1.839   2.885   2.306 -5.0637 -2.3926  2.0434
  918SOL    HW2 2754   1.682   2.888   2.344  0.0876 -2.3748  2.8448
  919SOL     OW 2755   1.134   2.455   1.423  0.1440 -0.0980  0.0487
  919SOL    HW1 2756   1.165   2.445   1.519  0.1200 -1.3301  1.5195
  919SOL    HW2 2757   1.176   2.537   1.380 -3.5742 -1.3479 -0.9306
  920SOL     OW 2758   2.907   0.250   2.401  0.4356 -0.4149 -0.5248
  920SOL    HW1 2759   2.913   0.150   2.386 -1.3647  0.7222  0.7052
  920SOL    HW2 2760   2.953   0.282   2.489  0.5808  0.1404  0.7603
  921SOL     OW 2761   2.949   1.034   1.667 -0.5133  0.1738 -0.3951
  921SOL    HW1 2762   2.936   1.054   1.766 -0.6468 -1.4657 -2.0960
  921SOL    HW2 2763   3.045   0.995   1.658  0.9633  1.8937 -0.0631
  922SOL     OW 2764   2.137   2.017   0.396 -0.0581  0.1254 -0.0684
  922SOL    HW1 2765   2.126   2.044   0.298 -0.1635  1.5646  4.6175
  922SOL    HW2 2766   2.151   1.916   0.413 -0.2749 -1.4418  1.4032
  923SOL     OW 2767   0.672   1.885   0.197 -0.7034  0.8338 -0.2557
  923SOL    HW1 2768   0.725   1.801   0.172  2.4213  1.9516  1.6115
  923SOL    HW2 2769   0.734   1.970   0.204 -2.0383 -2.3338  0.1333
  924SOL     OW 2770   0.858   0.502   0.025 -0.9010 -0.4879 -0.2330
  924SOL    HW1 2771   0.848   0.603   0.003 -1.9240 -2.1601  0.7128
  924SOL    HW2 2772   0.777   0.446   3.106  2.2371 -0.6672  1.1164
  925SOL     OW 2773   2.746   0.525   0.887 -0.1156 -0.3670  0.1302
  925SOL    HW1 2774   2.709   0.619   0.900 -2.5186 -0.3946 -0.3862
  925SOL    HW2 2775   2.695   0.477   0.813 -2.3848 -1.6862 -0.1776
  926SOL     OW 2776   0.639   0.100   1.169 -0.2663  1.0934  0.3940
  926SOL    HW1 2777   0.577   0.023   1.204  0.3516  0.4448 -1.0910
  926SOL    HW2 2778   0.698   0.125   1.251 -2.5268 -1.9355 -1.3866
  927SOL     OW 2779   0.121   1.580   2.462  0.5623  0.4337  0.1102
  927SOL    HW1 2780   0.018   1.585   2.476 -2.9511 -0.0552 -0.8362
  927SOL    HW2 2781   0.147   1.510   2.397  0.5953  2.0857  2.3395
  928SOL     OW 2782   3.045   0.315   2.621 -0.1328 -0.4314  0.4187
  928SOL    HW1 2783   2.964   0.285   2.680  0.0437  2.0354 -0.2448
  928SOL    HW2 2784   0.024   0.282   2.662 -1.0673 -0.3404  1.0021
  929SOL     OW 2785   2.682   0.086   1.344  0.0741  0.4401 -0.0493
  929SOL    HW1 2786   2.626   0.059   1.425 -1.1148 -1.3180  1.3262
  929SOL    HW2 2787   2.669   0.185   1.330 -3.6693  0.8308 -0.7802
  930SOL     OW 2788   1.871   0.880   1.776 -0.2178 -0.1110  0.1374
  930SOL    HW1 2789   1.815   0.803   1.740 -4.1145 -1.5419 -0.3436
  930SOL    HW2 2790   1.830   0.925   1.862 -1.3536  1.9796 -0.9469
  931SOL     OW 2791   2.088   1.202   3.049  0.1901  0.5318  0.1905
  931SOL    HW1 2792   2.088   1.216   2.947 -0.9264  1.6452 -2.3946
  931SOL    HW2 2793   2.010   1.141   3.076  1.8865  1.3438 -1.2706
  932SOL     OW 2794   2.224   1.097   0.595 -0.2473 -0.1613  0.0772
  932SOL    HW1 2795   2.325   1.093   0.578  0.2862  1.4309  1.6197
  932SOL    HW2 2796   2.173   1.017   0.551 -0.2958  0.4975  1.6804
  933SOL     OW 2797   2.439   1.646   0.850  0.1397  0.2071 -0.1038
  933SOL    HW1 2798   2.466   1.626   0.756 -4.9452  2.1885  2.0431
  933SOL    HW2 2799   2.465   1.737   0.872  2.6355 -0.1768  1.2354
  934SOL     OW 2800   2.107   0.710   2.448 -0.2084  0.3038  0.2019
  934SOL    HW1 2801   2.178   0.642   2.411 -1.0782 -2.3691  1.0021
  934SOL    HW2 2802   2.020   0.696   2.392  0.5941  1.1750 -1.5791
  935SOL     OW 2803   0.211   0.949   0.648 -0.7039 -0.2316 -0.1725
  935SOL    HW1 2804   0.202   0.958   0.549 -0.8638 -0.1144  2.6358
  935SOL    HW2 2805   0.141   0.999   0.700 -0.4378 -1.0495  0.0907
  936SOL     OW 2806   0.154   0.294   0.665  0.8449 -0.4623  0.0527
  936SOL    HW1 2807   0.253   0.269   0.662  0.6835 -0.1691 -0.7967
  936SOL    HW2 2808   0.103   0.286   0.752 -2.3610 -0.1282  0.0418
  937SOL     OW 2809   2.787   3.061   1.680  0.3001  0.2527 -0.7291
  937SOL    HW1 2810   2.829   0.041   1.652  2.0080 -1.0663  1.6810
  937SOL    HW2 2811   2.826   3.035   1.772  3.2694  1.9732  2.2906
  938SOL     OW 2812   0.003   2.348   0.054 -0.2893  0.3222 -0.4125
  938SOL    HW1 2813   3.098   2.344   0.157  0.8594 -1.7178  0.6328
  938SOL    HW2 2814   0.102   2.345   0.034 -0.4204 -0.2832 -0.1556
  939SOL     OW 2815   0.773   1.832   0.919  0.0258 -0.0994  0.0952
  939SOL    HW1 2816   0.817   1.907   0.967 -1.7766 -1.0505 -3.0950
  939SOL    HW2 2817   0.674   1.842   0.902 -1.1384 -1.0605 -1.1039
  940SOL     OW 2818   0.162   0.430   3.064  0.0640  0.2325  0.3670
  940SOL    HW1 2819   0.081   0.377   3.100 -0.9251 -1.5531 -0.9403
  940SOL    HW2 2820   0.223   0.361   3.023  0.4266  1.6755  2.2990
  941SOL     OW 2821   1.650   0.633   2.513  0.1515 -0.1337 -0.4895
  941SOL    HW1 2822   1.580   0.555   2.520 -0.3239 -0.2291 -1.0194
  941SOL    HW2 2823   1.711   0.630   2.595  0.6781 -0.3524  1.1482
  942SOL     OW 2824   1.147   0.711   1.338 -0.7332  0.1726 -0.0753
  942SOL    HW1 2825   1.196   0.754   1.260 -3.5436  0.0173 -0.2196
  942SOL    HW2 2826   1.120   0.611   1.323  1.1504 -1.1080  0.9186
  943SOL     OW 2827   1.155   0.884   1.802  0.2270  0.8028 -0.3194
  943SOL    HW1 2828   1.259   0.890   1.816  0.5592 -1.2683 -1.6930
  943SOL    HW2 2829   1.111   0.855   1.889  0.2511  0.9535  1.0455
  944SOL     OW 2830   2.056   0.948   1.603  0.0039 -0.2289  0.2572
  944SOL    HW1 2831   1.995   0.926   1.682  0.8224  0.2742 -0.0637
  944SOL    HW2 2832   2.087   1.045   1.616 -1.0604 -2.8589 -0.0092
  945SOL     OW 2833   2.725   3.031   0.316  0.5001 -0.2454 -0.2426
  945SOL    HW1 2834   2.653   2.998   0.379  0.2640 -0.8438  1.1602
  945SOL    HW2 2835   2.797   3.086   0.364  1.4547 -1.8645 -2.2654
  946SOL     OW 2836   2.893   0.521   1.885  0.4866 -0.3092  0.2522
  946SOL    HW1 2837   2.951   0.589   1.929 -4.7883 -2.9381  0.9826
  946SOL    HW2 2838   2.895   0.534   1.781 -0.5077 -1.5608  3.2504
  947SOL     OW 2839   1.162   3.081   0.215  0.0228  0.2608  0.5116
  947SOL    HW1 2840   1.249   0.017   0.203 -1.5477  1.7003 -1.4838
  947SOL    HW2 2841   1.163   2.976   0.205  0.4311 -0.3354 -1.3701
  948SOL     OW 2842   2.489   1.797   1.300  0.1923  0.0449  0.4522
  948SOL    HW1 2843   2.528   1.860   1.370 -0.7656 -2.5546  0.9066
  948SOL    HW2 2844   2.479   1.706   1.346 -0.8954 -2.1079 -1.9341
  949SOL     OW 2845   0.428   1.575   0.014  0.1721  0.2079 -0.0265
  949SOL    HW1 2846   0.383   1.591   3.033 -1.2037 -1.0850  0.0922
  949SOL    HW2 2847   0.445   1.475   0.027  2.6169 -2.2475  0.7076
  950SOL     OW 2848   0.767   2.438   0.927 -0.0194  0.0931  0.0819
  950SOL    HW1 2849   0.705   2.514   0.893  0.8232  1.4155  0.4057
  950SOL    HW2 2850   0.735   2.340   0.906 -2.0001 -2.9390 -0.3851
  951SOL     OW 2851   0.627   1.018   2.554 -0.0649 -0.7358 -0.1140
  951SOL    HW1 2852   0.677   1.051   2.635  1.4319 -2.9736 -1.4409
  951SOL    HW2 2853   0.688   0.993   2.479 -0.4480  1.5340  1.7238
  952SOL     OW 2854   0.460   1.048   0.715 -0.1759  0.2225 -1.0486
  952SOL    HW1 2855   0.527   1.038   0.638 -0.2281  0.3649 -0.8296
  952SOL    HW2 2856   0.365   1.030   0.675 -5.0499 -2.7886 -0.6898
  953SOL     OW 2857   2.740   3.089   2.449 -0.2959  0.3003  0.2660
  953SOL    HW1 2858   2.670   0.050   2.416 -1.6113  0.9182  0.1849
  953SOL    HW2 2859   2.702   3.005   2.496 -3.0126 -1.2161  2.0523
  954SOL     OW 2860   1.335   1.316   0.442 -0.8814  0.1498 -0.2188
  954SOL    HW1 2861   1.361   1.417   0.435 -0.9629 -0.3551 -0.3124
  954SOL    HW2 2862   1.340   1.277   0.537 -1.0094 -4.8173  4.7340
  955SOL     OW 2863   0.774   2.159   0.214  0.6719 -0.2040  0.4231
  955SOL    HW1 2864   0.831   2.183   0.292  0.4118 -2.8686 -2.4594
  955SOL    HW2 2865   0.703   2.237   0.197 -0.3050  1.1717  0.1191
  956SOL     OW 2866   2.325   0.530   2.070 -0.3942  0.4488  0.3864
  956SOL    HW1 2867   2.282   0.525   2.157  3.9115 -0.1771 -1.9653
  956SOL    HW2 2868   2.298   0.617   2.018 -2.1164 -0.2332  1.6961
  957SOL     OW 2869   1.928   2.361   2.481 -0.4697 -0.1433 -0.3736
  957SOL    HW1 2870   1.907   2.460   2.487  3.0167  1.1561  0.6618
  957SOL    HW2 2871   1.999   2.348   2.553  1.1072  0.2676 -0.3760
  958SOL     OW 2872   1.686   1.307   1.219 -0.6104  0.0882  0.1414
  958SOL    HW1 2873   1.787   1.302   1.230  1.7697 -0.4950 -0.9256
  958SOL    HW2 2874   1.641   1.277   1.300  1.0461 -0.6139 -1.5393
  959SOL     OW 2875   1.925   2.099   2.459  0.0158 -0.6401 -0.0495
  959SOL    HW1 2876   1.915   2.197   2.487  1.5823 -1.3237 -3.2114
  959SOL    HW2 2877   1.855   2.043   2.506  0.8770 -0.1891  0.7563
  960SOL     OW 2878   0.156   0.813   2.754 -0.1723 -0.8818 -0.3582
  960SOL    HW1 2879   0.148   0.847   2.660  1.1150 -1.9897  2.5396
  960SOL    HW2 2880   0.148   0.711   2.744 -0.7413  0.6230  0.6698
  961SOL     OW 2881   0.315   1.041   2.808  0.1582 -0.2267 -0.2350
  961SOL    HW1 2882   0.248   0.967   2.795 -1.4566  1.1223 -0.4806
  961SOL    HW2 2883   0.287   1.093   2.891 -0.7013  0.0787  0.2706
  962SOL     OW 2884   0.423   1.187   2.598 -0.7208 -0.5709 -0.2505
  962SOL    HW1 2885   0.382   1.144   2.682  0.6178 -1.8327  0.8274
  962SOL    HW2 2886   0.505   1.132   2.567  0.9997  0.6819  0.6761
  963SOL     OW 2887   2.731   2.176   0.220  0.4017  0.4375  0.4575
  963SOL    HW1 2888   2.736   2.277   0.214  0.9718 -3.4930 -1.0101
  963SOL    HW2 2889   2.670   2.141   0.144 -1.6311  1.4382 -1.3616
  964SOL     OW 2890   0.925   2.293   1.757  0.2572 -0.2260  0.2474
  964SOL    HW1 2891   0.977   2.230   1.823  1.3144  0.7996 -0.7908
  964SOL    HW2 2892   0.837   2.331   1.790  0.9570 -0.1938 -0.8087
  965SOL     OW 2893   1.845   1.811   0.313  0.3166  0.7850  0.0615
  965SOL    HW1 2894   1.902   1.825   0.228 -0.6663 -0.6030  2.2525
  965SOL    HW2 2895   1.784   1.895   0.320  0.0735 -0.9651 -0.5452
  966SOL     OW 2896   2.954   1.469   0.478 -0.3065 -0.6249  0.1719
  966SOL    HW1 2897   2.985   1.403   0.545 -1.3245  3.6036 -4.7692
  966SOL    HW2 2898   3.037   1.487   0.420 -2.4886 -0.6217  2.0254
  967SOL     OW 2899   1.845   2.714   1.854  0.4478  0.2530 -0.1354
  967SOL    HW1 2900   1.776   2.639   1.825 -0.7171 -1.5572 -0.0189
  967SOL    HW2 2901   1.869   2.692   1.951 -1.8413 -0.6347  1.5483
  968SOL     OW 2902   1.343   0.396   0.448 -0.4596  0.3040  0.4366
  968SOL    HW1 2903   1.265   0.357   0.500  2.3310 -0.1418 -1.6801
  968SOL    HW2 2904   1.346   0.500   0.450 -0.9751 -0.1932  1.1784
  969SOL     OW 2905   0.188   1.393   2.299 -0.3226  0.5297  0.5767
  969SOL    HW1 2906   0.285   1.355   2.306  0.1376 -2.2430 -2.4136
  969SOL    HW2 2907   0.166   1.420   2.205 -2.1403  2.7219  1.5805
  970SOL     OW 2908   2.266   2.066   1.131  0.1384  0.3143 -0.1579
  970SOL    HW1 2909   2.178   2.039   1.183 -0.6529 -0.7923  2.7321
  970SOL    HW2 2910   2.234   2.113   1.046 -3.2861 -0.8633 -1.5187
  971SOL     OW 2911   2.766   2.790   1.047  0.0039 -0.6270 -0.2193
  971SOL    HW1 2912   2.793   2.692   1.038  0.1463 -1.3775  1.5004
  971SOL    HW2 2913   2.825   2.856   0.992  0.8911  2.0574 -0.8799
  972SOL     OW 2914   3.080   1.212   2.631 -0.2487  0.4589  0.5412
  972SOL    HW1 2915   3.103   1.174   2.542  2.0563  1.2043  0.3732
  972SOL    HW2 2916   3.001   1.277   2.627  3.0154  0.4653 -1.9050
  973SOL     OW 2917   0.572   0.556   0.734 -0.1952  0.6479  0.3985
  973SOL    HW1 2918   0.540   0.591   0.820  0.1153 -1.4979 -1.0308
  973SOL    HW2 2919   0.606   0.461   0.746  1.5722 -0.4099  1.1236
  974SOL     OW 2920   2.317   0.817   1.671 -0.3234 -0.0958  0.0499
  974SOL    HW1 2921   2.238   0.868   1.633  3.2793 -0.4385  2.1285
  974SOL    HW2 2922   2.344   0.751   1.602 -3.0491  0.4013  0.4093
  975SOL     OW 2923   2.923   2.903   0.163 -0.1132  0.5518 -0.3991
  975SOL    HW1 2924   2.841   2.935   0.218 -3.1360  0.4616  1.7222
  975SOL    HW2 2925   3.004   2.869   0.213 -2.3133  1.7159 -1.5342
  976SOL     OW 2926   0.620   1.685   1.222 -0.3110  0.4414  0.0103
  976SOL    HW1 2927   0.541   1.616   1.213 -1.9385  0.4142 -2.0132
  976SOL    HW2 2928   0.669   1.704   1.133 -0.7591  2.9363 -1.1176
  977SOL     OW 2929   1.012   1.950   0.641 -0.1477 -0.2326 -0.5647
  977SOL    HW1 2930   1.112   1.937   0.627  3.0739 -0.8810  1.8631
  977SOL    HW2 2931   0.970   1.858   0.645 -1.7288  0.3936 -0.1041
  978SOL     OW 2932   0.527   1.104   0.160  0.2468 -0.0584 -0.0135
  978SOL    HW1 2933   0.531   1.093   0.260 -1.9847 -0.8451 -0.8466
  978SOL    HW2 2934   0.558   1.022   0.112  0.3134  2.4398 -1.0329
  979SOL     OW 2935   2.134   1.598   0.240 -0.2171 -0.6125  0.1211
  979SOL    HW1 2936   2.130   1.506   0.198 -1.0126  1.2754  0.5347
  979SOL    HW2 2937   2.105   1.596   0.336  0.3457 -2.5137 -1.1616
  980SOL     OW 2938   0.428   2.067   2.198 -0.0306 -0.7969 -0.4127
  980SOL    HW1 2939   0.517   2.116   2.195 -0.5297  2.2315 -0.2385
  980SOL    HW2 2940   0.428   1.989   2.266 -1.3808 -2.2259  1.8062
  981SOL     OW 2941   2.742   0.952   0.046  0.4427  0.1106  0.2915
  981SOL    HW1 2942   2.707   0.906   3.069 -0.1980 -0.4461  0.9476
  981SOL    HW2 2943   2.667   0.954   0.115  0.3384 -0.5543 -0.6388
  982SOL     OW 2944   0.090   2.710   1.992  0.1529  0.0307  0.1438
  982SOL    HW1 2945   0.002   2.736   2.046 -4.1965 -1.0204  2.7937
  982SOL    HW2 2946   0.069   2.698   1.895 -2.3761 -1.6456  1.2736
  983SOL     OW 2947   1.664   0.096   1.464  0.2291 -0.6242  0.3205
  983SOL    HW1 2948   1.601   0.127   1.388 -1.5074 -2.2328  1.4507
  983SOL    HW2 2949   1.721   0.017   1.435  1.1757 -0.5677  1.5150
  984SOL     OW 2950   1.395   3.025   2.561 -0.2432  0.5206  0.2758
  984SOL    HW1 2951   1.478   3.041   2.612 -2.0264 -0.8646 -1.8762
  984SOL    HW2 2952   1.368   2.926   2.574 -1.2731  4.3681 -0.4408
  985SOL     OW 2953   1.344   1.739   1.391  0.4670  0.7027 -0.2680
  985SOL    HW1 2954   1.365   1.671   1.319 -0.0112 -0.0471 -0.0429
  985SOL    HW2 2955   1.326   1.688   1.483 -0.2104 -0.7469  0.3633
  986SOL     OW 2956   1.998   2.988   2.256 -0.0981 -0.0480  0.1736
  986SOL    HW1 2957   2.078   2.929   2.266  0.8696  0.7150 -0.7006
  986SOL    HW2 2958   1.995   3.041   2.170 -1.8867 -0.9775 -1.0126
  987SOL     OW 2959   2.640   1.811   2.632  0.1208  0.0326 -0.3948
  987SOL    HW1 2960   2.686   1.879   2.697  0.7381  0.3264 -0.8355
  987SOL    HW2 2961   2.603   1.870   2.555  0.2364 -0.4389  0.2171
  988SOL     OW 2962   2.855   0.583   1.623 -0.2208 -0.2284  0.2276
  988SOL    HW1 2963   2.814   0.675   1.599  2.2249  0.2484 -3.3395
  988SOL    HW2 2964   2.905   0.568   1.536 -1.0405  2.6993 -0.0071
  989SOL     OW 2965   1.790   1.174   1.640  0.1384  0.3389  0.0054
  989SOL    HW1 2966   1.787   1.277   1.628 -0.7092  1.3197 -0.3504
  989SOL    HW2 2967   1.880   1.151   1.683  0.6467  0.1640 -0.9878
  990SOL     OW 2968   2.930   1.131   3.056  0.3045  0.2251  0.0092
  990SOL    HW1 2969   2.865   1.063   3.105 -2.4702 -0.6320 -2.1468
  990SOL    HW2 2970   2.968   1.088   2.970  2.2776  2.2226  0.2191
  991SOL     OW 2971   0.278   2.262   2.964 -0.1988  0.2500 -0.1520
  991SOL    HW1 2972   0.243   2.186   3.020  0.4302  1.1625  0.2296
  991SOL    HW2 2973   0.369   2.233   2.928  0.7317 -1.6035  1.9574
  992SOL     OW 2974   2.618   2.001   1.765  0.7096 -0.2006  0.2301
  992SOL    HW1 2975   2.521   1.970   1.759  0.1913  1.4696 -3.4961
  992SOL    HW2 2976   2.657   1.979   1.859 -0.2434 -2.8708  0.0130
  993SOL     OW 2977   0.707   3.023   0.797  0.3471  0.5880 -0.2216
  993SOL    HW1 2978   0.734   3.051   0.704  0.6781 -2.1650 -0.4890
  993SOL    HW2 2979   0.722   3.099   0.856 -0.5770 -1.4563 -3.2271
  994SOL     OW 2980   3.061   1.925   1.629  0.4812  0.1402  0.3747
  994SOL    HW1 2981   3.061   1.899   1.727  0.0736  1.3705 -0.1267
  994SOL    HW2 2982   0.043   1.965   1.601  4.0263  1.6745  0.9542
  995SOL     OW 2983   2.136   1.949   2.546 -0.0016  0.1973 -0.2338
  995SOL    HW1 2984   2.114   1.933   2.641  1.9178  0.1471 -1.9335
  995SOL    HW2 2985   2.072   2.017   2.509  2.0366 -0.9368 -0.1850
  996SOL     OW 2986   1.988   1.768   0.056 -0.0322  0.6111  0.9050
  996SOL    HW1 2987   1.927   1.714   3.105  1.0100  1.8357  1.1376
  996SOL    HW2 2988   2.048   1.706   0.113  1.9320 -0.7205 -0.3772
  997SOL     OW 2989   1.129   1.398   1.622 -0.0569 -0.1453  0.4532
  997SOL    HW1 2990   1.164   1.308   1.650 -2.7702  2.7324 -0.3230
  997SOL    HW2 2991   1.104   1.399   1.520  0.2632 -1.1642 -0.9596
  998SOL     OW 2992   2.849   2.121   0.902 -0.0352 -0.1923 -0.0849
  998SOL    HW1 2993   2.900   2.100   0.815 -0.0689  2.9929 -1.8724
  998SOL    HW2 2994   2.825   2.044   0.962 -2.2476  1.5182 -0.8384
  999SOL     OW 2995   2.718   2.493   0.236 -0.5842  0.0142 -0.0035
  999SOL    HW1 2996   2.701   2.493   0.135  0.0703  0.1734  1.5278
  999SOL    HW2 2997   2.650   2.558   0.278 -3.0401  3.5575 -0.2715
 1000SOL     OW 2998   1.319   0.288   2.822 -0.3706  0.0298 -0.1397
 1000SOL    HW1 2999   1.313   0.313   2.925  1.2030 -1.7370  3.0513
 1000SOL    HW2 3000   1.232   0.307   2.763 -1.4170  1.4182 -2.5580
   3.10732   3.10732   3.10732
