1000 SPC/Fw water molecules t= 327.00000 step= 327000
 3000
    1SOL     OW    1   2.332   0.196   1.188  0.3272  0.2284 -0.0025
    1SOL    HW1    2   2.320   0.140   1.271 -0.2051 -1.3382  0.1415
    1SOL    HW2    3   2.425   0.176   1.150 -1.4055  0.7059 -0.0780
    2SOL     OW    4   2.761   2.554   0.825 -0.2734 -0.4751 -0.2680
    2SOL    HW1    5   2.694   2.479   0.856  0.7024  0.0763  2.5624
    2SOL    HW2    6   2.848   2.518   0.786 -2.6253 -0.5319  1.6903
    3SOL     OW    7   1.064   0.006   2.958  1.2356  0.0082  0.1936
    3SOL    HW1    8   1.152   3.065   2.957 -2.5774  0.8577  1.1635
    3SOL    HW2    9   0.996   3.045   2.998 -2.5924  3.2352 -0.3588
    4SOL     OW   10   1.950   2.606   2.036 -0.4876  0.0700  0.1672
    4SOL    HW1   11   2.038   2.633   2.007 -3.2805 -1.7344  1.3746
    4SOL    HW2   12   1.934   2.506   2.025  1.5738  1.1170  0.1806
    5SOL     OW   13   1.895   0.804   1.718 -0.2396 -0.2631 -0.1030
    5SOL    HW1   14   1.830   0.872   1.676 -1.8325 -0.6380  1.1339
    5SOL    HW2   15   1.965   0.787   1.649 -0.0582 -0.4466  1.8363
    6SOL     OW   16   2.072   2.570   0.845 -0.7162 -0.6987 -0.1650
    6SOL    HW1   17   2.016   2.487   0.874  0.2239  0.0139 -0.1744
    6SOL    HW2   18   2.130   2.605   0.922  2.0582  0.0577  3.7429
    7SOL     OW   19   2.277   1.555   1.076 -0.4371  0.7793  0.0909
    7SOL    HW1   20   2.380   1.569   1.093  0.2980  0.5079 -1.7659
    7SOL    HW2   21   2.222   1.534   1.157  1.2834  0.3705 -1.4835
    8SOL     OW   22   0.693   1.751   1.518 -0.5121  0.2604 -0.2134
    8SOL    HW1   23   0.624   1.673   1.530 -1.8598 -0.2191 -2.5556
    8SOL    HW2   24   0.671   1.808   1.435 -0.2890  0.2715 -1.3745
    9SOL     OW   25   1.311   2.658   2.268  0.2381  0.6346  0.0429
    9SOL    HW1   26   1.276   2.587   2.335 -2.9566 -0.5046  0.3775
    9SOL    HW2   27   1.250   2.668   2.189 -0.5324  0.9430  0.1951
   10SOL     OW   28   0.398   1.901   0.822 -0.6097 -0.3106 -0.3658
   10SOL    HW1   29   0.487   1.902   0.863  0.1724 -1.9037 -0.5855
   10SOL    HW2   30   0.348   1.992   0.827  0.3353  0.7395 -2.5741
   11SOL     OW   31   1.635   1.688   1.009  0.2398  0.5855  0.4585
   11SOL    HW1   32   1.719   1.648   1.051 -2.7551 -1.7524  2.5544
   11SOL    HW2   33   1.591   1.743   1.081  2.1868 -2.6351  2.0864
   12SOL     OW   34   2.630   2.789   1.793 -0.1423  0.0737  0.3452
   12SOL    HW1   35   2.626   2.698   1.831 -0.4210  1.0582 -2.7710
   12SOL    HW2   36   2.727   2.821   1.775  1.2020  3.0926 -0.1204
   13SOL     OW   37   2.501   2.989   0.448 -0.1897  0.0066  0.1028
   13SOL    HW1   38   2.402   2.987   0.419 -0.8031 -1.2663 -1.8227
   13SOL    HW2   39   2.490   3.000   0.551 -1.9345 -0.9305 -1.1929
   14SOL     OW   40   1.482   2.105   0.070  0.2834  0.0883  0.4492
   14SOL    HW1   41   1.397   2.110   0.132 -0.4379 -1.0174 -0.5753
   14SOL    HW2   42   1.567   2.092   0.125  1.3343 -2.2880  1.0072
   15SOL     OW   43   2.903   2.588   1.479 -0.7560  0.2934  0.1363
   15SOL    HW1   44   2.966   2.634   1.543  0.4446  1.3220  0.0446
   15SOL    HW2   45   2.850   2.661   1.426  0.4375 -0.6477  1.0988
   16SOL     OW   46   2.671   3.019   0.224  0.2589 -0.3167  0.0208
   16SOL    HW1   47   2.609   3.016   0.309 -0.4247  0.7213  0.0624
   16SOL    HW2   48   2.756   3.061   0.244 -1.5358 -2.2934 -1.0867
   17SOL     OW   49   0.098   0.435   1.396 -0.4159 -0.1592  0.0355
   17SOL    HW1   50   0.189   0.457   1.356 -0.2442  1.1475 -3.5689
   17SOL    HW2   51   0.097   0.346   1.447 -0.7001  0.6099 -1.3090
   18SOL     OW   52   2.016   0.961   0.368  0.0816 -0.0264 -0.1208
   18SOL    HW1   53   2.109   0.954   0.328  1.0197 -0.3372 -2.1500
   18SOL    HW2   54   2.004   0.920   0.463  0.8484  0.2346  1.4601
   19SOL     OW   55   1.704   1.908   0.471  0.2341 -0.2676  0.0786
   19SOL    HW1   56   1.706   1.808   0.449  2.4168 -0.1495  0.6269
   19SOL    HW2   57   1.753   1.966   0.403  0.5882 -0.5857 -0.2942
   20SOL     OW   58   2.562   2.222   2.132  0.1416  0.6033 -0.0654
   20SOL    HW1   59   2.531   2.137   2.181  1.3579 -0.5891 -3.1029
   20SOL    HW2   60   2.488   2.248   2.069 -0.4526 -1.6405  1.2597
   21SOL     OW   61   1.611   0.016   0.730 -0.2221 -0.3300  0.8097
   21SOL    HW1   62   1.690   3.103   0.787  0.4245  0.1536 -2.7598
   21SOL    HW2   63   1.598   3.042   0.666  2.9012  0.4303  1.4646
   22SOL     OW   64   2.726   0.327   1.433  0.8291 -0.2426  0.4803
   22SOL    HW1   65   2.787   0.403   1.466  0.5540  0.0071  2.4393
   22SOL    HW2   66   2.627   0.342   1.466 -3.6154  0.0083  2.6489
   23SOL     OW   67   0.370   0.545   1.715 -0.5719 -0.3424 -0.3684
   23SOL    HW1   68   0.303   0.576   1.788  0.1621  0.2484 -0.2898
   23SOL    HW2   69   0.364   0.610   1.633 -1.6531 -1.3156 -1.9958
   24SOL     OW   70   2.470   2.732   0.348 -0.3990  0.6334 -0.4585
   24SOL    HW1   71   2.522   2.664   0.406  0.8824 -1.7791  0.4036
   24SOL    HW2   72   2.493   2.827   0.372 -0.3210 -0.0238 -1.1791
   25SOL     OW   73   1.287   2.899   2.528  0.0689  0.0484  0.4350
   25SOL    HW1   74   1.335   2.817   2.498 -0.3826  0.4735  3.0285
   25SOL    HW2   75   1.326   2.954   2.604  0.9664 -0.0037 -2.3742
   26SOL     OW   76   1.451   2.380   0.288 -0.3498  0.8475  0.0587
   26SOL    HW1   77   1.547   2.391   0.325  1.5261  1.3336 -0.2334
   26SOL    HW2   78   1.444   2.390   0.187 -1.3448  0.2925 -0.4218
   27SOL     OW   79   2.434   1.185   2.772 -0.3153  0.1151 -0.3188
   27SOL    HW1   80   2.422   1.280   2.803 -4.6383 -2.1335 -0.4864
   27SOL    HW2   81   2.535   1.164   2.749  2.0889 -1.5240 -1.4419
   28SOL     OW   82   1.043   1.421   1.253  0.2980  0.8797 -0.0892
   28SOL    HW1   83   1.085   1.368   1.329 -0.3224  0.9985  0.1337
   28SOL    HW2   84   0.955   1.458   1.288 -0.3450 -0.7151 -0.3236
   29SOL     OW   85   3.094   2.618   1.698  0.3189 -0.2133  0.3570
   29SOL    HW1   86   0.070   2.653   1.750  3.7236 -1.4856  1.4771
   29SOL    HW2   87   3.082   2.518   1.714 -0.1517 -1.0553 -1.2407
   30SOL     OW   88   1.351   0.081   1.203 -0.2321 -0.0904  0.2148
   30SOL    HW1   89   1.310   0.170   1.190  0.5343 -2.5275 -0.7925
   30SOL    HW2   90   1.446   0.090   1.236 -1.7476  0.6948  1.4526
   31SOL     OW   91   2.224   2.933   1.921  0.2569  0.1073  0.3246
   31SOL    HW1   92   2.238   3.031   1.912  1.5344 -0.9734  2.5343
   31SOL    HW2   93   2.126   2.923   1.942 -0.4777 -0.2312 -0.7067
   32SOL     OW   94   0.942   1.646   0.325 -0.2606  0.6095 -0.0520
   32SOL    HW1   95   0.992   1.564   0.287  0.2324 -1.8757 -1.9133
   32SOL    HW2   96   0.924   1.639   0.424 -3.7649  4.0670  0.0677
   33SOL     OW   97   0.314   0.903   2.450  0.3443 -0.2589  0.2281
   33SOL    HW1   98   0.300   0.849   2.532 -0.7293  1.3720 -3.1155
   33SOL    HW2   99   0.259   0.874   2.370 -1.8406  1.6489 -1.2147
   34SOL     OW  100   2.231   2.990   0.418  0.2530 -0.0444  0.2499
   34SOL    HW1  101   2.156   3.010   0.482  2.3353 -0.9886 -0.9508
   34SOL    HW2  102   2.222   3.070   0.356 -2.2397  1.4857 -2.0707
   35SOL     OW  103   2.073   2.607   1.691  0.3886  0.3179  0.2532
   35SOL    HW1  104   1.996   2.663   1.730 -2.4160 -0.8375  2.0383
   35SOL    HW2  105   2.036   2.516   1.664 -0.3831 -0.5681  1.9373
   36SOL     OW  106   1.837   2.264   3.093 -0.7162  0.1954  0.0622
   36SOL    HW1  107   1.808   2.282   2.995  0.7906  1.5504 -1.6462
   36SOL    HW2  108   1.856   2.167   0.015  1.1027  0.3584  1.0222
   37SOL     OW  109   1.394   0.460   2.379  0.3437  0.2628  0.3198
   37SOL    HW1  110   1.367   0.544   2.429 -1.1442  3.8154  1.0774
   37SOL    HW2  111   1.316   0.399   2.370  0.7933  0.5117  1.4634
   38SOL     OW  112   0.267   0.392   2.783 -0.3613 -0.1416  0.3700
   38SOL    HW1  113   0.172   0.392   2.742  0.1803  1.9345  1.5768
   38SOL    HW2  114   0.301   0.297   2.783  2.0961 -0.9250  1.2104
   39SOL     OW  115   2.156   1.451   1.803 -0.1932 -0.1092  0.2740
   39SOL    HW1  116   2.196   1.516   1.741  0.2459 -4.2733  1.0170
   39SOL    HW2  117   2.153   1.488   1.899  0.0638  2.0491  1.3746
   40SOL     OW  118   1.194   2.815   0.440 -0.7699 -0.0295 -0.2491
   40SOL    HW1  119   1.113   2.833   0.498 -0.9747 -1.2372 -0.2473
   40SOL    HW2  120   1.232   2.724   0.463  2.3392 -0.0319  0.0552
   41SOL     OW  121   2.289   1.454   0.832 -0.2778  0.4627 -0.1578
   41SOL    HW1  122   2.273   1.503   0.921 -1.4342  2.4989  1.2653
   41SOL    HW2  123   2.381   1.480   0.794 -1.9973  0.7658  0.7393
   42SOL     OW  124   0.538   0.192   1.359 -0.3731 -0.1104  0.0688
   42SOL    HW1  125   0.520   0.258   1.434  2.2520  1.8532  2.2473
   42SOL    HW2  126   0.566   0.104   1.400  1.4597 -1.4816  1.9407
   43SOL     OW  127   0.236   1.494   2.317 -0.4005  0.6825  0.2482
   43SOL    HW1  128   0.199   1.508   2.409  0.0120 -0.1831 -2.2073
   43SOL    HW2  129   0.334   1.503   2.322 -0.8387 -0.2476 -0.7221
   44SOL     OW  130   2.403   3.042   1.691  0.3317 -0.3708 -0.5033
   44SOL    HW1  131   2.402   0.022   1.754 -0.6003  3.5026  7.2017
   44SOL    HW2  132   2.337   2.974   1.721  1.6141 -0.8214 -1.7142
   45SOL     OW  133   1.289   3.062   2.275  0.4464  0.6005 -0.1358
   45SOL    HW1  134   1.361   3.002   2.232 -1.4463  0.1113  1.8627
   45SOL    HW2  135   1.260   3.037   2.367 -0.5295 -0.6240  0.2798
   46SOL     OW  136   0.987   2.556   2.595 -0.2546  0.5297 -0.1843
   46SOL    HW1  137   1.050   2.633   2.576 -0.4102 -1.5368  0.2465
   46SOL    HW2  138   0.894   2.584   2.563 -1.1389 -0.1465 -1.4939
   47SOL     OW  139   1.792   1.521   0.673  0.0292 -0.2633 -0.0189
   47SOL    HW1  140   1.822   1.550   0.766 -0.7437  0.2608 -0.1272
   47SOL    HW2  141   1.855   1.462   0.621 -0.0415 -0.5861 -1.7221
   48SOL     OW  142   1.084   2.232   0.589  0.4606 -0.3178  0.5151
   48SOL    HW1  143   1.054   2.243   0.491 -3.2639  0.1563  0.6182
   48SOL    HW2  144   1.071   2.133   0.615  0.3802  0.2767 -3.2131
   49SOL     OW  145   2.164   0.104   2.749 -0.5057  0.3503  0.2550
   49SOL    HW1  146   2.084   0.067   2.699 -0.3952 -1.1560  2.2192
   49SOL    HW2  147   2.250   0.081   2.697  0.0196  0.6733 -1.0145
   50SOL     OW  148   1.893   2.933   3.066 -0.9313  0.5975  0.1294
   50SOL    HW1  149   1.969   3.002   3.053 -0.5798 -2.4841  0.0510
   50SOL    HW2  150   1.907   2.876   0.044 -0.5994  2.2490 -0.8160
   51SOL     OW  151   2.091   0.773   1.275 -0.1737  0.0623 -0.9480
   51SOL    HW1  152   2.162   0.768   1.347  0.2548 -0.9760  1.7744
   51SOL    HW2  153   2.096   0.871   1.242  1.7951  2.7489 -0.9846
   52SOL     OW  154   0.899   1.565   0.838  0.4412  0.1869  0.1863
   52SOL    HW1  155   0.989   1.557   0.880 -2.5550  1.5892  0.6729
   52SOL    HW2  156   0.826   1.508   0.882 -3.3853 -1.5786  2.0162
   53SOL     OW  157   0.614   1.552   2.545  0.1630  0.4403 -0.1775
   53SOL    HW1  158   0.646   1.640   2.585  2.6557  0.4798  0.4130
   53SOL    HW2  159   0.583   1.486   2.616  0.4870 -0.5363  1.7147
   54SOL     OW  160   2.729   1.353   1.721  0.1160 -0.4830 -0.3066
   54SOL    HW1  161   2.757   1.272   1.771  0.4320  0.9896  0.5170
   54SOL    HW2  162   2.756   1.444   1.764 -0.2385  3.6796 -1.8282
   55SOL     OW  163   2.470   1.804   0.507 -0.7976 -0.3735  0.1497
   55SOL    HW1  164   2.381   1.756   0.503 -1.6359 -2.5424 -0.3508
   55SOL    HW2  165   2.506   1.812   0.602  2.5848  2.1548 -3.1881
   56SOL     OW  166   1.515   0.158   1.722  0.1316 -0.3776 -0.1996
   56SOL    HW1  167   1.487   0.224   1.651  0.8932 -0.9363  2.7043
   56SOL    HW2  168   1.471   0.175   1.812  1.5734  0.6956 -1.6612
   57SOL     OW  169   1.455   1.248   2.783 -0.0137  0.0754 -0.2083
   57SOL    HW1  170   1.523   1.324   2.782  0.8987 -0.6665  0.4697
   57SOL    HW2  171   1.450   1.205   2.693 -0.8661  2.1057  0.2992
   58SOL     OW  172   0.119   0.754   1.642  0.3029 -0.2333 -0.2585
   58SOL    HW1  173   0.199   0.729   1.589 -1.8863 -3.6786 -0.7530
   58SOL    HW2  174   0.069   0.839   1.607 -0.0453  2.0928  0.8403
   59SOL     OW  175   1.655   2.695   0.204 -0.3387 -0.0505  0.1085
   59SOL    HW1  176   1.698   2.620   0.152  0.1073  0.6462  2.4717
   59SOL    HW2  177   1.554   2.690   0.204 -0.0315  0.1745  1.6754
   60SOL     OW  178   2.986   1.766   0.044  0.3263  0.0354  0.2622
   60SOL    HW1  179   2.952   1.846   0.099  1.5801 -0.2777 -0.6725
   60SOL    HW2  180   2.926   1.747   3.068  2.0743 -1.9448 -1.3848
   61SOL     OW  181   0.927   2.579   0.851  0.0618 -0.0581 -0.1488
   61SOL    HW1  182   0.922   2.565   0.952  2.9573  2.3290  2.1575
   61SOL    HW2  183   0.924   2.496   0.797 -2.2743 -0.0160  2.6107
   62SOL     OW  184   2.026   1.487   2.547  0.1786  0.2564 -0.0751
   62SOL    HW1  185   2.064   1.407   2.494  0.3226 -0.6951  0.1739
   62SOL    HW2  186   1.930   1.477   2.565  1.6579 -2.4548  3.0933
   63SOL     OW  187   2.204   2.096   0.631 -0.3925  0.2980 -0.2060
   63SOL    HW1  188   2.270   2.166   0.604  1.3927 -0.5013 -0.1223
   63SOL    HW2  189   2.112   2.117   0.595  0.1894 -2.5648  0.2083
   64SOL     OW  190   1.849   1.226   0.050  0.0364 -0.0491 -0.3551
   64SOL    HW1  191   1.768   1.163   0.023 -2.3179  0.5695 -1.5227
   64SOL    HW2  192   1.933   1.200   0.002 -0.4743 -0.0175 -1.0279
   65SOL     OW  193   1.860   1.686   2.351  0.0730 -0.1309  0.7530
   65SOL    HW1  194   1.958   1.663   2.345 -3.5557  0.1542  0.9484
   65SOL    HW2  195   1.835   1.752   2.274 -0.9300  3.5710 -1.5630
   66SOL     OW  196   0.312   1.022   1.197  0.5373 -0.7605  0.2120
   66SOL    HW1  197   0.413   1.025   1.199 -0.8253  1.0694 -0.7336
   66SOL    HW2  198   0.270   1.107   1.238  0.4993  0.0923  0.1231
   67SOL     OW  199   2.268   2.853   2.732 -0.2802  0.1943  0.5606
   67SOL    HW1  200   2.218   2.866   2.643 -0.1205 -1.4145 -6.1260
   67SOL    HW2  201   2.368   2.833   2.717  1.6168 -1.7921  1.0364
   68SOL     OW  202   1.257   2.288   1.527  0.7865 -0.1784  0.2935
   68SOL    HW1  203   1.269   2.199   1.477 -0.0352 -1.4638  1.2055
   68SOL    HW2  204   1.276   2.368   1.467 -1.0034  2.7112  2.7202
   69SOL     OW  205   0.705   2.387   0.029  0.6253  0.0268  0.2831
   69SOL    HW1  206   0.766   2.463   0.064  0.5905 -0.9767  1.9022
   69SOL    HW2  207   0.616   2.392   0.077  1.0845  0.2700  0.8300
   70SOL     OW  208   2.808   0.555   2.420  0.1243  0.1720  0.3021
   70SOL    HW1  209   2.861   0.478   2.378 -3.3146 -0.5681 -0.7298
   70SOL    HW2  210   2.872   0.635   2.432  0.1365 -2.4772  0.3688
   71SOL     OW  211   0.538   1.350   2.724  0.0164 -0.2153  0.0710
   71SOL    HW1  212   0.536   1.284   2.645 -0.8628  1.1086  0.4335
   71SOL    HW2  213   0.558   1.292   2.803  1.7539  2.9143 -0.9987
   72SOL     OW  214   0.417   1.838   2.453  0.0476  0.3673 -0.4295
   72SOL    HW1  215   0.404   1.802   2.360 -1.4901 -0.8969  1.0810
   72SOL    HW2  216   0.418   1.936   2.455  0.1546 -3.9688 -1.0841
   73SOL     OW  217   1.545   1.518   0.241 -0.1694 -0.1904  0.3463
   73SOL    HW1  218   1.572   1.534   0.339 -1.7826  2.3634 -0.0316
   73SOL    HW2  219   1.469   1.585   0.219 -2.6756 -0.4446 -0.2063
   74SOL     OW  220   2.203   2.596   2.794 -0.5254 -0.2119 -0.1524
   74SOL    HW1  221   2.237   2.692   2.784 -1.5236 -0.1048  2.8346
   74SOL    HW2  222   2.160   2.587   2.888 -0.1553 -2.6884 -0.3357
   75SOL     OW  223   1.964   2.159   1.050 -0.4480 -0.0593 -0.7157
   75SOL    HW1  224   1.951   2.061   1.079  0.3737 -1.6645 -0.5618
   75SOL    HW2  225   2.056   2.172   1.007 -1.3899  1.3085 -0.1966
   76SOL     OW  226   2.398   2.335   1.949 -0.0894  0.2706  0.1977
   76SOL    HW1  227   2.414   2.371   1.857 -0.1652 -1.7722 -0.3395
   76SOL    HW2  228   2.386   2.411   2.017 -0.9954 -0.6558  1.2029
   77SOL     OW  229   2.718   0.183   2.217 -0.0373 -0.1228  0.2940
   77SOL    HW1  230   2.686   0.142   2.129  0.4564 -2.8028  1.0503
   77SOL    HW2  231   2.727   0.116   2.292  2.0211  0.4192 -0.4725
   78SOL     OW  232   2.134   1.188   2.917 -0.0787  0.8019  0.3360
   78SOL    HW1  233   2.163   1.108   2.977 -0.9140 -5.8327  0.1091
   78SOL    HW2  234   2.129   1.147   2.821 -2.7830  0.7457 -0.6073
   79SOL     OW  235   2.847   1.509   2.549  0.0551  0.0986 -0.2895
   79SOL    HW1  236   2.867   1.438   2.478 -1.1082  1.7977  1.3426
   79SOL    HW2  237   2.879   1.600   2.528 -0.4383  0.7710  0.8420
   80SOL     OW  238   1.683   1.716   1.588 -0.0437 -0.5438 -0.0605
   80SOL    HW1  239   1.584   1.708   1.603 -1.2642 -1.0893 -2.1548
   80SOL    HW2  240   1.725   1.645   1.646 -1.8328  0.3355  0.1735
   81SOL     OW  241   1.958   0.614   1.896 -0.2843 -0.3114 -0.0386
   81SOL    HW1  242   2.044   0.650   1.936  1.1097 -1.3557 -1.5432
   81SOL    HW2  243   1.926   0.687   1.832  1.6772 -1.4418 -1.4910
   82SOL     OW  244   1.860   2.034   1.675  0.0936  0.0059  0.5414
   82SOL    HW1  245   1.879   2.019   1.578 -2.3185 -1.1229 -1.5168
   82SOL    HW2  246   1.930   2.089   1.728 -0.3545  0.2012  2.0121
   83SOL     OW  247   2.941   3.097   0.225 -0.5873  0.4625 -0.3450
   83SOL    HW1  248   2.960   0.060   0.301  0.3077 -0.5341 -0.9580
   83SOL    HW2  249   2.916   0.041   0.139 -0.1160 -3.8327  0.0826
   84SOL     OW  250   0.649   1.033   0.148  0.3206 -0.4477 -0.4673
   84SOL    HW1  251   0.620   0.968   0.076  0.4855  0.8957  4.4112
   84SOL    HW2  252   0.623   0.992   0.243  0.6741 -1.2299 -1.3642
   85SOL     OW  253   2.671   2.172   1.459  0.0662 -0.5469  0.1726
   85SOL    HW1  254   2.656   2.133   1.550 -2.2351  2.9803 -1.2931
   85SOL    HW2  255   2.658   2.106   1.385  2.8431  1.8232  1.5442
   86SOL     OW  256   0.547   2.595   1.422  0.7461 -0.1676 -0.3013
   86SOL    HW1  257   0.636   2.580   1.380 -0.4226  0.2831  2.4903
   86SOL    HW2  258   0.549   2.646   1.506  1.3304 -0.2991 -2.4641
   87SOL     OW  259   0.455   2.446   2.382 -0.4847 -0.2757  0.4069
   87SOL    HW1  260   0.511   2.385   2.321  1.3079  2.6181  0.1540
   87SOL    HW2  261   0.424   2.396   2.464 -0.0052 -2.5256  2.1566
   88SOL     OW  262   0.150   2.341   0.549  0.6492 -0.9375  0.5106
   88SOL    HW1  263   0.112   2.276   0.618 -1.3277  3.0407  1.6778
   88SOL    HW2  264   0.201   2.292   0.477 -2.5959 -0.5236  1.2570
   89SOL     OW  265   0.872   0.600   1.262  0.2783 -0.5198  0.3431
   89SOL    HW1  266   0.973   0.611   1.238  1.8913 -1.1845  1.0286
   89SOL    HW2  267   0.856   0.501   1.281  0.8082 -0.1939  1.2385
   90SOL     OW  268   0.204   1.147   1.663 -0.0717 -0.0723  0.7228
   90SOL    HW1  269   0.167   1.210   1.594  1.1831 -1.9693  0.6159
   90SOL    HW2  270   0.304   1.155   1.676 -0.4090 -0.7624 -1.0838
   91SOL     OW  271   1.130   0.836   0.867 -0.5223  0.4548  0.6162
   91SOL    HW1  272   1.209   0.874   0.912 -1.5489 -0.4893 -0.1003
   91SOL    HW2  273   1.139   0.733   0.850 -1.2644  0.4334 -0.2317
   92SOL     OW  274   2.007   1.215   0.880  0.3959 -0.0924 -0.2402
   92SOL    HW1  275   2.101   1.207   0.848 -0.2205  0.6276 -1.2392
   92SOL    HW2  276   1.938   1.195   0.802  0.5477  2.0816  3.8003
   93SOL     OW  277   2.446   0.893   2.437 -0.2581  0.0397  0.3241
   93SOL    HW1  278   2.497   0.829   2.373  2.1881 -0.1704  0.6281
   93SOL    HW2  279   2.374   0.849   2.490 -0.9909  0.6802 -0.7326
   94SOL     OW  280   2.290   1.936   2.440 -0.1757 -0.0503  0.3828
   94SOL    HW1  281   2.192   1.979   2.433 -1.5769 -0.0538  0.4258
   94SOL    HW2  282   2.304   1.886   2.529  1.6089 -0.3524  0.7545
   95SOL     OW  283   2.689   0.780   1.090  0.2491  1.0575 -0.2335
   95SOL    HW1  284   2.699   0.766   0.992 -1.8443  1.7568  0.8883
   95SOL    HW2  285   2.605   0.731   1.127 -3.8899  1.8169  1.5060
   96SOL     OW  286   2.572   2.860   1.550  0.6047 -0.1888 -0.5272
   96SOL    HW1  287   2.519   2.939   1.585 -0.8746 -0.0868  3.7765
   96SOL    HW2  288   2.607   2.809   1.629  0.3093  0.6100  0.8300
   97SOL     OW  289   2.503   1.234   1.290  0.9022  0.1468 -0.0534
   97SOL    HW1  290   2.559   1.292   1.232  0.2301  0.1454 -0.0485
   97SOL    HW2  291   2.523   1.251   1.389 -3.2513 -1.8426  0.2430
   98SOL     OW  292   1.504   2.160   1.856  0.0461 -0.2026 -0.1674
   98SOL    HW1  293   1.462   2.065   1.860 -0.3494 -1.6844 -1.6701
   98SOL    HW2  294   1.430   2.225   1.836  0.0860  1.5315 -3.1096
   99SOL     OW  295   0.613   2.318   1.542 -0.1572  0.6036  0.1386
   99SOL    HW1  296   0.683   2.254   1.513 -3.1857 -1.2320  0.2725
   99SOL    HW2  297   0.534   2.313   1.483  0.2807  0.6708 -0.2462
  100SOL     OW  298   1.319   0.397   0.030  0.7919 -0.6859 -0.3391
  100SOL    HW1  299   1.376   0.470   0.073  1.1567 -0.5821  0.7446
  100SOL    HW2  300   1.368   0.310   0.033  1.9846 -2.7889 -0.0311
  101SOL     OW  301   2.425   0.117   2.641  0.8453  0.2988  0.4168
  101SOL    HW1  302   2.429   0.063   2.554  0.0809  1.3980 -0.4699
  101SOL    HW2  303   2.420   0.219   2.628  2.6396 -0.4216 -0.0800
  102SOL     OW  304   0.352   0.692   1.493 -0.3645  0.5561  0.2960
  102SOL    HW1  305   0.364   0.626   1.415 -2.6060 -1.6553 -1.9375
  102SOL    HW2  306   0.422   0.766   1.478  1.5424  1.9961  0.5332
  103SOL     OW  307   0.247   0.698   2.655  0.3870  0.3817 -0.3080
  103SOL    HW1  308   0.184   0.778   2.665  1.8546 -0.0385  0.2370
  103SOL    HW2  309   0.232   0.620   2.723  2.1154 -1.0333  0.1461
  104SOL     OW  310   0.681   0.587   2.527 -0.2736 -0.1000  0.2001
  104SOL    HW1  311   0.629   0.571   2.441 -0.3482  0.6963 -0.2302
  104SOL    HW2  312   0.710   0.500   2.574  0.2750 -1.6774  1.9149
  105SOL     OW  313   2.045   2.169   1.807 -0.2929  0.4091  0.0590
  105SOL    HW1  314   2.126   2.116   1.849  1.4318  0.1855 -0.3357
  105SOL    HW2  315   2.075   2.234   1.736  1.3525  2.8420 -0.5450
  106SOL     OW  316   1.989   0.072   0.609  0.0095 -0.5821  0.0740
  106SOL    HW1  317   1.914   0.006   0.588  0.3654 -1.3295  0.5374
  106SOL    HW2  318   1.985   0.141   0.536 -0.4795 -0.4583  1.6502
  107SOL     OW  319   2.784   2.063   1.039  0.0100  0.1376 -0.1661
  107SOL    HW1  320   2.749   2.157   1.060  0.8467  2.8502 -0.8680
  107SOL    HW2  321   2.824   2.063   0.945 -1.3956  2.0427 -0.3547
  108SOL     OW  322   2.771   2.787   1.349 -0.4021  0.1918 -0.4278
  108SOL    HW1  323   2.705   2.838   1.404 -0.6415  1.1575 -0.2916
  108SOL    HW2  324   2.840   2.848   1.303  1.8308 -1.2633 -1.5734
  109SOL     OW  325   2.209   2.471   1.199 -0.7789 -0.1161  0.2805
  109SOL    HW1  326   2.114   2.495   1.233 -2.4263 -1.3485  0.4910
  109SOL    HW2  327   2.250   2.543   1.137 -2.2437 -1.3127 -0.0541
  110SOL     OW  328   0.799   1.570   2.354  0.2759  0.0964 -0.0597
  110SOL    HW1  329   0.742   1.547   2.436  1.4750  0.8748 -1.2869
  110SOL    HW2  330   0.845   1.660   2.373  2.5660 -0.2610  0.7324
  111SOL     OW  331   1.614   2.625   2.280 -0.3628 -0.0925 -0.2452
  111SOL    HW1  332   1.693   2.684   2.254  3.2519  0.2931 -2.0375
  111SOL    HW2  333   1.562   2.592   2.194 -0.2794  1.0026 -1.9251
  112SOL     OW  334   2.020   1.648   2.829 -0.5415 -0.6457  0.0873
  112SOL    HW1  335   2.089   1.589   2.782  2.6925  0.3548 -2.3281
  112SOL    HW2  336   1.964   1.703   2.764 -1.2060 -0.3136  2.4756
  113SOL     OW  337   1.510   2.023   1.554 -0.0365 -0.0549 -0.0257
  113SOL    HW1  338   1.453   1.964   1.606  0.5586 -0.6488 -2.4961
  113SOL    HW2  339   1.603   2.008   1.582 -0.4868 -0.8463 -0.0421
  114SOL     OW  340   2.966   0.955   0.788  0.4197 -0.3361  0.1098
  114SOL    HW1  341   2.956   0.871   0.729  1.0225  0.1400  0.4740
  114SOL    HW2  342   2.978   0.933   0.884  0.6772 -1.8739 -2.5040
  115SOL     OW  343   0.737   0.641   0.351 -0.0606  0.2419  0.4880
  115SOL    HW1  344   0.708   0.563   0.413 -0.6823  0.5173  1.4069
  115SOL    HW2  345   0.694   0.614   0.260 -2.8597  0.5118 -1.3125
  116SOL     OW  346   2.869   1.776   2.459  0.1828  0.0387 -0.0049
  116SOL    HW1  347   2.782   1.828   2.455  2.5092  3.0257 -0.9764
  116SOL    HW2  348   2.933   1.798   2.537 -0.1014  0.4123  1.6104
  117SOL     OW  349   2.857   2.906   0.637  0.6694  0.2500 -0.7386
  117SOL    HW1  350   2.911   2.854   0.567  0.9027  0.4302  0.7717
  117SOL    HW2  351   2.826   2.842   0.712  0.5838  1.0996  1.8600
  118SOL     OW  352   1.113   1.611   2.877 -0.0523 -0.1822  0.2014
  118SOL    HW1  353   1.065   1.618   2.796  0.6509  0.8647  1.2159
  118SOL    HW2  354   1.050   1.630   2.956 -0.7407 -1.4289 -0.9292
  119SOL     OW  355   0.207   1.969   3.079  0.0525 -0.0201 -0.1782
  119SOL    HW1  356   0.110   2.003   3.064 -2.2197  0.4560  1.6700
  119SOL    HW2  357   0.206   1.881   0.017 -0.8223 -1.8232  0.6646
  120SOL     OW  358   1.384   0.740   0.320 -0.1192 -0.1970 -0.4505
  120SOL    HW1  359   1.443   0.827   0.328  2.3572  1.0852 -4.0072
  120SOL    HW2  360   1.333   0.721   0.407  1.5168 -3.8367 -2.9472
  121SOL     OW  361   1.282   2.561   0.492 -0.1708 -0.1961 -0.0486
  121SOL    HW1  362   1.315   2.565   0.591 -2.3975 -5.2674  0.0340
  121SOL    HW2  363   1.351   2.512   0.434  1.5595  0.1930  1.2447
  122SOL     OW  364   2.440   2.436   1.653 -0.1805  0.3759 -0.3767
  122SOL    HW1  365   2.368   2.369   1.630 -0.8983 -3.2792  0.5770
  122SOL    HW2  366   2.513   2.445   1.588 -0.7645  2.3322  0.1293
  123SOL     OW  367   0.812   2.079   0.423  0.1689 -0.2010 -0.2162
  123SOL    HW1  368   0.785   2.031   0.336  2.2513  1.0079 -3.0093
  123SOL    HW2  369   0.763   2.170   0.430 -0.4820  1.0820 -1.0667
  124SOL     OW  370   2.995   0.711   0.193  0.4364 -0.3644  0.4049
  124SOL    HW1  371   3.092   0.686   0.191  0.2987  0.1345  1.0120
  124SOL    HW2  372   2.974   0.762   0.280 -0.0570  1.3580 -0.5999
  125SOL     OW  373   0.406   0.716   0.294  0.1168  0.0260 -0.1381
  125SOL    HW1  374   0.465   0.688   0.220 -2.5640 -1.1750  1.8323
  125SOL    HW2  375   0.434   0.809   0.326  0.1346 -0.0883 -3.3085
  126SOL     OW  376   3.082   1.869   0.739  0.5561  0.6476  0.6284
  126SOL    HW1  377   0.038   1.849   0.817 -1.5635  0.7023 -2.7641
  126SOL    HW2  378   0.014   1.856   0.641  1.5669 -1.8693 -1.9337
  127SOL     OW  379   1.390   1.909   1.853 -0.5495  0.4458 -0.2260
  127SOL    HW1  380   1.455   1.878   1.924  1.0124  1.3296 -2.0156
  127SOL    HW2  381   1.294   1.894   1.883  0.6413  1.1871 -1.3041
  128SOL     OW  382   1.056   1.234   0.337 -0.5869 -0.7521 -0.3020
  128SOL    HW1  383   1.021   1.249   0.244  3.8729  0.7374  0.1132
  128SOL    HW2  384   1.130   1.165   0.335 -0.0057  1.4201 -3.0043
  129SOL     OW  385   1.923   1.208   1.249  0.0060  0.2900  0.2133
  129SOL    HW1  386   1.895   1.270   1.175  1.7134 -0.0569  0.5018
  129SOL    HW2  387   1.864   1.219   1.328 -0.9131  1.4706 -3.1271
  130SOL     OW  388   2.287   1.653   1.660 -0.3725  0.1636  0.1880
  130SOL    HW1  389   2.268   1.740   1.613 -2.3379 -1.4627  0.2634
  130SOL    HW2  390   2.362   1.660   1.729 -1.7747  3.0381 -1.5073
  131SOL     OW  391   2.956   2.621   2.767 -0.1111 -0.0709  0.1471
  131SOL    HW1  392   2.875   2.678   2.788  0.1565 -4.2835 -1.3187
  131SOL    HW2  393   2.990   2.660   2.682 -0.1549  1.0413  1.8654
  132SOL     OW  394   2.926   1.540   0.458  0.2842 -0.8497 -0.6182
  132SOL    HW1  395   2.862   1.563   0.386  1.7906 -1.3118  3.8741
  132SOL    HW2  396   2.917   1.602   0.539  1.7358  0.6810 -0.2411
  133SOL     OW  397   0.494   0.074   1.843  0.7007  0.5715  0.2463
  133SOL    HW1  398   0.544   0.057   1.751  0.2438  0.9671 -2.4709
  133SOL    HW2  399   0.402   0.118   1.814 -0.2519 -0.5092 -0.1553
  134SOL     OW  400   0.403   1.791   2.731 -0.2362  0.4499  0.0287
  134SOL    HW1  401   0.420   1.825   2.637  2.1534  0.6960  0.6399
  134SOL    HW2  402   0.432   1.853   2.807  2.6477 -3.7933  0.7355
  135SOL     OW  403   1.523   0.536   1.961  0.3925  0.4773 -0.2254
  135SOL    HW1  404   1.558   0.629   1.962  0.8257 -1.7797  2.7763
  135SOL    HW2  405   1.537   0.487   2.051 -0.6387 -2.1164 -0.6840
  136SOL     OW  406   2.841   1.309   0.285  0.5682  0.2887 -0.1615
  136SOL    HW1  407   2.871   1.325   0.380 -0.7261 -0.8765 -0.8255
  136SOL    HW2  408   2.879   1.387   0.228 -2.0572 -1.0199 -0.0060
  137SOL     OW  409   0.124   1.871   0.988  0.7364  0.1731  0.1524
  137SOL    HW1  410   0.148   1.773   1.015 -1.0602 -1.5110  0.7990
  137SOL    HW2  411   0.192   1.908   0.922  1.4823 -2.0608 -2.5239
  138SOL     OW  412   2.354   0.845   1.414 -0.5045  0.1584 -0.7655
  138SOL    HW1  413   2.375   0.924   1.356 -2.4343  0.6411  0.7950
  138SOL    HW2  414   2.425   0.774   1.418  0.1175  1.0497 -3.0186
  139SOL     OW  415   1.373   2.669   0.164  0.3099  0.3034  0.0674
  139SOL    HW1  416   1.360   2.677   0.062 -1.9956 -2.4380  2.7605
  139SOL    HW2  417   1.324   2.588   0.201 -0.7705 -4.1123  0.5274
  140SOL     OW  418   1.197   1.648   1.269  0.5162  0.4682 -0.4581
  140SOL    HW1  419   1.177   1.548   1.250  2.4932 -1.1403  2.4119
  140SOL    HW2  420   1.255   1.682   1.196 -0.5169 -0.3728  2.5323
  141SOL     OW  421   1.318   2.149   0.301 -0.5332  0.1867  0.5891
  141SOL    HW1  422   1.220   2.164   0.299  1.8670 -0.7554 -1.2161
  141SOL    HW2  423   1.357   2.242   0.290 -1.2088  2.8140  0.2192
  142SOL     OW  424   0.998   0.219   0.717  0.6376  0.3286  0.3853
  142SOL    HW1  425   0.965   0.144   0.655  0.9685  1.2472 -1.7246
  142SOL    HW2  426   1.048   0.292   0.665  0.5842 -1.2262 -0.6232
  143SOL     OW  427   0.707   1.784   2.927  0.0112  0.4197  0.3099
  143SOL    HW1  428   0.800   1.821   2.956  2.6149  3.7254  0.8398
  143SOL    HW2  429   0.632   1.849   2.949  2.9040  1.7720  2.6064
  144SOL     OW  430   1.565   2.608   0.941 -0.0165  0.7568  0.3169
  144SOL    HW1  431   1.597   2.700   0.969  1.2587  0.6297  0.8599
  144SOL    HW2  432   1.631   2.563   0.879 -2.0687  3.1877  1.3282
  145SOL     OW  433   1.901   0.636   2.682  0.1902 -0.1221  0.1675
  145SOL    HW1  434   1.950   0.718   2.722  1.3949 -0.5082  1.2952
  145SOL    HW2  435   1.957   0.557   2.689 -3.3573  3.2859 -1.9135
  146SOL     OW  436   0.388   3.101   0.696  0.0527 -0.2532 -0.0049
  146SOL    HW1  437   0.290   3.078   0.703  1.9724  1.2571 -1.5494
  146SOL    HW2  438   0.432   3.060   0.614 -2.6838 -0.4131 -1.0504
  147SOL     OW  439   2.197   0.209   2.034 -0.7059  0.0339  0.0347
  147SOL    HW1  440   2.097   0.212   2.039 -2.5801  2.2752 -2.6097
  147SOL    HW2  441   2.239   0.299   2.058  0.4109 -0.0292  2.3857
  148SOL     OW  442   1.087   2.964   2.081  0.0810  0.1855 -0.0996
  148SOL    HW1  443   0.993   3.003   2.075  1.6805  0.3636  1.5015
  148SOL    HW2  444   1.148   3.003   2.151 -0.1227 -2.0275 -0.9619
  149SOL     OW  445   1.564   0.384   2.180 -0.6688  0.5497 -0.1773
  149SOL    HW1  446   1.558   0.298   2.125  0.2831 -0.1300  0.3840
  149SOL    HW2  447   1.496   0.397   2.253  1.6296  1.3516 -1.3204
  150SOL     OW  448   3.064   0.207   0.004 -0.2710 -0.2908  0.5464
  150SOL    HW1  449   2.974   0.209   0.049 -1.6762 -1.6839 -1.0431
  150SOL    HW2  450   3.071   0.265   3.027 -1.6561 -2.2766  0.5639
  151SOL     OW  451   0.665   1.503   0.331 -0.5461  0.2028  1.1699
  151SOL    HW1  452   0.695   1.485   0.234  0.7400 -2.5022  3.6078
  151SOL    HW2  453   0.740   1.552   0.378  2.9649  0.8614  0.1916
  152SOL     OW  454   2.875   0.437   0.513  0.5861  0.0480 -0.2682
  152SOL    HW1  455   2.832   0.462   0.424  1.1771  1.5544 -0.2798
  152SOL    HW2  456   2.952   0.502   0.522 -0.2932 -0.7868 -2.4881
  153SOL     OW  457   2.616   0.715   1.467  0.1267  0.6131 -0.0827
  153SOL    HW1  458   2.700   0.749   1.416 -0.2714 -1.8670 -0.1336
  153SOL    HW2  459   2.602   0.772   1.546  3.6530 -1.7297 -2.1078
  154SOL     OW  460   1.707   0.101   2.253 -0.2772 -0.1921 -0.1037
  154SOL    HW1  461   1.710   0.009   2.296  0.9471  2.2417  1.9421
  154SOL    HW2  462   1.622   0.114   2.199 -1.1507 -1.0576 -1.0289
  155SOL     OW  463   0.097   1.803   0.519 -0.1486  0.1264  0.0041
  155SOL    HW1  464   0.154   1.809   0.430  1.1678  0.7593 -2.9207
  155SOL    HW2  465   0.159   1.767   0.593  1.5397 -0.0435 -1.0529
  156SOL     OW  466   1.992   2.044   2.897 -0.5289 -0.5883  0.0718
  156SOL    HW1  467   2.022   2.054   2.801 -0.1102 -1.3432  1.4082
  156SOL    HW2  468   1.890   2.046   2.907 -1.1729  3.3576  1.5620
  157SOL     OW  469   1.090   0.462   0.616  0.2431 -0.7026  0.3427
  157SOL    HW1  470   1.007   0.514   0.645 -2.0486  2.3399  1.1043
  157SOL    HW2  471   1.101   0.454   0.519  0.9938 -0.3769  2.0643
  158SOL     OW  472   2.296   0.328   2.401 -0.0836 -0.7359  0.1850
  158SOL    HW1  473   2.334   0.234   2.394 -1.6347  0.2190  0.5398
  158SOL    HW2  474   2.340   0.386   2.330  0.3928  1.1722  0.6994
  159SOL     OW  475   2.985   0.177   0.425 -0.2221  0.0058 -0.0251
  159SOL    HW1  476   2.927   0.259   0.444  1.0292  0.2516  0.0236
  159SOL    HW2  477   3.079   0.191   0.463 -2.8702  0.3668 -0.7584
  160SOL     OW  478   1.585   1.971   2.282  0.1645 -0.1030 -0.3438
  160SOL    HW1  479   1.532   1.947   2.199  0.0503 -0.0660  1.8868
  160SOL    HW2  480   1.680   1.966   2.249 -1.8298  0.1717  2.2027
  161SOL     OW  481   2.828   0.812   2.722 -0.2094  0.1504  0.0369
  161SOL    HW1  482   2.849   0.782   2.817  1.6414 -1.8905  2.2693
  161SOL    HW2  483   2.870   0.754   2.650 -1.9643  2.5583  0.3776
  162SOL     OW  484   0.816   2.550   1.374 -0.1289  0.1393 -0.4834
  162SOL    HW1  485   0.858   2.466   1.334 -1.4338  3.1302 -1.3147
  162SOL    HW2  486   0.810   2.617   1.293 -2.7076 -0.5282 -0.0771
  163SOL     OW  487   2.425   0.387   2.624 -0.4694 -0.0103 -0.1948
  163SOL    HW1  488   2.394   0.466   2.682 -1.3189  0.3089  2.4099
  163SOL    HW2  489   2.367   0.375   2.539  3.0157 -1.7797 -1.1681
  164SOL     OW  490   2.063   1.785   3.099  0.2911  0.4044 -0.6010
  164SOL    HW1  491   2.076   1.740   3.011  1.1590  0.4204 -0.2194
  164SOL    HW2  492   2.142   1.847   0.012 -2.9435 -1.2101 -0.0720
  165SOL     OW  493   2.849   0.531   1.558 -0.3951 -0.1175  0.1006
  165SOL    HW1  494   2.797   0.619   1.537 -0.2302  2.8789 -3.6784
  165SOL    HW2  495   2.948   0.541   1.581  0.3250 -1.9506  0.2545
  166SOL     OW  496   2.470   0.970   2.947  0.0004  0.0686 -0.2788
  166SOL    HW1  497   2.503   0.886   2.896 -0.7923 -3.6140 -0.3252
  166SOL    HW2  498   2.461   1.054   2.885 -0.7035  1.3812 -0.6504
  167SOL     OW  499   2.821   0.701   3.092 -0.1935 -0.4449 -0.2624
  167SOL    HW1  500   2.880   0.699   0.068 -0.1874 -2.7497  1.1773
  167SOL    HW2  501   2.854   0.632   3.025 -0.6421 -0.8038  0.2357
  168SOL     OW  502   1.799   3.036   2.800  0.1174 -0.7405 -0.1957
  168SOL    HW1  503   1.841   3.000   2.882 -1.0546 -0.9205 -3.9720
  168SOL    HW2  504   1.751   0.015   2.830 -0.4570 -0.5977  0.4868
  169SOL     OW  505   2.973   1.351   0.722  0.4086  0.2662  0.0032
  169SOL    HW1  506   2.964   1.440   0.675  0.1752 -1.1377  1.3318
  169SOL    HW2  507   2.943   1.274   0.660  1.8256 -1.6446  1.4742
  170SOL     OW  508   2.827   0.757   1.306 -1.0128 -0.9193 -0.0220
  170SOL    HW1  509   2.921   0.727   1.280  0.0467  1.0076 -0.6273
  170SOL    HW2  510   2.768   0.767   1.220 -0.3657  0.3421 -2.0924
  171SOL     OW  511   1.911   2.215   2.241  0.7659  0.3079  0.1482
  171SOL    HW1  512   1.831   2.222   2.300  4.5575 -1.7728 -0.7131
  171SOL    HW2  513   1.991   2.266   2.272 -1.0081  0.3620  0.8279
  172SOL     OW  514   0.010   2.870   1.463  1.0066 -0.2271 -0.4540
  172SOL    HW1  515   0.043   2.863   1.562 -2.3908  1.0256  1.1378
  172SOL    HW2  516   0.002   2.968   1.434  0.5674 -0.3787  1.8234
  173SOL     OW  517   1.263   1.042   0.233 -0.1770  0.0660  0.1645
  173SOL    HW1  518   1.339   1.109   0.232 -2.9588  1.0269  0.5960
  173SOL    HW2  519   1.262   0.991   0.143 -0.2517 -0.8321 -0.0977
  174SOL     OW  520   1.411   3.053   2.697  0.5441  0.0032 -0.1692
  174SOL    HW1  521   1.404   3.030   2.797 -3.0687 -1.9436  1.2496
  174SOL    HW2  522   1.390   0.048   2.681 -1.5048  1.5521 -0.0443
  175SOL     OW  523   1.893   1.872   0.803  0.4433  0.7426 -0.7812
  175SOL    HW1  524   1.800   1.901   0.827 -0.7097 -0.8735  0.8728
  175SOL    HW2  525   1.903   1.771   0.831  0.3131  0.3655 -0.1930
  176SOL     OW  526   1.463   0.411   0.384 -0.3257 -0.4190  0.1563
  176SOL    HW1  527   1.497   0.484   0.323  0.7890  0.4440 -0.6637
  176SOL    HW2  528   1.366   0.392   0.364  2.6476  1.2840 -0.5976
  177SOL     OW  529   0.725   1.456   0.043 -0.3003 -0.2197  0.1899
  177SOL    HW1  530   0.631   1.484   0.017  0.1422 -2.7580 -2.8706
  177SOL    HW2  531   0.790   1.518   3.100  0.4099 -0.4204  1.4378
  178SOL     OW  532   2.672   2.249   2.731  0.2074 -0.3082 -0.0736
  178SOL    HW1  533   2.651   2.150   2.734  0.3936  1.0531 -0.7672
  178SOL    HW2  534   2.648   2.284   2.638 -0.9604 -1.1150  1.0400
  179SOL     OW  535   2.755   0.001   2.791 -0.1772 -0.4368 -0.2646
  179SOL    HW1  536   2.782   0.101   2.775  0.2913 -0.3126 -1.5822
  179SOL    HW2  537   2.668   0.001   2.843  2.5367  0.2262 -2.0833
  180SOL     OW  538   1.301   1.505   0.479 -0.2626  0.0049  0.5368
  180SOL    HW1  539   1.258   1.471   0.393  4.4836  1.0676  0.2372
  180SOL    HW2  540   1.278   1.600   0.503  1.1534 -1.6032  0.7796
  181SOL     OW  541   1.634   1.021   2.419  0.0101  0.5611  0.4869
  181SOL    HW1  542   1.703   0.966   2.369 -0.0921 -1.8120  0.0387
  181SOL    HW2  543   1.673   1.057   2.505 -1.6975  1.9279 -2.8575
  182SOL     OW  544   2.534   2.798   2.635  0.0840 -0.2188 -0.4125
  182SOL    HW1  545   2.592   2.752   2.710  0.6302 -1.6253 -2.0993
  182SOL    HW2  546   2.594   2.840   2.569 -0.7905  1.5267  1.5012
  183SOL     OW  547   2.092   0.727   2.402  0.0076 -0.4411  0.5353
  183SOL    HW1  548   2.008   0.789   2.401 -0.2609  0.6273 -0.8945
  183SOL    HW2  549   2.064   0.630   2.410  2.5317  3.9340 -0.1258
  184SOL     OW  550   0.092   1.359   1.519  0.4033 -0.4503  0.3392
  184SOL    HW1  551   0.014   1.397   1.469  0.2856 -1.4395 -0.6770
  184SOL    HW2  552   0.112   1.406   1.609  1.1802 -0.0990  0.8097
  185SOL     OW  553   1.785   0.434   0.682 -0.5123 -0.2777 -0.0787
  185SOL    HW1  554   1.846   0.379   0.739 -0.6518  0.7026 -1.4865
  185SOL    HW2  555   1.705   0.379   0.650 -1.1940  2.1803 -1.9412
  186SOL     OW  556   0.281   2.444   2.886  0.1997  0.1600  0.3617
  186SOL    HW1  557   0.183   2.483   2.876 -2.4106 -0.1493  0.2609
  186SOL    HW2  558   0.275   2.342   2.869  0.4264  1.6143 -0.5778
  187SOL     OW  559   2.736   1.063   0.229  0.2169  0.2926 -0.6186
  187SOL    HW1  560   2.783   1.152   0.240  0.4167 -1.7081  0.1243
  187SOL    HW2  561   2.726   1.032   0.134  0.1641 -0.7423  1.4241
  188SOL     OW  562   2.713   1.733   1.361 -0.2002  0.4160 -0.1645
  188SOL    HW1  563   2.733   1.635   1.399  0.8572 -0.9987  3.0319
  188SOL    HW2  564   2.804   1.785   1.371  0.7722  2.3493 -0.0401
  189SOL     OW  565   2.674   0.473   2.637  0.2487  1.2880 -0.2323
  189SOL    HW1  566   2.587   0.434   2.596 -1.9262  1.1254  0.3820
  189SOL    HW2  567   2.732   0.508   2.559  0.7208  0.6581  1.1834
  190SOL     OW  568   1.614   1.588   2.079 -0.7282  0.0745 -0.5821
  190SOL    HW1  569   1.576   1.527   2.008  0.0017 -1.4813  0.0581
  190SOL    HW2  570   1.564   1.587   2.170 -0.8841 -1.3590  0.2130
  191SOL     OW  571   0.511   0.412   2.075  0.2671  0.4795 -0.0057
  191SOL    HW1  572   0.427   0.364   2.037 -0.9949 -0.8114 -3.0608
  191SOL    HW2  573   0.570   0.442   2.002 -3.0636 -1.6321  1.2566
  192SOL     OW  574   1.937   1.637   1.152  0.1098  0.1483  0.1891
  192SOL    HW1  575   1.903   1.541   1.148 -0.2133  1.5685  0.2676
  192SOL    HW2  576   1.987   1.653   1.239  0.0635 -3.1867 -1.5015
  193SOL     OW  577   1.563   0.775   1.306 -0.0211 -0.6746 -0.9593
  193SOL    HW1  578   1.585   0.868   1.338  0.0963 -1.8008 -3.3728
  193SOL    HW2  579   1.533   0.774   1.206  0.0961 -0.9272 -3.2364
  194SOL     OW  580   0.642   1.921   1.316 -0.4181 -0.2755  0.0807
  194SOL    HW1  581   0.673   2.015   1.330  0.4749 -1.1421  1.0592
  194SOL    HW2  582   0.698   1.881   1.240  0.2179 -4.3422  0.3786
  195SOL     OW  583   1.716   0.287   0.259 -0.0476  0.4806  0.7264
  195SOL    HW1  584   1.692   0.297   0.360 -0.6306 -2.4210 -0.7260
  195SOL    HW2  585   1.811   0.322   0.245  0.5765  0.6276 -2.7425
  196SOL     OW  586   0.288   1.242   1.373 -0.2277  0.2302  0.1015
  196SOL    HW1  587   0.197   1.258   1.416  0.7602 -0.2242  1.8067
  196SOL    HW2  588   0.354   1.193   1.438  0.2102 -1.0868  0.7783
  197SOL     OW  589   1.130   3.080   1.610 -0.4576 -0.1065  0.8860
  197SOL    HW1  590   1.193   3.086   1.532 -0.8088  1.2450  0.4710
  197SOL    HW2  591   1.156   3.001   1.669 -1.1974  0.4504 -3.8341
  198SOL     OW  592   0.623   1.013   1.102 -0.3321 -0.2225 -0.1812
  198SOL    HW1  593   0.676   1.101   1.108 -1.7633  0.0252  1.1993
  198SOL    HW2  594   0.630   0.961   1.015  1.3180  2.3445 -3.6598
  199SOL     OW  595   0.298   2.429   1.636  0.1620 -0.0677 -0.2710
  199SOL    HW1  596   0.336   2.343   1.673 -1.9490 -0.6668 -3.5019
  199SOL    HW2  597   0.381   2.483   1.617 -1.4208  1.4085 -0.1623
  200SOL     OW  598   1.791   1.905   1.918  0.4442 -0.1094  0.1746
  200SOL    HW1  599   1.838   1.813   1.910  2.6234 -0.8302  0.3263
  200SOL    HW2  600   1.786   1.960   1.832 -0.2204 -0.4665  1.4998
  201SOL     OW  601   0.389   1.757   2.172 -0.1500  0.2327  0.7325
  201SOL    HW1  602   0.292   1.731   2.138 -0.5362  0.6926  0.1109
  201SOL    HW2  603   0.447   1.668   2.183  2.7799 -1.6320  0.1164
  202SOL     OW  604   1.881   0.782   3.082 -0.0540 -0.1299 -0.1070
  202SOL    HW1  605   1.785   0.749   3.086 -1.4965 -2.6403  0.6839
  202SOL    HW2  606   1.950   0.707   3.076 -1.7420  1.9608  1.0126
  203SOL     OW  607   1.282   2.589   1.845 -0.0541 -0.5200 -0.0689
  203SOL    HW1  608   1.281   2.671   1.904 -0.9082 -0.0547  1.1508
  203SOL    HW2  609   1.207   2.604   1.780  1.9450  1.7905  1.5278
  204SOL     OW  610   0.592   1.886   1.808  0.1175 -0.5044 -0.1605
  204SOL    HW1  611   0.674   1.889   1.750  0.6614 -1.7551  0.1890
  204SOL    HW2  612   0.510   1.900   1.743 -3.3647 -0.5884 -0.0464
  205SOL     OW  613   1.561   1.832   2.034 -0.1645  0.5769 -0.4062
  205SOL    HW1  614   1.645   1.872   1.994  0.5944 -0.3328  3.6371
  205SOL    HW2  615   1.577   1.734   2.058  0.4371 -0.4165  2.2633
  206SOL     OW  616   0.020   1.237   2.324  0.8179  0.5183 -0.1106
  206SOL    HW1  617   0.054   1.151   2.279 -1.7428  0.4063 -0.1156
  206SOL    HW2  618   0.083   1.317   2.306 -0.2567  1.8502  2.1516
  207SOL     OW  619   0.760   2.790   2.035  0.5841  0.4506 -0.1526
  207SOL    HW1  620   0.798   2.882   2.045  2.1946 -0.9663 -2.6632
  207SOL    HW2  621   0.680   2.779   2.094 -0.0224  0.0327  1.5532
  208SOL     OW  622   0.558   2.525   2.044 -0.4757 -0.6693 -0.1636
  208SOL    HW1  623   0.638   2.506   1.981 -0.1100  1.6625  2.3024
  208SOL    HW2  624   0.558   2.456   2.123 -3.1150  0.3226  0.6465
  209SOL     OW  625   1.474   0.094   0.357 -0.1133 -0.4168 -0.1830
  209SOL    HW1  626   1.537   0.025   0.401  1.3000 -0.6178 -1.5657
  209SOL    HW2  627   1.516   0.185   0.326  3.6006 -0.4878 -1.6885
  210SOL     OW  628   2.678   0.778   0.804 -0.3626 -0.3340 -0.1614
  210SOL    HW1  629   2.756   0.740   0.748 -3.4036 -2.2578  2.3496
  210SOL    HW2  630   2.591   0.736   0.772  0.2116  0.3897  0.5017
  211SOL     OW  631   0.523   0.388   1.556 -0.0096  0.5569  0.2574
  211SOL    HW1  632   0.465   0.445   1.614  0.2583 -0.5356 -0.0051
  211SOL    HW2  633   0.615   0.373   1.599  0.5364  1.6352  0.8308
  212SOL     OW  634   1.645   1.688   1.316  0.2798 -0.2771  0.2993
  212SOL    HW1  635   1.679   1.699   1.415  0.5968  2.8385  1.1584
  212SOL    HW2  636   1.584   1.763   1.283  1.2333 -1.4621  0.2899
  213SOL     OW  637   2.873   0.680   1.821 -0.0195 -0.1690 -0.0096
  213SOL    HW1  638   2.901   0.597   1.767 -3.0317 -0.8338  4.0171
  213SOL    HW2  639   2.850   0.643   1.912  1.1634  3.5694 -2.9033
  214SOL     OW  640   0.636   2.311   2.241 -0.2529 -0.1921  1.1308
  214SOL    HW1  641   0.713   2.281   2.182 -1.4883 -1.7425 -0.1903
  214SOL    HW2  642   0.670   2.303   2.334 -0.4511  1.1325 -2.8418
  215SOL     OW  643   2.659   1.770   1.619 -0.0929 -0.4406 -0.1979
  215SOL    HW1  644   2.759   1.777   1.635 -0.8514  0.6810  1.0003
  215SOL    HW2  645   2.641   1.756   1.517 -0.5716  1.5226 -0.6740
  216SOL     OW  646   0.601   0.734   1.873  0.5034 -0.7260  0.5585
  216SOL    HW1  647   0.554   0.759   1.782 -2.1997 -0.9684 -1.9125
  216SOL    HW2  648   0.536   0.723   1.949 -0.9187  0.1960  1.0068
  217SOL     OW  649   2.591   0.429   0.810  0.5570 -0.5851 -0.1788
  217SOL    HW1  650   2.689   0.454   0.835 -0.4902  0.6575  1.3554
  217SOL    HW2  651   2.540   0.512   0.780 -0.0002 -2.2458  0.2073
  218SOL     OW  652   1.511   1.883   1.186 -0.1358 -0.7498 -0.3539
  218SOL    HW1  653   1.416   1.921   1.174 -2.4129 -2.0173 -0.9930
  218SOL    HW2  654   1.579   1.963   1.182 -0.0721  4.2438  1.4398
  219SOL     OW  655   1.836   2.929   0.578 -0.7090 -0.2174 -0.1182
  219SOL    HW1  656   1.834   2.909   0.678 -2.8300 -0.7518  3.3944
  219SOL    HW2  657   1.844   2.844   0.525 -2.3735 -0.9688 -3.0258
  220SOL     OW  658   1.734   2.381   0.350 -0.0375  0.3937 -0.6511
  220SOL    HW1  659   1.817   2.366   0.407 -0.4090  0.1738 -0.9753
  220SOL    HW2  660   1.756   2.432   0.264 -0.7694  0.4896 -0.3631
  221SOL     OW  661   2.696   1.610   0.327  0.3411 -0.0267 -0.1348
  221SOL    HW1  662   2.632   1.682   0.291 -0.9444 -0.1384  1.3132
  221SOL    HW2  663   2.722   1.543   0.254  2.0528 -0.7019 -2.2132
  222SOL     OW  664   0.596   2.185   0.963 -0.8775  0.1462  0.2161
  222SOL    HW1  665   0.564   2.225   0.876  1.3260 -0.6590 -3.1186
  222SOL    HW2  666   0.700   2.183   0.972  1.7982  0.4686 -0.7587
  223SOL     OW  667   1.238   0.144   0.464  0.6299 -0.3093  0.3215
  223SOL    HW1  668   1.179   0.177   0.391  0.3482 -0.9652  0.0368
  223SOL    HW2  669   1.335   0.134   0.435 -1.4602  2.2607  0.5105
  224SOL     OW  670   2.889   1.130   0.609 -0.0916 -0.3703 -0.5812
  224SOL    HW1  671   2.790   1.145   0.620  0.5868  1.9863 -0.6020
  224SOL    HW2  672   2.927   1.067   0.680 -0.5469 -0.6806 -0.8008
  225SOL     OW  673   0.036   1.596   1.320 -0.9285 -0.3959  0.0292
  225SOL    HW1  674   3.073   1.626   1.385  0.5167 -3.2987 -2.4399
  225SOL    HW2  675   0.132   1.592   1.363  0.8563  2.9230  1.1623
  226SOL     OW  676   0.445   3.050   0.942  0.1880 -0.1178  0.1916
  226SOL    HW1  677   0.424   3.072   0.843  1.2361 -1.1661 -0.0483
  226SOL    HW2  678   0.492   0.018   0.992  0.2827  0.4337  1.6418
  227SOL     OW  679   1.259   1.372   1.767  0.3107  0.3193 -0.5151
  227SOL    HW1  680   1.242   1.443   1.696 -4.2043  1.3475  1.0418
  227SOL    HW2  681   1.190   1.390   1.843 -0.3736 -1.2844 -1.0140
  228SOL     OW  682   0.791   0.062   1.819  0.4057 -0.6575  0.5079
  228SOL    HW1  683   0.691   0.082   1.820 -3.4941  1.1759 -1.9308
  228SOL    HW2  684   0.838   0.127   1.757 -0.5810 -0.0396 -0.5757
  229SOL     OW  685   3.002   0.750   2.463  0.3885 -0.2704 -0.3725
  229SOL    HW1  686   3.064   0.802   2.530  2.9867  2.0725  1.2718
  229SOL    HW2  687   3.053   0.739   2.376 -1.1706  1.1299  0.9577
  230SOL     OW  688   0.280   0.808   1.015  0.3948 -0.8078  0.5625
  230SOL    HW1  689   0.228   0.846   0.932  0.9646  0.5188 -0.2668
  230SOL    HW2  690   0.299   0.888   1.077 -1.2889 -1.4876  1.0845
  231SOL     OW  691   1.224   2.933   1.814  0.3925 -0.2066  0.0504
  231SOL    HW1  692   1.228   3.010   1.879  0.6399  4.2793 -3.0494
  231SOL    HW2  693   1.314   2.888   1.800 -1.0717  0.9653  0.6036
  232SOL     OW  694   2.927   1.990   0.160  0.1154 -0.2093 -0.2178
  232SOL    HW1  695   2.927   1.950   0.253 -0.1616  1.6659 -1.1280
  232SOL    HW2  696   2.834   2.015   0.130  1.0093 -0.8941 -0.1942
  233SOL     OW  697   1.270   2.559   2.865 -0.2248 -0.0556 -0.1045
  233SOL    HW1  698   1.288   2.528   2.771 -0.8832 -1.6498  2.1770
  233SOL    HW2  699   1.352   2.607   2.902  1.1016 -0.1686  0.3307
  234SOL     OW  700   0.470   1.245   1.749 -0.2652  0.2414 -0.0417
  234SOL    HW1  701   0.519   1.207   1.669 -1.9986  0.6688  1.0689
  234SOL    HW2  702   0.508   1.197   1.832  0.5566 -1.0071 -0.2074
  235SOL     OW  703   0.049   2.373   2.470 -0.3686 -0.2403  0.2304
  235SOL    HW1  704   0.116   2.293   2.462 -1.7751 -1.4935  0.8931
  235SOL    HW2  705   3.071   2.340   2.510  2.6138  2.4351 -0.8251
  236SOL     OW  706   1.684   2.008   2.695 -0.6245 -0.0907 -0.0349
  236SOL    HW1  707   1.756   1.939   2.670  1.3070  0.4414 -0.1277
  236SOL    HW2  708   1.705   2.096   2.641 -1.1997 -0.0691 -0.1175
  237SOL     OW  709   1.525   0.783   1.038  0.0249  0.7758 -0.4547
  237SOL    HW1  710   1.546   0.718   0.960 -0.5562 -1.5227 -1.4627
  237SOL    HW2  711   1.446   0.843   1.019  0.5616  1.4651 -0.5364
  238SOL     OW  712   1.144   2.692   2.055  0.1209 -0.6294 -0.0735
  238SOL    HW1  713   1.140   2.796   2.058  2.0631 -0.2946 -0.2524
  238SOL    HW2  714   1.055   2.656   2.026 -0.4714  0.5024 -0.3033
  239SOL     OW  715   0.831   2.544   1.972  0.2545 -0.1752  0.3860
  239SOL    HW1  716   0.846   2.538   1.870  0.1498 -2.3906 -0.7377
  239SOL    HW2  717   0.812   2.637   2.008  0.5536  4.1680  2.2082
  240SOL     OW  718   2.258   0.073   0.677  0.3356 -0.2212  0.1698
  240SOL    HW1  719   2.159   0.070   0.649  0.8155 -2.2028  1.1554
  240SOL    HW2  720   2.291   0.166   0.702  1.2234 -0.6586  0.0728
  241SOL     OW  721   1.204   1.349   2.829  0.1301  0.0833  0.1359
  241SOL    HW1  722   1.153   1.433   2.863 -0.3214 -0.3136 -1.6526
  241SOL    HW2  723   1.305   1.359   2.815 -2.0346  0.5504 -3.7633
  242SOL     OW  724   2.576   0.711   2.914  0.3081 -0.6262 -0.5802
  242SOL    HW1  725   2.632   0.690   2.995 -2.7301 -0.8390  0.5184
  242SOL    HW2  726   2.621   0.706   2.818  0.4166  1.1596 -2.0543
  243SOL     OW  727   0.791   0.346   1.647  0.5628  0.0040 -0.1865
  243SOL    HW1  728   0.802   0.446   1.631  0.6421  1.4195 -1.1708
  243SOL    HW2  729   0.885   0.303   1.627 -0.8850  1.8974 -0.2437
  244SOL     OW  730   1.426   2.982   2.949 -0.0928 -0.1371  0.0459
  244SOL    HW1  731   1.347   2.969   3.007  0.1227 -0.0261 -3.1030
  244SOL    HW2  732   1.489   3.045   2.996  0.4344 -1.0428  3.6731
  245SOL     OW  733   1.739   2.696   2.998 -0.0514 -0.1149 -0.6386
  245SOL    HW1  734   1.765   2.614   3.059 -1.7061 -1.9997 -0.3571
  245SOL    HW2  735   1.815   2.768   2.995 -0.3067  1.2847 -1.6191
  246SOL     OW  736   0.783   0.918   1.636 -0.3748 -0.1288 -0.2288
  246SOL    HW1  737   0.777   1.021   1.646  2.7642 -0.3851 -0.6757
  246SOL    HW2  738   0.830   0.876   1.715 -0.1004  1.2043 -0.9285
  247SOL     OW  739   0.237   0.383   1.986 -0.5901  0.0316 -0.8833
  247SOL    HW1  740   0.163   0.355   2.055 -2.4762 -0.5668  0.3690
  247SOL    HW2  741   0.233   0.481   1.967  4.4506 -2.5130 -1.3302
  248SOL     OW  742   3.071   1.418   1.922 -0.3776 -0.2591  0.1176
  248SOL    HW1  743   2.977   1.442   1.896  0.7265 -3.1082  1.7563
  248SOL    HW2  744   3.076   1.438   2.022 -0.4738 -2.8993 -3.7662
  249SOL     OW  745   0.150   0.353   0.157 -0.0033  0.1056  0.2616
  249SOL    HW1  746   0.223   0.307   0.208 -0.6638  1.1502 -0.8484
  249SOL    HW2  747   0.073   0.287   0.141 -2.5882  0.7020 -0.6894
  250SOL     OW  748   2.815   0.234   0.095  0.1441 -0.0749 -0.0290
  250SOL    HW1  749   2.831   0.312   0.164  1.5945 -0.2298  2.5810
  250SOL    HW2  750   2.714   0.209   0.090 -0.6731 -0.1629  1.3850
  251SOL     OW  751   0.999   1.777   1.795  0.1013  0.0737  0.2217
  251SOL    HW1  752   0.947   1.857   1.755 -2.2420  0.6732 -0.6949
  251SOL    HW2  753   1.072   1.808   1.860 -0.9812  2.7490 -0.7066
  252SOL     OW  754   1.928   1.906   1.136  0.3469 -0.5772 -0.0343
  252SOL    HW1  755   1.921   1.804   1.129  0.7955 -1.2535  0.8448
  252SOL    HW2  756   1.935   1.941   1.229  3.0350 -0.8620  0.1327
  253SOL     OW  757   1.639   2.357   2.327 -0.2559 -0.4596 -0.8638
  253SOL    HW1  758   1.640   2.461   2.314 -0.0057 -0.3003 -1.6859
  253SOL    HW2  759   1.575   2.316   2.263  2.6260  1.0699  3.2309
  254SOL     OW  760   0.848   2.201   2.124 -0.6050  0.2967  0.0822
  254SOL    HW1  761   0.824   2.154   2.039 -0.3559  0.6469  2.3173
  254SOL    HW2  762   0.907   2.285   2.109 -1.0741  0.3734 -0.5569
  255SOL     OW  763   1.005   0.213   1.189 -0.2478  0.0500 -0.2142
  255SOL    HW1  764   1.029   0.250   1.101 -0.5387 -0.1618  4.2715
  255SOL    HW2  765   0.999   0.113   1.187  0.2015  2.4598  0.2870
  256SOL     OW  766   2.266   2.261   1.587 -0.3318  0.2297 -0.2235
  256SOL    HW1  767   2.244   2.281   1.489  0.5167  0.3814  1.6180
  256SOL    HW2  768   2.280   2.163   1.607  1.6342 -1.2093 -0.9598
  257SOL     OW  769   0.625   2.277   2.744  0.3697 -0.7531 -0.3479
  257SOL    HW1  770   0.597   2.367   2.789 -1.9706  2.5410  2.8604
  257SOL    HW2  771   0.682   2.222   2.808  0.8771  2.6860  0.2804
  258SOL     OW  772   0.580   0.956   2.185 -0.5877  0.4058 -0.2292
  258SOL    HW1  773   0.596   0.932   2.286  0.6752 -2.8874  1.6824
  258SOL    HW2  774   0.520   0.892   2.139 -2.3029  0.1709  0.9762
  259SOL     OW  775   0.694   1.405   2.035 -0.0261 -0.2443  0.2448
  259SOL    HW1  776   0.660   1.469   1.965  0.9158  0.9846  3.2203
  259SOL    HW2  777   0.780   1.433   2.086  3.1756 -2.1882 -0.8333
  260SOL     OW  778   1.976   0.973   0.990  0.1626  0.0303  0.1107
  260SOL    HW1  779   2.037   0.903   0.952  1.6487 -1.4812  0.2104
  260SOL    HW2  780   2.009   1.067   0.971  0.1970  1.6244 -1.1262
  261SOL     OW  781   0.888   2.995   0.951  0.0685 -0.4601  0.7218
  261SOL    HW1  782   0.845   3.080   0.919 -1.0202 -0.0454 -1.8695
  261SOL    HW2  783   0.964   2.972   0.887  4.1115 -0.0169 -2.6495
  262SOL     OW  784   2.117   2.734   2.376 -0.2232  0.2241  0.6270
  262SOL    HW1  785   2.083   2.690   2.460  0.9249  1.1101 -2.8128
  262SOL    HW2  786   2.210   2.693   2.362  0.2231 -1.4298 -0.7313
  263SOL     OW  787   0.332   1.545   2.825 -0.2263  0.2217  0.2699
  263SOL    HW1  788   0.362   1.618   2.763  1.7243  0.4239  1.1588
  263SOL    HW2  789   0.394   1.465   2.822  1.8479  0.6454 -0.5045
  264SOL     OW  790   0.349   1.878   1.395  0.1901  0.5117 -1.0426
  264SOL    HW1  791   0.438   1.873   1.347  0.8686 -2.6152 -2.1094
  264SOL    HW2  792   0.294   1.961   1.362  1.4356 -0.3520  0.7728
  265SOL     OW  793   0.755   0.921   0.590  0.0514 -0.1746  0.1397
  265SOL    HW1  794   0.713   0.857   0.656  0.3002 -0.6250 -1.0118
  265SOL    HW2  795   0.829   0.982   0.625 -0.1725 -1.9037  1.1262
  266SOL     OW  796   1.328   1.897   3.077 -0.2874 -0.0379  0.0513
  266SOL    HW1  797   1.399   1.961   0.008  2.4808  0.9258  1.2918
  266SOL    HW2  798   1.362   1.858   2.988  1.0022 -2.4525  0.9440
  267SOL     OW  799   0.542   0.731   2.704 -0.0095  0.3622 -0.1211
  267SOL    HW1  800   0.516   0.662   2.771 -0.2918  3.1836  0.4553
  267SOL    HW2  801   0.609   0.694   2.633 -0.3795  0.4856 -0.4250
  268SOL     OW  802   1.029   0.467   0.029 -0.3217  0.0553  0.6111
  268SOL    HW1  803   1.011   0.568   0.014  0.4317  2.0287  1.5401
  268SOL    HW2  804   1.129   0.447   0.031 -0.8353  1.8745  0.6505
  269SOL     OW  805   1.969   3.095   2.581 -0.0732 -0.1448  0.0406
  269SOL    HW1  806   1.934   0.069   2.525  1.7770 -0.2693 -0.3823
  269SOL    HW2  807   1.910   3.069   2.658  2.8454 -0.9562 -1.5033
  270SOL     OW  808   0.996   0.757   2.832 -0.3166 -0.8440  0.1835
  270SOL    HW1  809   1.091   0.727   2.863  0.7693 -1.2822  1.2985
  270SOL    HW2  810   0.956   0.815   2.907 -1.0285 -0.3843  3.4489
  271SOL     OW  811   0.155   0.600   0.251 -0.7058  0.4690 -0.4317
  271SOL    HW1  812   0.246   0.631   0.288  1.3390  0.3678  0.9847
  271SOL    HW2  813   0.156   0.499   0.221 -0.2282  0.0599 -3.1683
  272SOL     OW  814   2.353   1.312   2.503 -0.3926 -0.0117  0.5893
  272SOL    HW1  815   2.261   1.289   2.465 -0.0041 -0.9527 -0.0736
  272SOL    HW2  816   2.415   1.232   2.515 -1.2813  0.3473 -1.0873
  273SOL     OW  817   0.084   0.221   2.253 -0.5537 -0.8529  0.2667
  273SOL    HW1  818   0.182   0.226   2.231 -1.5114 -1.1870  0.9273
  273SOL    HW2  819   0.074   0.161   2.334 -1.6117  3.3427 -0.4091
  274SOL     OW  820   3.088   0.180   2.018 -0.2845 -0.4112  0.5443
  274SOL    HW1  821   0.010   0.196   2.116  1.3908  1.3117  0.1983
  274SOL    HW2  822   3.017   0.109   1.993 -1.8820  0.7217 -0.2162
  275SOL     OW  823   1.872   1.213   0.309  0.4133  0.5175  0.4338
  275SOL    HW1  824   1.921   1.130   0.339 -0.1137  1.7428  1.1036
  275SOL    HW2  825   1.870   1.224   0.210 -0.2392  0.8449  1.0337
  276SOL     OW  826   0.429   0.912   2.873 -0.0762 -0.1353  0.4383
  276SOL    HW1  827   0.476   0.837   2.818  1.2741  0.0612 -2.8001
  276SOL    HW2  828   0.332   0.890   2.883  0.2583 -0.9737 -2.1070
  277SOL     OW  829   1.715   2.929   2.353  0.6197 -0.1699  0.4645
  277SOL    HW1  830   1.776   2.854   2.322 -0.7333 -0.4232  1.2662
  277SOL    HW2  831   1.701   2.926   2.454  0.1527  3.0323  0.3377
  278SOL     OW  832   1.964   0.116   1.547 -0.8759 -0.7756 -0.4668
  278SOL    HW1  833   1.953   0.176   1.629  0.2138 -1.1381  0.3709
  278SOL    HW2  834   1.917   0.029   1.563  0.5907 -1.4344  0.7058
  279SOL     OW  835   1.396   1.122   3.017  0.4274  0.2555 -0.2588
  279SOL    HW1  836   1.408   1.159   2.924 -1.0777  0.5490 -0.7483
  279SOL    HW2  837   1.488   1.111   3.059 -1.7907 -0.3679 -0.6791
  280SOL     OW  838   0.908   1.240   0.101  1.0201 -0.1237  0.0681
  280SOL    HW1  839   0.866   1.334   0.076 -1.9998 -0.2420 -0.7889
  280SOL    HW2  840   0.830   1.187   0.144 -0.3896 -0.0342 -1.7803
  281SOL     OW  841   0.143   2.976   1.697  0.2270  0.0437 -0.1394
  281SOL    HW1  842   0.175   2.984   1.790 -0.6157 -1.0259 -0.2684
  281SOL    HW2  843   0.056   3.021   1.675 -1.9041  1.4745  0.6376
  282SOL     OW  844   0.034   2.477   0.870  0.1438  0.6596 -0.0131
  282SOL    HW1  845   0.038   2.575   0.853 -1.4201 -1.6025 -2.0032
  282SOL    HW2  846   0.126   2.431   0.878 -1.4641 -3.5831 -2.8993
  283SOL     OW  847   1.085   2.192   1.907  0.2810 -0.3818 -0.0063
  283SOL    HW1  848   1.067   2.259   1.980  0.4259 -1.1114 -1.5339
  283SOL    HW2  849   1.160   2.223   1.847  1.3965 -1.0903 -0.4373
  284SOL     OW  850   2.323   0.669   0.490 -0.5237 -0.4295  0.1598
  284SOL    HW1  851   2.245   0.614   0.524  2.2650  3.4572 -1.7980
  284SOL    HW2  852   2.303   0.714   0.399  2.9405  1.1662 -0.4998
  285SOL     OW  853   2.978   2.850   2.456 -0.3519  0.5263  0.2525
  285SOL    HW1  854   3.038   2.763   2.436  0.9981  1.7541  0.4623
  285SOL    HW2  855   3.018   2.900   2.541  0.0047  1.5835 -3.3237
  286SOL     OW  856   1.999   2.518   1.376  0.2823 -0.1301  0.0691
  286SOL    HW1  857   2.090   2.554   1.411 -0.0515  0.7910  0.3969
  286SOL    HW2  858   1.964   2.437   1.431 -0.1208  0.9875  0.8968
  287SOL     OW  859   0.679   1.418   0.919 -0.5321  0.3873  0.2394
  287SOL    HW1  860   0.675   1.417   0.815  0.6134  1.0330 -3.4946
  287SOL    HW2  861   0.598   1.468   0.960  0.1383 -0.3117  0.0999
  288SOL     OW  862   1.798   2.498   0.107 -0.5476 -0.1525  0.4423
  288SOL    HW1  863   1.888   2.515   0.150  1.5164  0.3158 -2.0038
  288SOL    HW2  864   1.794   2.405   0.070  1.5718  0.5402 -1.4436
  289SOL     OW  865   0.668   2.020   2.582 -0.4983  0.2032 -0.3150
  289SOL    HW1  866   0.680   2.014   2.480  2.8664  1.3973 -0.2239
  289SOL    HW2  867   0.688   2.114   2.623 -0.5032 -0.2623 -1.5023
  290SOL     OW  868   1.273   2.004   1.134  0.1345  0.2373  0.3159
  290SOL    HW1  869   1.313   2.076   1.067  1.3249  1.0920 -4.3151
  290SOL    HW2  870   1.199   1.945   1.085 -1.1212 -0.8945 -0.9208
  291SOL     OW  871   1.580   1.695   2.956 -0.4512 -0.2763  0.2840
  291SOL    HW1  872   1.653   1.622   2.957 -1.4577  1.6035  1.9033
  291SOL    HW2  873   1.493   1.649   2.980 -0.4114 -0.1231 -0.6177
  292SOL     OW  874   1.400   1.526   1.053  0.4319  0.1471 -0.5949
  292SOL    HW1  875   1.474   1.578   1.008 -0.5051 -0.3859 -0.5378
  292SOL    HW2  876   1.434   1.494   1.143  0.0258 -0.4100 -0.6423
  293SOL     OW  877   1.929   2.822   0.827  0.7493  0.5631  0.0207
  293SOL    HW1  878   2.019   2.832   0.869 -2.1038 -0.7777 -1.2055
  293SOL    HW2  879   1.907   2.724   0.810  1.1367  0.5721 -0.7184
  294SOL     OW  880   3.069   1.299   2.590 -0.0178 -0.3236  0.2310
  294SOL    HW1  881   2.992   1.269   2.645  2.8924 -1.7277  0.5337
  294SOL    HW2  882   3.070   1.254   2.498  0.7700 -1.9049 -0.4892
  295SOL     OW  883   1.362   2.204   2.713 -0.2778 -0.0325  0.4224
  295SOL    HW1  884   1.368   2.302   2.680  0.7385  1.8071 -1.0270
  295SOL    HW2  885   1.417   2.194   2.801  0.7533 -1.8545  2.6749
  296SOL     OW  886   1.993   1.216   2.155 -0.4727  0.0203  0.4932
  296SOL    HW1  887   2.002   1.156   2.075 -0.4017 -1.6486 -0.7391
  296SOL    HW2  888   1.899   1.230   2.184  0.7966 -0.8316 -2.2194
  297SOL     OW  889   0.078   0.698   2.276  0.0379 -0.2952  0.1310
  297SOL    HW1  890   0.152   0.634   2.297 -1.1846  2.2841 -1.5361
  297SOL    HW2  891   0.056   0.690   2.174  0.4680 -1.4450  1.5444
  298SOL     OW  892   1.030   2.404   2.076 -0.6553  0.1608 -0.7884
  298SOL    HW1  893   0.957   2.466   2.041  1.5785  0.7308 -2.4140
  298SOL    HW2  894   1.122   2.442   2.052  3.3141  0.0122 -1.3329
  299SOL     OW  895   0.812   2.888   2.883  0.6674 -0.0433 -0.1761
  299SOL    HW1  896   0.772   2.806   2.836  0.4344 -0.7502  2.0941
  299SOL    HW2  897   0.751   2.926   2.958  1.9072 -0.1073 -1.3277
  300SOL     OW  898   0.059   0.631   2.892  0.4131  0.1543  0.0480
  300SOL    HW1  899   3.104   0.713   2.912  0.0485 -0.6851 -1.6417
  300SOL    HW2  900   0.132   0.630   2.960  0.3308  1.8984  0.4848
  301SOL     OW  901   1.734   1.004   1.625 -0.5702  0.0963 -0.4010
  301SOL    HW1  902   1.681   1.024   1.538 -0.6322  1.4831 -2.4549
  301SOL    HW2  903   1.681   1.031   1.706 -0.1500  0.2958 -1.4501
  302SOL     OW  904   2.648   1.968   2.676 -0.0561 -0.2946  0.1497
  302SOL    HW1  905   2.652   2.007   2.580 -0.2567 -2.1613 -0.7042
  302SOL    HW2  906   2.639   1.867   2.665  1.4072 -3.1459  0.9878
  303SOL     OW  907   0.017   0.291   2.663 -0.5420  0.2835  0.0099
  303SOL    HW1  908   0.048   0.211   2.613  0.5334  1.0440 -0.6431
  303SOL    HW2  909   0.017   0.366   2.600 -0.1371 -0.9798  1.0341
  304SOL     OW  910   2.861   0.889   1.646  0.3042  0.2059  0.5798
  304SOL    HW1  911   2.952   0.889   1.603 -1.6415 -4.3574  0.8639
  304SOL    HW2  912   2.855   0.797   1.692  0.0192  0.0193 -0.6973
  305SOL     OW  913   2.994   3.098   1.671  0.8011 -0.1184  0.2445
  305SOL    HW1  914   2.937   0.006   1.760 -1.6659  0.3817  1.4585
  305SOL    HW2  915   2.943   0.036   1.592  1.4673  1.9502 -1.3485
  306SOL     OW  916   2.782   1.502   1.484  0.1006 -0.1917 -0.1912
  306SOL    HW1  917   2.817   1.494   1.578 -1.1362  2.9892  1.3410
  306SOL    HW2  918   2.821   1.425   1.430 -2.4999 -0.5419 -1.0240
  307SOL     OW  919   2.042   0.512   1.357 -0.1272  0.4679 -0.2176
  307SOL    HW1  920   1.971   0.501   1.429 -0.3111 -1.7875  0.3700
  307SOL    HW2  921   2.045   0.607   1.318  1.6692  0.4646  1.3293
  308SOL     OW  922   0.008   2.104   1.133 -0.3482 -0.2524  0.1312
  308SOL    HW1  923   0.053   2.035   1.069  1.9214 -0.2170  1.2400
  308SOL    HW2  924   3.019   2.121   1.110  1.5668 -2.6542 -0.6583
  309SOL     OW  925   2.284   1.860   1.461 -0.0118 -0.1527  0.4123
  309SOL    HW1  926   2.323   1.894   1.371  1.6192  0.3217 -2.4330
  309SOL    HW2  927   2.292   1.932   1.532 -1.5857  1.2100 -1.7227
  310SOL     OW  928   2.408   1.831   3.006 -0.4906 -0.0855  0.8704
  310SOL    HW1  929   2.362   1.869   3.087  0.0890 -0.1481  1.1882
  310SOL    HW2  930   2.502   1.870   2.995  2.3834  0.8189  0.2641
  311SOL     OW  931   2.383   1.540   2.615  0.8031 -0.3527 -0.1833
  311SOL    HW1  932   2.374   1.453   2.564  0.2918  0.7295  1.3268
  311SOL    HW2  933   2.341   1.534   2.705  0.0117  0.7422 -1.6589
  312SOL     OW  934   1.600   2.218   1.386 -0.2489  0.0601 -0.5026
  312SOL    HW1  935   1.542   2.294   1.416  2.8903  1.9421 -1.5214
  312SOL    HW2  936   1.573   2.142   1.439 -3.1959  0.9935  1.5120
  313SOL     OW  937   0.334   2.633   1.227  0.0696  0.2598 -0.5655
  313SOL    HW1  938   0.420   2.626   1.275  1.0148 -0.8848  1.2751
  313SOL    HW2  939   0.261   2.587   1.280  2.2982  0.7488 -3.4292
  314SOL     OW  940   0.922   1.610   1.581 -0.0173 -0.0055 -0.0694
  314SOL    HW1  941   0.833   1.653   1.549  1.6514 -0.0856  0.3286
  314SOL    HW2  942   0.952   1.669   1.659 -0.0573  0.5103 -0.2086
  315SOL     OW  943   0.566   2.909   2.435  0.2108  0.7734  0.0156
  315SOL    HW1  944   0.642   2.974   2.427  0.0991  0.1388  1.9950
  315SOL    HW2  945   0.590   2.819   2.481 -0.2095  1.4618  0.4332
  316SOL     OW  946   2.897   2.064   0.801  0.0325 -0.3170 -0.2410
  316SOL    HW1  947   2.823   2.070   0.734  2.8327  0.7625  0.2566
  316SOL    HW2  948   2.961   1.993   0.777 -0.7673  4.7004 -1.8733
  317SOL     OW  949   2.062   0.630   0.256  0.4025 -0.0252 -0.0220
  317SOL    HW1  950   1.986   0.627   0.322 -0.6448 -0.0709  1.7042
  317SOL    HW2  951   2.120   0.711   0.262 -0.5497 -0.8584  0.3692
  318SOL     OW  952   2.814   2.537   0.143 -0.0367 -0.1651  0.5596
  318SOL    HW1  953   2.791   2.633   0.123 -0.1508  0.9475 -1.1289
  318SOL    HW2  954   2.808   2.511   0.240 -0.9215 -1.0702 -1.5991
  319SOL     OW  955   1.353   1.731   0.191  0.4989  0.2213 -0.1898
  319SOL    HW1  956   1.328   1.779   0.107 -0.2420 -3.9244  1.4560
  319SOL    HW2  957   1.392   1.800   0.262  1.1444  1.8025  4.2755
  320SOL     OW  958   0.606   2.721   2.705  0.1384 -0.5522 -0.7053
  320SOL    HW1  959   0.586   2.637   2.756  2.1884  2.6537  0.8790
  320SOL    HW2  960   0.674   2.704   2.630 -1.4908 -0.5862  3.7653
  321SOL     OW  961   1.006   3.049   0.323  0.3625 -0.6284 -0.0012
  321SOL    HW1  962   0.946   2.972   0.292 -0.9393  0.4038 -1.7966
  321SOL    HW2  963   1.101   3.013   0.337 -0.4628 -0.9617  1.1910
  322SOL     OW  964   2.256   1.329   2.139  0.3498  0.1406 -0.0592
  322SOL    HW1  965   2.156   1.330   2.127 -1.3028 -1.3680 -0.6640
  322SOL    HW2  966   2.285   1.241   2.173 -0.8300  0.4106 -1.4771
  323SOL     OW  967   2.727   0.688   0.430  0.0690  0.3188  0.4868
  323SOL    HW1  968   2.748   0.641   0.515  2.3601  1.8429 -0.5678
  323SOL    HW2  969   2.783   0.777   0.418 -0.4704 -0.1059 -0.7199
  324SOL     OW  970   0.014   0.496   2.501 -0.2105  0.2095 -0.0012
  324SOL    HW1  971   3.078   0.594   2.506  0.5481  0.8992 -0.6755
  324SOL    HW2  972   0.105   0.503   2.458 -0.7244  1.2422  0.8121
  325SOL     OW  973   0.836   3.053   2.432  0.2710  0.3262 -0.3028
  325SOL    HW1  974   0.848   0.018   2.362  0.0645  1.4272 -0.0801
  325SOL    HW2  975   0.826   3.088   2.531  0.5555 -1.0234  1.0275
  326SOL     OW  976   2.482   2.875   1.209 -0.3853  0.0756  0.3198
  326SOL    HW1  977   2.488   2.836   1.110 -1.6485 -1.0372 -3.0682
  326SOL    HW2  978   2.492   2.792   1.269 -1.2031  0.9855 -1.4261
  327SOL     OW  979   1.792   0.924   0.208 -0.0495  0.1067  0.0791
  327SOL    HW1  980   1.862   0.962   0.274  1.5328  2.3042  1.4636
  327SOL    HW2  981   1.825   0.852   0.146 -0.6408  0.4931  0.2204
  328SOL     OW  982   2.914   1.891   1.933  0.2480 -0.3339  0.0601
  328SOL    HW1  983   2.950   1.865   2.023  0.7657  1.0408 -3.5880
  328SOL    HW2  984   2.881   1.987   1.924  0.2340 -0.1413  0.8867
  329SOL     OW  985   1.897   2.830   1.791  0.0124 -0.3785  0.6992
  329SOL    HW1  986   1.811   2.798   1.835  2.6620 -1.0906  1.5146
  329SOL    HW2  987   1.886   2.891   1.708 -1.4152  1.0531 -2.7675
  330SOL     OW  988   2.516   1.669   1.827  0.3695  0.0962 -0.3913
  330SOL    HW1  989   2.560   1.618   1.906 -2.6299  1.2308  1.8741
  330SOL    HW2  990   2.578   1.703   1.751 -0.3311  2.5954  1.4873
  331SOL     OW  991   3.090   2.243   0.740  0.5469  0.2634  0.2104
  331SOL    HW1  992   3.012   2.179   0.748  2.2378 -1.1936 -0.1388
  331SOL    HW2  993   3.096   2.317   0.811 -0.7332  1.0730  1.4715
  332SOL     OW  994   0.445   2.909   0.500 -0.1380 -0.0395 -0.1392
  332SOL    HW1  995   0.441   2.951   0.408 -0.1213 -0.9652 -0.1417
  332SOL    HW2  996   0.418   2.813   0.499  1.8864  0.9379  0.6899
  333SOL     OW  997   2.054   0.452   2.474  0.2661 -0.0217 -0.1881
  333SOL    HW1  998   1.994   0.374   2.466  1.6980 -0.3553 -1.5539
  333SOL    HW2  999   2.144   0.411   2.451 -1.9322 -0.8229 -1.0647
  334SOL     OW 1000   0.684   1.398   0.652 -0.0554  0.0759 -0.1438
  334SOL    HW1 1001   0.638   1.342   0.580  0.6864 -0.7624  1.2183
  334SOL    HW2 1002   0.782   1.369   0.648  0.3066  1.4521 -0.7936
  335SOL     OW 1003   0.036   2.638   2.442  0.0979  0.1671 -0.1079
  335SOL    HW1 1004   0.103   2.651   2.368 -0.6456  0.0335  0.5725
  335SOL    HW2 1005   0.044   2.546   2.483  0.1706 -0.4519 -0.2386
  336SOL     OW 1006   2.876   3.101   1.919  0.3022  1.0060  0.5292
  336SOL    HW1 1007   2.888   3.007   1.951  1.9043 -1.9526  1.1903
  336SOL    HW2 1008   2.783   0.026   1.929  1.5151 -2.4924 -0.4641
  337SOL     OW 1009   1.939   1.392   0.483 -0.3626 -0.1653  0.4252
  337SOL    HW1 1010   2.036   1.382   0.513 -2.3828  0.0391  0.1874
  337SOL    HW2 1011   1.922   1.337   0.400 -1.9091 -0.9425  1.7595
  338SOL     OW 1012   0.805   1.818   1.093  0.1960 -0.1880  0.1111
  338SOL    HW1 1013   0.766   1.728   1.116  2.6160  0.3245 -1.6586
  338SOL    HW2 1014   0.887   1.840   1.150  0.8010  0.7866 -0.5331
  339SOL     OW 1015   2.968   0.917   1.082  0.3482  0.2830  0.6979
  339SOL    HW1 1016   3.017   0.915   1.168 -1.6837 -0.4602 -1.3752
  339SOL    HW2 1017   2.887   0.981   1.084  2.5657 -0.0474  0.0140
  340SOL     OW 1018   1.474   2.881   2.205  0.2447 -0.1136  0.0928
  340SOL    HW1 1019   1.424   2.794   2.217  1.6267 -0.0571  1.4296
  340SOL    HW2 1020   1.539   2.899   2.280 -2.2626 -0.3336  0.3232
  341SOL     OW 1021   2.195   1.385   0.581  0.2416  0.0125 -0.1261
  341SOL    HW1 1022   2.224   1.415   0.677  1.8771 -0.4120  1.6700
  341SOL    HW2 1023   2.175   1.284   0.583 -0.2838  0.1957  0.6933
  342SOL     OW 1024   2.892   1.647   0.697  0.8194  0.0056 -0.2832
  342SOL    HW1 1025   2.839   1.626   0.785 -0.2481  2.2499  1.1922
  342SOL    HW2 1026   2.943   1.727   0.716 -2.5051 -2.2130 -0.7187
  343SOL     OW 1027   2.499   1.271   1.555 -0.1282 -0.1066 -0.5855
  343SOL    HW1 1028   2.436   1.204   1.599  2.7654 -0.5022 -2.2929
  343SOL    HW2 1029   2.576   1.297   1.614 -1.0137  1.3559 -0.1327
  344SOL     OW 1030   1.817   0.824   0.814 -0.0692 -0.0874  0.7722
  344SOL    HW1 1031   1.721   0.790   0.830 -0.1723 -0.3547  1.1409
  344SOL    HW2 1032   1.853   0.882   0.888 -1.3678  1.5038  1.2662
  345SOL     OW 1033   0.087   0.076   2.486 -0.0725 -0.3847 -0.9109
  345SOL    HW1 1034   0.026   0.010   2.531 -0.4862  0.1066 -1.0114
  345SOL    HW2 1035   0.182   0.045   2.491 -0.2858 -1.7728  0.1227
  346SOL     OW 1036   2.893   1.503   0.108  0.0732  0.0347  0.5396
  346SOL    HW1 1037   2.924   1.596   0.117  0.9037  0.6486 -1.3025
  346SOL    HW2 1038   2.890   1.480   0.009 -0.2380 -0.3114  3.5496
  347SOL     OW 1039   1.559   2.566   1.707 -0.2025 -0.3305 -0.0039
  347SOL    HW1 1040   1.628   2.510   1.753  3.2318  1.3990  2.2921
  347SOL    HW2 1041   1.599   2.594   1.617  1.9871  0.3918 -0.3947
  348SOL     OW 1042   1.331   1.089   1.761  0.2983  0.3647 -0.0455
  348SOL    HW1 1043   1.307   1.189   1.769 -1.9503 -1.0826  0.9900
  348SOL    HW2 1044   1.272   1.039   1.827  2.9916 -0.8657 -0.6352
  349SOL     OW 1045   2.419   1.691   2.383  0.4138 -0.4802 -0.3286
  349SOL    HW1 1046   2.412   1.649   2.474  3.0557 -0.0967 -1.9400
  349SOL    HW2 1047   2.406   1.792   2.395  0.4790  3.1315 -1.0752
  350SOL     OW 1048   2.460   2.227   0.329 -0.3700 -0.2987 -0.8190
  350SOL    HW1 1049   2.515   2.284   0.265 -2.8500 -0.9626  0.6350
  350SOL    HW2 1050   2.422   2.283   0.404 -1.0449 -1.0510  1.0031
  351SOL     OW 1051   0.243   0.186   1.807 -0.2848 -0.0661 -0.3072
  351SOL    HW1 1052   0.158   0.136   1.839  1.4199  0.7073 -0.0124
  351SOL    HW2 1053   0.247   0.278   1.847 -0.9713 -1.0621 -2.4834
  352SOL     OW 1054   1.294   2.334   1.792  0.2915 -0.2059 -0.5358
  352SOL    HW1 1055   1.310   2.431   1.810 -0.4481 -0.7219 -1.7444
  352SOL    HW2 1056   1.288   2.324   1.690 -1.4907  2.2651 -0.9046
  353SOL     OW 1057   0.990   0.963   2.393 -0.0116 -0.4718  0.1150
  353SOL    HW1 1058   0.947   0.929   2.473  1.1220  3.2123 -2.0993
  353SOL    HW2 1059   1.005   0.887   2.329 -1.3236  3.3708  3.0846
  354SOL     OW 1060   1.233   1.788   0.533 -0.0914 -0.1749 -0.1316
  354SOL    HW1 1061   1.308   1.812   0.469 -2.3115  2.3473  1.0513
  354SOL    HW2 1062   1.180   1.869   0.560  1.7293 -0.3559  0.7598
  355SOL     OW 1063   1.947   0.274   0.846  0.3329 -0.0279 -0.4166
  355SOL    HW1 1064   1.895   0.254   0.933 -0.0329 -0.5727 -0.1426
  355SOL    HW2 1065   1.949   0.194   0.784 -2.2713  2.1617  1.1184
  356SOL     OW 1066   3.082   1.285   2.960  0.0288  0.1681  0.3048
  356SOL    HW1 1067   0.064   1.228   2.979  0.2888 -1.9983  0.8811
  356SOL    HW2 1068   3.004   1.224   2.981 -1.1891 -2.0763 -0.7543
  357SOL     OW 1069   0.183   2.980   1.982 -0.2155  0.1934  0.1888
  357SOL    HW1 1070   0.267   3.028   2.021  1.6323  0.9613  2.9223
  357SOL    HW2 1071   0.118   2.966   2.056  2.0802  2.4293 -0.4195
  358SOL     OW 1072   0.582   1.153   2.901 -0.4395 -0.3151  0.0848
  358SOL    HW1 1073   0.530   1.067   2.887 -1.0936  0.5913 -0.0961
  358SOL    HW2 1074   0.558   1.195   2.991  1.5900  3.0117 -0.0379
  359SOL     OW 1075   2.835   2.481   2.345 -0.3832 -0.6616 -0.6226
  359SOL    HW1 1076   2.808   2.469   2.245  2.0735 -0.7609 -1.5079
  359SOL    HW2 1077   2.908   2.552   2.344 -0.7443  0.0377 -1.8018
  360SOL     OW 1078   1.598   1.272   1.047  0.1008  0.4656 -0.3488
  360SOL    HW1 1079   1.528   1.258   0.975  2.8391  0.0574 -0.7636
  360SOL    HW2 1080   1.567   1.336   1.125  0.0153 -0.0772 -0.0144
  361SOL     OW 1081   1.953   2.216   1.424 -0.5390 -0.0456  0.3067
  361SOL    HW1 1082   1.871   2.193   1.372 -0.3093  0.4786  0.7664
  361SOL    HW2 1083   2.040   2.189   1.369  0.1301  2.6143 -2.3813
  362SOL     OW 1084   1.560   1.383   0.697 -0.5711 -0.4361 -0.9737
  362SOL    HW1 1085   1.659   1.417   0.696  3.2755 -0.2614  1.3330
  362SOL    HW2 1086   1.500   1.465   0.686 -1.2240 -0.0148 -0.3900
  363SOL     OW 1087   2.384   2.321   0.599 -0.6740  0.7239 -0.5455
  363SOL    HW1 1088   2.446   2.287   0.676  2.2311 -0.6710  0.3947
  363SOL    HW2 1089   2.357   2.413   0.622  1.3998 -0.7604 -1.1998
  364SOL     OW 1090   3.077   0.261   1.080 -0.3650 -0.2751  0.7614
  364SOL    HW1 1091   3.103   0.165   1.100  1.8804  1.4784  1.5502
  364SOL    HW2 1092   3.089   0.315   1.165  0.9668 -0.4577 -1.2017
  365SOL     OW 1093   0.497   2.766   0.849  0.1538  0.3645 -0.4664
  365SOL    HW1 1094   0.470   2.864   0.870  0.5591  0.4521 -0.0725
  365SOL    HW2 1095   0.551   2.712   0.921 -1.9616 -0.1459 -1.6181
  366SOL     OW 1096   0.225   1.415   0.509 -0.7122  0.6873  0.1114
  366SOL    HW1 1097   0.272   1.479   0.443  0.5230  3.5810  2.7456
  366SOL    HW2 1098   0.229   1.457   0.604 -1.9136  1.1099  2.0320
  367SOL     OW 1099   2.697   2.458   2.890 -0.0440  0.3785 -0.0923
  367SOL    HW1 1100   2.717   2.451   2.986  0.6133 -0.5189 -1.3121
  367SOL    HW2 1101   2.666   2.371   2.848 -3.5888  3.0980 -1.8315
  368SOL     OW 1102   2.463   1.796   0.778  0.4427  0.0259 -0.0719
  368SOL    HW1 1103   2.364   1.824   0.759 -2.4140 -0.7940 -0.5041
  368SOL    HW2 1104   2.473   1.699   0.791 -1.9637  3.5627 -1.3994
  369SOL     OW 1105   0.989   1.051   0.610  0.1759 -0.4366  0.0358
  369SOL    HW1 1106   0.955   1.138   0.572 -1.6953  0.3902 -3.4054
  369SOL    HW2 1107   1.089   1.043   0.615  1.9049  1.9906 -0.2697
  370SOL     OW 1108   0.192   2.936   1.017 -0.3148  0.2918 -0.5720
  370SOL    HW1 1109   0.288   2.962   1.005 -0.9978  2.0811 -0.0648
  370SOL    HW2 1110   0.191   2.893   1.106 -0.7310  1.4332 -0.5781
  371SOL     OW 1111   2.838   1.297   2.726  0.1460  0.5878 -0.0561
  371SOL    HW1 1112   2.837   1.382   2.675  1.0189 -0.6444  1.6982
  371SOL    HW2 1113   2.763   1.231   2.707  0.4774  0.0755  1.8657
  372SOL     OW 1114   0.506   0.461   2.337  0.0741  0.2991  0.1647
  372SOL    HW1 1115   0.498   0.453   2.237  1.6432 -2.8597 -3.8847
  372SOL    HW2 1116   0.530   0.371   2.376 -0.1456  3.9766 -1.4706
  373SOL     OW 1117   0.745   0.380   0.086  0.1655 -0.3184 -0.2925
  373SOL    HW1 1118   0.836   0.417   0.076 -1.9590 -2.0821 -1.3549
  373SOL    HW2 1119   0.745   0.295   0.140  1.6487  3.4100 -0.1323
  374SOL     OW 1120   1.083   2.284   0.049  1.0632 -0.0085 -0.5184
  374SOL    HW1 1121   1.176   2.318   0.029 -3.1881 -1.2266  1.3774
  374SOL    HW2 1122   1.072   2.192   0.006 -2.2947  1.1245  2.9774
  375SOL     OW 1123   0.873   3.020   1.238  0.1668  0.1513  0.2621
  375SOL    HW1 1124   0.929   2.993   1.160  1.2424  0.9633  0.4057
  375SOL    HW2 1125   0.773   2.996   1.218 -2.7921 -0.3142  1.3767
  376SOL     OW 1126   0.260   2.256   2.017  0.2329  0.1949  0.7349
  376SOL    HW1 1127   0.269   2.357   2.024  1.6601 -1.2928  1.1686
  376SOL    HW2 1128   0.314   2.219   2.092 -4.2630 -1.1960  0.5646
  377SOL     OW 1129   2.170   2.157   3.056 -0.4429 -0.2681 -0.0361
  377SOL    HW1 1130   2.081   2.126   3.013 -0.0863 -2.8868  0.5906
  377SOL    HW2 1131   2.235   2.201   2.986  2.5655  2.6589 -0.1995
  378SOL     OW 1132   2.148   0.483   0.597  0.0083  0.0740  0.6250
  378SOL    HW1 1133   2.107   0.534   0.678  0.8828  2.1913 -0.6887
  378SOL    HW2 1134   2.216   0.417   0.630  1.7608  1.0727 -0.7855
  379SOL     OW 1135   1.167   0.553   0.855 -0.6471  0.6609  0.1835
  379SOL    HW1 1136   1.143   0.519   0.761 -0.4044 -1.1704 -1.4848
  379SOL    HW2 1137   1.258   0.520   0.891 -0.6391  0.0913  0.6711
  380SOL     OW 1138   2.912   2.311   1.831 -0.4167  0.2845 -0.6845
  380SOL    HW1 1139   2.929   2.285   1.925 -2.4295 -1.0119  1.8296
  380SOL    HW2 1140   2.998   2.320   1.774  0.6931  1.1951 -0.2121
  381SOL     OW 1141   2.851   1.556   1.848 -0.6310  0.0855 -0.3002
  381SOL    HW1 1142   2.868   1.627   1.776  3.0260 -0.1250  1.1299
  381SOL    HW2 1143   2.810   1.589   1.934  1.0038 -1.3216  0.1806
  382SOL     OW 1144   3.040   2.089   2.823 -0.2333  0.0453 -0.7112
  382SOL    HW1 1145   2.987   2.165   2.779  2.3212 -0.6880 -1.2817
  382SOL    HW2 1146   3.031   2.090   2.927 -0.8127 -0.7621  1.6473
  383SOL     OW 1147   1.260   0.685   2.480  0.1064  0.3031  0.0503
  383SOL    HW1 1148   1.281   0.769   2.531  1.1229 -2.8324  0.4780
  383SOL    HW2 1149   1.161   0.679   2.451 -0.4608 -0.0948 -0.3469
  384SOL     OW 1150   1.262   2.100   2.277 -0.0686  0.0318  0.3279
  384SOL    HW1 1151   1.312   2.071   2.367  0.2707  0.4874  1.1598
  384SOL    HW2 1152   1.216   2.013   2.245 -0.4133 -0.6717 -0.3501
  385SOL     OW 1153   2.446   2.701   0.061 -0.0806 -0.1528  0.4254
  385SOL    HW1 1154   2.460   2.600   0.049  0.9686  2.4824 -0.4162
  385SOL    HW2 1155   2.433   2.724   0.164  0.7197 -0.8922  2.2302
  386SOL     OW 1156   1.431   1.264   0.487 -0.2058  0.5190  0.1523
  386SOL    HW1 1157   1.363   1.338   0.482 -1.1428 -0.3365  2.3135
  386SOL    HW2 1158   1.505   1.289   0.549 -1.7889  2.1435  0.1249
  387SOL     OW 1159   0.051   1.836   1.535 -0.4792  0.4271  0.5148
  387SOL    HW1 1160   0.137   1.781   1.544  2.0139 -0.4822  0.6551
  387SOL    HW2 1161   0.031   1.851   1.436 -1.3227 -1.8593 -0.9270
  388SOL     OW 1162   0.509   1.141   1.504 -0.3548  0.3680  0.0511
  388SOL    HW1 1163   0.599   1.176   1.472 -0.3950  1.3880  1.5762
  388SOL    HW2 1164   0.506   1.038   1.496 -2.2744  0.1488  1.4069
  389SOL     OW 1165   1.968   1.022   2.559 -0.0438 -0.2428  0.3965
  389SOL    HW1 1166   2.053   0.997   2.610  0.0695  1.0985 -1.3917
  389SOL    HW2 1167   1.906   1.084   2.608  0.6004 -2.3648  1.3574
  390SOL     OW 1168   0.925   1.831   0.143 -0.6321  0.4960  0.4036
  390SOL    HW1 1169   0.850   1.894   0.169  1.2995 -0.0341 -0.5160
  390SOL    HW2 1170   0.955   1.778   0.222  0.6897  2.1389  0.0611
  391SOL     OW 1171   1.047   1.957   0.673 -0.2564  0.1581  0.1760
  391SOL    HW1 1172   0.967   1.920   0.621 -0.6493 -0.2657 -0.9746
  391SOL    HW2 1173   1.039   1.945   0.772 -1.0474  1.0675 -0.2729
  392SOL     OW 1174   2.988   2.611   1.994  0.4039  0.0905  0.4079
  392SOL    HW1 1175   2.955   2.579   1.902 -0.9546 -1.7875 -2.4819
  392SOL    HW2 1176   3.043   2.539   2.041  0.3727 -0.3040 -0.2559
  393SOL     OW 1177   1.495   2.232   2.945 -0.0278 -0.3469  0.1970
  393SOL    HW1 1178   1.507   2.170   3.024  0.7931 -0.0860 -1.1965
  393SOL    HW2 1179   1.584   2.268   2.911  1.9194 -0.5838  3.9490
  394SOL     OW 1180   0.404   0.047   2.483  0.5884 -0.5755 -0.2109
  394SOL    HW1 1181   0.387   0.097   2.394  0.1430  0.8476 -1.7719
  394SOL    HW2 1182   0.438   3.060   2.468 -0.2053 -0.0222 -1.1080
  395SOL     OW 1183   0.002   1.395   1.147 -0.0306  0.0272 -0.2739
  395SOL    HW1 1184   0.011   1.487   1.195  0.1012 -1.6980  2.3782
  395SOL    HW2 1185   0.095   1.362   1.127 -0.9281  1.4817 -0.0845
  396SOL     OW 1186   2.296   1.435   2.865 -0.1933 -0.5217  0.3296
  396SOL    HW1 1187   2.264   1.340   2.884 -2.0306 -0.1316 -0.7264
  396SOL    HW2 1188   2.322   1.490   2.948 -0.3074 -2.1424  1.3794
  397SOL     OW 1189   0.573   0.844   3.087  0.7223  0.3729  0.3465
  397SOL    HW1 1190   0.656   0.790   3.055  2.6863 -2.5289 -0.8496
  397SOL    HW2 1191   0.510   0.869   3.013  1.2282 -1.9428  0.1203
  398SOL     OW 1192   1.008   2.508   0.423 -0.0181 -0.2307 -0.1360
  398SOL    HW1 1193   1.108   2.496   0.440  0.9754 -0.3409 -0.9122
  398SOL    HW2 1194   0.961   2.574   0.489  1.4719  0.6432  1.0163
  399SOL     OW 1195   1.859   2.750   2.240  0.3773 -0.1895 -0.0350
  399SOL    HW1 1196   1.938   2.744   2.307 -1.5759 -0.2089  0.3490
  399SOL    HW2 1197   1.882   2.688   2.165  1.6275  3.0516 -1.2780
  400SOL     OW 1198   0.098   1.172   1.908 -0.3687  0.6958  0.4014
  400SOL    HW1 1199   0.018   1.232   1.926  1.5170 -0.1165 -1.1940
  400SOL    HW2 1200   0.119   1.174   1.812 -0.4335 -1.3866  0.0565
  401SOL     OW 1201   0.643   0.783   0.805  0.3932  0.6396  0.2519
  401SOL    HW1 1202   0.577   0.717   0.842  0.6190 -1.7536  0.1841
  401SOL    HW2 1203   0.729   0.771   0.854 -1.1344 -0.2545 -0.9691
  402SOL     OW 1204   0.822   3.097   2.704  0.9451 -0.3356  1.1423
  402SOL    HW1 1205   0.745   0.051   2.735  0.7725 -1.1426 -0.2665
  402SOL    HW2 1206   0.842   3.020   2.762 -0.1771  2.8851 -2.3687
  403SOL     OW 1207   2.600   2.021   1.689 -0.2405  0.4990 -0.0045
  403SOL    HW1 1208   2.645   2.054   1.771  1.0857  0.8667 -2.7889
  403SOL    HW2 1209   2.621   1.922   1.667 -0.6891 -1.6965 -3.2001
  404SOL     OW 1210   2.661   2.444   1.483 -0.0312 -0.0675 -0.2178
  404SOL    HW1 1211   2.747   2.496   1.489 -2.1209  2.1212  1.6752
  404SOL    HW2 1212   2.674   2.344   1.493  1.0902  0.1563 -1.3815
  405SOL     OW 1213   1.780   0.354   2.846 -0.2068 -0.2535 -0.2120
  405SOL    HW1 1214   1.746   0.366   2.750  0.4032  0.8062 -0.0617
  405SOL    HW2 1215   1.747   0.422   2.914 -0.9645  0.5928 -1.5762
  406SOL     OW 1216   1.070   2.011   0.005  0.2958 -0.1173 -0.0373
  406SOL    HW1 1217   1.169   1.983   3.098  0.4239 -1.0132  0.6841
  406SOL    HW2 1218   1.019   1.939   0.058  1.0526  2.7503 -2.5305
  407SOL     OW 1219   1.647   1.647   0.481 -0.8713  0.1074 -0.1115
  407SOL    HW1 1220   1.571   1.694   0.529  1.1348 -0.5888 -0.4248
  407SOL    HW2 1221   1.712   1.612   0.549 -1.0959 -1.5689 -1.2116
  408SOL     OW 1222   0.001   0.517   1.655  0.0982  0.0018 -0.3629
  408SOL    HW1 1223   0.050   0.604   1.630  0.4810  1.9158 -0.5220
  408SOL    HW2 1224   0.032   0.441   1.590 -1.2561 -1.7286  1.2033
  409SOL     OW 1225   2.587   1.363   2.987 -0.1476  0.1675  0.6069
  409SOL    HW1 1226   2.535   1.283   3.015  0.4956  0.8176 -1.4827
  409SOL    HW2 1227   2.537   1.449   3.014 -0.2039  0.3638  1.0750
  410SOL     OW 1228   2.549   2.326   0.824  0.0615 -0.3013 -0.0765
  410SOL    HW1 1229   2.477   2.323   0.899 -1.0516 -2.4017  1.7665
  410SOL    HW2 1230   2.585   2.234   0.797 -0.2592  3.3310 -0.2399
  411SOL     OW 1231   0.422   3.073   0.258 -0.3282  0.0776  0.1386
  411SOL    HW1 1232   0.386   0.056   0.285 -1.2111 -1.5307  1.3715
  411SOL    HW2 1233   0.516   3.077   0.222  1.8939 -0.7119  1.2780
  412SOL     OW 1234   1.609   2.981   0.455 -0.0637 -0.0731 -0.3235
  412SOL    HW1 1235   1.570   2.890   0.460  0.7813  2.2069 -0.2557
  412SOL    HW2 1236   1.706   2.975   0.489  1.4888 -0.4455  0.7872
  413SOL     OW 1237   1.783   0.528   2.177 -0.2525 -0.3521  0.7231
  413SOL    HW1 1238   1.845   0.471   2.125  1.1035  1.0136 -0.3775
  413SOL    HW2 1239   1.696   0.478   2.189  1.4938 -4.1593 -1.3054
  414SOL     OW 1240   0.002   0.605   0.504  0.3794 -0.0759 -0.2691
  414SOL    HW1 1241   0.027   0.644   0.412  2.4022 -0.4009 -0.7871
  414SOL    HW2 1242   0.089   0.591   0.553 -1.7836 -0.3463  0.7923
  415SOL     OW 1243   2.894   0.895   0.373  0.1693 -0.3250  0.1296
  415SOL    HW1 1244   2.839   0.958   0.319  1.3017 -1.9200  3.9088
  415SOL    HW2 1245   2.955   0.950   0.434 -0.5484 -2.8161 -2.4603
  416SOL     OW 1246   3.092   0.375   2.912  0.0668 -0.2953 -0.1476
  416SOL    HW1 1247   3.105   0.324   2.830  1.1048 -0.1826  3.6149
  416SOL    HW2 1248   0.031   0.472   2.910  2.6373  4.9396  1.7930
  417SOL     OW 1249   2.331   0.342   0.759 -0.0047  0.0508  0.0111
  417SOL    HW1 1250   2.285   0.366   0.848  1.5946 -0.0945  2.0234
  417SOL    HW2 1251   2.430   0.372   0.762 -0.3713  0.2076 -1.2302
  418SOL     OW 1252   0.616   3.032   3.024 -0.9405 -0.6829 -0.3956
  418SOL    HW1 1253   0.644   3.045   0.017 -1.6468  1.9113 -0.7172
  418SOL    HW2 1254   0.547   2.959   3.009 -0.5962 -2.0100  0.7866
  419SOL     OW 1255   0.151   0.585   1.038 -0.0583 -0.3678  0.1570
  419SOL    HW1 1256   0.205   0.673   1.037 -0.1539 -0.0182  1.7411
  419SOL    HW2 1257   0.209   0.498   1.044 -2.7828 -1.8201 -1.0867
  420SOL     OW 1258   2.927   1.311   1.361  0.5089  0.0617 -0.1910
  420SOL    HW1 1259   2.984   1.324   1.275 -0.9740  0.0532 -0.7130
  420SOL    HW2 1260   2.884   1.219   1.362  1.3608  2.8834 -0.5513
  421SOL     OW 1261   0.950   1.904   2.900  0.1190  0.1897  0.3693
  421SOL    HW1 1262   0.979   1.943   2.991  1.0212 -0.1593  3.9289
  421SOL    HW2 1263   1.036   1.900   2.842 -0.9029  0.7808  0.5693
  422SOL     OW 1264   2.525   0.401   2.237 -0.2185 -0.4362  0.7281
  422SOL    HW1 1265   2.588   0.321   2.228  1.4990  1.4679 -2.8561
  422SOL    HW2 1266   2.453   0.410   2.167 -0.7759  0.5750 -0.3862
  423SOL     OW 1267   1.925   1.660   0.187 -0.0477  0.0667 -0.1915
  423SOL    HW1 1268   1.979   1.720   0.126 -0.7547  1.3243 -2.9139
  423SOL    HW2 1269   1.851   1.614   0.132  0.8182  0.3521 -4.8210
  424SOL     OW 1270   0.970   1.105   1.954 -0.1800 -0.0991 -0.7263
  424SOL    HW1 1271   0.911   1.094   2.039  0.1410 -1.4290  1.9805
  424SOL    HW2 1272   1.065   1.096   1.991  1.2251 -0.8320 -0.7176
  425SOL     OW 1273   0.227   2.541   2.085 -0.1102 -0.2100 -0.0011
  425SOL    HW1 1274   0.258   2.606   2.157  1.6273  1.8972 -0.9552
  425SOL    HW2 1275   0.210   2.582   1.994  0.1993 -2.3143 -2.7696
  426SOL     OW 1276   2.289   2.568   0.638  0.3070  0.1702  0.2296
  426SOL    HW1 1277   2.360   2.639   0.665 -0.6549  0.2160  2.5808
  426SOL    HW2 1278   2.211   2.566   0.708 -2.4454  1.3993  0.3768
  427SOL     OW 1279   0.754   0.657   3.011  0.1837  0.2283  0.5222
  427SOL    HW1 1280   0.828   0.684   3.079 -0.4095 -0.4209  0.6970
  427SOL    HW2 1281   0.782   0.570   2.968 -1.7239  2.7832  2.8996
  428SOL     OW 1282   2.848   1.458   2.965 -0.5320 -0.6233  0.6202
  428SOL    HW1 1283   2.757   1.421   2.986  1.0595  0.5738  1.2201
  428SOL    HW2 1284   2.896   1.402   2.894  1.0971 -1.0869 -0.5557
  429SOL     OW 1285   2.508   0.481   0.315 -0.4174 -0.2777  0.8408
  429SOL    HW1 1286   2.517   0.386   0.348 -2.6445  1.3118 -0.4525
  429SOL    HW2 1287   2.484   0.534   0.398 -0.7003  2.0059 -0.4525
  430SOL     OW 1288   1.408   2.026   2.483 -0.7248  0.2232 -0.0170
  430SOL    HW1 1289   1.483   2.025   2.419 -0.7008  0.5047 -1.6050
  430SOL    HW2 1290   1.428   2.089   2.560 -2.2799 -1.3895  0.9222
  431SOL     OW 1291   0.203   2.097   1.334  0.0373 -0.5517 -0.1351
  431SOL    HW1 1292   0.138   2.110   1.254 -2.8370  0.8322  2.3206
  431SOL    HW2 1293   0.149   2.108   1.418 -2.3779  0.4813  1.3021
  432SOL     OW 1294   1.704   2.727   1.949  0.1515 -0.1447  0.1318
  432SOL    HW1 1295   1.785   2.664   1.958 -0.8457  0.7702  2.3235
  432SOL    HW2 1296   1.625   2.702   2.012 -4.3909 -3.1779  0.2916
  433SOL     OW 1297   1.058   2.184   0.313 -0.6729 -0.3058 -0.3335
  433SOL    HW1 1298   1.042   2.244   0.232  0.7036 -0.3564  2.4490
  433SOL    HW2 1299   0.980   2.120   0.332 -2.6148  1.2731 -0.3023
  434SOL     OW 1300   0.375   2.224   2.623  0.1646  0.0356  0.0517
  434SOL    HW1 1301   0.470   2.217   2.659  2.0859  0.7433  0.8798
  434SOL    HW2 1302   0.309   2.197   2.692  1.8935  1.3229 -0.1766
  435SOL     OW 1303   0.362   0.828   0.633  0.1857  0.0730 -0.3690
  435SOL    HW1 1304   0.437   0.888   0.663  0.7353 -2.1905  1.3634
  435SOL    HW2 1305   0.358   0.794   0.538  1.0637 -0.3916 -2.0023
  436SOL     OW 1306   0.466   2.666   1.810 -0.2562  0.2684 -0.0739
  436SOL    HW1 1307   0.501   2.603   1.884  3.0623 -2.3127 -1.0334
  436SOL    HW2 1308   0.537   2.732   1.789 -2.4742 -1.9267 -0.2087
  437SOL     OW 1309   0.802   0.148   0.874  0.0191  0.3710  0.0206
  437SOL    HW1 1310   0.880   0.179   0.814  1.8277 -0.0617  0.7603
  437SOL    HW2 1311   0.711   0.147   0.828  0.3306  2.0517  2.0037
  438SOL     OW 1312   0.518   2.045   0.562  0.3585  0.0100  0.2588
  438SOL    HW1 1313   0.524   2.138   0.596  0.3046 -2.1023 -0.6227
  438SOL    HW2 1314   0.440   2.003   0.613 -0.1116  0.1124  1.6448
  439SOL     OW 1315   0.830   2.498   1.682  0.0025  0.0837 -0.1215
  439SOL    HW1 1316   0.753   2.439   1.720 -0.5853 -4.4007 -1.9794
  439SOL    HW2 1317   0.806   2.517   1.580 -2.8306  1.9514 -1.8583
  440SOL     OW 1318   1.948   2.926   2.049  0.3287 -0.0068  0.4879
  440SOL    HW1 1319   1.906   2.906   1.960  2.4396  1.0424 -0.6164
  440SOL    HW2 1320   1.908   2.879   2.132 -1.0945 -2.4124  0.8951
  441SOL     OW 1321   3.038   0.401   1.901  0.1742  0.2848  0.1604
  441SOL    HW1 1322   3.063   0.309   1.940  1.6776  1.9863  1.5692
  441SOL    HW2 1323   3.071   0.419   1.805  0.7026  1.3508 -1.1300
  442SOL     OW 1324   1.906   2.379   0.939 -0.3549 -0.0414  0.0401
  442SOL    HW1 1325   1.846   2.349   0.863  2.2415 -0.3770  0.3332
  442SOL    HW2 1326   1.926   2.299   1.000  2.8198 -0.8512 -1.0926
  443SOL     OW 1327   2.745   0.859   2.112  0.0357 -0.8203 -0.2172
  443SOL    HW1 1328   2.699   0.789   2.170  0.9363  2.0970  0.7146
  443SOL    HW2 1329   2.673   0.928   2.078 -1.9560  1.1989 -1.3064
  444SOL     OW 1330   1.935   0.973   1.969 -0.2222 -0.0985 -0.3451
  444SOL    HW1 1331   1.943   0.924   1.883  0.2840 -0.2538 -2.5128
  444SOL    HW2 1332   1.878   0.917   2.032  0.5154 -1.7596  3.1669
  445SOL     OW 1333   3.019   2.560   1.099 -0.3983 -0.2823 -0.1526
  445SOL    HW1 1334   3.047   2.650   1.137  1.4687 -0.3813 -0.9367
  445SOL    HW2 1335   3.080   2.526   1.024 -0.9085  1.7175 -1.9607
  446SOL     OW 1336   2.780   1.629   0.941 -0.0608 -0.0933 -0.6183
  446SOL    HW1 1337   2.838   1.711   0.969  1.3718 -0.3580 -0.6573
  446SOL    HW2 1338   2.819   1.537   0.954 -0.5100  1.6117  1.8526
  447SOL     OW 1339   0.535   1.022   0.793  0.3788 -0.3577  0.1893
  447SOL    HW1 1340   0.554   0.920   0.801  1.4547 -3.5169 -0.1478
  447SOL    HW2 1341   0.621   1.079   0.804  3.2611 -0.4811  1.8303
  448SOL     OW 1342   1.536   1.381   1.837 -0.8783  0.2271 -0.4314
  448SOL    HW1 1343   1.438   1.368   1.810  1.7481  1.8559 -1.5412
  448SOL    HW2 1344   1.561   1.308   1.904 -0.1927  1.1471  0.8358
  449SOL     OW 1345   1.225   1.336   0.016 -0.6274  0.3655  0.1725
  449SOL    HW1 1346   1.304   1.272   3.101  0.0887 -1.5094 -0.7369
  449SOL    HW2 1347   1.154   1.318   3.050 -3.6619  1.5035 -2.0533
  450SOL     OW 1348   2.976   2.230   2.090 -0.2325 -0.8664 -0.5509
  450SOL    HW1 1349   3.026   2.296   2.146 -0.3204  2.0742 -0.7833
  450SOL    HW2 1350   3.035   2.177   2.032 -0.4467  0.0493 -1.9751
  451SOL     OW 1351   2.135   3.013   2.239  0.2737 -0.1146 -0.2834
  451SOL    HW1 1352   2.061   3.004   2.170 -1.5127  0.6557 -2.2625
  451SOL    HW2 1353   2.132   2.938   2.308  3.2219 -1.1902 -0.8108
  452SOL     OW 1354   1.832   2.924   1.209 -0.5077  0.7251 -0.4439
  452SOL    HW1 1355   1.757   2.992   1.200  2.1058 -1.1088 -1.2809
  452SOL    HW2 1356   1.923   2.964   1.191 -2.0881 -1.7640 -0.7300
  453SOL     OW 1357   1.698   1.037   1.163 -0.2581  0.2781 -0.6208
  453SOL    HW1 1358   1.779   0.993   1.120  0.6528 -2.5277  0.4015
  453SOL    HW2 1359   1.683   1.124   1.112 -0.3339  0.2634  0.0021
  454SOL     OW 1360   0.045   1.358   0.308  0.5698  0.9871 -0.1418
  454SOL    HW1 1361   0.099   1.368   0.397  1.4205 -1.4922 -0.0627
  454SOL    HW2 1362   3.052   1.359   0.336 -0.2487  1.6077 -0.6367
  455SOL     OW 1363   2.759   0.047   0.579  0.2347 -0.3707  0.4492
  455SOL    HW1 1364   2.843   0.081   0.533 -0.9435  0.3624 -2.6871
  455SOL    HW2 1365   2.764   3.052   0.590 -1.7395 -0.3876 -1.0751
  456SOL     OW 1366   3.085   2.782   1.219 -0.0215 -1.0097  0.1909
  456SOL    HW1 1367   3.100   2.792   1.321 -1.1052  2.4442  1.3430
  456SOL    HW2 1368   3.010   2.847   1.194  2.7030 -1.4423  2.2304
  457SOL     OW 1369   1.244   0.034   0.711 -0.0650 -0.2147  0.1478
  457SOL    HW1 1370   1.230   0.091   0.626  1.9695  0.2237 -1.4691
  457SOL    HW2 1371   1.325   0.069   0.761 -1.1057  0.4499 -2.8878
  458SOL     OW 1372   2.542   0.231   0.404 -0.6746  0.0221  0.3216
  458SOL    HW1 1373   2.621   0.177   0.439 -2.3865 -0.1186 -1.0555
  458SOL    HW2 1374   2.472   0.168   0.380  0.6996  0.8733  3.5476
  459SOL     OW 1375   2.267   0.760   2.582  0.5686 -0.5143 -0.1897
  459SOL    HW1 1376   2.196   0.748   2.508  1.2139  1.1995 -0.6551
  459SOL    HW2 1377   2.284   0.676   2.632  1.4179  1.4275  0.8962
  460SOL     OW 1378   2.944   2.937   2.879  0.1680  0.4485 -0.1282
  460SOL    HW1 1379   2.868   3.002   2.841  0.8972  2.3889 -0.9172
  460SOL    HW2 1380   2.899   2.854   2.909 -2.4134  0.6090 -0.0493
  461SOL     OW 1381   0.882   1.620   0.588  0.3634  0.1197  0.6808
  461SOL    HW1 1382   0.898   1.602   0.689  0.0758  1.4318  0.9399
  461SOL    HW2 1383   0.833   1.709   0.571  0.4435 -1.2569 -2.2770
  462SOL     OW 1384   2.364   2.319   1.034  0.5766  0.6256 -0.5946
  462SOL    HW1 1385   2.300   2.378   1.084  1.7973  1.7854 -0.4078
  462SOL    HW2 1386   2.317   2.237   1.001 -0.7305 -1.4232  2.5317
  463SOL     OW 1387   2.456   0.994   0.570 -0.3459 -0.5629  0.1045
  463SOL    HW1 1388   2.463   0.971   0.473  1.2611  0.8269  1.1532
  463SOL    HW2 1389   2.455   0.910   0.629 -1.2507 -1.4314 -0.7869
  464SOL     OW 1390   0.340   2.898   1.298  0.6350  0.1394 -0.1157
  464SOL    HW1 1391   0.351   2.799   1.273  2.3300  0.4643  0.8435
  464SOL    HW2 1392   0.352   2.915   1.395  0.9369  0.4458 -0.4658
  465SOL     OW 1393   0.155   1.491   3.018  0.0600 -0.2861 -0.5089
  465SOL    HW1 1394   0.080   1.423   2.999  2.2391 -1.8096 -1.3668
  465SOL    HW2 1395   0.204   1.524   2.934  1.3093 -0.9413  2.3382
  466SOL     OW 1396   1.651   0.134   2.895  0.2555 -0.2390  0.5016
  466SOL    HW1 1397   1.697   0.219   2.858  2.0461 -2.1108 -1.9082
  466SOL    HW2 1398   1.611   0.149   2.990  1.3493 -4.4244 -0.1832
  467SOL     OW 1399   0.847   0.832   1.885 -0.2925 -0.0234  0.2760
  467SOL    HW1 1400   0.751   0.795   1.883  0.0627  0.1884 -0.1088
  467SOL    HW2 1401   0.870   0.886   1.968 -0.3438  1.4909 -0.8080
  468SOL     OW 1402   0.610   0.923   2.461 -0.1772 -0.3060  0.3989
  468SOL    HW1 1403   0.689   0.893   2.517 -1.9806 -0.1251  1.3177
  468SOL    HW2 1404   0.517   0.903   2.499 -1.2756  1.5113  0.1499
  469SOL     OW 1405   3.032   2.129   3.076 -0.2244  0.8365  0.7031
  469SOL    HW1 1406   3.039   2.230   3.081 -2.0429  0.4425 -0.2207
  469SOL    HW2 1407   3.001   2.075   0.056  0.2312  1.2369  0.5057
  470SOL     OW 1408   2.365   1.838   2.720 -0.2440 -0.3634 -0.1639
  470SOL    HW1 1409   2.456   1.800   2.690  1.1179 -1.6133 -3.2198
  470SOL    HW2 1410   2.348   1.822   2.821  1.0187  0.3887  0.3137
  471SOL     OW 1411   2.300   1.046   2.218 -0.0444  0.5098  0.1112
  471SOL    HW1 1412   2.326   1.021   2.311 -1.5484 -0.5748  0.8649
  471SOL    HW2 1413   2.340   0.992   2.143 -1.3853 -2.0091 -2.8204
  472SOL     OW 1414   0.458   2.542   0.716 -0.1021  0.3275  0.3750
  472SOL    HW1 1415   0.440   2.565   0.619  0.8458 -0.1034  2.3003
  472SOL    HW2 1416   0.483   2.625   0.771 -1.6023  1.6426  0.3874
  473SOL     OW 1417   0.619   0.125   2.832 -0.2627  0.1131  0.2537
  473SOL    HW1 1418   0.646   0.050   2.897  1.7881  0.5309  2.3551
  473SOL    HW2 1419   0.640   0.217   2.865 -3.1022  1.5810 -0.9803
  474SOL     OW 1420   1.837   0.238   2.457 -0.1495 -0.0509  0.1348
  474SOL    HW1 1421   1.763   0.280   2.512  1.2704  0.7157  0.5536
  474SOL    HW2 1422   1.800   0.196   2.368 -0.3305 -1.5053  0.0452
  475SOL     OW 1423   1.740   2.587   0.680 -0.0880  0.1015 -0.1897
  475SOL    HW1 1424   1.749   2.485   0.682 -1.2131  0.1339 -0.6547
  475SOL    HW2 1425   1.742   2.618   0.585  0.5817 -0.3755  0.6567
  476SOL     OW 1426   2.985   0.682   0.951 -0.6588 -0.0707 -0.3129
  476SOL    HW1 1427   2.981   0.767   1.011 -0.2608 -1.3791  1.5812
  476SOL    HW2 1428   3.079   0.644   0.950 -0.9708 -2.5142  0.7670
  477SOL     OW 1429   1.352   2.267   0.678  0.4251 -0.2002  0.3159
  477SOL    HW1 1430   1.422   2.217   0.627  0.2222  1.1388  1.3659
  477SOL    HW2 1431   1.263   2.249   0.639 -0.8883  0.1731 -1.0593
  478SOL     OW 1432   0.220   2.136   2.406 -0.5448  0.0031 -0.0161
  478SOL    HW1 1433   0.284   2.159   2.485  0.7420 -2.2257  3.1093
  478SOL    HW2 1434   0.257   2.157   2.313 -1.7272 -0.5671 -0.0514
  479SOL     OW 1435   2.266   0.639   1.049 -0.3027  0.2134  0.0322
  479SOL    HW1 1436   2.233   0.550   1.015  2.1896 -2.2837 -0.2327
  479SOL    HW2 1437   2.270   0.640   1.149  0.2770 -1.9541 -0.3380
  480SOL     OW 1438   3.024   2.807   0.201 -0.3845 -0.4173 -0.4486
  480SOL    HW1 1439   3.017   2.912   0.202  1.2486  0.7400  0.9429
  480SOL    HW2 1440   3.085   2.786   0.124  0.0318  0.2078  0.7639
  481SOL     OW 1441   2.755   2.609   1.124  0.1566  0.0588 -0.3189
  481SOL    HW1 1442   2.731   2.645   1.217 -0.1120  0.7048 -2.0101
  481SOL    HW2 1443   2.850   2.580   1.113  0.8567  1.2398  1.0062
  482SOL     OW 1444   1.066   2.311   2.754  0.0809 -0.4101  0.3593
  482SOL    HW1 1445   1.165   2.304   2.774 -0.0585  0.3733 -2.0346
  482SOL    HW2 1446   1.051   2.397   2.699  0.4906  0.7724  2.1203
  483SOL     OW 1447   0.733   1.777   2.656 -0.6953 -0.2503 -0.1353
  483SOL    HW1 1448   0.727   1.771   2.759 -0.5489 -1.2923  0.6140
  483SOL    HW2 1449   0.688   1.862   2.619  0.8583 -3.3969 -0.1242
  484SOL     OW 1450   1.099   0.840   1.408 -0.0338  0.0841 -0.2694
  484SOL    HW1 1451   1.091   0.745   1.377  2.4497  2.0607 -1.1141
  484SOL    HW2 1452   1.060   0.857   1.501 -1.3534  1.8297 -0.0857
  485SOL     OW 1453   2.284   0.841   0.004  0.2686  0.4113  0.3145
  485SOL    HW1 1454   2.294   0.746   3.074 -0.4996  0.6623  2.3569
  485SOL    HW2 1455   2.361   0.899   3.072  0.5709 -1.2736 -0.5673
  486SOL     OW 1456   2.052   3.088   1.152  0.6039 -0.3030 -0.1727
  486SOL    HW1 1457   2.131   3.056   1.212  1.2016 -0.3335  2.2644
  486SOL    HW2 1458   2.039   0.081   1.176  1.7991 -2.0257  2.8415
  487SOL     OW 1459   0.404   2.290   1.342 -0.8592 -0.3180 -0.2230
  487SOL    HW1 1460   0.354   2.209   1.314 -1.1538  1.7050 -0.0434
  487SOL    HW2 1461   0.340   2.370   1.346 -2.3693  1.1460  0.6638
  488SOL     OW 1462   2.706   0.960   3.081 -0.4631 -0.3355 -0.1146
  488SOL    HW1 1463   2.617   0.948   3.034 -3.3682 -0.3855 -1.1390
  488SOL    HW2 1464   2.754   0.871   3.094 -2.4172 -0.4204 -0.2115
  489SOL     OW 1465   1.837   0.223   1.103  0.0411  0.6010 -0.3649
  489SOL    HW1 1466   1.901   0.215   1.184  2.1657  3.2208  2.0928
  489SOL    HW2 1467   1.751   0.269   1.131  0.8474 -2.0188 -0.5205
  490SOL     OW 1468   0.868   0.586   0.672 -0.1804 -0.6642 -0.3644
  490SOL    HW1 1469   0.797   0.543   0.608  1.3156  1.7283  0.4266
  490SOL    HW2 1470   0.871   0.690   0.664  3.2653  2.0438  1.0597
  491SOL     OW 1471   0.552   2.281   0.680  0.1185  0.9579 -0.0792
  491SOL    HW1 1472   0.607   2.292   0.595  1.6402  0.2033 -1.2641
  491SOL    HW2 1473   0.507   2.369   0.704  1.1878 -1.4548  3.1297
  492SOL     OW 1474   1.464   1.570   2.281 -0.1991  0.3140 -0.2496
  492SOL    HW1 1475   1.372   1.566   2.234 -0.2855  0.6429 -0.2825
  492SOL    HW2 1476   1.452   1.614   2.373 -2.1627 -0.1389  1.7085
  493SOL     OW 1477   0.067   2.769   0.859  0.1198  0.3700  0.1613
  493SOL    HW1 1478   3.074   2.778   0.879 -1.8008 -1.6946  2.0495
  493SOL    HW2 1479   0.122   2.806   0.936 -1.0151  1.2212  2.8094
  494SOL     OW 1480   2.671   2.046   0.092  0.0051  0.0473  0.4964
  494SOL    HW1 1481   2.614   1.990   0.154  0.4091 -0.3102 -2.3392
  494SOL    HW2 1482   2.655   2.013   3.103  0.3390 -0.7265 -0.7375
  495SOL     OW 1483   2.649   1.947   2.957 -0.1548 -0.1072 -0.3178
  495SOL    HW1 1484   2.642   1.978   2.861 -0.3147  1.0078 -0.3145
  495SOL    HW2 1485   2.704   1.863   2.964 -1.2557  0.0453 -1.0540
  496SOL     OW 1486   2.844   0.078   1.452  0.1786 -0.4747  0.0629
  496SOL    HW1 1487   2.800   0.168   1.467  1.2080 -0.5710  0.0516
  496SOL    HW2 1488   2.811   0.046   1.364 -0.4603  0.1601 -0.3238
  497SOL     OW 1489   2.902   1.105   2.945 -0.1209  0.0761  0.1727
  497SOL    HW1 1490   2.859   1.162   2.874 -0.2203 -1.1807 -0.1437
  497SOL    HW2 1491   2.826   1.065   2.995  1.0483  0.2835  1.0667
  498SOL     OW 1492   0.084   1.897   2.147  0.0509 -0.1740  0.3540
  498SOL    HW1 1493   0.090   1.975   2.081 -1.7325  1.4111 -1.9679
  498SOL    HW2 1494   0.031   1.924   2.232 -1.5439  2.0391  1.1544
  499SOL     OW 1495   0.859   2.127   2.784  0.2922 -0.4814  0.2793
  499SOL    HW1 1496   0.878   2.044   2.834 -2.1605  0.7402  0.8858
  499SOL    HW2 1497   0.937   2.189   2.776  0.3640 -0.6254  0.6258
  500SOL     OW 1498   1.570   0.178   0.052 -0.4021  0.3411 -0.3866
  500SOL    HW1 1499   1.588   0.075   0.050  0.5503 -2.8437  0.8267
  500SOL    HW2 1500   1.624   0.215   0.128 -0.1217  1.8798 -1.0178
  501SOL     OW 1501   1.560   3.048   1.545 -0.3607 -0.8002 -0.4033
  501SOL    HW1 1502   1.473   3.029   1.496  0.2987  3.5042  0.6488
  501SOL    HW2 1503   1.563   0.033   1.596 -0.2663  0.8589  3.6421
  502SOL     OW 1504   2.409   0.884   2.016  0.1183 -0.0499  0.2436
  502SOL    HW1 1505   2.472   0.955   1.982 -0.1193  0.1058 -3.2795
  502SOL    HW2 1506   2.360   0.836   1.939 -2.0564 -1.2554  0.6719
  503SOL     OW 1507   2.146   2.353   2.320  0.0165  0.5190 -0.5159
  503SOL    HW1 1508   2.222   2.317   2.377  0.5199  0.2248  0.9361
  503SOL    HW2 1509   2.184   2.399   2.234  0.8359  0.4677 -4.4342
  504SOL     OW 1510   1.314   0.498   1.784  0.1582 -0.0077 -0.3275
  504SOL    HW1 1511   1.301   0.590   1.741  2.8411  0.8376  0.1516
  504SOL    HW2 1512   1.399   0.496   1.842  2.2666  0.3751  2.8009
  505SOL     OW 1513   0.812   0.644   1.550  0.0317 -0.3405  0.6773
  505SOL    HW1 1514   0.803   0.745   1.568  0.3166 -0.3296 -1.6520
  505SOL    HW2 1515   0.841   0.627   1.451  2.6272  2.4632  0.3825
  506SOL     OW 1516   0.274   0.581   2.417  0.2621 -0.0624 -0.2650
  506SOL    HW1 1517   0.366   0.547   2.386  0.9981  2.0752  1.7501
  506SOL    HW2 1518   0.279   0.617   2.509 -0.6947 -0.3458  0.4799
  507SOL     OW 1519   0.092   2.823   3.106 -0.0261 -0.5329 -0.6930
  507SOL    HW1 1520   0.190   2.790   0.004  2.1011  1.2714  0.7266
  507SOL    HW2 1521   0.080   2.906   3.052  1.3580 -1.3891  0.5499
  508SOL     OW 1522   1.302   0.763   1.666  0.0515  0.1684  0.3569
  508SOL    HW1 1523   1.210   0.813   1.668 -2.7726 -0.2465  0.2738
  508SOL    HW2 1524   1.377   0.821   1.704  0.7275  1.1409  0.0373
  509SOL     OW 1525   1.268   2.045   1.402  0.4211  0.6916 -0.0428
  509SOL    HW1 1526   1.296   2.029   1.303  2.7120 -5.0211 -2.2231
  509SOL    HW2 1527   1.346   2.013   1.460  3.2890 -2.8452  1.0422
  510SOL     OW 1528   2.458   1.550   2.152 -0.4754 -0.4465 -0.1147
  510SOL    HW1 1529   2.446   1.599   2.239  2.2909 -1.0345  0.4743
  510SOL    HW2 1530   2.390   1.477   2.145  0.0629  1.3032  1.8905
  511SOL     OW 1531   0.686   1.591   1.202 -0.0010 -0.2305 -0.3895
  511SOL    HW1 1532   0.616   1.543   1.148 -0.4278 -2.5615 -1.2089
  511SOL    HW2 1533   0.673   1.579   1.303  1.6674  1.3456 -1.3869
  512SOL     OW 1534   2.611   2.097   0.539 -0.6903  0.1490 -0.0273
  512SOL    HW1 1535   2.579   2.145   0.458  3.3850 -1.8530  0.0321
  512SOL    HW2 1536   2.561   2.014   0.560 -0.1667  1.4071 -0.2020
  513SOL     OW 1537   0.131   1.792   2.803  0.1242 -0.1832 -0.8509
  513SOL    HW1 1538   0.225   1.785   2.767  0.5450  0.1036 -3.8365
  513SOL    HW2 1539   0.117   1.778   2.903 -1.8606  1.2390  2.3710
  514SOL     OW 1540   0.017   2.436   2.207 -0.5251  0.2323  0.3828
  514SOL    HW1 1541   0.015   2.430   2.310  0.0739 -1.0534  0.2690
  514SOL    HW2 1542   0.109   2.460   2.170 -1.9653 -0.6320 -0.3293
  515SOL     OW 1543   2.135   1.439   1.279 -0.3387  0.5542  0.1295
  515SOL    HW1 1544   2.060   1.377   1.297 -1.8878  0.0615 -0.3822
  515SOL    HW2 1545   2.218   1.421   1.335  0.5358  0.8316 -0.5282
  516SOL     OW 1546   2.141   2.285   0.201  0.3823  0.4989  0.4536
  516SOL    HW1 1547   2.189   2.210   0.249  0.2228 -0.6023  2.0504
  516SOL    HW2 1548   2.120   2.260   0.101 -0.6456 -0.2992 -2.4264
  517SOL     OW 1549   1.210   0.929   3.065  0.1497  0.3654 -0.2815
  517SOL    HW1 1550   1.280   0.997   3.055 -2.9194 -2.8095 -0.0424
  517SOL    HW2 1551   1.118   0.966   3.039 -1.7275 -2.7622 -0.8446
  518SOL     OW 1552   0.011   2.959   2.191 -0.6829 -0.2834  0.7294
  518SOL    HW1 1553   0.005   2.951   2.292 -0.3755 -0.5079 -0.2455
  518SOL    HW2 1554   3.032   2.936   2.147 -0.0897 -0.2900 -0.1572
  519SOL     OW 1555   1.673   1.458   2.422 -0.8556  0.0684 -0.4596
  519SOL    HW1 1556   1.746   1.528   2.396  1.3908 -0.2013 -0.9343
  519SOL    HW2 1557   1.589   1.486   2.374  1.1643  0.4574 -0.5183
  520SOL     OW 1558   2.715   2.898   2.406 -0.0528  0.4933 -0.0340
  520SOL    HW1 1559   2.682   2.838   2.325  1.5060 -1.5437 -2.4869
  520SOL    HW2 1560   2.811   2.877   2.431 -2.7910 -0.7205  0.8656
  521SOL     OW 1561   0.157   1.778   1.803  0.5098 -0.0083  0.0024
  521SOL    HW1 1562   0.174   1.721   1.883 -0.3961  0.8731 -1.6744
  521SOL    HW2 1563   0.107   1.864   1.824  1.1282 -1.6007 -1.8119
  522SOL     OW 1564   1.063   2.643   1.693  0.3745  0.1187  0.4104
  522SOL    HW1 1565   0.983   2.581   1.677 -0.5073  0.4789 -0.2114
  522SOL    HW2 1566   1.026   2.737   1.717  0.4234  0.5156  1.5532
  523SOL     OW 1567   0.193   2.472   1.400  0.4480  0.7660  0.1158
  523SOL    HW1 1568   0.215   2.446   1.497  0.0056 -2.2598 -1.9609
  523SOL    HW2 1569   0.102   2.443   1.372  1.3010 -2.5239 -1.0761
  524SOL     OW 1570   1.378   2.553   0.757  0.8106 -0.5081 -0.0236
  524SOL    HW1 1571   1.450   2.581   0.821 -0.3583  0.8267 -2.0346
  524SOL    HW2 1572   1.387   2.452   0.730 -1.4764  1.9566 -1.2896
  525SOL     OW 1573   2.485   1.236   0.922  0.0280 -0.5211  0.3522
  525SOL    HW1 1574   2.540   1.290   0.989 -1.5094 -0.2269 -1.8858
  525SOL    HW2 1575   2.392   1.274   0.919 -0.2873  2.3698 -0.3823
  526SOL     OW 1576   0.891   2.337   0.716  0.6289  0.2197  0.0592
  526SOL    HW1 1577   0.802   2.300   0.676 -2.1787 -0.1548 -1.2412
  526SOL    HW2 1578   0.970   2.310   0.663 -3.2340 -2.9416  3.8101
  527SOL     OW 1579   2.526   2.043   0.860 -0.4104 -0.0686  0.1651
  527SOL    HW1 1580   2.456   2.072   0.922  0.3984  0.4393 -2.4451
  527SOL    HW2 1581   2.507   1.944   0.848 -0.1412  2.9636  0.4514
  528SOL     OW 1582   2.067   0.569   3.043 -0.5417  0.7614 -0.0492
  528SOL    HW1 1583   2.058   0.486   2.979 -0.3018  0.6273 -1.8022
  528SOL    HW2 1584   2.146   0.548   3.103 -2.2934  1.4620  1.0400
  529SOL     OW 1585   1.310   1.259   2.143  0.0588  0.3569  0.1540
  529SOL    HW1 1586   1.241   1.219   2.205 -1.7296  0.3264  3.9501
  529SOL    HW2 1587   1.313   1.362   2.159  0.0018  0.3886 -1.0601
  530SOL     OW 1588   2.539   1.125   2.463  0.1258  0.3392  0.0016
  530SOL    HW1 1589   2.590   1.157   2.383 -1.6879 -0.0389  0.5040
  530SOL    HW2 1590   2.510   1.027   2.444  0.7164 -1.7562 -2.0719
  531SOL     OW 1591   1.125   0.689   0.232 -0.4500  0.2754 -0.2673
  531SOL    HW1 1592   1.216   0.729   0.226  1.3077 -2.9609 -0.6330
  531SOL    HW2 1593   1.074   0.724   0.312 -1.0822 -0.9064 -0.8025
  532SOL     OW 1594   1.594   1.075   0.644 -0.0175  0.1372 -0.1988
  532SOL    HW1 1595   1.531   1.089   0.718  2.3765  0.7661 -2.0461
  532SOL    HW2 1596   1.545   1.047   0.562 -0.7825 -0.2465  1.9556
  533SOL     OW 1597   0.428   0.713   2.075  0.0472 -0.1604  0.3387
  533SOL    HW1 1598   0.343   0.703   2.020  0.3245 -0.3918 -0.6856
  533SOL    HW2 1599   0.459   0.622   2.113  2.3783 -1.1427  0.1292
  534SOL     OW 1600   1.609   0.307   2.584 -0.5669 -0.2026 -0.0014
  534SOL    HW1 1601   1.563   0.254   2.512  1.2945 -1.8275 -0.5149
  534SOL    HW2 1602   1.547   0.355   2.650 -0.3547 -3.0671  0.9657
  535SOL     OW 1603   0.687   0.163   0.513  0.0627  0.3658 -0.4310
  535SOL    HW1 1604   0.755   0.093   0.540 -1.5878  0.4652 -0.2820
  535SOL    HW2 1605   0.631   0.191   0.592 -1.6770  0.7772 -1.3800
  536SOL     OW 1606   1.090   0.301   0.965  0.2049 -0.3059  0.5839
  536SOL    HW1 1607   1.113   0.402   0.947 -0.3261  2.2260 -0.1939
  536SOL    HW2 1608   1.068   0.255   0.876 -0.0298  1.6749  1.9625
  537SOL     OW 1609   1.587   3.021   1.993 -0.1206 -0.1430  0.1658
  537SOL    HW1 1610   1.546   2.971   2.074 -0.3085  1.4690  0.5986
  537SOL    HW2 1611   1.590   2.967   1.909 -1.6747  3.0531  1.0153
  538SOL     OW 1612   0.338   2.675   3.075  0.0501  0.2648  0.1409
  538SOL    HW1 1613   0.331   2.590   3.023  1.2735  0.3947  2.0165
  538SOL    HW2 1614   0.373   2.752   3.016 -2.6013  3.0474  2.3791
  539SOL     OW 1615   2.915   1.773   1.699 -0.0643  0.3247 -0.0092
  539SOL    HW1 1616   2.999   1.786   1.647 -1.9342  2.3929  1.1241
  539SOL    HW2 1617   2.921   1.814   1.794  1.8399 -1.8721 -1.2714
  540SOL     OW 1618   2.690   2.478   2.105  0.3959  1.0733  0.2289
  540SOL    HW1 1619   2.715   2.482   2.002 -0.1399  0.6343 -1.0867
  540SOL    HW2 1620   2.631   2.396   2.123 -0.9123  2.1386  0.2071
  541SOL     OW 1621   0.360   2.878   1.580 -0.0199 -0.5139 -0.1007
  541SOL    HW1 1622   0.277   2.908   1.628  1.7053 -0.5570 -1.3630
  541SOL    HW2 1623   0.375   2.779   1.579 -0.5047 -2.2014  0.5426
  542SOL     OW 1624   2.934   0.547   2.085 -0.0670  0.0899 -1.0456
  542SOL    HW1 1625   2.890   0.494   2.161 -0.6920 -0.7670 -0.5053
  542SOL    HW2 1626   2.988   0.483   2.026  0.4568  0.5848 -1.0724
  543SOL     OW 1627   0.857   0.470   0.914  0.0098  0.1944 -1.0326
  543SOL    HW1 1628   0.903   0.380   0.920 -0.1154 -1.6648 -0.2285
  543SOL    HW2 1629   0.849   0.507   0.819  1.0225 -2.4731  1.9722
  544SOL     OW 1630   2.193   2.208   1.299 -0.8396  0.2326 -0.0505
  544SOL    HW1 1631   2.253   2.141   1.249 -2.0803  1.6034  0.8283
  544SOL    HW2 1632   2.216   2.308   1.277  0.2579 -1.4438 -0.9347
  545SOL     OW 1633   1.136   1.479   1.004 -0.1800 -0.2203 -0.0679
  545SOL    HW1 1634   1.228   1.525   1.016 -0.3053 -2.2410 -0.0631
  545SOL    HW2 1635   1.101   1.450   1.094 -0.0212  2.4565 -1.7806
  546SOL     OW 1636   2.923   0.347   2.299  0.0387  0.4190 -0.5248
  546SOL    HW1 1637   2.837   0.293   2.275 -2.3127 -1.4644  0.2468
  546SOL    HW2 1638   3.012   0.307   2.269  0.0138  1.6244  0.8479
  547SOL     OW 1639   2.827   0.485   2.948 -0.4029  0.3281 -0.0801
  547SOL    HW1 1640   2.767   0.428   2.891  1.1941 -2.6918 -1.2033
  547SOL    HW2 1641   2.919   0.448   2.948  0.6294  2.0577  1.4837
  548SOL     OW 1642   2.306   2.116   2.693  0.2012 -0.5254 -0.0382
  548SOL    HW1 1643   2.334   2.025   2.732  2.0812  0.7939  2.0092
  548SOL    HW2 1644   2.310   2.187   2.769  0.3514  1.1023  0.1821
  549SOL     OW 1645   2.031   0.579   0.822  0.2668 -0.4959 -0.0804
  549SOL    HW1 1646   1.982   0.666   0.844 -0.0798  1.4326 -1.0964
  549SOL    HW2 1647   1.978   0.504   0.861 -2.4612  2.3752  2.6227
  550SOL     OW 1648   2.568   1.362   0.269  0.2146 -0.3352 -0.1198
  550SOL    HW1 1649   2.493   1.309   0.319 -1.6133 -1.6541 -0.0523
  550SOL    HW2 1650   2.649   1.301   0.253 -1.6629 -0.5457  2.0098
  551SOL     OW 1651   1.423   2.443   1.371 -0.6263 -0.1085  0.4747
  551SOL    HW1 1652   1.471   2.423   1.278 -1.1027 -1.7617 -2.2694
  551SOL    HW2 1653   1.480   2.503   1.431 -0.4133 -1.7432 -1.4687
  552SOL     OW 1654   2.665   2.294   2.443 -0.0634 -0.0723  0.1746
  552SOL    HW1 1655   2.717   2.228   2.383  0.3846  2.3145 -2.0914
  552SOL    HW2 1656   2.713   2.382   2.428  0.4342 -1.2406 -1.7352
  553SOL     OW 1657   0.661   2.779   0.622  0.0218 -0.7263 -0.1506
  553SOL    HW1 1658   0.600   2.846   0.567 -3.5173  1.4458 -3.3051
  553SOL    HW2 1659   0.617   2.762   0.715  0.5859 -1.8515  0.1145
  554SOL     OW 1660   1.702   2.351   1.818  0.1218  0.4063 -0.3750
  554SOL    HW1 1661   1.636   2.277   1.832 -1.5874  2.7438 -0.5753
  554SOL    HW2 1662   1.777   2.338   1.894 -0.0978  0.2496  2.0855
  555SOL     OW 1663   1.510   2.544   2.047 -0.3676  0.0701 -0.7553
  555SOL    HW1 1664   1.458   2.464   2.081 -2.3890  2.6422  0.2521
  555SOL    HW2 1665   1.500   2.545   1.947 -0.2414 -0.1699  0.7116
  556SOL     OW 1666   1.583   0.617   0.826  0.2842 -0.4148  0.6757
  556SOL    HW1 1667   1.662   0.553   0.814  0.0828 -2.8035  1.0367
  556SOL    HW2 1668   1.499   0.589   0.778 -2.1143  3.6841  0.3405
  557SOL     OW 1669   0.997   2.033   1.450 -0.0415 -0.7532  0.1391
  557SOL    HW1 1670   1.102   2.044   1.443  3.7497  1.1471 -0.4214
  557SOL    HW2 1671   0.966   2.119   1.495  1.4315 -1.9127  0.6069
  558SOL     OW 1672   2.865   1.335   2.327 -0.0447 -0.4973  0.2663
  558SOL    HW1 1673   2.770   1.300   2.314 -0.9057 -0.3134  3.0166
  558SOL    HW2 1674   2.941   1.267   2.315 -0.2408 -0.2812 -1.1612
  559SOL     OW 1675   2.587   2.696   2.223 -0.3800  0.5156 -0.2157
  559SOL    HW1 1676   2.645   2.622   2.193 -0.2930  1.7930 -0.3500
  559SOL    HW2 1677   2.559   2.748   2.142 -2.2287 -0.0573  1.1766
  560SOL     OW 1678   0.372   0.133   2.744 -0.0124  0.4650 -0.1155
  560SOL    HW1 1679   0.393   0.114   2.652 -0.8136  1.8552 -0.4782
  560SOL    HW2 1680   0.452   0.122   2.807  0.6210  1.3835  2.5326
  561SOL     OW 1681   1.381   0.561   0.624  0.0460 -0.3406 -0.5985
  561SOL    HW1 1682   1.301   0.616   0.600  1.3890 -1.5117  1.0995
  561SOL    HW2 1683   1.368   0.468   0.587 -1.3800 -1.1671  2.7720
  562SOL     OW 1684   0.807   1.165   1.769 -0.2012  0.0429 -0.0160
  562SOL    HW1 1685   0.887   1.153   1.832  1.6098  0.8287 -0.8119
  562SOL    HW2 1686   0.725   1.142   1.829 -0.1908  1.7542  0.8854
  563SOL     OW 1687   1.879   1.968   0.042  0.3821 -0.3552 -0.2855
  563SOL    HW1 1688   1.793   1.955   3.093 -1.6478  0.0062  0.3245
  563SOL    HW2 1689   1.948   1.891   0.033 -0.7459  0.3153 -1.8043
  564SOL     OW 1690   3.032   2.316   0.400  0.1458  0.4934  0.4459
  564SOL    HW1 1691   2.984   2.233   0.426 -2.0042 -0.6968 -0.1074
  564SOL    HW2 1692   0.012   2.336   0.455  4.2573 -0.3749 -0.7605
  565SOL     OW 1693   0.445   2.856   2.883 -0.0077 -0.0823 -0.0884
  565SOL    HW1 1694   0.380   2.918   2.837 -0.3208  0.6898  1.8287
  565SOL    HW2 1695   0.515   2.825   2.814 -1.4072 -3.3370 -1.5134
  566SOL     OW 1696   1.456   2.708   2.993  0.3887 -0.2617  0.1343
  566SOL    HW1 1697   1.559   2.699   2.986  2.0560  0.8226  2.3113
  566SOL    HW2 1698   1.439   2.810   2.995  0.3557  1.3526 -0.1834
  567SOL     OW 1699   2.348   1.974   1.202  0.0823 -0.1751  0.0625
  567SOL    HW1 1700   2.448   1.982   1.197 -1.4572  0.0226  0.5368
  567SOL    HW2 1701   2.301   1.914   1.133  2.7656 -0.0972  0.3336
  568SOL     OW 1702   1.805   0.973   2.864  0.1788 -0.1891  0.3156
  568SOL    HW1 1703   1.892   0.926   2.886  1.4439 -0.0163  3.1457
  568SOL    HW2 1704   1.749   0.904   2.821  2.6887  2.7015 -0.6335
  569SOL     OW 1705   2.276   2.094   1.917  0.4243  0.3670 -0.0295
  569SOL    HW1 1706   2.311   2.029   1.985  1.4422  0.7236 -2.2310
  569SOL    HW2 1707   2.330   2.181   1.923  0.5548  0.9447  1.8685
  570SOL     OW 1708   2.893   2.797   1.718 -0.2359  0.1016 -0.2597
  570SOL    HW1 1709   2.931   2.884   1.684  1.6231 -2.1433  0.5073
  570SOL    HW2 1710   2.969   2.728   1.714  0.5485 -1.0663  1.0269
  571SOL     OW 1711   0.078   0.918   1.271  0.1816  0.0237  0.5764
  571SOL    HW1 1712   0.174   0.941   1.251 -0.5709 -1.2876  2.0419
  571SOL    HW2 1713   0.074   0.818   1.291  0.9420  0.2785 -0.5900
  572SOL     OW 1714   0.141   1.386   0.811 -0.2523 -0.5323  0.2731
  572SOL    HW1 1715   0.044   1.368   0.790  1.7749 -0.6504  0.4597
  572SOL    HW2 1716   0.187   1.302   0.840 -0.7157  1.4283 -4.3264
  573SOL     OW 1717   0.933   0.812   0.427 -0.8401 -0.4403  0.2250
  573SOL    HW1 1718   0.854   0.752   0.408  0.5529  0.2729  0.7632
  573SOL    HW2 1719   0.897   0.892   0.482  0.3427 -0.4346  1.6160
  574SOL     OW 1720   0.300   0.241   0.327  0.3493 -0.0364  0.4167
  574SOL    HW1 1721   0.383   0.290   0.332 -5.4051 -0.2020  2.2185
  574SOL    HW2 1722   0.255   0.252   0.419  1.1512 -0.4522 -1.3166
  575SOL     OW 1723   0.859   2.240   0.962  0.1866  0.2406  0.4502
  575SOL    HW1 1724   0.892   2.281   0.877 -0.9268 -0.1568  1.1409
  575SOL    HW2 1725   0.908   2.277   1.040 -1.6691 -0.3867 -1.5583
  576SOL     OW 1726   0.001   3.106   1.363  0.6391 -0.6481  0.6297
  576SOL    HW1 1727   3.020   0.030   1.404 -1.8579  0.1106 -0.3189
  576SOL    HW2 1728   0.012   0.019   1.262 -0.2587  0.5949 -0.3041
  577SOL     OW 1729   2.712   2.119   1.928  0.3623  0.5267 -0.2363
  577SOL    HW1 1730   2.662   2.133   2.016  1.5671 -0.8677  0.0937
  577SOL    HW2 1731   2.773   2.195   1.908 -2.4557  1.4708  1.3269
  578SOL     OW 1732   1.049   0.229   2.821  0.7667  0.1495 -0.1808
  578SOL    HW1 1733   0.979   0.196   2.757  0.7485  0.2591  0.5272
  578SOL    HW2 1734   1.069   0.154   2.886  1.7321 -1.4497 -2.1097
  579SOL     OW 1735   1.849   1.939   2.203 -0.0939  0.1305 -0.5346
  579SOL    HW1 1736   1.895   2.027   2.223 -1.7957 -0.0222 -2.1789
  579SOL    HW2 1737   1.843   1.931   2.104  0.1237 -1.1232  0.0683
  580SOL     OW 1738   1.798   0.789   2.130  0.6130 -0.1709 -0.3615
  580SOL    HW1 1739   1.851   0.832   2.206 -0.9267  0.4056 -0.8448
  580SOL    HW2 1740   1.801   0.686   2.130  0.5552  3.7118 -1.2323
  581SOL     OW 1741   1.097   1.223   2.334 -0.2820  0.0207 -0.1378
  581SOL    HW1 1742   1.149   1.263   2.418  0.3246  1.0779  1.5777
  581SOL    HW2 1743   1.049   1.134   2.359 -0.9298  1.6663 -1.7676
  582SOL     OW 1744   0.190   2.702   1.862 -0.3271 -0.4017 -0.2563
  582SOL    HW1 1745   0.286   2.676   1.835 -2.8358 -0.6418 -0.3822
  582SOL    HW2 1746   0.188   2.790   1.919 -3.0962 -0.7057 -1.3548
  583SOL     OW 1747   1.580   1.041   1.407  0.3419 -0.2459  0.3121
  583SOL    HW1 1748   1.621   1.059   1.316  1.5408  1.5965  2.9098
  583SOL    HW2 1749   1.536   1.122   1.445 -1.6747 -0.0066 -0.4650
  584SOL     OW 1750   1.204   1.957   2.744  0.3472  0.1296  0.4452
  584SOL    HW1 1751   1.278   1.893   2.751 -0.1959  1.1138 -0.5498
  584SOL    HW2 1752   1.233   2.057   2.748  1.8195  2.2185 -1.4051
  585SOL     OW 1753   0.070   2.356   0.185 -0.1692 -0.1848  0.0311
  585SOL    HW1 1754   0.026   2.354   0.093  1.7846  2.9773  2.8802
  585SOL    HW2 1755   3.106   2.333   0.257 -0.7608 -1.0783  0.6586
  586SOL     OW 1756   1.966   1.713   0.453  0.0890  0.6780 -0.1427
  586SOL    HW1 1757   1.966   1.661   0.364  0.3101  0.5633 -1.2640
  586SOL    HW2 1758   1.897   1.666   0.508  0.4528  1.5584 -3.5302
  587SOL     OW 1759   2.888   2.102   0.494  0.1570  0.2083  0.7988
  587SOL    HW1 1760   2.907   2.008   0.466  0.2397  0.6706 -0.3174
  587SOL    HW2 1761   2.790   2.121   0.479  1.9921  2.9207 -1.7644
  588SOL     OW 1762   2.167   0.363   0.989  0.4928 -0.2861  0.3145
  588SOL    HW1 1763   2.215   0.289   1.039  1.5726 -1.5574  0.9639
  588SOL    HW2 1764   2.087   0.322   0.937  2.2108  0.9059 -0.3251
  589SOL     OW 1765   0.862   0.750   0.947  0.0870  0.1670  0.0021
  589SOL    HW1 1766   0.948   0.772   0.904  0.9352 -2.5210  2.0864
  589SOL    HW2 1767   0.870   0.656   0.987  0.0848  2.1454  0.9907
  590SOL     OW 1768   2.355   2.420   0.051 -0.1250  0.3219  0.4850
  590SOL    HW1 1769   2.276   2.394   0.105  1.0673  0.2771 -0.4418
  590SOL    HW2 1770   2.443   2.371   0.076 -0.6856  1.2782  1.5370
  591SOL     OW 1771   0.638   2.342   1.810 -0.0001 -0.0943  0.2281
  591SOL    HW1 1772   0.683   2.260   1.846  1.9460 -0.3919 -0.0788
  591SOL    HW2 1773   0.605   2.317   1.716 -2.6839 -2.0647 -1.4603
  592SOL     OW 1774   0.718   1.242   1.390 -0.8735  0.8667 -0.3270
  592SOL    HW1 1775   0.799   1.246   1.456  1.5560 -1.4786 -2.1723
  592SOL    HW2 1776   0.748   1.263   1.299 -2.3063  0.2305  2.1699
  593SOL     OW 1777   0.997   1.845   1.278 -0.0790  0.1562 -0.2197
  593SOL    HW1 1778   1.064   1.768   1.274  1.2138  0.1835  1.9039
  593SOL    HW2 1779   1.022   1.916   1.344 -1.0744 -0.4164 -0.6761
  594SOL     OW 1780   0.847   0.906   2.625  0.6378 -0.3186 -0.1288
  594SOL    HW1 1781   0.900   0.822   2.650 -0.6011 -1.4476  0.7413
  594SOL    HW2 1782   0.840   0.977   2.695 -3.5231 -0.5898 -0.0554
  595SOL     OW 1783   1.606   0.483   1.144 -0.6424  0.0634  0.8649
  595SOL    HW1 1784   1.608   0.447   1.240 -1.2428 -0.3735 -0.1294
  595SOL    HW2 1785   1.628   0.583   1.142 -2.7365  0.9033  0.5059
  596SOL     OW 1786   0.305   1.161   0.884  0.0944  0.4341  0.1133
  596SOL    HW1 1787   0.398   1.148   0.849 -0.3412  3.0001 -0.4493
  596SOL    HW2 1788   0.254   1.070   0.880 -1.0836 -3.2772 -0.8454
  597SOL     OW 1789   0.215   2.139   2.826 -0.2252 -0.1150 -0.5851
  597SOL    HW1 1790   0.124   2.113   2.799  0.9108  2.3697  2.8117
  597SOL    HW2 1791   0.242   2.073   2.899 -1.1997 -2.4791  1.0846
  598SOL     OW 1792   2.049   2.067   2.627  0.8600  0.1308  0.0099
  598SOL    HW1 1793   1.995   2.144   2.590  0.6351  1.0690 -3.0172
  598SOL    HW2 1794   2.152   2.089   2.623  0.2528  0.1138 -1.4361
  599SOL     OW 1795   1.608   0.703   0.536 -0.4243  0.2194 -0.0954
  599SOL    HW1 1796   1.525   0.650   0.573 -1.0313 -0.0275  0.5257
  599SOL    HW2 1797   1.695   0.673   0.575 -1.4106  1.4505  0.5508
  600SOL     OW 1798   0.907   0.010   0.565  0.0577  0.5589  0.1253
  600SOL    HW1 1799   0.922   3.043   0.638 -0.2314 -0.4541  1.1677
  600SOL    HW2 1800   0.957   3.094   0.478  2.1442  1.6836  0.3403
  601SOL     OW 1801   0.368   0.481   1.305  0.2461 -0.6820  0.4694
  601SOL    HW1 1802   0.359   0.450   1.205 -1.4475  0.5302 -1.7964
  601SOL    HW2 1803   0.414   0.410   1.360  1.7570  0.6797 -1.9394
  602SOL     OW 1804   0.122   3.049   0.698 -0.7045  1.0644  0.5007
  602SOL    HW1 1805   0.034   3.072   0.744  0.6227 -0.4445  3.4564
  602SOL    HW2 1806   0.133   2.946   0.695  0.3831 -1.9242  1.2904
  603SOL     OW 1807   0.704   2.630   2.442 -0.0039 -0.1285  0.0181
  603SOL    HW1 1808   0.775   2.634   2.366 -0.0197 -0.3624 -1.8366
  603SOL    HW2 1809   0.638   2.558   2.427  2.7319  0.3989 -2.9270
  604SOL     OW 1810   1.100   2.658   3.095  0.2386 -0.1715 -0.3303
  604SOL    HW1 1811   1.036   2.614   0.059  0.4771 -4.6021 -3.9461
  604SOL    HW2 1812   1.102   2.598   3.011 -1.0447 -0.3848  0.5003
  605SOL     OW 1813   1.065   0.867   1.720 -0.6165 -0.1027  0.2155
  605SOL    HW1 1814   1.004   0.835   1.795  3.6476  0.3523 -2.3248
  605SOL    HW2 1815   1.050   0.963   1.694  0.1541 -1.5462  0.0282
  606SOL     OW 1816   1.304   0.221   2.669 -0.0254  0.4387  0.4504
  606SOL    HW1 1817   1.219   0.219   2.731 -2.0599  0.8896  2.3522
  606SOL    HW2 1818   1.372   0.297   2.695  2.0527 -1.7311  1.4625
  607SOL     OW 1819   0.248   1.298   1.102  0.4435  0.5783  0.6484
  607SOL    HW1 1820   0.288   1.284   1.199 -1.5501  0.7770  1.0503
  607SOL    HW2 1821   0.277   1.228   1.034  0.3097 -0.9991 -1.8143
  608SOL     OW 1822   2.851   2.115   2.329  0.1311  0.5231 -0.3168
  608SOL    HW1 1823   2.869   2.146   2.234  1.2221  0.3991  1.5558
  608SOL    HW2 1824   2.939   2.090   2.372 -0.6864  1.4736 -1.5047
  609SOL     OW 1825   1.951   0.368   0.156 -0.1644  0.2187  0.1112
  609SOL    HW1 1826   2.012   0.316   0.096 -1.6951  3.1907 -0.6595
  609SOL    HW2 1827   1.983   0.466   0.157  1.0912  1.8091 -1.2872
  610SOL     OW 1828   0.830   2.712   1.132  0.0727 -0.1229  0.0058
  610SOL    HW1 1829   0.821   2.785   1.059 -0.6424  0.2171 -0.9268
  610SOL    HW2 1830   0.928   2.716   1.164 -0.6606 -0.5397  2.2272
  611SOL     OW 1831   0.579   1.248   0.428 -0.3066  0.0383 -0.0269
  611SOL    HW1 1832   0.608   1.342   0.395  1.2039 -1.2000 -1.5948
  611SOL    HW2 1833   0.589   1.177   0.357  0.0461 -1.7434  3.4195
  612SOL     OW 1834   0.790   0.162   2.252 -0.0526 -0.0898 -0.5206
  612SOL    HW1 1835   0.721   0.198   2.317  0.6626  0.0700 -3.0810
  612SOL    HW2 1836   0.874   0.220   2.265 -1.7636 -1.0076  1.6539
  613SOL     OW 1837   2.347   1.256   0.369  0.0876  0.2658  0.3978
  613SOL    HW1 1838   2.297   1.290   0.453 -1.9963  1.1841 -0.2986
  613SOL    HW2 1839   2.285   1.200   0.314 -1.6736  0.0864  1.0444
  614SOL     OW 1840   1.760   0.447   1.814 -0.1409  0.3286 -0.0125
  614SOL    HW1 1841   1.673   0.487   1.851  1.6910 -0.3420  0.2705
  614SOL    HW2 1842   1.844   0.498   1.846 -0.7757 -0.5935  2.9589
  615SOL     OW 1843   0.836   1.976   0.864  0.0473 -0.5520  0.0909
  615SOL    HW1 1844   0.829   1.922   0.952 -1.3784  1.4911  1.4924
  615SOL    HW2 1845   0.817   2.073   0.890 -0.1335  1.0348  0.8044
  616SOL     OW 1846   1.401   1.123   2.538 -0.2009 -0.0486  0.3374
  616SOL    HW1 1847   1.475   1.088   2.478  4.3038  2.5643  1.7602
  616SOL    HW2 1848   1.368   1.040   2.592 -0.7549 -1.1352 -1.8569
  617SOL     OW 1849   1.791   2.709   0.428  0.4994 -0.0897  0.5076
  617SOL    HW1 1850   1.730   2.735   0.347 -3.0488 -1.5681 -2.8324
  617SOL    HW2 1851   1.871   2.646   0.412  1.8418 -0.3370 -0.1845
  618SOL     OW 1852   0.967   0.736   0.035 -0.1681 -0.7125  0.6275
  618SOL    HW1 1853   0.955   0.839   0.028 -0.4408 -1.3664 -2.5814
  618SOL    HW2 1854   1.025   0.718   0.114 -0.4978  1.5795 -0.3983
  619SOL     OW 1855   2.668   1.451   0.570 -0.0400  0.1392  0.0514
  619SOL    HW1 1856   2.697   1.497   0.483 -1.3300  2.2861 -1.4525
  619SOL    HW2 1857   2.686   1.356   0.583 -0.6713 -0.7638 -0.4902
  620SOL     OW 1858   2.403   2.906   3.001 -0.3068  0.2534  1.0055
  620SOL    HW1 1859   2.443   2.827   3.044 -0.7256  0.6218 -1.9846
  620SOL    HW2 1860   2.338   2.884   2.923 -1.3104  0.5726 -0.5514
  621SOL     OW 1861   2.173   1.156   0.177  0.2806  0.1679  0.0146
  621SOL    HW1 1862   2.130   1.076   0.132 -2.8547  2.0338 -0.3514
  621SOL    HW2 1863   2.120   1.238   0.159 -0.4231 -3.0143 -1.2993
  622SOL     OW 1864   0.985   2.226   2.407 -0.0723 -0.4145  0.1861
  622SOL    HW1 1865   1.024   2.144   2.451 -1.1341  3.2764 -4.8651
  622SOL    HW2 1866   0.964   2.194   2.314 -0.9237  3.3425 -1.2137
  623SOL     OW 1867   0.515   1.593   3.056  0.4353  0.1653 -0.4652
  623SOL    HW1 1868   0.578   1.649   3.004 -0.0777  0.7684  3.4656
  623SOL    HW2 1869   0.424   1.591   3.018  3.4311 -1.0067 -0.4435
  624SOL     OW 1870   0.225   3.022   2.812  0.5940  0.4656 -0.3674
  624SOL    HW1 1871   0.271   0.001   2.781 -1.2598  1.6458  0.2121
  624SOL    HW2 1872   0.167   3.049   2.893 -2.4159 -1.1182 -2.3610
  625SOL     OW 1873   0.722   2.003   0.178 -0.1404  0.1131  0.0116
  625SOL    HW1 1874   0.726   2.062   0.096  0.1873  1.6199  1.1781
  625SOL    HW2 1875   0.625   1.979   0.203 -0.9258  2.3567  2.9900
  626SOL     OW 1876   2.392   0.348   0.107  0.1219 -0.2377  0.1738
  626SOL    HW1 1877   2.447   0.269   0.083 -3.3103 -0.1756 -0.8838
  626SOL    HW2 1878   2.438   0.408   0.176  1.2099 -1.6862 -0.7124
  627SOL     OW 1879   1.257   0.921   2.666  0.2487  0.2286 -0.2300
  627SOL    HW1 1880   1.206   0.995   2.716 -0.7484 -0.7134  0.7034
  627SOL    HW2 1881   1.221   0.831   2.698  2.5782  1.0411 -1.3494
  628SOL     OW 1882   0.952   0.599   2.481 -0.3246  0.3704  0.4620
  628SOL    HW1 1883   0.978   0.559   2.571 -2.0052  0.9753 -0.4743
  628SOL    HW2 1884   0.855   0.626   2.471  1.2528  0.4229 -0.7796
  629SOL     OW 1885   0.474   3.064   2.088  0.0401 -0.4620 -0.2281
  629SOL    HW1 1886   0.505   2.979   2.124 -0.4121  1.8557  2.7110
  629SOL    HW2 1887   0.484   3.076   1.986  0.6260 -0.1687  2.9255
  630SOL     OW 1888   2.401   1.035   1.696 -0.4628 -0.1957 -0.3723
  630SOL    HW1 1889   2.373   1.120   1.753 -1.4191  3.3038  2.1853
  630SOL    HW2 1890   2.328   0.964   1.699  2.1395  0.5312  1.0481
  631SOL     OW 1891   2.174   1.127   0.601 -0.3325  0.3102  0.4482
  631SOL    HW1 1892   2.096   1.066   0.587  1.7470 -1.7331 -2.1297
  631SOL    HW2 1893   2.262   1.071   0.597  2.6368  1.9871 -1.2731
  632SOL     OW 1894   2.464   0.562   1.732 -0.9435  0.2643 -0.1485
  632SOL    HW1 1895   2.490   0.659   1.718 -0.3219 -0.5482 -1.7869
  632SOL    HW2 1896   2.515   0.496   1.668  1.3815  0.6529 -2.1937
  633SOL     OW 1897   0.803   2.850   0.316  0.1737 -0.7716  0.1539
  633SOL    HW1 1898   0.750   2.786   0.255  0.8952 -0.4998 -1.8205
  633SOL    HW2 1899   0.843   2.795   0.392 -0.9648 -1.1793 -0.6798
  634SOL     OW 1900   1.636   3.028   0.051  0.3397 -0.2061  0.2246
  634SOL    HW1 1901   1.586   2.988   0.132  3.5407 -1.8270 -0.1965
  634SOL    HW2 1902   1.719   2.982   0.033 -2.1141 -0.3556 -0.8648
  635SOL     OW 1903   2.791   0.460   0.237  0.3777 -0.0740 -0.0903
  635SOL    HW1 1904   2.841   0.535   0.193  0.5480  0.3119  0.8414
  635SOL    HW2 1905   2.699   0.490   0.271  2.4298 -0.9236 -0.1156
  636SOL     OW 1906   0.536   1.620   0.727 -0.4812 -0.3170  0.1305
  636SOL    HW1 1907   0.601   1.692   0.703 -0.4833  0.2447 -2.3073
  636SOL    HW2 1908   0.563   1.529   0.682  1.5039 -2.0426  0.9425
  637SOL     OW 1909   0.347   2.644   0.473 -0.0478  0.3701 -0.0464
  637SOL    HW1 1910   0.333   2.623   0.374 -1.6122  0.9011 -0.4971
  637SOL    HW2 1911   0.264   2.636   0.524  1.7516  0.3460 -1.0291
  638SOL     OW 1912   2.993   2.735   0.478  0.1341 -0.5190 -0.1623
  638SOL    HW1 1913   2.993   2.769   0.382  0.0679  1.2636 -1.4980
  638SOL    HW2 1914   3.086   2.712   0.516  1.8445 -0.9474 -1.8730
  639SOL     OW 1915   1.183   1.513   0.225 -0.0888 -0.2530 -0.4372
  639SOL    HW1 1916   1.205   1.433   0.169 -1.4518  1.0836  1.4906
  639SOL    HW2 1917   1.254   1.589   0.225  2.7911 -0.0269 -3.0700
  640SOL     OW 1918   1.365   2.206   0.974 -0.0612 -0.5926 -0.1878
  640SOL    HW1 1919   1.398   2.289   1.031  3.8370  3.4242  1.4433
  640SOL    HW2 1920   1.376   2.225   0.877  0.7679  1.5271 -1.3676
  641SOL     OW 1921   2.899   2.770   0.906 -0.4540 -0.8475  0.1729
  641SOL    HW1 1922   2.840   2.695   0.864 -1.5887 -0.5618  0.5949
  641SOL    HW2 1923   2.869   2.789   1.000 -2.2824  2.5996 -1.7017
  642SOL     OW 1924   0.953   2.879   1.761 -0.1243 -0.0481 -0.2808
  642SOL    HW1 1925   0.898   2.967   1.761  0.3106 -1.9601 -0.0803
  642SOL    HW2 1926   1.045   2.890   1.811  2.7453 -2.6562  0.9936
  643SOL     OW 1927   0.736   2.289   2.489 -0.1257 -0.2950 -0.1145
  643SOL    HW1 1928   0.839   2.277   2.488  0.1960  3.5310 -2.7387
  643SOL    HW2 1929   0.689   2.296   2.582 -1.7810 -1.6449  0.3034
  644SOL     OW 1930   0.932   2.751   0.596 -0.3870 -0.2437 -0.9062
  644SOL    HW1 1931   0.987   2.806   0.664  0.9628  1.5422  3.2072
  644SOL    HW2 1932   0.834   2.743   0.620  2.8067  0.8495  2.0085
  645SOL     OW 1933   1.186   1.605   2.200  0.4901  0.2126  0.2826
  645SOL    HW1 1934   1.104   1.555   2.165 -0.9704 -0.6543 -1.0162
  645SOL    HW2 1935   1.165   1.618   2.300 -0.5015 -1.0247 -0.0472
  646SOL     OW 1936   0.538   0.972   0.389 -0.2826  0.5094  0.2434
  646SOL    HW1 1937   0.626   0.950   0.440  3.4946 -0.2425  2.1519
  646SOL    HW2 1938   0.475   1.035   0.434  0.4040 -0.2058  0.2540
  647SOL     OW 1939   1.409   0.170   0.893 -0.0218  0.5412  0.1830
  647SOL    HW1 1940   1.396   0.124   0.985 -0.6589 -2.2693 -0.6756
  647SOL    HW2 1941   1.505   0.155   0.851  1.9173 -1.6364 -0.2770
  648SOL     OW 1942   2.501   2.643   1.393  0.4092 -0.2077  0.0007
  648SOL    HW1 1943   2.540   2.718   1.442 -3.0271 -2.0400 -3.1244
  648SOL    HW2 1944   2.547   2.558   1.419 -2.6006  3.8590  1.2464
  649SOL     OW 1945   0.682   2.135   3.031  0.8758  0.4756 -0.9315
  649SOL    HW1 1946   0.684   2.221   3.087 -1.1838 -1.9295 -0.9658
  649SOL    HW2 1947   0.738   2.142   2.953 -2.3173  1.4644  1.9647
  650SOL     OW 1948   2.930   2.147   1.400  0.1868  0.2303 -0.0413
  650SOL    HW1 1949   2.964   2.234   1.356 -0.4943  1.6950 -1.9807
  650SOL    HW2 1950   2.832   2.170   1.432  1.4255  3.4674  1.7253
  651SOL     OW 1951   0.043   3.083   2.988  0.0770 -0.1352 -0.1233
  651SOL    HW1 1952   3.061   3.059   2.941  1.3352  0.5926  0.0801
  651SOL    HW2 1953   0.026   0.060   3.046 -0.7649  1.0269 -1.0301
  652SOL     OW 1954   2.258   1.933   0.079  0.2039 -0.1909 -0.5469
  652SOL    HW1 1955   2.232   2.013   0.023  0.4434  2.5985  0.3288
  652SOL    HW2 1956   2.235   1.956   0.175 -2.5366 -0.5365  0.9001
  653SOL     OW 1957   0.322   0.354   1.059  0.1593 -0.3295 -0.2745
  653SOL    HW1 1958   0.415   0.359   1.011  4.4501 -1.0736  1.2924
  653SOL    HW2 1959   0.315   0.274   1.123  1.0177 -0.3239  0.6667
  654SOL     OW 1960   1.299   3.004   0.249 -0.1254  0.0432  0.7699
  654SOL    HW1 1961   1.272   2.937   0.322  0.5279 -1.1746  0.3949
  654SOL    HW2 1962   1.375   3.060   0.284 -1.3031  1.2838  0.6278
  655SOL     OW 1963   0.611   2.591   1.013 -0.0115  0.2539  0.8594
  655SOL    HW1 1964   0.605   2.491   1.031  1.1935  2.5487 -1.0430
  655SOL    HW2 1965   0.689   2.639   1.055 -0.5963 -1.3101  1.5984
  656SOL     OW 1966   0.519   2.828   2.190  0.2436  0.0011  0.3221
  656SOL    HW1 1967   0.498   2.728   2.174  2.3638 -1.1891  0.8648
  656SOL    HW2 1968   0.541   2.849   2.287  0.8714  0.0490 -0.4050
  657SOL     OW 1969   1.743   0.625   2.434  0.9510 -0.2453  0.5121
  657SOL    HW1 1970   1.785   0.586   2.348  0.7034 -0.0514 -0.5330
  657SOL    HW2 1971   1.808   0.626   2.513 -3.5917 -0.5129 -2.2103
  658SOL     OW 1972   2.181   1.827   1.023 -0.4543 -0.2321 -0.2773
  658SOL    HW1 1973   2.079   1.829   1.019  2.2136  0.1157 -0.0903
  658SOL    HW2 1974   2.219   1.731   1.010  2.4067 -2.9364 -1.1515
  659SOL     OW 1975   2.775   2.807   0.090  0.1987  0.8544 -0.1893
  659SOL    HW1 1976   2.864   2.799   0.138  1.3968 -1.4802  0.7725
  659SOL    HW2 1977   2.724   2.882   0.136  0.2602  0.2002 -1.0501
  660SOL     OW 1978   1.507   0.611   0.120 -0.0025  0.1055  0.6105
  660SOL    HW1 1979   1.540   0.682   0.058 -1.0901 -0.6902  0.7380
  660SOL    HW2 1980   1.461   0.647   0.206  1.4272  0.5282  1.3176
  661SOL     OW 1981   2.529   2.713   0.987  0.2886 -0.4046  0.0706
  661SOL    HW1 1982   2.540   2.682   0.888  1.7537  2.6484 -0.8300
  661SOL    HW2 1983   2.611   2.684   1.041 -0.5608  0.1364 -0.3376
  662SOL     OW 1984   0.667   0.448   0.510 -0.6652 -0.3477  1.0181
  662SOL    HW1 1985   0.701   0.357   0.479  0.9747 -1.3837  0.4989
  662SOL    HW2 1986   0.566   0.444   0.508 -1.2444  0.1061  0.9004
  663SOL     OW 1987   1.386   2.467   2.617  0.7514 -0.0545 -0.1250
  663SOL    HW1 1988   1.474   2.513   2.583 -0.3417  1.7054  0.1190
  663SOL    HW2 1989   1.313   2.494   2.553 -0.8080 -0.7870 -1.0214
  664SOL     OW 1990   0.754   2.193   1.339  0.1415 -0.2514  0.1467
  664SOL    HW1 1991   0.850   2.214   1.305  0.9671 -0.1149 -0.6499
  664SOL    HW2 1992   0.682   2.240   1.279 -0.6979  0.7104 -1.2994
  665SOL     OW 1993   1.414   1.705   1.641  0.6840 -0.2940  0.1248
  665SOL    HW1 1994   1.407   1.749   1.734  1.8746  0.2612  1.2968
  665SOL    HW2 1995   1.327   1.660   1.610  1.4794 -2.0436 -2.2957
  666SOL     OW 1996   0.267   2.564   0.216  0.5158  0.5700 -0.0571
  666SOL    HW1 1997   0.270   2.572   0.117  1.9715  0.0277  0.7897
  666SOL    HW2 1998   0.199   2.490   0.242 -1.4513 -1.0410  0.2600
  667SOL     OW 1999   1.775   1.282   1.452  0.4571 -0.3358 -0.2323
  667SOL    HW1 2000   1.820   1.312   1.537 -2.3466 -1.7656 -1.7535
  667SOL    HW2 2001   1.671   1.269   1.463 -0.9365 -1.6647  1.9582
  668SOL     OW 2002   0.369   0.195   2.241 -0.3140  0.5778 -0.3371
  668SOL    HW1 2003   0.424   0.268   2.197 -3.2240 -1.0880  0.6106
  668SOL    HW2 2004   0.388   0.114   2.181  0.4211  1.1101 -0.1129
  669SOL     OW 2005   2.298   2.504   2.134  0.6646  0.4775 -0.1780
  669SOL    HW1 2006   2.282   2.572   2.060 -1.7965  0.4957 -1.9410
  669SOL    HW2 2007   2.303   2.542   2.225  0.0040  1.2207 -0.2496
  670SOL     OW 2008   2.252   2.016   0.328 -0.0743  0.1699  0.1536
  670SOL    HW1 2009   2.279   1.958   0.407  0.1131  2.0082  1.7459
  670SOL    HW2 2010   2.327   2.084   0.314 -3.2232 -0.6644 -0.2808
  671SOL     OW 2011   1.154   1.035   1.211  0.4067 -0.2057 -0.0149
  671SOL    HW1 2012   1.087   1.050   1.137 -0.6163 -3.3069  0.2733
  671SOL    HW2 2013   1.134   0.954   1.269 -1.1617 -0.6535  0.9497
  672SOL     OW 2014   2.699   1.620   2.045 -0.4315 -0.0506 -0.4906
  672SOL    HW1 2015   2.773   1.663   2.108  3.5644  3.1928  0.8517
  672SOL    HW2 2016   2.610   1.597   2.102 -3.0292 -1.0573  1.0087
  673SOL     OW 2017   2.924   1.715   2.189 -0.2480  0.9033 -0.2227
  673SOL    HW1 2018   2.903   1.735   2.288  1.2269 -1.2410 -0.3502
  673SOL    HW2 2019   2.999   1.646   2.174 -0.2784 -2.3802 -1.4445
  674SOL     OW 2020   1.031   2.838   2.473  0.7422 -0.1479 -0.0945
  674SOL    HW1 2021   0.963   2.914   2.460  0.3619 -0.9675  0.5529
  674SOL    HW2 2022   1.122   2.881   2.485 -2.1221 -0.2797  0.4678
  675SOL     OW 2023   0.576   0.869   1.492 -0.1388 -0.0739 -0.0023
  675SOL    HW1 2024   0.593   0.809   1.414 -0.2614  0.2675  1.5272
  675SOL    HW2 2025   0.661   0.880   1.555  3.2118 -0.6651 -0.6580
  676SOL     OW 2026   1.889   0.612   0.487 -0.2277  0.2650 -0.3091
  676SOL    HW1 2027   1.848   0.548   0.562 -0.0220  0.7615 -0.9387
  676SOL    HW2 2028   1.954   0.673   0.528  0.1716 -1.1491 -0.0043
  677SOL     OW 2029   2.840   1.732   2.928 -0.5342  0.0080 -0.7382
  677SOL    HW1 2030   2.833   1.632   2.942 -0.6077  0.6297 -2.7627
  677SOL    HW2 2031   2.839   1.750   2.829 -0.8224 -1.1833  3.3530
  678SOL     OW 2032   3.084   3.089   1.041 -0.3354 -0.2844  0.1228
  678SOL    HW1 2033   3.024   3.099   0.960  2.4283 -1.6489  0.4747
  678SOL    HW2 2034   0.057   3.028   1.018  0.6029  0.3607 -2.0164
  679SOL     OW 2035   2.185   0.127   0.293  0.3480  0.1719  0.2627
  679SOL    HW1 2036   2.173   0.158   0.196 -0.3257  0.6887  1.1988
  679SOL    HW2 2037   2.125   0.191   0.345  0.9561 -0.1809  0.0722
  680SOL     OW 2038   0.415   2.155   2.197  0.2426 -0.3567 -0.0889
  680SOL    HW1 2039   0.489   2.226   2.213  0.5218  0.5503  0.5157
  680SOL    HW2 2040   0.468   2.073   2.167 -0.0493  2.2787  2.3062
  681SOL     OW 2041   2.928   1.832   1.024 -0.4629 -0.5649 -0.4415
  681SOL    HW1 2042   2.876   1.922   1.035 -0.4713  0.9127  0.5304
  681SOL    HW2 2043   3.028   1.840   1.035 -0.2494  1.6834 -1.9621
  682SOL     OW 2044   0.368   2.190   1.738 -0.1415 -0.5507  0.2731
  682SOL    HW1 2045   0.386   2.193   1.838 -2.5961 -1.1554  2.0587
  682SOL    HW2 2046   0.384   2.100   1.696  0.6589  1.3245 -0.7624
  683SOL     OW 2047   0.001   2.097   1.589 -0.8611  0.3387 -0.0771
  683SOL    HW1 2048   3.029   2.120   1.527 -0.0998 -0.2708  0.5991
  683SOL    HW2 2049   0.023   2.000   1.578 -0.0015  1.8082 -1.6888
  684SOL     OW 2050   2.613   1.706   2.648 -0.1407  0.4760 -0.7294
  684SOL    HW1 2051   2.699   1.663   2.613 -2.0696 -0.7477 -1.3097
  684SOL    HW2 2052   2.535   1.640   2.649 -0.6961 -1.7492 -0.1504
  685SOL     OW 2053   1.511   1.240   0.227 -0.0251 -0.0289 -0.1634
  685SOL    HW1 2054   1.492   1.239   0.327 -1.2790 -0.3926 -1.1679
  685SOL    HW2 2055   1.544   1.334   0.195  1.2495  2.2546 -4.1470
  686SOL     OW 2056   0.572   0.206   0.742 -0.2782 -0.7463 -0.5041
  686SOL    HW1 2057   0.547   0.295   0.788  1.2990  2.9422 -0.5014
  686SOL    HW2 2058   0.487   0.151   0.728  1.3390 -0.7625 -1.7763
  687SOL     OW 2059   1.221   1.320   2.556  0.1669 -0.1418  0.2204
  687SOL    HW1 2060   1.202   1.323   2.654 -0.1625  0.6981 -0.2642
  687SOL    HW2 2061   1.299   1.255   2.541 -1.1252  3.7980 -0.4194
  688SOL     OW 2062   1.196   1.561   1.546 -0.3369 -0.0990 -0.7668
  688SOL    HW1 2063   1.207   1.589   1.450  1.8157 -3.2163  4.1483
  688SOL    HW2 2064   1.104   1.588   1.582  0.7904 -0.3625 -0.0193
  689SOL     OW 2065   2.294   0.468   1.286  0.0023  1.0533  0.2855
  689SOL    HW1 2066   2.296   0.374   1.247  0.2959  0.4287  0.4402
  689SOL    HW2 2067   2.208   0.483   1.333  0.2865  2.7441 -0.5452
  690SOL     OW 2068   2.886   1.373   0.983 -0.4897 -0.7450  0.0034
  690SOL    HW1 2069   2.973   1.378   1.040 -1.4905  0.4254  2.2953
  690SOL    HW2 2070   2.904   1.344   0.885 -0.6259 -0.4668 -2.4916
  691SOL     OW 2071   0.594   2.345   1.162  0.5125  0.2305 -0.1838
  691SOL    HW1 2072   0.591   2.283   1.079 -0.6492 -0.4611 -1.5119
  691SOL    HW2 2073   0.518   2.326   1.226 -0.4366 -1.1732  3.3314
  692SOL     OW 2074   2.461   0.378   1.504 -0.0735  0.1826  0.0174
  692SOL    HW1 2075   2.427   0.433   1.423 -0.0182  2.6548 -0.0255
  692SOL    HW2 2076   2.381   0.350   1.557  0.3483  0.6395  3.8084
  693SOL     OW 2077   0.185   1.651   2.049 -0.5508 -0.0471  0.0179
  693SOL    HW1 2078   0.167   1.571   2.108 -0.4479 -0.1486 -1.9076
  693SOL    HW2 2079   0.125   1.730   2.074 -0.3003 -1.9579 -0.6769
  694SOL     OW 2080   1.755   1.494   1.718  0.4023  0.4179 -0.0884
  694SOL    HW1 2081   1.658   1.467   1.748 -0.6202  2.3084  0.0077
  694SOL    HW2 2082   1.817   1.417   1.704  1.2173 -1.6316 -0.8221
  695SOL     OW 2083   0.633   0.758   1.228 -0.6214 -0.1837  0.1397
  695SOL    HW1 2084   0.647   0.846   1.180 -0.2741  0.9333 -0.8500
  695SOL    HW2 2085   0.712   0.694   1.222 -2.5623 -0.1616  0.7164
  696SOL     OW 2086   1.845   3.062   0.881  0.4608 -0.0707  0.0283
  696SOL    HW1 2087   1.908   0.008   0.940 -0.7784  1.1116 -1.1642
  696SOL    HW2 2088   1.884   2.971   0.860 -1.6406 -2.1846  0.0234
  697SOL     OW 2089   1.156   0.296   1.402 -0.3166  0.1337  0.6851
  697SOL    HW1 2090   1.108   0.297   1.491  0.8661  1.3095 -2.0170
  697SOL    HW2 2091   1.093   0.265   1.329  1.9973 -1.4798 -0.0097
  698SOL     OW 2092   1.568   1.210   2.043 -0.2821  0.1255  0.6819
  698SOL    HW1 2093   1.478   1.228   2.091 -2.5078 -0.6746  2.0800
  698SOL    HW2 2094   1.642   1.228   2.110 -0.3554  0.6303 -0.9329
  699SOL     OW 2095   1.838   0.685   1.386  0.5651 -0.9498  0.2498
  699SOL    HW1 2096   1.743   0.725   1.377  0.1783  2.1443  0.8737
  699SOL    HW2 2097   1.897   0.729   1.319 -0.3586 -0.7371  1.2420
  700SOL     OW 2098   0.945   2.514   0.161  0.2913  0.3491 -0.0125
  700SOL    HW1 2099   0.979   2.513   0.258  2.3423  2.0399  1.0671
  700SOL    HW2 2100   0.997   2.440   0.112  1.8291 -0.4411  0.2442
  701SOL     OW 2101   2.294   2.334   2.881  0.3662 -0.3305 -0.6895
  701SOL    HW1 2102   2.282   2.419   2.835 -2.6392 -0.9209  0.2501
  701SOL    HW2 2103   2.314   2.354   2.977 -0.8901  1.2764 -1.4523
  702SOL     OW 2104   0.624   0.118   1.091  0.2139 -0.1464 -0.1224
  702SOL    HW1 2105   0.621   0.194   1.159  1.2041 -0.4397 -2.3575
  702SOL    HW2 2106   0.704   0.121   1.031  0.2959  1.6824 -2.2340
  703SOL     OW 2107   2.368   0.064   2.333  0.1113  0.3617 -0.7543
  703SOL    HW1 2108   2.289   0.027   2.283  0.9270 -0.3159  1.1868
  703SOL    HW2 2109   2.457   0.044   2.285  0.4714 -0.0264 -1.6549
  704SOL     OW 2110   2.850   2.520   0.415 -0.1144  0.1807  0.1990
  704SOL    HW1 2111   2.891   2.608   0.448  1.4592  1.7583 -2.2425
  704SOL    HW2 2112   2.922   2.452   0.409 -1.6661  0.8008  1.8126
  705SOL     OW 2113   2.903   2.852   2.067 -0.0641  0.1424 -0.1604
  705SOL    HW1 2114   2.801   2.843   2.080 -0.3824 -1.5695 -0.8000
  705SOL    HW2 2115   2.944   2.764   2.039 -0.1926  0.5207 -1.0293
  706SOL     OW 2116   2.233   2.905   1.300  0.3144  0.0859 -0.9074
  706SOL    HW1 2117   2.205   2.812   1.329  0.5510 -0.1619 -0.2600
  706SOL    HW2 2118   2.329   2.911   1.262 -1.7213  1.1049 -1.4918
  707SOL     OW 2119   0.934   2.610   2.291  0.1139  0.0308  0.0269
  707SOL    HW1 2120   0.991   2.533   2.257  0.4781  1.7858  2.9651
  707SOL    HW2 2121   0.994   2.681   2.338  1.7995  1.5227  3.6473
  708SOL     OW 2122   0.042   2.331   1.702  0.2040 -0.3901  0.3921
  708SOL    HW1 2123   0.028   2.247   1.651  1.5906  1.0068  2.6734
  708SOL    HW2 2124   0.129   2.380   1.690 -2.7166 -0.2388  2.0589
  709SOL     OW 2125   1.955   0.262   1.784  0.0535  0.7515  0.5503
  709SOL    HW1 2126   1.877   0.326   1.778 -0.9134 -0.1145  0.5488
  709SOL    HW2 2127   1.945   0.211   1.872 -0.1231  0.3826  0.5926
  710SOL     OW 2128   1.463   0.457   2.767  0.0937  0.6354 -0.5215
  710SOL    HW1 2129   1.481   0.441   2.865  2.8427 -0.6731 -2.5509
  710SOL    HW2 2130   1.495   0.549   2.741 -0.6665 -0.6498  1.6002
  711SOL     OW 2131   0.943   1.580   2.643  0.2473  0.1466  0.4251
  711SOL    HW1 2132   0.872   1.654   2.653  0.2199 -1.2932 -1.4655
  711SOL    HW2 2133   1.001   1.600   2.565 -0.2772 -0.7440  1.9715
  712SOL     OW 2134   0.999   1.999   2.543 -0.0133 -0.0241 -0.2617
  712SOL    HW1 2135   1.076   2.002   2.607 -2.8721 -0.9360 -1.3722
  712SOL    HW2 2136   0.917   2.000   2.595 -1.3312  0.5228  1.1970
  713SOL     OW 2137   1.726   1.146   2.647  0.0635 -0.1166 -0.1479
  713SOL    HW1 2138   1.731   1.080   2.726 -0.8686  0.5086  1.9352
  713SOL    HW2 2139   1.715   1.241   2.677  1.7580 -0.5600 -0.0389
  714SOL     OW 2140   1.070   1.477   1.937  0.6353  0.5550  0.5011
  714SOL    HW1 2141   1.036   1.406   1.996 -1.1673  1.5329 -0.5055
  714SOL    HW2 2142   1.004   1.554   1.919 -1.2657  0.8719 -1.9033
  715SOL     OW 2143   2.050   0.370   2.824 -0.1573 -0.4015 -0.1992
  715SOL    HW1 2144   2.099   0.291   2.783 -1.5670  0.2554  1.3169
  715SOL    HW2 2145   1.951   0.348   2.839 -0.4261 -3.8838 -0.2133
  716SOL     OW 2146   3.037   2.401   1.320  0.1290  0.3465 -0.1501
  716SOL    HW1 2147   2.984   2.459   1.382  0.7636  0.6253  0.1863
  716SOL    HW2 2148   3.044   2.436   1.225 -1.9403 -0.0865 -0.3496
  717SOL     OW 2149   2.621   1.182   0.687  0.5334  0.1405 -0.1509
  717SOL    HW1 2150   2.583   1.203   0.782  1.0450 -0.5366  1.2120
  717SOL    HW2 2151   2.560   1.112   0.646  3.1027 -1.2031  2.3594
  718SOL     OW 2152   1.152   1.931   1.966  0.4352  0.1370 -0.1869
  718SOL    HW1 2153   1.130   2.023   1.924  1.2709 -0.5597 -3.5222
  718SOL    HW2 2154   1.121   1.925   2.065  0.4650 -0.6621  2.0284
  719SOL     OW 2155   2.259   0.549   2.779 -0.2105 -0.4562  0.2225
  719SOL    HW1 2156   2.187   0.478   2.778  0.4666 -0.3005 -3.3796
  719SOL    HW2 2157   2.296   0.561   2.872 -2.6501  1.6201 -2.6029
  720SOL     OW 2158   0.783   0.339   1.278 -0.0765 -0.0570  0.1600
  720SOL    HW1 2159   0.719   0.310   1.350  0.1378  2.6120  3.0783
  720SOL    HW2 2160   0.850   0.269   1.248 -2.5286 -1.7300 -1.2355
  721SOL     OW 2161   2.528   0.888   0.334  0.5462 -0.0065 -0.6202
  721SOL    HW1 2162   2.589   0.955   0.289 -1.5739 -1.7166 -1.0421
  721SOL    HW2 2163   2.588   0.808   0.356  1.0684 -1.1424 -0.3323
  722SOL     OW 2164   3.096   2.978   2.665 -0.1870 -0.1826 -0.2855
  722SOL    HW1 2165   3.037   2.964   2.747  1.5275 -2.6547 -2.2256
  722SOL    HW2 2166   0.082   2.988   2.706  1.8124  1.1761 -0.5098
  723SOL     OW 2167   1.601   0.275   0.585  0.3894 -0.2150 -0.2143
  723SOL    HW1 2168   1.583   0.183   0.625  2.5211  0.4778 -0.4684
  723SOL    HW2 2169   1.525   0.311   0.525  0.0166 -1.2451 -1.1503
  724SOL     OW 2170   0.943   1.414   2.188 -0.5998  0.1471 -0.3561
  724SOL    HW1 2171   0.936   1.318   2.225  2.4027 -2.3752  1.1550
  724SOL    HW2 2172   0.892   1.478   2.246  0.4080 -2.6809  0.5567
  725SOL     OW 2173   1.655   2.853   1.019 -0.2383  0.1452 -0.5055
  725SOL    HW1 2174   1.719   2.844   1.098  0.7012 -1.0786 -1.3091
  725SOL    HW2 2175   1.691   2.924   0.959  0.4625 -0.3543  0.9904
  726SOL     OW 2176   2.253   2.971   0.105 -0.5407 -0.5260  0.6259
  726SOL    HW1 2177   2.313   3.039   0.140 -1.4596 -1.1754 -0.0693
  726SOL    HW2 2178   2.292   2.923   0.024 -0.4182  1.8442 -3.5361
  727SOL     OW 2179   1.277   1.752   0.798  0.0638  0.2040 -0.6237
  727SOL    HW1 2180   1.375   1.775   0.821  1.2245  0.3896 -1.4569
  727SOL    HW2 2181   1.265   1.760   0.698 -0.2992 -0.4345  2.1605
  728SOL     OW 2182   2.214   2.650   1.928  0.3787 -0.2284  0.5323
  728SOL    HW1 2183   2.184   2.618   1.836 -1.7038  0.6238  1.6331
  728SOL    HW2 2184   2.243   2.748   1.917  1.3586  1.8776 -1.6390
  729SOL     OW 2185   1.877   1.848   1.447  0.3290  0.0779 -0.0798
  729SOL    HW1 2186   1.817   1.804   1.513  0.2730  1.1353 -4.0540
  729SOL    HW2 2187   1.961   1.797   1.445 -2.1611 -0.5813 -0.9283
  730SOL     OW 2188   1.631   1.064   0.049  0.2764 -0.9477  0.3916
  730SOL    HW1 2189   1.578   1.131   0.104  1.7506  1.0302  1.1912
  730SOL    HW2 2190   1.694   1.011   0.111  0.4768 -1.2400 -0.7617
  731SOL     OW 2191   0.592   2.973   1.224  0.2180 -0.1984  0.3512
  731SOL    HW1 2192   0.604   3.065   1.185 -0.6264 -1.4049 -0.8350
  731SOL    HW2 2193   0.489   2.956   1.250 -3.6236 -0.8992  2.1474
  732SOL     OW 2194   1.394   0.448   0.958  0.2066  0.2110 -0.4516
  732SOL    HW1 2195   1.467   0.464   1.028  3.3100 -1.5520  0.5790
  732SOL    HW2 2196   1.393   0.350   0.932  0.8511  2.2361  2.1100
  733SOL     OW 2197   0.770   1.236   1.105  0.1190  0.5263 -0.4705
  733SOL    HW1 2198   0.739   1.320   1.052  1.0080  0.8447 -1.6561
  733SOL    HW2 2199   0.871   1.221   1.095  3.2009  0.4746 -1.5928
  734SOL     OW 2200   2.740   2.713   2.912  0.0838  0.8118  0.3795
  734SOL    HW1 2201   2.728   2.748   3.003  1.8045 -0.2623 -4.8306
  734SOL    HW2 2202   2.717   2.613   2.895 -0.5119 -0.6211  0.9316
  735SOL     OW 2203   1.115   2.687   1.245  0.4093  0.4080  0.5694
  735SOL    HW1 2204   1.155   2.688   1.339  2.7288  1.6664  1.5999
  735SOL    HW2 2205   1.185   2.731   1.183  0.2435  2.0626 -1.9119
  736SOL     OW 2206   1.713   2.113   0.255  0.3394  0.2054 -0.1211
  736SOL    HW1 2207   1.755   2.204   0.282  0.4419  3.6814 -0.3356
  736SOL    HW2 2208   1.783   2.042   0.231 -0.1527 -1.6746  0.3051
  737SOL     OW 2209   2.916   1.877   1.317  0.1145 -0.2243 -0.1868
  737SOL    HW1 2210   2.966   1.868   1.229 -0.5452  1.2995 -1.3739
  737SOL    HW2 2211   2.904   1.974   1.338 -0.8627  0.1360 -3.2285
  738SOL     OW 2212   1.963   2.361   2.520  0.1889 -0.2994  0.2374
  738SOL    HW1 2213   1.972   2.459   2.554 -2.4381  0.7768 -0.9912
  738SOL    HW2 2214   2.018   2.349   2.434 -0.6088  0.1648  0.1379
  739SOL     OW 2215   1.349   1.743   2.501  0.2842  0.4048  0.4308
  739SOL    HW1 2216   1.331   1.842   2.495 -0.0088  0.3595  0.5362
  739SOL    HW2 2217   1.394   1.724   2.594  1.3948 -0.7054  1.5251
  740SOL     OW 2218   1.327   2.774   1.111 -0.1401 -0.0437 -0.6417
  740SOL    HW1 2219   1.415   2.820   1.105  1.5109 -2.1958  1.6332
  740SOL    HW2 2220   1.282   2.753   1.020 -1.7940  0.0350 -2.5690
  741SOL     OW 2221   0.170   1.088   0.301 -0.0661 -0.1214  0.0098
  741SOL    HW1 2222   0.106   1.163   0.288 -3.9299 -0.6389 -0.1272
  741SOL    HW2 2223   0.232   1.112   0.382 -0.5209  2.7438 -0.0189
  742SOL     OW 2224   1.151   1.570   2.462 -0.1936  0.8223  0.0503
  742SOL    HW1 2225   1.169   1.484   2.514 -1.1631  1.0739  0.4223
  742SOL    HW2 2226   1.239   1.630   2.450  0.8706  1.1492 -0.5253
  743SOL     OW 2227   1.061   0.774   2.192  0.3695 -0.0089  0.2452
  743SOL    HW1 2228   1.038   0.680   2.163 -0.0083  3.6593 -1.0100
  743SOL    HW2 2229   1.161   0.792   2.184 -0.2662  0.8193  0.6103
  744SOL     OW 2230   2.286   0.070   1.418  0.0457  0.7127 -0.5780
  744SOL    HW1 2231   2.257   3.079   1.403 -1.7459  2.0672 -1.7748
  744SOL    HW2 2232   2.365   0.069   1.485  1.0061  3.9052  1.2241
  745SOL     OW 2233   2.092   1.689   1.364 -0.2576 -0.4425 -0.0174
  745SOL    HW1 2234   2.167   1.744   1.405  0.6710 -0.8635 -0.4621
  745SOL    HW2 2235   2.111   1.590   1.348 -0.7481 -0.1658 -0.4918
  746SOL     OW 2236   1.848   1.172   0.642  0.1834  0.5223 -0.5027
  746SOL    HW1 2237   1.885   1.216   0.557  3.9029 -0.4438 -0.3641
  746SOL    HW2 2238   1.748   1.143   0.646  0.2304 -0.7494 -0.4945
  747SOL     OW 2239   2.234   1.653   0.444  0.6094 -0.0445  0.5761
  747SOL    HW1 2240   2.235   1.555   0.470  1.1999 -0.4718 -0.9883
  747SOL    HW2 2241   2.137   1.689   0.457 -1.4371  0.7784  1.4607
  748SOL     OW 2242   0.260   1.803   0.305 -0.0147 -0.2586 -0.7733
  748SOL    HW1 2243   0.229   1.778   0.212  1.4081  0.0054  0.0672
  748SOL    HW2 2244   0.310   1.722   0.342 -0.9977 -1.0760 -0.0038
  749SOL     OW 2245   2.941   2.343   2.724  0.4858  0.1393  0.2774
  749SOL    HW1 2246   2.844   2.321   2.736  2.0116  1.4003 -0.6276
  749SOL    HW2 2247   2.970   2.430   2.762  2.8311 -1.6318 -0.8224
  750SOL     OW 2248   2.022   0.869   0.642 -0.4056  0.0976 -0.2523
  750SOL    HW1 2249   2.087   0.837   0.713  0.5239 -0.9260  3.4730
  750SOL    HW2 2250   1.934   0.879   0.684  1.2647 -0.6439  0.6534
  751SOL     OW 2251   2.571   0.109   0.055  0.1332  0.3773 -0.3636
  751SOL    HW1 2252   2.567   0.103   3.064  1.8370 -0.8641  2.3940
  751SOL    HW2 2253   2.606   0.021   0.104 -1.3499 -1.6632  2.5668
  752SOL     OW 2254   2.476   2.754   0.687 -0.3449 -0.0779 -0.4456
  752SOL    HW1 2255   2.463   2.853   0.702  0.9183 -2.9234 -2.0642
  752SOL    HW2 2256   2.552   2.737   0.618 -1.0475 -1.8403 -4.1556
  753SOL     OW 2257   1.742   1.239   2.278 -0.4433 -0.1040  0.0374
  753SOL    HW1 2258   1.681   1.166   2.313 -0.2325  0.5826 -4.0138
  753SOL    HW2 2259   1.726   1.314   2.346 -1.3281 -2.4490 -1.6570
  754SOL     OW 2260   1.899   2.342   1.991 -0.1272 -0.2103  0.2413
  754SOL    HW1 2261   1.975   2.298   1.946  1.1052  1.8413  1.8861
  754SOL    HW2 2262   1.885   2.287   2.073  1.4580  0.6808  0.0035
  755SOL     OW 2263   2.441   0.962   0.910  0.2956  0.4039  0.4406
  755SOL    HW1 2264   2.522   0.899   0.902  0.0538 -4.2755 -1.0648
  755SOL    HW2 2265   2.464   1.064   0.911  0.9115 -0.6913 -1.2137
  756SOL     OW 2266   0.931   0.991   3.044 -0.0797  0.3539  0.1747
  756SOL    HW1 2267   0.928   1.062   0.008  0.8850  0.2791  0.1409
  756SOL    HW2 2268   0.904   1.029   2.953 -1.1151  3.3580 -3.1819
  757SOL     OW 2269   1.813   2.500   1.167  0.1421  0.1989 -0.2499
  757SOL    HW1 2270   1.883   2.519   1.237  1.3274  1.4540  0.8707
  757SOL    HW2 2271   1.846   2.478   1.075  0.0277 -0.8339 -0.6623
  758SOL     OW 2272   0.997   2.224   1.214  0.0096  0.3787  0.3503
  758SOL    HW1 2273   1.073   2.287   1.233 -0.4744  2.7725 -0.2990
  758SOL    HW2 2274   1.036   2.130   1.196  0.8610 -2.0782  1.1196
  759SOL     OW 2275   2.629   1.382   1.118 -0.2861  0.1394 -0.0274
  759SOL    HW1 2276   2.607   1.482   1.118  1.8213  0.7361 -1.8711
  759SOL    HW2 2277   2.713   1.378   1.062 -1.3493 -0.2716  2.5153
  760SOL     OW 2278   1.999   1.067   1.582 -0.7391  0.2920 -0.4005
  760SOL    HW1 2279   2.017   1.085   1.483 -1.4569  2.2773 -0.0384
  760SOL    HW2 2280   1.907   1.029   1.596 -1.8395  1.4106  1.1328
  761SOL     OW 2281   2.036   2.800   0.181 -0.1470  0.1537 -0.1805
  761SOL    HW1 2282   2.035   2.753   0.273 -0.6443 -1.4699  1.7936
  761SOL    HW2 2283   2.117   2.864   0.172  1.9521  0.4580  0.6667
  762SOL     OW 2284   1.897   1.841   2.642  0.5294 -0.1986  0.0010
  762SOL    HW1 2285   1.878   1.800   2.551 -0.8746 -0.2070 -1.1913
  762SOL    HW2 2286   1.963   1.915   2.633  1.2262  0.9715 -0.0537
  763SOL     OW 2287   0.562   1.510   1.463  0.1697  0.1658 -0.2391
  763SOL    HW1 2288   0.597   1.419   1.435  0.1911  0.5675 -0.5820
  763SOL    HW2 2289   0.501   1.500   1.544  0.0430 -2.1118  1.4657
  764SOL     OW 2290   2.993   2.421   3.076  0.2683  0.3569  0.2666
  764SOL    HW1 2291   2.933   2.467   0.041 -1.5694  2.2850 -3.1724
  764SOL    HW2 2292   3.044   2.491   3.021  1.2910  1.1242 -0.3546
  765SOL     OW 2293   0.575   3.090   1.578 -0.3046  0.1424  0.3013
  765SOL    HW1 2294   0.509   3.013   1.558  0.5843 -1.4408  0.6533
  765SOL    HW2 2295   0.676   3.063   1.580  2.8841 -1.4196  2.5140
  766SOL     OW 2296   0.068   2.117   1.898  0.2935  0.2972  0.3134
  766SOL    HW1 2297   0.142   2.183   1.929  0.8435 -0.4035 -0.3550
  766SOL    HW2 2298   0.055   2.138   1.801 -1.9247  0.7459 -0.5575
  767SOL     OW 2299   2.580   1.089   1.966  0.2753  0.2278  0.1201
  767SOL    HW1 2300   2.517   1.167   1.938 -2.7768  0.1359 -1.2933
  767SOL    HW2 2301   2.664   1.084   1.905  1.6906  0.4559 -1.3502
  768SOL     OW 2302   0.781   0.389   2.683  0.1990  0.1455  0.1459
  768SOL    HW1 2303   0.735   0.388   2.777 -0.8998  1.2982  0.0939
  768SOL    HW2 2304   0.880   0.420   2.689  2.9780  0.5636  0.4956
  769SOL     OW 2305   2.273   2.681   0.999 -0.1411 -0.0040 -0.5458
  769SOL    HW1 2306   2.376   2.685   0.979 -0.1533 -0.9650 -0.7250
  769SOL    HW2 2307   2.231   2.776   0.980 -1.8878 -1.8452 -1.4688
  770SOL     OW 2308   2.797   0.255   2.731  0.5648 -0.3408  0.0634
  770SOL    HW1 2309   2.743   0.332   2.690 -2.1777  0.9311  0.0372
  770SOL    HW2 2310   2.897   0.265   2.707  1.4394  0.0897  1.4326
  771SOL     OW 2311   1.428   2.299   2.142 -0.0196 -0.3886  0.1891
  771SOL    HW1 2312   1.472   2.239   2.075  1.2459 -1.6056  1.0729
  771SOL    HW2 2313   1.350   2.249   2.180  0.6178 -0.3954 -0.9944
  772SOL     OW 2314   1.197   0.411   0.366  0.3084 -0.3092  0.2354
  772SOL    HW1 2315   1.161   0.338   0.301  1.8109  0.1151  2.1607
  772SOL    HW2 2316   1.187   0.499   0.322 -0.5932 -0.1602 -0.7088
  773SOL     OW 2317   2.574   0.824   1.731  0.1056  0.4023  0.3932
  773SOL    HW1 2318   2.648   0.835   1.798 -0.1073  0.5902  1.1776
  773SOL    HW2 2319   2.513   0.906   1.732 -1.3052  2.9863 -0.4312
  774SOL     OW 2320   1.004   1.079   0.971  0.1872  0.0760 -0.2377
  774SOL    HW1 2321   1.052   1.158   0.932  1.4263 -4.2433  2.2849
  774SOL    HW2 2322   1.034   0.997   0.926 -2.1443  2.9533  1.1839
  775SOL     OW 2323   2.503   0.039   2.894 -0.1301 -0.0058  0.1139
  775SOL    HW1 2324   2.474   0.072   2.802  2.0004  0.5927  0.0203
  775SOL    HW2 2325   2.469   3.048   2.915  3.3036  0.0616 -1.6755
  776SOL     OW 2326   2.348   1.230   1.868 -0.3355  0.4085 -0.3899
  776SOL    HW1 2327   2.315   1.230   1.964 -0.8189  0.3708  0.4820
  776SOL    HW2 2328   2.307   1.304   1.809 -0.8993 -0.3608 -0.8916
  777SOL     OW 2329   0.368   1.185   2.526 -0.3498 -0.2709  0.7007
  777SOL    HW1 2330   0.346   1.109   2.467 -1.3983 -1.0105  0.2908
  777SOL    HW2 2331   0.458   1.221   2.496  1.0925  0.9093  0.1225
  778SOL     OW 2332   0.569   0.580   0.125 -0.2122 -0.5957 -0.0768
  778SOL    HW1 2333   0.630   0.501   0.113  0.0212 -0.5218 -2.5489
  778SOL    HW2 2334   0.576   0.640   0.045 -2.7110  0.1651 -1.3627
  779SOL     OW 2335   0.641   0.235   2.458  0.1318  0.1140 -0.4479
  779SOL    HW1 2336   0.696   0.248   2.539  1.2692  1.6422 -1.8774
  779SOL    HW2 2337   0.574   0.157   2.476  1.2116 -1.8790  0.9114
  780SOL     OW 2338   2.214   1.016   2.721  0.0316 -0.1291 -0.1314
  780SOL    HW1 2339   2.290   1.084   2.717 -0.9253  0.7801 -0.3286
  780SOL    HW2 2340   2.241   0.930   2.669  0.4631  0.0174 -2.3673
  781SOL     OW 2341   2.813   1.059   1.853  0.2455 -0.2579  0.3315
  781SOL    HW1 2342   2.826   1.004   1.772  0.9320  2.8446  0.8656
  781SOL    HW2 2343   2.895   1.051   1.911 -1.1063 -2.3094 -1.0810
  782SOL     OW 2344   0.841   1.140   2.790 -0.2455  0.1503  0.4309
  782SOL    HW1 2345   0.751   1.143   2.835 -0.2560 -1.7073 -1.1029
  782SOL    HW2 2346   0.851   1.213   2.719  0.5969 -1.1309 -0.1281
  783SOL     OW 2347   1.180   2.425   1.244  0.1533  0.2658 -0.4010
  783SOL    HW1 2348   1.139   2.517   1.229 -1.7848  1.7187  0.3031
  783SOL    HW2 2349   1.275   2.422   1.280  2.6959  1.8452  0.4602
  784SOL     OW 2350   1.593   0.431   3.037 -0.3326  0.1697 -0.2407
  784SOL    HW1 2351   1.584   0.338   3.079  0.0435  1.0866  2.4277
  784SOL    HW2 2352   1.588   0.496   0.012  1.9384 -0.6146  0.1398
  785SOL     OW 2353   0.833   3.069   2.060 -0.2935 -0.3910 -0.1737
  785SOL    HW1 2354   0.813   0.045   2.117 -0.3853 -1.8026  0.0097
  785SOL    HW2 2355   0.787   3.083   1.970 -0.4234  1.7434  0.5014
  786SOL     OW 2356   0.468   1.979   0.311  0.3529 -1.1052 -0.0743
  786SOL    HW1 2357   0.385   1.917   0.298 -1.8243  0.7365  2.8966
  786SOL    HW2 2358   0.500   1.986   0.407 -1.8213  0.1505 -0.3879
  787SOL     OW 2359   1.218   0.780   0.538 -0.1929 -0.2308 -0.0751
  787SOL    HW1 2360   1.268   0.871   0.524 -1.7311 -1.7394 -1.8601
  787SOL    HW2 2361   1.116   0.792   0.545 -1.1409 -0.4126  0.9036
  788SOL     OW 2362   2.499   1.625   1.235  0.1997 -0.1926  0.4492
  788SOL    HW1 2363   2.587   1.660   1.270 -0.7396 -0.9245 -0.8783
  788SOL    HW2 2364   2.456   1.574   1.313 -0.4484  0.5288 -0.0266
  789SOL     OW 2365   2.628   1.212   2.215 -0.0869  0.0736 -0.0625
  789SOL    HW1 2366   2.627   1.148   2.135 -1.3718  1.2644  0.6251
  789SOL    HW2 2367   2.596   1.304   2.187  0.0723  2.5899  2.1421
  790SOL     OW 2368   0.688   3.062   0.171 -0.1152  0.6192 -0.4407
  790SOL    HW1 2369   0.742   2.991   0.218  1.6720 -1.2858  0.8245
  790SOL    HW2 2370   0.720   0.050   0.201 -1.4793 -0.3050 -0.7873
  791SOL     OW 2371   0.205   0.682   3.100 -0.2054 -0.3730  0.2798
  791SOL    HW1 2372   0.170   0.625   0.073 -2.8009 -0.0088  0.4724
  791SOL    HW2 2373   0.204   0.779   0.017 -0.7629  1.7767 -1.0771
  792SOL     OW 2374   1.536   0.704   2.576 -0.4218 -0.0746 -0.4371
  792SOL    HW1 2375   1.447   0.685   2.529  1.0818 -1.1223 -1.0833
  792SOL    HW2 2376   1.608   0.672   2.506 -2.0566  0.2208 -0.8922
  793SOL     OW 2377   2.926   0.296   0.737 -0.3928  0.0275 -0.2132
  793SOL    HW1 2378   2.916   0.341   0.647 -0.6324 -1.3669 -2.6212
  793SOL    HW2 2379   2.877   0.347   0.813  1.9525  0.9319 -0.8128
  794SOL     OW 2380   0.217   0.663   1.930 -0.0108 -0.2225 -0.4527
  794SOL    HW1 2381   0.227   0.741   1.865  0.0128 -0.2566  0.9169
  794SOL    HW2 2382   0.124   0.672   1.975 -1.1565 -1.3355  2.2909
  795SOL     OW 2383   0.464   1.208   0.045  0.3802 -0.4038  0.2409
  795SOL    HW1 2384   0.513   1.130   0.090 -0.5994  1.3470 -0.0123
  795SOL    HW2 2385   0.400   1.255   0.109  3.2800  0.3751 -0.4550
  796SOL     OW 2386   0.150   0.950   0.070 -0.3007  0.4488  0.0965
  796SOL    HW1 2387   0.173   0.992   0.166  2.1484  2.5563  1.3219
  796SOL    HW2 2388   0.170   1.023   0.003 -0.6290 -0.1806  0.0127
  797SOL     OW 2389   1.739   2.552   2.779 -0.0579  0.1443 -0.0690
  797SOL    HW1 2390   1.732   2.622   2.854 -1.5841 -0.4746 -3.2644
  797SOL    HW2 2391   1.669   2.575   2.706 -0.6769  1.6748 -3.0075
  798SOL     OW 2392   3.088   0.655   1.293  0.6966  0.2044 -0.3476
  798SOL    HW1 2393   3.084   0.625   1.197 -1.3646 -0.0086 -0.6620
  798SOL    HW2 2394   0.038   0.586   1.348 -2.0447  1.4519 -1.5453
  799SOL     OW 2395   2.165   0.686   2.110 -0.0505 -0.1090  0.0742
  799SOL    HW1 2396   2.109   0.728   2.184 -0.3273  0.0929 -0.2880
  799SOL    HW2 2397   2.211   0.754   2.051  0.6942 -0.3169  0.7344
  800SOL     OW 2398   2.945   1.842   0.384 -0.3379  0.3117 -0.0334
  800SOL    HW1 2399   3.049   1.834   0.408  4.5964 -0.2728  2.4795
  800SOL    HW2 2400   2.898   1.753   0.392 -1.3307  1.0084  2.8001
  801SOL     OW 2401   1.553   2.061   0.656  0.0234  0.4057  0.0460
  801SOL    HW1 2402   1.618   2.020   0.588 -1.0413  2.6647  1.5472
  801SOL    HW2 2403   1.574   2.023   0.750 -4.0655 -1.4243  1.1985
  802SOL     OW 2404   1.346   1.562   2.998 -0.3177 -0.1200 -0.3425
  802SOL    HW1 2405   1.323   1.488   3.061  0.1770  0.7665  1.7819
  802SOL    HW2 2406   1.263   1.587   2.939  0.4199  0.8443  0.4957
  803SOL     OW 2407   0.365   1.906   1.656 -0.3242 -0.4767 -0.5281
  803SOL    HW1 2408   0.297   1.854   1.718 -1.1815 -3.2408 -1.0141
  803SOL    HW2 2409   0.361   1.872   1.559 -0.5142 -2.0572  0.3132
  804SOL     OW 2410   1.528   2.412   1.121  0.0197 -0.3080  0.6126
  804SOL    HW1 2411   1.621   2.436   1.139 -5.3413 -3.0683  0.8853
  804SOL    HW2 2412   1.493   2.470   1.042 -0.0918 -1.5842 -1.8271
  805SOL     OW 2413   2.368   2.256   2.472 -0.4206 -0.3931 -0.5775
  805SOL    HW1 2414   2.463   2.284   2.446 -0.7872 -2.3909  0.8221
  805SOL    HW2 2415   2.360   2.186   2.544  0.5553 -1.7712  0.2084
  806SOL     OW 2416   2.474   3.013   0.736  0.0942 -0.3720 -0.3749
  806SOL    HW1 2417   2.383   3.056   0.736  4.1552 -0.9541  2.3228
  806SOL    HW2 2418   2.544   3.078   0.771 -2.1448 -0.3884 -0.2634
  807SOL     OW 2419   0.195   1.205   2.729 -0.1576 -0.0640 -0.0048
  807SOL    HW1 2420   0.273   1.213   2.662  0.0657  0.8247 -0.2326
  807SOL    HW2 2421   0.110   1.244   2.686  1.3504 -0.5579  2.1366
  808SOL     OW 2422   0.780   1.864   0.621 -0.8391  0.0359 -0.4598
  808SOL    HW1 2423   0.791   1.891   0.720 -1.5757 -1.6272 -1.0014
  808SOL    HW2 2424   0.741   1.940   0.567 -0.0875 -2.2745 -0.0427
  809SOL     OW 2425   2.614   0.074   1.969 -0.1489  1.2205 -0.1231
  809SOL    HW1 2426   2.575   0.126   1.895 -1.1076 -1.7446 -0.4491
  809SOL    HW2 2427   2.565   3.095   1.993 -1.2452  1.2907 -0.3996
  810SOL     OW 2428   1.414   0.314   1.493  0.3894  0.2512  0.1573
  810SOL    HW1 2429   1.331   0.286   1.442 -0.6112  1.3279 -1.4890
  810SOL    HW2 2430   1.409   0.412   1.519 -1.0343 -0.8874 -0.5754
  811SOL     OW 2431   1.909   0.138   2.015  0.2130 -0.1675 -0.4098
  811SOL    HW1 2432   1.939   0.043   2.014 -0.3923  1.2368  0.1642
  811SOL    HW2 2433   1.813   0.135   2.043 -0.8298 -0.3098 -1.9679
  812SOL     OW 2434   1.913   2.090   0.613  0.3591 -0.0784 -0.4837
  812SOL    HW1 2435   1.917   2.052   0.519 -0.9934 -0.3342  0.0053
  812SOL    HW2 2436   1.889   2.016   0.678  2.3002 -2.1116  1.3635
  813SOL     OW 2437   1.098   0.382   1.878 -0.0273  0.0479 -0.5247
  813SOL    HW1 2438   1.059   0.429   1.957 -0.7630 -2.0594  0.0565
  813SOL    HW2 2439   1.172   0.436   1.841  0.2697 -1.8809  0.6324
  814SOL     OW 2440   0.281   0.131   1.207  0.4000 -0.0374  0.5623
  814SOL    HW1 2441   0.242   0.036   1.212 -3.5931  1.1537 -2.1057
  814SOL    HW2 2442   0.359   0.134   1.275 -0.8133  0.9848  0.8311
  815SOL     OW 2443   0.167   0.205   0.563 -0.0270  0.2391 -0.0978
  815SOL    HW1 2444   0.172   0.119   0.616 -1.3595 -4.6064 -2.9814
  815SOL    HW2 2445   0.160   0.286   0.626 -1.1643  0.5078 -1.2987
  816SOL     OW 2446   2.449   1.963   2.204  0.5436  0.9076 -0.1030
  816SOL    HW1 2447   2.435   1.884   2.137 -1.9907 -1.6653 -1.2498
  816SOL    HW2 2448   2.385   1.967   2.284  0.7565 -1.7780  2.0292
  817SOL     OW 2449   1.073   2.962   0.744  0.1304 -0.5206 -0.0860
  817SOL    HW1 2450   1.131   3.041   0.728  1.9658 -1.8123  1.2174
  817SOL    HW2 2451   1.132   2.882   0.778  1.3463 -0.6133  1.9169
  818SOL     OW 2452   1.691   0.756   2.780  0.0423  0.2036  0.0640
  818SOL    HW1 2453   1.624   0.737   2.703  0.8584  0.6766  1.4545
  818SOL    HW2 2454   1.780   0.708   2.765 -0.3494 -0.7328  0.1039
  819SOL     OW 2455   2.143   0.231   0.020  0.5172  0.7865  0.2688
  819SOL    HW1 2456   2.240   0.257   0.017 -0.6771 -2.8843  1.8811
  819SOL    HW2 2457   2.113   0.156   3.064  1.6120  1.9629 -0.2435
  820SOL     OW 2458   2.060   0.787   2.830  0.1674 -0.4118 -0.5839
  820SOL    HW1 2459   2.076   0.712   2.897 -0.5791  1.3985  0.6961
  820SOL    HW2 2460   2.116   0.873   2.850  0.9947  2.7370  0.0122
  821SOL     OW 2461   2.830   0.450   0.926  0.3169 -0.4815 -0.0070
  821SOL    HW1 2462   2.793   0.431   1.016 -2.7127  0.3783 -2.7192
  821SOL    HW2 2463   2.907   0.514   0.944  0.1876 -1.0917 -0.3011
  822SOL     OW 2464   1.191   2.458   2.412 -0.6238 -0.4470 -0.5035
  822SOL    HW1 2465   1.214   2.381   2.348 -0.7175  0.2369 -0.1251
  822SOL    HW2 2466   1.106   2.442   2.464  0.7782 -1.6531  1.5466
  823SOL     OW 2467   0.404   1.491   1.705  0.2178 -0.2247 -0.3525
  823SOL    HW1 2468   0.429   1.391   1.717  2.2888  0.9438  1.6327
  823SOL    HW2 2469   0.306   1.503   1.733  2.1650 -0.1421  0.5092
  824SOL     OW 2470   1.614   2.634   2.558  0.8385  0.0749 -0.0532
  824SOL    HW1 2471   1.622   2.614   2.458  0.5629 -1.8070  1.4956
  824SOL    HW2 2472   1.602   2.730   2.577 -1.2040 -1.2898 -0.8219
  825SOL     OW 2473   1.566   0.926   0.378 -0.2901  0.2739 -0.1312
  825SOL    HW1 2474   1.606   0.857   0.444 -0.2215  1.3146  0.5365
  825SOL    HW2 2475   1.639   0.962   0.314 -2.8416 -0.8087 -1.1416
  826SOL     OW 2476   2.050   0.976   0.030 -0.0381 -0.1516 -0.2301
  826SOL    HW1 2477   1.961   0.931   0.007  2.5458 -0.5021  3.7513
  826SOL    HW2 2478   2.131   0.915   0.016 -0.4505 -0.8380  1.4542
  827SOL     OW 2479   0.869   1.324   2.591  0.5529  0.1246  0.4574
  827SOL    HW1 2480   0.939   1.306   2.520 -1.2436  0.2391 -0.2555
  827SOL    HW2 2481   0.885   1.422   2.626  1.6004 -0.8873 -0.0534
  828SOL     OW 2482   2.381   1.506   1.453 -0.1575  0.4880  0.7142
  828SOL    HW1 2483   2.352   1.576   1.519  1.4446  0.9819  1.0000
  828SOL    HW2 2484   2.442   1.431   1.489  1.5557 -2.9808  0.7801
  829SOL     OW 2485   0.248   1.635   0.707 -0.0974 -0.2383  0.5498
  829SOL    HW1 2486   0.219   1.560   0.774 -0.6945 -1.2148  1.0571
  829SOL    HW2 2487   0.346   1.663   0.726 -0.7981 -0.3187 -0.6264
  830SOL     OW 2488   1.335   0.972   0.985  0.2883  0.4383  0.0553
  830SOL    HW1 2489   1.407   1.035   0.960 -3.4554 -1.2527 -0.6291
  830SOL    HW2 2490   1.284   1.005   1.065  0.9731 -3.3017  1.4666
  831SOL     OW 2491   0.157   1.712   0.072  0.1076 -0.1607  0.8111
  831SOL    HW1 2492   0.064   1.748   0.076  2.0002 -3.6753 -0.6243
  831SOL    HW2 2493   0.150   1.620   0.033 -2.1924 -0.1378 -0.7336
  832SOL     OW 2494   0.808   0.205   0.255  0.2376 -0.5749 -0.6424
  832SOL    HW1 2495   0.761   0.186   0.346 -2.0732 -0.4739  0.4319
  832SOL    HW2 2496   0.910   0.192   0.260  1.2938 -1.1735 -0.7854
  833SOL     OW 2497   0.742   0.498   1.893  0.2431  0.1632 -0.3128
  833SOL    HW1 2498   0.690   0.584   1.860 -2.4945  0.4441 -0.9478
  833SOL    HW2 2499   0.752   0.420   1.826  1.3968 -0.9929 -0.8054
  834SOL     OW 2500   0.149   0.345   0.820  0.6938  0.0572  0.0887
  834SOL    HW1 2501   0.054   0.311   0.827  1.3820 -0.2349 -1.9691
  834SOL    HW2 2502   0.190   0.325   0.909  0.2153  0.1702 -1.2251
  835SOL     OW 2503   2.586   0.158   1.061  0.0805 -0.4380 -0.4329
  835SOL    HW1 2504   2.641   0.240   1.086  0.0898  0.4710  0.2771
  835SOL    HW2 2505   2.582   0.141   0.963  0.0538  0.9289  2.4501
  836SOL     OW 2506   0.444   1.945   2.965 -0.0467  0.0154 -0.0869
  836SOL    HW1 2507   0.488   2.036   2.979 -0.5794  2.1354  0.5807
  836SOL    HW2 2508   0.356   1.945   3.011 -1.1448  0.6244 -3.5619
  837SOL     OW 2509   1.672   1.397   2.705 -0.0255  0.6065  0.1234
  837SOL    HW1 2510   1.682   1.436   2.611  0.6519 -0.8961 -1.4789
  837SOL    HW2 2511   1.717   1.450   2.775 -0.5218 -0.6385  0.7859
  838SOL     OW 2512   3.091   0.969   1.520 -0.8330 -0.5281  0.3981
  838SOL    HW1 2513   0.022   0.950   1.425  1.0928  0.4162 -0.4191
  838SOL    HW2 2514   3.032   1.052   1.533 -1.6180  1.4540  0.6889
  839SOL     OW 2515   0.768   1.141   0.832  0.2021  0.3606 -0.3918
  839SOL    HW1 2516   0.736   1.230   0.862  0.5605 -0.3852  1.4711
  839SOL    HW2 2517   0.856   1.107   0.881  3.0724 -3.1852 -0.7395
  840SOL     OW 2518   1.513   2.855   1.742  0.0031  0.1055  0.3100
  840SOL    HW1 2519   1.524   2.757   1.726  0.5534  0.5486  0.8444
  840SOL    HW2 2520   1.537   2.922   1.666 -1.8015  2.0642 -1.0690
  841SOL     OW 2521   0.526   2.430   0.234  0.2999  0.0877  0.7504
  841SOL    HW1 2522   0.573   2.501   0.286 -5.8880 -2.2547 -2.8832
  841SOL    HW2 2523   0.428   2.436   0.265 -2.0339  1.4946  1.1014
  842SOL     OW 2524   0.562   0.416   0.929  0.0767 -0.2806  0.2211
  842SOL    HW1 2525   0.542   0.513   0.955  2.2378 -3.6892  0.4910
  842SOL    HW2 2526   0.658   0.398   0.959 -1.5792  2.8433  2.0286
  843SOL     OW 2527   0.827   1.077   2.180  0.2365 -0.2305  0.0401
  843SOL    HW1 2528   0.736   1.033   2.182  1.9218 -2.6542  2.1386
  843SOL    HW2 2529   0.874   1.065   2.270  1.2887  1.4691 -1.4374
  844SOL     OW 2530   1.326   2.387   0.022  0.1077  0.2140  0.0051
  844SOL    HW1 2531   1.406   2.346   3.089 -4.3179  2.8987  2.3341
  844SOL    HW2 2532   1.296   2.467   3.067 -0.1973 -0.9629  2.4944
  845SOL     OW 2533   2.379   2.638   2.381 -0.2505 -0.2941  0.2484
  845SOL    HW1 2534   2.460   2.653   2.319 -0.5888  1.4826  1.1054
  845SOL    HW2 2535   2.420   2.626   2.473  3.0936  0.8901 -0.8213
  846SOL     OW 2536   1.702   1.942   2.949  0.2167 -0.0073  0.0164
  846SOL    HW1 2537   1.675   1.994   2.870 -2.4940 -1.1627  1.7140
  846SOL    HW2 2538   1.670   1.846   2.946  0.0095  1.3871 -1.1098
  847SOL     OW 2539   2.071   0.024   2.979 -0.6430  0.2638  0.0695
  847SOL    HW1 2540   2.135   3.081   3.042 -1.7720 -0.4888  0.0478
  847SOL    HW2 2541   2.106   0.035   2.885 -0.6245  1.4493  0.1487
  848SOL     OW 2542   0.233   0.567   0.650 -0.3360 -0.2771 -0.1327
  848SOL    HW1 2543   0.309   0.626   0.681 -1.2461 -0.2566  1.7428
  848SOL    HW2 2544   0.213   0.499   0.722 -2.1189  1.1284 -1.0853
  849SOL     OW 2545   1.227   2.659   1.490 -0.5287 -0.0530  0.5830
  849SOL    HW1 2546   1.285   2.575   1.503 -0.5583  1.4652 -1.3889
  849SOL    HW2 2547   1.153   2.660   1.558  2.7388 -3.5539 -0.3369
  850SOL     OW 2548   0.383   1.553   0.320  0.5288  0.3553 -0.2975
  850SOL    HW1 2549   0.335   1.516   0.239 -0.3787  0.1473  1.3163
  850SOL    HW2 2550   0.480   1.522   0.323  0.1339 -1.5320  2.4014
  851SOL     OW 2551   0.150   0.933   0.798  0.5224  0.0246 -0.0926
  851SOL    HW1 2552   0.210   0.906   0.720 -0.6490  1.1000 -1.2839
  851SOL    HW2 2553   0.060   0.957   0.764  1.5750 -0.7578  1.4206
  852SOL     OW 2554   1.899   2.375   1.625  0.5126  0.2399  0.1281
  852SOL    HW1 2555   1.816   2.386   1.689 -0.4770  1.4001  3.2172
  852SOL    HW2 2556   1.905   2.280   1.587  0.2706  0.4077  3.2235
  853SOL     OW 2557   0.241   1.361   0.140  0.2876 -0.1179 -0.3702
  853SOL    HW1 2558   0.209   1.398   0.050 -0.3016  1.9227  0.0301
  853SOL    HW2 2559   0.156   1.352   0.200  0.7419  2.8534  0.6230
  854SOL     OW 2560   1.580   1.013   1.840 -0.5578  0.1332  0.0018
  854SOL    HW1 2561   1.482   1.040   1.817 -1.7245  2.2896  0.7885
  854SOL    HW2 2562   1.624   1.088   1.894  0.3950 -0.8732 -1.2931
  855SOL     OW 2563   0.554   2.513   2.864 -0.2218  0.1746 -0.2352
  855SOL    HW1 2564   0.451   2.512   2.872 -2.1096  1.9982  2.2291
  855SOL    HW2 2565   0.588   2.490   2.961  0.3831  0.3520  2.1833
  856SOL     OW 2566   3.083   0.754   2.031  0.0047  0.3980 -0.3329
  856SOL    HW1 2567   3.012   0.680   2.030 -0.2983 -0.2825 -2.3761
  856SOL    HW2 2568   3.040   0.844   2.023  0.8329 -1.6511  0.2360
  857SOL     OW 2569   0.608   1.150   1.958 -0.6410 -0.1889  0.1197
  857SOL    HW1 2570   0.612   1.077   2.028  1.2650  0.2912  0.0436
  857SOL    HW2 2571   0.630   1.246   1.985 -1.9001 -2.1232 -1.8671
  858SOL     OW 2572   0.507   1.495   2.253 -0.2367 -0.2553 -0.3813
  858SOL    HW1 2573   0.551   1.536   2.335  0.0555  0.9543 -1.6012
  858SOL    HW2 2574   0.569   1.435   2.201 -1.5467  0.1128  2.3593
  859SOL     OW 2575   2.637   0.156   0.802 -0.0354  0.5293 -0.1480
  859SOL    HW1 2576   2.624   0.259   0.801 -3.2219  1.8336  1.4718
  859SOL    HW2 2577   2.686   0.131   0.717 -1.2630 -0.5444 -0.5698
  860SOL     OW 2578   2.151   2.647   3.060 -0.2308 -0.0343 -0.1264
  860SOL    HW1 2579   2.078   2.685   0.012  1.6373  0.3564  2.0644
  860SOL    HW2 2580   2.242   2.650   0.003  3.3130 -0.5409  0.6494
  861SOL     OW 2581   0.408   0.483   0.440 -0.1408  0.0131  0.1263
  861SOL    HW1 2582   0.433   0.563   0.385  1.2109  0.4307 -3.6108
  861SOL    HW2 2583   0.325   0.506   0.500 -1.4545 -0.3303  1.1616
  862SOL     OW 2584   1.496   0.155   2.059 -0.3561  0.5960 -0.3585
  862SOL    HW1 2585   1.528   0.073   2.007 -2.1611 -0.2910  0.8477
  862SOL    HW2 2586   1.396   0.156   2.040  0.6746  2.6152  1.2594
  863SOL     OW 2587   2.686   2.294   1.127 -0.1096 -0.0470  0.6860
  863SOL    HW1 2588   2.585   2.294   1.131  0.8064 -1.7073  0.7131
  863SOL    HW2 2589   2.725   2.389   1.112 -0.6718 -0.6454 -0.2575
  864SOL     OW 2590   2.513   2.935   2.012  0.6114  0.2132 -0.1278
  864SOL    HW1 2591   2.413   2.947   2.036 -2.4743 -1.4634  0.8000
  864SOL    HW2 2592   2.523   2.885   1.922 -0.2770 -2.0021  1.4040
  865SOL     OW 2593   1.039   0.219   1.636  0.5074 -0.3208  0.2290
  865SOL    HW1 2594   1.079   0.127   1.638  2.3615  3.0255  0.2481
  865SOL    HW2 2595   1.074   0.285   1.706 -1.5041  1.0019  2.1048
  866SOL     OW 2596   2.184   2.931   0.949 -0.0385  0.4935 -0.0064
  866SOL    HW1 2597   2.258   2.979   0.894  2.5600  1.3241 -2.5566
  866SOL    HW2 2598   2.136   2.995   1.012  1.2267  0.7915 -1.1449
  867SOL     OW 2599   2.603   2.568   0.514 -0.6452  0.2372 -0.6290
  867SOL    HW1 2600   2.703   2.551   0.494  1.1360  1.1544  3.0683
  867SOL    HW2 2601   2.564   2.506   0.583  1.5291 -1.2250  1.9813
  868SOL     OW 2602   0.805   1.964   1.648  0.1516 -0.7462 -0.3007
  868SOL    HW1 2603   0.868   1.998   1.575 -0.3700  1.4720  0.8698
  868SOL    HW2 2604   0.772   1.874   1.610  0.0876 -0.4489  2.0334
  869SOL     OW 2605   1.982   2.506   0.310  0.4309 -0.2062  0.1054
  869SOL    HW1 2606   2.046   2.431   0.271  2.1535 -2.8741 -2.5772
  869SOL    HW2 2607   2.032   2.587   0.345 -2.2490 -2.2646  0.2954
  870SOL     OW 2608   2.208   2.087   0.928  0.4261  0.2758 -0.0386
  870SOL    HW1 2609   2.195   2.089   0.825 -2.9154  0.1228 -2.5650
  870SOL    HW2 2610   2.211   1.992   0.968  0.8584 -0.7414  1.6810
  871SOL     OW 2611   0.250   1.629   1.479  0.0303 -0.4507 -0.0751
  871SOL    HW1 2612   0.303   1.697   1.423  1.5832 -0.7638 -0.2293
  871SOL    HW2 2613   0.315   1.573   1.535  3.7807  0.9130 -0.8415
  872SOL     OW 2614   0.647   1.204   2.497 -0.0380  0.4101  0.2376
  872SOL    HW1 2615   0.732   1.258   2.499  1.1513 -0.5988 -2.3629
  872SOL    HW2 2616   0.658   1.109   2.533 -0.3795 -0.9215 -0.2585
  873SOL     OW 2617   0.995   2.246   1.614  0.2927  0.4993  0.3395
  873SOL    HW1 2618   0.961   2.322   1.667  1.4297 -4.3065 -3.6587
  873SOL    HW2 2619   1.083   2.271   1.570 -0.2568  1.9800  3.6760
  874SOL     OW 2620   1.225   1.045   2.009  0.4845  0.2881 -0.5992
  874SOL    HW1 2621   1.272   1.124   2.052  0.7833  1.8995  0.4567
  874SOL    HW2 2622   1.239   0.958   2.063 -0.4511  0.6738  1.2154
  875SOL     OW 2623   2.877   2.962   1.148  0.1997  0.1772 -0.0595
  875SOL    HW1 2624   2.787   3.010   1.167  0.2493 -0.1966  0.4254
  875SOL    HW2 2625   2.944   3.021   1.100 -1.0272  0.1401 -0.6015
  876SOL     OW 2626   0.942   1.330   0.569  0.4437  0.3719 -0.3359
  876SOL    HW1 2627   0.966   1.290   0.480 -2.0260  1.5245  0.2491
  876SOL    HW2 2628   0.982   1.425   0.568  0.4202 -0.0782 -0.1372
  877SOL     OW 2629   2.729   0.435   1.152  0.1215  0.4184  0.5945
  877SOL    HW1 2630   2.652   0.501   1.138 -0.1340 -1.3591  3.2255
  877SOL    HW2 2631   2.750   0.410   1.250  1.1457 -0.7182  0.4405
  878SOL     OW 2632   2.384   1.584   0.223 -0.1243 -0.2996  0.3730
  878SOL    HW1 2633   2.447   1.515   0.263  1.3091 -1.1060  1.4527
  878SOL    HW2 2634   2.317   1.617   0.291  3.9203 -0.7767 -0.7952
  879SOL     OW 2635   2.618   1.967   1.249 -0.2805 -0.0530 -0.0309
  879SOL    HW1 2636   2.639   1.869   1.266  0.2978  0.3483 -1.6259
  879SOL    HW2 2637   2.672   2.006   1.167  2.5184  1.3887 -1.3911
  880SOL     OW 2638   0.315   2.449   0.931 -0.0795  0.9476 -0.4785
  880SOL    HW1 2639   0.331   2.481   1.027  0.0009  0.3703  0.3149
  880SOL    HW2 2640   0.391   2.485   0.865  0.4296 -1.6086  0.6899
  881SOL     OW 2641   1.428   1.206   0.836  0.3514  0.1156  0.1788
  881SOL    HW1 2642   1.470   1.279   0.780  3.4754 -1.7671  1.7506
  881SOL    HW2 2643   1.326   1.205   0.818  1.4930  0.3271  2.1482
  882SOL     OW 2644   2.676   1.062   2.712 -0.4592 -0.7361 -0.2162
  882SOL    HW1 2645   2.615   1.065   2.627  1.7303 -0.7230  1.4577
  882SOL    HW2 2646   2.730   0.980   2.711 -3.1790 -0.4345  2.7108
  883SOL     OW 2647   1.307   3.003   1.411 -0.2704 -0.1494 -0.2286
  883SOL    HW1 2648   1.286   2.903   1.384 -0.8954 -4.7198  0.9208
  883SOL    HW2 2649   1.306   3.063   1.331  1.5085 -1.4128  1.6763
  884SOL     OW 2650   2.972   0.020   0.798 -0.3744 -0.4226  0.6053
  884SOL    HW1 2651   2.928   3.064   0.725  2.0200  0.9880 -0.4854
  884SOL    HW2 2652   2.941   0.118   0.769 -3.8534 -0.6455  0.1626
  885SOL     OW 2653   1.396   0.584   1.467  0.1601 -0.6046 -0.6341
  885SOL    HW1 2654   1.359   0.654   1.531  1.3727 -0.2707  0.3184
  885SOL    HW2 2655   1.442   0.635   1.396 -1.8463 -0.6834 -0.7081
  886SOL     OW 2656   1.594   0.774   3.035  0.1490 -0.5414 -0.2055
  886SOL    HW1 2657   1.601   0.765   2.934 -0.3684 -0.5465 -0.4305
  886SOL    HW2 2658   1.595   0.874   3.060  0.2931  1.2077 -0.9382
  887SOL     OW 2659   1.649   0.319   1.368 -0.4401 -0.0887  0.6478
  887SOL    HW1 2660   1.712   0.366   1.435 -1.1904  1.2822 -0.6936
  887SOL    HW2 2661   1.562   0.296   1.409  0.8442  2.9082 -0.4489
  888SOL     OW 2662   2.135   1.665   2.029 -0.2583 -0.3126  0.3143
  888SOL    HW1 2663   2.138   1.650   2.129  1.1971 -2.8706 -0.6231
  888SOL    HW2 2664   2.043   1.643   1.991 -1.5969  0.2627 -0.8407
  889SOL     OW 2665   2.183   1.843   0.735 -0.7212 -0.0179  0.0507
  889SOL    HW1 2666   2.186   1.936   0.694 -0.8795 -1.2698  1.8715
  889SOL    HW2 2667   2.086   1.818   0.759  2.8206 -2.4163 -0.3390
  890SOL     OW 2668   1.124   1.828   1.013  0.6155  0.3054 -0.2655
  890SOL    HW1 2669   1.166   1.802   0.924 -0.2351  2.6362  3.3768
  890SOL    HW2 2670   1.042   1.776   1.035  1.2827  4.2395  0.5847
  891SOL     OW 2671   2.582   0.691   2.301  0.3358 -0.3329 -0.1765
  891SOL    HW1 2672   2.664   0.649   2.340  0.2158 -0.8019  0.4266
  891SOL    HW2 2673   2.515   0.620   2.267 -2.2459 -0.3716 -3.8138
  892SOL     OW 2674   0.995   0.357   2.312  0.0698  0.1786  0.4180
  892SOL    HW1 2675   1.081   0.313   2.291 -2.6965  1.8116  2.4512
  892SOL    HW2 2676   0.998   0.440   2.373 -3.5539  1.7717 -1.6279
  893SOL     OW 2677   1.606   0.052   1.291 -0.2048 -0.0093  0.1660
  893SOL    HW1 2678   1.617   0.016   1.387  2.0135  2.8999  0.0042
  893SOL    HW2 2679   1.647   0.144   1.290 -0.7699 -2.1845  0.5713
  894SOL     OW 2680   2.447   0.657   0.749  0.2543 -0.2392 -0.3687
  894SOL    HW1 2681   2.368   0.683   0.809 -0.2528  2.4366  3.8847
  894SOL    HW2 2682   2.411   0.657   0.649 -1.5473  2.2147 -0.6482
  895SOL     OW 2683   1.987   2.617   2.605  0.2396 -0.3144 -0.5676
  895SOL    HW1 2684   2.066   2.584   2.667  1.5285  1.6909 -0.1282
  895SOL    HW2 2685   1.905   2.628   2.659  2.0084 -1.5846  1.1292
  896SOL     OW 2686   1.823   2.987   1.573  0.6983 -0.0444  0.0725
  896SOL    HW1 2687   1.720   2.986   1.581  0.2049  1.8908  1.2660
  896SOL    HW2 2688   1.856   2.903   1.522 -1.3931  0.4190  0.5188
  897SOL     OW 2689   0.557   1.945   2.084  0.0157  0.6759  0.2487
  897SOL    HW1 2690   0.486   1.881   2.121 -2.1908  0.8436  0.1779
  897SOL    HW2 2691   0.554   1.947   1.981 -1.1478  0.5185 -2.4359
  898SOL     OW 2692   2.362   1.821   2.001  0.2685  0.3042  0.2313
  898SOL    HW1 2693   2.278   1.759   2.004 -0.5505 -0.3550  0.1367
  898SOL    HW2 2694   2.430   1.776   1.937  0.5971  0.5426 -2.0485
  899SOL     OW 2695   1.726   2.314   0.709 -0.4024 -1.1732 -0.4649
  899SOL    HW1 2696   1.642   2.269   0.677  0.5762 -1.5344 -2.4975
  899SOL    HW2 2697   1.811   2.268   0.678 -0.9389  0.1171  2.3478
  900SOL     OW 2698   1.089   0.194   0.225 -0.0203  0.1251 -0.4723
  900SOL    HW1 2699   1.083   0.225   0.130  2.2920  1.2847  1.5911
  900SOL    HW2 2700   1.083   0.097   0.224 -1.8534  3.3793  0.0225
  901SOL     OW 2701   1.122   1.876   2.222 -0.1659  0.0981 -0.1236
  901SOL    HW1 2702   1.037   1.850   2.272 -0.9511 -0.1278  0.5459
  901SOL    HW2 2703   1.172   1.795   2.188 -0.8492 -1.0792  1.5627
  902SOL     OW 2704   2.374   0.586   3.025  0.4293 -0.5044  0.5997
  902SOL    HW1 2705   2.459   0.628   2.989 -1.1765  1.9726 -0.6270
  902SOL    HW2 2706   2.387   0.504   3.085  0.9304 -0.3153 -1.4116
  903SOL     OW 2707   1.931   0.940   2.322  0.1543  0.2110  0.3543
  903SOL    HW1 2708   1.977   0.993   2.252 -1.3027 -1.3150 -0.1159
  903SOL    HW2 2709   1.937   0.991   2.409 -0.6450 -1.5463  3.1108
  904SOL     OW 2710   1.576   0.797   2.005  0.0034  0.4815 -0.1914
  904SOL    HW1 2711   1.577   0.874   1.937  0.5296  1.5080  1.4638
  904SOL    HW2 2712   1.670   0.782   2.047 -0.8549  0.4234  3.2144
  905SOL     OW 2713   2.233   0.268   1.621  0.2010 -0.8399  0.8864
  905SOL    HW1 2714   2.208   0.206   1.546  0.6455  1.3926 -0.2026
  905SOL    HW2 2715   2.151   0.300   1.674  0.7992  0.8492  1.5848
  906SOL     OW 2716   1.969   1.971   0.378  0.2044 -0.0930  0.3692
  906SOL    HW1 2717   2.059   1.993   0.334 -1.8931  1.3390 -0.7571
  906SOL    HW2 2718   1.968   1.874   0.409 -2.3008 -3.3998 -2.0613
  907SOL     OW 2719   1.177   2.711   0.858 -0.2867 -0.1292 -0.5702
  907SOL    HW1 2720   1.252   2.657   0.810  3.6969 -0.7481  0.6727
  907SOL    HW2 2721   1.084   2.664   0.836  0.0764  0.4002 -0.9614
  908SOL     OW 2722   1.736   2.241   2.575 -0.0389 -0.5586 -0.1488
  908SOL    HW1 2723   1.835   2.273   2.571 -3.4209 -2.9600  2.0908
  908SOL    HW2 2724   1.683   2.280   2.497 -0.8537  1.3490  0.3067
  909SOL     OW 2725   2.338   0.461   2.052 -0.5384 -0.4889  0.1439
  909SOL    HW1 2726   2.288   0.538   2.088  1.2066 -0.9677 -1.0813
  909SOL    HW2 2727   2.385   0.488   1.964  0.3464 -0.3966 -3.2838
  910SOL     OW 2728   1.249   0.677   2.944  0.3452 -0.2453  0.6428
  910SOL    HW1 2729   1.325   0.624   2.984  0.0283  0.5846 -0.7093
  910SOL    HW2 2730   1.245   0.770   2.975  1.2623 -2.4912 -0.8854
  911SOL     OW 2731   3.079   0.899   2.920 -0.0056 -0.0171 -0.2520
  911SOL    HW1 2732   0.042   0.901   2.998  2.1194 -0.6635 -2.1606
  911SOL    HW2 2733   3.021   0.981   2.922  0.3599  0.1138 -1.0141
  912SOL     OW 2734   0.113   2.649   0.614  0.0704 -0.4211 -0.0873
  912SOL    HW1 2735   0.091   2.555   0.639  2.0410  2.7654  0.2805
  912SOL    HW2 2736   0.120   2.714   0.698 -2.1211 -2.4114 -0.4910
  913SOL     OW 2737   2.648   1.950   2.397  0.2926  0.5466 -0.2359
  913SOL    HW1 2738   2.571   1.963   2.334  4.2160  1.6814 -1.6344
  913SOL    HW2 2739   2.732   1.997   2.359 -0.6985 -0.4182  0.7655
  914SOL     OW 2740   1.872   1.387   1.040 -0.4462  0.1160  0.0866
  914SOL    HW1 2741   1.954   1.349   0.990  2.8401  2.3275  1.7779
  914SOL    HW2 2742   1.784   1.345   1.006  2.1984  1.8239 -0.4382
  915SOL     OW 2743   0.291   2.664   2.317  0.7503 -0.2222 -1.1685
  915SOL    HW1 2744   0.349   2.587   2.350 -1.9776 -1.2412 -0.2583
  915SOL    HW2 2745   0.313   2.756   2.360 -0.9371  0.5077  0.1294
  916SOL     OW 2746   0.863   3.015   1.523 -0.5163  0.2606 -0.4031
  916SOL    HW1 2747   0.860   2.985   1.422  3.5586 -1.1612 -4.1240
  916SOL    HW2 2748   0.952   3.038   1.559 -2.7834  2.2674 -0.9444
  917SOL     OW 2749   2.274   0.849   0.283 -0.2328  0.1741 -0.0010
  917SOL    HW1 2750   2.370   0.869   0.313  0.3028 -1.8651 -0.3062
  917SOL    HW2 2751   2.267   0.866   0.180  2.1152 -0.4339 -0.1244
  918SOL     OW 2752   1.741   2.293   2.842  0.0262  0.1699  0.2875
  918SOL    HW1 2753   1.745   2.396   2.832  0.4920 -0.2587 -1.9852
  918SOL    HW2 2754   1.745   2.257   2.743  1.5083  0.0715 -0.1108
  919SOL     OW 2755   1.868   2.764   1.417  0.5698 -0.2103 -0.4112
  919SOL    HW1 2756   1.871   2.825   1.335  1.4717  0.2853  3.6291
  919SOL    HW2 2757   1.914   2.674   1.406 -0.5586 -1.9005 -1.9875
  920SOL     OW 2758   1.235   0.225   2.373  0.3834 -0.0613 -0.3407
  920SOL    HW1 2759   1.218   0.220   2.478  1.5064 -2.2566  3.9735
  920SOL    HW2 2760   1.270   0.139   2.335  0.8850 -0.9996  0.7967
  921SOL     OW 2761   0.112   0.934   2.666 -0.0155  0.0566 -0.4011
  921SOL    HW1 2762   0.176   1.012   2.659  0.6634 -1.4415  1.0908
  921SOL    HW2 2763   0.069   0.936   2.761  0.7991 -1.6881  1.0701
  922SOL     OW 2764   0.273   2.150   0.835 -0.3004 -0.1440  0.3369
  922SOL    HW1 2765   0.175   2.167   0.817 -1.5820 -1.0129 -0.0554
  922SOL    HW2 2766   0.321   2.230   0.876 -1.6685 -2.9768 -2.4266
  923SOL     OW 2767   0.605   1.593   1.865 -0.4910  0.0091 -0.2528
  923SOL    HW1 2768   0.612   1.686   1.902 -2.4413  0.9470  2.9207
  923SOL    HW2 2769   0.526   1.585   1.803  1.8169 -0.2368 -2.0386
  924SOL     OW 2770   1.623   2.902   2.640 -0.0964  0.4084  0.3667
  924SOL    HW1 2771   1.539   2.958   2.652  2.2025  0.7679 -1.5185
  924SOL    HW2 2772   1.695   2.952   2.691 -1.4449 -0.5608  0.5594
  925SOL     OW 2773   2.541   1.536   0.811 -0.0381  0.5494 -0.2322
  925SOL    HW1 2774   2.565   1.506   0.717  0.1879 -3.2996  1.2803
  925SOL    HW2 2775   2.618   1.596   0.842  1.3483 -0.0842 -1.0294
  926SOL     OW 2776   2.187   0.827   0.863  0.5347 -0.3359 -0.0330
  926SOL    HW1 2777   2.193   0.752   0.935  1.1156  0.7670  0.5003
  926SOL    HW2 2778   2.265   0.889   0.867 -0.3401 -0.9644  0.2759
  927SOL     OW 2779   2.005   0.232   1.315 -0.1838 -0.4732  0.0324
  927SOL    HW1 2780   2.038   0.330   1.315  0.3026  2.4533 -0.1422
  927SOL    HW2 2781   2.001   0.201   1.412  3.2010  0.6914 -0.1633
  928SOL     OW 2782   0.098   1.001   2.224  0.1606 -0.7247 -0.1011
  928SOL    HW1 2783   0.100   0.902   2.228 -0.5783  2.0442 -0.8014
  928SOL    HW2 2784   0.172   1.035   2.161  1.4166  1.1760  0.8008
  929SOL     OW 2785   2.365   1.026   1.202  0.2373  0.1760 -0.3912
  929SOL    HW1 2786   2.385   0.998   1.108  0.1785 -0.4331  0.1027
  929SOL    HW2 2787   2.399   1.117   1.218  0.0593 -2.5830 -1.1214
  930SOL     OW 2788   2.689   2.487   1.816 -0.0910 -0.5728  0.1570
  930SOL    HW1 2789   2.755   2.414   1.791 -1.9109 -1.0558  2.3349
  930SOL    HW2 2790   2.596   2.464   1.776  0.2651  2.1708  1.0003
  931SOL     OW 2791   2.132   1.055   1.345 -0.2796  0.0525  0.1540
  931SOL    HW1 2792   2.225   1.042   1.306 -1.5308 -0.0656 -1.7133
  931SOL    HW2 2793   2.072   1.107   1.282  2.1693 -1.5142 -0.2656
  932SOL     OW 2794   0.306   0.903   1.813 -0.2009 -0.4818 -0.5923
  932SOL    HW1 2795   0.264   0.959   1.745  1.1886 -1.2596 -0.2907
  932SOL    HW2 2796   0.290   0.947   1.905 -3.6772  1.9607 -0.2639
  933SOL     OW 2797   2.324   2.018   1.674  0.0944 -0.1620 -0.2146
  933SOL    HW1 2798   2.428   2.012   1.676 -0.1033  0.2392  0.2338
  933SOL    HW2 2799   2.305   2.051   1.764  0.4728  0.4471 -1.0230
  934SOL     OW 2800   0.847   2.151   1.833 -0.1622 -0.1889  0.2068
  934SOL    HW1 2801   0.942   2.184   1.832  1.3741 -0.8900  0.6598
  934SOL    HW2 2802   0.826   2.089   1.754 -1.2893  2.7696  1.2862
  935SOL     OW 2803   0.129   1.492   1.744  0.4763 -0.2244  0.2967
  935SOL    HW1 2804   0.054   1.452   1.803  1.4007 -2.4282 -1.5329
  935SOL    HW2 2805   0.123   1.593   1.737  1.4286 -2.1729  0.1203
  936SOL     OW 2806   2.793   1.083   1.337 -0.4011 -0.3887 -0.0940
  936SOL    HW1 2807   2.698   1.112   1.308  1.3079 -0.1724  0.9102
  936SOL    HW2 2808   2.799   0.987   1.376  2.2964 -1.3339  1.4056
  937SOL     OW 2809   1.806   0.479   1.564 -0.1256  0.5073 -0.4960
  937SOL    HW1 2810   1.787   0.571   1.522 -2.3184  1.7153  0.7100
  937SOL    HW2 2811   1.790   0.473   1.667 -1.1078 -0.4707  1.2508
  938SOL     OW 2812   0.644   2.615   0.393  0.2723 -0.1660 -0.0578
  938SOL    HW1 2813   0.606   2.684   0.327  0.8691  0.5403 -2.6175
  938SOL    HW2 2814   0.634   2.644   0.492 -0.5437 -1.4540  1.2663
  939SOL     OW 2815   3.005   1.853   2.679 -0.2357  0.4048 -0.0149
  939SOL    HW1 2816   3.085   1.795   2.709  0.6608 -2.2262  1.2548
  939SOL    HW2 2817   3.007   1.938   2.731 -1.3184 -1.5421 -1.0333
  940SOL     OW 2818   1.433   1.902   0.381  0.1000 -0.6075 -0.1695
  940SOL    HW1 2819   1.534   1.905   0.379 -1.3101 -0.8221  1.9951
  940SOL    HW2 2820   1.389   1.994   0.373  1.2398 -0.5380  1.3942
  941SOL     OW 2821   2.163   2.694   0.394  0.1717 -0.3326  0.1493
  941SOL    HW1 2822   2.228   2.767   0.375 -1.4994  0.2518 -1.3025
  941SOL    HW2 2823   2.199   2.638   0.473 -2.1078  0.0594 -1.5317
  942SOL     OW 2824   1.640   1.946   0.899  0.9939 -0.3260 -0.0985
  942SOL    HW1 2825   1.625   1.853   0.932  2.5444 -1.7252  0.9250
  942SOL    HW2 2826   1.646   2.016   0.972  0.2690 -0.4751  0.5081
  943SOL     OW 2827   2.175   0.858   1.620  0.2778  0.4151  0.4051
  943SOL    HW1 2828   2.246   0.852   1.548  0.9524 -0.1326  0.8936
  943SOL    HW2 2829   2.117   0.936   1.598  2.6790 -0.5459 -0.5229
  944SOL     OW 2830   1.314   0.782   2.071  0.6019  0.2320  0.1669
  944SOL    HW1 2831   1.413   0.769   2.070 -1.7168 -2.0718 -2.1898
  944SOL    HW2 2832   1.266   0.735   1.994 -0.0419  0.5649  0.6195
  945SOL     OW 2833   2.221   2.641   1.457 -0.0058  0.0831  0.0187
  945SOL    HW1 2834   2.320   2.622   1.436  2.4090 -0.3981  0.6979
  945SOL    HW2 2835   2.210   2.656   1.556  2.8460 -1.7555  2.0119
  946SOL     OW 2836   0.332   1.141   0.535 -0.4406 -0.0930  0.7349
  946SOL    HW1 2837   0.428   1.181   0.538  2.6601  3.9180 -1.4692
  946SOL    HW2 2838   0.256   1.208   0.560 -1.5978  0.4205  0.5197
  947SOL     OW 2839   1.662   2.119   1.118  0.0597  0.5138  0.5720
  947SOL    HW1 2840   1.630   2.168   1.197  0.2734 -2.9769 -2.1308
  947SOL    HW2 2841   1.757   2.146   1.082  1.2619  1.1518 -0.0289
  948SOL     OW 2842   0.203   1.609   1.053  0.4305 -0.1889 -0.2773
  948SOL    HW1 2843   0.160   1.602   1.146 -0.7408 -0.1446  1.6371
  948SOL    HW2 2844   0.178   1.528   0.999  0.1882  4.8328 -0.3653
  949SOL     OW 2845   1.175   1.231   1.398  0.6291  0.5266 -0.1392
  949SOL    HW1 2846   1.094   1.218   1.465  1.4387 -2.5121  1.2590
  949SOL    HW2 2847   1.171   1.166   1.319 -1.8781 -0.0786  0.2843
  950SOL     OW 2848   0.503   0.656   1.019  0.3418  0.2784 -0.4631
  950SOL    HW1 2849   0.553   0.677   1.102 -1.0293  1.1737 -2.6962
  950SOL    HW2 2850   0.420   0.722   1.016 -0.5491  1.4941 -0.0374
  951SOL     OW 2851   0.696   1.976   2.316 -0.8960  0.2028 -0.0292
  951SOL    HW1 2852   0.643   1.926   2.250  1.2608 -1.4828 -2.6415
  951SOL    HW2 2853   0.744   2.052   2.266 -1.8796 -0.3216 -1.4482
  952SOL     OW 2854   0.970   1.561   0.015  0.7492 -0.5149  0.1586
  952SOL    HW1 2855   0.939   1.650   0.056  0.2099 -1.8354 -0.5532
  952SOL    HW2 2856   1.057   1.532   0.064  0.4588 -1.7357 -3.0704
  953SOL     OW 2857   1.227   2.903   0.003  0.0964 -0.1978 -0.9570
  953SOL    HW1 2858   1.271   2.923   0.096  1.0527 -1.5112  2.7374
  953SOL    HW2 2859   1.172   2.817   0.005  0.9883 -1.7705  0.3047
  954SOL     OW 2860   1.729   1.466   0.055 -0.2636 -0.1145  0.5051
  954SOL    HW1 2861   1.787   1.375   0.057  1.3885 -0.1715 -0.3209
  954SOL    HW2 2862   1.668   1.473   0.140 -1.9300  0.8957 -2.4569
  955SOL     OW 2863   0.043   2.583   2.943  0.1507 -0.2509 -0.0849
  955SOL    HW1 2864   0.062   2.668   2.997  1.4342 -0.0386  0.5600
  955SOL    HW2 2865   3.081   2.601   2.874  1.1868  0.6481  4.2187
  956SOL     OW 2866   1.138   0.564   1.361 -0.2294 -0.3721  0.1288
  956SOL    HW1 2867   1.212   0.590   1.423 -0.2421 -0.2340 -1.9442
  956SOL    HW2 2868   1.142   0.465   1.341  1.7810  2.7767  0.1975
  957SOL     OW 2869   1.436   1.298   1.472  0.0926  0.3164  0.7578
  957SOL    HW1 2870   1.347   1.262   1.438 -1.3300 -0.7809  3.0378
  957SOL    HW2 2871   1.426   1.356   1.557 -0.0690  0.6051  1.4503
  958SOL     OW 2872   0.472   1.575   1.016 -0.2412  0.4004 -0.2276
  958SOL    HW1 2873   0.379   1.584   1.055 -1.2067  0.2348 -0.9572
  958SOL    HW2 2874   0.468   1.597   0.914 -0.4670  1.7659  1.0673
  959SOL     OW 2875   1.532   1.433   1.254 -0.6356 -0.2871  0.1120
  959SOL    HW1 2876   1.592   1.511   1.276  0.5436  0.3766  0.4565
  959SOL    HW2 2877   1.499   1.390   1.337 -1.1716  2.1594  0.0114
  960SOL     OW 2878   0.226   1.134   3.003  0.1167 -0.5726  0.4822
  960SOL    HW1 2879   0.305   1.157   3.063  0.5877 -3.9005  0.4438
  960SOL    HW2 2880   0.234   1.165   2.905 -1.2329  0.7307  0.4707
  961SOL     OW 2881   0.928   1.319   1.567 -0.5876  0.0315  0.3061
  961SOL    HW1 2882   0.894   1.283   1.656  1.0110 -0.7931  2.0577
  961SOL    HW2 2883   0.942   1.421   1.578  2.5719  2.6245  2.2560
  962SOL     OW 2884   1.140   1.268   0.818 -0.0669 -0.5133 -0.2390
  962SOL    HW1 2885   1.135   1.354   0.878  1.1902  0.2444  2.7246
  962SOL    HW2 2886   1.087   1.276   0.732 -0.4251 -0.6973 -0.1588
  963SOL     OW 2887   1.462   1.832   2.757  0.3049 -0.4723  0.0762
  963SOL    HW1 2888   1.520   1.912   2.734  1.9125  1.5860 -2.4451
  963SOL    HW2 2889   1.509   1.771   2.822  1.2041 -0.5056 -1.0939
  964SOL     OW 2890   0.504   2.782   0.196 -0.4930 -0.6019  0.1487
  964SOL    HW1 2891   0.454   2.868   0.214 -3.7849 -0.0399 -1.9752
  964SOL    HW2 2892   0.446   2.724   0.141 -0.2343  0.1637  2.4307
  965SOL     OW 2893   0.258   2.203   0.360  0.0053  0.2043  0.2682
  965SOL    HW1 2894   0.343   2.155   0.322  0.1570  1.2489 -1.1983
  965SOL    HW2 2895   0.184   2.209   0.292  0.4437 -0.9839  3.4982
  966SOL     OW 2896   0.110   1.541   2.569  0.5363 -0.9482  0.0231
  966SOL    HW1 2897   0.053   1.457   2.589  0.1518 -0.0599 -1.0502
  966SOL    HW2 2898   0.172   1.555   2.649  0.4233 -0.5707  1.0651
  967SOL     OW 2899   2.749   0.057   2.451 -0.2147 -0.3682  0.5806
  967SOL    HW1 2900   2.721   3.065   2.461 -1.2217 -0.2753  3.2682
  967SOL    HW2 2901   2.779   0.087   2.540  1.4823 -2.1987 -2.3756
  968SOL     OW 2902   2.002   0.289   0.432  0.0218  0.3172 -0.3015
  968SOL    HW1 2903   1.959   0.325   0.346  1.5865  1.1550 -1.5505
  968SOL    HW2 2904   2.052   0.365   0.481 -0.5374 -2.2763 -1.5422
  969SOL     OW 2905   0.304   1.068   2.050 -0.1518  0.2445 -0.6304
  969SOL    HW1 2906   0.244   1.144   2.010  1.8909 -1.2004 -0.4852
  969SOL    HW2 2907   0.399   1.105   2.072 -1.5673 -2.2364  0.4084
  970SOL     OW 2908   1.953   1.596   0.876  0.1310  0.2178  0.3644
  970SOL    HW1 2909   2.018   1.523   0.847  0.4250 -1.1526 -1.4035
  970SOL    HW2 2910   1.941   1.590   0.976 -0.5571  0.5062 -2.4436
  971SOL     OW 2911   2.662   3.072   1.239 -0.0372  0.2791  0.3630
  971SOL    HW1 2912   2.608   2.988   1.253  0.5145 -0.5774  2.2408
  971SOL    HW2 2913   2.611   0.039   1.184 -0.1486 -1.1867 -0.2273
  972SOL     OW 2914   0.683   2.816   1.767  0.2313  0.1903  0.4112
  972SOL    HW1 2915   0.726   2.812   1.857 -0.4720 -0.5316  0.4455
  972SOL    HW2 2916   0.757   2.834   1.695  1.4628 -1.6710  2.9265
  973SOL     OW 2917   0.627   0.395   2.924 -0.0017  0.2178 -0.4649
  973SOL    HW1 2918   0.649   0.376   3.021  2.5263 -1.7226  0.0625
  973SOL    HW2 2919   0.545   0.456   2.927  0.4643  1.6118 -2.4409
  974SOL     OW 2920   2.136   1.643   2.329 -0.4658 -0.2019  0.3300
  974SOL    HW1 2921   2.118   1.604   2.421 -3.2543  0.4806  1.2341
  974SOL    HW2 2922   2.238   1.645   2.313  3.3613  0.1677  0.3181
  975SOL     OW 2923   0.116   0.217   1.548  0.4420 -0.1034  0.1725
  975SOL    HW1 2924   0.182   0.210   1.629 -1.7775  0.7775 -1.2118
  975SOL    HW2 2925   0.091   0.121   1.514  0.3676  0.7412  0.2190
  976SOL     OW 2926   0.916   1.806   2.378  0.2261 -0.1303  0.0652
  976SOL    HW1 2927   0.827   1.844   2.347 -0.1547 -0.9102  0.5836
  976SOL    HW2 2928   0.953   1.854   2.461 -1.3815  1.5461 -0.6315
  977SOL     OW 2929   0.701   2.332   0.462  0.4861  0.1709  0.1987
  977SOL    HW1 2930   0.630   2.354   0.394 -0.7327  1.2897  0.3442
  977SOL    HW2 2931   0.781   2.395   0.457 -1.9457 -2.0412 -0.3581
  978SOL     OW 2932   3.096   1.491   2.198 -0.1772 -0.0384  0.1920
  978SOL    HW1 2933   0.068   1.501   2.264 -0.2283 -0.0451  0.7599
  978SOL    HW2 2934   3.021   1.433   2.240 -4.4849  0.6251 -0.1312
  979SOL     OW 2935   1.666   2.552   1.446  0.6013  0.0091  0.1253
  979SOL    HW1 2936   1.707   2.640   1.415  2.7093 -0.6447  4.1635
  979SOL    HW2 2937   1.724   2.477   1.408  0.2798 -2.4419  0.6442
  980SOL     OW 2938   1.102   1.087   2.820  0.0565 -0.0252  0.2710
  980SOL    HW1 2939   1.160   1.164   2.842  0.7863  0.3518 -1.6692
  980SOL    HW2 2940   1.003   1.110   2.809  0.6301 -0.0633 -2.0068
  981SOL     OW 2941   2.382   0.162   1.834 -0.0474  0.1526  0.2422
  981SOL    HW1 2942   2.323   0.180   1.913 -0.1589  0.8685 -1.7686
  981SOL    HW2 2943   2.342   0.210   1.755  0.3607 -0.1264 -1.6871
  982SOL     OW 2944   0.414   0.551   2.942  0.3066 -0.6675  0.4228
  982SOL    HW1 2945   0.350   0.623   2.959  0.7657 -1.3318  2.3530
  982SOL    HW2 2946   0.366   0.477   2.891 -2.3022 -0.9189 -0.6857
  983SOL     OW 2947   2.077   1.254   2.439 -0.4947 -0.4008 -0.0079
  983SOL    HW1 2948   2.051   1.261   2.342 -0.5350  1.0105 -0.2968
  983SOL    HW2 2949   2.052   1.165   2.470 -0.0332  2.1970 -1.4430
  984SOL     OW 2950   1.241   0.135   1.952 -0.2948  0.3048  0.3234
  984SOL    HW1 2951   1.212   0.203   1.883 -0.8423 -0.6027 -2.4811
  984SOL    HW2 2952   1.164   0.120   2.018 -1.3263 -2.3967  1.8183
  985SOL     OW 2953   1.850   1.639   1.942  0.0638 -0.5011  0.1679
  985SOL    HW1 2954   1.768   1.622   1.999 -1.5584  0.5301  0.7669
  985SOL    HW2 2955   1.841   1.594   1.853  0.8857  0.0856  2.9769
  986SOL     OW 2956   2.273   0.729   1.832  0.2567  0.5830 -0.4496
  986SOL    HW1 2957   2.305   0.635   1.807 -1.0850 -0.7741 -1.8022
  986SOL    HW2 2958   2.224   0.760   1.752 -0.3513 -4.4803 -1.9846
  987SOL     OW 2959   2.516   0.586   1.235 -0.8633  0.1609  0.1245
  987SOL    HW1 2960   2.547   0.615   1.325 -4.2336 -0.5106 -2.8490
  987SOL    HW2 2961   2.418   0.556   1.241 -3.0335  2.7238  0.3906
  988SOL     OW 2962   2.961   1.011   2.070 -0.5360 -0.1604 -0.0629
  988SOL    HW1 2963   2.888   0.940   2.095 -0.5304 -1.1411  3.0077
  988SOL    HW2 2964   3.044   1.013   2.132  1.7490  1.2218 -1.1265
  989SOL     OW 2965   2.419   1.573   3.052  0.0264 -0.1285 -0.1966
  989SOL    HW1 2966   2.413   1.562   0.045 -1.2675 -0.6131 -2.1343
  989SOL    HW2 2967   2.421   1.671   3.022  0.5837  0.3863 -0.0320
  990SOL     OW 2968   1.025   0.502   2.734 -0.5584  0.1550 -0.1360
  990SOL    HW1 2969   1.073   0.429   2.790 -1.2837 -1.8704 -0.1270
  990SOL    HW2 2970   1.022   0.588   2.786  4.6262  2.5953 -0.3016
  991SOL     OW 2971   1.291   1.026   0.520  0.2315 -0.3653 -0.4950
  991SOL    HW1 2972   1.294   0.998   0.423 -2.3382  2.4066 -0.4337
  991SOL    HW2 2973   1.348   1.110   0.533  0.2520 -0.1618  0.4839
  992SOL     OW 2974   2.076   1.391   0.173  0.2967  0.0871  0.5752
  992SOL    HW1 2975   2.014   1.471   0.163  1.3567 -0.6736 -1.3217
  992SOL    HW2 2976   2.172   1.414   0.153 -0.7657  0.0213 -4.5245
  993SOL     OW 2977   2.919   0.709   0.685  0.0566 -0.2188 -0.2758
  993SOL    HW1 2978   2.989   0.680   0.614 -2.1094 -0.7247 -0.1214
  993SOL    HW2 2979   2.950   0.681   0.780  0.8875  0.1766 -2.5554
  994SOL     OW 2980   3.098   1.999   2.414  0.7038  0.3985  0.5955
  994SOL    HW1 2981   3.092   1.934   2.490 -0.3223  1.5316 -4.2729
  994SOL    HW2 2982   0.076   2.061   2.419  0.3595  0.0404  2.2484
  995SOL     OW 2983   1.791   1.520   2.901  0.2866  0.1274 -0.1114
  995SOL    HW1 2984   1.789   1.495   3.001 -0.8603 -0.3064 -2.0164
  995SOL    HW2 2985   1.878   1.560   2.877 -0.9447 -0.5025  1.1973
  996SOL     OW 2986   2.409   1.206   0.054 -0.1027  0.7678  0.7422
  996SOL    HW1 2987   2.445   1.279   0.112  1.2080  1.5792 -0.7559
  996SOL    HW2 2988   2.322   1.166   0.094 -1.5225 -0.6312  1.3397
  997SOL     OW 2989   1.952   1.302   1.659 -0.4689  0.0780 -0.2914
  997SOL    HW1 2990   1.981   1.205   1.638 -1.9636  0.4858  1.2930
  997SOL    HW2 2991   2.025   1.350   1.711 -2.1372 -0.4818 -0.4066
  998SOL     OW 2992   2.537   1.849   0.258 -0.0922  0.3030 -0.6390
  998SOL    HW1 2993   2.461   1.796   0.216 -2.2068 -0.4828  0.9768
  998SOL    HW2 2994   2.516   1.837   0.359 -1.6370 -1.8510 -0.4385
  999SOL     OW 2995   2.620   2.327   0.115 -0.4596  0.5010 -0.5637
  999SOL    HW1 2996   2.637   2.228   0.094 -0.0316  1.7452 -0.7334
  999SOL    HW2 2997   2.702   2.381   0.085 -0.4715  0.4694 -2.0820
 1000SOL     OW 2998   0.973   0.510   2.075  0.1285  0.2107 -0.5014
 1000SOL    HW1 2999   0.951   0.463   2.165  1.2598  0.8588  4.7342
 1000SOL    HW2 3000   0.889   0.515   2.016 -0.5737 -2.7191  0.5322
   3.10582   3.10582   3.10582
