1000 SPC/Fw water molecules t= 255.00000 step= 255000
 3000
    1SOL     OW    1   2.827   2.300   1.015  0.6047 -0.4566  0.1637
    1SOL    HW1    2   2.849   2.202   0.997  1.6463  0.9690 -1.5855
    1SOL    HW2    3   2.760   2.337   0.947 -0.0690 -2.1913  0.7400
    2SOL     OW    4   1.727   2.100   1.241  0.0078 -0.5865 -0.5293
    2SOL    HW1    5   1.667   2.140   1.313  2.3817 -0.9295  1.3899
    2SOL    HW2    6   1.729   1.999   1.262  1.6178 -0.2293  0.1677
    3SOL     OW    7   1.170   2.631   2.804 -0.2058 -0.5718 -0.2830
    3SOL    HW1    8   1.223   2.704   2.844 -0.0484 -0.7279  1.3789
    3SOL    HW2    9   1.123   2.577   2.879 -0.3769 -0.2083  1.0363
    4SOL     OW   10   1.843   1.961   1.867  0.1591  1.0399  0.3620
    4SOL    HW1   11   1.898   1.956   1.955 -0.9236  0.7327  0.1607
    4SOL    HW2   12   1.843   2.058   1.834 -0.4507  0.3296 -0.8329
    5SOL     OW   13   1.493   1.108   1.459 -0.2333  0.1930 -0.5691
    5SOL    HW1   14   1.496   1.202   1.491 -2.0171  1.5347  0.3406
    5SOL    HW2   15   1.570   1.088   1.393 -0.0002 -0.5226 -3.3593
    6SOL     OW   16   2.387   3.102   0.157  0.9002 -0.4490 -0.2039
    6SOL    HW1   17   2.431   0.077   0.119  0.8331 -1.6299  0.6828
    6SOL    HW2   18   2.383   3.034   0.080 -2.0289 -1.0402 -1.1887
    7SOL     OW   19   2.719   1.409   1.347  0.3734  0.2123 -0.3194
    7SOL    HW1   20   2.767   1.357   1.415 -3.1764  0.4729 -0.4500
    7SOL    HW2   21   2.770   1.476   1.300 -2.7723 -2.4694  1.9721
    8SOL     OW   22   1.158   0.142   0.892 -0.5644  0.5453 -0.0681
    8SOL    HW1   23   1.096   0.063   0.906  0.0049 -0.1015 -3.5101
    8SOL    HW2   24   1.231   0.115   0.821  0.8269 -2.4652 -1.4398
    9SOL     OW   25   1.477   0.227   2.487 -0.5043 -0.3172 -0.0923
    9SOL    HW1   26   1.491   0.318   2.445 -0.4983 -2.6229  0.7170
    9SOL    HW2   27   1.570   0.190   2.514  3.3718 -1.8143  0.8456
   10SOL     OW   28   0.644   2.226   0.698  0.1980  0.2981 -0.2426
   10SOL    HW1   29   0.634   2.223   0.800 -1.1171  1.5714  4.3805
   10SOL    HW2   30   0.707   2.140   0.680 -0.1609 -1.7280  1.5967
   11SOL     OW   31   1.325   1.259   0.410 -0.5576  0.3386 -0.2727
   11SOL    HW1   32   1.356   1.315   0.485 -0.4471 -2.3994 -1.4083
   11SOL    HW2   33   1.354   1.298   0.323  0.7804 -1.6748  0.6925
   12SOL     OW   34   2.890   0.087   1.874  0.3382  0.0573  0.0874
   12SOL    HW1   35   2.844   0.102   1.963  0.5700 -1.6081  0.0415
   12SOL    HW2   36   2.820   0.098   1.801 -1.6843 -0.6708  1.5570
   13SOL     OW   37   1.627   0.244   0.492 -0.3426 -0.2429 -0.1609
   13SOL    HW1   38   1.608   0.338   0.531  1.1344  2.6488 -1.2485
   13SOL    HW2   39   1.696   0.200   0.550 -0.2511  1.1368  1.9922
   14SOL     OW   40   1.427   2.514   1.250  0.1341  0.3351 -0.2643
   14SOL    HW1   41   1.378   2.601   1.244 -0.9673 -0.1572 -0.2053
   14SOL    HW2   42   1.527   2.524   1.236  0.3544 -1.8075  1.8587
   15SOL     OW   43   2.497   1.517   1.517 -0.2699 -0.6952  0.3125
   15SOL    HW1   44   2.563   1.582   1.482 -2.1268 -3.6898  0.4103
   15SOL    HW2   45   2.530   1.424   1.503 -1.8745  2.4277  1.7113
   16SOL     OW   46   2.104   2.537   0.292 -0.1705 -0.0325 -0.3399
   16SOL    HW1   47   2.016   2.490   0.264 -2.8978 -0.4218 -1.5707
   16SOL    HW2   48   2.112   2.622   0.237 -0.5861 -1.7667 -0.7237
   17SOL     OW   49   0.770   0.080   1.385 -0.0114  0.7163 -0.0903
   17SOL    HW1   50   0.808   0.160   1.332 -1.4697 -0.2702 -2.5061
   17SOL    HW2   51   0.690   0.043   1.332  1.1035 -1.7225 -2.0927
   18SOL     OW   52   1.549   0.802   2.779 -0.0864 -0.1543  0.1907
   18SOL    HW1   53   1.571   0.763   2.871  0.6805  0.6764  2.7294
   18SOL    HW2   54   1.638   0.828   2.739  1.9071 -0.1005 -1.5635
   19SOL     OW   55   1.879   2.000   0.020 -0.4932  0.1244  0.1899
   19SOL    HW1   56   1.965   1.962   3.088 -2.9957 -0.1553 -1.3463
   19SOL    HW2   57   1.851   2.084   3.076  1.7363 -0.8303  0.4580
   20SOL     OW   58   2.152   2.042   1.852 -0.4486 -0.3786  0.0953
   20SOL    HW1   59   2.252   2.046   1.853  0.4684  1.5878  1.2288
   20SOL    HW2   60   2.109   1.954   1.865  1.7499  3.1986 -0.8426
   21SOL     OW   61   1.004   1.682   0.083  0.2013  0.1081 -0.3198
   21SOL    HW1   62   1.057   1.633   0.156 -3.1907  0.7091  0.1150
   21SOL    HW2   63   0.939   1.752   0.122 -1.4538  0.2839  0.0981
   22SOL     OW   64   2.096   2.991   1.456  0.0425  0.8240 -0.5899
   22SOL    HW1   65   2.169   3.047   1.418 -0.4072 -1.0452  0.9925
   22SOL    HW2   66   2.013   3.053   1.462 -1.5692  2.4749  1.5116
   23SOL     OW   67   2.877   0.861   1.915 -0.3635  0.6455 -0.3893
   23SOL    HW1   68   2.816   0.908   1.855  1.0039 -2.0261  2.0606
   23SOL    HW2   69   2.833   0.845   2.006 -2.6608  0.1251  0.2405
   24SOL     OW   70   2.358   2.651   0.664 -0.1852  0.0576 -0.1603
   24SOL    HW1   71   2.300   2.579   0.624  0.8227  1.8619 -0.0519
   24SOL    HW2   72   2.349   2.668   0.764  0.8981 -1.1367  0.6097
   25SOL     OW   73   1.008   2.735   2.617 -0.0966  0.5045  0.0768
   25SOL    HW1   74   1.055   2.700   2.700  1.2396  1.9413  0.6648
   25SOL    HW2   75   1.075   2.793   2.563 -0.2043 -1.0355  0.9016
   26SOL     OW   76   1.962   2.619   3.088  0.6746 -0.0587 -0.2204
   26SOL    HW1   77   1.933   2.703   3.037 -1.5878 -1.4411  0.8893
   26SOL    HW2   78   1.905   2.607   0.064 -0.2401 -0.7595 -1.6542
   27SOL     OW   79   3.034   1.974   3.044  0.1067  0.0098 -0.1132
   27SOL    HW1   80   2.931   1.970   3.032 -1.9230 -0.7929  0.8667
   27SOL    HW2   81   3.078   1.951   2.959  2.1450 -2.4307  4.5436
   28SOL     OW   82   3.087   1.139   1.646  0.0209 -0.3095 -0.3893
   28SOL    HW1   83   3.005   1.091   1.621  0.1737  1.0595  1.2207
   28SOL    HW2   84   0.021   1.192   1.568  1.7075 -0.5842 -2.0085
   29SOL     OW   85   2.481   2.363   1.315  0.3936 -0.2785 -0.0001
   29SOL    HW1   86   2.458   2.459   1.346  0.1250  1.2331 -0.6174
   29SOL    HW2   87   2.567   2.332   1.364  0.5090  1.6509 -2.3123
   30SOL     OW   88   1.561   0.475   0.209 -0.0828 -0.2842  0.2788
   30SOL    HW1   89   1.613   0.537   0.267  0.1639 -1.8067 -1.0575
   30SOL    HW2   90   1.555   0.380   0.249  2.2084  0.8486  1.3580
   31SOL     OW   91   2.881   2.780   1.591  0.5471  0.2545 -0.3950
   31SOL    HW1   92   2.784   2.742   1.583 -2.3307  2.5184  2.4658
   31SOL    HW2   93   2.943   2.699   1.608 -0.4230 -2.1487  2.1480
   32SOL     OW   94   0.841   1.850   1.379 -0.3525  0.4077 -0.3892
   32SOL    HW1   95   0.916   1.891   1.322 -2.0710 -0.0946  0.5767
   32SOL    HW2   96   0.765   1.919   1.384  0.2103  1.9494  1.4417
   33SOL     OW   97   0.527   2.433   2.388  0.1277 -0.7669 -0.0108
   33SOL    HW1   98   0.570   2.413   2.480  3.0522 -0.6014  1.0404
   33SOL    HW2   99   0.524   2.533   2.381 -0.6995 -0.6162 -0.2120
   34SOL     OW  100   1.386   0.115   0.775 -0.1942 -0.6636  0.1446
   34SOL    HW1  101   1.422   0.168   0.850 -1.7616  0.5075 -4.2575
   34SOL    HW2  102   1.449   0.044   0.740 -0.6102 -2.7995 -0.6568
   35SOL     OW  103   2.173   3.057   1.097  0.4602  0.1900  0.1373
   35SOL    HW1  104   2.081   3.107   1.093 -2.0755  0.3401 -1.4555
   35SOL    HW2  105   2.225   3.069   1.184  0.0345  0.7443  0.0600
   36SOL     OW  106   1.741   2.736   2.264 -0.2631  0.5828 -0.0253
   36SOL    HW1  107   1.699   2.734   2.357  0.5164  1.1631  0.2954
   36SOL    HW2  108   1.770   2.641   2.235 -1.9017 -3.5730  2.0484
   37SOL     OW  109   0.678   2.849   2.343  0.1703 -0.4048 -0.3948
   37SOL    HW1  110   0.707   2.900   2.257  0.7512 -0.1115 -2.1606
   37SOL    HW2  111   0.731   2.878   2.424 -0.8102  1.5671  0.9032
   38SOL     OW  112   0.197   2.451   2.594  0.0208  0.3285  0.5861
   38SOL    HW1  113   0.281   2.413   2.631  0.9168  0.9421  1.0484
   38SOL    HW2  114   0.199   2.457   2.491  3.4508 -1.5571 -0.0924
   39SOL     OW  115   2.239   1.121   1.883 -0.2574 -0.2532 -0.3322
   39SOL    HW1  116   2.141   1.100   1.900 -3.6984  0.3317  1.3378
   39SOL    HW2  117   2.246   1.219   1.907 -0.4405 -1.1833 -0.9567
   40SOL     OW  118   0.763   3.013   3.020 -0.1525 -0.4859 -0.1254
   40SOL    HW1  119   0.851   2.959   3.018  0.0774 -0.4859 -2.9810
   40SOL    HW2  120   0.734   3.034   0.006 -2.4096 -1.3448  0.5697
   41SOL     OW  121   2.316   0.924   0.982  0.0485 -0.1111 -0.3919
   41SOL    HW1  122   2.400   0.950   1.038  1.9594  2.0151  1.6395
   41SOL    HW2  123   2.291   1.005   0.925 -1.1433  1.8832 -0.6354
   42SOL     OW  124   0.588   0.651   1.316  0.1068 -0.1688 -0.3259
   42SOL    HW1  125   0.669   0.716   1.292  1.4177  2.2266  1.5301
   42SOL    HW2  126   0.559   0.608   1.227 -1.1916 -0.2189 -0.0944
   43SOL     OW  127   2.140   1.454   2.750 -0.6260 -0.1453  0.5357
   43SOL    HW1  128   2.046   1.444   2.785  0.8474 -1.1114  2.7912
   43SOL    HW2  129   2.144   1.478   2.651 -1.2765  0.4097  1.0366
   44SOL     OW  130   3.107   2.865   1.062 -0.3218  0.3818  0.1559
   44SOL    HW1  131   0.095   2.832   1.078  0.3832  1.9752 -1.2512
   44SOL    HW2  132   3.093   2.932   0.990 -2.4318  2.2186  1.2160
   45SOL     OW  133   0.055   2.558   1.202 -0.0589 -0.0495 -0.2215
   45SOL    HW1  134   0.108   2.642   1.181 -0.2777  1.0756 -0.8621
   45SOL    HW2  135   3.103   2.539   1.124 -0.8036 -2.0873  2.0260
   46SOL     OW  136   2.341   2.837   2.660  0.5612  0.5570  0.6161
   46SOL    HW1  137   2.358   2.772   2.585 -0.5002 -0.8521  1.2055
   46SOL    HW2  138   2.409   2.910   2.657  1.3105 -2.2534  0.7520
   47SOL     OW  139   2.021   1.906   1.064 -0.6010  0.2928  0.0689
   47SOL    HW1  140   2.040   1.811   1.093  1.6103 -0.0692 -0.6647
   47SOL    HW2  141   1.940   1.902   1.005  3.4372  1.5834 -0.5684
   48SOL     OW  142   0.670   1.803   0.467 -0.2297  0.5440  0.3314
   48SOL    HW1  143   0.736   1.834   0.394  0.9367 -0.0750 -0.3473
   48SOL    HW2  144   0.621   1.722   0.431  0.3865 -0.4137 -2.3381
   49SOL     OW  145   2.979   0.262   2.591 -0.3632  0.1534  0.2097
   49SOL    HW1  146   3.056   0.200   2.614  1.4618 -0.2650 -0.4953
   49SOL    HW2  147   2.947   0.258   2.494 -0.1763 -2.0206  1.3767
   50SOL     OW  148   2.072   0.768   0.316  0.2852  0.4100 -0.3580
   50SOL    HW1  149   2.041   0.865   0.310 -1.2120  1.0745 -0.9546
   50SOL    HW2  150   2.003   0.711   0.372  2.7450  0.0684 -0.2366
   51SOL     OW  151   2.426   0.717   0.792  0.4898  0.1075  0.4618
   51SOL    HW1  152   2.419   0.778   0.871 -0.0202 -1.4916  0.8942
   51SOL    HW2  153   2.329   0.707   0.749 -0.9281  0.5418 -2.9838
   52SOL     OW  154   1.509   1.509   2.218  0.7293 -0.1308  0.2358
   52SOL    HW1  155   1.538   1.447   2.143 -0.0094 -2.3988  0.7349
   52SOL    HW2  156   1.411   1.489   2.241  2.4116 -1.3709 -0.0580
   53SOL     OW  157   0.633   1.843   2.135 -0.2974 -0.3615  0.6683
   53SOL    HW1  158   0.694   1.766   2.106 -0.1645  0.0773  0.6250
   53SOL    HW2  159   0.688   1.927   2.151  2.1544  2.2180 -1.8309
   54SOL     OW  160   2.132   0.275   1.175 -0.5638  0.1014 -0.2360
   54SOL    HW1  161   2.067   0.209   1.123 -1.5835 -3.1536 -0.3325
   54SOL    HW2  162   2.215   0.299   1.127 -1.8939  1.7606  3.6691
   55SOL     OW  163   2.470   2.177   0.818  0.5160 -0.5426  0.4765
   55SOL    HW1  164   2.517   2.125   0.889  2.0482 -0.0069 -0.4246
   55SOL    HW2  165   2.371   2.147   0.815 -1.4223 -1.4438 -0.3886
   56SOL     OW  166   1.031   0.120   1.748  0.0698  0.3403 -0.2159
   56SOL    HW1  167   0.978   0.123   1.834  0.8442 -0.1520 -3.6501
   56SOL    HW2  168   1.119   0.175   1.760  0.9287  2.9746 -1.6340
   57SOL     OW  169   1.685   1.686   0.283  0.1778  0.2207 -0.5252
   57SOL    HW1  170   1.630   1.730   0.357  0.0848 -1.7980 -0.8757
   57SOL    HW2  171   1.674   1.737   0.197  0.8631  0.8518 -0.5958
   58SOL     OW  172   0.028   0.934   2.483  0.6171  0.4572 -0.3784
   58SOL    HW1  173   0.114   0.959   2.523 -0.3168  0.8613  0.6536
   58SOL    HW2  174   0.026   0.942   2.385  2.8296 -2.2133  1.1481
   59SOL     OW  175   0.795   2.940   2.594 -0.3437 -0.0404  0.4531
   59SOL    HW1  176   0.807   3.030   2.643 -1.2323 -0.4077  1.5571
   59SOL    HW2  177   0.887   2.905   2.567  0.2890  1.2242 -0.4509
   60SOL     OW  178   2.604   2.200   0.325  0.4706  0.6682  0.2702
   60SOL    HW1  179   2.665   2.150   0.266 -2.1444  0.4227  1.4321
   60SOL    HW2  180   2.635   2.183   0.418 -0.3421  1.8019  0.4207
   61SOL     OW  181   1.361   2.098   0.531 -0.8221 -0.2587 -0.7950
   61SOL    HW1  182   1.418   2.181   0.521 -1.5530  1.5947  0.2604
   61SOL    HW2  183   1.266   2.126   0.567 -0.2048  0.6045  0.1459
   62SOL     OW  184   1.994   2.131   2.455 -0.3504  0.0415 -0.5237
   62SOL    HW1  185   2.042   2.051   2.481 -0.0337  0.0480 -1.5786
   62SOL    HW2  186   1.927   2.108   2.382 -0.2581  1.9717  1.7790
   63SOL     OW  187   2.219   2.531   3.059 -0.6236 -0.0447  0.7783
   63SOL    HW1  188   2.119   2.551   3.087 -1.6244 -1.5420 -0.0851
   63SOL    HW2  189   2.248   2.609   3.005 -1.7118 -0.9219  2.9826
   64SOL     OW  190   1.521   1.089   2.308 -0.0182  0.1785  0.2725
   64SOL    HW1  191   1.568   1.120   2.223 -0.9083  1.5559 -0.0356
   64SOL    HW2  192   1.582   1.043   2.376 -2.9635  0.8203 -0.3623
   65SOL     OW  193   1.330   2.309   2.941  0.1084  0.3983  0.2635
   65SOL    HW1  194   1.365   2.264   2.855 -0.0211 -0.8100 -0.3673
   65SOL    HW2  195   1.258   2.376   2.917  1.3629 -1.8274 -0.9902
   66SOL     OW  196   0.133   1.364   1.915 -0.5082 -0.1964 -0.2099
   66SOL    HW1  197   0.171   1.415   1.995  1.6061  0.3377  1.0683
   66SOL    HW2  198   0.154   1.265   1.928  3.2820  3.3080 -3.0755
   67SOL     OW  199   2.896   2.584   2.899  0.1151 -0.3643  0.3444
   67SOL    HW1  200   2.799   2.549   2.894 -1.3912  1.5096  0.8033
   67SOL    HW2  201   2.903   2.674   2.845 -1.3903  0.7831  0.0337
   68SOL     OW  202   1.088   2.557   1.332 -0.0787 -0.0029  0.2339
   68SOL    HW1  203   1.065   2.653   1.360  1.4713  0.1747  2.0296
   68SOL    HW2  204   1.170   2.520   1.385 -0.8569 -1.8977  2.0499
   69SOL     OW  205   0.793   2.395   0.512 -0.5299  0.0351 -0.1980
   69SOL    HW1  206   0.801   2.479   0.568  2.6381  0.4212 -2.8385
   69SOL    HW2  207   0.750   2.321   0.564  2.7061  0.0051 -2.8725
   70SOL     OW  208   2.719   0.873   2.503 -0.4209 -0.1503 -0.1609
   70SOL    HW1  209   2.803   0.899   2.559 -0.2290 -2.5066 -2.6195
   70SOL    HW2  210   2.713   0.777   2.474  0.0836 -0.3921 -1.7532
   71SOL     OW  211   0.601   1.157   2.325  0.5338 -0.3178 -0.2878
   71SOL    HW1  212   0.528   1.090   2.346  0.9736  1.9003 -0.1253
   71SOL    HW2  213   0.580   1.247   2.361 -0.8697 -1.9404 -1.5853
   72SOL     OW  214   0.187   1.999   0.665  0.2276 -0.0777 -0.3231
   72SOL    HW1  215   0.251   1.946   0.602 -0.9001  0.6868  4.0983
   72SOL    HW2  216   0.091   1.986   0.646  3.3281  1.9567 -0.8189
   73SOL     OW  217   1.062   1.442   0.229  0.1162  0.3327 -0.0545
   73SOL    HW1  218   0.962   1.446   0.217 -1.1827 -2.1431 -0.3314
   73SOL    HW2  219   1.086   1.394   0.317 -0.2843 -0.7987  2.3454
   74SOL     OW  220   2.586   2.913   0.242  0.0356 -0.3929  0.1645
   74SOL    HW1  221   2.515   2.845   0.276 -2.2992 -0.2341  0.6860
   74SOL    HW2  222   2.537   3.003   0.235  0.1050 -2.3317 -0.6242
   75SOL     OW  223   2.367   1.577   1.989  0.1315  0.6366  0.4334
   75SOL    HW1  224   2.321   1.489   1.996  0.8543  2.8703 -4.2600
   75SOL    HW2  225   2.369   1.601   1.887 -0.1061  0.4092 -1.0154
   76SOL     OW  226   1.979   2.454   1.924  0.3486  0.5458  0.1699
   76SOL    HW1  227   1.997   2.484   2.019  1.5845 -0.4123  1.5195
   76SOL    HW2  228   1.999   2.527   1.856  1.3139  0.0648  1.6798
   77SOL     OW  229   2.543   0.282   1.702 -0.0133  0.1078 -0.3319
   77SOL    HW1  230   2.458   0.272   1.753  1.1495 -2.1924 -0.6453
   77SOL    HW2  231   2.582   0.376   1.697  2.0227 -0.0786 -2.6539
   78SOL     OW  232   1.799   0.887   2.735 -0.2610  0.4135 -0.3032
   78SOL    HW1  233   1.888   0.841   2.722  2.1454 -0.6707 -1.0205
   78SOL    HW2  234   1.805   0.962   2.808 -1.1700  1.2180 -0.9478
   79SOL     OW  235   3.070   1.582   2.071  0.3050 -0.6666 -0.3152
   79SOL    HW1  236   3.084   1.503   2.013 -0.8444  0.2422 -1.0303
   79SOL    HW2  237   2.989   1.634   2.033 -3.1896 -1.6962 -1.2970
   80SOL     OW  238   1.943   0.925   1.329 -0.0847  0.0878 -0.0671
   80SOL    HW1  239   1.990   0.936   1.241 -1.7712  3.0647  1.0712
   80SOL    HW2  240   1.992   0.984   1.397  0.8257 -2.3644 -0.5310
   81SOL     OW  241   1.415   0.524   1.702 -0.6123 -0.0519  0.1189
   81SOL    HW1  242   1.409   0.568   1.608 -1.3524  0.4878 -1.7945
   81SOL    HW2  243   1.507   0.492   1.722 -2.0510  3.5910  1.2241
   82SOL     OW  244   1.417   2.543   1.705  0.0300  0.4520 -0.0255
   82SOL    HW1  245   1.379   2.630   1.672 -1.9626  2.2189 -2.6297
   82SOL    HW2  246   1.415   2.532   1.803  0.9464 -2.4428 -0.4919
   83SOL     OW  247   0.342   3.021   0.618  0.0016 -1.1776  0.1541
   83SOL    HW1  248   0.328   2.925   0.644  1.7448 -0.2156 -1.2397
   83SOL    HW2  249   0.436   3.052   0.645 -2.9474  0.8713  0.3214
   84SOL     OW  250   0.085   0.883   2.869  0.4188 -0.0610  0.1145
   84SOL    HW1  251   0.172   0.856   2.836  0.3235  0.3365  2.4746
   84SOL    HW2  252   0.070   0.984   2.859  0.0685 -0.6152  1.2395
   85SOL     OW  253   2.773   2.124   1.854 -0.2483  0.0419  0.2410
   85SOL    HW1  254   2.699   2.055   1.828 -0.3843 -0.2196  0.9409
   85SOL    HW2  255   2.795   2.183   1.775 -2.2125  0.7210 -0.0211
   86SOL     OW  256   2.839   2.268   1.652 -0.2099 -0.2483 -0.2148
   86SOL    HW1  257   2.940   2.254   1.627  1.0158  1.3685  3.2139
   86SOL    HW2  258   2.782   2.285   1.569 -1.3251 -1.0323  2.7579
   87SOL     OW  259   0.339   3.008   3.055  0.5226  0.3228 -0.1901
   87SOL    HW1  260   0.400   2.944   3.001 -1.0112  0.0343  1.9019
   87SOL    HW2  261   0.391   3.091   3.071 -2.4495 -0.5131  1.0467
   88SOL     OW  262   0.266   1.977   1.071 -0.4021 -0.2779 -0.0485
   88SOL    HW1  263   0.309   2.031   0.994 -1.2438  0.6790 -1.5057
   88SOL    HW2  264   0.333   1.967   1.139  0.7919 -4.0371 -2.6138
   89SOL     OW  265   0.990   0.844   1.520  0.4037 -0.0326  0.1290
   89SOL    HW1  266   1.075   0.834   1.466  1.0098  0.5452 -1.0571
   89SOL    HW2  267   0.960   0.750   1.563 -0.8608  2.6263 -0.6947
   90SOL     OW  268   2.378   1.645   1.742 -0.3316 -0.6425 -0.0706
   90SOL    HW1  269   2.419   1.586   1.672  0.1321  2.8647  0.7549
   90SOL    HW2  270   2.299   1.688   1.700  2.2068 -1.9745  1.4772
   91SOL     OW  271   1.397   1.604   0.930  0.2209 -0.1062  0.5490
   91SOL    HW1  272   1.334   1.683   0.946 -1.2765  0.9253 -0.0766
   91SOL    HW2  273   1.345   1.527   0.887 -1.7306 -0.7989  1.2485
   92SOL     OW  274   2.155   0.577   0.911  0.1500  0.1916 -0.3992
   92SOL    HW1  275   2.149   0.655   0.851 -3.6152  0.8322  0.9781
   92SOL    HW2  276   2.217   0.598   0.992  2.6023  1.6175  1.0851
   93SOL     OW  277   2.189   1.411   0.022 -0.3844 -0.2858  0.4475
   93SOL    HW1  278   2.166   1.341   0.092 -0.8348  0.7486  0.9644
   93SOL    HW2  279   2.153   1.505   0.042 -0.9796 -0.7696  1.1621
   94SOL     OW  280   2.475   2.176   2.345  0.0742  0.4392 -0.0266
   94SOL    HW1  281   2.507   2.238   2.275 -2.3414 -3.7885  1.9031
   94SOL    HW2  282   2.486   2.078   2.320  1.6776  0.2716 -0.1665
   95SOL     OW  283   2.048   0.349   0.801 -0.5133 -0.2707 -0.3557
   95SOL    HW1  284   2.071   0.428   0.856  2.7866 -0.5821 -1.0313
   95SOL    HW2  285   2.135   0.308   0.766  1.5166  0.4622  0.7927
   96SOL     OW  286   3.020   2.997   1.494 -0.0046  0.1453 -0.8169
   96SOL    HW1  287   2.954   2.932   1.532  2.1218 -0.1632  0.7484
   96SOL    HW2  288   2.989   3.053   1.416 -1.0927  1.1524  1.0698
   97SOL     OW  289   2.361   0.288   1.015  0.4578 -0.1960  0.1430
   97SOL    HW1  290   2.413   0.356   0.959  1.1838  1.2053 -2.0870
   97SOL    HW2  291   2.343   0.214   0.946 -0.8256 -1.3785 -0.3870
   98SOL     OW  292   1.656   2.458   1.608  0.1312  0.6703  0.0473
   98SOL    HW1  293   1.697   2.535   1.560  0.2000  2.3191  0.2604
   98SOL    HW2  294   1.599   2.485   1.686 -3.0939 -1.1155  1.1209
   99SOL     OW  295   2.719   2.562   1.812 -0.2125 -0.3428 -0.3858
   99SOL    HW1  296   2.642   2.623   1.797  1.0388  1.8414 -2.9474
   99SOL    HW2  297   2.786   2.564   1.736  0.2351  1.3284 -0.6675
  100SOL     OW  298   0.346   0.820   2.793  0.1198  0.4764  0.3664
  100SOL    HW1  299   0.410   0.876   2.850 -0.2776 -0.5168 -0.0419
  100SOL    HW2  300   0.401   0.761   2.730  2.4645 -1.8622  2.3853
  101SOL     OW  301   1.959   0.680   2.955  0.0482 -0.5320 -0.1886
  101SOL    HW1  302   1.983   0.706   2.857 -1.0344  0.6950 -2.0212
  101SOL    HW2  303   2.043   0.689   3.015  0.1429 -4.0339  0.5061
  102SOL     OW  304   0.024   0.697   1.612 -0.1838 -0.1350  0.0021
  102SOL    HW1  305   0.070   0.772   1.662 -0.0451  0.4790 -1.3430
  102SOL    HW2  306   0.082   0.609   1.599  1.0454 -0.9604 -0.0173
  103SOL     OW  307   2.764   1.107   2.338  0.2732  0.7620 -0.2048
  103SOL    HW1  308   2.741   1.199   2.374  3.4092  2.7021 -1.2649
  103SOL    HW2  309   2.767   1.035   2.407 -0.6380  0.8178 -2.8715
  104SOL     OW  310   0.449   0.321   2.579  0.0438 -0.3338  0.6269
  104SOL    HW1  311   0.477   0.305   2.674  0.5140  1.6544  0.8882
  104SOL    HW2  312   0.355   0.356   2.575  2.2103 -1.6972 -0.5687
  105SOL     OW  313   1.937   1.507   1.329  0.5712  0.1955  0.1458
  105SOL    HW1  314   1.902   1.412   1.309  3.4906 -1.9367  2.1051
  105SOL    HW2  315   1.951   1.522   1.424  1.6683  1.9038 -5.1637
  106SOL     OW  316   2.120   0.266   0.482 -0.1715 -0.5042  0.0623
  106SOL    HW1  317   2.137   0.180   0.431 -0.4254 -1.2425 -0.1195
  106SOL    HW2  318   2.176   0.271   0.567  2.3522  1.6040  0.0677
  107SOL     OW  319   0.085   1.503   1.365 -0.0074 -0.1520 -0.1026
  107SOL    HW1  320   0.161   1.538   1.314 -0.0441  1.2002 -1.1300
  107SOL    HW2  321   3.103   1.547   1.335  0.8908 -0.4407 -0.0085
  108SOL     OW  322   2.934   2.507   2.014 -0.1440  0.1476 -0.4022
  108SOL    HW1  323   2.973   2.421   1.970  2.4764  0.4025 -2.1163
  108SOL    HW2  324   2.883   2.555   1.942  0.9299 -0.0972 -0.8078
  109SOL     OW  325   1.843   0.176   0.661  0.4056 -0.1660 -0.0520
  109SOL    HW1  326   1.931   0.219   0.668 -0.8869 -2.2356  0.9916
  109SOL    HW2  327   1.846   0.076   0.641 -0.4590  0.7997 -0.8997
  110SOL     OW  328   0.327   2.105   2.342 -0.7152 -0.5086 -0.4703
  110SOL    HW1  329   0.342   2.140   2.438 -1.7492  3.4002  0.4136
  110SOL    HW2  330   0.244   2.053   2.344  2.2907 -1.5850 -0.7409
  111SOL     OW  331   1.679   2.492   1.982  0.1968 -0.2122  0.0066
  111SOL    HW1  332   1.766   2.443   1.970  0.7789  0.9131 -0.2678
  111SOL    HW2  333   1.624   2.451   2.057  1.6247  4.6400  1.2647
  112SOL     OW  334   1.556   2.681   0.116  0.3692 -0.7681  0.4410
  112SOL    HW1  335   1.470   2.690   0.170 -0.3859  0.6232 -1.9542
  112SOL    HW2  336   1.546   2.681   0.014  1.9350 -0.2164  2.4139
  113SOL     OW  337   1.999   2.607   1.697 -0.4447  0.0315 -0.4530
  113SOL    HW1  338   1.906   2.648   1.696 -0.3825  0.8139  0.3960
  113SOL    HW2  339   2.058   2.646   1.625  0.9396 -2.5001  1.8094
  114SOL     OW  340   3.021   1.092   0.582 -0.0907  0.2186 -0.0693
  114SOL    HW1  341   2.966   1.082   0.666  2.3196 -1.4796 -0.9243
  114SOL    HW2  342   3.080   1.175   0.583  2.8623  2.1362  0.2588
  115SOL     OW  343   0.540   0.956   2.922 -0.8762  0.3117 -0.4431
  115SOL    HW1  344   0.526   1.052   2.891 -0.7184 -1.0789  0.4078
  115SOL    HW2  345   0.545   0.956   3.025  0.9972  1.1514 -0.2391
  116SOL     OW  346   2.753   1.613   2.192  0.2264 -0.2348 -0.2269
  116SOL    HW1  347   2.767   1.604   2.090 -1.0034  3.5239 -2.0702
  116SOL    HW2  348   2.838   1.596   2.245  0.1658 -1.3856  0.5580
  117SOL     OW  349   2.784   2.926   0.676 -0.0726  0.1418 -0.1968
  117SOL    HW1  350   2.808   2.915   0.578 -1.8199 -1.0665  1.4198
  117SOL    HW2  351   2.851   2.984   0.722 -0.5779 -2.4106 -1.8986
  118SOL     OW  352   1.096   2.294   1.645  0.0668  0.0201  0.5727
  118SOL    HW1  353   1.143   2.288   1.733 -3.7919  1.1856 -0.9624
  118SOL    HW2  354   1.160   2.300   1.566  0.6300 -0.8899  1.9470
  119SOL     OW  355   0.657   2.097   2.892 -0.4985 -0.5624 -0.3803
  119SOL    HW1  356   0.561   2.117   2.921  0.3427  1.4569  2.3899
  119SOL    HW2  357   0.715   2.091   2.974 -0.3987  0.0744  1.3939
  120SOL     OW  358   0.702   0.738   2.962  0.2439 -0.2084  0.7048
  120SOL    HW1  359   0.713   0.709   2.867  0.0087  0.2660 -0.8125
  120SOL    HW2  360   0.639   0.818   2.964  0.6505 -1.5635  0.5354
  121SOL     OW  361   1.565   2.788   1.097  0.6244  0.0055  0.0825
  121SOL    HW1  362   1.613   2.701   1.118  1.6168 -1.4059  0.8735
  121SOL    HW2  363   1.558   2.791   0.995 -0.4100  3.4407 -0.7549
  122SOL     OW  364   2.289   2.433   1.716  0.2778 -0.0725  0.0800
  122SOL    HW1  365   2.239   2.494   1.778 -0.4893 -1.6552  1.4613
  122SOL    HW2  366   2.227   2.359   1.686  2.9921  2.7834  0.2337
  123SOL     OW  367   0.346   2.847   0.894 -0.3507 -0.2039 -0.7974
  123SOL    HW1  368   0.445   2.856   0.879 -2.9346 -0.3324  2.8210
  123SOL    HW2  369   0.291   2.800   0.821  0.2038 -2.1077  0.4870
  124SOL     OW  370   2.219   1.254   2.919 -0.3864  0.7482 -0.1546
  124SOL    HW1  371   2.228   1.307   2.833 -1.4788  2.4125  0.7147
  124SOL    HW2  372   2.215   1.329   2.990  2.2622  0.5924  0.4819
  125SOL     OW  373   0.751   0.891   0.479 -0.6068  0.1545 -0.2865
  125SOL    HW1  374   0.717   0.953   0.558  1.9136  3.4153  0.3979
  125SOL    HW2  375   0.787   0.958   0.405  1.2287  2.0925 -3.1426
  126SOL     OW  376   2.559   1.496   0.771 -0.8135 -0.0975  0.1319
  126SOL    HW1  377   2.655   1.488   0.723  0.9598  1.4569  0.5997
  126SOL    HW2  378   2.533   1.412   0.825  1.7760 -0.1339  1.8635
  127SOL     OW  379   3.016   1.916   1.881 -0.2049 -0.1583 -0.2018
  127SOL    HW1  380   3.107   1.959   1.876  0.9502 -2.2051  1.3410
  127SOL    HW2  381   2.949   1.985   1.895 -0.9272  2.4338 -1.7937
  128SOL     OW  382   1.142   1.060   0.054  0.1005  0.0511  0.4526
  128SOL    HW1  383   1.190   1.027   0.135  0.3113 -0.0644 -0.9280
  128SOL    HW2  384   1.204   1.052   3.082  0.9357  3.1803  0.5452
  129SOL     OW  385   2.678   1.181   0.693 -0.0530  0.2450 -0.3604
  129SOL    HW1  386   2.609   1.212   0.757 -0.6264 -0.2610  0.8928
  129SOL    HW2  387   2.628   1.121   0.629 -0.9066 -0.0613 -1.1684
  130SOL     OW  388   2.417   0.779   1.327  0.0074  0.1496 -0.1122
  130SOL    HW1  389   2.505   0.726   1.327 -1.0975  0.4722  0.2730
  130SOL    HW2  390   2.446   0.867   1.287  1.9789 -2.5317  1.3112
  131SOL     OW  391   2.960   2.690   0.079 -0.0151  0.5161  0.0518
  131SOL    HW1  392   2.937   2.629   3.106  0.7416 -0.2502 -1.4301
  131SOL    HW2  393   3.060   2.710   0.082  1.5740  1.4831  0.8215
  132SOL     OW  394   3.021   1.923   1.586 -0.6926  0.2865  0.0646
  132SOL    HW1  395   3.042   2.022   1.587  0.7093 -0.1070  0.0895
  132SOL    HW2  396   2.999   1.892   1.683 -0.1104  0.1315 -1.5232
  133SOL     OW  397   1.224   0.354   1.282  0.3215 -0.0282 -0.7334
  133SOL    HW1  398   1.231   0.272   1.339 -3.5887 -2.1740 -2.7252
  133SOL    HW2  399   1.151   0.416   1.317  0.1188 -1.3443  0.0724
  134SOL     OW  400   3.081   1.330   0.246 -0.2718  0.2897 -0.2092
  134SOL    HW1  401   2.986   1.336   0.210 -2.6858 -0.6982  0.4320
  134SOL    HW2  402   0.046   1.384   0.199  1.0337 -0.8053 -1.8369
  135SOL     OW  403   2.451   1.150   1.460  0.4450  0.6601  0.0034
  135SOL    HW1  404   2.482   1.150   1.368 -1.9086  0.4121  3.2824
  135SOL    HW2  405   2.512   1.198   1.524 -1.2613 -0.3841  1.3714
  136SOL     OW  406   0.188   0.928   0.487  0.4020  0.3006 -0.1255
  136SOL    HW1  407   0.217   0.967   0.575 -0.2699  1.2901  0.9630
  136SOL    HW2  408   0.171   1.003   0.421  0.3147  1.2858 -0.3487
  137SOL     OW  409   2.879   1.189   1.398  0.1714  0.8542 -0.0007
  137SOL    HW1  410   2.840   1.159   1.313  0.4440 -0.1874 -1.0827
  137SOL    HW2  411   2.969   1.230   1.383 -1.8160 -0.6498 -0.5828
  138SOL     OW  412   1.685   1.040   1.272 -0.2945  0.0745 -0.1882
  138SOL    HW1  413   1.627   0.975   1.214 -1.9667  1.7114 -0.7748
  138SOL    HW2  414   1.774   0.994   1.300  2.0009 -0.8777 -0.2820
  139SOL     OW  415   1.822   0.003   0.082 -0.0098 -0.0012 -0.0213
  139SOL    HW1  416   1.884   3.085   0.159  0.7325  1.5500 -1.0562
  139SOL    HW2  417   1.774   0.088   0.111 -0.7116 -2.1802  1.1716
  140SOL     OW  418   1.540   2.008   1.584 -0.2984  0.9037  1.0215
  140SOL    HW1  419   1.604   1.931   1.568  1.2585 -0.1683 -1.7037
  140SOL    HW2  420   1.451   1.979   1.619 -0.3569 -0.7170 -2.6698
  141SOL     OW  421   1.777   2.215   0.853 -0.2014  0.2746 -0.8768
  141SOL    HW1  422   1.854   2.220   0.796 -2.0541 -1.6030  0.9282
  141SOL    HW2  423   1.749   2.122   0.878 -1.0066 -0.1730 -1.1449
  142SOL     OW  424   0.502   0.919   0.091  0.0709 -0.0585 -0.4460
  142SOL    HW1  425   0.558   0.859   0.153  4.6110  1.5898  1.5631
  142SOL    HW2  426   0.423   0.879   0.044  1.6962 -1.1709 -0.8461
  143SOL     OW  427   0.383   2.163   2.989  0.1738 -0.8513 -0.1141
  143SOL    HW1  428   0.384   2.269   3.001 -0.0453  2.4630 -0.3663
  143SOL    HW2  429   0.294   2.140   2.949  0.5887 -0.4049  0.6963
  144SOL     OW  430   1.263   0.025   1.385  0.0466  0.1398 -0.1391
  144SOL    HW1  431   1.171   0.020   1.422  2.6148 -1.9933  0.8934
  144SOL    HW2  432   1.309   0.107   1.429 -1.2362  1.4016  0.9878
  145SOL     OW  433   2.402   1.435   0.561 -0.2833 -0.0609  0.1836
  145SOL    HW1  434   2.427   1.451   0.462 -0.3138 -0.9121 -0.8214
  145SOL    HW2  435   2.472   1.477   0.623 -0.6651 -0.1164  1.7223
  146SOL     OW  436   2.755   2.068   0.156  0.9540  0.1430 -0.1340
  146SOL    HW1  437   2.729   2.048   0.062  0.7327 -0.7878  0.1152
  146SOL    HW2  438   2.858   2.081   0.161 -0.8399 -0.0343  0.3116
  147SOL     OW  439   2.335   2.819   1.513  0.3075 -0.1743  0.0916
  147SOL    HW1  440   2.235   2.854   1.515  1.3900 -2.7763  3.3665
  147SOL    HW2  441   2.380   2.881   1.448  0.3156  0.4240 -0.5383
  148SOL     OW  442   1.250   2.799   1.939 -0.1313 -0.2139  0.2505
  148SOL    HW1  443   1.320   2.725   1.956  0.5573 -3.2378 -0.9277
  148SOL    HW2  444   1.159   2.761   1.967 -0.4220 -0.9896 -0.1460
  149SOL     OW  445   1.545   0.486   2.437 -0.4981 -0.2209  0.2144
  149SOL    HW1  446   1.530   0.575   2.394  1.9784 -0.5862  2.7724
  149SOL    HW2  447   1.514   0.498   2.534  0.5015 -0.7739 -0.1878
  150SOL     OW  448   0.643   2.922   0.523 -0.5158 -0.0839  0.1056
  150SOL    HW1  449   0.737   2.903   0.478  0.0653  2.6071 -1.3565
  150SOL    HW2  450   0.587   2.840   0.499  2.8178 -0.9681 -1.1859
  151SOL     OW  451   0.042   1.520   3.078 -0.3103  0.5580  0.1152
  151SOL    HW1  452   3.059   1.547   0.006 -0.4229 -1.6191  1.4689
  151SOL    HW2  453   0.050   1.542   2.978  0.7178  0.6508  0.3728
  152SOL     OW  454   3.038   0.188   0.448  0.6074 -0.3173  0.1526
  152SOL    HW1  455   3.038   0.091   0.430 -2.5079 -0.7427 -2.8793
  152SOL    HW2  456   0.018   0.236   0.415  3.1219  0.2948 -0.0345
  153SOL     OW  457   2.309   0.063   0.874  0.1093 -0.5875 -0.3618
  153SOL    HW1  458   2.261   0.022   0.955  0.3992 -2.9424 -2.8488
  153SOL    HW2  459   2.373   0.001   0.830 -1.1142  0.2063 -1.0242
  154SOL     OW  460   1.013   0.495   1.832 -0.2338  0.5246  0.1898
  154SOL    HW1  461   0.933   0.442   1.850  3.0237  0.1261  1.7035
  154SOL    HW2  462   1.090   0.433   1.825  0.6259 -1.6715 -0.3052
  155SOL     OW  463   2.966   1.090   1.100 -0.0652  0.1430 -0.3063
  155SOL    HW1  464   3.037   1.020   1.110  0.6264  1.3978 -1.2229
  155SOL    HW2  465   2.997   1.182   1.116  0.1093 -3.0162 -1.0562
  156SOL     OW  466   3.015   2.130   0.171  0.1295  0.2854  0.4293
  156SOL    HW1  467   3.036   2.228   0.163 -2.7339 -1.9276  0.2332
  156SOL    HW2  468   3.037   2.074   0.089  0.0451  1.0327  0.9068
  157SOL     OW  469   0.990   0.296   0.213 -0.4215 -0.4181 -0.1559
  157SOL    HW1  470   0.994   0.197   0.207  0.7847  0.8712  0.4633
  157SOL    HW2  471   0.906   0.333   0.181  3.9538  1.3258  2.4885
  158SOL     OW  472   2.550   0.078   2.845  0.5437  0.0961  0.4699
  158SOL    HW1  473   2.621   0.133   2.797 -2.6180  2.2470 -0.5130
  158SOL    HW2  474   2.487   0.044   2.775 -1.1975  0.9478 -2.1911
  159SOL     OW  475   0.498   0.121   3.091  0.2218 -0.2091  0.1271
  159SOL    HW1  476   0.568   0.079   0.046 -0.4886 -0.2669 -0.0913
  159SOL    HW2  477   0.493   0.224   0.002 -1.8659 -0.1604  2.8884
  160SOL     OW  478   1.160   1.852   3.016 -0.2927  0.3383 -0.3905
  160SOL    HW1  479   1.095   1.911   2.971 -0.4714  0.3056 -0.5218
  160SOL    HW2  480   1.109   1.781   3.066  1.0680 -3.0664  0.6428
  161SOL     OW  481   3.000   1.656   2.624 -0.3002  0.5543 -0.2783
  161SOL    HW1  482   2.909   1.639   2.663  2.4801 -1.9838 -0.9473
  161SOL    HW2  483   3.006   1.675   2.522  1.5930 -0.1086 -0.2432
  162SOL     OW  484   0.266   2.335   1.234 -0.2670  0.2356  0.1103
  162SOL    HW1  485   0.357   2.362   1.195 -2.1166 -3.2875  0.1721
  162SOL    HW2  486   0.201   2.411   1.228 -0.8229 -0.7380 -0.5601
  163SOL     OW  487   2.198   0.314   2.738 -0.0291 -0.5939 -0.3853
  163SOL    HW1  488   2.241   0.336   2.827  0.4812 -1.6819  1.2191
  163SOL    HW2  489   2.215   0.217   2.715 -0.0348  0.1436  2.9694
  164SOL     OW  490   2.810   1.453   0.630 -0.4976 -0.0158  0.7475
  164SOL    HW1  491   2.823   1.474   0.531  1.4055  1.8904  0.4719
  164SOL    HW2  492   2.786   1.357   0.644 -0.4671  1.6706 -4.1083
  165SOL     OW  493   0.193   3.014   1.885 -0.4664  0.3678  0.7341
  165SOL    HW1  494   0.145   2.927   1.866 -0.9152  1.7906 -1.3587
  165SOL    HW2  495   0.150   3.081   1.819  0.2187 -2.0036 -2.4891
  166SOL     OW  496   2.134   0.753   0.714 -0.0929  0.2658  0.8676
  166SOL    HW1  497   2.192   0.759   0.630 -1.0819 -2.1941 -1.7224
  166SOL    HW2  498   2.084   0.839   0.735  3.1110  1.6495 -2.0212
  167SOL     OW  499   0.552   0.524   0.449 -0.1312  0.1574  0.0920
  167SOL    HW1  500   0.590   0.581   0.370  0.4065  0.5635 -1.4347
  167SOL    HW2  501   0.484   0.577   0.502 -2.1340  0.1796 -1.5341
  168SOL     OW  502   1.854   2.897   2.051 -0.0656 -0.4643  0.2196
  168SOL    HW1  503   1.794   2.874   2.129  1.5045  0.6358 -0.6701
  168SOL    HW2  504   1.835   2.996   2.022 -0.5786 -2.5314  0.6797
  169SOL     OW  505   1.047   1.180   0.745 -0.1842 -0.4404  0.1324
  169SOL    HW1  506   1.065   1.081   0.740 -1.4793 -1.2675  0.3900
  169SOL    HW2  507   1.047   1.218   0.842 -2.0030  0.9053  0.9122
  170SOL     OW  508   3.022   0.086   1.283  0.1420  0.1833 -0.5677
  170SOL    HW1  509   3.105   0.111   1.235 -0.3034 -0.4593 -0.2653
  170SOL    HW2  510   2.976   0.173   1.308  2.3434  1.0047  0.0244
  171SOL     OW  511   0.770   2.776   1.875 -0.8788 -0.1725 -0.0097
  171SOL    HW1  512   0.720   2.741   1.796  0.8235  0.1528  0.5729
  171SOL    HW2  513   0.871   2.759   1.867 -0.0745 -1.6444  1.0677
  172SOL     OW  514   0.383   2.120   1.556 -0.0100 -0.0217 -0.0625
  172SOL    HW1  515   0.318   2.046   1.530  2.2265  0.0153  1.3568
  172SOL    HW2  516   0.390   2.112   1.658 -0.2290 -1.6905  1.7477
  173SOL     OW  517   1.301   0.878   2.745 -0.5404 -0.1141 -0.3505
  173SOL    HW1  518   1.255   0.869   2.653  1.4210 -0.4033 -0.6016
  173SOL    HW2  519   1.400   0.849   2.743 -2.9781 -1.6865 -1.6289
  174SOL     OW  520   1.962   0.011   2.978 -0.2750 -0.3938  0.3594
  174SOL    HW1  521   1.905   0.016   3.062  1.5245  0.7797 -1.2569
  174SOL    HW2  522   1.949   0.091   2.919 -0.1887 -0.3080 -0.2069
  175SOL     OW  523   1.804   2.594   0.190 -0.1852 -0.0794  0.9976
  175SOL    HW1  524   1.708   2.590   0.155  1.4007  1.8779 -0.7745
  175SOL    HW2  525   1.839   2.500   0.199 -0.1908 -2.0050 -0.9427
  176SOL     OW  526   1.552   0.094   2.897 -0.5351 -0.8246 -0.5855
  176SOL    HW1  527   1.574   0.194   2.888  1.6241  2.3336  0.4281
  176SOL    HW2  528   1.622   0.048   2.841  2.6495  0.4049 -1.2591
  177SOL     OW  529   1.273   1.630   0.487  0.4313  0.3467 -0.3438
  177SOL    HW1  530   1.307   1.554   0.544 -1.7886 -0.5534  0.0999
  177SOL    HW2  531   1.173   1.615   0.475 -0.5952 -1.8142  0.8173
  178SOL     OW  532   2.939   2.083   2.760  0.3678  0.0279  0.3703
  178SOL    HW1  533   2.974   2.172   2.792 -1.7294 -1.1634 -2.5634
  178SOL    HW2  534   2.992   2.055   2.680 -0.7829  0.0853  1.1275
  179SOL     OW  535   0.410   2.348   2.712  0.1803  0.1546  0.1519
  179SOL    HW1  536   0.507   2.328   2.702 -0.1123  2.5077 -1.1024
  179SOL    HW2  537   0.395   2.389   2.804  3.0089 -0.7475 -0.3810
  180SOL     OW  538   1.662   1.591   0.901 -0.0030 -0.0864 -0.9275
  180SOL    HW1  539   1.698   1.665   0.952  0.5026 -2.4459  2.1186
  180SOL    HW2  540   1.558   1.597   0.896 -3.5145  2.4723 -1.5489
  181SOL     OW  541   2.116   0.948   2.094 -0.1478 -0.2762  0.1631
  181SOL    HW1  542   2.080   0.905   2.178  3.6394  1.3331  1.3713
  181SOL    HW2  543   2.211   0.920   2.077  0.2269 -1.0035  0.0086
  182SOL     OW  544   2.934   2.794   2.761 -0.2366  0.3344  0.1443
  182SOL    HW1  545   2.912   2.838   2.674 -0.6354 -0.3370  0.6730
  182SOL    HW2  546   3.008   2.846   2.812 -1.2722 -0.5884  1.4493
  183SOL     OW  547   1.180   0.647   2.300  0.4293  0.1640 -0.1927
  183SOL    HW1  548   1.197   0.548   2.319  0.8947 -1.2996 -2.1466
  183SOL    HW2  549   1.215   0.670   2.206 -0.9324 -1.9640 -0.0440
  184SOL     OW  550   0.669   0.695   1.851 -0.3967 -0.5759  0.4436
  184SOL    HW1  551   0.715   0.776   1.810  1.4387  0.9297 -0.2860
  184SOL    HW2  552   0.706   0.681   1.941  0.8186 -2.0584 -2.2955
  185SOL     OW  553   1.996   1.300   0.542 -0.7150  0.2594 -0.6166
  185SOL    HW1  554   1.932   1.291   0.460 -0.8475 -1.6019 -0.8538
  185SOL    HW2  555   2.091   1.261   0.524  2.0284 -2.3872  0.4900
  186SOL     OW  556   0.159   2.108   2.861  0.5524 -0.3550 -0.1407
  186SOL    HW1  557   0.117   2.023   2.827 -0.2062  0.9574 -1.6251
  186SOL    HW2  558   0.082   2.179   2.857 -4.5048  5.0145 -1.1838
  187SOL     OW  559   2.511   1.540   0.322  0.9942 -0.1609  0.1435
  187SOL    HW1  560   2.442   1.619   0.308 -0.6061  0.9967  2.1371
  187SOL    HW2  561   2.512   1.485   0.237  1.9379  1.4984  3.1160
  188SOL     OW  562   0.267   1.689   0.982 -0.6828  0.0363 -0.7876
  188SOL    HW1  563   0.347   1.682   0.914  1.5070 -0.7115 -2.5297
  188SOL    HW2  564   0.253   1.790   1.009  0.2856  0.0285 -2.9483
  189SOL     OW  565   2.351   0.503   0.429  0.2125 -0.0324 -0.6060
  189SOL    HW1  566   2.266   0.452   0.455 -1.9293 -1.3946  1.2337
  189SOL    HW2  567   2.397   0.475   0.345 -1.1754  2.2716  1.2861
  190SOL     OW  568   1.221   1.709   2.099  0.6596 -0.1485  0.1672
  190SOL    HW1  569   1.256   1.717   2.191 -0.0827 -1.8841  1.1648
  190SOL    HW2  570   1.186   1.616   2.076  1.2436  0.3398 -0.6844
  191SOL     OW  571   3.017   0.437   1.553  0.1002  0.2890  0.1000
  191SOL    HW1  572   3.064   0.376   1.622  0.9467 -3.9739 -0.1791
  191SOL    HW2  573   2.933   0.481   1.589 -2.9927  0.6824  1.2011
  192SOL     OW  574   1.678   1.558   1.637 -0.1789  0.5297  0.3392
  192SOL    HW1  575   1.716   1.465   1.630 -1.7732 -1.2792  0.7264
  192SOL    HW2  576   1.698   1.606   1.724 -0.3002 -1.4848 -1.0191
  193SOL     OW  577   1.165   0.904   0.715 -0.4666  0.5602  0.5143
  193SOL    HW1  578   1.072   0.869   0.698 -0.2968 -2.6093  1.8286
  193SOL    HW2  579   1.223   0.835   0.762  1.8303 -1.2007  1.4030
  194SOL     OW  580   1.308   2.762   1.300  0.0077 -0.4638 -0.2744
  194SOL    HW1  581   1.392   2.797   1.262 -2.8897 -0.7599  0.3783
  194SOL    HW2  582   1.225   2.786   1.247  0.8444 -0.1242  1.1496
  195SOL     OW  583   2.343   0.331   2.960  0.3069  0.1628 -0.0397
  195SOL    HW1  584   2.421   0.273   2.989  1.8760  3.1409 -1.7036
  195SOL    HW2  585   2.292   0.357   3.046 -1.6105  1.3596  1.1209
  196SOL     OW  586   0.781   2.453   1.470  0.2703 -0.1796 -0.0582
  196SOL    HW1  587   0.794   2.370   1.526 -1.0053  1.6699  0.1406
  196SOL    HW2  588   0.810   2.437   1.375  1.2682  0.0063  0.3650
  197SOL     OW  589   0.841   2.640   0.632  0.6925 -0.1344  0.4713
  197SOL    HW1  590   0.746   2.626   0.669 -4.0312 -1.3729 -2.2825
  197SOL    HW2  591   0.841   2.699   0.549  1.0433 -0.7914 -2.3412
  198SOL     OW  592   0.900   0.765   0.675 -0.5494 -1.0071  0.0277
  198SOL    HW1  593   0.845   0.764   0.760  1.5157 -0.8336  2.2717
  198SOL    HW2  594   0.844   0.782   0.596  0.8132  1.2590 -1.0770
  199SOL     OW  595   0.138   2.890   1.613 -0.7505  0.7753  0.0637
  199SOL    HW1  596   0.066   2.951   1.575 -0.2414  2.0349 -0.6505
  199SOL    HW2  597   0.147   2.805   1.556 -0.6002 -0.5126  2.8559
  200SOL     OW  598   2.306   1.813   2.656 -0.5647  0.7234 -0.2046
  200SOL    HW1  599   2.333   1.740   2.590  0.2204 -1.6366  0.8082
  200SOL    HW2  600   2.305   1.772   2.752  0.3385 -1.5255  1.5647
  201SOL     OW  601   2.754   2.063   1.238  0.4729 -0.7425 -0.0756
  201SOL    HW1  602   2.845   2.028   1.211  0.3993 -0.1642  0.4435
  201SOL    HW2  603   2.698   1.993   1.288 -1.0055  1.2996  0.3596
  202SOL     OW  604   2.769   0.152   0.377 -0.2263 -0.6395 -0.1391
  202SOL    HW1  605   2.839   0.193   0.439 -1.2639 -0.6059 -0.2206
  202SOL    HW2  606   2.820   0.107   0.302  0.5674 -0.1654  1.0034
  203SOL     OW  607   1.182   2.237   2.140 -0.0008  0.8090  0.0703
  203SOL    HW1  608   1.249   2.159   2.141  1.6907 -0.3080  0.6642
  203SOL    HW2  609   1.122   2.244   2.220 -1.3640  1.1118 -0.0433
  204SOL     OW  610   1.288   1.978   1.678 -0.0534 -0.2828  0.1508
  204SOL    HW1  611   1.278   2.078   1.669  1.7129 -0.4855  4.2180
  204SOL    HW2  612   1.244   1.954   1.769 -1.8548  2.4676  1.0609
  205SOL     OW  613   0.831   2.175   1.572  0.1712  0.7687  0.1097
  205SOL    HW1  614   0.927   2.201   1.580 -1.9879 -0.2013 -0.9147
  205SOL    HW2  615   0.814   2.098   1.641 -3.1931 -0.5374 -0.9574
  206SOL     OW  616   0.271   0.507   2.762 -0.4339  0.3085 -0.0087
  206SOL    HW1  617   0.346   0.578   2.765  1.6945  4.7336 -1.0085
  206SOL    HW2  618   0.237   0.494   2.667  0.9470 -0.3173  0.9132
  207SOL     OW  619   1.506   0.062   1.929 -0.4257 -0.1307  0.3135
  207SOL    HW1  620   1.494   3.085   1.875 -0.7003 -1.5229 -1.0303
  207SOL    HW2  621   1.421   0.103   1.964  0.4234 -1.5455 -0.5373
  208SOL     OW  622   0.552   2.427   1.844 -0.0604 -0.1702  0.7180
  208SOL    HW1  623   0.571   2.438   1.941  0.3947 -1.7584 -1.4008
  208SOL    HW2  624   0.572   2.514   1.791  2.5476  1.1996 -3.7962
  209SOL     OW  625   1.818   0.888   3.101 -0.0982  0.4737 -0.0793
  209SOL    HW1  626   1.850   0.816   3.039 -0.7930  2.2836  2.4786
  209SOL    HW2  627   1.794   0.973   3.057  0.2979 -1.1167  0.9086
  210SOL     OW  628   0.132   0.416   0.799  0.1709 -0.0259  0.1180
  210SOL    HW1  629   0.037   0.386   0.777  2.3250  0.1463  0.7214
  210SOL    HW2  630   0.131   0.500   0.864  1.1538  1.9440  2.1021
  211SOL     OW  631   0.850   0.930   1.275 -0.1667 -0.4843 -0.6647
  211SOL    HW1  632   0.762   0.985   1.288  0.1029 -0.1219 -0.2904
  211SOL    HW2  633   0.902   0.923   1.366 -0.9031  1.4739  0.9098
  212SOL     OW  634   1.326   2.172   0.902  0.7711 -0.4812  0.4337
  212SOL    HW1  635   1.292   2.231   0.976 -1.6518  0.4223  1.7212
  212SOL    HW2  636   1.401   2.115   0.939 -0.8052 -0.5288  0.1708
  213SOL     OW  637   2.044   0.211   2.010  0.1895  0.4731 -0.0577
  213SOL    HW1  638   2.000   0.174   1.926 -1.4360  1.7485  0.9737
  213SOL    HW2  639   2.112   0.139   2.037  0.9181 -0.9622  0.3529
  214SOL     OW  640   1.202   2.486   2.562 -0.2736  0.1642  0.5785
  214SOL    HW1  641   1.205   2.541   2.652  1.4413  0.6746  0.7755
  214SOL    HW2  642   1.270   2.528   2.499  1.3742 -1.8822 -3.4235
  215SOL     OW  643   2.988   1.659   1.260 -0.8600  0.2543  0.1032
  215SOL    HW1  644   2.942   1.646   1.349 -0.7785 -0.6346 -0.8569
  215SOL    HW2  645   2.929   1.622   1.187  0.8575  0.1664 -2.0165
  216SOL     OW  646   0.292   0.176   2.190  0.0103 -0.1652 -0.2608
  216SOL    HW1  647   0.366   0.160   2.256 -0.7495  0.4685 -1.7441
  216SOL    HW2  648   0.326   0.241   2.118 -0.6008 -0.9903 -1.0994
  217SOL     OW  649   2.678   0.398   0.011 -0.0491  0.2885 -0.0964
  217SOL    HW1  650   2.688   0.498   0.031 -2.1053  2.1863 -2.2565
  217SOL    HW2  651   2.771   0.356   0.030 -0.7713 -0.5615 -0.0336
  218SOL     OW  652   1.597   1.969   2.009  0.0910  0.1619  0.0858
  218SOL    HW1  653   1.696   1.973   1.976  1.4116 -0.5818  0.2401
  218SOL    HW2  654   1.583   1.911   2.089 -1.0719 -2.1208  1.8603
  219SOL     OW  655   1.953   0.994   0.226 -0.3369 -0.5454  0.0225
  219SOL    HW1  656   1.876   0.969   0.159 -3.0527  1.4735 -0.3382
  219SOL    HW2  657   1.921   1.064   0.291 -0.2736  1.3687  1.6555
  220SOL     OW  658   1.508   2.072   1.067 -0.6274 -0.3662 -0.8920
  220SOL    HW1  659   1.445   2.100   1.146  2.3086  0.3126  1.5304
  220SOL    HW2  660   1.605   2.096   1.091  0.3357  2.1156  1.5528
  221SOL     OW  661   0.308   0.783   3.073  0.0002  0.1153  0.3580
  221SOL    HW1  662   0.220   0.823   3.107 -0.1483  3.7744  0.7138
  221SOL    HW2  663   0.311   0.768   2.973  1.3832  2.1264  2.0402
  222SOL     OW  664   0.977   2.816   1.385  0.2303 -0.1970  0.4110
  222SOL    HW1  665   1.008   2.826   1.483 -1.0275  1.7607 -3.6921
  222SOL    HW2  666   1.016   2.895   1.329  0.3426 -1.8828  1.2721
  223SOL     OW  667   1.469   0.534   2.703 -0.1117 -0.0380 -0.0732
  223SOL    HW1  668   1.508   0.463   2.769  0.3829 -0.0688  2.2025
  223SOL    HW2  669   1.491   0.623   2.740  6.0924 -2.5396 -0.5574
  224SOL     OW  670   3.056   0.806   1.154 -0.1365  0.1017  0.0475
  224SOL    HW1  671   3.049   0.707   1.151 -0.5545  2.4135  1.2512
  224SOL    HW2  672   3.008   0.832   1.237 -2.3421  0.8704 -0.6034
  225SOL     OW  673   1.031   1.255   1.449  0.4500  0.9120  0.0005
  225SOL    HW1  674   0.935   1.279   1.425 -0.4923 -2.7292 -0.1641
  225SOL    HW2  675   1.072   1.308   1.527  0.2152  0.4847  1.7410
  226SOL     OW  676   0.983   0.003   0.181  0.1479  0.1996  0.2891
  226SOL    HW1  677   1.017   3.060   0.099 -2.1771 -0.1683 -0.9572
  226SOL    HW2  678   1.010   3.073   0.270 -1.2019  2.6226  3.4067
  227SOL     OW  679   0.701   1.635   1.446  0.3105  0.3426  0.2044
  227SOL    HW1  680   0.753   1.708   1.402 -0.4357 -2.8144 -0.7810
  227SOL    HW2  681   0.609   1.624   1.400 -0.7132  0.5266  0.4012
  228SOL     OW  682   0.465   2.873   1.343 -0.0806  0.0969  0.0495
  228SOL    HW1  683   0.521   2.794   1.322 -0.0572  1.0539  2.2514
  228SOL    HW2  684   0.449   2.884   1.441 -1.5698 -0.6565 -0.2057
  229SOL     OW  685   2.403   1.026   0.353  0.4766 -0.0374 -0.3644
  229SOL    HW1  686   2.359   0.946   0.394 -1.1195  0.9188 -2.8024
  229SOL    HW2  687   2.452   1.004   0.264 -1.2331  0.1160  3.2814
  230SOL     OW  688   0.540   1.198   1.805  0.2934  0.1395  0.3109
  230SOL    HW1  689   0.485   1.108   1.816 -1.4126 -0.5035 -3.3055
  230SOL    HW2  690   0.545   1.246   1.895  1.1433  1.1727  0.8115
  231SOL     OW  691   1.298   2.430   1.481  0.1044  0.5297 -0.6335
  231SOL    HW1  692   1.348   2.480   1.550 -2.5912  0.6224 -2.7716
  231SOL    HW2  693   1.347   2.439   1.392 -0.3743  2.0043 -0.9918
  232SOL     OW  694   2.221   2.442   0.500  0.7659 -0.2734 -0.0617
  232SOL    HW1  695   2.163   2.419   0.578 -1.5683  0.8674  0.1534
  232SOL    HW2  696   2.162   2.472   0.421  0.4294 -1.4516 -2.7736
  233SOL     OW  697   1.027   2.520   3.014  0.2027  0.5807  0.2578
  233SOL    HW1  698   1.061   2.570   3.095 -2.5997 -0.2610 -1.8232
  233SOL    HW2  699   1.042   2.420   3.034 -1.3620 -0.4384  0.7863
  234SOL     OW  700   1.213   0.313   2.361 -0.4024  0.3214 -0.1839
  234SOL    HW1  701   1.293   0.289   2.424  0.7405 -0.5187 -0.6527
  234SOL    HW2  702   1.164   0.228   2.345  0.7593 -0.8491  2.7528
  235SOL     OW  703   0.314   2.458   0.250  0.1581 -0.5086  0.1997
  235SOL    HW1  704   0.240   2.494   0.312 -1.6167  0.4397  2.2128
  235SOL    HW2  705   0.320   2.355   0.243  0.5730 -5.1252  1.0118
  236SOL     OW  706   2.043   2.792   2.600 -0.0261 -0.0140  0.0425
  236SOL    HW1  707   2.077   2.706   2.556  0.8179  1.0082  1.5575
  236SOL    HW2  708   2.128   2.836   2.641 -1.1125  1.8942  2.3207
  237SOL     OW  709   2.004   1.135   1.646  0.2353  0.6009 -0.3701
  237SOL    HW1  710   2.081   1.104   1.586  0.1182  0.6555  1.9310
  237SOL    HW2  711   2.000   1.073   1.730  1.2216  0.8575  1.8168
  238SOL     OW  712   2.145   0.038   2.419 -0.0847  0.2844 -0.1872
  238SOL    HW1  713   2.126   0.107   2.345 -3.0741  4.0574  1.0590
  238SOL    HW2  714   2.050   3.108   2.449  0.1922 -0.2789 -0.0354
  239SOL     OW  715   0.351   1.830   1.732  0.0827 -0.4792 -0.0455
  239SOL    HW1  716   0.322   1.789   1.641  1.3147 -0.8428 -1.6496
  239SOL    HW2  717   0.449   1.834   1.742 -0.2585 -1.4499 -0.3526
  240SOL     OW  718   0.187   2.282   0.623 -0.7386 -0.0080 -0.4351
  240SOL    HW1  719   0.086   2.295   0.598 -4.4564  3.1593 -0.4095
  240SOL    HW2  720   0.218   2.189   0.618 -1.3240  1.8588 -2.3066
  241SOL     OW  721   1.404   2.358   0.259  0.5189  0.2075 -0.2190
  241SOL    HW1  722   1.459   2.338   0.345  0.1570  2.3209 -1.7229
  241SOL    HW2  723   1.442   2.330   0.168 -0.0093  0.3255 -2.6247
  242SOL     OW  724   1.880   1.259   0.298  0.3471 -0.6808 -0.4656
  242SOL    HW1  725   1.976   1.261   0.260 -0.4667 -1.8033  0.1047
  242SOL    HW2  726   1.811   1.280   0.230  1.1437 -2.7283  1.8387
  243SOL     OW  727   0.805   3.091   1.649  0.4845  0.2853  0.4443
  243SOL    HW1  728   0.781   0.028   1.560  1.2834  1.0722  3.3969
  243SOL    HW2  729   0.893   0.013   1.684 -1.9984 -1.1326 -0.2355
  244SOL     OW  730   1.928   2.849   2.949 -0.3071  0.4071 -0.2810
  244SOL    HW1  731   1.919   2.951   2.952  1.4470 -2.6177  1.8359
  244SOL    HW2  732   1.885   2.817   2.858 -2.1579 -1.0867 -0.5158
  245SOL     OW  733   1.355   3.069   3.056 -0.3463 -0.0618  0.5166
  245SOL    HW1  734   1.441   0.014   3.023  0.4871 -1.6046  0.8689
  245SOL    HW2  735   1.381   3.018   0.035 -0.4376  2.3870  3.8461
  246SOL     OW  736   1.072   1.256   2.293 -0.2485  0.2194 -0.1663
  246SOL    HW1  737   1.148   1.220   2.352  0.9568 -0.6402  0.2715
  246SOL    HW2  738   0.980   1.238   2.337 -0.4017 -1.3609  0.2368
  247SOL     OW  739   0.022   0.668   1.993 -0.1440 -0.3003 -0.3915
  247SOL    HW1  740   0.084   0.740   2.023 -0.1684  0.0131  1.2725
  247SOL    HW2  741   3.055   0.663   2.065  0.7575 -2.1402  0.5090
  248SOL     OW  742   0.465   0.947   2.051 -0.6156 -0.7115 -0.1906
  248SOL    HW1  743   0.563   0.952   2.075  0.4918  2.7996 -1.6122
  248SOL    HW2  744   0.458   0.940   1.949  0.4974  0.2380  1.4083
  249SOL     OW  745   2.190   0.664   0.061 -0.3877  0.1465 -0.2991
  249SOL    HW1  746   2.199   0.559   0.060  1.8583 -0.5757  0.3822
  249SOL    HW2  747   2.150   0.694   0.150 -0.0101  0.1273  1.0300
  250SOL     OW  748   0.197   0.278   0.357 -0.7972 -0.1693 -0.4299
  250SOL    HW1  749   0.231   0.363   0.320 -0.4728  0.3539  0.0268
  250SOL    HW2  750   0.240   0.276   0.457  3.5285  1.9384  3.0477
  251SOL     OW  751   0.915   0.582   2.310  0.3412  0.0588 -0.0917
  251SOL    HW1  752   1.015   0.601   2.321 -0.6808  1.3907  1.0390
  251SOL    HW2  753   0.883   0.636   2.233  2.4383 -0.9930  2.9876
  252SOL     OW  754   1.410   1.703   1.836 -0.0000  0.6553  0.1218
  252SOL    HW1  755   1.320   1.752   1.835  0.0600 -2.5864 -0.2480
  252SOL    HW2  756   1.399   1.604   1.861 -0.2904 -0.9390 -1.0710
  253SOL     OW  757   1.428   2.601   1.975  0.2351 -0.4888 -1.1783
  253SOL    HW1  758   1.395   2.516   2.024  0.8774 -2.2815  0.3449
  253SOL    HW2  759   1.531   2.583   1.970  1.5125 -0.8250  1.4714
  254SOL     OW  760   0.766   2.092   2.173  0.0163 -0.1218  0.0326
  254SOL    HW1  761   0.858   2.063   2.183 -2.5860 -0.8558 -2.0850
  254SOL    HW2  762   0.750   2.154   2.094  1.0715 -1.5904  1.4020
  255SOL     OW  763   1.421   0.692   0.581  0.1663 -0.1342  0.2652
  255SOL    HW1  764   1.408   0.795   0.586 -0.6986  0.9487 -0.1551
  255SOL    HW2  765   1.330   0.653   0.565  2.4361  0.0524  3.2048
  256SOL     OW  766   1.879   2.304   1.529  0.4703 -0.0980  0.2035
  256SOL    HW1  767   1.892   2.293   1.429 -0.5457  1.8211 -0.5555
  256SOL    HW2  768   1.796   2.366   1.548  0.4373 -0.8362  0.4105
  257SOL     OW  769   0.323   2.124   2.623  0.3337 -0.3042  0.3273
  257SOL    HW1  770   0.365   2.215   2.639  1.0227  1.0263  0.8767
  257SOL    HW2  771   0.262   2.095   2.700 -2.6261 -2.8639  1.9292
  258SOL     OW  772   0.642   0.413   2.143  0.2080 -0.3375 -0.6718
  258SOL    HW1  773   0.660   0.506   2.106  0.0399  1.4187  1.9820
  258SOL    HW2  774   0.695   0.399   2.225 -4.1953 -1.8682 -0.5820
  259SOL     OW  775   1.208   0.843   2.475 -0.1429 -0.7528  0.1365
  259SOL    HW1  776   1.118   0.878   2.503 -1.4079 -0.0689  1.3375
  259SOL    HW2  777   1.193   0.780   2.396 -3.4343  0.0821  0.4544
  260SOL     OW  778   1.739   0.849   0.700 -0.0150 -0.0243 -0.3879
  260SOL    HW1  779   1.665   0.849   0.776 -2.3671  0.6188  2.7478
  260SOL    HW2  780   1.778   0.753   0.699  1.2984  1.6561 -0.6481
  261SOL     OW  781   0.676   0.308   2.838 -0.0571 -0.1165  0.4591
  261SOL    HW1  782   0.737   0.253   2.892 -2.1173 -1.0559 -0.8259
  261SOL    HW2  783   0.584   0.263   2.843  1.7335  1.8553  2.2683
  262SOL     OW  784   2.630   2.943   2.955 -0.3132  0.5764  0.9775
  262SOL    HW1  785   2.702   2.961   3.023  1.6056 -1.2612 -0.1765
  262SOL    HW2  786   2.586   3.029   2.925  1.1511 -1.5710  2.7113
  263SOL     OW  787   0.451   2.269   0.503 -0.7202  0.2257  0.3205
  263SOL    HW1  788   0.358   2.289   0.544 -3.6651  1.1080 -0.6041
  263SOL    HW2  789   0.532   2.264   0.566  0.9307  0.3352 -0.6599
  264SOL     OW  790   0.410   1.329   1.614  0.2329 -0.9007  0.0814
  264SOL    HW1  791   0.455   1.268   1.679  0.7134 -0.0806  0.9726
  264SOL    HW2  792   0.359   1.404   1.662  1.9478  3.9092  0.2541
  265SOL     OW  793   0.582   1.332   0.300  0.0382  0.0722 -1.0941
  265SOL    HW1  794   0.517   1.271   0.257  1.0576  0.0495 -0.3274
  265SOL    HW2  795   0.664   1.348   0.244 -0.0933 -0.0770  0.8754
  266SOL     OW  796   1.943   1.632   0.633  0.3088  0.1840 -0.3216
  266SOL    HW1  797   1.942   1.722   0.678  1.2383  1.1764  0.6986
  266SOL    HW2  798   2.025   1.578   0.655  2.1875 -0.6006 -1.9456
  267SOL     OW  799   2.938   0.276   3.070 -0.5660  0.3519  0.2703
  267SOL    HW1  800   3.028   0.291   0.004 -1.1816 -0.3089 -2.0459
  267SOL    HW2  801   2.940   0.323   2.977  1.2316  0.5318  1.6152
  268SOL     OW  802   0.475   0.137   2.816  0.5402 -0.7772 -0.2053
  268SOL    HW1  803   0.487   0.107   2.913  2.0698 -0.2212 -1.9130
  268SOL    HW2  804   0.437   0.065   2.752 -3.1273 -0.6781 -0.1813
  269SOL     OW  805   1.904   0.277   2.777  0.3074  0.2914 -0.4621
  269SOL    HW1  806   1.845   0.306   2.856 -3.4062 -1.8416  1.5190
  269SOL    HW2  807   1.997   0.319   2.777  0.6339 -1.6277 -2.1709
  270SOL     OW  808   1.006   0.965   2.596  0.3017 -0.3980 -0.3049
  270SOL    HW1  809   0.953   0.880   2.600 -0.0308 -0.6676 -1.3699
  270SOL    HW2  810   1.025   1.010   2.688  1.0989  0.8859 -0.0525
  271SOL     OW  811   2.522   0.939   0.143 -0.3305  0.3086 -0.2585
  271SOL    HW1  812   2.505   0.849   0.099 -1.2264  2.8404  1.6520
  271SOL    HW2  813   2.521   1.007   0.069  0.1567 -3.7272  1.6223
  272SOL     OW  814   2.750   1.929   2.672 -0.4495  0.0306 -0.2651
  272SOL    HW1  815   2.816   1.980   2.738  2.8370 -1.2996 -0.7714
  272SOL    HW2  816   2.656   1.952   2.686  1.2065 -0.6312  1.3163
  273SOL     OW  817   2.478   0.582   2.891 -0.6104  0.5518  0.2043
  273SOL    HW1  818   2.426   0.496   2.899  0.5298 -1.4194  1.5833
  273SOL    HW2  819   2.562   0.574   2.833 -0.3710  1.3843 -0.8679
  274SOL     OW  820   0.229   2.761   1.152  0.2422  0.3555 -0.3114
  274SOL    HW1  821   0.288   2.749   1.068  0.0761 -0.5453 -1.5767
  274SOL    HW2  822   0.287   2.803   1.225 -0.2323  0.9762 -1.8561
  275SOL     OW  823   2.117   1.433   0.947 -1.3628  0.0960 -0.1628
  275SOL    HW1  824   2.057   1.356   0.917  0.7495  1.5572 -1.4837
  275SOL    HW2  825   2.159   1.482   0.865  2.3947 -0.5298 -0.2657
  276SOL     OW  826   0.182   1.358   2.644 -0.2602  0.3330  0.6017
  276SOL    HW1  827   0.268   1.307   2.632 -1.1368 -1.5098  0.3302
  276SOL    HW2  828   0.107   1.290   2.632  0.0150  0.1756 -1.3221
  277SOL     OW  829   1.748   2.730   1.860  0.8664 -0.0948  0.5782
  277SOL    HW1  830   1.730   2.647   1.910 -1.1856 -0.0773 -3.4627
  277SOL    HW2  831   1.789   2.809   1.907  2.0784 -1.9880  0.8693
  278SOL     OW  832   1.666   0.414   1.759 -0.9140 -0.4030  0.1296
  278SOL    HW1  833   1.626   0.328   1.718 -0.7055 -1.6599 -0.8600
  278SOL    HW2  834   1.754   0.432   1.712 -1.1903  2.2209 -1.3009
  279SOL     OW  835   2.114   1.668   0.136 -0.1475 -0.0453  0.1779
  279SOL    HW1  836   2.143   1.763   0.125  0.0943  0.2923  0.2521
  279SOL    HW2  837   2.059   1.651   0.222  1.1506  0.8936 -0.8890
  280SOL     OW  838   0.836   1.503   0.916 -0.5476  0.5362 -0.3597
  280SOL    HW1  839   0.912   1.544   0.974 -1.6073  0.1690 -3.2500
  280SOL    HW2  840   0.863   1.476   0.823 -0.0290 -1.3587  4.1423
  281SOL     OW  841   0.377   3.092   2.631 -0.5586 -0.4652 -0.2058
  281SOL    HW1  842   0.379   0.044   2.550 -1.5019 -0.8011  0.7646
  281SOL    HW2  843   0.294   3.033   2.632 -0.5604 -2.2802  0.1990
  282SOL     OW  844   0.268   0.648   1.295  0.2385 -0.3700  0.3675
  282SOL    HW1  845   0.300   0.696   1.206  2.9295  0.6391 -0.9694
  282SOL    HW2  846   0.212   0.565   1.271 -2.8075 -0.2956 -1.7615
  283SOL     OW  847   1.748   2.250   3.048 -0.2633 -0.3392 -0.0096
  283SOL    HW1  848   1.757   2.299   2.954 -0.7375  1.1414 -2.8417
  283SOL    HW2  849   1.648   2.238   3.063 -1.0062  4.0904  0.0714
  284SOL     OW  850   1.691   1.517   0.652  0.3794 -0.7250 -0.3729
  284SOL    HW1  851   1.693   1.551   0.749  3.0500  1.9321 -0.9109
  284SOL    HW2  852   1.783   1.538   0.611 -0.4145 -0.2392 -3.2349
  285SOL     OW  853   0.118   0.152   2.666  0.2344 -0.1166 -0.2210
  285SOL    HW1  854   0.182   0.184   2.739  0.2491  2.3108  1.5454
  285SOL    HW2  855   0.123   0.052   2.661 -1.0470  1.4594  0.3678
  286SOL     OW  856   1.917   0.102   1.800 -0.2224  0.1614 -0.3338
  286SOL    HW1  857   1.980   0.020   1.810 -0.9303 -3.8008  3.7962
  286SOL    HW2  858   1.906   0.118   1.703  1.5742  2.3179  1.8078
  287SOL     OW  859   0.912   1.137   1.099  0.7666 -0.2814  0.5809
  287SOL    HW1  860   0.900   1.068   1.172 -1.5244  0.3849  0.3782
  287SOL    HW2  861   0.842   1.213   1.115  1.6819  0.1531  1.3680
  288SOL     OW  862   1.477   2.973   0.365  0.6103 -0.0572 -0.0126
  288SOL    HW1  863   1.540   2.960   0.286 -2.7423  0.3633  0.0029
  288SOL    HW2  864   1.409   3.045   0.350  0.9471 -2.0715  2.5076
  289SOL     OW  865   0.076   1.552   2.784  0.0172  0.5891  0.2267
  289SOL    HW1  866   0.010   1.573   2.711  0.5112  1.0353  2.2395
  289SOL    HW2  867   0.129   1.470   2.753  1.8725 -2.2977 -0.5143
  290SOL     OW  868   1.124   2.755   0.616 -0.3878  0.1104 -0.3565
  290SOL    HW1  869   1.042   2.702   0.634  3.9421  2.5130  2.9240
  290SOL    HW2  870   1.161   2.785   0.705 -1.5786  1.9422 -0.7117
  291SOL     OW  871   2.237   2.476   2.748 -0.5818  0.3415 -0.3844
  291SOL    HW1  872   2.326   2.428   2.752  1.2699 -0.8530  1.0681
  291SOL    HW2  873   2.216   2.507   2.655  0.8679 -1.7544  1.8487
  292SOL     OW  874   0.978   1.107   2.084 -0.4304  0.7482  0.2539
  292SOL    HW1  875   1.019   1.174   2.146 -1.4006  1.1185  2.0163
  292SOL    HW2  876   1.037   1.080   2.002  1.4524 -3.2286 -2.3012
  293SOL     OW  877   2.125   2.806   1.007  0.2005  0.2274 -0.7390
  293SOL    HW1  878   2.150   2.903   1.029 -0.5839 -0.4038 -0.5009
  293SOL    HW2  879   2.209   2.758   0.970  0.4052 -1.9952 -1.4820
  294SOL     OW  880   0.196   0.424   2.531 -0.4565  0.3722 -0.0960
  294SOL    HW1  881   0.125   0.459   2.465 -1.1745  0.5534 -0.0579
  294SOL    HW2  882   0.186   0.324   2.539 -1.5111  0.2573 -0.8288
  295SOL     OW  883   1.336   1.887   0.365 -0.4535 -0.1781  0.3034
  295SOL    HW1  884   1.354   1.953   0.442  1.7968  0.3884  0.5844
  295SOL    HW2  885   1.318   1.791   0.402 -1.1366 -2.6226 -0.1679
  296SOL     OW  886   2.121   1.908   3.044  0.3566 -0.2121  0.2841
  296SOL    HW1  887   2.136   2.004   3.018 -1.1931 -1.2216  3.9278
  296SOL    HW2  888   2.177   1.841   2.992 -2.6947  0.9887 -0.6063
  297SOL     OW  889   2.455   0.699   0.039 -0.0205 -0.2127 -0.4328
  297SOL    HW1  890   2.485   0.667   3.061 -1.4932  2.2215 -0.0143
  297SOL    HW2  891   2.352   0.692   0.036 -2.4036  0.5391  2.8685
  298SOL     OW  892   0.974   2.126   2.581  0.6520 -0.6457  0.3555
  298SOL    HW1  893   0.984   2.182   2.497  1.4915  0.0693 -3.5525
  298SOL    HW2  894   0.874   2.098   2.597 -0.0044 -3.2812  1.1361
  299SOL     OW  895   1.169   2.885   2.445 -0.0887  0.2078 -0.1288
  299SOL    HW1  896   1.248   2.871   2.384 -0.7712 -1.5799 -2.6831
  299SOL    HW2  897   1.127   2.974   2.423  0.8435 -2.0944 -0.7781
  300SOL     OW  898   2.542   0.166   0.016  0.6821  0.0086  0.2334
  300SOL    HW1  899   2.592   0.256   0.019 -2.1020 -1.3607 -1.8232
  300SOL    HW2  900   2.554   0.123   3.037  0.6983 -0.3430  0.3754
  301SOL     OW  901   1.224   1.089   1.355  0.3820  0.2656 -0.4721
  301SOL    HW1  902   1.308   1.096   1.409 -2.1322 -1.0216  2.2144
  301SOL    HW2  903   1.146   1.148   1.389 -2.1194  0.3523 -2.0809
  302SOL     OW  904   3.096   2.377   0.226 -0.4362 -0.3347 -0.1319
  302SOL    HW1  905   0.054   2.416   0.293  3.6529  2.2961  1.2675
  302SOL    HW2  906   3.009   2.426   0.233 -1.5230  1.5240  2.4995
  303SOL     OW  907   3.021   2.464   2.633  0.0083 -0.1979  0.5959
  303SOL    HW1  908   2.986   2.540   2.693 -1.6948  0.4561  1.2985
  303SOL    HW2  909   0.017   2.465   2.623  2.5861 -0.2253 -1.4755
  304SOL     OW  910   2.939   0.661   2.199  0.1055 -0.2953  0.1469
  304SOL    HW1  911   2.866   0.722   2.160 -3.4359 -0.6991  0.8792
  304SOL    HW2  912   2.901   0.566   2.212 -0.9620 -0.9833 -0.9375
  305SOL     OW  913   0.460   2.169   2.101 -0.1186  0.5730 -0.3506
  305SOL    HW1  914   0.532   2.240   2.105  2.3013 -0.0894 -0.3252
  305SOL    HW2  915   0.416   2.158   2.191  0.0463 -0.5210 -2.0605
  306SOL     OW  916   2.648   0.923   1.690  0.3099  0.1395 -0.0962
  306SOL    HW1  917   2.600   1.012   1.702 -2.3445  1.3609  0.9280
  306SOL    HW2  918   2.583   0.852   1.667 -1.9882  3.7992  1.5210
  307SOL     OW  919   1.720   0.753   1.543 -0.1188 -0.4076 -0.5472
  307SOL    HW1  920   1.813   0.736   1.504 -0.4400 -1.2820 -1.6572
  307SOL    HW2  921   1.653   0.715   1.477  1.5337  0.0393 -2.3228
  308SOL     OW  922   2.466   1.834   1.150 -0.2014 -0.2378  0.8058
  308SOL    HW1  923   2.369   1.809   1.183 -2.2599  0.0120 -1.1659
  308SOL    HW2  924   2.492   1.779   1.075 -3.1753 -0.3938  2.8347
  309SOL     OW  925   2.074   1.605   1.617 -0.2362 -0.0263  0.0300
  309SOL    HW1  926   2.095   1.709   1.615  0.8722 -0.9248 -0.4004
  309SOL    HW2  927   2.144   1.557   1.563 -2.9393  0.5629 -1.7648
  310SOL     OW  928   2.752   1.638   2.703 -0.2164  0.3189 -0.2289
  310SOL    HW1  929   2.747   1.738   2.706 -1.8042 -0.3865  1.8600
  310SOL    HW2  930   2.655   1.607   2.713 -0.8088 -0.2122  0.9393
  311SOL     OW  931   2.491   2.029   2.717  0.1400  0.4504 -0.0730
  311SOL    HW1  932   2.421   1.962   2.685  0.3955 -0.5379 -1.5378
  311SOL    HW2  933   2.478   2.120   2.673  1.3119 -1.2829 -0.5878
  312SOL     OW  934   2.212   1.841   1.549  0.0992  0.0262  0.1857
  312SOL    HW1  935   2.125   1.887   1.576  0.8254 -0.1820 -0.2572
  312SOL    HW2  936   2.284   1.907   1.539 -1.9172 -1.4434  1.4649
  313SOL     OW  937   2.369   2.689   0.945 -0.0977  1.1049  0.4350
  313SOL    HW1  938   2.437   2.762   0.962 -0.2830  1.4865 -2.2268
  313SOL    HW2  939   2.384   2.609   1.009 -1.7783  2.6867  3.4177
  314SOL     OW  940   1.071   1.958   0.359 -0.4853 -0.5449  0.3660
  314SOL    HW1  941   1.167   1.923   0.356 -3.0053 -0.7060  0.6978
  314SOL    HW2  942   1.037   1.957   0.458 -1.9992 -0.9729  0.7287
  315SOL     OW  943   0.673   2.347   2.596  0.1730 -0.4850 -0.5277
  315SOL    HW1  944   0.678   2.267   2.532  0.4452 -1.3721 -2.3545
  315SOL    HW2  945   0.757   2.403   2.597 -0.6989  0.7507  0.7763
  316SOL     OW  946   0.125   0.664   0.487 -0.2647 -0.6897 -0.3435
  316SOL    HW1  947   0.152   0.764   0.478 -1.8159  1.9158  3.3090
  316SOL    HW2  948   0.029   0.650   0.451 -0.8424 -0.8531  0.9371
  317SOL     OW  949   1.350   0.399   0.872  0.2808  0.0133 -0.1282
  317SOL    HW1  950   1.363   0.437   0.971  1.0363 -2.3781  0.0464
  317SOL    HW2  951   1.257   0.360   0.864 -0.1121  0.1282 -0.2574
  318SOL     OW  952   2.989   2.423   0.632 -0.2367 -0.0924  0.0125
  318SOL    HW1  953   2.951   2.506   0.684 -0.4567  2.2931  2.3522
  318SOL    HW2  954   2.941   2.336   0.665 -1.8116 -0.8661  0.1373
  319SOL     OW  955   0.171   1.595   2.502  0.4818 -0.1310 -0.8117
  319SOL    HW1  956   0.166   1.515   2.564  2.0699  2.0153  0.0149
  319SOL    HW2  957   0.237   1.658   2.544  1.2147  0.9312  1.2225
  320SOL     OW  958   0.696   2.654   2.107  0.0369  0.5550 -0.1248
  320SOL    HW1  959   0.660   2.712   2.032 -0.5069 -1.1091 -0.5803
  320SOL    HW2  960   0.708   2.707   2.192  2.4749 -0.9937 -1.1842
  321SOL     OW  961   1.088   2.723   0.135 -0.1521 -0.4697 -0.3866
  321SOL    HW1  962   1.169   2.676   0.173 -0.2485  0.8082  1.4213
  321SOL    HW2  963   1.001   2.699   0.181 -1.5695 -1.3612 -3.5206
  322SOL     OW  964   2.562   1.231   2.034 -0.2671  0.0262  0.1725
  322SOL    HW1  965   2.515   1.222   2.126 -0.4874  2.4658  0.3287
  322SOL    HW2  966   2.628   1.307   2.028 -0.8792  1.3212 -1.0171
  323SOL     OW  967   2.283   0.780   0.474 -0.1796  0.3741  0.1031
  323SOL    HW1  968   2.203   0.785   0.409 -0.9517 -0.2077  2.4451
  323SOL    HW2  969   2.329   0.688   0.461 -0.0858  0.8015 -2.0623
  324SOL     OW  970   0.522   2.672   3.051 -0.1399 -0.1377 -0.0330
  324SOL    HW1  971   0.610   2.620   3.056  0.8715 -0.4856 -1.3005
  324SOL    HW2  972   0.520   2.759   2.995  0.5142  0.3887 -1.6223
  325SOL     OW  973   1.751   0.161   2.586  0.2274 -0.4903 -0.2305
  325SOL    HW1  974   1.807   0.206   2.659 -0.3986 -0.4299 -0.8707
  325SOL    HW2  975   1.811   0.092   2.539  1.5496  1.4994  0.2968
  326SOL     OW  976   2.417   2.569   1.482  0.2387 -0.0757  0.0620
  326SOL    HW1  977   2.407   2.513   1.569 -3.5828 -0.4858 -0.5197
  326SOL    HW2  978   2.374   2.663   1.493 -1.1493  1.1608  1.6983
  327SOL     OW  979   1.534   0.381   2.924  0.4271  0.3154 -0.6730
  327SOL    HW1  980   1.456   0.384   2.985  1.3765  1.3511 -2.4522
  327SOL    HW2  981   1.622   0.399   2.968  1.9134  4.3992 -2.6816
  328SOL     OW  982   2.599   1.360   2.331 -0.7174 -0.1572 -0.4841
  328SOL    HW1  983   2.565   1.439   2.277  0.0383 -1.0030 -1.7434
  328SOL    HW2  984   2.522   1.307   2.365  1.4736  1.5436 -2.3956
  329SOL     OW  985   1.740   0.044   2.033 -0.0442 -0.1999  0.3249
  329SOL    HW1  986   1.809   0.084   1.971 -2.2200  0.9149 -1.3046
  329SOL    HW2  987   1.645   0.055   1.991 -3.0716  1.4926  1.5258
  330SOL     OW  988   2.250   1.453   1.481  0.2684 -0.2205 -0.3274
  330SOL    HW1  989   2.238   1.364   1.438 -1.9454  3.7972 -2.1772
  330SOL    HW2  990   2.347   1.482   1.498  0.2610  1.7842  0.9235
  331SOL     OW  991   0.425   1.254   1.369  0.1806 -0.8575 -0.3721
  331SOL    HW1  992   0.455   1.323   1.301 -0.1163  3.0058 -0.2443
  331SOL    HW2  993   0.409   1.302   1.460  0.5803  2.4076 -3.2755
  332SOL     OW  994   0.892   0.277   1.241  0.0362 -0.6878 -0.4179
  332SOL    HW1  995   0.911   0.274   1.141 -1.2051 -1.3936  0.0978
  332SOL    HW2  996   0.939   0.352   1.294  1.0696  1.1065 -0.2651
  333SOL     OW  997   2.272   2.649   1.923 -0.3143 -0.4951 -0.6752
  333SOL    HW1  998   2.298   2.569   1.986 -0.1046 -2.9187  4.0001
  333SOL    HW2  999   2.202   2.715   1.967 -0.8025  1.7644  2.8897
  334SOL     OW 1000   1.067   1.650   1.363  0.3938  0.3531 -0.0482
  334SOL    HW1 1001   0.991   1.717   1.390 -0.5354  1.0606  0.5678
  334SOL    HW2 1002   1.155   1.679   1.410  2.3301  0.8118  2.1164
  335SOL     OW 1003   0.526   2.885   2.886 -0.1166 -0.1521  0.7899
  335SOL    HW1 1004   0.600   2.940   2.925  0.5189 -0.6549  1.8866
  335SOL    HW2 1005   0.541   2.837   2.795  1.8466 -0.2495 -1.0753
  336SOL     OW 1006   2.987   2.939   1.845 -0.0379  0.4177  0.3378
  336SOL    HW1 1007   2.957   3.035   1.866 -0.0802 -1.7611  1.7766
  336SOL    HW2 1008   2.925   2.910   1.767  0.1743  1.9489  0.2553
  337SOL     OW 1009   2.594   1.891   0.569 -0.4290  0.1920  0.4830
  337SOL    HW1 1010   2.494   1.883   0.569 -1.5647 -0.3506  2.7159
  337SOL    HW2 1011   2.643   1.866   0.485 -0.2245  2.1100  1.2100
  338SOL     OW 1012   1.081   2.172   1.319 -0.5641 -0.0421  0.4585
  338SOL    HW1 1013   1.033   2.086   1.289 -0.5512 -1.0177 -0.1732
  338SOL    HW2 1014   1.015   2.242   1.346  0.1732 -0.2588 -1.8536
  339SOL     OW 1015   0.062   0.651   2.327  0.1643  0.4767  0.1280
  339SOL    HW1 1016   3.071   0.656   2.296  0.0988  2.1249  0.1964
  339SOL    HW2 1017   0.078   0.733   2.383 -2.4233  1.8435 -0.7223
  340SOL     OW 1018   1.518   3.078   1.071 -0.6039  0.1124  0.1063
  340SOL    HW1 1019   1.431   0.024   1.093 -0.3295  1.7978 -0.0407
  340SOL    HW2 1020   1.506   2.981   1.102 -0.0061 -0.4525  0.9227
  341SOL     OW 1021   1.729   1.821   1.250 -0.1562  0.5774 -0.5351
  341SOL    HW1 1022   1.805   1.783   1.199 -0.4490 -4.0032 -0.8039
  341SOL    HW2 1023   1.646   1.763   1.230 -1.3298  1.7132 -0.6463
  342SOL     OW 1024   0.448   1.196   0.940  0.1808  0.5559 -0.0186
  342SOL    HW1 1025   0.377   1.152   0.882  2.9760  0.3978  1.6228
  342SOL    HW2 1026   0.524   1.232   0.877  1.9650  0.2273 -1.2801
  343SOL     OW 1027   2.417   0.241   1.428 -0.2636 -0.4853  0.5643
  343SOL    HW1 1028   2.475   0.288   1.502 -0.1211  0.7897  0.7633
  343SOL    HW2 1029   2.465   0.239   1.339 -1.7066  1.7305  1.8176
  344SOL     OW 1030   2.205   2.380   0.979  0.0544 -0.2657  0.0345
  344SOL    HW1 1031   2.184   2.290   1.030 -1.0896 -0.7213  1.5137
  344SOL    HW2 1032   2.304   2.407   0.984 -0.5028  1.2528  0.7904
  345SOL     OW 1033   2.751   2.278   3.006  0.2078 -0.3299  0.0432
  345SOL    HW1 1034   2.757   2.314   3.098  0.3025  2.3565 -2.2671
  345SOL    HW2 1035   2.675   2.326   2.960  1.7544 -2.5905 -0.0244
  346SOL     OW 1036   0.175   1.307   0.725 -0.3028 -0.1061 -0.2465
  346SOL    HW1 1037   0.161   1.358   0.813  1.4391 -2.7916 -0.0153
  346SOL    HW2 1038   0.133   1.359   0.645 -2.8486  0.4450 -0.9983
  347SOL     OW 1039   1.858   2.833   0.903 -0.3531 -0.0574 -0.4308
  347SOL    HW1 1040   1.835   2.738   0.873 -0.4688  3.4929  2.3529
  347SOL    HW2 1041   1.945   2.839   0.955  0.7091 -0.7609  1.1752
  348SOL     OW 1042   1.346   1.334   2.592 -0.0193  0.0566  0.1487
  348SOL    HW1 1043   1.331   1.258   2.528  0.4827 -0.2520  0.0148
  348SOL    HW2 1044   1.425   1.391   2.552  3.1561  2.1346  1.3270
  349SOL     OW 1045   2.395   1.229   2.405 -0.2636  0.0899 -0.2305
  349SOL    HW1 1046   2.297   1.254   2.402  2.4007  1.2149  0.5298
  349SOL    HW2 1047   2.404   1.151   2.470  1.6652  0.3931  1.0430
  350SOL     OW 1048   2.990   1.932   1.182 -0.0186 -0.4093  1.4578
  350SOL    HW1 1049   2.993   1.832   1.203 -1.4808  0.4458  0.3623
  350SOL    HW2 1050   3.079   1.971   1.213 -0.1831  1.6755  0.1000
  351SOL     OW 1051   0.828   0.331   2.316  0.6227 -0.0195  0.2268
  351SOL    HW1 1052   0.846   0.278   2.404  2.5558  0.6895 -2.1121
  351SOL    HW2 1053   0.877   0.423   2.312 -0.2216 -1.0966 -0.6665
  352SOL     OW 1054   0.746   2.711   1.499 -0.2300  0.2512  0.0902
  352SOL    HW1 1055   0.832   2.756   1.470 -0.6256 -0.2752  0.1471
  352SOL    HW2 1056   0.761   2.611   1.511 -1.3613  0.7371  1.6482
  353SOL     OW 1057   0.536   1.288   2.075 -0.3541 -0.5303 -0.9747
  353SOL    HW1 1058   0.541   1.220   2.152  0.0790 -3.6515  0.3376
  353SOL    HW2 1059   0.477   1.366   2.102  0.4567 -0.5958 -0.0405
  354SOL     OW 1060   1.979   1.241   0.800  0.0961  0.0683 -0.0163
  354SOL    HW1 1061   1.892   1.260   0.852 -0.3513  0.4318  0.0428
  354SOL    HW2 1062   1.965   1.278   0.707 -2.1942  0.3841 -0.8021
  355SOL     OW 1063   2.508   0.374   0.611 -0.2416 -0.3518  0.0256
  355SOL    HW1 1064   2.459   0.427   0.542 -2.4732  0.3001 -0.0763
  355SOL    HW2 1065   2.523   0.279   0.575 -2.2344 -3.6944  0.6303
  356SOL     OW 1066   3.092   1.186   2.579 -0.0205 -0.0969 -0.1873
  356SOL    HW1 1067   3.093   1.232   2.491 -3.5213 -0.9037 -1.4545
  356SOL    HW2 1068   0.001   1.086   2.562 -1.4487  1.0775 -2.0261
  357SOL     OW 1069   0.408   2.937   1.617 -0.0932 -0.6554  0.1565
  357SOL    HW1 1070   0.313   2.931   1.647 -0.9134 -1.3643  2.2861
  357SOL    HW2 1071   0.453   3.027   1.635  0.4034 -0.1950 -4.6620
  358SOL     OW 1072   2.893   1.318   2.756  0.0924  0.1377 -0.4786
  358SOL    HW1 1073   2.970   1.285   2.698  0.1919  1.8210 -3.2781
  358SOL    HW2 1074   2.825   1.364   2.694  1.4223 -0.4248 -0.0074
  359SOL     OW 1075   2.599   2.645   0.046  0.7766 -0.4617 -0.0869
  359SOL    HW1 1076   2.675   2.703   0.069 -1.6289 -0.0057 -1.1866
  359SOL    HW2 1077   2.602   2.627   3.053  1.2928 -1.4245 -2.1679
  360SOL     OW 1078   1.512   1.416   1.287  0.4138  0.0553 -0.6063
  360SOL    HW1 1079   1.520   1.357   1.204 -0.1258  2.4762  0.7176
  360SOL    HW2 1080   1.548   1.512   1.270 -0.0165  1.1424 -3.1045
  361SOL     OW 1081   1.998   2.777   1.278  0.7836  0.0081 -0.8869
  361SOL    HW1 1082   2.037   2.843   1.342  2.0741  3.0024 -1.2139
  361SOL    HW2 1083   2.017   2.804   1.181 -0.2528  2.6670  1.9469
  362SOL     OW 1084   1.515   1.683   1.170  0.2369 -0.0627 -0.5622
  362SOL    HW1 1085   1.458   1.767   1.194 -0.4801  0.7513 -1.5682
  362SOL    HW2 1086   1.466   1.645   1.087  0.9198 -1.8705  1.5587
  363SOL     OW 1087   2.742   2.009   3.009 -0.1639 -0.6255  0.1381
  363SOL    HW1 1088   2.664   1.961   2.966 -1.6620 -0.2684 -2.4358
  363SOL    HW2 1089   2.736   2.108   3.000 -0.1404 -0.8749 -0.0475
  364SOL     OW 1090   2.200   0.307   1.578 -0.4129 -0.5203  0.1435
  364SOL    HW1 1091   2.274   0.278   1.512 -2.3143 -1.7614  0.3085
  364SOL    HW2 1092   2.225   0.262   1.671  1.4759 -0.8279  3.8040
  365SOL     OW 1093   2.807   2.511   1.234 -0.1624  0.4336  0.0092
  365SOL    HW1 1094   2.858   2.599   1.238  1.3229  1.5944 -0.5000
  365SOL    HW2 1095   2.836   2.463   1.148 -2.6293  0.9921 -3.2190
  366SOL     OW 1096   2.824   1.316   0.176  0.0189  0.3349 -0.1629
  366SOL    HW1 1097   2.799   1.353   0.081 -1.3916  0.3462 -1.6693
  366SOL    HW2 1098   2.803   1.213   0.184  0.1314 -2.7090  1.0394
  367SOL     OW 1099   2.515   2.396   2.944  0.2862  0.1576  0.3198
  367SOL    HW1 1100   2.545   2.458   2.870 -0.7811 -0.8272  0.2734
  367SOL    HW2 1101   2.427   2.425   2.987  0.7995  0.1139  1.0967
  368SOL     OW 1102   2.598   1.830   1.372 -0.1818 -0.4381 -0.1167
  368SOL    HW1 1103   2.554   1.882   1.446 -3.5288 -1.7425 -1.6541
  368SOL    HW2 1104   2.542   1.834   1.287  0.3550  2.4007  2.2722
  369SOL     OW 1105   0.611   0.343   0.660 -0.1178 -0.3005 -0.2302
  369SOL    HW1 1106   0.543   0.351   0.734  0.6537 -3.4442 -0.7140
  369SOL    HW2 1107   0.617   0.426   0.602 -0.1970  0.8826 -0.1198
  370SOL     OW 1108   0.909   0.687   1.188 -0.2214 -0.1224  0.2488
  370SOL    HW1 1109   0.880   0.783   1.198 -0.7808  2.0693 -1.5655
  370SOL    HW2 1110   0.844   0.633   1.128  3.5650 -0.6039  0.9082
  371SOL     OW 1111   2.443   1.782   0.228 -0.2604  0.4546 -0.1897
  371SOL    HW1 1112   2.532   1.792   0.276 -2.1058  1.6495 -0.3127
  371SOL    HW2 1113   2.420   1.865   0.172  1.1092  0.7697  0.2928
  372SOL     OW 1114   0.260   1.020   2.600 -0.0184  0.2472 -0.4452
  372SOL    HW1 1115   0.297   0.957   2.674  2.5025 -4.4825  2.0740
  372SOL    HW2 1116   0.320   1.100   2.587  1.0937  0.7751 -0.0212
  373SOL     OW 1117   2.896   0.924   0.398 -0.4272  0.2586  0.3378
  373SOL    HW1 1118   2.945   0.992   0.455 -1.1910  1.7168 -2.2973
  373SOL    HW2 1119   2.945   0.839   0.367  3.7966  0.2244 -1.6971
  374SOL     OW 1120   0.734   2.309   0.024 -0.0959  0.3443  0.3072
  374SOL    HW1 1121   0.806   2.334   0.092  1.4303  0.4858 -1.7369
  374SOL    HW2 1122   0.705   2.389   3.076  1.4531 -0.5325 -0.0770
  375SOL     OW 1123   1.127   0.641   3.086 -0.0397 -0.2608 -0.5602
  375SOL    HW1 1124   1.103   0.715   3.023  1.0786 -2.4200  1.1461
  375SOL    HW2 1125   1.041   0.595   0.003  1.0378  0.6105  0.8291
  376SOL     OW 1126   0.079   2.758   1.835 -0.1428 -0.1169  0.0573
  376SOL    HW1 1127   3.096   2.786   1.870  0.8231 -1.4024 -2.4691
  376SOL    HW2 1128   0.096   2.793   1.742 -0.1690 -1.8945  1.7958
  377SOL     OW 1129   0.138   1.923   2.356 -0.1412  0.3260 -0.2246
  377SOL    HW1 1130   0.044   1.928   2.409 -3.2535 -0.8198  3.4443
  377SOL    HW2 1131   0.121   1.881   2.263  2.0683  1.0557 -1.5536
  378SOL     OW 1132   1.667   0.949   0.458  0.0950 -0.0758  0.2521
  378SOL    HW1 1133   1.570   0.966   0.466  1.6710  0.1644 -0.3563
  378SOL    HW2 1134   1.710   0.920   0.546 -1.4719  1.5938 -1.0388
  379SOL     OW 1135   1.312   1.405   0.146 -0.2350  0.5798 -0.6831
  379SOL    HW1 1136   1.222   1.363   0.168 -1.5165 -3.0214  1.5783
  379SOL    HW2 1137   1.303   1.481   0.076 -2.1741  1.1097 -2.7955
  380SOL     OW 1138   2.370   2.414   2.064 -0.1468  0.1276  0.4531
  380SOL    HW1 1139   2.455   2.378   2.013 -1.1355 -1.6566 -1.9722
  380SOL    HW2 1140   2.292   2.350   2.052  1.5457 -0.3963  0.4163
  381SOL     OW 1141   0.041   0.961   2.195 -0.2169  0.0424 -0.3863
  381SOL    HW1 1142   0.010   1.030   2.130 -1.7844 -0.9549 -0.7751
  381SOL    HW2 1143   0.105   0.897   2.143  1.0747 -1.2975 -1.3229
  382SOL     OW 1144   2.736   2.393   0.171  0.3554 -0.3771  0.2125
  382SOL    HW1 1145   2.660   2.454   0.145 -2.0807  2.2551 -1.3793
  382SOL    HW2 1146   2.709   2.332   0.245  1.3886  1.8362  0.4411
  383SOL     OW 1147   1.741   1.081   2.074 -0.2184  0.4412  0.9247
  383SOL    HW1 1148   1.740   0.998   2.131  0.9708  1.1180  0.5174
  383SOL    HW2 1149   1.724   1.056   1.976 -0.2473 -4.1821 -1.5875
  384SOL     OW 1150   0.632   2.141   2.402  0.1545 -0.3683  0.8726
  384SOL    HW1 1151   0.695   2.099   2.336  0.6211 -1.3182 -1.8808
  384SOL    HW2 1152   0.541   2.113   2.376  0.0392  1.3618 -0.4919
  385SOL     OW 1153   2.629   2.165   0.585  0.3558  0.1628 -0.3716
  385SOL    HW1 1154   2.626   2.060   0.570  0.9665 -6.0310 -1.1926
  385SOL    HW2 1155   2.553   2.189   0.652 -0.5330 -0.0639  0.0774
  386SOL     OW 1156   1.570   0.759   3.046 -0.3483  0.5587  0.1120
  386SOL    HW1 1157   1.658   0.759   3.086 -1.9534  1.0079 -0.2739
  386SOL    HW2 1158   1.505   0.715   3.108  1.8862 -0.5527 -2.8085
  387SOL     OW 1159   0.401   0.627   1.533  0.7888  0.3581  0.6662
  387SOL    HW1 1160   0.373   0.620   1.435  1.3790  0.6886  2.0407
  387SOL    HW2 1161   0.334   0.584   1.590 -0.6234 -0.4456 -1.1668
  388SOL     OW 1162   2.939   0.806   1.418 -0.3864  0.1918 -0.6363
  388SOL    HW1 1163   2.992   0.739   1.477  1.7346 -1.2306  0.3510
  388SOL    HW2 1164   2.907   0.884   1.476 -0.6270 -3.2442 -0.9517
  389SOL     OW 1165   1.804   1.280   2.532 -0.2673  0.1822 -0.6511
  389SOL    HW1 1166   1.790   1.181   2.518  2.4813 -1.3043  0.1581
  389SOL    HW2 1167   1.721   1.340   2.510  2.1599  2.1320  0.5305
  390SOL     OW 1168   1.789   2.187   0.386 -0.1136 -0.3652  0.4575
  390SOL    HW1 1169   1.815   2.249   0.312  1.0259 -0.4286  0.9847
  390SOL    HW2 1170   1.836   2.094   0.387 -0.0021 -0.3567 -0.1112
  391SOL     OW 1171   1.106   2.667   1.067  0.3942 -0.1418 -0.1766
  391SOL    HW1 1172   1.009   2.676   1.052  0.7516  1.0845 -2.3422
  391SOL    HW2 1173   1.128   2.583   1.119 -0.9016 -0.1707 -0.0519
  392SOL     OW 1174   2.703   2.629   1.503  0.1952  0.2467 -0.0260
  392SOL    HW1 1175   2.721   2.550   1.436 -1.8709 -1.2688 -0.6746
  392SOL    HW2 1176   2.611   2.663   1.499  1.1647 -1.1949  2.3620
  393SOL     OW 1177   1.876   2.492   2.545  0.6220  0.3229  0.7273
  393SOL    HW1 1178   1.919   2.483   2.630 -1.4343  1.3329 -0.4817
  393SOL    HW2 1179   1.931   2.555   2.487  1.3280  1.5602 -0.8754
  394SOL     OW 1180   0.624   2.739   2.674 -0.0054 -0.2923 -0.2408
  394SOL    HW1 1181   0.556   2.739   2.598  0.1198  2.9676  1.8394
  394SOL    HW2 1182   0.689   2.818   2.661  0.5473  4.3838  0.2708
  395SOL     OW 1183   0.587   1.021   1.361  0.2099  0.2182 -0.3166
  395SOL    HW1 1184   0.571   0.975   1.448 -0.8805  0.1925  0.3690
  395SOL    HW2 1185   0.541   1.113   1.368 -0.9301  0.6963 -0.9902
  396SOL     OW 1186   2.067   1.309   2.404 -0.0175 -0.3338  0.2915
  396SOL    HW1 1187   2.044   1.290   2.307  0.2137 -0.2120  1.6424
  396SOL    HW2 1188   1.985   1.288   2.461 -2.7106  0.1085 -1.5679
  397SOL     OW 1189   2.733   0.263   2.734 -0.0259 -0.3555 -0.0060
  397SOL    HW1 1190   2.761   0.318   2.814  0.2724  0.3641  1.5534
  397SOL    HW2 1191   2.813   0.255   2.671 -1.9456  0.6013  0.6509
  398SOL     OW 1192   1.727   0.326   0.848  0.3316 -0.8314  0.1797
  398SOL    HW1 1193   1.768   0.245   0.802 -1.0109  0.0369  1.8982
  398SOL    HW2 1194   1.701   0.400   0.785 -0.2480  0.4521 -1.3865
  399SOL     OW 1195   2.496   2.720   1.767 -0.0142  0.8347  0.4086
  399SOL    HW1 1196   2.440   2.754   1.688  0.7711  0.2665 -1.6293
  399SOL    HW2 1197   2.436   2.719   1.847 -0.0052 -0.3467 -0.6025
  400SOL     OW 1198   3.017   2.263   1.925  0.1054 -1.0364 -0.1476
  400SOL    HW1 1199   2.923   2.219   1.912  0.4768 -4.5276  2.3767
  400SOL    HW2 1200   3.085   2.243   1.855 -1.3388  1.7368  1.5241
  401SOL     OW 1201   0.607   0.283   0.291  0.5377 -0.0143  0.1278
  401SOL    HW1 1202   0.564   0.197   0.322  0.8212  2.7165 -0.2185
  401SOL    HW2 1203   0.568   0.363   0.341 -1.4158  2.7961 -0.5344
  402SOL     OW 1204   0.540   2.683   1.689  0.0784 -0.0684 -0.2396
  402SOL    HW1 1205   0.609   2.695   1.618 -1.2179 -2.6839  3.6502
  402SOL    HW2 1206   0.499   2.778   1.710 -0.8964  2.3926 -0.1229
  403SOL     OW 1207   0.236   1.136   1.970 -0.1086 -0.5962  0.3184
  403SOL    HW1 1208   0.276   1.077   1.903 -1.9497  1.9668  0.8881
  403SOL    HW2 1209   0.293   1.146   2.054  1.9804  1.3985  0.9583
  404SOL     OW 1210   2.720   2.434   2.152  0.5297 -0.3322 -0.1919
  404SOL    HW1 1211   2.813   2.471   2.139  1.3137  0.2673 -1.2067
  404SOL    HW2 1212   2.714   2.333   2.147 -3.9393 -2.1630  0.7874
  405SOL     OW 1213   2.536   0.267   2.505  0.7390  0.0750  0.5450
  405SOL    HW1 1214   2.448   0.232   2.548  0.5906  0.3674  2.2366
  405SOL    HW2 1215   2.601   0.282   2.580 -0.2287  1.1089 -2.2548
  406SOL     OW 1216   1.611   2.635   0.567  0.2162  0.1185  0.0075
  406SOL    HW1 1217   1.524   2.678   0.534 -1.6957  0.7559 -2.9380
  406SOL    HW2 1218   1.590   2.547   0.607  0.2402  1.6533 -0.6336
  407SOL     OW 1219   1.951   1.626   0.351 -0.1434 -0.5698  0.9587
  407SOL    HW1 1220   1.957   1.616   0.452 -2.7205 -3.9319  1.4280
  407SOL    HW2 1221   1.851   1.625   0.331 -1.0637 -0.8812 -1.6507
  408SOL     OW 1222   0.232   0.812   2.082  1.0434  0.0649  0.4291
  408SOL    HW1 1223   0.265   0.725   2.118 -0.2886  0.4884 -4.1934
  408SOL    HW2 1224   0.308   0.878   2.064 -1.6723  0.9695 -0.5439
  409SOL     OW 1225   2.810   1.386   3.014  0.1632 -0.0067 -0.2627
  409SOL    HW1 1226   2.776   1.481   2.995 -0.3072  0.4325 -0.6299
  409SOL    HW2 1227   2.831   1.345   2.923 -2.1788  3.2694  1.3434
  410SOL     OW 1228   2.514   1.265   1.205  0.0009  0.1864 -0.3834
  410SOL    HW1 1229   2.447   1.341   1.197  0.9194  0.2925  0.4780
  410SOL    HW2 1230   2.598   1.296   1.255 -1.6795 -0.5953 -1.4345
  411SOL     OW 1231   3.001   0.665   0.338  0.6183 -0.1120  0.1995
  411SOL    HW1 1232   3.044   0.651   0.244  3.2879 -1.2998  1.6855
  411SOL    HW2 1233   2.912   0.615   0.348 -2.9546  0.4598  0.1881
  412SOL     OW 1234   1.798   0.285   0.127 -0.0719  0.0981 -0.0901
  412SOL    HW1 1235   1.696   0.291   0.156 -3.1958  1.4430  0.8031
  412SOL    HW2 1236   1.853   0.320   0.204  0.1542 -1.0190  0.8507
  413SOL     OW 1237   1.205   0.314   1.829 -0.0397  0.2858 -0.1100
  413SOL    HW1 1238   1.244   0.285   1.922 -1.6665 -0.1344  1.9493
  413SOL    HW2 1239   1.276   0.353   1.767  1.8311  0.0316 -0.7757
  414SOL     OW 1240   0.415   1.151   0.136  0.2075  0.0606  0.2300
  414SOL    HW1 1241   0.461   1.059   0.123  0.5602  4.3121  1.6144
  414SOL    HW2 1242   0.365   1.189   0.056  0.7964  0.0595 -0.2272
  415SOL     OW 1243   0.056   1.426   0.505 -0.4699  0.5270 -0.2322
  415SOL    HW1 1244   0.060   1.529   0.512 -0.8498  2.5920 -1.0388
  415SOL    HW2 1245   0.019   1.390   0.412 -0.9642 -1.8154 -2.5984
  416SOL     OW 1246   2.157   1.197   0.202 -0.0785  0.4355  0.1974
  416SOL    HW1 1247   2.145   1.113   0.145  0.4111  0.9805  0.0560
  416SOL    HW2 1248   2.229   1.177   0.270  0.3984  0.9954 -2.5119
  417SOL     OW 1249   2.804   2.921   0.083  0.1111  0.2638 -0.1810
  417SOL    HW1 1250   2.852   2.829   0.080 -2.8465 -0.6896  2.0428
  417SOL    HW2 1251   2.720   2.919   0.145 -0.9867 -0.3193  1.8965
  418SOL     OW 1252   2.743   0.706   0.172 -0.4514 -0.3109 -0.0018
  418SOL    HW1 1253   2.643   0.717   0.154  2.1315  2.4573 -0.9622
  418SOL    HW2 1254   2.751   0.672   0.268  1.7726 -0.8229  0.5132
  419SOL     OW 1255   1.002   0.393   0.487  0.6973 -0.2930  0.0618
  419SOL    HW1 1256   0.912   0.347   0.492 -1.3958  0.9855 -0.8818
  419SOL    HW2 1257   1.043   0.382   0.394 -0.4831  1.7262  0.5750
  420SOL     OW 1258   0.639   1.047   0.670 -0.1911 -0.2844 -0.6070
  420SOL    HW1 1259   0.566   0.975   0.671  1.7626  0.6675 -0.3267
  420SOL    HW2 1260   0.688   1.049   0.751 -0.7393  0.5347  0.3163
  421SOL     OW 1261   0.423   1.872   0.528  0.6131 -0.0336  0.5911
  421SOL    HW1 1262   0.527   1.858   0.526  1.3872 -0.4070 -1.2908
  421SOL    HW2 1263   0.385   1.835   0.440  0.1760 -0.3435  1.7555
  422SOL     OW 1264   2.910   0.322   1.339  0.4436 -0.3963  0.0662
  422SOL    HW1 1265   2.835   0.382   1.303 -0.7626 -0.9814  2.2200
  422SOL    HW2 1266   2.947   0.351   1.431  0.9554  1.0387  4.7220
  423SOL     OW 1267   1.969   1.908   0.652  0.0710  0.0919 -0.3072
  423SOL    HW1 1268   2.013   2.001   0.666  2.7877  1.9790 -0.9022
  423SOL    HW2 1269   1.910   1.905   0.568  0.9761 -1.3082 -2.5688
  424SOL     OW 1270   1.670   1.756   2.869 -0.0162 -0.0650 -0.0170
  424SOL    HW1 1271   1.652   1.765   2.969  2.8855  0.8171 -0.5530
  424SOL    HW2 1272   1.768   1.735   2.848 -0.6151 -1.5400 -0.7585
  425SOL     OW 1273   0.408   2.760   2.086  0.7394  0.1039  0.0730
  425SOL    HW1 1274   0.335   2.775   2.156 -2.2137  1.6259  0.3378
  425SOL    HW2 1275   0.446   2.850   2.052 -1.6437  2.4632  0.5541
  426SOL     OW 1276   2.379   2.949   3.054 -0.5956  0.0531 -0.5028
  426SOL    HW1 1277   2.471   2.909   3.029  2.5299 -1.6595 -0.4366
  426SOL    HW2 1278   2.303   2.910   3.006 -0.8009  3.7954  3.9032
  427SOL     OW 1279   0.367   1.509   2.099 -0.7414 -0.1440  0.4487
  427SOL    HW1 1280   0.371   1.609   2.078  0.1537 -0.6848  1.8417
  427SOL    HW2 1281   0.291   1.491   2.165  1.2736  0.6008 -0.9453
  428SOL     OW 1282   2.090   1.561   2.490  0.4663 -0.3916  0.1127
  428SOL    HW1 1283   2.016   1.605   2.442  2.7855  0.5938 -2.4811
  428SOL    HW2 1284   2.085   1.464   2.460 -0.7247 -0.9909  1.3884
  429SOL     OW 1285   2.532   0.122   0.536 -0.4348 -0.4231 -0.2541
  429SOL    HW1 1286   2.605   0.092   0.474 -1.2617  1.5002 -1.8790
  429SOL    HW2 1287   2.466   0.049   0.561  2.2331 -2.1892  1.9972
  430SOL     OW 1288   1.762   2.013   2.274 -0.2422 -1.0875  0.2362
  430SOL    HW1 1289   1.833   1.969   2.216  1.7314 -1.9181  0.7784
  430SOL    HW2 1290   1.695   1.946   2.311 -1.2441 -0.5116  2.2280
  431SOL     OW 1291   2.771   1.611   1.741  0.2962  0.1659 -0.0647
  431SOL    HW1 1292   2.804   1.643   1.647  1.4157 -0.8832 -0.2956
  431SOL    HW2 1293   2.727   1.519   1.747 -0.8197 -1.3814  0.1751
  432SOL     OW 1294   0.979   2.405   1.933 -0.2790  0.3152  0.1568
  432SOL    HW1 1295   1.066   2.353   1.944 -0.1242 -1.1616  1.6440
  432SOL    HW2 1296   0.899   2.344   1.954 -0.7618  1.2828  1.1533
  433SOL     OW 1297   1.037   0.095   0.560 -0.4438 -0.3011  0.3785
  433SOL    HW1 1298   1.122   0.149   0.571 -1.3224  0.5118 -0.5382
  433SOL    HW2 1299   0.955   0.152   0.540 -0.2636  0.7958  0.1541
  434SOL     OW 1300   0.238   2.341   2.033 -0.0119 -0.1864 -0.0008
  434SOL    HW1 1301   0.262   2.425   1.981 -1.0372  0.9703 -2.7089
  434SOL    HW2 1302   0.270   2.253   1.993 -0.9511 -1.6687 -1.8646
  435SOL     OW 1303   0.666   1.282   0.548 -0.6975  0.8779 -0.3480
  435SOL    HW1 1304   0.655   1.187   0.585  1.5339 -0.3198  0.1066
  435SOL    HW2 1305   0.643   1.285   0.444 -0.7066 -0.1336 -1.5391
  436SOL     OW 1306   0.258   1.532   1.755  0.0245 -0.2042 -0.4204
  436SOL    HW1 1307   0.332   1.575   1.810 -0.6500  0.7458  1.2734
  436SOL    HW2 1308   0.210   1.452   1.797 -0.9291 -3.0896 -0.4035
  437SOL     OW 1309   1.173   0.622   0.477  0.1597 -0.1283 -0.2648
  437SOL    HW1 1310   1.098   0.561   0.512 -0.4118 -1.6692  0.6796
  437SOL    HW2 1311   1.142   0.687   0.407  1.2262  0.3186  1.6003
  438SOL     OW 1312   0.984   1.954   1.197  0.4544 -0.3632  0.1974
  438SOL    HW1 1313   0.904   1.962   1.137 -0.0554 -0.1598  1.2475
  438SOL    HW2 1314   1.043   1.884   1.150  0.4759 -1.5231 -1.0344
  439SOL     OW 1315   1.419   2.003   2.477 -0.3214 -0.5010  0.0302
  439SOL    HW1 1316   1.332   1.957   2.507 -0.5344  1.6869 -0.1113
  439SOL    HW2 1317   1.494   1.936   2.471 -1.8741  0.3808 -1.5557
  440SOL     OW 1318   1.416   0.236   1.488  0.4294 -0.3835  0.3538
  440SOL    HW1 1319   1.476   0.222   1.564 -2.6335 -0.0070 -3.2509
  440SOL    HW2 1320   1.453   0.284   1.406  0.6108 -0.5742 -0.3195
  441SOL     OW 1321   0.569   3.089   1.209  0.4314  1.3185  0.0568
  441SOL    HW1 1322   0.513   0.038   1.146  0.6846  0.1884  1.4755
  441SOL    HW2 1323   0.508   3.024   1.266 -1.6867  0.7334  1.3885
  442SOL     OW 1324   2.233   2.072   0.873  0.3831 -0.2864  0.2020
  442SOL    HW1 1325   2.215   2.096   0.969  3.5008 -1.5637  0.2120
  442SOL    HW2 1326   2.152   2.096   0.817  0.1064 -0.5251 -0.9668
  443SOL     OW 1327   2.798   0.417   2.285  0.0962  0.3907  0.2908
  443SOL    HW1 1328   2.709   0.377   2.253  1.9876 -1.9157 -1.0963
  443SOL    HW2 1329   2.865   0.342   2.311  2.5460 -0.5229 -0.4297
  444SOL     OW 1330   1.990   1.199   2.150  0.1607 -0.6269 -0.2208
  444SOL    HW1 1331   1.898   1.182   2.116  0.0209 -0.7672 -0.3162
  444SOL    HW2 1332   2.037   1.108   2.140 -1.7977  0.0779  2.8578
  445SOL     OW 1333   2.428   2.004   1.514  0.0847 -0.5990 -0.2980
  445SOL    HW1 1334   2.377   2.062   1.445  0.5243 -0.2692 -0.1444
  445SOL    HW2 1335   2.435   2.062   1.597 -1.0436  1.7297 -0.1786
  446SOL     OW 1336   0.422   0.863   0.721  0.6579 -0.1718 -0.4205
  446SOL    HW1 1337   0.382   0.775   0.683 -2.9051  0.9991 -0.7356
  446SOL    HW2 1338   0.346   0.912   0.770  0.1598  0.9109  0.5142
  447SOL     OW 1339   0.784   1.926   1.026 -0.0736 -0.1021  0.2850
  447SOL    HW1 1340   0.716   1.996   0.991 -1.1515  0.8632 -1.5533
  447SOL    HW2 1341   0.751   1.831   1.010  0.3181  1.0360  4.6830
  448SOL     OW 1342   1.007   1.082   1.738  0.2686  0.2614  0.2173
  448SOL    HW1 1343   0.938   1.139   1.696 -2.5084  1.6618  0.1194
  448SOL    HW2 1344   1.020   0.994   1.693  1.3014 -1.9388  3.3926
  449SOL     OW 1345   0.243   1.760   3.104  0.2369  0.2006  0.1314
  449SOL    HW1 1346   0.184   1.676   0.001  0.8598  0.3038 -0.9824
  449SOL    HW2 1347   0.199   1.845   0.033  0.8562  3.0705 -2.9679
  450SOL     OW 1348   2.500   2.464   2.326 -0.4407 -0.0303  0.4633
  450SOL    HW1 1349   2.442   2.427   2.255 -0.6731 -1.0443  1.3087
  450SOL    HW2 1350   2.588   2.465   2.277  0.2747 -0.6833  0.9320
  451SOL     OW 1351   2.202   0.419   2.003  0.0269  0.1860  0.0195
  451SOL    HW1 1352   2.117   0.365   2.020  2.2236  1.8128  0.0863
  451SOL    HW2 1353   2.188   0.515   1.971  3.5877  2.4948 -2.4511
  452SOL     OW 1354   0.827   2.766   1.165 -0.0275 -0.2231 -0.5083
  452SOL    HW1 1355   0.821   2.850   1.105 -2.6339  3.7492 -1.5942
  452SOL    HW2 1356   0.889   2.779   1.247  1.5324  2.4759  0.1868
  453SOL     OW 1357   1.093   1.290   0.991  0.1512 -0.3052  0.1452
  453SOL    HW1 1358   1.088   1.380   1.038  1.0200  1.0338 -0.8480
  453SOL    HW2 1359   1.020   1.222   1.024 -0.7625 -2.2804 -0.9488
  454SOL     OW 1360   0.222   1.034   0.762  0.1654 -0.5271 -0.5669
  454SOL    HW1 1361   0.153   1.001   0.825  0.8357  0.0010 -2.2997
  454SOL    HW2 1362   0.183   1.123   0.722 -1.2173 -0.0280  1.6791
  455SOL     OW 1363   0.209   0.012   0.278 -0.4621  0.4630 -0.4034
  455SOL    HW1 1364   0.161   0.008   0.190 -0.8279  2.4752 -3.2726
  455SOL    HW2 1365   0.201   0.100   0.315  1.8370 -1.7739 -0.3973
  456SOL     OW 1366   2.669   2.409   0.832  0.0985 -0.1418 -0.8966
  456SOL    HW1 1367   2.593   2.345   0.830  1.2996  1.2820 -1.0827
  456SOL    HW2 1368   2.638   2.501   0.797  0.1415  0.7542  2.9466
  457SOL     OW 1369   1.159   3.042   2.763 -0.3570 -0.1794 -0.1988
  457SOL    HW1 1370   1.234   2.978   2.773  0.0574  2.2225  1.1299
  457SOL    HW2 1371   1.200   0.019   2.725  3.2588 -0.4133 -0.5343
  458SOL     OW 1372   2.908   2.618   0.355 -0.3915 -0.1226  0.0398
  458SOL    HW1 1373   2.812   2.590   0.385  1.6740 -0.1994  0.8795
  458SOL    HW2 1374   2.927   2.630   0.256 -3.1601  1.7959  2.6567
  459SOL     OW 1375   2.533   0.336   2.247  0.1677  0.3239 -0.7371
  459SOL    HW1 1376   2.524   0.307   2.343  2.5242  3.9318 -1.3625
  459SOL    HW2 1377   2.503   0.262   2.185  2.3136  0.7715  0.5407
  460SOL     OW 1378   3.097   0.664   0.067  0.4623  0.0369 -0.4036
  460SOL    HW1 1379   0.030   0.758   0.077  1.2518  1.2417 -0.3777
  460SOL    HW2 1380   3.044   0.660   3.084  2.1691  0.0176  0.3218
  461SOL     OW 1381   0.513   1.848   1.166 -0.4808 -0.0969  0.0597
  461SOL    HW1 1382   0.544   1.771   1.112  1.7573  1.9274  2.5721
  461SOL    HW2 1383   0.581   1.920   1.187 -0.2255 -1.5009  1.4642
  462SOL     OW 1384   2.932   2.752   1.281  0.4182  0.3977  0.4428
  462SOL    HW1 1385   2.993   2.829   1.250 -1.3558  0.2084 -1.2853
  462SOL    HW2 1386   2.913   2.756   1.382 -2.9947  1.6808  0.9865
  463SOL     OW 1387   2.522   1.115   3.046  0.0552 -0.3227 -0.2166
  463SOL    HW1 1388   2.426   1.090   3.015 -0.7158 -1.5610 -3.1099
  463SOL    HW2 1389   2.586   1.111   2.966  1.2043  0.0443  0.0013
  464SOL     OW 1390   0.490   2.422   1.142 -0.2657 -0.0343 -0.2854
  464SOL    HW1 1391   0.563   2.360   1.175  2.1680  0.8307 -0.2653
  464SOL    HW2 1392   0.502   2.519   1.174  1.5564 -0.5233  1.3931
  465SOL     OW 1393   0.692   0.598   1.051 -0.0640  0.0704 -0.0598
  465SOL    HW1 1394   0.622   0.525   1.053  0.5184  1.4378  2.4210
  465SOL    HW2 1395   0.691   0.656   0.967  0.4216  1.0287 -0.6518
  466SOL     OW 1396   1.233   2.976   2.160 -0.2422 -0.4595  0.0208
  466SOL    HW1 1397   1.242   2.900   2.091 -2.2091  1.7645 -0.2622
  466SOL    HW2 1398   1.134   2.999   2.175 -1.6309  1.4415 -0.5966
  467SOL     OW 1399   0.797   0.338   1.923  0.0540  0.2879  0.3254
  467SOL    HW1 1400   0.727   0.339   1.855  0.3426 -1.0016  1.3537
  467SOL    HW2 1401   0.755   0.339   2.013  2.6834 -0.4293 -2.3169
  468SOL     OW 1402   0.265   1.170   2.268  0.2351  0.5483 -0.4287
  468SOL    HW1 1403   0.188   1.104   2.271 -0.5484  0.9957  0.2568
  468SOL    HW2 1404   0.237   1.269   2.272 -1.7799  0.4469 -1.0713
  469SOL     OW 1405   0.463   1.699   0.788 -0.0391  0.3706 -0.0410
  469SOL    HW1 1406   0.430   1.757   0.711  2.0808 -0.5771  0.3172
  469SOL    HW2 1407   0.454   1.597   0.761  3.3451 -2.0425  0.2170
  470SOL     OW 1408   2.451   1.888   2.236  0.0113  1.1678  0.2382
  470SOL    HW1 1409   2.461   1.788   2.231 -0.4567  2.4827  2.2116
  470SOL    HW2 1410   2.535   1.937   2.218 -1.5085  0.5952 -0.1198
  471SOL     OW 1411   1.222   0.412   2.668  0.1946  0.1153 -0.0037
  471SOL    HW1 1412   1.242   0.320   2.691  0.6496 -0.3331 -1.0026
  471SOL    HW2 1413   1.305   0.469   2.666 -0.6714 -0.4703 -1.1887
  472SOL     OW 1414   0.351   2.482   1.572  0.0255 -0.2634  0.4583
  472SOL    HW1 1415   0.404   2.395   1.570 -1.2706 -0.5553 -0.3436
  472SOL    HW2 1416   0.393   2.546   1.632 -1.3210  0.0348 -0.9530
  473SOL     OW 1417   0.472   0.126   2.396  0.8047 -0.4976  0.1707
  473SOL    HW1 1418   0.464   0.208   2.455  0.3264 -0.0366 -0.6996
  473SOL    HW2 1419   0.557   0.074   2.419  4.1622 -3.3482 -1.8000
  474SOL     OW 1420   1.764   0.148   1.315 -0.3562 -0.1094 -0.2707
  474SOL    HW1 1421   1.774   0.250   1.295  1.3984  4.1085 -1.3501
  474SOL    HW2 1422   1.733   0.097   1.234 -2.2739  0.4750  0.2657
  475SOL     OW 1423   1.935   0.622   1.118  0.2861  0.0990 -0.0581
  475SOL    HW1 1424   2.005   0.613   1.049 -1.0723  2.2666 -0.0162
  475SOL    HW2 1425   1.921   0.724   1.145  1.6997  3.0840  4.0716
  476SOL     OW 1426   0.715   1.049   0.938  0.5589  0.2627  0.4097
  476SOL    HW1 1427   0.637   1.058   1.005  2.4198 -0.9128 -2.7064
  476SOL    HW2 1428   0.801   1.084   0.978 -2.1224 -1.1516 -0.0706
  477SOL     OW 1429   1.363   2.393   0.721  0.4504 -0.9009  0.3037
  477SOL    HW1 1430   1.347   2.306   0.765  2.7516 -0.5248 -0.2313
  477SOL    HW2 1431   1.272   2.429   0.691 -1.0262 -0.0863  0.2961
  478SOL     OW 1432   0.065   2.604   2.235  0.6875  0.1480  0.2872
  478SOL    HW1 1433   0.134   2.554   2.295  2.7641 -1.4527  0.2600
  478SOL    HW2 1434   0.042   2.547   2.157 -1.0876 -2.5822  0.7099
  479SOL     OW 1435   2.560   0.196   1.204 -0.0764 -0.3635  0.1534
  479SOL    HW1 1436   2.620   0.273   1.236 -0.4831 -0.7130  2.0242
  479SOL    HW2 1437   2.513   0.222   1.119  0.3886 -2.4211 -1.4030
  480SOL     OW 1438   0.460   2.697   0.483 -0.1813 -0.3301  0.0411
  480SOL    HW1 1439   0.506   2.622   0.428  0.8872 -4.5927  0.6717
  480SOL    HW2 1440   0.401   2.760   0.425 -1.5222 -0.4061 -0.6870
  481SOL     OW 1441   2.111   2.222   1.657  0.4215 -0.1826  0.0439
  481SOL    HW1 1442   2.036   2.215   1.585  3.3147 -0.4592 -1.9485
  481SOL    HW2 1443   2.107   2.147   1.726  1.4510  0.6971  3.1877
  482SOL     OW 1444   1.328   2.844   2.886  0.1348  0.1308  0.2198
  482SOL    HW1 1445   1.343   2.929   2.945  1.2864  2.4074 -0.6870
  482SOL    HW2 1446   1.416   2.802   2.862 -1.2893 -0.6315  0.2999
  483SOL     OW 1447   0.763   2.004   1.779 -0.2200  0.1612  0.2004
  483SOL    HW1 1448   0.820   1.976   1.862 -0.1525  0.9203  2.3507
  483SOL    HW2 1449   0.688   1.939   1.780  5.5571  3.5096 -0.4212
  484SOL     OW 1450   1.000   0.501   1.353 -0.1203  0.0829 -0.1600
  484SOL    HW1 1451   0.966   0.528   1.445  3.6748 -0.6054 -1.7616
  484SOL    HW2 1452   0.976   0.571   1.286  2.3150  1.4474  3.5140
  485SOL     OW 1453   1.881   1.131   2.948 -0.3567 -0.4496  0.2458
  485SOL    HW1 1454   1.822   1.211   2.970 -1.6584  0.5538  1.3254
  485SOL    HW2 1455   1.982   1.155   2.946  1.2692  0.2208 -0.8169
  486SOL     OW 1456   2.307   0.007   1.349  0.4681  0.0389 -0.3448
  486SOL    HW1 1457   2.344   0.097   1.379 -2.4689 -0.9687 -0.6024
  486SOL    HW2 1458   2.386   3.057   1.318 -1.1498  0.2122 -2.5427
  487SOL     OW 1459   0.671   2.213   1.191  0.4911 -0.5098 -0.1418
  487SOL    HW1 1460   0.741   2.291   1.195 -0.4212  1.4384  1.1365
  487SOL    HW2 1461   0.669   2.156   1.279  1.4030  0.8683  0.0877
  488SOL     OW 1462   2.127   2.237   0.114 -0.3953  0.6179  0.0729
  488SOL    HW1 1463   2.118   2.169   0.040 -1.0810 -0.4854  1.0607
  488SOL    HW2 1464   2.203   2.297   0.088  1.0606  1.6798  2.5951
  489SOL     OW 1465   1.823   3.000   0.650  0.7470 -0.2963  0.3762
  489SOL    HW1 1466   1.847   2.953   0.737  2.5374  1.4518 -0.8901
  489SOL    HW2 1467   1.821   2.937   0.571  2.0155  2.8653  1.6562
  490SOL     OW 1468   1.044   2.037   2.859  0.4832  0.3313 -0.0323
  490SOL    HW1 1469   1.007   2.072   2.772 -0.6157  1.1346  0.7239
  490SOL    HW2 1470   1.062   2.116   2.919  1.9842  0.4979  0.0468
  491SOL     OW 1471   0.160   2.025   1.847 -0.1392  0.0752 -0.0645
  491SOL    HW1 1472   0.193   1.944   1.806  0.9050  1.8575  2.8674
  491SOL    HW2 1473   0.224   2.102   1.832  0.8162 -0.5529  1.6684
  492SOL     OW 1474   0.720   1.534   1.809  0.0748 -0.8212 -0.2424
  492SOL    HW1 1475   0.811   1.559   1.775 -3.4663  1.5376  0.3356
  492SOL    HW2 1476   0.689   1.435   1.797 -0.1005 -0.3302 -0.1238
  493SOL     OW 1477   2.527   1.716   0.914 -0.0315  0.1107 -0.1221
  493SOL    HW1 1478   2.458   1.778   0.871  0.7995  1.2782 -1.9139
  493SOL    HW2 1479   2.547   1.632   0.858  0.5337  0.1520  0.3166
  494SOL     OW 1480   2.917   1.591   0.843 -0.1100 -0.2960  0.2006
  494SOL    HW1 1481   2.917   1.536   0.754  0.9404  0.8678 -1.0714
  494SOL    HW2 1482   2.884   1.686   0.809 -1.2522 -1.4831  0.7511
  495SOL     OW 1483   2.351   2.993   0.548  0.1655  0.1508 -0.5510
  495SOL    HW1 1484   2.294   3.048   0.485 -1.5437  0.5418  2.2242
  495SOL    HW2 1485   2.333   2.896   0.550  1.2922  2.9413  0.4094
  496SOL     OW 1486   2.704   0.076   1.702  0.4567  0.1634 -0.4957
  496SOL    HW1 1487   2.712   0.033   1.613  0.2484 -0.2452  2.4718
  496SOL    HW2 1488   2.625   0.143   1.704 -2.1461  1.9115  1.0720
  497SOL     OW 1489   2.480   1.261   2.704  0.1799  0.5245  0.2040
  497SOL    HW1 1490   2.454   1.178   2.650 -0.9695  0.0774  1.2768
  497SOL    HW2 1491   2.546   1.237   2.777  1.3078 -2.1685 -1.5730
  498SOL     OW 1492   2.829   1.715   1.481 -0.0512  0.0563  0.0075
  498SOL    HW1 1493   2.904   1.775   1.511 -1.5947 -0.2025 -2.3397
  498SOL    HW2 1494   2.754   1.764   1.438  0.4709 -1.2281  1.2328
  499SOL     OW 1495   1.047   2.315   2.374 -0.1434 -0.1777 -0.4173
  499SOL    HW1 1496   1.113   2.373   2.430  1.3091  0.1551  4.6849
  499SOL    HW2 1497   0.980   2.373   2.326  2.7677  0.9280  0.1373
  500SOL     OW 1498   1.429   1.422   0.623  0.1243  1.1620 -0.3067
  500SOL    HW1 1499   1.532   1.429   0.628  0.4887  0.1936  3.4856
  500SOL    HW2 1500   1.396   1.416   0.720  1.1931 -0.8527  1.1823
  501SOL     OW 1501   1.602   0.141   1.684 -0.1970  0.0469 -0.6082
  501SOL    HW1 1502   1.599   0.099   1.774 -1.3702  1.1703  0.1866
  501SOL    HW2 1503   1.627   0.073   1.615 -0.8424 -0.5332  0.4298
  502SOL     OW 1504   2.640   0.616   1.651 -0.0650 -0.5759  0.1133
  502SOL    HW1 1505   2.734   0.638   1.686 -0.3581 -0.1540  0.3267
  502SOL    HW2 1506   2.578   0.607   1.731 -2.9538  0.2929  1.5096
  503SOL     OW 1507   2.481   1.599   2.230 -0.2762  0.1619  0.1160
  503SOL    HW1 1508   2.438   1.599   2.140 -0.3707 -0.3704  1.5158
  503SOL    HW2 1509   2.583   1.612   2.218  3.8805  0.0285  1.4506
  504SOL     OW 1510   1.091   1.488   2.018  0.3187  0.3824  0.8140
  504SOL    HW1 1511   0.996   1.484   2.059 -3.6462  2.4262 -0.4984
  504SOL    HW2 1512   1.123   1.397   1.994 -0.7397 -0.5332  1.0300
  505SOL     OW 1513   0.343   0.090   1.457  0.0072  0.3183  0.3149
  505SOL    HW1 1514   0.383   0.000   1.468  2.9344  0.3203 -1.5020
  505SOL    HW2 1515   0.258   0.094   1.509  2.0015  0.5843 -0.8853
  506SOL     OW 1516   0.132   0.248   3.106 -0.8188 -0.1122 -0.1019
  506SOL    HW1 1517   0.195   0.269   0.078  0.4712  0.6003 -0.1318
  506SOL    HW2 1518   0.179   0.252   3.015  0.3080  1.7296 -1.4709
  507SOL     OW 1519   0.386   2.437   2.999  0.0766 -0.0951  0.0468
  507SOL    HW1 1520   0.284   2.440   3.023 -1.0255  2.4131  0.0176
  507SOL    HW2 1521   0.450   2.514   3.011 -1.5487 -1.2102  1.7266
  508SOL     OW 1522   0.980   0.219   2.119 -0.0979 -0.1612  0.2981
  508SOL    HW1 1523   0.920   0.234   2.039 -0.5718 -0.2792 -0.4426
  508SOL    HW2 1524   0.930   0.251   2.200  0.3009 -0.3180  0.0995
  509SOL     OW 1525   1.371   2.138   1.284  0.0316  0.7668 -0.2294
  509SOL    HW1 1526   1.432   2.184   1.351  0.0375 -4.1906 -0.6140
  509SOL    HW2 1527   1.273   2.137   1.302 -0.6808  1.7115  0.2169
  510SOL     OW 1528   2.879   1.005   1.597 -0.7122  0.0877 -0.5990
  510SOL    HW1 1529   2.798   0.963   1.644  1.6539  0.3574 -2.0676
  510SOL    HW2 1530   2.856   1.068   1.521 -0.5450 -3.5826  3.1095
  511SOL     OW 1531   1.322   1.846   1.258  0.1487 -0.0186  0.1415
  511SOL    HW1 1532   1.350   1.948   1.254  2.1199  1.5472  1.6098
  511SOL    HW2 1533   1.291   1.816   1.351 -2.2649 -3.5595  1.5744
  512SOL     OW 1534   0.278   1.720   0.342 -0.2135  0.3990  0.3765
  512SOL    HW1 1535   0.193   1.701   0.395  3.2817  0.1256  3.3449
  512SOL    HW2 1536   0.256   1.797   0.274 -0.6086  0.6479  0.7048
  513SOL     OW 1537   0.225   1.258   3.029  0.3783 -0.7149 -0.0296
  513SOL    HW1 1538   0.196   1.340   3.079  1.6311  0.2115 -0.8594
  513SOL    HW2 1539   0.137   1.221   2.985  0.8795  1.5847 -0.5380
  514SOL     OW 1540   2.214   2.313   2.410 -0.6381  0.3650  0.5006
  514SOL    HW1 1541   2.130   2.254   2.433  0.7271 -0.9621 -1.0192
  514SOL    HW2 1542   2.289   2.256   2.369  1.0628  1.8408  0.3962
  515SOL     OW 1543   2.622   0.964   0.512  0.6941 -0.1839 -0.1739
  515SOL    HW1 1544   2.539   0.997   0.456 -3.8247  2.2618 -1.4765
  515SOL    HW2 1545   2.706   0.960   0.453  0.0923  0.2925  0.0961
  516SOL     OW 1546   2.421   2.697   0.253  0.4809  0.1495 -0.1971
  516SOL    HW1 1547   2.486   2.665   0.183 -1.6917 -2.5868 -0.2277
  516SOL    HW2 1548   2.404   2.619   0.321  1.2777 -3.1470  1.7895
  517SOL     OW 1549   0.648   1.678   2.941  0.3164 -0.1052  0.7828
  517SOL    HW1 1550   0.719   1.741   2.909  0.2057  0.7261  1.7235
  517SOL    HW2 1551   0.597   1.709   3.024 -0.6846  2.7094  0.4204
  518SOL     OW 1552   3.089   0.232   1.782 -0.2470 -0.6071  0.1127
  518SOL    HW1 1553   3.021   0.177   1.829  1.3309  2.3915  0.8317
  518SOL    HW2 1554   0.021   0.303   1.846  2.5889 -2.0326  0.7888
  519SOL     OW 1555   1.658   1.431   0.138 -0.4069  0.3164 -0.3261
  519SOL    HW1 1556   1.562   1.407   0.157 -2.7690  1.9683 -1.0710
  519SOL    HW2 1557   1.675   1.523   0.169  1.1503 -4.8109  1.9086
  520SOL     OW 1558   2.771   2.711   2.292  0.5024 -0.0631 -0.4032
  520SOL    HW1 1559   2.847   2.760   2.244 -0.5033  1.9783  0.2320
  520SOL    HW2 1560   2.795   2.623   2.344 -0.1209 -0.0757  0.1221
  521SOL     OW 1561   3.031   1.995   2.178 -0.3481  0.3568  0.0929
  521SOL    HW1 1562   3.090   2.077   2.161  0.6933 -0.2677 -0.8124
  521SOL    HW2 1563   3.071   1.916   2.132 -0.0148  5.4257 -2.2260
  522SOL     OW 1564   1.359   2.977   1.780  0.5842  0.4445 -0.0571
  522SOL    HW1 1565   1.330   2.914   1.857 -1.9971 -2.4687 -1.4537
  522SOL    HW2 1566   1.277   2.991   1.722 -0.3984 -2.7938  1.0462
  523SOL     OW 1567   1.925   2.269   1.253 -0.1111  0.4033  0.5697
  523SOL    HW1 1568   1.832   2.224   1.239  1.2831 -0.2811 -1.1978
  523SOL    HW2 1569   2.000   2.221   1.201 -0.8542 -1.4074 -1.9697
  524SOL     OW 1570   1.065   2.371   0.860 -0.0333  0.2731  0.2319
  524SOL    HW1 1571   1.121   2.361   0.947  3.1754  1.2725 -0.3292
  524SOL    HW2 1572   0.984   2.432   0.872 -2.5807 -1.3615  1.1968
  525SOL     OW 1573   2.857   0.620   0.760  0.7658  0.3394 -0.0256
  525SOL    HW1 1574   2.767   0.665   0.736 -0.4431  3.4732  1.2312
  525SOL    HW2 1575   2.932   0.688   0.765 -0.8514  2.6367  0.9093
  526SOL     OW 1576   1.233   0.380   0.270 -0.0657  0.3753 -0.1402
  526SOL    HW1 1577   1.243   0.342   0.365  1.0730  2.2201 -0.3701
  526SOL    HW2 1578   1.146   0.356   0.227 -0.4883 -2.3505 -1.3424
  527SOL     OW 1579   1.840   1.270   1.214  0.2515 -0.1432 -0.6480
  527SOL    HW1 1580   1.828   1.292   1.115  1.0393  1.4833 -0.4152
  527SOL    HW2 1581   1.786   1.186   1.246 -0.9041 -3.4448  3.0974
  528SOL     OW 1582   2.852   2.490   2.431 -0.1830  0.4989 -0.0209
  528SOL    HW1 1583   2.930   2.483   2.501  0.3743 -3.5122 -1.4784
  528SOL    HW2 1584   2.841   2.392   2.398 -2.3541  0.5102  1.5261
  529SOL     OW 1585   0.890   1.153   2.471 -0.3038 -0.3361  0.2821
  529SOL    HW1 1586   0.968   1.091   2.507 -0.8390  0.0289 -0.2465
  529SOL    HW2 1587   0.808   1.091   2.449 -1.8517 -0.7858 -1.6259
  530SOL     OW 1588   1.721   1.023   2.506 -0.2025  0.1214  0.2191
  530SOL    HW1 1589   1.749   0.951   2.447 -3.5909  2.2710  0.1191
  530SOL    HW2 1590   1.730   1.003   2.606  2.1745 -0.0664  0.5000
  531SOL     OW 1591   0.102   0.920   0.108 -0.7151 -0.3277 -0.2571
  531SOL    HW1 1592   0.020   0.947   0.052  1.6524 -1.1536  0.7102
  531SOL    HW2 1593   0.110   0.967   0.197  0.5348 -1.1967 -0.3201
  532SOL     OW 1594   1.767   1.313   0.933  0.2158 -0.0918 -0.1216
  532SOL    HW1 1595   1.683   1.282   0.983 -3.0988 -3.2892 -0.3359
  532SOL    HW2 1596   1.761   1.405   0.899  1.2586 -1.4714  1.1915
  533SOL     OW 1597   0.295   0.587   2.211 -0.2929  0.5600  0.5075
  533SOL    HW1 1598   0.362   0.531   2.269 -0.0288  0.1867  1.4333
  533SOL    HW2 1599   0.214   0.610   2.267 -2.4660  0.5856 -0.0390
  534SOL     OW 1600   0.917   0.211   2.537  0.6719 -0.0810  0.0411
  534SOL    HW1 1601   0.962   0.296   2.569 -0.9495  1.3543  2.0839
  534SOL    HW2 1602   0.877   0.154   2.610 -2.3559 -0.6880  2.7438
  535SOL     OW 1603   0.499   0.404   3.084  0.0106  0.5083  0.0350
  535SOL    HW1 1604   0.476   0.480   0.040  1.9039 -0.2656 -0.5256
  535SOL    HW2 1605   0.541   0.435   2.997  2.1539 -0.1395 -1.5150
  536SOL     OW 1606   0.428   0.922   2.321 -0.5635 -0.1225 -0.1311
  536SOL    HW1 1607   0.352   0.979   2.356 -2.2236 -0.0245 -1.4690
  536SOL    HW2 1608   0.446   0.937   2.220 -0.2517  2.8138 -2.2548
  537SOL     OW 1609   1.458   2.960   1.459 -0.5604 -0.1466  0.3174
  537SOL    HW1 1610   1.395   3.023   1.409  2.9442  0.3315  0.7141
  537SOL    HW2 1611   1.408   2.892   1.518 -1.1014  0.1817  0.4820
  538SOL     OW 1612   0.721   2.058   0.130  0.3619 -0.3875  0.3275
  538SOL    HW1 1613   0.732   2.157   0.101  1.2149  2.9126 -0.0041
  538SOL    HW2 1614   0.623   2.030   0.119 -0.0330  0.0077  1.9435
  539SOL     OW 1615   2.509   1.134   1.783  0.3751  0.0115  0.6043
  539SOL    HW1 1616   2.410   1.126   1.784  1.4276  0.3668 -1.7114
  539SOL    HW2 1617   2.544   1.165   1.877 -0.1906 -0.0431  0.6841
  540SOL     OW 1618   1.943   1.884   1.602  0.3879 -0.1173 -0.2134
  540SOL    HW1 1619   1.867   1.850   1.542 -1.6462 -1.4662  1.5878
  540SOL    HW2 1620   1.908   1.942   1.682 -0.6636  1.0371 -1.4754
  541SOL     OW 1621   0.630   1.771   1.722 -0.1060 -0.7280  0.4166
  541SOL    HW1 1622   0.655   1.697   1.787 -0.8011 -3.9537 -0.8030
  541SOL    HW2 1623   0.652   1.740   1.627 -0.5222  1.9676 -0.2560
  542SOL     OW 1624   1.799   0.853   2.235 -0.0219 -0.7822 -0.4542
  542SOL    HW1 1625   1.728   0.795   2.190 -1.0152 -0.8605  0.4409
  542SOL    HW2 1626   1.853   0.795   2.301  0.5875  0.1660 -1.1675
  543SOL     OW 1627   0.975   0.506   0.752  0.2884  0.2639  0.1294
  543SOL    HW1 1628   0.953   0.605   0.752  0.6942  1.1253  2.6603
  543SOL    HW2 1629   0.959   0.470   0.658 -0.1523 -0.5078 -1.7477
  544SOL     OW 1630   2.145   1.915   2.476  0.0616 -0.2613  0.0154
  544SOL    HW1 1631   2.190   1.926   2.381  0.6244  0.6107 -3.2411
  544SOL    HW2 1632   2.208   1.872   2.541 -0.1711 -0.2425 -0.0764
  545SOL     OW 1633   1.694   1.800   1.512 -0.3567 -0.2470  0.2245
  545SOL    HW1 1634   1.714   1.787   1.412 -0.1769 -2.8673  2.8124
  545SOL    HW2 1635   1.674   1.714   1.560 -3.1228  1.7233 -1.1144
  546SOL     OW 1636   0.242   0.265   2.876  0.1306 -0.8972 -0.2184
  546SOL    HW1 1637   0.250   0.367   2.864 -2.1289  0.0981  3.9853
  546SOL    HW2 1638   0.337   0.227   2.870  0.5399 -2.0394  2.1058
  547SOL     OW 1639   2.172   0.933   0.084  0.4455 -0.0452 -0.0132
  547SOL    HW1 1640   2.077   0.942   0.121  0.3449  1.0135  1.7292
  547SOL    HW2 1641   2.217   0.848   0.117 -0.9002 -0.6795 -0.4009
  548SOL     OW 1642   2.194   1.973   2.203  0.5088  0.0643  0.0111
  548SOL    HW1 1643   2.196   2.073   2.173 -0.6917  3.0142 -1.1882
  548SOL    HW2 1644   2.289   1.937   2.215 -1.5134 -0.5496  1.3008
  549SOL     OW 1645   2.269   0.238   0.689 -0.5682  0.0630  0.0972
  549SOL    HW1 1646   2.293   0.163   0.760  2.5383 -0.9308  0.4633
  549SOL    HW2 1647   2.355   0.233   0.638  0.6553 -1.3442 -2.0681
  550SOL     OW 1648   2.287   1.871   0.519  0.2014 -0.1415  0.3761
  550SOL    HW1 1649   2.238   1.955   0.480 -0.4860 -1.0124  1.7316
  550SOL    HW2 1650   2.294   1.794   0.453 -0.2342  1.6657 -2.2274
  551SOL     OW 1651   1.287   0.225   2.062 -0.4134 -0.4792  0.0550
  551SOL    HW1 1652   1.327   0.314   2.101  2.3548  0.9285  1.9676
  551SOL    HW2 1653   1.221   0.175   2.120 -0.3980 -3.4470  1.0663
  552SOL     OW 1654   3.051   2.196   2.433  0.5956 -0.4708  0.4698
  552SOL    HW1 1655   3.095   2.223   2.346 -1.6552  2.1816  2.8427
  552SOL    HW2 1656   3.056   2.270   2.499 -1.0977 -1.3252 -1.0326
  553SOL     OW 1657   0.702   0.001   0.173 -0.1692 -0.1303 -0.5504
  553SOL    HW1 1658   0.805   0.002   0.167  1.7349 -1.2561 -0.4559
  553SOL    HW2 1659   0.670   0.041   0.258 -0.9233 -1.5569  0.7621
  554SOL     OW 1660   1.867   2.226   1.799  0.0002 -0.9971  0.2518
  554SOL    HW1 1661   1.862   2.247   1.698 -0.0605  1.2419 -3.3709
  554SOL    HW2 1662   1.918   2.300   1.843  2.0512  1.7970 -2.6805
  555SOL     OW 1663   1.232   2.249   1.876 -0.0746  0.5658 -0.2873
  555SOL    HW1 1664   1.215   2.242   1.976 -1.3537 -0.6471 -0.4293
  555SOL    HW2 1665   1.329   2.225   1.858 -0.2782 -1.3224  0.8818
  556SOL     OW 1666   1.565   1.925   0.695  0.8129  0.2398  0.2200
  556SOL    HW1 1667   1.516   2.003   0.648 -0.9622 -1.2819  1.4858
  556SOL    HW2 1668   1.552   1.842   0.633  3.7587  1.9749 -1.5753
  557SOL     OW 1669   1.488   2.351   2.111  0.0305 -0.1918 -0.0395
  557SOL    HW1 1670   1.504   2.284   2.033  0.4112  0.5057 -2.7156
  557SOL    HW2 1671   1.467   2.305   2.200 -0.0118 -2.1448 -0.1473
  558SOL     OW 1672   0.193   0.443   1.634 -1.2269  0.1788  0.2636
  558SOL    HW1 1673   0.170   0.412   1.729 -1.3757  0.4187  1.3895
  558SOL    HW2 1674   0.256   0.376   1.590  3.0979 -2.2427 -0.1830
  559SOL     OW 1675   2.533   2.935   1.290  0.3571 -0.0539  0.1676
  559SOL    HW1 1676   2.555   2.899   1.198  0.7229  0.6029 -0.4700
  559SOL    HW2 1677   2.621   2.969   1.331  0.5236  1.8857  0.9888
  560SOL     OW 1678   0.883   2.357   0.243  0.6997 -0.7999  0.2340
  560SOL    HW1 1679   0.974   2.313   0.230 -2.1495  0.8876  0.1498
  560SOL    HW2 1680   0.850   2.350   0.340  4.1877  0.8768 -2.3629
  561SOL     OW 1681   1.039   0.810   0.277 -0.4743 -0.0208  0.2279
  561SOL    HW1 1682   0.994   0.766   0.199  0.4796  2.6838  1.8645
  561SOL    HW2 1683   0.982   0.885   0.313  3.0461 -0.5566 -0.5436
  562SOL     OW 1684   0.854   0.721   2.535  0.1854  0.2002  0.1819
  562SOL    HW1 1685   0.881   0.666   2.458  1.7292  4.2228  1.3185
  562SOL    HW2 1686   0.817   0.669   2.613 -0.3572  3.7192  1.9504
  563SOL     OW 1687   1.619   2.450   2.510 -0.0675  0.6917  0.6188
  563SOL    HW1 1688   1.597   2.356   2.486 -0.2635  1.2399  1.1163
  563SOL    HW2 1689   1.719   2.466   2.535 -1.5417 -0.2400 -1.8753
  564SOL     OW 1690   0.168   1.117   0.302  0.0084 -0.1585  0.0393
  564SOL    HW1 1691   0.253   1.144   0.250 -0.8597  1.0940 -2.0174
  564SOL    HW2 1692   0.097   1.192   0.288 -1.8150  0.6549  0.6954
  565SOL     OW 1693   1.321   0.163   2.718 -0.1341 -0.0219  0.1370
  565SOL    HW1 1694   1.372   0.185   2.634 -0.8740 -0.3880  0.3223
  565SOL    HW2 1695   1.382   0.150   2.799  1.4499  2.6006  0.5558
  566SOL     OW 1696   1.880   3.073   2.473 -0.4724  0.2607  0.2350
  566SOL    HW1 1697   1.886   2.972   2.493  0.1740 -0.7782 -1.2268
  566SOL    HW2 1698   1.814   3.087   2.397  0.8394  1.8938 -3.1624
  567SOL     OW 1699   2.483   1.234   0.890 -0.1479  0.2756  0.3766
  567SOL    HW1 1700   2.489   1.228   0.995 -0.0554 -1.8659 -2.5664
  567SOL    HW2 1701   2.396   1.205   0.857  3.8579  2.6035 -0.7016
  568SOL     OW 1702   1.913   1.948   0.291 -0.3478 -0.3080  0.3248
  568SOL    HW1 1703   1.900   1.991   0.200  0.4881  1.1949  1.2439
  568SOL    HW2 1704   1.943   1.851   0.288  0.7746 -0.1624  2.2599
  569SOL     OW 1705   2.252   1.682   2.902  0.7752  0.1582  0.3455
  569SOL    HW1 1706   2.301   1.655   2.985  0.8655  0.3875 -0.5880
  569SOL    HW2 1707   2.225   1.602   2.846  1.6690 -0.3826 -0.4960
  570SOL     OW 1708   2.961   2.522   1.668  0.3591  0.2210  0.1058
  570SOL    HW1 1709   3.058   2.500   1.658 -0.1913 -1.6597 -2.4698
  570SOL    HW2 1710   2.897   2.440   1.676 -2.2982 -0.4529  1.2882
  571SOL     OW 1711   0.065   0.329   2.225 -0.2751 -0.4406  0.0874
  571SOL    HW1 1712   0.148   0.270   2.211  0.8955 -2.0609 -0.7145
  571SOL    HW2 1713   0.082   0.427   2.195  0.6257  1.5826 -2.4090
  572SOL     OW 1714   1.044   1.548   1.078  0.4692  0.9135 -0.2744
  572SOL    HW1 1715   1.097   1.624   1.038 -1.2760 -2.5047  1.2714
  572SOL    HW2 1716   1.033   1.570   1.179 -1.0580  2.7146  1.3644
  573SOL     OW 1717   0.931   0.342   2.984  0.0199  0.4641 -0.1913
  573SOL    HW1 1718   1.012   0.284   3.005 -1.4349  2.7186  1.7245
  573SOL    HW2 1719   0.958   0.414   2.914 -0.3521  0.1269  2.0467
  574SOL     OW 1720   0.793   0.212   0.503  0.2675  0.0020 -0.4859
  574SOL    HW1 1721   0.766   0.228   0.405  2.2053 -0.8263  0.7075
  574SOL    HW2 1722   0.727   0.267   0.560 -2.2324  1.3305  1.5689
  575SOL     OW 1723   0.071   1.235   1.420  0.3826 -0.5012 -0.6009
  575SOL    HW1 1724   0.123   1.176   1.357 -0.6805  0.0657  0.2393
  575SOL    HW2 1725   0.099   1.333   1.407 -0.5538 -2.7872 -0.0822
  576SOL     OW 1726   2.307   0.244   1.819  0.0897 -0.3756 -0.4558
  576SOL    HW1 1727   2.279   0.317   1.889  0.0175 -0.8699 -0.5264
  576SOL    HW2 1728   2.302   0.153   1.855  1.8632  3.7235  0.5754
  577SOL     OW 1729   2.805   1.389   1.961 -0.0213  0.5416  0.5002
  577SOL    HW1 1730   2.861   1.329   2.020 -0.8382 -0.5118 -0.4076
  577SOL    HW2 1731   2.831   1.375   1.864 -0.3423  0.2011 -2.7316
  578SOL     OW 1732   1.610   2.836   2.506 -0.0765  0.3042 -0.1395
  578SOL    HW1 1733   1.519   2.800   2.490 -0.1022 -0.1391  1.7377
  578SOL    HW2 1734   1.638   2.913   2.443  3.1948  0.2933 -1.1564
  579SOL     OW 1735   2.164   2.252   2.025 -0.2911 -0.0008 -0.3470
  579SOL    HW1 1736   2.116   2.333   1.991  0.9668 -3.1816  1.5579
  579SOL    HW2 1737   2.148   2.181   1.951  0.6707 -3.3742 -1.2253
  580SOL     OW 1738   1.830   1.504   1.951 -0.0164 -0.0967 -0.1681
  580SOL    HW1 1739   1.796   1.588   1.906  1.8303  0.0136  0.3945
  580SOL    HW2 1740   1.877   1.446   1.878 -0.6463  1.5480  1.5270
  581SOL     OW 1741   1.272   1.118   2.425  0.4002  0.0409 -0.0710
  581SOL    HW1 1742   1.367   1.113   2.385  1.2021 -2.6509 -0.9330
  581SOL    HW2 1743   1.257   1.024   2.461  0.4652  0.2139 -3.4520
  582SOL     OW 1744   0.119   2.416   1.694  0.4717 -0.5305  0.1485
  582SOL    HW1 1745   0.207   2.447   1.657 -1.1449 -0.4693  1.2203
  582SOL    HW2 1746   0.111   2.446   1.789  1.2734 -0.7176 -3.9330
  583SOL     OW 1747   1.561   1.225   1.115 -0.1220 -0.4596  0.2130
  583SOL    HW1 1748   1.467   1.180   1.099 -0.5926  0.6874  1.2288
  583SOL    HW2 1749   1.616   1.168   1.173  1.6923 -1.7077 -0.2436
  584SOL     OW 1750   1.092   2.249   0.643 -0.8016  0.4141  0.7947
  584SOL    HW1 1751   1.095   2.330   0.578  0.1064  2.0891 -4.2571
  584SOL    HW2 1752   1.074   2.286   0.736 -0.3235 -0.3681  0.8208
  585SOL     OW 1753   0.121   2.404   3.066 -0.2495 -0.4015 -0.4488
  585SOL    HW1 1754   0.114   2.391   0.058  0.3614 -1.3493 -0.3820
  585SOL    HW2 1755   0.065   2.332   3.023  0.5363 -2.2349  1.9870
  586SOL     OW 1756   2.790   1.541   0.357 -0.0652  0.2749 -0.1502
  586SOL    HW1 1757   2.813   1.463   0.294  2.9233 -4.6670 -2.0032
  586SOL    HW2 1758   2.691   1.576   0.343  0.3866  0.7376  1.7307
  587SOL     OW 1759   1.148   1.493   2.861  0.6768  0.1990 -0.0663
  587SOL    HW1 1760   1.170   1.397   2.868 -0.5986  0.0698  0.4485
  587SOL    HW2 1761   1.219   1.550   2.899  0.8002  0.0541  0.3130
  588SOL     OW 1762   0.285   0.283   0.623 -0.1004 -0.6094  0.7410
  588SOL    HW1 1763   0.353   0.211   0.641 -0.1563  0.9319 -0.1294
  588SOL    HW2 1764   0.222   0.310   0.701 -1.0713 -2.0021 -1.9379
  589SOL     OW 1765   1.536   0.452   0.672 -0.3783  0.3275 -0.1441
  589SOL    HW1 1766   1.496   0.414   0.758 -0.1533  2.2729 -0.0526
  589SOL    HW2 1767   1.505   0.543   0.653  1.4622  0.4895 -0.4700
  590SOL     OW 1768   2.445   2.422   0.354  0.1070  0.5884 -0.3755
  590SOL    HW1 1769   2.492   2.329   0.350 -1.5079  0.3288 -1.1439
  590SOL    HW2 1770   2.364   2.427   0.414 -0.1567  0.9085 -0.5343
  591SOL     OW 1771   0.256   2.576   1.911 -0.0687 -0.1845 -0.0648
  591SOL    HW1 1772   0.322   2.607   1.979 -2.6322 -0.3984 -1.9490
  591SOL    HW2 1773   0.201   2.657   1.875 -1.3261 -0.8887 -0.4348
  592SOL     OW 1774   2.753   1.926   2.250  0.0342  0.3415  0.1082
  592SOL    HW1 1775   2.738   1.824   2.249 -1.2778 -2.9821  0.9105
  592SOL    HW2 1776   2.855   1.946   2.238  0.1761 -1.3658 -0.4322
  593SOL     OW 1777   1.432   1.428   1.535 -0.2042  0.1679 -0.2686
  593SOL    HW1 1778   1.515   1.482   1.562  0.2308 -3.0614 -0.9337
  593SOL    HW2 1779   1.444   1.406   1.437 -0.7133  2.4021  0.6083
  594SOL     OW 1780   0.805   1.256   2.924  0.2151  0.2602 -0.2617
  594SOL    HW1 1781   0.739   1.301   2.858  1.2910  0.7578 -1.2972
  594SOL    HW2 1782   0.843   1.329   2.983  2.6614  0.9136  0.0582
  595SOL     OW 1783   1.507   0.843   0.846  0.4931  0.1501  0.1221
  595SOL    HW1 1784   1.426   0.783   0.814 -1.5067 -1.4374 -0.8889
  595SOL    HW2 1785   1.482   0.939   0.822 -1.4188 -0.7501 -2.9412
  596SOL     OW 1786   0.136   0.971   1.006 -0.1735 -0.4321 -0.0067
  596SOL    HW1 1787   0.091   0.885   1.033 -2.6562 -0.3333 -2.9752
  596SOL    HW2 1788   0.182   1.018   1.082 -0.7834  0.4894 -0.5290
  597SOL     OW 1789   0.753   2.223   1.941  0.3507 -0.5496  0.5551
  597SOL    HW1 1790   0.696   2.296   1.902  1.7747  1.0501  1.2895
  597SOL    HW2 1791   0.753   2.135   1.889  2.6352 -3.4865  0.6860
  598SOL     OW 1792   2.066   2.520   2.183  0.4406 -0.3399 -0.1261
  598SOL    HW1 1793   1.980   2.480   2.207  2.5456  0.7059 -1.3028
  598SOL    HW2 1794   2.138   2.469   2.235  1.3715  0.2303  0.0247
  599SOL     OW 1795   0.900   1.044   0.311  0.5557 -0.8813  0.0245
  599SOL    HW1 1796   0.943   1.129   0.351  3.8240  0.7598  0.6189
  599SOL    HW2 1797   0.884   1.053   0.208 -1.3873  1.3128 -0.7923
  600SOL     OW 1798   1.382   0.661   0.103 -0.0421 -1.1057 -0.0182
  600SOL    HW1 1799   1.295   0.665   0.051  0.8910  0.8853 -0.2398
  600SOL    HW2 1800   1.377   0.585   0.168 -3.0670  0.4698 -1.0199
  601SOL     OW 1801   0.904   0.603   1.577 -0.0414 -0.2745  0.2905
  601SOL    HW1 1802   0.960   0.577   1.657  1.5515 -1.4791  0.8280
  601SOL    HW2 1803   0.814   0.558   1.581 -1.6670 -0.0866  0.0987
  602SOL     OW 1804   0.357   2.137   0.855 -0.5954  0.1603  0.6563
  602SOL    HW1 1805   0.304   2.084   0.785  1.2960 -0.5582  1.0595
  602SOL    HW2 1806   0.345   2.236   0.847  2.7614  0.8537  1.8469
  603SOL     OW 1807   0.862   2.482   2.297 -0.0334 -0.6593  0.8037
  603SOL    HW1 1808   0.781   2.467   2.239 -0.7055  0.3115 -0.4008
  603SOL    HW2 1809   0.847   2.450   2.391 -0.4309  0.5439  0.7104
  604SOL     OW 1810   0.334   2.179   0.277  0.2167 -0.2589  0.2165
  604SOL    HW1 1811   0.384   2.197   0.364 -0.1049 -1.8923  2.9818
  604SOL    HW2 1812   0.393   2.125   0.215  0.9428 -1.5247 -1.8069
  605SOL     OW 1813   2.028   1.385   1.782  0.3318  0.5444  0.5960
  605SOL    HW1 1814   2.025   1.294   1.732 -1.0517 -0.5325 -1.6456
  605SOL    HW2 1815   2.047   1.459   1.711 -2.7047 -1.6986  0.4732
  606SOL     OW 1816   1.018   1.086   2.830 -0.7787  0.2977 -0.7440
  606SOL    HW1 1817   0.952   1.156   2.857 -1.4765 -0.3214 -0.9435
  606SOL    HW2 1818   1.106   1.130   2.830 -0.5122 -0.3507  1.5394
  607SOL     OW 1819   1.304   1.103   1.111  0.3274  0.4755 -0.1233
  607SOL    HW1 1820   1.271   1.088   1.211  0.6664 -0.0638  3.2330
  607SOL    HW2 1821   1.241   1.164   1.063  1.5207  2.2712  5.5955
  608SOL     OW 1822   2.646   2.153   2.113  0.4277  0.3368  0.3050
  608SOL    HW1 1823   2.673   2.165   2.012 -2.6710  2.7486 -1.2799
  608SOL    HW2 1824   2.691   2.071   2.154  0.4116 -3.3243  2.3060
  609SOL     OW 1825   2.192   0.014   0.373  0.0851 -0.5550 -0.1323
  609SOL    HW1 1826   2.241   0.010   0.284 -0.3693 -1.1973 -1.3676
  609SOL    HW2 1827   2.122   3.047   0.374 -1.3543 -0.9763  1.5045
  610SOL     OW 1828   0.070   2.164   1.295  0.4406 -0.3919  0.1483
  610SOL    HW1 1829   0.157   2.218   1.280 -0.9972  2.1122 -0.8420
  610SOL    HW2 1830   0.013   2.191   1.214  2.0637  1.8492  0.5156
  611SOL     OW 1831   1.549   2.284   0.472 -0.7289  0.0258  0.2041
  611SOL    HW1 1832   1.628   2.235   0.428 -2.5486 -0.7003 -2.5562
  611SOL    HW2 1833   1.578   2.336   0.560 -0.1518  1.9972  0.4892
  612SOL     OW 1834   0.554   0.026   1.727  0.0764 -0.2173 -0.3987
  612SOL    HW1 1835   0.637   3.087   1.697  0.6283 -0.2602 -3.5263
  612SOL    HW2 1836   0.568   0.126   1.712  0.4134  2.2217 -1.2754
  613SOL     OW 1837   0.048   1.714   0.494  0.6088  0.2330  0.3724
  613SOL    HW1 1838   0.004   1.772   0.563  1.2010  1.3358 -0.1694
  613SOL    HW2 1839   3.101   1.713   0.408 -1.7545  0.3509 -0.2477
  614SOL     OW 1840   1.903   0.588   2.033  0.2871  0.7214 -0.2637
  614SOL    HW1 1841   1.958   0.575   2.119 -2.2455  0.2615  0.1798
  614SOL    HW2 1842   1.962   0.613   1.955  1.6749 -1.4607 -1.3739
  615SOL     OW 1843   0.740   1.346   1.127  0.0514 -0.3106 -0.0253
  615SOL    HW1 1844   0.636   1.341   1.127  2.3255 -0.9460  1.0686
  615SOL    HW2 1845   0.785   1.403   1.057  1.4620 -1.5134 -1.4045
  616SOL     OW 1846   1.650   1.825   0.043 -0.0059  0.2893  0.2241
  616SOL    HW1 1847   1.569   1.882   0.066  0.6225 -0.9691  0.6725
  616SOL    HW2 1848   1.734   1.883   0.039  0.4611  0.3869 -1.2456
  617SOL     OW 1849   1.968   2.988   0.275  0.2269  0.2791 -0.0563
  617SOL    HW1 1850   2.035   2.917   0.251  1.0028 -0.1833  1.4522
  617SOL    HW2 1851   1.885   2.939   0.315  1.3183  1.6105 -2.2854
  618SOL     OW 1852   0.579   0.715   2.422  0.2154 -0.1355  0.0375
  618SOL    HW1 1853   0.539   0.788   2.370  0.0958  2.2352  0.1502
  618SOL    HW2 1854   0.675   0.729   2.419 -3.4348  1.8709 -1.1876
  619SOL     OW 1855   2.813   1.560   1.092  0.1613 -0.2091 -0.0851
  619SOL    HW1 1856   2.871   1.548   1.008  0.8392 -0.3544 -1.5940
  619SOL    HW2 1857   2.718   1.562   1.067  3.9166 -0.7059  1.1867
  620SOL     OW 1858   2.200   2.777   2.921 -0.1340  0.5272 -0.3004
  620SOL    HW1 1859   2.239   2.794   2.831 -3.2395  0.7278  0.1654
  620SOL    HW2 1860   2.106   2.815   2.928  1.3802  2.5148 -0.5185
  621SOL     OW 1861   2.427   1.654   3.098  0.0610 -0.4723 -0.4586
  621SOL    HW1 1862   2.452   1.556   0.020  0.1915 -1.1292  3.2650
  621SOL    HW2 1863   2.435   1.713   0.076 -0.5645  2.3213  3.0371
  622SOL     OW 1864   1.665   3.074   2.306  0.2387  0.2639 -0.1557
  622SOL    HW1 1865   1.680   3.104   2.213 -0.9492 -1.1958  3.3043
  622SOL    HW2 1866   1.561   3.077   2.323 -0.7676 -2.1403  1.0100
  623SOL     OW 1867   1.216   1.927   0.824  0.1871 -0.3202 -0.1888
  623SOL    HW1 1868   1.143   1.907   0.759  1.1127 -1.5105  3.9975
  623SOL    HW2 1869   1.243   2.024   0.826 -0.0201  1.4845  2.3932
  624SOL     OW 1870   0.099   3.068   0.034  0.2979  0.1733 -0.7436
  624SOL    HW1 1871   0.194   3.047   3.103  2.6214  1.0896 -2.2942
  624SOL    HW2 1872   0.076   0.054   0.003 -2.7668  1.6056  2.2220
  625SOL     OW 1873   0.991   1.607   0.497  0.0869  0.1938  0.3743
  625SOL    HW1 1874   0.953   1.543   0.567 -0.4595  2.8595  1.0188
  625SOL    HW2 1875   0.917   1.630   0.435 -0.6431 -1.7955  3.1422
  626SOL     OW 1876   0.088   2.795   0.041 -0.2663 -0.0704 -0.0526
  626SOL    HW1 1877   0.065   2.893   0.041 -1.5173 -2.7045 -0.5772
  626SOL    HW2 1878   0.190   2.777   0.041  1.1850  0.4212  0.1087
  627SOL     OW 1879   1.262   1.786   2.752 -0.4238  0.3753 -0.2998
  627SOL    HW1 1880   1.225   1.856   2.683  0.6010  1.7666 -1.1074
  627SOL    HW2 1881   1.234   1.811   2.844  1.1942 -2.4923 -0.6121
  628SOL     OW 1882   0.075   2.858   2.861  0.3850  0.0545  0.0026
  628SOL    HW1 1883   0.071   2.870   2.964  0.9904 -0.5142  1.6966
  628SOL    HW2 1884   0.100   2.759   2.841 -0.4238  0.7968 -0.0485
  629SOL     OW 1885   0.461   2.712   2.440 -0.0587  0.1924  0.0196
  629SOL    HW1 1886   0.543   2.755   2.396  0.3609 -0.8660  0.0578
  629SOL    HW2 1887   0.373   2.751   2.401  1.1454 -1.1587  1.9885
  630SOL     OW 1888   1.206   1.243   1.874  0.2606  0.0869  0.0412
  630SOL    HW1 1889   1.274   1.186   1.922  1.7339 -0.5608  0.8006
  630SOL    HW2 1890   1.136   1.184   1.822  0.6799 -0.7656  1.2529
  631SOL     OW 1891   2.257   1.201   0.543 -0.1682  0.1445  0.4330
  631SOL    HW1 1892   2.310   1.284   0.574  0.8642  0.1574  0.3289
  631SOL    HW2 1893   2.311   1.140   0.478  2.8603 -2.6941 -0.7174
  632SOL     OW 1894   2.459   0.562   2.137  0.1589  0.3217  0.2455
  632SOL    HW1 1895   2.516   0.640   2.172 -1.4775 -0.7726 -2.4809
  632SOL    HW2 1896   2.478   0.471   2.181  0.6444 -0.5635  0.9458
  633SOL     OW 1897   0.854   1.863   0.228  0.2840  0.3531 -0.2995
  633SOL    HW1 1898   0.800   1.944   0.193  0.4962  0.6535 -1.2125
  633SOL    HW2 1899   0.934   1.883   0.288  4.7941 -0.7526  3.7831
  634SOL     OW 1900   1.800   2.804   2.699 -0.1530 -0.2391 -0.6344
  634SOL    HW1 1901   1.730   2.789   2.628  0.1099 -2.1907 -0.4613
  634SOL    HW2 1902   1.894   2.793   2.657 -2.0063 -0.3073 -2.0492
  635SOL     OW 1903   2.141   0.386   0.060 -0.0307  0.1185 -0.5888
  635SOL    HW1 1904   2.155   0.284   0.046  1.0371 -1.0541  1.5632
  635SOL    HW2 1905   2.065   0.403   0.132 -3.3119 -0.7595  4.2234
  636SOL     OW 1906   0.885   1.390   0.675 -0.0189 -0.1310 -0.4018
  636SOL    HW1 1907   0.815   1.351   0.618  2.9705  1.2946  1.0416
  636SOL    HW2 1908   0.957   1.318   0.695  2.1249 -0.1020 -0.2297
  637SOL     OW 1909   3.064   2.133   0.487 -0.1610 -0.7694  0.0079
  637SOL    HW1 1910   3.028   2.122   0.390 -3.0886  0.5513  0.9033
  637SOL    HW2 1911   2.992   2.126   0.557 -1.2281 -0.0503 -0.9789
  638SOL     OW 1912   0.902   2.482   2.573  0.4147 -0.0358  0.0830
  638SOL    HW1 1913   0.917   2.577   2.599  0.4762 -1.3501 -0.7056
  638SOL    HW2 1914   0.986   2.429   2.587  0.3433 -1.1426  2.8234
  639SOL     OW 1915   1.379   1.953   0.109 -0.3080  0.5417 -0.7754
  639SOL    HW1 1916   1.288   1.950   0.059 -1.5475  1.1598 -0.7981
  639SOL    HW2 1917   1.376   1.937   0.209 -0.1150 -1.7226 -1.8299
  640SOL     OW 1918   1.756   3.079   0.978  0.3111  0.0002  0.9045
  640SOL    HW1 1919   1.659   3.089   1.008  0.6735 -0.0466  0.7564
  640SOL    HW2 1920   1.782   2.984   0.952 -1.6452 -0.6673  2.7972
  641SOL     OW 1921   0.010   2.770   0.443  0.3126  0.6401 -0.1216
  641SOL    HW1 1922   3.044   2.708   0.412 -1.1177  0.0627 -0.1059
  641SOL    HW2 1923   0.026   2.838   0.373  2.1399  0.5508  0.2570
  642SOL     OW 1924   1.022   0.042   1.481 -0.0290  0.4066 -0.3758
  642SOL    HW1 1925   0.937   0.042   1.425 -1.1816  0.2172  1.9033
  642SOL    HW2 1926   1.023   0.106   1.557  0.8866  0.8299 -3.4406
  643SOL     OW 1927   0.394   1.768   2.038  0.1387  0.5608 -1.0665
  643SOL    HW1 1928   0.491   1.802   2.068  3.2995 -0.1901 -1.8170
  643SOL    HW2 1929   0.370   1.807   1.948  0.9501 -1.0356 -2.7161
  644SOL     OW 1930   0.839   2.622   0.239  0.2140  0.1940 -0.2243
  644SOL    HW1 1931   0.862   2.526   0.211 -0.1414  0.4700  4.5682
  644SOL    HW2 1932   0.742   2.613   0.277  1.5642 -1.0926  1.9821
  645SOL     OW 1933   1.496   2.175   0.015  0.7948 -0.4530 -0.4597
  645SOL    HW1 1934   1.437   2.235   3.071 -2.3431 -2.1106  2.5586
  645SOL    HW2 1935   1.454   2.088   0.046 -3.1380  0.2409  1.5537
  646SOL     OW 1936   0.466   1.206   2.861  0.6464 -0.9121 -0.2368
  646SOL    HW1 1937   0.533   1.288   2.858  1.1062 -1.2803  0.5501
  646SOL    HW2 1938   0.381   1.244   2.901 -0.9010  1.8968 -1.2587
  647SOL     OW 1939   0.611   0.051   0.688  0.4048  0.0977 -0.0941
  647SOL    HW1 1940   0.630   0.153   0.689 -0.5271  1.5190  0.0784
  647SOL    HW2 1941   0.642   0.009   0.603  2.9345 -1.0419  4.7194
  648SOL     OW 1942   1.982   0.140   1.528  0.0006  0.4699  0.2598
  648SOL    HW1 1943   1.923   0.184   1.460  0.8252  1.9970  2.3733
  648SOL    HW2 1944   2.071   0.184   1.526 -3.7752 -0.5068 -0.4173
  649SOL     OW 1945   1.172   1.932   2.548 -0.3212 -0.0349  0.3481
  649SOL    HW1 1946   1.110   2.012   2.564 -2.5424 -0.9177  0.1722
  649SOL    HW2 1947   1.121   1.869   2.492  0.8965 -1.2972  0.8934
  650SOL     OW 1948   2.591   1.854   1.840 -0.1469 -0.0558 -0.3600
  650SOL    HW1 1949   2.527   1.786   1.809 -1.0348  0.0833 -0.2011
  650SOL    HW2 1950   2.667   1.810   1.898  0.5243 -2.6362 -0.1052
  651SOL     OW 1951   1.133   0.145   2.972  0.1577 -0.0487  0.0021
  651SOL    HW1 1952   1.181   0.052   2.982  1.1397 -1.3422 -1.1104
  651SOL    HW2 1953   1.205   0.216   2.979  0.0685  0.1585 -1.9047
  652SOL     OW 1954   2.931   1.716   0.056 -0.3053 -0.0097 -0.2544
  652SOL    HW1 1955   2.851   1.675   0.009  2.4493 -3.1819  0.1346
  652SOL    HW2 1956   2.981   1.787   0.001  0.4940  2.2783  0.9212
  653SOL     OW 1957   0.246   0.210   0.935 -0.6581  0.3068 -0.7804
  653SOL    HW1 1958   0.204   0.185   1.019 -0.1978 -0.0033 -0.1472
  653SOL    HW2 1959   0.204   0.291   0.898 -1.8674 -0.4203  1.5472
  654SOL     OW 1960   2.331   0.102   2.592 -0.7177  0.0132 -0.1145
  654SOL    HW1 1961   2.255   0.065   2.535  2.3324  2.8136  1.9771
  654SOL    HW2 1962   2.408   0.038   2.600  1.0834 -0.0912 -0.8960
  655SOL     OW 1963   0.427   2.428   0.857  0.0937 -0.2884  0.1407
  655SOL    HW1 1964   0.333   2.456   0.828  3.6762  0.7197  0.5963
  655SOL    HW2 1965   0.432   2.436   0.957 -0.6732 -0.0993 -1.6147
  656SOL     OW 1966   0.245   2.845   2.299 -0.2482  0.2438 -0.7262
  656SOL    HW1 1967   0.221   2.940   2.269 -1.4196 -2.9634  0.5869
  656SOL    HW2 1968   0.164   2.788   2.276 -0.4022 -0.1502  0.7879
  657SOL     OW 1969   2.368   0.531   2.498 -0.4182  0.6104  0.4945
  657SOL    HW1 1970   2.323   0.473   2.426 -1.1689 -1.6151  0.8138
  657SOL    HW2 1971   2.358   0.492   2.591 -1.3042 -0.9205 -0.3091
  658SOL     OW 1972   2.260   1.734   1.286 -0.1202  0.0983  0.3326
  658SOL    HW1 1973   2.174   1.715   1.245  2.8363  0.4313  1.2724
  658SOL    HW2 1974   2.247   1.731   1.390 -0.1299  0.0716 -0.4978
  659SOL     OW 1975   2.183   0.108   0.007  0.4438  0.6322 -0.1114
  659SOL    HW1 1976   2.232   0.026   0.044 -0.6468 -2.1912  1.3586
  659SOL    HW2 1977   2.133   0.088   3.027 -1.8625  1.1003 -2.6348
  660SOL     OW 1978   1.331   1.628   3.068 -0.6316  0.6086  0.1696
  660SOL    HW1 1979   1.301   1.725   3.071 -2.3577  1.9662  1.3657
  660SOL    HW2 1980   1.386   1.613   2.985 -0.8978  0.0064  1.2062
  661SOL     OW 1981   2.467   2.432   1.051  0.4434  0.3949  0.0398
  661SOL    HW1 1982   2.550   2.467   1.006  3.1566 -2.3186 -1.1023
  661SOL    HW2 1983   2.484   2.393   1.144  1.4348 -0.7478  0.4942
  662SOL     OW 1984   0.674   0.714   0.287 -0.2525  0.1896 -0.1767
  662SOL    HW1 1985   0.756   0.706   0.227 -1.4590  0.8934 -0.3539
  662SOL    HW2 1986   0.697   0.775   0.366 -0.4380  0.3220  4.0709
  663SOL     OW 1987   1.881   2.349   0.167 -0.1192 -0.6119 -0.0840
  663SOL    HW1 1988   1.827   2.329   0.085 -0.5872 -0.3628 -2.0969
  663SOL    HW2 1989   1.972   2.303   0.156  3.0672 -0.8840  2.0469
  664SOL     OW 1990   0.625   2.066   1.405 -0.3314 -0.3995 -0.2201
  664SOL    HW1 1991   0.531   2.077   1.436  0.3042 -0.0892 -0.8862
  664SOL    HW2 1992   0.686   2.084   1.484 -1.8694 -2.5902 -1.7873
  665SOL     OW 1993   1.786   2.237   2.088  0.8388  0.6039 -0.5764
  665SOL    HW1 1994   1.781   2.195   1.995  1.4766 -0.6699 -4.2633
  665SOL    HW2 1995   1.777   2.163   2.159 -1.8362 -0.2346  1.0060
  666SOL     OW 1996   0.603   2.509   0.338 -0.0769  0.3937  0.3982
  666SOL    HW1 1997   0.657   2.437   0.385  0.1105  1.4292 -1.1912
  666SOL    HW2 1998   0.513   2.477   0.297  0.2415  0.1041 -0.3292
  667SOL     OW 1999   2.188   1.379   1.991 -0.4502  0.1342 -0.3758
  667SOL    HW1 2000   2.164   1.347   2.086 -0.2377 -0.1460  1.1161
  667SOL    HW2 2001   2.102   1.398   1.936 -0.8563 -2.5624  1.0217
  668SOL     OW 2002   0.515   0.653   2.672  0.0109  0.2308  0.1915
  668SOL    HW1 2003   0.531   0.675   2.572  2.9500  0.8593 -1.1011
  668SOL    HW2 2004   0.601   0.610   2.709  0.5368  2.2951  1.8417
  669SOL     OW 2005   1.504   2.472   2.765 -0.0299  0.0427 -0.4610
  669SOL    HW1 2006   1.486   2.373   2.765 -0.2757 -0.9648  0.3836
  669SOL    HW2 2007   1.519   2.503   2.671 -0.3224  3.7270 -1.1800
  670SOL     OW 2008   2.446   2.101   2.968 -0.0420 -0.5872 -0.8653
  670SOL    HW1 2009   2.451   2.203   2.963  0.1231  1.0359  0.1669
  670SOL    HW2 2010   2.456   2.062   2.868  2.4889 -1.1739 -2.8477
  671SOL     OW 2011   0.479   0.965   1.116  0.2052 -0.7776  0.2079
  671SOL    HW1 2012   0.457   1.063   1.090 -0.4161  2.0140 -2.5262
  671SOL    HW2 2013   0.508   0.962   1.215  0.9190  0.5461  2.8191
  672SOL     OW 2014   2.491   0.872   2.209 -0.4563  0.1317 -0.2896
  672SOL    HW1 2015   2.447   0.871   2.115 -0.1837 -0.8381 -2.1252
  672SOL    HW2 2016   2.470   0.957   2.260  3.4037 -1.4694  2.1421
  673SOL     OW 2017   2.592   2.737   2.080 -0.0320  0.3037 -0.4937
  673SOL    HW1 2018   2.660   2.709   2.153 -0.7434  0.3322  1.3543
  673SOL    HW2 2019   2.584   2.668   2.008  1.8325  0.8106 -1.4045
  674SOL     OW 2020   1.226   2.503   2.221  0.1497 -0.0257  0.0806
  674SOL    HW1 2021   1.146   2.548   2.175  0.4122 -1.4584 -0.5974
  674SOL    HW2 2022   1.222   2.401   2.206 -0.5108  0.1303  0.9139
  675SOL     OW 2023   0.515   0.861   1.577 -0.6527  0.0893  0.4523
  675SOL    HW1 2024   0.501   0.766   1.545  1.7945  0.9503  0.4166
  675SOL    HW2 2025   0.607   0.877   1.622  1.1472 -0.0440  1.4026
  676SOL     OW 2026   1.972   0.955   0.805 -0.0207 -0.6400 -0.5460
  676SOL    HW1 2027   1.881   0.932   0.765  1.4255  1.4108  0.7557
  676SOL    HW2 2028   1.989   1.050   0.770 -1.0169 -1.3193 -0.4211
  677SOL     OW 2029   2.779   1.433   2.527 -0.3430  0.1803  0.1836
  677SOL    HW1 2030   2.704   1.431   2.462  0.3704 -0.4262  1.0963
  677SOL    HW2 2031   2.771   1.525   2.573  0.5007 -0.7101  0.0861
  678SOL     OW 2032   2.610   2.037   1.003  0.2376 -0.7140 -0.1861
  678SOL    HW1 2033   2.672   2.065   1.077  0.3450  2.8310  0.4504
  678SOL    HW2 2034   2.545   1.958   1.038 -0.1913 -1.4247  0.3282
  679SOL     OW 2035   1.538   2.787   0.813 -0.0207  0.1258 -0.3678
  679SOL    HW1 2036   1.595   2.718   0.771 -2.3742  0.9856  1.9237
  679SOL    HW2 2037   1.552   2.876   0.768  1.5785 -3.7622 -1.3210
  680SOL     OW 2038   0.260   2.433   2.341 -0.1582  0.2342  0.4082
  680SOL    HW1 2039   0.361   2.425   2.360  1.6644 -1.3869 -1.3170
  680SOL    HW2 2040   0.242   2.368   2.261 -1.7629 -1.1109  0.2630
  681SOL     OW 2041   2.648   1.287   1.627  0.1803 -0.1617 -0.0250
  681SOL    HW1 2042   2.747   1.284   1.645  0.6188  0.9070 -0.2362
  681SOL    HW2 2043   2.600   1.237   1.706  0.7264 -1.3620  4.6913
  682SOL     OW 2044   0.389   1.778   1.399 -0.6077  0.3878  0.4836
  682SOL    HW1 2045   0.320   1.842   1.428  4.3036 -1.3781  0.4380
  682SOL    HW2 2046   0.445   1.816   1.319 -0.4897  1.3899 -1.0617
  683SOL     OW 2047   2.111   1.250   1.274 -0.3375 -0.2327  0.0437
  683SOL    HW1 2048   2.161   1.323   1.224 -0.5419  1.4459  0.0690
  683SOL    HW2 2049   2.012   1.250   1.260  3.2063  0.5482  0.7518
  684SOL     OW 2050   2.711   1.655   3.016  0.1592  0.2729  0.4108
  684SOL    HW1 2051   2.750   1.684   2.929 -0.1081 -0.7852  0.3973
  684SOL    HW2 2052   2.610   1.664   3.015  0.6070  0.3407  0.8390
  685SOL     OW 2053   1.432   1.252   3.057  0.1661 -0.4619  0.0919
  685SOL    HW1 2054   1.408   1.302   0.035  2.5543 -1.7582  1.0809
  685SOL    HW2 2055   1.411   1.152   3.072  0.1668 -1.6005  1.5042
  686SOL     OW 2056   0.385   0.346   1.371  0.0486  0.3448 -0.5252
  686SOL    HW1 2057   0.482   0.374   1.367  2.3139  0.5605 -0.4976
  686SOL    HW2 2058   0.382   0.247   1.391 -1.1895  0.0452 -0.3895
  687SOL     OW 2059   1.037   1.963   2.195 -0.0859 -0.3235  0.1100
  687SOL    HW1 2060   1.129   2.002   2.182 -1.1999 -2.8950  1.1330
  687SOL    HW2 2061   1.040   1.871   2.244 -1.8649 -4.1676 -0.4051
  688SOL     OW 2062   0.291   1.586   1.233 -0.2775  0.1474 -0.0403
  688SOL    HW1 2063   0.330   1.652   1.303 -1.5937 -0.9540 -0.0765
  688SOL    HW2 2064   0.285   1.632   1.140  2.3300  1.8909 -1.4670
  689SOL     OW 2065   1.519   0.922   1.650 -0.3563 -0.6195  0.1136
  689SOL    HW1 2066   1.511   0.992   1.574  2.5338  1.3145 -0.8123
  689SOL    HW2 2067   1.598   0.864   1.624 -0.2366 -0.6410 -2.2082
  690SOL     OW 2068   2.763   0.823   1.081 -0.4165  0.1903  0.8228
  690SOL    HW1 2069   2.761   0.723   1.066  0.4078  1.2538  1.3211
  690SOL    HW2 2070   2.853   0.868   1.060  1.7741 -0.8180 -0.2390
  691SOL     OW 2071   0.399   2.185   1.836 -0.2757 -0.4761 -0.2003
  691SOL    HW1 2072   0.418   2.172   1.934 -2.6480 -1.2000 -0.0829
  691SOL    HW2 2073   0.455   2.264   1.804 -2.1008  0.2099 -0.5355
  692SOL     OW 2074   1.959   0.134   1.024 -0.3474 -0.2189 -0.6998
  692SOL    HW1 2075   1.885   0.067   1.013  1.9392  1.4582  0.0740
  692SOL    HW2 2076   1.951   0.212   0.956 -0.6988  2.6732  0.9035
  693SOL     OW 2077   0.192   1.434   2.287  0.2896 -0.4365 -0.1723
  693SOL    HW1 2078   0.217   1.506   2.360  3.1365  3.4550  0.4256
  693SOL    HW2 2079   0.099   1.406   2.310  0.7085 -0.2019 -0.9830
  694SOL     OW 2080   2.335   0.582   1.122  0.4414 -0.4230  0.1296
  694SOL    HW1 2081   2.305   0.494   1.151 -1.6566 -1.5980 -2.1842
  694SOL    HW2 2082   2.348   0.647   1.197  2.0676 -1.3097  1.0551
  695SOL     OW 2083   0.955   1.573   1.702  0.1449  0.1524  0.1551
  695SOL    HW1 2084   1.045   1.526   1.724 -0.5341 -0.1018  0.8201
  695SOL    HW2 2085   0.970   1.650   1.640  1.7615  0.7433  2.5606
  696SOL     OW 2086   1.016   2.920   3.065 -0.8067 -0.7442 -0.3085
  696SOL    HW1 2087   1.039   2.854   0.034  3.6370  1.7743  0.9523
  696SOL    HW2 2088   1.081   2.915   2.986 -2.1268 -0.6991  1.9009
  697SOL     OW 2089   0.960   0.313   0.988 -0.4575  1.0171 -0.0582
  697SOL    HW1 2090   0.930   0.381   0.920 -2.3088 -0.2077  0.5761
  697SOL    HW2 2091   1.028   0.255   0.949 -1.0296  3.4531 -0.4538
  698SOL     OW 2092   1.243   1.481   2.303 -0.4226 -0.4698 -0.2123
  698SOL    HW1 2093   1.231   1.520   2.398  2.0104  1.0646 -1.2582
  698SOL    HW2 2094   1.181   1.404   2.284  2.2195  1.8701  0.3114
  699SOL     OW 2095   1.501   0.901   1.121 -0.8998  1.0465 -0.1346
  699SOL    HW1 2096   1.414   0.953   1.119 -1.1139  0.5067  2.1978
  699SOL    HW2 2097   1.528   0.854   1.032 -2.7349  0.3475  2.5595
  700SOL     OW 2098   0.861   2.835   0.417 -0.3089  0.0479  0.2551
  700SOL    HW1 2099   0.859   2.754   0.353 -1.2255 -1.1793 -3.6717
  700SOL    HW2 2100   0.940   2.898   0.409 -2.4582 -0.4021  2.1313
  701SOL     OW 2101   2.553   3.004   2.637 -0.3480 -0.7664  0.2160
  701SOL    HW1 2102   2.633   3.019   2.692 -2.2188  0.7242 -0.4201
  701SOL    HW2 2103   2.579   2.975   2.543  1.7608  2.5607 -2.4162
  702SOL     OW 2104   1.301   0.400   3.066  0.1324  0.4541 -0.1471
  702SOL    HW1 2105   1.303   0.373   0.055 -1.6995  4.1026 -0.9502
  702SOL    HW2 2106   1.256   0.486   3.056  3.8396  0.6324  2.5403
  703SOL     OW 2107   2.665   2.957   2.405 -0.3318  0.7924  0.5225
  703SOL    HW1 2108   2.677   3.025   2.331  1.5349  0.1936 -1.3178
  703SOL    HW2 2109   2.683   2.862   2.368 -1.5924  0.3013 -4.0501
  704SOL     OW 2110   3.039   1.861   0.676 -0.0188 -0.2957  0.2614
  704SOL    HW1 2111   2.947   1.821   0.668  3.6781  0.2167  0.3081
  704SOL    HW2 2112   3.056   1.887   0.772 -2.1604  0.4457  0.4268
  705SOL     OW 2113   3.016   3.037   2.309  0.4133 -0.6054 -0.3602
  705SOL    HW1 2114   3.096   3.053   2.250 -1.0562 -1.1910  1.1845
  705SOL    HW2 2115   2.985   2.943   2.293  0.4065  1.7372  0.8783
  706SOL     OW 2116   1.792   2.795   0.406 -0.0889  0.3303  0.2021
  706SOL    HW1 2117   1.805   2.729   0.327 -1.2490  0.0725 -2.8254
  706SOL    HW2 2118   1.741   2.756   0.480  0.0042 -0.3197 -0.8247
  707SOL     OW 2119   0.915   1.876   1.961  0.2852 -0.3252 -0.4903
  707SOL    HW1 2120   0.957   1.918   2.048  0.2828 -0.9592  1.5331
  707SOL    HW2 2121   0.891   1.776   1.982 -1.9739 -0.8821  0.8233
  708SOL     OW 2122   3.099   2.219   1.569 -0.9369  0.4935 -0.1129
  708SOL    HW1 2123   0.019   2.196   1.472 -0.5591  0.8104 -1.1756
  708SOL    HW2 2124   0.052   2.294   1.610 -2.0454  1.5446 -0.1175
  709SOL     OW 2125   2.259   3.095   1.877 -0.0374  0.2702  0.4407
  709SOL    HW1 2126   2.191   3.043   1.826 -0.3300 -0.8525  1.4233
  709SOL    HW2 2127   2.356   3.062   1.853  2.9931  0.0086 -1.9187
  710SOL     OW 2128   2.083   0.853   2.366  0.2074  0.4376  0.0896
  710SOL    HW1 2129   2.034   0.937   2.388  0.8118  1.1090  0.2295
  710SOL    HW2 2130   2.147   0.830   2.441 -1.6905 -0.1314 -2.6828
  711SOL     OW 2131   1.120   2.231   3.077  0.1486 -0.1533 -0.1469
  711SOL    HW1 2132   1.109   2.252   0.067 -1.7257  3.1602  5.4083
  711SOL    HW2 2133   1.216   2.222   3.042 -0.9115 -0.9359  0.9417
  712SOL     OW 2134   0.595   2.399   2.123  0.1871 -0.1088  0.9031
  712SOL    HW1 2135   0.533   2.381   2.205 -2.6719  2.2686 -1.1892
  712SOL    HW2 2136   0.613   2.501   2.126  0.2728  0.8544  1.7607
  713SOL     OW 2137   1.692   1.349   3.003  0.9894  0.4070  0.0044
  713SOL    HW1 2138   1.597   1.321   2.976 -1.7476  0.3748 -0.3935
  713SOL    HW2 2139   1.703   1.374   3.104  1.2606  0.7393 -1.1507
  714SOL     OW 2140   0.761   1.363   1.419 -0.4441  0.1682 -0.0736
  714SOL    HW1 2141   0.738   1.461   1.436 -1.0284  0.1518  0.1750
  714SOL    HW2 2142   0.744   1.342   1.318 -0.3758 -2.8392 -2.1081
  715SOL     OW 2143   1.798   0.404   3.001 -0.3131 -0.1291 -0.1992
  715SOL    HW1 2144   1.850   0.492   3.015  0.2713  1.4316 -2.3594
  715SOL    HW2 2145   1.795   0.345   3.083 -1.6853  0.4474 -0.6574
  716SOL     OW 2146   2.975   2.811   2.138 -0.3866  0.2130 -0.0937
  716SOL    HW1 2147   2.954   2.860   2.052 -1.0630 -0.5684 -1.6569
  716SOL    HW2 2148   3.060   2.753   2.141  0.3073 -0.5090  1.2842
  717SOL     OW 2149   0.117   0.672   0.909 -0.1049 -0.5726  0.3113
  717SOL    HW1 2150   0.060   0.712   0.834  2.0125  0.0773  0.8511
  717SOL    HW2 2151   0.050   0.642   0.987 -1.9972  1.8453  0.8027
  718SOL     OW 2152   0.547   1.418   2.406  0.3400 -0.2743  0.0267
  718SOL    HW1 2153   0.639   1.421   2.453  0.9164  0.0680  1.2407
  718SOL    HW2 2154   0.531   1.496   2.339  1.7718 -0.1712 -1.1534
  719SOL     OW 2155   2.489   1.380   0.095  0.0326 -0.3560 -0.4152
  719SOL    HW1 2156   2.388   1.371   0.083 -0.1714 -0.8419 -0.8704
  719SOL    HW2 2157   2.532   1.292   0.077  0.5823  0.4530  1.5842
  720SOL     OW 2158   1.275   0.708   0.854  0.4780  0.3936 -0.0658
  720SOL    HW1 2159   1.267   0.607   0.832  0.4215 -2.5715 -1.1271
  720SOL    HW2 2160   1.226   0.721   0.942  1.0610 -1.6135  1.6995
  721SOL     OW 2161   2.603   0.365   0.286 -0.3006 -0.1378 -0.3953
  721SOL    HW1 2162   2.582   0.361   0.192 -1.0429 -1.7800  0.8138
  721SOL    HW2 2163   2.659   0.288   0.320  0.3895  2.5540 -2.3958
  722SOL     OW 2164   2.035   0.704   2.698 -0.1336  0.1815  0.1373
  722SOL    HW1 2165   2.104   0.762   2.653  0.9392  0.5266 -0.5056
  722SOL    HW2 2166   2.020   0.612   2.648  1.7965 -1.3816  0.4095
  723SOL     OW 2167   2.741   0.587   0.407 -0.1675 -0.2107  0.1644
  723SOL    HW1 2168   2.685   0.506   0.393  2.2763 -0.8367 -0.0959
  723SOL    HW2 2169   2.703   0.634   0.492 -1.2684 -0.3320  1.6592
  724SOL     OW 2170   0.837   1.650   2.068 -0.3988  0.5546  0.2733
  724SOL    HW1 2171   0.828   1.644   2.172 -2.2492  1.1061  0.7053
  724SOL    HW2 2172   0.806   1.563   2.024 -1.1449  1.0810 -2.0542
  725SOL     OW 2173   1.934   0.456   1.650 -0.5196 -0.4580 -0.8350
  725SOL    HW1 2174   1.944   0.542   1.597 -0.3669 -0.8801 -1.7668
  725SOL    HW2 2175   2.000   0.389   1.620 -0.1127  2.3273 -0.3220
  726SOL     OW 2176   1.544   3.023   0.656 -0.2655  0.3634  0.1397
  726SOL    HW1 2177   1.649   3.031   0.666  1.4461  1.6385 -0.8993
  726SOL    HW2 2178   1.515   3.014   0.561  1.3337 -0.8534  4.0481
  727SOL     OW 2179   1.515   1.793   2.209  0.4672  0.0358  0.0921
  727SOL    HW1 2180   1.560   1.790   2.299  0.2228  2.0334  3.7889
  727SOL    HW2 2181   1.511   1.699   2.167  0.3919  0.0640 -2.4915
  728SOL     OW 2182   2.052   2.964   1.752  0.3729  0.3017  0.6766
  728SOL    HW1 2183   2.003   2.949   1.661  0.1251  1.5086 -2.8225
  728SOL    HW2 2184   2.050   2.881   1.806 -1.1531  2.0206 -3.1396
  729SOL     OW 2185   2.237   1.139   0.807 -0.7246 -0.1990  0.3225
  729SOL    HW1 2186   2.152   1.164   0.853  4.3890 -1.8188  0.4285
  729SOL    HW2 2187   2.231   1.150   0.707  1.9626  2.5832  1.3942
  730SOL     OW 2188   0.428   1.243   2.574  0.2304 -0.5231 -0.0238
  730SOL    HW1 2189   0.482   1.260   2.659  0.8530 -2.2486 -0.2025
  730SOL    HW2 2190   0.441   1.314   2.505 -0.4685 -0.6471 -0.5214
  731SOL     OW 2191   0.115   3.107   0.780  0.0351  0.1075 -0.1091
  731SOL    HW1 2192   0.165   3.078   0.699 -3.0949 -0.4504  0.7875
  731SOL    HW2 2193   0.180   0.020   0.856 -0.1989 -0.1880 -0.9940
  732SOL     OW 2194   1.294   0.896   0.255  0.7083 -0.3632  0.0868
  732SOL    HW1 2195   1.202   0.852   0.267  3.4874 -0.3979 -2.1152
  732SOL    HW2 2196   1.361   0.835   0.206 -1.4764  1.9636 -0.3911
  733SOL     OW 2197   0.630   1.651   0.994 -0.9315 -0.1077 -0.4517
  733SOL    HW1 2198   0.714   1.595   0.962  0.4806  1.8685 -4.3636
  733SOL    HW2 2199   0.562   1.657   0.925 -1.4150 -0.4611  0.7809
  734SOL     OW 2200   0.107   2.510   0.432 -0.2210  0.0952 -0.3228
  734SOL    HW1 2201   0.089   2.604   0.453  0.0664 -2.0711 -1.1201
  734SOL    HW2 2202   0.061   2.444   0.494 -1.1798  0.2000 -1.5946
  735SOL     OW 2203   1.358   0.510   1.117 -0.1313 -0.6655 -0.0221
  735SOL    HW1 2204   1.317   0.457   1.195  0.0637 -0.1121  0.5564
  735SOL    HW2 2205   1.459   0.529   1.129  2.3614 -3.3980 -0.8983
  736SOL     OW 2206   2.364   2.365   0.093  0.2582  0.5039  0.4085
  736SOL    HW1 2207   2.314   2.434   0.040 -1.3259 -2.1480  1.1131
  736SOL    HW2 2208   2.397   2.399   0.184 -0.6770  0.2049  1.0127
  737SOL     OW 2209   3.035   0.818   0.750 -0.5076 -0.5174 -0.6988
  737SOL    HW1 2210   3.000   0.892   0.811 -0.9438  1.2809 -4.0930
  737SOL    HW2 2211   3.010   0.826   0.651 -0.9526  0.0805  0.9498
  738SOL     OW 2212   2.873   0.068   1.048  0.3542 -0.2558 -0.0360
  738SOL    HW1 2213   2.930   0.054   1.127 -1.7122  0.2443 -3.3831
  738SOL    HW2 2214   2.778   0.047   1.074  1.0447 -1.7966  1.1654
  739SOL     OW 2215   1.309   2.617   0.244  0.1228 -0.2330  0.2774
  739SOL    HW1 2216   1.326   2.517   0.233 -0.4050  0.0900  1.5959
  739SOL    HW2 2217   1.349   2.653   0.329  1.3959  1.4139 -2.4355
  740SOL     OW 2218   1.657   0.522   1.123 -0.6344  0.4236 -0.7294
  740SOL    HW1 2219   1.652   0.422   1.113 -0.5336  0.6236  0.1799
  740SOL    HW2 2220   1.737   0.559   1.069  0.8503 -1.3953 -2.5719
  741SOL     OW 2221   2.873   1.036   0.864 -0.2968  0.1587 -0.5993
  741SOL    HW1 2222   2.887   1.063   0.960 -0.8710  0.8793  2.1561
  741SOL    HW2 2223   2.803   1.093   0.824 -2.3329  0.3244  1.1400
  742SOL     OW 2224   0.629   1.430   2.793 -0.3253 -0.0598  0.3313
  742SOL    HW1 2225   0.708   1.463   2.737 -0.4114  1.5941 -0.2417
  742SOL    HW2 2226   0.592   1.508   2.851 -2.9583 -2.6110  1.8785
  743SOL     OW 2227   1.275   0.677   2.051  0.1143  0.7146  0.5467
  743SOL    HW1 2228   1.317   0.723   1.967  0.0744  1.8651 -4.4845
  743SOL    HW2 2229   1.328   0.592   2.075 -0.0475 -0.1229  3.2209
  744SOL     OW 2230   2.218   0.800   1.513  0.5373  0.3240 -0.2313
  744SOL    HW1 2231   2.290   0.781   1.446  1.3779  1.4463  1.3685
  744SOL    HW2 2232   2.179   0.892   1.496 -0.0413 -0.0333 -1.4637
  745SOL     OW 2233   1.203   1.405   1.666  0.3711 -0.3388 -0.7639
  745SOL    HW1 2234   1.294   1.422   1.620 -0.7165  2.1203  0.3374
  745SOL    HW2 2235   1.227   1.365   1.757  0.2410  1.5305 -1.2859
  746SOL     OW 2236   2.040   1.646   1.143 -0.1178  0.5905 -0.5230
  746SOL    HW1 2237   1.994   1.601   1.224 -0.9418  3.2112  1.8254
  746SOL    HW2 2238   2.053   1.575   1.073  2.1870  0.8280 -0.1229
  747SOL     OW 2239   2.294   1.430   1.171  0.2355 -0.6567  0.0560
  747SOL    HW1 2240   2.303   1.518   1.218  1.2314 -0.0993 -1.7758
  747SOL    HW2 2241   2.240   1.434   1.090  0.5355 -1.5979  1.6668
  748SOL     OW 2242   0.602   2.112   0.939  0.0042  0.0184  0.2118
  748SOL    HW1 2243   0.508   2.115   0.895  2.8908 -0.9826 -2.8153
  748SOL    HW2 2244   0.608   2.159   1.028 -0.8788  0.3256 -2.7819
  749SOL     OW 2245   2.336   2.810   2.196  0.3993  0.3734  0.3241
  749SOL    HW1 2246   2.257   2.832   2.136  1.6633  0.5759 -0.0877
  749SOL    HW2 2247   2.416   2.792   2.138  2.1047  2.3921  2.9108
  750SOL     OW 2248   2.508   0.466   0.865 -0.3850  0.6309 -0.0346
  750SOL    HW1 2249   2.507   0.433   0.767 -0.3025 -1.5103  0.8945
  750SOL    HW2 2250   2.475   0.564   0.867 -0.9069  2.4077 -3.1597
  751SOL     OW 2251   2.815   2.869   0.406 -0.0856 -0.6535 -0.2500
  751SOL    HW1 2252   2.856   2.788   0.356  0.3567 -1.6036 -1.5800
  751SOL    HW2 2253   2.733   2.900   0.353  1.7560  1.8863  1.1602
  752SOL     OW 2254   3.077   2.841   0.705  0.1569 -0.1345  0.6696
  752SOL    HW1 2255   3.078   2.815   0.604  0.5778  1.8686 -1.8663
  752SOL    HW2 2256   3.044   2.939   0.719  1.1592  1.7767 -1.5077
  753SOL     OW 2257   1.505   0.750   2.371 -0.2315 -0.0189  0.1256
  753SOL    HW1 2258   1.479   0.756   2.272 -3.5766  1.8514  0.1965
  753SOL    HW2 2259   1.430   0.788   2.433 -3.6109  1.5187 -0.9082
  754SOL     OW 2260   1.521   2.217   1.859 -0.0539  0.0837 -0.2058
  754SOL    HW1 2261   1.599   2.258   1.816 -1.0399 -1.3602 -1.3236
  754SOL    HW2 2262   1.536   2.129   1.906 -0.1271  1.3184  2.7554
  755SOL     OW 2263   2.631   0.726   0.616 -0.4430 -0.6576 -0.2816
  755SOL    HW1 2264   2.558   0.714   0.687  0.6690  0.0823  2.2191
  755SOL    HW2 2265   2.622   0.822   0.571  2.7465  0.3893 -1.9402
  756SOL     OW 2266   0.881   1.561   2.745  0.7107  0.0917  0.0039
  756SOL    HW1 2267   0.969   1.525   2.783  1.2313  0.1112 -2.2446
  756SOL    HW2 2268   0.870   1.660   2.763 -0.5556 -1.3525  0.0522
  757SOL     OW 2269   1.080   2.977   0.422 -0.3249 -0.0125 -0.3279
  757SOL    HW1 2270   1.059   3.059   0.482  1.7954 -0.5138 -3.0775
  757SOL    HW2 2271   1.128   2.904   0.475  0.1687  0.5909 -1.6379
  758SOL     OW 2272   1.133   2.941   1.196  0.0761  0.4081  0.1922
  758SOL    HW1 2273   1.096   2.988   1.114 -1.6477  1.6557 -0.1517
  758SOL    HW2 2274   1.189   3.000   1.256  2.8303 -0.4352  1.1234
  759SOL     OW 2275   0.355   0.615   0.611 -0.4413  0.1876 -0.1769
  759SOL    HW1 2276   0.355   0.536   0.672 -1.0966 -2.4453 -0.0620
  759SOL    HW2 2277   0.262   0.639   0.574  0.6720  1.5620 -2.3874
  760SOL     OW 2278   2.556   0.965   1.167  0.0025 -0.1459  0.5029
  760SOL    HW1 2279   2.642   0.922   1.126  0.8990  0.2916  1.2126
  760SOL    HW2 2280   2.567   1.070   1.155 -0.6708  0.9996 -4.3488
  761SOL     OW 2281   1.901   0.588   0.705 -0.9750 -0.2395  0.1410
  761SOL    HW1 2282   1.897   0.502   0.762  1.9762  3.5686 -0.9627
  761SOL    HW2 2283   1.993   0.624   0.713 -0.1405 -0.1496  1.4195
  762SOL     OW 2284   2.062   2.182   0.664 -0.1307  0.2737  0.0787
  762SOL    HW1 2285   2.083   2.153   0.569 -1.2057  0.3685  0.6253
  762SOL    HW2 2286   2.065   2.285   0.677 -0.2494 -0.9300  2.7768
  763SOL     OW 2287   0.794   1.225   1.663 -0.0400 -0.3059  0.1044
  763SOL    HW1 2288   0.705   1.228   1.705  0.5972  1.2878  1.2351
  763SOL    HW2 2289   0.805   1.292   1.585 -0.2817  1.5440 -2.0452
  764SOL     OW 2290   2.459   2.301   2.629 -0.4127  0.2482 -0.0527
  764SOL    HW1 2291   2.378   2.287   2.567  1.4896 -1.5999  0.8439
  764SOL    HW2 2292   2.549   2.298   2.584  3.6524  0.6308 -3.8231
  765SOL     OW 2293   0.826   2.556   0.989  0.3756 -0.2490 -0.0548
  765SOL    HW1 2294   0.770   2.540   0.906  0.3903 -0.2238 -1.0972
  765SOL    HW2 2295   0.805   2.644   1.034  1.7690  0.7982 -0.5673
  766SOL     OW 2296   3.052   1.635   2.357  0.1577  0.6658 -0.1668
  766SOL    HW1 2297   0.032   1.637   2.412  2.5663 -2.1739  0.3173
  766SOL    HW2 2298   3.077   1.623   2.261 -3.9672 -0.0300  0.3266
  767SOL     OW 2299   2.246   0.758   2.558  0.6238  0.1993 -0.6945
  767SOL    HW1 2300   2.294   0.809   2.632  0.6097  0.9959  0.7353
  767SOL    HW2 2301   2.297   0.676   2.529  1.5030  0.6360  1.1758
  768SOL     OW 2302   1.111   0.062   2.375 -0.2465  0.5606 -0.5208
  768SOL    HW1 2303   1.053   0.122   2.434  1.8953  1.1195 -1.7883
  768SOL    HW2 2304   1.060   0.018   2.301 -0.9658 -0.1154 -1.5194
  769SOL     OW 2305   0.165   2.413   0.868  0.1507 -0.6428  0.2572
  769SOL    HW1 2306   0.171   2.372   0.774  0.7014  0.1912  0.7569
  769SOL    HW2 2307   0.073   2.454   0.887 -0.1683  0.9459  1.1328
  770SOL     OW 2308   0.794   0.441   0.093  0.0847  0.5758 -0.0737
  770SOL    HW1 2309   0.847   0.409   0.016 -0.4794  3.9400  2.0470
  770SOL    HW2 2310   0.703   0.392   0.097  2.2208 -1.5617 -1.0461
  771SOL     OW 2311   1.217   1.595   2.539 -0.2440  0.0439  0.9395
  771SOL    HW1 2312   1.244   1.666   2.608  1.9874 -0.6990  2.0270
  771SOL    HW2 2313   1.224   1.498   2.572 -1.2457 -1.5907  1.8563
  772SOL     OW 2314   2.354   3.059   2.283 -1.0047 -0.0621  0.2521
  772SOL    HW1 2315   2.357   2.960   2.267  1.3889 -0.0257  0.9651
  772SOL    HW2 2316   2.278   3.082   2.348 -0.8049  0.8381 -0.5969
  773SOL     OW 2317   1.579   0.757   2.087  0.4085 -0.1960 -0.0989
  773SOL    HW1 2318   1.572   0.807   1.999 -1.3251  0.9379  0.4024
  773SOL    HW2 2319   1.620   0.667   2.080  2.2008  1.2046 -3.1765
  774SOL     OW 2320   1.384   0.655   1.465  0.1987  0.2038  0.0441
  774SOL    HW1 2321   1.301   0.699   1.424 -0.8670  1.1608 -1.4653
  774SOL    HW2 2322   1.463   0.692   1.412  0.3411 -1.5160  0.8986
  775SOL     OW 2323   2.167   2.785   0.172  0.0638 -0.0440 -0.0208
  775SOL    HW1 2324   2.160   2.736   0.085 -1.2348 -0.4591 -0.5279
  775SOL    HW2 2325   2.262   2.774   0.213 -1.9940 -0.5095  1.0118
  776SOL     OW 2326   1.974   0.983   1.877 -0.3667 -0.1983 -0.3675
  776SOL    HW1 2327   1.921   0.904   1.840 -0.2118  1.9834 -2.3226
  776SOL    HW2 2328   2.013   0.958   1.965 -0.8900  0.6295 -2.0970
  777SOL     OW 2329   3.053   1.335   2.343 -1.0334  0.6534  0.8232
  777SOL    HW1 2330   3.006   1.289   2.265 -1.7360  0.6090  0.2326
  777SOL    HW2 2331   2.986   1.383   2.398  0.9265 -2.4560 -3.4160
  778SOL     OW 2332   2.500   1.022   2.559 -0.5365  0.3825  0.3338
  778SOL    HW1 2333   2.455   0.961   2.630  0.3323 -2.4283 -3.7964
  778SOL    HW2 2334   2.570   0.971   2.516 -0.5577  0.8183 -0.4441
  779SOL     OW 2335   2.940   0.417   2.808 -0.2099  0.2024 -0.1711
  779SOL    HW1 2336   3.008   0.471   2.863  0.8213 -0.9187 -1.3189
  779SOL    HW2 2337   2.980   0.379   2.718  0.6119 -0.1443 -2.1154
  780SOL     OW 2338   2.403   2.685   2.427  0.1047 -0.1187  0.3090
  780SOL    HW1 2339   2.392   2.742   2.340  0.9143 -0.0872  1.3719
  780SOL    HW2 2340   2.426   2.588   2.404  0.4454 -0.6013 -1.2813
  781SOL     OW 2341   3.052   1.060   1.948 -0.7574 -0.2091 -0.2837
  781SOL    HW1 2342   3.006   0.970   1.925  0.8176  0.3645 -0.3044
  781SOL    HW2 2343   0.006   1.090   1.877  0.3526  0.1626  0.4992
  782SOL     OW 2344   1.770   2.370   2.813  0.2848  0.0213 -0.4533
  782SOL    HW1 2345   1.678   2.410   2.803 -0.5487  0.6875  0.2982
  782SOL    HW2 2346   1.844   2.440   2.815  1.8832  2.8685 -0.5860
  783SOL     OW 2347   0.866   2.405   1.215 -0.7295  0.5357 -0.0829
  783SOL    HW1 2348   0.942   2.455   1.251 -2.3675 -1.1096  1.6380
  783SOL    HW2 2349   0.845   2.446   1.124  1.7893 -0.2196  0.2741
  784SOL     OW 2350   2.238   0.405   2.289  0.0080 -0.0002 -0.0200
  784SOL    HW1 2351   2.165   0.332   2.282  1.1331  1.0267 -1.3978
  784SOL    HW2 2352   2.281   0.425   2.198  1.1307  1.2436 -1.6858
  785SOL     OW 2353   0.177   0.142   1.214 -0.0979  0.2377  0.9254
  785SOL    HW1 2354   0.213   0.101   1.301  0.8836 -3.2118 -0.9130
  785SOL    HW2 2355   0.152   0.239   1.228 -0.5571 -0.7893 -1.8517
  786SOL     OW 2356   1.370   2.754   0.459 -0.0569  0.2602 -0.0905
  786SOL    HW1 2357   1.293   2.773   0.526  1.5893  0.2125  1.3404
  786SOL    HW2 2358   1.420   2.832   0.418 -2.0651 -1.7839  2.0944
  787SOL     OW 2359   1.279   0.250   0.567  0.4969 -0.6701 -0.3605
  787SOL    HW1 2360   1.293   0.350   0.570  0.7576  0.1937 -0.5163
  787SOL    HW2 2361   1.319   0.203   0.647 -1.0060  1.5096  1.4816
  788SOL     OW 2362   3.077   1.340   1.118  0.1811  0.0421 -0.3466
  788SOL    HW1 2363   3.102   1.383   1.027  0.5515 -0.4989  0.7000
  788SOL    HW2 2364   0.023   1.375   1.203 -0.5093  0.3932  3.4855
  789SOL     OW 2365   2.767   0.869   2.157 -0.7610  0.2111 -0.2226
  789SOL    HW1 2366   2.666   0.877   2.172 -1.7421 -1.1799 -1.0556
  789SOL    HW2 2367   2.827   0.944   2.194  0.4679  0.7269  0.0574
  790SOL     OW 2368   1.069   0.795   2.888  0.7248  0.1642  0.3187
  790SOL    HW1 2369   1.154   0.814   2.838 -1.5109  0.0734 -1.1983
  790SOL    HW2 2370   1.016   0.877   2.912 -1.0503 -0.6551 -0.3913
  791SOL     OW 2371   0.328   2.700   0.119 -0.1168  0.1654 -0.8052
  791SOL    HW1 2372   0.332   2.609   0.155 -0.3803 -0.9619  2.6417
  791SOL    HW2 2373   0.407   2.703   0.055 -0.7115  1.3136  1.2203
  792SOL     OW 2374   0.998   0.683   2.025  0.0717 -0.1096  0.4150
  792SOL    HW1 2375   1.079   0.743   2.029 -1.0153  2.8940 -1.1998
  792SOL    HW2 2376   1.023   0.610   1.953 -1.0862 -0.8039 -0.4808
  793SOL     OW 2377   3.075   0.498   1.091 -0.1087 -0.4322  0.3533
  793SOL    HW1 2378   3.088   0.457   1.185 -0.8045 -0.1834 -0.1996
  793SOL    HW2 2379   3.042   0.426   1.030 -2.2382  1.0460  0.6298
  794SOL     OW 2380   2.956   0.192   2.306 -0.0394  0.0105 -0.1939
  794SOL    HW1 2381   2.969   0.089   2.303 -1.2080 -0.7690  1.1226
  794SOL    HW2 2382   3.038   0.238   2.262  1.8307  1.0790 -2.1921
  795SOL     OW 2383   0.511   1.725   0.054 -0.5600 -0.0109  0.7741
  795SOL    HW1 2384   0.539   1.688   0.146 -0.1032 -0.3968  1.1454
  795SOL    HW2 2385   0.412   1.731   0.054  1.4651  1.3551 -1.8244
  796SOL     OW 2386   2.869   0.728   3.029 -0.3316 -0.1224  0.6798
  796SOL    HW1 2387   2.806   0.701   2.955 -2.3081  0.7792  1.1239
  796SOL    HW2 2388   2.819   0.727   0.008 -1.4981  1.3318 -1.9884
  797SOL     OW 2389   2.157   2.572   2.494 -0.1858 -0.0880  0.8583
  797SOL    HW1 2390   2.157   2.478   2.462  0.5776  1.4237  0.0147
  797SOL    HW2 2391   2.223   2.629   2.438 -0.0807  0.0014  0.7266
  798SOL     OW 2392   2.964   0.001   0.781 -0.4436  0.1605 -0.0187
  798SOL    HW1 2393   3.058   0.039   0.782 -0.7274 -0.6964 -0.7479
  798SOL    HW2 2394   2.905   0.026   0.859  2.6592  0.7705  0.8882
  799SOL     OW 2395   2.891   0.679   1.716  0.1547 -0.2816  0.2867
  799SOL    HW1 2396   2.975   0.677   1.659 -2.3251  1.7586 -0.4620
  799SOL    HW2 2397   2.907   0.748   1.791  0.4514  0.3143 -2.1634
  800SOL     OW 2398   0.525   1.586   0.335  0.1985  0.0721 -0.2481
  800SOL    HW1 2399   0.538   1.482   0.326  0.8247  1.5250 -1.0700
  800SOL    HW2 2400   0.427   1.618   0.337  1.7879  1.2043 -2.0116
  801SOL     OW 2401   1.803   1.920   0.868  0.6801  0.3915  0.9156
  801SOL    HW1 2402   1.880   1.903   0.802  1.6260 -0.2749 -0.8928
  801SOL    HW2 2403   1.715   1.900   0.816 -2.3536 -1.9803 -1.8508
  802SOL     OW 2404   1.360   0.983   3.014 -0.0701  0.1709 -0.5046
  802SOL    HW1 2405   1.296   0.960   2.942  0.7434 -1.3705  0.8728
  802SOL    HW2 2406   1.450   0.936   3.024  4.7872  0.8008  0.7342
  803SOL     OW 2407   1.185   1.856   1.894 -0.0746 -0.3407  0.1557
  803SOL    HW1 2408   1.219   1.805   1.975 -2.0797  0.7240 -0.1648
  803SOL    HW2 2409   1.085   1.854   1.890 -0.7536 -0.3653 -2.0991
  804SOL     OW 2410   1.618   2.381   0.710 -0.6289 -0.7184 -0.2555
  804SOL    HW1 2411   1.656   2.316   0.779 -2.6721  1.1573 -1.5770
  804SOL    HW2 2412   1.518   2.401   0.733 -0.2368  1.4103 -0.3539
  805SOL     OW 2413   0.020   2.254   2.171 -0.2259 -0.3246  0.3154
  805SOL    HW1 2414   3.066   2.260   2.089  1.0725  0.3362 -2.7136
  805SOL    HW2 2415   0.114   2.266   2.139 -0.9467  0.3639 -1.9242
  806SOL     OW 2416   3.017   3.041   0.357  0.1007 -0.2713  0.4017
  806SOL    HW1 2417   2.945   2.970   0.369 -1.6432 -3.0018  2.0692
  806SOL    HW2 2418   3.004   3.089   0.267 -0.2746  0.0080  0.3580
  807SOL     OW 2419   2.410   0.843   2.766  0.1898  0.7022 -0.3850
  807SOL    HW1 2420   2.433   0.758   2.816 -1.9361 -2.4402  4.0178
  807SOL    HW2 2421   2.362   0.910   2.830 -0.2587  2.1201  0.8496
  808SOL     OW 2422   1.252   2.804   0.848  0.1130 -0.6243  0.5881
  808SOL    HW1 2423   1.213   2.763   0.935  0.1040 -3.2558 -2.9201
  808SOL    HW2 2424   1.352   2.801   0.836  2.3025  0.1815 -0.9009
  809SOL     OW 2425   2.910   0.063   0.150 -0.6772  0.0949  0.0059
  809SOL    HW1 2426   2.873   3.084   0.115  1.1889  3.8903 -0.0206
  809SOL    HW2 2427   2.937   0.126   0.074  0.6281 -0.2329 -1.0741
  810SOL     OW 2428   1.304   1.353   0.842  0.0987  0.5426 -0.6733
  810SOL    HW1 2429   1.220   1.346   0.900  0.2031 -1.0673  1.5071
  810SOL    HW2 2430   1.338   1.254   0.832 -1.2750  0.6284  1.9132
  811SOL     OW 2431   1.823   2.839   1.594  0.4642  0.5466  0.0783
  811SOL    HW1 2432   1.755   2.911   1.571 -2.2451  2.5949  3.1630
  811SOL    HW2 2433   1.800   2.815   1.693  0.2400  0.8863 -1.2342
  812SOL     OW 2434   1.559   0.173   0.234  0.2262  0.3963  0.1013
  812SOL    HW1 2435   1.590   0.198   0.326 -0.3599  3.1400 -0.5486
  812SOL    HW2 2436   1.463   0.132   0.240 -1.4108 -0.0688  2.9145
  813SOL     OW 2437   0.956   3.071   2.153  0.1552 -0.4464 -0.5211
  813SOL    HW1 2438   0.876   3.016   2.120 -0.1119  3.0117 -1.8644
  813SOL    HW2 2439   0.955   0.051   2.100 -1.5226 -0.8894  0.2128
  814SOL     OW 2440   0.509   0.138   0.940  0.6622 -0.7237 -0.0179
  814SOL    HW1 2441   0.543   0.092   0.857 -0.6132 -1.2728 -0.3142
  814SOL    HW2 2442   0.410   0.168   0.934 -0.6044 -1.0057 -3.1520
  815SOL     OW 2443   0.233   2.760   0.670 -0.3052  0.2001  0.1041
  815SOL    HW1 2444   0.133   2.788   0.682 -0.1942  0.0028 -0.9843
  815SOL    HW2 2445   0.260   2.731   0.577  2.5360 -2.4228 -0.5314
  816SOL     OW 2446   2.498   1.555   2.695 -0.4255  0.4302 -0.3146
  816SOL    HW1 2447   2.496   1.457   2.704 -0.2174  0.5716  0.2090
  816SOL    HW2 2448   2.450   1.587   2.612  1.5925 -2.0447  1.9867
  817SOL     OW 2449   1.575   2.696   2.920 -0.4498 -0.3610 -0.0285
  817SOL    HW1 2450   1.536   2.609   2.882 -2.0561  2.9407 -0.4137
  817SOL    HW2 2451   1.648   2.733   2.861  1.9564  2.3067 -1.1391
  818SOL     OW 2452   1.399   0.991   0.477 -0.4089  0.3973  0.7463
  818SOL    HW1 2453   1.364   1.086   0.470 -0.6764  2.0628  1.6047
  818SOL    HW2 2454   1.364   0.950   0.390 -1.0057 -0.2802 -0.5430
  819SOL     OW 2455   1.933   2.181   2.727  0.3203  0.5870 -0.2154
  819SOL    HW1 2456   1.875   2.257   2.765 -1.7308 -0.0381 -1.4869
  819SOL    HW2 2457   1.930   2.178   2.628 -1.4912 -0.4733  0.3998
  820SOL     OW 2458   0.862   0.685   0.107 -0.2139 -0.2765  0.4802
  820SOL    HW1 2459   0.838   0.728   0.018 -1.4697 -2.8229  1.5839
  820SOL    HW2 2460   0.819   0.591   0.112  1.1234  0.7757 -1.0540
  821SOL     OW 2461   0.648   0.396   1.334  0.6142 -0.2305  0.1951
  821SOL    HW1 2462   0.733   0.350   1.305  3.5890  1.8531 -0.2826
  821SOL    HW2 2463   0.649   0.500   1.313  2.2589 -0.5608 -1.1620
  822SOL     OW 2464   1.405   2.580   2.409 -0.1754  0.2136  0.2340
  822SOL    HW1 2465   1.491   2.531   2.434 -0.7714  1.1871 -0.4319
  822SOL    HW2 2466   1.367   2.562   2.314 -0.7942  2.1119 -1.5557
  823SOL     OW 2467   0.745   0.994   2.146 -0.2844  0.1852 -0.0369
  823SOL    HW1 2468   0.840   1.025   2.139 -2.3513 -0.4678 -0.2064
  823SOL    HW2 2469   0.707   1.059   2.215 -0.0331 -0.5323 -1.9492
  824SOL     OW 2470   2.517   3.025   1.876 -0.2948 -0.1441 -0.5003
  824SOL    HW1 2471   2.545   2.936   1.920  3.2117 -2.8091  2.6585
  824SOL    HW2 2472   2.597   3.067   1.833 -0.9520 -1.2002 -1.4931
  825SOL     OW 2473   0.799   1.352   0.156  0.1824  0.3512  0.0261
  825SOL    HW1 2474   0.840   1.263   0.116  1.2394 -0.8626  0.5353
  825SOL    HW2 2475   0.821   1.426   0.092  0.6119 -2.9702 -0.2452
  826SOL     OW 2476   2.070   0.470   2.559  0.1777 -0.6211 -0.5511
  826SOL    HW1 2477   2.127   0.397   2.605  1.4092  1.0181  2.8175
  826SOL    HW2 2478   1.999   0.441   2.497  0.5909  1.4056  2.3147
  827SOL     OW 2479   0.740   2.045   2.642  0.2831  0.2244 -0.7716
  827SOL    HW1 2480   0.686   2.071   2.558 -1.0811 -1.1732  0.9346
  827SOL    HW2 2481   0.696   2.072   2.731  0.6875  1.3526  0.6376
  828SOL     OW 2482   2.694   0.056   1.418  0.3580  0.1876  0.2494
  828SOL    HW1 2483   2.618   0.097   1.369  2.1067 -3.1633 -0.2484
  828SOL    HW2 2484   2.783   0.101   1.396  0.0900 -1.1518  0.0492
  829SOL     OW 2485   1.274   1.750   1.525 -0.0473  0.0480 -0.1660
  829SOL    HW1 2486   1.336   1.668   1.537  0.0626 -0.4574 -0.3101
  829SOL    HW2 2487   1.283   1.816   1.602 -0.8117  0.8224  0.7763
  830SOL     OW 2488   0.384   0.972   1.787 -0.1381 -0.4939 -0.1418
  830SOL    HW1 2489   0.440   0.926   1.718  3.0894  0.5589  0.1008
  830SOL    HW2 2490   0.289   0.944   1.766  1.6075  0.5947  0.7764
  831SOL     OW 2491   0.165   1.954   0.204 -0.0465  0.1147  0.1464
  831SOL    HW1 2492   0.068   1.985   0.218 -2.6914  0.4223  0.8309
  831SOL    HW2 2493   0.233   2.020   0.240  1.9234  0.8886  0.3739
  832SOL     OW 2494   0.881   0.028   2.766  0.2573 -0.0333 -0.0780
  832SOL    HW1 2495   0.979   0.002   2.782 -1.0291  0.3598 -1.6700
  832SOL    HW2 2496   0.830   0.033   2.856  3.0564 -2.6476  1.4432
  833SOL     OW 2497   0.124   0.425   1.895  0.5563  0.4389 -0.3704
  833SOL    HW1 2498   0.192   0.389   1.960  3.1120 -0.6046 -2.5082
  833SOL    HW2 2499   0.104   0.523   1.914  2.4021 -0.8584  0.8978
  834SOL     OW 2500   0.347   0.736   1.061 -0.5227  0.4358 -0.0236
  834SOL    HW1 2501   0.411   0.813   1.052 -0.2579 -1.6812 -2.8416
  834SOL    HW2 2502   0.279   0.725   0.986  1.4112 -2.8305  2.2155
  835SOL     OW 2503   2.557   2.866   1.008  0.3404 -0.5492  0.1461
  835SOL    HW1 2504   2.535   2.931   0.933 -1.2319 -0.1723 -2.9501
  835SOL    HW2 2505   2.655   2.840   1.014 -2.1801 -0.5231  1.6942
  836SOL     OW 2506   0.843   1.819   2.806 -0.2213  0.2015  0.4648
  836SOL    HW1 2507   0.783   1.873   2.747  0.1019  0.9133 -0.9849
  836SOL    HW2 2508   0.930   1.870   2.826  2.6063  1.9036  1.4213
  837SOL     OW 2509   2.118   2.149   2.933 -0.4141  0.2427  0.0972
  837SOL    HW1 2510   2.042   2.144   2.862 -0.9557 -0.6610 -2.6905
  837SOL    HW2 2511   2.172   2.231   2.911  2.7019  0.2953 -0.9662
  838SOL     OW 2512   2.936   1.214   2.137  0.0917  0.3683  0.1876
  838SOL    HW1 2513   2.866   1.158   2.183  0.0166  0.3772  3.0259
  838SOL    HW2 2514   2.962   1.175   2.046  0.5532  0.4988 -0.8058
  839SOL     OW 2515   0.871   1.086   0.052  0.3232  0.2941  0.1972
  839SOL    HW1 2516   0.849   1.129   3.067  0.1163  0.4593  0.6407
  839SOL    HW2 2517   0.968   1.054   0.048  0.5399  2.3589 -0.7869
  840SOL     OW 2518   1.616   0.678   0.384  0.1362 -0.2495  0.4069
  840SOL    HW1 2519   1.620   0.780   0.380 -0.2370  1.4120  2.4461
  840SOL    HW2 2520   1.569   0.650   0.468  2.7285 -1.3930 -0.2554
  841SOL     OW 2521   0.640   2.856   0.797  0.2525  0.1760 -0.4310
  841SOL    HW1 2522   0.661   2.767   0.754 -1.1703 -2.3707 -3.1715
  841SOL    HW2 2523   0.658   2.931   0.731 -0.4564  3.1394 -0.5608
  842SOL     OW 2524   0.170   0.528   0.257 -0.1654 -0.3485 -0.1312
  842SOL    HW1 2525   0.105   0.557   0.185  1.0953  0.4673  1.0696
  842SOL    HW2 2526   0.157   0.578   0.344 -0.7647 -0.9296  1.7684
  843SOL     OW 2527   0.652   0.524   1.619  0.4615  0.5334  0.2620
  843SOL    HW1 2528   0.660   0.596   1.688 -0.0931 -1.0277  0.6420
  843SOL    HW2 2529   0.583   0.552   1.551 -1.5290 -0.6800  0.9879
  844SOL     OW 2530   1.984   2.531   2.824  0.2888 -0.1027 -0.2465
  844SOL    HW1 2531   1.966   2.563   2.921 -1.2467 -0.5826  3.1651
  844SOL    HW2 2532   2.081   2.501   2.811  2.0130 -0.7285  1.9205
  845SOL     OW 2533   2.782   0.109   2.115 -0.4074 -0.1999  0.0321
  845SOL    HW1 2534   2.687   0.116   2.153 -0.8038 -3.5257  1.1144
  845SOL    HW2 2535   2.851   0.143   2.183  0.6955 -1.2723  1.9675
  846SOL     OW 2536   1.899   1.810   2.541  0.1919  0.0285 -0.1680
  846SOL    HW1 2537   1.931   1.784   2.635  0.8900  0.7292  1.2236
  846SOL    HW2 2538   1.980   1.863   2.504  0.4894  0.4050 -0.4585
  847SOL     OW 2539   2.081   2.766   2.072  0.0143  0.0360  0.4552
  847SOL    HW1 2540   1.989   2.805   2.051 -0.4638 -1.4883 -0.2105
  847SOL    HW2 2541   2.073   2.680   2.128  0.1616 -1.9325  1.2508
  848SOL     OW 2542   0.282   2.858   0.353  0.0538 -0.7600 -0.1848
  848SOL    HW1 2543   0.218   2.942   0.352 -1.6120 -2.0763 -0.1918
  848SOL    HW2 2544   0.283   2.811   0.267 -1.3056 -0.2017  1.9422
  849SOL     OW 2545   0.628   2.614   1.268 -0.5221 -0.1036 -0.7006
  849SOL    HW1 2546   0.675   2.611   1.361  0.5807  0.1189  0.8084
  849SOL    HW2 2547   0.680   2.674   1.204 -0.9942  1.1829  0.8449
  850SOL     OW 2548   0.067   1.502   0.915 -0.4014 -0.6472  0.5370
  850SOL    HW1 2549   3.084   1.539   0.885  0.4309 -0.5058 -1.0989
  850SOL    HW2 2550   0.139   1.572   0.937  3.3173  1.9765 -0.4992
  851SOL     OW 2551   0.008   0.614   2.888  0.6871 -0.1225  0.4028
  851SOL    HW1 2552   0.000   0.713   2.907  0.1368 -1.9833 -2.4568
  851SOL    HW2 2553   0.100   0.595   2.845  4.0687 -0.5735  0.2446
  852SOL     OW 2554   1.577   2.210   2.378  0.4089  0.1054  0.1391
  852SOL    HW1 2555   1.518   2.129   2.408  0.6039 -1.5516  1.2359
  852SOL    HW2 2556   1.665   2.166   2.353  0.1127 -0.1364  1.6624
  853SOL     OW 2557   0.747   1.976   0.705  0.0894  0.3404 -0.2619
  853SOL    HW1 2558   0.715   1.955   0.797  2.2726  0.0117 -0.7491
  853SOL    HW2 2559   0.719   1.899   0.643  3.1490 -1.5832  0.4005
  854SOL     OW 2560   1.566   1.129   1.825 -0.3087 -0.6861 -0.0284
  854SOL    HW1 2561   1.500   1.120   1.903  1.4644  1.4087 -0.3770
  854SOL    HW2 2562   1.536   1.065   1.758 -2.0011  2.8636  0.1998
  855SOL     OW 2563   0.466   2.001   0.068 -0.0556 -0.1122 -0.1787
  855SOL    HW1 2564   0.492   1.904   0.050 -0.5362  0.9615  3.1292
  855SOL    HW2 2565   0.436   2.053   3.095  1.5449 -2.3482  1.5117
  856SOL     OW 2566   0.109   0.069   1.607 -0.5590 -0.0391  0.2027
  856SOL    HW1 2567   0.051   0.019   1.541 -0.5762  2.1497 -1.3575
  856SOL    HW2 2568   0.049   0.124   1.672 -0.6305  1.5184  0.0008
  857SOL     OW 2569   0.563   0.301   1.727 -0.6419  0.2890 -0.0761
  857SOL    HW1 2570   0.475   0.333   1.768  0.1027 -0.5651  3.2474
  857SOL    HW2 2571   0.604   0.370   1.660  0.4139  2.5576 -0.6581
  858SOL     OW 2572   3.021   1.951   2.551 -0.0761 -0.1466 -0.4881
  858SOL    HW1 2573   2.924   1.936   2.572 -0.1431  2.0071 -0.4912
  858SOL    HW2 2574   3.037   2.027   2.481 -2.9394 -1.3055 -0.5325
  859SOL     OW 2575   2.083   2.439   0.728  0.6134  0.0479  0.1280
  859SOL    HW1 2576   2.116   2.422   0.824 -0.8654  2.3904 -0.6423
  859SOL    HW2 2577   1.999   2.494   0.740  2.6843  1.8606  1.9729
  860SOL     OW 2578   1.876   0.609   0.429  0.5990  0.1950 -0.5737
  860SOL    HW1 2579   1.872   0.584   0.526 -1.3487  3.6522 -2.0222
  860SOL    HW2 2580   1.786   0.635   0.395  1.4054  0.1896 -2.3267
  861SOL     OW 2581   0.497   0.401   1.051  0.3080  0.5301 -0.1562
  861SOL    HW1 2582   0.412   0.403   1.114 -2.8676  1.7239  2.4109
  861SOL    HW2 2583   0.514   0.301   1.022 -0.5680 -1.4186 -2.8386
  862SOL     OW 2584   2.290   0.564   1.658 -0.5857  0.2916 -0.0664
  862SOL    HW1 2585   2.277   0.466   1.621 -2.5947 -1.7045  1.2881
  862SOL    HW2 2586   2.291   0.629   1.582  0.3711 -1.1317  1.0192
  863SOL     OW 2587   0.467   1.380   1.134  0.1864 -0.1948  0.4064
  863SOL    HW1 2588   0.432   1.317   1.066 -1.1971  0.8216 -0.6275
  863SOL    HW2 2589   0.403   1.456   1.160  0.7667 -1.7259 -1.0376
  864SOL     OW 2590   2.489   0.111   2.116  0.2540 -0.0247  0.2576
  864SOL    HW1 2591   2.482   0.054   2.028 -0.9956  0.8242 -1.1553
  864SOL    HW2 2592   2.426   0.066   2.185 -1.2754 -2.3487 -1.6284
  865SOL     OW 2593   1.656   0.494   2.018  0.4004  0.0992  0.0578
  865SOL    HW1 2594   1.643   0.449   1.928  2.0153  0.0055  0.2703
  865SOL    HW2 2595   1.755   0.516   2.028 -1.8198  0.9916  0.0820
  866SOL     OW 2596   2.517   3.003   0.762  0.8640 -0.2166  0.4678
  866SOL    HW1 2597   2.453   2.990   0.685 -0.7614  0.3309  0.9143
  866SOL    HW2 2598   2.608   2.979   0.734 -1.1319  0.1726  1.8846
  867SOL     OW 2599   2.630   2.654   0.696  0.3355  0.1902  0.3809
  867SOL    HW1 2600   2.674   2.743   0.708 -0.8472 -2.1211 -0.1587
  867SOL    HW2 2601   2.529   2.664   0.685  0.9526  1.3500 -3.0638
  868SOL     OW 2602   1.508   1.681   2.668  0.1652 -0.1115 -0.0665
  868SOL    HW1 2603   1.410   1.697   2.690  3.2020  1.6893 -1.8789
  868SOL    HW2 2604   1.565   1.702   2.749 -0.9194  1.8891 -2.0936
  869SOL     OW 2605   2.292   1.817   0.778  0.4874 -0.1114 -0.6241
  869SOL    HW1 2606   2.288   1.819   0.674 -0.2015  0.3272 -0.3512
  869SOL    HW2 2607   2.284   1.916   0.807  0.4593  0.8114 -0.0146
  870SOL     OW 2608   2.710   1.860   0.328  0.0144  0.3400 -0.0667
  870SOL    HW1 2609   2.808   1.823   0.334  2.3380  0.2303 -0.0532
  870SOL    HW2 2610   2.709   1.928   0.249  0.7400  0.6674  0.3193
  871SOL     OW 2611   0.146   0.935   1.658 -0.1276 -0.4214  0.0514
  871SOL    HW1 2612   0.175   0.912   1.560 -0.7353 -0.8850  0.0582
  871SOL    HW2 2613   0.092   1.022   1.664 -0.1376  0.6671  1.1816
  872SOL     OW 2614   0.113   1.792   2.098  0.2843 -0.1713 -0.1287
  872SOL    HW1 2615   0.065   1.707   2.079  0.1961  1.0391 -0.2090
  872SOL    HW2 2616   0.211   1.783   2.063  0.2031  2.9262  0.8612
  873SOL     OW 2617   0.159   2.655   1.458 -0.9214  0.1832  0.0826
  873SOL    HW1 2618   0.109   2.615   1.378 -2.0546  1.4939 -1.0091
  873SOL    HW2 2619   0.237   2.594   1.486 -0.5864  2.3020  0.4418
  874SOL     OW 2620   0.755   0.734   2.123  0.4236 -0.1242 -0.2042
  874SOL    HW1 2621   0.739   0.832   2.127  2.4715  2.3420  0.4607
  874SOL    HW2 2622   0.841   0.718   2.071 -1.8513  1.0602 -0.4855
  875SOL     OW 2623   2.821   2.767   1.020 -0.1293  0.7490  0.4574
  875SOL    HW1 2624   2.863   2.725   0.938 -0.1700 -0.0601  0.6128
  875SOL    HW2 2625   2.873   2.746   1.104 -1.1187 -2.4021  0.0667
  876SOL     OW 2626   1.064   1.234   0.428  0.1916  0.0338 -0.3983
  876SOL    HW1 2627   1.020   1.215   0.518 -0.1466 -2.4324  1.3046
  876SOL    HW2 2628   1.163   1.250   0.440 -0.5288  2.2755  0.7712
  877SOL     OW 2629   1.198   0.725   1.111  0.3443  0.1949 -0.3801
  877SOL    HW1 2630   1.098   0.695   1.124  1.6726 -1.2231 -1.6391
  877SOL    HW2 2631   1.264   0.645   1.117  1.6171 -1.3478  0.7468
  878SOL     OW 2632   2.383   2.035   0.116 -0.2176 -0.6060 -0.0126
  878SOL    HW1 2633   2.411   2.123   0.153 -1.4266 -1.9082 -0.1412
  878SOL    HW2 2634   2.380   2.036   0.014  0.4913 -1.1758 -1.0835
  879SOL     OW 2635   2.427   2.065   1.831 -0.0528  0.3097  0.2699
  879SOL    HW1 2636   2.476   1.980   1.859 -0.6584  2.9372 -1.3193
  879SOL    HW2 2637   2.468   2.152   1.874  2.4928  2.1331 -1.1107
  880SOL     OW 2638   1.230   2.347   1.114  0.9943 -0.2002  0.2332
  880SOL    HW1 2639   1.307   2.396   1.157 -1.3891 -2.1506 -0.6003
  880SOL    HW2 2640   1.174   2.290   1.180 -0.5054 -2.3423  1.3407
  881SOL     OW 2641   1.024   1.990   0.638 -0.2864  0.2327 -0.8700
  881SOL    HW1 2642   1.049   2.087   0.630 -0.3016 -2.7939  1.0102
  881SOL    HW2 2643   0.925   1.983   0.670 -2.0758  0.8955  1.3026
  882SOL     OW 2644   1.933   1.719   2.831  0.1341  0.4625 -0.1114
  882SOL    HW1 2645   1.930   1.619   2.820 -1.1770  1.8714  1.6746
  882SOL    HW2 2646   2.004   1.749   2.896  1.9972 -1.4403 -0.2965
  883SOL     OW 2647   1.597   0.714   1.297  0.0079 -0.4541  0.2470
  883SOL    HW1 2648   1.551   0.770   1.232  2.9604 -1.0762  4.2814
  883SOL    HW2 2649   1.632   0.635   1.242 -1.8060  0.8342 -1.7353
  884SOL     OW 2650   2.891   2.645   0.788  0.9653  0.0847  0.2973
  884SOL    HW1 2651   2.820   2.620   0.721 -1.6559 -4.5274 -2.3804
  884SOL    HW2 2652   2.958   2.712   0.750  2.4508 -0.5516 -1.4358
  885SOL     OW 2653   0.809   1.352   2.046 -0.3168  0.4683 -0.3162
  885SOL    HW1 2654   0.706   1.334   2.067 -1.8592  2.1097 -3.2419
  885SOL    HW2 2655   0.863   1.264   2.055  1.1416  0.1481  1.6026
  886SOL     OW 2656   0.799   1.430   2.525  0.6237 -0.2895  0.3606
  886SOL    HW1 2657   0.826   1.493   2.600  2.3979 -0.2811 -1.8487
  886SOL    HW2 2658   0.826   1.335   2.549  0.7794 -1.9102  1.2283
  887SOL     OW 2659   1.599   0.261   1.081 -0.1625 -0.1567  0.3898
  887SOL    HW1 2660   1.650   0.256   0.987  3.3006 -1.3012 -4.8877
  887SOL    HW2 2661   1.517   0.199   1.081  0.0165 -0.8906  0.9593
  888SOL     OW 2662   2.062   0.621   2.247 -0.3008  0.1492  0.6119
  888SOL    HW1 2663   2.083   0.712   2.291 -0.0561  4.2999 -0.0305
  888SOL    HW2 2664   2.130   0.554   2.270 -2.8702  1.7522  0.4573
  889SOL     OW 2665   2.776   1.815   0.763 -0.0315 -0.0372  0.0708
  889SOL    HW1 2666   2.695   1.832   0.698 -2.1180  1.9002 -3.3170
  889SOL    HW2 2667   2.769   1.865   0.850  1.4239  0.6552  0.5384
  890SOL     OW 2668   1.102   2.224   0.233  0.1388 -0.0075 -0.2978
  890SOL    HW1 2669   1.191   2.268   0.264  2.7078  0.0527  0.1066
  890SOL    HW2 2670   1.084   2.128   0.270 -0.1703 -2.0648  2.9295
  891SOL     OW 2671   2.744   0.611   2.757 -0.2881 -0.5397  0.3731
  891SOL    HW1 2672   2.819   0.547   2.770 -3.4782 -3.1330  2.2587
  891SOL    HW2 2673   2.735   0.623   2.657 -0.1773 -0.4240  0.8275
  892SOL     OW 2674   2.959   2.037   0.927 -0.6882  0.0334 -0.1218
  892SOL    HW1 2675   3.044   2.092   0.932 -0.5876  2.5603  1.7281
  892SOL    HW2 2676   2.968   1.973   1.004  0.2162  1.1415  0.7675
  893SOL     OW 2677   1.330   0.174   1.108  0.3295 -0.1980 -0.0460
  893SOL    HW1 2678   1.271   0.162   1.026  0.3840 -3.7923 -0.3388
  893SOL    HW2 2679   1.298   0.252   1.166 -2.2143 -3.1340  0.2334
  894SOL     OW 2680   2.978   0.307   0.950  0.0912  0.1454 -0.0910
  894SOL    HW1 2681   2.938   0.324   0.858 -2.2065 -1.1721  1.8133
  894SOL    HW2 2682   2.942   0.220   0.983 -1.8802  1.2911 -0.4666
  895SOL     OW 2683   1.629   1.832   2.476 -0.6017  0.0463  0.3093
  895SOL    HW1 2684   1.727   1.837   2.497 -1.5279  0.0569 -1.4141
  895SOL    HW2 2685   1.584   1.781   2.553 -2.2787 -2.2809 -1.4378
  896SOL     OW 2686   1.981   0.657   1.474  0.5212  0.1498 -0.1430
  896SOL    HW1 2687   2.072   0.703   1.474 -2.2444  0.0986  0.5777
  896SOL    HW2 2688   1.940   0.625   1.385  0.1386  2.0190  0.0311
  897SOL     OW 2689   0.238   1.092   1.250  0.8118 -0.2646  0.5079
  897SOL    HW1 2690   0.319   1.151   1.265 -0.0488  1.8494  0.3660
  897SOL    HW2 2691   0.248   1.003   1.291 -0.0184  2.1321  1.1212
  898SOL     OW 2692   1.804   2.434   2.275 -0.7963 -0.0835  0.7079
  898SOL    HW1 2693   1.748   2.437   2.359  3.1574 -2.0032 -1.2447
  898SOL    HW2 2694   1.768   2.362   2.213  1.3688  1.8287 -1.3508
  899SOL     OW 2695   1.217   1.772   1.033  0.3643 -0.7062  0.5600
  899SOL    HW1 2696   1.257   1.801   1.126 -0.6875  0.1774 -0.0580
  899SOL    HW2 2697   1.223   1.842   0.957 -0.5661  2.5572 -2.4953
  900SOL     OW 2698   0.952   2.734   2.329  0.2348  0.1027  0.5476
  900SOL    HW1 2699   0.918   2.638   2.329 -2.3762  0.8267 -0.4620
  900SOL    HW2 2700   0.994   2.761   2.416 -2.4129 -0.1460  1.1143
  901SOL     OW 2701   0.808   1.627   2.332  0.6457 -0.0432  0.5541
  901SOL    HW1 2702   0.714   1.663   2.341 -0.7046 -1.1374  0.7489
  901SOL    HW2 2703   0.810   1.538   2.384  2.7169 -2.7498  0.4533
  902SOL     OW 2704   2.294   0.988   2.965  0.4890 -0.4024  0.1870
  902SOL    HW1 2705   2.249   1.075   2.932  0.1627  0.0238 -2.3756
  902SOL    HW2 2706   2.250   0.954   3.054  2.5844 -0.5217  0.9446
  903SOL     OW 2707   1.856   1.444   2.787 -0.4632  0.2706 -0.9655
  903SOL    HW1 2708   1.785   1.407   2.856 -0.0900 -1.1446 -0.3241
  903SOL    HW2 2709   1.827   1.423   2.695  1.0598  1.2130  4.6529
  904SOL     OW 2710   1.384   1.052   2.007 -0.0989  0.3665 -0.8212
  904SOL    HW1 2711   1.351   0.965   1.966  1.3624  0.3209 -0.1347
  904SOL    HW2 2712   1.385   1.043   2.106  0.0402 -0.9363  0.3230
  905SOL     OW 2713   2.743   0.555   1.001 -0.1084  0.5449  0.0738
  905SOL    HW1 2714   2.800   0.579   0.920  0.6573  0.5708  0.2450
  905SOL    HW2 2715   2.666   0.496   0.972  0.7631  1.3663  2.9524
  906SOL     OW 2716   0.466   1.423   0.707  0.0370 -0.2251  0.1346
  906SOL    HW1 2717   0.547   1.379   0.672 -1.4333  2.0546  0.1305
  906SOL    HW2 2718   0.381   1.375   0.676  0.7728  0.8091  0.5932
  907SOL     OW 2719   1.311   0.070   0.346  0.1452 -0.0364 -0.3253
  907SOL    HW1 2720   1.220   0.034   0.318  0.2225  1.6146 -3.2929
  907SOL    HW2 2721   1.306   0.124   0.435  2.1585 -1.1720  0.7821
  908SOL     OW 2722   1.276   2.723   1.571  0.0967 -0.1225 -0.0879
  908SOL    HW1 2723   1.292   2.745   1.473 -1.2010 -0.0625  1.5702
  908SOL    HW2 2724   1.193   2.772   1.610 -1.4483  0.5010  1.6735
  909SOL     OW 2725   2.472   0.582   1.873  0.0627 -0.5815  0.5796
  909SOL    HW1 2726   2.461   0.571   1.976 -2.5532  0.7280 -0.7948
  909SOL    HW2 2727   2.390   0.545   1.821 -1.6140 -1.7669  0.1685
  910SOL     OW 2728   1.400   3.060   2.330 -0.4957  0.7439  0.4920
  910SOL    HW1 2729   1.371   0.036   2.370  0.6549 -3.2489 -0.6146
  910SOL    HW2 2730   1.332   3.028   2.259 -0.6064 -2.1306  0.9158
  911SOL     OW 2731   2.361   1.624   2.474 -0.3103  0.5283  0.3260
  911SOL    HW1 2732   2.410   1.611   2.385 -0.2373 -0.1707 -0.8238
  911SOL    HW2 2733   2.260   1.593   2.474 -4.2761 -3.1590 -0.1816
  912SOL     OW 2734   2.289   2.176   1.377 -0.4802 -0.6267 -0.2551
  912SOL    HW1 2735   2.361   2.236   1.339 -0.3707  2.5946  1.4350
  912SOL    HW2 2736   2.219   2.235   1.422  1.9197 -0.0840 -0.4589
  913SOL     OW 2737   2.533   2.328   1.866  0.2526  0.0664 -0.7092
  913SOL    HW1 2738   2.617   2.386   1.870 -1.1854 -1.0503 -0.5361
  913SOL    HW2 2739   2.468   2.368   1.799 -0.2409  1.4475 -2.4262
  914SOL     OW 2740   2.151   2.127   1.132 -0.2458 -0.6202 -0.2194
  914SOL    HW1 2741   2.218   2.132   1.212  0.2854 -1.4288 -0.5671
  914SOL    HW2 2742   2.107   2.034   1.121  1.0922  0.6644 -1.0524
  915SOL     OW 2743   1.022   2.610   1.750 -0.2808 -0.2823  0.2234
  915SOL    HW1 2744   0.989   2.527   1.800 -2.2575  1.2085 -3.0522
  915SOL    HW2 2745   1.087   2.589   1.675 -3.5820 -0.3319 -0.5693
  916SOL     OW 2746   0.076   2.167   0.993  0.3450  0.1095  0.6176
  916SOL    HW1 2747   0.137   2.242   0.960  1.1104 -0.7531  0.7448
  916SOL    HW2 2748   0.131   2.087   1.029  0.8198  0.1575  1.0376
  917SOL     OW 2749   2.679   1.122   2.822  0.3859 -0.1347  0.6945
  917SOL    HW1 2750   2.681   1.033   2.771  1.1980  0.5153  3.0945
  917SOL    HW2 2751   2.763   1.177   2.805  2.5498 -1.6093 -0.8412
  918SOL     OW 2752   1.659   2.041   2.785  0.0115  0.3059  0.7431
  918SOL    HW1 2753   1.758   2.056   2.787 -0.7123 -0.2718  0.6353
  918SOL    HW2 2754   1.645   1.946   2.815  1.4928 -0.1474 -0.2518
  919SOL     OW 2755   1.856   2.401   1.013  0.2491 -0.3101 -0.2984
  919SOL    HW1 2756   1.835   2.312   0.976 -0.1285  0.6361  3.4945
  919SOL    HW2 2757   1.914   2.382   1.095 -1.6359  1.5441 -4.2971
  920SOL     OW 2758   1.034   0.534   2.801  0.6579 -0.4078  0.2476
  920SOL    HW1 2759   1.123   0.503   2.761 -1.6117 -2.3286 -0.4219
  920SOL    HW2 2760   1.046   0.629   2.844  2.6894  1.2966  1.7214
  921SOL     OW 2761   0.108   2.980   2.600 -0.2696 -0.4821 -0.2481
  921SOL    HW1 2762   0.117   2.915   2.526 -1.7626  0.0823  0.6711
  921SOL    HW2 2763   0.107   2.936   2.691  0.9620  3.1602 -2.4955
  922SOL     OW 2764   2.092   1.753   1.869  0.1787 -0.5480 -0.3172
  922SOL    HW1 2765   2.041   1.707   1.794 -0.3194  2.0429 -1.9691
  922SOL    HW2 2766   2.161   1.694   1.914 -1.2692 -1.7266  0.7623
  923SOL     OW 2767   0.345   1.831   2.533 -0.6958 -0.6556 -0.0493
  923SOL    HW1 2768   0.266   1.865   2.482  0.7612  1.4628  0.6746
  923SOL    HW2 2769   0.390   1.909   2.584  1.6456 -1.2728  1.8656
  924SOL     OW 2770   1.820   0.382   2.401  0.1525 -0.8238  0.3574
  924SOL    HW1 2771   1.760   0.320   2.456  1.0737 -1.6431  1.4054
  924SOL    HW2 2772   1.767   0.457   2.365  0.7302 -2.7209  2.4075
  925SOL     OW 2773   2.966   0.964   0.013  0.2036 -0.0716  0.4088
  925SOL    HW1 2774   2.909   0.891   3.082  0.4717  0.4528  0.4877
  925SOL    HW2 2775   2.919   1.009   0.097  2.3623  0.8069  3.8046
  926SOL     OW 2776   3.001   0.366   0.685 -0.1684 -0.0925  0.0594
  926SOL    HW1 2777   3.008   0.325   0.590  0.0184 -1.7651 -2.8486
  926SOL    HW2 2778   2.964   0.459   0.680 -1.3658 -3.1532  1.0008
  927SOL     OW 2779   1.377   1.084   0.757 -0.4021  0.0305 -0.0680
  927SOL    HW1 2780   1.426   1.112   0.671 -0.1729 -1.9393 -2.6125
  927SOL    HW2 2781   1.302   1.016   0.735  1.7854 -1.7957 -1.2505
  928SOL     OW 2782   0.157   3.058   2.157 -0.3829  0.0719  0.4918
  928SOL    HW1 2783   0.158   3.045   2.054 -0.2057  1.0147 -1.8560
  928SOL    HW2 2784   0.213   0.032   2.182 -0.6869  0.8693 -1.0298
  929SOL     OW 2785   2.667   0.679   1.368  0.2266  0.1752  0.5089
  929SOL    HW1 2786   2.746   0.738   1.352  0.1138 -0.6924 -0.8114
  929SOL    HW2 2787   2.657   0.652   1.468 -2.7326  2.4283  1.9561
  930SOL     OW 2788   1.823   2.560   0.803  0.4554 -0.3324  0.0411
  930SOL    HW1 2789   1.766   2.498   0.749  2.6671  0.6195  2.2763
  930SOL    HW2 2790   1.856   2.510   0.886 -0.6078 -1.7778  1.5632
  931SOL     OW 2791   2.049   0.899   1.080 -0.0756 -0.5201  0.0957
  931SOL    HW1 2792   2.005   0.913   0.984 -0.3028  2.1512 -4.3342
  931SOL    HW2 2793   2.151   0.895   1.069  1.5267 -0.4631  0.2311
  932SOL     OW 2794   0.130   0.392   1.325 -0.1252 -0.1338  0.1299
  932SOL    HW1 2795   0.068   0.400   1.405 -1.3979 -0.1263 -1.1670
  932SOL    HW2 2796   0.229   0.394   1.354 -1.2777  1.3165  0.0564
  933SOL     OW 2797   1.953   1.888   2.118  0.5760  0.2626 -0.2904
  933SOL    HW1 2798   1.953   1.797   2.068  0.9306 -1.2711 -2.9579
  933SOL    HW2 2799   2.042   1.930   2.115 -1.1275  1.0393 -3.2186
  934SOL     OW 2800   1.692   3.066   1.508 -0.0100 -0.1869  0.6084
  934SOL    HW1 2801   1.703   0.022   1.427  2.2425 -0.7451  0.8307
  934SOL    HW2 2802   1.600   3.025   1.496  0.6604 -0.3690 -0.7966
  935SOL     OW 2803   0.271   0.870   1.437 -0.2252 -0.1986  0.3480
  935SOL    HW1 2804   0.257   0.787   1.385  3.1010 -2.1598 -1.2498
  935SOL    HW2 2805   0.367   0.871   1.475  0.8331 -2.9164 -0.0915
  936SOL     OW 2806   2.690   0.443   1.233 -0.2820 -0.1902  0.2511
  936SOL    HW1 2807   2.707   0.487   1.143 -0.9169  1.2911 -1.5378
  936SOL    HW2 2808   2.661   0.517   1.294 -0.7958 -0.0548 -0.2190
  937SOL     OW 2809   1.044   3.018   0.937 -0.0310  0.1396  0.0821
  937SOL    HW1 2810   0.951   2.992   0.971 -1.0613 -2.4116 -0.4585
  937SOL    HW2 2811   1.090   2.945   0.881 -1.9910  2.2841 -3.6124
  938SOL     OW 2812   2.886   2.191   0.703  0.5371 -0.1079 -0.1743
  938SOL    HW1 2813   2.887   2.121   0.777 -0.5304 -0.5015  0.8741
  938SOL    HW2 2814   2.787   2.199   0.670 -0.4758  0.5636 -1.3385
  939SOL     OW 2815   0.027   1.846   2.824 -0.3915 -0.3455  0.0917
  939SOL    HW1 2816   0.023   1.845   2.717 -0.0588  0.7623 -3.2856
  939SOL    HW2 2817   0.080   1.760   2.844 -0.4700  1.2394  1.3461
  940SOL     OW 2818   2.627   2.652   2.856  0.1876  0.1368 -0.0353
  940SOL    HW1 2819   2.616   2.629   2.758  0.1641  0.1225  1.4299
  940SOL    HW2 2820   2.646   2.751   2.864 -0.7529  0.8791  1.5549
  941SOL     OW 2821   1.602   2.939   0.138  0.2330  0.4423  0.5945
  941SOL    HW1 2822   1.614   2.837   0.126  0.3412 -2.3882  0.1358
  941SOL    HW2 2823   1.681   2.990   0.107  0.1773 -0.2856  1.0062
  942SOL     OW 2824   1.580   2.229   1.448  0.3472  0.6569  0.0582
  942SOL    HW1 2825   1.553   2.150   1.511  1.2579  0.1597  1.4069
  942SOL    HW2 2826   1.600   2.309   1.502 -2.4780 -1.6994 -0.2916
  943SOL     OW 2827   1.820   0.771   1.804  0.2971 -0.6216 -0.2985
  943SOL    HW1 2828   1.773   0.771   1.714 -0.5945  0.9373 -0.7857
  943SOL    HW2 2829   1.867   0.684   1.822  1.5126 -1.3552  0.9407
  944SOL     OW 2830   1.392   0.778   1.839 -0.6539 -0.1417 -0.5368
  944SOL    HW1 2831   1.428   0.851   1.780 -0.2396 -1.5738 -0.9828
  944SOL    HW2 2832   1.410   0.690   1.786 -0.0602 -2.3179 -1.1269
  945SOL     OW 2833   2.767   2.309   1.392 -0.1258  0.2971  0.1360
  945SOL    HW1 2834   2.788   2.395   1.338  0.5226 -0.2576  2.0915
  945SOL    HW2 2835   2.802   2.226   1.345 -0.8843 -1.4138  0.4183
  946SOL     OW 2836   0.765   0.911   1.662  0.1944  0.3447  0.0004
  946SOL    HW1 2837   0.845   0.906   1.601 -2.7479  0.9967  0.5246
  946SOL    HW2 2838   0.761   1.001   1.715 -1.7126  0.6782  0.1814
  947SOL     OW 2839   0.587   2.556   0.698 -0.2168 -0.1740 -0.0400
  947SOL    HW1 2840   0.525   2.501   0.763 -1.7787  0.4959 -0.1514
  947SOL    HW2 2841   0.531   2.590   0.624 -0.2022 -1.0289  1.1458
  948SOL     OW 2842   2.906   1.342   1.720 -0.1366  0.7082  0.3499
  948SOL    HW1 2843   2.965   1.257   1.706 -0.5924 -1.8146 -1.9422
  948SOL    HW2 2844   2.956   1.420   1.750 -2.4118 -3.7611 -3.4110
  949SOL     OW 2845   0.406   0.349   2.033 -0.8014  0.0976  0.0450
  949SOL    HW1 2846   0.497   0.355   2.068 -3.4247  1.9661  0.2617
  949SOL    HW2 2847   0.394   0.415   1.957 -0.9190 -0.2558  0.4181
  950SOL     OW 2848   0.675   0.800   0.836 -0.2612 -0.3292 -0.1636
  950SOL    HW1 2849   0.687   0.887   0.893 -0.8647  0.1273 -1.0872
  950SOL    HW2 2850   0.576   0.791   0.807 -3.5111 -1.7570 -2.4114
  951SOL     OW 2851   1.044   1.764   2.379  0.5481 -0.2020 -0.0262
  951SOL    HW1 2852   1.090   1.687   2.430 -1.6523 -0.8558 -0.5694
  951SOL    HW2 2853   0.952   1.727   2.338 -3.2429  0.7209  0.2024
  952SOL     OW 2854   1.249   1.251   2.835  0.3257  0.0402  0.2540
  952SOL    HW1 2855   1.291   1.276   2.746  1.3526 -0.0719  3.0285
  952SOL    HW2 2856   1.317   1.249   2.908 -2.4630  0.4045 -0.0140
  953SOL     OW 2857   1.024   2.691   2.069 -0.1190 -0.1077  0.8514
  953SOL    HW1 2858   0.969   2.614   2.030 -0.7786 -2.1624 -2.3323
  953SOL    HW2 2859   0.983   2.727   2.161  1.8953  1.1002  3.0893
  954SOL     OW 2860   2.189   1.570   0.743  0.1488  0.1957 -0.0590
  954SOL    HW1 2861   2.222   1.662   0.775  0.2682 -1.3565  1.5085
  954SOL    HW2 2862   2.251   1.536   0.670  0.0048 -0.4315  1.4696
  955SOL     OW 2863   3.014   2.296   2.908  0.7307 -0.2285  0.3844
  955SOL    HW1 2864   3.018   2.390   2.871  0.0730  0.3632 -0.7180
  955SOL    HW2 2865   2.923   2.279   2.951  0.4494  0.4831 -0.8601
  956SOL     OW 2866   1.200   0.815   1.372  0.8013 -0.1485 -0.1062
  956SOL    HW1 2867   1.173   0.790   1.279  0.8236 -0.4741  0.0337
  956SOL    HW2 2868   1.223   0.915   1.372 -2.0284 -2.6914 -0.2892
  957SOL     OW 2869   1.893   1.606   2.221  0.0497  0.3815 -0.4397
  957SOL    HW1 2870   1.895   1.552   2.136 -1.2341  1.2250  1.4269
  957SOL    HW2 2871   1.803   1.619   2.266 -1.5443 -1.9970  1.3819
  958SOL     OW 2872   1.799   2.630   1.443 -0.3554  0.2688 -0.2313
  958SOL    HW1 2873   1.884   2.646   1.388 -1.2022  0.6554  1.0426
  958SOL    HW2 2874   1.790   2.711   1.503 -0.1581  0.7823 -1.9740
  959SOL     OW 2875   1.721   1.727   1.831  0.4162 -0.1941 -0.4895
  959SOL    HW1 2876   1.767   1.815   1.816  2.3146 -0.0312 -1.5256
  959SOL    HW2 2877   1.629   1.743   1.879 -1.5215 -0.6002 -2.0397
  960SOL     OW 2878   2.925   0.896   2.668 -0.2329  0.2962  0.4069
  960SOL    HW1 2879   2.976   0.881   2.756 -0.9404  0.1616 -0.6476
  960SOL    HW2 2880   3.001   0.891   2.596  2.2000  0.5041 -1.1874
  961SOL     OW 2881   0.385   0.599   1.867 -0.2347 -0.1930  0.3961
  961SOL    HW1 2882   0.468   0.655   1.876  0.6353  0.6533  0.4268
  961SOL    HW2 2883   0.303   0.651   1.848  2.1344 -0.3749  0.1534
  962SOL     OW 2884   1.535   1.709   0.521  0.2199 -0.1271  0.3114
  962SOL    HW1 2885   1.437   1.686   0.510  1.7631  0.6901 -0.8297
  962SOL    HW2 2886   1.587   1.637   0.567 -0.3012 -2.1495  0.2049
  963SOL     OW 2887   1.461   2.212   2.735  0.0711 -0.6911  0.5078
  963SOL    HW1 2888   1.427   2.204   2.642  1.8418  1.1959  1.0616
  963SOL    HW2 2889   1.540   2.146   2.753  2.0543  0.0914 -0.0215
  964SOL     OW 2890   1.100   2.461   0.494  0.2083 -0.2147 -0.4776
  964SOL    HW1 2891   1.002   2.474   0.476  0.0847  1.3261 -0.7420
  964SOL    HW2 2892   1.160   2.532   0.460 -2.0833  1.6773 -0.6857
  965SOL     OW 2893   0.787   2.979   1.007  0.0032 -0.3310  0.4190
  965SOL    HW1 2894   0.763   3.075   1.033  1.5389  0.9021  3.0580
  965SOL    HW2 2895   0.711   2.928   0.958  0.8685  1.8650  0.6645
  966SOL     OW 2896   3.107   1.132   2.933 -0.2625  0.6270 -0.6979
  966SOL    HW1 2897   3.061   1.219   2.935 -1.7142  1.9754 -1.3394
  966SOL    HW2 2898   3.061   1.059   2.989 -0.4396  0.1996  1.1345
  967SOL     OW 2899   1.021   2.863   1.643 -0.3098 -0.2642 -0.1235
  967SOL    HW1 2900   0.957   2.944   1.652 -0.3142  4.3013 -0.1767
  967SOL    HW2 2901   0.996   2.777   1.696 -1.6920 -2.2012  0.6909
  968SOL     OW 2902   1.982   0.405   0.297  0.1143 -0.5833  0.0922
  968SOL    HW1 2903   2.027   0.337   0.362  2.3690  0.6491  0.1801
  968SOL    HW2 2904   1.941   0.488   0.350  0.8595  2.4847  1.0850
  969SOL     OW 2905   2.834   1.735   1.970  0.3203 -0.2043  0.0639
  969SOL    HW1 2906   2.819   1.679   1.884 -0.0566 -0.9460  0.4854
  969SOL    HW2 2907   2.895   1.817   1.948 -1.7746  0.6041 -1.8852
  970SOL     OW 2908   2.166   1.057   1.456  0.3216  0.3667  0.3015
  970SOL    HW1 2909   2.146   1.131   1.385  1.4041  1.7123  0.2976
  970SOL    HW2 2910   2.264   1.059   1.473  0.9156 -0.3433  0.6772
  971SOL     OW 2911   1.917   0.389   1.289  0.1828 -0.7508 -0.4257
  971SOL    HW1 2912   2.000   0.336   1.267 -0.8826 -0.7134 -3.1485
  971SOL    HW2 2913   1.895   0.458   1.214  0.1887  3.3345  1.1961
  972SOL     OW 2914   0.489   2.982   1.969  0.1986 -0.4386  0.0710
  972SOL    HW1 2915   0.534   3.039   1.895 -1.0524  0.2427 -0.3269
  972SOL    HW2 2916   0.386   2.983   1.950  0.6649  2.7895 -1.4441
  973SOL     OW 2917   2.777   1.059   0.193  0.4113  0.4649  0.6590
  973SOL    HW1 2918   2.689   1.003   0.177 -2.1816  2.0472  1.0947
  973SOL    HW2 2919   2.831   1.017   0.268 -0.5037 -2.6163 -1.8649
  974SOL     OW 2920   1.619   1.336   2.043  0.5983 -0.3337  0.6944
  974SOL    HW1 2921   1.642   1.242   2.053 -2.0809  2.4393 -0.2975
  974SOL    HW2 2922   1.689   1.396   2.004 -2.0333  0.0396  0.0945
  975SOL     OW 2923   3.031   2.485   0.953 -0.4619  0.1967 -0.0480
  975SOL    HW1 2924   2.977   2.552   0.899  0.2651 -1.3189  0.7526
  975SOL    HW2 2925   2.987   2.391   0.953 -0.8244 -1.4804  0.0876
  976SOL     OW 2926   3.087   1.567   1.745  0.6850 -0.1121  0.0618
  976SOL    HW1 2927   0.057   1.513   1.737 -0.6999  0.0073  1.1807
  976SOL    HW2 2928   0.001   1.664   1.721  0.8295  0.6591  1.0803
  977SOL     OW 2929   0.757   2.573   2.965 -0.2722 -0.3405  0.4650
  977SOL    HW1 2930   0.746   2.635   2.885 -1.2168  0.8885 -2.3873
  977SOL    HW2 2931   0.856   2.559   2.981 -0.5815  1.6268 -0.3116
  978SOL     OW 2932   0.566   1.735   2.392  0.1957 -0.0002  0.4245
  978SOL    HW1 2933   0.587   1.803   2.322 -0.5001  0.7458  1.3367
  978SOL    HW2 2934   0.478   1.751   2.440  1.2791 -2.0281  0.1923
  979SOL     OW 2935   1.693   2.543   1.182 -0.3954 -0.2727 -0.2555
  979SOL    HW1 2936   1.751   2.575   1.261  2.6917  1.8537  1.9549
  979SOL    HW2 2937   1.746   2.476   1.128 -1.1342 -0.1176 -0.2629
  980SOL     OW 2938   0.865   1.504   3.043  0.2759  0.3729  0.6505
  980SOL    HW1 2939   0.791   1.550   2.997  3.0179  0.4301  1.8186
  980SOL    HW2 2940   0.936   1.570   3.081  2.0940  0.0532  2.6746
  981SOL     OW 2941   2.888   2.955   2.552  0.1179  0.1354 -0.5570
  981SOL    HW1 2942   2.801   2.964   2.501  0.6377  0.4578  1.4252
  981SOL    HW2 2943   2.961   2.992   2.494  1.4741  0.4317  0.0423
  982SOL     OW 2944   0.153   2.597   2.848  0.2496 -0.3027 -0.4670
  982SOL    HW1 2945   0.174   2.548   2.762 -0.2461 -1.0959 -0.3181
  982SOL    HW2 2946   0.175   2.555   2.933  0.3520 -0.6308 -0.2761
  983SOL     OW 2947   2.360   0.872   1.974 -0.3244 -0.0727 -0.4032
  983SOL    HW1 2948   2.334   0.953   1.923  1.9390  1.9926 -1.0949
  983SOL    HW2 2949   2.384   0.793   1.911  0.7285 -1.3478  0.2799
  984SOL     OW 2950   1.416   0.466   2.149  0.1146  0.0375 -0.3109
  984SOL    HW1 2951   1.450   0.432   2.239 -0.6813 -1.4199 -3.0493
  984SOL    HW2 2952   1.500   0.476   2.093 -0.1669 -2.1676  3.9811
  985SOL     OW 2953   1.337   2.015   2.140  0.2160 -0.6355  0.0015
  985SOL    HW1 2954   1.354   1.962   2.058 -0.5262  0.7743  1.1047
  985SOL    HW2 2955   1.397   1.990   2.217  0.0933  3.4598 -1.0011
  986SOL     OW 2956   2.035   0.237   2.274 -0.1220  0.0220 -0.3269
  986SOL    HW1 2957   2.026   0.215   2.175 -0.8059 -0.8760  1.2870
  986SOL    HW2 2958   1.954   0.290   2.310 -2.7094 -0.6214  1.0380
  987SOL     OW 2959   2.079   0.607   1.819  0.2287  0.0480 -0.7682
  987SOL    HW1 2960   2.167   0.625   1.766  0.7657  0.6120 -0.8319
  987SOL    HW2 2961   2.022   0.540   1.770  0.9341 -2.3892  0.6174
  988SOL     OW 2962   2.685   0.575   2.489 -0.1463 -0.2847  0.2801
  988SOL    HW1 2963   2.728   0.540   2.403 -3.2675 -0.2002  0.0058
  988SOL    HW2 2964   2.584   0.559   2.489 -0.8710  1.2245  0.2642
  989SOL     OW 2965   2.636   2.589   2.602 -0.2632  0.7615 -0.5346
  989SOL    HW1 2966   2.565   2.635   2.544  1.5875  0.7032  3.0664
  989SOL    HW2 2967   2.710   2.544   2.550 -0.6842  3.4368 -0.8109
  990SOL     OW 2968   0.400   0.583   0.133  0.4786  0.1078  0.3694
  990SOL    HW1 2969   0.319   0.553   0.192  0.9441  0.6226  1.2493
  990SOL    HW2 2970   0.377   0.670   0.083  3.6101  0.6675  1.8191
  991SOL     OW 2971   0.776   0.555   2.726  0.3083 -0.1147  0.3712
  991SOL    HW1 2972   0.730   0.469   2.739  0.0188  1.9040 -0.8821
  991SOL    HW2 2973   0.872   0.546   2.756 -0.7445  0.8943 -1.6372
  992SOL     OW 2974   2.774   2.210   2.392 -0.1557  0.1313  0.0284
  992SOL    HW1 2975   2.866   2.182   2.417 -1.7755  1.9502  0.0684
  992SOL    HW2 2976   2.718   2.130   2.364  1.8629 -2.8784 -0.2350
  993SOL     OW 2977   0.496   0.039   0.386 -0.1327 -0.0491 -0.1239
  993SOL    HW1 2978   0.520   3.064   0.438 -0.1007  2.2889 -1.2468
  993SOL    HW2 2979   0.405   0.026   0.347  1.3072  0.6258  2.4104
  994SOL     OW 2980   0.179   1.950   1.476 -0.0027  0.1345  0.1724
  994SOL    HW1 2981   0.091   1.935   1.527 -0.5113  1.4149  1.1576
  994SOL    HW2 2982   0.148   2.006   1.399  0.6553  2.3458 -0.3107
  995SOL     OW 2983   2.149   2.085   0.369  0.0880 -0.0280  0.0401
  995SOL    HW1 2984   2.201   2.136   0.304 -2.6553 -0.5352  0.5458
  995SOL    HW2 2985   2.063   2.057   0.323 -0.5798  0.3795  1.8316
  996SOL     OW 2986   1.562   1.458   2.478 -0.5294 -0.0001 -0.0135
  996SOL    HW1 2987   1.543   1.480   2.373 -1.9735  1.4128 -4.2318
  996SOL    HW2 2988   1.541   1.543   2.533  2.0595  1.1931  2.7471
  997SOL     OW 2989   1.743   1.269   1.676 -0.8576 -0.1685 -0.0299
  997SOL    HW1 2990   1.838   1.233   1.671 -1.1920 -0.7189  2.6593
  997SOL    HW2 2991   1.680   1.210   1.731 -1.1309 -1.9503 -0.9060
  998SOL     OW 2992   2.962   1.731   0.326  0.2606 -0.4374 -0.0144
  998SOL    HW1 2993   2.914   1.646   0.356 -0.1457 -0.7756  0.7322
  998SOL    HW2 2994   2.943   1.739   0.223 -1.4543  0.2763 -0.2597
  999SOL     OW 2995   2.675   2.553   0.457  0.2664  0.3560 -0.0936
  999SOL    HW1 2996   2.657   2.576   0.557 -0.4061  1.6193 -0.9330
  999SOL    HW2 2997   2.593   2.503   0.426 -0.9542  1.0901 -0.3571
 1000SOL     OW 2998   0.733   2.945   2.074  0.1996  0.4541  0.4106
 1000SOL    HW1 2999   0.638   2.970   2.051  2.0487 -2.0941  1.0233
 1000SOL    HW2 3000   0.768   2.876   2.005  1.0300 -2.0806 -0.4543
   3.10812   3.10812   3.10812
