1000 SPC/Fw water molecules t= 127.00000 step= 127000
 3000
    1SOL     OW    1   2.126   2.027   0.936  0.9023 -0.6747 -0.1907
    1SOL    HW1    2   2.223   2.004   0.910 -0.2013  1.9441  0.2276
    1SOL    HW2    3   2.093   1.962   1.005  1.0319  0.9890 -1.0243
    2SOL     OW    4   1.347   1.921   2.223  1.0153 -0.3150  0.1619
    2SOL    HW1    5   1.280   1.961   2.293 -1.8614  2.6548  1.3250
    2SOL    HW2    6   1.349   1.819   2.234 -0.5543 -0.1670 -1.6084
    3SOL     OW    7   1.559   2.393   2.396  0.0381  0.5167  0.3715
    3SOL    HW1    8   1.522   2.433   2.307  0.2498  0.3453  1.0526
    3SOL    HW2    9   1.623   2.313   2.373  0.5401 -1.8478  0.4886
    4SOL     OW   10   1.254   2.324   2.008  0.7959 -0.1357  0.5278
    4SOL    HW1   11   1.240   2.270   1.920 -1.5690 -3.4350  1.1380
    4SOL    HW2   12   1.220   2.274   2.092  0.8114  3.2211 -0.4193
    5SOL     OW   13   0.664   0.876   1.515 -0.4103 -0.2684 -0.3429
    5SOL    HW1   14   0.666   0.924   1.602 -0.1699 -0.1543 -0.5883
    5SOL    HW2   15   0.569   0.854   1.485  0.4784  0.1060  0.2021
    6SOL     OW   16   2.200   0.904   0.110 -0.3950  0.1362  0.0561
    6SOL    HW1   17   2.105   0.883   0.074 -0.4625  0.4240 -1.4928
    6SOL    HW2   18   2.266   0.819   0.099  2.4575 -3.2152 -0.7840
    7SOL     OW   19   0.455   0.040   1.654 -0.4275 -0.2323 -0.6188
    7SOL    HW1   20   0.515   0.039   1.736 -0.9047  0.4406  0.2876
    7SOL    HW2   21   0.420   3.033   1.632  0.5672  2.4832  0.9390
    8SOL     OW   22   1.172   2.855   1.511 -0.0660 -0.0880 -0.3364
    8SOL    HW1   23   1.093   2.793   1.484 -0.7937 -1.6474  1.7387
    8SOL    HW2   24   1.191   2.844   1.613 -0.9253  0.8548  1.2309
    9SOL     OW   25   0.632   0.722   0.447 -0.3402 -0.0815  0.7078
    9SOL    HW1   26   0.679   0.795   0.502  1.8517  1.6068 -1.3249
    9SOL    HW2   27   0.544   0.747   0.410 -1.6190 -1.7320 -0.0333
   10SOL     OW   28   0.761   2.413   2.388  0.0132 -0.0211  0.3232
   10SOL    HW1   29   0.716   2.349   2.453 -1.0856 -2.6393  1.1384
   10SOL    HW2   30   0.691   2.479   2.367  2.4860  1.1941  1.2491
   11SOL     OW   31   0.364   1.953   3.021  0.2087 -0.3606  0.6172
   11SOL    HW1   32   0.379   1.868   2.969 -1.1461  0.3509  1.1632
   11SOL    HW2   33   0.324   1.934   0.029  1.3956 -0.8150 -0.3654
   12SOL     OW   34   0.434   0.106   1.388  0.5663 -0.3013 -0.0082
   12SOL    HW1   35   0.428   0.133   1.486 -0.9891 -2.4665  0.0186
   12SOL    HW2   36   0.474   0.012   1.373 -1.1638 -1.7352  0.7096
   13SOL     OW   37   0.786   2.615   0.137  0.2859 -0.4584 -0.6906
   13SOL    HW1   38   0.869   2.566   0.112  0.9648 -0.8611 -0.0795
   13SOL    HW2   39   0.805   2.713   0.131  0.6533  2.4700 -0.4269
   14SOL     OW   40   1.563   1.752   0.863 -0.1102  0.8180  0.3758
   14SOL    HW1   41   1.534   1.696   0.945 -0.2559 -3.3257  1.3338
   14SOL    HW2   42   1.511   1.835   0.848 -0.8808 -1.8228  0.9288
   15SOL     OW   43   2.902   1.105   2.272  0.4351  0.0030  0.1292
   15SOL    HW1   44   2.889   1.081   2.372 -0.5116 -0.0920 -0.8866
   15SOL    HW2   45   2.973   1.177   2.255  0.6986  1.0591 -1.1476
   16SOL     OW   46   1.386   2.914   2.809 -0.2955  0.0695  0.0214
   16SOL    HW1   47   1.384   2.812   2.790  0.8343 -2.4908  0.1582
   16SOL    HW2   48   1.402   2.959   2.719 -0.6678 -0.5147  0.3413
   17SOL     OW   49   0.709   2.378   2.069 -0.1865  0.0873  0.0048
   17SOL    HW1   50   0.740   2.298   2.125  0.9525 -1.8843  0.0005
   17SOL    HW2   51   0.636   2.429   2.112 -2.3475 -0.9098 -1.3465
   18SOL     OW   52   1.549   0.929   0.053  0.1204 -0.3319 -0.2450
   18SOL    HW1   53   1.601   0.990   0.115  1.2724  3.7409 -0.6064
   18SOL    HW2   54   1.612   0.873   3.079 -1.9920  0.4144  0.1909
   19SOL     OW   55   2.514   2.101   2.777 -0.0653 -0.0940 -0.6260
   19SOL    HW1   56   2.523   2.113   2.879 -0.9399  0.6449  0.2150
   19SOL    HW2   57   2.566   2.021   2.748  1.9228 -1.8460  1.0051
   20SOL     OW   58   2.518   2.212   2.419 -0.4469  0.3385 -0.5534
   20SOL    HW1   59   2.547   2.290   2.362  2.0992  0.8494  2.5389
   20SOL    HW2   60   2.603   2.179   2.476  1.1167 -1.6464  2.5732
   21SOL     OW   61   0.616   2.094   0.086  0.1194  0.5338  0.3933
   21SOL    HW1   62   0.567   2.165   0.138  3.8667 -1.9912 -0.1555
   21SOL    HW2   63   0.549   2.042   0.033  1.9444 -0.3856 -1.4436
   22SOL     OW   64   2.119   2.784   1.204 -0.7557 -0.0570  0.3593
   22SOL    HW1   65   2.139   2.872   1.153  1.0026  1.8716  0.8150
   22SOL    HW2   66   2.138   2.804   1.305  0.5497 -0.4081 -0.2100
   23SOL     OW   67   0.413   1.271   1.551  0.6977 -0.3969  0.0488
   23SOL    HW1   68   0.354   1.350   1.528 -0.7702  1.6153 -1.6468
   23SOL    HW2   69   0.457   1.293   1.643  1.3964  0.0800  0.1152
   24SOL     OW   70   2.187   1.879   1.622 -0.0709 -0.2076  0.5144
   24SOL    HW1   71   2.273   1.825   1.615 -0.2829 -0.8310 -0.1146
   24SOL    HW2   72   2.173   1.906   1.717 -0.3111  0.3407 -1.7746
   25SOL     OW   73   1.904   0.087   2.653  0.0160  0.0847 -0.5129
   25SOL    HW1   74   2.006   0.109   2.652  0.0725  1.4687 -2.5246
   25SOL    HW2   75   1.864   0.107   2.566  0.8374  2.0522  2.6238
   26SOL     OW   76   1.300   2.961   0.955 -0.2076  0.0198  0.1489
   26SOL    HW1   77   1.352   2.984   0.873 -1.4484 -1.2146  1.2990
   26SOL    HW2   78   1.311   3.040   1.019  1.7461  0.9901 -2.8452
   27SOL     OW   79   1.178   1.860   0.090  0.4133  0.5462  0.4501
   27SOL    HW1   80   1.224   1.794   0.151 -0.3107  2.4481 -2.0169
   27SOL    HW2   81   1.082   1.839   0.068  1.8562  0.5120  0.4609
   28SOL     OW   82   2.941   1.644   1.356  0.1071  0.1695 -0.4462
   28SOL    HW1   83   2.888   1.586   1.421 -0.8308 -3.5554 -1.3625
   28SOL    HW2   84   3.033   1.677   1.399  3.4149 -0.4669  2.2020
   29SOL     OW   85   2.243   2.379   2.019  0.0364  0.3322  0.0449
   29SOL    HW1   86   2.252   2.286   2.057  2.6328  2.8240 -0.3481
   29SOL    HW2   87   2.234   2.453   2.088  0.7999 -0.4577 -0.8367
   30SOL     OW   88   0.871   2.659   1.123  0.3213 -0.5190  0.3983
   30SOL    HW1   89   0.942   2.596   1.085  0.4688 -0.4572  0.0557
   30SOL    HW2   90   0.817   2.704   1.047 -0.0340  0.7811 -0.0443
   31SOL     OW   91   0.049   1.951   2.237 -0.3188  0.2906  0.0170
   31SOL    HW1   92   0.045   1.848   2.222  0.3642 -1.8966  0.3760
   31SOL    HW2   93   0.111   1.999   2.169 -0.1180  0.7638 -0.8717
   32SOL     OW   94   1.495   1.196   2.098  0.3192 -0.1445 -0.4781
   32SOL    HW1   95   1.465   1.104   2.056 -0.8648 -0.1786 -0.6788
   32SOL    HW2   96   1.418   1.256   2.115 -0.5876  0.4019  0.5096
   33SOL     OW   97   0.457   3.006   2.400  0.3404  0.0191 -0.0208
   33SOL    HW1   98   0.373   2.951   2.423 -0.5092 -2.9065  0.0134
   33SOL    HW2   99   0.537   2.970   2.452  1.1570 -2.2583  0.5620
   34SOL     OW  100   1.501   3.058   1.688 -0.0375  0.2460  0.2244
   34SOL    HW1  101   1.564   2.977   1.706  2.5923  2.8657  2.6881
   34SOL    HW2  102   1.548   0.060   1.703 -1.7583 -0.8348 -0.0572
   35SOL     OW  103   2.067   0.562   1.199 -0.4413 -0.1590  0.5654
   35SOL    HW1  104   2.103   0.613   1.281  2.0193  0.0230  0.5458
   35SOL    HW2  105   1.971   0.586   1.164  0.3956  1.1234 -0.5176
   36SOL     OW  106   2.271   2.927   2.574 -0.3979 -0.0551  0.1808
   36SOL    HW1  107   2.247   2.856   2.640 -0.7064  1.7203  1.9725
   36SOL    HW2  108   2.291   2.886   2.481 -1.1673 -0.2882 -0.0678
   37SOL     OW  109   1.251   2.228   2.939 -0.4222 -0.2973  1.0570
   37SOL    HW1  110   1.197   2.231   3.018  1.3661 -0.5605 -8.8099
   37SOL    HW2  111   1.291   2.136   2.926 -1.6700  0.5883  0.1022
   38SOL     OW  112   2.880   0.775   2.667 -0.0963 -0.0754 -0.2190
   38SOL    HW1  113   2.820   0.705   2.619  0.0802  1.2040 -1.1986
   38SOL    HW2  114   2.868   0.772   2.769 -1.2828 -1.5037  0.8401
   39SOL     OW  115   1.992   2.048   2.128  0.6342 -0.3267 -0.4384
   39SOL    HW1  116   2.004   1.973   2.060  1.4985  1.7252 -1.7338
   39SOL    HW2  117   1.948   2.128   2.082  1.7336 -1.9527 -1.9767
   40SOL     OW  118   0.285   0.293   2.930 -0.0712 -0.3698 -0.1978
   40SOL    HW1  119   0.314   0.250   3.018 -0.7732 -0.7802 -0.8842
   40SOL    HW2  120   0.309   0.223   2.861  1.1503 -0.6858  0.7197
   41SOL     OW  121   1.410   0.950   1.508 -0.0125  0.2045 -0.0066
   41SOL    HW1  122   1.444   1.013   1.430 -0.3563  0.7961 -2.9300
   41SOL    HW2  123   1.335   1.002   1.558 -1.4167  2.8385  0.1481
   42SOL     OW  124   0.194   0.252   1.966  0.0050 -0.6584 -0.7095
   42SOL    HW1  125   0.144   0.335   1.922 -2.7834  1.1748  0.4732
   42SOL    HW2  126   0.293   0.261   1.986  4.1783  1.4185  1.2574
   43SOL     OW  127   1.604   1.648   2.014 -0.3908 -0.0057 -0.1998
   43SOL    HW1  128   1.537   1.675   2.081  2.5662 -2.2884 -1.0964
   43SOL    HW2  129   1.651   1.556   2.030  0.5283  1.5827 -0.6369
   44SOL     OW  130   2.941   2.766   2.592 -0.3015 -0.1536 -0.1890
   44SOL    HW1  131   2.958   2.864   2.631  0.1673  3.0775  2.0333
   44SOL    HW2  132   2.970   2.759   2.490  1.3903 -1.4590 -3.0056
   45SOL     OW  133   0.466   2.279   1.335  0.2511 -0.0310  0.4176
   45SOL    HW1  134   0.432   2.197   1.390  0.4941 -2.8492  0.4395
   45SOL    HW2  135   0.566   2.302   1.351  0.2526  2.0838  0.5652
   46SOL     OW  136   2.457   2.293   1.872 -0.1222  0.1842  0.1494
   46SOL    HW1  137   2.386   2.340   1.931 -1.8769  1.3212  1.1807
   46SOL    HW2  138   2.545   2.323   1.913  0.9605  0.9087 -0.8847
   47SOL     OW  139   1.652   1.666   1.582 -0.6927  0.1810  0.3958
   47SOL    HW1  140   1.585   1.632   1.648 -0.3993  0.2650 -2.4255
   47SOL    HW2  141   1.730   1.602   1.577  1.4883  0.2185 -0.0477
   48SOL     OW  142   0.153   2.032   0.442  0.1563  0.1535 -0.3845
   48SOL    HW1  143   0.164   1.932   0.424 -1.0236 -2.6768 -0.4951
   48SOL    HW2  144   0.220   2.058   0.519 -0.0895 -0.4447 -0.2236
   49SOL     OW  145   3.012   0.942   2.058 -0.4420 -0.1144  0.5759
   49SOL    HW1  146   0.023   0.938   2.102  2.4424 -0.3491 -1.4428
   49SOL    HW2  147   2.951   0.987   2.127 -0.3324  1.6190  0.4726
   50SOL     OW  148   1.933   0.826   0.682  0.1688 -0.4147  0.7798
   50SOL    HW1  149   2.000   0.849   0.608 -0.2138 -2.3099 -3.3723
   50SOL    HW2  150   1.852   0.780   0.637 -3.4992 -1.1934 -1.2471
   51SOL     OW  151   1.200   0.593   0.602  0.0712 -0.2399 -0.6188
   51SOL    HW1  152   1.107   0.616   0.641  1.5109 -1.7439 -0.0257
   51SOL    HW2  153   1.261   0.538   0.668  2.2251 -1.2111  0.9105
   52SOL     OW  154   1.344   1.132   0.350 -0.3042  0.1868 -0.0569
   52SOL    HW1  155   1.362   1.039   0.320 -1.1521  3.8083 -0.3956
   52SOL    HW2  156   1.414   1.160   0.418  1.2581  1.1378  0.1781
   53SOL     OW  157   1.128   2.329   2.724  0.0879 -0.4632  0.2825
   53SOL    HW1  158   1.188   2.313   2.641 -3.8075 -0.5534  0.1004
   53SOL    HW2  159   1.169   2.301   2.814  1.0157 -0.7216  0.2061
   54SOL     OW  160   1.415   0.845   1.758  0.4057 -0.5163 -0.1310
   54SOL    HW1  161   1.381   0.747   1.757 -2.2505  0.8151 -1.8347
   54SOL    HW2  162   1.431   0.879   1.665 -1.2262  0.5815  0.5166
   55SOL     OW  163   2.064   2.858   0.518  0.5119 -0.0306 -0.1514
   55SOL    HW1  164   2.004   2.890   0.444  2.0827  0.3231  1.0429
   55SOL    HW2  165   2.029   2.770   0.560  0.6438  1.6639  3.3574
   56SOL     OW  166   0.904   2.704   1.397  0.6940 -0.1351 -0.2465
   56SOL    HW1  167   0.914   2.681   1.296 -0.0787 -0.2918 -0.9396
   56SOL    HW2  168   0.822   2.763   1.405  0.1760 -0.5214 -0.4833
   57SOL     OW  169   1.785   1.135   2.891  0.7241 -0.1788 -0.2099
   57SOL    HW1  170   1.842   1.178   2.816  2.9576 -0.9779  0.2357
   57SOL    HW2  171   1.830   1.164   2.975 -0.0216  0.6109 -0.2552
   58SOL     OW  172   2.972   1.000   1.800 -0.8938  0.0399  0.2728
   58SOL    HW1  173   2.995   0.990   1.898 -0.3890  0.5913 -2.1337
   58SOL    HW2  174   2.908   1.077   1.779 -1.1235 -0.7628 -0.3698
   59SOL     OW  175   0.568   2.600   2.348  0.0016  0.2352  0.2039
   59SOL    HW1  176   0.527   2.580   2.256 -1.0649  2.0166  0.7569
   59SOL    HW2  177   0.623   2.686   2.348 -2.2249 -0.1885 -0.7037
   60SOL     OW  178   2.577   2.222   0.973 -0.2163  0.1404  0.2709
   60SOL    HW1  179   2.493   2.233   1.022  3.5086 -2.3890  0.6193
   60SOL    HW2  180   2.579   2.279   0.893  0.8093 -1.3070  0.3952
   61SOL     OW  181   1.025   2.386   0.342  0.0111  0.2255 -0.2500
   61SOL    HW1  182   1.067   2.318   0.402  2.8477 -1.0246 -0.6012
   61SOL    HW2  183   0.970   2.336   0.272 -1.9030 -0.3807 -0.5473
   62SOL     OW  184   2.018   2.770   3.025  0.1582 -0.6653  0.0446
   62SOL    HW1  185   2.067   2.686   3.048 -2.1921 -0.3631  0.9972
   62SOL    HW2  186   1.917   2.755   3.012  0.9372  1.0671  0.7807
   63SOL     OW  187   1.970   0.124   0.120  0.0535 -0.6804 -0.5451
   63SOL    HW1  188   1.890   0.077   0.071 -0.7686 -1.8742  0.2399
   63SOL    HW2  189   2.021   0.183   0.058  1.5158 -1.0830 -0.5233
   64SOL     OW  190   0.926   1.119   2.577 -0.5604 -0.4181 -0.0392
   64SOL    HW1  191   1.028   1.103   2.565  3.2215 -0.7340  0.2186
   64SOL    HW2  192   0.872   1.039   2.558 -2.1799 -1.1709 -0.2076
   65SOL     OW  193   1.379   2.668   0.555  0.8298 -0.1550  0.4105
   65SOL    HW1  194   1.389   2.588   0.491 -0.7316  1.9009  1.3093
   65SOL    HW2  195   1.460   2.662   0.616  1.7232 -0.1573  0.1379
   66SOL     OW  196   0.566   1.610   1.753  0.0907 -0.0072  0.8803
   66SOL    HW1  197   0.645   1.547   1.743  1.3823 -2.0279  0.9681
   66SOL    HW2  198   0.497   1.561   1.814  0.1227 -3.0968  2.3652
   67SOL     OW  199   2.498   0.043   2.208 -0.3045 -0.2292  0.1076
   67SOL    HW1  200   2.597   0.047   2.228 -2.6746 -1.8246  1.6610
   67SOL    HW2  201   2.479   0.078   2.116  1.6021  1.6804  2.1222
   68SOL     OW  202   0.901   0.765   1.484 -0.4114  0.0147  0.1708
   68SOL    HW1  203   0.906   0.682   1.423  4.3830  0.2851 -2.0824
   68SOL    HW2  204   0.810   0.809   1.483  0.5177  0.8809 -0.7116
   69SOL     OW  205   1.899   2.931   0.296  0.4458 -0.1714 -0.0454
   69SOL    HW1  206   1.821   2.866   0.271 -0.1960  0.1955  2.2735
   69SOL    HW2  207   1.858   3.016   0.338 -2.9243  0.0962  1.0179
   70SOL     OW  208   2.614   1.028   3.010  0.0280 -0.1597 -0.0466
   70SOL    HW1  209   2.678   1.097   2.975 -1.9745 -2.0019 -1.0204
   70SOL    HW2  210   2.642   0.996   0.017  0.9150 -2.0183  3.5515
   71SOL     OW  211   2.851   1.800   0.009 -0.3033 -0.0418 -0.0953
   71SOL    HW1  212   2.814   1.861   3.023 -0.8108  1.5332 -0.7506
   71SOL    HW2  213   2.936   1.848   0.044 -0.3540 -0.4824 -0.0743
   72SOL     OW  214   2.966   2.001   0.512 -0.0720  0.1742 -0.0982
   72SOL    HW1  215   2.957   1.901   0.502  3.9052  2.9153 -0.7730
   72SOL    HW2  216   3.062   2.029   0.492  0.0884  0.3295 -0.9401
   73SOL     OW  217   1.027   0.890   0.403 -0.0782 -0.0901  0.3822
   73SOL    HW1  218   1.045   0.981   0.359  2.6379  0.7642 -2.6624
   73SOL    HW2  219   1.025   0.815   0.334  0.8286 -1.9869  0.4974
   74SOL     OW  220   0.223   1.834   1.959  0.1101 -0.1818 -0.4851
   74SOL    HW1  221   0.213   1.936   1.978 -0.9914  0.7214 -0.9504
   74SOL    HW2  222   0.321   1.813   1.974  1.8558  1.7926  0.2463
   75SOL     OW  223   1.669   1.280   1.664  0.5935  1.1559  0.4092
   75SOL    HW1  224   1.700   1.199   1.718 -0.9022  0.9242 -0.1799
   75SOL    HW2  225   1.564   1.295   1.664 -4.1701  1.8600 -1.0047
   76SOL     OW  226   2.049   2.296   1.301 -0.5271  0.4635 -0.2383
   76SOL    HW1  227   2.101   2.249   1.374  0.1021 -0.6439  1.5250
   76SOL    HW2  228   2.060   2.399   1.312  0.4310  1.9076 -0.3132
   77SOL     OW  229   2.910   1.274   1.708  0.0011  0.4935 -0.4483
   77SOL    HW1  230   2.861   1.296   1.794 -3.4848  0.3127 -0.8403
   77SOL    HW2  231   3.005   1.309   1.711 -2.9988 -1.5446  1.2879
   78SOL     OW  232   1.476   0.341   0.484  0.2091 -0.4334  0.3761
   78SOL    HW1  233   1.481   0.408   0.554  4.0230 -0.4193  0.2813
   78SOL    HW2  234   1.479   0.384   0.387  0.1345  1.7454 -2.0455
   79SOL     OW  235   2.505   1.517   1.496  0.0253 -0.0345  0.1257
   79SOL    HW1  236   2.423   1.572   1.532 -3.8826  1.7867  0.9750
   79SOL    HW2  237   2.479   1.429   1.461  0.8325  1.3594  0.8183
   80SOL     OW  238   0.946   0.539   1.336  0.5510 -0.4121 -0.0204
   80SOL    HW1  239   0.852   0.501   1.323  2.9865 -0.8927  0.4059
   80SOL    HW2  240   1.007   0.517   1.257 -2.5639 -1.1534 -0.3541
   81SOL     OW  241   0.677   2.638   0.785  0.2010  0.1659 -0.0440
   81SOL    HW1  242   0.760   2.587   0.765 -3.1285  1.2984  2.4272
   81SOL    HW2  243   0.687   2.733   0.746  1.1758  1.6368  0.4340
   82SOL     OW  244   1.545   3.000   2.028 -0.2494  0.6847  0.8146
   82SOL    HW1  245   1.461   2.957   2.071 -5.6149 -0.2303  1.0159
   82SOL    HW2  246   1.518   3.081   1.967  1.3680 -0.7744 -1.3329
   83SOL     OW  247   1.426   1.967   0.833  0.1581 -0.3500 -0.5990
   83SOL    HW1  248   1.483   1.996   0.912  0.4351 -0.5672 -1.4347
   83SOL    HW2  249   1.439   2.019   0.746  0.5238  1.0324  1.6567
   84SOL     OW  250   3.034   1.407   2.926  0.1935  0.3269 -1.1336
   84SOL    HW1  251   0.021   1.335   2.910  3.5007  2.3552  2.7162
   84SOL    HW2  252   3.015   1.473   2.847  0.6350  4.2080  0.4067
   85SOL     OW  253   0.407   2.273   1.060 -0.4332  0.7933  0.3993
   85SOL    HW1  254   0.429   2.359   1.008  0.5251 -1.7526  0.2532
   85SOL    HW2  255   0.440   2.282   1.157  0.0028  1.7504  2.6001
   86SOL     OW  256   2.256   2.325   1.665 -0.0311  0.0323  0.4639
   86SOL    HW1  257   2.322   2.292   1.738 -0.4978  1.9912  0.4283
   86SOL    HW2  258   2.164   2.333   1.707  0.8605  0.1871 -0.8792
   87SOL     OW  259   2.936   2.091   0.774 -0.6279 -0.1385 -0.2522
   87SOL    HW1  260   2.998   2.174   0.792  1.2027  0.9255 -0.4213
   87SOL    HW2  261   2.950   2.055   0.681  2.5353  2.5369  2.5719
   88SOL     OW  262   0.942   0.769   1.077  0.0944 -0.5906 -0.4288
   88SOL    HW1  263   1.014   0.813   1.019  0.2056  0.7383  1.4318
   88SOL    HW2  264   0.878   0.842   1.103 -1.1802 -1.1485 -2.0525
   89SOL     OW  265   0.968   0.093   1.870  0.2163  1.3905  0.3029
   89SOL    HW1  266   0.888   0.084   1.936  2.2118 -0.7466  0.7132
   89SOL    HW2  267   1.018   0.178   1.888  0.3930 -1.5672  2.5517
   90SOL     OW  268   3.062   1.960   1.497 -0.0555  0.0766  0.2896
   90SOL    HW1  269   3.049   1.863   1.490  0.0023  2.4110  0.2615
   90SOL    HW2  270   0.036   1.991   1.575 -2.8667  0.2217  0.7628
   91SOL     OW  271   1.443   2.079   1.435  0.1553 -0.6142 -0.1806
   91SOL    HW1  272   1.477   2.049   1.524 -2.5451 -0.3299  0.8007
   91SOL    HW2  273   1.517   2.060   1.365  3.0034 -0.4681  0.5754
   92SOL     OW  274   2.653   2.873   1.513  0.2921 -0.1332 -0.3150
   92SOL    HW1  275   2.666   2.952   1.451  1.3426  0.5302 -2.5341
   92SOL    HW2  276   2.732   2.813   1.525  0.9773 -0.0784  2.2621
   93SOL     OW  277   3.059   1.003   2.804  0.3812 -0.3103 -0.1796
   93SOL    HW1  278   0.028   0.926   2.842 -2.5665 -0.3387 -0.6512
   93SOL    HW2  279   2.965   0.970   2.788  0.1934 -1.4269  2.5006
   94SOL     OW  280   2.686   2.413   1.952  0.2117  0.6797  0.0705
   94SOL    HW1  281   2.722   2.399   2.048 -1.1233 -3.8629  1.7199
   94SOL    HW2  282   2.661   2.511   1.937 -0.9884  0.4656  1.2246
   95SOL     OW  283   1.341   0.550   2.149  0.3450  0.0665 -0.7155
   95SOL    HW1  284   1.242   0.560   2.122 -2.8809  2.6275 -1.1389
   95SOL    HW2  285   1.344   0.566   2.248 -1.7238  1.0388 -1.0404
   96SOL     OW  286   2.625   0.527   1.690  0.0004  0.2655 -0.2791
   96SOL    HW1  287   2.561   0.448   1.675  0.9151  0.5948  0.0073
   96SOL    HW2  288   2.652   0.547   1.787  0.6554  2.2751  0.9500
   97SOL     OW  289   1.916   0.506   1.855 -0.0204 -0.3361 -0.5647
   97SOL    HW1  290   1.850   0.516   1.929  0.4701  1.0649  2.1451
   97SOL    HW2  291   1.906   0.572   1.781 -0.0040 -0.9285 -0.6607
   98SOL     OW  292   1.998   2.551   1.363  0.3754  0.5163  0.2728
   98SOL    HW1  293   2.025   2.619   1.289  0.5235  0.4760 -0.4325
   98SOL    HW2  294   2.065   2.572   1.437  1.2724  0.8038  1.1905
   99SOL     OW  295   2.670   0.385   2.010  0.3419 -0.1055 -0.6131
   99SOL    HW1  296   2.690   0.340   2.100 -2.3740  2.1857  0.0851
   99SOL    HW2  297   2.756   0.407   1.960 -2.5998  1.0065  0.7189
  100SOL     OW  298   2.321   1.566   1.724 -0.2898  0.4747  0.6000
  100SOL    HW1  299   2.269   1.624   1.791  0.0444 -1.3323 -0.9615
  100SOL    HW2  300   2.420   1.583   1.727  1.7803 -0.0588 -0.3710
  101SOL     OW  301   1.636   0.008   0.877  0.0204  0.1297 -0.3035
  101SOL    HW1  302   1.632   0.042   0.975  0.5441  0.5280  0.7607
  101SOL    HW2  303   1.730   3.042   0.863  3.7803 -1.4474  0.2646
  102SOL     OW  304   0.610   0.778   1.221  0.0171  0.0005  0.1100
  102SOL    HW1  305   0.629   0.679   1.249  1.4606 -4.3805  3.1849
  102SOL    HW2  306   0.681   0.843   1.258 -1.1635 -1.5258 -0.0998
  103SOL     OW  307   2.640   0.423   3.040 -0.2498  0.2030 -0.3294
  103SOL    HW1  308   2.678   0.330   3.039  1.0460  0.8792  0.3168
  103SOL    HW2  309   2.652   0.465   0.047  1.9886  2.4170  1.9954
  104SOL     OW  310   2.718   0.221   1.662  0.1148  0.2085  0.3276
  104SOL    HW1  311   2.751   0.132   1.626 -1.6159 -1.0307  0.6040
  104SOL    HW2  312   2.788   0.295   1.647 -3.0005 -3.3487 -0.8507
  105SOL     OW  313   1.885   0.803   2.063 -0.0577 -0.0714 -0.2570
  105SOL    HW1  314   1.868   0.750   2.151  0.7338  1.6975  2.5466
  105SOL    HW2  315   1.866   0.902   2.083 -0.3773  0.6878  0.1132
  106SOL     OW  316   1.855   2.957   0.855 -0.5049  0.2418 -0.4902
  106SOL    HW1  317   1.877   2.955   0.958  2.0639 -0.6782  2.9894
  106SOL    HW2  318   1.940   2.966   0.800 -0.4275  0.7728 -1.9487
  107SOL     OW  319   0.798   1.012   0.897  0.0745 -0.1987 -0.6555
  107SOL    HW1  320   0.762   1.101   0.936  1.9352 -2.3317 -0.7836
  107SOL    HW2  321   0.725   0.941   0.901  1.6843  0.2572  0.3352
  108SOL     OW  322   2.668   0.294   2.294  0.5725  0.2587 -0.5549
  108SOL    HW1  323   2.756   0.242   2.300  0.4889 -0.8398  2.9095
  108SOL    HW2  324   2.591   0.257   2.351  1.4236 -0.9966  2.0265
  109SOL     OW  325   1.733   0.501   0.094  0.3330 -0.6927  0.2318
  109SOL    HW1  326   1.721   0.491   3.075 -1.0967  1.5137 -3.2222
  109SOL    HW2  327   1.797   0.435   0.139 -1.5500  0.7190 -2.3665
  110SOL     OW  328   0.041   2.222   2.877 -0.3863 -0.2217  0.5732
  110SOL    HW1  329   3.058   2.261   2.818 -0.3362  0.4439  2.5451
  110SOL    HW2  330   0.009   2.223   2.974  1.4821  0.3380 -0.1351
  111SOL     OW  331   2.145   0.281   2.127  0.0829  0.3605 -0.6261
  111SOL    HW1  332   2.167   0.383   2.115  2.9648  0.3482 -2.0471
  111SOL    HW2  333   2.147   0.254   2.224 -0.4305  1.9972 -2.1656
  112SOL     OW  334   2.492   3.004   0.576  0.0476 -0.0723  0.5288
  112SOL    HW1  335   2.445   3.084   0.614  0.6645 -2.3411  1.3272
  112SOL    HW2  336   2.429   2.925   0.552  0.6784  1.3521  0.5569
  113SOL     OW  337   2.468   1.824   1.592  0.1240  0.2014  0.0776
  113SOL    HW1  338   2.472   1.845   1.496 -0.1189 -1.8952  0.1734
  113SOL    HW2  339   2.510   1.896   1.649 -1.1236  0.9655  0.3207
  114SOL     OW  340   2.729   0.606   0.628 -0.1650 -0.5216  0.5002
  114SOL    HW1  341   2.720   0.678   0.557  0.3960  2.1836  3.1059
  114SOL    HW2  342   2.805   0.540   0.597 -2.4259  0.8701  1.6517
  115SOL     OW  343   2.747   1.750   0.277  0.0894  0.0460  0.3977
  115SOL    HW1  344   2.792   1.732   0.370  3.1797  2.3258  0.7357
  115SOL    HW2  345   2.819   1.790   0.222  1.1203 -1.3743  1.6436
  116SOL     OW  346   0.089   1.422   1.957  0.0811 -0.1101 -0.2280
  116SOL    HW1  347   3.077   1.403   1.978 -1.9842 -0.9547  0.5451
  116SOL    HW2  348   0.116   1.396   1.860  3.7387 -0.0335 -1.5970
  117SOL     OW  349   2.750   3.079   0.515  0.1134  0.5134  0.5314
  117SOL    HW1  350   2.654   3.045   0.533  1.3608  1.2408  1.2412
  117SOL    HW2  351   2.742   0.051   0.433  0.3040  0.5587 -1.8254
  118SOL     OW  352   0.399   2.464   1.778  0.4763  0.2492 -0.5174
  118SOL    HW1  353   0.491   2.419   1.786  0.8544 -2.6590  2.0803
  118SOL    HW2  354   0.409   2.561   1.755  2.1228  0.2037  1.5857
  119SOL     OW  355   1.792   2.229   1.272 -0.5188  0.2578  0.2338
  119SOL    HW1  356   1.892   2.241   1.262  2.0952 -2.6174 -0.4783
  119SOL    HW2  357   1.747   2.320   1.289  0.1362 -1.8496 -1.4276
  120SOL     OW  358   0.449   1.766   2.238  0.3324  0.1507 -0.6938
  120SOL    HW1  359   0.478   1.695   2.308  1.7726 -1.5288  1.8967
  120SOL    HW2  360   0.380   1.827   2.276  0.4009  0.1354 -0.5300
  121SOL     OW  361   2.860   1.462   0.913 -0.4756 -0.2203  0.5277
  121SOL    HW1  362   2.846   1.514   1.001 -1.0020 -2.7233 -1.6357
  121SOL    HW2  363   2.808   1.375   0.922 -1.3622  3.2338  0.7836
  122SOL     OW  364   2.098   1.692   2.276 -0.5922  0.0492 -0.4437
  122SOL    HW1  365   2.006   1.733   2.291  0.1598 -0.5190  0.4327
  122SOL    HW2  366   2.165   1.735   2.340 -2.5229  2.2798 -0.2077
  123SOL     OW  367   2.798   0.197   0.677 -0.1979  0.0930  0.4346
  123SOL    HW1  368   2.882   0.256   0.679 -0.6718 -0.8359  0.9306
  123SOL    HW2  369   2.814   0.109   0.627  0.2435 -1.7906  0.8647
  124SOL     OW  370   1.200   1.107   2.616 -0.1126 -0.0932 -0.2530
  124SOL    HW1  371   1.247   1.136   2.531  0.2932 -2.4601  1.5792
  124SOL    HW2  372   1.248   1.156   2.695  1.7096 -0.1238 -0.0682
  125SOL     OW  373   0.381   1.583   2.666 -0.0593 -0.0510  0.3598
  125SOL    HW1  374   0.403   1.627   2.759  1.0392  1.1759  1.4103
  125SOL    HW2  375   0.344   1.489   2.677 -0.1641 -1.8976 -2.1142
  126SOL     OW  376   2.898   2.121   0.243 -0.1750  0.0179  0.2996
  126SOL    HW1  377   2.904   2.185   0.317 -1.4182 -3.3903 -4.3027
  126SOL    HW2  378   2.879   2.027   0.277 -1.0521 -0.4723  1.0887
  127SOL     OW  379   0.776   1.697   0.904 -0.3823 -0.0981  0.1309
  127SOL    HW1  380   0.705   1.693   0.975  0.6990  0.6975 -1.9195
  127SOL    HW2  381   0.732   1.703   0.811 -2.6506  0.6212 -0.8186
  128SOL     OW  382   1.287   0.907   3.039  0.0653  0.4796 -0.5881
  128SOL    HW1  383   1.331   0.927   0.044 -1.4693  1.2643  0.1914
  128SOL    HW2  384   1.344   0.942   2.965 -2.5685 -1.7563  1.6405
  129SOL     OW  385   2.322   1.786   1.200  0.7671  0.2927  0.6858
  129SOL    HW1  386   2.386   1.860   1.232  1.7015  1.4541  0.0476
  129SOL    HW2  387   2.226   1.820   1.196  1.0718  1.1283 -0.8015
  130SOL     OW  388   1.778   1.338   0.508 -0.2412 -0.4994 -0.3218
  130SOL    HW1  389   1.750   1.429   0.466 -0.1437 -0.6589 -0.3662
  130SOL    HW2  390   1.825   1.353   0.594 -4.4589  1.4728 -0.7533
  131SOL     OW  391   2.904   1.010   2.518  0.6801 -0.1819  0.1242
  131SOL    HW1  392   2.911   0.915   2.552  1.2741 -4.0555  0.5072
  131SOL    HW2  393   2.829   1.060   2.562 -0.1210 -0.5463  1.9602
  132SOL     OW  394   2.113   1.471   1.583  0.4207 -1.0524  0.2487
  132SOL    HW1  395   2.120   1.472   1.481 -0.1043  0.2476  2.2194
  132SOL    HW2  396   2.187   1.524   1.627  0.2948 -0.7675  1.1072
  133SOL     OW  397   0.175   1.479   0.002 -0.2242 -0.4911 -0.0564
  133SOL    HW1  398   0.081   1.475   3.053 -0.3330  0.5125  0.4748
  133SOL    HW2  399   0.205   1.396   0.049  0.3458  1.3341  0.2070
  134SOL     OW  400   2.936   1.548   0.098 -0.6195 -0.2186 -0.0354
  134SOL    HW1  401   2.971   1.513   0.013  0.1292 -2.6191  3.0945
  134SOL    HW2  402   2.893   1.641   0.090  2.0887 -0.7508  1.6490
  135SOL     OW  403   2.423   1.095   0.328 -0.1029 -0.6699  0.3356
  135SOL    HW1  404   2.398   1.117   0.234  0.4542  0.1236  0.4734
  135SOL    HW2  405   2.413   1.171   0.394 -1.5983 -0.9932 -0.6371
  136SOL     OW  406   1.949   1.259   1.350  0.5001 -0.8184  0.0801
  136SOL    HW1  407   1.997   1.279   1.436 -1.8404  1.1555  1.7051
  136SOL    HW2  408   1.847   1.262   1.373 -0.9485 -0.9335  1.7804
  137SOL     OW  409   2.507   2.051   0.406 -0.1015  0.2883 -0.0661
  137SOL    HW1  410   2.483   1.964   0.356 -1.7264 -1.4293 -0.7251
  137SOL    HW2  411   2.590   2.038   0.469  1.4644  0.1144  1.0908
  138SOL     OW  412   1.329   0.102   1.854 -0.2987 -0.2703  0.2173
  138SOL    HW1  413   1.384   0.069   1.775 -0.0360  1.3038  0.7822
  138SOL    HW2  414   1.356   0.197   1.878 -0.1054 -1.6772 -3.4970
  139SOL     OW  415   2.408   0.281   3.021 -0.1768  0.1263  0.5237
  139SOL    HW1  416   2.443   0.373   3.023 -1.1886 -0.8152 -0.0063
  139SOL    HW2  417   2.464   0.222   3.085  0.4542  2.8741  1.9929
  140SOL     OW  418   1.464   2.043   2.541  0.4743 -0.7046  0.0139
  140SOL    HW1  419   1.555   2.019   2.498  2.7154  1.0081 -1.0062
  140SOL    HW2  420   1.388   1.978   2.512  0.8112 -0.3825  2.4617
  141SOL     OW  421   0.861   0.995   1.863 -0.5313 -0.1955 -0.0001
  141SOL    HW1  422   0.816   0.932   1.930 -0.0084 -1.9373 -0.0078
  141SOL    HW2  423   0.932   0.939   1.813  4.9847 -2.1868 -0.0200
  142SOL     OW  424   2.315   2.660   0.254 -0.5616 -0.4048 -0.4591
  142SOL    HW1  425   2.240   2.724   0.222  2.7567  1.0614 -1.0067
  142SOL    HW2  426   2.324   2.586   0.183  0.8783 -2.7073 -2.2836
  143SOL     OW  427   0.765   1.979   2.957  0.4740 -0.4491  0.8897
  143SOL    HW1  428   0.853   2.018   2.927 -1.8935 -1.9148  1.2262
  143SOL    HW2  429   0.720   2.037   3.028 -1.8463  0.8498 -1.9912
  144SOL     OW  430   1.118   2.625   0.268  0.2056 -0.1114  0.0899
  144SOL    HW1  431   1.082   2.614   0.171 -0.2190 -0.3530 -0.9471
  144SOL    HW2  432   1.115   2.535   0.311  1.7431 -0.3061 -1.6523
  145SOL     OW  433   2.405   1.825   2.966  0.0287  0.0978  0.8170
  145SOL    HW1  434   2.475   1.860   3.034  0.6317  2.2035  0.3701
  145SOL    HW2  435   2.316   1.874   2.971  0.0519  0.4527  0.2439
  146SOL     OW  436   2.436   2.732   3.034 -0.2154  0.4278 -0.0532
  146SOL    HW1  437   2.465   2.814   2.983  0.3156 -1.0511 -0.1926
  146SOL    HW2  438   2.515   2.665   3.026  0.9259  0.7479  2.7145
  147SOL     OW  439   2.775   1.986   1.275 -0.4566 -0.2025 -0.5984
  147SOL    HW1  440   2.795   2.015   1.179  1.7536  0.7160 -0.0403
  147SOL    HW2  441   2.837   1.915   1.318  1.1031 -3.1038  3.4703
  148SOL     OW  442   1.747   0.025   0.016 -0.4209  0.3949  0.5885
  148SOL    HW1  443   1.700   3.030   3.058 -1.2903 -2.9139  0.7128
  148SOL    HW2  444   1.689   0.073   0.084  0.2658 -0.1720 -0.3840
  149SOL     OW  445   1.155   1.506   2.650 -1.1208  0.2584  0.0476
  149SOL    HW1  446   1.213   1.543   2.727  0.2088 -2.5938  2.6907
  149SOL    HW2  447   1.076   1.455   2.690 -0.7158 -0.0590  0.0387
  150SOL     OW  448   0.616   2.151   0.618  0.1050 -0.7349 -0.3212
  150SOL    HW1  449   0.654   2.206   0.696  0.3852  1.4047  0.8131
  150SOL    HW2  450   0.688   2.078   0.596 -0.9225  0.3700  0.9068
  151SOL     OW  451   0.629   1.852   2.776  0.3067 -0.0662 -0.3140
  151SOL    HW1  452   0.640   1.755   2.806  2.3164 -0.8397 -1.1926
  151SOL    HW2  453   0.678   1.908   2.844  1.0511  1.7848  0.9168
  152SOL     OW  454   2.489   1.313   0.479  0.5815  0.3777 -0.5485
  152SOL    HW1  455   2.502   1.358   0.390  0.7825  2.0596 -0.0549
  152SOL    HW2  456   2.528   1.373   0.551  2.2673  1.6041 -1.1810
  153SOL     OW  457   2.069   2.419   0.575  0.5701 -0.3832 -0.0941
  153SOL    HW1  458   2.060   2.371   0.484  0.9013 -1.4982 -0.6326
  153SOL    HW2  459   2.005   2.498   0.581 -0.2810 -0.5368 -2.0155
  154SOL     OW  460   0.674   2.898   0.646 -0.1172 -0.0188 -0.2781
  154SOL    HW1  461   0.740   2.971   0.643 -1.7702 -4.1916 -2.0291
  154SOL    HW2  462   0.681   2.837   0.564 -1.2118 -0.3209  0.1193
  155SOL     OW  463   0.359   2.051   0.667 -0.4533  0.7357 -1.0568
  155SOL    HW1  464   0.445   2.094   0.626  2.6388  1.8429 -0.4124
  155SOL    HW2  465   0.329   2.097   0.752  0.0650 -0.7674  0.0458
  156SOL     OW  466   2.461   2.415   0.125  0.6012  0.2798  0.5371
  156SOL    HW1  467   2.522   2.459   0.054  1.5296 -1.3352 -2.4655
  156SOL    HW2  468   2.524   2.387   0.200  0.3255  0.1597  0.0734
  157SOL     OW  469   1.009   1.973   1.478  0.0635  1.0089 -0.0850
  157SOL    HW1  470   0.912   2.014   1.460 -0.2396 -2.6659 -0.1208
  157SOL    HW2  471   1.053   1.992   1.569  1.1742  2.7964  1.9782
  158SOL     OW  472   1.740   0.795   2.979 -0.5680 -0.3231 -0.3715
  158SOL    HW1  473   1.733   0.690   2.971 -0.9674 -0.4089 -0.1935
  158SOL    HW2  474   1.739   0.838   2.883  2.0637  4.3004 -4.7987
  159SOL     OW  475   1.010   0.569   2.913 -0.0584 -0.4470  0.0450
  159SOL    HW1  476   1.103   0.586   2.875 -3.5999  2.0649 -1.1280
  159SOL    HW2  477   1.009   0.598   3.009 -0.2637  1.6131  2.1186
  160SOL     OW  478   1.291   1.491   0.081  0.4804 -0.3035 -0.0723
  160SOL    HW1  479   1.243   1.537   0.157 -0.0919  0.0727 -1.5721
  160SOL    HW2  480   1.360   1.423   0.115 -0.3349 -1.7239 -1.1313
  161SOL     OW  481   0.055   2.009   2.640 -0.1413 -0.5556  0.2194
  161SOL    HW1  482   0.129   2.074   2.665 -2.1469 -1.8980  0.8585
  161SOL    HW2  483   0.070   1.918   2.679 -0.0972 -2.2324  0.2364
  162SOL     OW  484   0.486   2.503   0.893  0.0405  0.1971 -0.2567
  162SOL    HW1  485   0.558   2.560   0.846 -0.7612  2.0747  0.6355
  162SOL    HW2  486   0.445   2.552   0.970  1.8609 -1.2919 -2.5558
  163SOL     OW  487   2.949   0.850   0.044  0.1751  0.0304  0.3639
  163SOL    HW1  488   2.919   0.767   3.075  0.0569 -0.9869 -0.0485
  163SOL    HW2  489   2.869   0.900   0.091 -2.8921  0.8729  3.9970
  164SOL     OW  490   0.349   0.107   2.748  0.2948 -0.1721  0.4563
  164SOL    HW1  491   0.284   0.030   2.733 -1.4569 -0.0926 -0.4095
  164SOL    HW2  492   0.444   0.072   2.733 -1.2543  2.3425 -0.9281
  165SOL     OW  493   1.857   0.261   1.595  0.0020 -0.2274  0.0420
  165SOL    HW1  494   1.948   0.216   1.605 -1.9115 -1.0600  0.4385
  165SOL    HW2  495   1.865   0.363   1.591 -0.1627 -3.4877 -3.1506
  166SOL     OW  496   2.107   3.007   1.434 -0.1168 -0.4618  0.1177
  166SOL    HW1  497   2.017   2.954   1.428 -0.8159 -2.3534  0.1078
  166SOL    HW2  498   2.098   0.010   1.487  0.3289  2.0860 -1.4498
  167SOL     OW  499   1.102   0.413   1.852 -0.0210  0.5391 -0.1953
  167SOL    HW1  500   1.073   0.428   1.951  0.9190 -0.4992  0.4331
  167SOL    HW2  501   1.182   0.471   1.826  2.6254  0.7261  0.0226
  168SOL     OW  502   2.476   0.575   1.977 -0.0532  0.7419  0.2474
  168SOL    HW1  503   2.563   0.523   1.992 -2.2971  1.4204  0.2581
  168SOL    HW2  504   2.419   0.555   1.893 -4.6603  2.3869  0.0655
  169SOL     OW  505   0.398   1.558   0.347  0.3337 -0.2153 -0.6079
  169SOL    HW1  506   0.332   1.634   0.353  1.4923  0.6665  0.9346
  169SOL    HW2  507   0.352   1.469   0.328 -3.0009 -3.4475  0.4022
  170SOL     OW  508   0.207   1.448   1.471  0.1963  0.0441  0.3009
  170SOL    HW1  509   0.189   1.548   1.485 -1.0026  1.3202 -0.1673
  170SOL    HW2  510   0.127   1.404   1.420  1.7151 -0.4995 -1.3579
  171SOL     OW  511   1.022   2.445   2.357  0.4964 -0.3914  0.3249
  171SOL    HW1  512   0.925   2.419   2.379  0.8773 -1.3149  0.1919
  171SOL    HW2  513   1.083   2.368   2.328 -1.0140 -0.7550 -0.0792
  172SOL     OW  514   0.554   2.708   1.685  0.9988  0.3711  0.0033
  172SOL    HW1  515   0.616   2.626   1.692 -0.5425  0.1286  0.5982
  172SOL    HW2  516   0.566   2.750   1.593 -1.0081 -0.6960  1.7014
  173SOL     OW  517   1.346   2.289   1.051 -0.2653  0.0740 -0.1975
  173SOL    HW1  518   1.386   2.209   1.098 -1.8143  2.5278 -0.0847
  173SOL    HW2  519   1.338   2.364   1.121 -0.1895  1.7636 -1.7985
  174SOL     OW  520   1.191   3.083   0.591 -0.2847  0.2522 -0.3868
  174SOL    HW1  521   1.253   3.084   0.670  2.5332  0.8813  0.0285
  174SOL    HW2  522   1.148   2.989   0.584  0.6576 -3.0083 -0.1679
  175SOL     OW  523   1.132   1.295   0.258 -0.4994 -0.0505 -0.3598
  175SOL    HW1  524   1.133   1.394   0.241 -1.5327 -1.4480  1.8701
  175SOL    HW2  525   1.219   1.253   0.289 -2.4305 -0.6942 -2.0087
  176SOL     OW  526   1.523   0.496   0.271  0.3973  0.6688  0.0218
  176SOL    HW1  527   1.454   0.561   0.242 -0.9435  0.7146  1.3840
  176SOL    HW2  528   1.600   0.485   0.202  2.0684  0.4143  0.3231
  177SOL     OW  529   1.237   0.678   1.092  0.0821  0.0379 -0.1459
  177SOL    HW1  530   1.141   0.668   1.066 -1.4626  0.0747 -0.4779
  177SOL    HW2  531   1.257   0.770   1.143 -0.4552 -0.8870  0.9207
  178SOL     OW  532   2.749   1.635   2.719 -0.5322  0.2698  0.0050
  178SOL    HW1  533   2.734   1.611   2.622  0.5604 -3.2451 -1.7838
  178SOL    HW2  534   2.667   1.602   2.779 -2.3411  0.1764  1.2138
  179SOL     OW  535   0.620   2.511   3.010 -0.1654 -0.1558  0.5052
  179SOL    HW1  536   0.624   2.564   2.918 -0.5867 -0.0113 -1.3688
  179SOL    HW2  537   0.644   2.558   0.013  2.3831 -1.4832  1.9565
  180SOL     OW  538   1.851   1.479   1.626  0.4978  0.2700 -0.2039
  180SOL    HW1  539   1.952   1.477   1.620 -1.9291  0.4216 -0.7393
  180SOL    HW2  540   1.809   1.390   1.653 -0.8741  0.3603  1.9248
  181SOL     OW  541   1.256   1.335   2.145  0.1741  0.9343  0.0601
  181SOL    HW1  542   1.167   1.291   2.175  2.0169 -2.2538  1.8540
  181SOL    HW2  543   1.241   1.403   2.066 -1.5702  2.1826 -2.1463
  182SOL     OW  544   0.094   0.983   2.508 -0.1145  0.8415  0.1035
  182SOL    HW1  545   0.137   1.064   2.559 -0.0949 -0.4151  1.9286
  182SOL    HW2  546   3.084   1.006   2.497  1.4994  0.1790 -0.8469
  183SOL     OW  547   1.612   0.605   2.401  0.1351  0.3235  0.4067
  183SOL    HW1  548   1.513   0.576   2.409  3.0585 -2.2257  1.7035
  183SOL    HW2  549   1.658   0.597   2.492 -0.4177  0.6338  0.9783
  184SOL     OW  550   0.150   0.540   1.389  0.3084 -0.3460 -0.4660
  184SOL    HW1  551   0.226   0.517   1.329 -0.1892  2.3781  3.0664
  184SOL    HW2  552   0.082   0.597   1.339 -1.7413  0.6461  1.6926
  185SOL     OW  553   2.435   1.757   0.926  0.0474 -0.0802 -0.0317
  185SOL    HW1  554   2.405   1.792   1.016  0.9056  2.0398 -1.0233
  185SOL    HW2  555   2.538   1.761   0.923 -0.5415  0.4058  0.2524
  186SOL     OW  556   0.663   1.867   2.490  0.2035  0.5226 -0.2162
  186SOL    HW1  557   0.630   1.780   2.446  0.1311  2.2205  1.2422
  186SOL    HW2  558   0.601   1.890   2.567  1.1952  2.4642  0.7108
  187SOL     OW  559   2.547   2.155   3.036 -0.5873  0.1994 -0.5452
  187SOL    HW1  560   2.602   2.233   3.078  2.3802 -0.5023 -0.5034
  187SOL    HW2  561   2.548   2.068   0.009 -0.9100 -5.8812  5.0777
  188SOL     OW  562   0.615   2.350   0.451  0.2319  0.0023 -0.1704
  188SOL    HW1  563   0.606   2.262   0.504  0.4398 -0.0845  1.6635
  188SOL    HW2  564   0.571   2.336   0.363 -1.8055  0.3236  0.8196
  189SOL     OW  565   2.087   0.869   2.878  0.0310  0.3332  0.6722
  189SOL    HW1  566   2.036   0.902   2.959 -0.9255 -2.4109  0.7089
  189SOL    HW2  567   2.123   0.945   2.823  0.9277 -3.0291  0.8232
  190SOL     OW  568   1.373   1.886   1.962  0.2210  0.3429  0.5731
  190SOL    HW1  569   1.372   1.909   2.061  0.1373 -0.0677 -1.2352
  190SOL    HW2  570   1.468   1.870   1.927  2.6812 -2.1809 -0.5294
  191SOL     OW  571   2.091   0.886   1.184  0.8261 -0.6360  0.4688
  191SOL    HW1  572   2.174   0.832   1.207  1.3563 -2.0122  2.2594
  191SOL    HW2  573   2.065   0.853   1.090  0.0300 -1.5789  0.9712
  192SOL     OW  574   2.076   0.293   1.819  0.1772  0.3251  0.3697
  192SOL    HW1  575   2.001   0.362   1.833  0.4806  3.2625  0.8692
  192SOL    HW2  576   2.113   0.255   1.903  1.9867 -2.0756  1.3281
  193SOL     OW  577   0.044   0.569   0.791 -0.1222 -0.1131  0.2716
  193SOL    HW1  578   0.036   0.552   0.891 -0.7475  0.1313 -2.2956
  193SOL    HW2  579   0.137   0.546   0.759 -0.3977  1.1752 -0.7416
  194SOL     OW  580   1.607   2.519   1.732  0.2569 -0.2085  0.6191
  194SOL    HW1  581   1.553   2.542   1.648 -2.5504 -1.9844 -1.3724
  194SOL    HW2  582   1.705   2.494   1.702  0.6390 -3.1723  1.5473
  195SOL     OW  583   2.473   0.579   0.784 -0.5759 -0.1974  0.3619
  195SOL    HW1  584   2.429   0.496   0.756  1.5124  2.1488 -0.1406
  195SOL    HW2  585   2.557   0.587   0.726  1.1717  3.5591  1.6375
  196SOL     OW  586   1.138   2.025   1.708 -0.0347 -0.3323 -0.2662
  196SOL    HW1  587   1.166   2.127   1.706 -0.7243  0.0121 -0.7471
  196SOL    HW2  588   1.222   1.967   1.725 -1.9887 -1.7535  1.5495
  197SOL     OW  589   0.147   0.226   2.596  0.4418 -0.3813 -0.2239
  197SOL    HW1  590   0.231   0.196   2.638 -2.2322  3.0922  0.0301
  197SOL    HW2  591   0.154   0.325   2.592 -0.9175 -1.0158 -3.9099
  198SOL     OW  592   1.147   0.885   0.650 -0.3422  0.2330  0.3878
  198SOL    HW1  593   1.191   0.794   0.634  1.5275  0.7700 -1.1663
  198SOL    HW2  594   1.079   0.893   0.573  0.7266  0.4896 -1.0777
  199SOL     OW  595   2.642   0.846   1.924 -0.5956  0.1504  0.2603
  199SOL    HW1  596   2.642   0.906   2.004  1.5405 -1.5923 -1.9668
  199SOL    HW2  597   2.564   0.869   1.864  0.7383 -1.6958  0.3953
  200SOL     OW  598   2.382   2.680   2.337 -0.4244  0.0737 -0.2352
  200SOL    HW1  599   2.444   2.677   2.263 -2.4487  2.5559  0.9915
  200SOL    HW2  600   2.303   2.618   2.317 -0.8134 -1.0169  0.6467
  201SOL     OW  601   2.466   0.307   1.550  0.8461  0.5653 -0.3369
  201SOL    HW1  602   2.556   0.270   1.590 -0.4891  1.8178  0.6454
  201SOL    HW2  603   2.442   0.252   1.466 -1.2056 -0.4024 -1.2797
  202SOL     OW  604   2.289   3.078   0.259  0.3877  0.1251  1.0353
  202SOL    HW1  605   2.299   3.041   0.354  0.1415  1.8724 -1.3210
  202SOL    HW2  606   2.256   3.007   0.188 -1.7682 -2.1086 -3.2915
  203SOL     OW  607   1.194   2.237   2.274  0.0823  0.7547  0.3038
  203SOL    HW1  608   1.138   2.149   2.275 -2.8542 -1.3332 -2.3881
  203SOL    HW2  609   1.247   2.250   2.359 -1.1959 -0.5258 -0.7218
  204SOL     OW  610   1.006   1.591   2.400 -0.2532  0.0858 -1.0630
  204SOL    HW1  611   1.081   1.604   2.468  1.8524 -0.4519  1.0617
  204SOL    HW2  612   0.971   1.499   2.404  1.5889  2.7860 -0.8691
  205SOL     OW  613   0.999   1.336   1.179  0.9124 -1.1576  0.1057
  205SOL    HW1  614   1.097   1.308   1.170  1.6927  2.2115 -2.0077
  205SOL    HW2  615   0.968   1.383   1.093  0.6949 -0.2733  0.4014
  206SOL     OW  616   0.391   0.461   2.747  0.2100 -0.2233 -0.1962
  206SOL    HW1  617   0.315   0.487   2.685 -3.5646  0.9600  1.5880
  206SOL    HW2  618   0.364   0.403   2.824  1.1906  4.8792 -2.5789
  207SOL     OW  619   1.786   2.651   2.329  0.3730  0.0645 -0.0133
  207SOL    HW1  620   1.824   2.745   2.313  0.6445  3.2382  1.0826
  207SOL    HW2  621   1.688   2.655   2.364 -1.9834  1.4662 -1.1221
  208SOL     OW  622   0.746   2.316   1.329 -0.0159  0.2963  0.7467
  208SOL    HW1  623   0.829   2.361   1.366 -4.6665  1.0345  1.1890
  208SOL    HW2  624   0.747   2.314   1.227  0.3515  0.8791 -2.4875
  209SOL     OW  625   1.327   1.237   2.408  0.2214 -0.4987 -0.5711
  209SOL    HW1  626   1.290   1.280   2.323 -2.4040 -0.7262 -0.1118
  209SOL    HW2  627   1.429   1.252   2.420  0.6059  0.0006 -1.3005
  210SOL     OW  628   1.939   1.107   0.855 -0.0531  0.0946 -0.0644
  210SOL    HW1  629   1.917   1.099   0.956 -2.4032  0.5704 -0.5106
  210SOL    HW2  630   1.919   1.017   0.809 -0.8267  0.4812 -0.9035
  211SOL     OW  631   0.822   2.509   0.508  0.3032  0.1595  0.1592
  211SOL    HW1  632   0.739   2.449   0.485 -1.0467  0.2962  1.3621
  211SOL    HW2  633   0.904   2.493   0.444  2.1193 -0.2300 -3.3378
  212SOL     OW  634   1.899   1.765   0.251 -0.0536  1.0826 -0.0026
  212SOL    HW1  635   1.818   1.808   0.206 -2.9380  1.1977 -0.9473
  212SOL    HW2  636   1.950   1.821   0.318 -1.4159  2.1401  1.4967
  213SOL     OW  637   1.677   0.463   2.912  0.5151  0.1342  0.1370
  213SOL    HW1  638   1.595   0.408   2.951 -1.7065 -1.6265 -1.7667
  213SOL    HW2  639   1.745   0.393   2.891 -4.0239 -0.0629  0.7142
  214SOL     OW  640   1.233   1.540   1.954 -0.0591  0.0011 -0.1910
  214SOL    HW1  641   1.255   1.565   1.860  0.3135 -1.7068  4.1778
  214SOL    HW2  642   1.183   1.621   1.995  0.3672  1.4126  0.4653
  215SOL     OW  643   0.912   1.766   0.269 -0.2522 -0.1263  0.1048
  215SOL    HW1  644   0.866   1.776   0.178 -2.1044  0.2117  0.6340
  215SOL    HW2  645   0.847   1.723   0.334 -1.3259  1.8388  1.8155
  216SOL     OW  646   0.299   2.792   2.507 -0.1721 -0.2631 -0.0270
  216SOL    HW1  647   0.332   2.719   2.575 -0.2038 -1.2584  2.2591
  216SOL    HW2  648   0.288   2.755   2.414  2.6569  1.6375 -0.1642
  217SOL     OW  649   2.512   0.682   1.018  0.2747 -0.0092  0.0157
  217SOL    HW1  650   2.510   0.641   0.924 -0.8557  2.7971  1.2685
  217SOL    HW2  651   2.606   0.715   1.033 -2.8551  1.3066  0.9299
  218SOL     OW  652   1.953   1.524   2.106  0.2501 -0.3860 -0.5205
  218SOL    HW1  653   2.020   1.590   2.152  0.1064  0.6930  0.6084
  218SOL    HW2  654   1.882   1.495   2.174 -2.2759 -0.6489  0.4385
  219SOL     OW  655   2.083   1.661   0.067 -0.3612  0.5733  0.1346
  219SOL    HW1  656   2.007   1.647   3.085 -4.1425 -1.5645 -3.4228
  219SOL    HW2  657   2.046   1.684   0.164 -1.6868 -1.4147  1.1119
  220SOL     OW  658   1.555   1.180   0.499  0.0468 -0.5651  0.3425
  220SOL    HW1  659   1.498   1.164   0.582  1.3740 -3.2257 -0.5424
  220SOL    HW2  660   1.633   1.245   0.509  0.2170 -0.9231 -1.2063
  221SOL     OW  661   0.533   0.652   2.887 -0.2835 -0.1347  0.1387
  221SOL    HW1  662   0.544   0.622   2.980  1.6220  3.3181 -2.6943
  221SOL    HW2  663   0.470   0.592   2.831  0.2512 -1.0425 -0.5283
  222SOL     OW  664   1.457   1.309   0.183  0.0671 -0.3839  0.1242
  222SOL    HW1  665   1.504   1.375   0.240 -0.9789 -2.6554 -1.2678
  222SOL    HW2  666   1.415   1.234   0.244 -1.0544 -3.1829 -0.0522
  223SOL     OW  667   1.125   0.122   0.127 -0.1586 -0.0941 -0.0557
  223SOL    HW1  668   1.100   0.178   0.210  1.8844 -1.2869 -0.5805
  223SOL    HW2  669   1.204   0.058   0.159 -0.6426  0.8446 -2.0768
  224SOL     OW  670   2.126   0.144   1.611 -0.2298 -0.0808  0.4377
  224SOL    HW1  671   2.128   0.214   1.688 -0.4527 -1.0709  2.1780
  224SOL    HW2  672   2.199   0.077   1.628  1.2150  0.9022 -0.6661
  225SOL     OW  673   0.271   2.849   0.922  0.2407 -0.0972  0.1757
  225SOL    HW1  674   0.219   2.911   0.984  0.7949 -2.5842 -2.0226
  225SOL    HW2  675   0.344   2.904   0.878 -1.4070  1.4840 -0.6231
  226SOL     OW  676   1.264   1.572   2.905  0.2097 -0.3297  0.3656
  226SOL    HW1  677   1.329   1.644   2.882 -3.2745 -1.8434  1.1885
  226SOL    HW2  678   1.275   1.543   3.001 -0.4811  1.3949  2.7199
  227SOL     OW  679   1.327   1.535   0.854 -0.3084 -0.4309 -0.5672
  227SOL    HW1  680   1.285   1.628   0.856  0.3427  2.2801 -0.5186
  227SOL    HW2  681   1.379   1.522   0.942  1.1367 -0.2052  2.5184
  228SOL     OW  682   0.415   1.626   0.753  0.0883  0.2627 -0.0302
  228SOL    HW1  683   0.392   1.541   0.701  0.0793  0.6630 -1.0103
  228SOL    HW2  684   0.381   1.707   0.701  0.8138  0.5051 -0.6500
  229SOL     OW  685   1.286   0.358   2.953  0.4228  0.0416 -0.3722
  229SOL    HW1  686   1.301   0.460   2.937  1.9483  3.3305  0.5289
  229SOL    HW2  687   1.184   0.332   2.958 -2.2500 -1.9126  0.5091
  230SOL     OW  688   1.685   0.919   2.758 -0.3795  0.3011  0.1990
  230SOL    HW1  689   1.760   0.862   2.715 -1.0164  1.8769 -1.7834
  230SOL    HW2  690   1.718   1.009   2.792 -0.8039  1.1866 -1.3298
  231SOL     OW  691   1.223   1.935   2.514 -0.3447 -0.5172  0.3918
  231SOL    HW1  692   1.192   1.913   2.605  0.6185  0.0795  1.2537
  231SOL    HW2  693   1.147   1.968   2.452 -0.9062 -0.6977  0.1980
  232SOL     OW  694   2.313   2.227   0.542  0.2681  0.2611 -0.1498
  232SOL    HW1  695   2.245   2.298   0.518  2.7194 -2.5471 -0.3470
  232SOL    HW2  696   2.356   2.168   0.471  0.1694  1.0339 -0.9239
  233SOL     OW  697   2.418   2.533   0.477  0.4957  0.0138 -0.7739
  233SOL    HW1  698   2.370   2.583   0.408  2.6980 -2.2042  3.6858
  233SOL    HW2  699   2.359   2.509   0.554 -1.3355 -0.2271  0.3864
  234SOL     OW  700   0.690   0.678   2.654  0.0824 -0.0927 -0.2217
  234SOL    HW1  701   0.637   0.670   2.743  1.5694 -0.1292 -1.4870
  234SOL    HW2  702   0.787   0.702   2.666 -1.1812 -0.8774 -1.9199
  235SOL     OW  703   2.777   0.367   2.617  0.6905  0.0759  0.8004
  235SOL    HW1  704   2.701   0.306   2.628 -1.0386  2.3182  0.6132
  235SOL    HW2  705   2.747   0.447   2.563  0.6829  0.0712 -1.7875
  236SOL     OW  706   2.025   2.403   1.861  0.2309  0.1945 -0.0212
  236SOL    HW1  707   1.955   2.344   1.905  3.3858  1.2986 -3.0322
  236SOL    HW2  708   2.107   2.403   1.924  1.3179 -0.2521  0.6100
  237SOL     OW  709   0.704   1.515   2.052 -0.1967 -0.5595 -0.1758
  237SOL    HW1  710   0.693   1.617   2.049  2.4792 -0.2856  0.7956
  237SOL    HW2  711   0.693   1.477   2.144 -1.5793 -0.9434 -0.2192
  238SOL     OW  712   1.439   0.198   2.774 -0.0173  0.0759 -0.2794
  238SOL    HW1  713   1.383   0.271   2.823 -0.6992  2.7366  1.2886
  238SOL    HW2  714   1.515   0.165   2.831  0.6171 -0.9352 -1.6218
  239SOL     OW  715   0.146   2.103   1.657  0.3070  0.0486 -0.2530
  239SOL    HW1  716   0.100   2.158   1.729  1.9345  0.6422  0.7714
  239SOL    HW2  717   0.225   2.053   1.694  1.2403 -2.1703  0.2547
  240SOL     OW  718   2.534   2.310   0.711  0.0983  0.1533  0.0786
  240SOL    HW1  719   2.556   2.407   0.704  0.1609  0.3107 -2.1679
  240SOL    HW2  720   2.436   2.293   0.709  4.6489 -1.3907 -0.6335
  241SOL     OW  721   2.578   1.042   0.825 -0.0121  0.1507 -0.4370
  241SOL    HW1  722   2.550   0.994   0.914 -3.2927  0.0494 -0.7176
  241SOL    HW2  723   2.495   1.060   0.773  0.4725 -2.2635  2.0764
  242SOL     OW  724   2.182   2.389   2.473 -0.2397  0.0405  0.4624
  242SOL    HW1  725   2.157   2.290   2.458 -0.3480 -0.6164 -1.3891
  242SOL    HW2  726   2.208   2.427   2.383  1.5501 -1.0081  2.5422
  243SOL     OW  727   0.767   2.519   1.693 -0.3031  0.4273  0.1621
  243SOL    HW1  728   0.828   2.589   1.726 -1.4800 -0.9823  2.9421
  243SOL    HW2  729   0.785   2.481   1.599  3.5189  1.3291 -1.2919
  244SOL     OW  730   1.742   0.144   2.866  0.1950  0.4860  0.4875
  244SOL    HW1  731   1.757   0.095   2.955 -1.8662 -2.7305 -0.6050
  244SOL    HW2  732   1.797   0.107   2.786 -1.5908 -0.0727  0.9323
  245SOL     OW  733   1.225   3.081   1.334 -0.2836 -0.0121  0.3951
  245SOL    HW1  734   1.141   3.055   1.285  0.9705 -0.3592  1.2291
  245SOL    HW2  735   1.234   3.022   1.417  1.2663 -0.6113  0.7833
  246SOL     OW  736   1.617   2.398   0.221 -0.5498  0.0224  0.1694
  246SOL    HW1  737   1.704   2.391   0.277  2.0129  1.4261  2.4805
  246SOL    HW2  738   1.640   2.406   0.119 -1.5997 -3.5722  2.6991
  247SOL     OW  739   1.368   0.514   2.467 -0.1086 -0.3077 -0.4078
  247SOL    HW1  740   1.274   0.546   2.457  4.2060 -4.1696 -0.2234
  247SOL    HW2  741   1.370   0.415   2.487  1.2288  2.3187 -0.7035
  248SOL     OW  742   0.395   2.048   1.771 -0.2100  0.0008  0.4752
  248SOL    HW1  743   0.430   2.135   1.810  0.2277 -3.2382  0.9145
  248SOL    HW2  744   0.433   1.973   1.830  0.3640  3.0108 -1.1218
  249SOL     OW  745   2.135   0.259   0.575 -0.1012 -0.1859 -0.1084
  249SOL    HW1  746   2.164   0.260   0.480 -0.3858  1.8895  4.2864
  249SOL    HW2  747   2.031   0.252   0.577 -2.4613 -1.1485 -1.7862
  250SOL     OW  748   0.181   0.653   0.450 -0.0519  0.6553  0.7725
  250SOL    HW1  749   0.208   0.665   0.352  1.6603 -1.1191 -1.0509
  250SOL    HW2  750   0.078   0.671   0.451 -2.5822  2.0608 -1.7158
  251SOL     OW  751   1.275   0.645   2.943 -0.2458 -0.5500  0.2034
  251SOL    HW1  752   1.266   0.740   2.985 -0.8504 -0.0264 -0.3232
  251SOL    HW2  753   1.365   0.642   2.891  3.0705 -0.7026  0.8491
  252SOL     OW  754   1.775   1.854   2.045  0.9447  0.4553  0.1535
  252SOL    HW1  755   1.795   1.890   1.953  1.3699  0.0331  2.1512
  252SOL    HW2  756   1.715   1.774   2.028 -0.4026  1.3833 -1.0526
  253SOL     OW  757   2.611   2.417   1.367  0.0252 -0.1870  0.5460
  253SOL    HW1  758   2.539   2.360   1.324  0.6218  0.6873  1.8598
  253SOL    HW2  759   2.641   2.361   1.441 -3.7594 -0.6523 -0.3661
  254SOL     OW  760   2.924   1.027   1.046  0.2979  0.2055 -0.3062
  254SOL    HW1  761   2.968   1.006   1.138  0.5137  0.9381  2.7334
  254SOL    HW2  762   2.995   1.040   0.977 -1.1961  2.0944 -1.5761
  255SOL     OW  763   1.004   0.433   1.065 -0.1220  0.0516 -0.3905
  255SOL    HW1  764   0.971   0.362   1.129  0.4457 -1.2931 -1.5417
  255SOL    HW2  765   0.925   0.466   1.015  2.5201 -1.4555  0.4026
  256SOL     OW  766   1.776   2.214   1.546  0.3411  0.3799  0.2750
  256SOL    HW1  767   1.763   2.190   1.451  0.2181 -0.2940  1.9064
  256SOL    HW2  768   1.782   2.130   1.594 -2.4198 -1.4719  0.3713
  257SOL     OW  769   0.679   2.932   2.536  1.1760 -0.2524  0.3740
  257SOL    HW1  770   0.719   2.871   2.608  0.5796 -0.0906  1.1715
  257SOL    HW2  771   0.700   2.902   2.444  0.8306 -1.2560  3.1801
  258SOL     OW  772   0.880   2.163   0.178  0.6052 -0.5743 -0.6443
  258SOL    HW1  773   0.797   2.112   0.149  1.0023 -1.6408 -0.4498
  258SOL    HW2  774   0.926   2.124   0.261  0.6180  3.8016 -3.2011
  259SOL     OW  775   1.138   0.021   2.671 -0.2896 -0.1557 -1.0807
  259SOL    HW1  776   1.082   3.072   2.596 -0.2192  2.0263  0.3574
  259SOL    HW2  777   1.237   0.011   2.648  0.6892  0.2831 -0.5203
  260SOL     OW  778   1.828   0.609   1.038 -0.2156  0.2532  0.1180
  260SOL    HW1  779   1.769   0.609   1.122 -1.0965 -1.0469  1.1644
  260SOL    HW2  780   1.778   0.580   0.954  1.8507 -1.9897 -0.9859
  261SOL     OW  781   0.490   0.346   2.283 -0.1899 -0.2579 -0.1315
  261SOL    HW1  782   0.393   0.370   2.301  2.1800  0.6422  0.4606
  261SOL    HW2  783   0.539   0.426   2.249 -2.8339  0.7317  0.8751
  262SOL     OW  784   0.201   2.080   2.032 -0.1834 -0.3459  0.0933
  262SOL    HW1  785   0.284   2.106   2.089  1.6222 -1.5397  1.5893
  262SOL    HW2  786   0.169   2.158   1.975  1.0674 -0.2459  1.8205
  263SOL     OW  787   2.750   1.359   2.379  0.1293 -0.3026 -0.3767
  263SOL    HW1  788   2.850   1.348   2.408 -0.1002  0.5207  3.5618
  263SOL    HW2  789   2.718   1.452   2.392 -1.5123 -0.9918  1.9401
  264SOL     OW  790   1.084   0.928   0.916 -0.7153 -0.1797 -0.0133
  264SOL    HW1  791   0.989   0.964   0.921 -0.6322  1.6690 -1.3239
  264SOL    HW2  792   1.092   0.891   0.822 -1.1438  0.1369 -1.3949
  265SOL     OW  793   1.303   2.506   1.215 -0.4951 -0.5418  0.2453
  265SOL    HW1  794   1.287   2.497   1.312 -0.9757 -2.4525  1.3852
  265SOL    HW2  795   1.337   2.596   1.191  0.1915  1.1704  0.0961
  266SOL     OW  796   1.675   0.997   1.105  0.1625  0.0572 -0.8179
  266SOL    HW1  797   1.766   1.046   1.110 -3.0477 -0.4343 -1.6904
  266SOL    HW2  798   1.673   0.950   1.015 -0.0529  0.0537 -1.3008
  267SOL     OW  799   2.379   1.133   0.046 -0.4659  0.9749 -0.1568
  267SOL    HW1  800   2.465   1.093   0.004  0.6246  2.2210 -1.3063
  267SOL    HW2  801   2.301   1.068   0.028  0.5174 -2.9410  0.8372
  268SOL     OW  802   1.207   0.210   0.425 -0.0468  0.3768  0.1055
  268SOL    HW1  803   1.198   0.116   0.473 -1.1403 -1.5518  2.9027
  268SOL    HW2  804   1.302   0.240   0.426  0.1383 -1.9539 -1.0224
  269SOL     OW  805   2.696   0.635   2.550 -0.2944 -0.4155 -0.0764
  269SOL    HW1  806   2.707   0.702   2.471  0.3495 -1.5503 -1.1614
  269SOL    HW2  807   2.599   0.608   2.564  1.3734 -1.7168 -0.6959
  270SOL     OW  808   0.278   1.309   2.835 -0.0298  0.2731  0.1128
  270SOL    HW1  809   0.281   1.297   2.935 -0.4030  2.8716 -3.0101
  270SOL    HW2  810   0.366   1.279   2.795 -0.0585 -0.5298  2.3442
  271SOL     OW  811   2.722   0.973   0.173  0.0862 -0.3837 -0.3545
  271SOL    HW1  812   2.654   0.907   0.214 -3.3333 -0.7078  1.8739
  271SOL    HW2  813   2.741   1.053   0.235  1.6833 -0.5418  0.1065
  272SOL     OW  814   2.805   2.493   2.523 -0.3298  0.9452  0.7350
  272SOL    HW1  815   2.844   2.588   2.533  1.9236  0.1293 -0.8697
  272SOL    HW2  816   2.752   2.467   2.605 -1.2076 -0.3255  0.6854
  273SOL     OW  817   2.931   3.022   2.657  0.1076 -0.4828 -0.7716
  273SOL    HW1  818   2.922   0.026   2.607  0.4646  1.2812 -1.9362
  273SOL    HW2  819   2.921   3.032   2.760 -1.0268 -1.0868  1.2569
  274SOL     OW  820   0.688   2.316   0.841  0.4641 -0.0062 -0.4666
  274SOL    HW1  821   0.613   2.381   0.866 -2.1321 -0.5008  1.2443
  274SOL    HW2  822   0.778   2.368   0.832  2.3261  1.2173 -1.3391
  275SOL     OW  823   2.177   0.820   0.543 -0.1651 -0.3853  0.0307
  275SOL    HW1  824   2.156   0.723   0.509  0.2775  1.8589 -0.2529
  275SOL    HW2  825   2.274   0.830   0.561  0.8965 -1.8058 -1.5270
  276SOL     OW  826   2.845   1.266   1.429 -0.3068 -0.0556 -0.2143
  276SOL    HW1  827   2.760   1.285   1.378  2.5935  0.7501 -2.8511
  276SOL    HW2  828   2.841   1.280   1.530 -1.1542 -1.3492 -2.1292
  277SOL     OW  829   2.162   3.051   1.183  0.2454 -0.3747 -0.3841
  277SOL    HW1  830   2.142   3.023   1.281 -1.9809 -1.5022 -0.7537
  277SOL    HW2  831   2.262   3.081   1.174  1.6648  0.6270 -2.4147
  278SOL     OW  832   1.544   2.654   2.482 -0.0012  0.1024  0.2173
  278SOL    HW1  833   1.561   2.554   2.481  0.1861 -0.0362 -0.2630
  278SOL    HW2  834   1.446   2.678   2.480  0.8303 -0.2982  1.6347
  279SOL     OW  835   1.653   2.013   1.248 -0.1972  0.7770 -0.4286
  279SOL    HW1  836   1.685   1.942   1.314 -1.3025 -2.1879  2.2333
  279SOL    HW2  837   1.711   2.100   1.258 -1.5691 -1.0304 -1.3673
  280SOL     OW  838   0.420   1.414   0.982 -0.4467  0.6407  0.0031
  280SOL    HW1  839   0.425   1.499   0.930  1.4032  0.5936 -2.1412
  280SOL    HW2  840   0.399   1.434   1.081  2.6819  1.0661 -3.9424
  281SOL     OW  841   2.726   1.182   2.582 -0.2099 -0.0642  0.3005
  281SOL    HW1  842   2.658   1.192   2.657 -0.9851  0.5925  0.8572
  281SOL    HW2  843   2.723   1.261   2.515 -2.8989  0.0682  0.3166
  282SOL     OW  844   0.571   1.604   0.123  0.2916 -1.1998 -0.2502
  282SOL    HW1  845   0.494   1.590   0.187 -0.8141  0.0509  0.4776
  282SOL    HW2  846   0.647   1.544   0.147 -1.8846  0.3435 -4.1311
  283SOL     OW  847   2.036   2.480   0.115 -0.6566  0.1629 -0.0105
  283SOL    HW1  848   2.115   2.530   0.071  2.3862  0.2202 -1.7650
  283SOL    HW2  849   1.963   2.456   0.049 -3.9472  0.8977 -0.3919
  284SOL     OW  850   0.876   2.953   0.955  0.5362  0.1079  0.2604
  284SOL    HW1  851   0.872   2.967   0.854 -1.3712 -1.6023  0.1594
  284SOL    HW2  852   0.952   2.885   0.966 -1.8566  1.6781 -1.1511
  285SOL     OW  853   2.307   1.402   2.614  0.4588  0.2927  0.4227
  285SOL    HW1  854   2.320   1.356   2.527 -2.3525  0.9894  1.7662
  285SOL    HW2  855   2.244   1.352   2.674 -0.4621  0.8691  0.2356
  286SOL     OW  856   1.925   2.535   0.999 -0.1589 -0.7618  0.1510
  286SOL    HW1  857   1.953   2.438   0.978 -0.0443 -2.1029  2.2739
  286SOL    HW2  858   2.008   2.596   0.993 -1.2643  0.5380  1.9759
  287SOL     OW  859   1.218   0.287   0.950 -0.1967 -0.5077 -0.3576
  287SOL    HW1  860   1.249   0.214   1.012 -1.2008  2.7575 -0.4148
  287SOL    HW2  861   1.159   0.348   1.004 -1.3539  0.9691  3.2838
  288SOL     OW  862   0.813   2.276   3.014  0.0254  0.1469  0.0843
  288SOL    HW1  863   0.735   2.343   3.011 -2.8089 -0.1944 -0.5816
  288SOL    HW2  864   0.822   2.240   0.023  1.5908 -0.0435 -2.6832
  289SOL     OW  865   0.028   1.448   0.819  0.8573  0.3238 -0.0445
  289SOL    HW1  866   3.017   1.461   0.864 -1.8745 -0.0198 -0.0360
  289SOL    HW2  867   0.069   1.543   0.821  0.4547  0.7276  0.1409
  290SOL     OW  868   1.410   2.041   1.134 -0.0861 -0.3807  0.4264
  290SOL    HW1  869   1.498   2.013   1.181  3.1791 -2.1160  1.7425
  290SOL    HW2  870   1.328   1.986   1.160 -2.6023  1.0305 -0.5899
  291SOL     OW  871   1.324   3.039   0.201 -0.2282 -0.0279 -0.0739
  291SOL    HW1  872   1.352   2.951   0.243  1.0634  1.7545 -1.7284
  291SOL    HW2  873   1.349   3.034   0.104  1.4580 -1.3529  1.6940
  292SOL     OW  874   0.476   0.384   1.941  0.0944  0.0934  0.1509
  292SOL    HW1  875   0.460   0.483   1.956 -0.7580  1.8781 -0.4576
  292SOL    HW2  876   0.560   0.357   1.985  0.0848 -0.2632 -2.1661
  293SOL     OW  877   2.510   1.961   1.331  0.2957 -0.1372  0.2628
  293SOL    HW1  878   2.609   1.953   1.310  0.5867  0.2358  0.7206
  293SOL    HW2  879   2.477   2.055   1.298  3.5040 -0.5088 -4.3216
  294SOL     OW  880   0.865   0.190   2.425 -0.5050 -0.1571  0.0330
  294SOL    HW1  881   0.860   0.287   2.454 -1.7971  2.0615 -0.7627
  294SOL    HW2  882   0.782   0.160   2.377  4.1415 -1.1256  1.8064
  295SOL     OW  883   1.653   1.538   1.294  0.7386  0.3343  0.0340
  295SOL    HW1  884   1.657   1.436   1.303 -1.5684 -0.8074 -1.4212
  295SOL    HW2  885   1.671   1.584   1.382 -1.7431 -2.6817 -0.1705
  296SOL     OW  886   2.555   1.892   0.104 -0.4721  0.3841  0.0645
  296SOL    HW1  887   2.466   1.886   0.149  1.3796  1.3487 -1.7082
  296SOL    HW2  888   2.625   1.839   0.156  1.2536  0.5792  4.2420
  297SOL     OW  889   2.716   0.201   0.342 -0.0490 -0.2701  0.5254
  297SOL    HW1  890   2.673   0.175   0.249  0.2457 -0.1602 -0.0784
  297SOL    HW2  891   2.650   0.252   0.397  2.1594 -3.5781 -2.8206
  298SOL     OW  892   0.772   0.077   2.940 -0.1036  0.3062  0.4232
  298SOL    HW1  893   0.712   0.058   2.858  0.3373 -0.2277 -0.0278
  298SOL    HW2  894   0.719   0.076   3.026  2.6785  0.5448 -0.0826
  299SOL     OW  895   0.719   2.111   2.195 -0.5214 -0.3421 -0.5606
  299SOL    HW1  896   0.724   2.028   2.136  0.9778 -0.3563 -2.4043
  299SOL    HW2  897   0.753   2.095   2.289  1.4727 -1.4257 -1.9441
  300SOL     OW  898   2.802   3.022   2.138 -0.6732 -1.0217  0.2175
  300SOL    HW1  899   2.849   0.018   2.176  0.5180 -1.7290 -0.9370
  300SOL    HW2  900   2.868   2.954   2.105 -0.9815  2.5270  0.3867
  301SOL     OW  901   1.145   0.727   1.920  0.3454  0.0239 -0.0538
  301SOL    HW1  902   1.226   0.676   1.885  1.2532 -1.6991 -1.1005
  301SOL    HW2  903   1.173   0.794   1.992  2.0416  2.8064  2.0293
  302SOL     OW  904   0.010   2.203   0.061  0.2749  0.1379  0.4625
  302SOL    HW1  905   0.097   2.224   0.109 -1.4105  1.8665  4.3151
  302SOL    HW2  906   3.029   2.176   0.133  0.4791  1.7799 -0.7145
  303SOL     OW  907   2.450   2.681   1.518 -0.3816 -0.1830 -0.0105
  303SOL    HW1  908   2.476   2.599   1.468  0.5672  0.9006  0.2574
  303SOL    HW2  909   2.528   2.744   1.530 -2.4142  0.0743  0.6311
  304SOL     OW  910   2.737   0.675   1.500 -0.4940  0.1749 -0.0469
  304SOL    HW1  911   2.686   0.614   1.562 -0.2393  2.7877  0.9305
  304SOL    HW2  912   2.805   0.724   1.554 -1.6936 -2.7703 -0.7944
  305SOL     OW  913   0.979   1.887   0.823 -0.0460 -0.4091  0.0132
  305SOL    HW1  914   0.983   1.932   0.914 -0.4593 -0.1697  1.9980
  305SOL    HW2  915   0.900   1.820   0.825 -0.2944 -1.7616  1.3483
  306SOL     OW  916   0.497   1.237   2.105  0.4194 -0.0319  0.9035
  306SOL    HW1  917   0.444   1.325   2.100 -0.6178 -2.0477  1.3244
  306SOL    HW2  918   0.577   1.245   2.164 -1.9451 -2.1799 -0.7180
  307SOL     OW  919   1.062   0.292   1.598  0.6848  0.0119 -0.1163
  307SOL    HW1  920   1.078   0.324   1.692 -0.4332  1.0637  1.2849
  307SOL    HW2  921   1.029   0.199   1.605  0.5937  0.9856 -0.8005
  308SOL     OW  922   0.044   1.001   0.875  0.2107 -0.7867 -0.2560
  308SOL    HW1  923   0.116   0.956   0.933 -1.4141 -2.0706 -1.1833
  308SOL    HW2  924   0.008   0.929   0.814  1.3886 -0.0304  1.0330
  309SOL     OW  925   2.679   1.059   1.262  0.0517  0.2602 -0.1155
  309SOL    HW1  926   2.668   1.161   1.248  0.2302  1.3336 -2.0397
  309SOL    HW2  927   2.759   1.036   1.317  0.4110  1.7299 -3.5034
  310SOL     OW  928   0.187   1.682   2.512  0.2379  0.1331 -0.2886
  310SOL    HW1  929   0.232   1.628   2.585  0.2567  0.8892  1.0918
  310SOL    HW2  930   0.243   1.765   2.483 -0.0174  2.4986 -1.0881
  311SOL     OW  931   2.598   2.644   2.137 -0.5743 -0.8979 -0.1706
  311SOL    HW1  932   2.633   2.672   2.045 -3.9166 -1.5320  1.3198
  311SOL    HW2  933   2.623   2.715   2.209  1.1079  2.5450  1.8463
  312SOL     OW  934   2.150   2.159   3.045 -0.3576  0.3123  0.3031
  312SOL    HW1  935   2.059   2.208   3.047 -1.9656 -1.5012 -0.1747
  312SOL    HW2  936   2.133   2.058   3.053  0.4917 -1.6084  1.2079
  313SOL     OW  937   2.902   2.864   0.620 -0.2266 -0.3462  0.3649
  313SOL    HW1  938   2.841   2.921   0.558 -1.1985  0.3645  1.5218
  313SOL    HW2  939   2.996   2.865   0.581  0.9852 -1.9363 -0.4251
  314SOL     OW  940   1.881   1.157   0.070 -0.2073  0.0499  0.2694
  314SOL    HW1  941   1.865   1.155   0.174  0.4657  1.0535  2.9315
  314SOL    HW2  942   1.945   1.229   0.042 -0.3207  0.2426  0.1888
  315SOL     OW  943   1.409   3.033   2.555  0.1954  0.0546 -0.7878
  315SOL    HW1  944   1.366   2.949   2.512 -1.8462 -1.2747 -2.0156
  315SOL    HW2  945   1.466   0.005   2.494 -2.5439  0.6548  0.2871
  316SOL     OW  946   0.010   1.522   0.325  0.2823  0.2530  0.0373
  316SOL    HW1  947   0.024   1.432   0.373  0.9069  2.4822  0.7439
  316SOL    HW2  948   3.050   1.520   0.233 -3.0023 -1.5289  0.9249
  317SOL     OW  949   0.598   2.839   3.022 -0.1256  0.3268  0.0397
  317SOL    HW1  950   0.514   2.890   3.047 -1.5656  0.3357  0.7758
  317SOL    HW2  951   0.669   2.861   0.008  0.0517  0.5607  1.3902
  318SOL     OW  952   2.325   2.344   1.029  0.1868  0.1739 -0.3161
  318SOL    HW1  953   2.290   2.353   0.933 -3.0121  0.9664 -0.1770
  318SOL    HW2  954   2.324   2.434   1.067  0.6362 -2.6024 -0.3829
  319SOL     OW  955   1.270   1.937   2.926  0.0221 -0.0008  0.3674
  319SOL    HW1  956   1.200   1.916   2.850 -4.0725 -0.6649 -4.7349
  319SOL    HW2  957   1.225   1.917   3.021 -3.7314  0.3093  1.4522
  320SOL     OW  958   0.644   2.020   1.176 -0.4403 -0.1932 -0.0410
  320SOL    HW1  959   0.718   2.089   1.147  3.8371  0.0634 -0.0892
  320SOL    HW2  960   0.590   2.042   1.264 -2.4390  0.3264  0.6181
  321SOL     OW  961   1.287   2.702   2.494  0.2115 -0.0580  0.2245
  321SOL    HW1  962   1.267   2.784   2.435 -1.7406 -0.6122  0.1422
  321SOL    HW2  963   1.198   2.649   2.508 -1.1464 -2.3936 -1.2561
  322SOL     OW  964   2.599   1.675   1.789 -0.2265  0.1488  0.2696
  322SOL    HW1  965   2.573   1.757   1.843  3.5793 -1.6531 -2.8412
  322SOL    HW2  966   2.615   1.702   1.689  0.7763  2.7172  1.8997
  323SOL     OW  967   2.745   0.792   1.061  0.5309  0.2653 -0.1335
  323SOL    HW1  968   2.808   0.726   1.013 -0.4635 -2.6891 -1.2693
  323SOL    HW2  969   2.787   0.886   1.048  1.1070 -0.3103 -2.5997
  324SOL     OW  970   2.672   2.840   2.320 -0.3868 -0.5816 -0.0624
  324SOL    HW1  971   2.582   2.881   2.325  0.9539 -1.3884 -1.4256
  324SOL    HW2  972   2.741   2.909   2.308  0.3668 -1.8988  2.4683
  325SOL     OW  973   1.082   0.601   2.445 -0.0801 -0.3329 -0.0248
  325SOL    HW1  974   1.018   0.564   2.518 -1.0556  0.6412  1.0163
  325SOL    HW2  975   1.038   0.615   2.353  0.7873 -0.3451 -0.4917
  326SOL     OW  976   2.116   2.835   2.162 -0.2598  0.4380 -0.4609
  326SOL    HW1  977   2.161   2.916   2.207 -2.0555  0.7952  4.6315
  326SOL    HW2  978   2.045   2.866   2.097 -0.5093 -2.4922 -0.8264
  327SOL     OW  979   2.129   0.246   3.022 -0.1595  0.3770 -0.3184
  327SOL    HW1  980   2.207   0.301   3.048  0.2945 -3.4622  0.7064
  327SOL    HW2  981   2.162   0.155   2.997  1.8417  4.5241  0.9489
  328SOL     OW  982   0.003   1.287   2.186 -0.5992 -0.6379  0.3091
  328SOL    HW1  983   0.073   1.311   2.115 -0.0199  1.1146  2.4826
  328SOL    HW2  984   3.001   1.344   2.167 -0.6951  0.7463 -0.1833
  329SOL     OW  985   1.633   0.198   1.726  0.4498 -0.4135  0.3436
  329SOL    HW1  986   1.639   0.202   1.829  0.3296 -0.4252 -1.3963
  329SOL    HW2  987   1.729   0.212   1.689 -1.1746 -0.8260 -0.2190
  330SOL     OW  988   0.319   1.195   0.872  0.1399 -0.3109 -0.5530
  330SOL    HW1  989   0.239   1.201   0.805 -3.3376  3.1134  1.4088
  330SOL    HW2  990   0.347   1.290   0.910  2.1859  1.6861  0.3128
  331SOL     OW  991   0.345   1.465   2.066  0.3355  0.7641  0.4079
  331SOL    HW1  992   0.251   1.462   2.023 -2.8121  0.4713  1.0178
  331SOL    HW2  993   0.361   1.557   2.109  1.5177  0.2169  0.9419
  332SOL     OW  994   2.874   2.676   1.601  0.1066  0.1682  0.2681
  332SOL    HW1  995   2.866   2.683   1.500 -1.5776  0.5987 -0.6956
  332SOL    HW2  996   2.931   2.595   1.626  0.0599 -2.1609  1.1344
  333SOL     OW  997   2.376   0.066   0.960 -0.6126  0.0780  0.1286
  333SOL    HW1  998   2.273   0.054   0.963  0.3009 -1.0524  1.6183
  333SOL    HW2  999   2.425   3.074   1.004 -1.7439 -1.0225  2.6883
  334SOL     OW 1000   0.664   1.724   0.658  0.7257 -0.2462  0.4466
  334SOL    HW1 1001   0.712   1.666   0.593 -0.5530 -1.2392  0.3198
  334SOL    HW2 1002   0.569   1.695   0.680  0.8320 -0.9799  0.0395
  335SOL     OW 1003   0.197   2.644   2.876 -0.0458  0.0512 -0.0027
  335SOL    HW1 1004   0.099   2.625   2.847  0.7857 -1.1234  2.1498
  335SOL    HW2 1005   0.246   2.555   2.891 -1.6566  0.0673  3.2608
  336SOL     OW 1006   0.243   2.696   2.260  0.1229 -0.4883  0.4041
  336SOL    HW1 1007   0.237   2.774   2.196 -2.5225 -1.0937  0.9250
  336SOL    HW2 1008   0.255   2.608   2.207  1.1673 -0.5135  1.2008
  337SOL     OW 1009   2.146   2.564   2.195  0.1302  0.2842 -0.0111
  337SOL    HW1 1010   2.129   2.664   2.176  0.7994  2.1872  2.8924
  337SOL    HW2 1011   2.054   2.518   2.189 -1.4040  0.0308 -2.1409
  338SOL     OW 1012   0.690   0.012   0.243  0.5379  0.7117 -0.1544
  338SOL    HW1 1013   0.661   0.084   0.173 -1.1597 -1.1200 -1.4088
  338SOL    HW2 1014   0.600   3.050   0.271 -3.0796  0.8605  0.2990
  339SOL     OW 1015   0.484   0.980   2.031 -0.6760  0.2485  0.3865
  339SOL    HW1 1016   0.436   0.959   1.949  2.7075  1.2423  2.2986
  339SOL    HW2 1017   0.500   1.076   2.057  1.6909 -0.4362  2.3535
  340SOL     OW 1018   1.600   2.918   0.490 -0.3427  0.0715  0.3736
  340SOL    HW1 1019   1.638   2.884   0.573 -3.4668  1.2555  0.3258
  340SOL    HW2 1020   1.604   3.021   0.486 -2.9626 -0.0452  1.2702
  341SOL     OW 1021   2.190   1.239   0.803  0.1321 -0.0920 -0.5732
  341SOL    HW1 1022   2.093   1.213   0.794  3.8005 -0.0435 -1.3873
  341SOL    HW2 1023   2.226   1.231   0.900  0.0743  0.4123  3.5783
  342SOL     OW 1024   2.533   0.113   0.105  0.0253 -0.0222  0.0825
  342SOL    HW1 1025   2.447   0.064   0.138 -2.0057  1.3543  0.5651
  342SOL    HW2 1026   2.605   0.047   0.086 -0.7849  0.0187 -0.6694
  343SOL     OW 1027   1.225   2.276   1.741 -0.2122  0.3827 -0.2701
  343SOL    HW1 1028   1.180   2.363   1.763  2.2515 -3.6434 -3.2082
  343SOL    HW2 1029   1.330   2.275   1.751  1.2771  2.9753 -2.4361
  344SOL     OW 1030   2.530   2.703   1.105 -0.2959 -0.6706 -0.8845
  344SOL    HW1 1031   2.550   2.669   1.014 -0.9508 -1.8113  0.2999
  344SOL    HW2 1032   2.603   2.669   1.167  0.9261  0.6185 -1.2597
  345SOL     OW 1033   2.776   2.278   0.043 -0.1288  0.1855  0.0011
  345SOL    HW1 1034   2.780   2.379   0.047  0.0406  0.2320  3.5243
  345SOL    HW2 1035   2.826   2.243   0.125  0.0308 -2.2662  0.2316
  346SOL     OW 1036   2.355   2.018   0.722 -0.3077 -0.3606 -0.3292
  346SOL    HW1 1037   2.353   2.110   0.683  0.6740 -5.9444 -0.7626
  346SOL    HW2 1038   2.437   1.968   0.693  1.2920  1.5414  1.5407
  347SOL     OW 1039   1.541   2.008   1.717 -0.3278 -0.4337 -0.1191
  347SOL    HW1 1040   1.512   2.106   1.719 -0.0580  2.2394  0.5435
  347SOL    HW2 1041   1.468   1.936   1.714  0.5754  1.0461 -0.6403
  348SOL     OW 1042   0.554   1.619   2.443  0.1972  0.4540  0.4788
  348SOL    HW1 1043   0.480   1.615   2.514  0.6780 -2.7495  1.3164
  348SOL    HW2 1044   0.580   1.521   2.423 -0.2279  0.5997 -3.8006
  349SOL     OW 1045   2.464   1.352   0.858  0.1187  0.1270 -0.1077
  349SOL    HW1 1046   2.541   1.369   0.794  0.1689  1.2111  1.6758
  349SOL    HW2 1047   2.385   1.413   0.834  1.2693  1.9190 -1.2124
  350SOL     OW 1048   2.848   2.382   1.079 -0.7117 -0.3019  0.7266
  350SOL    HW1 1049   2.787   2.300   1.063  1.3479  0.2574 -0.8783
  350SOL    HW2 1050   2.895   2.414   0.992  0.6593 -1.3167 -2.4649
  351SOL     OW 1051   0.366   3.030   1.985 -0.3683  0.2429  0.3567
  351SOL    HW1 1052   0.286   3.059   1.925 -1.4921 -2.0713 -1.3864
  351SOL    HW2 1053   0.464   3.055   1.949  1.4385 -1.6397  1.4667
  352SOL     OW 1054   0.909   1.466   0.947 -0.0626  0.1229 -0.2947
  352SOL    HW1 1055   0.880   1.551   0.911 -2.8597 -1.1129  2.9448
  352SOL    HW2 1056   0.985   1.425   0.895 -0.5371  0.5944  0.8610
  353SOL     OW 1057   1.357   1.524   2.469 -0.4224  0.5013 -0.0843
  353SOL    HW1 1058   1.281   1.516   2.532  1.6916  1.7695  0.0207
  353SOL    HW2 1059   1.423   1.442   2.480  1.5062 -1.8941 -1.1371
  354SOL     OW 1060   1.611   2.978   1.422  0.5986  0.5818  0.1884
  354SOL    HW1 1061   1.541   2.902   1.409 -1.6116 -1.4051 -0.8680
  354SOL    HW2 1062   1.596   3.025   1.514 -0.5436  0.6308  0.7495
  355SOL     OW 1063   2.213   1.424   0.611  0.3814  0.4628  0.2589
  355SOL    HW1 1064   2.228   1.341   0.676 -0.0955 -1.8473  0.6893
  355SOL    HW2 1065   2.183   1.393   0.517  1.0334  0.6512  1.4170
  356SOL     OW 1066   2.836   1.685   2.054  0.5046 -0.0359 -0.4158
  356SOL    HW1 1067   2.793   1.716   1.968  2.8748  1.7195  1.3813
  356SOL    HW2 1068   2.796   1.727   2.139 -1.5241  0.9987  0.5169
  357SOL     OW 1069   0.634   2.781   1.434 -0.1030 -0.2345  0.1064
  357SOL    HW1 1070   0.584   2.769   1.343 -1.6732  0.4475  0.1551
  357SOL    HW2 1071   0.684   2.870   1.435  1.4045 -0.5285 -1.9788
  358SOL     OW 1072   2.519   1.201   1.690  0.6188  0.4975  0.0852
  358SOL    HW1 1073   2.588   1.247   1.748  1.3921 -1.8431 -2.8568
  358SOL    HW2 1074   2.443   1.167   1.746 -0.8811 -2.0555 -0.1212
  359SOL     OW 1075   2.184   2.758   2.750  0.2568 -0.0648 -0.5059
  359SOL    HW1 1076   2.233   2.668   2.741  2.4748  0.4345 -1.6240
  359SOL    HW2 1077   2.161   2.778   2.848 -2.3192  0.1935 -0.5382
  360SOL     OW 1078   0.584   0.548   0.973 -0.4707  0.0604 -0.5979
  360SOL    HW1 1079   0.557   0.449   0.963 -3.0778 -1.9345  0.7122
  360SOL    HW2 1080   0.507   0.605   0.940  1.6091 -0.0150  2.2186
  361SOL     OW 1081   1.882   2.925   1.143  0.0857 -0.1404  0.4370
  361SOL    HW1 1082   1.820   3.006   1.137  1.3265 -1.0840 -1.0083
  361SOL    HW2 1083   1.915   2.905   1.238 -0.3808  0.7622 -0.8150
  362SOL     OW 1084   1.261   1.158   0.917 -0.3167 -0.2510  0.6795
  362SOL    HW1 1085   1.354   1.123   0.893  1.4261 -0.6974  0.5666
  362SOL    HW2 1086   1.195   1.078   0.930 -0.3624 -1.8565 -1.3151
  363SOL     OW 1087   2.399   1.651   2.618  0.1134  0.6020 -0.0018
  363SOL    HW1 1088   2.446   1.638   2.708 -0.4827 -1.0508  0.9649
  363SOL    HW2 1089   2.364   1.558   2.593  0.5129 -0.2657  0.6040
  364SOL     OW 1090   0.110   0.231   0.929 -0.4905 -0.2755  0.1969
  364SOL    HW1 1091   0.153   0.183   1.010  1.4811 -0.7770  0.0553
  364SOL    HW2 1092   0.033   0.291   0.953 -1.1318 -0.4501 -0.2581
  365SOL     OW 1093   0.174   3.009   2.655  0.1799  0.3699 -0.0703
  365SOL    HW1 1094   0.206   2.941   2.587 -0.5983  2.2162  0.0257
  365SOL    HW2 1095   0.082   3.041   2.635  1.9451 -1.0646  2.1762
  366SOL     OW 1096   2.282   2.209   0.185  0.0850 -0.1043  0.2100
  366SOL    HW1 1097   2.244   2.191   0.094 -2.1135  2.1503  3.8488
  366SOL    HW2 1098   2.349   2.286   0.175  1.1832  0.4963  0.3359
  367SOL     OW 1099   2.613   2.531   3.016  0.1296  0.6496 -0.5077
  367SOL    HW1 1100   2.662   2.494   2.936  0.3180  0.0588 -2.1546
  367SOL    HW2 1101   2.684   2.556   3.084 -0.9069 -1.7313 -0.8092
  368SOL     OW 1102   0.313   1.780   0.981  0.5288 -0.2535  0.5055
  368SOL    HW1 1103   0.323   1.737   0.887 -1.8480  0.0532 -3.2198
  368SOL    HW2 1104   0.262   1.714   1.040  0.4426 -1.4287 -0.6932
  369SOL     OW 1105   0.644   2.671   2.786  0.1335  0.0916 -0.2107
  369SOL    HW1 1106   0.627   2.734   2.867  1.8638  0.0284  3.0175
  369SOL    HW2 1107   0.733   2.697   2.750 -0.9618 -1.9178 -2.2773
  370SOL     OW 1108   3.018   0.804   0.718 -0.1479  0.3030 -0.0834
  370SOL    HW1 1109   3.059   0.792   0.626  0.5846 -0.2157 -1.9158
  370SOL    HW2 1110   3.036   0.716   0.772  1.6662 -6.1473  1.5896
  371SOL     OW 1111   1.759   2.164   0.930 -0.3631  0.7417  0.7120
  371SOL    HW1 1112   1.836   2.219   0.964 -1.8257 -2.9684  0.9742
  371SOL    HW2 1113   1.775   2.070   0.950  0.2725  2.4866 -0.3031
  372SOL     OW 1114   0.535   0.922   2.940  0.2268 -0.1299  0.2367
  372SOL    HW1 1115   0.588   0.984   2.876  0.9220 -2.8267  0.4139
  372SOL    HW2 1116   0.541   0.824   2.905  0.8776  0.4992  0.0610
  373SOL     OW 1117   0.006   1.949   0.957  0.3581 -0.3843 -0.3853
  373SOL    HW1 1118   3.013   1.994   0.909  2.3803 -1.3962  1.1829
  373SOL    HW2 1119   3.074   1.969   1.055  0.5814  2.1044  0.3926
  374SOL     OW 1120   0.153   2.846   0.100  0.0262  0.0543 -0.0392
  374SOL    HW1 1121   0.144   2.744   0.117  1.1573 -3.7178  1.2446
  374SOL    HW2 1122   0.198   2.862   0.007  1.4694  1.2938 -1.3745
  375SOL     OW 1123   0.180   0.301   0.260 -0.0829 -0.2718  0.4590
  375SOL    HW1 1124   0.213   0.302   0.350 -0.1323  2.1631 -1.3172
  375SOL    HW2 1125   0.080   0.295   0.245  1.2470 -0.7174 -1.5073
  376SOL     OW 1126   0.007   2.564   1.960  0.2293 -0.2641  0.0006
  376SOL    HW1 1127   3.027   2.528   1.889 -0.5051 -2.0476 -1.6327
  376SOL    HW2 1128   0.057   2.645   1.919 -3.5583 -1.5773 -1.0752
  377SOL     OW 1129   1.897   2.496   2.817  0.1039 -0.0366 -0.5854
  377SOL    HW1 1130   1.860   2.574   2.873  0.7512 -0.1248 -0.1326
  377SOL    HW2 1131   1.912   2.523   2.720  0.4615  2.9659  0.8568
  378SOL     OW 1132   0.519   0.371   0.325  0.4996  0.3215 -0.0338
  378SOL    HW1 1133   0.594   0.437   0.301 -1.5568 -0.4124  0.7352
  378SOL    HW2 1134   0.552   0.302   0.392  1.3755 -1.3505  0.8521
  379SOL     OW 1135   0.779   1.582   0.449 -0.4862  0.3205 -0.4740
  379SOL    HW1 1136   0.752   1.531   0.367  1.0719  1.6160  1.0253
  379SOL    HW2 1137   0.829   1.519   0.513 -0.9683 -1.6849  1.6671
  380SOL     OW 1138   0.336   1.792   1.342 -0.4782  0.3144  0.1281
  380SOL    HW1 1139   0.416   1.777   1.404 -0.5175 -0.3565  0.0888
  380SOL    HW2 1140   0.356   1.875   1.286 -1.3577 -1.0279 -0.0269
  381SOL     OW 1141   0.515   1.327   1.794 -0.4660  0.3659 -0.0515
  381SOL    HW1 1142   0.608   1.301   1.760 -1.8451 -1.4728 -1.6653
  381SOL    HW2 1143   0.497   1.287   1.885  2.3935  0.8687 -0.4260
  382SOL     OW 1144   2.205   1.834   0.621  0.1753 -0.2154  0.6136
  382SOL    HW1 1145   2.255   1.910   0.668  1.9649 -1.4807 -0.9950
  382SOL    HW2 1146   2.266   1.756   0.612 -0.9814 -0.4912  2.5042
  383SOL     OW 1147   2.825   1.785   2.329  0.7096 -0.3750 -0.5155
  383SOL    HW1 1148   2.845   1.878   2.371  1.4385  2.0619 -1.9489
  383SOL    HW2 1149   2.894   1.718   2.353 -1.4852  1.7995 -1.2310
  384SOL     OW 1150   0.291   1.934   2.413  0.0942 -0.3681 -0.0147
  384SOL    HW1 1151   0.359   1.957   2.490  1.2983  0.1129 -1.8572
  384SOL    HW2 1152   0.237   2.012   2.379 -1.8299 -1.1962  0.0506
  385SOL     OW 1153   2.684   1.798   0.942  0.0299  0.4337  0.2896
  385SOL    HW1 1154   2.717   1.735   1.013  2.7008  0.0040 -0.6456
  385SOL    HW2 1155   2.725   1.888   0.970 -0.8196 -1.4399 -0.6535
  386SOL     OW 1156   1.690   0.875   0.853 -0.6048 -0.6385 -0.2145
  386SOL    HW1 1157   1.748   0.803   0.806 -1.1039 -0.6195  1.9557
  386SOL    HW2 1158   1.607   0.883   0.798  0.2454  1.9230  3.7305
  387SOL     OW 1159   0.402   0.730   1.644  0.4508 -0.1952  0.0450
  387SOL    HW1 1160   0.421   0.811   1.705  0.6565  0.0519  1.3303
  387SOL    HW2 1161   0.363   0.761   1.554 -0.2487 -0.4292 -1.4098
  388SOL     OW 1162   2.184   1.004   2.182  0.1302 -0.5718 -0.0214
  388SOL    HW1 1163   2.214   1.026   2.275  3.4158  0.5957 -3.6163
  388SOL    HW2 1164   2.209   0.909   2.161  0.2638 -2.2743 -1.0055
  389SOL     OW 1165   1.919   1.315   1.955  0.1708 -0.4777 -0.4690
  389SOL    HW1 1166   2.000   1.289   1.896 -1.9484  3.1492 -0.4822
  389SOL    HW2 1167   1.952   1.389   2.022  2.1668  2.3695  1.2899
  390SOL     OW 1168   1.687   2.716   0.291 -0.2894  0.6010 -0.6262
  390SOL    HW1 1169   1.649   2.780   0.364  1.0640 -0.7299 -0.1084
  390SOL    HW2 1170   1.620   2.708   0.213 -0.5949  2.1072  0.4679
  391SOL     OW 1171   2.049   1.883   1.169 -0.2604 -0.4181  0.0600
  391SOL    HW1 1172   1.968   1.892   1.109  1.0016 -1.5439 -2.7889
  391SOL    HW2 1173   2.034   1.843   1.258 -2.2036  2.6865 -0.0299
  392SOL     OW 1174   0.078   2.726   1.406  0.5612 -0.3823 -0.2389
  392SOL    HW1 1175   3.071   2.753   1.373 -2.2033 -1.3901  2.1501
  392SOL    HW2 1176   0.110   2.643   1.366 -0.2779  0.5486 -2.6460
  393SOL     OW 1177   2.119   1.904   3.050 -0.5059  0.4416 -0.5425
  393SOL    HW1 1178   2.139   1.809   0.002  0.3996 -3.9684  1.3800
  393SOL    HW2 1179   2.022   1.911   3.022  0.8009  2.0697  1.2412
  394SOL     OW 1180   0.163   0.486   2.562  0.4970  0.6512  0.2152
  394SOL    HW1 1181   0.191   0.463   2.464 -1.5907 -0.4881 -0.2935
  394SOL    HW2 1182   0.105   0.572   2.560  1.2115 -0.0817 -2.0109
  395SOL     OW 1183   0.948   0.670   0.684 -0.1956 -0.1182  0.2823
  395SOL    HW1 1184   0.907   0.668   0.777  1.5615 -0.2265 -0.3683
  395SOL    HW2 1185   0.906   0.750   0.639 -0.6571 -1.1523 -1.4100
  396SOL     OW 1186   0.998   0.965   3.065 -0.3184  0.1117 -0.6485
  396SOL    HW1 1187   1.100   0.932   3.050  1.1395  0.2748 -1.9499
  396SOL    HW2 1188   0.934   0.894   3.034  1.4211 -0.2365  2.1898
  397SOL     OW 1189   0.452   0.640   2.098  0.0829  0.5492  0.0589
  397SOL    HW1 1190   0.355   0.621   2.104  1.9650  0.5618 -0.6284
  397SOL    HW2 1191   0.459   0.730   2.062  0.0930 -0.8564  2.2550
  398SOL     OW 1192   0.904   0.047   0.418  0.3018 -0.0919 -0.2416
  398SOL    HW1 1193   0.944   3.037   0.417  0.9035  1.8901 -0.6436
  398SOL    HW2 1194   0.818   0.053   0.365  0.0670  0.8224 -0.7022
  399SOL     OW 1195   2.298   3.046   1.696 -0.0285  0.2517  0.3691
  399SOL    HW1 1196   2.313   2.947   1.707 -2.6785 -0.3768  0.7030
  399SOL    HW2 1197   2.361   0.007   1.761 -2.4564  1.3865 -1.5053
  400SOL     OW 1198   0.678   1.789   2.104  0.0329 -0.5688  0.0133
  400SOL    HW1 1199   0.599   1.777   2.166  0.4327  0.4935  0.9751
  400SOL    HW2 1200   0.766   1.800   2.156  2.7999 -0.0947 -1.1667
  401SOL     OW 1201   0.496   0.663   2.481  0.1283  0.2485  0.3175
  401SOL    HW1 1202   0.575   0.662   2.546  0.4636 -0.4332 -1.6663
  401SOL    HW2 1203   0.405   0.681   2.523  0.0110 -0.9926 -1.7963
  402SOL     OW 1204   2.960   2.142   1.699  0.0184  0.1386 -0.0634
  402SOL    HW1 1205   2.920   2.080   1.768 -0.5206  1.7958  0.1845
  402SOL    HW2 1206   2.965   2.092   1.612  0.8315  0.9717  2.1699
  403SOL     OW 1207   0.401   0.971   1.764 -0.3231 -0.1974 -0.2548
  403SOL    HW1 1208   0.306   1.005   1.754 -0.9758  1.8050  0.4603
  403SOL    HW2 1209   0.470   1.035   1.725  0.9887 -0.3097 -0.2038
  404SOL     OW 1210   2.920   2.896   1.766 -0.4414  0.1671 -0.0186
  404SOL    HW1 1211   3.017   2.917   1.794  1.9632 -1.7697  2.1184
  404SOL    HW2 1212   2.911   2.805   1.715 -0.0328 -2.0500 -3.6237
  405SOL     OW 1213   0.389   0.306   1.691  0.3819  0.1915  0.1110
  405SOL    HW1 1214   0.428   0.347   1.775  2.2891  0.2401  0.3309
  405SOL    HW2 1215   0.411   0.209   1.679 -0.8369  3.3739 -2.0477
  406SOL     OW 1216   1.849   2.225   2.635 -0.1902 -0.3697  0.1215
  406SOL    HW1 1217   1.843   2.330   2.644 -2.0271 -0.5970  0.8745
  406SOL    HW2 1218   1.941   2.192   2.656 -0.4596 -1.0941 -0.5975
  407SOL     OW 1219   1.398   1.628   2.196 -0.4838 -0.0795  0.6550
  407SOL    HW1 1220   1.340   1.592   2.119 -0.1501 -1.5235  2.8535
  407SOL    HW2 1221   1.387   1.575   2.283 -1.7515  0.7582  0.1511
  408SOL     OW 1222   0.584   0.334   2.567  0.2368 -0.4307  0.0078
  408SOL    HW1 1223   0.557   0.345   2.471 -1.0246 -0.2762 -0.9882
  408SOL    HW2 1224   0.511   0.375   2.626  0.3391  0.5130 -3.1261
  409SOL     OW 1225   0.257   1.900   0.172  0.0914 -0.3815  0.0431
  409SOL    HW1 1226   0.232   1.826   0.237  0.3292 -1.1801  0.1430
  409SOL    HW2 1227   0.223   1.991   0.197  0.6760 -2.2089 -0.3143
  410SOL     OW 1228   2.541   1.573   0.324 -0.0059 -0.0294 -0.1643
  410SOL    HW1 1229   2.617   1.639   0.324 -1.4789 -2.2326 -0.2136
  410SOL    HW2 1230   2.482   1.598   0.245 -0.6707 -0.2551  0.1565
  411SOL     OW 1231   2.795   0.564   0.898  0.4178  0.9886 -0.0911
  411SOL    HW1 1232   2.736   0.477   0.917 -2.2515 -4.9748 -1.4477
  411SOL    HW2 1233   2.768   0.601   0.807 -2.5466 -1.8022 -0.7177
  412SOL     OW 1234   1.292   0.910   1.202  0.3312  0.1054 -0.3466
  412SOL    HW1 1235   1.378   0.960   1.219  1.3967 -0.8474 -0.5571
  412SOL    HW2 1236   1.211   0.948   1.254 -0.1221  0.3255  0.0953
  413SOL     OW 1237   0.520   2.845   1.201 -0.0717 -0.1850 -0.0466
  413SOL    HW1 1238   0.455   2.789   1.152 -1.7646 -0.1689 -0.7926
  413SOL    HW2 1239   0.566   2.909   1.139 -0.9788 -0.2736 -2.9614
  414SOL     OW 1240   3.018   1.594   2.744 -0.6674  0.3397  0.3932
  414SOL    HW1 1241   2.923   1.621   2.743  1.7642  1.5636 -1.5656
  414SOL    HW2 1242   3.077   1.671   2.767 -1.4299 -0.0510 -1.7732
  415SOL     OW 1243   0.312   2.170   2.859  0.0131 -0.1288  0.3226
  415SOL    HW1 1244   0.338   2.086   2.911  0.8287  2.6568 -2.9825
  415SOL    HW2 1245   0.211   2.194   2.863  1.5803 -1.2900 -0.1447
  416SOL     OW 1246   1.578   0.096   0.561  0.6008  0.1302 -0.1920
  416SOL    HW1 1247   1.677   0.114   0.579  0.9250 -0.4590 -1.1743
  416SOL    HW2 1248   1.522   0.180   0.545 -1.2147  0.5007 -1.2608
  417SOL     OW 1249   0.381   0.963   0.741 -0.6632 -0.7872 -0.2407
  417SOL    HW1 1250   0.429   0.908   0.811  0.2399  0.4777 -1.6766
  417SOL    HW2 1251   0.343   1.048   0.791 -2.1407  2.0093  0.2192
  418SOL     OW 1252   2.312   1.123   1.878 -0.2154  0.0396 -0.4323
  418SOL    HW1 1253   2.312   1.022   1.857  1.2856  0.7776  0.8489
  418SOL    HW2 1254   2.219   1.158   1.868  4.5915 -3.8680 -0.1541
  419SOL     OW 1255   2.955   0.452   0.584 -0.0249 -0.3873  0.0187
  419SOL    HW1 1256   2.980   0.380   0.513  0.7062  1.6907 -0.8452
  419SOL    HW2 1257   3.031   0.491   0.636  0.8453 -2.1835 -2.3476
  420SOL     OW 1258   0.365   1.417   0.582 -0.3224  0.1345 -0.1907
  420SOL    HW1 1259   0.393   1.443   0.486 -0.4434  0.6380  0.3198
  420SOL    HW2 1260   0.405   1.325   0.603 -0.5625  0.5302 -0.8843
  421SOL     OW 1261   0.918   2.476   0.755  0.3938 -0.0158 -0.0831
  421SOL    HW1 1262   0.881   2.495   0.662  1.9758  1.0712 -1.9744
  421SOL    HW2 1263   1.020   2.484   0.756  1.2372 -0.3382 -2.5902
  422SOL     OW 1264   3.071   0.703   1.241 -0.0237 -0.6019  0.0860
  422SOL    HW1 1265   2.986   0.751   1.267 -0.4918  1.2893 -1.8106
  422SOL    HW2 1266   0.050   0.764   1.187  1.0325  2.3183  0.9059
  423SOL     OW 1267   1.224   1.283   1.405  0.0648 -0.0645 -0.5188
  423SOL    HW1 1268   1.185   1.193   1.439 -1.2764 -2.0665 -1.2130
  423SOL    HW2 1269   1.227   1.296   1.300 -0.3165  0.0394 -1.4031
  424SOL     OW 1270   2.116   1.316   2.779  0.1340  0.7436 -0.5423
  424SOL    HW1 1271   2.082   1.327   2.875  1.2756  0.4560  2.6736
  424SOL    HW2 1272   2.064   1.246   2.731  4.6713  0.9963  1.1515
  425SOL     OW 1273   0.088   0.479   1.872 -0.3763  0.4082  0.3446
  425SOL    HW1 1274   0.106   0.534   1.786 -0.4105  0.8548  0.7491
  425SOL    HW2 1275   3.077   0.453   1.877 -0.8105  0.6616  5.2414
  426SOL     OW 1276   2.685   2.802   2.726  0.0750 -0.0312  0.0933
  426SOL    HW1 1277   2.779   2.810   2.694 -2.0061  0.2473 -0.9947
  426SOL    HW2 1278   2.632   2.733   2.671  1.4649 -0.0513  0.2671
  427SOL     OW 1279   0.907   0.676   2.231 -0.6460  0.1325 -0.1466
  427SOL    HW1 1280   0.818   0.626   2.243 -0.5010  1.8900 -2.9808
  427SOL    HW2 1281   0.910   0.777   2.230  2.4061 -1.1922 -1.2188
  428SOL     OW 1282   2.285   0.860   1.565  0.1834 -0.2704 -0.0315
  428SOL    HW1 1283   2.387   0.861   1.563  0.0378 -1.1349  2.4540
  428SOL    HW2 1284   2.255   0.910   1.482 -0.0413 -1.8088  2.6386
  429SOL     OW 1285   2.635   2.656   0.472  0.4646  0.7427  0.1006
  429SOL    HW1 1286   2.674   2.646   0.566  0.8029 -1.3720 -2.6512
  429SOL    HW2 1287   2.547   2.604   0.468 -0.5205  1.3411 -0.4689
  430SOL     OW 1288   1.730   1.889   2.481  0.3755  0.1015  0.0003
  430SOL    HW1 1289   1.765   1.848   2.397 -3.1432 -1.2350 -0.6312
  430SOL    HW2 1290   1.673   1.824   2.532  1.3022 -0.1938 -2.5311
  431SOL     OW 1291   0.148   1.603   1.154  0.2034  0.2397  0.0398
  431SOL    HW1 1292   0.075   1.616   1.220  2.2454  0.9641 -0.8534
  431SOL    HW2 1293   0.229   1.561   1.197  0.1035  0.7492 -0.6237
  432SOL     OW 1294   1.647   2.859   2.635 -0.2211  0.2418 -0.4401
  432SOL    HW1 1295   1.620   2.811   2.553  0.3223  1.3775  1.0500
  432SOL    HW2 1296   1.744   2.886   2.635 -0.6300 -2.0144  0.2048
  433SOL     OW 1297   1.838   0.046   2.377  0.2875  0.5704 -0.1077
  433SOL    HW1 1298   1.860   3.027   2.369  0.2344 -1.3197  2.1332
  433SOL    HW2 1299   1.732   0.060   2.375 -1.0257  1.5192  0.8389
  434SOL     OW 1300   0.496   2.534   2.099  0.0657  0.1833 -0.3310
  434SOL    HW1 1301   0.416   2.471   2.097  1.0417 -1.0405 -1.5350
  434SOL    HW2 1302   0.476   2.616   2.042 -0.6351  0.8112  0.1136
  435SOL     OW 1303   0.007   2.610   0.151 -0.1118  0.0744 -0.0815
  435SOL    HW1 1304   0.095   2.575   0.113 -0.5369  2.7185 -0.2919
  435SOL    HW2 1305   3.075   2.586   0.247 -0.9217 -1.3715 -1.9976
  436SOL     OW 1306   0.797   0.471   1.694 -0.0663  0.1395 -0.0301
  436SOL    HW1 1307   0.851   0.456   1.609 -0.6875 -0.0703  0.4435
  436SOL    HW2 1308   0.698   0.475   1.675 -1.2206 -1.4391 -1.6364
  437SOL     OW 1309   0.443   2.604   2.601 -0.2107  0.7424  0.0276
  437SOL    HW1 1310   0.476   2.604   2.502  0.1181  0.0748 -0.0702
  437SOL    HW2 1311   0.513   2.651   2.659 -1.0482  0.5366  0.9816
  438SOL     OW 1312   0.560   1.782   1.527 -0.6026  0.1624  0.5782
  438SOL    HW1 1313   0.659   1.772   1.508  0.7517  2.2936  0.5649
  438SOL    HW2 1314   0.533   1.726   1.605  0.9144  1.0936 -0.4895
  439SOL     OW 1315   2.220   1.015   2.682 -0.2067  0.5431  0.6032
  439SOL    HW1 1316   2.292   0.967   2.740 -1.4190 -1.9609  1.1660
  439SOL    HW2 1317   2.252   1.025   2.583 -0.4693  1.3976 -1.5473
  440SOL     OW 1318   0.556   0.637   0.080  0.5721 -0.3683 -0.4081
  440SOL    HW1 1319   0.632   0.594   0.133 -0.4347 -0.0811 -0.7202
  440SOL    HW2 1320   0.555   0.739   0.099  0.4275  1.1187  0.9827
  441SOL     OW 1321   0.766   2.075   1.456 -0.1575 -0.2181 -0.1924
  441SOL    HW1 1322   0.668   2.076   1.491 -1.6448  0.4903 -0.0153
  441SOL    HW2 1323   0.774   2.145   1.378 -0.5565  0.4287 -5.9356
  442SOL     OW 1324   2.876   1.667   0.716  0.3305 -0.2947  0.7516
  442SOL    HW1 1325   2.781   1.708   0.713  0.0469  2.1863 -0.0684
  442SOL    HW2 1326   2.880   1.596   0.788 -0.7240  1.7384 -1.7397
  443SOL     OW 1327   2.762   2.085   2.514 -0.0393  0.0493 -0.2110
  443SOL    HW1 1328   2.855   2.112   2.490 -2.1622 -0.7948  0.5123
  443SOL    HW2 1329   2.752   2.024   2.592 -2.6842 -2.5214 -1.3026
  444SOL     OW 1330   1.321   1.267   2.818  0.0900 -0.5807 -0.6837
  444SOL    HW1 1331   1.293   1.365   2.806 -0.1310 -2.5109  0.8392
  444SOL    HW2 1332   1.403   1.259   2.877 -0.7037  1.0322 -1.7890
  445SOL     OW 1333   2.539   0.075   1.821  0.1396  0.1489 -0.2788
  445SOL    HW1 1334   2.619   0.113   1.773 -1.7327 -2.1694  0.9379
  445SOL    HW2 1335   2.509   0.135   1.897  1.3830 -1.0106 -1.7958
  446SOL     OW 1336   0.360   1.020   1.145  0.0967  0.0203 -0.2979
  446SOL    HW1 1337   0.414   1.029   1.229  2.4209 -1.8992 -0.9770
  446SOL    HW2 1338   0.345   1.116   1.116 -2.1614  3.9999 -0.7797
  447SOL     OW 1339   1.236   1.824   0.922 -0.4080 -0.2446  0.7135
  447SOL    HW1 1340   1.145   1.867   0.899 -0.0308  0.7622 -1.4624
  447SOL    HW2 1341   1.313   1.875   0.875  0.1018 -1.4750 -1.8408
  448SOL     OW 1342   1.200   1.081   1.618  0.3554 -0.7306  0.1043
  448SOL    HW1 1343   1.174   1.168   1.670  3.1291  2.9367  0.9289
  448SOL    HW2 1344   1.165   0.996   1.664  0.4235 -2.5653  1.3534
  449SOL     OW 1345   2.880   2.027   2.137  0.2831 -0.6453  0.5430
  449SOL    HW1 1346   2.878   2.128   2.140  1.0299  1.1359 -0.3940
  449SOL    HW2 1347   2.973   1.982   2.146  0.9291 -1.4454 -0.6783
  450SOL     OW 1348   0.109   1.770   1.714 -0.4383  0.0139  0.4773
  450SOL    HW1 1349   0.022   1.722   1.745 -2.4737 -0.8866  1.2248
  450SOL    HW2 1350   0.152   1.810   1.796 -1.9105 -0.5883  0.0248
  451SOL     OW 1351   2.045   0.782   0.945 -0.0940 -0.2356  0.1618
  451SOL    HW1 1352   1.978   0.707   0.965 -1.4868 -1.5292 -2.0035
  451SOL    HW2 1353   2.036   0.802   0.847  1.3807 -2.1392 -3.4902
  452SOL     OW 1354   0.658   1.299   0.911  0.2772 -0.3122  0.3568
  452SOL    HW1 1355   0.720   1.381   0.912  2.4612 -0.1943 -3.9840
  452SOL    HW2 1356   0.559   1.326   0.927  1.7169  0.1083  3.2187
  453SOL     OW 1357   1.120   2.247   0.905 -0.3887 -0.3956  0.4791
  453SOL    HW1 1358   1.140   2.299   0.818 -0.5756  1.3131 -2.0645
  453SOL    HW2 1359   1.203   2.256   0.969  3.2157  1.8534  2.7870
  454SOL     OW 1360   0.625   1.631   2.958  0.5326  0.7902 -0.2114
  454SOL    HW1 1361   0.615   1.624   3.058 -0.4975 -2.1025  2.3698
  454SOL    HW2 1362   0.677   1.546   2.927 -3.1712 -0.4310  0.4658
  455SOL     OW 1363   1.436   0.737   0.498  0.5164 -0.3832 -0.3813
  455SOL    HW1 1364   1.421   0.791   0.412 -0.0122  0.7822 -1.4450
  455SOL    HW2 1365   1.347   0.685   0.515 -1.1801  1.2026  2.0669
  456SOL     OW 1366   2.012   2.273   1.003 -0.4345 -0.5802  0.0202
  456SOL    HW1 1367   2.015   2.278   1.103  1.2060 -1.7003  1.1578
  456SOL    HW2 1368   2.069   2.196   0.967 -0.2762  1.3294 -0.2696
  457SOL     OW 1369   1.653   2.919   2.925  0.6144  0.4938  0.0191
  457SOL    HW1 1370   1.552   2.917   2.949 -3.2907 -2.5774 -1.6927
  457SOL    HW2 1371   1.661   2.921   2.826  3.5602 -0.5446  1.8664
  458SOL     OW 1372   2.252   0.477   0.291  0.1346  0.3526  0.3154
  458SOL    HW1 1373   2.225   0.379   0.281 -2.0359  2.3545 -2.5586
  458SOL    HW2 1374   2.175   0.524   0.337 -1.2714 -0.2691 -2.3364
  459SOL     OW 1375   3.028   0.585   2.248  0.4449  0.1461  0.1470
  459SOL    HW1 1376   3.053   0.623   2.339  0.7657  3.1985 -0.3042
  459SOL    HW2 1377   2.927   0.573   2.239 -0.0366  1.5457 -1.3931
  460SOL     OW 1378   0.216   1.203   0.066  0.1124  0.4276 -0.2842
  460SOL    HW1 1379   0.282   1.125   0.066 -1.3098  2.1375  0.8406
  460SOL    HW2 1380   0.123   1.163   0.059  3.6400 -0.4456  0.5496
  461SOL     OW 1381   2.781   2.668   0.755 -0.6338  0.0615 -0.0783
  461SOL    HW1 1382   2.833   2.735   0.698  0.0032 -0.2919  1.5484
  461SOL    HW2 1383   2.698   2.712   0.790  0.8867 -1.1617 -0.7396
  462SOL     OW 1384   0.079   0.048   1.551  0.5464  0.0432  0.1246
  462SOL    HW1 1385   0.121   0.144   1.561  1.4612  0.5018  2.0841
  462SOL    HW2 1386   0.117   3.073   1.467 -0.3011 -2.3078 -0.7246
  463SOL     OW 1387   2.090   2.120   2.391 -0.4472  0.1199  0.3711
  463SOL    HW1 1388   2.036   2.081   2.315  0.6999 -1.5710 -1.2230
  463SOL    HW2 1389   2.165   2.059   2.425  2.3582  2.3226 -0.3720
  464SOL     OW 1390   0.778   3.045   1.479  0.6309  0.1832 -0.2049
  464SOL    HW1 1391   0.718   3.073   1.554  1.5222 -0.7253 -0.5932
  464SOL    HW2 1392   0.873   3.074   1.502  0.4402  0.4136 -0.5103
  465SOL     OW 1393   0.597   3.085   1.882 -0.3444  0.2059 -0.4294
  465SOL    HW1 1394   0.673   3.027   1.842  1.1248  1.2788 -0.8353
  465SOL    HW2 1395   0.632   0.051   1.962  0.8019 -0.8106 -0.9939
  466SOL     OW 1396   1.453   2.456   2.151  0.8286  0.0339  0.3993
  466SOL    HW1 1397   1.368   2.428   2.103 -1.0318 -1.2897 -2.9739
  466SOL    HW2 1398   1.492   2.540   2.105  0.6858  2.7702 -0.8367
  467SOL     OW 1399   0.317   1.982   1.154 -0.0957  0.5884 -0.6339
  467SOL    HW1 1400   0.301   1.907   1.086  0.1685  0.6282  0.4260
  467SOL    HW2 1401   0.371   2.056   1.112 -0.8087 -0.0170 -0.4862
  468SOL     OW 1402   2.663   1.615   2.459 -0.3406 -0.1489  0.0568
  468SOL    HW1 1403   2.709   1.680   2.397 -2.6564  0.7767  2.2825
  468SOL    HW2 1404   2.573   1.644   2.492 -1.3616 -1.1290 -0.4625
  469SOL     OW 1405   1.155   1.845   0.521 -0.3144 -0.2605  0.4529
  469SOL    HW1 1406   1.141   1.866   0.618  1.2687 -0.4448 -2.9250
  469SOL    HW2 1407   1.105   1.913   0.465  0.5361 -0.5211 -1.4986
  470SOL     OW 1408   2.630   1.328   1.267 -0.0527 -0.2088  0.8875
  470SOL    HW1 1409   2.649   1.387   1.186  0.7769  0.7928  0.4478
  470SOL    HW2 1410   2.534   1.319   1.290  0.7741 -0.4037  0.7022
  471SOL     OW 1411   0.355   2.427   2.964  0.2541 -0.1630  0.0663
  471SOL    HW1 1412   0.345   2.328   2.935 -0.2966 -0.4184  0.9991
  471SOL    HW2 1413   0.449   2.460   2.989  1.4656  1.2520 -1.3629
  472SOL     OW 1414   0.017   1.680   2.140  0.5807 -0.7834  0.1653
  472SOL    HW1 1415   0.062   1.668   2.050  0.4239 -0.2997  0.2437
  472SOL    HW2 1416   3.002   1.688   2.125  0.7392 -0.2642  1.0354
  473SOL     OW 1417   0.722   2.750   0.436  0.1610 -0.1530 -0.5922
  473SOL    HW1 1418   0.758   2.656   0.454 -0.5882 -0.9953  0.1304
  473SOL    HW2 1419   0.784   2.799   0.372 -1.3056 -0.4941 -0.1027
  474SOL     OW 1420   2.669   3.043   0.974 -0.4573 -0.4166 -0.4069
  474SOL    HW1 1421   2.645   0.054   0.950  2.4482 -0.3429  1.0722
  474SOL    HW2 1422   2.660   3.034   1.074 -0.5248 -0.0960  0.3292
  475SOL     OW 1423   2.023   3.079   1.853  0.7908 -0.1133 -0.2570
  475SOL    HW1 1424   2.085   0.049   1.799  1.2045 -0.2407 -1.1421
  475SOL    HW2 1425   1.954   0.052   1.896  0.5578 -0.3317 -2.4813
  476SOL     OW 1426   0.492   0.571   0.621  0.0273 -0.4036  0.4248
  476SOL    HW1 1427   0.545   0.636   0.558 -1.2478  1.6918  0.2814
  476SOL    HW2 1428   0.409   0.620   0.647  1.7557 -1.5913  1.8558
  477SOL     OW 1429   0.808   2.233   1.086 -0.4415  0.0497 -0.0302
  477SOL    HW1 1430   0.756   2.234   0.998 -0.0902 -1.2856  1.6463
  477SOL    HW2 1431   0.883   2.164   1.079  0.1421  1.8611  1.1381
  478SOL     OW 1432   0.272   2.309   2.389 -0.2928  0.5006  0.0236
  478SOL    HW1 1433   0.185   2.349   2.424  3.0648  0.5798  0.4927
  478SOL    HW2 1434   0.327   2.286   2.472 -0.7104  1.6637  0.3926
  479SOL     OW 1435   0.146   0.635   1.642 -0.0916  0.1869 -0.1721
  479SOL    HW1 1436   0.245   0.640   1.666 -0.0839 -0.8413 -0.6040
  479SOL    HW2 1437   0.133   0.606   1.544 -0.8128 -0.1020 -0.1397
  480SOL     OW 1438   2.827   2.570   0.090  0.0644  0.1671 -0.1288
  480SOL    HW1 1439   2.783   2.641   0.142  0.9749 -3.8088  0.2466
  480SOL    HW2 1440   2.930   2.583   0.102  0.8572  1.6827  2.0467
  481SOL     OW 1441   1.609   2.019   2.204  0.5191  0.6894  0.6483
  481SOL    HW1 1442   1.689   1.961   2.176 -1.4245 -1.0121 -1.2017
  481SOL    HW2 1443   1.536   1.955   2.230  1.1287  0.4308 -1.8816
  482SOL     OW 1444   1.586   2.210   2.736 -0.4667 -0.5192  0.2664
  482SOL    HW1 1445   1.514   2.150   2.693 -2.5236 -2.1920  0.2530
  482SOL    HW2 1446   1.676   2.203   2.685  1.6953 -0.6226 -0.4516
  483SOL     OW 1447   0.831   2.063   2.450 -0.1330 -0.1868 -0.0661
  483SOL    HW1 1448   0.771   1.984   2.473  1.0142 -0.8050  0.2327
  483SOL    HW2 1449   0.808   2.147   2.501  0.8686 -0.6282  0.4636
  484SOL     OW 1450   3.053   0.515   1.050  0.4154 -0.0878 -0.0318
  484SOL    HW1 1451   2.959   0.520   1.023  2.2726 -0.9458  0.9065
  484SOL    HW2 1452   3.069   0.559   1.137 -1.3726 -0.1346 -1.1625
  485SOL     OW 1453   2.072   0.586   0.470  0.4195  0.2670  0.1379
  485SOL    HW1 1454   2.046   0.550   0.558  1.5798 -0.0928  0.6964
  485SOL    HW2 1455   1.993   0.624   0.423  2.2626  2.7991  1.1485
  486SOL     OW 1456   1.950   2.864   2.385  0.6669  0.3326  0.4704
  486SOL    HW1 1457   2.036   2.838   2.333  0.7593 -0.3071  0.5641
  486SOL    HW2 1458   1.958   2.850   2.487  0.1744  1.6089 -0.6776
  487SOL     OW 1459   1.661   1.425   0.822 -0.6345  0.4939  0.4409
  487SOL    HW1 1460   1.753   1.395   0.789  0.1991 -0.4866  2.0646
  487SOL    HW2 1461   1.667   1.521   0.848  0.6182 -0.2754 -0.4193
  488SOL     OW 1462   2.267   1.386   0.096  0.0470 -0.1245 -0.3248
  488SOL    HW1 1463   2.324   1.304   0.071  0.5827  2.5247  0.8870
  488SOL    HW2 1464   2.317   1.476   0.070  1.0831  4.0293 -0.9720
  489SOL     OW 1465   2.321   0.082   0.688  0.7234  0.0332  0.1863
  489SOL    HW1 1466   2.256   0.153   0.648 -1.6950  1.3917  2.0495
  489SOL    HW2 1467   2.318   0.083   0.791  1.3591 -0.9256  2.8225
  490SOL     OW 1468   1.523   2.700   0.092  0.2379 -0.4509 -0.8248
  490SOL    HW1 1469   1.450   2.741   0.148  2.9643  0.3976  2.7823
  490SOL    HW2 1470   1.487   2.643   0.024 -0.2576  0.3157  0.0001
  491SOL     OW 1471   0.786   0.891   0.605  0.1833 -0.0571 -0.9136
  491SOL    HW1 1472   0.770   0.942   0.689 -0.3150 -1.9168  0.1868
  491SOL    HW2 1473   0.838   0.936   0.531 -1.0899  1.9617  0.7008
  492SOL     OW 1474   1.535   0.287   3.059  0.5739 -0.2221 -0.4412
  492SOL    HW1 1475   1.558   0.232   0.057  0.0693  1.1392  1.3835
  492SOL    HW2 1476   1.438   0.290   3.033  0.4180 -0.8842 -0.9253
  493SOL     OW 1477   1.915   2.305   3.019 -0.7878 -0.0102  0.0947
  493SOL    HW1 1478   1.838   2.244   3.034 -1.1830  1.3038 -1.0048
  493SOL    HW2 1479   1.910   2.351   2.927 -0.4340 -2.7592  2.1884
  494SOL     OW 1480   0.568   1.133   0.660 -0.3664  0.7116 -0.0280
  494SOL    HW1 1481   0.501   1.058   0.657  1.1735  2.8990 -1.5741
  494SOL    HW2 1482   0.590   1.163   0.755 -2.4288  2.1505  2.1430
  495SOL     OW 1483   0.015   2.667   1.104  0.1162  0.3346  0.2731
  495SOL    HW1 1484   3.038   2.617   1.043 -0.4951  0.8517  0.3306
  495SOL    HW2 1485   0.064   2.609   1.173  3.0675 -0.3603 -0.2002
  496SOL     OW 1486   2.332   0.437   1.781  0.0335 -0.0180 -0.1628
  496SOL    HW1 1487   2.369   0.387   1.702 -3.0410 -1.2270 -0.0662
  496SOL    HW2 1488   2.233   0.424   1.791  2.1250 -0.2091  0.0443
  497SOL     OW 1489   1.914   1.928   2.670  0.1564 -0.3622 -0.2162
  497SOL    HW1 1490   1.832   1.940   2.610  2.3846 -0.1995  1.0875
  497SOL    HW2 1491   1.984   2.001   2.660 -0.2671 -1.4167  0.1667
  498SOL     OW 1492   0.795   1.967   0.614 -0.0361  0.3026  0.5023
  498SOL    HW1 1493   0.733   1.887   0.622 -0.5357  1.9112  0.9393
  498SOL    HW2 1494   0.864   1.966   0.689  0.8225  0.3199 -0.8971
  499SOL     OW 1495   0.573   1.792   1.059  0.0237  0.2736  0.3808
  499SOL    HW1 1496   0.609   1.883   1.088 -1.2693  1.0884 -0.7819
  499SOL    HW2 1497   0.471   1.805   1.034 -0.4615  0.6245 -1.0961
  500SOL     OW 1498   1.270   2.219   0.488 -0.1698  0.0071 -0.3451
  500SOL    HW1 1499   1.282   2.161   0.400  0.3805  0.8454 -2.1259
  500SOL    HW2 1500   1.342   2.194   0.556  0.0569  0.4204  0.0081
  501SOL     OW 1501   2.297   2.569   1.175  0.0935  0.1619 -0.5270
  501SOL    HW1 1502   2.380   2.621   1.143  0.1304  1.7867 -1.2091
  501SOL    HW2 1503   2.227   2.634   1.208 -0.6662  1.9358  0.8784
  502SOL     OW 1504   0.388   0.796   1.390  0.9294  0.3685  0.3295
  502SOL    HW1 1505   0.460   0.773   1.322  1.1547  0.2577 -0.0935
  502SOL    HW2 1506   0.314   0.859   1.360 -0.6258  1.0919  0.5731
  503SOL     OW 1507   1.909   0.532   1.576  0.0437  0.5841  0.1614
  503SOL    HW1 1508   1.843   0.608   1.572 -1.0089  0.3956 -2.9534
  503SOL    HW2 1509   1.999   0.559   1.542  4.0547  0.1754 -0.6443
  504SOL     OW 1510   1.538   0.694   2.019 -0.2646 -0.4997  0.1676
  504SOL    HW1 1511   1.493   0.787   2.014  1.0298 -2.3260 -1.0459
  504SOL    HW2 1512   1.481   0.633   2.075  2.8672  2.9160 -2.4324
  505SOL     OW 1513   1.026   0.267   2.721 -0.0733  0.4940  0.2151
  505SOL    HW1 1514   1.070   0.180   2.696  0.2208 -0.9317 -0.1158
  505SOL    HW2 1515   1.024   0.276   2.820 -0.4855  0.0058 -1.7847
  506SOL     OW 1516   0.542   0.499   1.594  0.0131 -0.1108 -0.3296
  506SOL    HW1 1517   0.486   0.584   1.600 -0.2443  1.3718 -2.4393
  506SOL    HW2 1518   0.484   0.418   1.612 -0.9334 -0.7829  0.8242
  507SOL     OW 1519   1.363   3.071   3.027 -0.4516 -0.0187 -0.2502
  507SOL    HW1 1520   1.378   3.006   2.951  2.4812 -3.4583  0.4388
  507SOL    HW2 1521   1.303   0.062   2.992 -1.7048  0.3739 -3.2060
  508SOL     OW 1522   2.422   0.628   2.595  0.2846  0.6226 -0.7119
  508SOL    HW1 1523   2.342   0.616   2.656  0.0618  2.9467 -1.4072
  508SOL    HW2 1524   2.389   0.694   2.521 -2.0483 -0.9583 -2.1498
  509SOL     OW 1525   0.811   1.420   1.824 -0.5694 -0.0548 -0.6233
  509SOL    HW1 1526   0.847   1.500   1.772  0.2312 -2.9218 -1.6631
  509SOL    HW2 1527   0.758   1.447   1.904 -0.4103 -2.3745 -2.6597
  510SOL     OW 1528   0.119   1.223   0.708  0.0387 -0.3603 -0.2171
  510SOL    HW1 1529   0.089   1.311   0.750 -0.0978 -1.2157 -1.4485
  510SOL    HW2 1530   0.061   1.151   0.745  0.3344 -1.5474 -0.7351
  511SOL     OW 1531   1.825   1.661   1.098 -0.0549  0.0871  0.2187
  511SOL    HW1 1532   1.789   1.621   1.180  5.6572  1.6180 -4.8024
  511SOL    HW2 1533   1.894   1.598   1.055 -1.3481 -0.9332  1.1870
  512SOL     OW 1534   0.741   1.194   0.255 -0.3831  0.0326 -0.0599
  512SOL    HW1 1535   0.721   1.227   0.347 -0.1051 -0.4517 -0.5107
  512SOL    HW2 1536   0.831   1.143   0.261 -0.2514  1.1158 -1.4090
  513SOL     OW 1537   0.102   2.312   0.597 -0.5438 -0.0433  0.2139
  513SOL    HW1 1538   0.055   2.309   0.685 -0.6551  0.1250 -2.6558
  513SOL    HW2 1539   0.201   2.293   0.610  0.5089 -2.8621  0.2306
  514SOL     OW 1540   3.018   2.077   2.439 -0.3022 -0.1380 -0.8119
  514SOL    HW1 1541   3.070   2.053   2.523  2.5453  0.4931  3.7493
  514SOL    HW2 1542   3.051   2.028   2.360 -1.2858  1.7270  2.9941
  515SOL     OW 1543   2.384   0.677   0.121 -0.1416 -0.0116  0.2408
  515SOL    HW1 1544   2.448   0.724   0.185 -0.1363  0.6071 -1.6562
  515SOL    HW2 1545   2.332   0.603   0.162  0.4909  0.5651  0.0508
  516SOL     OW 1546   2.576   2.851   0.801  0.1700  0.1855 -0.7196
  516SOL    HW1 1547   2.607   2.908   0.882  0.3442  1.5897  2.4888
  516SOL    HW2 1548   2.561   2.905   0.715 -3.2431 -0.8744 -3.9837
  517SOL     OW 1549   1.459   1.762   2.860 -0.0461  0.3809  0.5396
  517SOL    HW1 1550   1.533   1.770   2.928  0.0147  0.1445 -0.2987
  517SOL    HW2 1551   1.392   1.842   2.873 -0.4261  2.2961  0.4379
  518SOL     OW 1552   1.047   0.845   1.694 -0.0065  0.3459  0.3057
  518SOL    HW1 1553   0.995   0.803   1.615 -0.7274 -1.7987 -0.2205
  518SOL    HW2 1554   1.069   0.778   1.770 -1.7290 -1.4509  2.3805
  519SOL     OW 1555   2.951   1.723   0.453 -0.4397 -0.0133  0.1347
  519SOL    HW1 1556   2.916   1.698   0.545  1.7925  0.7707 -3.4133
  519SOL    HW2 1557   3.008   1.647   0.415  1.2878  2.3133  0.4522
  520SOL     OW 1558   2.303   1.962   1.877 -0.0926 -0.6448  0.4520
  520SOL    HW1 1559   2.273   2.022   1.955 -2.2624  2.3485  3.2255
  520SOL    HW2 1560   2.401   1.975   1.856  1.4060  0.6865  1.7979
  521SOL     OW 1561   0.963   3.033   2.465  0.2795 -0.3251  0.0555
  521SOL    HW1 1562   0.955   0.049   2.484  0.5062  2.1155  0.4073
  521SOL    HW2 1563   0.872   2.990   2.453  1.3003 -1.1136 -0.3690
  522SOL     OW 1564   2.218   0.523   2.107 -0.2362  0.0872 -0.5883
  522SOL    HW1 1565   2.316   0.521   2.141  3.1979  0.1818 -0.0460
  522SOL    HW2 1566   2.194   0.615   2.065 -0.1658 -1.9892  0.4141
  523SOL     OW 1567   1.873   2.446   1.639 -0.2513 -0.2290 -0.5256
  523SOL    HW1 1568   1.842   2.355   1.607  1.3084 -1.1818  1.8369
  523SOL    HW2 1569   1.953   2.436   1.702  3.6978 -1.8566  1.6866
  524SOL     OW 1570   1.693   2.117   2.981  0.1253  0.0430  0.4156
  524SOL    HW1 1571   1.661   2.154   2.895  1.1943 -1.5623  1.5673
  524SOL    HW2 1572   1.738   2.027   2.963  0.4755 -0.5307 -0.1471
  525SOL     OW 1573   0.061   0.635   0.122 -0.4074 -0.2825 -0.1948
  525SOL    HW1 1574   0.160   0.605   0.151  0.9870  0.6664 -2.0530
  525SOL    HW2 1575   0.048   0.595   0.030 -1.7474 -0.7974  0.1195
  526SOL     OW 1576   1.134   2.780   0.610 -0.6152 -0.0700 -0.0203
  526SOL    HW1 1577   1.227   2.748   0.579  0.0173  0.2573 -1.6041
  526SOL    HW2 1578   1.117   2.785   0.710 -0.0725 -1.1578  1.4839
  527SOL     OW 1579   2.649   1.777   0.633  0.0489  0.2306  0.2256
  527SOL    HW1 1580   2.667   1.871   0.658 -1.0191  0.1028 -1.7635
  527SOL    HW2 1581   2.552   1.751   0.638  2.4722 -2.0978  0.3399
  528SOL     OW 1582   0.731   0.853   2.033  0.0850  0.7395  0.1819
  528SOL    HW1 1583   0.636   0.874   2.008 -0.1798  0.1917  0.1858
  528SOL    HW2 1584   0.774   0.774   1.985  1.3809 -0.5932  0.1414
  529SOL     OW 1585   1.551   1.691   2.588 -0.5364 -0.4800 -0.2044
  529SOL    HW1 1586   1.526   1.713   2.684  1.2660  1.0921  1.6671
  529SOL    HW2 1587   1.473   1.642   2.543 -0.7395 -1.0982 -1.0300
  530SOL     OW 1588   1.615   1.142   2.348  0.3526 -0.0101  0.4838
  530SOL    HW1 1589   1.573   1.177   2.258  0.1510  0.8721  0.3274
  530SOL    HW2 1590   1.590   1.046   2.373 -0.5873  1.2071 -0.5902
  531SOL     OW 1591   0.692   2.241   2.616 -0.3218  0.1825 -0.1372
  531SOL    HW1 1592   0.602   2.287   2.636 -2.1608 -0.1297 -3.7118
  531SOL    HW2 1593   0.755   2.228   2.695  1.0944 -0.8442 -1.8392
  532SOL     OW 1594   2.465   0.841   0.579  0.5255  0.1308 -0.1833
  532SOL    HW1 1595   2.450   0.944   0.588 -2.6108  0.4640  5.6011
  532SOL    HW2 1596   2.505   0.802   0.664 -1.3721 -0.0869 -1.4683
  533SOL     OW 1597   0.158   0.299   1.528  0.4023 -0.2038 -0.2004
  533SOL    HW1 1598   0.249   0.310   1.573 -2.0285  0.1245 -1.1624
  533SOL    HW2 1599   0.147   0.377   1.461 -0.8381  3.9508 -0.4959
  534SOL     OW 1600   0.625   0.205   0.059 -0.0410  0.2250 -0.7072
  534SOL    HW1 1601   0.521   0.209   0.068  0.5238 -0.6928 -1.1641
  534SOL    HW2 1602   0.659   0.298   0.026  0.1132  2.0696  1.3706
  535SOL     OW 1603   0.404   3.005   0.037 -0.0641 -0.0632 -0.2106
  535SOL    HW1 1604   0.365   3.017   3.026  0.2245  1.6612  0.4094
  535SOL    HW2 1605   0.340   2.941   0.088 -1.0017 -0.4532  1.4838
  536SOL     OW 1606   0.648   1.579   1.254 -0.1537  0.8034 -0.2766
  536SOL    HW1 1607   0.639   1.646   1.181  0.5116 -1.9710 -0.7689
  536SOL    HW2 1608   0.692   1.620   1.344 -1.6091  2.6581  1.8622
  537SOL     OW 1609   0.964   2.747   1.785  0.0584 -0.1210  0.1833
  537SOL    HW1 1610   1.052   2.800   1.770 -1.3614 -2.8252  0.3817
  537SOL    HW2 1611   0.956   2.692   1.874 -1.5521  3.3321 -0.4002
  538SOL     OW 1612   0.104   1.783   2.869 -0.5335 -0.0260  0.3263
  538SOL    HW1 1613   0.034   1.805   2.935  0.6016 -1.7647 -0.5584
  538SOL    HW2 1614   0.196   1.760   2.917  2.5494 -0.3889  1.2084
  539SOL     OW 1615   2.439   0.908   2.801  0.1103 -0.0390 -0.2587
  539SOL    HW1 1616   2.476   0.815   2.812 -0.2699  0.9968  0.3376
  539SOL    HW2 1617   2.503   0.975   2.847  1.3830 -0.8525  0.6187
  540SOL     OW 1618   1.733   0.582   2.680  0.9177 -0.7362 -0.2442
  540SOL    HW1 1619   1.727   0.518   2.757  0.0431 -0.1543  0.3176
  540SOL    HW2 1620   1.810   0.647   2.679 -1.3377 -0.7389 -1.7562
  541SOL     OW 1621   0.767   0.117   2.054 -0.5982  0.0407 -0.9016
  541SOL    HW1 1622   0.714   0.100   2.140 -2.2134  1.7410 -1.0169
  541SOL    HW2 1623   0.796   0.221   2.044  2.4217 -0.7041 -2.2363
  542SOL     OW 1624   1.763   2.700   3.030 -0.0396  0.3103  0.8273
  542SOL    HW1 1625   1.709   2.697   0.029 -2.3584  0.4372 -1.3369
  542SOL    HW2 1626   1.734   2.786   2.980 -1.4076 -1.8954  2.7076
  543SOL     OW 1627   0.861   3.079   0.702  0.3777  0.0735 -0.3497
  543SOL    HW1 1628   0.818   0.073   0.753 -0.6343  2.1021  1.0608
  543SOL    HW2 1629   0.905   0.032   0.619 -0.5690  1.3855  2.6469
  544SOL     OW 1630   2.653   1.424   1.848 -0.3837 -0.0480 -0.0394
  544SOL    HW1 1631   2.647   1.419   1.949 -0.5652 -2.2516 -1.1566
  544SOL    HW2 1632   2.630   1.516   1.816  2.4584 -1.8577  1.8014
  545SOL     OW 1633   2.177   1.555   1.316 -0.7681  0.0840  0.6729
  545SOL    HW1 1634   2.243   1.612   1.261 -0.2849 -0.3880  1.2588
  545SOL    HW2 1635   2.152   1.466   1.265 -1.1396 -3.9587 -0.2924
  546SOL     OW 1636   3.065   0.165   2.083 -0.7341  0.3123 -0.4984
  546SOL    HW1 1637   0.076   0.194   2.054  1.7339  1.0066 -3.3066
  546SOL    HW2 1638   2.999   0.197   2.014  1.4796  0.8685 -2.2436
  547SOL     OW 1639   1.423   0.679   0.890  0.4577  0.4752 -0.0001
  547SOL    HW1 1640   1.354   0.689   0.961  0.0865  1.2739 -1.8678
  547SOL    HW2 1641   1.456   0.772   0.871 -3.6508 -4.1899  0.0004
  548SOL     OW 1642   1.444   2.427   2.847  0.3843 -0.0909  0.0170
  548SOL    HW1 1643   1.360   2.385   2.887  0.0886 -0.8674  1.5236
  548SOL    HW2 1644   1.490   2.356   2.793  1.8200  0.4862 -0.6456
  549SOL     OW 1645   2.167   0.224   0.297  0.0194 -0.2672  0.1047
  549SOL    HW1 1646   2.077   0.201   0.253 -0.4788 -0.0873 -1.2590
  549SOL    HW2 1647   2.228   0.143   0.295  1.4014  2.0069 -0.5815
  550SOL     OW 1648   2.651   2.070   0.643  0.3376 -0.5359 -0.0631
  550SOL    HW1 1649   2.609   2.155   0.680 -2.6562 -0.0240 -2.1973
  550SOL    HW2 1650   2.742   2.095   0.614 -1.4850  1.1427  1.3233
  551SOL     OW 1651   1.197   2.926   2.375 -0.1586  0.2117 -0.2508
  551SOL    HW1 1652   1.233   2.973   2.292 -0.7000  0.9124  0.3190
  551SOL    HW2 1653   1.108   2.959   2.408  0.3143 -1.7361  2.2314
  552SOL     OW 1654   2.947   2.324   2.691 -0.5842 -0.0588  0.0646
  552SOL    HW1 1655   2.982   2.355   2.597 -1.7526 -0.1658 -2.9933
  552SOL    HW2 1656   2.844   2.323   2.688 -0.3692  0.5745 -1.0468
  553SOL     OW 1657   3.066   0.077   0.761 -0.0087  0.1887 -0.1740
  553SOL    HW1 1658   0.031   0.140   0.824  0.9707  0.6832 -1.1166
  553SOL    HW2 1659   3.011   0.005   0.811 -0.5728 -1.4744  1.8493
  554SOL     OW 1660   2.226   2.133   1.456 -0.2740  0.1061  0.0141
  554SOL    HW1 1661   2.204   2.037   1.489 -2.0928 -1.9512  1.5070
  554SOL    HW2 1662   2.250   2.197   1.532  0.7198  0.4255  0.2664
  555SOL     OW 1663   1.582   2.231   2.041  0.0766 -0.6568 -0.2164
  555SOL    HW1 1664   1.577   2.141   2.088  3.1924  0.8147 -3.0304
  555SOL    HW2 1665   1.527   2.300   2.087 -2.8340 -2.0091 -3.1348
  556SOL     OW 1666   1.265   1.317   1.134  0.2413  0.1980 -0.3830
  556SOL    HW1 1667   1.272   1.260   1.051  1.7461  0.6629  0.8821
  556SOL    HW2 1668   1.336   1.397   1.145  0.7135  2.0145  1.0133
  557SOL     OW 1669   2.066   2.801   1.772  0.1407 -0.1931 -0.0404
  557SOL    HW1 1670   2.154   2.752   1.785  0.2679  1.6995  1.2498
  557SOL    HW2 1671   2.074   2.898   1.804  0.8497  1.1588  0.1884
  558SOL     OW 1672   0.183   0.014   1.815  0.1399  0.1251  0.8237
  558SOL    HW1 1673   0.188   0.099   1.866 -1.8877  0.0035 -1.7622
  558SOL    HW2 1674   0.150   0.025   1.718  0.7740  1.3046  1.4519
  559SOL     OW 1675   2.133   2.915   0.780 -0.7250 -0.4314  0.3693
  559SOL    HW1 1676   2.125   3.016   0.816  2.0943  4.0562 -0.8273
  559SOL    HW2 1677   2.111   2.900   0.680  0.4080 -1.8442 -3.0688
  560SOL     OW 1678   1.716   2.744   0.712 -0.7719 -0.2711 -0.3892
  560SOL    HW1 1679   1.779   2.811   0.756  1.6163 -1.3117 -0.7988
  560SOL    HW2 1680   1.660   2.697   0.784 -0.7740 -2.7018 -0.3693
  561SOL     OW 1681   0.531   0.294   0.949  0.0922 -0.3184  0.1632
  561SOL    HW1 1682   0.619   0.269   0.907 -2.2622 -2.8989  1.6951
  561SOL    HW2 1683   0.454   0.299   0.884 -0.6631  1.7594 -0.5764
  562SOL     OW 1684   0.446   1.272   2.419 -0.7345 -0.4057 -0.4503
  562SOL    HW1 1685   0.346   1.283   2.411  1.4008 -0.8969  0.5159
  562SOL    HW2 1686   0.473   1.180   2.379  3.6019 -0.6332  2.0132
  563SOL     OW 1687   1.761   2.212   2.353  0.0547 -0.2617 -0.4304
  563SOL    HW1 1688   1.720   2.140   2.293  1.2030 -0.3633  0.9851
  563SOL    HW2 1689   1.832   2.170   2.418 -0.6206  0.3187  2.2181
  564SOL     OW 1690   2.795   0.956   0.672  0.4951 -0.2812 -0.0571
  564SOL    HW1 1691   2.865   0.893   0.713 -0.4981  0.3304  0.9191
  564SOL    HW2 1692   2.726   0.989   0.738 -0.9928 -1.8095 -1.3357
  565SOL     OW 1693   0.709   0.910   0.051  0.2094 -0.8137 -0.4907
  565SOL    HW1 1694   0.641   0.903   3.061  1.2182  1.3812 -0.0033
  565SOL    HW2 1695   0.739   1.003   0.069 -0.0916  4.2848 -0.4107
  566SOL     OW 1696   2.045   0.498   2.677  0.6217  0.2562 -0.5136
  566SOL    HW1 1697   1.996   0.445   2.746  1.5442  0.3036  1.0847
  566SOL    HW2 1698   2.109   0.564   2.718 -2.4376  2.1470 -1.3041
  567SOL     OW 1699   1.472   0.903   0.712 -0.6188  0.2932  0.4816
  567SOL    HW1 1700   1.453   0.849   0.622 -0.5645 -0.8228 -1.2051
  567SOL    HW2 1701   1.416   0.988   0.710  1.0941 -2.4410  0.2246
  568SOL     OW 1702   1.852   1.896   2.949  0.3975  0.5686  0.5404
  568SOL    HW1 1703   1.767   1.845   2.977  3.1460 -1.0689  3.1635
  568SOL    HW2 1704   1.861   1.891   2.841  1.3019 -3.1116 -2.8731
  569SOL     OW 1705   2.030   1.361   3.059  0.3121 -0.2657  0.3526
  569SOL    HW1 1706   1.977   1.443   3.025  1.6615  0.1590  0.0116
  569SOL    HW2 1707   2.108   1.390   0.032  0.7994 -1.6725  1.0612
  570SOL     OW 1708   0.154   2.310   1.886 -0.2348 -0.3268 -0.2924
  570SOL    HW1 1709   0.248   2.336   1.866  0.1254 -0.1281  0.0283
  570SOL    HW2 1710   0.094   2.388   1.875  3.0284 -0.6035 -0.3387
  571SOL     OW 1711   0.095   1.318   1.700 -0.3750 -0.5990  0.5349
  571SOL    HW1 1712   0.115   1.354   1.609  1.1106 -0.7716  0.3626
  571SOL    HW2 1713   0.142   1.228   1.712  1.5579 -1.4383  2.9074
  572SOL     OW 1714   1.683   1.998   0.516 -0.3074 -0.2937  0.1047
  572SOL    HW1 1715   1.698   1.907   0.554  1.0357  1.3266  0.6144
  572SOL    HW2 1716   1.748   2.032   0.448  0.9704 -1.0029 -2.3576
  573SOL     OW 1717   1.914   2.107   0.430  0.1686  0.2010  0.6020
  573SOL    HW1 1718   1.967   2.181   0.385  0.7700 -1.5867 -0.0091
  573SOL    HW2 1719   1.904   2.132   0.530  0.7911 -0.4076 -1.1037
  574SOL     OW 1720   0.616   0.217   1.188 -0.1243  0.0559 -0.6122
  574SOL    HW1 1721   0.552   0.214   1.263  0.0374  2.3836  0.9790
  574SOL    HW2 1722   0.562   0.257   1.105 -2.0891 -0.1375 -0.5064
  575SOL     OW 1723   0.667   1.083   1.695 -0.5919  0.4614 -0.6707
  575SOL    HW1 1724   0.702   1.151   1.628  1.4613 -1.6829  0.7713
  575SOL    HW2 1725   0.734   1.056   1.771  2.2722 -0.5621 -1.3936
  576SOL     OW 1726   2.678   3.002   1.265  0.2734 -0.3376 -0.0659
  576SOL    HW1 1727   2.778   3.014   1.256  1.9939 -1.6977 -0.2113
  576SOL    HW2 1728   2.633   0.005   1.266  1.4608 -1.8364  1.1662
  577SOL     OW 1729   1.003   1.211   2.211 -0.0444 -0.3134  0.1621
  577SOL    HW1 1730   0.989   1.238   2.114 -2.7828 -1.6827  1.0642
  577SOL    HW2 1731   0.964   1.117   2.229 -1.0746 -0.9363 -3.5647
  578SOL     OW 1732   2.041   1.335   2.389  0.0719 -0.5300 -0.6558
  578SOL    HW1 1733   1.985   1.255   2.405  0.1248 -0.5140  0.0648
  578SOL    HW2 1734   2.004   1.421   2.435 -1.5970  1.7318  0.1788
  579SOL     OW 1735   1.486   2.286   1.786  0.3989 -0.2707  0.0435
  579SOL    HW1 1736   1.520   2.271   1.881 -0.8085  2.5686  1.9885
  579SOL    HW2 1737   1.498   2.385   1.768  0.3541 -1.0379  2.7441
  580SOL     OW 1738   1.400   1.788   0.338  0.2256 -0.3854  0.3204
  580SOL    HW1 1739   1.448   1.698   0.361 -0.8434 -1.8419 -0.6012
  580SOL    HW2 1740   1.313   1.799   0.391 -0.2241 -0.4881 -0.1253
  581SOL     OW 1741   1.221   0.885   2.150 -0.2349 -0.0082  0.9438
  581SOL    HW1 1742   1.123   0.909   2.160  0.0045  0.7035 -0.9006
  581SOL    HW2 1743   1.273   0.877   2.239 -2.1486 -0.4610 -0.1802
  582SOL     OW 1744   0.750   1.289   1.548 -0.0076 -0.6097 -0.7410
  582SOL    HW1 1745   0.839   1.298   1.592 -1.8027 -0.8651 -1.9052
  582SOL    HW2 1746   0.747   1.308   1.450  2.0773 -0.5067  0.7266
  583SOL     OW 1747   0.959   1.245   1.954 -0.0839 -0.2132  0.2888
  583SOL    HW1 1748   0.934   1.150   1.927  0.6294  0.2201 -0.0812
  583SOL    HW2 1749   0.899   1.309   1.903 -1.8554 -0.4027  1.8783
  584SOL     OW 1750   2.476   2.579   0.820  0.0450 -0.0805 -0.1267
  584SOL    HW1 1751   2.393   2.523   0.837  1.9588 -0.8992  2.2752
  584SOL    HW2 1752   2.460   2.678   0.821  0.9351 -1.0284 -0.6217
  585SOL     OW 1753   1.922   0.351   2.884 -0.0708  0.4749  0.0143
  585SOL    HW1 1754   1.869   0.273   2.848  2.7148  2.0155 -3.4635
  585SOL    HW2 1755   1.988   0.317   2.954  0.2511  1.7424 -0.7610
  586SOL     OW 1756   0.011   2.281   0.860 -0.2363 -0.2433  0.4049
  586SOL    HW1 1757   0.005   2.367   0.916  1.0613 -1.6928 -2.3776
  586SOL    HW2 1758   0.091   2.235   0.895 -2.4459  0.5297  0.7681
  587SOL     OW 1759   1.658   1.739   3.035 -0.5030 -0.1312 -0.4338
  587SOL    HW1 1760   1.633   1.762   0.045 -0.6449 -1.4470 -0.2654
  587SOL    HW2 1761   1.631   1.645   3.011  0.6675  0.6511 -0.4473
  588SOL     OW 1762   0.235   0.172   1.201  0.1670 -0.4359  0.0417
  588SOL    HW1 1763   0.292   0.148   1.280 -0.3929  0.9807 -1.9417
  588SOL    HW2 1764   0.142   0.194   1.236 -3.0326  1.1222 -0.5378
  589SOL     OW 1765   1.340   0.448   0.765 -0.9124  0.2468  0.2342
  589SOL    HW1 1766   1.286   0.374   0.816 -1.2829 -0.8629  0.3736
  589SOL    HW2 1767   1.386   0.521   0.825  0.0722  2.2254  3.0507
  590SOL     OW 1768   0.975   1.075   0.217  0.1058  0.7144  0.3812
  590SOL    HW1 1769   1.026   1.164   0.209 -0.8804  0.7920  0.5306
  590SOL    HW2 1770   0.988   1.027   0.128  1.1737  1.2725  0.4831
  591SOL     OW 1771   2.635   2.423   2.293  0.4557 -0.1784 -0.4604
  591SOL    HW1 1772   2.677   2.452   2.380  0.1444 -1.7356 -1.8133
  591SOL    HW2 1773   2.622   2.507   2.235  2.6756  2.7225  3.6599
  592SOL     OW 1774   2.042   1.758   1.414 -0.3597 -0.4529  0.1540
  592SOL    HW1 1775   2.081   1.795   1.494 -3.5696 -2.8008 -1.9534
  592SOL    HW2 1776   2.091   1.674   1.383 -1.0430 -0.2534  1.1064
  593SOL     OW 1777   1.134   0.579   1.543  0.2524  0.3952 -0.3855
  593SOL    HW1 1778   1.103   0.484   1.542 -1.6604  2.2437  0.4138
  593SOL    HW2 1779   1.075   0.638   1.483  1.3357 -1.1732 -0.9101
  594SOL     OW 1780   2.549   0.973   2.448 -0.2282  0.1458  0.4838
  594SOL    HW1 1781   2.618   1.031   2.495  0.2173  1.7638  2.5588
  594SOL    HW2 1782   2.599   0.901   2.396 -0.6412 -1.9315  2.0795
  595SOL     OW 1783   0.146   0.043   0.532  0.1299  0.7172  0.6231
  595SOL    HW1 1784   0.081   0.076   0.598 -0.3001 -0.4329 -1.9617
  595SOL    HW2 1785   0.240   0.079   0.551 -0.2982 -0.0521  0.5553
  596SOL     OW 1786   3.071   1.293   1.101 -0.2673 -0.3325  0.6716
  596SOL    HW1 1787   0.058   1.259   1.040 -0.6678 -1.4007 -2.0780
  596SOL    HW2 1788   2.979   1.269   1.073  0.4207 -0.2965  1.0131
  597SOL     OW 1789   1.752   1.587   0.418  0.0280 -0.0308 -0.4312
  597SOL    HW1 1790   1.733   1.656   0.492  0.4594 -2.4411 -2.3004
  597SOL    HW2 1791   1.827   1.617   0.351  1.5142 -0.3741 -0.3100
  598SOL     OW 1792   0.123   2.806   1.846  0.3223 -0.2814 -0.8710
  598SOL    HW1 1793   0.143   2.745   1.767  3.8636 -0.4607  0.5601
  598SOL    HW2 1794   0.153   2.901   1.822  1.4336 -0.3664 -2.4555
  599SOL     OW 1795   2.541   1.236   2.772 -0.5367  0.2970  0.7538
  599SOL    HW1 1796   2.475   1.279   2.705 -2.1851  0.2663 -2.7229
  599SOL    HW2 1797   2.545   1.284   2.863  2.3866  0.8555 -3.0553
  600SOL     OW 1798   0.501   1.086   0.297  0.4583  0.4315 -0.4678
  600SOL    HW1 1799   0.591   1.118   0.264 -2.7886 -1.7137 -0.6984
  600SOL    HW2 1800   0.455   1.156   0.348  1.1667 -0.9608 -0.7841
  601SOL     OW 1801   0.560   0.867   0.949 -1.0943  0.2632 -0.5615
  601SOL    HW1 1802   0.589   0.802   1.023 -1.0373  1.2697  2.2012
  601SOL    HW2 1803   0.525   0.950   0.998 -1.2282  1.3218 -0.6119
  602SOL     OW 1804   1.386   2.447   0.400  0.1443  0.2912 -0.1596
  602SOL    HW1 1805   1.330   2.364   0.420 -0.4168 -0.8533  1.1261
  602SOL    HW2 1806   1.453   2.431   0.323 -0.0553  0.1899 -0.5837
  603SOL     OW 1807   0.886   2.603   2.010 -0.0520  0.2682 -0.1086
  603SOL    HW1 1808   0.834   2.681   2.037 -0.0852 -0.6178 -1.7342
  603SOL    HW2 1809   0.830   2.520   2.015  1.7340 -0.0312 -1.2108
  604SOL     OW 1810   0.235   0.423   2.307  0.3479  0.1635  0.0117
  604SOL    HW1 1811   0.219   0.324   2.287 -0.4470  0.5134 -1.1965
  604SOL    HW2 1812   0.202   0.481   2.231  4.0121 -2.4607 -1.3814
  605SOL     OW 1813   3.047   1.056   1.322 -0.6648 -0.4138 -0.3002
  605SOL    HW1 1814   3.023   1.149   1.358  1.4252 -0.1425  0.7937
  605SOL    HW2 1815   2.987   0.982   1.358  0.0096  1.2000 -1.9013
  606SOL     OW 1816   0.883   1.742   2.622  0.2554  0.0780  0.4329
  606SOL    HW1 1817   0.805   1.783   2.574  1.7185 -0.0923 -0.0230
  606SOL    HW2 1818   0.942   1.706   2.550 -0.2791 -0.4382  0.6017
  607SOL     OW 1819   0.373   3.047   0.367 -0.2775 -0.5572  0.1427
  607SOL    HW1 1820   0.384   0.030   0.441 -0.5059 -1.5961 -0.6922
  607SOL    HW2 1821   0.279   3.043   0.330  1.4829 -1.1699  0.8217
  608SOL     OW 1822   2.299   1.731   2.038  0.5157 -0.1123  0.5092
  608SOL    HW1 1823   2.279   1.805   1.969 -0.4765 -3.3498  2.1011
  608SOL    HW2 1824   2.232   1.720   2.112 -0.8404  0.5093  0.4656
  609SOL     OW 1825   2.700   0.269   1.198  0.0475  0.1557  0.6563
  609SOL    HW1 1826   2.681   0.272   1.094  0.0991  0.8291 -2.3364
  609SOL    HW2 1827   2.633   0.208   1.240 -0.0183  1.3515 -0.2973
  610SOL     OW 1828   0.273   2.686   0.601 -0.3364 -0.1688 -0.0842
  610SOL    HW1 1829   0.334   2.731   0.531  0.6836  2.1859 -0.7131
  610SOL    HW2 1830   0.303   2.590   0.615 -1.9032 -1.9361  0.7246
  611SOL     OW 1831   1.518   1.231   3.003  0.3182 -0.9246 -0.0808
  611SOL    HW1 1832   1.574   1.154   3.002 -1.1776 -0.6359 -3.2019
  611SOL    HW2 1833   1.463   1.239   0.003 -1.7497  0.0359 -0.8293
  612SOL     OW 1834   0.632   2.307   1.793  0.2048 -0.1262  0.1300
  612SOL    HW1 1835   0.659   2.321   1.894 -0.4554  1.1655  2.8550
  612SOL    HW2 1836   0.669   2.379   1.734 -1.0302  0.3362 -2.9745
  613SOL     OW 1837   0.383   2.398   0.590 -0.6530 -0.4336  0.0098
  613SOL    HW1 1838   0.408   2.411   0.686 -0.6242 -1.5433  0.3035
  613SOL    HW2 1839   0.469   2.395   0.526  0.7315 -2.6518 -1.0688
  614SOL     OW 1840   2.158   2.730   1.516  0.2902 -0.2533  0.8946
  614SOL    HW1 1841   2.257   2.724   1.535  1.0247  2.3434  0.9404
  614SOL    HW2 1842   2.120   2.795   1.584  0.8605  1.5495  1.3242
  615SOL     OW 1843   1.661   1.024   0.277 -0.0519  0.4544  0.8713
  615SOL    HW1 1844   1.599   1.066   0.348 -1.3745  2.5882  2.8510
  615SOL    HW2 1845   1.762   1.051   0.295  1.1302 -2.4680  1.4283
  616SOL     OW 1846   1.899   0.720   0.278  0.7226  0.2453 -0.1349
  616SOL    HW1 1847   1.923   0.788   0.208 -0.7394 -2.5412  0.4735
  616SOL    HW2 1848   1.847   0.639   0.241 -2.6989 -1.6438  0.9056
  617SOL     OW 1849   0.951   0.784   2.732  0.0871  0.6153 -0.1394
  617SOL    HW1 1850   1.044   0.819   2.700  2.6149  1.9283  3.7089
  617SOL    HW2 1851   0.966   0.709   2.799  1.2341  0.7240 -3.3443
  618SOL     OW 1852   0.730   2.838   2.032  0.8797  0.0192 -0.2324
  618SOL    HW1 1853   0.781   2.894   1.963 -0.9349  1.1267  1.8442
  618SOL    HW2 1854   0.626   2.838   2.019  0.7692 -1.1861  0.1077
  619SOL     OW 1855   0.010   1.381   1.337  0.4108  0.7932  0.1886
  619SOL    HW1 1856   0.008   1.359   1.236 -1.2583 -1.0171  0.3259
  619SOL    HW2 1857   3.002   1.369   1.376 -2.3227 -0.1667  0.1201
  620SOL     OW 1858   0.092   0.807   2.951 -0.2509  0.1851  0.4205
  620SOL    HW1 1859   0.163   0.737   2.967  1.7126 -0.8837 -0.9018
  620SOL    HW2 1860   0.030   0.825   3.031 -2.0666 -1.2897  0.1356
  621SOL     OW 1861   2.252   2.128   2.105 -0.4862 -0.0929  0.1242
  621SOL    HW1 1862   2.329   2.112   2.172  1.1641 -1.4803 -2.0630
  621SOL    HW2 1863   2.157   2.097   2.133 -1.7570  2.2221 -2.8727
  622SOL     OW 1864   1.032   0.449   2.127 -0.1014 -0.6495 -0.6152
  622SOL    HW1 1865   1.057   0.385   2.202 -0.4680  1.3403 -0.9040
  622SOL    HW2 1866   0.978   0.528   2.161 -1.2038  0.7471 -1.1778
  623SOL     OW 1867   0.896   0.948   2.240 -0.3357  0.2005 -0.8959
  623SOL    HW1 1868   0.834   0.912   2.166 -1.5251 -0.3692  1.7969
  623SOL    HW2 1869   0.874   0.932   2.337 -0.7019  0.1027 -4.4131
  624SOL     OW 1870   2.506   0.849   0.314  0.2048 -0.1752  0.2713
  624SOL    HW1 1871   2.456   0.938   0.292 -2.2251  0.4182 -0.2216
  624SOL    HW2 1872   2.486   0.838   0.413  1.1818  2.7991 -1.4136
  625SOL     OW 1873   1.115   1.364   0.802  0.2852  0.1600  0.5543
  625SOL    HW1 1874   1.182   1.435   0.833 -0.7615 -0.6893  2.5198
  625SOL    HW2 1875   1.159   1.274   0.816 -0.2834  1.3043  1.8425
  626SOL     OW 1876   1.978   1.101   2.697 -0.2902 -0.1078  0.7975
  626SOL    HW1 1877   1.947   1.071   2.604  1.8664 -0.0778 -1.7225
  626SOL    HW2 1878   2.076   1.071   2.704 -2.2971  1.2069  2.6610
  627SOL     OW 1879   0.986   2.960   2.858 -0.6126  0.3584 -0.5067
  627SOL    HW1 1880   1.046   3.009   2.791  0.3826 -0.3635  1.3234
  627SOL    HW2 1881   0.921   3.029   2.901 -0.6566  2.2344 -0.3019
  628SOL     OW 1882   2.081   0.163   2.383 -0.4345 -0.2874 -0.4472
  628SOL    HW1 1883   2.122   0.147   2.474 -0.1421 -1.2404  0.6220
  628SOL    HW2 1884   1.989   0.124   2.391  0.7496  1.8380 -1.0731
  629SOL     OW 1885   0.767   0.395   2.958 -0.0886  0.1130 -0.1360
  629SOL    HW1 1886   0.724   0.317   2.904 -3.3201 -2.5303 -4.2517
  629SOL    HW2 1887   0.859   0.424   2.928  0.1485 -2.6316 -1.6821
  630SOL     OW 1888   0.916   0.467   2.599 -0.3890  0.0029 -0.1852
  630SOL    HW1 1889   0.939   0.387   2.661  0.0876 -1.3079 -0.8205
  630SOL    HW2 1890   0.821   0.497   2.608  2.6203  0.5129 -2.1310
  631SOL     OW 1891   2.379   1.100   0.643 -0.6531 -0.6475  0.1764
  631SOL    HW1 1892   2.285   1.129   0.679 -1.2092  1.0497 -1.0207
  631SOL    HW2 1893   2.418   1.182   0.589  1.9085  2.9008 -0.1997
  632SOL     OW 1894   1.982   0.900   1.436  0.1743  0.4510 -0.0955
  632SOL    HW1 1895   2.003   0.874   1.341  1.2319 -0.0213  0.8904
  632SOL    HW2 1896   1.903   0.848   1.473 -0.2029  2.7881  2.5410
  633SOL     OW 1897   1.126   1.590   0.263 -0.0867 -0.0024 -0.6271
  633SOL    HW1 1898   1.039   1.637   0.247  0.4286  0.0382 -0.3260
  633SOL    HW2 1899   1.148   1.603   0.357  0.8306  1.7883 -2.1189
  634SOL     OW 1900   2.391   2.975   1.415  0.6174 -0.3819  0.6291
  634SOL    HW1 1901   2.301   2.975   1.452  1.6745  1.3912  0.1520
  634SOL    HW2 1902   2.440   2.902   1.464 -0.3237 -3.0185  1.0066
  635SOL     OW 1903   1.753   0.313   1.088  0.1058 -0.0373 -0.2929
  635SOL    HW1 1904   1.731   0.385   1.158 -0.5944 -0.0657  4.1727
  635SOL    HW2 1905   1.673   0.307   1.023  1.1422  0.3026  0.1629
  636SOL     OW 1906   0.720   1.286   0.504  0.2214  0.3928  0.1659
  636SOL    HW1 1907   0.649   1.237   0.560  0.9762  0.0878 -1.2111
  636SOL    HW2 1908   0.793   1.339   0.553  0.4329  0.0119 -2.2185
  637SOL     OW 1909   2.837   2.031   2.923 -0.2431  0.1033  0.6381
  637SOL    HW1 1910   2.788   2.102   2.979 -1.5827  0.5069  2.9946
  637SOL    HW2 1911   2.924   2.065   2.884  1.7962  2.6571  0.5786
  638SOL     OW 1912   1.322   2.670   2.762  0.6686  0.0709  0.2870
  638SOL    HW1 1913   1.306   2.682   2.659 -0.5230 -0.5048 -0.3443
  638SOL    HW2 1914   1.377   2.590   2.778  1.8730  0.1060 -0.8827
  639SOL     OW 1915   1.452   1.555   1.090  0.3535  0.2943  0.0268
  639SOL    HW1 1916   1.384   1.637   1.114 -2.9634  5.8617  2.9734
  639SOL    HW2 1917   1.535   1.565   1.148 -1.1185  0.0683 -2.2159
  640SOL     OW 1918   2.308   2.845   0.441 -0.5837  0.1576 -0.4749
  640SOL    HW1 1919   2.210   2.841   0.470  3.1001 -0.5121  0.6391
  640SOL    HW2 1920   2.335   2.772   0.373  2.6710 -0.9530 -0.9027
  641SOL     OW 1921   2.988   3.014   2.945 -0.1438  0.0569 -0.4006
  641SOL    HW1 1922   3.012   3.077   3.017 -0.5013 -1.8327 -1.7457
  641SOL    HW2 1923   2.983   2.912   2.972  0.4300 -1.3111  2.7770
  642SOL     OW 1924   2.849   0.845   1.310  0.0828  0.1477 -0.3861
  642SOL    HW1 1925   2.785   0.831   1.234  0.0503 -0.5750 -3.3176
  642SOL    HW2 1926   2.827   0.789   1.395  0.8896 -2.3670  1.1859
  643SOL     OW 1927   1.109   1.783   2.016 -0.1004  0.3630 -0.4859
  643SOL    HW1 1928   1.036   1.827   1.962  1.6891 -0.4862  0.5662
  643SOL    HW2 1929   1.195   1.823   1.985 -1.1212  0.0326 -1.3483
  644SOL     OW 1930   1.925   2.190   0.689  0.1594 -0.1381 -0.1326
  644SOL    HW1 1931   1.866   2.207   0.769  0.4676 -0.0338 -0.9793
  644SOL    HW2 1932   1.991   2.263   0.673 -0.6889  0.2014  0.5383
  645SOL     OW 1933   1.836   1.911   0.993 -0.1439 -0.1093 -0.7690
  645SOL    HW1 1934   1.869   1.881   0.900  2.4977  0.3072 -0.8324
  645SOL    HW2 1935   1.801   1.831   1.046  1.7793  0.2906  0.9870
  646SOL     OW 1936   1.011   2.558   0.011 -0.2674 -0.0951 -0.4127
  646SOL    HW1 1937   1.067   2.620   3.039  0.5876  0.3237  0.3400
  646SOL    HW2 1938   1.046   2.466   3.078 -1.0349  0.6272 -0.8006
  647SOL     OW 1939   0.452   2.772   1.949  0.1951  0.1515  0.3037
  647SOL    HW1 1940   0.387   2.849   1.965  1.0067  0.8275  0.0219
  647SOL    HW2 1941   0.477   2.761   1.850  1.2346 -1.7685  1.1322
  648SOL     OW 1942   1.644   0.570   1.261  0.4040 -0.3834 -0.2388
  648SOL    HW1 1943   1.548   0.548   1.238  1.0855 -0.4389 -1.3451
  648SOL    HW2 1944   1.652   0.633   1.341  0.3765  2.7049 -0.5911
  649SOL     OW 1945   1.530   2.155   0.129  0.1917  0.5312 -0.0860
  649SOL    HW1 1946   1.555   2.244   0.171  0.9624 -0.8611  1.8306
  649SOL    HW2 1947   1.572   2.136   0.034 -1.2092 -0.9637  0.8682
  650SOL     OW 1948   1.943   1.629   1.849 -0.1535 -0.0782  0.5614
  650SOL    HW1 1949   1.941   1.589   1.941  1.5722 -2.1689 -0.2892
  650SOL    HW2 1950   1.865   1.595   1.790 -0.3082  1.2942 -0.2255
  651SOL     OW 1951   1.627   2.451   3.035 -0.2653 -0.1855  0.8872
  651SOL    HW1 1952   1.568   2.435   2.950 -0.4644 -0.7646 -1.2568
  651SOL    HW2 1953   1.679   2.537   3.024 -0.0694  0.9555  2.0310
  652SOL     OW 1954   0.472   2.302   0.217  0.7717 -0.0089 -0.3062
  652SOL    HW1 1955   0.372   2.291   0.204 -1.3229  0.1950 -0.1134
  652SOL    HW2 1956   0.500   2.402   0.202  1.2752 -0.7040  0.0058
  653SOL     OW 1957   2.404   2.208   1.264 -0.7268 -0.1921 -0.4835
  653SOL    HW1 1958   2.370   2.253   1.178 -0.0086 -4.2386 -1.6618
  653SOL    HW2 1959   2.331   2.180   1.331  0.3934 -0.9773  0.0832
  654SOL     OW 1960   2.903   2.807   1.357 -0.4328 -0.1966  0.3415
  654SOL    HW1 1961   2.916   2.904   1.326 -1.1109 -1.5799 -1.1835
  654SOL    HW2 1962   2.844   2.750   1.295 -1.5020  0.7522  2.0225
  655SOL     OW 1963   0.051   2.031   1.238  0.4958  0.2736 -0.8349
  655SOL    HW1 1964   0.026   2.017   1.336  0.4103 -0.3217  1.0286
  655SOL    HW2 1965   0.151   2.023   1.219 -2.8210 -1.4259 -0.9833
  656SOL     OW 1966   3.040   2.736   2.337 -0.4108  0.4847 -0.2797
  656SOL    HW1 1967   2.992   2.780   2.253  0.8727  0.5300 -1.4368
  656SOL    HW2 1968   0.052   2.738   2.320 -0.3403 -0.3949  1.2535
  657SOL     OW 1969   3.023   1.129   0.014  0.5377  0.0082  0.5659
  657SOL    HW1 1970   3.008   1.026   0.016  1.2011 -2.3977  1.1444
  657SOL    HW2 1971   2.960   1.181   3.046 -1.0570 -2.3706  1.0287
  658SOL     OW 1972   1.719   1.730   0.639  0.3998  0.4608  0.1759
  658SOL    HW1 1973   1.799   1.784   0.664  0.1586  1.0019 -0.5685
  658SOL    HW2 1974   1.655   1.727   0.719 -0.3104  1.0488 -0.1334
  659SOL     OW 1975   1.369   0.524   1.284 -0.1402 -0.4738  0.2094
  659SOL    HW1 1976   1.312   0.568   1.211  0.0335 -1.0436  4.0403
  659SOL    HW2 1977   1.317   0.454   1.338 -2.0995  0.6493 -1.3109
  660SOL     OW 1978   1.615   1.484   2.953 -0.1823  0.2552 -0.3233
  660SOL    HW1 1979   1.582   1.396   2.990 -0.5207  0.1193  2.4094
  660SOL    HW2 1980   1.652   1.473   2.859  0.4278 -1.7968 -2.4697
  661SOL     OW 1981   0.211   2.277   0.253  0.1509 -0.3440  0.5133
  661SOL    HW1 1982   0.211   2.204   0.324  0.7542 -4.1794 -1.0781
  661SOL    HW2 1983   0.168   2.364   0.288 -0.6229  3.0442 -0.6926
  662SOL     OW 1984   0.134   0.952   2.232  0.2307 -0.2796  0.2667
  662SOL    HW1 1985   0.135   0.935   2.333  1.3058  2.2827 -0.2266
  662SOL    HW2 1986   0.150   1.048   2.215 -1.0376 -3.1188 -0.0632
  663SOL     OW 1987   1.889   1.349   0.752  0.1062  0.4600 -0.0939
  663SOL    HW1 1988   1.874   1.251   0.773 -0.5856  1.2497 -1.0068
  663SOL    HW2 1989   1.961   1.393   0.810 -0.2637 -3.7537 -1.5866
  664SOL     OW 1990   0.841   0.592   0.926  0.1802  0.1371  0.1784
  664SOL    HW1 1991   0.873   0.657   0.998  0.0059 -1.9550 -2.3839
  664SOL    HW2 1992   0.738   0.586   0.925  0.4190  2.5440  2.2866
  665SOL     OW 1993   1.096   2.888   0.124  0.1066  0.0132  0.8380
  665SOL    HW1 1994   1.175   2.928   0.166  0.0230 -0.4364  0.8526
  665SOL    HW2 1995   1.118   2.842   0.037  0.8897 -3.0115 -2.0921
  666SOL     OW 1996   2.955   0.176   2.547 -0.4269 -0.5034  0.1791
  666SOL    HW1 1997   3.051   0.195   2.570 -0.1808 -0.0350  1.6728
  666SOL    HW2 1998   2.899   0.256   2.561  4.3373 -0.9632 -1.2775
  667SOL     OW 1999   2.535   1.868   2.021 -0.3915 -0.2674 -0.0022
  667SOL    HW1 2000   2.552   1.950   2.083 -0.3262  0.2029  1.8748
  667SOL    HW2 2001   2.457   1.808   2.057 -1.1721 -3.1653  2.6665
  668SOL     OW 2002   0.502   1.289   2.691  0.2957 -0.6163  0.0830
  668SOL    HW1 2003   0.589   1.339   2.710  1.3196  0.5604  0.0978
  668SOL    HW2 2004   0.484   1.290   2.589  2.7082  0.8945 -2.1428
  669SOL     OW 2005   2.284   2.514   2.711 -0.3879  0.1887  0.1387
  669SOL    HW1 2006   2.254   2.464   2.628 -2.9578  1.0028  1.5222
  669SOL    HW2 2007   2.293   2.452   2.789 -0.2919  0.3412  1.0256
  670SOL     OW 2008   2.313   1.070   2.426 -0.0867 -0.4909 -0.1863
  670SOL    HW1 2009   2.413   1.034   2.428  2.1039 -1.9086 -1.1556
  670SOL    HW2 2010   2.318   1.168   2.411  1.5052 -1.1481  0.2296
  671SOL     OW 2011   2.525   1.389   3.009 -0.4644  0.1133 -0.0894
  671SOL    HW1 2012   2.459   1.325   3.045  3.3640  2.2053 -1.9938
  671SOL    HW2 2013   2.606   1.389   3.072  0.0209  0.8861 -0.8540
  672SOL     OW 2014   2.447   1.182   2.131  0.0489 -0.7564  0.0209
  672SOL    HW1 2015   2.377   1.233   2.189 -2.0851  3.1270  1.4384
  672SOL    HW2 2016   2.405   1.150   2.042  1.5114  1.2961 -1.3614
  673SOL     OW 2017   2.532   0.871   1.440 -0.1314 -0.4888 -0.0971
  673SOL    HW1 2018   2.569   0.952   1.389  2.0768  0.8106  1.2851
  673SOL    HW2 2019   2.602   0.815   1.485 -0.8677  1.4319 -2.1341
  674SOL     OW 2020   2.036   1.898   1.911  0.6865  0.2372  0.0934
  674SOL    HW1 2021   2.003   1.806   1.874  0.8592 -1.9528 -2.4466
  674SOL    HW2 2022   1.996   1.975   1.853 -0.9252  1.3993 -0.9783
  675SOL     OW 2023   0.302   0.602   0.950 -0.0847 -0.2397 -0.6533
  675SOL    HW1 2024   0.292   0.668   0.873 -0.2036  0.9214 -0.7645
  675SOL    HW2 2025   0.324   0.512   0.911  1.1012  1.9090 -1.0369
  676SOL     OW 2026   1.927   1.095   1.130 -0.5933  0.0113 -0.0424
  676SOL    HW1 2027   1.935   1.148   1.213  1.6058 -1.3875 -3.7206
  676SOL    HW2 2028   1.985   1.014   1.146 -0.5110 -0.2661 -0.2098
  677SOL     OW 2029   2.394   1.511   2.165 -0.4494 -0.2471  0.2556
  677SOL    HW1 2030   2.484   1.481   2.132 -1.9697 -0.0169  2.1383
  677SOL    HW2 2031   2.359   1.588   2.114  0.3139  0.4163  1.2170
  678SOL     OW 2032   0.049   1.728   0.771 -0.7081 -0.0636  0.3722
  678SOL    HW1 2033   0.050   1.793   0.850  0.2493  1.7130  1.1907
  678SOL    HW2 2034   3.033   1.709   0.750 -1.4212  2.2780  0.3295
  679SOL     OW 2035   2.918   2.611   0.448 -0.4479  0.0305  0.1069
  679SOL    HW1 2036   2.958   2.684   0.507  0.8108 -2.3206 -0.7489
  679SOL    HW2 2037   2.820   2.624   0.438 -0.0536 -1.6641 -0.0253
  680SOL     OW 2038   0.167   2.488   1.278 -0.5265  0.1711 -0.1129
  680SOL    HW1 2039   0.252   2.450   1.316  0.4520 -0.5054  0.4563
  680SOL    HW2 2040   0.101   2.417   1.252  0.0306  0.3676  1.9121
  681SOL     OW 2041   0.547   1.112   1.341  0.2619  0.3281  0.0797
  681SOL    HW1 2042   0.597   1.197   1.304  1.7955  0.2688  0.8763
  681SOL    HW2 2043   0.479   1.145   1.408 -0.4012  0.5863 -2.2659
  682SOL     OW 2044   1.742   2.697   1.099  0.1019 -0.2929 -0.6398
  682SOL    HW1 2045   1.814   2.634   1.069  0.0963  1.7781 -0.2045
  682SOL    HW2 2046   1.785   2.790   1.123 -3.1148  0.6619 -1.8969
  683SOL     OW 2047   2.351   1.210   1.039 -0.4644 -0.8833  0.6587
  683SOL    HW1 2048   2.406   1.257   0.966  2.0361 -3.6878 -1.8469
  683SOL    HW2 2049   2.401   1.138   1.089  0.4981  1.0089 -0.2103
  684SOL     OW 2050   0.708   2.034   1.810 -0.3261  0.1472  0.4226
  684SOL    HW1 2051   0.690   2.133   1.789 -1.3849  1.0254 -1.2337
  684SOL    HW2 2052   0.621   1.981   1.820 -0.6654  0.1296 -1.1789
  685SOL     OW 2053   2.354   1.621   0.040 -0.3112 -1.0493  0.3550
  685SOL    HW1 2054   2.399   1.687   3.064  0.6019  1.7479  2.9652
  685SOL    HW2 2055   2.253   1.645   0.054 -3.2181  0.9067  2.6966
  686SOL     OW 2056   3.030   0.780   0.424  0.3098  0.0316  0.4621
  686SOL    HW1 2057   3.053   0.840   0.347 -2.9285  0.6085  0.9828
  686SOL    HW2 2058   2.925   0.784   0.435  0.3575 -0.0979 -1.7647
  687SOL     OW 2059   0.986   2.882   0.393 -0.1817 -0.3225 -0.0336
  687SOL    HW1 2060   1.019   2.832   0.474 -0.8207 -0.4435  0.0164
  687SOL    HW2 2061   1.039   2.859   0.311 -1.4359 -2.0991  1.2914
  688SOL     OW 2062   1.830   1.754   2.278 -0.4392  0.7927  0.7070
  688SOL    HW1 2063   1.830   1.652   2.265 -0.2549 -4.7365 -1.6539
  688SOL    HW2 2064   1.830   1.806   2.190  3.0548  0.8902 -1.0619
  689SOL     OW 2065   2.672   0.994   2.160 -0.0474  0.3718 -0.1341
  689SOL    HW1 2066   2.588   1.054   2.145 -4.1796  2.3610  1.2767
  689SOL    HW2 2067   2.745   1.052   2.206  2.6540  0.8981  2.4756
  690SOL     OW 2068   1.663   0.528   0.813  0.2120 -0.3896  0.3188
  690SOL    HW1 2069   1.577   0.588   0.824  0.0488 -0.8457  0.8846
  690SOL    HW2 2070   1.651   0.427   0.834 -0.8513  2.7634 -2.2929
  691SOL     OW 2071   1.027   1.511   1.378 -0.3828  0.1332 -0.2042
  691SOL    HW1 2072   1.102   1.454   1.419 -0.3329  0.3655  1.6263
  691SOL    HW2 2073   0.998   1.462   1.298  1.0717  1.1577 -0.2698
  692SOL     OW 2074   1.670   0.228   2.012 -0.0753  0.5295 -0.5576
  692SOL    HW1 2075   1.672   0.325   2.039  0.2952 -1.3553  1.4636
  692SOL    HW2 2076   1.764   0.189   2.031  1.0567 -0.1975 -0.7345
  693SOL     OW 2077   0.370   0.980   0.091  0.0787 -0.0257 -0.0778
  693SOL    HW1 2078   0.448   1.017   0.154  2.1634  1.6563  0.7876
  693SOL    HW2 2079   0.414   0.952   0.001 -1.3156 -3.4119 -0.3772
  694SOL     OW 2080   2.226   2.444   0.793 -0.0347  0.3011  0.2316
  694SOL    HW1 2081   2.191   2.517   0.856  0.7384 -2.9099 -1.4605
  694SOL    HW2 2082   2.160   2.425   0.716 -1.8262  0.3422  0.6592
  695SOL     OW 2083   1.580   1.365   2.518 -0.5671 -0.3552  0.1557
  695SOL    HW1 2084   1.632   1.387   2.604  1.8241  1.9071  2.6328
  695SOL    HW2 2085   1.623   1.286   2.468 -1.0990  0.6839 -0.1382
  696SOL     OW 2086   1.262   0.263   1.400  0.6259  0.4057  0.2801
  696SOL    HW1 2087   1.189   0.284   1.471 -0.4028 -2.0738  0.6355
  696SOL    HW2 2088   1.262   0.163   1.376 -3.0632 -1.2867 -0.7775
  697SOL     OW 2089   1.413   0.316   2.005  0.2612 -0.4850  0.3409
  697SOL    HW1 2090   1.375   0.411   2.018  0.6940 -0.4690 -1.6555
  697SOL    HW2 2091   1.511   0.311   2.037  2.4125  0.0299 -1.3100
  698SOL     OW 2092   1.757   1.489   2.291  0.0114 -0.5505  0.3042
  698SOL    HW1 2093   1.715   1.446   2.210 -0.2132 -1.6843 -2.4432
  698SOL    HW2 2094   1.687   1.510   2.366 -1.1866 -1.6643 -0.1845
  699SOL     OW 2095   1.495   1.125   1.277  0.5027 -0.0209  0.5671
  699SOL    HW1 2096   1.558   1.092   1.203  1.3366  1.5449  2.2229
  699SOL    HW2 2097   1.406   1.172   1.248 -2.1283  0.0723  0.9465
  700SOL     OW 2098   1.590   0.114   0.199 -0.5411  0.6134  0.6278
  700SOL    HW1 2099   1.663   0.088   0.273  3.3191 -3.9666  0.0776
  700SOL    HW2 2100   1.494   0.089   0.231 -2.4315 -2.4695 -2.2022
  701SOL     OW 2101   0.329   2.892   1.580  0.0570 -0.1435  0.5630
  701SOL    HW1 2102   0.294   2.914   1.484 -2.8715  1.0542 -1.3048
  701SOL    HW2 2103   0.296   2.801   1.611 -0.5793  0.1601  1.7581
  702SOL     OW 2104   1.411   2.765   1.115 -0.3600 -0.0438  0.0534
  702SOL    HW1 2105   1.490   2.729   1.061 -1.5758  1.2139  2.4476
  702SOL    HW2 2106   1.362   2.841   1.066  0.9873  2.7015  0.5094
  703SOL     OW 2107   2.420   0.244   2.022 -0.3590  0.2251 -0.0943
  703SOL    HW1 2108   2.321   0.263   2.010  2.3895 -2.1323 -0.3126
  703SOL    HW2 2109   2.479   0.328   2.018 -0.8872 -1.9299  0.1944
  704SOL     OW 2110   1.309   1.749   1.165 -0.2598  0.1574 -0.1581
  704SOL    HW1 2111   1.286   1.789   1.077  1.0421 -1.8820  0.9290
  704SOL    HW2 2112   1.286   1.819   1.238 -0.0670 -1.3316 -2.1979
  705SOL     OW 2113   2.907   1.422   2.010 -0.2700  0.8401  0.2651
  705SOL    HW1 2114   2.914   1.523   2.012 -1.1712  1.0592  0.1862
  705SOL    HW2 2115   2.817   1.395   2.046 -2.9893 -0.7339  0.4028
  706SOL     OW 2116   1.413   2.999   0.718  0.2550  0.5937 -0.3166
  706SOL    HW1 2117   1.445   2.995   0.623  0.0777  1.0650  1.9216
  706SOL    HW2 2118   1.494   3.007   0.778 -1.7647 -0.4544 -0.9636
  707SOL     OW 2119   1.078   2.569   2.601  0.2587  0.1629 -0.0419
  707SOL    HW1 2120   1.042   2.533   2.511  1.7592  0.1318 -2.8081
  707SOL    HW2 2121   1.074   2.500   2.678  0.9655 -0.0955 -1.4564
  708SOL     OW 2122   0.243   2.379   1.581 -0.2646  0.2555  0.3331
  708SOL    HW1 2123   0.231   2.276   1.577 -0.5566 -1.0388  0.7563
  708SOL    HW2 2124   0.310   2.408   1.652  0.5261  0.6611 -0.9431
  709SOL     OW 2125   2.125   0.735   1.977 -0.2052  0.1510  0.2929
  709SOL    HW1 2126   2.039   0.777   2.025  0.4964  2.7790 -0.5239
  709SOL    HW2 2127   2.093   0.660   1.918 -1.6452 -0.6862 -0.2340
  710SOL     OW 2128   2.964   0.360   1.604  0.1260 -0.6753  0.0800
  710SOL    HW1 2129   2.919   0.385   1.514 -0.1773  0.0055 -2.6700
  710SOL    HW2 2130   3.059   0.335   1.588 -1.9160 -0.6784  1.7815
  711SOL     OW 2131   0.048   2.484   0.401 -0.0666  0.3440  0.7248
  711SOL    HW1 2132   0.078   2.424   0.477  0.4368  0.9697  1.1954
  711SOL    HW2 2133   3.044   2.532   0.430 -1.1824 -1.4026  0.5464
  712SOL     OW 2134   0.412   2.341   2.646 -0.3601 -0.3184 -0.3260
  712SOL    HW1 2135   0.417   2.444   2.632 -0.4209 -0.8802  0.3732
  712SOL    HW2 2136   0.359   2.312   2.728 -1.7358 -0.2598 -0.0898
  713SOL     OW 2137   1.941   0.885   0.050  0.2525  0.2495 -0.6209
  713SOL    HW1 2138   1.918   0.984   0.060  0.2799  1.6195 -1.7306
  713SOL    HW2 2139   1.871   0.835   3.078 -0.3072  1.4744  0.0007
  714SOL     OW 2140   1.470   2.115   0.628 -0.1189 -0.1352 -0.1778
  714SOL    HW1 2141   1.532   2.061   0.565 -0.7628 -1.1024  0.2585
  714SOL    HW2 2142   1.522   2.195   0.670 -2.1189  0.0524  1.1673
  715SOL     OW 2143   3.008   0.247   0.416 -0.2415  0.4475  0.3107
  715SOL    HW1 2144   2.938   0.237   0.346 -0.1350 -1.0342 -1.7224
  715SOL    HW2 2145   3.074   0.167   0.412  1.6519 -0.1023 -0.8644
  716SOL     OW 2146   0.634   0.104   2.299  0.0843  0.0374 -0.0979
  716SOL    HW1 2147   0.578   0.194   2.302 -0.3340  2.3118  1.2030
  716SOL    HW2 2148   0.579   0.023   2.322  2.9846  2.1454  0.7335
  717SOL     OW 2149   0.084   0.479   2.956  0.6011  0.6296  0.1776
  717SOL    HW1 2150   0.157   0.415   2.932 -0.3431  3.3511  0.1294
  717SOL    HW2 2151   3.084   0.465   2.900  0.0549 -0.9562 -1.6340
  718SOL     OW 2152   1.143   0.463   0.357 -0.1791 -0.6921  0.0177
  718SOL    HW1 2153   1.131   0.513   0.446 -0.0033  2.1794  0.1491
  718SOL    HW2 2154   1.180   0.372   0.375  1.5557  0.6641  3.4653
  719SOL     OW 2155   2.649   2.349   2.710  0.3405  0.3546  0.4120
  719SOL    HW1 2156   2.570   2.377   2.656  0.4115 -0.1830 -0.2635
  719SOL    HW2 2157   2.632   2.250   2.744 -0.8205 -1.9788  0.7157
  720SOL     OW 2158   1.748   0.792   1.834  0.1124  0.6064  0.0134
  720SOL    HW1 2159   1.806   0.779   1.919  0.1906 -2.4825  0.7355
  720SOL    HW2 2160   1.659   0.751   1.861 -0.0438 -1.7542 -0.7314
  721SOL     OW 2161   2.678   0.310   0.910 -0.2368  0.5759  0.3108
  721SOL    HW1 2162   2.575   0.317   0.904 -1.3354  1.3996  0.2950
  721SOL    HW2 2163   2.714   0.261   0.830 -3.6401  1.2163 -2.0776
  722SOL     OW 2164   1.318   2.279   2.524 -0.0217 -0.1855 -0.4725
  722SOL    HW1 2165   1.359   2.368   2.488 -0.9218  0.3581  0.5136
  722SOL    HW2 2166   1.377   2.193   2.503 -0.0209 -0.9796 -0.3649
  723SOL     OW 2167   0.803   0.240   0.853 -0.1530  0.3278  0.1206
  723SOL    HW1 2168   0.819   0.273   0.758 -0.7687 -1.7033 -1.1413
  723SOL    HW2 2169   0.877   0.269   0.915 -0.2404 -2.4221 -2.1417
  724SOL     OW 2170   1.055   1.999   2.314  0.4053 -0.1282 -0.5062
  724SOL    HW1 2171   0.988   2.040   2.377 -1.8710  3.0011 -2.3769
  724SOL    HW2 2172   1.007   1.926   2.259 -0.4597  1.4334 -0.5764
  725SOL     OW 2173   0.167   0.812   1.069 -0.2503  0.5034  0.0255
  725SOL    HW1 2174   0.227   0.887   1.110 -1.5133  2.0649 -0.4471
  725SOL    HW2 2175   0.214   0.729   1.026  2.2351 -0.1347 -0.8359
  726SOL     OW 2176   1.855   0.232   0.606  0.1951 -0.2886 -0.2038
  726SOL    HW1 2177   1.809   0.317   0.564  3.5797  0.2515  0.0297
  726SOL    HW2 2178   1.873   0.248   0.703  1.0266 -0.9421  0.7356
  727SOL     OW 2179   1.935   1.079   2.112  0.4233 -0.4436  0.5768
  727SOL    HW1 2180   1.928   1.164   2.058  0.5775  1.1113  0.7820
  727SOL    HW2 2181   2.027   1.066   2.147 -1.1843  2.0038 -1.2294
  728SOL     OW 2182   1.858   2.713   1.629  0.5897  0.3161  0.0771
  728SOL    HW1 2183   1.921   2.752   1.699 -0.3725 -2.3736 -1.3770
  728SOL    HW2 2184   1.867   2.609   1.610 -1.9762  1.1468  1.3843
  729SOL     OW 2185   1.426   0.379   1.653  0.0298  0.3281  0.0204
  729SOL    HW1 2186   1.396   0.342   1.566 -1.5184  0.0210  2.0222
  729SOL    HW2 2187   1.494   0.317   1.697  0.5125 -2.7207 -0.0718
  730SOL     OW 2188   0.834   1.711   1.447 -0.2250  0.3878  0.5662
  730SOL    HW1 2189   0.842   1.800   1.403  0.4456  0.2284 -0.6258
  730SOL    HW2 2190   0.915   1.652   1.421 -2.6151  2.4727 -0.3555
  731SOL     OW 2191   0.361   0.202   0.099  0.2450  0.3609  0.4501
  731SOL    HW1 2192   0.284   0.243   0.156  0.8145 -1.2410  1.7507
  731SOL    HW2 2193   0.372   0.103   0.124 -1.2822  2.8196 -0.7316
  732SOL     OW 2194   0.399   0.842   0.356  0.1816 -0.3539  0.8825
  732SOL    HW1 2195   0.302   0.845   0.321 -0.1652 -1.0269  0.8611
  732SOL    HW2 2196   0.452   0.921   0.321 -1.5760 -3.6640 -0.0586
  733SOL     OW 2197   1.462   1.595   1.792 -0.0703 -0.8929 -0.1805
  733SOL    HW1 2198   1.533   1.609   1.865 -0.0466  2.6857  0.2114
  733SOL    HW2 2199   1.431   1.501   1.794  2.3500  1.9094 -0.4533
  734SOL     OW 2200   3.032   2.494   2.216  0.0091  0.1116 -0.1997
  734SOL    HW1 2201   3.058   2.518   2.119  0.6906  1.1306 -1.4708
  734SOL    HW2 2202   3.019   2.580   2.264 -0.6370 -2.5914 -2.4926
  735SOL     OW 2203   1.103   2.774   0.886 -0.0650 -0.0739 -0.0399
  735SOL    HW1 2204   1.117   2.682   0.934 -2.1571  0.3155  1.5260
  735SOL    HW2 2205   1.159   2.843   0.933 -1.6590 -2.6936 -1.1698
  736SOL     OW 2206   1.225   0.805   2.670 -0.1031  0.0131  0.3973
  736SOL    HW1 2207   1.291   0.731   2.693 -1.2310  2.3623 -1.7768
  736SOL    HW2 2208   1.266   0.894   2.686  0.0318 -0.1858  1.2604
  737SOL     OW 2209   3.057   1.067   0.275  0.1476  0.3506 -0.2246
  737SOL    HW1 2210   0.050   0.999   0.266  1.4787 -2.2311  0.2807
  737SOL    HW2 2211   3.033   1.096   0.181  1.1640  1.2696 -0.6457
  738SOL     OW 2212   0.167   2.638   1.640  0.1951  0.1015 -0.2272
  738SOL    HW1 2213   0.208   2.546   1.633  1.7638  0.4437  1.1892
  738SOL    HW2 2214   0.123   2.675   1.557  2.0009  0.2763  1.7027
  739SOL     OW 2215   1.341   2.794   0.295 -0.4586 -0.6799  0.1838
  739SOL    HW1 2216   1.376   2.746   0.377 -0.9319 -0.5302  2.1313
  739SOL    HW2 2217   1.261   2.739   0.262  1.7141  1.4876 -1.8322
  740SOL     OW 2218   1.874   2.887   1.432 -0.4341  0.0282  0.5080
  740SOL    HW1 2219   1.787   2.929   1.410  3.4263 -0.6700  2.8663
  740SOL    HW2 2220   1.870   2.816   1.506  1.0715 -0.0016 -0.5615
  741SOL     OW 2221   2.088   0.464   0.741 -0.0828  0.2525 -0.4359
  741SOL    HW1 2222   2.137   0.485   0.829 -2.8391 -0.4045  0.3266
  741SOL    HW2 2223   2.132   0.393   0.682 -0.9844  0.5666 -0.2299
  742SOL     OW 2224   1.156   2.577   1.972  0.1528 -0.2345 -0.1730
  742SOL    HW1 2225   1.069   2.587   2.027  1.8015  0.9632 -0.7246
  742SOL    HW2 2226   1.203   2.485   1.983  1.8839 -2.7074 -1.7080
  743SOL     OW 2227   2.344   0.850   1.839  0.1190 -0.2037  0.3001
  743SOL    HW1 2228   2.305   0.856   1.744  0.5801 -0.4549 -0.4656
  743SOL    HW2 2229   2.277   0.812   1.905 -2.3812 -0.0611  0.5186
  744SOL     OW 2230   2.247   0.497   0.971 -0.2935 -0.4287  0.5213
  744SOL    HW1 2231   2.306   0.579   0.961 -1.5570  0.0417  0.7119
  744SOL    HW2 2232   2.186   0.502   1.051  0.3509 -0.0581  2.0788
  745SOL     OW 2233   2.094   1.241   1.789 -0.5354 -0.2613 -0.3635
  745SOL    HW1 2234   2.155   1.306   1.741  0.0818 -1.1317  2.9511
  745SOL    HW2 2235   2.048   1.177   1.722  0.0030  0.7026 -1.5395
  746SOL     OW 2236   1.446   1.413   0.629 -0.1362  0.4277 -0.0656
  746SOL    HW1 2237   1.539   1.393   0.662 -2.1781  1.9340 -2.5655
  746SOL    HW2 2238   1.403   1.465   0.703  2.3635  2.1318  1.8906
  747SOL     OW 2239   2.123   1.347   1.170  0.2078 -0.5994  0.1897
  747SOL    HW1 2240   2.051   1.311   1.236 -2.1516  2.6476  2.8889
  747SOL    HW2 2241   2.195   1.285   1.138  2.7176  1.0942  1.2083
  748SOL     OW 2242   0.055   3.024   0.264  0.0960  0.4147  0.2439
  748SOL    HW1 2243   0.045   2.989   0.360  2.5602  1.0933  0.0037
  748SOL    HW2 2244   0.096   2.949   0.203  1.8997 -2.2269 -0.1353
  749SOL     OW 2245   0.174   0.590   2.110 -0.5641  0.0204  0.6357
  749SOL    HW1 2246   0.081   0.614   2.151 -1.1364 -0.4298 -0.7044
  749SOL    HW2 2247   0.150   0.564   2.012 -2.6825  0.1510 -2.4414
  750SOL     OW 2248   1.796   2.856   2.021  0.4462 -0.0112  0.3155
  750SOL    HW1 2249   1.717   2.921   2.049 -4.7488 -0.8932  1.6624
  750SOL    HW2 2250   1.839   2.891   1.935 -0.9264  1.8806  0.0065
  751SOL     OW 2251   2.504   0.533   0.398  0.1174  0.8356 -0.8154
  751SOL    HW1 2252   2.419   0.507   0.349  0.3954  1.6354  0.3949
  751SOL    HW2 2253   2.527   0.449   0.454 -0.7161 -5.6591 -1.6872
  752SOL     OW 2254   0.229   2.143   0.896 -0.1717 -0.1516 -0.6183
  752SOL    HW1 2255   0.174   2.071   0.932  1.7223 -0.5651 -1.0014
  752SOL    HW2 2256   0.276   2.194   0.970  1.4724  1.0469  1.7515
  753SOL     OW 2257   0.890   0.226   1.190 -0.2535 -0.1322  0.3140
  753SOL    HW1 2258   0.793   0.231   1.209  1.8677  0.3646  1.4944
  753SOL    HW2 2259   0.913   0.124   1.191  0.6515  1.2545  2.1289
  754SOL     OW 2260   0.730   2.819   2.303  0.1191  0.0520 -0.5459
  754SOL    HW1 2261   0.721   2.840   2.199 -1.2370 -0.1661 -1.7859
  754SOL    HW2 2262   0.822   2.777   2.320 -0.1172 -0.0846 -1.2724
  755SOL     OW 2263   2.139   1.009   0.350 -0.0383  0.3719  0.0816
  755SOL    HW1 2264   2.167   0.949   0.427 -0.6486  0.6237  2.0747
  755SOL    HW2 2265   2.163   0.963   0.264 -1.0369  0.7742  1.5538
  756SOL     OW 2266   2.330   2.113   2.578  0.2150  0.6926  0.2706
  756SOL    HW1 2267   2.390   2.098   2.657  0.0819 -0.3907 -1.0935
  756SOL    HW2 2268   2.392   2.148   2.505 -0.6685  1.1274  0.8064
  757SOL     OW 2269   1.558   0.267   0.883  0.0177  0.9251 -0.0624
  757SOL    HW1 2270   1.472   0.301   0.841 -0.9838 -0.8565 -2.1748
  757SOL    HW2 2271   1.579   0.167   0.858  0.7947  1.6314 -2.6883
  758SOL     OW 2272   1.569   2.600   0.906 -0.4524 -0.5142 -0.0350
  758SOL    HW1 2273   1.626   2.619   0.994 -0.6562  1.6162  2.8247
  758SOL    HW2 2274   1.547   2.503   0.894 -0.3882  0.0558 -0.5131
  759SOL     OW 2275   2.338   0.737   1.252  0.5835 -0.0829 -0.5075
  759SOL    HW1 2276   2.377   0.681   1.175  1.9541  0.7977  0.6752
  759SOL    HW2 2277   2.412   0.775   1.308  0.2436 -2.0985  0.7140
  760SOL     OW 2278   2.502   0.979   1.069 -0.0056 -0.2569  0.1703
  760SOL    HW1 2279   2.578   1.005   1.130  1.8663  1.9813  0.2412
  760SOL    HW2 2280   2.487   0.879   1.066  2.3872  1.3651 -0.0882
  761SOL     OW 2281   0.282   0.410   0.506  0.4219  0.0493 -0.0602
  761SOL    HW1 2282   0.378   0.417   0.508 -4.3154 -0.0929  1.0275
  761SOL    HW2 2283   0.239   0.497   0.480  1.5357 -0.7324  0.3448
  762SOL     OW 2284   1.770   1.876   1.452  0.3213  0.3006 -0.0276
  762SOL    HW1 2285   1.860   1.836   1.426 -1.6288 -0.5510  1.8839
  762SOL    HW2 2286   1.714   1.803   1.493 -1.6659  1.0594 -0.5746
  763SOL     OW 2287   1.153   1.290   1.769 -0.3653 -0.5248 -0.0523
  763SOL    HW1 2288   1.117   1.288   1.864  2.2040 -2.5199  0.4503
  763SOL    HW2 2289   1.141   1.381   1.727 -1.4649  1.1060 -0.0586
  764SOL     OW 2290   3.029   1.630   2.400 -0.4869  0.0580  0.2783
  764SOL    HW1 2291   3.079   1.627   2.308  0.2389 -2.0224 -0.7615
  764SOL    HW2 2292   0.010   1.656   2.478 -1.1874 -0.3715  4.4523
  765SOL     OW 2293   1.502   2.555   1.482 -0.0176 -0.0936 -0.4163
  765SOL    HW1 2294   1.585   2.536   1.422  2.1091  0.3949  0.9537
  765SOL    HW2 2295   1.462   2.645   1.460 -0.1765  1.3393 -0.3599
  766SOL     OW 2296   3.039   2.580   2.791 -0.2988 -0.1937  0.2160
  766SOL    HW1 2297   3.002   2.642   2.714  2.2295 -1.1417 -1.2737
  766SOL    HW2 2298   3.045   2.483   2.764 -0.2570  0.4910  4.2020
  767SOL     OW 2299   1.286   0.865   2.400  0.3544  0.0307 -0.1048
  767SOL    HW1 2300   1.362   0.918   2.434 -1.7100 -1.7833  0.4209
  767SOL    HW2 2301   1.246   0.816   2.485 -1.7666 -0.0583  0.6360
  768SOL     OW 2302   1.286   2.104   0.244  0.2437  0.0870 -0.2015
  768SOL    HW1 2303   1.365   2.130   0.185  0.5319 -1.1387 -1.1014
  768SOL    HW2 2304   1.266   2.007   0.224  1.2127 -0.4436 -1.4449
  769SOL     OW 2305   0.353   2.623   1.090  0.7514  0.0800  0.3829
  769SOL    HW1 2306   0.294   2.557   1.138  3.4451  1.3312 -1.9299
  769SOL    HW2 2307   0.299   2.683   1.024 -2.1827 -0.2584 -3.5060
  770SOL     OW 2308   1.444   0.976   2.842  0.8403 -0.2477  0.0924
  770SOL    HW1 2309   1.446   1.077   2.826  2.6006 -0.0292 -1.6485
  770SOL    HW2 2310   1.540   0.940   2.830  0.3767 -1.0940 -0.1441
  771SOL     OW 2311   0.170   2.973   2.180  0.0840 -0.0456 -0.0481
  771SOL    HW1 2312   0.153   3.062   2.230  0.3453  1.6120 -0.1715
  771SOL    HW2 2313   0.238   3.002   2.108 -1.2030  0.0357  0.9971
  772SOL     OW 2314   2.244   3.046   2.272  0.4484  0.0522 -0.2990
  772SOL    HW1 2315   2.342   3.072   2.269 -2.9435 -1.5699 -0.9029
  772SOL    HW2 2316   2.188   0.051   2.293 -2.1223  1.0052  0.1138
  773SOL     OW 2317   0.941   1.912   1.851  0.2903  0.0822 -0.1193
  773SOL    HW1 2318   1.013   1.939   1.784 -1.3818 -1.6521  0.1837
  773SOL    HW2 2319   0.859   1.978   1.847  0.2071 -0.3777  0.7574
  774SOL     OW 2320   1.338   0.179   2.241 -0.1188 -0.4457 -0.4136
  774SOL    HW1 2321   1.355   0.235   2.154  0.7958 -1.2246 -1.9139
  774SOL    HW2 2322   1.279   0.228   2.306  0.3825  1.0368 -0.4578
  775SOL     OW 2323   2.121   2.830   0.187 -0.1160  0.2452 -0.1636
  775SOL    HW1 2324   2.097   2.833   0.089 -0.4376  3.4103 -0.3534
  775SOL    HW2 2325   2.039   2.872   0.233  1.3993  1.8387 -3.1657
  776SOL     OW 2326   2.717   0.785   2.328  0.1958 -0.7474  0.5698
  776SOL    HW1 2327   2.735   0.691   2.282 -1.0489 -0.3494 -0.6343
  776SOL    HW2 2328   2.708   0.861   2.255 -0.3919  2.2444 -1.2369
  777SOL     OW 2329   2.583   2.080   2.201  0.3689  0.1915 -0.1382
  777SOL    HW1 2330   2.548   2.120   2.289  0.1407  1.5977  1.7407
  777SOL    HW2 2331   2.678   2.040   2.209  2.1932  0.0431 -2.7084
  778SOL     OW 2332   1.892   1.071   2.437 -0.2279 -0.3505  0.2267
  778SOL    HW1 2333   1.796   1.074   2.404 -0.5085 -0.8459  1.2832
  778SOL    HW2 2334   1.927   0.980   2.408 -0.7502 -0.6132 -1.6379
  779SOL     OW 2335   3.035   0.359   0.099  0.3191 -0.1320 -0.5834
  779SOL    HW1 2336   0.016   0.375   0.023  2.4085  1.3120  1.8449
  779SOL    HW2 2337   2.963   0.429   0.107  1.2133 -0.4593  1.4147
  780SOL     OW 2338   2.479   0.629   2.950  0.6930  0.0423 -0.0790
  780SOL    HW1 2339   2.543   0.550   2.939  0.2924 -1.3764  1.1551
  780SOL    HW2 2340   2.454   0.639   3.051 -1.3274 -0.2763  0.8363
  781SOL     OW 2341   0.186   2.975   1.320  0.0921  0.9160  0.1378
  781SOL    HW1 2342   0.165   3.003   1.223 -0.2349 -0.0107 -1.1506
  781SOL    HW2 2343   0.139   2.890   1.357  1.6875 -0.7286 -1.7646
  782SOL     OW 2344   1.916   2.647   0.561 -0.0087 -0.0020  0.0238
  782SOL    HW1 2345   1.899   2.598   0.473  1.3468  0.5560 -0.5844
  782SOL    HW2 2346   1.829   2.666   0.611 -1.2249 -0.9949 -0.0481
  783SOL     OW 2347   0.730   1.315   1.281  0.1569  0.3890 -0.7477
  783SOL    HW1 2348   0.687   1.406   1.271 -3.2111  0.2909  1.1166
  783SOL    HW2 2349   0.802   1.296   1.213 -3.2560 -1.2672  2.1608
  784SOL     OW 2350   1.445   0.600   2.725  0.0246 -0.2558  0.2323
  784SOL    HW1 2351   1.397   0.542   2.654 -3.7135  1.4858 -3.9958
  784SOL    HW2 2352   1.543   0.614   2.700  2.1301  2.3276 -1.4458
  785SOL     OW 2353   2.280   0.302   1.235 -0.1031 -0.3558  0.5935
  785SOL    HW1 2354   2.265   0.400   1.230 -1.9428 -2.8184 -2.3727
  785SOL    HW2 2355   2.186   0.259   1.234 -1.8235  0.0635 -0.6724
  786SOL     OW 2356   1.324   2.766   2.000  0.4636  0.0308 -0.5850
  786SOL    HW1 2357   1.417   2.726   1.987  0.1020 -1.5395  0.3168
  786SOL    HW2 2358   1.245   2.702   1.995 -3.2012  0.4399 -1.0202
  787SOL     OW 2359   1.655   0.032   1.199  0.0181 -0.5115 -0.0232
  787SOL    HW1 2360   1.620   3.058   1.273 -0.8178 -2.1286 -1.3548
  787SOL    HW2 2361   1.684   0.125   1.229  2.8162  1.4510  0.7583
  788SOL     OW 2362   2.727   1.171   0.360 -0.1217 -0.6169  0.4931
  788SOL    HW1 2363   2.637   1.183   0.402  0.3379  0.3445 -1.4738
  788SOL    HW2 2364   2.800   1.175   0.433 -0.2266 -0.8880 -1.1719
  789SOL     OW 2365   0.510   2.044   1.533 -0.0395  0.4441  0.0381
  789SOL    HW1 2366   0.543   1.949   1.514  1.1757  0.1454 -0.1212
  789SOL    HW2 2367   0.445   2.045   1.617 -0.3383  1.4238  2.3295
  790SOL     OW 2368   0.645   0.584   2.277 -0.1113 -0.4070 -0.0954
  790SOL    HW1 2369   0.590   0.616   2.359 -1.7301 -0.7508 -0.2397
  790SOL    HW2 2370   0.593   0.608   2.196  2.1489 -0.1141 -0.2553
  791SOL     OW 2371   1.930   0.283   0.865 -0.8608  0.3933 -0.0142
  791SOL    HW1 2372   1.867   0.293   0.944  0.2328 -1.3172 -2.1061
  791SOL    HW2 2373   1.967   0.368   0.829 -1.7707 -2.1589  1.5606
  792SOL     OW 2374   1.206   2.910   1.784 -0.4159 -0.2915  0.3135
  792SOL    HW1 2375   1.237   3.006   1.788  1.0558 -2.2275 -2.3716
  792SOL    HW2 2376   1.245   2.849   1.858  1.7901 -1.4455 -1.0959
  793SOL     OW 2377   0.397   0.082   0.600 -0.1161  0.0696  0.5702
  793SOL    HW1 2378   0.452   0.166   0.605 -1.0989 -2.2528 -3.6246
  793SOL    HW2 2379   0.409   0.016   0.677  1.7068  0.8389  0.9399
  794SOL     OW 2380   0.166   1.049   1.700 -0.1748  0.2876  0.3834
  794SOL    HW1 2381   0.072   1.021   1.726 -0.1343 -0.0826 -1.3643
  794SOL    HW2 2382   0.189   1.011   1.607 -0.9636 -2.1837  1.3967
  795SOL     OW 2383   0.428   2.199   2.185  0.1765  0.3531  0.2865
  795SOL    HW1 2384   0.381   2.270   2.251 -0.7257  3.1974  1.0878
  795SOL    HW2 2385   0.516   2.174   2.226  0.9529 -1.2128  4.8166
  796SOL     OW 2386   2.459   0.774   2.189  0.6538 -0.1897  0.0423
  796SOL    HW1 2387   2.521   0.854   2.193 -0.7956 -1.0941  3.1181
  796SOL    HW2 2388   2.472   0.730   2.101 -0.9975 -0.3051 -1.0981
  797SOL     OW 2389   2.524   2.625   2.590  0.2707  0.1493 -0.8596
  797SOL    HW1 2390   2.453   2.617   2.662 -0.0354  2.7027  0.9142
  797SOL    HW2 2391   2.488   2.661   2.504  1.0391 -0.7981  0.7507
  798SOL     OW 2392   3.017   2.882   2.065  0.2495  0.2418  0.4000
  798SOL    HW1 2393   0.006   2.941   2.094  0.2024  0.4681 -1.7339
  798SOL    HW2 2394   3.027   2.854   1.966 -1.7052 -1.0175  1.5275
  799SOL     OW 2395   0.250   2.446   2.130 -0.7406  0.5153 -0.0001
  799SOL    HW1 2396   0.255   2.381   2.207 -2.0103  1.2975 -0.4497
  799SOL    HW2 2397   0.181   2.421   2.055  0.3734 -0.0978 -0.8576
  800SOL     OW 2398   0.008   1.909   0.049  0.6834 -0.5079 -0.0476
  800SOL    HW1 2399   3.085   2.006   0.018  1.4610  0.0346 -0.5205
  800SOL    HW2 2400   0.087   1.901   0.109  0.0425  1.4801  1.6242
  801SOL     OW 2401   1.694   1.269   1.379 -0.0273  0.0359  0.5728
  801SOL    HW1 2402   1.624   1.205   1.340 -0.7193 -3.2064 -3.1737
  801SOL    HW2 2403   1.675   1.291   1.477 -1.1821 -1.4050  0.1232
  802SOL     OW 2404   0.063   1.272   0.425  0.1027  0.4033 -0.4542
  802SOL    HW1 2405   0.089   1.250   0.522  2.6511  0.8103 -0.8604
  802SOL    HW2 2406   3.085   1.204   0.386  1.2209 -0.1389  2.3576
  803SOL     OW 2407   1.156   1.536   1.656  0.2170 -0.4967  0.5571
  803SOL    HW1 2408   1.056   1.567   1.648 -1.4589  0.8038 -1.9495
  803SOL    HW2 2409   1.220   1.578   1.588  0.6361  1.3687 -2.9073
  804SOL     OW 2410   2.013   1.490   0.969  0.4092  0.1567  0.1555
  804SOL    HW1 2411   2.049   1.433   1.044 -0.4446  0.9237 -2.6022
  804SOL    HW2 2412   2.087   1.530   0.905  3.5704 -1.1699 -3.0644
  805SOL     OW 2413   2.809   1.233   2.910 -0.6118 -0.1447  0.2519
  805SOL    HW1 2414   2.883   1.309   2.914  1.8248  2.0595  0.8936
  805SOL    HW2 2415   2.762   1.239   2.821 -2.2290 -1.1692  2.0096
  806SOL     OW 2416   0.282   2.572   0.113 -0.2348  0.2861 -0.2372
  806SOL    HW1 2417   0.304   2.531   0.022  0.0572  0.8506 -1.3137
  806SOL    HW2 2418   0.366   2.590   0.170  3.5089 -1.0282  0.5708
  807SOL     OW 2419   2.522   1.599   2.837 -0.1177  0.7951  0.0526
  807SOL    HW1 2420   2.521   1.526   2.909 -2.2767  0.7968  1.4342
  807SOL    HW2 2421   2.504   1.683   2.885 -0.4569 -2.7110 -1.4181
  808SOL     OW 2422   1.235   1.932   1.343  0.2343  0.5180  0.2014
  808SOL    HW1 2423   1.144   1.912   1.384 -3.5463  0.0987 -1.4695
  808SOL    HW2 2424   1.295   1.999   1.394 -1.2967 -2.9524  1.9628
  809SOL     OW 2425   2.781   0.821   0.448  0.0134 -0.1673  0.3713
  809SOL    HW1 2426   2.781   0.873   0.536 -0.8690  1.0954 -3.6949
  809SOL    HW2 2427   2.697   0.834   0.393  1.1190 -1.7430  1.3982
  810SOL     OW 2428   0.933   1.421   0.582 -0.6216  0.4827 -0.6990
  810SOL    HW1 2429   0.983   1.389   0.667  0.1931  2.6091  0.9898
  810SOL    HW2 2430   1.004   1.468   0.523 -2.5575 -1.5268  0.3334
  811SOL     OW 2431   1.712   2.527   1.321  0.7883 -0.3487  0.0269
  811SOL    HW1 2432   1.715   2.568   1.227  3.4614  2.1557 -0.4706
  811SOL    HW2 2433   1.800   2.538   1.373 -2.9588 -0.3969  0.2386
  812SOL     OW 2434   1.629   2.818   1.735  0.5688  0.5729 -0.1468
  812SOL    HW1 2435   1.702   2.755   1.703  1.4996 -0.8674  0.6792
  812SOL    HW2 2436   1.596   2.782   1.823  1.9454 -0.1152 -0.9196
  813SOL     OW 2437   0.779   2.937   1.769 -0.0175  0.1243  0.4115
  813SOL    HW1 2438   0.716   2.890   1.706  0.9354 -2.0049 -1.1567
  813SOL    HW2 2439   0.857   2.874   1.779 -1.3724  1.9269 -0.1044
  814SOL     OW 2440   0.976   2.707   2.321 -0.2833 -0.4201 -0.0619
  814SOL    HW1 2441   1.054   2.769   2.295  1.2148 -0.1436 -2.0874
  814SOL    HW2 2442   0.999   2.606   2.315  1.3158  1.4366 -1.2334
  815SOL     OW 2443   0.627   0.066   2.701  0.0813 -0.3777  0.7565
  815SOL    HW1 2444   0.661   3.077   2.637  0.5546 -1.1059  2.4966
  815SOL    HW2 2445   0.639   0.160   2.650 -0.7718  1.5027 -1.8861
  816SOL     OW 2446   2.235   0.641   2.799 -0.5778  0.5038  0.8573
  816SOL    HW1 2447   2.319   0.628   2.859 -0.8957  0.1592 -0.8329
  816SOL    HW2 2448   2.177   0.718   2.827  0.7108  1.6829  0.2602
  817SOL     OW 2449   2.346   2.769   1.774 -0.1288 -0.0418  0.6219
  817SOL    HW1 2450   2.378   2.695   1.712  0.6246 -0.4531 -0.2742
  817SOL    HW2 2451   2.428   2.814   1.815 -2.6814 -0.1512 -1.9336
  818SOL     OW 2452   1.128   0.714   0.203 -0.1924 -0.3701  0.4459
  818SOL    HW1 2453   1.049   0.735   0.141 -2.0545  0.8307  1.2507
  818SOL    HW2 2454   1.141   0.616   0.215 -0.6393  2.2964  0.8757
  819SOL     OW 2455   1.985   1.666   2.688 -0.8888  0.7379 -0.2152
  819SOL    HW1 2456   2.079   1.643   2.654 -2.0198  1.4567 -0.1946
  819SOL    HW2 2457   1.968   1.766   2.694 -2.0267 -0.9280 -0.6423
  820SOL     OW 2458   2.988   1.364   2.474 -0.1480 -0.3278 -0.0582
  820SOL    HW1 2459   3.025   1.338   2.567  0.8910 -1.6088  1.1159
  820SOL    HW2 2460   3.013   1.461   2.449  0.9325 -2.2481 -0.3754
  821SOL     OW 2461   0.093   2.674   0.806  0.7062 -0.0546  0.2073
  821SOL    HW1 2462   0.120   2.677   0.711 -3.2460 -0.7315  4.8974
  821SOL    HW2 2463   0.152   2.737   0.861 -0.9167 -1.4890  0.1360
  822SOL     OW 2464   2.231   2.571   3.042  1.0651 -0.4158 -0.2896
  822SOL    HW1 2465   2.259   2.489   2.992  0.5898  1.7097  0.2751
  822SOL    HW2 2466   2.302   2.644   3.030  0.4315  2.2046 -2.2552
  823SOL     OW 2467   1.573   0.041   2.277  0.6942  0.0264 -0.6329
  823SOL    HW1 2468   1.489   0.095   2.287 -1.1084  1.8180 -0.7360
  823SOL    HW2 2469   1.585   0.004   2.181 -1.2726  0.6916  0.5326
  824SOL     OW 2470   2.853   2.285   2.175 -0.4718 -0.3855 -0.3267
  824SOL    HW1 2471   2.927   2.354   2.193 -0.6669  2.2278 -1.5887
  824SOL    HW2 2472   2.771   2.304   2.239 -0.5901  0.0042  0.8521
  825SOL     OW 2473   3.079   2.335   2.450 -0.6069  0.1310  0.1171
  825SOL    HW1 2474   3.041   2.241   2.439  1.2191 -0.8116  0.6741
  825SOL    HW2 2475   3.065   2.382   2.366  0.8129 -4.5414  2.5065
  826SOL     OW 2476   1.917   0.810   2.672  0.2449  0.2342 -0.6845
  826SOL    HW1 2477   2.003   0.809   2.733  0.7478 -1.8079 -0.2377
  826SOL    HW2 2478   1.937   0.814   2.576 -0.4021  2.5791  2.2555
  827SOL     OW 2479   2.914   1.721   1.746  0.1838  0.0926 -0.0667
  827SOL    HW1 2480   2.876   1.813   1.760 -0.9243 -1.7889 -1.0110
  827SOL    HW2 2481   2.843   1.661   1.699 -0.7110  0.3973  1.7046
  828SOL     OW 2482   2.945   3.046   1.233  0.0975  0.0112  0.0965
  828SOL    HW1 2483   3.013   3.011   1.167 -0.2557  0.7607  0.2668
  828SOL    HW2 2484   2.982   0.046   1.263 -1.8603 -4.6114 -0.3549
  829SOL     OW 2485   1.073   1.923   2.746  0.2008  0.0935 -0.1185
  829SOL    HW1 2486   1.035   2.018   2.750 -1.4219  1.9498  0.5841
  829SOL    HW2 2487   1.009   1.855   2.712  2.0995 -0.1749 -1.1044
  830SOL     OW 2488   0.822   0.970   1.250  0.2139  0.0563 -0.1615
  830SOL    HW1 2489   0.908   1.023   1.260  2.0202  0.6126  1.5693
  830SOL    HW2 2490   0.744   1.026   1.285  0.0028 -2.2089  1.1080
  831SOL     OW 2491   2.699   1.914   2.717 -0.0982  0.3602  0.7205
  831SOL    HW1 2492   2.722   1.818   2.698  0.9957  1.2530 -2.1221
  831SOL    HW2 2493   2.759   1.941   2.791 -1.9759 -1.8530 -1.7717
  832SOL     OW 2494   1.927   2.535   2.558  0.2815  0.2072  0.2612
  832SOL    HW1 2495   2.021   2.502   2.530  1.5517  0.8410 -0.3354
  832SOL    HW2 2496   1.880   2.564   2.471  1.7873 -3.8255  0.1861
  833SOL     OW 2497   0.795   0.373   1.964  0.1911 -0.4352  0.1896
  833SOL    HW1 2498   0.816   0.394   1.865 -0.7513  2.3809 -1.2585
  833SOL    HW2 2499   0.844   0.436   2.024 -1.1559  0.9522  1.4541
  834SOL     OW 2500   3.065   0.278   1.236 -0.1843 -0.0724  0.2876
  834SOL    HW1 2501   2.996   0.303   1.304  2.1193 -1.3994 -5.6284
  834SOL    HW2 2502   3.077   0.355   1.173 -1.9759 -1.5203  0.1843
  835SOL     OW 2503   2.653   0.551   0.175  0.1906 -0.3631 -0.3363
  835SOL    HW1 2504   2.594   0.568   0.258 -1.8031  1.3887  0.4975
  835SOL    HW2 2505   2.754   0.550   0.195 -1.2651  1.7553 -1.6751
  836SOL     OW 2506   1.627   1.916   0.197 -0.4322  0.3148 -0.3244
  836SOL    HW1 2507   1.600   1.998   0.144 -0.2524 -0.6131 -0.9373
  836SOL    HW2 2508   1.555   1.884   0.260 -2.2011  0.5292 -0.1825
  837SOL     OW 2509   1.923   1.884   0.707  0.1930  0.1233 -0.2444
  837SOL    HW1 2510   2.017   1.854   0.691 -2.4728 -0.2421  3.4974
  837SOL    HW2 2511   1.910   1.984   0.703 -0.4154 -1.0994  1.7231
  838SOL     OW 2512   1.575   0.871   2.474  0.4961  0.4380  0.3977
  838SOL    HW1 2513   1.562   0.852   2.573  1.9824 -0.9899 -2.5895
  838SOL    HW2 2514   1.603   0.788   2.427 -0.7373  2.4457  1.1432
  839SOL     OW 2515   0.657   1.386   2.299 -0.0410 -0.3767 -0.7917
  839SOL    HW1 2516   0.573   1.353   2.352  0.3768  1.6148  3.5053
  839SOL    HW2 2517   0.738   1.390   2.362  2.2348  1.7803 -2.1070
  840SOL     OW 2518   1.180   1.584   0.534  0.1155 -0.2474 -0.3702
  840SOL    HW1 2519   1.191   1.685   0.535 -1.3003  2.0992 -1.3629
  840SOL    HW2 2520   1.254   1.537   0.585  2.0820 -0.1334  0.9320
  841SOL     OW 2521   1.537   2.316   0.846 -0.5880  0.4043  0.4179
  841SOL    HW1 2522   1.612   2.266   0.889 -2.0386  2.5156 -0.5439
  841SOL    HW2 2523   1.452   2.309   0.902  1.3437  1.4076 -0.1947
  842SOL     OW 2524   0.313   0.564   0.199  0.2785  0.1438  0.5075
  842SOL    HW1 2525   0.310   0.465   0.210  0.2392  1.9108 -0.4441
  842SOL    HW2 2526   0.405   0.599   0.161  3.5807 -0.5333 -0.9773
  843SOL     OW 2527   0.571   0.320   0.622  0.0608  0.4289  0.4626
  843SOL    HW1 2528   0.537   0.412   0.615 -0.0196 -2.7981  0.7420
  843SOL    HW2 2529   0.671   0.325   0.648  0.2361  3.4970  0.9800
  844SOL     OW 2530   2.506   3.033   2.595 -0.7428  0.3551 -0.5213
  844SOL    HW1 2531   2.574   2.963   2.626  1.4988 -0.6510  0.9884
  844SOL    HW2 2532   2.412   2.991   2.583 -0.9795 -2.3834  0.2414
  845SOL     OW 2533   2.924   2.414   1.805 -0.3767 -0.3107  0.1233
  845SOL    HW1 2534   2.833   2.421   1.850  1.7220  0.8228 -1.3615
  845SOL    HW2 2535   2.957   2.320   1.795 -0.3243 -0.2627 -0.8029
  846SOL     OW 2536   2.303   1.351   2.347 -0.1184  0.2360  1.2282
  846SOL    HW1 2537   2.332   1.424   2.277 -0.0688 -0.6587  0.6056
  846SOL    HW2 2538   2.211   1.376   2.383  2.4167 -1.1937 -1.5353
  847SOL     OW 2539   0.853   0.656   1.867 -0.0445  0.3084 -0.2157
  847SOL    HW1 2540   0.848   0.587   1.792  1.4649 -0.0907 -2.0155
  847SOL    HW2 2541   0.949   0.676   1.894 -1.2421 -0.8378 -1.4744
  848SOL     OW 2542   2.349   0.047   2.858 -0.5706  0.0807 -0.2026
  848SOL    HW1 2543   2.427   3.064   2.844 -2.3213 -3.4708  0.3069
  848SOL    HW2 2544   2.378   0.124   2.921  1.7000  2.6108 -0.8947
  849SOL     OW 2545   0.273   2.897   2.898 -0.2725  0.3149  0.0600
  849SOL    HW1 2546   0.252   2.931   2.803 -0.6150 -2.0445  1.3101
  849SOL    HW2 2547   0.258   2.796   2.902 -2.5250  1.4388 -2.0649
  850SOL     OW 2548   1.103   2.523   1.021 -0.0473  0.0859  0.0732
  850SOL    HW1 2549   1.179   2.498   1.084  0.6372 -1.8115 -1.9336
  850SOL    HW2 2550   1.061   2.441   0.981  2.5379  4.2084  1.3266
  851SOL     OW 2551   2.004   0.443   2.417  0.1747  0.0362  0.3769
  851SOL    HW1 2552   2.035   0.348   2.399 -3.2767 -0.4511 -0.5674
  851SOL    HW2 2553   2.037   0.469   2.512  0.8289 -0.4660 -0.6354
  852SOL     OW 2554   1.263   0.281   2.581  0.3632  0.4568  0.3098
  852SOL    HW1 2555   1.325   0.219   2.633  0.2938 -3.3614  1.4147
  852SOL    HW2 2556   1.191   0.315   2.640  1.1791 -0.0674 -0.5146
  853SOL     OW 2557   2.988   2.751   2.994 -0.5819  0.1209  0.2729
  853SOL    HW1 2558   3.039   2.726   3.078  0.4769  1.6462 -1.9072
  853SOL    HW2 2559   3.011   2.689   2.915  0.7102 -0.0246  1.0420
  854SOL     OW 2560   1.993   0.782   2.410 -0.7399 -0.3519 -0.4088
  854SOL    HW1 2561   2.094   0.760   2.411  1.9610  0.1298 -0.0038
  854SOL    HW2 2562   1.945   0.706   2.360 -2.1176  1.1798 -1.1857
  855SOL     OW 2563   0.531   2.571   0.226 -0.0214  0.2746 -0.0262
  855SOL    HW1 2564   0.534   2.648   0.291 -0.2776 -0.4584 -1.1201
  855SOL    HW2 2565   0.631   2.563   0.192  1.3594  0.1936  0.7161
  856SOL     OW 2566   0.213   0.117   2.357  0.1642 -0.2295 -0.2469
  856SOL    HW1 2567   0.292   0.053   2.365 -0.7433 -1.6448 -1.4959
  856SOL    HW2 2568   0.162   0.126   2.445  2.0429  0.8968  3.0311
  857SOL     OW 2569   0.969   3.066   1.195 -0.1291  0.6462  0.1132
  857SOL    HW1 2570   0.915   3.019   1.268 -0.4546  0.9358 -1.2080
  857SOL    HW2 2571   0.939   3.022   1.111  0.6748 -0.1511  0.7147
  858SOL     OW 2572   2.563   2.078   1.733 -0.1735 -0.1005  0.2097
  858SOL    HW1 2573   2.603   2.129   1.651  2.7638  0.5879 -2.2644
  858SOL    HW2 2574   2.513   2.139   1.798 -1.5614 -0.5250 -0.9280
  859SOL     OW 2575   1.846   2.254   2.015 -0.4455  0.0870  0.3615
  859SOL    HW1 2576   1.746   2.239   2.015  1.5224  0.1267 -0.9817
  859SOL    HW2 2577   1.867   2.313   2.098 -0.8037  1.6194  1.9077
  860SOL     OW 2578   1.813   0.105   0.355  0.1800 -0.6012 -0.0407
  860SOL    HW1 2579   1.877   0.132   0.281 -0.2579  2.2422  0.0284
  860SOL    HW2 2580   1.832   0.144   0.452  0.6338  0.3025  0.6345
  861SOL     OW 2581   2.557   0.285   0.549  0.3304 -0.0508 -0.7893
  861SOL    HW1 2582   2.643   0.259   0.597  0.3524  1.3693  0.9578
  861SOL    HW2 2583   2.473   0.262   0.600  0.8084  0.2794 -2.7051
  862SOL     OW 2584   0.875   2.775   2.673 -0.2074 -0.1429  0.2028
  862SOL    HW1 2585   0.937   2.850   2.709  2.5402  4.0717  2.5612
  862SOL    HW2 2586   0.924   2.696   2.633 -0.5271  2.6492  2.0095
  863SOL     OW 2587   0.654   0.511   1.328  0.5816 -0.6670  0.6872
  863SOL    HW1 2588   0.612   0.489   1.418  0.1600  0.1097 -3.2726
  863SOL    HW2 2589   0.600   0.476   1.249  1.6580  1.6226  1.3166
  864SOL     OW 2590   2.894   0.022   1.595  0.5914 -0.2761 -0.2259
  864SOL    HW1 2591   2.991   0.053   1.573 -3.9339  1.1564 -0.3922
  864SOL    HW2 2592   2.900   3.026   1.661 -2.1636 -0.8170  1.1871
  865SOL     OW 2593   0.730   1.444   2.784  0.0722  0.3541 -0.6960
  865SOL    HW1 2594   0.825   1.423   2.821  2.0578  1.0501 -0.5619
  865SOL    HW2 2595   0.734   1.535   2.737  0.3704 -0.4196 -0.0854
  866SOL     OW 2596   2.822   0.193   2.978  0.0898  0.2101 -0.6142
  866SOL    HW1 2597   2.862   0.184   3.070  2.2302  1.8392  2.0300
  866SOL    HW2 2598   2.822   0.104   2.936  0.1619 -0.3329  0.6997
  867SOL     OW 2599   2.552   2.948   2.922 -0.0720  0.1990 -0.1611
  867SOL    HW1 2600   2.611   2.973   2.999 -2.1653 -0.7892  0.0326
  867SOL    HW2 2601   2.597   2.892   2.851 -0.6161 -1.1954  2.3665
  868SOL     OW 2602   1.358   0.848   0.249  0.2542  0.6397  0.2452
  868SOL    HW1 2603   1.273   0.794   0.228 -0.8072 -1.5491 -2.9330
  868SOL    HW2 2604   1.436   0.839   0.186 -2.6011  0.3178  0.1387
  869SOL     OW 2605   2.642   1.413   0.672  0.5875 -0.1335  0.4133
  869SOL    HW1 2606   2.652   1.515   0.674  0.5963 -1.6722  0.6971
  869SOL    HW2 2607   2.726   1.365   0.642 -0.4331  0.5582 -1.3201
  870SOL     OW 2608   2.391   1.624   0.572 -0.6781  0.2910 -0.0960
  870SOL    HW1 2609   2.417   1.625   0.474 -2.0687 -1.0185 -2.0988
  870SOL    HW2 2610   2.346   1.535   0.592  3.0283  1.4807 -0.1649
  871SOL     OW 2611   1.327   1.110   0.629 -0.1014 -0.1659 -0.7460
  871SOL    HW1 2612   1.261   1.031   0.609 -1.4898 -0.3484  0.9530
  871SOL    HW2 2613   1.273   1.191   0.658 -1.0474  1.4594  0.5090
  872SOL     OW 2614   1.346   1.822   1.665  0.0678 -0.0910 -0.3738
  872SOL    HW1 2615   1.340   1.775   1.577  1.0654 -2.4375  0.6426
  872SOL    HW2 2616   1.355   1.758   1.745  2.0018 -1.7816  2.6386
  873SOL     OW 2617   0.921   1.782   2.228  0.0135 -0.6547  0.7320
  873SOL    HW1 2618   0.925   1.695   2.282  0.8361  2.7850 -1.8330
  873SOL    HW2 2619   0.993   1.771   2.151  1.1252  1.1391 -1.5725
  874SOL     OW 2620   1.008   2.035   1.048 -0.5722  0.2966 -0.2249
  874SOL    HW1 2621   1.067   2.110   1.009  2.8034  2.5398 -0.7988
  874SOL    HW2 2622   1.053   2.001   1.133  1.1045  0.0071 -0.0739
  875SOL     OW 2623   2.025   0.208   1.258  0.4569  0.0507 -0.5281
  875SOL    HW1 2624   1.946   0.267   1.235  0.3082 -0.3451 -0.7395
  875SOL    HW2 2625   1.994   0.112   1.254 -0.1480 -0.3796  1.0938
  876SOL     OW 2626   0.752   0.536   0.270 -0.0987  0.3991 -0.5859
  876SOL    HW1 2627   0.724   0.604   0.346 -0.2170  2.4712  0.6898
  876SOL    HW2 2628   0.795   0.456   0.317  1.4689 -0.2589  0.1229
  877SOL     OW 2629   2.866   0.416   1.362  0.4363 -0.4268  0.4247
  877SOL    HW1 2630   2.806   0.365   1.291 -1.1351 -2.3469  1.4692
  877SOL    HW2 2631   2.826   0.507   1.390  1.3303  1.1845 -2.1558
  878SOL     OW 2632   2.080   2.306   0.337  0.0417 -0.2918  0.4077
  878SOL    HW1 2633   2.048   2.379   0.282  2.3412 -1.4743 -0.1291
  878SOL    HW2 2634   2.155   2.261   0.286 -1.3237  0.6746 -1.4197
  879SOL     OW 2635   2.767   1.555   1.564  0.0438 -0.2575 -0.5380
  879SOL    HW1 2636   2.674   1.542   1.532  0.5439 -0.0310 -0.2081
  879SOL    HW2 2637   2.787   1.485   1.640  0.4853 -1.7379  2.3948
  880SOL     OW 2638   1.426   2.785   1.367  0.2774 -0.1325 -0.2734
  880SOL    HW1 2639   1.423   2.764   1.266 -0.5371 -1.3296  0.2950
  880SOL    HW2 2640   1.342   2.826   1.412  2.6370 -2.5644  0.0588
  881SOL     OW 2641   1.118   2.243   0.076 -0.3233 -0.9022  0.0536
  881SOL    HW1 2642   1.020   2.237   0.106 -1.0858  1.1048 -3.5493
  881SOL    HW2 2643   1.179   2.189   0.141 -0.2227 -2.6830  0.4095
  882SOL     OW 2644   1.762   0.762   1.559  0.0039 -0.2943 -0.5870
  882SOL    HW1 2645   1.777   0.785   1.661 -1.4278 -0.1515  2.1799
  882SOL    HW2 2646   1.661   0.749   1.540  1.2331  1.9081  0.7316
  883SOL     OW 2647   1.103   0.313   2.361 -0.1264  0.5019 -0.0428
  883SOL    HW1 2648   1.157   0.322   2.447 -2.0195 -1.8872 -1.8943
  883SOL    HW2 2649   1.018   0.257   2.376 -1.1857 -0.8126 -0.2128
  884SOL     OW 2650   2.911   0.564   0.239  0.7050  0.0296 -0.4120
  884SOL    HW1 2651   2.916   0.571   0.337  0.9640  0.2864 -2.7592
  884SOL    HW2 2652   2.998   0.592   0.197 -0.1141  1.4332 -1.4082
  885SOL     OW 2653   0.965   1.477   0.008  0.1359  0.2126  0.2769
  885SOL    HW1 2654   0.926   1.520   3.008 -4.1016  3.5152 -0.3783
  885SOL    HW2 2655   1.068   1.483   0.017  2.8556  1.6958  3.8278
  886SOL     OW 2656   1.746   1.548   2.695 -0.3400 -0.5721  0.5607
  886SOL    HW1 2657   1.696   1.608   2.631 -0.6465 -1.1863  0.4383
  886SOL    HW2 2658   1.850   1.561   2.688  0.7209  1.7170  0.6231
  887SOL     OW 2659   1.328   0.593   1.773 -0.2085 -0.4044  0.0812
  887SOL    HW1 2660   1.259   0.605   1.695 -1.0149  0.8825  0.1159
  887SOL    HW2 2661   1.389   0.509   1.750  0.6789 -1.6731 -0.5461
  888SOL     OW 2662   2.877   0.475   1.858  0.1251  0.1676  0.1997
  888SOL    HW1 2663   2.877   0.575   1.873 -1.8973  1.1188 -1.3987
  888SOL    HW2 2664   2.898   0.456   1.763  0.6427  0.4134  1.8592
  889SOL     OW 2665   2.976   2.528   0.898 -0.0425 -0.1210 -1.0902
  889SOL    HW1 2666   2.889   2.563   0.854  3.1463 -1.3128 -1.4731
  889SOL    HW2 2667   3.056   2.577   0.860 -2.8278  0.2413  0.5418
  890SOL     OW 2668   2.623   2.747   0.207 -0.3010  0.2769 -0.4516
  890SOL    HW1 2669   2.645   2.740   0.305  2.5766  0.7987 -2.7578
  890SOL    HW2 2670   2.530   2.715   0.183 -0.3705  1.0818  1.8139
  891SOL     OW 2671   0.959   1.610   2.855  0.2030  0.0599  0.1321
  891SOL    HW1 2672   1.060   1.609   2.861 -0.7382 -0.1013 -0.0732
  891SOL    HW2 2673   0.933   1.673   2.777 -1.2705 -1.0340 -1.6336
  892SOL     OW 2674   2.923   2.973   0.883  0.0868 -0.1664 -0.2278
  892SOL    HW1 2675   2.904   2.928   0.790 -2.6102  0.8645 -1.7835
  892SOL    HW2 2676   2.831   2.996   0.924 -0.6354 -1.5606  1.5791
  893SOL     OW 2677   0.641   3.027   1.046  0.0028  0.3357 -0.0038
  893SOL    HW1 2678   0.648   0.027   1.102 -2.4579 -1.8671 -0.5030
  893SOL    HW2 2679   0.735   2.991   1.019  1.7493 -2.3571 -0.0635
  894SOL     OW 2680   2.844   1.229   0.635 -0.4199  0.0914  0.4149
  894SOL    HW1 2681   2.840   1.127   0.646 -0.8351 -1.3667 -1.0325
  894SOL    HW2 2682   2.898   1.283   0.698 -1.7648 -2.2781  0.6291
  895SOL     OW 2683   2.679   2.673   1.871  0.0406 -0.1912  0.1332
  895SOL    HW1 2684   2.650   2.763   1.903 -1.0403  0.1072 -0.5590
  895SOL    HW2 2685   2.723   2.683   1.786  1.1993  1.6579 -1.3779
  896SOL     OW 2686   1.028   0.007   1.610  0.1424  0.5602 -0.0763
  896SOL    HW1 2687   1.005   0.027   1.708 -0.5696 -0.5835 -2.9912
  896SOL    HW2 2688   1.115   3.031   1.606  1.3742 -1.9429 -0.0138
  897SOL     OW 2689   0.891   1.657   1.716  0.3664  0.7485  0.3894
  897SOL    HW1 2690   0.877   1.689   1.620  1.2503  1.1270  1.6450
  897SOL    HW2 2691   0.882   1.734   1.782 -2.2759 -1.1884  1.5683
  898SOL     OW 2692   1.589   2.649   1.984  0.6039  0.1638  0.5560
  898SOL    HW1 2693   1.625   2.586   1.910  0.3110  0.7635 -2.7213
  898SOL    HW2 2694   1.661   2.711   2.012 -2.3077 -1.1660  3.7488
  899SOL     OW 2695   0.838   0.403   0.645 -0.5879  0.8843 -0.1155
  899SOL    HW1 2696   0.877   0.364   0.559 -0.0811 -1.8840  0.0648
  899SOL    HW2 2697   0.884   0.487   0.665  1.7707 -2.2772 -3.4016
  900SOL     OW 2698   1.885   2.431   2.234 -0.3573 -0.0845  0.0920
  900SOL    HW1 2699   1.852   2.521   2.268  0.9469 -1.3147 -0.9386
  900SOL    HW2 2700   1.840   2.350   2.277 -0.6361 -1.5297 -1.5343
  901SOL     OW 2701   0.917   2.177   2.797 -0.1346  0.2487  0.5828
  901SOL    HW1 2702   0.991   2.232   2.748  1.1762 -1.9883  1.0818
  901SOL    HW2 2703   0.892   2.217   2.887  1.3922 -0.2244  0.7338
  902SOL     OW 2704   1.893   1.122   0.358 -0.0452 -0.5438  0.2589
  902SOL    HW1 2705   1.990   1.091   0.373  0.0117 -2.5149  2.4584
  902SOL    HW2 2706   1.868   1.200   0.423 -1.2019 -0.5737  1.9303
  903SOL     OW 2707   1.722   0.740   0.532  0.0991  0.2871  0.8967
  903SOL    HW1 2708   1.764   0.793   0.459 -2.5292 -0.7559 -0.3390
  903SOL    HW2 2709   1.619   0.742   0.536 -2.7693 -0.6041 -2.2589
  904SOL     OW 2710   0.760   0.978   2.773 -0.2357 -0.0108 -0.1376
  904SOL    HW1 2711   0.771   1.040   2.689  0.0423  3.5085 -0.1449
  904SOL    HW2 2712   0.836   0.912   2.764  0.1918  2.1915 -3.1715
  905SOL     OW 2713   2.090   0.072   0.926  0.1760 -0.6913 -1.3857
  905SOL    HW1 2714   2.099   0.064   1.027 -3.7390  0.7476  0.4507
  905SOL    HW2 2715   2.019   0.140   0.891 -1.8210  0.9384 -0.1012
  906SOL     OW 2716   3.077   2.310   1.192 -0.2772  0.5358 -0.4876
  906SOL    HW1 2717   3.078   2.206   1.193  4.5679  0.3125 -1.7076
  906SOL    HW2 2718   2.983   2.345   1.201  2.9898  1.2230 -0.2446
  907SOL     OW 2719   0.896   0.686   0.069  0.5280  0.0060 -0.4820
  907SOL    HW1 2720   0.833   0.613   0.109  0.5249 -1.0375 -0.5585
  907SOL    HW2 2721   0.847   0.774   0.072  2.0938 -1.1064 -1.1322
  908SOL     OW 2722   2.164   2.678   0.936 -0.3455  0.7157 -0.3722
  908SOL    HW1 2723   2.157   2.719   1.029 -0.8237  1.0621 -2.6134
  908SOL    HW2 2724   2.191   2.752   0.874  2.4472 -0.2569 -0.6552
  909SOL     OW 2725   2.299   1.055   1.311 -0.3437 -0.3233  0.3257
  909SOL    HW1 2726   2.372   1.011   1.255  2.1447 -0.9443  0.6875
  909SOL    HW2 2727   2.208   1.038   1.273 -1.6219 -2.0032 -0.9916
  910SOL     OW 2728   1.285   2.998   2.128 -0.1527  1.1318 -0.8996
  910SOL    HW1 2729   1.283   2.905   2.074  0.0657 -2.2908 -2.0635
  910SOL    HW2 2730   1.282   3.082   2.073  1.0378  0.0175  1.4196
  911SOL     OW 2731   2.769   0.548   2.233 -0.5064 -0.2560  0.6855
  911SOL    HW1 2732   2.734   0.563   2.138 -1.3537 -1.1915 -1.0637
  911SOL    HW2 2733   2.740   0.459   2.269  0.8428  2.4220 -3.3647
  912SOL     OW 2734   0.203   1.022   1.406  0.4468  0.1742 -0.0464
  912SOL    HW1 2735   0.107   1.036   1.377 -1.0623 -0.2817 -4.2090
  912SOL    HW2 2736   0.245   1.109   1.429 -1.9048 -3.0343 -0.7674
  913SOL     OW 2737   2.727   2.204   1.524  0.1161  0.0450  0.4025
  913SOL    HW1 2738   2.811   2.221   1.581  2.3092  0.7532  0.7126
  913SOL    HW2 2739   2.752   2.162   1.435  0.5440  0.8716 -0.9354
  914SOL     OW 2740   1.498   0.710   1.465 -0.2401  1.2860  0.1065
  914SOL    HW1 2741   1.442   0.651   1.399 -1.8812  0.1431 -2.0520
  914SOL    HW2 2742   1.458   0.800   1.477  0.1521  0.1991  3.5455
  915SOL     OW 2743   1.687   0.268   1.379  0.1108  0.0457 -0.5542
  915SOL    HW1 2744   1.752   0.245   1.455  2.7116 -0.9142 -0.2658
  915SOL    HW2 2745   1.660   0.367   1.387  1.9650  1.2129 -0.8731
  916SOL     OW 2746   2.754   2.577   1.231 -0.6752  0.6162  0.0690
  916SOL    HW1 2747   2.789   2.507   1.164  0.2448  0.8797 -0.3105
  916SOL    HW2 2748   2.701   2.525   1.305  0.7103 -1.1598 -0.3467
  917SOL     OW 2749   2.307   1.925   0.226  0.5206  0.2379 -0.3715
  917SOL    HW1 2750   2.315   2.025   0.202  0.6352 -0.0118 -0.0229
  917SOL    HW2 2751   2.231   1.912   0.292  1.8640  0.4958 -1.9465
  918SOL     OW 2752   1.925   2.884   2.659  0.5021 -0.9511 -0.4876
  918SOL    HW1 2753   1.964   2.980   2.672  0.1418 -0.8168 -0.2093
  918SOL    HW2 2754   1.988   2.813   2.691 -1.2779 -0.9225 -1.5594
  919SOL     OW 2755   1.264   2.398   1.483  0.0085  0.7997  0.2213
  919SOL    HW1 2756   1.261   2.313   1.534  1.1804  2.2391 -0.1816
  919SOL    HW2 2757   1.351   2.448   1.496  0.7756 -1.9951 -2.3399
  920SOL     OW 2758   2.882   0.149   2.299  0.4185  0.3393 -0.1896
  920SOL    HW1 2759   2.920   0.140   2.393 -2.9947 -1.4907 -0.9858
  920SOL    HW2 2760   2.955   0.176   2.233  0.4325  2.0308 -1.1559
  921SOL     OW 2761   2.957   0.794   1.635 -0.4057 -0.6615 -0.1239
  921SOL    HW1 2762   2.954   0.843   1.725 -0.5572  2.0006  3.2898
  921SOL    HW2 2763   3.050   0.751   1.622  0.1013 -0.8130  0.2464
  922SOL     OW 2764   2.073   1.900   0.392 -0.3597 -0.3225 -0.7946
  922SOL    HW1 2765   2.118   1.874   0.484  2.9545  0.8945  0.3488
  922SOL    HW2 2766   2.015   1.984   0.408 -1.6744 -0.7088  1.4125
  923SOL     OW 2767   0.885   1.791   0.012  0.2210 -0.4211 -0.2885
  923SOL    HW1 2768   0.886   1.705   3.044 -0.0485  0.8976 -1.0104
  923SOL    HW2 2769   0.829   1.860   3.048  1.2742 -2.2043 -1.0071
  924SOL     OW 2770   0.906   0.329   0.380 -0.4106 -0.0987  0.9455
  924SOL    HW1 2771   0.916   0.230   0.398  1.6636 -1.0477  1.7333
  924SOL    HW2 2772   0.997   0.376   0.361  3.1677 -0.8369 -1.9123
  925SOL     OW 2773   2.389   0.313   0.833 -0.0023  0.2389 -0.9392
  925SOL    HW1 2774   2.322   0.376   0.882 -2.1770  2.1757  0.5666
  925SOL    HW2 2775   2.381   0.213   0.864  1.0865  0.6039  0.3535
  926SOL     OW 2776   0.328   0.439   1.208 -0.2372  0.1123  0.0146
  926SOL    HW1 2777   0.324   0.498   1.125 -0.5940 -0.8497 -2.5908
  926SOL    HW2 2778   0.312   0.346   1.174 -1.8562 -0.4942  1.3314
  927SOL     OW 2779   0.075   1.241   2.685 -0.0315  0.3614  0.3250
  927SOL    HW1 2780   0.143   1.265   2.756  0.4260 -0.6000  0.8112
  927SOL    HW2 2781   0.012   1.177   2.729 -0.6645  0.6681  0.6565
  928SOL     OW 2782   2.820   0.700   2.942 -0.8861 -0.0016 -0.3636
  928SOL    HW1 2783   2.717   0.713   2.953 -2.4671  0.6247  2.8913
  928SOL    HW2 2784   2.854   0.606   2.911  0.1889 -1.7481 -1.5884
  929SOL     OW 2785   2.485   0.126   1.321  0.2576 -0.4060 -0.0456
  929SOL    HW1 2786   2.417   0.195   1.282  0.9714  2.1306  1.0743
  929SOL    HW2 2787   2.440   0.057   1.383  1.1758 -1.3960  1.1626
  930SOL     OW 2788   1.952   1.097   1.613 -0.4054  0.4529 -0.4824
  930SOL    HW1 2789   1.876   1.074   1.674  2.5791 -0.2950  0.7525
  930SOL    HW2 2790   1.966   1.037   1.535  1.2328  1.4973  2.0054
  931SOL     OW 2791   2.184   1.286   0.357 -0.5340 -0.1436 -0.1373
  931SOL    HW1 2792   2.188   1.188   0.336  1.2409 -1.3838  0.0673
  931SOL    HW2 2793   2.219   1.343   0.280 -1.6898 -0.1103 -1.5308
  932SOL     OW 2794   2.759   1.223   0.953 -0.0794 -0.2412 -0.3058
  932SOL    HW1 2795   2.694   1.189   0.878 -4.1745 -0.8603  0.9636
  932SOL    HW2 2796   2.797   1.147   1.008 -4.0964 -0.6635 -0.0828
  933SOL     OW 2797   2.782   1.591   1.139 -0.3696 -0.3634 -0.0812
  933SOL    HW1 2798   2.843   1.613   1.218 -2.0042  1.3019  0.9157
  933SOL    HW2 2799   2.684   1.601   1.166  1.7994  1.1235  1.0109
  934SOL     OW 2800   1.851   0.607   2.272 -0.2240 -0.9418  0.1069
  934SOL    HW1 2801   1.764   0.593   2.321  0.2981 -0.4743 -0.2504
  934SOL    HW2 2802   1.919   0.545   2.316  1.0712  2.3142  1.0825
  935SOL     OW 2803   0.255   1.790   0.612  0.2892 -0.2895  0.5411
  935SOL    HW1 2804   0.171   1.770   0.674  0.2012  0.3845  0.7233
  935SOL    HW2 2805   0.304   1.876   0.634 -0.8025 -0.7958 -0.7312
  936SOL     OW 2806   0.278   0.724   0.707  0.0870  0.7523  0.0196
  936SOL    HW1 2807   0.233   0.686   0.624 -0.9968 -0.5293  2.8734
  936SOL    HW2 2808   0.292   0.824   0.702 -0.4457 -0.6798  0.1786
  937SOL     OW 2809   2.415   2.927   1.133  0.4853  0.3775 -0.5481
  937SOL    HW1 2810   2.471   2.841   1.119 -0.2813  1.2097 -2.2578
  937SOL    HW2 2811   2.414   2.948   1.233 -1.1102  0.5292 -1.3788
  938SOL     OW 2812   2.892   2.297   0.427  0.0019 -0.0550  0.0875
  938SOL    HW1 2813   2.964   2.367   0.446  0.5566  3.0177  0.8400
  938SOL    HW2 2814   2.807   2.349   0.422 -0.4501  0.6863 -1.3772
  939SOL     OW 2815   0.958   1.995   0.380 -0.0598 -0.3111  0.1918
  939SOL    HW1 2816   0.950   1.909   0.327  2.4846  0.9875 -0.3584
  939SOL    HW2 2817   0.910   1.993   0.468 -0.1440 -0.2412  0.7582
  940SOL     OW 2818   2.892   0.438   2.845 -0.0954  0.2013 -0.1107
  940SOL    HW1 2819   2.872   0.356   2.905  0.7921 -1.8892  1.6766
  940SOL    HW2 2820   2.868   0.421   2.744 -2.3363  0.3311 -1.4600
  941SOL     OW 2821   1.034   0.239   2.991  0.5900 -0.2938 -0.0010
  941SOL    HW1 2822   0.936   0.209   2.995 -0.2097 -2.0370  1.1134
  941SOL    HW2 2823   1.089   0.189   3.063 -0.6937  2.0002 -2.4089
  942SOL     OW 2824   1.090   0.962   1.371  0.0695 -0.5825 -0.1019
  942SOL    HW1 2825   1.120   0.972   1.471  1.1537  2.4627  0.9306
  942SOL    HW2 2826   1.009   0.897   1.365 -1.5713 -2.0571 -0.1665
  943SOL     OW 2827   1.433   0.955   1.992 -0.2461  0.4711  0.1242
  943SOL    HW1 2828   1.439   0.936   1.890  0.4534  0.9082  0.4601
  943SOL    HW2 2829   1.336   0.943   2.030  3.2528 -0.4488 -1.9404
  944SOL     OW 2830   1.753   1.065   1.811  0.0695  0.0570 -0.3046
  944SOL    HW1 2831   1.762   0.964   1.813 -0.5299 -0.4929 -0.8829
  944SOL    HW2 2832   1.705   1.088   1.898  0.1404 -0.8925 -2.6392
  945SOL     OW 2833   2.972   0.089   0.095  0.0562 -0.1280 -0.0117
  945SOL    HW1 2834   3.042   0.025   0.139  1.0618 -0.3174 -1.6463
  945SOL    HW2 2835   3.014   0.183   0.093  2.0755  0.6032  1.1538
  946SOL     OW 2836   2.877   0.729   1.936 -0.0453  0.2712  0.1795
  946SOL    HW1 2837   2.916   0.800   1.994 -1.0007 -0.0225  2.2953
  946SOL    HW2 2838   2.787   0.770   1.906  0.2133  0.7937  0.7837
  947SOL     OW 2839   0.455   2.790   0.408 -0.2433  0.4812 -0.6063
  947SOL    HW1 2840   0.558   2.784   0.415  1.3686 -0.9115  1.1545
  947SOL    HW2 2841   0.423   2.884   0.392 -3.2331  0.5137 -0.4033
  948SOL     OW 2842   2.421   1.272   1.442 -0.2645 -0.5785  0.0007
  948SOL    HW1 2843   2.433   1.258   1.542 -2.1461 -1.3964  1.1468
  948SOL    HW2 2844   2.383   1.185   1.406  1.1156  0.3285 -0.5524
  949SOL     OW 2845   0.537   0.935   2.310 -0.5656  0.5120 -0.2041
  949SOL    HW1 2846   0.530   0.953   2.213  1.4859 -0.1473  3.2400
  949SOL    HW2 2847   0.457   0.883   2.342 -0.5077  1.3371 -0.6864
  950SOL     OW 2848   0.495   3.018   0.820 -0.9194  0.1730  0.0977
  950SOL    HW1 2849   0.545   3.017   0.909 -1.1246  4.9301 -1.3926
  950SOL    HW2 2850   0.550   2.956   0.760 -1.7717 -2.4594  1.0835
  951SOL     OW 2851   0.897   1.362   2.433  0.0373 -0.2067  0.4060
  951SOL    HW1 2852   0.956   1.324   2.357 -0.3511  0.2871  0.5283
  951SOL    HW2 2853   0.886   1.282   2.489 -0.8177 -0.4340 -1.9880
  952SOL     OW 2854   0.785   1.446   0.206  0.5072 -0.4027  0.2558
  952SOL    HW1 2855   0.857   1.460   0.139 -3.9480 -0.4395  0.2060
  952SOL    HW2 2856   0.761   1.350   0.217 -1.1077 -1.2589  0.0849
  953SOL     OW 2857   2.524   0.220   2.538 -0.1027  0.4304  0.2525
  953SOL    HW1 2858   2.447   0.272   2.575  2.8270  2.7455 -1.1911
  953SOL    HW2 2859   2.523   0.123   2.560  0.1876  1.8846 -1.0596
  954SOL     OW 2860   1.551   1.178   0.898  0.2339  0.2457 -0.3553
  954SOL    HW1 2861   1.616   1.124   0.959  0.7776  0.8437  3.5108
  954SOL    HW2 2862   1.588   1.270   0.875 -1.5530  0.2227 -0.6843
  955SOL     OW 2863   0.424   1.995   2.649 -0.1275  0.3299  0.2402
  955SOL    HW1 2864   0.509   1.959   2.693 -1.4369 -0.4702 -0.8546
  955SOL    HW2 2865   0.380   2.070   2.704 -1.0507 -1.4992  2.6595
  956SOL     OW 2866   1.709   0.493   2.040 -0.2662 -0.0942  0.6281
  956SOL    HW1 2867   1.767   0.522   2.115 -1.9683 -0.3333 -0.6040
  956SOL    HW2 2868   1.633   0.559   2.018 -1.1433 -2.3714  1.4536
  957SOL     OW 2869   2.089   2.114   2.719 -0.1278 -0.5010 -0.1604
  957SOL    HW1 2870   2.178   2.081   2.676 -0.5082 -0.5346 -1.4618
  957SOL    HW2 2871   2.104   2.181   2.792 -1.3696  0.1377  0.1281
  958SOL     OW 2872   1.304   1.628   1.422  0.0899  0.2912  0.0992
  958SOL    HW1 2873   1.384   1.574   1.389 -0.6124  0.0126  0.2871
  958SOL    HW2 2874   1.242   1.657   1.348  1.5771 -1.3764  3.4443
  959SOL     OW 2875   2.316   2.314   2.894  0.2144  0.3284 -0.0697
  959SOL    HW1 2876   2.414   2.279   2.889  0.6344  1.0516 -0.2511
  959SOL    HW2 2877   2.256   2.245   2.944  0.8351 -1.9354  1.1466
  960SOL     OW 2878   0.013   0.713   2.523 -0.1141  0.2642 -0.1122
  960SOL    HW1 2879   0.082   0.791   2.520  0.0545  0.2200 -3.3181
  960SOL    HW2 2880   3.008   0.749   2.557 -0.6850  1.4255 -1.6252
  961SOL     OW 2881   0.741   0.922   2.484  0.5097  0.6124 -0.5585
  961SOL    HW1 2882   0.714   0.841   2.538  1.3716  1.1823  2.3123
  961SOL    HW2 2883   0.663   0.943   2.420 -1.6138  0.0285 -1.4085
  962SOL     OW 2884   1.007   1.306   2.774  0.1375 -0.5797  0.4761
  962SOL    HW1 2885   1.071   1.288   2.850 -1.0756  2.8679 -2.0300
  962SOL    HW2 2886   0.998   1.225   2.716  2.0060 -1.3799  1.1148
  963SOL     OW 2887   2.589   2.334   0.362  0.2783  0.2127  0.2794
  963SOL    HW1 2888   2.532   2.399   0.417 -0.2326  0.0296  0.8907
  963SOL    HW2 2889   2.556   2.239   0.379 -1.0213 -1.5015  1.8785
  964SOL     OW 2890   0.942   2.452   1.440  0.1641 -0.1896  0.1850
  964SOL    HW1 2891   1.037   2.417   1.456  3.6140  0.5888  0.3806
  964SOL    HW2 2892   0.934   2.553   1.428 -2.0968 -0.2157 -0.8536
  965SOL     OW 2893   1.490   1.522   0.371  0.3050  0.0766 -0.0109
  965SOL    HW1 2894   1.592   1.543   0.370 -0.1775 -0.5979  0.2235
  965SOL    HW2 2895   1.456   1.480   0.460 -0.2710 -0.8383  1.1447
  966SOL     OW 2896   0.189   1.723   0.352  0.1891  0.2459 -0.9124
  966SOL    HW1 2897   0.208   1.730   0.452  1.6010  0.2631  0.8247
  966SOL    HW2 2898   0.111   1.658   0.327 -0.2966 -0.2934 -3.0622
  967SOL     OW 2899   1.909   0.129   2.101  0.0817  0.4776  0.2106
  967SOL    HW1 2900   1.988   0.182   2.120 -2.6430  0.9122 -0.4398
  967SOL    HW2 2901   1.866   0.095   2.187  1.9153  0.1677 -0.3747
  968SOL     OW 2902   1.740   0.446   0.490  0.1350 -0.0174  0.4446
  968SOL    HW1 2903   1.732   0.537   0.533 -1.1983  0.6274 -0.3789
  968SOL    HW2 2904   1.655   0.409   0.443 -2.9141  2.0190 -0.9795
  969SOL     OW 2905   0.180   1.271   2.400  0.1631 -0.1225 -0.0039
  969SOL    HW1 2906   0.117   1.274   2.318  0.7189  0.0944  0.0370
  969SOL    HW2 2907   0.126   1.280   2.491 -1.6456 -0.7594  3.4291
  970SOL     OW 2908   2.527   1.590   1.214 -0.4656 -0.2632  0.1632
  970SOL    HW1 2909   2.445   1.634   1.190  2.1045 -2.1808  1.8415
  970SOL    HW2 2910   2.533   1.586   1.312  1.0155 -1.0899 -1.5411
  971SOL     OW 2911   0.064   2.946   1.072 -0.0297  0.1855 -0.0101
  971SOL    HW1 2912   0.062   2.845   1.093  2.1756  1.2840 -0.2805
  971SOL    HW2 2913   0.009   2.965   0.989 -0.1905  0.6168  0.2223
  972SOL     OW 2914   0.336   0.811   2.651 -0.0479 -0.2868  0.5438
  972SOL    HW1 2915   0.406   0.852   2.712 -3.4605  0.7807 -1.9866
  972SOL    HW2 2916   0.245   0.832   2.688 -0.8240  2.3052 -0.6445
  973SOL     OW 2917   0.301   0.377   0.783 -0.5323 -0.5721  0.0339
  973SOL    HW1 2918   0.214   0.330   0.802 -1.5093  0.9928  0.1920
  973SOL    HW2 2919   0.308   0.385   0.682 -3.0400 -0.7818 -0.2376
  974SOL     OW 2920   2.171   0.622   1.540  0.1841  0.8509  0.1331
  974SOL    HW1 2921   2.229   0.702   1.556 -0.0054 -2.3600  3.3366
  974SOL    HW2 2922   2.225   0.546   1.578 -0.8841 -0.2103 -0.1096
  975SOL     OW 2923   2.696   2.984   0.075  0.6990 -0.0911  0.4156
  975SOL    HW1 2924   2.794   3.001   0.074 -0.7766  0.5355 -0.9817
  975SOL    HW2 2925   2.679   2.897   0.127  2.0791  2.6858 -0.1094
  976SOL     OW 2926   0.362   1.479   1.256 -0.8116  0.2645 -0.1829
  976SOL    HW1 2927   0.317   1.458   1.348 -4.2758 -0.8847  2.8212
  976SOL    HW2 2928   0.457   1.517   1.267 -0.6501  0.8240 -1.8094
  977SOL     OW 2929   1.233   2.423   0.701  0.0234  0.5468 -0.3852
  977SOL    HW1 2930   1.253   2.362   0.622  0.3266  1.5021 -1.0358
  977SOL    HW2 2931   1.291   2.508   0.695 -0.8885  0.4069  1.3264
  978SOL     OW 2932   0.156   0.875   0.223 -0.1666  0.8801  0.4873
  978SOL    HW1 2933   0.105   0.799   0.183  1.9509  1.8484  0.0286
  978SOL    HW2 2934   0.224   0.910   0.152 -0.0271 -1.9500  0.9440
  979SOL     OW 2935   2.215   1.609   0.846  0.0445 -0.1435 -0.5699
  979SOL    HW1 2936   2.204   1.583   0.748 -1.1126  2.0167 -0.1338
  979SOL    HW2 2937   2.296   1.668   0.866 -0.3833  1.0416 -0.8902
  980SOL     OW 2938   0.529   1.838   1.883  0.6886 -0.3694  0.0646
  980SOL    HW1 2939   0.538   1.765   1.816  1.0627 -0.9980  2.0821
  980SOL    HW2 2940   0.571   1.815   1.975  0.4718  2.0691 -1.5295
  981SOL     OW 2941   2.728   1.354   0.121 -0.5311 -0.6112  0.0406
  981SOL    HW1 2942   2.721   1.303   0.208  1.4780 -1.8773  0.0245
  981SOL    HW2 2943   2.799   1.428   0.122  0.0768  0.7797 -0.0080
  982SOL     OW 2944   2.592   2.932   1.946 -0.2856  0.2658 -0.4448
  982SOL    HW1 2945   2.555   3.016   1.897  0.7695  0.2362  0.1658
  982SOL    HW2 2946   2.657   2.967   2.017  2.5091 -0.9667 -0.0390
  983SOL     OW 2947   1.356   0.093   1.115  0.0155 -0.6855 -0.5128
  983SOL    HW1 2948   1.320   0.059   1.201 -0.5708  1.0192 -1.3256
  983SOL    HW2 2949   1.447   0.126   1.126 -5.1702 -1.4501  0.4280
  984SOL     OW 2950   1.142   2.780   2.961  0.3236  0.2488 -0.7063
  984SOL    HW1 2951   1.068   2.841   2.925  1.8715  3.4289  1.0390
  984SOL    HW2 2952   1.217   2.760   2.895 -0.2232 -1.2658 -1.0358
  985SOL     OW 2953   1.797   1.942   1.775  0.6004 -0.6407 -0.2365
  985SOL    HW1 2954   1.700   1.976   1.770  0.4735 -0.1643  2.8948
  985SOL    HW2 2955   1.820   1.873   1.703 -0.8430 -0.1249 -0.0304
  986SOL     OW 2956   2.168   0.085   2.634 -0.6768 -0.0431  0.8097
  986SOL    HW1 2957   2.204   3.084   2.597 -0.2733  2.2946 -1.4536
  986SOL    HW2 2958   2.212   0.113   2.720 -1.2614 -4.5112 -1.7092
  987SOL     OW 2959   2.655   1.371   2.124 -0.4190  0.3746  0.2189
  987SOL    HW1 2960   2.582   1.302   2.109  1.4254  1.5657 -2.0284
  987SOL    HW2 2961   2.673   1.375   2.222  0.8288  1.9466 -2.1956
  988SOL     OW 2962   2.276   0.774   2.400  0.0089 -0.4547  0.1198
  988SOL    HW1 2963   2.337   0.745   2.324 -0.3553 -2.4553 -0.6701
  988SOL    HW2 2964   2.279   0.876   2.419 -3.1030  1.4039  0.9851
  989SOL     OW 2965   1.674   1.383   2.040 -0.0276 -0.2568 -0.3549
  989SOL    HW1 2966   1.616   1.303   2.043  1.0872 -2.0831 -0.5414
  989SOL    HW2 2967   1.775   1.360   2.016  0.1807  3.5863  0.8680
  990SOL     OW 2968   0.301   1.307   0.304  0.0936 -0.5501 -0.6807
  990SOL    HW1 2969   0.231   1.296   0.380 -2.3152 -0.8370 -0.4110
  990SOL    HW2 2970   0.266   1.256   0.223 -2.0457 -2.1156  3.9311
  991SOL     OW 2971   0.342   1.666   2.950  0.4789 -0.3846 -0.1239
  991SOL    HW1 2972   0.436   1.660   2.983 -1.3977  2.4164  0.3588
  991SOL    HW2 2973   0.282   1.607   3.006 -0.9570 -3.1038  2.1580
  992SOL     OW 2974   2.794   1.962   1.841  0.2661  0.2270  0.0956
  992SOL    HW1 2975   2.811   1.978   1.941  3.9077 -1.0695  1.0183
  992SOL    HW2 2976   2.707   2.017   1.819  0.3495  0.4305  0.4912
  993SOL     OW 2977   0.071   2.863   0.499 -0.2480 -0.2972 -0.2767
  993SOL    HW1 2978   0.102   2.957   0.518 -2.7727 -2.1375  0.4834
  993SOL    HW2 2979   0.136   2.784   0.518 -0.1913 -0.6912 -0.4552
  994SOL     OW 2980   0.090   1.707   1.452  0.2675  0.2486 -0.4352
  994SOL    HW1 2981   0.106   1.746   1.548  1.8816  0.7630  0.7391
  994SOL    HW2 2982   0.168   1.731   1.388 -2.6953  0.3980  0.3082
  995SOL     OW 2983   2.281   1.840   2.464  0.0474 -0.4065 -0.3140
  995SOL    HW1 2984   2.306   1.933   2.497 -0.9642 -0.2575  0.3373
  995SOL    HW2 2985   2.340   1.771   2.515 -1.4959  1.5952  0.1085
  996SOL     OW 2986   1.917   1.589   2.958  0.7912  0.3482 -0.1892
  996SOL    HW1 2987   1.816   1.581   2.957 -1.2709 -0.3856  0.7590
  996SOL    HW2 2988   1.943   1.647   2.877  0.1757  1.6623  0.6361
  997SOL     OW 2989   1.416   1.321   1.666 -0.2376 -0.1168 -0.8406
  997SOL    HW1 2990   1.335   1.318   1.727  3.1697 -0.8121 -0.6173
  997SOL    HW2 2991   1.395   1.284   1.578 -0.4463  4.2336  1.7976
  998SOL     OW 2992   2.778   2.061   0.995 -0.3239  0.0584  0.5457
  998SOL    HW1 2993   2.686   2.112   1.005 -1.5374 -2.0065  1.6107
  998SOL    HW2 2994   2.827   2.088   0.908  1.2327 -0.7391  0.6322
  999SOL     OW 2995   1.865   2.529   0.326 -0.2196  0.1222  0.2056
  999SOL    HW1 2996   1.792   2.597   0.316  3.4442 -1.4066  1.6820
  999SOL    HW2 2997   1.924   2.511   0.247  0.8213 -1.1113  2.8745
 1000SOL     OW 2998   0.808   2.895   0.121 -0.1871 -0.5446 -0.2455
 1000SOL    HW1 2999   0.901   2.922   0.093  1.4164 -0.8485  0.5361
 1000SOL    HW2 3000   0.777   2.976   0.177 -0.6536  1.0404  2.8227
   3.08532   3.08532   3.08532
