1000 SPC/Fw water molecules t= 500.00000 step= 500000
 3000
    1SOL     OW    1   2.941   2.942   1.132  0.5331  0.9708 -0.8167
    1SOL    HW1    2   2.966   2.991   1.051  2.3770 -0.7765  5.3831
    1SOL    HW2    3   2.978   2.850   1.128  0.3406  0.2273  1.1253
    2SOL     OW    4   2.981   2.681   2.881 -0.1798 -0.4080  0.8480
    2SOL    HW1    5   3.057   2.663   2.944  0.0753 -0.4603 -1.3275
    2SOL    HW2    6   2.912   2.612   2.885 -0.1845  1.9589 -2.7912
    3SOL     OW    7   1.092   1.982   0.384 -0.5194 -0.3336  0.3417
    3SOL    HW1    8   1.093   1.912   0.455 -0.5325  2.0733  0.7463
    3SOL    HW2    9   1.033   2.064   0.413 -0.8828  0.2932 -0.1362
    4SOL     OW   10   1.299   2.627   2.792  0.2462 -0.1090  0.1941
    4SOL    HW1   11   1.351   2.607   2.875 -1.7792 -0.1345 -1.1039
    4SOL    HW2   12   1.349   2.686   2.730 -2.1010  0.2537  0.7313
    5SOL     OW   13   1.691   0.314   2.935  0.1556 -0.1073 -0.4007
    5SOL    HW1   14   1.713   0.391   2.873 -0.8542 -1.3917  5.0836
    5SOL    HW2   15   1.781   0.282   2.968 -0.3022 -0.1426  1.9405
    6SOL     OW   16   0.142   1.440   0.885  0.1269 -0.3805  0.0118
    6SOL    HW1   17   0.245   1.438   0.882 -1.6655 -0.2518 -0.9965
    6SOL    HW2   18   0.110   1.472   0.796  2.4625 -3.6786  1.4825
    7SOL     OW   19   1.101   1.785   0.622  0.3605  0.0322  0.2851
    7SOL    HW1   20   0.999   1.771   0.627 -1.9626  0.3869  2.7442
    7SOL    HW2   21   1.132   1.862   0.678 -2.3742 -0.3396 -0.7985
    8SOL     OW   22   0.092   0.539   0.309 -0.2192  0.2314  0.5545
    8SOL    HW1   23   0.079   0.458   0.371  0.4591 -1.9264  0.4650
    8SOL    HW2   24   0.003   0.570   0.267 -1.3108 -0.8571  3.1773
    9SOL     OW   25   2.993   2.737   1.839 -0.5004  0.4376 -0.0335
    9SOL    HW1   26   3.009   2.769   1.936  0.3649 -0.2271 -1.9010
    9SOL    HW2   27   2.991   2.815   1.774 -0.5558  1.4641 -0.5743
   10SOL     OW   28   1.420   1.650   0.319  0.2447  0.2107  0.1959
   10SOL    HW1   29   1.382   1.694   0.234 -2.6844  0.7235 -0.1266
   10SOL    HW2   30   1.343   1.649   0.383 -0.5316  2.4573 -0.5060
   11SOL     OW   31   1.750   0.182   1.579 -0.2754  0.0764  0.5326
   11SOL    HW1   32   1.729   0.264   1.523  0.4364 -1.1055 -0.5267
   11SOL    HW2   33   1.702   0.182   1.669  3.1307  0.1516 -3.4896
   12SOL     OW   34   0.180   0.816   2.204 -0.0271  0.4380  0.1043
   12SOL    HW1   35   0.081   0.809   2.211  4.6289  0.9309 -0.1008
   12SOL    HW2   36   0.223   0.729   2.176 -0.0371  0.2215 -0.6476
   13SOL     OW   37   2.027   0.498   3.052  0.0341  0.4889  0.6457
   13SOL    HW1   38   1.986   0.579   0.020  0.7411 -1.1539  0.0729
   13SOL    HW2   39   2.128   0.504   3.056  1.6342 -0.5985  0.1284
   14SOL     OW   40   2.118   2.221   2.952  0.2020 -0.3193 -0.8220
   14SOL    HW1   41   2.124   2.184   3.045  0.5200 -2.1653 -2.8240
   14SOL    HW2   42   2.026   2.259   2.932 -0.8083 -1.7870 -0.6325
   15SOL     OW   43   2.536   2.963   0.063  0.7747  0.1587 -0.3025
   15SOL    HW1   44   2.512   2.890   0.129 -1.1378  0.6964 -1.1543
   15SOL    HW2   45   2.445   3.005   0.036 -2.2703  3.0670 -2.2908
   16SOL     OW   46   3.048   0.791   1.167 -0.4684  0.3709  0.2511
   16SOL    HW1   47   3.035   0.689   1.161  1.8165 -1.3396  1.1508
   16SOL    HW2   48   0.061   0.806   1.206 -1.8122  0.7524  1.6236
   17SOL     OW   49   0.696   0.243   0.975 -0.1830  0.0601 -0.1859
   17SOL    HW1   50   0.667   0.335   0.935 -1.1088  1.4311 -3.8500
   17SOL    HW2   51   0.793   0.222   0.947  0.7539  0.3749 -0.4076
   18SOL     OW   52   2.725   0.255   0.567  0.1013  0.4802  0.4615
   18SOL    HW1   53   2.723   0.183   0.644 -1.9418 -1.9429  1.2961
   18SOL    HW2   54   2.824   0.263   0.533  1.0285  1.6146  1.0270
   19SOL     OW   55   2.157   1.974   1.088  0.4022 -0.0522  0.4270
   19SOL    HW1   56   2.254   1.974   1.063 -1.9968  0.6196 -0.1655
   19SOL    HW2   57   2.109   1.891   1.059  0.1424  0.6889  1.3681
   20SOL     OW   58   2.150   1.731   1.900 -0.5066 -0.2538  0.0261
   20SOL    HW1   59   2.159   1.707   1.803 -1.5482  1.6955  2.2339
   20SOL    HW2   60   2.222   1.799   1.927 -1.4704  0.9858  2.7150
   21SOL     OW   61   1.118   0.296   0.438 -0.2425 -0.2584  0.5423
   21SOL    HW1   62   1.044   0.253   0.386  1.3374  1.3602  2.1084
   21SOL    HW2   63   1.189   0.345   0.383 -1.2514  0.4056 -1.4578
   22SOL     OW   64   2.364   0.858   2.970 -0.0545  0.0385  0.7134
   22SOL    HW1   65   2.458   0.826   2.989  0.9163  1.1465 -0.9807
   22SOL    HW2   66   2.323   0.802   2.891  1.5595 -0.9772 -1.5896
   23SOL     OW   67   0.038   0.210   2.274 -1.0518 -0.0761 -0.5924
   23SOL    HW1   68   0.053   0.124   2.328 -0.1383 -0.2640  0.6831
   23SOL    HW2   69   0.116   0.276   2.296  0.1042  0.7731  3.0957
   24SOL     OW   70   2.130   2.404   1.072 -0.0446 -0.1174  0.5894
   24SOL    HW1   71   2.108   2.486   1.021  1.0117 -3.1752  3.6296
   24SOL    HW2   72   2.115   2.322   1.008 -0.3368  0.1814 -0.7883
   25SOL     OW   73   1.499   0.162   0.167 -0.0755  0.0352 -0.4582
   25SOL    HW1   74   1.483   0.182   0.264 -0.4644 -0.8875 -1.6309
   25SOL    HW2   75   1.592   0.118   0.150  1.4252  0.1020  0.0285
   26SOL     OW   76   1.498   2.818   2.994  0.4082  0.3296  0.1491
   26SOL    HW1   77   1.596   2.834   2.955  5.4284  1.2516  2.8569
   26SOL    HW2   78   1.487   2.861   0.007 -1.0930 -0.9251  3.4345
   27SOL     OW   79   0.750   0.657   1.390  0.2100 -0.6013  0.5658
   27SOL    HW1   80   0.716   0.564   1.417 -0.5744 -2.1175  0.9265
   27SOL    HW2   81   0.688   0.724   1.436 -0.3977 -2.6816 -2.8272
   28SOL     OW   82   0.925   1.672   1.657  0.1529  0.1793 -0.0063
   28SOL    HW1   83   0.832   1.655   1.620 -1.5802 -0.7071  0.8144
   28SOL    HW2   84   0.932   1.757   1.719  0.0973  2.1087  0.9941
   29SOL     OW   85   2.353   0.430   0.434  0.0216 -0.3622 -0.2394
   29SOL    HW1   86   2.365   0.529   0.414 -1.6421  1.5448  1.6820
   29SOL    HW2   87   2.410   0.412   0.518  0.5328  0.2813 -0.9021
   30SOL     OW   88   1.483   0.043   1.563  0.1810 -0.4864 -0.4849
   30SOL    HW1   89   1.410   0.024   1.495  0.3806 -2.4332 -0.2083
   30SOL    HW2   90   1.575   0.013   1.536  0.4287  1.0271 -1.4983
   31SOL     OW   91   1.062   0.319   1.298  0.0704 -0.7712 -0.0572
   31SOL    HW1   92   1.025   0.410   1.267  0.1519 -0.2839 -1.9024
   31SOL    HW2   93   1.096   0.262   1.220 -0.8163 -0.1781 -2.2899
   32SOL     OW   94   2.301   0.951   1.927 -0.5658  0.4202 -0.0319
   32SOL    HW1   95   2.338   0.975   2.015 -1.7681  0.2758 -1.5326
   32SOL    HW2   96   2.277   0.848   1.924  1.6796 -1.4189 -1.1012
   33SOL     OW   97   2.385   2.552   2.599 -0.5637  0.0314 -0.0881
   33SOL    HW1   98   2.459   2.578   2.666 -0.9712  0.8343 -0.2200
   33SOL    HW2   99   2.359   2.461   2.626 -0.5742  0.5295  0.5251
   34SOL     OW  100   1.995   1.047   0.029  0.2235 -0.0917 -0.2771
   34SOL    HW1  101   2.090   1.044   0.067  2.4150 -0.9436  0.5908
   34SOL    HW2  102   1.990   1.042   3.008 -1.1110  1.6400  1.7135
   35SOL     OW  103   2.708   1.038   1.114 -0.1548  0.2644 -0.0882
   35SOL    HW1  104   2.688   0.976   1.036 -0.7966  0.6154  3.2147
   35SOL    HW2  105   2.729   1.133   1.077  0.5219  1.1735 -1.5785
   36SOL     OW  106   2.081   2.122   2.394 -0.0234  0.2016 -0.0752
   36SOL    HW1  107   2.020   2.116   2.310 -0.4848 -0.5290 -2.8720
   36SOL    HW2  108   2.163   2.064   2.379 -3.3534  1.7233 -1.8905
   37SOL     OW  109   1.593   2.834   2.382 -0.5605  0.5632 -0.7037
   37SOL    HW1  110   1.567   2.785   2.299  1.1175  3.7694 -2.0180
   37SOL    HW2  111   1.696   2.844   2.387  0.5146  0.4181 -2.4402
   38SOL     OW  112   1.258   1.575   2.510  0.3524 -0.3026  0.0431
   38SOL    HW1  113   1.255   1.580   2.611 -0.3060 -2.0788 -2.9913
   38SOL    HW2  114   1.283   1.667   2.471 -0.0545  4.4897  1.0138
   39SOL     OW  115   1.506   0.275   1.699 -0.3873 -0.3250  0.3876
   39SOL    HW1  116   1.417   0.313   1.734 -1.5739  0.2158 -1.4071
   39SOL    HW2  117   1.475   0.195   1.642  0.1463  1.4023  0.4922
   40SOL     OW  118   0.627   1.859   0.353  0.1618  0.5097  0.7763
   40SOL    HW1  119   0.593   1.874   0.262  2.5014  1.0394 -2.6480
   40SOL    HW2  120   0.630   1.948   0.408  2.5739  3.3305  0.0352
   41SOL     OW  121   2.451   2.321   1.327 -0.2077  0.5796  0.3836
   41SOL    HW1  122   2.386   2.396   1.315  0.1907 -0.2620 -1.7869
   41SOL    HW2  123   2.527   2.350   1.380 -2.3227  0.4571 -1.8180
   42SOL     OW  124   2.508   2.663   0.580  0.2455  0.2705  0.2268
   42SOL    HW1  125   2.470   2.678   0.483 -2.7490 -0.5062 -0.6228
   42SOL    HW2  126   2.490   2.566   0.604 -2.2822 -0.5608  0.9091
   43SOL     OW  127   1.087   1.824   1.914  0.0190 -0.3631 -0.0876
   43SOL    HW1  128   1.168   1.798   1.855  0.8518 -0.5607  2.7195
   43SOL    HW2  129   1.107   1.871   1.998 -1.6591  0.7516 -2.2538
   44SOL     OW  130   1.750   2.943   1.270 -0.2459 -0.4049 -0.8343
   44SOL    HW1  131   1.692   3.021   1.239 -0.4781  0.6127  1.3251
   44SOL    HW2  132   1.698   2.855   1.264  2.3777 -1.1409 -0.6170
   45SOL     OW  133   2.886   2.543   2.547 -0.1516 -1.1175 -0.2761
   45SOL    HW1  134   2.854   2.499   2.632  1.2637  4.6588  0.4268
   45SOL    HW2  135   2.975   2.585   2.562  0.1314  0.7065 -0.6062
   46SOL     OW  136   1.034   2.823   1.912 -0.1305  0.3652 -0.1160
   46SOL    HW1  137   1.099   2.890   1.868  1.6929  0.2689  3.7106
   46SOL    HW2  138   1.002   2.754   1.845  2.7956  2.4153 -0.7429
   47SOL     OW  139   0.249   2.130   0.624  0.5589 -0.7253  0.4904
   47SOL    HW1  140   0.240   2.125   0.523  0.8908 -2.9499  0.8603
   47SOL    HW2  141   0.218   2.040   0.668  1.6229  1.7767 -0.5000
   48SOL     OW  142   0.678   2.775   1.562  0.4009  0.0483  0.1255
   48SOL    HW1  143   0.656   2.740   1.653  0.6484  0.6684  1.0847
   48SOL    HW2  144   0.698   2.872   1.569 -0.1862 -0.5726  1.1484
   49SOL     OW  145   0.530   2.915   0.075  0.6129 -0.1599 -0.0245
   49SOL    HW1  146   0.503   2.883   3.063 -1.7910 -1.5330 -0.7794
   49SOL    HW2  147   0.537   2.831   0.130 -0.5149  2.9352 -2.3290
   50SOL     OW  148   1.510   1.098   0.716  0.0046 -0.4393  0.7915
   50SOL    HW1  149   1.463   1.045   0.645 -2.0917  0.3103 -0.7632
   50SOL    HW2  150   1.575   1.046   0.768 -1.6726  4.7529  1.7354
   51SOL     OW  151   1.813   2.868   0.922  0.1428 -0.5775 -0.3095
   51SOL    HW1  152   1.788   2.795   0.862  3.2792  1.4044  1.2465
   51SOL    HW2  153   1.747   2.948   0.918 -1.4480 -0.6360  1.7019
   52SOL     OW  154   0.691   1.354   0.938 -0.1169 -0.2829 -0.1450
   52SOL    HW1  155   0.737   1.446   0.925  0.2183 -1.9733  1.0507
   52SOL    HW2  156   0.636   1.353   1.026  1.8440 -0.9982  2.7180
   53SOL     OW  157   2.954   0.623   2.679 -0.7026  0.0230  0.1163
   53SOL    HW1  158   2.998   0.553   2.736 -2.5001 -1.8373 -0.9942
   53SOL    HW2  159   2.853   0.613   2.667  1.5386  0.3020  1.9801
   54SOL     OW  160   2.178   1.949   2.764 -0.2319  0.0018  0.5242
   54SOL    HW1  161   2.155   1.856   2.722 -2.7621 -1.9195 -1.8272
   54SOL    HW2  162   2.275   1.971   2.769 -0.5947 -0.9748 -0.0948
   55SOL     OW  163   2.899   1.948   1.421  0.1406  0.2482  0.0665
   55SOL    HW1  164   2.859   2.039   1.409  0.1532 -3.0736 -1.0317
   55SOL    HW2  165   2.937   1.939   1.516  0.3286  2.8439  0.0007
   56SOL     OW  166   1.799   1.176   1.333 -0.2322  0.7648 -0.4431
   56SOL    HW1  167   1.893   1.210   1.358 -0.5726  2.0782  0.2258
   56SOL    HW2  168   1.741   1.256   1.331 -1.1536 -0.0645  4.0055
   57SOL     OW  169   2.502   1.914   0.789 -0.8410 -0.5686  0.3969
   57SOL    HW1  170   2.485   1.930   0.887 -0.8353  2.6590 -0.9510
   57SOL    HW2  171   2.599   1.945   0.767 -1.7520 -0.4866 -0.6318
   58SOL     OW  172   1.920   0.247   2.223  0.6514  0.1292  0.3305
   58SOL    HW1  173   1.980   0.292   2.290 -2.6890 -0.7704 -0.7890
   58SOL    HW2  174   1.969   0.189   2.154 -2.2467 -0.6968  0.6882
   59SOL     OW  175   1.371   0.425   2.331  0.2704 -0.0281  0.5524
   59SOL    HW1  176   1.402   0.332   2.301 -1.7244 -3.3365  0.6509
   59SOL    HW2  177   1.377   0.497   2.259  0.3998  0.2132 -0.2826
   60SOL     OW  178   1.709   1.746   2.999 -0.0806  0.0480  0.0595
   60SOL    HW1  179   1.772   1.692   2.933  1.5693  0.2984  1.0933
   60SOL    HW2  180   1.678   1.838   2.973 -2.8591 -0.3485 -0.4796
   61SOL     OW  181   0.309   2.219   3.066 -0.0786  0.2094  0.4664
   61SOL    HW1  182   0.320   2.174   2.971 -0.7126 -1.4125 -0.5843
   61SOL    HW2  183   0.263   2.154   0.050  1.4914 -0.9519  1.5823
   62SOL     OW  184   1.569   2.752   1.220  0.3404  0.3633  0.3481
   62SOL    HW1  185   1.522   2.680   1.165  0.6780  1.9004 -2.2075
   62SOL    HW2  186   1.524   2.766   1.308  4.2756 -1.1221  2.3773
   63SOL     OW  187   0.515   1.637   0.468 -0.4053 -0.1270  0.3917
   63SOL    HW1  188   0.520   1.557   0.407 -0.1403  0.9352  3.1269
   63SOL    HW2  189   0.562   1.718   0.429 -4.0085  2.2722  0.3875
   64SOL     OW  190   1.903   1.800   2.602  0.1545  0.3157  0.0267
   64SOL    HW1  191   1.962   1.762   2.672 -1.6241  0.7060 -2.9200
   64SOL    HW2  192   1.953   1.793   2.516  1.1584  1.1454  2.7083
   65SOL     OW  193   2.049   2.043   1.556  0.8422 -0.0994 -0.3171
   65SOL    HW1  194   1.950   2.045   1.547  1.1456 -0.5869  0.4755
   65SOL    HW2  195   2.087   1.993   1.475 -0.6248 -2.2318 -1.3633
   66SOL     OW  196   2.480   0.106   0.467 -0.2651  0.1724 -0.1550
   66SOL    HW1  197   2.572   0.144   0.471  1.8099 -0.1188 -0.7148
   66SOL    HW2  198   2.453   0.052   0.550 -1.3313 -1.1455  1.0349
   67SOL     OW  199   2.086   2.668   0.979 -0.1125 -0.4440 -0.6063
   67SOL    HW1  200   2.010   2.696   1.039 -2.0346 -0.8691  0.1345
   67SOL    HW2  201   2.062   2.643   0.885 -1.8679 -0.1585  0.8422
   68SOL     OW  202   2.661   2.684   1.338  0.3078  0.1226 -0.6719
   68SOL    HW1  203   2.603   2.681   1.420  0.6980 -0.2121 -1.3743
   68SOL    HW2  204   2.698   2.776   1.325  2.1467 -1.3907  1.1417
   69SOL     OW  205   2.574   2.605   2.776 -0.0435  0.3957 -0.8090
   69SOL    HW1  206   2.596   2.556   2.864 -1.7555 -0.3193 -1.2475
   69SOL    HW2  207   2.607   2.697   2.777  0.2629 -2.4035  0.1824
   70SOL     OW  208   1.315   1.826   2.419  0.3119  0.0622 -0.2838
   70SOL    HW1  209   1.291   1.912   2.468 -1.2382  0.2352 -0.1913
   70SOL    HW2  210   1.394   1.843   2.360 -2.4371  0.2611  0.1019
   71SOL     OW  211   1.109   1.999   2.114 -0.1551 -0.1681 -0.1822
   71SOL    HW1  212   1.085   2.081   2.059  1.6226  0.9805  1.1756
   71SOL    HW2  213   1.203   2.000   2.152 -1.7059  0.0704 -1.3284
   72SOL     OW  214   2.520   1.216   1.510 -0.2301  0.1678 -0.4087
   72SOL    HW1  215   2.620   1.202   1.500 -0.2140  0.1794  0.3598
   72SOL    HW2  216   2.491   1.134   1.564 -0.4567  0.6223 -0.6589
   73SOL     OW  217   0.646   1.989   2.305  0.2031 -0.5376 -0.1480
   73SOL    HW1  218   0.725   1.986   2.243  0.5971 -0.8084 -0.4610
   73SOL    HW2  219   0.567   1.999   2.241 -0.6358  0.1565  2.3750
   74SOL     OW  220   0.944   0.322   2.665 -0.0062  0.5023  0.4922
   74SOL    HW1  221   0.924   0.383   2.737  1.4357  0.7379  1.1162
   74SOL    HW2  222   1.019   0.361   2.607  0.1045  2.3393  1.0922
   75SOL     OW  223   0.764   2.978   0.736 -0.4376  0.1342  0.6729
   75SOL    HW1  224   0.831   2.907   0.698 -1.1542 -2.8672 -0.9910
   75SOL    HW2  225   0.733   3.044   0.663 -0.0723  1.4440 -1.3267
   76SOL     OW  226   0.540   1.140   2.528  0.0075 -0.1836  0.3872
   76SOL    HW1  227   0.605   1.191   2.589 -1.5841  0.2266 -0.3076
   76SOL    HW2  228   0.451   1.128   2.580  0.5266 -1.3809 -1.2204
   77SOL     OW  229   0.450   2.578   0.535  0.1133  0.2539  0.0081
   77SOL    HW1  230   0.353   2.604   0.508  0.0084 -0.7860 -1.6608
   77SOL    HW2  231   0.511   2.657   0.508 -0.8323  0.2486  1.3410
   78SOL     OW  232   2.686   1.057   2.754 -0.0260  0.2937 -0.6963
   78SOL    HW1  233   2.667   0.966   2.717  0.9166 -2.3616  2.7683
   78SOL    HW2  234   2.608   1.120   2.735 -1.8225  1.0071 -0.9009
   79SOL     OW  235   0.851   1.375   2.456 -0.2485 -0.4354 -0.1951
   79SOL    HW1  236   0.853   1.477   2.462  1.3528 -0.2887 -0.2661
   79SOL    HW2  237   0.843   1.349   2.362  0.0480  0.8013 -0.4845
   80SOL     OW  238   2.183   1.021   1.491  0.0802 -0.0347 -0.2888
   80SOL    HW1  239   2.259   0.953   1.506  1.6940  0.4463 -0.2515
   80SOL    HW2  240   2.100   0.967   1.461 -0.3768 -1.5909 -2.5381
   81SOL     OW  241   2.309   1.077   2.563 -0.2629 -0.0997  0.0677
   81SOL    HW1  242   2.270   1.021   2.637  1.1918 -2.6774 -2.0300
   81SOL    HW2  243   2.346   1.008   2.494 -0.3769 -0.4799  0.3496
   82SOL     OW  244   2.629   2.132   1.545  0.0070  0.3415  0.7503
   82SOL    HW1  245   2.645   2.232   1.530 -1.0623 -1.0516  0.8407
   82SOL    HW2  246   2.531   2.105   1.523 -0.0859 -0.6804 -0.9235
   83SOL     OW  247   1.521   2.897   0.735 -0.4593  0.1410  0.2966
   83SOL    HW1  248   1.563   2.969   0.796  1.1495 -0.6892  0.9434
   83SOL    HW2  249   1.516   2.936   0.642 -0.4922  2.4010 -0.5832
   84SOL     OW  250   1.004   0.635   0.595 -0.8816 -0.1416  0.0445
   84SOL    HW1  251   1.098   0.598   0.589 -0.1667  1.4265  1.5422
   84SOL    HW2  252   0.961   0.613   0.679  2.5368  1.1266 -1.7266
   85SOL     OW  253   2.515   1.771   1.259 -0.5211  0.1877 -0.1651
   85SOL    HW1  254   2.593   1.746   1.319 -1.7536  1.0623 -1.3539
   85SOL    HW2  255   2.428   1.725   1.288  2.2666  5.3101 -1.6161
   86SOL     OW  256   0.541   0.555   1.151 -0.3268  0.1161  0.7463
   86SOL    HW1  257   0.495   0.586   1.237 -0.9185 -1.5127 -1.7107
   86SOL    HW2  258   0.578   0.464   1.171  2.4041 -0.5506 -1.0171
   87SOL     OW  259   0.268   1.916   2.555 -0.0803 -0.1748 -0.2451
   87SOL    HW1  260   0.318   1.863   2.484  0.6250  0.7051  2.0373
   87SOL    HW2  261   0.178   1.870   2.570 -1.2917 -0.7285 -1.8677
   88SOL     OW  262   0.325   0.053   2.997 -0.4510 -0.2220 -0.3199
   88SOL    HW1  263   0.426   0.057   2.971 -0.4464 -1.9324 -1.3872
   88SOL    HW2  264   0.272   3.052   2.960 -0.6083  0.2762 -0.8346
   89SOL     OW  265   1.535   0.526   0.670 -0.3721  0.2581  0.0942
   89SOL    HW1  266   1.506   0.477   0.751  0.1617  0.3628 -4.3714
   89SOL    HW2  267   1.601   0.466   0.618 -1.6891 -1.7530  0.8362
   90SOL     OW  268   2.943   0.918   1.618  0.1771 -0.2857  0.4998
   90SOL    HW1  269   3.011   0.864   1.564  0.8766 -2.3398  1.5691
   90SOL    HW2  270   2.897   0.858   1.680 -0.2246 -0.6117 -2.0787
   91SOL     OW  271   2.041   2.513   0.770  0.3868 -0.1655 -0.3418
   91SOL    HW1  272   2.054   2.461   0.683  1.1467 -1.9800 -0.7656
   91SOL    HW2  273   1.949   2.493   0.810 -1.4655 -0.1055  0.5084
   92SOL     OW  274   1.694   2.453   0.556 -0.6056 -0.2729 -0.2508
   92SOL    HW1  275   1.774   2.473   0.619  1.3803 -0.6451 -1.1111
   92SOL    HW2  276   1.606   2.474   0.603  1.0651 -0.1424  0.6364
   93SOL     OW  277   0.212   1.249   0.205 -0.4113  0.2145  0.3075
   93SOL    HW1  278   0.238   1.191   0.283 -1.4871  0.0553 -1.0043
   93SOL    HW2  279   0.206   1.347   0.226 -1.5013 -0.9801 -1.0726
   94SOL     OW  280   0.770   2.003   1.186  0.1724  0.3436  0.1691
   94SOL    HW1  281   0.854   2.038   1.233 -0.2044  1.2187  0.2776
   94SOL    HW2  282   0.696   2.072   1.186 -1.9029 -3.6018 -0.7548
   95SOL     OW  283   0.595   0.840   0.252 -0.1788  0.6490  0.5248
   95SOL    HW1  284   0.607   0.935   0.285  1.7920 -1.3566 -3.1944
   95SOL    HW2  285   0.531   0.790   0.312 -0.8098 -0.9753  0.5187
   96SOL     OW  286   1.323   2.462   2.451  0.2650 -0.5713 -0.5145
   96SOL    HW1  287   1.277   2.543   2.412  1.6671 -1.0515 -0.9368
   96SOL    HW2  288   1.297   2.380   2.397  0.8357 -0.4264 -0.1835
   97SOL     OW  289   2.554   0.896   0.302  0.4596 -0.0566 -0.1171
   97SOL    HW1  290   2.536   0.996   0.312  1.3222  1.1668 -0.5337
   97SOL    HW2  291   2.615   0.878   0.220  3.3466  1.2634 -0.0428
   98SOL     OW  292   0.268   1.920   1.865 -0.6387 -0.0109  0.1182
   98SOL    HW1  293   0.312   1.871   1.784  0.8621 -0.7603 -0.6327
   98SOL    HW2  294   0.345   1.942   1.932 -0.0654 -1.1231  0.9436
   99SOL     OW  295   0.036   0.596   1.991 -0.2988 -0.6064  0.2468
   99SOL    HW1  296   0.078   0.666   1.920  1.6279  2.8733 -1.3004
   99SOL    HW2  297   0.108   0.571   2.053  0.1380  0.0418 -2.6713
  100SOL     OW  298   1.813   0.702   2.235 -0.3037  0.0224 -0.2203
  100SOL    HW1  299   1.792   0.604   2.247 -1.3724 -0.2603  2.2899
  100SOL    HW2  300   1.740   0.763   2.278 -0.7281 -0.2400  1.1591
  101SOL     OW  301   0.701   0.481   2.145  0.4104 -0.7683 -0.4210
  101SOL    HW1  302   0.802   0.475   2.158 -1.3027 -1.8962  2.8219
  101SOL    HW2  303   0.654   0.405   2.195 -0.3619  0.5700 -2.7804
  102SOL     OW  304   0.062   0.302   1.690  0.2022 -0.0195 -0.0648
  102SOL    HW1  305   0.158   0.307   1.729  2.6241  0.6749 -1.6247
  102SOL    HW2  306   3.060   0.321   1.754 -0.2198 -0.8505  2.8695
  103SOL     OW  307   0.391   0.445   0.073 -0.8708 -0.5294  0.0146
  103SOL    HW1  308   0.315   0.501   0.037  2.3364  0.7971  0.7824
  103SOL    HW2  309   0.475   0.507   0.091  3.6786  2.0468 -1.1210
  104SOL     OW  310   0.628   2.724   1.813  0.2501 -0.0656 -0.1239
  104SOL    HW1  311   0.551   2.671   1.856 -1.3388  2.3015 -0.1090
  104SOL    HW2  312   0.696   2.760   1.877 -1.2848 -2.9305  0.4265
  105SOL     OW  313   2.405   2.771   2.025  0.4453  0.6346  0.2703
  105SOL    HW1  314   2.501   2.753   2.053 -0.1072  1.7302  1.0864
  105SOL    HW2  315   2.401   2.863   1.982 -0.3779 -1.7199 -1.4620
  106SOL     OW  316   0.333   2.966   0.912 -0.3850  0.1048  0.1180
  106SOL    HW1  317   0.360   3.058   0.940  0.8058 -2.2715  1.1833
  106SOL    HW2  318   0.416   2.913   0.896 -1.4175  0.8142 -1.7436
  107SOL     OW  319   0.196   1.155   0.925 -0.2210 -0.2105 -0.0576
  107SOL    HW1  320   0.145   1.235   0.891 -2.5549  0.5035  0.0415
  107SOL    HW2  321   0.239   1.181   1.012 -0.4755 -1.2344  0.8581
  108SOL     OW  322   0.392   2.629   1.028 -0.2006 -0.5140 -0.0814
  108SOL    HW1  323   0.487   2.668   1.009 -0.4087  1.7586  0.9468
  108SOL    HW2  324   0.401   2.534   1.062  0.2740 -0.7134  2.4988
  109SOL     OW  325   1.356   2.656   0.093  0.4385 -0.0403  0.0708
  109SOL    HW1  326   1.410   2.690   0.019 -1.0756  0.3987  2.9971
  109SOL    HW2  327   1.358   2.556   0.107  1.8599 -0.6485  3.0563
  110SOL     OW  328   1.501   2.017   0.661 -0.4547  0.2796 -0.5946
  110SOL    HW1  329   1.522   2.085   0.586  2.5894  1.5828 -0.9467
  110SOL    HW2  330   1.399   2.009   0.685 -1.7515  0.6016 -0.6459
  111SOL     OW  331   1.709   2.918   2.003 -0.2675  0.0527  0.2608
  111SOL    HW1  332   1.693   2.819   1.989 -0.4718  0.2512 -4.1329
  111SOL    HW2  333   1.800   2.925   2.060  0.9837 -2.0582  1.4041
  112SOL     OW  334   2.027   2.509   2.549 -0.8555 -0.0535  0.2748
  112SOL    HW1  335   1.926   2.487   2.537  0.0718  0.0949  1.0775
  112SOL    HW2  336   2.045   2.593   2.493 -4.5657  0.4855 -1.8893
  113SOL     OW  337   2.612   2.079   1.996 -0.3675  0.0506 -0.2480
  113SOL    HW1  338   2.585   2.162   2.046 -0.1930 -0.6549 -1.1563
  113SOL    HW2  339   2.658   2.097   1.911  0.2515 -2.1705  0.8114
  114SOL     OW  340   0.036   1.135   1.640  0.5645 -0.2182  0.5555
  114SOL    HW1  341   3.047   1.058   1.634 -1.3322 -0.6636 -0.1623
  114SOL    HW2  342   3.070   1.223   1.646  1.1845 -1.8972  3.4889
  115SOL     OW  343   0.192   0.593   3.017 -0.0993  0.0926 -0.3056
  115SOL    HW1  344   0.096   0.574   3.010  0.4381 -2.8806  0.0898
  115SOL    HW2  345   0.207   0.679   3.069 -0.1186  0.7600  2.2849
  116SOL     OW  346   2.716   0.196   2.946 -0.3377  0.6204  0.7334
  116SOL    HW1  347   2.808   0.229   2.971  1.5826  0.3740 -0.2642
  116SOL    HW2  348   2.721   0.099   2.916 -1.2922  1.0443  0.8616
  117SOL     OW  349   2.905   2.720   0.605  0.4835 -0.6776 -0.0074
  117SOL    HW1  350   2.883   2.690   0.508  1.3066 -1.1484  0.0230
  117SOL    HW2  351   2.844   2.668   0.665  1.6279  0.8807 -1.1520
  118SOL     OW  352   1.163   2.243   2.331 -0.3092 -0.1654  0.6266
  118SOL    HW1  353   1.089   2.181   2.295  0.7663  2.1413 -1.9957
  118SOL    HW2  354   1.162   2.333   2.286  2.4586 -2.1798 -2.4718
  119SOL     OW  355   0.839   2.760   2.980  0.0607 -0.1752 -0.2765
  119SOL    HW1  356   0.829   2.722   3.071  2.1168  1.4309 -1.1910
  119SOL    HW2  357   0.743   2.750   2.939 -3.0312  2.9139 -1.9474
  120SOL     OW  358   1.284   1.080   3.047  0.3230 -0.1720 -0.2452
  120SOL    HW1  359   1.301   1.013   0.038  1.6558  0.1847 -0.5304
  120SOL    HW2  360   1.192   1.123   3.053  1.5248  2.2979 -0.8274
  121SOL     OW  361   1.275   1.096   0.972 -0.1917 -0.0191 -0.2146
  121SOL    HW1  362   1.255   1.109   1.073  0.1059 -0.4041 -1.5098
  121SOL    HW2  363   1.337   1.170   0.935  0.5092  2.5258 -1.6430
  122SOL     OW  364   1.965   1.345   2.154 -0.3969 -0.4376  0.5583
  122SOL    HW1  365   1.865   1.344   2.121 -0.0182 -1.5050 -1.5261
  122SOL    HW2  366   1.973   1.389   2.250 -0.2723 -0.5880  2.3459
  123SOL     OW  367   2.658   0.589   0.468 -0.4085 -0.1061  0.6150
  123SOL    HW1  368   2.714   0.582   0.552 -0.3052  0.1057  1.2973
  123SOL    HW2  369   2.697   0.540   0.386 -2.2228 -0.5974 -0.1825
  124SOL     OW  370   0.809   0.609   2.903  0.4552 -0.0676 -0.2547
  124SOL    HW1  371   0.780   0.692   2.949 -0.3383 -0.6618 -1.3676
  124SOL    HW2  372   0.732   0.565   2.849 -4.3226 -1.0090 -0.9948
  125SOL     OW  373   0.504   3.034   2.625 -1.0483  0.3800  0.5873
  125SOL    HW1  374   0.523   3.067   2.718 -0.1302 -1.9651 -0.2933
  125SOL    HW2  375   0.450   0.020   2.572  2.4986 -1.6275 -0.3323
  126SOL     OW  376   0.847   1.648   2.749 -0.1000  0.9085  0.1388
  126SOL    HW1  377   0.921   1.594   2.786  0.7798 -2.6541 -0.0698
  126SOL    HW2  378   0.868   1.655   2.648  1.8290 -3.0740  0.0197
  127SOL     OW  379   1.135   2.937   1.379 -0.1055  0.3292 -0.3086
  127SOL    HW1  380   1.051   2.972   1.339  1.8690  3.3212  0.1851
  127SOL    HW2  381   1.124   2.856   1.434 -0.9798  0.4285 -2.0778
  128SOL     OW  382   1.683   2.190   0.486  0.2551 -0.5818 -0.0036
  128SOL    HW1  383   1.675   2.165   0.389 -2.2066 -2.0616 -0.0785
  128SOL    HW2  384   1.700   2.293   0.503 -0.5025 -0.0921  1.2717
  129SOL     OW  385   1.932   1.838   1.292  0.3893  0.4885  0.3093
  129SOL    HW1  386   1.962   1.782   1.213  0.0740 -1.5741 -1.0395
  129SOL    HW2  387   1.913   1.933   1.268  1.4836 -2.6224 -2.0982
  130SOL     OW  388   2.195   1.932   1.362  0.6589  0.0091  0.3332
  130SOL    HW1  389   2.189   1.828   1.366 -2.5173 -1.3670  0.6409
  130SOL    HW2  390   2.170   1.968   1.270 -1.2125 -1.5201  0.8266
  131SOL     OW  391   1.252   2.967   2.199  0.0265 -0.0694  0.5610
  131SOL    HW1  392   1.337   3.003   2.159 -0.7904 -0.8656  1.6639
  131SOL    HW2  393   1.232   2.874   2.155 -0.2563 -0.1833  1.0742
  132SOL     OW  394   2.406   1.557   0.634  0.9370  0.6290  0.3322
  132SOL    HW1  395   2.403   1.615   0.550  0.3877 -0.9699 -1.7275
  132SOL    HW2  396   2.481   1.585   0.695 -1.4768  1.8827 -0.8022
  133SOL     OW  397   0.592   1.477   1.466  0.2076  0.6748 -0.5059
  133SOL    HW1  398   0.690   1.452   1.481 -1.1298  0.5087  2.7682
  133SOL    HW2  399   0.555   1.440   1.379  0.0831  0.2996 -1.1354
  134SOL     OW  400   2.926   1.000   0.756 -0.4223  0.3069 -0.0393
  134SOL    HW1  401   2.863   1.076   0.748 -0.1107 -2.0516  2.0295
  134SOL    HW2  402   2.974   0.997   0.850  2.4860 -0.3986  2.6070
  135SOL     OW  403   2.048   1.833   3.055 -0.2620 -0.2060  0.5680
  135SOL    HW1  404   2.137   1.829   0.029 -1.5171 -0.0934 -2.0605
  135SOL    HW2  405   2.059   1.891   2.970 -2.1342 -0.7923  0.7551
  136SOL     OW  406   2.882   1.368   1.345 -0.1675 -0.1819  0.0830
  136SOL    HW1  407   2.866   1.342   1.246  0.6318 -2.1118  1.0932
  136SOL    HW2  408   2.796   1.392   1.396  0.1610  0.1535  2.1397
  137SOL     OW  409   2.516   1.251   2.678  0.4598  1.0210 -0.3968
  137SOL    HW1  410   2.454   1.179   2.643  1.9798 -0.7341  0.3428
  137SOL    HW2  411   2.465   1.324   2.730 -0.1544 -2.9063  1.0274
  138SOL     OW  412   0.229   0.532   1.122  0.2224  0.4985 -0.0158
  138SOL    HW1  413   0.272   0.586   1.201  2.1509 -0.2555  4.4053
  138SOL    HW2  414   0.254   0.435   1.109  1.3685 -0.0030  0.2872
  139SOL     OW  415   1.826   2.109   0.012 -0.1416 -0.4792  0.2313
  139SOL    HW1  416   1.795   2.081   0.107  1.3267  0.9208  0.5800
  139SOL    HW2  417   1.766   2.076   3.017 -2.6007 -1.1376 -0.4869
  140SOL     OW  418   0.901   1.222   0.849  0.1814 -0.1371 -0.3918
  140SOL    HW1  419   0.975   1.285   0.826 -2.1352 -4.6276  0.6675
  140SOL    HW2  420   0.828   1.268   0.901  0.6114  1.2038  0.9050
  141SOL     OW  421   1.387   1.642   0.820 -0.3249  0.4734  0.4095
  141SOL    HW1  422   1.320   1.619   0.749 -0.8870  0.5220 -1.1046
  141SOL    HW2  423   1.461   1.698   0.780  0.0551  1.7055 -1.4591
  142SOL     OW  424   0.971   0.870   1.309  0.4771 -0.4782  0.7926
  142SOL    HW1  425   1.004   0.892   1.214 -0.3163  0.2637 -0.1074
  142SOL    HW2  426   0.908   0.789   1.301  1.1148  3.6146 -2.2375
  143SOL     OW  427   0.307   0.094   2.466 -0.1448 -0.4532  0.0688
  143SOL    HW1  428   0.311   0.102   2.364  1.3953  0.0439  1.0655
  143SOL    HW2  429   0.297   0.183   2.512  1.5356 -1.5780  1.2320
  144SOL     OW  430   2.104   0.102   0.338  0.1171  0.2906  0.2260
  144SOL    HW1  431   2.187   0.147   0.309 -0.2184  2.5158  1.5040
  144SOL    HW2  432   2.023   0.154   0.308 -0.1383  0.6856  0.7027
  145SOL     OW  433   2.081   2.998   2.714  0.2812  0.6254  0.3896
  145SOL    HW1  434   1.980   3.005   2.712  0.5747  1.0096 -0.2398
  145SOL    HW2  435   2.104   2.904   2.734 -0.7343  0.3470  1.0303
  146SOL     OW  436   3.068   2.945   0.343 -0.3688  0.0443 -0.2890
  146SOL    HW1  437   0.084   2.907   0.344 -0.2693 -0.9718  0.4437
  146SOL    HW2  438   3.014   2.894   0.273 -2.1254  1.0975  2.2033
  147SOL     OW  439   2.237   1.304   0.306  0.3925  0.7863 -0.1567
  147SOL    HW1  440   2.171   1.258   0.365  0.5087 -1.5500  0.4371
  147SOL    HW2  441   2.191   1.353   0.227  0.6950  0.1264 -0.9382
  148SOL     OW  442   1.207   2.918   0.322 -0.6865  0.4585  0.3007
  148SOL    HW1  443   1.111   2.925   0.282  0.2203 -2.0210  0.3040
  148SOL    HW2  444   1.279   2.931   0.251  0.2716 -2.1073 -0.5803
  149SOL     OW  445   1.323   0.764   2.402  0.0795  0.0575 -0.4101
  149SOL    HW1  446   1.232   0.754   2.446 -1.0513 -1.2422  0.1345
  149SOL    HW2  447   1.395   0.800   2.465  0.9294 -0.9030 -0.5304
  150SOL     OW  448   1.252   2.893   2.908  0.7343 -0.4946  0.1256
  150SOL    HW1  449   1.341   2.848   2.946  2.2731 -0.6666  2.1684
  150SOL    HW2  450   1.189   2.938   2.971 -0.7115  0.8545 -0.5326
  151SOL     OW  451   0.347   0.950   3.037 -0.1343 -0.2744 -0.2368
  151SOL    HW1  452   0.438   0.976   3.067 -1.7801  0.8042 -1.4040
  151SOL    HW2  453   0.291   0.908   0.030  1.4487  2.6478 -1.5498
  152SOL     OW  454   0.435   0.060   1.579  0.3825 -0.0369  0.3472
  152SOL    HW1  455   0.442   0.101   1.672 -1.5365  0.9491 -0.9966
  152SOL    HW2  456   0.357   3.072   1.575 -0.6963  1.4736  0.4045
  153SOL     OW  457   2.824   2.920   1.545 -0.1090  0.3596  0.1172
  153SOL    HW1  458   2.758   2.958   1.613 -0.8833  3.4696 -0.4776
  153SOL    HW2  459   2.922   2.947   1.576  2.5158 -0.6645  2.1385
  154SOL     OW  460   2.311   0.329   2.001 -0.4119 -0.2890 -0.3066
  154SOL    HW1  461   2.390   0.328   1.934 -0.6915  0.3412 -1.2003
  154SOL    HW2  462   2.218   0.357   1.960 -0.9213  1.3304  2.4815
  155SOL     OW  463   0.794   1.092   0.211  0.1701  0.1321 -0.6098
  155SOL    HW1  464   0.837   1.033   0.142 -1.0772  3.3960 -1.8082
  155SOL    HW2  465   0.713   1.134   0.171 -0.7901  0.0042 -0.1201
  156SOL     OW  466   2.022   1.665   0.460  0.1712 -0.5505  0.1058
  156SOL    HW1  467   2.073   1.604   0.524 -1.4353 -2.2453  0.4203
  156SOL    HW2  468   1.951   1.611   0.414  2.2410  0.3920 -1.3040
  157SOL     OW  469   1.006   1.908   0.127 -0.3354  0.6720 -0.6413
  157SOL    HW1  470   0.936   1.833   0.137  1.0451 -3.1085 -1.7485
  157SOL    HW2  471   1.061   1.905   0.214 -2.2976 -0.0504 -1.6387
  158SOL     OW  472   1.827   0.729   1.898 -0.4746 -0.1363  0.1914
  158SOL    HW1  473   1.829   0.660   1.821 -0.2125 -3.3664 -1.5237
  158SOL    HW2  474   1.876   0.705   1.986  2.4603 -1.9906  2.4129
  159SOL     OW  475   0.239   0.316   0.465  0.2396  0.4629  0.4088
  159SOL    HW1  476   0.206   0.223   0.441 -1.8788  3.1400  0.5768
  159SOL    HW2  477   0.312   0.343   0.401  0.6182 -0.0090  0.3491
  160SOL     OW  478   2.326   1.409   1.497 -0.1860  0.4919  0.2944
  160SOL    HW1  479   2.399   1.346   1.528  1.2267  0.0433  0.5521
  160SOL    HW2  480   2.241   1.356   1.464 -1.1765  0.6481 -0.8964
  161SOL     OW  481   0.400   3.080   0.274  0.3304 -0.2669  0.4297
  161SOL    HW1  482   0.367   0.087   0.231  1.5009  1.8704 -0.6064
  161SOL    HW2  483   0.451   3.030   0.203  0.2645  1.2769  0.1518
  162SOL     OW  484   0.061   0.935   2.479  0.3389  0.4391  0.1886
  162SOL    HW1  485   0.104   0.977   2.398 -0.3790 -0.2412  0.1593
  162SOL    HW2  486   3.050   0.973   2.488 -1.3020 -1.2109 -3.1945
  163SOL     OW  487   2.781   2.883   3.026  0.0963  0.4722 -0.2339
  163SOL    HW1  488   2.739   2.888   2.934 -1.2360  0.8361  1.8758
  163SOL    HW2  489   2.715   2.897   0.024  0.2551  3.5653  2.0473
  164SOL     OW  490   2.600   2.132   0.345 -0.5715  0.0007  0.0681
  164SOL    HW1  491   2.500   2.127   0.371 -0.4662  2.0102 -1.4638
  164SOL    HW2  492   2.662   2.187   0.405 -2.9619  0.6268 -1.7297
  165SOL     OW  493   1.110   0.688   1.479  0.0149 -0.2054  0.3969
  165SOL    HW1  494   1.194   0.658   1.429  0.5677 -2.3841  0.2447
  165SOL    HW2  495   1.059   0.760   1.426 -2.3963  1.1576  0.2436
  166SOL     OW  496   2.979   0.283   0.488 -0.4657 -0.5706  0.5225
  166SOL    HW1  497   3.021   0.351   0.551 -0.7433  1.2180 -0.6536
  166SOL    HW2  498   3.046   0.235   0.428  0.8039  2.9264  1.2870
  167SOL     OW  499   2.021   0.585   1.056  0.0541 -0.1928  0.1687
  167SOL    HW1  500   2.109   0.606   1.006  1.1420 -0.8834  1.3276
  167SOL    HW2  501   2.043   0.585   1.155  1.8211  0.9993 -1.4799
  168SOL     OW  502   0.999   0.508   2.183  0.4676 -0.2989  0.1493
  168SOL    HW1  503   1.070   0.550   2.121 -2.7701 -0.2104 -1.2513
  168SOL    HW2  504   0.961   0.579   2.242  2.3106  0.8117  0.8487
  169SOL     OW  505   1.280   1.724   1.534  0.3213 -0.2413 -0.3926
  169SOL    HW1  506   1.327   1.766   1.454 -4.3728  0.0134  0.8229
  169SOL    HW2  507   1.269   1.625   1.525 -2.3874  1.9831 -2.7971
  170SOL     OW  508   3.053   2.974   1.657  0.1415  0.1087  0.0821
  170SOL    HW1  509   0.042   2.973   1.582  0.4540 -2.2186  1.4999
  170SOL    HW2  510   3.073   3.033   1.738 -1.4722 -0.2555  0.4659
  171SOL     OW  511   2.672   0.640   2.169 -0.2729 -0.1668  0.1014
  171SOL    HW1  512   2.758   0.658   2.218 -1.1879  1.8988  0.9718
  171SOL    HW2  513   2.628   0.556   2.209  0.4027  0.8402 -0.7950
  172SOL     OW  514   0.919   2.747   1.446  0.0686  0.0660  0.3426
  172SOL    HW1  515   0.822   2.751   1.471  2.4824  2.2436 -0.4529
  172SOL    HW2  516   0.925   2.785   1.356  0.2482 -0.6636 -0.2711
  173SOL     OW  517   2.488   2.102   2.648 -0.1298  0.1514  0.4802
  173SOL    HW1  518   2.480   2.048   2.733 -1.1082 -0.3039  2.5607
  173SOL    HW2  519   2.509   2.200   2.657  0.8367 -2.3004  0.3953
  174SOL     OW  520   1.575   0.994   0.149 -0.1585  0.1682 -0.0720
  174SOL    HW1  521   1.605   1.020   0.240 -2.7310 -2.0326  0.1616
  174SOL    HW2  522   1.486   0.951   0.162  0.2258 -1.8714 -0.9135
  175SOL     OW  523   1.191   1.352   1.459  0.5521  0.6134 -0.5457
  175SOL    HW1  524   1.158   1.383   1.549 -1.9798 -1.5234 -2.2077
  175SOL    HW2  525   1.279   1.393   1.438  0.2083  0.1583  0.3908
  176SOL     OW  526   0.416   0.019   0.539 -0.6623 -0.0328 -0.3411
  176SOL    HW1  527   0.334   3.063   0.589  0.9215 -0.7878  0.8505
  176SOL    HW2  528   0.405   3.080   0.438 -1.9510  0.2906 -0.3602
  177SOL     OW  529   2.732   1.119   3.023 -0.3079 -0.0590 -0.1556
  177SOL    HW1  530   2.802   1.191   3.031  0.5247 -2.8416 -2.3857
  177SOL    HW2  531   2.708   1.112   2.922  0.7618  0.1893  0.1586
  178SOL     OW  532   2.688   2.666   2.066 -0.5043 -0.2247  0.1557
  178SOL    HW1  533   2.765   2.652   2.129  1.5342  0.2695 -0.2294
  178SOL    HW2  534   2.669   2.576   2.021 -0.8292 -1.9766  0.7294
  179SOL     OW  535   2.043   2.910   0.342  0.5188 -0.4794  0.6663
  179SOL    HW1  536   2.047   3.011   0.336  1.4065  2.4122  3.3848
  179SOL    HW2  537   1.999   2.879   0.433 -2.8342 -0.9821  1.2487
  180SOL     OW  538   2.058   0.936   0.613  0.1167  0.0164  0.0665
  180SOL    HW1  539   2.085   0.965   0.522 -1.8112 -2.6872 -0.1943
  180SOL    HW2  540   2.110   0.851   0.638 -1.3680 -1.8111 -2.4196
  181SOL     OW  541   2.885   0.623   2.359 -0.1134 -0.0157  0.0769
  181SOL    HW1  542   2.832   0.635   2.445 -1.0802  0.3806  1.1025
  181SOL    HW2  543   2.983   0.603   2.390  2.3394 -1.8164  3.4493
  182SOL     OW  544   2.932   1.924   2.078  0.5063  0.0910 -0.6064
  182SOL    HW1  545   2.902   1.844   2.022 -0.3014  2.2607  0.6996
  182SOL    HW2  546   2.858   1.944   2.146 -1.4308 -1.2800  0.5575
  183SOL     OW  547   2.964   0.816   1.877 -0.3120 -0.0044 -0.2012
  183SOL    HW1  548   2.995   0.759   1.958 -1.4533 -1.6984  1.8351
  183SOL    HW2  549   3.045   0.850   1.826 -0.1799 -0.8602  0.2117
  184SOL     OW  550   0.288   1.236   1.167  0.4628 -0.2323 -0.4301
  184SOL    HW1  551   0.255   1.274   1.256  1.3917 -1.0580  2.6049
  184SOL    HW2  552   0.350   1.155   1.183  3.3066 -1.8674  1.5518
  185SOL     OW  553   3.043   2.636   1.141  0.0599  0.1285 -0.4318
  185SOL    HW1  554   0.003   2.593   1.056 -1.4688  0.0256 -1.1126
  185SOL    HW2  555   0.031   2.618   1.218 -0.6451  0.4614  1.4403
  186SOL     OW  556   1.751   2.852   2.857  0.1623 -0.5123 -0.0198
  186SOL    HW1  557   1.747   2.917   2.777  1.1817 -3.6996  2.0477
  186SOL    HW2  558   1.820   2.873   2.928  0.8604 -1.4869  0.1526
  187SOL     OW  559   0.314   1.226   0.626 -0.7109 -0.2042  0.2126
  187SOL    HW1  560   0.321   1.150   0.557 -0.2508 -0.0819 -1.9733
  187SOL    HW2  561   0.401   1.228   0.685  4.5989  1.2952  1.0898
  188SOL     OW  562   1.831   1.793   0.162 -0.0420  0.1951  0.1884
  188SOL    HW1  563   1.780   1.752   0.084 -0.8637 -0.2034 -2.1263
  188SOL    HW2  564   1.921   1.827   0.130 -1.3599  0.7550 -1.5590
  189SOL     OW  565   0.023   1.591   3.004 -0.8237  0.0512 -0.0344
  189SOL    HW1  566   3.038   1.588   0.007  0.0369  1.0581 -1.4517
  189SOL    HW2  567   0.074   1.503   3.001  1.3598  1.4976  0.2870
  190SOL     OW  568   2.377   0.404   2.493 -0.0148 -0.1500  0.4490
  190SOL    HW1  569   2.418   0.342   2.563 -0.0731  0.1598 -0.3313
  190SOL    HW2  570   2.359   0.357   2.405 -0.0059  0.4625  0.7492
  191SOL     OW  571   0.689   1.106   1.893 -0.1725 -0.3203 -0.1232
  191SOL    HW1  572   0.695   1.085   1.993  0.5811  0.0495  1.5913
  191SOL    HW2  573   0.713   1.021   1.842  1.1208  0.4752  2.1755
  192SOL     OW  574   2.132   1.117   1.782  0.5641 -0.4668  0.1068
  192SOL    HW1  575   2.194   1.071   1.846 -1.2539 -0.4752  2.2652
  192SOL    HW2  576   2.148   1.082   1.691  3.4249 -0.9139  0.4250
  193SOL     OW  577   0.996   2.770   1.161 -0.2820  0.1151  0.7075
  193SOL    HW1  578   0.904   2.723   1.174 -2.4756  0.8749 -1.6722
  193SOL    HW2  579   0.983   2.864   1.121  1.5577  1.9715  0.0210
  194SOL     OW  580   1.513   1.729   1.320 -0.1960 -0.4226 -0.4018
  194SOL    HW1  581   1.503   1.711   1.220 -2.0095  2.2932  0.7341
  194SOL    HW2  582   1.487   1.827   1.339 -1.3044  2.8803  2.3013
  195SOL     OW  583   1.784   0.496   0.971 -0.5866  0.0575  0.7450
  195SOL    HW1  584   1.728   0.580   0.965 -2.3586  1.3403 -2.0347
  195SOL    HW2  585   1.879   0.518   0.998 -0.0203 -1.3896 -0.9744
  196SOL     OW  586   1.424   1.649   2.111 -0.3399  0.2313 -0.4043
  196SOL    HW1  587   1.411   1.742   2.066 -1.1214  1.8237 -1.7965
  196SOL    HW2  588   1.523   1.621   2.130  1.3494  0.4108 -0.0782
  197SOL     OW  589   2.435   3.010   2.637  0.3158  0.1272 -0.5760
  197SOL    HW1  590   2.473   3.008   2.540  2.5427  1.3095  1.8541
  197SOL    HW2  591   2.352   2.949   2.645 -2.8345 -3.2246 -2.2241
  198SOL     OW  592   2.771   0.516   0.818  0.0393  0.9887  0.2661
  198SOL    HW1  593   2.846   0.549   0.758 -1.0668  0.8918  1.1096
  198SOL    HW2  594   2.686   0.567   0.789 -0.9696 -0.4861 -0.1746
  199SOL     OW  595   0.644   1.802   1.027  0.0839 -0.5243  0.0056
  199SOL    HW1  596   0.635   1.856   0.942 -3.9340 -0.1502 -0.3900
  199SOL    HW2  597   0.703   1.850   1.100 -0.7123 -1.3660  0.1753
  200SOL     OW  598   2.906   1.892   0.124 -0.4404 -1.1180  0.1948
  200SOL    HW1  599   2.878   1.992   0.120  3.8002 -0.9715 -1.2715
  200SOL    HW2  600   2.913   1.863   0.227  2.3165  2.1136  1.0596
  201SOL     OW  601   1.251   2.327   1.606 -0.5199 -0.3589  0.1968
  201SOL    HW1  602   1.164   2.387   1.600  0.3826  0.3584 -1.5427
  201SOL    HW2  603   1.226   2.245   1.658 -0.1293  3.7652  1.5544
  202SOL     OW  604   1.108   3.004   0.018 -0.0441  0.0649 -0.1587
  202SOL    HW1  605   1.067   0.001   3.049  2.3672  0.5049 -1.9545
  202SOL    HW2  606   1.039   2.960   0.076 -0.3237  0.2981 -0.6755
  203SOL     OW  607   1.360   2.992   0.106 -0.2524 -0.0275 -0.1340
  203SOL    HW1  608   1.416   3.074   0.131 -0.6247  0.9288  1.5565
  203SOL    HW2  609   1.269   3.011   0.070  0.1243  2.2191 -0.8447
  204SOL     OW  610   0.701   1.688   1.295 -0.0735  0.4091  0.1965
  204SOL    HW1  611   0.649   1.702   1.208 -0.2735 -0.0734  3.9426
  204SOL    HW2  612   0.649   1.626   1.359  3.3447  1.4020  0.5727
  205SOL     OW  613   1.706   1.052   1.750  0.3213  0.4856 -0.5831
  205SOL    HW1  614   1.790   1.021   1.801  1.8426 -0.6127 -2.6480
  205SOL    HW2  615   1.624   1.043   1.812 -0.8743 -2.1664 -1.5318
  206SOL     OW  616   0.039   1.861   3.067  0.2477  1.0880  0.6554
  206SOL    HW1  617   0.044   1.764   3.031  0.6910 -0.1291 -0.6324
  206SOL    HW2  618   3.038   1.877   0.047  0.8205 -1.4088  0.6764
  207SOL     OW  619   0.424   2.211   2.142 -0.4085 -0.0643 -0.0243
  207SOL    HW1  620   0.487   2.152   2.092 -1.1158  3.8524 -1.1224
  207SOL    HW2  621   0.356   2.253   2.079  1.9905  2.3502  0.1251
  208SOL     OW  622   0.552   1.945   0.818  0.4466  0.0337 -0.8945
  208SOL    HW1  623   0.505   2.030   0.858 -0.0725 -0.1751  1.1836
  208SOL    HW2  624   0.483   1.886   0.775 -1.9505  1.3415  2.7384
  209SOL     OW  625   1.201   2.733   2.424  0.0305  0.0972  0.2746
  209SOL    HW1  626   1.232   2.814   2.372  0.1237 -0.7246  0.5237
  209SOL    HW2  627   1.201   2.749   2.525  1.1373 -1.1691 -0.9274
  210SOL     OW  628   2.722   1.372   1.746 -0.3381 -0.0292  0.2771
  210SOL    HW1  629   2.695   1.443   1.813  1.7249  0.7135  1.2488
  210SOL    HW2  630   2.743   1.286   1.792 -1.8866  0.5653 -0.2706
  211SOL     OW  631   1.297   0.281   2.004  0.1685 -0.9053 -0.3510
  211SOL    HW1  632   1.233   0.201   2.013 -2.5468  0.4554 -2.0992
  211SOL    HW2  633   1.383   0.276   2.057 -0.6896  0.1347 -0.3926
  212SOL     OW  634   1.633   2.672   1.884  0.4411  0.0865  0.4023
  212SOL    HW1  635   1.603   2.583   1.845 -0.5687  3.8394 -1.1851
  212SOL    HW2  636   1.639   2.738   1.811  1.5891 -1.7978  1.4042
  213SOL     OW  637   0.098   0.074   1.855  0.1704  0.1897  0.1670
  213SOL    HW1  638   0.114   0.143   1.783  2.4472  0.1989 -1.5021
  213SOL    HW2  639   0.035   0.111   1.931 -0.3573 -1.5793  0.2239
  214SOL     OW  640   1.010   2.025   1.281  0.1156  0.1430 -0.7363
  214SOL    HW1  641   1.003   2.018   1.384 -0.5419  0.9933  0.7264
  214SOL    HW2  642   1.060   1.945   1.240 -1.2591  0.2393 -0.0928
  215SOL     OW  643   2.653   2.409   0.734 -0.5441  0.0859  0.3370
  215SOL    HW1  644   2.564   2.422   0.789 -1.2274 -1.2615  0.3312
  215SOL    HW2  645   2.726   2.468   0.764  0.6934  0.0947 -0.5243
  216SOL     OW  646   0.156   0.779   1.796 -0.0194 -0.3200 -0.4026
  216SOL    HW1  647   0.220   0.861   1.804  2.3512 -0.0949 -0.3146
  216SOL    HW2  648   0.116   0.777   1.701  1.6047  2.5527  0.2828
  217SOL     OW  649   2.373   0.068   1.647 -0.1738  0.2183  0.1402
  217SOL    HW1  650   2.294   0.108   1.599  1.4432  0.3145  0.8548
  217SOL    HW2  651   2.410   3.068   1.601  0.6574  0.8418  1.7969
  218SOL     OW  652   1.897   2.416   1.488  0.1078 -0.4294  0.6445
  218SOL    HW1  653   1.942   2.358   1.419 -0.6825  0.7636 -1.9213
  218SOL    HW2  654   1.960   2.434   1.564  1.7744  1.6118  0.0993
  219SOL     OW  655   1.812   2.396   3.080 -0.6306 -0.5167  0.0856
  219SOL    HW1  656   1.845   2.393   2.982 -1.4121 -0.1274 -1.0632
  219SOL    HW2  657   1.813   2.299   0.039 -1.5803 -2.0617  0.3002
  220SOL     OW  658   1.476   3.007   0.470 -0.0523  0.4317  0.3352
  220SOL    HW1  659   1.493   2.941   0.392  0.9634 -1.2042 -1.2637
  220SOL    HW2  660   1.378   3.018   0.484 -0.2096 -1.5078  0.8784
  221SOL     OW  661   0.363   2.589   1.566  0.8035  0.2870 -0.6567
  221SOL    HW1  662   0.390   2.497   1.613  1.8994 -2.5935  0.6396
  221SOL    HW2  663   0.330   2.661   1.628 -2.5286 -0.8469 -0.3605
  222SOL     OW  664   1.960   2.729   1.251 -0.7532 -0.3219  0.3689
  222SOL    HW1  665   1.887   2.799   1.266  1.7132  0.3211  0.8203
  222SOL    HW2  666   2.041   2.750   1.309  1.2292 -0.0426 -1.9131
  223SOL     OW  667   1.285   0.294   1.461 -0.5463 -0.3810 -0.1863
  223SOL    HW1  668   1.307   0.362   1.536  0.6076  2.0066 -0.0101
  223SOL    HW2  669   1.203   0.327   1.408  0.1733  0.4868  1.2600
  224SOL     OW  670   2.889   2.213   1.329 -0.2953  0.0389 -0.5447
  224SOL    HW1  671   2.857   2.277   1.258  1.4067 -1.1222  0.0293
  224SOL    HW2  672   2.912   2.261   1.418  0.2011  1.2915  3.6228
  225SOL     OW  673   2.803   2.074   0.971  0.1193 -0.7434 -0.6712
  225SOL    HW1  674   2.740   2.127   1.029  0.0896  0.5087  2.3257
  225SOL    HW2  675   2.794   2.105   0.875 -0.0407  0.8020 -3.3540
  226SOL     OW  676   1.705   2.040   0.252  0.0814 -0.9576  0.0182
  226SOL    HW1  677   1.737   1.943   0.260  1.5622  0.6100 -2.6278
  226SOL    HW2  678   1.612   2.052   0.203 -2.3646 -0.7529 -2.0504
  227SOL     OW  679   1.837   1.246   0.591 -0.3326  0.0393 -0.1085
  227SOL    HW1  680   1.790   1.311   0.652 -0.7846 -1.5764  0.0347
  227SOL    HW2  681   1.817   1.143   0.616  2.2022 -4.1167  0.6966
  228SOL     OW  682   2.181   0.947   0.361  0.3332 -0.7107 -0.3016
  228SOL    HW1  683   2.183   0.850   0.329  0.4234 -0.6457 -0.5319
  228SOL    HW2  684   2.197   1.008   0.284  1.4563  0.8954 -1.4012
  229SOL     OW  685   2.759   1.147   1.899 -0.2324 -0.1633  0.5734
  229SOL    HW1  686   2.685   1.159   1.967 -1.1815 -3.3696 -2.6296
  229SOL    HW2  687   2.750   1.055   1.859  0.5699 -0.8779 -1.2400
  230SOL     OW  688   0.216   0.839   1.286  0.7613  0.1762 -0.6612
  230SOL    HW1  689   0.269   0.927   1.283 -3.3265 -0.3798  0.3221
  230SOL    HW2  690   0.282   0.759   1.302  2.5481 -2.0541 -2.5745
  231SOL     OW  691   1.719   0.518   2.753 -0.2057  0.4318  0.3402
  231SOL    HW1  692   1.632   0.504   2.705  2.1148  1.7858  1.6932
  231SOL    HW2  693   1.791   0.545   2.686  0.7076 -0.0801  1.4517
  232SOL     OW  694   0.137   1.628   1.098 -0.2307 -0.3259  0.1489
  232SOL    HW1  695   0.086   1.580   1.174 -0.4898 -0.4861 -2.3189
  232SOL    HW2  696   0.160   1.564   1.025 -1.6980  2.4141 -0.2633
  233SOL     OW  697   1.667   2.624   2.698 -0.5011  0.4114  0.6607
  233SOL    HW1  698   1.750   2.672   2.733 -1.3157 -2.3082  1.3593
  233SOL    HW2  699   1.587   2.685   2.673 -0.6186  1.0833 -2.2535
  234SOL     OW  700   1.393   2.691   1.462 -0.4028 -0.0097  0.6866
  234SOL    HW1  701   1.318   2.705   1.393 -1.3120  3.2869  1.4556
  234SOL    HW2  702   1.382   2.755   1.538 -2.0052 -1.6216 -2.6787
  235SOL     OW  703   0.852   1.392   1.500 -0.5473 -0.0581  0.0410
  235SOL    HW1  704   0.877   1.330   1.576 -0.0199 -1.7766  2.5217
  235SOL    HW2  705   0.932   1.414   1.436  1.3572 -0.4544 -3.6395
  236SOL     OW  706   0.479   2.762   2.600 -0.1084 -0.5750 -0.0163
  236SOL    HW1  707   0.561   2.709   2.583 -1.9702 -0.6963  0.8040
  236SOL    HW2  708   0.495   2.862   2.588 -0.0252  0.7849 -0.6919
  237SOL     OW  709   0.470   3.006   2.148  0.6348  0.3130  0.3850
  237SOL    HW1  710   0.566   3.002   2.177 -1.9375  1.8080  0.5079
  237SOL    HW2  711   0.460   2.993   2.046 -0.6728 -1.9974 -0.9911
  238SOL     OW  712   0.779   0.609   0.468  0.4048 -0.6573 -0.0889
  238SOL    HW1  713   0.742   0.517   0.483  2.1757 -2.2388 -0.5949
  238SOL    HW2  714   0.874   0.612   0.507 -1.3282  1.1211 -2.4721
  239SOL     OW  715   2.576   0.827   2.627  0.7072  0.7810  0.4047
  239SOL    HW1  716   2.535   0.848   2.535 -0.3539  1.6935 -1.3020
  239SOL    HW2  717   2.513   0.768   2.687  0.8213 -1.5524  1.0089
  240SOL     OW  718   3.000   2.353   0.953 -0.1408 -0.0120  0.4386
  240SOL    HW1  719   2.898   2.352   0.940  1.8467 -0.1431  1.6575
  240SOL    HW2  720   3.032   2.282   1.017 -0.2762  0.7013  0.5342
  241SOL     OW  721   1.238   1.986   0.766 -0.3225 -0.4694  0.0207
  241SOL    HW1  722   1.218   1.966   0.861  1.3747  2.5582 -3.6261
  241SOL    HW2  723   1.203   2.076   0.739 -1.2847 -1.9134  0.3986
  242SOL     OW  724   0.790   0.209   0.635 -0.3300 -0.0792 -0.5951
  242SOL    HW1  725   0.861   0.237   0.708  3.6338 -3.4829 -0.5101
  242SOL    HW2  726   0.693   0.220   0.668  1.0662 -1.2902  2.3466
  243SOL     OW  727   0.192   0.264   1.335  0.1046 -0.6369  0.4480
  243SOL    HW1  728   0.115   0.199   1.339  0.1688  1.4760 -1.3841
  243SOL    HW2  729   0.264   0.241   1.266 -1.0072  0.6955  1.2207
  244SOL     OW  730   0.597   2.812   0.483  0.1096 -0.3254 -0.7023
  244SOL    HW1  731   0.697   2.832   0.492 -0.1120  2.0205  0.8351
  244SOL    HW2  732   0.544   2.893   0.506 -0.4655 -1.8381 -2.3935
  245SOL     OW  733   2.771   0.904   0.103  0.0401  0.1536  0.3989
  245SOL    HW1  734   2.858   0.862   0.074 -0.1822 -0.0865  2.2108
  245SOL    HW2  735   2.744   0.979   0.041 -0.7792 -1.4498 -1.5172
  246SOL     OW  736   0.533   2.722   1.318 -0.3574  0.0728  0.3002
  246SOL    HW1  737   0.537   2.722   1.420  0.4424 -1.1404  0.7734
  246SOL    HW2  738   0.439   2.736   1.284  1.0644  1.6479 -2.5555
  247SOL     OW  739   0.879   0.141   2.094 -0.1084 -0.3935  0.0247
  247SOL    HW1  740   0.832   0.056   2.125  0.7388  0.7089  1.1401
  247SOL    HW2  741   0.827   0.196   2.026  0.3915  3.8091  3.0686
  248SOL     OW  742   0.471   1.823   2.054 -0.3219 -0.9891  0.7450
  248SOL    HW1  743   0.545   1.896   2.035  3.5694 -0.2636  3.1008
  248SOL    HW2  744   0.474   1.745   1.996  1.8283 -2.1912 -2.8632
  249SOL     OW  745   1.081   2.195   0.689  0.3372  0.1024 -0.7284
  249SOL    HW1  746   1.008   2.130   0.725  1.3631  0.5359  0.0238
  249SOL    HW2  747   1.080   2.260   0.766 -0.3390 -1.1766 -0.3989
  250SOL     OW  748   0.725   3.033   2.234 -0.4258  0.2422 -0.4017
  250SOL    HW1  749   0.736   2.937   2.267  0.5475  0.8971 -0.0662
  250SOL    HW2  750   0.733   0.017   2.315  1.0999 -0.8654 -0.2921
  251SOL     OW  751   2.769   2.066   1.753 -0.4667  0.4201 -0.5430
  251SOL    HW1  752   2.716   2.085   1.666  0.7318 -1.7045  3.6664
  251SOL    HW2  753   2.754   1.971   1.788  2.9905  0.3663  0.3155
  252SOL     OW  754   1.297   0.408   1.764 -0.1590  0.2473  0.2848
  252SOL    HW1  755   1.197   0.423   1.766 -0.6265  0.1914 -1.3907
  252SOL    HW2  756   1.324   0.376   1.858 -1.0973  1.1614  1.8443
  253SOL     OW  757   2.716   1.613   2.643 -0.0131 -0.2012  0.0971
  253SOL    HW1  758   2.712   1.531   2.586 -1.5144 -0.4387  2.2591
  253SOL    HW2  759   2.754   1.693   2.594  1.3893 -1.1360 -1.2934
  254SOL     OW  760   0.376   0.975   0.896  0.5593  0.3717 -0.1803
  254SOL    HW1  761   0.295   1.039   0.897 -0.3453 -0.4954  0.6744
  254SOL    HW2  762   0.411   0.947   0.986  0.7357  0.5305 -0.2958
  255SOL     OW  763   0.021   2.491   1.971 -0.5277  0.2806 -0.2057
  255SOL    HW1  764   3.042   2.446   2.038  0.4249  0.2421  0.3073
  255SOL    HW2  765   3.054   2.561   1.917  0.5666 -3.6334  1.1229
  256SOL     OW  766   0.240   2.854   0.279  0.1789 -0.0328 -0.1577
  256SOL    HW1  767   0.313   2.927   0.295 -2.1379  3.6130 -1.2061
  256SOL    HW2  768   0.254   2.805   0.190  1.9663  0.4364 -2.2590
  257SOL     OW  769   1.368   2.234   2.709 -0.1575 -0.1417  0.3593
  257SOL    HW1  770   1.456   2.286   2.707  2.3772  0.5036  1.5361
  257SOL    HW2  771   1.289   2.300   2.710 -0.6138  1.3273  2.6309
  258SOL     OW  772   1.924   1.731   2.100 -0.5015 -0.2717  0.2987
  258SOL    HW1  773   1.842   1.669   2.100 -0.0193 -0.2979 -1.7696
  258SOL    HW2  774   1.983   1.709   2.020  0.9469  2.0195 -0.3731
  259SOL     OW  775   0.537   0.710   2.196 -0.4428  0.0136  0.0611
  259SOL    HW1  776   0.573   0.801   2.155 -0.0589  2.4610 -0.2758
  259SOL    HW2  777   0.597   0.627   2.181  2.4032  1.9294  2.8873
  260SOL     OW  778   2.607   0.744   3.020 -0.5178 -0.0468  0.0492
  260SOL    HW1  779   2.625   0.644   3.027  2.2142 -0.7181 -2.5526
  260SOL    HW2  780   2.674   0.803   3.071  1.3514 -4.3061  0.4578
  261SOL     OW  781   0.790   1.035   0.701  0.7376  0.2877  0.4475
  261SOL    HW1  782   0.861   0.985   0.644  1.4747 -1.8434 -0.8935
  261SOL    HW2  783   0.831   1.115   0.758 -0.7986  0.1781 -1.7769
  262SOL     OW  784   1.808   2.232   2.090  0.1265  0.0571 -0.0175
  262SOL    HW1  785   1.728   2.218   2.154 -0.4077 -1.4973 -0.1051
  262SOL    HW2  786   1.869   2.153   2.105  4.9360  1.7768 -0.0682
  263SOL     OW  787   1.234   2.699   1.256  0.0800  0.3151 -0.6170
  263SOL    HW1  788   1.145   2.731   1.243  1.8083 -2.1280  2.1622
  263SOL    HW2  789   1.272   2.679   1.164 -1.1708  2.8791  0.9820
  264SOL     OW  790   2.969   1.853   0.750 -0.2316 -0.7866  0.7793
  264SOL    HW1  791   3.006   1.920   0.815 -3.3056 -1.9294 -1.7192
  264SOL    HW2  792   2.961   1.769   0.802  0.1808 -0.0526 -2.7577
  265SOL     OW  793   1.940   1.459   2.649  0.2478 -0.0271 -0.2790
  265SOL    HW1  794   1.951   1.434   2.551  1.8710  0.2754  0.2766
  265SOL    HW2  795   2.001   1.531   2.687 -4.2087 -0.8064 -1.6090
  266SOL     OW  796   1.561   1.926   2.042  0.3147 -0.0400 -0.4833
  266SOL    HW1  797   1.603   1.876   1.958  1.6203 -1.4534 -0.3638
  266SOL    HW2  798   1.607   1.902   2.130 -1.1955  0.8771 -2.4699
  267SOL     OW  799   1.673   0.477   2.271  0.1224 -0.1433 -0.4572
  267SOL    HW1  800   1.661   0.411   2.349 -0.2620 -0.1342  0.6576
  267SOL    HW2  801   1.585   0.525   2.251 -1.9103  3.0351 -1.0308
  268SOL     OW  802   0.947   1.015   2.814 -0.1906  0.6380 -0.6705
  268SOL    HW1  803   0.962   1.110   2.788 -0.0534  0.6271  0.4122
  268SOL    HW2  804   0.898   0.957   2.744  0.8383 -3.6255 -0.6024
  269SOL     OW  805   3.049   2.139   2.226 -0.4146 -0.0796 -0.2563
  269SOL    HW1  806   0.068   2.125   2.251 -1.8014  1.5999  2.9171
  269SOL    HW2  807   3.021   2.073   2.155  1.1805 -0.2201 -0.8460
  270SOL     OW  808   2.920   1.565   0.128 -0.0197  0.6233 -0.3727
  270SOL    HW1  809   2.878   1.472   0.121 -1.4301  1.2926 -0.7819
  270SOL    HW2  810   2.843   1.626   0.118  1.0227 -3.9158 -2.3512
  271SOL     OW  811   0.753   0.312   0.379  0.3064 -0.6362 -0.4468
  271SOL    HW1  812   0.784   0.299   0.474  1.9710  2.4967 -0.5438
  271SOL    HW2  813   0.824   0.273   0.319 -1.4921 -0.9444  0.8852
  272SOL     OW  814   2.858   0.217   0.249 -0.1764  0.0329 -0.2473
  272SOL    HW1  815   2.787   0.143   0.246 -0.0665  0.0915 -1.8889
  272SOL    HW2  816   2.901   0.225   0.344  2.2457 -0.7704  2.2721
  273SOL     OW  817   0.254   2.860   2.208  0.2146 -0.2208 -0.3590
  273SOL    HW1  818   0.268   2.759   2.189  0.0204 -2.0027 -1.8638
  273SOL    HW2  819   0.344   2.908   2.192  2.9819 -0.1014  0.2699
  274SOL     OW  820   3.031   0.113   1.375  0.2694 -0.6510 -0.0994
  274SOL    HW1  821   2.976   0.183   1.430 -0.3882  4.5036  3.1258
  274SOL    HW2  822   3.014   0.135   1.275 -0.4464 -0.5968 -2.6910
  275SOL     OW  823   1.205   1.834   1.226  0.0125  0.7838 -0.4467
  275SOL    HW1  824   1.150   1.801   1.307 -1.4519 -0.0117 -1.6681
  275SOL    HW2  825   1.206   1.759   1.151  1.6572 -0.9024 -2.4629
  276SOL     OW  826   0.326   1.325   2.103  0.1371 -0.4066 -0.0388
  276SOL    HW1  827   0.274   1.236   2.106  0.0749  2.7835  0.5601
  276SOL    HW2  828   0.314   1.381   2.186  1.1819 -3.8416  0.7826
  277SOL     OW  829   1.297   2.334   2.046  0.1590 -0.2551 -0.4753
  277SOL    HW1  830   1.344   2.328   1.957 -2.2642  0.5871 -1.5332
  277SOL    HW2  831   1.317   2.256   2.104  0.4580  0.4999  0.5236
  278SOL     OW  832   1.864   2.879   2.400 -0.2635  0.0465  0.1493
  278SOL    HW1  833   1.948   2.828   2.425  0.4080  0.9824 -1.9100
  278SOL    HW2  834   1.861   2.899   2.298  0.2849 -0.6444  0.1693
  279SOL     OW  835   1.499   1.354   0.047 -0.5152 -0.0652  0.6207
  279SOL    HW1  836   1.556   1.289   3.071  1.1188 -1.2590  0.2752
  279SOL    HW2  837   1.505   1.449   0.011 -0.2591 -2.1345 -0.4729
  280SOL     OW  838   1.009   0.713   1.043 -0.1324  0.0207 -0.0975
  280SOL    HW1  839   1.011   0.813   1.032  1.2060 -3.2677  0.5839
  280SOL    HW2  840   1.093   0.671   1.000  1.1318  0.6183 -0.8346
  281SOL     OW  841   2.701   0.422   1.927  0.2081 -0.5000  0.1074
  281SOL    HW1  842   2.675   0.417   2.027  1.6378  2.7282  3.3057
  281SOL    HW2  843   2.622   0.391   1.872 -2.6844  1.2594 -0.2116
  282SOL     OW  844   0.239   2.943   0.658 -0.0750  0.0996 -0.2701
  282SOL    HW1  845   0.198   2.854   0.635 -0.2970  1.3732 -0.0428
  282SOL    HW2  846   0.256   2.955   0.759 -2.7186  2.1352  1.3353
  283SOL     OW  847   1.263   2.071   1.749  0.5428 -0.4672  0.0015
  283SOL    HW1  848   1.350   2.110   1.788  1.6360 -1.5770  0.8438
  283SOL    HW2  849   1.270   1.977   1.764  3.3498  3.7133 -1.9916
  284SOL     OW  850   2.172   2.630   1.511  0.3027  0.0516 -0.9076
  284SOL    HW1  851   2.140   2.566   1.579 -0.8502 -0.2597 -1.4870
  284SOL    HW2  852   2.193   2.580   1.422  2.0364 -1.1164 -3.4003
  285SOL     OW  853   0.994   1.693   1.346  0.5098 -0.1313 -0.0301
  285SOL    HW1  854   1.016   1.665   1.444 -1.3004  0.6703  2.0909
  285SOL    HW2  855   0.896   1.721   1.335 -0.5699  0.0476 -0.9389
  286SOL     OW  856   0.016   2.837   2.068 -0.7077  0.1841 -0.5045
  286SOL    HW1  857   3.016   2.862   2.123 -0.3150  0.7217 -1.7921
  286SOL    HW2  858   0.097   2.844   2.131  0.2364 -0.3404  0.5385
  287SOL     OW  859   0.542   0.962   0.667  0.2778  0.0123 -0.2638
  287SOL    HW1  860   0.639   0.983   0.690  0.6046 -0.8544 -1.0780
  287SOL    HW2  861   0.477   0.974   0.738  0.6755 -0.4585 -2.0293
  288SOL     OW  862   1.458   2.029   0.142 -0.6773 -0.4601  0.0772
  288SOL    HW1  863   1.453   2.054   0.045  1.4756  1.6398  1.8432
  288SOL    HW2  864   1.426   1.936   0.152  1.1728  1.7546  0.3559
  289SOL     OW  865   1.868   1.111   2.425 -0.0979 -0.0775 -0.6276
  289SOL    HW1  866   1.797   1.178   2.389  0.5504  0.7083 -1.1633
  289SOL    HW2  867   1.921   1.073   2.346  2.5434 -1.4762 -1.7093
  290SOL     OW  868   2.007   1.868   0.659  0.1396  0.4778 -0.0717
  290SOL    HW1  869   1.986   1.823   0.570 -0.3594  0.9982 -1.1767
  290SOL    HW2  870   1.953   1.957   0.653 -1.3857 -0.4605  1.1765
  291SOL     OW  871   1.454   0.894   2.881  0.9940 -0.8143 -0.0878
  291SOL    HW1  872   1.394   0.949   2.939  1.4236 -1.4921  0.9285
  291SOL    HW2  873   1.540   0.943   2.854 -0.1931  2.9262 -1.2359
  292SOL     OW  874   2.021   1.655   0.822  0.0714  0.5186  0.5025
  292SOL    HW1  875   2.074   1.576   0.774  0.0432 -3.2158 -0.5026
  292SOL    HW2  876   2.015   1.730   0.758 -1.5358  0.2876  1.0195
  293SOL     OW  877   1.539   0.029   1.204  0.5433 -0.3077 -0.5074
  293SOL    HW1  878   1.525   0.127   1.224 -2.9161 -1.2539 -0.2118
  293SOL    HW2  879   1.449   3.063   1.187  0.6785  0.7952 -1.3537
  294SOL     OW  880   3.017   0.575   3.022  0.3218 -0.3607  0.2768
  294SOL    HW1  881   2.999   0.499   2.956  0.4582 -1.3139  2.8947
  294SOL    HW2  882   2.972   0.570   0.036 -0.9687  0.9994  0.9754
  295SOL     OW  883   2.366   1.719   2.114 -0.1368 -0.1398  0.0033
  295SOL    HW1  884   2.311   1.636   2.092  2.3439 -2.2897 -1.3006
  295SOL    HW2  885   2.463   1.702   2.119 -2.3327  2.1700  0.6708
  296SOL     OW  886   1.654   2.032   1.081  0.2427  0.7822  0.0863
  296SOL    HW1  887   1.602   1.960   1.032  1.4524  0.3129  1.4494
  296SOL    HW2  888   1.710   1.999   1.160 -1.6213  0.0149 -0.4624
  297SOL     OW  889   0.345   0.567   2.754  0.5080  1.2491  0.2983
  297SOL    HW1  890   0.362   0.659   2.712 -0.3591  0.9924 -1.5103
  297SOL    HW2  891   0.283   0.577   2.828  1.9573 -1.4350 -2.6970
  298SOL     OW  892   1.394   2.826   1.712 -0.5109  0.1901  0.1999
  298SOL    HW1  893   1.360   2.893   1.781 -2.6992 -1.1577  1.2556
  298SOL    HW2  894   1.489   2.849   1.679 -0.1673 -2.1487  2.6766
  299SOL     OW  895   1.078   0.669   2.520 -0.2184  0.0399 -0.5640
  299SOL    HW1  896   1.071   0.689   2.621 -0.6317 -1.5750  1.3593
  299SOL    HW2  897   1.102   0.569   2.503 -1.2983 -1.7850  1.8374
  300SOL     OW  898   2.275   1.575   0.074  0.7031 -0.3845 -0.1776
  300SOL    HW1  899   2.361   1.557   0.127  0.7212  1.6909 -3.5875
  300SOL    HW2  900   2.222   1.496   0.039  0.5097  1.1359  0.4482
  301SOL     OW  901   2.072   0.348   2.418 -0.1934  0.5195 -0.2759
  301SOL    HW1  902   2.093   0.263   2.469  0.2258  0.0628  0.9175
  301SOL    HW2  903   2.137   0.414   2.452 -2.9145  0.3482  1.3644
  302SOL     OW  904   2.535   1.578   2.830 -0.2965  0.4805  0.3399
  302SOL    HW1  905   2.573   1.501   2.887  0.0065 -4.5103 -0.4511
  302SOL    HW2  906   2.605   1.619   2.762  1.2763 -2.0084 -2.4390
  303SOL     OW  907   0.275   2.559   2.391 -0.6157 -0.1559 -0.1055
  303SOL    HW1  908   0.205   2.609   2.451  0.3609  2.8183 -2.1450
  303SOL    HW2  909   0.279   2.460   2.419  1.8512 -2.1890 -1.1075
  304SOL     OW  910   2.676   0.888   0.890 -0.2425  0.0982 -0.1271
  304SOL    HW1  911   2.749   0.947   0.847  2.3157 -1.1857  0.7392
  304SOL    HW2  912   2.664   0.804   0.839  0.3609  1.2641  2.2049
  305SOL     OW  913   3.009   0.136   2.043  0.5561 -0.0905  0.2709
  305SOL    HW1  914   2.975   0.227   2.004 -0.4048  1.8457  0.5245
  305SOL    HW2  915   3.058   0.143   2.131  2.8849 -3.2140 -1.4318
  306SOL     OW  916   1.791   2.160   0.892 -0.0112 -0.3241  0.0878
  306SOL    HW1  917   1.751   2.104   0.970  2.9502 -1.3411  0.4071
  306SOL    HW2  918   1.786   2.116   0.804 -0.7439 -0.0031  2.5478
  307SOL     OW  919   3.031   0.285   1.124 -0.4913  0.3395  0.5009
  307SOL    HW1  920   2.974   0.274   1.042  1.0576  2.7592  0.0114
  307SOL    HW2  921   0.047   0.287   1.095  1.5919  1.9344  1.2190
  308SOL     OW  922   0.011   1.800   2.583  0.5482 -0.3571  0.0276
  308SOL    HW1  923   3.043   1.727   2.529 -0.4585 -0.1563  1.4962
  308SOL    HW2  924   3.052   1.817   2.674 -0.0805 -0.7076  3.3971
  309SOL     OW  925   0.506   1.948   2.933  0.1703  0.5332  0.0050
  309SOL    HW1  926   0.529   1.866   2.885  0.2598  2.7536 -0.4736
  309SOL    HW2  927   0.410   1.985   2.908 -1.2364  0.9475  0.8774
  310SOL     OW  928   2.341   0.692   2.757  0.6775 -1.2383 -0.0998
  310SOL    HW1  929   2.271   0.687   2.685  1.1338  2.2070 -1.1731
  310SOL    HW2  930   2.345   0.604   2.814  1.9356 -0.8241  2.4434
  311SOL     OW  931   1.920   1.304   3.024  0.3922 -0.2319 -0.6308
  311SOL    HW1  932   1.820   1.266   3.016 -3.1713  0.2619 -0.6242
  311SOL    HW2  933   1.968   1.242   0.006  0.8100 -0.2322  0.7472
  312SOL     OW  934   1.007   1.175   1.960 -0.4520 -0.0922 -0.1534
  312SOL    HW1  935   0.937   1.197   2.033  0.2778  1.5043  2.0242
  312SOL    HW2  936   1.002   1.077   1.938 -0.9473  2.7664  0.6277
  313SOL     OW  937   0.768   0.004   0.462 -0.3906  0.1184  0.6560
  313SOL    HW1  938   0.774   0.089   0.513 -1.2751  0.6754 -1.1568
  313SOL    HW2  939   0.772   0.021   0.362  1.6405  2.1076  1.8025
  314SOL     OW  940   0.678   1.942   1.465 -0.1654  0.2364  0.2325
  314SOL    HW1  941   0.721   1.893   1.388  0.6375  0.2577  2.1906
  314SOL    HW2  942   0.706   1.903   1.558 -0.0949 -2.2921 -2.8728
  315SOL     OW  943   1.551   2.167   1.574  0.4081  0.6900  0.2829
  315SOL    HW1  944   1.531   2.161   1.674  0.1194  1.7548 -1.7225
  315SOL    HW2  945   1.526   2.257   1.540 -1.6936  0.1403  2.4147
  316SOL     OW  946   0.482   2.376   0.111 -0.1800 -0.4939 -0.3638
  316SOL    HW1  947   0.418   2.314   0.059 -2.8132 -0.8729 -0.2489
  316SOL    HW2  948   0.455   2.397   0.206  1.6673  2.1488  0.0897
  317SOL     OW  949   2.457   0.285   0.906  0.2482  0.4257 -0.1357
  317SOL    HW1  950   2.379   0.316   0.964 -0.0927 -0.9085 -1.9019
  317SOL    HW2  951   2.513   0.220   0.959 -1.6040 -0.8067 -0.7666
  318SOL     OW  952   0.815   2.530   0.701  0.0488  0.2073 -0.1928
  318SOL    HW1  953   0.763   2.551   0.789 -0.6069 -0.2901  1.0619
  318SOL    HW2  954   0.759   2.468   0.642  0.5327 -2.0569  0.7493
  319SOL     OW  955   1.302   0.399   2.751  0.5886  0.0268  0.6114
  319SOL    HW1  956   1.302   0.325   2.822  0.6375 -0.8933  1.0200
  319SOL    HW2  957   1.296   0.487   2.804  1.8841  2.0513  1.9870
  320SOL     OW  958   2.194   1.623   1.650 -0.0147 -0.8110  0.1399
  320SOL    HW1  959   2.259   1.548   1.647 -0.2679 -1.3226 -1.1182
  320SOL    HW2  960   2.104   1.596   1.605 -1.9329  0.9911  1.6774
  321SOL     OW  961   3.037   3.009   3.000 -0.0446 -0.0044 -0.5072
  321SOL    HW1  962   3.031   0.027   3.033 -1.1630  0.0997 -0.9149
  321SOL    HW2  963   2.948   2.959   3.020 -0.0469 -0.9973  1.1442
  322SOL     OW  964   2.338   1.094   1.135 -0.2654 -0.2399 -0.2616
  322SOL    HW1  965   2.373   1.005   1.107  2.2284  3.2077  0.2704
  322SOL    HW2  966   2.416   1.144   1.176 -2.2224 -0.2986  1.0160
  323SOL     OW  967   2.163   1.745   0.257 -0.3966 -0.1220 -0.8362
  323SOL    HW1  968   2.105   1.715   0.333 -1.5960  0.4394 -1.7153
  323SOL    HW2  969   2.162   1.672   0.183 -0.5288 -0.4617  0.3717
  324SOL     OW  970   2.644   0.329   1.241  0.3663 -0.9102 -0.3772
  324SOL    HW1  971   2.634   0.263   1.164 -2.6105 -0.2399  1.4224
  324SOL    HW2  972   2.671   0.413   1.186 -0.7505 -1.7685 -1.0761
  325SOL     OW  973   2.573   2.766   0.849 -0.1343  0.9180 -0.2106
  325SOL    HW1  974   2.495   2.774   0.915  0.7800  1.7749 -1.1482
  325SOL    HW2  975   2.535   2.751   0.753  1.7715  0.5368  0.3887
  326SOL     OW  976   1.208   2.708   0.472 -0.1954 -0.2901  0.1393
  326SOL    HW1  977   1.199   2.791   0.412 -1.0346  0.7667  1.2268
  326SOL    HW2  978   1.253   2.631   0.420  0.7026 -1.9240 -1.8104
  327SOL     OW  979   2.108   2.424   0.273  0.2414  0.0405  0.2369
  327SOL    HW1  980   2.106   2.352   0.204  1.4102 -0.7670 -0.8665
  327SOL    HW2  981   2.103   2.520   0.229 -0.6567  1.8290 -1.3255
  328SOL     OW  982   2.531   2.436   1.750 -0.5627 -0.2406 -0.4231
  328SOL    HW1  983   2.607   2.436   1.816  2.9606 -1.2311  0.8649
  328SOL    HW2  984   2.446   2.481   1.784 -0.9852 -1.9258 -0.5230
  329SOL     OW  985   0.387   2.199   0.844  0.0196 -0.1385  0.1030
  329SOL    HW1  986   0.419   2.296   0.840 -0.6816  0.3584 -1.9698
  329SOL    HW2  987   0.337   2.185   0.755 -0.0014  0.4619  0.9100
  330SOL     OW  988   2.356   0.804   1.587 -0.2264  0.1560 -0.1080
  330SOL    HW1  989   2.432   0.761   1.530  2.3642 -0.0902 -3.1422
  330SOL    HW2  990   2.287   0.733   1.618  0.9645  0.6470  1.2905
  331SOL     OW  991   2.607   1.650   0.782 -0.2366 -0.0988 -0.0578
  331SOL    HW1  992   2.623   1.595   0.870  1.3812 -2.7278  0.8988
  331SOL    HW2  993   2.571   1.742   0.802 -0.1594  0.0959  1.0181
  332SOL     OW  994   0.131   2.620   1.363 -0.0961 -0.1607 -0.3059
  332SOL    HW1  995   0.215   2.595   1.412 -3.5182 -2.0596 -0.3247
  332SOL    HW2  996   0.048   2.632   1.423 -3.2692  0.7865  0.1714
  333SOL     OW  997   0.145   1.650   1.664 -0.0971  0.2329  0.0132
  333SOL    HW1  998   0.235   1.696   1.664 -1.9807 -1.2700 -1.8567
  333SOL    HW2  999   0.145   1.559   1.628  1.4154  0.1477 -0.7160
  334SOL     OW 1000   0.297   0.433   1.507  0.0616 -0.1839  0.1506
  334SOL    HW1 1001   0.279   0.410   1.604 -3.3441 -0.4843  3.0654
  334SOL    HW2 1002   0.254   0.364   1.445 -1.7018  0.9253  1.2991
  335SOL     OW 1003   2.866   1.731   1.901  0.0392  0.3249  0.2680
  335SOL    HW1 1004   2.916   1.720   1.815 -0.7486 -0.1917 -0.3709
  335SOL    HW2 1005   2.769   1.698   1.899  0.2772  0.1533  0.8028
  336SOL     OW 1006   1.945   2.956   3.010 -0.1992 -0.0284 -0.1721
  336SOL    HW1 1007   2.012   3.031   2.989  2.3609  0.8187  2.6608
  336SOL    HW2 1008   1.978   2.893   0.001 -2.4403 -0.5616 -1.9711
  337SOL     OW 1009   0.562   0.412   1.474 -0.0712 -0.2385 -0.5441
  337SOL    HW1 1010   0.550   0.383   1.377  2.0081  1.6514  2.6521
  337SOL    HW2 1011   0.473   0.407   1.524  0.7979 -0.2928 -2.0525
  338SOL     OW 1012   1.800   2.447   0.892 -0.1947 -0.1952 -0.5101
  338SOL    HW1 1013   1.771   2.347   0.886  0.3410  1.5164  0.1640
  338SOL    HW2 1014   1.789   2.486   0.988  0.7472  2.0743  0.0495
  339SOL     OW 1015   0.376   1.692   1.200 -0.1684  0.1764 -0.7620
  339SOL    HW1 1016   0.283   1.667   1.165 -3.6322 -0.6083  0.1353
  339SOL    HW2 1017   0.403   1.788   1.174 -1.2137  2.1319 -0.3357
  340SOL     OW 1018   0.048   3.007   2.338  0.2061 -0.2365 -0.1509
  340SOL    HW1 1019   0.119   2.956   2.288 -2.6484  0.2541  1.5501
  340SOL    HW2 1020   0.077   3.033   2.432 -0.1494  0.4418 -2.0396
  341SOL     OW 1021   2.551   1.318   0.567  0.2394  0.3922  0.5674
  341SOL    HW1 1022   2.496   1.389   0.614  0.8262 -0.4902  2.1950
  341SOL    HW2 1023   2.628   1.364   0.525  1.7357 -0.2117 -1.1673
  342SOL     OW 1024   1.900   2.134   0.628  0.3345 -0.0471  0.2349
  342SOL    HW1 1025   1.818   2.144   0.567  0.6672 -1.2129 -0.1698
  342SOL    HW2 1026   1.952   2.220   0.626  1.2525 -3.3469 -0.4073
  343SOL     OW 1027   1.939   0.567   0.678 -0.6353  0.7974 -0.3246
  343SOL    HW1 1028   1.956   0.547   0.772  0.1529  0.1327 -0.9347
  343SOL    HW2 1029   2.000   0.505   0.616  1.5393 -2.1082 -4.1954
  344SOL     OW 1030   2.356   0.208   2.907  0.2072 -0.3712  0.3440
  344SOL    HW1 1031   2.416   0.202   2.992 -0.6106 -1.9839  0.9513
  344SOL    HW2 1032   2.263   0.170   2.938  2.3889  1.5344  0.7199
  345SOL     OW 1033   1.149   0.120   1.101  0.0053 -0.0571 -0.0823
  345SOL    HW1 1034   1.204   0.058   1.164  0.7664 -1.0951 -0.5603
  345SOL    HW2 1035   1.054   0.081   1.091 -2.4309  1.9355 -1.8062
  346SOL     OW 1036   2.072   2.512   1.738  0.1193 -0.1922 -0.3088
  346SOL    HW1 1037   2.080   2.416   1.760 -1.3200  1.1317 -2.8481
  346SOL    HW2 1038   2.000   2.557   1.791  1.9300 -0.0131 -0.0755
  347SOL     OW 1039   2.773   0.076   0.771  0.0190 -0.7025 -0.6077
  347SOL    HW1 1040   2.819   0.030   0.691  1.9698 -4.1129 -0.5131
  347SOL    HW2 1041   2.726   0.008   0.836 -0.5973 -1.2555  0.0897
  348SOL     OW 1042   0.422   1.036   1.271 -0.1787 -0.0682  0.4561
  348SOL    HW1 1043   0.461   0.961   1.215  1.5020 -3.4627 -2.0628
  348SOL    HW2 1044   0.469   1.060   1.360  2.7742  2.6800 -0.9360
  349SOL     OW 1045   2.122   0.067   2.952 -0.4956 -0.0252 -0.2028
  349SOL    HW1 1046   2.104   0.037   2.856  1.5171  0.4983 -3.3598
  349SOL    HW2 1047   2.051   0.123   2.997  2.4872 -1.1513 -1.5826
  350SOL     OW 1048   2.766   2.129   0.128 -0.2107  0.0173 -0.3376
  350SOL    HW1 1049   2.701   2.142   0.209  0.3555 -1.1417  1.6941
  350SOL    HW2 1050   2.741   2.195   0.054 -1.5427 -0.1784 -0.4592
  351SOL     OW 1051   0.945   0.290   0.847 -0.6071  0.3115 -0.3920
  351SOL    HW1 1052   1.027   0.231   0.829 -2.0301 -1.6926  0.3529
  351SOL    HW2 1053   0.968   0.386   0.837 -0.3837 -1.3810  2.3018
  352SOL     OW 1054   1.942   2.156   2.650  0.7408 -0.5509 -0.0515
  352SOL    HW1 1055   1.971   2.065   2.688 -2.6310 -1.6548 -0.9864
  352SOL    HW2 1056   1.962   2.159   2.547  2.1961  2.0688 -0.7283
  353SOL     OW 1057   0.884   0.781   0.302  0.0948 -0.0825  0.0898
  353SOL    HW1 1058   0.851   0.721   0.378  1.9668 -0.9025 -4.2949
  353SOL    HW2 1059   0.799   0.813   0.251  0.5416 -2.9358 -0.1780
  354SOL     OW 1060   0.615   2.138   2.761 -0.2236  0.1240 -0.1985
  354SOL    HW1 1061   0.546   2.163   2.692 -0.9647  1.2731  0.5805
  354SOL    HW2 1062   0.583   2.077   2.835  1.4315 -2.0879 -0.4533
  355SOL     OW 1063   2.829   2.618   2.300  0.1393 -0.6128 -0.1954
  355SOL    HW1 1064   2.854   2.577   2.391  0.5266 -2.1770  0.2759
  355SOL    HW2 1065   2.863   2.717   2.300  2.0913  1.2355  0.1268
  356SOL     OW 1066   2.580   0.680   0.729 -0.0415  0.7952 -0.1726
  356SOL    HW1 1067   2.556   0.765   0.679  0.4300  0.1311  1.9317
  356SOL    HW2 1068   2.542   0.595   0.684  2.5084 -3.5970  0.4795
  357SOL     OW 1069   2.269   0.349   1.086 -0.1361 -0.0426  0.1268
  357SOL    HW1 1070   2.267   0.260   1.137 -0.0051 -2.4480  0.0686
  357SOL    HW2 1071   2.183   0.383   1.045  0.7499  1.2942  1.6526
  358SOL     OW 1072   1.243   3.037   1.786 -0.3272  0.8210 -0.3310
  358SOL    HW1 1073   1.245   0.011   1.698 -2.0131  1.2561 -0.3306
  358SOL    HW2 1074   1.204   0.012   1.861  0.8366 -1.1470  2.4834
  359SOL     OW 1075   2.895   2.193   2.694  0.2252 -0.1339  0.3881
  359SOL    HW1 1076   2.946   2.194   2.607 -2.7769 -1.6881 -0.2838
  359SOL    HW2 1077   2.871   2.099   2.715  1.4435  0.1268  1.0284
  360SOL     OW 1078   0.577   1.059   1.480 -0.5388 -0.4780  0.4716
  360SOL    HW1 1079   0.555   1.110   1.569  0.7188  0.2958  1.9878
  360SOL    HW2 1080   0.666   1.080   1.430  1.9901  3.6715  0.5899
  361SOL     OW 1081   2.335   2.758   0.409 -0.2762 -0.8528 -0.1578
  361SOL    HW1 1082   2.262   2.826   0.380  0.3505  2.5393 -0.1442
  361SOL    HW2 1083   2.396   2.738   0.332 -0.2321 -0.1684 -1.4941
  362SOL     OW 1084   0.091   2.713   0.686  0.0313 -0.3167  0.7132
  362SOL    HW1 1085   0.136   2.670   0.769 -1.0774  2.6036 -3.3302
  362SOL    HW2 1086   3.070   2.706   0.690  1.6035  0.3683  1.3979
  363SOL     OW 1087   0.808   1.595   0.931  0.1374  0.6102 -0.1351
  363SOL    HW1 1088   0.881   1.581   0.999 -2.1799 -0.6600 -0.9168
  363SOL    HW2 1089   0.738   1.669   0.952 -0.5739 -1.5631 -0.6257
  364SOL     OW 1090   1.020   1.517   1.134  0.3174  0.4837 -0.0344
  364SOL    HW1 1091   1.018   1.586   1.208 -2.4402  1.2902  0.4808
  364SOL    HW2 1092   0.992   1.425   1.170  2.6775  0.4074 -1.2901
  365SOL     OW 1093   2.397   1.716   0.404 -0.1730  0.6139 -0.2216
  365SOL    HW1 1094   2.315   1.755   0.360  0.0187  2.3313  0.2748
  365SOL    HW2 1095   2.469   1.786   0.416 -0.2524 -0.6319  2.0156
  366SOL     OW 1096   2.968   1.703   0.992  0.0972  0.4579  0.0204
  366SOL    HW1 1097   3.064   1.672   1.004 -2.8272 -1.5663  2.5219
  366SOL    HW2 1098   2.939   1.781   1.051  1.5382  0.1050 -2.8226
  367SOL     OW 1099   2.346   1.926   1.883 -0.0166 -0.0495  0.5989
  367SOL    HW1 1100   2.411   1.857   1.923 -0.2700  0.0812 -0.9196
  367SOL    HW2 1101   2.390   1.973   1.805 -2.0611 -0.2171  2.8586
  368SOL     OW 1102   2.550   1.226   1.245 -0.1293  0.7665  0.1245
  368SOL    HW1 1103   2.524   1.214   1.348 -0.8086  0.6036  3.0116
  368SOL    HW2 1104   2.630   1.170   1.221 -0.8727  1.1479  0.2283
  369SOL     OW 1105   2.133   2.692   0.172 -0.2353 -0.1887  0.8008
  369SOL    HW1 1106   2.101   2.779   0.215 -1.6775 -1.8331 -3.2216
  369SOL    HW2 1107   2.059   2.671   0.103  0.2385  1.1486 -0.9107
  370SOL     OW 1108   2.797   2.466   1.208 -0.6862  0.0987  0.3491
  370SOL    HW1 1109   2.749   2.540   1.260  0.5033 -0.6860 -0.8471
  370SOL    HW2 1110   2.889   2.493   1.185 -1.5467 -0.7705  1.4329
  371SOL     OW 1111   0.887   1.664   2.475  0.3861  0.3977 -0.4969
  371SOL    HW1 1112   0.963   1.714   2.429  0.8443  0.8588 -1.5542
  371SOL    HW2 1113   0.796   1.717   2.474  0.0853  1.4458 -1.9932
  372SOL     OW 1114   0.919   1.257   0.376  0.6229 -0.1667 -0.0936
  372SOL    HW1 1115   0.881   1.182   0.317 -1.3447 -2.3428 -0.1719
  372SOL    HW2 1116   0.994   1.227   0.434  0.3491 -0.7923 -1.4606
  373SOL     OW 1117   0.847   2.688   0.381 -0.0580  0.1995 -0.3872
  373SOL    HW1 1118   0.913   2.713   0.457 -0.8550 -0.8696  1.7494
  373SOL    HW2 1119   0.833   2.589   0.373  0.7611  1.9456  1.8739
  374SOL     OW 1120   0.429   1.593   0.117  0.1420 -0.4089 -0.2940
  374SOL    HW1 1121   0.336   1.560   0.148 -1.3134 -2.6377 -2.2531
  374SOL    HW2 1122   0.498   1.557   0.185  0.1258 -0.2696 -4.1254
  375SOL     OW 1123   1.031   1.400   2.227 -0.1536 -0.4607  0.4565
  375SOL    HW1 1124   1.132   1.395   2.237  0.6241  1.8987 -3.1732
  375SOL    HW2 1125   0.998   1.486   2.181 -1.0819  1.7287 -0.6064
  376SOL     OW 1126   0.811   2.392   1.888 -0.7497 -0.0808 -0.9410
  376SOL    HW1 1127   0.874   2.462   1.855 -0.1182 -2.7712  3.4834
  376SOL    HW2 1128   0.753   2.425   1.968 -0.9373 -0.4469 -1.1674
  377SOL     OW 1129   2.341   1.355   2.239 -0.4482  0.1073  0.4978
  377SOL    HW1 1130   2.312   1.331   2.333 -1.7728  1.0860  0.4731
  377SOL    HW2 1131   2.270   1.414   2.195  0.5381  1.2370  0.4425
  378SOL     OW 1132   1.170   0.406   2.514  0.2135  0.0266 -0.3353
  378SOL    HW1 1133   1.223   0.400   2.601  1.1474 -3.6836 -3.4632
  378SOL    HW2 1134   1.240   0.420   2.438 -1.8594  2.9593 -0.7334
  379SOL     OW 1135   1.879   0.462   0.381 -0.5597 -0.8394 -0.0499
  379SOL    HW1 1136   1.962   0.452   0.436 -0.6683  1.4384  0.6754
  379SOL    HW2 1137   1.877   0.558   0.339 -0.6893  4.2904  2.2666
  380SOL     OW 1138   0.167   2.374   1.248  0.2497 -0.5537  0.0919
  380SOL    HW1 1139   0.156   2.471   1.281  1.3334  0.5288  0.7421
  380SOL    HW2 1140   0.196   2.309   1.323  0.5738  0.0503 -0.0319
  381SOL     OW 1141   1.578   1.739   1.826 -0.1237 -0.3897 -0.0166
  381SOL    HW1 1142   1.542   1.655   1.784  1.3574  2.0157 -1.4883
  381SOL    HW2 1143   1.675   1.754   1.797  1.1150  0.1599 -0.2971
  382SOL     OW 1144   0.158   0.306   2.886  0.6767  0.6556  0.2185
  382SOL    HW1 1145   0.235   0.239   2.906  1.3208  2.3399  0.3127
  382SOL    HW2 1146   0.176   0.395   2.927  0.4449 -1.1768 -0.1306
  383SOL     OW 1147   1.562   1.351   2.775  0.4375 -0.2308  0.7487
  383SOL    HW1 1148   1.548   1.295   2.691 -0.5619 -0.4449 -0.0428
  383SOL    HW2 1149   1.627   1.312   2.841  0.4236  1.0506  0.4661
  384SOL     OW 1150   1.042   2.638   0.930  0.0006 -0.3354  0.2994
  384SOL    HW1 1151   1.048   2.687   1.016  0.1542 -0.8050 -0.4259
  384SOL    HW2 1152   1.107   2.662   0.857 -1.4618 -1.4713 -1.3921
  385SOL     OW 1153   2.045   2.261   1.320  0.7146 -0.6082  0.1095
  385SOL    HW1 1154   2.056   2.325   1.240 -2.3043  2.3920  2.4559
  385SOL    HW2 1155   2.139   2.230   1.354  2.4456 -2.4019 -0.3385
  386SOL     OW 1156   2.368   2.103   1.484  0.4295  0.7298 -0.2495
  386SOL    HW1 1157   2.310   2.027   1.450  0.6682  1.3773  0.6388
  386SOL    HW2 1158   2.391   2.165   1.409  1.2736 -0.1993  0.3983
  387SOL     OW 1159   0.629   2.250   1.152 -0.0913 -0.1458 -0.0453
  387SOL    HW1 1160   0.671   2.298   1.238 -1.3206 -1.3352  0.1735
  387SOL    HW2 1161   0.536   2.276   1.125 -0.6715 -1.8882 -2.9238
  388SOL     OW 1162   2.694   0.880   1.840  0.3216  0.0499  0.2402
  388SOL    HW1 1163   2.624   0.816   1.874  1.2303  3.8406 -0.0872
  388SOL    HW2 1164   2.788   0.845   1.863  3.8587 -3.1049 -0.3687
  389SOL     OW 1165   1.732   1.277   1.067  0.3309 -0.1190  0.0844
  389SOL    HW1 1166   1.692   1.321   0.986 -0.3249 -1.3947 -0.5248
  389SOL    HW2 1167   1.707   1.316   1.160 -0.3730 -1.9403  0.0880
  390SOL     OW 1168   1.019   2.165   1.925 -0.2038 -0.2173  0.4234
  390SOL    HW1 1169   0.944   2.231   1.915  1.1345 -1.4122  1.0453
  390SOL    HW2 1170   1.108   2.208   1.899 -0.3656  1.9147 -0.5531
  391SOL     OW 1171   0.945   1.966   2.463 -0.3060  0.2400  0.1680
  391SOL    HW1 1172   0.928   1.972   2.565  0.3321 -0.9077 -1.7421
  391SOL    HW2 1173   1.041   1.980   2.444 -2.1154 -0.2292 -0.9187
  392SOL     OW 1174   2.938   2.870   2.680  0.0285  0.1027  0.1261
  392SOL    HW1 1175   2.956   2.839   2.780  2.4047 -0.4617  1.3705
  392SOL    HW2 1176   3.022   2.904   2.639  0.7418 -1.6566 -0.6208
  393SOL     OW 1177   1.531   2.832   0.291 -0.5195  0.4625  0.1825
  393SOL    HW1 1178   1.446   2.812   0.234 -1.8112 -0.3231 -0.0069
  393SOL    HW2 1179   1.592   2.751   0.310 -2.0896  0.1762 -0.4201
  394SOL     OW 1180   0.640   0.665   2.546 -0.2943 -0.2562 -0.2851
  394SOL    HW1 1181   0.559   0.723   2.523  0.1810 -0.4494 -2.4646
  394SOL    HW2 1182   0.698   0.648   2.467 -1.1729 -0.1423  0.5338
  395SOL     OW 1183   0.334   1.425   1.617  0.0042  0.2822 -0.5589
  395SOL    HW1 1184   0.421   1.462   1.581 -1.8925  0.9374  0.2514
  395SOL    HW2 1185   0.323   1.450   1.715  2.0221 -0.5866 -0.9583
  396SOL     OW 1186   1.708   1.588   2.173  0.4631  0.5892  0.1795
  396SOL    HW1 1187   1.691   1.558   2.269  0.1187  0.4472  1.7099
  396SOL    HW2 1188   1.714   1.505   2.112  0.7959 -2.2588  0.4495
  397SOL     OW 1189   0.605   0.492   2.765  0.3312  0.4596 -0.2012
  397SOL    HW1 1190   0.621   0.538   2.676  4.4133 -0.4455  1.6217
  397SOL    HW2 1191   0.519   0.519   2.809  1.2135 -2.0313 -0.9394
  398SOL     OW 1192   0.262   2.304   2.462  0.2046  0.2110 -0.5765
  398SOL    HW1 1193   0.201   2.229   2.431 -0.5294 -2.1782  1.6940
  398SOL    HW2 1194   0.357   2.265   2.471 -1.7535  0.8788  1.7948
  399SOL     OW 1195   0.314   1.796   2.311  0.2557 -0.4511  0.6104
  399SOL    HW1 1196   0.379   1.770   2.236  0.5607  0.5615 -2.6163
  399SOL    HW2 1197   0.223   1.757   2.290  0.1403  0.1573 -1.2041
  400SOL     OW 1198   2.671   0.080   1.592  0.3465 -0.2353  0.0727
  400SOL    HW1 1199   2.580   0.105   1.551 -1.0165 -0.8646 -2.6096
  400SOL    HW2 1200   2.738   0.121   1.528  1.2362  1.7579  0.5590
  401SOL     OW 1201   0.820   1.698   0.212 -0.2435  0.6265 -0.2453
  401SOL    HW1 1202   0.859   1.647   0.288 -1.8756  1.3208  0.2494
  401SOL    HW2 1203   0.751   1.762   0.239  1.9594 -0.3850  0.8434
  402SOL     OW 1204   0.213   2.597   2.126  0.2450  0.6030  0.6438
  402SOL    HW1 1205   0.128   2.564   2.082  0.1753 -1.7579  1.0494
  402SOL    HW2 1206   0.217   2.563   2.217  1.6234 -1.6826 -4.4450
  403SOL     OW 1207   0.654   0.974   2.155 -0.1625 -0.2984 -0.1285
  403SOL    HW1 1208   0.740   0.968   2.205 -1.4708  1.3771  0.6212
  403SOL    HW2 1209   0.605   1.062   2.184 -1.8713 -0.8788 -0.5529
  404SOL     OW 1210   1.478   2.524   1.062  0.3263  0.5894 -0.8268
  404SOL    HW1 1211   1.388   2.476   1.075 -0.7745 -0.2597  1.2416
  404SOL    HW2 1212   1.557   2.458   1.068  0.4341 -0.2141 -0.2890
  405SOL     OW 1213   2.291   2.318   2.762  0.2184 -0.0337  1.1004
  405SOL    HW1 1214   2.227   2.338   2.684 -1.2080 -0.3217  2.4322
  405SOL    HW2 1215   2.239   2.291   2.845  0.1330  0.6235 -0.0027
  406SOL     OW 1216   0.714   1.279   2.673  0.3418 -0.2759 -0.6795
  406SOL    HW1 1217   0.758   1.294   2.762  0.8029 -0.0337  0.1341
  406SOL    HW2 1218   0.765   1.317   2.595 -1.6785  0.4643  3.7751
  407SOL     OW 1219   2.272   2.772   2.697  0.2137  0.2495 -0.1626
  407SOL    HW1 1220   2.320   2.688   2.672  1.4646 -0.9993  1.0038
  407SOL    HW2 1221   2.287   2.797   2.796  1.4385  1.8504  2.1813
  408SOL     OW 1222   2.625   2.444   0.195  0.0021 -0.2615  0.0768
  408SOL    HW1 1223   2.662   2.404   0.111  0.2164  0.4919  2.4436
  408SOL    HW2 1224   2.542   2.396   0.231 -0.1874 -0.6910  0.1867
  409SOL     OW 1225   2.494   1.166   0.362 -0.1249 -0.7022 -0.5947
  409SOL    HW1 1226   2.536   1.218   0.440  1.2074  0.3279 -1.8226
  409SOL    HW2 1227   2.391   1.181   0.354 -3.0131  0.1565 -2.1759
  410SOL     OW 1228   2.860   1.590   0.686  1.1122 -0.5336  0.0938
  410SOL    HW1 1229   2.855   1.575   0.582 -0.8382  2.1027  1.3588
  410SOL    HW2 1230   2.756   1.610   0.705 -4.1243 -0.7336 -1.4301
  411SOL     OW 1231   0.403   1.493   0.870 -0.5077 -0.0873  0.0602
  411SOL    HW1 1232   0.457   1.508   0.954 -0.0227  0.2943 -2.2306
  411SOL    HW2 1233   0.467   1.447   0.808 -2.5803  0.7651  1.4803
  412SOL     OW 1234   2.261   2.227   0.719  0.1164  0.4714 -0.1240
  412SOL    HW1 1235   2.206   2.178   0.794 -4.1102 -2.0589  1.8930
  412SOL    HW2 1236   2.338   2.174   0.675  2.1090 -0.7787  2.4499
  413SOL     OW 1237   1.408   1.132   1.787 -0.4353  0.7661  0.2512
  413SOL    HW1 1238   1.345   1.134   1.703  0.2097 -0.5091 -1.8588
  413SOL    HW2 1239   1.358   1.166   1.867  1.6753 -3.9305  1.4892
  414SOL     OW 1240   2.982   2.782   0.149  0.3610  0.3505 -0.0508
  414SOL    HW1 1241   3.060   2.726   0.111 -0.3610 -0.5650  0.4527
  414SOL    HW2 1242   2.930   2.823   0.071 -1.8744 -0.7055 -2.9811
  415SOL     OW 1243   0.866   1.919   1.804  0.4970  0.4656 -0.0279
  415SOL    HW1 1244   0.843   2.020   1.813 -0.0130  0.1220  0.2329
  415SOL    HW2 1245   0.953   1.890   1.856  0.0367 -1.2136 -1.3875
  416SOL     OW 1246   2.624   2.349   2.663 -0.0065 -0.4066  0.0589
  416SOL    HW1 1247   2.703   2.303   2.709  3.5373 -0.4948 -0.7576
  416SOL    HW2 1248   2.608   2.442   2.701  1.2325 -0.4447 -1.5487
  417SOL     OW 1249   2.407   0.308   1.374  0.7319 -0.0313 -0.2108
  417SOL    HW1 1250   2.350   0.252   1.306 -2.4953  1.2633 -3.0929
  417SOL    HW2 1251   2.499   0.322   1.331  1.0538  0.7895  2.3416
  418SOL     OW 1252   2.686   0.023   0.242 -0.3056 -0.1465  0.1853
  418SOL    HW1 1253   2.692   3.031   0.317  1.6375  1.4743  3.3651
  418SOL    HW2 1254   2.620   3.073   0.170 -0.9541  0.9067  0.6047
  419SOL     OW 1255   0.037   1.499   1.297  0.0744  0.0733  0.2866
  419SOL    HW1 1256   3.023   1.482   1.328  1.8644  1.8300  0.3476
  419SOL    HW2 1257   0.101   1.421   1.315  0.8197 -0.6671 -2.0388
  420SOL     OW 1258   0.158   1.348   3.014 -0.4528  0.2163 -0.6172
  420SOL    HW1 1259   0.162   1.275   0.010 -0.5403 -1.4879  1.1046
  420SOL    HW2 1260   0.250   1.351   2.966  3.5252 -1.2504 -0.9485
  421SOL     OW 1261   2.215   2.330   2.486 -0.1092  0.3437 -0.2260
  421SOL    HW1 1262   2.163   2.249   2.448  1.6912  0.1829  1.8208
  421SOL    HW2 1263   2.153   2.407   2.505  1.9617 -0.5268  0.7162
  422SOL     OW 1264   0.339   0.840   2.674  0.0570  0.3494  0.2645
  422SOL    HW1 1265   0.352   0.846   2.572  1.8720  0.1204  3.7326
  422SOL    HW2 1266   0.257   0.892   2.707  2.4617  0.8684  1.1613
  423SOL     OW 1267   1.314   2.303   0.593 -0.2216  0.0057  0.0512
  423SOL    HW1 1268   1.224   2.285   0.637  1.5865 -0.2839 -0.1065
  423SOL    HW2 1269   1.329   2.241   0.513 -1.9015  0.7348  1.3698
  424SOL     OW 1270   0.963   1.591   2.047  0.0769 -0.3878  0.5820
  424SOL    HW1 1271   1.010   1.666   1.995  0.6506  0.4085 -0.8299
  424SOL    HW2 1272   0.871   1.627   2.074  0.9326  0.0883  0.0267
  425SOL     OW 1273   2.503   2.310   2.429 -0.4139  0.5242 -0.1885
  425SOL    HW1 1274   2.560   2.320   2.512 -1.2399  1.8696  0.6286
  425SOL    HW2 1275   2.403   2.294   2.450 -0.1052  1.5224 -0.9933
  426SOL     OW 1276   1.602   0.742   0.957 -0.0140  0.0399 -0.0921
  426SOL    HW1 1277   1.534   0.747   0.885  2.5437  0.6530 -3.4601
  426SOL    HW2 1278   1.650   0.828   0.965  1.5129 -2.1513 -2.5821
  427SOL     OW 1279   0.478   1.423   2.571  0.2071 -0.5211 -0.3340
  427SOL    HW1 1280   0.395   1.366   2.589 -0.1483  1.7317 -2.7901
  427SOL    HW2 1281   0.556   1.395   2.634  1.3975 -0.2430  0.4299
  428SOL     OW 1282   0.969   1.534   0.398 -0.5267 -0.9532  0.1691
  428SOL    HW1 1283   0.927   1.534   0.493 -1.3160 -2.8847  2.4867
  428SOL    HW2 1284   0.984   1.440   0.368  0.0884  1.8571 -2.5167
  429SOL     OW 1285   0.068   2.371   0.110  0.4673 -0.1684  0.1996
  429SOL    HW1 1286   0.011   2.303   0.158  1.2650  1.5753 -2.3951
  429SOL    HW2 1287   0.167   2.371   0.131 -1.7539  0.8858 -0.4292
  430SOL     OW 1288   0.620   2.439   2.085  0.2879 -0.0467 -0.2666
  430SOL    HW1 1289   0.623   2.469   2.185  1.5295  0.8865  1.2766
  430SOL    HW2 1290   0.590   2.343   2.085  0.1198  2.8803  2.1874
  431SOL     OW 1291   2.856   0.842   0.559 -0.1150 -0.1310  0.1439
  431SOL    HW1 1292   2.898   0.903   0.634 -0.0098  1.0384  1.4692
  431SOL    HW2 1293   2.755   0.852   0.549  0.5734  1.4886 -0.5084
  432SOL     OW 1294   1.601   2.359   2.752 -0.0608 -0.4690  0.1623
  432SOL    HW1 1295   1.672   2.294   2.728 -1.4051 -0.0602  2.5981
  432SOL    HW2 1296   1.627   2.456   2.720  2.1756 -0.4027 -2.4710
  433SOL     OW 1297   1.018   2.355   0.888 -0.1475  0.3266 -0.2303
  433SOL    HW1 1298   0.942   2.291   0.913 -0.0968 -2.4756 -0.7847
  433SOL    HW2 1299   1.005   2.456   0.887  0.1927  1.8598  1.3726
  434SOL     OW 1300   1.639   1.876   2.286  0.0419  0.5019 -0.0646
  434SOL    HW1 1301   1.700   1.936   2.340 -2.0427 -1.3319 -0.2280
  434SOL    HW2 1302   1.677   1.784   2.280 -0.2994  3.0236 -1.3053
  435SOL     OW 1303   2.348   0.625   0.055  0.8252  0.4122 -0.1777
  435SOL    HW1 1304   2.373   0.714   0.006  1.4592  1.0190 -3.0465
  435SOL    HW2 1305   2.267   0.630   0.120 -1.2928  2.1648 -2.4882
  436SOL     OW 1306   0.581   2.571   2.326  0.0462  0.4089 -0.4096
  436SOL    HW1 1307   0.487   2.584   2.358  1.8719  1.9770 -1.3962
  436SOL    HW2 1308   0.636   2.565   2.413 -1.3360 -0.9516  3.2112
  437SOL     OW 1309   2.108   2.881   1.583  0.3495 -0.5207  0.4298
  437SOL    HW1 1310   2.134   2.783   1.563  0.9305  0.1745  1.0510
  437SOL    HW2 1311   2.024   2.915   1.531 -0.7242  0.0491 -2.1877
  438SOL     OW 1312   0.242   1.664   0.436  0.0805  0.2263 -0.1744
  438SOL    HW1 1313   0.342   1.652   0.456  2.0887 -1.5297  1.3524
  438SOL    HW2 1314   0.216   1.755   0.468  1.6601 -3.2409 -2.1536
  439SOL     OW 1315   0.066   3.068   0.957  0.2004 -0.0455  0.0385
  439SOL    HW1 1316   0.061   0.071   0.894  1.2376  2.8510 -1.0593
  439SOL    HW2 1317   0.131   3.002   0.924 -1.1746  4.6357 -0.2321
  440SOL     OW 1318   2.529   2.709   2.393 -0.0850 -0.2492 -0.7697
  440SOL    HW1 1319   2.618   2.683   2.347 -0.3030 -1.0876  0.6039
  440SOL    HW2 1320   2.491   2.632   2.444 -1.7557  1.5934 -2.4301
  441SOL     OW 1321   3.056   0.846   0.342  0.1530  0.2041 -0.2702
  441SOL    HW1 1322   0.045   0.864   0.412  0.7903 -1.1586  2.7422
  441SOL    HW2 1323   2.961   0.858   0.389 -1.4954  2.7185 -0.0141
  442SOL     OW 1324   1.575   2.213   2.261  0.5563 -0.2174 -0.7455
  442SOL    HW1 1325   1.611   2.172   2.345  1.5897  0.8773  0.4660
  442SOL    HW2 1326   1.562   2.312   2.282 -2.2410  1.5704  0.0338
  443SOL     OW 1327   0.822   3.021   2.848  0.3236 -0.8567 -0.0729
  443SOL    HW1 1328   0.851   3.055   2.754 -1.1670  0.8939  0.0507
  443SOL    HW2 1329   0.874   2.940   2.880  0.5063  0.1569 -0.1845
  444SOL     OW 1330   1.500   1.638   2.719  0.7438  0.5595 -0.4005
  444SOL    HW1 1331   1.399   1.634   2.733  0.8984 -0.2501  1.1808
  444SOL    HW2 1332   1.540   1.548   2.702  0.3877  3.0217  1.8669
  445SOL     OW 1333   0.220   0.252   1.021 -0.0515 -0.6691 -0.1441
  445SOL    HW1 1334   0.165   0.264   0.934  0.0978 -1.3858 -2.1070
  445SOL    HW2 1335   0.314   0.220   1.001 -1.3533  0.0827  0.7241
  446SOL     OW 1336   1.810   0.976   0.727 -0.6298 -0.2791 -0.1804
  446SOL    HW1 1337   1.795   0.990   0.824 -0.6774 -1.0152 -1.0814
  446SOL    HW2 1338   1.898   0.929   0.713 -0.2615 -2.0075 -0.4823
  447SOL     OW 1339   2.952   0.636   0.199 -0.5011 -0.3296 -0.1798
  447SOL    HW1 1340   2.862   0.596   0.232 -0.9250 -1.5274 -0.5115
  447SOL    HW2 1341   2.983   0.720   0.253  0.2541  2.8351  2.1310
  448SOL     OW 1342   2.446   1.956   1.067 -0.4740  0.8850 -0.8298
  448SOL    HW1 1343   2.482   1.902   1.146  0.9682 -2.9318 -0.4425
  448SOL    HW2 1344   2.482   2.052   1.073  2.7260  0.1689 -0.2919
  449SOL     OW 1345   0.823   1.318   2.923 -0.5084 -0.4592  0.0798
  449SOL    HW1 1346   0.908   1.335   2.866  1.8922 -0.7839 -0.1557
  449SOL    HW2 1347   0.785   1.403   2.963 -0.7310  0.4870  1.0514
  450SOL     OW 1348   2.113   2.765   2.462 -0.0135 -0.0016 -0.8532
  450SOL    HW1 1349   2.155   2.793   2.369  0.6806 -0.1731 -2.1923
  450SOL    HW2 1350   2.171   2.786   2.540 -0.0690  1.0844 -0.1307
  451SOL     OW 1351   2.415   0.875   2.390 -0.2034  0.6064  0.1674
  451SOL    HW1 1352   2.492   0.878   2.324  0.2816 -2.1210 -2.4277
  451SOL    HW2 1353   2.345   0.806   2.360  1.2367  1.7239  0.0350
  452SOL     OW 1354   1.653   1.417   1.314 -0.1049 -0.1284 -0.2844
  452SOL    HW1 1355   1.695   1.510   1.322 -0.2861  1.5141 -0.2152
  452SOL    HW2 1356   1.563   1.403   1.359  2.6969 -0.0581 -3.6787
  453SOL     OW 1357   1.712   0.388   1.821  0.4653 -0.1996 -0.0366
  453SOL    HW1 1358   1.712   0.359   1.917  1.5419 -2.0542 -0.1121
  453SOL    HW2 1359   1.643   0.334   1.765  0.0219 -0.6616 -1.9754
  454SOL     OW 1360   3.020   0.851   3.047  0.9338 -0.1434 -0.0148
  454SOL    HW1 1361   3.022   0.879   2.951  1.3592 -3.1280 -0.3188
  454SOL    HW2 1362   3.022   0.749   3.047  1.5913 -1.6260  1.9271
  455SOL     OW 1363   2.492   1.782   1.667  0.0840  0.7575 -0.1644
  455SOL    HW1 1364   2.557   1.783   1.591 -1.1752  0.2159  0.7937
  455SOL    HW2 1365   2.395   1.772   1.644  3.3310 -2.4789  1.6397
  456SOL     OW 1366   1.673   2.848   1.658  0.2797  0.1109 -0.3745
  456SOL    HW1 1367   1.713   2.773   1.606 -0.4797  4.0069 -0.2665
  456SOL    HW2 1368   1.732   2.930   1.654 -3.3067 -3.1137  3.6757
  457SOL     OW 1369   1.476   0.229   0.442  0.6492  0.2253  0.4141
  457SOL    HW1 1370   1.568   0.255   0.477 -1.0770 -1.5397  2.5932
  457SOL    HW2 1371   1.437   0.151   0.499  2.0074 -1.3411 -1.1295
  458SOL     OW 1372   2.895   2.986   0.597  0.8168  0.4414  0.3584
  458SOL    HW1 1373   2.916   2.885   0.600 -0.5369 -3.1726  0.9452
  458SOL    HW2 1374   2.965   3.043   0.552  0.6602 -1.6348 -4.2847
  459SOL     OW 1375   2.110   1.211   0.543 -0.1466  0.0484  0.2070
  459SOL    HW1 1376   2.114   1.119   0.595 -0.0839 -2.1675 -0.1990
  459SOL    HW2 1377   2.013   1.239   0.541  0.8764 -1.4864  0.6535
  460SOL     OW 1378   0.958   2.587   2.428  0.0302  0.7890  0.0524
  460SOL    HW1 1379   1.044   2.629   2.408 -3.6878 -3.7810 -0.4331
  460SOL    HW2 1380   0.952   2.554   2.527 -1.0170 -1.6222  1.2043
  461SOL     OW 1381   0.488   1.561   2.937  0.4721  0.3686 -0.1066
  461SOL    HW1 1382   0.439   1.484   2.883 -0.8778 -0.0324 -1.0852
  461SOL    HW2 1383   0.464   1.562   3.037  0.7572 -0.2707  2.0665
  462SOL     OW 1384   2.338   2.080   0.403  0.6497 -0.3956  0.6194
  462SOL    HW1 1385   2.337   2.034   0.494  0.2608  3.6033 -0.3989
  462SOL    HW2 1386   2.240   2.076   0.366 -1.1993  0.2236 -0.3382
  463SOL     OW 1387   2.759   0.461   0.249 -0.5198 -0.1737 -0.2154
  463SOL    HW1 1388   2.669   0.462   0.212  0.6906  0.7432  0.0579
  463SOL    HW2 1389   2.802   0.368   0.227 -1.7567  1.3582 -0.5159
  464SOL     OW 1390   0.554   1.327   0.715 -0.3649  0.3370 -0.4412
  464SOL    HW1 1391   0.619   1.338   0.797  0.0584 -1.2018  3.8267
  464SOL    HW2 1392   0.587   1.341   0.618 -1.2413  1.8704 -0.1653
  465SOL     OW 1393   2.142   0.164   1.527  0.3900  0.0332  0.3654
  465SOL    HW1 1394   2.052   0.123   1.491 -1.2841 -1.0070 -2.6318
  465SOL    HW2 1395   2.174   0.221   1.450 -1.1887 -0.3821 -3.7022
  466SOL     OW 1396   2.209   2.997   0.786 -0.1221  0.2418  0.8483
  466SOL    HW1 1397   2.185   2.905   0.751  2.5973  1.1939  3.3661
  466SOL    HW2 1398   2.309   3.011   0.796 -1.2869  2.2318 -0.8716
  467SOL     OW 1399   2.995   0.826   2.215 -0.0105  0.1883  0.2644
  467SOL    HW1 1400   2.958   0.744   2.259 -0.4203  2.2141 -0.0179
  467SOL    HW2 1401   2.938   0.909   2.234 -0.5402  0.9901 -0.5372
  468SOL     OW 1402   2.845   0.200   2.297  0.0784  0.0963 -0.0263
  468SOL    HW1 1403   2.839   0.209   2.398  0.0439  2.2270  0.0316
  468SOL    HW2 1404   2.942   0.222   2.263  2.3562  0.1895 -0.1501
  469SOL     OW 1405   0.696   3.059   1.528  0.3105 -0.0619  0.3420
  469SOL    HW1 1406   0.767   0.053   1.506 -0.0976 -0.0171 -2.6743
  469SOL    HW2 1407   0.599   0.018   1.529 -0.9391  3.0816 -0.3562
  470SOL     OW 1408   2.677   0.834   1.521  0.3442  0.0225 -0.2401
  470SOL    HW1 1409   2.726   0.880   1.448 -0.5781 -1.9943  0.7559
  470SOL    HW2 1410   2.623   0.901   1.577 -0.0092  0.9493  1.3473
  471SOL     OW 1411   2.982   1.560   2.771 -0.8733  0.6732 -0.3839
  471SOL    HW1 1412   3.037   1.573   2.857  0.7994  0.5008  1.7788
  471SOL    HW2 1413   2.889   1.588   2.793 -0.4041  1.5220 -0.3263
  472SOL     OW 1414   0.806   1.803   0.588 -0.1529 -0.2561 -0.3062
  472SOL    HW1 1415   0.843   1.890   0.621 -0.3875 -0.5928  0.3567
  472SOL    HW2 1416   0.738   1.827   0.517 -0.3769 -1.8131 -0.0072
  473SOL     OW 1417   1.366   2.072   2.159 -0.7149  0.1942  0.2472
  473SOL    HW1 1418   1.432   2.026   2.098  0.7080  1.8019  1.2472
  473SOL    HW2 1419   1.417   2.141   2.212 -1.2251 -0.2506  3.2593
  474SOL     OW 1420   0.771   2.837   2.636  0.0369 -0.4586 -0.3337
  474SOL    HW1 1421   0.868   2.830   2.660 -0.5411  2.4820 -1.7009
  474SOL    HW2 1422   0.718   2.904   2.686  2.4641  1.8901  1.8734
  475SOL     OW 1423   0.871   2.101   2.701  0.2726 -0.2989 -0.2310
  475SOL    HW1 1424   0.774   2.089   2.722  0.2652  1.3087  1.1533
  475SOL    HW2 1425   0.923   2.146   2.778  1.0053 -0.8374  3.5378
  476SOL     OW 1426   0.608   0.493   0.901  0.0929  0.1351 -0.0881
  476SOL    HW1 1427   0.566   0.515   0.995 -3.2544 -0.0434  2.8332
  476SOL    HW2 1428   0.537   0.496   0.829  0.8438 -1.8149  1.5610
  477SOL     OW 1429   1.631   2.292   1.138 -0.0941  0.2313  0.6334
  477SOL    HW1 1430   1.691   2.339   1.205  0.4109  0.8146  1.4974
  477SOL    HW2 1431   1.656   2.193   1.141  0.5539  0.6131  2.2978
  478SOL     OW 1432   0.293   0.316   2.621  0.0527  0.0490 -0.0667
  478SOL    HW1 1433   0.220   0.276   2.672  1.0709  0.0648  0.8985
  478SOL    HW2 1434   0.323   0.400   2.671  0.0175 -2.7775  0.8520
  479SOL     OW 1435   0.952   0.560   1.250  0.6736 -0.9224  0.0727
  479SOL    HW1 1436   0.882   0.600   1.311  0.5470  0.4063 -2.9978
  479SOL    HW2 1437   0.989   0.620   1.171  0.4610 -1.3814 -2.2461
  480SOL     OW 1438   2.697   2.338   3.049  0.2369 -0.0551 -0.7625
  480SOL    HW1 1439   2.617   2.286   3.009 -0.2851  1.6973  1.4854
  480SOL    HW2 1440   2.770   2.358   2.981  1.1427 -1.6776 -1.1006
  481SOL     OW 1441   3.062   0.516   1.499 -0.0324 -0.0465 -0.5941
  481SOL    HW1 1442   0.025   0.428   1.533  1.0788 -0.1707  0.3302
  481SOL    HW2 1443   2.969   0.521   1.543  0.1709 -1.1863 -1.5773
  482SOL     OW 1444   0.909   3.062   1.265 -0.0020 -0.3510 -0.0463
  482SOL    HW1 1445   0.889   0.076   1.299 -2.0427  0.7164  0.0684
  482SOL    HW2 1446   0.834   3.036   1.202 -1.7560 -0.9978  0.5764
  483SOL     OW 1447   0.115   1.280   2.488 -0.2436  0.0902  0.3590
  483SOL    HW1 1448   0.103   1.231   2.399 -0.4335  1.7396  0.5647
  483SOL    HW2 1449   0.034   1.333   2.521  1.1288  1.2504  0.5847
  484SOL     OW 1450   1.481   1.500   1.725  0.1152  0.8103 -0.3611
  484SOL    HW1 1451   1.411   1.489   1.800 -0.5547 -3.5874  1.8685
  484SOL    HW2 1452   1.542   1.422   1.721  0.0181  5.1648  1.1649
  485SOL     OW 1453   0.062   2.689   2.532  0.1512 -0.4776  0.3562
  485SOL    HW1 1454   0.120   2.694   2.615 -1.0929 -0.4969  2.0513
  485SOL    HW2 1455   0.054   2.780   2.489  1.0447 -3.3826 -1.6600
  486SOL     OW 1456   1.199   2.972   0.915 -0.2736 -0.1343 -0.0105
  486SOL    HW1 1457   1.183   3.063   0.866  2.0079 -0.0609  1.6894
  486SOL    HW2 1458   1.215   2.894   0.854 -1.4621  0.0894  3.5026
  487SOL     OW 1459   1.335   0.321   1.025  0.3161  0.2539 -0.2965
  487SOL    HW1 1460   1.403   0.341   1.098  0.9095  3.7951 -3.2371
  487SOL    HW2 1461   1.248   0.279   1.060 -1.1337 -2.5758 -1.4294
  488SOL     OW 1462   2.408   1.053   0.788 -0.5413 -0.5441 -0.0932
  488SOL    HW1 1463   2.394   1.144   0.833  2.0051 -0.3617 -2.1259
  488SOL    HW2 1464   2.446   0.987   0.852  1.0044 -0.2311  1.2483
  489SOL     OW 1465   1.365   0.698   1.285  0.2931 -0.3294 -0.0705
  489SOL    HW1 1466   1.435   0.631   1.260  0.1685 -0.1145 -1.9250
  489SOL    HW2 1467   1.358   0.771   1.211 -1.2989  2.7198 -1.5121
  490SOL     OW 1468   1.058   0.692   2.799 -0.5422 -0.2675 -0.1232
  490SOL    HW1 1469   1.143   0.655   2.848  2.8612 -0.9641  1.3957
  490SOL    HW2 1470   0.982   0.657   2.846  2.4691 -1.1404 -1.4106
  491SOL     OW 1471   0.766   2.220   0.905 -0.0018 -0.1081 -0.1857
  491SOL    HW1 1472   0.716   2.273   0.828  0.4759 -0.0164 -0.9240
  491SOL    HW2 1473   0.723   2.237   0.995 -1.1280 -0.2385  0.7339
  492SOL     OW 1474   1.147   1.497   1.689  0.5434 -0.0654  0.2881
  492SOL    HW1 1475   1.081   1.576   1.692 -3.1881 -0.4506  1.3517
  492SOL    HW2 1476   1.212   1.496   1.769 -0.3503 -1.7902  1.5521
  493SOL     OW 1477   0.546   1.414   0.314  0.3410 -0.7083 -0.0133
  493SOL    HW1 1478   0.612   1.390   0.389 -0.4515  1.3778 -1.8165
  493SOL    HW2 1479   0.530   1.338   0.246 -0.5101  2.0934 -1.6133
  494SOL     OW 1480   1.950   2.721   0.536  0.0945 -0.0372  0.6319
  494SOL    HW1 1481   1.900   2.713   0.620  0.4346  0.9641 -1.1276
  494SOL    HW2 1482   2.045   2.705   0.549 -3.4548  2.6844  1.4009
  495SOL     OW 1483   0.298   1.454   2.356  0.1467 -0.6249  0.0201
  495SOL    HW1 1484   0.227   1.398   2.405 -1.0408  0.3833  1.3046
  495SOL    HW2 1485   0.379   1.477   2.412  1.3541 -1.8625  2.1153
  496SOL     OW 1486   0.520   2.274   2.552  0.0384  0.0470  0.3823
  496SOL    HW1 1487   0.513   2.372   2.575  0.2994  0.8778  1.0289
  496SOL    HW2 1488   0.606   2.254   2.510 -1.3204  0.5992  2.0902
  497SOL     OW 1489   1.837   1.468   0.385 -0.1709  0.1894  0.2674
  497SOL    HW1 1490   1.738   1.479   0.359  0.1702 -3.0392 -0.5790
  497SOL    HW2 1491   1.850   1.413   0.469  0.7191  0.0523  0.8976
  498SOL     OW 1492   2.858   2.600   0.347 -0.0678  0.7387 -0.1487
  498SOL    HW1 1493   2.898   2.666   0.284 -2.3012 -0.3527  0.1516
  498SOL    HW2 1494   2.795   2.532   0.306  1.5688 -1.4668  1.7372
  499SOL     OW 1495   2.229   2.735   0.675 -0.3347  0.0127 -0.2131
  499SOL    HW1 1496   2.269   2.732   0.583  0.1268  1.0762  0.3837
  499SOL    HW2 1497   2.267   2.675   0.745 -2.7979  0.3867 -4.5370
  500SOL     OW 1498   0.193   0.414   2.349 -0.3843  0.2742 -0.4386
  500SOL    HW1 1499   0.131   0.478   2.395  1.9805 -1.3218  0.6790
  500SOL    HW2 1500   0.255   0.372   2.419 -0.8512  0.1101  0.1569
  501SOL     OW 1501   1.713   2.619   1.531  0.5336  0.4605 -0.2819
  501SOL    HW1 1502   1.791   2.554   1.530  0.3288 -1.2139  1.5446
  501SOL    HW2 1503   1.631   2.559   1.528 -0.0228  0.6222 -0.7989
  502SOL     OW 1504   3.047   0.132   2.804  0.4424 -0.1526  0.5472
  502SOL    HW1 1505   0.038   0.200   2.819 -1.0402 -1.3598 -1.5676
  502SOL    HW2 1506   3.054   0.052   2.868  0.5288 -1.9585  0.1819
  503SOL     OW 1507   1.890   2.492   2.202  0.4213  0.2000 -0.1811
  503SOL    HW1 1508   1.865   2.490   2.303 -0.2313  1.1942  2.4355
  503SOL    HW2 1509   1.879   2.400   2.160 -1.5119  0.3870 -0.3946
  504SOL     OW 1510   2.072   0.429   1.904 -0.5898  0.4708  0.2299
  504SOL    HW1 1511   2.023   0.345   1.878  1.9161  0.4124 -2.0064
  504SOL    HW2 1512   2.100   0.487   1.824 -2.3185  1.1595  0.5951
  505SOL     OW 1513   2.691   1.609   1.086 -0.5645  0.3328 -0.3092
  505SOL    HW1 1514   2.769   1.663   1.048 -1.0725 -0.2166 -0.9850
  505SOL    HW2 1515   2.643   1.664   1.156  0.7859 -1.1865  0.8852
  506SOL     OW 1516   0.133   1.701   1.962 -0.3594 -0.3950 -0.1190
  506SOL    HW1 1517   0.168   1.791   1.926 -0.3223  2.2474  0.6818
  506SOL    HW2 1518   0.115   1.705   2.063 -2.5824 -0.7437  1.4867
  507SOL     OW 1519   0.742   2.387   1.369  0.3319 -0.0737  0.2683
  507SOL    HW1 1520   0.833   2.351   1.338  1.4594  0.6955 -0.7324
  507SOL    HW2 1521   0.744   2.428   1.463  0.6921 -0.3427  1.6079
  508SOL     OW 1522   0.310   0.576   2.167  0.5183 -0.3061  0.5006
  508SOL    HW1 1523   0.401   0.613   2.196  0.5233 -0.1332  2.4371
  508SOL    HW2 1524   0.275   0.511   2.236  0.2427 -1.8223  0.8163
  509SOL     OW 1525   1.517   2.674   2.138 -0.4295 -0.5090  0.8706
  509SOL    HW1 1526   1.416   2.696   2.133 -0.1133  2.2395 -0.2900
  509SOL    HW2 1527   1.549   2.661   2.041 -0.7074 -2.1153 -2.4806
  510SOL     OW 1528   2.239   1.331   2.490  0.4244  0.8032  0.0472
  510SOL    HW1 1529   2.250   1.391   2.571 -0.5426 -0.4559  0.7185
  510SOL    HW2 1530   2.269   1.238   2.516  0.2765 -2.2094  0.9055
  511SOL     OW 1531   1.003   0.990   1.040  0.1860  0.3588 -0.1690
  511SOL    HW1 1532   1.095   1.003   0.998 -0.7413  1.1670  0.6819
  511SOL    HW2 1533   0.939   1.062   1.005  3.9559  1.4026  0.4048
  512SOL     OW 1534   0.069   1.562   0.654  0.0157 -0.0404 -0.0381
  512SOL    HW1 1535   3.046   1.584   0.655 -2.2964  1.3808 -1.4179
  512SOL    HW2 1536   0.108   1.603   0.573 -0.6682  0.3182 -0.7777
  513SOL     OW 1537   1.260   2.065   2.514  0.1767  0.2135  0.3253
  513SOL    HW1 1538   1.301   2.099   2.599 -0.9404 -0.1340 -3.6161
  513SOL    HW2 1539   1.260   2.129   2.436  2.5235  0.2857 -0.7134
  514SOL     OW 1540   0.381   2.310   1.090  0.4685  0.3696  0.1056
  514SOL    HW1 1541   0.295   2.315   1.134  1.0596  0.8585 -1.2941
  514SOL    HW2 1542   0.379   2.239   1.016  2.8791  0.0250  1.1114
  515SOL     OW 1543   1.697   0.675   1.537 -0.2483 -0.0213 -0.3510
  515SOL    HW1 1544   1.705   0.776   1.525 -1.9302  1.1630 -0.6681
  515SOL    HW2 1545   1.602   0.648   1.567 -1.4274  0.2356 -0.2290
  516SOL     OW 1546   2.378   0.469   2.894  0.8680  0.1104 -0.5787
  516SOL    HW1 1547   2.353   0.370   2.909 -1.5622  0.6224 -1.6461
  516SOL    HW2 1548   2.396   0.513   2.984 -0.9952  0.2568 -0.6689
  517SOL     OW 1549   1.027   1.554   2.953  0.8389  0.2474  0.2395
  517SOL    HW1 1550   1.087   1.548   3.033 -0.2441  2.1730 -1.2434
  517SOL    HW2 1551   0.926   1.550   2.980  0.6209 -2.6543 -1.9645
  518SOL     OW 1552   1.271   2.587   1.777 -0.7970 -0.7138  0.4047
  518SOL    HW1 1553   1.326   2.670   1.790  0.9486 -0.9821  2.0611
  518SOL    HW2 1554   1.270   2.563   1.678 -2.0506  0.4572 -0.8209
  519SOL     OW 1555   2.006   0.027   0.946  0.0801  0.6268 -0.7828
  519SOL    HW1 1556   2.084   0.026   0.879 -0.5938  1.1939  0.0738
  519SOL    HW2 1557   1.956   3.019   0.935 -1.1745  1.2652 -2.8732
  520SOL     OW 1558   2.800   1.623   2.160  0.2247  0.0729  0.1841
  520SOL    HW1 1559   2.856   1.611   2.075 -1.0270 -2.2569  0.4279
  520SOL    HW2 1560   2.777   1.720   2.175  2.3014 -2.4843 -3.2957
  521SOL     OW 1561   2.660   0.449   2.856  0.7897 -0.4094 -0.1120
  521SOL    HW1 1562   2.570   0.485   2.825 -0.0159 -1.7408  0.0694
  521SOL    HW2 1563   2.665   0.350   2.832 -1.2639  0.5733  3.3080
  522SOL     OW 1564   0.797   0.882   2.633  0.2502 -0.0623 -0.0341
  522SOL    HW1 1565   0.757   0.787   2.607 -0.5362 -3.1002  1.5292
  522SOL    HW2 1566   0.817   0.937   2.547 -0.5267  0.1136 -1.5850
  523SOL     OW 1567   0.309   2.398   0.315  0.6416 -0.0275  0.0006
  523SOL    HW1 1568   0.290   2.495   0.349 -0.8302 -0.4152 -0.5981
  523SOL    HW2 1569   0.244   2.335   0.361  0.9157  0.1940  1.4840
  524SOL     OW 1570   2.037   2.600   2.802 -0.2354  0.9614 -0.1236
  524SOL    HW1 1571   2.055   2.566   2.706 -0.0214 -1.7189 -0.1519
  524SOL    HW2 1572   2.123   2.630   2.844 -2.1376 -1.5034 -3.9261
  525SOL     OW 1573   2.594   0.595   1.669  0.1427 -0.0292 -0.2612
  525SOL    HW1 1574   2.607   0.681   1.611  1.0765  2.4012  0.3342
  525SOL    HW2 1575   2.574   0.621   1.767  1.3657 -2.0676  1.3915
  526SOL     OW 1576   1.208   0.038   0.507  0.0599 -0.6140 -0.1666
  526SOL    HW1 1577   1.197   3.035   0.446 -1.2589 -1.2316 -0.1420
  526SOL    HW2 1578   1.154   0.121   0.472 -2.4018  3.3767 -1.5581
  527SOL     OW 1579   2.097   0.118   0.618  0.1389 -0.4720 -0.0208
  527SOL    HW1 1580   2.148   0.056   0.680 -0.2484 -0.8463 -2.2531
  527SOL    HW2 1581   2.141   0.125   0.528 -2.4395  1.5375 -0.1141
  528SOL     OW 1582   1.668   0.996   2.786 -0.0470  0.3752 -0.9826
  528SOL    HW1 1583   1.729   0.916   2.763  1.3840  1.3200  2.0232
  528SOL    HW2 1584   1.632   1.044   2.702 -0.7544  0.3939  2.9902
  529SOL     OW 1585   1.715   1.359   2.016 -0.0209  0.3223  0.2058
  529SOL    HW1 1586   1.619   1.332   2.045 -2.3676 -0.9004  0.6115
  529SOL    HW2 1587   1.726   1.345   1.917  1.9573 -0.9984 -0.4181
  530SOL     OW 1588   2.296   2.831   2.943 -0.2616  0.1931  0.1680
  530SOL    HW1 1589   2.297   2.742   2.999 -0.0998 -3.6074  0.6552
  530SOL    HW2 1590   2.305   2.912   3.003 -1.5357  0.7234 -1.3481
  531SOL     OW 1591   1.849   1.534   2.888  0.2501 -0.4224  0.3183
  531SOL    HW1 1592   1.872   1.467   2.957 -1.2865  1.4739 -0.7795
  531SOL    HW2 1593   1.842   1.493   2.796 -0.5307  1.2430  0.9840
  532SOL     OW 1594   1.517   0.307   1.250  0.4356  0.2130 -0.0355
  532SOL    HW1 1595   1.605   0.345   1.276  1.7609  1.1767  0.3430
  532SOL    HW2 1596   1.460   0.296   1.331  1.5095 -1.4295  0.8424
  533SOL     OW 1597   0.636   0.768   3.079  0.2240  0.3371  0.0776
  533SOL    HW1 1598   0.629   0.816   0.089 -0.0007  1.3590  3.1856
  533SOL    HW2 1599   0.611   0.840   3.010  3.5133  2.3083  0.7396
  534SOL     OW 1600   1.838   0.770   2.799  0.5148 -0.6448 -0.3513
  534SOL    HW1 1601   1.778   0.689   2.803  0.5966  0.8544  2.2196
  534SOL    HW2 1602   1.894   0.783   2.885 -1.0657 -1.3291  1.0437
  535SOL     OW 1603   0.681   2.398   2.833 -0.2966  0.0503 -1.1341
  535SOL    HW1 1604   0.695   2.388   2.932 -1.4697 -1.2837  0.2086
  535SOL    HW2 1605   0.650   2.313   2.790  2.2692 -1.4733  0.6340
  536SOL     OW 1606   0.733   3.079   0.111  0.3405 -0.0485  0.5093
  536SOL    HW1 1607   0.684   0.090   0.091 -1.4846 -0.4445 -1.9445
  536SOL    HW2 1608   0.668   3.000   0.102 -0.5203 -0.9145 -0.0294
  537SOL     OW 1609   1.944   0.240   3.059  0.2888 -0.4311  0.3439
  537SOL    HW1 1610   1.915   0.213   0.069  0.4160 -1.7126 -4.9421
  537SOL    HW2 1611   1.970   0.339   3.061  1.1138 -0.4844 -1.1268
  538SOL     OW 1612   2.296   2.575   3.053  0.0046 -0.1280  0.2526
  538SOL    HW1 1613   2.329   2.480   3.061 -0.0971  1.2527  3.2985
  538SOL    HW2 1614   2.265   2.615   0.062 -1.4063 -0.6556 -0.9772
  539SOL     OW 1615   2.598   1.395   3.004  0.5220  0.3196 -0.4468
  539SOL    HW1 1616   2.679   1.395   3.067  1.3768  0.0047  1.4452
  539SOL    HW2 1617   2.522   1.352   3.051  2.1932 -0.8734  1.2735
  540SOL     OW 1618   1.251   2.722   2.085  0.1665  0.2852  0.1347
  540SOL    HW1 1619   1.215   2.715   1.994 -0.2028  0.5618  2.3438
  540SOL    HW2 1620   1.202   2.662   2.149  1.4505  3.5079  0.7239
  541SOL     OW 1621   2.251   0.006   2.286 -0.0074 -0.3103 -0.1495
  541SOL    HW1 1622   2.194   0.026   2.366  2.5784 -2.0347  0.3541
  541SOL    HW2 1623   2.344   3.054   2.319  0.6077  1.2147 -1.0044
  542SOL     OW 1624   0.648   0.532   0.140 -0.0574  0.2648 -0.0998
  542SOL    HW1 1625   0.697   0.579   0.218 -0.7783  0.7978  1.0285
  542SOL    HW2 1626   0.635   0.594   0.061 -1.5936 -1.2697 -0.1309
  543SOL     OW 1627   0.182   0.821   0.780 -0.2814  0.2534  0.2602
  543SOL    HW1 1628   0.094   0.844   0.821 -2.6132 -2.5650  0.8518
  543SOL    HW2 1629   0.257   0.885   0.804  3.4715 -0.4467 -0.6457
  544SOL     OW 1630   2.357   0.598   1.225 -0.0751  0.1752 -0.3866
  544SOL    HW1 1631   2.346   0.504   1.183 -1.1616  3.7641 -1.4089
  544SOL    HW2 1632   2.454   0.611   1.261 -0.5585 -0.9340  1.6940
  545SOL     OW 1633   1.082   1.544   0.138 -0.4942  0.1614  0.1441
  545SOL    HW1 1634   1.005   1.564   0.195 -2.1002 -0.0275 -3.1077
  545SOL    HW2 1635   1.146   1.480   0.182  0.1116 -0.4179 -0.5267
  546SOL     OW 1636   2.396   2.901   1.535 -0.0556 -0.0973 -0.0848
  546SOL    HW1 1637   2.301   2.910   1.572 -1.3579  0.5731 -0.2962
  546SOL    HW2 1638   2.445   2.833   1.586 -3.5202  4.5576 -1.4405
  547SOL     OW 1639   1.547   2.477   2.316 -0.0649  0.1527  0.0156
  547SOL    HW1 1640   1.541   2.555   2.249  2.0802 -0.0769 -0.8077
  547SOL    HW2 1641   1.467   2.477   2.381 -0.7040 -1.0354 -2.7623
  548SOL     OW 1642   1.500   0.784   2.612 -0.4641  0.1902 -0.9665
  548SOL    HW1 1643   1.453   0.831   2.687  2.2711 -2.1028 -0.4221
  548SOL    HW2 1644   1.500   0.682   2.630 -0.0846  0.7796  1.1197
  549SOL     OW 1645   2.144   0.674   0.236  0.7050 -0.6857  0.5986
  549SOL    HW1 1646   2.049   0.707   0.252 -4.3805  3.8640 -2.7221
  549SOL    HW2 1647   2.153   0.576   0.250  1.6265  1.2635 -0.4444
  550SOL     OW 1648   2.445   1.486   0.280 -0.4224 -0.1024 -0.2135
  550SOL    HW1 1649   2.435   1.575   0.325 -0.6666  0.5401 -1.9839
  550SOL    HW2 1650   2.375   1.428   0.319  1.0941  1.3842 -0.7060
  551SOL     OW 1651   1.856   3.011   1.512  0.3281 -0.1393 -0.3967
  551SOL    HW1 1652   1.824   2.994   1.417 -0.4998  2.8920  1.7476
  551SOL    HW2 1653   1.827   0.026   1.533 -0.9474  0.1273 -0.2553
  552SOL     OW 1654   1.546   0.096   2.921  0.0830  0.5916 -0.3452
  552SOL    HW1 1655   1.606   0.176   2.918  0.2663 -0.8144  0.6694
  552SOL    HW2 1656   1.547   0.046   2.835 -0.5340  0.0606  1.8228
  553SOL     OW 1657   0.780   2.803   2.016  0.4376  0.2200  0.3132
  553SOL    HW1 1658   0.877   2.822   1.995 -1.8068 -1.4820  1.6229
  553SOL    HW2 1659   0.773   2.810   2.114  1.8257 -2.3958 -1.5395
  554SOL     OW 1660   0.214   3.063   1.183  0.1398  0.2058  0.6375
  554SOL    HW1 1661   0.157   0.014   1.101 -3.7526  1.7806 -1.8888
  554SOL    HW2 1662   0.212   2.961   1.179  0.2063 -0.8993 -1.4744
  555SOL     OW 1663   2.604   1.461   2.308  0.3563  0.4585 -0.4441
  555SOL    HW1 1664   2.662   1.505   2.239  0.6659 -2.1771  0.9333
  555SOL    HW2 1665   2.516   1.423   2.275 -0.3261 -1.1676 -0.9145
  556SOL     OW 1666   1.315   0.630   2.911 -0.1743 -0.5865  0.5119
  556SOL    HW1 1667   1.348   0.726   2.889  3.2489 -0.2100 -0.9482
  556SOL    HW2 1668   1.344   0.609   3.008  0.6790 -1.3277  1.7159
  557SOL     OW 1669   0.228   2.069   2.290  0.8374  1.0374 -0.3194
  557SOL    HW1 1670   0.300   2.126   2.250 -3.8119  0.1486 -2.0751
  557SOL    HW2 1671   0.257   1.966   2.284  4.3013 -4.0764 -0.9059
  558SOL     OW 1672   2.014   1.020   2.838 -0.3030  0.9048  0.2990
  558SOL    HW1 1673   2.045   0.944   2.777 -0.2706  1.2529  3.1118
  558SOL    HW2 1674   1.968   1.091   2.779 -1.5573  1.3279 -1.9351
  559SOL     OW 1675   1.889   1.591   1.620 -0.2107 -0.0038  0.0377
  559SOL    HW1 1676   1.861   1.601   1.521  0.6061 -0.2821 -1.6815
  559SOL    HW2 1677   1.908   1.497   1.652 -0.8405 -1.2993 -0.9138
  560SOL     OW 1678   1.584   0.798   2.019  0.4266  0.2375 -0.0644
  560SOL    HW1 1679   1.498   0.827   1.977 -0.0582 -0.3599  0.5393
  560SOL    HW2 1680   1.661   0.779   1.954  0.6987 -0.0344 -0.3628
  561SOL     OW 1681   2.872   0.053   2.612  0.4243 -0.1432 -0.5338
  561SOL    HW1 1682   2.876   3.040   2.573 -1.9516 -1.2767 -1.6582
  561SOL    HW2 1683   2.941   0.068   2.684 -1.3738 -1.9366 -1.2431
  562SOL     OW 1684   1.431   1.989   1.365  0.3942  0.4505  0.0657
  562SOL    HW1 1685   1.493   2.033   1.432  1.2770 -1.4676  2.6216
  562SOL    HW2 1686   1.367   2.059   1.326  0.7082  1.1635  2.0838
  563SOL     OW 1687   1.284   0.240   2.962  0.0691  0.2066 -0.2375
  563SOL    HW1 1688   1.366   0.190   2.974 -1.1880  1.0586  1.6039
  563SOL    HW2 1689   1.201   0.181   2.972 -2.9557  0.4437 -2.2173
  564SOL     OW 1690   0.217   2.646   0.453  0.0425 -0.1081  0.6664
  564SOL    HW1 1691   0.221   2.709   0.372 -0.1835 -1.7289  1.7265
  564SOL    HW2 1692   0.153   2.684   0.524 -0.9202  1.9407  2.8498
  565SOL     OW 1693   1.093   2.332   1.308 -0.0848 -0.4951  0.0727
  565SOL    HW1 1694   1.112   2.237   1.328  0.1567  0.9869  1.7486
  565SOL    HW2 1695   1.140   2.353   1.218  0.5438 -0.1939 -2.0096
  566SOL     OW 1696   1.157   0.050   2.405 -0.0509 -0.3331 -0.2427
  566SOL    HW1 1697   1.106   0.135   2.377 -4.6700  1.2179  1.4992
  566SOL    HW2 1698   1.162   3.067   2.331  0.6863  2.4902  1.9317
  567SOL     OW 1699   2.000   0.277   1.034 -0.0455  0.0033 -0.2504
  567SOL    HW1 1700   1.915   0.332   1.024  0.4906  1.2130  0.6412
  567SOL    HW2 1701   1.992   0.176   1.011  0.3581 -1.9126 -0.1563
  568SOL     OW 1702   1.646   1.795   0.668  0.5499  0.0916 -0.4492
  568SOL    HW1 1703   1.704   1.780   0.584 -2.3178 -1.4013 -0.1755
  568SOL    HW2 1704   1.594   1.881   0.654 -0.8612 -1.8207  3.2509
  569SOL     OW 1705   2.026   0.605   2.092 -0.0717  0.1786 -0.3255
  569SOL    HW1 1706   2.012   0.529   2.031 -2.2985  1.1473  2.3055
  569SOL    HW2 1707   1.945   0.625   2.152 -2.0373 -0.7935  0.9565
  570SOL     OW 1708   2.907   2.871   2.281 -0.1025 -0.6523 -0.6840
  570SOL    HW1 1709   2.843   2.931   2.229  1.6562  1.0928  2.1766
  570SOL    HW2 1710   2.994   2.921   2.309  3.1247  0.3097  0.3580
  571SOL     OW 1711   0.437   0.064   1.302  0.0025 -0.9372  0.2861
  571SOL    HW1 1712   0.419   0.080   1.403 -0.9250 -1.0159 -0.4898
  571SOL    HW2 1713   0.356   0.031   1.250  1.2866  2.2346 -0.9929
  572SOL     OW 1714   0.723   2.461   1.630  0.0428 -0.4907  0.7828
  572SOL    HW1 1715   0.686   2.558   1.630 -0.0671  1.7109 -0.4025
  572SOL    HW2 1716   0.759   2.435   1.720 -2.0847 -0.6441 -2.8293
  573SOL     OW 1717   1.288   1.102   2.496 -0.3072  0.0610 -0.1110
  573SOL    HW1 1718   1.234   1.185   2.492  2.8499 -0.2063 -2.6795
  573SOL    HW2 1719   1.266   1.047   2.580  0.5659  1.3015  0.5677
  574SOL     OW 1720   2.287   2.313   2.043  0.2666 -0.4829 -0.0281
  574SOL    HW1 1721   2.302   2.375   1.962 -0.8610  2.1054 -1.2932
  574SOL    HW2 1722   2.252   2.366   2.124 -0.7359  1.7417 -2.0167
  575SOL     OW 1723   1.164   0.105   0.757  0.1801 -0.2146  0.0287
  575SOL    HW1 1724   1.250   0.143   0.791 -1.4162 -1.6342 -1.5218
  575SOL    HW2 1725   1.192   0.076   0.664 -1.1185  1.0762  0.0016
  576SOL     OW 1726   1.173   0.531   0.903 -0.2961 -0.4330  0.0262
  576SOL    HW1 1727   1.154   0.494   0.809  0.6095  3.2637 -0.5450
  576SOL    HW2 1728   1.236   0.478   0.963  0.9769 -1.2207 -1.1387
  577SOL     OW 1729   2.089   2.012   0.315 -0.1401  0.8019  0.1854
  577SOL    HW1 1730   2.113   1.912   0.296  1.3777 -3.1810 -2.1352
  577SOL    HW2 1731   2.030   2.019   0.394  2.1116  0.3388 -0.1936
  578SOL     OW 1732   2.089   0.610   1.315  0.3094  0.5206  0.6559
  578SOL    HW1 1733   2.192   0.596   1.306  3.2412 -1.8556  2.8348
  578SOL    HW2 1734   2.076   0.693   1.373 -1.1309  2.3924  0.3812
  579SOL     OW 1735   1.658   1.203   2.314  0.1765 -0.2276 -0.1237
  579SOL    HW1 1736   1.579   1.241   2.260 -1.3354  0.0059 -2.7498
  579SOL    HW2 1737   1.683   1.123   2.259 -4.0514  0.8162  0.7118
  580SOL     OW 1738   1.309   0.878   1.489  0.2233 -0.3054  0.0003
  580SOL    HW1 1739   1.338   0.824   1.406 -0.3765  2.3334  0.2625
  580SOL    HW2 1740   1.283   0.812   1.561  2.5811  1.6535 -1.3612
  581SOL     OW 1741   0.010   0.958   0.977 -0.1680  0.7089 -0.5870
  581SOL    HW1 1742   0.000   0.900   1.063 -0.1540  2.0596  1.2666
  581SOL    HW2 1743   0.073   1.041   0.979 -1.3946  2.0576  0.0793
  582SOL     OW 1744   2.954   0.391   1.928 -0.1918  0.5219  0.2679
  582SOL    HW1 1745   2.857   0.411   1.951  1.4359 -1.2451  0.5908
  582SOL    HW2 1746   3.010   0.470   1.967 -1.2932 -3.9083  0.6953
  583SOL     OW 1747   2.913   1.111   2.525  0.2520  0.1084 -0.0104
  583SOL    HW1 1748   2.959   1.197   2.548 -0.8407  0.9292 -1.3229
  583SOL    HW2 1749   2.828   1.092   2.583 -3.1218  0.1843  3.1635
  584SOL     OW 1750   2.079   2.342   0.563  0.5440  0.2008 -0.4509
  584SOL    HW1 1751   2.158   2.297   0.611 -2.2757 -3.0467  0.5150
  584SOL    HW2 1752   2.100   2.364   0.466  0.6961 -0.0751 -1.8088
  585SOL     OW 1753   0.074   2.310   2.896 -0.6835  0.6265 -0.4091
  585SOL    HW1 1754   0.027   2.223   2.867 -0.6466  0.3921  0.2494
  585SOL    HW2 1755   0.097   2.319   2.995  1.5975 -0.3769 -2.0830
  586SOL     OW 1756   2.091   1.711   2.303  0.0663 -0.1568  0.5131
  586SOL    HW1 1757   2.027   1.712   2.224  1.2062 -1.6061  0.3850
  586SOL    HW2 1758   2.141   1.801   2.311  2.2319 -1.5302  1.7998
  587SOL     OW 1759   2.324   1.457   2.749  0.0035  0.7666  0.1504
  587SOL    HW1 1760   2.415   1.502   2.768  0.3209 -0.6423  1.7149
  587SOL    HW2 1761   2.273   1.423   2.831 -1.1277  0.5624 -1.0930
  588SOL     OW 1762   2.474   3.044   1.317 -0.1841  0.2920  0.2727
  588SOL    HW1 1763   2.429   2.981   1.387  0.1898 -1.4861  0.7100
  588SOL    HW2 1764   2.571   3.031   1.319 -2.1218 -0.9088  2.8759
  589SOL     OW 1765   0.525   0.245   0.663 -0.0171  0.0709  0.1526
  589SOL    HW1 1766   0.489   0.167   0.607  0.5633  0.6730 -1.3313
  589SOL    HW2 1767   0.477   0.336   0.652  0.5446  0.8269 -0.5259
  590SOL     OW 1768   2.554   2.231   1.060  0.3367 -0.2433  0.2878
  590SOL    HW1 1769   2.501   2.299   1.007  3.2554  2.3170 -0.0892
  590SOL    HW2 1770   2.532   2.239   1.160  1.1040 -2.4228 -0.9538
  591SOL     OW 1771   1.224   2.366   1.077 -0.0830  0.2826  0.3265
  591SOL    HW1 1772   1.247   2.268   1.092  1.8076  3.6837 -1.9358
  591SOL    HW2 1773   1.169   2.369   0.991  0.3376  2.4144 -1.1950
  592SOL     OW 1774   0.975   1.269   1.250 -0.0583  0.7542  0.0037
  592SOL    HW1 1775   0.915   1.193   1.292  0.5634 -1.5072  2.4783
  592SOL    HW2 1776   1.063   1.230   1.219 -1.6250 -0.0209 -0.4141
  593SOL     OW 1777   1.056   2.504   1.529  0.1705  0.2372  0.4062
  593SOL    HW1 1778   1.006   2.585   1.491  0.1752  2.4815 -1.2875
  593SOL    HW2 1779   1.093   2.447   1.452  1.6878  2.0416 -0.2093
  594SOL     OW 1780   0.752   1.573   3.043 -0.0418 -0.0120  0.1458
  594SOL    HW1 1781   0.651   1.573   3.022 -0.9387  0.8491  1.4294
  594SOL    HW2 1782   0.774   1.618   0.051  0.0853  1.5907  1.8804
  595SOL     OW 1783   1.440   1.479   1.455 -0.4449 -0.2306  0.0416
  595SOL    HW1 1784   1.449   1.495   1.557  0.4823 -1.3832  2.2518
  595SOL    HW2 1785   1.472   1.558   1.399  1.9615  0.3331 -0.3596
  596SOL     OW 1786   2.956   1.269   2.090  0.1209 -0.3200 -0.0477
  596SOL    HW1 1787   2.910   1.210   2.019 -0.4509 -0.3997 -1.0781
  596SOL    HW2 1788   3.006   1.345   2.049  0.0748  0.4709  1.0923
  597SOL     OW 1789   1.480   2.427   1.522  0.6604  0.2528  0.1667
  597SOL    HW1 1790   1.396   2.372   1.547  1.7633  0.6268 -1.3534
  597SOL    HW2 1791   1.449   2.514   1.478  0.5354  1.3294 -0.1079
  598SOL     OW 1792   2.291   1.628   1.318  0.0795 -0.3266 -0.0636
  598SOL    HW1 1793   2.291   1.598   1.418 -2.1929 -0.2508  1.4767
  598SOL    HW2 1794   2.242   1.562   1.258  0.7323 -1.2012  0.7944
  599SOL     OW 1795   1.024   2.744   2.777  0.0416  0.1337  0.0366
  599SOL    HW1 1796   1.123   2.767   2.795  0.9712  2.1805  3.7569
  599SOL    HW2 1797   0.975   2.737   2.866 -2.6201  0.1077  0.8960
  600SOL     OW 1798   3.005   2.214   0.271 -0.3695 -0.1722  0.7797
  600SOL    HW1 1799   2.994   2.263   0.361 -1.4962 -0.9537  1.7635
  600SOL    HW2 1800   2.913   2.195   0.226 -3.0657  0.9162 -0.5126
  601SOL     OW 1801   0.376   0.632   1.332 -0.1755  0.1804 -0.3152
  601SOL    HW1 1802   0.434   0.705   1.380  0.2487  2.3325  0.1903
  601SOL    HW2 1803   0.337   0.565   1.402  1.6228 -2.5053  0.1099
  602SOL     OW 1804   0.592   0.284   1.220 -0.3098  0.2281  0.0117
  602SOL    HW1 1805   0.532   0.201   1.231  0.6794 -0.7143 -0.2079
  602SOL    HW2 1806   0.656   0.268   1.141 -1.3101  1.5316  0.0766
  603SOL     OW 1807   0.202   2.919   2.875  0.0858  0.7214 -0.2412
  603SOL    HW1 1808   0.203   2.828   2.832 -0.8656 -0.6188  1.3900
  603SOL    HW2 1809   0.113   2.943   2.919  1.1216 -0.2825  2.5055
  604SOL     OW 1810   1.875   3.048   1.834 -0.0425 -0.2532 -0.1004
  604SOL    HW1 1811   1.792   3.000   1.867 -0.0358  0.9362  1.1638
  604SOL    HW2 1812   1.959   2.994   1.847  1.2561 -1.0879  1.1318
  605SOL     OW 1813   1.308   1.469   1.937  0.3271 -0.0542  0.2746
  605SOL    HW1 1814   1.257   1.414   2.002 -0.2870  0.2406 -0.4918
  605SOL    HW2 1815   1.348   1.550   1.985 -1.5035  0.0029 -0.2454
  606SOL     OW 1816   1.926   2.642   3.072 -0.0288  0.4671  0.1381
  606SOL    HW1 1817   1.868   2.564   0.017  1.1291  2.7868 -1.7712
  606SOL    HW2 1818   1.938   2.641   2.974  3.5836 -1.1236  1.5983
  607SOL     OW 1819   0.730   0.169   2.416 -0.1083 -0.6958  0.0667
  607SOL    HW1 1820   0.712   0.167   2.515  0.0760  1.4303  1.0498
  607SOL    HW2 1821   0.827   0.193   2.395  1.2083 -0.5500  0.0949
  608SOL     OW 1822   2.938   2.364   2.139 -0.2294 -0.0825 -0.2981
  608SOL    HW1 1823   2.918   2.440   2.199 -1.3222 -0.4752 -1.5143
  608SOL    HW2 1824   2.986   2.287   2.185 -3.0217  0.8051 -0.8463
  609SOL     OW 1825   0.622   1.126   3.000  0.0004  0.4375 -0.2128
  609SOL    HW1 1826   0.713   1.168   2.979  2.8016 -0.9941 -3.3757
  609SOL    HW2 1827   0.593   1.058   2.928 -2.4173 -0.9894  0.6658
  610SOL     OW 1828   0.677   2.603   0.919  0.0480 -0.1079 -0.3977
  610SOL    HW1 1829   0.670   2.704   0.918 -2.5898  0.3682 -1.8340
  610SOL    HW2 1830   0.709   2.571   1.007 -3.6231  2.3055 -3.2635
  611SOL     OW 1831   1.263   1.567   0.573 -0.4482  0.6396 -0.2188
  611SOL    HW1 1832   1.225   1.475   0.603 -0.4770 -0.3661  1.7863
  611SOL    HW2 1833   1.193   1.639   0.580  1.5359 -0.0992  1.1397
  612SOL     OW 1834   2.300   1.968   0.637  0.9509  0.2142  0.3110
  612SOL    HW1 1835   2.212   1.948   0.687 -1.1635  2.4631  1.9395
  612SOL    HW2 1836   2.380   1.921   0.685 -1.4643 -0.4395 -0.7708
  613SOL     OW 1837   1.725   1.739   0.400 -0.6709  0.9148 -0.1341
  613SOL    HW1 1838   1.766   1.750   0.308  0.1879 -1.5199 -1.3364
  613SOL    HW2 1839   1.623   1.731   0.396  0.2806  0.6762 -2.4139
  614SOL     OW 1840   2.711   0.255   2.543  0.1361 -0.2904  0.3486
  614SOL    HW1 1841   2.773   0.177   2.565  3.0318 -0.9644  0.7325
  614SOL    HW2 1842   2.621   0.234   2.584  0.3786 -0.7595 -0.8141
  615SOL     OW 1843   0.579   1.063   0.410  0.5492 -0.6425 -0.8587
  615SOL    HW1 1844   0.634   1.155   0.395  1.4684  3.8031  1.5746
  615SOL    HW2 1845   0.569   1.034   0.510  0.6973  2.1814 -0.5149
  616SOL     OW 1846   1.539   1.164   2.560 -0.1998 -0.4188  0.0639
  616SOL    HW1 1847   1.446   1.134   2.526  0.7177 -0.4470 -1.2514
  616SOL    HW2 1848   1.607   1.174   2.483  2.2829  0.2466  0.7262
  617SOL     OW 1849   1.349   0.831   0.098 -0.3300 -0.2455  0.3176
  617SOL    HW1 1850   1.252   0.821   0.120  1.2937 -1.5718  0.8643
  617SOL    HW2 1851   1.401   0.754   0.129 -2.0900  2.1376 -1.2366
  618SOL     OW 1852   0.014   2.025   1.866  0.2103  0.0415  0.2564
  618SOL    HW1 1853   0.112   1.995   1.875 -1.4558  0.9046 -2.0083
  618SOL    HW2 1854   3.040   2.005   1.949  0.0392  0.8104  1.8805
  619SOL     OW 1855   2.752   1.995   0.688  0.4034 -0.1227  0.0476
  619SOL    HW1 1856   2.838   1.942   0.712 -0.2778  0.4957  5.8403
  619SOL    HW2 1857   2.778   2.068   0.624 -1.2799  1.6955 -0.8597
  620SOL     OW 1858   2.556   0.103   1.098 -0.5292 -0.0486 -0.2464
  620SOL    HW1 1859   2.641   0.048   1.077  1.0998 -1.6309  0.6299
  620SOL    HW2 1860   2.518   0.065   1.183  0.3967 -1.1111 -3.6740
  621SOL     OW 1861   0.400   1.718   0.715  0.2854 -0.2861 -0.1170
  621SOL    HW1 1862   0.372   1.650   0.784  1.8482  3.3850 -0.6386
  621SOL    HW2 1863   0.437   1.674   0.632  1.4295 -0.2806 -1.6783
  622SOL     OW 1864   0.641   1.784   1.735 -0.4119 -0.4450  0.1518
  622SOL    HW1 1865   0.633   1.703   1.801  2.0580 -1.4306 -1.6271
  622SOL    HW2 1866   0.706   1.861   1.770 -0.1409  2.3971  0.2745
  623SOL     OW 1867   2.211   2.811   2.225 -0.0116  0.0337  0.2047
  623SOL    HW1 1868   2.241   2.774   2.134  2.4402 -0.2126  0.5104
  623SOL    HW2 1869   2.265   2.896   2.238  0.0377 -1.6094 -0.4339
  624SOL     OW 1870   0.493   1.843   0.107  0.1145  0.2850  0.3860
  624SOL    HW1 1871   0.530   1.888   0.025 -2.2283 -1.5450 -1.9205
  624SOL    HW2 1872   0.467   1.744   0.092  2.4685 -0.9560  1.6245
  625SOL     OW 1873   0.828   1.950   2.105  0.1712 -0.5240 -0.2320
  625SOL    HW1 1874   0.929   1.951   2.115 -0.9413  0.9106  0.3296
  625SOL    HW2 1875   0.792   1.861   2.140  0.8624  2.7550  2.3198
  626SOL     OW 1876   0.060   2.615   0.004 -0.1816  0.1152  0.1832
  626SOL    HW1 1877   0.055   2.518   0.031  2.2488  3.8843 -0.1497
  626SOL    HW2 1878   0.149   2.655   0.034  3.9075 -1.0014 -0.9848
  627SOL     OW 1879   1.657   1.595   2.436  0.5026  0.4816  0.0020
  627SOL    HW1 1880   1.716   1.540   2.495 -0.2284 -1.7856 -0.0569
  627SOL    HW2 1881   1.563   1.593   2.469  3.1976  1.0263  0.0987
  628SOL     OW 1882   0.931   2.187   0.464  0.0645 -0.2985  0.1046
  628SOL    HW1 1883   0.987   2.226   0.542  2.1735 -0.6584 -0.2370
  628SOL    HW2 1884   0.934   2.247   0.380 -2.6477  1.5104 -1.6631
  629SOL     OW 1885   0.983   0.900   2.169  0.7869  0.2101  0.0356
  629SOL    HW1 1886   1.071   0.940   2.194 -1.7750 -0.0037  2.8189
  629SOL    HW2 1887   0.952   0.920   2.079 -0.9971  0.0894 -0.2578
  630SOL     OW 1888   2.992   2.657   1.562 -0.1662  0.0302  0.2274
  630SOL    HW1 1889   2.937   2.724   1.508 -0.5099 -0.4540  0.4950
  630SOL    HW2 1890   2.983   2.676   1.663 -1.7945 -0.5768 -2.3069
  631SOL     OW 1891   1.407   0.805   0.784  0.3267  0.5574 -0.4251
  631SOL    HW1 1892   1.387   0.835   0.689 -1.0910 -1.3534 -2.0636
  631SOL    HW2 1893   1.323   0.758   0.822 -1.5895  0.2854 -0.2238
  632SOL     OW 1894   2.192   0.746   2.306  0.4439  0.1650  0.4778
  632SOL    HW1 1895   2.126   0.820   2.306  4.3426  0.0644 -1.6311
  632SOL    HW2 1896   2.173   0.676   2.230  0.0974  0.5172 -2.0095
  633SOL     OW 1897   2.018   1.434   0.185  0.0389 -0.2758 -0.3808
  633SOL    HW1 1898   1.958   1.460   0.267 -0.8616  0.1948  1.0553
  633SOL    HW2 1899   1.958   1.404   0.106 -2.9464 -0.5369  1.5535
  634SOL     OW 1900   0.257   1.971   0.139 -0.3600 -0.1620  0.3091
  634SOL    HW1 1901   0.345   1.922   0.138 -0.5247  0.5474 -2.5746
  634SOL    HW2 1902   0.180   1.919   0.092 -1.5323 -1.6134  0.4543
  635SOL     OW 1903   2.981   1.586   2.400  0.6663  0.2146  0.2351
  635SOL    HW1 1904   2.959   1.516   2.472  2.2950 -1.0078 -0.5159
  635SOL    HW2 1905   2.912   1.582   2.326  1.2237 -1.8746 -3.1575
  636SOL     OW 1906   0.589   1.591   2.384  0.3010  0.6360  0.0420
  636SOL    HW1 1907   0.568   1.515   2.456 -1.0716 -0.8400  2.6640
  636SOL    HW2 1908   0.587   1.684   2.428  2.2386  0.2009  1.0488
  637SOL     OW 1909   0.167   2.089   0.354  0.5590  0.1535  0.4992
  637SOL    HW1 1910   0.207   2.039   0.279 -0.7181 -0.4716  1.4721
  637SOL    HW2 1911   0.081   2.132   0.316 -0.9521  2.0789 -1.5350
  638SOL     OW 1912   2.401   2.412   0.890 -0.0451  0.1784  0.5291
  638SOL    HW1 1913   2.332   2.441   0.960  0.9539 -1.8683 -0.0666
  638SOL    HW2 1914   2.355   2.368   0.811  1.2762 -1.7282  1.5290
  639SOL     OW 1915   1.079   0.762   0.128 -0.6949  0.4526 -0.4298
  639SOL    HW1 1916   0.993   0.776   0.192 -1.8042  2.9824  2.4850
  639SOL    HW2 1917   1.108   0.666   0.125 -1.3365  1.9777 -0.6004
  640SOL     OW 1918   2.367   2.170   1.745 -0.0531 -0.4432  0.4059
  640SOL    HW1 1919   2.420   2.257   1.749  1.6836 -0.2129  0.8631
  640SOL    HW2 1920   2.367   2.136   1.647  0.4107  0.3243  1.5298
  641SOL     OW 1921   2.733   2.980   1.306 -0.0582 -0.9265  0.4365
  641SOL    HW1 1922   2.760   2.956   1.402  2.2992 -2.8368 -2.2877
  641SOL    HW2 1923   2.820   2.979   1.248  2.8537  2.3336 -0.0678
  642SOL     OW 1924   0.845   1.087   1.421 -0.1615 -0.2675  0.4918
  642SOL    HW1 1925   0.904   1.003   1.398 -2.2646 -0.6540  4.2614
  642SOL    HW2 1926   0.885   1.140   1.500 -1.4429  2.0744  1.5846
  643SOL     OW 1927   0.547   1.207   2.266 -0.3822  0.4313  0.4988
  643SOL    HW1 1928   0.522   1.195   2.365  0.4496 -0.0879 -1.0685
  643SOL    HW2 1929   0.496   1.287   2.226  0.3173  1.7053  0.4991
  644SOL     OW 1930   0.971   0.272   2.318  0.2813  0.8670 -0.2405
  644SOL    HW1 1931   1.002   0.367   2.302  0.4373 -0.8232 -0.2508
  644SOL    HW2 1932   0.956   0.226   2.230  1.6834  2.1245 -1.0089
  645SOL     OW 1933   2.058   1.257   1.418 -0.8822  0.2876 -0.3752
  645SOL    HW1 1934   2.124   1.181   1.454  1.0052 -0.6806 -3.1673
  645SOL    HW2 1935   2.048   1.243   1.317  0.4138 -0.5108  0.3550
  646SOL     OW 1936   1.352   2.374   0.104 -0.0605  0.0081 -0.1332
  646SOL    HW1 1937   1.424   2.388   0.033  0.0193  0.3442  1.2260
  646SOL    HW2 1938   1.326   2.271   0.108  1.0175 -2.4712 -2.0438
  647SOL     OW 1939   1.758   2.681   0.742 -0.4586 -0.5745 -0.8519
  647SOL    HW1 1940   1.747   2.586   0.783  0.9350 -2.2670 -3.2795
  647SOL    HW2 1941   1.676   2.702   0.684 -3.1611  0.9488 -0.8151
  648SOL     OW 1942   0.276   2.799   1.198  0.1575 -0.5883 -0.0885
  648SOL    HW1 1943   0.217   2.732   1.248 -1.4786  0.3242 -0.0773
  648SOL    HW2 1944   0.310   2.748   1.112 -0.2206 -4.0464 -1.6194
  649SOL     OW 1945   1.023   2.395   0.290  0.0664 -0.0791 -0.3355
  649SOL    HW1 1946   1.045   2.450   0.374 -0.6405 -0.3314  0.7211
  649SOL    HW2 1947   1.043   2.451   0.205 -2.8335  1.8339  1.8352
  650SOL     OW 1948   2.493   1.177   0.078 -0.1536  0.0558 -0.1162
  650SOL    HW1 1949   2.587   1.147   0.050 -0.1562 -0.7136  0.4273
  650SOL    HW2 1950   2.489   1.177   0.180 -0.7277  0.6260 -3.3834
  651SOL     OW 1951   2.562   2.309   2.167 -0.3990 -0.0545 -0.0081
  651SOL    HW1 1952   2.463   2.313   2.136 -3.4403 -2.2134 -1.6952
  651SOL    HW2 1953   2.563   2.317   2.270 -0.0271 -1.5404  3.3138
  652SOL     OW 1954   2.764   2.238   0.540 -0.2008 -0.0723  0.2016
  652SOL    HW1 1955   2.712   2.301   0.598  0.1543  0.2876  0.1618
  652SOL    HW2 1956   2.860   2.275   0.541 -1.9481 -0.2671 -0.5017
  653SOL     OW 1957   2.694   1.750   1.483 -0.4214  0.2752  0.1063
  653SOL    HW1 1958   2.775   1.814   1.468  0.1735  0.1614 -2.8138
  653SOL    HW2 1959   2.728   1.654   1.489 -0.0262 -0.1147  2.7400
  654SOL     OW 1960   1.057   1.240   0.023 -0.3729  0.1543 -0.8777
  654SOL    HW1 1961   0.997   1.166   0.060 -1.6187  2.7435 -2.0384
  654SOL    HW2 1962   1.005   1.288   3.033  2.5600 -0.1475  0.6676
  655SOL     OW 1963   1.523   1.437   0.593 -0.2282 -0.2982 -0.1658
  655SOL    HW1 1964   1.443   1.503   0.589  0.0620 -1.2545 -0.6229
  655SOL    HW2 1965   1.546   1.428   0.496 -2.1202 -0.9946 -2.2814
  656SOL     OW 1966   1.405   2.057   2.937 -0.2051  0.3849  0.3495
  656SOL    HW1 1967   1.381   2.135   2.878  0.1447  0.2473 -1.3791
  656SOL    HW2 1968   1.326   1.991   2.952 -1.4392 -1.8259 -1.3816
  657SOL     OW 1969   2.147   1.492   0.650  0.3061 -0.6085 -0.0360
  657SOL    HW1 1970   2.141   1.399   0.608  0.5535 -2.4836  0.9674
  657SOL    HW2 1971   2.243   1.525   0.642  1.3746  1.5269  0.2534
  658SOL     OW 1972   2.074   2.854   1.858  0.9595 -0.1708 -0.3696
  658SOL    HW1 1973   2.017   2.782   1.895  0.4045  0.2555  0.3753
  658SOL    HW2 1974   2.056   2.849   1.753 -0.0368  0.0778 -4.6972
  659SOL     OW 1975   2.853   1.536   0.411 -0.2938  0.2152  0.3037
  659SOL    HW1 1976   2.857   1.436   0.438 -0.6099 -0.6876  0.2709
  659SOL    HW2 1977   2.886   1.536   0.310 -0.4205 -0.8182 -1.9846
  660SOL     OW 1978   1.368   0.913   0.534 -0.1436  0.1294  0.4988
  660SOL    HW1 1979   1.336   0.964   0.453  1.2552  0.5206 -0.0216
  660SOL    HW2 1980   1.430   0.838   0.506 -0.7243  0.5682  1.2549
  661SOL     OW 1981   1.484   0.647   0.234  0.0985  0.1837  0.7131
  661SOL    HW1 1982   1.542   0.569   0.212 -0.9344  2.6388  1.0690
  661SOL    HW2 1983   1.509   0.688   0.327 -0.3360  1.7967  1.5321
  662SOL     OW 1984   0.490   0.367   0.361  0.5083  0.1965  0.2111
  662SOL    HW1 1985   0.471   0.388   0.262  0.2925 -2.2238  2.2539
  662SOL    HW2 1986   0.583   0.325   0.377  1.5362 -0.2352  0.3237
  663SOL     OW 1987   1.087   2.565   0.092 -0.3426  0.1035  0.6647
  663SOL    HW1 1988   1.176   2.612   0.121  0.7933 -0.8350  0.6889
  663SOL    HW2 1989   1.100   2.544   3.072 -0.9774 -0.3937  0.6042
  664SOL     OW 1990   0.622   2.959   1.200 -0.8588 -0.4377 -0.0889
  664SOL    HW1 1991   0.551   3.027   1.229  3.4838 -1.0497 -2.5812
  664SOL    HW2 1992   0.615   2.869   1.247  0.5265 -2.0850  0.0011
  665SOL     OW 1993   1.617   0.001   0.935  0.3842 -0.0774 -0.6112
  665SOL    HW1 1994   1.596   3.066   1.034  1.6065 -1.5539 -0.3078
  665SOL    HW2 1995   1.638   0.099   0.909 -1.4430 -0.9159 -1.0172
  666SOL     OW 1996   0.895   2.492   2.695  0.1510  0.2904  0.0509
  666SOL    HW1 1997   0.816   2.449   2.743  3.2817 -0.2658 -1.8206
  666SOL    HW2 1998   0.920   2.582   2.741  1.4853  3.2374  1.9496
  667SOL     OW 1999   2.829   0.278   1.442 -0.0158  0.4206 -0.0487
  667SOL    HW1 2000   2.823   0.334   1.525  1.1093 -1.7300 -0.9724
  667SOL    HW2 2001   2.763   0.299   1.367 -0.8229  0.6607 -0.3432
  668SOL     OW 2002   0.486   0.164   1.856 -0.7713 -0.1848  0.4217
  668SOL    HW1 2003   0.573   0.206   1.890 -0.5327  2.4020 -0.9473
  668SOL    HW2 2004   0.488   0.060   1.870  0.1613 -1.0946 -0.5657
  669SOL     OW 2005   1.316   2.994   1.150  0.0022 -0.1736  0.3052
  669SOL    HW1 2006   1.289   2.979   1.052 -0.9049  1.2631 -0.5623
  669SOL    HW2 2007   1.251   2.939   1.210  0.9169  1.1422  2.7161
  670SOL     OW 2008   1.546   2.458   3.008  0.3176 -0.1203  0.0772
  670SOL    HW1 2009   1.638   2.466   3.051 -1.5507 -0.2455 -2.4565
  670SOL    HW2 2010   1.563   2.420   2.915  1.0823 -0.3113 -0.0352
  671SOL     OW 2011   0.407   1.281   2.866  0.0841 -0.3186  0.0354
  671SOL    HW1 2012   0.374   1.234   2.780  1.4506  0.4254 -0.8229
  671SOL    HW2 2013   0.491   1.238   2.905 -1.6248 -2.3440  1.4135
  672SOL     OW 2014   1.871   0.581   2.556 -0.5364 -0.0428  0.0286
  672SOL    HW1 2015   1.966   0.558   2.535  0.2169  0.6448 -1.4820
  672SOL    HW2 2016   1.845   0.668   2.508 -1.1249 -0.2123 -1.0894
  673SOL     OW 2017   0.059   1.947   0.985  0.0993 -0.5575 -0.4690
  673SOL    HW1 2018   0.043   2.030   1.045 -2.0753  0.0474  3.6625
  673SOL    HW2 2019   0.031   1.865   1.035 -0.9867 -0.8929 -1.6450
  674SOL     OW 2020   1.853   2.325   1.848  0.2107  0.6151  0.6353
  674SOL    HW1 2021   1.834   2.292   1.943 -1.5766  0.2587 -0.4086
  674SOL    HW2 2022   1.933   2.274   1.812  0.8555 -0.6638  0.6678
  675SOL     OW 2023   1.230   1.646   1.040 -0.5949 -0.2716  0.1296
  675SOL    HW1 2024   1.288   1.613   0.960  1.3639  0.2364  0.1187
  675SOL    HW2 2025   1.157   1.582   1.065  1.5628  1.9097  1.0696
  676SOL     OW 2026   2.241   0.679   0.900 -0.2511  0.4156 -0.4452
  676SOL    HW1 2027   2.250   0.687   0.798  2.6759 -0.3935  1.1510
  676SOL    HW2 2028   2.306   0.741   0.947  1.3642  0.3055  2.6028
  677SOL     OW 2029   2.346   0.156   0.235  0.2823  0.4324 -0.7985
  677SOL    HW1 2030   2.400   0.151   0.320  0.1342 -0.4244 -3.4152
  677SOL    HW2 2031   2.412   0.177   0.160 -2.4783 -0.0755  1.0448
  678SOL     OW 2032   2.455   1.425   1.059 -0.5556  0.5289 -0.3236
  678SOL    HW1 2033   2.530   1.494   1.049  0.7268  0.1377  0.4523
  678SOL    HW2 2034   2.479   1.356   1.136  0.6707 -3.4752  2.1570
  679SOL     OW 2035   2.505   0.251   0.035  0.1303 -0.2775 -0.0605
  679SOL    HW1 2036   2.501   0.331   0.102 -1.1394 -1.5086  0.6198
  679SOL    HW2 2037   2.598   0.230   3.073  1.2971 -2.7877  0.4602
  680SOL     OW 2038   0.731   1.657   2.157  0.1144  0.1081 -0.6946
  680SOL    HW1 2039   0.663   1.631   2.080  0.0896 -0.6055 -2.1675
  680SOL    HW2 2040   0.676   1.635   2.248  0.0996 -0.3214  4.0061
  681SOL     OW 2041   2.651   2.397   1.512  0.3811 -0.2754 -0.4311
  681SOL    HW1 2042   2.631   2.409   1.611 -0.4339  0.8310  1.7172
  681SOL    HW2 2043   2.747   2.425   1.487  1.3622  1.4112  0.3233
  682SOL     OW 2044   0.661   1.810   2.522  0.0915 -0.0309  0.2162
  682SOL    HW1 2045   0.651   1.894   2.463 -2.0523 -0.2465 -0.3270
  682SOL    HW2 2046   0.664   1.837   2.619 -0.7983  1.6999  0.7464
  683SOL     OW 2047   0.070   2.197   1.626 -0.0649  0.6513 -0.1674
  683SOL    HW1 2048   0.057   2.123   1.692 -0.8099 -0.1226  0.1151
  683SOL    HW2 2049   3.065   2.245   1.609  2.8893 -0.8312 -0.9050
  684SOL     OW 2050   3.015   1.880   1.654  0.2069  0.3741 -0.4016
  684SOL    HW1 2051   3.041   1.937   1.733 -2.4477 -1.3207 -1.0029
  684SOL    HW2 2052   0.002   1.795   1.641 -0.8980 -2.1018  1.0772
  685SOL     OW 2053   0.520   0.848   1.108 -1.2143  0.0888  0.4908
  685SOL    HW1 2054   0.530   0.751   1.141  2.3250 -2.7420 -0.4715
  685SOL    HW2 2055   0.596   0.875   1.044  0.4835 -1.9360  0.6624
  686SOL     OW 2056   0.147   2.985   2.602 -0.4677  0.5539 -0.6945
  686SOL    HW1 2057   0.208   3.048   2.551  1.2334 -0.3774  0.1115
  686SOL    HW2 2058   0.183   2.952   2.694  0.8576 -3.6003  0.5515
  687SOL     OW 2059   0.601   2.049   2.006 -0.4474  0.6545  0.1174
  687SOL    HW1 2060   0.608   2.074   1.907  0.7513 -1.0889  0.3114
  687SOL    HW2 2061   0.699   2.040   2.039 -0.4435  0.4249 -0.8455
  688SOL     OW 2062   2.467   0.308   1.773 -0.4251 -0.1819 -0.0187
  688SOL    HW1 2063   2.459   0.213   1.739 -1.9862 -1.6762  1.9330
  688SOL    HW2 2064   2.426   0.374   1.702  0.0242 -1.5836  0.4615
  689SOL     OW 2065   2.279   0.760   0.634 -0.5768  0.4152  0.9369
  689SOL    HW1 2066   2.338   0.840   0.660 -0.7357  0.7438 -0.6188
  689SOL    HW2 2067   2.326   0.708   0.558  2.1544 -1.0544 -0.4581
  690SOL     OW 2068   2.585   0.687   1.312  0.2477  0.4172  0.3363
  690SOL    HW1 2069   2.660   0.679   1.237  2.1095  0.6196 -1.1801
  690SOL    HW2 2070   2.626   0.726   1.395  2.7805 -0.0859  0.6806
  691SOL     OW 2071   0.488   1.185   1.729  0.2488  0.1482 -0.6857
  691SOL    HW1 2072   0.449   1.275   1.705  1.9810  1.9219  1.8879
  691SOL    HW2 2073   0.563   1.193   1.795 -3.0845  1.3525 -1.6449
  692SOL     OW 2074   0.719   1.371   1.900 -0.1071  0.7341  0.6874
  692SOL    HW1 2075   0.816   1.410   1.910  2.4947  1.4117 -0.9495
  692SOL    HW2 2076   0.726   1.273   1.884 -1.0194  1.6598 -0.0066
  693SOL     OW 2077   0.373   0.598   1.887  0.4545 -0.2273 -0.2741
  693SOL    HW1 2078   0.366   0.593   1.992 -1.0037 -0.8459  2.3275
  693SOL    HW2 2079   0.307   0.659   1.839 -0.9910 -1.0932 -0.6586
  694SOL     OW 2080   1.278   2.055   1.070 -0.0627  0.0836  0.6801
  694SOL    HW1 2081   1.316   1.991   1.140  0.2458 -0.4903 -0.8024
  694SOL    HW2 2082   1.350   2.083   0.998 -1.6073  1.3344 -2.8921
  695SOL     OW 2083   2.747   0.549   1.113  0.2639 -0.1166  0.0331
  695SOL    HW1 2084   2.751   0.524   1.010  0.3673 -0.3918 -0.2271
  695SOL    HW2 2085   2.836   0.540   1.160  0.4504  1.3620 -0.0315
  696SOL     OW 2086   0.682   2.057   0.527 -0.3291  0.2133 -0.5785
  696SOL    HW1 2087   0.685   2.011   0.620 -1.9973  0.7137  0.5957
  696SOL    HW2 2088   0.770   2.109   0.513  1.2759  2.2783  3.2676
  697SOL     OW 2089   1.715   0.955   1.491 -0.3933  0.4073  0.2652
  697SOL    HW1 2090   1.748   1.024   1.429 -0.2143 -1.0913 -0.2265
  697SOL    HW2 2091   1.705   0.991   1.585 -0.5021  1.2962 -0.3818
  698SOL     OW 2092   1.760   1.649   1.392 -0.2449 -0.0714 -0.7189
  698SOL    HW1 2093   1.669   1.688   1.361  0.9533  1.0949  1.8011
  698SOL    HW2 2094   1.836   1.715   1.372  0.8841  1.6306 -0.2521
  699SOL     OW 2095   0.044   0.644   2.479 -0.0244  0.2202  0.2961
  699SOL    HW1 2096   0.080   0.740   2.473  0.7529  0.3157 -1.7697
  699SOL    HW2 2097   3.064   0.629   2.563 -1.5055  0.5478  3.7019
  700SOL     OW 2098   1.481   2.466   0.729 -0.0142 -0.8722 -0.2198
  700SOL    HW1 2099   1.435   2.549   0.773  0.9082 -0.3438 -1.2197
  700SOL    HW2 2100   1.416   2.408   0.682  1.8402 -1.7251 -0.2534
  701SOL     OW 2101   3.028   1.466   1.900  0.2055 -0.7454 -0.3663
  701SOL    HW1 2102   3.031   1.445   1.803  1.2342  1.1652  1.6433
  701SOL    HW2 2103   3.034   1.567   1.914  0.5631  3.2013  1.5361
  702SOL     OW 2104   0.585   0.076   2.924  0.2621  0.2689  0.3688
  702SOL    HW1 2105   0.667   0.024   2.939  0.5876  3.9147  1.9257
  702SOL    HW2 2106   0.595   0.153   2.857 -0.4179  0.7642 -1.2432
  703SOL     OW 2107   2.073   0.804   2.691  0.5675 -0.3491 -0.1086
  703SOL    HW1 2108   1.984   0.766   2.729  0.7735  1.0606  3.1599
  703SOL    HW2 2109   2.071   0.779   2.592 -0.2458  0.6696  0.6425
  704SOL     OW 2110   2.791   1.322   1.091 -0.4711  0.1044  0.4015
  704SOL    HW1 2111   2.733   1.403   1.108 -1.6190  0.7333 -2.2645
  704SOL    HW2 2112   2.848   1.332   1.004  0.7171 -0.8331 -0.0329
  705SOL     OW 2113   2.607   1.625   1.857  0.5130  0.4017  0.0482
  705SOL    HW1 2114   2.589   1.693   1.784 -0.0269  0.0258  0.5140
  705SOL    HW2 2115   2.533   1.555   1.866  0.7137  1.7124 -0.0060
  706SOL     OW 2116   0.151   2.566   0.894  0.0005  0.0193 -0.1152
  706SOL    HW1 2117   0.254   2.565   0.900  0.9310 -0.8934 -2.1334
  706SOL    HW2 2118   0.112   2.495   0.828  1.6485  0.7006  0.2261
  707SOL     OW 2119   0.931   2.904   0.199  0.1635 -0.4025 -0.0985
  707SOL    HW1 2120   0.857   2.972   0.176  2.8250  0.0992  0.8969
  707SOL    HW2 2121   0.897   2.816   0.238 -0.3514 -1.8241  4.2288
  708SOL     OW 2122   0.572   2.213   1.528  0.3289  0.0713  0.3259
  708SOL    HW1 2123   0.632   2.266   1.474  1.2937 -0.0620  2.5742
  708SOL    HW2 2124   0.575   2.118   1.504  0.4594 -1.3036  0.6062
  709SOL     OW 2125   2.191   0.134   2.562 -0.2901  0.1281  0.3289
  709SOL    HW1 2126   2.131   0.059   2.602  0.7160  1.9756 -1.1073
  709SOL    HW2 2127   2.271   0.159   2.626  2.0322 -0.5979 -0.1675
  710SOL     OW 2128   1.082   2.460   2.888 -0.0204  0.0523 -0.5072
  710SOL    HW1 2129   1.026   2.435   2.805 -3.6906 -0.5616 -0.2502
  710SOL    HW2 2130   1.151   2.532   2.870 -1.9909 -0.2065  0.8374
  711SOL     OW 2131   1.089   1.906   2.734  0.2166 -0.1806 -0.0085
  711SOL    HW1 2132   1.127   1.985   2.681 -0.4838  0.0166  2.5362
  711SOL    HW2 2133   0.987   1.912   2.747 -4.0560 -0.7723 -1.4245
  712SOL     OW 2134   1.011   2.200   2.922 -0.7186 -0.1690  0.1585
  712SOL    HW1 2135   1.035   2.300   2.919  2.4676  2.0368  0.2582
  712SOL    HW2 2136   0.989   2.170   3.018  0.3475  0.0950  0.0308
  713SOL     OW 2137   0.756   0.892   1.752  0.2126 -0.1139  0.8711
  713SOL    HW1 2138   0.738   0.937   1.665 -1.5197  0.0977 -0.2076
  713SOL    HW2 2139   0.699   0.810   1.752  0.0696  1.0616  1.6482
  714SOL     OW 2140   1.778   2.020   1.567  0.5604  0.1281  0.4349
  714SOL    HW1 2141   1.694   2.081   1.568 -0.0555  2.5909  2.3824
  714SOL    HW2 2142   1.781   1.943   1.640  0.0112 -3.5669 -2.3992
  715SOL     OW 2143   0.074   0.431   0.641 -0.4678  0.0757  0.1821
  715SOL    HW1 2144   0.145   0.395   0.573 -1.7734  3.3663 -0.2498
  715SOL    HW2 2145   0.111   0.482   0.722 -1.2289  3.7926 -2.5981
  716SOL     OW 2146   0.593   2.697   0.223 -0.2266 -0.4105  0.7360
  716SOL    HW1 2147   0.679   2.648   0.192 -0.4072  0.6501  1.4535
  716SOL    HW2 2148   0.606   2.737   0.318  0.3995  0.1755 -1.4983
  717SOL     OW 2149   0.070   0.150   0.343  0.1694  0.5736  0.0907
  717SOL    HW1 2150   0.137   0.181   0.268 -1.5721 -0.8702  0.4491
  717SOL    HW2 2151   0.030   0.054   0.331 -2.1854 -3.0891  1.7339
  718SOL     OW 2152   1.786   2.551   1.144 -0.8255 -0.5969 -0.2234
  718SOL    HW1 2153   1.703   2.604   1.159  0.2232  1.3687 -1.3171
  718SOL    HW2 2154   1.859   2.580   1.211  1.9111  1.3726  0.6315
  719SOL     OW 2155   0.082   2.351   0.729 -0.3039  0.1324 -0.1879
  719SOL    HW1 2156   0.141   2.275   0.699 -0.0365  0.4667  0.6917
  719SOL    HW2 2157   0.018   2.327   0.808 -1.1937 -1.1758  1.6822
  720SOL     OW 2158   1.156   1.361   0.702  0.2443  0.1590 -0.6345
  720SOL    HW1 2159   1.215   1.328   0.776 -2.1458  0.3938 -1.6381
  720SOL    HW2 2160   1.131   1.278   0.648  2.7509  0.0914 -2.2485
  721SOL     OW 2161   0.860   0.577   0.824  0.4052  0.4222 -0.0847
  721SOL    HW1 2162   0.757   0.559   0.835 -0.9428 -1.5567 -1.3742
  721SOL    HW2 2163   0.896   0.616   0.913  2.5738  0.7283  2.7309
  722SOL     OW 2164   1.234   1.202   1.248  0.7596 -0.2611  0.0814
  722SOL    HW1 2165   1.208   1.256   1.330 -1.8186  0.1674 -2.8657
  722SOL    HW2 2166   1.327   1.171   1.265 -1.6193 -0.5753 -0.1306
  723SOL     OW 2167   0.704   0.291   1.911  0.5182 -0.0694  0.4280
  723SOL    HW1 2168   0.748   0.314   1.820 -0.0422  0.0525  1.3470
  723SOL    HW2 2169   0.710   0.372   1.974  2.6471  1.3115  0.4306
  724SOL     OW 2170   1.842   1.828   1.770  0.0611  0.3959 -0.3133
  724SOL    HW1 2171   1.856   1.752   1.705 -0.6804  2.8046 -0.3415
  724SOL    HW2 2172   1.934   1.875   1.793  0.5330  1.4016 -0.8790
  725SOL     OW 2173   0.729   2.603   1.189 -0.4342 -0.0471  0.1840
  725SOL    HW1 2174   0.764   2.521   1.240  3.1614 -1.3661  1.1828
  725SOL    HW2 2175   0.659   2.652   1.246 -2.8303  0.4136  1.1895
  726SOL     OW 2176   1.535   0.713   0.490 -0.4737 -0.2295  0.0194
  726SOL    HW1 2177   1.520   0.654   0.571 -2.2379 -1.4501 -1.0257
  726SOL    HW2 2178   1.635   0.739   0.492  2.2363 -0.7049  0.0005
  727SOL     OW 2179   1.459   2.182   0.918 -0.4836  0.1457 -0.2501
  727SOL    HW1 2180   1.499   2.242   0.846 -0.6278 -0.2187 -1.2412
  727SOL    HW2 2181   1.503   2.202   1.009 -0.2074  0.9153  1.1818
  728SOL     OW 2182   1.486   0.016   2.450 -0.0341  0.5682  0.0655
  728SOL    HW1 2183   1.542   3.009   2.445  0.5333 -0.9378  1.3535
  728SOL    HW2 2184   1.390   3.075   2.485  0.8761  1.0396 -1.7184
  729SOL     OW 2185   2.320   1.299   0.872  0.1002 -0.6520  0.4281
  729SOL    HW1 2186   2.380   1.339   0.944 -0.1069 -1.1343  0.6898
  729SOL    HW2 2187   2.256   1.368   0.832 -2.2029  2.1005 -1.6797
  730SOL     OW 2188   1.899   1.202   2.673 -0.2603 -0.2384  0.1386
  730SOL    HW1 2189   1.890   1.167   2.576 -0.9742  1.5866 -2.8193
  730SOL    HW2 2190   1.932   1.299   2.671 -0.8168  1.8979 -0.2306
  731SOL     OW 2191   0.166   3.018   1.479 -0.3148 -0.0475 -0.5341
  731SOL    HW1 2192   0.119   0.025   1.465  0.3046 -1.3367  1.6473
  731SOL    HW2 2193   0.206   2.993   1.394 -0.1549  1.1073  0.8162
  732SOL     OW 2194   1.741   0.419   1.373  0.0847 -0.2232  0.3791
  732SOL    HW1 2195   1.843   0.418   1.364  2.6699  0.0045  1.0336
  732SOL    HW2 2196   1.716   0.508   1.422 -4.3152 -0.4661 -0.6407
  733SOL     OW 2197   0.938   1.200   1.682 -0.5019  0.8515  0.3219
  733SOL    HW1 2198   1.022   1.148   1.659  2.5843 -2.1895 -0.2365
  733SOL    HW2 2199   0.942   1.208   1.787  0.3513  0.8095  2.2697
  734SOL     OW 2200   2.622   1.869   0.362 -0.0150  0.2649 -0.0348
  734SOL    HW1 2201   2.713   1.868   0.406 -0.4834  0.2014 -2.8090
  734SOL    HW2 2202   2.599   1.965   0.325 -1.8228 -1.3639 -0.7495
  735SOL     OW 2203   0.337   0.660   0.320 -0.1633 -0.3390 -0.3521
  735SOL    HW1 2204   0.245   0.619   0.331  0.4252  0.5235  1.7647
  735SOL    HW2 2205   0.407   0.614   0.374 -1.3578 -0.0192 -1.5811
  736SOL     OW 2206   1.722   2.640   0.340  0.0825 -0.5390 -0.1192
  736SOL    HW1 2207   1.684   2.558   0.392  0.0066 -2.4112  0.8189
  736SOL    HW2 2208   1.795   2.687   0.396 -1.3812  0.4835 -0.0757
  737SOL     OW 2209   1.055   2.010   1.562 -0.1990  0.7578 -0.0481
  737SOL    HW1 2210   0.969   1.998   1.619  1.3780 -0.1701 -0.5812
  737SOL    HW2 2211   1.139   1.999   1.622  0.2162 -1.6922  1.0304
  738SOL     OW 2212   1.813   3.028   2.639 -0.0712  0.6228 -0.2901
  738SOL    HW1 2213   1.740   0.019   2.645 -2.2400 -2.2446 -2.9623
  738SOL    HW2 2214   1.847   3.015   2.544  0.8204  4.4960  0.6788
  739SOL     OW 2215   1.903   2.365   2.830  0.4353  0.2948 -0.1319
  739SOL    HW1 2216   1.945   2.286   2.780  1.6771 -0.0306 -1.6738
  739SOL    HW2 2217   1.949   2.453   2.806  2.4072 -2.0293 -0.4245
  740SOL     OW 2218   1.972   2.017   2.159  0.3212  0.0710 -0.5157
  740SOL    HW1 2219   1.948   1.920   2.145 -0.5356  1.9000  0.0188
  740SOL    HW2 2220   2.060   2.047   2.108  1.2646  0.8143  0.6675
  741SOL     OW 2221   2.549   1.977   2.405  0.0570  0.2164 -0.2901
  741SOL    HW1 2222   2.474   2.001   2.342 -1.1459  1.5287 -4.4122
  741SOL    HW2 2223   2.541   2.035   2.487  2.4378 -0.1626  1.2680
  742SOL     OW 2224   1.048   1.278   2.773 -0.4543 -0.4331  0.9284
  742SOL    HW1 2225   1.132   1.259   2.828  1.0716  0.5873 -1.2378
  742SOL    HW2 2226   1.074   1.301   2.673  1.1762  0.7021 -3.9713
  743SOL     OW 2227   1.318   1.222   2.808 -0.1970 -0.0949  0.4240
  743SOL    HW1 2228   1.349   1.179   2.895 -1.9834  0.5406 -0.7698
  743SOL    HW2 2229   1.386   1.285   2.772 -1.8823  0.8573  0.0996
  744SOL     OW 2230   2.000   3.063   1.212 -0.3402 -0.6363  0.2533
  744SOL    HW1 2231   1.921   3.006   1.228  1.9651 -2.6675  2.1981
  744SOL    HW2 2232   2.014   0.013   1.114  1.1795  0.8897  0.3734
  745SOL     OW 2233   2.552   0.915   0.599  0.0263 -0.2416 -0.3253
  745SOL    HW1 2234   2.544   0.928   0.498  0.9949 -2.3799  0.0895
  745SOL    HW2 2235   2.502   0.989   0.652  1.1467  0.4480 -0.3913
  746SOL     OW 2236   2.874   1.888   1.158  0.6442 -0.6741  0.4540
  746SOL    HW1 2237   2.892   1.918   1.252  2.3409  1.0131  1.0723
  746SOL    HW2 2238   2.864   1.966   1.090  0.9951 -0.9633  0.4489
  747SOL     OW 2239   1.697   0.010   0.050 -0.2099  0.3901  0.2828
  747SOL    HW1 2240   1.778   3.042   0.016 -1.1034  1.4353 -3.4563
  747SOL    HW2 2241   1.641   0.037   3.049  0.3827  0.1196  0.2609
  748SOL     OW 2242   0.518   1.213   0.149 -0.2592 -0.0034 -0.3479
  748SOL    HW1 2243   0.550   1.206   0.054  2.1472  0.4794 -0.4852
  748SOL    HW2 2244   0.417   1.195   0.161 -2.3120 -1.0111  3.3901
  749SOL     OW 2245   2.617   0.900   2.230  0.2109 -0.1072  0.5072
  749SOL    HW1 2246   2.651   0.805   2.210 -0.3339  1.6572  0.0074
  749SOL    HW2 2247   2.684   0.975   2.205  0.5037 -0.3097 -1.1976
  750SOL     OW 2248   0.611   0.684   1.764  0.7544 -0.1591 -0.2221
  750SOL    HW1 2249   0.525   0.669   1.821  0.4775 -1.9881 -1.0901
  750SOL    HW2 2250   0.640   0.592   1.733  0.7955 -3.0586 -0.7568
  751SOL     OW 2251   2.317   2.529   1.875 -0.0769  0.7417 -0.1808
  751SOL    HW1 2252   2.231   2.552   1.827  4.0370 -0.2127  0.2828
  751SOL    HW2 2253   2.339   2.607   1.939  2.1401  2.9900  0.2531
  752SOL     OW 2254   2.044   1.692   1.083  0.6119  0.5159 -0.1195
  752SOL    HW1 2255   2.085   1.609   1.123  2.7745  2.6241 -1.0317
  752SOL    HW2 2256   2.047   1.675   0.983  0.6659  0.4927 -0.9732
  753SOL     OW 2257   0.976   0.926   1.887  0.8104  1.0174  0.4428
  753SOL    HW1 2258   0.891   0.903   1.834  2.9490 -0.1351  1.0603
  753SOL    HW2 2259   1.050   0.858   1.865  0.8403  2.1289  0.5646
  754SOL     OW 2260   0.634   2.377   0.540  0.1077 -0.6823 -0.4868
  754SOL    HW1 2261   0.621   2.276   0.534  0.4214  3.8422 -0.8018
  754SOL    HW2 2262   0.556   2.431   0.500  1.4600 -0.1491  0.9364
  755SOL     OW 2263   2.689   2.974   0.966  0.2590  0.0213 -0.0280
  755SOL    HW1 2264   2.638   2.896   0.932  3.5140  2.6772  1.5562
  755SOL    HW2 2265   2.766   2.938   1.016 -0.2937  1.6252 -1.5389
  756SOL     OW 2266   2.677   1.861   2.191 -0.0868  0.3439 -0.3235
  756SOL    HW1 2267   2.625   1.896   2.272 -0.0708 -1.0688 -2.8959
  756SOL    HW2 2268   2.659   1.908   2.103  2.3181  0.9361 -0.6957
  757SOL     OW 2269   0.215   2.932   1.897 -0.1959 -0.1794  0.4533
  757SOL    HW1 2270   0.164   2.867   1.959  1.4011 -2.6843  0.6111
  757SOL    HW2 2271   0.167   3.022   1.896 -1.9586  1.0621 -0.6616
  758SOL     OW 2272   0.317   2.680   0.082  0.0806  0.1601 -0.5780
  758SOL    HW1 2273   0.392   2.658   0.142 -0.1377 -0.6362 -0.7050
  758SOL    HW2 2274   0.348   2.665   3.066  1.1777  0.0857  2.3133
  759SOL     OW 2275   2.010   1.242   1.141 -0.3089  0.5148 -0.0228
  759SOL    HW1 2276   1.916   1.266   1.103 -1.9356 -0.3793 -2.4243
  759SOL    HW2 2277   2.030   1.156   1.093  0.8581  1.5104  4.0963
  760SOL     OW 2278   1.476   1.089   1.278 -0.0448 -0.0218 -0.2065
  760SOL    HW1 2279   1.477   1.006   1.221 -0.5394 -0.4168  0.3743
  760SOL    HW2 2280   1.532   1.072   1.364  0.3373  0.2273  0.4937
  761SOL     OW 2281   2.004   0.342   1.310  0.2420  0.2053  0.3071
  761SOL    HW1 2282   2.034   0.434   1.331  3.1506 -0.7303 -0.9377
  761SOL    HW2 2283   2.022   0.323   1.211  0.4365 -0.0604  0.0386
  762SOL     OW 2284   1.866   0.215   0.251  0.2787 -0.5903  0.5911
  762SOL    HW1 2285   1.801   0.154   0.296 -0.7575  0.7503 -2.0188
  762SOL    HW2 2286   1.841   0.310   0.277 -1.0442 -3.3770 -3.7950
  763SOL     OW 2287   0.775   0.319   1.610 -0.2944  0.0489  0.0939
  763SOL    HW1 2288   0.690   0.331   1.556  0.7129 -0.7172  0.3201
  763SOL    HW2 2289   0.845   0.264   1.560  1.2582 -1.3566 -0.7607
  764SOL     OW 2290   2.200   2.064   2.038 -0.2671  0.8621 -0.1015
  764SOL    HW1 2291   2.256   2.008   1.972  0.3277 -0.6442  3.8428
  764SOL    HW2 2292   2.235   2.161   2.035  1.4648 -1.0359  0.3002
  765SOL     OW 2293   2.949   1.307   3.034  0.9685 -0.2458  0.0322
  765SOL    HW1 2294   3.006   1.372   2.984 -0.0381 -2.8415  1.3386
  765SOL    HW2 2295   3.002   1.242   0.011 -1.4907  1.1351  0.1507
  766SOL     OW 2296   2.934   0.394   2.841 -0.2819  0.2984 -0.2094
  766SOL    HW1 2297   2.835   0.403   2.832  2.5489 -1.1510 -0.6355
  766SOL    HW2 2298   2.966   0.299   2.822 -1.7977  1.7823 -1.2043
  767SOL     OW 2299   0.443   2.577   1.957 -0.4683  0.1939  0.2541
  767SOL    HW1 2300   0.518   2.530   2.015  1.1819 -1.3511  0.3962
  767SOL    HW2 2301   0.367   2.603   2.021 -0.7000 -1.7910  1.6378
  768SOL     OW 2302   0.942   0.965   0.010  0.1279  0.6768 -0.2007
  768SOL    HW1 2303   0.995   0.884   0.043 -0.5668 -0.0787  0.5737
  768SOL    HW2 2304   0.945   0.974   2.991  0.8850 -0.0466  1.2394
  769SOL     OW 2305   0.920   2.774   0.648 -0.5097 -0.3478 -0.4476
  769SOL    HW1 2306   0.866   2.697   0.679  0.3013  0.9442 -2.5816
  769SOL    HW2 2307   1.022   2.761   0.671  3.2375 -1.1489 -2.4369
  770SOL     OW 2308   1.122   0.067   2.014 -0.3008  0.3322 -0.2894
  770SOL    HW1 2309   1.036   0.108   2.055 -2.0484 -1.9184  2.4988
  770SOL    HW2 2310   1.152   0.001   2.086  2.3615  0.1798 -1.4307
  771SOL     OW 2311   0.606   2.869   0.947  0.6735 -0.1430  0.3137
  771SOL    HW1 2312   0.661   2.918   0.880 -0.4512 -0.2720  0.0808
  771SOL    HW2 2313   0.608   2.919   1.037  1.2438 -0.6872 -1.4365
  772SOL     OW 2314   2.486   0.445   0.203  0.5042 -0.0226 -0.4041
  772SOL    HW1 2315   2.434   0.411   0.285  0.5519  1.8390 -0.2334
  772SOL    HW2 2316   2.442   0.532   0.166  1.7016 -1.9855 -0.7840
  773SOL     OW 2317   2.150   0.621   1.677  0.1627 -0.1131 -0.1818
  773SOL    HW1 2318   2.201   0.547   1.634 -3.3172 -0.6998 -0.6121
  773SOL    HW2 2319   2.050   0.601   1.670 -1.2138 -1.0512  0.8489
  774SOL     OW 2320   0.222   0.850   0.490  0.3680 -0.0595 -0.1238
  774SOL    HW1 2321   0.275   0.778   0.442 -1.5316 -1.1070 -2.2632
  774SOL    HW2 2322   0.239   0.850   0.589 -3.6887  2.7408 -2.2754
  775SOL     OW 2323   1.697   0.253   0.844  0.5537 -0.1002 -0.7303
  775SOL    HW1 2324   1.737   0.329   0.894 -2.1357 -0.8148  1.9734
  775SOL    HW2 2325   1.767   0.213   0.780  0.8170 -0.6541  0.2465
  776SOL     OW 2326   1.942   2.936   2.130  0.3442  0.3897 -0.4508
  776SOL    HW1 2327   2.017   2.872   2.144  0.3255  1.1391 -1.9378
  776SOL    HW2 2328   1.970   3.029   2.098 -0.1164 -1.6650 -0.0174
  777SOL     OW 2329   1.581   1.439   0.296 -0.1022 -0.1098 -0.3153
  777SOL    HW1 2330   1.520   1.528   0.306 -1.9804  4.1018 -0.8386
  777SOL    HW2 2331   1.565   1.393   0.207  1.0636  0.7947 -3.8493
  778SOL     OW 2332   0.583   2.769   2.884  0.3285  0.0114 -0.2689
  778SOL    HW1 2333   0.545   2.682   2.911  1.0030  1.0518 -0.6859
  778SOL    HW2 2334   0.544   2.782   2.788 -1.4307 -2.5105 -1.2647
  779SOL     OW 2335   0.146   1.517   0.222  0.5225  0.1711 -0.0729
  779SOL    HW1 2336   0.059   1.557   0.190  0.7961  0.8581 -1.2579
  779SOL    HW2 2337   0.179   1.566   0.305  1.8717 -1.8336 -0.6925
  780SOL     OW 2338   1.694   0.218   2.050  0.0748  0.0946  0.4594
  780SOL    HW1 2339   1.757   0.245   2.127  0.0706 -1.4608  1.4488
  780SOL    HW2 2340   1.720   0.124   2.017 -0.8848 -4.3062 -2.3163
  781SOL     OW 2341   1.844   2.095   1.288  1.1352  0.1714  0.1063
  781SOL    HW1 2342   1.925   2.159   1.268 -1.9686  2.4717  1.6685
  781SOL    HW2 2343   1.818   2.093   1.385  2.1206 -1.1496  0.2002
  782SOL     OW 2344   2.285   2.513   2.240  0.2485 -0.1396  0.7356
  782SOL    HW1 2345   2.315   2.611   2.247  0.1747  0.1041  2.6989
  782SOL    HW2 2346   2.267   2.481   2.334 -1.9395  1.2295 -0.9461
  783SOL     OW 2347   1.451   0.625   1.654  0.9107  0.1923  0.1320
  783SOL    HW1 2348   1.437   0.528   1.691 -1.7299 -1.8132  0.8780
  783SOL    HW2 2349   1.425   0.694   1.724  0.0650  0.5946  2.0624
  784SOL     OW 2350   1.389   0.859   1.843 -0.2242 -0.5115 -0.0542
  784SOL    HW1 2351   1.393   0.960   1.828 -0.6275  0.4231  0.2442
  784SOL    HW2 2352   1.296   0.827   1.821  2.0573 -2.0077 -0.3873
  785SOL     OW 2353   1.795   0.769   0.548 -0.0868 -0.1630  0.2626
  785SOL    HW1 2354   1.773   0.837   0.619  0.2942 -1.3924  1.9592
  785SOL    HW2 2355   1.839   0.684   0.595 -0.1253 -1.8183 -2.4151
  786SOL     OW 2356   2.860   1.291   0.495 -0.6065 -0.0621  0.4500
  786SOL    HW1 2357   2.839   1.213   0.434 -2.8523  0.9699  1.2995
  786SOL    HW2 2358   2.958   1.275   0.524  0.0019 -2.4762  1.1701
  787SOL     OW 2359   1.339   1.799   0.081 -0.0643 -0.5650 -0.4732
  787SOL    HW1 2360   1.395   1.735   0.027 -3.6298 -0.8687 -1.0029
  787SOL    HW2 2361   1.265   1.843   0.020 -0.7916  0.6055  0.7361
  788SOL     OW 2362   2.119   1.078   0.946  0.0708 -0.0616 -0.0559
  788SOL    HW1 2363   2.197   1.092   1.013 -1.4314  0.2768 -0.4921
  788SOL    HW2 2364   2.156   1.100   0.854 -0.8311  1.0597 -2.7499
  789SOL     OW 2365   0.114   1.620   2.238 -0.0718 -0.0396 -0.4394
  789SOL    HW1 2366   0.178   1.548   2.271 -1.1394  1.6500  0.7388
  789SOL    HW2 2367   0.036   1.626   2.303 -0.9020 -1.2737 -0.3076
  790SOL     OW 2368   0.975   0.034   2.632 -0.2047  0.3334  0.1447
  790SOL    HW1 2369   1.050   0.026   2.565 -0.3227  0.7156 -1.7611
  790SOL    HW2 2370   0.948   0.130   2.637 -1.0805  0.3184  1.0455
  791SOL     OW 2371   0.304   2.395   2.774  0.2142 -0.2077 -0.3841
  791SOL    HW1 2372   0.316   2.337   2.693 -1.1609  0.5094 -0.7404
  791SOL    HW2 2373   0.214   2.381   2.824 -0.8630  0.5386 -0.7800
  792SOL     OW 2374   1.465   0.205   2.228  0.4033 -0.1245  0.0999
  792SOL    HW1 2375   1.469   0.128   2.290 -0.0393  0.7733 -1.1729
  792SOL    HW2 2376   1.558   0.218   2.186  2.7796  1.0616 -1.0066
  793SOL     OW 2377   2.483   2.974   2.379 -0.5546  0.4784  0.4884
  793SOL    HW1 2378   2.501   2.871   2.367 -0.5490 -2.0971  1.2900
  793SOL    HW2 2379   2.555   3.022   2.327  0.1943 -0.2592  2.9879
  794SOL     OW 2380   0.325   0.155   2.169 -0.2839 -0.1290 -0.3223
  794SOL    HW1 2381   0.263   0.152   2.095  3.0128  1.5315  0.7776
  794SOL    HW2 2382   0.388   0.076   2.162  0.1740  4.1472 -0.7896
  795SOL     OW 2383   2.731   1.354   0.194  0.1647 -0.0430 -0.0920
  795SOL    HW1 2384   2.767   1.261   0.217  0.1679 -0.8419 -0.5821
  795SOL    HW2 2385   2.660   1.385   0.259  0.9885  0.7055  1.1563
  796SOL     OW 2386   2.767   1.852   2.534  0.1709  0.0411 -0.0034
  796SOL    HW1 2387   2.845   1.913   2.507  1.1902  0.5181  2.1400
  796SOL    HW2 2388   2.671   1.886   2.507 -2.7430  1.0498 -0.2091
  797SOL     OW 2389   2.914   1.808   0.380  0.3578 -0.2460 -0.1624
  797SOL    HW1 2390   2.889   1.716   0.419  2.7591 -0.0361  1.4700
  797SOL    HW2 2391   3.000   1.835   0.428  1.8247  0.3031  0.4159
  798SOL     OW 2392   0.323   0.354   1.777 -0.0743  0.0914  0.1075
  798SOL    HW1 2393   0.342   0.441   1.818  2.2927 -0.4868  0.7722
  798SOL    HW2 2394   0.388   0.283   1.814 -0.4497 -0.1292 -1.5072
  799SOL     OW 2395   2.848   1.066   2.254  0.3380 -0.2917 -0.3686
  799SOL    HW1 2396   2.872   1.155   2.216 -0.1679 -0.4376  1.1368
  799SOL    HW2 2397   2.872   1.069   2.356 -1.5997 -1.4997  1.9429
  800SOL     OW 2398   2.995   2.392   0.500  0.7187 -0.4916 -0.0999
  800SOL    HW1 2399   3.061   2.411   0.571 -0.7270 -1.1982 -0.7045
  800SOL    HW2 2400   2.956   2.474   0.456  2.1773 -2.8735 -2.6118
  801SOL     OW 2401   0.749   0.876   0.944  0.5093 -0.0793  0.4559
  801SOL    HW1 2402   0.755   0.943   0.868  1.7798  0.4498 -1.4327
  801SOL    HW2 2403   0.817   0.799   0.940  2.3724  3.0455 -2.4047
  802SOL     OW 2404   2.070   2.190   0.944  0.0402  0.1843  0.1121
  802SOL    HW1 2405   2.084   2.100   0.996  2.6152 -0.4771  0.1268
  802SOL    HW2 2406   1.972   2.210   0.914  0.4879  2.3160 -1.8094
  803SOL     OW 2407   0.036   1.289   0.591  0.2981 -0.9506 -0.3388
  803SOL    HW1 2408   0.120   1.244   0.624  0.9581  2.0751 -1.8351
  803SOL    HW2 2409   0.054   1.392   0.583 -0.0300  3.6129 -2.7414
  804SOL     OW 2410   1.040   2.499   0.539 -0.1345  0.3205  0.0865
  804SOL    HW1 2411   0.975   2.530   0.613 -0.7525  0.1680  3.0101
  804SOL    HW2 2412   1.093   2.575   0.503 -2.5697 -2.2801  0.2097
  805SOL     OW 2413   1.682   2.124   2.494 -0.5528  0.0370 -0.2495
  805SOL    HW1 2414   1.766   2.162   2.529 -1.6733 -0.3541 -3.3220
  805SOL    HW2 2415   1.674   2.031   2.535  0.4755  0.5780 -0.3844
  806SOL     OW 2416   1.202   0.061   1.540  0.2137  0.2268  0.4358
  806SOL    HW1 2417   1.244   0.143   1.502  0.5867 -2.7656  0.4796
  806SOL    HW2 2418   1.198   3.069   1.470 -0.7094  1.4875  3.5781
  807SOL     OW 2419   1.721   0.003   0.366 -0.0306 -0.1523  0.5982
  807SOL    HW1 2420   1.744   3.026   0.284 -0.8811  1.1259 -1.1331
  807SOL    HW2 2421   1.625   3.060   0.402  0.0119  0.3739  0.2423
  808SOL     OW 2422   0.613   1.746   2.784 -0.0647 -0.4732  0.4050
  808SOL    HW1 2423   0.575   1.667   2.837  2.0549  1.2502 -3.2876
  808SOL    HW2 2424   0.714   1.723   2.772  1.9980  0.0833  0.8102
  809SOL     OW 2425   0.001   1.119   0.105 -0.0142 -0.8112  0.2671
  809SOL    HW1 2426   0.072   1.160   0.166  3.1715  0.6548 -0.8573
  809SOL    HW2 2427   0.032   1.038   0.059 -4.3175  1.8542 -0.7825
  810SOL     OW 2428   2.681   0.539   2.559  0.3998 -0.0488 -0.5992
  810SOL    HW1 2429   2.585   0.550   2.596 -0.7145 -1.6054 -0.0255
  810SOL    HW2 2430   2.702   0.436   2.546  1.2081 -2.4297  2.9469
  811SOL     OW 2431   1.927   2.642   1.953 -0.1968  0.7115  0.4458
  811SOL    HW1 2432   1.831   2.628   1.923  1.3604  2.7373  0.2130
  811SOL    HW2 2433   1.936   2.594   2.045  0.2352 -3.6719  1.2947
  812SOL     OW 2434   1.198   0.448   0.657 -0.3114 -1.1607  0.5169
  812SOL    HW1 2435   1.296   0.432   0.685  0.4643  1.3942  0.8264
  812SOL    HW2 2436   1.165   0.381   0.590  1.2963  2.2520 -0.1063
  813SOL     OW 2437   1.890   0.553   1.692  0.2413  0.0678  0.1510
  813SOL    HW1 2438   1.829   0.605   1.629 -0.9560  0.4819  0.0885
  813SOL    HW2 2439   1.831   0.478   1.737 -0.4566 -1.3191 -0.5538
  814SOL     OW 2440   1.998   0.908   1.097 -0.9585  0.2908 -0.1450
  814SOL    HW1 2441   2.009   0.811   1.076 -1.7382  2.4222 -1.9591
  814SOL    HW2 2442   2.038   0.967   1.024 -0.3282  0.4611 -1.3293
  815SOL     OW 2443   0.535   0.733   0.538  1.0617 -0.9198 -0.4974
  815SOL    HW1 2444   0.533   0.815   0.598  0.4432  2.7293 -0.8790
  815SOL    HW2 2445   0.631   0.700   0.523 -2.2091  0.7610  1.1664
  816SOL     OW 2446   2.364   2.344   0.265 -0.4112  0.2786 -0.0151
  816SOL    HW1 2447   2.339   2.250   0.298 -1.7666 -1.7807 -1.2302
  816SOL    HW2 2448   2.280   2.402   0.274 -0.1650 -0.9311  1.1954
  817SOL     OW 2449   2.810   2.611   0.853  0.1686  0.4581 -0.0229
  817SOL    HW1 2450   2.864   2.596   0.934 -2.8079  0.5222  0.7925
  817SOL    HW2 2451   2.725   2.666   0.870  0.3328  1.0508  0.6036
  818SOL     OW 2452   1.816   0.832   0.021 -0.4788  0.0565 -0.1106
  818SOL    HW1 2453   1.859   0.924   0.003 -0.1649  2.7076 -6.0615
  818SOL    HW2 2454   1.720   0.834   0.016  1.0834  0.9358  0.6475
  819SOL     OW 2455   0.403   0.535   0.704  0.2407  0.1284  0.0721
  819SOL    HW1 2456   0.306   0.540   0.735  0.9143  2.5912  0.9507
  819SOL    HW2 2457   0.428   0.610   0.643 -0.1610  0.8301  0.6632
  820SOL     OW 2458   1.981   0.855   1.367  0.8316 -0.2147 -0.5761
  820SOL    HW1 2459   1.989   0.898   1.270 -1.4068  1.1822 -1.8481
  820SOL    HW2 2460   1.882   0.847   1.388  0.0366 -0.6345  3.0821
  821SOL     OW 2461   2.851   0.278   0.901  0.4720  0.3050 -0.4827
  821SOL    HW1 2462   2.816   0.363   0.856 -1.0368 -1.2192  0.7805
  821SOL    HW2 2463   2.821   0.189   0.856  2.0643  0.1433 -1.4591
  822SOL     OW 2464   0.868   2.389   2.256  0.2036 -0.5040 -0.0761
  822SOL    HW1 2465   0.871   2.475   2.312 -1.4740 -0.7828 -2.1583
  822SOL    HW2 2466   0.818   2.319   2.308  0.1231  0.5186 -2.0426
  823SOL     OW 2467   2.780   1.120   1.481  0.7245 -0.2408 -0.4675
  823SOL    HW1 2468   2.827   1.134   1.391  2.4371  0.2006  1.3983
  823SOL    HW2 2469   2.828   1.055   1.540 -1.6989  0.5183 -0.9454
  824SOL     OW 2470   0.687   2.595   2.565 -0.2234 -0.2337 -0.1099
  824SOL    HW1 2471   0.741   2.530   2.621  0.8350  0.2549  1.6986
  824SOL    HW2 2472   0.723   2.693   2.570 -3.4279 -1.1146 -0.9475
  825SOL     OW 2473   1.478   1.610   3.036 -0.3639 -0.4003  0.2835
  825SOL    HW1 2474   1.444   1.587   2.943 -0.8118  1.9077  0.0574
  825SOL    HW2 2475   1.559   1.676   3.030 -0.1134  2.6138  0.5903
  826SOL     OW 2476   0.933   2.172   0.118 -0.0996 -0.0326  0.2180
  826SOL    HW1 2477   0.930   2.251   0.186  0.9041 -0.3874  1.2297
  826SOL    HW2 2478   0.968   2.084   0.156 -1.5562 -1.8411 -1.5765
  827SOL     OW 2479   0.299   1.477   1.881  0.0333  0.9422 -0.3513
  827SOL    HW1 2480   0.216   1.534   1.885  2.6848 -0.1833  0.6322
  827SOL    HW2 2481   0.302   1.408   1.955 -0.4717 -3.1984 -0.2953
  828SOL     OW 2482   0.394   1.787   1.663  0.5542 -0.1603 -0.4066
  828SOL    HW1 2483   0.491   1.811   1.683 -1.6011 -1.5644 -1.1612
  828SOL    HW2 2484   0.391   1.777   1.559 -1.2568 -1.0549 -1.2928
  829SOL     OW 2485   2.869   2.396   2.847 -0.9656  0.0523  0.3778
  829SOL    HW1 2486   2.880   2.312   2.785 -0.0402  0.4604  1.8718
  829SOL    HW2 2487   2.964   2.411   2.883  1.8311  1.5997  2.5124
  830SOL     OW 2488   0.997   0.891   0.513  0.3334  0.0306 -0.4430
  830SOL    HW1 2489   1.012   0.800   0.559  3.6764  0.7888 -0.7263
  830SOL    HW2 2490   0.967   0.880   0.414 -2.9353 -0.7478 -0.9668
  831SOL     OW 2491   2.496   2.230   2.928 -0.3702 -0.1450  0.4546
  831SOL    HW1 2492   2.492   2.127   2.930  0.4116 -2.1787  1.6484
  831SOL    HW2 2493   2.445   2.269   2.850 -0.2875 -1.6459 -0.8894
  832SOL     OW 2494   1.313   2.493   0.366 -0.3456  0.0164 -0.4130
  832SOL    HW1 2495   1.320   2.467   0.264  0.9541  1.0239 -1.8577
  832SOL    HW2 2496   1.296   2.410   0.429 -1.3846 -1.9910  2.4747
  833SOL     OW 2497   0.252   1.059   1.804  0.2790  0.0400 -0.1063
  833SOL    HW1 2498   0.165   1.097   1.754 -0.3860 -0.6417 -0.9164
  833SOL    HW2 2499   0.333   1.109   1.775  0.5292 -0.7452  1.2026
  834SOL     OW 2500   2.095   0.406   0.527 -0.1634 -0.4076  0.0016
  834SOL    HW1 2501   2.188   0.413   0.480  0.0894 -1.0767 -0.2869
  834SOL    HW2 2502   2.088   0.323   0.587 -0.7737 -1.2266  1.3898
  835SOL     OW 2503   2.225   0.700   1.930  0.1724 -0.5110 -0.0894
  835SOL    HW1 2504   2.222   0.686   1.831 -1.0217  0.8515  3.5281
  835SOL    HW2 2505   2.145   0.659   1.982 -0.7959 -0.9860 -1.8664
  836SOL     OW 2506   1.049   1.869   0.964  0.0363  0.2211 -0.0105
  836SOL    HW1 2507   1.117   1.793   0.945  3.7760  0.9843  0.2274
  836SOL    HW2 2508   1.094   1.941   1.019  0.7131  1.0755 -0.6727
  837SOL     OW 2509   2.438   1.217   1.855 -0.6459  0.1695  0.4215
  837SOL    HW1 2510   2.444   1.158   1.772  0.1587  0.8696 -1.4295
  837SOL    HW2 2511   2.429   1.157   1.938 -2.5685 -1.5681  0.6993
  838SOL     OW 2512   2.999   0.957   2.788 -0.4585 -0.3052  0.9338
  838SOL    HW1 2513   3.029   0.917   2.699  1.9508  0.9189 -0.1112
  838SOL    HW2 2514   2.912   1.007   2.783  1.5424 -0.7514  0.6911
  839SOL     OW 2515   3.019   0.186   0.046  0.3903 -0.2032  0.1196
  839SOL    HW1 2516   0.028   0.220   0.067  0.3019 -0.0572 -0.8834
  839SOL    HW2 2517   2.949   0.215   0.113  1.2508 -1.6675 -0.4698
  840SOL     OW 2518   2.962   1.376   2.570 -0.1492 -0.4226 -0.1604
  840SOL    HW1 2519   2.865   1.358   2.546 -0.2062  1.6116 -1.8882
  840SOL    HW2 2520   2.970   1.445   2.643 -0.0160 -2.6802  0.0101
  841SOL     OW 2521   0.763   2.250   2.448  0.2047  0.4144  0.1084
  841SOL    HW1 2522   0.772   2.149   2.435 -1.1481  0.0611 -2.3741
  841SOL    HW2 2523   0.834   2.289   2.505  0.3145  1.4217 -0.6067
  842SOL     OW 2524   0.437   0.150   0.933 -0.0539  0.7826  0.2052
  842SOL    HW1 2525   0.531   0.180   0.947 -4.5281 -1.5392  0.8101
  842SOL    HW2 2526   0.438   0.139   0.830 -0.0667  2.7785 -0.5966
  843SOL     OW 2527   2.976   1.372   1.613 -0.2187  0.1114  0.5700
  843SOL    HW1 2528   2.958   1.362   1.514  1.7021 -1.2601 -0.4018
  843SOL    HW2 2529   2.892   1.371   1.667 -0.2301  1.2248  0.4919
  844SOL     OW 2530   2.295   1.930   2.246  0.0899 -0.1309  0.1005
  844SOL    HW1 2531   2.334   1.842   2.210 -0.9899  1.7375 -0.4762
  844SOL    HW2 2532   2.266   1.989   2.167  0.7711  0.4792  0.6663
  845SOL     OW 2533   1.764   2.471   2.491  0.2446 -0.1085  0.2179
  845SOL    HW1 2534   1.698   2.466   2.416  0.3483  2.0758  2.6459
  845SOL    HW2 2535   1.733   2.538   2.560  0.1481  2.9536 -1.1187
  846SOL     OW 2536   2.654   1.669   0.162 -0.1598  0.0835 -0.2954
  846SOL    HW1 2537   2.624   1.751   0.220 -0.7486  3.3006  1.0712
  846SOL    HW2 2538   2.600   1.583   0.176  0.6740 -1.3905 -0.4466
  847SOL     OW 2539   2.484   0.205   2.670  0.3378  0.6707 -0.1608
  847SOL    HW1 2540   2.481   0.108   2.637 -1.1575 -1.2955 -2.1188
  847SOL    HW2 2541   2.458   0.204   2.770 -1.2869  0.3090  0.3667
  848SOL     OW 2542   1.906   0.724   0.306 -0.0799 -0.4383 -0.0047
  848SOL    HW1 2543   1.860   0.761   0.222  0.5716 -0.7798  0.5213
  848SOL    HW2 2544   1.875   0.773   0.390 -0.5407  0.8245 -1.2676
  849SOL     OW 2545   0.986   0.434   2.974 -0.3425 -0.5152 -0.0961
  849SOL    HW1 2546   0.914   0.506   2.945 -3.4417  1.8675 -1.1357
  849SOL    HW2 2547   1.051   0.461   3.049  0.3282 -0.7123  0.4087
  850SOL     OW 2548   0.232   0.199   0.141 -0.4820 -0.6582 -0.5750
  850SOL    HW1 2549   0.246   0.130   0.067  1.1483  1.4085  1.1163
  850SOL    HW2 2550   0.275   0.286   0.105  1.7252  2.6723 -1.2326
  851SOL     OW 2551   0.223   1.302   1.416  0.0391  0.2094 -0.1337
  851SOL    HW1 2552   0.168   1.234   1.474 -1.9558 -0.6264  1.4224
  851SOL    HW2 2553   0.265   1.372   1.484  1.4090  0.3381  1.5459
  852SOL     OW 2554   1.152   0.733   1.796 -0.2139 -0.1054 -0.2630
  852SOL    HW1 2555   1.125   0.680   1.713  0.3704  1.1189  0.2579
  852SOL    HW2 2556   1.159   0.678   1.881 -1.3581  2.0402  3.3085
  853SOL     OW 2557   2.208   1.351   2.978 -0.3242 -0.5356  0.2632
  853SOL    HW1 2558   2.258   1.267   2.962 -1.5563  3.0346  0.1802
  853SOL    HW2 2559   2.106   1.329   2.967 -4.0935 -3.7989 -3.1788
  854SOL     OW 2560   1.236   1.111   1.588  0.3132 -0.9090 -0.3169
  854SOL    HW1 2561   1.218   1.176   1.513  1.9224 -1.6234 -0.9659
  854SOL    HW2 2562   1.262   1.016   1.554  0.1888  0.2009 -0.8409
  855SOL     OW 2563   0.291   2.349   1.926  0.4797 -0.1442  0.3147
  855SOL    HW1 2564   0.192   2.376   1.894  1.1610  1.5056 -1.6010
  855SOL    HW2 2565   0.349   2.434   1.925  1.4018 -2.3613  2.8261
  856SOL     OW 2566   1.118   1.353   2.500 -0.1766  0.0733  0.0664
  856SOL    HW1 2567   1.026   1.328   2.459 -3.8771 -0.5078  0.4845
  856SOL    HW2 2568   1.140   1.454   2.499 -0.7318  1.8681  0.0718
  857SOL     OW 2569   1.226   0.960   2.708  0.3661 -0.9987  0.0561
  857SOL    HW1 2570   1.155   0.892   2.737 -1.8527  2.1276  0.5993
  857SOL    HW2 2571   1.246   1.029   2.780  2.3242 -0.5646 -1.0705
  858SOL     OW 2572   0.207   2.781   1.673 -0.6962  0.1142 -0.0367
  858SOL    HW1 2573   0.146   2.804   1.596  1.0694 -1.1175  0.0662
  858SOL    HW2 2574   0.184   2.833   1.759 -0.3390 -1.6806  1.6717
  859SOL     OW 2575   2.469   0.008   0.825  0.6191 -0.0749  0.5150
  859SOL    HW1 2576   2.452   0.111   0.835 -0.7065  2.7378  1.4706
  859SOL    HW2 2577   2.555   3.057   0.873  1.8828 -2.4678  1.6125
  860SOL     OW 2578   0.522   0.791   1.484 -0.3490 -0.3987 -0.4313
  860SOL    HW1 2579   0.539   0.739   1.567  1.1853 -0.6937 -1.8231
  860SOL    HW2 2580   0.559   0.886   1.489 -0.6367 -1.3274  1.8983
  861SOL     OW 2581   1.417   0.898   1.087  0.0281  0.3889  0.1222
  861SOL    HW1 2582   1.479   0.831   1.047 -1.1880 -1.8938  0.2155
  861SOL    HW2 2583   1.392   0.975   1.027  0.6448  1.2563 -4.8152
  862SOL     OW 2584   0.776   2.769   2.277  0.6151 -0.2805  0.0309
  862SOL    HW1 2585   0.690   2.718   2.281 -0.4899 -2.0050 -0.8482
  862SOL    HW2 2586   0.855   2.717   2.315 -1.0468 -1.1938  1.0520
  863SOL     OW 2587   2.234   0.128   1.222  0.0554  0.1772 -0.2785
  863SOL    HW1 2588   2.318   0.072   1.227 -0.0307  0.7746 -2.5410
  863SOL    HW2 2589   2.147   0.078   1.241  0.7794  0.6147 -1.7353
  864SOL     OW 2590   2.646   2.869   2.765  0.0925  0.3637 -0.1733
  864SOL    HW1 2591   2.739   2.862   2.721 -1.9114  2.2389 -0.3077
  864SOL    HW2 2592   2.589   2.936   2.722  0.9617 -0.6090  2.3266
  865SOL     OW 2593   1.268   1.175   2.019 -0.2012 -0.0189 -0.4222
  865SOL    HW1 2594   1.290   1.110   2.093  1.8858 -0.1512  1.8574
  865SOL    HW2 2595   1.171   1.169   1.989  0.9268  1.3315  0.1348
  866SOL     OW 2596   2.329   2.760   0.964  0.4881 -0.4539 -0.1045
  866SOL    HW1 2597   2.355   2.764   1.062  0.4524 -1.0164 -0.7250
  866SOL    HW2 2598   2.224   2.754   0.951 -5.0511 -1.6577 -1.1209
  867SOL     OW 2599   2.422   2.733   1.223 -0.1716 -0.5100  0.2632
  867SOL    HW1 2600   2.429   2.832   1.239 -0.4223 -2.1701 -0.8928
  867SOL    HW2 2601   2.507   2.688   1.252  0.0883 -1.3599 -1.8338
  868SOL     OW 2602   2.689   1.452   1.498 -0.3144  0.3475  0.1542
  868SOL    HW1 2603   2.694   1.454   1.598  0.5467 -0.4555  0.0248
  868SOL    HW2 2604   2.594   1.437   1.473  0.8060 -2.5123 -0.3319
  869SOL     OW 2605   2.176   1.494   2.063 -0.2885  0.3353  0.1992
  869SOL    HW1 2606   2.163   1.578   2.011 -1.1630  1.5190 -3.4410
  869SOL    HW2 2607   2.092   1.443   2.080 -0.2770  1.6057 -0.5371
  870SOL     OW 2608   1.388   1.313   0.864 -0.1172 -0.0259  0.0209
  870SOL    HW1 2609   1.442   1.250   0.806 -1.8161 -1.4732  0.1551
  870SOL    HW2 2610   1.450   1.373   0.912 -2.0026  0.3899 -0.0927
  871SOL     OW 2611   2.372   1.473   1.852 -0.2349  0.1548 -0.0188
  871SOL    HW1 2612   2.403   1.375   1.851  1.6684 -1.0734  0.1375
  871SOL    HW2 2613   2.292   1.487   1.915 -1.7128 -0.1046 -1.8767
  872SOL     OW 2614   1.484   1.310   2.135 -0.4057  0.2672  0.2393
  872SOL    HW1 2615   1.432   1.393   2.167  2.1833  1.2562  0.0651
  872SOL    HW2 2616   1.415   1.260   2.077 -0.1232  1.1750 -3.2819
  873SOL     OW 2617   1.520   1.783   1.058  0.2914  0.8367 -0.2885
  873SOL    HW1 2618   1.428   1.769   1.022  2.5680  0.6426 -2.5147
  873SOL    HW2 2619   1.589   1.736   1.005  0.7024 -3.3463  2.0812
  874SOL     OW 2620   1.675   1.402   0.843 -0.3796 -0.7906  0.3253
  874SOL    HW1 2621   1.729   1.487   0.859 -0.3214 -0.8378  0.9639
  874SOL    HW2 2622   1.622   1.407   0.756 -3.0364  0.6550  1.7782
  875SOL     OW 2623   2.189   0.603   2.517 -0.0236  0.0159 -0.0526
  875SOL    HW1 2624   2.181   0.645   2.423 -2.7200 -2.8931  1.1562
  875SOL    HW2 2625   2.268   0.544   2.521 -2.3449  1.9423 -0.7243
  876SOL     OW 2626   1.099   1.154   0.545 -0.2483  0.0872  0.2221
  876SOL    HW1 2627   1.065   1.060   0.536  0.0967  0.8433 -2.1774
  876SOL    HW2 2628   1.197   1.152   0.525 -1.1380 -1.5355  2.2153
  877SOL     OW 2629   1.827   0.141   0.621  0.1104 -0.1597  0.1414
  877SOL    HW1 2630   1.927   0.112   0.611  0.9246 -2.1473  0.0504
  877SOL    HW2 2631   1.765   0.070   0.581 -1.1260 -1.5919 -2.0395
  878SOL     OW 2632   0.072   1.873   0.493  0.3099  0.0234 -0.0175
  878SOL    HW1 2633   0.107   1.961   0.459 -4.8295 -1.1322  2.3242
  878SOL    HW2 2634   0.069   1.886   0.596  2.1985 -2.6639  3.7656
  879SOL     OW 2635   2.909   2.288   1.815 -0.5575  0.1514  0.1857
  879SOL    HW1 2636   2.946   2.285   1.913  2.0071 -0.6143  3.5246
  879SOL    HW2 2637   2.857   2.203   1.788 -1.3146  1.5871  0.4570
  880SOL     OW 2638   0.729   1.357   0.514 -0.9164  0.2497 -0.1941
  880SOL    HW1 2639   0.804   1.322   0.455  2.3146 -4.4284  1.8679
  880SOL    HW2 2640   0.767   1.415   0.587 -2.8224 -1.2726  0.6554
  881SOL     OW 2641   1.497   0.508   2.587  0.7703 -0.2137 -0.3601
  881SOL    HW1 2642   1.424   0.462   2.643  1.4746 -1.4299  1.9749
  881SOL    HW2 2643   1.492   0.473   2.488  1.9727 -1.7660 -3.4152
  882SOL     OW 2644   2.423   0.683   0.419 -0.0972 -0.1867  0.1452
  882SOL    HW1 2645   2.429   0.769   0.364 -3.4637 -0.1317 -1.7986
  882SOL    HW2 2646   2.517   0.654   0.450 -0.3143  2.6603  0.6168
  883SOL     OW 2647   1.754   0.841   2.485  0.1988  0.0148  0.4923
  883SOL    HW1 2648   1.672   0.834   2.547  1.0813  0.9952 -0.7796
  883SOL    HW2 2649   1.811   0.921   2.515  1.6257 -1.9762  0.4379
  884SOL     OW 2650   0.472   2.984   1.874  0.1077  0.1733  0.1977
  884SOL    HW1 2651   0.376   2.947   1.876 -1.1146  0.2569  0.8234
  884SOL    HW2 2652   0.534   2.911   1.842 -0.4988  1.8588 -2.0147
  885SOL     OW 2653   1.731   1.001   2.129  0.3482 -0.5424  0.2181
  885SOL    HW1 2654   1.712   0.902   2.109 -0.2588 -1.7914  0.9541
  885SOL    HW2 2655   1.773   1.044   2.048 -2.1242 -1.8894 -0.7310
  886SOL     OW 2656   1.623   0.143   2.650 -0.1820 -0.5493 -0.4194
  886SOL    HW1 2657   1.555   0.106   2.585  1.5552  1.7223 -2.0059
  886SOL    HW2 2658   1.671   0.221   2.612  0.6608  1.3200  3.2311
  887SOL     OW 2659   0.936   0.162   1.485 -0.1031 -0.1768  0.1294
  887SOL    HW1 2660   0.959   0.233   1.413 -0.6043 -1.0369 -1.2159
  887SOL    HW2 2661   1.021   0.125   1.529  0.1740  1.0315  1.1891
  888SOL     OW 2662   2.362   0.469   1.592 -0.1889  0.0398  0.1258
  888SOL    HW1 2663   2.454   0.498   1.627 -1.6084  1.1478 -2.4037
  888SOL    HW2 2664   2.367   0.425   1.499 -2.9696  0.9923 -0.9776
  889SOL     OW 2665   1.429   0.249   0.779  0.0470  0.7737  0.3475
  889SOL    HW1 2666   1.529   0.260   0.787 -2.2003  1.4445 -1.3776
  889SOL    HW2 2667   1.386   0.298   0.855  1.6511 -2.8813 -3.9073
  890SOL     OW 2668   1.198   2.739   0.736 -0.0538 -0.1217 -0.0899
  890SOL    HW1 2669   1.278   2.721   0.795 -0.2032  0.3607  1.1222
  890SOL    HW2 2670   1.213   2.707   0.641  0.4706  1.2140  0.7138
  891SOL     OW 2671   2.857   1.119   0.288  0.0465 -0.0322  0.1389
  891SOL    HW1 2672   2.944   1.122   0.229  1.7389 -0.4612 -0.9485
  891SOL    HW2 2673   2.800   1.039   0.258 -0.7992  0.1817 -0.8662
  892SOL     OW 2674   2.025   1.447   2.393  0.0752 -0.5352  0.0269
  892SOL    HW1 2675   2.106   1.394   2.430  1.2410 -0.2831  3.1280
  892SOL    HW2 2676   2.068   1.536   2.360  0.4328 -0.9147 -0.3359
  893SOL     OW 2677   2.274   2.525   1.282 -0.7585 -0.4108 -0.0094
  893SOL    HW1 2678   2.217   2.496   1.204  2.7623  1.5381 -0.0825
  893SOL    HW2 2679   2.329   2.609   1.261 -1.6863  0.0305 -0.9480
  894SOL     OW 2680   0.156   0.560   0.874 -0.4932  0.1209  0.3204
  894SOL    HW1 2681   0.183   0.570   0.973 -0.4737 -0.2525  1.0698
  894SOL    HW2 2682   0.163   0.650   0.829 -0.5446 -2.9164 -0.7403
  895SOL     OW 2683   2.978   2.036   2.472 -0.3313 -0.0997 -0.3448
  895SOL    HW1 2684   2.997   2.078   2.377 -1.1203  1.5153  0.1605
  895SOL    HW2 2685   3.049   1.967   2.495  2.2307 -0.8511 -0.2561
  896SOL     OW 2686   1.328   3.024   2.676 -0.8723 -0.0497  0.1794
  896SOL    HW1 2687   1.282   2.983   2.759  0.6828 -2.0520 -1.4393
  896SOL    HW2 2688   1.267   0.011   2.625 -0.9374  0.5646  2.0674
  897SOL     OW 2689   0.282   2.239   1.444 -0.1414  0.3080 -0.3787
  897SOL    HW1 2690   0.367   2.222   1.497 -0.8567  1.2503  0.0866
  897SOL    HW2 2691   0.200   2.208   1.499  0.4732 -2.1790 -1.1435
  898SOL     OW 2692   0.721   2.161   1.759  0.1032  0.1639  0.0009
  898SOL    HW1 2693   0.654   2.190   1.687 -0.3323 -2.3906  0.6086
  898SOL    HW2 2694   0.737   2.239   1.820 -3.6390  0.2486  0.1910
  899SOL     OW 2695   2.007   0.204   1.783  0.2255 -0.5299 -0.0979
  899SOL    HW1 2696   1.926   0.140   1.777 -0.5117  1.9972 -1.3330
  899SOL    HW2 2697   2.049   0.237   1.692  2.9363  0.9318  0.1797
  900SOL     OW 2698   1.590   1.169   0.406  0.0716 -0.3224 -0.1845
  900SOL    HW1 2699   1.617   1.259   0.370  0.3876 -0.9172  2.7404
  900SOL    HW2 2700   1.612   1.158   0.506  0.7430  0.5804  1.9613
  901SOL     OW 2701   1.245   0.986   2.227  0.7628 -0.5754 -0.0143
  901SOL    HW1 2702   1.239   1.039   2.312  0.2420  0.1622 -2.3696
  901SOL    HW2 2703   1.283   0.897   2.242  0.3168  2.0455 -2.0000
  902SOL     OW 2704   0.188   1.919   0.745  0.1093 -0.2317 -0.0733
  902SOL    HW1 2705   0.241   1.835   0.756 -2.3929  1.9892  1.0861
  902SOL    HW2 2706   0.152   1.943   0.834  3.1865  2.3306 -0.1290
  903SOL     OW 2707   2.420   1.121   2.127 -0.4323 -0.1525  0.2581
  903SOL    HW1 2708   2.389   1.213   2.157 -0.3276 -0.3341 -1.0859
  903SOL    HW2 2709   2.435   1.066   2.210 -0.6901  1.1092 -0.1273
  904SOL     OW 2710   1.177   1.934   3.008  0.5394  0.1733  0.0143
  904SOL    HW1 2711   1.133   1.898   2.922  0.8014  0.5409  1.2637
  904SOL    HW2 2712   1.096   1.942   3.074  0.8570 -2.2939  0.1141
  905SOL     OW 2713   2.059   0.110   2.031 -0.7677 -0.2136  0.0299
  905SOL    HW1 2714   2.051   0.140   1.936 -0.9762  0.2920  0.3405
  905SOL    HW2 2715   2.153   0.120   2.065 -3.0686  0.8067 -0.7536
  906SOL     OW 2716   0.815   2.603   0.112 -0.2719  0.1797  0.1252
  906SOL    HW1 2717   0.792   2.506   0.104  2.0685 -0.1912  2.4447
  906SOL    HW2 2718   0.920   2.612   0.110  1.4312  0.8495 -2.1946
  907SOL     OW 2719   0.468   2.443   0.768 -0.3096  0.1541 -0.3037
  907SOL    HW1 2720   0.516   2.516   0.821  2.6043 -1.1164 -1.5400
  907SOL    HW2 2721   0.454   2.471   0.671 -1.1766 -4.1129  0.7828
  908SOL     OW 2722   1.010   2.550   1.791  0.5050  0.0262 -0.1715
  908SOL    HW1 2723   1.108   2.557   1.833  1.7546  0.9043  2.3220
  908SOL    HW2 2724   1.008   2.540   1.691 -1.5020 -0.6520  1.2079
  909SOL     OW 2725   1.765   0.993   0.995 -0.6823 -0.1574 -0.3054
  909SOL    HW1 2726   1.847   0.944   1.030  1.0034 -1.8939 -2.0264
  909SOL    HW2 2727   1.751   1.082   1.039 -2.0336 -1.0620 -2.6745
  910SOL     OW 2728   0.968   0.179   0.231 -0.0017 -0.1500 -0.0974
  910SOL    HW1 2729   1.036   0.229   0.175 -0.8175 -1.5802 -0.7245
  910SOL    HW2 2730   0.928   0.095   0.187 -2.6421 -1.6528  1.3739
  911SOL     OW 2731   0.604   0.245   0.100 -0.2256  0.1125 -0.1513
  911SOL    HW1 2732   0.524   0.267   0.038 -0.9089 -2.4272 -1.4200
  911SOL    HW2 2733   0.655   0.330   0.115 -1.1345 -1.7966 -0.2155
  912SOL     OW 2734   0.283   2.074   2.826 -0.2243 -0.1577 -0.2476
  912SOL    HW1 2735   0.299   2.017   2.743  0.3844  2.0993 -1.1790
  912SOL    HW2 2736   0.182   2.088   2.842  0.0666  2.0184  2.6440
  913SOL     OW 2737   2.273   3.038   0.049  0.1474  0.2870  0.0900
  913SOL    HW1 2738   2.222   3.071   3.048 -1.8239 -0.0228  0.6048
  913SOL    HW2 2739   2.283   0.034   0.121 -0.2109 -1.2604 -0.6097
  914SOL     OW 2740   1.311   1.463   2.271  0.1561 -0.5161  0.4471
  914SOL    HW1 2741   1.297   1.477   2.372 -0.3416  2.5982 -0.3571
  914SOL    HW2 2742   1.319   1.554   2.229 -0.3400  0.4449  0.6471
  915SOL     OW 2743   2.698   2.416   1.964  0.0889 -0.3584  0.4056
  915SOL    HW1 2744   2.672   2.376   2.059  0.2345  0.8207  2.2528
  915SOL    HW2 2745   2.782   2.368   1.938 -1.1477 -0.9152 -2.0614
  916SOL     OW 2746   0.068   1.150   2.251 -0.2147  0.1582  0.3299
  916SOL    HW1 2747   0.144   1.113   2.194 -1.2466  0.1408 -0.7517
  916SOL    HW2 2748   3.077   1.185   2.183  1.2555 -0.9684  0.9790
  917SOL     OW 2749   1.311   0.430   0.345  0.1055 -0.4060 -0.2307
  917SOL    HW1 2750   1.370   0.514   0.333 -0.8709 -0.9149  0.9549
  917SOL    HW2 2751   1.360   0.346   0.379  0.4720  0.8825 -0.9784
  918SOL     OW 2752   1.463   3.034   2.032 -0.1233  0.2506  0.4019
  918SOL    HW1 2753   1.430   0.006   1.950  0.7877  2.3180  0.4986
  918SOL    HW2 2754   1.558   2.992   2.019 -0.3237 -4.1047  0.3455
  919SOL     OW 2755   1.602   2.421   1.787  0.1307  0.3146  0.3706
  919SOL    HW1 2756   1.562   2.391   1.697 -1.5817 -0.8767 -0.2327
  919SOL    HW2 2757   1.701   2.403   1.796  1.6253  1.8782 -1.1407
  920SOL     OW 2758   0.222   0.816   0.143  0.0837 -0.2021 -0.4835
  920SOL    HW1 2759   0.140   0.869   0.177 -3.9038  1.9880  2.7759
  920SOL    HW2 2760   0.270   0.766   0.220 -1.1956  0.5590  1.5435
  921SOL     OW 2761   2.050   1.006   2.230 -0.6771  0.8964  0.2133
  921SOL    HW1 2762   1.992   0.974   2.155  0.6579  2.2324 -0.6422
  921SOL    HW2 2763   2.089   1.101   2.215  2.3650  3.1991  2.6345
  922SOL     OW 2764   1.206   1.669   2.771  0.1400  0.0210 -0.5528
  922SOL    HW1 2765   1.177   1.761   2.739 -0.5158  0.4406  2.4951
  922SOL    HW2 2766   1.143   1.633   2.845  2.7173 -1.9856  1.0084
  923SOL     OW 2767   0.843   1.205   2.173 -1.0101  0.4254  0.0909
  923SOL    HW1 2768   0.751   1.229   2.200 -0.0755 -0.5456  1.2309
  923SOL    HW2 2769   0.915   1.280   2.187  2.7212  0.2520  1.0872
  924SOL     OW 2770   0.001   2.038   2.869 -0.3972 -0.0058  0.3112
  924SOL    HW1 2771   2.996   2.000   2.829  2.9889 -0.5418 -0.7978
  924SOL    HW2 2772   0.030   1.988   2.960  0.6520  0.1705  1.7948
  925SOL     OW 2773   1.763   1.655   0.893  0.0004  0.6677  0.3802
  925SOL    HW1 2774   1.720   1.711   0.817 -1.3597  0.2665 -0.2170
  925SOL    HW2 2775   1.866   1.654   0.885 -2.9047  1.8828  1.7019
  926SOL     OW 2776   1.786   0.309   2.477 -0.2586  0.1352  0.3761
  926SOL    HW1 2777   1.818   0.279   2.389  0.0118 -1.5552  1.3586
  926SOL    HW2 2778   1.830   0.398   2.502  1.2063  0.5619  1.7466
  927SOL     OW 2779   2.521   2.661   1.598  0.1972 -0.0574 -0.0344
  927SOL    HW1 2780   2.584   2.684   1.674 -0.3300  0.3164  0.6900
  927SOL    HW2 2781   2.489   2.567   1.609  2.2859  0.5594  0.9402
  928SOL     OW 2782   0.578   0.919   2.834 -0.1058 -0.0219  0.6886
  928SOL    HW1 2783   0.482   0.911   2.810  0.5915 -0.6772 -2.1851
  928SOL    HW2 2784   0.645   0.906   2.758  1.3957  1.6637  3.9251
  929SOL     OW 2785   0.026   0.228   0.815 -0.2214  0.2910 -0.0971
  929SOL    HW1 2786   0.061   0.293   0.743  0.0687  1.5847 -0.6099
  929SOL    HW2 2787   3.016   0.257   0.847  3.1438 -2.3859 -0.1043
  930SOL     OW 2788   2.630   3.005   1.836 -0.8361 -0.3253  0.2726
  930SOL    HW1 2789   2.535   3.010   1.871 -0.5948 -1.0920 -0.2312
  930SOL    HW2 2790   2.646   3.065   1.750  1.8193  1.8544 -0.7467
  931SOL     OW 2791   2.273   1.113   2.885 -0.3853 -0.0377  0.5537
  931SOL    HW1 2792   2.342   1.045   2.914 -1.9105  0.8991  2.2471
  931SOL    HW2 2793   2.174   1.078   2.888 -1.0922 -0.8663 -0.0927
  932SOL     OW 2794   2.714   1.164   0.768 -0.0482 -0.1703 -0.3344
  932SOL    HW1 2795   2.631   1.176   0.708 -2.8007  0.4471  2.3682
  932SOL    HW2 2796   2.776   1.247   0.784 -1.3840  1.4143  1.9005
  933SOL     OW 2797   2.953   2.376   1.566  0.4198 -0.5086  0.1085
  933SOL    HW1 2798   2.934   2.353   1.661  0.7590 -0.0587  1.9193
  933SOL    HW2 2799   2.971   2.476   1.561 -0.7633  0.2993  1.7445
  934SOL     OW 2800   0.924   3.029   0.960  0.6093 -0.1289 -0.3710
  934SOL    HW1 2801   0.853   3.045   0.890  1.7313 -1.1833  0.8960
  934SOL    HW2 2802   1.010   2.991   0.923  0.0072 -1.4568 -1.7389
  935SOL     OW 2803   2.623   0.362   2.211 -0.2599 -0.0499 -0.3147
  935SOL    HW1 2804   2.701   0.306   2.237  0.0151  1.1193  0.3423
  935SOL    HW2 2805   2.534   0.340   2.255  0.9855 -0.5024 -0.6978
  936SOL     OW 2806   2.840   0.460   1.663  0.8155  0.2904 -0.0733
  936SOL    HW1 2807   2.754   0.513   1.660 -0.5033 -2.2274 -1.7865
  936SOL    HW2 2808   2.863   0.441   1.761  1.2107  0.8847  2.5212
  937SOL     OW 2809   1.679   1.316   1.740 -0.2266  0.3075 -0.1251
  937SOL    HW1 2810   1.764   1.344   1.698 -3.4255  1.2019 -1.5947
  937SOL    HW2 2811   1.659   1.214   1.734  0.2792 -1.6303 -2.1217
  938SOL     OW 2812   0.725   2.350   0.023  0.0189 -0.0464  0.2383
  938SOL    HW1 2813   0.629   2.355   0.062  0.8206 -1.6237  1.0866
  938SOL    HW2 2814   0.767   2.258   0.039 -1.1980  0.0042 -0.9904
  939SOL     OW 2815   1.631   0.430   0.131 -0.3044 -0.2442 -0.3170
  939SOL    HW1 2816   1.630   0.337   0.167 -0.4367 -0.7235 -1.8187
  939SOL    HW2 2817   1.612   0.426   0.034  1.4590 -1.4567 -0.7428
  940SOL     OW 2818   1.412   2.688   0.865 -0.9062  0.4929 -0.0252
  940SOL    HW1 2819   1.463   2.619   0.924 -0.0471 -1.0656  0.1421
  940SOL    HW2 2820   1.478   2.760   0.829  1.6208 -0.0463  0.8991
  941SOL     OW 2821   1.325   1.804   1.776  0.0623  0.3594  0.1302
  941SOL    HW1 2822   1.427   1.800   1.797 -3.9962 -0.9253 -0.0882
  941SOL    HW2 2823   1.300   1.772   1.681 -0.2707 -0.0306 -1.4288
  942SOL     OW 2824   2.861   1.928   2.772 -0.5180  0.4532  0.5991
  942SOL    HW1 2825   2.827   1.883   2.856 -0.3049  1.0832 -2.0166
  942SOL    HW2 2826   2.811   1.890   2.692  2.5323  0.6651  0.8934
  943SOL     OW 2827   2.707   2.744   1.801  0.3896 -0.2066  0.3623
  943SOL    HW1 2828   2.693   2.841   1.810  0.8134 -1.0533 -1.0011
  943SOL    HW2 2829   2.723   2.693   1.888 -0.6038 -2.2818  1.3172
  944SOL     OW 2830   1.661   1.992   2.906 -0.2182 -0.2771 -0.0717
  944SOL    HW1 2831   1.566   2.030   2.916 -1.3474 -0.3113  0.3330
  944SOL    HW2 2832   1.681   1.973   2.807 -2.8447 -0.2728 -1.5726
  945SOL     OW 2833   0.014   2.172   1.144 -0.3569 -0.2902  0.1259
  945SOL    HW1 2834   0.075   2.243   1.184 -1.2727  1.8131  1.7824
  945SOL    HW2 2835   3.032   2.132   1.216  0.2941 -0.0347 -1.5082
  946SOL     OW 2836   1.686   1.166   3.004 -0.1662 -0.0294 -0.1852
  946SOL    HW1 2837   1.651   1.117   0.008 -0.1008  1.3871 -0.7632
  946SOL    HW2 2838   1.682   1.103   2.926  4.0181  1.7172  0.6376
  947SOL     OW 2839   0.230   1.055   2.071 -0.1675  0.0642 -0.3911
  947SOL    HW1 2840   0.247   1.063   1.971 -1.6213  0.6667  0.3362
  947SOL    HW2 2841   0.230   0.960   2.101  0.7061 -0.7291 -0.1045
  948SOL     OW 2842   0.316   1.074   0.386  0.0736  0.4067  0.7913
  948SOL    HW1 2843   0.278   0.994   0.436  2.2910 -0.9577  0.9419
  948SOL    HW2 2844   0.415   1.079   0.401 -2.3634  1.8284 -0.0288
  949SOL     OW 2845   0.693   0.239   2.708 -0.0776  0.0241 -0.2933
  949SOL    HW1 2846   0.643   0.319   2.746 -1.0331 -0.0329 -1.1513
  949SOL    HW2 2847   0.788   0.259   2.681  2.0199  0.3211 -2.3459
  950SOL     OW 2848   2.998   0.520   1.233  0.5755  0.0202  0.0670
  950SOL    HW1 2849   3.014   0.426   1.188 -1.0680 -0.5772 -1.5453
  950SOL    HW2 2850   3.013   0.521   1.336  1.7353 -1.4919  0.2186
  951SOL     OW 2851   0.176   1.027   2.830  0.6305 -0.0238  0.0452
  951SOL    HW1 2852   0.076   0.997   2.823 -2.5292 -1.4044  1.3549
  951SOL    HW2 2853   0.217   0.996   2.918  1.2374 -0.2231  1.1686
  952SOL     OW 2854   2.089   2.229   1.745 -0.0208  0.3105  0.1854
  952SOL    HW1 2855   2.063   2.151   1.682 -1.3829 -1.8039 -0.5838
  952SOL    HW2 2856   2.187   2.215   1.770 -0.8542 -1.9077  0.7115
  953SOL     OW 2857   0.442   2.536   2.959 -0.2983 -0.1521 -0.2366
  953SOL    HW1 2858   0.380   2.487   2.891 -1.7244  2.0225 -1.2594
  953SOL    HW2 2859   0.472   2.471   3.033 -1.8624  0.6938  0.1865
  954SOL     OW 2860   2.434   0.818   1.034  0.1943 -0.3278 -0.7888
  954SOL    HW1 2861   2.521   0.823   0.989 -1.0105  1.2329 -0.3500
  954SOL    HW2 2862   2.430   0.759   1.117  3.2170  0.3103 -2.4759
  955SOL     OW 2863   1.268   1.339   0.187  0.0897  0.8568  0.2277
  955SOL    HW1 2864   1.356   1.360   0.136  3.2031  1.9132 -3.1100
  955SOL    HW2 2865   1.201   1.287   0.126 -2.3486  1.4319 -0.7251
  956SOL     OW 2866   0.887   0.713   2.339  0.1865 -0.3968 -0.3975
  956SOL    HW1 2867   0.926   0.781   2.273 -2.9058 -0.8081 -0.2833
  956SOL    HW2 2868   0.953   0.692   2.417  2.0538 -2.3981  0.8124
  957SOL     OW 2869   0.557   0.284   2.241  0.0414  0.0230 -0.0009
  957SOL    HW1 2870   0.583   0.213   2.311  1.3505 -0.1912 -1.5501
  957SOL    HW2 2871   0.466   0.260   2.197 -3.6078  1.2753 -0.7060
  958SOL     OW 2872   0.889   2.025   0.763  0.2357  0.1789  0.1486
  958SOL    HW1 2873   0.920   1.963   0.839 -0.8356 -3.1539 -0.8059
  958SOL    HW2 2874   0.835   2.103   0.808 -0.5080  1.5959  3.1177
  959SOL     OW 2875   2.518   0.678   1.935  0.5589 -0.3759 -0.2029
  959SOL    HW1 2876   2.415   0.676   1.949  1.5257  0.2690  0.1065
  959SOL    HW2 2877   2.576   0.664   2.019 -0.8657  0.9612  2.5645
  960SOL     OW 2878   0.306   1.175   2.657  0.0714 -0.4141 -0.4794
  960SOL    HW1 2879   0.244   1.218   2.591  1.2989 -2.1220 -0.0930
  960SOL    HW2 2880   0.247   1.103   2.705 -1.2682 -0.5719 -0.3726
  961SOL     OW 2881   0.849   1.555   0.667  0.1181 -0.0092 -0.4849
  961SOL    HW1 2882   0.829   1.652   0.639  1.7699  1.1035  0.4669
  961SOL    HW2 2883   0.847   1.547   0.769 -0.3762 -2.6198  1.0188
  962SOL     OW 2884   0.488   1.448   1.149 -0.3095  0.8316 -0.0808
  962SOL    HW1 2885   0.418   1.375   1.157  0.9692  0.7580  0.2868
  962SOL    HW2 2886   0.442   1.535   1.176 -0.0261 -2.0970 -1.0351
  963SOL     OW 2887   1.314   2.163   0.346  0.1168 -0.8254  0.2742
  963SOL    HW1 2888   1.373   2.117   0.272  0.2980 -1.2512 -1.0589
  963SOL    HW2 2889   1.225   2.114   0.354  2.4249 -0.7584  1.2028
  964SOL     OW 2890   0.251   2.686   2.743 -0.3308  0.2951  0.3200
  964SOL    HW1 2891   0.344   2.710   2.710 -0.3025 -0.0025  2.3406
  964SOL    HW2 2892   0.244   2.588   2.758 -0.1408 -0.7860  0.5769
  965SOL     OW 2893   2.773   1.809   2.999 -0.0035  0.2497 -0.4670
  965SOL    HW1 2894   2.695   1.752   3.028 -0.9694  2.1119 -0.9079
  965SOL    HW2 2895   2.817   1.846   0.007 -1.1686 -0.3993  4.2092
  966SOL     OW 2896   2.703   1.345   2.525  0.8165 -0.4814 -0.2144
  966SOL    HW1 2897   2.668   1.386   2.442  0.5665 -0.7123  1.2233
  966SOL    HW2 2898   2.622   1.314   2.583 -2.2392 -2.0385 -1.3964
  967SOL     OW 2899   1.692   0.362   0.537  0.0800  0.2056  0.1259
  967SOL    HW1 2900   1.743   0.418   0.467 -1.1111  2.7687 -1.0477
  967SOL    HW2 2901   1.757   0.302   0.584 -0.1517  3.0703  1.8026
  968SOL     OW 2902   2.663   2.920   0.483  0.4415 -0.4236 -0.1428
  968SOL    HW1 2903   2.748   2.941   0.536 -1.2155 -0.3760  2.9957
  968SOL    HW2 2904   2.607   2.852   0.535  0.4238  0.1576 -2.2293
  969SOL     OW 2905   0.408   0.798   2.425 -0.3660 -0.0127 -0.9015
  969SOL    HW1 2906   0.469   0.754   2.353  0.5499  1.4924 -2.6306
  969SOL    HW2 2907   0.340   0.854   2.373 -1.2325  0.5845 -1.8318
  970SOL     OW 2908   2.105   1.669   2.749 -0.4268 -0.3946 -0.1767
  970SOL    HW1 2909   2.095   1.717   2.836  4.0669  0.7825 -2.3326
  970SOL    HW2 2910   2.188   1.610   2.752 -3.4848  0.1903 -0.3097
  971SOL     OW 2911   2.824   3.031   2.046 -0.5334 -0.1088  0.2666
  971SOL    HW1 2912   2.895   0.022   2.027  1.3451  2.3728 -2.0598
  971SOL    HW2 2913   2.772   3.006   1.961  1.2980  2.0692  0.4402
  972SOL     OW 2914   2.928   0.603   0.633  0.1215 -0.2919  0.3402
  972SOL    HW1 2915   3.025   0.581   0.616  1.8544  1.6373  2.1694
  972SOL    HW2 2916   2.901   0.693   0.591  0.5914 -0.2708  0.2509
  973SOL     OW 2917   2.667   0.010   2.245  0.4949 -0.5613 -0.2231
  973SOL    HW1 2918   2.715   3.052   2.159 -0.4111 -2.3392  1.1764
  973SOL    HW2 2919   2.717   0.091   2.273  0.0568 -1.9209 -0.6584
  974SOL     OW 2920   2.831   0.886   1.307  0.1103  0.1728  0.0256
  974SOL    HW1 2921   2.780   0.950   1.250  1.2761  2.1009  0.0016
  974SOL    HW2 2922   2.913   0.859   1.259  0.9121  1.4950  0.7662
  975SOL     OW 2923   1.474   2.793   2.617  0.4257 -0.2804  0.1839
  975SOL    HW1 2924   1.420   2.878   2.643 -2.5721  1.8907  1.8095
  975SOL    HW2 2925   1.532   2.810   2.534  0.7401 -2.8387  0.6244
  976SOL     OW 2926   1.955   1.320   1.653 -0.1470  0.2211  0.0637
  976SOL    HW1 2927   1.987   1.289   1.561  1.0885  1.3547 -0.0887
  976SOL    HW2 2928   1.990   1.256   1.719 -0.5825  1.1337 -1.7719
  977SOL     OW 2929   2.576   2.717   0.251  0.2146 -0.4587  0.2277
  977SOL    HW1 2930   2.599   2.628   0.216 -1.5909  0.4236 -0.9666
  977SOL    HW2 2931   2.648   2.750   0.315  0.2357  0.6576  1.5867
  978SOL     OW 2932   1.913   0.999   1.911  0.3125  0.2703 -0.0583
  978SOL    HW1 2933   2.000   1.040   1.872  0.4473  1.0505  0.0558
  978SOL    HW2 2934   1.909   0.899   1.905 -2.6708 -3.2939  1.8374
  979SOL     OW 2935   0.786   1.052   2.408  0.1238 -0.4191  0.4357
  979SOL    HW1 2936   0.806   1.102   2.323  2.0123  1.1480  1.2400
  979SOL    HW2 2937   0.699   1.083   2.453  1.0004 -0.0818  0.1953
  980SOL     OW 2938   1.632   1.886   2.663 -0.4662  0.2773 -0.4862
  980SOL    HW1 2939   1.575   1.811   2.703  0.9319 -2.0439 -2.5676
  980SOL    HW2 2940   1.719   1.839   2.640 -1.9501 -1.8730 -2.7801
  981SOL     OW 2941   1.017   0.491   1.640  0.4311  0.0044  0.2044
  981SOL    HW1 2942   1.045   0.555   1.563 -2.3490  1.0376  1.3367
  981SOL    HW2 2943   0.927   0.441   1.625 -2.1430 -1.1444 -0.7509
  982SOL     OW 2944   0.995   0.144   2.995  0.2210 -0.7445  0.7833
  982SOL    HW1 2945   0.996   0.245   2.984 -0.0575 -0.9094  2.6204
  982SOL    HW2 2946   0.906   0.099   2.979  0.2362  0.5474  2.3676
  983SOL     OW 2947   2.270   1.027   0.079 -0.5736  0.0767  0.2361
  983SOL    HW1 2948   2.280   0.946   0.021  1.1163  0.9247  0.8816
  983SOL    HW2 2949   2.345   1.091   0.068  1.3877  0.7501  0.4307
  984SOL     OW 2950   1.207   0.447   0.057 -0.1685  0.2354 -0.3917
  984SOL    HW1 2951   1.223   0.416   0.154 -2.0307  0.4906  1.7462
  984SOL    HW2 2952   1.261   0.392   3.070  2.0089 -1.4897  1.6641
  985SOL     OW 2953   1.135   2.505   2.192 -0.2042 -0.4171  0.0290
  985SOL    HW1 2954   1.033   2.480   2.197 -2.8505  0.5905  1.6548
  985SOL    HW2 2955   1.184   2.442   2.131 -0.2744 -0.6629  3.3152
  986SOL     OW 2956   2.331   3.015   1.874 -0.2862  0.2790  0.4571
  986SOL    HW1 2957   2.335   3.071   1.786  2.7174  2.3640  1.4756
  986SOL    HW2 2958   2.249   2.955   1.879 -1.4880 -0.8612 -0.0166
  987SOL     OW 2959   2.187   1.456   1.137 -0.5484 -0.4447  0.0210
  987SOL    HW1 2960   2.282   1.451   1.094 -0.0237 -1.6987 -0.5485
  987SOL    HW2 2961   2.141   1.362   1.125 -0.3077 -0.9288 -1.0454
  988SOL     OW 2962   2.501   0.999   1.677 -0.0906 -0.4370  0.2086
  988SOL    HW1 2963   2.558   0.975   1.760  0.8464  2.7193  2.6752
  988SOL    HW2 2964   2.426   0.935   1.670  2.3453  2.7426 -1.8769
  989SOL     OW 2965   2.056   2.191   0.132  0.0045  0.0466 -0.9050
  989SOL    HW1 2966   1.989   2.163   0.062 -1.6777  4.0686 -1.3966
  989SOL    HW2 2967   2.041   2.128   0.213  0.3853  0.5543  2.4470
  990SOL     OW 2968   1.221   0.554   2.019  0.7302  0.2158 -0.0473
  990SOL    HW1 2969   1.287   0.617   2.059 -1.8064 -0.0434 -3.2669
  990SOL    HW2 2970   1.242   0.458   2.041  1.1728  1.2239 -0.1518
  991SOL     OW 2971   1.340   1.112   0.367 -0.0827 -0.0060  0.2088
  991SOL    HW1 2972   1.309   1.179   0.295 -1.4590 -0.1949  0.2632
  991SOL    HW2 2973   1.435   1.129   0.389  0.2964  0.7814 -1.1795
  992SOL     OW 2974   0.060   0.766   1.530  0.0234 -0.0934  0.3970
  992SOL    HW1 2975   0.098   0.807   1.440 -0.8847  1.2938  0.7332
  992SOL    HW2 2976   0.044   0.668   1.511  0.7641  2.6953 -1.4730
  993SOL     OW 2977   2.378   0.254   2.252 -0.2003  0.4470  0.1456
  993SOL    HW1 2978   2.353   0.284   2.160  1.8623 -0.5336  2.2856
  993SOL    HW2 2979   2.341   0.161   2.266 -2.0964  0.1400  1.5415
  994SOL     OW 2980   1.518   2.157   1.843 -0.5989  0.1053 -0.2762
  994SOL    HW1 2981   1.540   2.091   1.915  0.1019 -0.9528  0.4491
  994SOL    HW2 2982   1.571   2.244   1.860  4.7987  2.9013 -1.1093
  995SOL     OW 2983   2.516   1.943   2.900 -0.2300  0.0351  0.1244
  995SOL    HW1 2984   2.437   1.877   2.914  0.0341  0.6130  0.2885
  995SOL    HW2 2985   2.601   1.902   2.929 -1.2223 -1.7270  1.5685
  996SOL     OW 2986   2.330   1.713   2.923 -0.0959 -0.3921  0.2607
  996SOL    HW1 2987   2.295   1.670   3.008 -0.3746  0.6420 -3.1957
  996SOL    HW2 2988   2.411   1.659   2.885 -0.8083 -0.6332  1.1318
  997SOL     OW 2989   1.445   0.650   2.203 -0.0494 -0.1843  0.4757
  997SOL    HW1 2990   1.507   0.707   2.140  0.4508  0.4563  1.7935
  997SOL    HW2 2991   1.404   0.710   2.280  0.7886  1.6997 -2.5246
  998SOL     OW 2992   2.520   0.422   0.660 -0.3597  0.1019  0.0066
  998SOL    HW1 2993   2.598   0.368   0.622 -0.1126 -1.9146  1.1492
  998SOL    HW2 2994   2.493   0.374   0.747  0.2895  0.3786  2.8141
  999SOL     OW 2995   2.917   1.366   0.850 -0.3498 -0.2460 -0.2588
  999SOL    HW1 2996   2.885   1.448   0.799 -0.4462 -0.8999  0.2625
  999SOL    HW2 2997   3.022   1.368   0.842  1.1294  1.1258 -0.3161
 1000SOL     OW 2998   0.548   1.572   1.940  0.1477 -0.1151 -0.2875
 1000SOL    HW1 2999   0.617   1.498   1.929  1.2446  1.9640 -0.4656
 1000SOL    HW2 3000   0.454   1.543   1.920 -0.0074 -2.8965  0.6048
   3.08071   3.08071   3.08071
