1000 SPC/Fw water molecules t=   2.00000 step= 2000
 3000
    1SOL     OW    1   1.340   2.784   0.227  0.5335 -0.2421 -0.3274
    1SOL    HW1    2   1.310   2.879   0.204 -1.6508  1.7372 -1.4495
    1SOL    HW2    3   1.293   2.750   0.311 -1.8111  1.7014  1.2334
    2SOL     OW    4   1.482   0.692   1.491  0.1999 -0.2793 -0.0486
    2SOL    HW1    5   1.562   0.681   1.429 -0.7393  2.4475  0.1120
    2SOL    HW2    6   1.475   0.787   1.528 -1.2016  0.7830 -2.3098
    3SOL     OW    7   0.646   0.090   2.526 -0.1882 -0.2433 -0.5682
    3SOL    HW1    8   0.666   0.179   2.575  1.2299  2.6206  0.8839
    3SOL    HW2    9   0.602   0.018   2.585  0.9887 -2.5116 -0.2220
    4SOL     OW   10   1.370   1.759   2.957  0.0668 -0.2982  0.1074
    4SOL    HW1   11   1.455   1.810   2.937 -1.4292  0.6905  1.3726
    4SOL    HW2   12   1.358   1.751   3.056  1.5758 -0.4775  0.3224
    5SOL     OW   13   0.739   1.061   2.111 -0.1713  0.1507 -0.3330
    5SOL    HW1   14   0.778   0.993   2.179  1.0177  3.0123 -1.3504
    5SOL    HW2   15   0.806   1.135   2.088  0.0470  1.9938 -1.9970
    6SOL     OW   16   2.402   1.091   2.114 -0.4496  0.0968  0.2309
    6SOL    HW1   17   2.503   1.080   2.123 -2.9694 -2.7365 -2.2351
    6SOL    HW2   18   2.360   1.002   2.083  2.2454  2.0825 -1.0119
    7SOL     OW   19   0.027   0.962   1.273  0.0783  0.1782 -0.1055
    7SOL    HW1   20   3.053   1.043   1.279  1.3708 -1.0400 -1.5514
    7SOL    HW2   21   0.122   0.985   1.242 -0.8640  1.6305 -2.1490
    8SOL     OW   22   2.270   2.608   2.040  0.4025  0.8038  0.2673
    8SOL    HW1   23   2.306   2.637   1.947 -1.0833 -1.3386  0.5625
    8SOL    HW2   24   2.283   2.675   2.108 -2.3522 -0.9969 -3.6298
    9SOL     OW   25   0.094   2.587   0.418 -0.5450  0.0819 -0.3835
    9SOL    HW1   26   0.009   2.580   0.471  0.8402 -1.3765 -1.2700
    9SOL    HW2   27   0.141   2.500   0.407  0.9996 -1.7021  1.1014
   10SOL     OW   28   0.064   2.425   2.555 -0.0294  0.4276 -0.2973
   10SOL    HW1   29   0.130   2.493   2.518 -0.1533  0.9152 -1.6202
   10SOL    HW2   30   0.108   2.336   2.548 -1.8030  2.7423 -4.2686
   11SOL     OW   31   0.254   1.703   0.073  0.2616  0.0617  0.4801
   11SOL    HW1   32   0.289   1.643   3.081  1.5495 -0.6648  1.0803
   11SOL    HW2   33   0.338   1.755   0.112 -2.7530  2.5673  1.0490
   12SOL     OW   34   2.240   2.990   0.432  0.0470 -0.3813  0.2632
   12SOL    HW1   35   2.275   3.070   0.487 -0.5781  1.6283 -0.0244
   12SOL    HW2   36   2.290   2.977   0.346  1.0964 -0.7419  3.2823
   13SOL     OW   37   0.175   0.364   2.695 -0.1608 -0.2787  0.2131
   13SOL    HW1   38   0.121   0.289   2.722  0.5542 -0.0199 -0.2565
   13SOL    HW2   39   0.147   0.453   2.739 -0.0158 -1.0867 -1.8782
   14SOL     OW   40   1.223   0.705   1.466  0.5044  0.1807 -0.3307
   14SOL    HW1   41   1.325   0.693   1.474  0.6086 -1.3813 -3.7894
   14SOL    HW2   42   1.202   0.758   1.383 -0.2941  0.7423 -1.2543
   15SOL     OW   43   0.607   1.382   2.156 -0.8013  0.1355  0.0165
   15SOL    HW1   44   0.509   1.394   2.124 -3.4964  1.1251 -1.0201
   15SOL    HW2   45   0.665   1.330   2.095  2.3977  2.5163  2.2752
   16SOL     OW   46   1.801   1.111   2.596  0.8087  0.8152 -0.2044
   16SOL    HW1   47   1.719   1.063   2.633 -0.1110 -0.8912 -1.2394
   16SOL    HW2   48   1.779   1.200   2.558  1.3260 -1.4088 -0.1732
   17SOL     OW   49   0.124   2.409   2.162  0.1462  0.0473 -0.0515
   17SOL    HW1   50   0.104   2.508   2.186 -1.5255 -0.6538 -1.5217
   17SOL    HW2   51   0.073   2.386   2.076  1.0590 -3.0225  2.2249
   18SOL     OW   52   1.423   1.259   0.699  0.2313 -0.3305  0.0313
   18SOL    HW1   53   1.464   1.170   0.681  1.8376 -1.8513 -1.2365
   18SOL    HW2   54   1.324   1.251   0.726 -0.8066 -1.1493 -2.5976
   19SOL     OW   55   0.114   1.181   1.964 -0.4869 -0.3160 -0.2199
   19SOL    HW1   56   0.172   1.231   1.897  2.3346 -1.3697 -0.7002
   19SOL    HW2   57   0.156   1.093   1.990 -1.1505  4.5073  0.7839
   20SOL     OW   58   1.762   2.118   2.908 -0.7327 -0.2020  0.4470
   20SOL    HW1   59   1.752   2.209   2.951 -0.2656 -1.1467 -1.1299
   20SOL    HW2   60   1.805   2.051   2.971 -0.5623 -4.7286 -2.8110
   21SOL     OW   61   1.621   1.632   1.121 -0.3709 -0.5435  0.3077
   21SOL    HW1   62   1.612   1.668   1.215  3.7006  0.5477 -0.9214
   21SOL    HW2   63   1.685   1.556   1.115 -1.3194  0.9153 -1.7743
   22SOL     OW   64   2.037   2.284   1.426  0.2497 -0.0164 -0.3189
   22SOL    HW1   65   1.961   2.258   1.493  0.5004  0.4443 -0.2612
   22SOL    HW2   66   2.011   2.323   1.333 -1.2038 -0.6432  3.1536
   23SOL     OW   67   2.699   1.087   1.349 -0.3621 -0.2395 -0.3508
   23SOL    HW1   68   2.686   0.997   1.386  1.7427  2.1760  0.6624
   23SOL    HW2   69   2.672   1.085   1.252  0.5991 -0.5636 -1.1794
   24SOL     OW   70   1.921   1.361   1.629  0.0970  0.0929 -0.4371
   24SOL    HW1   71   1.873   1.382   1.716  1.1998 -2.5306 -1.1263
   24SOL    HW2   72   2.022   1.355   1.647 -1.9784  0.5499 -3.4640
   25SOL     OW   73   1.754   3.062   2.397 -0.0822  0.2503  0.9844
   25SOL    HW1   74   1.808   0.058   2.421 -1.7901  1.6793 -0.7405
   25SOL    HW2   75   1.665   0.004   2.356  2.8735 -0.4691 -1.0122
   26SOL     OW   76   0.559   2.773   0.676  0.4244 -0.2524  0.3317
   26SOL    HW1   77   0.606   2.860   0.705  0.6507  3.3405  2.1027
   26SOL    HW2   78   0.619   2.709   0.618 -1.2661 -0.0938  0.4700
   27SOL     OW   79   1.152   1.220   0.765 -0.2246  0.2669 -0.0800
   27SOL    HW1   80   1.170   1.162   0.848 -1.3171  2.4767 -1.2528
   27SOL    HW2   81   1.079   1.290   0.788  0.0792  0.1296 -0.0504
   28SOL     OW   82   1.974   2.410   1.179 -0.3315 -0.0891 -0.2900
   28SOL    HW1   83   2.044   2.432   1.109  0.6377  4.0218 -0.3266
   28SOL    HW2   84   1.894   2.362   1.152  0.6416 -0.1348  0.1336
   29SOL     OW   85   2.215   2.998   2.395 -0.2905  0.1148  0.1468
   29SOL    HW1   86   2.265   2.950   2.321 -1.6716  0.4401 -1.0043
   29SOL    HW2   87   2.200   2.927   2.468  0.6596 -0.8297  0.0461
   30SOL     OW   88   0.154   2.780   1.875  0.1569 -0.0696  0.0528
   30SOL    HW1   89   0.080   2.754   1.942  1.2006 -1.5355  1.5273
   30SOL    HW2   90   0.228   2.831   1.914 -3.4637 -1.0474 -0.0522
   31SOL     OW   91   2.999   1.900   2.448  0.2408  0.0473 -0.0521
   31SOL    HW1   92   3.022   1.930   2.545  0.8401 -2.9027 -1.2858
   31SOL    HW2   93   3.075   1.925   2.390 -1.0864 -0.0515  0.0753
   32SOL     OW   94   1.019   2.462   2.231  0.1105  0.3608  0.5622
   32SOL    HW1   95   0.956   2.421   2.301  0.7347 -1.5142 -0.7450
   32SOL    HW2   96   1.115   2.435   2.228 -0.7509 -1.5514 -2.6651
   33SOL     OW   97   0.120   0.430   0.023 -0.0930 -1.2114 -0.8250
   33SOL    HW1   98   0.104   0.535   0.012 -0.3945  0.7303 -0.3873
   33SOL    HW2   99   0.196   0.394   3.055 -1.5216  0.8802 -0.4937
   34SOL     OW  100   2.772   0.163   0.009  0.3096  0.5535 -0.4173
   34SOL    HW1  101   2.820   0.122   0.090 -0.3683  1.5434  1.6207
   34SOL    HW2  102   2.722   0.091   3.045 -2.3211 -1.0215 -3.1999
   35SOL     OW  103   2.859   2.765   1.656  0.0499  0.5127 -0.2208
   35SOL    HW1  104   2.912   2.718   1.732  4.3361  0.8101  2.5886
   35SOL    HW2  105   2.893   2.858   1.637  0.1094 -2.8131 -0.7296
   36SOL     OW  106   2.348   0.047   2.618 -0.4407  0.1136  0.5164
   36SOL    HW1  107   2.264   0.020   2.571  1.7334  2.3605  1.4153
   36SOL    HW2  108   2.396   3.047   2.640  0.1015 -0.0192  4.6642
   37SOL     OW  109   1.697   2.639   0.042 -0.2839  0.2710  0.4736
   37SOL    HW1  110   1.620   2.633   3.062  2.2586 -0.6064 -2.2907
   37SOL    HW2  111   1.655   2.642   0.131 -0.8801 -0.0653  0.2595
   38SOL     OW  112   0.465   0.139   0.614  0.0258 -0.2648 -0.1452
   38SOL    HW1  113   0.434   0.198   0.534  0.7807  3.2146 -0.4689
   38SOL    HW2  114   0.554   0.087   0.596  0.8030  0.9208 -3.2360
   39SOL     OW  115   1.069   1.760   2.073 -0.1126  0.2170  0.6615
   39SOL    HW1  116   1.010   1.786   2.152  0.4949 -0.6776 -1.7314
   39SOL    HW2  117   1.155   1.814   2.061 -0.4242 -1.1056 -1.2763
   40SOL     OW  118   0.065   0.962   0.114  0.3664 -0.5705  0.8703
   40SOL    HW1  119   3.072   1.009   0.073 -0.3470  0.0758 -0.7742
   40SOL    HW2  120   0.154   1.006   0.097 -1.5359  0.8149 -0.5833
   41SOL     OW  121   1.626   0.151   1.983  0.1448 -0.1788 -0.1242
   41SOL    HW1  122   1.550   0.202   2.025  0.5334 -1.3790 -0.9260
   41SOL    HW2  123   1.593   0.073   1.921  1.0620  1.3500  2.0725
   42SOL     OW  124   2.446   0.162   1.167  0.1495  0.3399 -0.0558
   42SOL    HW1  125   2.512   0.184   1.094  2.0172 -2.0692 -0.4673
   42SOL    HW2  126   2.494   0.114   1.245  1.2216 -0.3795 -1.9879
   43SOL     OW  127   1.554   0.272   1.292 -0.0362 -0.4091  0.2206
   43SOL    HW1  128   1.577   0.247   1.385 -1.1125  1.3010 -1.3285
   43SOL    HW2  129   1.475   0.218   1.252 -2.2318 -1.2813 -2.7625
   44SOL     OW  130   0.362   0.833   2.996 -0.3941 -0.4764 -0.7580
   44SOL    HW1  131   0.456   0.810   2.958 -1.9779 -0.4005  0.8596
   44SOL    HW2  132   0.364   0.913   3.060  3.4959 -0.3046 -1.1993
   45SOL     OW  133   0.588   1.498   1.803  0.0267 -0.7866  0.4247
   45SOL    HW1  134   0.630   1.489   1.707  0.2029 -0.0426 -0.3406
   45SOL    HW2  135   0.603   1.413   1.857 -2.2263 -2.7090 -0.4944
   46SOL     OW  136   2.238   2.409   1.583 -0.0062 -0.2591 -0.2747
   46SOL    HW1  137   2.165   2.355   1.532  1.2084 -0.7016 -0.4663
   46SOL    HW2  138   2.313   2.353   1.626 -1.6927  0.5246 -1.8367
   47SOL     OW  139   0.342   1.825   1.593 -0.1008  0.0325 -0.1638
   47SOL    HW1  140   0.336   1.864   1.498  0.5041 -0.0892 -2.3698
   47SOL    HW2  141   0.276   1.871   1.660 -1.6147 -0.0463  0.2716
   48SOL     OW  142   0.972   2.708   2.779 -0.3076 -0.3300  0.1928
   48SOL    HW1  143   0.969   2.642   2.702  3.3457 -0.6470  1.6122
   48SOL    HW2  144   0.894   2.774   2.773 -1.4474 -3.0108  0.1219
   49SOL     OW  145   2.687   1.610   1.805  0.0430  0.1700  0.1579
   49SOL    HW1  146   2.746   1.658   1.731  1.4493  0.5878 -3.0094
   49SOL    HW2  147   2.722   1.515   1.820  1.0367 -0.0423 -1.5608
   50SOL     OW  148   0.943   2.818   0.512  0.1947 -0.3233  0.0393
   50SOL    HW1  149   1.033   2.852   0.552  1.0059  1.0771  1.9498
   50SOL    HW2  150   0.928   2.876   0.423  0.1024 -1.9689 -0.2483
   51SOL     OW  151   1.356   0.155   1.096  0.5888 -0.5122 -0.2540
   51SOL    HW1  152   1.411   0.071   1.066  1.6417 -1.2405 -0.7263
   51SOL    HW2  153   1.265   0.128   1.140 -2.5034 -1.5948  1.4203
   52SOL     OW  154   0.157   0.862   0.580  0.6658  0.2607  0.1353
   52SOL    HW1  155   0.105   0.864   0.490  2.1490  0.2315 -1.8843
   52SOL    HW2  156   0.222   0.937   0.592  0.5509 -1.2197  0.5959
   53SOL     OW  157   1.212   0.121   2.610  0.0165 -0.1628  0.3022
   53SOL    HW1  158   1.265   0.053   2.668  3.4822 -0.1013 -1.7142
   53SOL    HW2  159   1.135   0.078   2.554  0.4914 -0.2811 -1.5746
   54SOL     OW  160   2.225   0.546   2.156 -0.2106  0.0863  0.4887
   54SOL    HW1  161   2.249   0.517   2.251  2.1185  0.9863 -0.1804
   54SOL    HW2  162   2.198   0.464   2.097  1.5162 -2.4109 -1.3259
   55SOL     OW  163   2.616   3.037   0.297 -0.1245 -0.7244 -0.1901
   55SOL    HW1  164   2.653   3.040   0.392  2.0067  3.1687  1.1779
   55SOL    HW2  165   2.658   2.971   0.239 -1.9424  1.2239  1.1528
   56SOL     OW  166   0.822   0.232   2.145  0.4629  0.8647 -0.2907
   56SOL    HW1  167   0.725   0.218   2.113  0.8883 -0.0967 -3.4539
   56SOL    HW2  168   0.869   0.142   2.152  1.0848 -1.6881 -0.9830
   57SOL     OW  169   1.819   0.995   2.195 -0.3356 -0.0651 -0.2271
   57SOL    HW1  170   1.793   1.092   2.206 -0.4034  0.4622 -2.1899
   57SOL    HW2  171   1.912   0.971   2.150  1.8147 -0.5909 -0.1287
   58SOL     OW  172   0.178   0.930   1.964  0.2768  0.4996 -0.6616
   58SOL    HW1  173   0.262   0.919   1.902 -0.7269 -0.8838 -2.6481
   58SOL    HW2  174   0.145   0.843   2.002 -1.4232  0.3701 -0.9617
   59SOL     OW  175   0.879   2.655   1.921  0.1213  0.8583  0.2961
   59SOL    HW1  176   0.790   2.708   1.907 -2.5953 -0.7903 -0.5235
   59SOL    HW2  177   0.901   2.666   2.019  0.4229  0.2692 -1.8682
   60SOL     OW  178   2.095   2.739   0.222 -0.0260  0.4404 -0.2813
   60SOL    HW1  179   2.039   2.737   0.305 -2.3558  0.5401 -1.1797
   60SOL    HW2  180   2.133   2.647   0.199 -0.3813  0.1520 -2.2159
   61SOL     OW  181   1.384   2.462   0.370  0.0130  0.6628  0.1492
   61SOL    HW1  182   1.329   2.546   0.381  0.5622  1.0708 -4.0438
   61SOL    HW2  183   1.341   2.380   0.410  1.1132  0.8323 -2.7441
   62SOL     OW  184   2.163   2.688   2.979 -0.3746 -0.3655  0.1245
   62SOL    HW1  185   2.183   2.594   3.005  0.9305  2.2635 -1.9995
   62SOL    HW2  186   2.081   2.727   3.030 -0.5457  2.3396  1.5066
   63SOL     OW  187   2.517   0.958   0.525 -0.1665 -0.6136 -0.2807
   63SOL    HW1  188   2.459   1.017   0.465 -0.1150 -0.0421 -0.6377
   63SOL    HW2  189   2.555   0.872   0.484 -2.4885 -0.9745  1.7151
   64SOL     OW  190   1.725   1.014   0.033  0.5768 -0.0237  0.3211
   64SOL    HW1  191   1.750   1.107   0.065  0.0764  1.6040 -1.0307
   64SOL    HW2  192   1.623   1.012   0.039  0.9064 -0.2262  0.1572
   65SOL     OW  193   0.338   2.364   1.674  0.0629 -0.3814  0.4501
   65SOL    HW1  194   0.290   2.411   1.594  0.1710 -0.8854  0.0622
   65SOL    HW2  195   0.328   2.424   1.756 -0.3150 -4.5995 -3.4474
   66SOL     OW  196   0.964   1.152   1.282 -0.3774 -0.1631  0.2119
   66SOL    HW1  197   0.933   1.056   1.289 -0.6778 -0.4919 -1.2330
   66SOL    HW2  198   0.923   1.209   1.208  0.3997  1.3527 -3.6308
   67SOL     OW  199   2.291   1.897   1.899 -0.4851 -0.6378 -0.2851
   67SOL    HW1  200   2.387   1.899   1.860  0.2349  0.5479  1.3340
   67SOL    HW2  201   2.291   1.839   1.984 -2.1459 -1.3169  0.4332
   68SOL     OW  202   1.104   1.577   1.785  0.1099 -0.3815  0.0407
   68SOL    HW1  203   1.086   1.513   1.703  1.5852 -1.9060 -0.2796
   68SOL    HW2  204   1.023   1.576   1.846  3.0761 -2.6011 -0.8327
   69SOL     OW  205   2.716   0.420   0.106  0.3932  0.1508  0.2895
   69SOL    HW1  206   2.660   0.428   0.192 -2.5298 -0.6981  1.0166
   69SOL    HW2  207   2.727   0.324   0.079  0.6921 -1.7257 -0.7953
   70SOL     OW  208   2.162   1.230   2.240  0.6571 -0.5109  0.0908
   70SOL    HW1  209   2.243   1.173   2.218  0.6484  1.6264 -0.9136
   70SOL    HW2  210   2.109   1.190   2.322 -1.7621 -0.7035  0.1180
   71SOL     OW  211   0.899   2.080   0.667  0.7580  0.0702  0.0733
   71SOL    HW1  212   0.883   2.117   0.574  3.9035  0.5641 -2.2331
   71SOL    HW2  213   0.991   2.102   0.696 -0.5877 -0.6480  0.1038
   72SOL     OW  214   2.244   1.757   0.572 -0.1182 -0.0120 -0.0672
   72SOL    HW1  215   2.275   1.853   0.573  0.5532 -3.7350 -2.2193
   72SOL    HW2  216   2.243   1.711   0.664  0.4514 -0.5491  0.3892
   73SOL     OW  217   1.078   0.967   0.666  0.1209  0.1832 -0.5728
   73SOL    HW1  218   1.091   1.061   0.708  1.2365 -1.1528  0.4184
   73SOL    HW2  219   0.981   0.931   0.688  1.8246 -1.2992 -1.2208
   74SOL     OW  220   2.628   2.084   2.150 -0.5156  0.2457  0.0889
   74SOL    HW1  221   2.675   1.999   2.171 -0.5592  3.2257 -1.9263
   74SOL    HW2  222   2.636   2.110   2.055 -1.9761 -0.8010  1.2910
   75SOL     OW  223   1.604   1.680   1.978 -0.1995  0.2114  0.3768
   75SOL    HW1  224   1.514   1.635   1.955 -1.7112  0.7339 -0.9642
   75SOL    HW2  225   1.655   1.628   2.048 -0.7509  0.9406 -4.9966
   76SOL     OW  226   1.126   1.578   1.101 -0.3908 -1.0250  0.0822
   76SOL    HW1  227   1.034   1.564   1.063  0.3404  1.2455  0.8964
   76SOL    HW2  228   1.177   1.649   1.044  1.6724  2.3020 -2.5152
   77SOL     OW  229   2.438   0.918   1.709 -0.2390 -0.0505 -0.4373
   77SOL    HW1  230   2.338   0.930   1.709  1.5722  1.3674 -0.4015
   77SOL    HW2  231   2.465   0.822   1.704  1.4233 -1.5868 -1.4916
   78SOL     OW  232   1.687   0.671   0.374  0.6018 -0.0844 -0.6574
   78SOL    HW1  233   1.707   0.717   0.280 -0.6191 -0.4952  0.5277
   78SOL    HW2  234   1.595   0.693   0.410  0.8611 -0.6180 -0.8504
   79SOL     OW  235   0.918   1.552   1.993 -0.3515  0.0572 -0.2906
   79SOL    HW1  236   0.999   1.593   2.038  1.1687  2.7954  2.0046
   79SOL    HW2  237   0.829   1.598   2.023 -4.1400  1.6451  0.4584
   80SOL     OW  238   1.057   0.258   1.419 -0.0542  0.1124 -0.2044
   80SOL    HW1  239   1.051   0.361   1.407  0.9752  1.9350 -0.7376
   80SOL    HW2  240   1.147   0.231   1.458 -1.9809  1.0556 -3.0038
   81SOL     OW  241   0.261   2.340   0.384 -0.7507  0.0965  0.3684
   81SOL    HW1  242   0.335   2.364   0.313  5.2375  4.4641  0.0994
   81SOL    HW2  243   0.303   2.277   0.457  2.1766  0.4406  1.6876
   82SOL     OW  244   1.099   0.144   1.712  0.2911  0.1531  0.9157
   82SOL    HW1  245   1.145   0.151   1.807  0.9095  1.5697  1.0196
   82SOL    HW2  246   1.170   0.189   1.649  0.6371  2.3564  1.3015
   83SOL     OW  247   0.364   2.359   0.934  0.2146  0.4157  0.4416
   83SOL    HW1  248   0.388   2.425   0.860  3.8586 -3.0264  1.5919
   83SOL    HW2  249   0.330   2.274   0.890  1.5564  2.0004  0.8240
   84SOL     OW  250   2.600   1.267   0.913 -1.0449 -0.2067  0.1687
   84SOL    HW1  251   2.604   1.189   0.977 -1.6952  2.1333 -1.1971
   84SOL    HW2  252   2.694   1.295   0.875 -1.7010  0.0629 -2.3616
   85SOL     OW  253   2.215   1.996   1.186  0.1163  0.5206 -0.4078
   85SOL    HW1  254   2.160   1.932   1.242  0.6476 -0.5979  1.0303
   85SOL    HW2  255   2.300   1.955   1.143 -1.0294  2.9030  2.4473
   86SOL     OW  256   1.313   2.141   2.134 -0.0827 -0.0433 -0.0874
   86SOL    HW1  257   1.256   2.101   2.058 -0.5060  0.7435  0.2684
   86SOL    HW2  258   1.413   2.124   2.118 -3.5177 -2.0653 -0.4712
   87SOL     OW  259   2.318   1.252   0.897  0.0552  0.9632  0.3695
   87SOL    HW1  260   2.267   1.287   0.815 -3.8489  0.0034  2.4252
   87SOL    HW2  261   2.416   1.276   0.902 -0.7150 -2.2009 -0.3820
   88SOL     OW  262   0.514   2.966   1.039  0.0658  0.1389  0.1998
   88SOL    HW1  263   0.446   3.005   0.972 -2.0055 -0.3833 -1.1794
   88SOL    HW2  264   0.574   3.038   1.080 -1.2093  1.8758 -1.3297
   89SOL     OW  265   0.585   0.954   1.573  0.2174 -0.0012 -0.3339
   89SOL    HW1  266   0.661   0.900   1.611 -1.6704 -0.4781  0.0768
   89SOL    HW2  267   0.564   0.932   1.477 -1.6795 -0.4792  1.4017
   90SOL     OW  268   2.639   1.856   0.321 -0.6974 -0.2222  0.7224
   90SOL    HW1  269   2.604   1.935   0.375  2.1624 -0.2076 -0.9737
   90SOL    HW2  270   2.738   1.840   0.342  2.2428 -1.3262 -2.5512
   91SOL     OW  271   0.713   1.971   1.057 -0.3538 -0.0318  0.0754
   91SOL    HW1  272   0.663   2.057   1.069 -0.6481 -3.3168  0.4064
   91SOL    HW2  273   0.706   1.915   1.141  2.9629  1.3702  0.6967
   92SOL     OW  274   2.124   2.982   1.953  0.5728 -0.8923  0.1468
   92SOL    HW1  275   2.190   3.014   2.020  0.3067  0.5997  0.8142
   92SOL    HW2  276   2.066   2.905   1.989  0.5817  2.7847 -0.6879
   93SOL     OW  277   0.479   1.855   2.857 -0.2464  0.1408  0.0999
   93SOL    HW1  278   0.523   1.809   2.937  2.6608  2.3105 -1.0800
   93SOL    HW2  279   0.392   1.816   2.824  2.4694  1.2860 -2.0458
   94SOL     OW  280   2.350   3.056   2.078 -0.5649  0.0855 -0.0186
   94SOL    HW1  281   2.336   0.043   2.141 -1.2692  0.3542  0.0793
   94SOL    HW2  282   2.423   3.078   2.009  0.1513 -1.7208  0.9941
   95SOL     OW  283   1.967   0.104   1.862 -0.0133  0.3803  0.2375
   95SOL    HW1  284   2.048   0.047   1.891  0.5416  0.4431  1.2852
   95SOL    HW2  285   1.926   0.153   1.945  0.0993  0.8801  1.3584
   96SOL     OW  286   0.685   0.697   2.186 -0.0080 -0.3565  0.3686
   96SOL    HW1  287   0.639   0.707   2.280  0.4817  5.1278  2.8185
   96SOL    HW2  288   0.622   0.727   2.113  1.5379 -0.6455  2.3171
   97SOL     OW  289   2.010   2.908   1.450 -0.0512  0.1459 -0.2921
   97SOL    HW1  290   1.921   2.947   1.490  0.0795 -0.8603 -0.2329
   97SOL    HW2  291   1.992   2.817   1.407 -0.0815  0.9204 -1.9800
   98SOL     OW  292   1.769   2.236   1.625 -0.1053 -0.2866 -0.4800
   98SOL    HW1  293   1.769   2.330   1.671 -1.1730  3.3874 -3.0855
   98SOL    HW2  294   1.759   2.153   1.682  1.7186 -2.4165 -1.4098
   99SOL     OW  295   0.323   0.619   1.063 -0.0576 -0.1558 -0.3064
   99SOL    HW1  296   0.306   0.725   1.058  2.5445  4.1683  0.3490
   99SOL    HW2  297   0.407   0.604   1.006  0.5149 -0.0174 -1.4406
  100SOL     OW  298   2.907   2.019   1.980 -0.4167 -0.9808 -0.1988
  100SOL    HW1  299   2.881   1.941   2.036 -1.8296  3.1922  2.5528
  100SOL    HW2  300   2.970   2.083   2.030  0.9262  1.1382  1.3852
  101SOL     OW  301   1.278   0.414   0.012  0.2515 -0.3043 -0.1125
  101SOL    HW1  302   1.307   0.406   3.004  0.0714 -2.1248  0.8976
  101SOL    HW2  303   1.302   0.503   0.050 -2.2082  0.6222 -3.0816
  102SOL     OW  304   2.787   0.104   1.235 -0.2929 -0.1566 -0.2949
  102SOL    HW1  305   2.870   0.154   1.253 -0.9364 -0.5735 -1.6103
  102SOL    HW2  306   2.714   0.137   1.302  0.4966  2.3530 -0.2194
  103SOL     OW  307   0.129   2.867   2.564  0.0816  0.0140  0.1675
  103SOL    HW1  308   0.193   2.943   2.538 -0.9324 -0.8351  1.4117
  103SOL    HW2  309   0.034   2.892   2.538  0.8559  0.4333  1.6086
  104SOL     OW  310   0.311   2.326   1.197  0.3372 -0.0329 -1.0144
  104SOL    HW1  311   0.376   2.377   1.255 -0.4097  0.0162  0.0508
  104SOL    HW2  312   0.304   2.379   1.113  0.4806  0.8369  1.1785
  105SOL     OW  313   0.466   1.885   2.034  0.0630 -0.1603  0.1064
  105SOL    HW1  314   0.363   1.863   2.021 -0.8218  2.0218  2.9932
  105SOL    HW2  315   0.485   1.938   2.122  0.4225  0.9465 -1.9730
  106SOL     OW  316   2.647   2.760   0.468  0.4331  0.8906  0.2669
  106SOL    HW1  317   2.658   2.712   0.555 -0.8280 -0.5631  2.3521
  106SOL    HW2  318   2.676   2.856   0.482  0.2969  0.8598  1.0032
  107SOL     OW  319   0.657   1.088   1.002  0.0428 -0.3831 -0.4114
  107SOL    HW1  320   0.662   1.172   1.060  1.3918  1.1348  0.5173
  107SOL    HW2  321   0.743   1.033   1.010 -1.6769  1.0609  0.1826
  108SOL     OW  322   2.923   1.142   2.001  0.3647  0.2447  0.2407
  108SOL    HW1  323   2.897   1.233   1.961 -1.4747  0.5793 -2.1930
  108SOL    HW2  324   3.021   1.115   1.985 -0.4014 -2.6530 -1.1735
  109SOL     OW  325   1.920   2.809   3.068 -0.3270 -0.3582 -0.3477
  109SOL    HW1  326   1.903   2.873   0.056  1.4029 -2.0448 -1.0355
  109SOL    HW2  327   1.857   2.726   3.070  1.5703 -1.0850 -2.6964
  110SOL     OW  328   0.262   2.144   3.045  0.1599 -0.2752 -0.3574
  110SOL    HW1  329   0.185   2.130   2.973 -2.3579 -1.3606  0.3079
  110SOL    HW2  330   0.221   2.139   0.051  2.0553  1.5587  1.2228
  111SOL     OW  331   2.785   0.891   2.765  0.4638  0.6707 -0.5539
  111SOL    HW1  332   2.702   0.866   2.813  3.4649  0.9207 -0.6130
  111SOL    HW2  333   2.760   0.928   2.676 -1.1789 -0.8253  2.0298
  112SOL     OW  334   2.289   2.720   1.799 -0.4100 -0.0640  0.0891
  112SOL    HW1  335   2.288   2.816   1.770  1.3062 -2.5167 -0.3536
  112SOL    HW2  336   2.191   2.684   1.784 -4.0625 -0.3866  0.0145
  113SOL     OW  337   2.322   1.922   2.762 -0.4395 -0.0799 -0.2653
  113SOL    HW1  338   2.298   1.829   2.729  0.0696 -1.2724 -1.5773
  113SOL    HW2  339   2.347   1.974   2.677 -1.0706  2.0590 -0.1845
  114SOL     OW  340   0.702   0.040   0.554  0.4135  0.2368  0.1869
  114SOL    HW1  341   0.705   3.043   0.605  2.0899  0.2557  0.3970
  114SOL    HW2  342   0.763   0.109   0.595  0.4312 -1.5519  0.2777
  115SOL     OW  343   3.068   1.691   2.846 -0.4294 -0.6640  0.1220
  115SOL    HW1  344   2.979   1.712   2.806  0.8404 -0.0956  0.5267
  115SOL    HW2  345   0.006   1.759   2.918  1.0010 -0.6744  0.2913
  116SOL     OW  346   3.024   1.344   1.683 -0.1696  0.2169 -0.0205
  116SOL    HW1  347   3.075   1.258   1.669 -2.2252  2.8902 -0.1273
  116SOL    HW2  348   0.004   1.410   1.718  0.6950 -0.3977  1.1176
  117SOL     OW  349   1.962   0.168   1.524 -0.0819  0.4554  0.2914
  117SOL    HW1  350   1.921   0.097   1.579 -1.9611  0.7690 -2.9366
  117SOL    HW2  351   1.898   0.183   1.445 -2.7575  0.3126  0.1844
  118SOL     OW  352   2.792   2.249   2.279 -0.0747  0.7482  0.2667
  118SOL    HW1  353   2.708   2.203   2.240 -2.0869  2.3712 -0.2750
  118SOL    HW2  354   2.762   2.337   2.324  1.5155  1.3678 -0.3235
  119SOL     OW  355   0.324   1.630   1.794 -0.5145  0.0936  0.1340
  119SOL    HW1  356   0.353   1.695   1.720  1.4300  1.1936 -0.6136
  119SOL    HW2  357   0.397   1.577   1.836 -2.8512 -1.1504 -1.2902
  120SOL     OW  358   0.260   1.331   1.792  0.1957  1.0955  0.1684
  120SOL    HW1  359   0.329   1.305   1.723  2.2988  1.4157  0.0912
  120SOL    HW2  360   0.220   1.427   1.778  0.1602  2.5542  0.7247
  121SOL     OW  361   1.497   1.005   0.644 -0.4478  0.1755 -0.4272
  121SOL    HW1  362   1.445   0.942   0.711 -0.5825 -1.2502  1.2453
  121SOL    HW2  363   1.596   0.971   0.628  2.5722 -0.3940  1.7674
  122SOL     OW  364   2.493   2.367   2.703 -0.4663 -0.1278  0.8378
  122SOL    HW1  365   2.429   2.411   2.631  0.6818  0.8196 -0.6506
  122SOL    HW2  366   2.430   2.308   2.755 -1.8455  0.7442 -1.6530
  123SOL     OW  367   0.043   0.383   0.557 -0.1955  0.0846 -0.1159
  123SOL    HW1  368   3.082   0.469   0.577  0.8965 -0.5507 -0.7137
  123SOL    HW2  369   3.080   0.310   0.501 -1.1322 -0.3715 -3.1016
  124SOL     OW  370   1.821   1.268   0.119  0.0555 -0.2162 -0.3129
  124SOL    HW1  371   1.837   1.361   0.081  1.3551  1.1256 -1.3735
  124SOL    HW2  372   1.905   1.220   0.148 -1.1561 -0.0715 -0.4264
  125SOL     OW  373   3.053   0.838   2.249 -0.5764 -0.0934 -0.0827
  125SOL    HW1  374   0.022   0.902   2.304  2.0392  0.9413  1.6386
  125SOL    HW2  375   0.023   0.783   2.183  0.2769 -0.8692 -2.0016
  126SOL     OW  376   2.750   2.844   0.128  0.3688  0.1908 -0.3907
  126SOL    HW1  377   2.743   2.835   0.027 -0.8875 -2.5491  2.1449
  126SOL    HW2  378   2.769   2.755   0.170 -2.7165  1.6170  0.4155
  127SOL     OW  379   2.560   1.847   0.063  0.2422  0.2206 -0.0672
  127SOL    HW1  380   2.579   1.830   0.162  1.3009  0.5267 -1.3777
  127SOL    HW2  381   2.506   1.930   0.052  1.1623 -0.8108  0.1456
  128SOL     OW  382   0.821   0.932   0.739 -0.9019  0.0954 -0.3188
  128SOL    HW1  383   0.752   0.982   0.689 -1.9273  0.2509  1.6813
  128SOL    HW2  384   0.818   0.966   0.833 -1.1540 -0.4414 -2.1752
  129SOL     OW  385   2.122   2.089   0.923 -0.4751  0.1742 -0.2294
  129SOL    HW1  386   2.158   2.066   1.013  0.3103 -1.2635 -0.2040
  129SOL    HW2  387   2.069   2.174   0.923  2.7465  0.6486  1.4625
  130SOL     OW  388   2.017   0.718   0.263 -0.0264 -0.1628 -0.6053
  130SOL    HW1  389   2.024   0.758   0.170  3.6904  1.0995 -1.3799
  130SOL    HW2  390   1.964   0.629   0.267  0.7927 -1.1534  1.1870
  131SOL     OW  391   0.028   1.602   2.551  0.2659  0.0446 -0.6760
  131SOL    HW1  392   3.028   1.649   2.533 -2.0090  0.9654  1.6820
  131SOL    HW2  393   0.045   1.616   2.650 -0.9777  2.6490 -5.6255
  132SOL     OW  394   1.269   1.155   1.792  0.5982 -0.3086  0.5970
  132SOL    HW1  395   1.293   1.069   1.740  0.7398 -3.4481 -0.4502
  132SOL    HW2  396   1.169   1.170   1.785  3.7143 -0.9006 -0.6126
  133SOL     OW  397   0.415   1.128   0.897 -0.4996  0.3562 -0.3253
  133SOL    HW1  398   0.500   1.095   0.946  0.0135  1.3476  1.7684
  133SOL    HW2  399   0.368   1.198   0.952  1.0302 -3.3216 -3.2567
  134SOL     OW  400   3.068   1.429   0.127 -0.0474  0.3024  0.7506
  134SOL    HW1  401   0.056   1.379   0.168 -3.4165  1.5125  1.6297
  134SOL    HW2  402   3.080   1.460   0.032  0.1132  0.6530  0.5344
  135SOL     OW  403   1.753   0.763   0.134 -0.3621 -0.1986 -0.2283
  135SOL    HW1  404   1.748   0.863   0.114 -2.2396  1.4247  1.5204
  135SOL    HW2  405   1.698   0.705   0.070 -0.5168  1.0966  0.3702
  136SOL     OW  406   2.002   1.980   1.474 -0.2571  0.3935 -0.5764
  136SOL    HW1  407   2.031   1.920   1.556  0.3968 -3.0301  2.6853
  136SOL    HW2  408   2.067   2.059   1.466  1.6479  0.5493  0.0937
  137SOL     OW  409   2.315   2.487   0.594 -0.0174  0.0351 -0.1743
  137SOL    HW1  410   2.291   2.551   0.670  0.5535  1.2373  1.2846
  137SOL    HW2  411   2.335   2.542   0.511 -0.7324  0.1379  2.7557
  138SOL     OW  412   2.331   0.370   1.799  0.1771  0.7839  0.2854
  138SOL    HW1  413   2.286   0.326   1.878 -0.5274  1.2934  1.2574
  138SOL    HW2  414   2.303   0.323   1.711  1.3015 -0.0344 -1.3476
  139SOL     OW  415   2.907   2.613   2.754 -0.0587 -0.3490 -0.1316
  139SOL    HW1  416   2.872   2.519   2.775 -0.1045  2.6951  1.0036
  139SOL    HW2  417   2.849   2.666   2.683  0.2232 -1.0107  0.9587
  140SOL     OW  418   1.607   1.876   2.697 -0.2032 -0.0002  0.2212
  140SOL    HW1  419   1.588   1.969   2.666 -2.5350 -1.7761 -1.5396
  140SOL    HW2  420   1.606   1.807   2.617  0.5086  0.8533  2.3227
  141SOL     OW  421   1.268   1.343   2.456 -0.0865 -0.3185  0.0878
  141SOL    HW1  422   1.208   1.305   2.529  1.3296  0.3492 -0.0608
  141SOL    HW2  423   1.364   1.357   2.488  1.0091  0.7402 -1.0062
  142SOL     OW  424   2.017   2.493   2.065  0.0552  0.1523 -0.4936
  142SOL    HW1  425   2.016   2.409   2.006  0.9715  0.2649  0.4908
  142SOL    HW2  426   2.109   2.544   2.065  0.7061 -1.5932  2.5274
  143SOL     OW  427   0.963   2.422   0.517 -0.2219 -0.0848  0.1628
  143SOL    HW1  428   1.020   2.420   0.604 -1.6524 -0.0913 -0.3103
  143SOL    HW2  429   0.962   2.335   0.466 -0.5904  1.5187 -1.5483
  144SOL     OW  430   0.758   2.604   0.553  0.2548  0.5283 -0.3715
  144SOL    HW1  431   0.792   2.689   0.509  0.1816  0.9827  0.8040
  144SOL    HW2  432   0.817   2.523   0.536  0.1158  1.1817  1.2292
  145SOL     OW  433   1.702   2.342   3.045  0.4714  0.0003 -0.3100
  145SOL    HW1  434   1.703   2.439   3.019 -0.2167  0.9107 -1.6026
  145SOL    HW2  435   1.665   2.328   0.052  2.3712  0.7285  0.6683
  146SOL     OW  436   1.862   2.445   0.221  0.3117 -0.0000  0.3264
  146SOL    HW1  437   1.806   2.511   0.165 -0.7384  4.3318  0.4067
  146SOL    HW2  438   1.960   2.440   0.190  2.6329  1.5326 -0.4541
  147SOL     OW  439   0.204   1.834   2.029 -0.6669 -0.2640  0.5888
  147SOL    HW1  440   0.214   1.731   2.022  0.6629  0.4774  1.0437
  147SOL    HW2  441   0.186   1.877   1.936 -0.0345  0.3688 -1.3729
  148SOL     OW  442   1.245   3.017   0.159 -0.3582 -0.6232 -0.3248
  148SOL    HW1  443   1.277   0.025   0.153  1.4457 -1.8275  1.7407
  148SOL    HW2  444   1.159   2.999   0.110  0.3698  1.4583 -0.0169
  149SOL     OW  445   0.524   2.088   0.099 -0.5926  0.5754 -0.3665
  149SOL    HW1  446   0.615   2.074   0.058  0.2279 -2.6735  0.7171
  149SOL    HW2  447   0.449   2.084   0.030 -2.7735  0.5102 -0.2582
  150SOL     OW  448   0.439   2.579   1.306  0.2897 -0.1917 -0.2226
  150SOL    HW1  449   0.517   2.607   1.365  1.7346 -0.3300  0.2041
  150SOL    HW2  450   0.429   2.645   1.228  0.6066 -0.3714 -0.1066
  151SOL     OW  451   0.359   1.530   2.944  0.0102  0.5344 -0.1279
  151SOL    HW1  452   0.421   1.530   2.866 -4.0309  0.6639 -0.9292
  151SOL    HW2  453   0.398   1.482   3.024 -0.7521 -1.2781 -1.1062
  152SOL     OW  454   2.908   2.072   0.881  0.3569  0.0587  0.4170
  152SOL    HW1  455   2.851   1.994   0.907 -1.5513  1.2898 -0.0238
  152SOL    HW2  456   2.850   2.158   0.887 -2.0502 -0.7917 -0.9995
  153SOL     OW  457   1.587   2.326   0.629  0.0319 -0.0278 -0.0019
  153SOL    HW1  458   1.673   2.319   0.573  3.3628 -0.7410  0.1172
  153SOL    HW2  459   1.534   2.238   0.644  1.8071 -0.8947  1.6216
  154SOL     OW  460   0.778   2.963   1.442 -0.0963  0.1883  0.4370
  154SOL    HW1  461   0.796   2.861   1.449  2.4599 -0.7248  0.0913
  154SOL    HW2  462   0.680   2.982   1.469 -2.4318 -1.9722  0.6884
  155SOL     OW  463   2.526   2.104   0.418 -0.1908  0.2231 -0.1492
  155SOL    HW1  464   2.601   2.163   0.453 -0.9272  2.7051 -0.3238
  155SOL    HW2  465   2.473   2.167   0.360  2.9894  3.5884  0.5154
  156SOL     OW  466   2.303   2.080   0.065 -0.2083 -0.2137 -0.3006
  156SOL    HW1  467   2.373   2.073   3.079  0.5832 -1.8381  1.7100
  156SOL    HW2  468   2.313   2.158   0.130  0.2742 -1.0472 -2.8794
  157SOL     OW  469   0.485   0.019   1.928  0.2172 -0.1690  0.3887
  157SOL    HW1  470   0.511   0.069   2.010 -3.9822 -1.7972 -3.1701
  157SOL    HW2  471   0.407   3.048   1.955  0.3900 -2.5440  0.3938
  158SOL     OW  472   1.094   0.535   1.177  0.5917  0.5372 -0.2092
  158SOL    HW1  473   1.150   0.459   1.140 -0.7424 -1.3464 -1.4228
  158SOL    HW2  474   1.082   0.529   1.284 -0.1534  1.5859  3.4562
  159SOL     OW  475   1.859   1.052   2.857  0.5930  0.1342  0.3154
  159SOL    HW1  476   1.837   1.097   2.769  0.3064  1.1970  0.1551
  159SOL    HW2  477   1.778   1.011   2.907  0.1312 -1.8106  2.1080
  160SOL     OW  478   1.142   1.982   0.503 -0.2189  0.1142 -0.1701
  160SOL    HW1  479   1.211   1.944   0.573  0.0147 -3.3153  0.3592
  160SOL    HW2  480   1.092   1.906   0.457  0.0088 -1.4156  1.5365
  161SOL     OW  481   2.651   1.965   2.609 -0.0689 -0.1052  0.1086
  161SOL    HW1  482   2.655   2.053   2.560  0.6582 -1.3772 -1.2593
  161SOL    HW2  483   2.576   1.901   2.575 -1.6575 -2.7678  1.2929
  162SOL     OW  484   3.087   2.299   1.096 -0.5881  0.3757 -0.0493
  162SOL    HW1  485   3.075   2.381   1.152 -1.7280 -2.4567 -0.7021
  162SOL    HW2  486   0.080   2.244   1.121 -0.5085  1.5522 -2.0078
  163SOL     OW  487   0.585   0.819   2.679  0.2370  0.6355 -0.1540
  163SOL    HW1  488   0.659   0.889   2.676  1.4038  0.4913 -1.8136
  163SOL    HW2  489   0.590   0.777   2.774  1.6087  1.2323  3.6587
  164SOL     OW  490   0.387   2.525   2.823  0.0872 -0.4861 -0.2647
  164SOL    HW1  491   0.334   2.500   2.907  0.1292  1.1567 -0.9492
  164SOL    HW2  492   0.342   2.610   2.784  0.4823  0.9121  2.1531
  165SOL     OW  493   2.416   1.055   1.474  0.3988 -0.2542 -0.0646
  165SOL    HW1  494   2.422   1.006   1.567 -0.2305  1.5567  0.0101
  165SOL    HW2  495   2.479   1.135   1.482  1.1314 -0.6575 -0.2404
  166SOL     OW  496   2.035   1.783   1.290  0.2422  0.6569  0.0818
  166SOL    HW1  497   1.994   1.852   1.350 -0.5847 -0.4679 -0.5326
  166SOL    HW2  498   2.021   1.694   1.335 -1.5439  0.6631 -0.4741
  167SOL     OW  499   0.129   0.713   3.046  0.1885  0.2668 -0.3173
  167SOL    HW1  500   0.081   0.784   0.009  0.7626 -1.3535 -3.3832
  167SOL    HW2  501   0.228   0.737   3.034 -2.5249  2.0323 -1.2977
  168SOL     OW  502   2.032   0.435   2.696  0.2197 -0.3982 -0.1288
  168SOL    HW1  503   2.017   0.487   2.607 -1.1995  0.8328 -3.2234
  168SOL    HW2  504   1.943   0.406   2.733  0.4249  1.4315 -0.2161
  169SOL     OW  505   0.537   1.241   3.009  0.0696 -0.4884 -0.2111
  169SOL    HW1  506   0.509   1.312   3.074  2.6786 -3.4170  0.5871
  169SOL    HW2  507   0.464   1.209   2.940  1.4381 -1.7599  1.7478
  170SOL     OW  508   1.247   0.951   1.625 -0.5921  0.4102  0.2540
  170SOL    HW1  509   1.173   0.887   1.608  2.8834  1.5872 -0.5400
  170SOL    HW2  510   1.283   0.998   1.544  0.1207  0.1669 -1.7117
  171SOL     OW  511   1.720   2.616   1.041 -0.8180  0.2173  0.4575
  171SOL    HW1  512   1.713   2.574   1.135 -0.1406 -0.8767  1.2966
  171SOL    HW2  513   1.691   2.554   0.966  0.5221  1.9488  0.9617
  172SOL     OW  514   1.014   3.009   1.966  0.1192 -0.7285 -0.1994
  172SOL    HW1  515   0.946   2.996   1.897  3.3865 -1.8040 -0.5696
  172SOL    HW2  516   1.098   2.958   1.932 -3.2974  1.3033  1.7835
  173SOL     OW  517   0.838   2.466   0.950 -0.8379 -0.4364  0.0263
  173SOL    HW1  518   0.856   2.546   0.886 -0.4563  2.1859  3.1865
  173SOL    HW2  519   0.818   2.504   1.043  1.1530  0.1999  0.9025
  174SOL     OW  520   2.251   0.132   0.075  0.4933 -0.6692  0.4713
  174SOL    HW1  521   2.272   0.113   3.065 -3.9577 -1.6092  0.0616
  174SOL    HW2  522   2.166   0.084   0.112 -0.1722  0.2051  1.2554
  175SOL     OW  523   0.971   1.412   0.823 -0.0833 -0.7941  0.1138
  175SOL    HW1  524   1.004   1.505   0.800  0.9360 -1.3068  0.1279
  175SOL    HW2  525   0.884   1.387   0.767  1.0390  1.1842 -0.9389
  176SOL     OW  526   0.937   1.846   0.989  0.7526  0.1255 -0.2269
  176SOL    HW1  527   1.006   1.921   0.985  2.0470  2.2077 -1.5095
  176SOL    HW2  528   0.849   1.888   1.017  1.3195 -1.1987 -0.9816
  177SOL     OW  529   1.376   0.892   1.038 -0.1715  0.3027 -0.0352
  177SOL    HW1  530   1.426   0.797   1.035 -0.3713 -2.1946 -1.8307
  177SOL    HW2  531   1.412   0.946   1.115 -0.9675 -1.0537 -2.6530
  178SOL     OW  532   2.285   1.448   0.634  0.3870  0.2726  0.9422
  178SOL    HW1  533   2.275   1.497   0.721  0.6604 -0.6159 -0.2648
  178SOL    HW2  534   2.198   1.468   0.583  2.2054  1.5752 -0.2055
  179SOL     OW  535   0.989   2.898   0.007  0.2475  0.1782 -0.4835
  179SOL    HW1  536   0.910   2.950   0.046  1.6165  0.8524  1.0005
  179SOL    HW2  537   0.966   2.799   3.088 -2.1871  1.3087 -0.2313
  180SOL     OW  538   1.772   1.149   1.482  0.0211 -0.0791 -0.3164
  180SOL    HW1  539   1.690   1.209   1.494 -0.6670  0.9811  0.2865
  180SOL    HW2  540   1.857   1.192   1.521  3.5165 -0.3281  0.9231
  181SOL     OW  541   0.851   0.855   1.624 -0.2073  0.2589  0.5839
  181SOL    HW1  542   0.877   0.757   1.602  3.7906  0.5561  0.2363
  181SOL    HW2  543   0.871   0.879   1.721 -1.8508 -2.5153  0.7470
  182SOL     OW  544   2.907   1.043   0.013  0.0956  0.0821  0.6515
  182SOL    HW1  545   2.913   1.044   2.996 -2.6451 -2.6915 -2.8946
  182SOL    HW2  546   2.867   1.133   0.047 -1.4101 -0.0339  0.5129
  183SOL     OW  547   1.872   0.212   2.101 -0.0944  0.0386  0.1386
  183SOL    HW1  548   1.926   0.126   2.120  0.4899 -1.4609 -0.9765
  183SOL    HW2  549   1.776   0.193   2.072  0.8766  4.6691  3.4429
  184SOL     OW  550   1.070   0.762   1.008  0.0332 -0.0470  0.1145
  184SOL    HW1  551   1.034   0.727   0.921 -1.1763  0.6731  2.8069
  184SOL    HW2  552   1.079   0.688   1.074  0.6337 -0.5316 -2.0820
  185SOL     OW  553   2.115   1.022   0.510 -0.2204  0.1903  0.1577
  185SOL    HW1  554   2.098   1.045   0.606  2.0420  1.8710 -1.5212
  185SOL    HW2  555   2.144   1.103   0.456  1.7839 -0.8254  1.3212
  186SOL     OW  556   0.272   1.991   0.422  0.0789 -0.0032 -0.2910
  186SOL    HW1  557   0.361   2.011   0.462 -2.5722  0.6144 -0.8298
  186SOL    HW2  558   0.275   2.018   0.322  1.7570  1.2356 -2.7586
  187SOL     OW  559   1.937   1.718   2.637 -0.4274  0.0529 -0.0744
  187SOL    HW1  560   1.887   1.805   2.661 -1.7417 -4.3875 -2.8488
  187SOL    HW2  561   1.977   1.726   2.543  0.6317 -1.0613 -1.6866
  188SOL     OW  562   1.316   2.664   1.536  0.2921 -0.3674 -0.0738
  188SOL    HW1  563   1.288   2.763   1.527  0.3520  0.7847  1.9114
  188SOL    HW2  564   1.269   2.602   1.466  1.1064 -0.7509  1.6691
  189SOL     OW  565   2.838   1.428   2.500  0.0879 -0.5672  0.2117
  189SOL    HW1  566   2.852   1.530   2.513  0.6395  2.9158  0.1504
  189SOL    HW2  567   2.895   1.379   2.568 -1.1047 -0.4922  2.3397
  190SOL     OW  568   0.949   2.706   2.163  0.1899  0.3721  0.1111
  190SOL    HW1  569   0.979   2.610   2.196  1.5826 -0.0508  1.6563
  190SOL    HW2  570   1.031   2.757   2.140 -3.2979  0.0733  2.1323
  191SOL     OW  571   2.386   0.966   1.211  0.2712 -0.1254  0.1802
  191SOL    HW1  572   2.288   0.943   1.176 -2.1026  1.6436 -0.5795
  191SOL    HW2  573   2.385   0.978   1.313  1.5050 -1.4217 -0.7171
  192SOL     OW  574   2.080   0.391   1.077 -0.0804  0.2721 -0.2988
  192SOL    HW1  575   2.127   0.300   1.082 -0.7851  1.0641 -1.6144
  192SOL    HW2  576   1.992   0.375   1.027 -0.4820  1.1956 -1.2130
  193SOL     OW  577   0.993   0.128   0.378 -0.1687 -0.2824 -0.4516
  193SOL    HW1  578   1.027   0.201   0.309  1.2876  0.0207 -1.4712
  193SOL    HW2  579   0.974   0.181   0.465 -0.8226 -0.9084  0.3669
  194SOL     OW  580   1.755   2.283   1.012  0.2055 -0.1781 -0.2936
  194SOL    HW1  581   1.701   2.338   0.945 -3.4570  1.4907 -2.0659
  194SOL    HW2  582   1.697   2.212   1.048  0.4736  1.3102 -1.3416
  195SOL     OW  583   2.351   0.857   0.727 -0.0758 -0.6431  0.2130
  195SOL    HW1  584   2.410   0.887   0.650 -0.8305  1.7270 -0.0331
  195SOL    HW2  585   2.272   0.926   0.740  0.2454  2.7458  0.9466
  196SOL     OW  586   0.783   2.457   1.785  0.4634  0.6248  0.3362
  196SOL    HW1  587   0.836   2.517   1.852  0.5674  1.1199  0.8922
  196SOL    HW2  588   0.754   2.369   1.828 -1.5592  0.0325 -0.5064
  197SOL     OW  589   2.696   0.287   2.405  0.0264 -0.2175 -0.3627
  197SOL    HW1  590   2.616   0.352   2.410  1.4071  1.2069 -0.0638
  197SOL    HW2  591   2.658   0.196   2.382  0.4280  1.5859  1.9243
  198SOL     OW  592   2.042   1.600   0.269 -0.0147  0.4342  0.3004
  198SOL    HW1  593   2.134   1.587   0.234 -3.3988  1.0295  1.3536
  198SOL    HW2  594   1.971   1.559   0.206  0.6695 -2.5601  0.7498
  199SOL     OW  595   2.428   0.621   1.788 -0.0175 -0.6491 -0.1299
  199SOL    HW1  596   2.439   0.653   1.892 -0.2228  1.1801  6.1670
  199SOL    HW2  597   2.394   0.527   1.775  0.1637 -0.7359 -3.1321
  200SOL     OW  598   1.783   2.997   2.842 -0.4623 -0.1423  0.0283
  200SOL    HW1  599   1.770   0.000   2.886  1.2679 -1.7539 -1.3144
  200SOL    HW2  600   1.768   2.921   2.908 -0.1104 -0.1205 -1.2493
  201SOL     OW  601   2.609   0.210   1.405 -0.1847 -0.8177 -0.6461
  201SOL    HW1  602   2.515   0.185   1.416  0.3464  1.6712 -0.8342
  201SOL    HW2  603   2.605   0.311   1.374  1.7825 -0.2132 -1.1280
  202SOL     OW  604   2.726   3.015   0.546 -0.6610  0.1720 -0.2827
  202SOL    HW1  605   2.671   3.066   0.616  1.5638  0.0151  1.3607
  202SOL    HW2  606   2.824   3.010   0.569  0.1330  0.6459 -2.4158
  203SOL     OW  607   1.508   1.716   0.522 -0.1632  0.0424  0.0474
  203SOL    HW1  608   1.522   1.614   0.528  0.1581  0.2106  0.2322
  203SOL    HW2  609   1.593   1.774   0.514  1.5724  0.5733  0.3647
  204SOL     OW  610   0.125   1.952   2.267  0.0804 -0.4237  0.1534
  204SOL    HW1  611   0.077   2.035   2.234  1.3523 -1.0755  0.4396
  204SOL    HW2  612   0.190   1.915   2.199  2.0373 -1.8302 -1.7673
  205SOL     OW  613   0.525   0.543   0.909  0.1568  0.7512 -0.0301
  205SOL    HW1  614   0.629   0.548   0.914  0.4637 -0.2410 -0.6598
  205SOL    HW2  615   0.497   0.535   0.813  0.6691 -1.2628 -0.8097
  206SOL     OW  616   0.301   0.982   2.655  0.0650  0.1156  0.1610
  206SOL    HW1  617   0.319   1.080   2.636 -1.4912  1.5505 -1.9953
  206SOL    HW2  618   0.392   0.936   2.665  0.6914 -2.1842 -0.0120
  207SOL     OW  619   1.166   2.312   1.780 -0.2541  0.4077 -0.3145
  207SOL    HW1  620   1.111   2.242   1.830 -0.6264 -0.0061  3.0120
  207SOL    HW2  621   1.107   2.357   1.707  1.2021 -0.8679 -1.7918
  208SOL     OW  622   2.168   0.122   1.072 -0.1731  0.2347 -0.6066
  208SOL    HW1  623   2.252   0.121   1.129  1.4247 -0.0899 -1.8164
  208SOL    HW2  624   2.192   0.128   0.975  1.0055 -1.5768 -0.1087
  209SOL     OW  625   1.890   1.032   0.819  0.0715  0.2788  0.3945
  209SOL    HW1  626   1.875   0.969   0.899  0.1477  0.8652 -1.6095
  209SOL    HW2  627   1.836   1.002   0.741 -2.5011  1.3676  1.8885
  210SOL     OW  628   2.172   1.048   0.779 -0.3326  0.3252 -0.0563
  210SOL    HW1  629   2.073   1.053   0.804  3.3248  3.4987 -0.3856
  210SOL    HW2  630   2.234   1.077   0.855 -1.6561  1.4367  1.7282
  211SOL     OW  631   0.863   2.991   2.838  0.1603  0.4196  0.0169
  211SOL    HW1  632   0.802   3.050   2.891  2.6750 -1.8309 -1.2604
  211SOL    HW2  633   0.954   2.973   2.887  0.3708  2.8146 -3.1309
  212SOL     OW  634   1.842   1.781   0.628 -0.3623 -0.0165 -0.3744
  212SOL    HW1  635   1.904   1.820   0.704 -1.0773 -2.5075  1.3489
  212SOL    HW2  636   1.872   1.796   0.532 -1.8557 -0.3133 -2.5999
  213SOL     OW  637   2.379   2.929   0.196 -0.0621  0.7622 -0.0677
  213SOL    HW1  638   2.468   2.952   0.236 -0.0273 -2.1073 -1.9929
  213SOL    HW2  639   2.365   2.980   0.111 -2.3533  1.1968 -0.7746
  214SOL     OW  640   1.287   2.347   2.306 -0.0470  0.5933  0.1712
  214SOL    HW1  641   1.366   2.408   2.277 -0.9466 -0.9758  0.4050
  214SOL    HW2  642   1.294   2.257   2.255 -0.3773  2.4465 -3.2709
  215SOL     OW  643   0.351   1.322   1.080 -0.0413  0.2985  0.1804
  215SOL    HW1  644   0.266   1.297   1.131  3.0281 -0.5108  0.9006
  215SOL    HW2  645   0.335   1.409   1.024 -0.9184  1.2239  3.1856
  216SOL     OW  646   0.265   3.062   2.461  0.6657 -0.5925 -0.7979
  216SOL    HW1  647   0.352   3.021   2.489  1.6981  1.2038 -0.0274
  216SOL    HW2  648   0.291   0.055   2.403 -0.2851 -2.3839  1.0201
  217SOL     OW  649   3.005   1.528   1.439  0.6202  0.1720 -0.0952
  217SOL    HW1  650   3.077   1.591   1.432 -1.6012 -2.7452  0.8931
  217SOL    HW2  651   3.014   1.480   1.534 -1.2786  0.2051  3.4851
  218SOL     OW  652   0.554   2.192   1.637 -0.1143  0.2628 -0.0634
  218SOL    HW1  653   0.475   2.255   1.643 -0.7674  1.2140 -0.4651
  218SOL    HW2  654   0.560   2.137   1.724  0.3665 -3.7926 -0.2363
  219SOL     OW  655   2.109   1.918   3.064  0.0490  0.3238  0.3212
  219SOL    HW1  656   2.183   1.988   3.077  4.8051  0.3191  2.2821
  219SOL    HW2  657   2.151   1.828   3.041 -0.0818  0.0226  0.3582
  220SOL     OW  658   1.712   0.116   2.989  0.0549 -0.5242 -0.1382
  220SOL    HW1  659   1.809   0.141   3.005 -0.9494 -0.1595  0.7304
  220SOL    HW2  660   1.661   0.103   3.077  2.0599  0.6897 -1.4564
  221SOL     OW  661   2.736   1.066   0.285  0.0249 -0.8993 -0.2010
  221SOL    HW1  662   2.737   0.973   0.243 -1.0049  0.8807  0.2801
  221SOL    HW2  663   2.767   1.142   0.228 -0.6559 -0.9791 -0.6982
  222SOL     OW  664   1.577   1.451   0.578 -0.2896  0.1386 -0.1875
  222SOL    HW1  665   1.520   1.373   0.616  0.9622 -1.4255  2.9033
  222SOL    HW2  666   1.631   1.496   0.655  0.4608 -0.6932  1.9790
  223SOL     OW  667   0.867   0.250   2.884  0.4704 -0.5743  0.5356
  223SOL    HW1  668   0.937   0.248   2.818 -1.3089  1.0619 -0.2648
  223SOL    HW2  669   0.839   0.349   2.905 -0.2887  3.3158 -1.0750
  224SOL     OW  670   0.955   2.780   1.108  0.0095 -0.5567  0.4220
  224SOL    HW1  671   0.931   2.876   1.136  2.2210 -2.9117 -1.7623
  224SOL    HW2  672   0.878   2.710   1.122 -1.8343 -1.7154  0.4991
  225SOL     OW  673   0.922   3.038   2.201  0.4580 -0.2635  0.5450
  225SOL    HW1  674   0.934   3.008   2.102  0.7416 -1.2839 -2.3824
  225SOL    HW2  675   1.007   3.045   2.252 -0.9210 -1.9209  0.7826
  226SOL     OW  676   1.210   1.694   0.677 -0.0791 -0.0830  0.1870
  226SOL    HW1  677   1.292   1.740   0.720  0.8707  0.9355  2.6399
  226SOL    HW2  678   1.241   1.629   0.603 -0.4715 -1.2826  0.5735
  227SOL     OW  679   0.121   2.137   1.387  0.1184 -0.2556  0.1303
  227SOL    HW1  680   0.174   2.180   1.312  0.5011  0.9229 -3.3479
  227SOL    HW2  681   0.169   2.052   1.417 -1.0797  2.5285  0.2378
  228SOL     OW  682   3.075   1.993   0.445  0.0447 -0.6230  0.4206
  228SOL    HW1  683   3.047   2.064   0.376  2.5570 -1.4500  2.3996
  228SOL    HW2  684   0.090   1.992   0.447  1.2779  0.5533 -0.4501
  229SOL     OW  685   2.518   0.285   2.934  0.2106 -0.6126  0.5202
  229SOL    HW1  686   2.548   0.341   2.852 -0.7347 -0.9802 -1.8429
  229SOL    HW2  687   2.568   0.197   2.945  1.1960 -1.9308 -0.3275
  230SOL     OW  688   2.501   0.734   0.351  0.2866  0.2395  0.1909
  230SOL    HW1  689   2.539   0.781   0.270 -1.5201 -0.3213  0.0445
  230SOL    HW2  690   2.401   0.763   0.359  2.2141 -0.0809 -1.9072
  231SOL     OW  691   1.756   1.696   0.156  0.2095  0.4907  0.8315
  231SOL    HW1  692   1.813   1.635   0.093  0.1103  0.4519  2.3579
  231SOL    HW2  693   1.777   1.790   0.136 -0.0853 -1.2119  0.1199
  232SOL     OW  694   1.825   1.871   1.132  0.0563  0.0051 -0.7802
  232SOL    HW1  695   1.913   1.851   1.177  2.7342 -2.5808  2.1762
  232SOL    HW2  696   1.763   1.795   1.133  4.1909  2.8660 -0.9306
  233SOL     OW  697   0.643   2.799   1.873 -0.0167 -0.2421  0.4032
  233SOL    HW1  698   0.675   2.897   1.861  1.2206  1.9482 -0.7541
  233SOL    HW2  699   0.577   2.778   1.796 -2.7078 -0.1549 -0.9018
  234SOL     OW  700   0.669   0.420   2.630  0.8137 -0.4260  0.2074
  234SOL    HW1  701   0.751   0.462   2.596 -4.3894  1.2950 -0.1959
  234SOL    HW2  702   0.645   0.454   2.722  0.3142 -2.4107 -0.7185
  235SOL     OW  703   2.613   1.123   1.763  0.2828 -0.1136 -0.2416
  235SOL    HW1  704   2.685   1.076   1.819  0.3082  1.8274 -2.5794
  235SOL    HW2  705   2.535   1.056   1.748  2.4543 -2.1826  0.3074
  236SOL     OW  706   1.575   2.720   1.410 -0.0981 -0.2360 -0.4419
  236SOL    HW1  707   1.554   2.741   1.312  2.0416  1.4431 -0.7611
  236SOL    HW2  708   1.489   2.710   1.463  1.8258  1.7269 -0.7557
  237SOL     OW  709   0.439   1.654   2.513 -0.3323  0.2764 -0.5620
  237SOL    HW1  710   0.495   1.580   2.477 -2.2772 -1.5685  1.4589
  237SOL    HW2  711   0.367   1.681   2.444 -1.6692  0.2120 -0.9697
  238SOL     OW  712   0.889   0.883   2.252  0.3833 -0.1805 -0.0351
  238SOL    HW1  713   0.831   0.803   2.220 -0.9691 -0.7864 -2.5019
  238SOL    HW2  714   0.991   0.854   2.258  4.2819 -2.0311  1.2387
  239SOL     OW  715   0.776   1.722   2.447  0.1908  0.0622  0.4062
  239SOL    HW1  716   0.816   1.733   2.541  0.2214 -0.1382  0.5545
  239SOL    HW2  717   0.821   1.790   2.383 -1.6286  0.9783  0.9342
  240SOL     OW  718   2.420   2.666   0.362  0.7681 -0.6566  0.0926
  240SOL    HW1  719   2.362   2.730   0.312 -1.4862  1.1139 -0.5000
  240SOL    HW2  720   2.501   2.710   0.408  0.2087  0.3765 -0.0732
  241SOL     OW  721   0.526   1.085   0.261  0.6377  0.7326  0.0259
  241SOL    HW1  722   0.496   1.020   0.333 -1.5543  2.7219 -0.4517
  241SOL    HW2  723   0.500   1.178   0.293 -1.9462 -1.1581  1.2266
  242SOL     OW  724   1.448   2.674   1.778  0.1715 -0.2972  0.4050
  242SOL    HW1  725   1.397   2.643   1.693 -0.7204 -1.6223  0.4528
  242SOL    HW2  726   1.534   2.720   1.750 -2.5111 -0.5878  1.3635
  243SOL     OW  727   1.022   2.486   1.620  0.2550 -0.3737  0.1357
  243SOL    HW1  728   1.044   2.579   1.649 -0.3228 -3.8757  1.5269
  243SOL    HW2  729   0.924   2.472   1.630 -0.1070  2.4693 -1.4017
  244SOL     OW  730   2.293   0.589   2.549 -0.7519 -0.2256 -0.7153
  244SOL    HW1  731   2.244   0.680   2.525  1.1728  0.1820  1.0754
  244SOL    HW2  732   2.304   0.580   2.652 -0.4026  2.3251 -0.2613
  245SOL     OW  733   1.394   2.261   1.176 -0.0543  0.4786  0.4207
  245SOL    HW1  734   1.491   2.290   1.184 -0.2843  0.7562 -0.7457
  245SOL    HW2  735   1.381   2.161   1.162  2.2967 -2.1476 -1.9959
  246SOL     OW  736   1.331   0.198   0.173  0.3881  0.0070  0.2426
  246SOL    HW1  737   1.363   0.255   0.250 -1.3752 -0.1414  4.5921
  246SOL    HW2  738   1.314   0.269   0.099 -0.3952  2.6305  2.3790
  247SOL     OW  739   1.819   0.339   1.766 -0.2604  0.1949 -0.0060
  247SOL    HW1  740   1.875   0.384   1.690 -1.6158  3.7613 -0.7789
  247SOL    HW2  741   1.850   0.246   1.796  0.6644  1.9948  1.7084
  248SOL     OW  742   3.084   2.310   1.562  0.2459 -0.0722  0.7430
  248SOL    HW1  743   0.017   2.404   1.529  0.2182  0.1752 -0.7508
  248SOL    HW2  744   0.047   2.237   1.509 -2.0771 -3.2411 -1.7967
  249SOL     OW  745   0.494   0.288   0.257  0.0388  0.0932  0.5053
  249SOL    HW1  746   0.403   0.277   0.303  1.0860 -0.7183 -1.0615
  249SOL    HW2  747   0.555   0.204   0.269 -1.9944 -0.5467  0.2980
  250SOL     OW  748   2.373   0.232   2.232  0.6463  0.3205  0.1407
  250SOL    HW1  749   2.330   0.310   2.285 -0.0822  1.6707  0.3792
  250SOL    HW2  750   2.414   0.267   2.148 -1.9648  1.0586  2.1450
  251SOL     OW  751   1.377   0.715   0.026  0.2935 -0.1015 -0.4139
  251SOL    HW1  752   1.346   0.689   0.122  0.4405 -1.5946  0.0390
  251SOL    HW2  753   1.294   0.720   3.052 -3.0507  1.3638 -0.6024
  252SOL     OW  754   1.530   2.487   2.279 -0.4001 -0.1762  0.0917
  252SOL    HW1  755   1.566   2.578   2.303  0.3499  1.2800 -0.5621
  252SOL    HW2  756   1.564   2.454   2.187  2.4679 -0.2587  2.8543
  253SOL     OW  757   2.786   2.614   0.283 -0.3484 -0.0854  0.1070
  253SOL    HW1  758   2.730   2.671   0.353 -0.7202 -0.3456  2.5754
  253SOL    HW2  759   2.855   2.562   0.339  3.9600 -1.5667  0.0945
  254SOL     OW  760   2.134   1.131   1.465 -0.4476 -0.3957  0.5864
  254SOL    HW1  761   2.088   1.190   1.394 -0.4260 -1.8420  3.1441
  254SOL    HW2  762   2.228   1.107   1.437 -0.3289 -1.6441 -0.1257
  255SOL     OW  763   0.821   2.693   1.441  0.3721  0.7727 -0.2975
  255SOL    HW1  764   0.797   2.662   1.346  2.9758  0.3153 -1.7414
  255SOL    HW2  765   0.786   2.628   1.512  0.8520 -1.0987 -1.1185
  256SOL     OW  766   2.116   1.804   1.641  1.0571 -0.4332  0.4261
  256SOL    HW1  767   2.175   1.730   1.596 -1.0502  1.1474  3.0151
  256SOL    HW2  768   2.173   1.880   1.675 -1.6963 -2.4992 -0.9810
  257SOL     OW  769   0.496   2.320   2.701  0.0643 -0.1049 -0.1797
  257SOL    HW1  770   0.506   2.243   2.764  0.3171 -1.7805 -1.1759
  257SOL    HW2  771   0.453   2.399   2.752  3.5146  0.1550  0.9210
  258SOL     OW  772   0.575   2.596   0.951 -0.5309  0.0319  0.2166
  258SOL    HW1  773   0.486   2.612   1.000  0.4638 -0.9909  3.6449
  258SOL    HW2  774   0.568   2.586   0.854 -1.2346 -0.1118  1.2683
  259SOL     OW  775   1.426   0.645   2.705  0.0347 -0.0589  0.3598
  259SOL    HW1  776   1.516   0.678   2.677  0.2380 -0.0270  0.2200
  259SOL    HW2  777   1.357   0.719   2.730  1.2758 -0.4305 -0.2300
  260SOL     OW  778   0.336   0.277   1.294  0.1331  0.6330  0.0195
  260SOL    HW1  779   0.411   0.207   1.300  1.1469 -0.7006 -1.4619
  260SOL    HW2  780   0.334   0.312   1.200 -2.0693 -0.8661  1.9495
  261SOL     OW  781   1.064   0.231   2.399 -0.5195  0.1691  0.0800
  261SOL    HW1  782   0.992   0.257   2.467  1.2662  1.4357  3.2095
  261SOL    HW2  783   1.158   0.258   2.432  0.1551  0.9060 -0.6079
  262SOL     OW  784   1.235   2.893   1.843 -0.2067  0.1496 -0.1799
  262SOL    HW1  785   1.267   2.833   1.919 -2.4020  2.6907  0.1110
  262SOL    HW2  786   1.193   2.856   1.759  3.1254 -2.3320  0.3313
  263SOL     OW  787   0.789   2.055   0.049 -0.2160  0.0880  0.2277
  263SOL    HW1  788   0.868   2.108   0.012  0.5723 -0.9665 -0.2082
  263SOL    HW2  789   0.814   1.958   0.044 -0.1269 -0.0829 -1.8715
  264SOL     OW  790   1.364   1.751   0.997 -0.1324  0.2760 -0.4215
  264SOL    HW1  791   1.447   1.697   1.029  0.2155 -0.9697 -0.4858
  264SOL    HW2  792   1.378   1.793   0.907  1.4279 -1.1608  2.1686
  265SOL     OW  793   0.882   2.186   0.415  0.0638  0.0274  0.0238
  265SOL    HW1  794   0.958   2.182   0.343 -0.8539 -0.9723  2.4319
  265SOL    HW2  795   0.790   2.193   0.369  0.6086  2.6183 -1.4769
  266SOL     OW  796   2.709   0.820   1.028  0.6592 -0.2740 -0.2493
  266SOL    HW1  797   2.631   0.784   0.973 -1.4062 -1.3753  0.5671
  266SOL    HW2  798   2.744   0.754   1.099 -0.1546 -0.5619  1.4754
  267SOL     OW  799   0.272   1.527   0.280  0.2576 -0.0327  0.0472
  267SOL    HW1  800   0.209   1.486   0.352 -1.7731 -0.1205  0.0246
  267SOL    HW2  801   0.225   1.612   0.235 -2.5880  1.7957 -1.5324
  268SOL     OW  802   1.332   0.601   0.270  0.4995 -0.2920 -0.1213
  268SOL    HW1  803   1.227   0.582   0.275 -1.0149  1.1433 -1.3629
  268SOL    HW2  804   1.359   0.666   0.344 -1.8511 -0.9337  0.0151
  269SOL     OW  805   2.624   0.672   2.251 -0.0377  0.1654  0.0357
  269SOL    HW1  806   2.641   0.700   2.349 -0.0282  0.1488  0.2903
  269SOL    HW2  807   2.707   0.692   2.201  0.5763  0.9230 -2.2228
  270SOL     OW  808   2.686   1.084   0.704  0.4579  0.2409 -0.0192
  270SOL    HW1  809   2.642   1.172   0.735  0.3245  0.1709 -3.2255
  270SOL    HW2  810   2.614   1.034   0.651 -0.3034 -0.6242 -2.0409
  271SOL     OW  811   0.050   1.293   2.210  0.0196  0.0618  0.3309
  271SOL    HW1  812   0.061   1.315   2.115 -3.3289  0.3756  0.5694
  271SOL    HW2  813   0.127   1.230   2.234  0.7727 -1.5273 -2.1987
  272SOL     OW  814   2.469   2.270   1.784 -0.1477 -0.5829  0.2044
  272SOL    HW1  815   2.407   2.276   1.867  0.9369 -1.5457  3.5395
  272SOL    HW2  816   2.543   2.205   1.809  0.3057  0.0254 -1.0382
  273SOL     OW  817   0.236   2.470   3.058  0.1541 -0.1000  0.4624
  273SOL    HW1  818   0.274   2.406   0.038  0.1164 -0.9617 -1.3348
  273SOL    HW2  819   0.186   2.416   2.987  0.7522  1.7409  0.1398
  274SOL     OW  820   0.694   2.281   0.828 -0.0687  0.1702  0.3467
  274SOL    HW1  821   0.742   2.355   0.882  1.7249  1.1045  2.2081
  274SOL    HW2  822   0.762   2.227   0.773 -1.2029  0.9098  0.5072
  275SOL     OW  823   1.567   2.116   2.600  0.6090 -0.6221 -0.2919
  275SOL    HW1  824   1.594   2.182   2.528 -4.8352 -2.1169 -1.0806
  275SOL    HW2  825   1.516   2.160   2.677  0.3013  1.7071 -0.3783
  276SOL     OW  826   2.799   1.747   2.007  0.2816 -0.2294 -0.4610
  276SOL    HW1  827   2.764   1.699   1.922  0.5799  0.0551 -1.6457
  276SOL    HW2  828   2.728   1.778   2.069  0.8130  1.8113 -2.0099
  277SOL     OW  829   2.179   0.173   0.805  0.4047  0.0693  0.1572
  277SOL    HW1  830   2.235   0.240   0.752 -1.3825 -1.2553 -2.0148
  277SOL    HW2  831   2.079   0.188   0.801 -1.3873  0.3469  1.5315
  278SOL     OW  832   1.489   0.232   2.500 -0.1350  0.4541 -0.4948
  278SOL    HW1  833   1.426   0.313   2.497  1.1887 -0.7225 -0.2127
  278SOL    HW2  834   1.481   0.201   2.596  1.6546 -2.1996 -0.2541
  279SOL     OW  835   1.229   2.706   1.048  0.5880 -0.0697  0.3440
  279SOL    HW1  836   1.226   2.606   1.068  0.5839  2.5344 -3.5609
  279SOL    HW2  837   1.145   2.754   1.072  0.4239  0.4890 -0.5719
  280SOL     OW  838   1.134   1.187   0.492  0.6548  0.0349 -1.0533
  280SOL    HW1  839   1.142   1.090   0.478  0.0800 -0.4195 -1.8180
  280SOL    HW2  840   1.138   1.219   0.589  2.2890  2.4334 -2.6473
  281SOL     OW  841   2.006   1.819   0.417 -0.7158 -0.0933 -0.3027
  281SOL    HW1  842   2.082   1.798   0.488  2.2358 -3.6212  2.8075
  281SOL    HW2  843   2.014   1.746   0.342  2.0934  0.6903  1.2936
  282SOL     OW  844   2.784   1.475   0.588  0.0007 -0.2967 -0.4248
  282SOL    HW1  845   2.692   1.470   0.548 -1.5429 -0.6834  1.0515
  282SOL    HW2  846   2.855   1.457   0.512  1.3547  0.0571 -1.7951
  283SOL     OW  847   1.504   2.583   2.952 -0.5051 -0.3115 -0.1519
  283SOL    HW1  848   1.525   2.503   2.895 -1.2628 -1.6035  3.4051
  283SOL    HW2  849   1.409   2.612   2.940  0.6741 -0.4862  1.0234
  284SOL     OW  850   0.395   0.382   2.513 -0.3382 -0.5286 -0.2188
  284SOL    HW1  851   0.475   0.417   2.560  0.9862 -0.9377  0.7655
  284SOL    HW2  852   0.319   0.385   2.580  0.6072 -1.5130 -0.6148
  285SOL     OW  853   1.886   1.511   3.085 -0.2124  0.4861 -0.3080
  285SOL    HW1  854   1.797   1.482   3.040 -3.8219  0.6725 -0.0558
  285SOL    HW2  855   1.960   1.531   3.014 -1.7132 -1.4131 -1.5937
  286SOL     OW  856   1.184   1.862   1.749 -0.0577  0.1042  0.1562
  286SOL    HW1  857   1.144   1.770   1.764 -1.0560 -1.7440  1.1677
  286SOL    HW2  858   1.171   1.899   1.648  0.5597  1.7625 -0.9948
  287SOL     OW  859   1.844   2.802   1.192  0.5709  0.0158 -0.3060
  287SOL    HW1  860   1.799   2.733   1.133  0.8976 -2.5234 -1.6467
  287SOL    HW2  861   1.884   2.880   1.137 -0.2934  1.7381 -1.5074
  288SOL     OW  862   0.573   2.478   2.115 -0.3019 -0.3239  0.0033
  288SOL    HW1  863   0.551   2.516   2.207  1.4529 -3.8190 -2.9389
  288SOL    HW2  864   0.584   2.546   2.042 -0.1823  0.3927 -2.2713
  289SOL     OW  865   0.015   1.783   0.800  0.1935 -0.2706  0.3641
  289SOL    HW1  866   3.011   1.750   0.812  2.1556  1.0704 -0.7860
  289SOL    HW2  867   0.043   1.867   0.848 -0.6103 -2.0389 -0.7411
  290SOL     OW  868   0.899   2.172   1.855  0.5168 -0.1045 -0.2223
  290SOL    HW1  869   0.837   2.090   1.848 -1.5372  0.6330 -0.9756
  290SOL    HW2  870   0.895   2.228   1.944  2.3865  0.0954  1.6657
  291SOL     OW  871   1.783   0.163   0.250  0.1428 -0.0748 -0.3430
  291SOL    HW1  872   1.769   0.258   0.223 -1.0772 -0.6923  0.5484
  291SOL    HW2  873   1.717   0.100   0.206  1.4222  1.1576  2.0598
  292SOL     OW  874   0.621   0.245   1.531  0.4133 -0.5125 -0.8628
  292SOL    HW1  875   0.544   0.202   1.581 -0.7294  2.1781  2.2311
  292SOL    HW2  876   0.707   0.228   1.593  1.6856  0.4976  3.2445
  293SOL     OW  877   2.258   1.327   1.158 -0.1655  0.2824 -0.4042
  293SOL    HW1  878   2.357   1.322   1.196  0.7943  1.5717  0.5829
  293SOL    HW2  879   2.249   1.296   1.063 -0.5887  3.1958  0.7720
  294SOL     OW  880   0.348   0.227   2.317  0.0331  0.3907 -0.1612
  294SOL    HW1  881   0.259   0.252   2.270 -0.5338  1.7362  0.3402
  294SOL    HW2  882   0.370   0.285   2.401 -0.3311  0.3826  0.9326
  295SOL     OW  883   1.054   1.542   0.379 -0.1450 -0.0175  0.0406
  295SOL    HW1  884   1.143   1.493   0.370 -1.0386 -1.9119  3.2428
  295SOL    HW2  885   0.972   1.485   0.413  1.3374 -0.2122 -2.1697
  296SOL     OW  886   1.953   1.100   1.140 -0.3175  0.0552 -0.4014
  296SOL    HW1  887   1.896   1.134   1.065  3.0304 -3.6905 -0.4185
  296SOL    HW2  888   1.965   1.167   1.213  2.8140 -1.2452 -1.4498
  297SOL     OW  889   1.809   0.873   2.445 -0.0369  0.4786  0.2215
  297SOL    HW1  890   1.823   0.967   2.476 -2.9187 -2.2118 -0.7326
  297SOL    HW2  891   1.819   0.867   2.343 -0.6890 -0.3071 -2.0014
  298SOL     OW  892   0.939   0.488   2.622  0.4445  0.1830 -0.1345
  298SOL    HW1  893   1.000   0.436   2.685  1.2106  1.9221 -1.2239
  298SOL    HW2  894   0.993   0.519   2.543 -1.5363  0.1114  2.0192
  299SOL     OW  895   1.399   0.275   2.021 -0.2330 -0.2410  0.4427
  299SOL    HW1  896   1.303   0.250   1.989 -1.9013  0.9725  0.2013
  299SOL    HW2  897   1.392   0.334   2.098 -0.0675 -3.1554 -1.2790
  300SOL     OW  898   2.555   3.013   1.911  0.0710  0.4566  0.9091
  300SOL    HW1  899   2.521   2.984   1.816 -1.1962 -1.7514 -2.5072
  300SOL    HW2  900   2.638   3.063   1.898 -2.6406 -3.1983  1.5071
  301SOL     OW  901   1.793   0.791   1.607  0.1538 -0.1817  0.2513
  301SOL    HW1  902   1.735   0.864   1.637  1.3003 -3.0658  0.2996
  301SOL    HW2  903   1.857   0.769   1.684  1.7800 -2.5914  1.0599
  302SOL     OW  904   0.710   2.760   2.598  0.6609 -1.0136 -0.2320
  302SOL    HW1  905   0.679   2.665   2.575 -1.3245 -0.3811 -1.0623
  302SOL    HW2  906   0.786   2.790   2.535 -1.0532  1.2178 -0.5555
  303SOL     OW  907   1.706   1.952   1.692  0.9345 -0.3004 -0.4442
  303SOL    HW1  908   1.733   1.974   1.595 -1.5293  1.3486 -0.3884
  303SOL    HW2  909   1.623   1.892   1.686 -0.7167 -1.3294  0.6155
  304SOL     OW  910   0.305   2.813   0.744  0.3536  0.5481  0.0439
  304SOL    HW1  911   0.403   2.785   0.730  0.4902 -0.6232  0.4855
  304SOL    HW2  912   0.252   2.739   0.795 -0.6932  0.2391  2.2993
  305SOL     OW  913   1.427   0.780   0.463  0.2218 -0.1635 -0.4381
  305SOL    HW1  914   1.436   0.859   0.400  0.6288  0.3916 -1.3005
  305SOL    HW2  915   1.407   0.813   0.558  2.0042  1.8361  1.0724
  306SOL     OW  916   0.453   1.428   0.101  0.3152 -0.1314  0.5333
  306SOL    HW1  917   0.539   1.476   0.123 -1.3577 -1.9747 -1.2265
  306SOL    HW2  918   0.382   1.456   0.176 -1.5336 -0.6889 -1.2326
  307SOL     OW  919   0.373   0.915   1.769 -0.2343  0.2574  0.0511
  307SOL    HW1  920   0.431   0.964   1.696  0.7737  3.6064  2.6076
  307SOL    HW2  921   0.320   0.831   1.739  0.8768 -2.3427  2.2239
  308SOL     OW  922   0.694   0.131   1.116 -0.3623 -0.3818  0.1431
  308SOL    HW1  923   0.672   0.179   1.030  0.4763 -1.0849  1.4521
  308SOL    HW2  924   0.739   0.198   1.182  1.4150 -0.3201 -0.1152
  309SOL     OW  925   2.115   0.822   0.019 -0.7443  0.0834 -0.4747
  309SOL    HW1  926   2.213   0.790   0.025  3.3450  0.9456  1.0889
  309SOL    HW2  927   2.104   0.903   3.050  0.1411  2.6082 -0.6500
  310SOL     OW  928   1.226   1.160   0.032  0.1202  0.2444 -0.3810
  310SOL    HW1  929   1.152   1.177   3.049 -1.4510  1.0195 -0.2070
  310SOL    HW2  930   1.229   1.239   0.100 -0.2428  2.1983 -0.6607
  311SOL     OW  931   1.766   2.450   2.670  0.8337 -0.2168 -0.2507
  311SOL    HW1  932   1.721   2.410   2.590 -0.8347  0.7816 -2.1812
  311SOL    HW2  933   1.808   2.538   2.657 -2.1674 -0.2381 -2.4448
  312SOL     OW  934   2.083   3.057   2.944  0.2228  0.0949  0.0317
  312SOL    HW1  935   2.047   0.062   2.953 -1.6360 -0.7096 -1.1202
  312SOL    HW2  936   2.028   2.987   3.000 -0.1626 -2.9796  1.1698
  313SOL     OW  937   0.485   0.527   0.632  0.3397 -0.5586 -0.1154
  313SOL    HW1  938   0.386   0.529   0.615  0.1412 -0.1845  0.3374
  313SOL    HW2  939   0.541   0.490   0.555 -3.9084  0.6937  2.7054
  314SOL     OW  940   2.402   1.506   2.890 -0.8139  0.0376 -0.4810
  314SOL    HW1  941   2.398   1.482   2.791 -0.5038  1.4821  0.6057
  314SOL    HW2  942   2.497   1.527   2.927 -2.9381 -0.4663  0.7342
  315SOL     OW  943   1.940   0.851   1.834  0.3760 -0.4032 -0.0969
  315SOL    HW1  944   1.920   0.790   1.911 -0.5360  0.8843  0.4493
  315SOL    HW2  945   1.895   0.941   1.857 -0.8005 -0.0423  1.6135
  316SOL     OW  946   0.037   0.836   0.829 -0.2018  0.4138  0.4019
  316SOL    HW1  947   3.040   0.883   0.850  4.4557 -0.7812  1.1222
  316SOL    HW2  948   0.062   0.851   0.729  0.8881 -0.1119  0.2833
  317SOL     OW  949   0.776   0.273   0.128 -0.1808 -0.4366 -0.4616
  317SOL    HW1  950   0.753   0.248   0.223 -0.1309 -3.6970  0.4119
  317SOL    HW2  951   0.736   0.203   0.068  2.3127  0.1622  1.2009
  318SOL     OW  952   2.674   2.774   1.318 -0.0709  0.0047  0.0646
  318SOL    HW1  953   2.724   2.694   1.274  0.1658 -1.4713 -1.4165
  318SOL    HW2  954   2.631   2.752   1.405 -1.4090 -0.0639 -2.2397
  319SOL     OW  955   1.309   1.703   0.311  0.0310  0.4827  0.0412
  319SOL    HW1  956   1.242   1.774   0.291  0.8163 -0.9720  0.9920
  319SOL    HW2  957   1.360   1.716   0.400  1.5231 -0.7959  1.6280
  320SOL     OW  958   0.568   2.182   1.080  0.2526 -0.3776  0.0165
  320SOL    HW1  959   0.473   2.217   1.096  0.1982  2.9948  0.2358
  320SOL    HW2  960   0.605   2.222   0.994 -0.1243 -1.7902  0.7074
  321SOL     OW  961   2.033   2.358   2.514  0.4901  0.3139  0.1341
  321SOL    HW1  962   1.965   2.403   2.578 -3.0482  3.9434  0.1779
  321SOL    HW2  963   1.994   2.349   2.420 -2.1728  1.6517  1.3055
  322SOL     OW  964   2.874   2.502   2.440 -0.2448 -0.0793 -0.0364
  322SOL    HW1  965   2.966   2.475   2.467  0.1651  4.0514 -0.4242
  322SOL    HW2  966   2.830   2.576   2.497  0.5081  1.3098 -3.9148
  323SOL     OW  967   2.837   0.465   0.853 -0.0467 -0.3761  0.1994
  323SOL    HW1  968   2.920   0.523   0.871  1.0115  2.8701 -2.6106
  323SOL    HW2  969   2.790   0.506   0.772 -0.6288  0.2071 -0.5302
  324SOL     OW  970   2.469   1.823   2.430 -0.6069  0.4971  0.5150
  324SOL    HW1  971   2.497   1.785   2.340 -2.8143 -0.9828  2.7786
  324SOL    HW2  972   2.410   1.751   2.476 -1.2807 -0.0188 -0.2409
  325SOL     OW  973   1.645   0.572   2.216  0.0877  0.7062  0.4674
  325SOL    HW1  974   1.635   0.671   2.215 -2.4915 -0.6476  0.5902
  325SOL    HW2  975   1.679   0.536   2.124  0.0550  0.1161  0.3312
  326SOL     OW  976   2.713   2.294   0.508  0.4532 -0.7883 -1.0276
  326SOL    HW1  977   2.660   2.327   0.589  1.8250  1.9670  0.6574
  326SOL    HW2  978   2.801   2.339   0.500 -0.7040 -1.2879 -0.3688
  327SOL     OW  979   2.611   3.073   3.003 -0.3273  0.2103 -0.0853
  327SOL    HW1  980   2.512   3.056   3.005  0.8858  0.3502  1.2453
  327SOL    HW2  981   2.661   2.984   3.004 -1.2399 -0.0220 -0.5105
  328SOL     OW  982   0.964   0.614   0.795 -0.2884 -0.4092  0.2385
  328SOL    HW1  983   0.929   0.609   0.701 -2.1319 -0.3500  0.1430
  328SOL    HW2  984   1.050   0.556   0.808 -1.2284 -0.0495  0.6424
  329SOL     OW  985   2.004   0.883   1.435 -0.7042  0.2164  0.1093
  329SOL    HW1  986   1.927   0.843   1.488  0.1460  0.2465  0.3333
  329SOL    HW2  987   2.017   0.979   1.456 -1.5735 -0.8566 -0.7537
  330SOL     OW  988   1.287   0.290   0.618  0.0242  0.3468 -0.0047
  330SOL    HW1  989   1.235   0.382   0.630 -2.5778  3.1785 -0.2761
  330SOL    HW2  990   1.386   0.312   0.601  2.8737 -0.2047 -1.6384
  331SOL     OW  991   0.582   2.073   1.860 -0.4866  0.9232 -0.0315
  331SOL    HW1  992   0.589   1.976   1.891  0.8650 -1.2591  2.8042
  331SOL    HW2  993   0.533   2.132   1.924  0.2663  3.0621  0.5176
  332SOL     OW  994   2.302   2.106   1.588 -0.4273 -0.3213  0.0358
  332SOL    HW1  995   2.266   2.113   1.681  0.2006  0.5092  0.2817
  332SOL    HW2  996   2.403   2.083   1.585 -0.2592  0.7715  1.7783
  333SOL     OW  997   2.815   0.024   0.972 -0.5751  0.1348 -0.1730
  333SOL    HW1  998   2.777   0.057   1.061  3.0470 -1.0181 -1.3816
  333SOL    HW2  999   2.758   0.042   0.893  0.2531  0.0461  3.3534
  334SOL     OW 1000   2.908   1.587   0.953 -0.3320  0.1473 -0.1751
  334SOL    HW1 1001   3.000   1.578   0.999  0.5720 -0.6465  1.8978
  334SOL    HW2 1002   2.890   1.505   0.906  0.4198  3.2113  1.2080
  335SOL     OW 1003   0.498   2.943   2.608 -0.2944  0.1103  0.0764
  335SOL    HW1 1004   0.432   2.884   2.655  3.5058  1.9737 -2.8403
  335SOL    HW2 1005   0.571   2.879   2.581 -1.7376 -0.0109 -2.3574
  336SOL     OW 1006   0.222   2.734   1.615  0.1542 -0.4197 -0.2450
  336SOL    HW1 1007   0.169   2.798   1.553  0.5392 -1.7800 -3.1762
  336SOL    HW2 1008   0.211   2.763   1.714 -0.0026  0.4879  0.2448
  337SOL     OW 1009   0.907   1.866   2.268 -0.4137  0.6771  0.0576
  337SOL    HW1 1010   0.974   1.940   2.298 -2.3865 -0.9713  0.0625
  337SOL    HW2 1011   0.817   1.899   2.236  2.6278 -1.3869  0.2893
  338SOL     OW 1012   1.135   2.954   2.404 -0.0702 -0.3204 -0.0411
  338SOL    HW1 1013   1.208   2.923   2.464 -2.4035 -0.1115 -0.6813
  338SOL    HW2 1014   1.172   3.011   2.328 -0.4585  1.5714  1.0201
  339SOL     OW 1015   3.077   1.455   2.945 -0.5241 -0.7165  0.2325
  339SOL    HW1 1016   3.035   1.391   2.880 -0.5780  0.5802  2.2713
  339SOL    HW2 1017   3.077   1.551   2.911 -0.2774  0.4975  0.8799
  340SOL     OW 1018   1.930   0.511   1.280 -0.6247  0.4060 -0.4030
  340SOL    HW1 1019   1.950   0.490   1.181  2.2253  0.8056  0.4534
  340SOL    HW2 1020   2.013   0.551   1.331 -0.1088  1.6482 -0.0452
  341SOL     OW 1021   1.835   1.283   0.914 -0.1119  0.6320 -0.5355
  341SOL    HW1 1022   1.846   1.358   0.850 -1.4273 -2.3772  0.6905
  341SOL    HW2 1023   1.842   1.190   0.865  0.7336 -0.7820 -1.7058
  342SOL     OW 1024   2.099   2.127   2.615 -0.2690 -0.4850 -0.2731
  342SOL    HW1 1025   2.189   2.098   2.573 -0.4450 -0.9007 -1.8963
  342SOL    HW2 1026   2.072   2.223   2.584  0.7238  0.9265 -0.2940
  343SOL     OW 1027   2.964   2.653   1.111  0.1999 -0.0665  0.3400
  343SOL    HW1 1028   2.939   2.582   1.045  3.6700  0.4905 -1.2665
  343SOL    HW2 1029   2.996   2.614   1.198  0.4408  1.9486  0.0779
  344SOL     OW 1030   2.625   2.651   0.749  0.1818 -0.2372  0.0471
  344SOL    HW1 1031   2.541   2.706   0.779 -4.7013  1.6768 -0.9569
  344SOL    HW2 1032   2.702   2.668   0.811 -1.7923  0.0382 -0.9326
  345SOL     OW 1033   2.393   2.274   0.233 -0.6478  0.3036  0.1232
  345SOL    HW1 1034   2.306   2.278   0.289 -2.6314  0.0747  0.2635
  345SOL    HW2 1035   2.456   2.354   0.253 -2.8029  1.9710  0.4720
  346SOL     OW 1036   1.133   2.043   1.953 -0.2675 -0.0305 -0.5183
  346SOL    HW1 1037   1.047   2.098   1.938 -0.9342 -2.1907 -0.2102
  346SOL    HW2 1038   1.125   1.961   1.901 -0.1539 -1.4462 -0.7683
  347SOL     OW 1039   1.579   2.000   2.336  0.1939  0.0613  0.1984
  347SOL    HW1 1040   1.538   2.060   2.405 -1.3652 -0.0184 -1.5627
  347SOL    HW2 1041   1.575   2.051   2.246  0.4682 -1.2279 -0.1608
  348SOL     OW 1042   0.336   1.914   1.341  0.3915  0.3867 -0.1376
  348SOL    HW1 1043   0.279   1.942   1.256 -0.6410  0.7036 -0.2741
  348SOL    HW2 1044   0.425   1.963   1.335 -0.3648 -1.1210 -0.0748
  349SOL     OW 1045   1.588   1.348   1.495 -0.2609  0.1766  0.3746
  349SOL    HW1 1046   1.630   1.434   1.528 -1.4870  0.6392  1.8750
  349SOL    HW2 1047   1.497   1.372   1.458 -2.0878  0.5848  0.8085
  350SOL     OW 1048   2.269   2.224   0.717  0.2603  0.3321 -0.4322
  350SOL    HW1 1049   2.200   2.203   0.790 -1.8571  1.0767 -0.4610
  350SOL    HW2 1050   2.244   2.304   0.661  0.1927 -3.0329  1.0340
  351SOL     OW 1051   0.394   0.108   1.650 -0.2831 -0.6633  0.4375
  351SOL    HW1 1052   0.421   0.092   1.744  1.4194 -1.6663  0.1468
  351SOL    HW2 1053   0.303   0.148   1.647  2.3841 -0.3759  0.7449
  352SOL     OW 1054   0.817   1.143   0.313  0.0218  0.5057 -0.4490
  352SOL    HW1 1055   0.733   1.129   0.255 -1.9751  0.0319 -1.9700
  352SOL    HW2 1056   0.904   1.106   0.268 -0.6146 -1.6850 -1.3217
  353SOL     OW 1057   0.780   1.596   2.860 -0.1668 -0.5338 -0.0367
  353SOL    HW1 1058   0.838   1.665   2.815 -0.3594 -2.0566 -0.2176
  353SOL    HW2 1059   0.708   1.566   2.799  4.0620  1.4802 -1.1320
  354SOL     OW 1060   1.785   2.445   1.842  0.4053  0.8558  0.4027
  354SOL    HW1 1061   1.828   2.534   1.818  2.4515 -2.8169  1.3882
  354SOL    HW2 1062   1.861   2.383   1.880  0.4523 -0.4321 -0.5716
  355SOL     OW 1063   2.059   0.594   2.947 -0.7807  0.0641 -0.0359
  355SOL    HW1 1064   2.110   0.577   2.868 -0.9477 -0.0457  1.6139
  355SOL    HW2 1065   2.080   0.684   2.995 -0.2445  1.2152  0.4014
  356SOL     OW 1066   0.568   2.065   1.371  0.0585 -0.4485 -0.4692
  356SOL    HW1 1067   0.590   2.120   1.290 -1.3478  0.1711  1.4519
  356SOL    HW2 1068   0.574   2.114   1.459  0.5199 -0.1187 -3.1479
  357SOL     OW 1069   0.097   0.220   1.750 -0.2780 -0.0015 -0.0698
  357SOL    HW1 1070   0.077   0.168   1.835  0.6381  0.6480 -5.5312
  357SOL    HW2 1071   0.155   0.304   1.764  0.9963 -1.0955  1.3830
  358SOL     OW 1072   2.575   1.977   1.515 -0.0018 -0.0338  0.0366
  358SOL    HW1 1073   2.537   1.925   1.436  0.6682 -1.7792 -1.2202
  358SOL    HW2 1074   2.658   2.027   1.487  2.6584 -1.1275 -0.5207
  359SOL     OW 1075   2.179   1.994   2.204 -0.7594 -0.1994  0.4303
  359SOL    HW1 1076   2.098   2.038   2.165  2.2899  1.0285  1.6632
  359SOL    HW2 1077   2.242   2.064   2.242  0.6369 -1.2483 -2.1165
  360SOL     OW 1078   1.350   2.691   0.789  0.2312  0.8519  0.0193
  360SOL    HW1 1079   1.326   2.719   0.885 -1.2459  0.1677 -0.2674
  360SOL    HW2 1080   1.405   2.764   0.736  0.5323  2.6656 -0.4083
  361SOL     OW 1081   2.036   3.019   0.172 -0.0885  0.4979  0.1357
  361SOL    HW1 1082   1.969   3.069   0.232 -0.7203 -0.7523 -1.6418
  361SOL    HW2 1083   2.066   2.924   0.196 -2.1158 -0.5899 -1.3473
  362SOL     OW 1084   1.681   0.668   1.312  0.5944  0.2596 -0.2411
  362SOL    HW1 1085   1.760   0.627   1.362 -0.0642  2.1638 -1.0723
  362SOL    HW2 1086   1.654   0.607   1.235  2.4658 -0.2480  0.8543
  363SOL     OW 1087   1.758   1.518   2.132 -0.1241  0.0185  0.0725
  363SOL    HW1 1088   1.678   1.520   2.195  3.2650 -0.9012 -4.6298
  363SOL    HW2 1089   1.844   1.503   2.185  0.9036  2.2269 -1.5456
  364SOL     OW 1090   0.628   0.512   1.540  0.5784  0.4304 -0.4325
  364SOL    HW1 1091   0.620   0.410   1.520  4.8373 -0.6657 -0.7262
  364SOL    HW2 1092   0.585   0.558   1.455 -0.6988  0.3926  0.3789
  365SOL     OW 1093   0.845   0.729   2.810  0.1445  0.0326  0.3798
  365SOL    HW1 1094   0.849   0.631   2.786 -0.0992  1.8361  0.4552
  365SOL    HW2 1095   0.897   0.783   2.745 -0.4561  0.6422  3.4566
  366SOL     OW 1096   2.198   1.191   2.726  0.2967 -0.1855  0.4665
  366SOL    HW1 1097   2.194   1.132   2.808  0.6419  0.5877 -0.9193
  366SOL    HW2 1098   2.118   1.259   2.731 -1.6682  0.2000  2.1249
  367SOL     OW 1099   3.045   2.648   2.247 -0.1453  0.6821  0.0295
  367SOL    HW1 1100   2.966   2.639   2.311 -0.6968 -0.1797  0.4518
  367SOL    HW2 1101   3.017   2.717   2.174 -1.2860  1.0334  2.0629
  368SOL     OW 1102   2.954   1.155   1.337 -0.1205 -0.2237 -0.2142
  368SOL    HW1 1103   2.993   1.197   1.420  1.1258 -1.1058 -2.2132
  368SOL    HW2 1104   2.872   1.095   1.362  0.1373  1.5913 -1.8708
  369SOL     OW 1105   0.529   2.796   2.147  0.3848 -0.2328 -0.0959
  369SOL    HW1 1106   0.584   2.826   2.067 -0.0132  0.0598 -1.2030
  369SOL    HW2 1107   0.555   2.849   2.227 -0.7837  0.0505 -3.6717
  370SOL     OW 1108   2.853   0.357   0.487 -0.1775 -0.2646 -0.3856
  370SOL    HW1 1109   2.759   0.368   0.443 -2.3634 -1.2693 -0.6421
  370SOL    HW2 1110   2.889   0.444   0.525  2.5776  3.1355 -1.9521
  371SOL     OW 1111   0.890   2.209   1.404  0.4555  0.0496  0.1102
  371SOL    HW1 1112   0.992   2.233   1.404 -0.1014  3.7733  0.3761
  371SOL    HW2 1113   0.856   2.190   1.495 -0.7869  1.0514 -0.8138
  372SOL     OW 1114   2.214   0.383   2.381  0.0706  0.1849  0.2723
  372SOL    HW1 1115   2.235   0.452   2.450 -2.6174  0.3137  1.5844
  372SOL    HW2 1116   2.133   0.327   2.408 -2.7901 -1.3339 -0.9655
  373SOL     OW 1117   0.029   2.042   0.715  0.8767 -0.6759  0.3620
  373SOL    HW1 1118   3.037   2.055   0.787 -0.7631  0.6441  2.9846
  373SOL    HW2 1119   0.001   1.988   0.631  1.1830  0.2391 -1.0737
  374SOL     OW 1120   2.945   0.295   2.304 -0.1394  0.1937 -0.0991
  374SOL    HW1 1121   2.853   0.278   2.345  0.7018 -0.6717  3.0568
  374SOL    HW2 1122   3.015   0.324   2.378 -0.1367  0.7282  2.2080
  375SOL     OW 1123   0.593   0.538   2.860  0.6764  0.0996  0.0966
  375SOL    HW1 1124   0.504   0.525   2.913  0.2410 -2.6145 -0.5029
  375SOL    HW2 1125   0.667   0.541   2.935 -0.4046  2.1894 -1.9089
  376SOL     OW 1126   2.916   2.299   1.763  0.5565 -0.4298  0.1213
  376SOL    HW1 1127   2.976   2.310   1.685 -3.0300  2.8330  1.0688
  376SOL    HW2 1128   2.819   2.300   1.723  1.2309 -1.1677 -0.4769
  377SOL     OW 1129   1.131   0.323   2.744  0.0271  0.5555  0.0723
  377SOL    HW1 1130   1.140   0.234   2.691 -0.5527  1.7541  1.4945
  377SOL    HW2 1131   1.220   0.365   2.764 -0.1546 -2.0426 -0.0052
  378SOL     OW 1132   2.985   1.072   2.842 -0.3439  0.2363 -0.2938
  378SOL    HW1 1133   3.074   1.019   2.841  1.5928  0.8628  0.3357
  378SOL    HW2 1134   2.907   1.011   2.812  0.0379 -1.4578  0.6568
  379SOL     OW 1135   1.262   0.855   2.727  0.1323 -0.1240  0.6582
  379SOL    HW1 1136   1.160   0.849   2.700 -1.8600 -0.8693 -2.3870
  379SOL    HW2 1137   1.292   0.953   2.744  1.5161  1.1900  0.2958
  380SOL     OW 1138   0.158   1.930   1.756 -0.0996  0.4377 -0.4932
  380SOL    HW1 1139   0.205   2.012   1.787  1.3114 -3.8897 -1.1344
  380SOL    HW2 1140   0.056   1.938   1.765 -1.1408 -1.4230  0.3127
  381SOL     OW 1141   3.003   1.321   2.711 -0.3047  0.3530 -0.2576
  381SOL    HW1 1142   3.077   1.313   2.639 -0.3958 -0.9244  1.5583
  381SOL    HW2 1143   2.975   1.227   2.740  0.6429  1.6325 -1.4894
  382SOL     OW 1144   1.976   2.281   0.598 -0.1068  0.2471 -0.6519
  382SOL    HW1 1145   1.906   2.207   0.576  2.2079  0.4297 -1.5159
  382SOL    HW2 1146   1.980   2.289   0.700  0.3090 -1.6598  0.3394
  383SOL     OW 1147   0.663   1.549   0.218  0.3524  0.6610 -0.0518
  383SOL    HW1 1148   0.760   1.544   0.170  3.6393 -2.6680  1.2702
  383SOL    HW2 1149   0.672   1.536   0.318 -0.5293  1.8972  0.5079
  384SOL     OW 1150   0.838   2.357   2.404 -0.4674  0.2441  0.1225
  384SOL    HW1 1151   0.748   2.377   2.453 -0.0034 -0.5427  1.9459
  384SOL    HW2 1152   0.874   2.271   2.448 -0.2674  1.1485 -0.4277
  385SOL     OW 1153   2.347   2.004   0.580  0.3923 -0.3190  0.1296
  385SOL    HW1 1154   2.306   2.090   0.626 -1.4207  1.4276  1.2194
  385SOL    HW2 1155   2.422   2.027   0.515 -2.1114 -0.7453  1.5658
  386SOL     OW 1156   2.212   0.631   1.129 -0.2830  0.1390  0.2471
  386SOL    HW1 1157   2.162   0.544   1.119  0.5166  1.5040  1.7300
  386SOL    HW2 1158   2.156   0.720   1.118 -0.4858  0.9972 -1.7892
  387SOL     OW 1159   0.526   0.805   1.973 -0.3074 -0.1016 -0.3455
  387SOL    HW1 1160   0.512   0.875   2.050 -0.2261  1.4766  3.5052
  387SOL    HW2 1161   0.478   0.843   1.887 -1.0375 -0.0097 -1.6357
  388SOL     OW 1162   0.822   1.503   2.289  0.1842  0.3364  0.0924
  388SOL    HW1 1163   0.795   1.579   2.349  4.6445 -2.3534 -2.2470
  388SOL    HW2 1164   0.733   1.471   2.239 -1.6821  0.1929 -1.2277
  389SOL     OW 1165   0.993   1.169   1.775  0.2607 -0.0607  0.2910
  389SOL    HW1 1166   0.976   1.070   1.795  1.5977 -1.0486 -0.8475
  389SOL    HW2 1167   0.956   1.205   1.688  1.2384  1.7285  0.4021
  390SOL     OW 1168   3.067   0.013   1.065 -0.3815 -0.1959  0.4215
  390SOL    HW1 1169   2.984   0.029   1.012  1.2423  0.4073  5.3346
  390SOL    HW2 1170   0.057   0.072   1.034 -3.3853  0.1298  2.6878
  391SOL     OW 1171   1.493   1.318   1.000 -0.4393  0.3354  0.0617
  391SOL    HW1 1172   1.494   1.291   0.902  0.3364 -0.1816  0.2140
  391SOL    HW2 1173   1.586   1.332   1.035 -2.5156 -1.2886  0.3570
  392SOL     OW 1174   2.916   3.060   0.168 -0.0574 -0.3719 -0.0899
  392SOL    HW1 1175   3.011   3.028   0.140 -0.7350  0.3579 -0.4630
  392SOL    HW2 1176   2.848   2.986   0.150  1.4156 -0.2418  1.3486
  393SOL     OW 1177   1.424   2.116   2.861 -0.4528 -0.1459  0.7371
  393SOL    HW1 1178   1.513   2.073   2.870 -0.6629  0.2248 -0.0987
  393SOL    HW2 1179   1.358   2.091   2.934 -1.1220  1.1812 -0.5856
  394SOL     OW 1180   0.053   2.391   2.823 -0.0385  0.3647  0.0171
  394SOL    HW1 1181   0.045   2.407   2.725 -0.5505  0.7065  1.4205
  394SOL    HW2 1182   3.053   2.359   2.859 -1.5590  0.8452  1.1289
  395SOL     OW 1183   0.180   0.133   0.937 -0.7785  0.1060  0.1875
  395SOL    HW1 1184   0.216   0.223   0.958 -1.4964 -0.5812 -2.1470
  395SOL    HW2 1185   0.255   0.072   0.902  0.6410 -0.9744  1.1672
  396SOL     OW 1186   2.270   0.385   0.663  0.5419  0.2733 -0.3214
  396SOL    HW1 1187   2.177   0.416   0.621 -1.6187  1.1593  0.9313
  396SOL    HW2 1188   2.339   0.450   0.628 -1.5692 -0.0250  1.6496
  397SOL     OW 1189   0.082   0.705   2.548  0.5157 -0.0871 -0.2840
  397SOL    HW1 1190   0.090   0.679   2.652  0.8594  0.9098  2.6913
  397SOL    HW2 1191   0.040   0.797   2.541 -0.4576 -3.3764  0.8322
  398SOL     OW 1192   0.691   0.100   2.981  0.1722 -0.0295  0.2566
  398SOL    HW1 1193   0.612   0.105   2.912  0.7107  0.8720  0.1543
  398SOL    HW2 1194   0.772   0.155   2.946 -2.4483 -1.7355 -0.3420
  399SOL     OW 1195   2.167   0.311   2.055 -0.0222 -0.1466  0.7030
  399SOL    HW1 1196   2.202   0.264   2.136 -1.1278 -1.8742  0.1883
  399SOL    HW2 1197   2.066   0.322   2.059  0.4155  0.8842  1.5047
  400SOL     OW 1198   0.971   2.184   2.932 -0.0867  0.1377 -0.2274
  400SOL    HW1 1199   1.020   2.189   2.843 -4.8357 -0.8948 -0.6804
  400SOL    HW2 1200   0.884   2.234   2.921 -0.4353  0.3516 -0.2120
  401SOL     OW 1201   0.332   1.230   2.489  0.3182 -0.2620  0.0183
  401SOL    HW1 1202   0.337   1.205   2.388  0.2537 -1.2338  0.0532
  401SOL    HW2 1203   0.233   1.258   2.510 -1.6997  1.0206  0.9540
  402SOL     OW 1204   0.137   0.007   0.390  0.0573 -0.1434  0.6739
  402SOL    HW1 1205   0.121   3.011   0.437 -0.1585  1.9231  0.3669
  402SOL    HW2 1206   0.057   0.068   0.408 -0.7051  1.3812  3.9628
  403SOL     OW 1207   0.461   1.199   1.627 -0.5173 -0.0669 -0.2183
  403SOL    HW1 1208   0.528   1.126   1.600  0.1244 -1.6828 -4.3172
  403SOL    HW2 1209   0.418   1.240   1.545 -1.0496  2.7287 -1.4744
  404SOL     OW 1210   2.290   2.492   2.561  0.0472  0.1639  0.0891
  404SOL    HW1 1211   2.243   2.544   2.639  0.5139  0.3660 -0.1240
  404SOL    HW2 1212   2.214   2.446   2.498 -0.2017  0.3273 -2.2131
  405SOL     OW 1213   0.088   0.462   1.969  0.2081 -0.0770 -0.5004
  405SOL    HW1 1214   0.121   0.395   2.042 -0.9292 -0.2176 -0.2523
  405SOL    HW2 1215   0.153   0.469   1.889  2.5743  0.2939  0.3697
  406SOL     OW 1216   1.176   1.465   2.895  0.6887  0.2332  0.4982
  406SOL    HW1 1217   1.261   1.504   2.856  0.6291 -0.9152  0.3423
  406SOL    HW2 1218   1.160   1.499   2.989  0.3871  1.1769 -0.5655
  407SOL     OW 1219   1.970   0.617   2.480  0.1534 -0.5842  0.6085
  407SOL    HW1 1220   1.886   0.679   2.476 -1.6793  2.5368  0.9246
  407SOL    HW2 1221   2.037   0.660   2.416  1.0542  2.2903 -0.6643
  408SOL     OW 1222   0.440   2.604   2.331 -0.0231  0.4754  0.3432
  408SOL    HW1 1223   0.348   2.593   2.369  1.4752 -0.2485 -1.9494
  408SOL    HW2 1224   0.445   2.686   2.269 -1.6256  1.7894  1.9088
  409SOL     OW 1225   3.065   2.466   1.302  0.2458 -0.7217  0.0718
  409SOL    HW1 1226   0.071   2.477   1.338 -0.7487  3.4334  1.8415
  409SOL    HW2 1227   2.992   2.473   1.373 -0.6568 -2.2625 -1.1398
  410SOL     OW 1228   2.903   1.779   0.385  0.8779  0.3910 -0.1286
  410SOL    HW1 1229   2.978   1.841   0.411  0.1432 -1.4611  0.5590
  410SOL    HW2 1230   2.934   1.682   0.406  2.3856  0.6319  0.4646
  411SOL     OW 1231   2.415   0.042   1.454  0.2384  0.0878 -0.5432
  411SOL    HW1 1232   2.345   3.076   1.408  2.2073  2.8537  1.0228
  411SOL    HW2 1233   2.466   3.072   1.522  0.2082 -3.4072  0.6962
  412SOL     OW 1234   2.236   0.214   1.567 -0.2076  0.5401 -0.6554
  412SOL    HW1 1235   2.314   0.165   1.524  3.2983  0.6982 -0.9192
  412SOL    HW2 1236   2.151   0.176   1.528  0.5682 -0.1886 -0.8982
  413SOL     OW 1237   0.056   0.440   2.428  0.4575 -0.1116  0.1872
  413SOL    HW1 1238   0.119   0.504   2.379 -2.1963  1.2236 -0.8245
  413SOL    HW2 1239   0.082   0.410   2.519 -3.4645  2.9377 -1.7308
  414SOL     OW 1240   2.616   1.396   0.199  0.0372 -0.6572  0.3488
  414SOL    HW1 1241   2.533   1.377   0.142  1.2189 -1.7304  2.3806
  414SOL    HW2 1242   2.583   1.392   0.292 -1.1932  2.3963 -2.7867
  415SOL     OW 1243   0.791   2.498   0.290 -0.6148 -0.4619 -0.1877
  415SOL    HW1 1244   0.849   2.573   0.249 -1.0040  1.3685 -3.1130
  415SOL    HW2 1245   0.847   2.448   0.359  0.5197  3.3189 -2.5710
  416SOL     OW 1246   1.503   2.808   2.603  1.3259  0.5418 -0.0306
  416SOL    HW1 1247   1.487   2.708   2.615  1.3716  0.8762  1.4062
  416SOL    HW2 1248   1.594   2.830   2.643  1.5546 -0.2743 -0.3952
  417SOL     OW 1249   0.333   0.972   1.250 -0.3399  0.3209  0.4371
  417SOL    HW1 1250   0.315   0.987   1.151 -0.7712 -1.9310 -0.0610
  417SOL    HW2 1251   0.430   0.929   1.261  2.1899 -0.2263  0.2085
  418SOL     OW 1252   2.649   0.067   0.759 -0.0432  0.3501 -0.3029
  418SOL    HW1 1253   2.560   0.082   0.801  0.9011  1.5304  2.1098
  418SOL    HW2 1254   2.704   0.152   0.749 -1.6726  1.2859  1.6453
  419SOL     OW 1255   0.353   3.035   0.202 -0.0492 -0.0781  0.1974
  419SOL    HW1 1256   0.287   3.034   0.283  0.3895 -0.8543 -2.0111
  419SOL    HW2 1257   0.450   3.053   0.229 -1.8058  0.8161 -1.0221
  420SOL     OW 1258   0.217   1.159   1.431 -0.1842  0.3012  0.2950
  420SOL    HW1 1259   0.243   1.079   1.379 -1.4823  3.7902  1.0659
  420SOL    HW2 1260   0.156   1.142   1.514 -0.6237 -2.7781  0.2805
  421SOL     OW 1261   1.604   2.627   0.616  0.0353 -0.5847 -0.2560
  421SOL    HW1 1262   1.674   2.560   0.582  2.4646  1.0339  0.0916
  421SOL    HW2 1263   1.524   2.580   0.652  1.3993 -0.3803 -2.7666
  422SOL     OW 1264   0.195   0.426   1.528  0.0250 -0.3253 -0.1794
  422SOL    HW1 1265   0.248   0.370   1.459  3.6062 -0.2623 -1.6987
  422SOL    HW2 1266   0.107   0.454   1.490  0.4598  0.0453  2.2230
  423SOL     OW 1267   0.895   1.276   2.011 -0.2720  0.3589  0.4647
  423SOL    HW1 1268   0.925   1.238   1.922 -0.7379  0.3706  1.3514
  423SOL    HW2 1269   0.914   1.374   1.994  0.4082  2.3700 -2.0539
  424SOL     OW 1270   1.777   2.110   0.570  0.0381 -0.3258 -0.2532
  424SOL    HW1 1271   1.710   2.066   0.502 -0.2108  0.7544 -2.5178
  424SOL    HW2 1272   1.772   2.060   0.657 -0.4855  1.3057 -1.5464
  425SOL     OW 1273   2.972   2.830   2.046 -0.0475 -0.4209  0.5263
  425SOL    HW1 1274   2.871   2.813   2.055  0.3023 -2.5715  3.9997
  425SOL    HW2 1275   2.997   2.881   1.964  2.4258 -1.3656  2.0526
  426SOL     OW 1276   0.318   2.790   2.728 -0.1902 -0.1525 -0.0934
  426SOL    HW1 1277   0.331   2.807   2.830 -0.8386 -1.8800 -1.1555
  426SOL    HW2 1278   0.226   2.819   2.700 -0.2669  0.0000 -0.0935
  427SOL     OW 1279   0.913   2.978   0.299 -0.0329  0.3155 -0.2074
  427SOL    HW1 1280   0.935   3.075   0.326  2.1434  2.2148  1.5668
  427SOL    HW2 1281   0.858   2.975   0.212 -1.5324  1.3828 -0.3662
  428SOL     OW 1282   2.817   0.483   1.531 -0.1958  0.8495  0.0325
  428SOL    HW1 1283   2.815   0.391   1.573 -3.1946  1.7876  0.0092
  428SOL    HW2 1284   2.745   0.479   1.461 -0.9441 -1.0033  0.9544
  429SOL     OW 1285   1.973   2.974   0.507  0.7383  0.2871  0.0994
  429SOL    HW1 1286   1.937   2.880   0.493  2.4287  2.5711 -0.1599
  429SOL    HW2 1287   2.067   2.979   0.462  0.3959  0.6865 -1.6327
  430SOL     OW 1288   1.012   1.480   2.663 -0.0529 -0.3189  0.2190
  430SOL    HW1 1289   1.094   1.465   2.726  0.5996 -1.2298 -1.5897
  430SOL    HW2 1290   1.033   1.536   2.582 -1.2754  0.0683 -1.1378
  431SOL     OW 1291   2.810   2.237   1.167 -0.1324  0.3318 -0.5540
  431SOL    HW1 1292   2.911   2.252   1.147 -0.5294  0.5456 -1.5040
  431SOL    HW2 1293   2.773   2.164   1.106 -0.7615  1.8544  0.5960
  432SOL     OW 1294   1.526   2.374   2.782  0.2035  0.0767 -0.2998
  432SOL    HW1 1295   1.627   2.387   2.764 -0.9008  2.2388  0.0306
  432SOL    HW2 1296   1.499   2.292   2.835 -2.8353  1.0105 -1.2974
  433SOL     OW 1297   1.332   0.491   2.492 -0.1594 -0.3024  0.3704
  433SOL    HW1 1298   1.244   0.536   2.459  0.5545  1.1726 -0.4935
  433SOL    HW2 1299   1.378   0.550   2.560  1.6556  0.4776 -0.7820
  434SOL     OW 1300   1.286   2.737   2.085  0.5576 -0.0328 -0.2805
  434SOL    HW1 1301   1.311   2.740   2.182  0.4822 -0.2360 -0.0652
  434SOL    HW2 1302   1.296   2.642   2.053 -0.8543 -0.7284 -0.0788
  435SOL     OW 1303   0.291   0.054   3.044  0.1488  0.1996  0.5093
  435SOL    HW1 1304   0.309   0.041   0.057  1.2626 -2.2975  2.1981
  435SOL    HW2 1305   0.211   0.110   3.026  0.3614  2.0951  1.4798
  436SOL     OW 1306   0.546   1.408   2.420 -0.8985  0.3640 -0.4220
  436SOL    HW1 1307   0.468   1.345   2.444 -2.7289  0.5250  2.2521
  436SOL    HW2 1308   0.579   1.398   2.326 -0.2827 -0.0450  2.6696
  437SOL     OW 1309   1.181   2.447   2.547 -0.2347 -0.1830  0.2833
  437SOL    HW1 1310   1.215   2.409   2.455  0.2897 -0.3013 -2.6668
  437SOL    HW2 1311   1.096   2.511   2.540 -0.5397  1.5716 -1.8684
  438SOL     OW 1312   0.681   0.787   0.521  0.2570  0.7276 -0.4788
  438SOL    HW1 1313   0.647   0.701   0.565  0.9945  2.4635  0.9234
  438SOL    HW2 1314   0.769   0.814   0.565  1.8579  0.5354  0.9330
  439SOL     OW 1315   2.986   1.572   2.013 -0.0393  0.0074  0.4661
  439SOL    HW1 1316   2.940   1.504   2.076 -1.2421 -0.5562 -2.0961
  439SOL    HW2 1317   2.928   1.658   2.015  0.8955 -2.6621 -2.5304
  440SOL     OW 1318   2.901   0.628   2.780 -0.1266 -0.4534 -0.2354
  440SOL    HW1 1319   2.867   0.576   2.701 -0.0940 -0.7169 -1.1104
  440SOL    HW2 1320   2.884   0.725   2.757 -0.2658 -0.2505 -0.9926
  441SOL     OW 1321   0.598   1.758   1.508  0.3691 -0.0573 -0.1041
  441SOL    HW1 1322   0.503   1.766   1.548  1.6654 -1.1179  0.2671
  441SOL    HW2 1323   0.666   1.822   1.550  2.2299 -0.0064  0.4232
  442SOL     OW 1324   1.978   1.524   0.782 -0.2393  0.5291  0.3292
  442SOL    HW1 1325   1.987   1.535   0.681  0.5017  1.4421  0.1279
  442SOL    HW2 1326   1.892   1.549   0.830  1.8218 -1.0749  0.5591
  443SOL     OW 1327   2.476   2.041   2.949  0.4035  0.3154 -0.4465
  443SOL    HW1 1328   2.399   1.990   2.903  1.6940  0.1921 -0.1918
  443SOL    HW2 1329   2.563   1.993   2.934 -0.1777  0.3755  1.0507
  444SOL     OW 1330   1.662   1.457   2.960  0.1990 -0.1766 -0.4088
  444SOL    HW1 1331   1.632   1.551   2.987 -1.3266  3.0454 -1.2059
  444SOL    HW2 1332   1.674   1.456   2.855 -1.7691 -1.6476 -2.3224
  445SOL     OW 1333   0.438   2.249   2.031 -0.5786  0.0326  0.0271
  445SOL    HW1 1334   0.496   2.330   2.042  0.7371  0.0296 -2.7120
  445SOL    HW2 1335   0.372   2.243   2.110  0.9711 -1.1466  0.2312
  446SOL     OW 1336   0.904   0.926   1.886 -0.3552  0.6019  0.3040
  446SOL    HW1 1337   0.969   0.856   1.927  3.0351 -4.2121 -0.8939
  446SOL    HW2 1338   0.848   0.965   1.958 -0.4612 -0.3734  0.5595
  447SOL     OW 1339   1.155   0.645   0.495  0.1509 -0.1792 -0.1707
  447SOL    HW1 1340   1.155   0.734   0.440  1.4397  0.2662  0.8423
  447SOL    HW2 1341   1.243   0.612   0.524 -0.6269  0.8580 -1.9123
  448SOL     OW 1342   1.327   1.008   2.021  0.0343  0.0446  0.0521
  448SOL    HW1 1343   1.317   1.076   1.946  0.1129  0.3043  1.0343
  448SOL    HW2 1344   1.353   0.914   1.988 -0.9622  3.6614  1.7566
  449SOL     OW 1345   0.205   1.701   2.385 -0.0119  0.2215  0.2070
  449SOL    HW1 1346   0.130   1.676   2.450 -1.8584 -1.0300  2.8436
  449SOL    HW2 1347   0.190   1.790   2.331  0.8164  4.0207 -0.1949
  450SOL     OW 1348   2.119   1.362   1.848  0.1022 -0.6777  0.0175
  450SOL    HW1 1349   2.124   1.464   1.862 -1.9561 -1.5367 -2.5279
  450SOL    HW2 1350   2.207   1.311   1.871  3.0473 -3.3616 -1.0915
  451SOL     OW 1351   2.479   1.507   1.385 -0.4938  0.0398  0.1941
  451SOL    HW1 1352   2.502   1.443   1.458 -0.8238  1.5851 -2.4879
  451SOL    HW2 1353   2.525   1.473   1.300  0.5709 -2.1581 -0.2263
  452SOL     OW 1354   0.865   0.896   1.353 -0.0655  0.4845  0.1468
  452SOL    HW1 1355   0.850   0.901   1.453  2.6744  2.9435  1.4561
  452SOL    HW2 1356   0.959   0.865   1.338 -0.5455  0.7625 -0.8453
  453SOL     OW 1357   0.265   1.994   1.096 -0.3159  0.1610 -0.2207
  453SOL    HW1 1358   0.165   2.002   1.112  1.5950  0.8996  4.0091
  453SOL    HW2 1359   0.293   2.034   1.002  0.3455  1.7423 -1.8956
  454SOL     OW 1360   1.244   1.345   0.273 -0.4224  0.1958  0.3179
  454SOL    HW1 1361   1.345   1.339   0.253  0.9023  0.0728  0.6503
  454SOL    HW2 1362   1.214   1.276   0.337 -0.9017 -1.9992 -0.3055
  455SOL     OW 1363   1.847   0.354   0.942  0.4036 -0.1220 -0.0916
  455SOL    HW1 1364   1.867   0.285   0.872 -2.9477  2.6808  1.7713
  455SOL    HW2 1365   1.857   0.447   0.901  3.3990  3.0452  0.5588
  456SOL     OW 1366   1.723   2.888   0.263 -0.1374 -0.1985  0.6151
  456SOL    HW1 1367   1.675   2.798   0.271 -2.6574  0.4349  1.5424
  456SOL    HW2 1368   1.659   2.961   0.290  2.9185 -1.1687  0.2759
  457SOL     OW 1369   2.042   1.167   2.007  0.3664  0.3134  0.2839
  457SOL    HW1 1370   2.057   1.240   1.935 -0.2111  0.8982  0.7371
  457SOL    HW2 1371   2.084   1.192   2.095 -2.0568  1.1891  0.8006
  458SOL     OW 1372   2.521   0.478   2.403  0.1721 -0.7586 -0.4513
  458SOL    HW1 1373   2.432   0.510   2.433 -0.7600 -1.3872 -0.8815
  458SOL    HW2 1374   2.570   0.550   2.346 -0.3372  1.5785  2.6838
  459SOL     OW 1375   2.470   1.473   2.303 -0.4694  0.3685 -0.1827
  459SOL    HW1 1376   2.538   1.506   2.230 -1.8272 -2.3764  2.6299
  459SOL    HW2 1377   2.507   1.396   2.360  1.5817 -3.0428  2.6313
  460SOL     OW 1378   1.002   0.910   2.666 -0.8146  0.4563  0.7331
  460SOL    HW1 1379   1.020   0.942   2.567  0.6303  2.0352 -2.8737
  460SOL    HW2 1380   0.947   0.979   2.712 -0.2325 -1.0918 -0.6171
  461SOL     OW 1381   0.129   2.142   0.223 -0.2601  0.0207 -0.0970
  461SOL    HW1 1382   0.160   2.218   0.287  0.6548 -1.4053 -2.0866
  461SOL    HW2 1383   0.026   2.148   0.205 -1.0179  0.5877  1.6128
  462SOL     OW 1384   1.420   2.851   2.324 -0.1830 -0.5504 -0.6705
  462SOL    HW1 1385   1.439   2.813   2.415  1.1790  0.4556  1.3676
  462SOL    HW2 1386   1.474   2.938   2.311  1.5152  0.1747  0.3826
  463SOL     OW 1387   1.985   2.270   1.930  0.0314  0.1165  0.0654
  463SOL    HW1 1388   1.950   2.194   1.986 -1.2380  0.7762  0.6216
  463SOL    HW2 1389   2.051   2.232   1.863 -2.4134 -0.4585  0.7909
  464SOL     OW 1390   2.562   2.388   0.716  0.6551  0.2500  0.1496
  464SOL    HW1 1391   2.461   2.374   0.710 -2.5716  1.1774 -0.4360
  464SOL    HW2 1392   2.590   2.480   0.754  1.3274  2.6600  1.8407
  465SOL     OW 1393   3.064   0.168   1.510 -0.0332 -0.1791 -0.0795
  465SOL    HW1 1394   0.040   0.127   1.438 -2.4089  0.4363 -3.0390
  465SOL    HW2 1395   0.029   0.203   1.592  3.3297  2.0645  1.3683
  466SOL     OW 1396   1.398   2.566   2.649 -0.5911 -0.2470 -0.0874
  466SOL    HW1 1397   1.436   2.491   2.701  0.1274  0.3277  2.2022
  466SOL    HW2 1398   1.314   2.539   2.598 -0.8649 -2.6686 -1.8150
  467SOL     OW 1399   2.938   2.137   0.216 -0.1614 -0.0520  0.1446
  467SOL    HW1 1400   2.892   2.070   0.157  0.6656 -1.1389  0.8938
  467SOL    HW2 1401   2.907   2.229   0.191 -3.4708 -0.4247 -1.1163
  468SOL     OW 1402   2.262   2.216   2.807 -0.0103  0.0250  0.3684
  468SOL    HW1 1403   2.194   2.204   2.732 -1.6700  1.2762  3.2867
  468SOL    HW2 1404   2.317   2.133   2.823  0.6657 -0.5786 -1.5585
  469SOL     OW 1405   0.678   1.929   0.781 -0.5893  0.5535  0.6165
  469SOL    HW1 1406   0.672   1.945   0.880 -0.5181 -0.9489  2.1763
  469SOL    HW2 1407   0.758   1.969   0.733 -1.5277 -1.2683  0.7374
  470SOL     OW 1408   1.888   0.647   0.852  0.4133 -0.7774  0.1685
  470SOL    HW1 1409   1.987   0.653   0.826  1.3972 -2.7909 -0.9352
  470SOL    HW2 1410   1.859   0.722   0.918  0.5333 -0.3973 -2.3417
  471SOL     OW 1411   0.356   1.735   0.505 -0.1887  0.5905 -0.5208
  471SOL    HW1 1412   0.359   1.685   0.418  1.7219 -0.7261  0.7352
  471SOL    HW2 1413   0.328   1.830   0.483 -0.1277 -1.0423  1.3987
  472SOL     OW 1414   2.756   2.013   2.876 -0.1046 -0.1458 -0.0699
  472SOL    HW1 1415   2.798   2.093   2.916 -1.7657 -1.3876 -1.2137
  472SOL    HW2 1416   2.740   2.020   2.777 -0.0908 -0.3654  0.5328
  473SOL     OW 1417   1.409   1.873   0.730 -0.5181 -0.1307  0.3050
  473SOL    HW1 1418   1.427   1.967   0.764  1.7265 -0.6272 -0.0005
  473SOL    HW2 1419   1.469   1.855   0.650  0.0764 -0.8254 -0.3794
  474SOL     OW 1420   2.805   0.440   1.139  0.6540  0.0378  0.3111
  474SOL    HW1 1421   2.816   0.443   1.041 -0.4120  1.4053 -0.8352
  474SOL    HW2 1422   2.883   0.388   1.186  0.6747  1.3061 -0.5650
  475SOL     OW 1423   2.992   3.026   1.839 -0.1444  0.2136 -0.5553
  475SOL    HW1 1424   3.004   3.020   1.737 -1.4904 -1.6597 -1.7575
  475SOL    HW2 1425   2.905   3.073   1.868 -3.0247 -0.6027  0.8469
  476SOL     OW 1426   0.598   0.257   0.896  0.4853  1.1744 -0.6865
  476SOL    HW1 1427   0.676   0.322   0.885 -0.9520 -1.9929  0.6141
  476SOL    HW2 1428   0.561   0.229   0.804 -1.0309  0.7296 -1.5228
  477SOL     OW 1429   1.194   2.448   1.145  0.4010  0.6461  0.0944
  477SOL    HW1 1430   1.154   2.483   1.229  1.5486 -0.1805  1.3657
  477SOL    HW2 1431   1.265   2.376   1.164 -0.3283  1.6033 -0.1872
  478SOL     OW 1432   1.211   2.625   0.042 -0.1337  0.3844 -0.2270
  478SOL    HW1 1433   1.217   2.656   3.033 -2.4630 -1.0426 -0.7821
  478SOL    HW2 1434   1.251   2.691   0.109  1.9075  3.0439  0.5566
  479SOL     OW 1435   2.396   1.252   1.905 -0.5905 -0.6093  0.0060
  479SOL    HW1 1436   2.377   1.182   1.979 -0.3969 -2.0751 -0.0547
  479SOL    HW2 1437   2.470   1.203   1.850  1.7938 -0.7844 -1.8822
  480SOL     OW 1438   2.759   2.350   2.758  0.3499  0.0571 -0.2282
  480SOL    HW1 1439   2.811   2.281   2.697  1.0656 -0.3676 -1.6848
  480SOL    HW2 1440   2.664   2.367   2.736  1.0654 -2.0527 -0.1261
  481SOL     OW 1441   1.654   2.839   1.658  0.2496 -0.1017  0.3263
  481SOL    HW1 1442   1.726   2.782   1.697 -4.0513  2.7335 -2.3890
  481SOL    HW2 1443   1.647   2.814   1.558 -0.9261  0.8922 -3.1228
  482SOL     OW 1444   1.648   2.294   2.428  0.1934  0.2454 -0.1966
  482SOL    HW1 1445   1.720   2.273   2.363 -0.7873  0.2269 -0.1494
  482SOL    HW2 1446   1.585   2.366   2.397  1.0859  3.0464  0.9735
  483SOL     OW 1447   1.240   2.703   2.870 -0.3570  0.5880 -0.5464
  483SOL    HW1 1448   1.143   2.716   2.836  0.9808 -0.5751  0.8985
  483SOL    HW2 1449   1.299   2.677   2.789  0.1246 -0.4112 -2.1537
  484SOL     OW 1450   2.474   2.963   1.665 -0.6049 -0.0590  0.1679
  484SOL    HW1 1451   2.372   2.969   1.670 -2.0478 -0.9218  0.7367
  484SOL    HW2 1452   2.513   2.872   1.639 -0.8432 -2.1878 -1.8205
  485SOL     OW 1453   2.138   0.558   0.494  0.6828  0.1162 -0.0353
  485SOL    HW1 1454   2.196   0.614   0.426  2.0348  0.8544  2.4996
  485SOL    HW2 1455   2.042   0.538   0.453  0.3198  2.1998 -3.8821
  486SOL     OW 1456   2.450   2.737   2.451  0.0840  0.1806  0.7571
  486SOL    HW1 1457   2.464   2.810   2.517  0.3720  0.1076  0.2716
  486SOL    HW2 1458   2.433   2.652   2.507 -1.2263  0.7418 -2.2698
  487SOL     OW 1459   1.312   0.858   0.784  0.4682 -0.8158 -0.2095
  487SOL    HW1 1460   1.218   0.898   0.758 -0.9343  2.7894  1.2265
  487SOL    HW2 1461   1.337   0.896   0.873  0.0068  0.1308 -1.3430
  488SOL     OW 1462   2.756   2.947   2.309 -0.3225 -0.6400 -0.1011
  488SOL    HW1 1463   2.758   2.893   2.223  0.0994 -0.2561  0.1039
  488SOL    HW2 1464   2.673   3.010   2.306 -2.5109  1.9676  0.5291
  489SOL     OW 1465   1.218   2.670   0.438  0.0127 -0.0197  0.2357
  489SOL    HW1 1466   1.217   2.751   0.499  0.8288  1.9993  0.4211
  489SOL    HW2 1467   1.151   2.596   0.458 -0.0517  0.2960  0.1686
  490SOL     OW 1468   1.616   0.590   3.054 -0.0244 -0.0992 -0.3131
  490SOL    HW1 1469   1.647   0.588   2.957  0.5410 -1.5181  0.7841
  490SOL    HW2 1470   1.533   0.647   3.063  0.9259 -1.2084  0.7015
  491SOL     OW 1471   0.872   3.020   1.199  0.3063 -0.2115 -0.1698
  491SOL    HW1 1472   0.814   3.081   1.143  0.0010  0.8542  1.6712
  491SOL    HW2 1473   0.834   3.011   1.294 -0.0988 -1.7157 -0.4755
  492SOL     OW 1474   1.585   2.660   0.304 -0.2008 -0.7779  0.1685
  492SOL    HW1 1475   1.544   2.569   0.336  0.8271 -0.3061  0.1566
  492SOL    HW2 1476   1.515   2.720   0.252 -1.6837  1.7481  0.8519
  493SOL     OW 1477   1.047   1.943   2.985  0.3504 -0.2168  0.0619
  493SOL    HW1 1478   1.107   1.910   2.908 -0.8078 -2.2027 -1.4898
  493SOL    HW2 1479   1.012   2.037   2.958 -2.7636  2.6536  2.5857
  494SOL     OW 1480   0.918   0.543   0.527 -0.1914 -0.1582  0.6201
  494SOL    HW1 1481   0.850   0.572   0.453 -0.9807  1.2739 -1.5756
  494SOL    HW2 1482   1.014   0.579   0.515  0.1206  0.7475  0.0577
  495SOL     OW 1483   2.783   0.115   1.868  0.5607  0.3002 -0.5950
  495SOL    HW1 1484   2.791   0.140   1.767  1.4291  1.1736 -2.6387
  495SOL    HW2 1485   2.801   0.187   1.938 -2.9362 -0.1544 -0.1991
  496SOL     OW 1486   2.355   2.059   2.512 -0.2526  0.1217  0.3544
  496SOL    HW1 1487   2.362   2.128   2.435  0.9186  0.4587  0.9087
  496SOL    HW2 1488   2.397   1.972   2.493  0.4107  1.7601  1.0085
  497SOL     OW 1489   1.523   1.402   2.550  0.1831 -0.2062  0.1556
  497SOL    HW1 1490   1.623   1.440   2.568  1.6168 -0.4853  2.1057
  497SOL    HW2 1491   1.473   1.396   2.640 -3.1070  1.7421  2.4448
  498SOL     OW 1492   0.730   2.619   1.153 -0.4557  0.4933 -0.3756
  498SOL    HW1 1493   0.673   2.632   1.068  1.9160 -1.3568 -3.4884
  498SOL    HW2 1494   0.686   2.539   1.204  1.6134 -0.2093  0.9332
  499SOL     OW 1495   0.012   1.989   1.106  0.7386  0.5257  0.2706
  499SOL    HW1 1496   3.020   2.026   1.051  1.5002  1.2846 -2.1820
  499SOL    HW2 1497   3.077   1.915   1.169 -1.1037  0.8506  1.0680
  500SOL     OW 1498   0.633   2.623   2.845 -0.1861 -0.3004 -0.1999
  500SOL    HW1 1499   0.551   2.568   2.818 -1.5967 -1.0773 -1.6052
  500SOL    HW2 1500   0.666   2.681   2.770 -0.5081 -0.5881 -0.3481
  501SOL     OW 1501   1.567   0.020   0.124 -0.5710 -0.7132 -0.4838
  501SOL    HW1 1502   1.534   3.040   0.057 -0.3078  0.5193  2.0442
  501SOL    HW2 1503   1.496   0.044   0.191 -1.3818  1.1874 -2.5518
  502SOL     OW 1504   3.076   0.154   0.732 -0.0341 -0.1696  0.0662
  502SOL    HW1 1505   3.059   0.248   0.697 -1.8713 -0.0438  3.1383
  502SOL    HW2 1506   0.059   0.156   0.808 -1.6606 -0.1134  0.1399
  503SOL     OW 1507   1.998   0.013   2.220  0.2766  0.1102  0.2445
  503SOL    HW1 1508   2.059   0.019   2.298  0.1508  0.8585 -3.9371
  503SOL    HW2 1509   1.970   3.006   2.203 -1.4422 -0.4541 -1.7719
  504SOL     OW 1510   2.426   1.511   1.792  0.2575 -0.2581  0.0875
  504SOL    HW1 1511   2.527   1.540   1.803  2.4602  3.0840  2.0012
  504SOL    HW2 1512   2.400   1.430   1.845  1.0540  2.7246 -0.3177
  505SOL     OW 1513   1.765   2.903   2.174 -0.2744  0.2350 -0.2527
  505SOL    HW1 1514   1.767   2.991   2.228  0.4663  0.9783  2.7555
  505SOL    HW2 1515   1.678   2.896   2.123 -0.2378  0.8393  1.4955
  506SOL     OW 1516   0.165   0.689   2.099 -0.1788 -0.1281 -0.5214
  506SOL    HW1 1517   0.148   0.598   2.068  1.8142  1.7245 -0.5337
  506SOL    HW2 1518   0.226   0.690   2.180 -2.7322  0.1409 -2.1398
  507SOL     OW 1519   1.884   0.490   0.426 -0.4041 -0.0945 -0.2335
  507SOL    HW1 1520   1.805   0.560   0.413 -1.1128  1.8095  1.1747
  507SOL    HW2 1521   1.855   0.404   0.466 -0.4677 -0.0360  0.1790
  508SOL     OW 1522   2.070   0.546   1.860  0.3792  0.1090 -0.5262
  508SOL    HW1 1523   2.043   0.513   1.771  0.7914  0.7043  0.4305
  508SOL    HW2 1524   2.161   0.593   1.858 -0.6610 -1.5716  1.0830
  509SOL     OW 1525   0.609   1.709   3.041  0.3105  0.3129  0.1860
  509SOL    HW1 1526   0.607   1.682   0.052 -2.1425  1.0099  1.4716
  509SOL    HW2 1527   0.694   1.664   2.995  1.4003 -1.8676  2.3134
  510SOL     OW 1528   0.258   0.905   0.960  0.2608  0.1736 -0.0711
  510SOL    HW1 1529   0.180   0.888   0.893  2.6069  0.8818 -4.2358
  510SOL    HW2 1530   0.320   0.982   0.926  2.0327  0.5317  1.2216
  511SOL     OW 1531   1.496   1.097   1.186 -0.3839  0.1706  0.4832
  511SOL    HW1 1532   1.587   1.052   1.195  0.1408 -1.9544  0.8084
  511SOL    HW2 1533   1.498   1.174   1.117 -0.9653 -5.4280  0.2110
  512SOL     OW 1534   0.277   2.119   0.831 -0.1949 -0.3262 -0.3489
  512SOL    HW1 1535   0.179   2.110   0.819 -0.9757  1.3077  0.8974
  512SOL    HW2 1536   0.328   2.098   0.741 -0.4461 -0.7421 -3.9443
  513SOL     OW 1537   0.126   2.606   0.811 -0.2313  0.0085  0.0342
  513SOL    HW1 1538   0.040   2.544   0.811 -0.2263  0.3223  0.6900
  513SOL    HW2 1539   0.094   2.692   0.850  0.2032 -0.2605 -0.3066
  514SOL     OW 1540   0.483   2.022   0.611 -0.4726 -0.0445  0.0025
  514SOL    HW1 1541   0.529   2.077   0.530  1.0642  0.9429 -1.1521
  514SOL    HW2 1542   0.561   2.003   0.678  0.3302  2.7143  0.8364
  515SOL     OW 1543   2.982   0.288   2.984 -0.2953  0.4128  0.3615
  515SOL    HW1 1544   2.902   0.257   3.035  3.2501  0.3039 -1.8549
  515SOL    HW2 1545   3.025   0.374   3.008  2.0056 -0.4275 -0.0188
  516SOL     OW 1546   2.226   2.987   1.329 -0.2075  0.5659  0.5003
  516SOL    HW1 1547   2.147   2.944   1.380 -2.7659 -1.6743 -0.2307
  516SOL    HW2 1548   2.189   3.027   1.242 -1.8587  1.4441  0.7782
  517SOL     OW 1549   1.688   1.609   0.774 -0.3235 -0.3124  0.0248
  517SOL    HW1 1550   1.752   1.670   0.718  2.2674  0.9266  0.2905
  517SOL    HW2 1551   1.643   1.656   0.854 -1.5188 -3.7603 -1.2525
  518SOL     OW 1552   1.753   2.764   0.829  0.0571  0.1131 -0.1079
  518SOL    HW1 1553   1.741   2.718   0.917  0.5904  0.9476  0.8202
  518SOL    HW2 1554   1.695   2.723   0.755 -0.4580 -1.2951 -0.8907
  519SOL     OW 1555   3.030   2.628   3.051 -0.6610  0.2411 -0.4811
  519SOL    HW1 1556   0.029   2.640   0.013 -0.9018 -0.0422 -0.0649
  519SOL    HW2 1557   3.035   2.665   2.952  0.0023 -0.1499 -3.8945
  520SOL     OW 1558   2.245   1.743   2.117 -0.0493  0.1149 -0.1569
  520SOL    HW1 1559   2.224   1.828   2.159  1.0191 -2.9167 -2.8416
  520SOL    HW2 1560   2.197   1.662   2.155  0.2413 -0.6220  0.7109
  521SOL     OW 1561   1.488   3.031   1.830 -1.1118 -0.1402 -0.0314
  521SOL    HW1 1562   1.546   2.967   1.776  1.0826 -0.8083  0.5078
  521SOL    HW2 1563   1.389   3.014   1.827 -0.7356  1.3358  1.4943
  522SOL     OW 1564   0.279   2.527   1.859  0.2596 -0.2378 -0.1324
  522SOL    HW1 1565   0.234   2.502   1.947 -2.6155 -0.3776 -1.1737
  522SOL    HW2 1566   0.240   2.614   1.824 -0.1544 -0.3421  2.3075
  523SOL     OW 1567   0.841   2.335   2.070  0.6139 -0.2377 -0.4239
  523SOL    HW1 1568   0.755   2.389   2.064 -0.4281  0.0060  1.1709
  523SOL    HW2 1569   0.917   2.387   2.120  1.1559 -1.1661  1.6233
  524SOL     OW 1570   2.148   2.283   0.367  0.1860 -0.4263  0.4263
  524SOL    HW1 1571   2.153   2.190   0.321 -1.6852  0.6392 -0.9684
  524SOL    HW2 1572   2.107   2.283   0.463  0.8252  1.2341 -0.8284
  525SOL     OW 1573   2.716   0.760   2.511 -0.5706 -0.0828 -0.2815
  525SOL    HW1 1574   2.776   0.675   2.512  1.0022 -2.8890 -0.6946
  525SOL    HW2 1575   2.639   0.761   2.581 -1.7232  0.0548  0.5733
  526SOL     OW 1576   0.280   2.428   0.680  0.2197 -0.2575 -0.2550
  526SOL    HW1 1577   0.379   2.451   0.668 -0.5902  1.1058  0.2496
  526SOL    HW2 1578   0.232   2.498   0.742 -0.0170 -0.9464  4.1001
  527SOL     OW 1579   2.880   0.947   0.853  0.1638 -0.2075 -0.0159
  527SOL    HW1 1580   2.814   0.998   0.793 -0.6871 -0.2529 -2.8449
  527SOL    HW2 1581   2.831   0.885   0.919  2.6918  1.4167  1.6310
  528SOL     OW 1582   0.926   1.263   2.290  0.4396  0.6041  0.1457
  528SOL    HW1 1583   0.925   1.282   2.191 -1.2856  2.9232  2.7832
  528SOL    HW2 1584   0.877   1.343   2.330 -1.9844  2.0365  0.2939
  529SOL     OW 1585   0.895   1.328   0.482  0.0168  0.3688 -0.2115
  529SOL    HW1 1586   0.993   1.298   0.493  3.1388 -1.1576  0.1647
  529SOL    HW2 1587   0.850   1.264   0.417  1.2789  0.4592 -0.1378
  530SOL     OW 1588   1.396   0.458   1.589  0.2406 -0.2614 -0.3062
  530SOL    HW1 1589   1.436   0.546   1.565 -2.1693 -2.8325 -0.6678
  530SOL    HW2 1590   1.457   0.415   1.663 -0.1647 -0.2638  2.2240
  531SOL     OW 1591   1.094   2.165   0.246 -0.2049  0.1754  0.0905
  531SOL    HW1 1592   1.057   2.203   0.159 -0.0181  2.8235 -0.2729
  531SOL    HW2 1593   1.179   2.212   0.278  3.0136  0.4981 -0.0176
  532SOL     OW 1594   2.698   1.017   2.471  0.0116 -0.5336 -0.5472
  532SOL    HW1 1595   2.727   0.917   2.475  2.9395  1.5108 -2.5342
  532SOL    HW2 1596   2.732   1.055   2.379  0.0275 -0.4422 -3.3106
  533SOL     OW 1597   0.102   0.261   2.168  0.6685 -0.1117  0.4479
  533SOL    HW1 1598   0.019   0.268   2.231  0.3356 -0.2997  0.3793
  533SOL    HW2 1599   0.096   0.197   2.089  0.6877  0.2654  0.5590
  534SOL     OW 1600   2.244   0.219   2.834 -0.2165 -0.1698  0.0960
  534SOL    HW1 1601   2.342   0.234   2.866  2.3158  0.9390  3.6196
  534SOL    HW2 1602   2.240   0.181   2.736 -0.2167 -0.5872 -1.5743
  535SOL     OW 1603   0.440   0.462   0.059  0.0098  0.3654  0.3746
  535SOL    HW1 1604   0.466   0.410   0.139 -1.5708 -3.2545 -3.1682
  535SOL    HW2 1605   0.395   0.401   3.079 -0.2585 -0.3024  0.0832
  536SOL     OW 1606   1.103   2.041   1.103  0.2488  0.4085  0.5386
  536SOL    HW1 1607   1.059   1.995   1.183 -1.8058 -0.3788 -0.5869
  536SOL    HW2 1608   1.054   2.128   1.086  2.1957 -2.9244  0.9480
  537SOL     OW 1609   2.896   2.520   1.501  0.2212 -0.6655  0.4544
  537SOL    HW1 1610   2.889   2.605   1.560 -0.5461 -0.1967 -0.7931
  537SOL    HW2 1611   2.827   2.450   1.536  0.0099 -0.7408  0.6975
  538SOL     OW 1612   0.534   2.447   0.671  0.5373 -0.4688 -0.0423
  538SOL    HW1 1613   0.594   2.380   0.718  0.3941  1.3497  0.4936
  538SOL    HW2 1614   0.593   2.505   0.608 -0.7180 -0.5846  0.6388
  539SOL     OW 1615   1.793   1.342   2.442  0.6870  0.2268 -0.0424
  539SOL    HW1 1616   1.729   1.313   2.365 -3.7516  0.6923 -3.2213
  539SOL    HW2 1617   1.854   1.408   2.392 -0.8853 -2.2795  0.0078
  540SOL     OW 1618   1.770   0.572   2.825  0.7305  0.0286  0.1063
  540SOL    HW1 1619   1.764   0.474   2.791  0.1156 -0.8248  0.1397
  540SOL    HW2 1620   1.856   0.596   2.876 -1.5167  0.1082 -0.8187
  541SOL     OW 1621   0.980   1.055   2.440  0.1594  0.3465 -0.5501
  541SOL    HW1 1622   0.922   0.995   2.387  2.8165  1.6130  4.2096
  541SOL    HW2 1623   0.972   1.146   2.395 -3.3973 -0.3688  1.0688
  542SOL     OW 1624   1.307   2.489   1.932  0.2523 -0.6755  0.0757
  542SOL    HW1 1625   1.261   2.416   1.884  1.3720  4.6424  2.9095
  542SOL    HW2 1626   1.363   2.550   1.874 -0.0289 -0.2936 -0.5455
  543SOL     OW 1627   0.581   2.763   0.014  0.2253 -0.2455  0.2894
  543SOL    HW1 1628   0.608   2.705   3.021  2.1732 -1.3427 -1.2787
  543SOL    HW2 1629   0.477   2.780   3.086 -2.3393  1.3654 -1.4312
  544SOL     OW 1630   3.040   2.178   2.192 -0.1662  0.0220  0.0163
  544SOL    HW1 1631   0.001   2.266   2.213 -1.2889  0.9000  2.3064
  544SOL    HW2 1632   2.943   2.180   2.231 -2.4116 -1.2774  0.1189
  545SOL     OW 1633   1.459   1.847   1.684 -0.6994 -0.0741  0.0490
  545SOL    HW1 1634   1.421   1.870   1.593  1.3731 -2.0289 -1.0461
  545SOL    HW2 1635   1.380   1.843   1.752 -0.1754 -2.3520 -0.1577
  546SOL     OW 1636   2.859   0.514   2.519 -0.2663 -0.2710  0.1740
  546SOL    HW1 1637   2.830   0.422   2.480 -0.8459 -2.0659 -2.5812
  546SOL    HW2 1638   2.951   0.540   2.492  0.4380 -0.8037  1.9263
  547SOL     OW 1639   1.733   3.055   0.843 -0.1694 -0.4895  0.4561
  547SOL    HW1 1640   1.702   0.003   0.933  1.5967  0.4039 -0.8724
  547SOL    HW2 1641   1.752   2.955   0.856 -0.3234 -1.3815  1.6362
  548SOL     OW 1642   1.263   2.106   3.083 -0.3865 -0.1909  0.5600
  548SOL    HW1 1643   1.186   2.046   3.069  3.2174 -0.5958  1.6048
  548SOL    HW2 1644   1.239   2.205   0.012 -1.5617 -0.2246  0.0922
  549SOL     OW 1645   1.967   0.426   0.063  0.5890 -0.2314  0.3475
  549SOL    HW1 1646   2.039   0.438   0.132  0.3110  0.5805  1.5048
  549SOL    HW2 1647   1.985   0.478   3.064 -0.9098  1.8703  0.7414
  550SOL     OW 1648   2.488   1.887   0.816  0.1931  0.0711  0.1987
  550SOL    HW1 1649   2.430   1.959   0.774  0.2040  0.5595  0.2733
  550SOL    HW2 1650   2.526   1.826   0.740 -0.5940 -0.5827  3.2892
  551SOL     OW 1651   1.113   0.081   1.241  0.2321 -0.4798 -0.0925
  551SOL    HW1 1652   1.087   0.159   1.307 -1.6844  1.7947 -0.6173
  551SOL    HW2 1653   1.029   0.030   1.214  0.1846 -1.6133  1.7311
  552SOL     OW 1654   0.273   1.689   2.735 -0.2332  0.2591  0.5377
  552SOL    HW1 1655   0.338   1.664   2.664 -3.6537  3.1652  0.4060
  552SOL    HW2 1656   0.280   1.626   2.817  1.1575 -0.4521  4.2953
  553SOL     OW 1657   2.569   2.366   3.068 -0.2251 -0.1178 -0.3103
  553SOL    HW1 1658   2.668   2.366   3.070 -2.4426  2.0185  0.2031
  553SOL    HW2 1659   2.528   2.390   0.070 -3.7184  1.9913 -1.8541
  554SOL     OW 1660   2.005   1.558   1.462 -0.0052  0.1657 -0.1853
  554SOL    HW1 1661   2.094   1.589   1.509  0.7421 -0.4248  2.8084
  554SOL    HW2 1662   1.955   1.487   1.516  1.8260  0.5790 -2.1092
  555SOL     OW 1663   0.618   2.510   2.535 -0.1729  0.5693 -0.1256
  555SOL    HW1 1664   0.590   2.425   2.592 -1.3289 -1.8650  2.2124
  555SOL    HW2 1665   0.546   2.541   2.465 -0.3034 -0.3677  1.2393
  556SOL     OW 1666   1.320   1.107   1.396 -0.0619 -0.4867 -0.0276
  556SOL    HW1 1667   1.377   1.104   1.312  0.8649 -1.0713  0.8411
  556SOL    HW2 1668   1.292   1.202   1.420 -2.8247 -0.1647  0.8628
  557SOL     OW 1669   1.401   2.829   1.213 -1.0688  0.0583  0.1504
  557SOL    HW1 1670   1.360   2.760   1.151  0.9516  0.1738 -1.2449
  557SOL    HW2 1671   1.332   2.866   1.277  0.2021 -2.0996 -1.1089
  558SOL     OW 1672   0.521   0.788   2.401 -0.5446  0.0597  0.1348
  558SOL    HW1 1673   0.433   0.744   2.374  2.7954 -2.3361 -1.2641
  558SOL    HW2 1674   0.543   0.780   2.501  2.4728  0.7221 -0.6459
  559SOL     OW 1675   0.979   2.679   0.204 -0.3032  0.2603  0.1025
  559SOL    HW1 1676   0.996   2.768   0.247  1.5270  0.9906  0.7649
  559SOL    HW2 1677   1.056   2.650   0.147 -1.2741 -3.3036  4.7032
  560SOL     OW 1678   1.655   1.974   0.376  0.1302 -0.0309  0.4480
  560SOL    HW1 1679   1.742   1.938   0.333  0.7853  0.1981 -0.0654
  560SOL    HW2 1680   1.577   2.003   0.312  0.8953 -0.7804  1.7090
  561SOL     OW 1681   1.184   2.904   0.602 -0.4105  0.7062  0.8426
  561SOL    HW1 1682   1.222   2.984   0.552  0.6971 -3.4479 -0.2275
  561SOL    HW2 1683   1.164   2.927   0.700  0.8290 -1.5417 -3.0647
  562SOL     OW 1684   0.495   0.988   2.202 -0.2211 -0.2148 -0.4806
  562SOL    HW1 1685   0.583   1.029   2.175 -1.6227 -4.1654  0.3969
  562SOL    HW2 1686   0.501   0.929   2.282 -1.4064 -0.0694 -0.9573
  563SOL     OW 1687   1.137   2.027   2.307  0.3976 -0.1030 -0.3303
  563SOL    HW1 1688   1.210   2.064   2.243 -0.8041 -1.1017 -1.0586
  563SOL    HW2 1689   1.176   1.986   2.391  0.4838  0.8267  0.4779
  564SOL     OW 1690   2.443   0.672   1.263  0.2659 -0.1978 -0.7017
  564SOL    HW1 1691   2.372   0.651   1.188 -3.2659 -0.6003 -1.3881
  564SOL    HW2 1692   2.468   0.769   1.270  0.0261  2.4648 -0.0843
  565SOL     OW 1693   1.423   1.022   0.346  0.3795 -0.2902 -0.2407
  565SOL    HW1 1694   1.424   1.035   0.244  2.5664 -0.0563  0.0542
  565SOL    HW2 1695   1.502   1.065   0.389 -0.2568 -2.7832  2.3283
  566SOL     OW 1696   2.399   2.786   2.879 -0.1450 -0.3188 -0.4927
  566SOL    HW1 1697   2.458   2.705   2.892 -0.9648  1.9490 -1.1780
  566SOL    HW2 1698   2.302   2.757   2.913 -1.0657  0.4962  2.4376
  567SOL     OW 1699   1.806   0.857   1.005  0.3041  0.8809  0.4142
  567SOL    HW1 1700   1.819   0.878   1.102 -1.0728 -1.4037  0.8266
  567SOL    HW2 1701   1.707   0.837   0.982 -2.7556 -1.7059  0.1135
  568SOL     OW 1702   1.139   1.208   2.640  0.2240  0.3376  0.7691
  568SOL    HW1 1703   1.080   1.254   2.709 -1.9855  0.1094  1.9319
  568SOL    HW2 1704   1.086   1.158   2.566  1.1782 -1.4763 -2.2562
  569SOL     OW 1705   2.213   1.618   0.826  0.0144  0.0538 -0.5712
  569SOL    HW1 1706   2.119   1.578   0.798 -1.5762 -0.2713  1.2863
  569SOL    HW2 1707   2.230   1.613   0.928 -0.1359 -0.4100  0.6728
  570SOL     OW 1708   2.422   2.465   2.277  0.6433  0.3700  0.2343
  570SOL    HW1 1709   2.394   2.545   2.333 -1.4771  1.9108 -1.2280
  570SOL    HW2 1710   2.485   2.498   2.205  0.0914  0.6423  0.3468
  571SOL     OW 1711   2.977   1.927   1.724 -0.3250  0.5903 -0.0053
  571SOL    HW1 1712   2.938   1.989   1.647  1.7385  0.9298 -1.5062
  571SOL    HW2 1713   2.962   1.968   1.813 -0.5237 -0.1317 -1.1855
  572SOL     OW 1714   1.128   2.189   2.683  0.7502 -0.3584 -0.0291
  572SOL    HW1 1715   1.141   2.289   2.666  1.1763 -2.6923  1.8646
  572SOL    HW2 1716   1.212   2.135   2.665  0.2899 -1.3283 -0.1899
  573SOL     OW 1717   1.594   2.229   1.427  0.1259 -0.4077  0.3959
  573SOL    HW1 1718   1.518   2.295   1.447  1.7101 -0.2969 -0.7863
  573SOL    HW2 1719   1.667   2.232   1.502 -0.0448 -1.0439 -2.0930
  574SOL     OW 1720   1.091   2.537   1.376 -0.2635 -0.1952 -0.7250
  574SOL    HW1 1721   1.051   2.623   1.352  3.0034 -1.3188 -0.1808
  574SOL    HW2 1722   1.072   2.505   1.472  0.0902 -0.5424  3.1652
  575SOL     OW 1723   0.782   0.458   0.917 -0.1456 -0.2362  0.2435
  575SOL    HW1 1724   0.849   0.513   0.864 -1.2638  1.2319 -1.2967
  575SOL    HW2 1725   0.785   0.476   1.018 -0.3963  1.1982  1.6484
  576SOL     OW 1726   2.151   0.650   1.452 -0.1955 -0.0969 -0.3365
  576SOL    HW1 1727   2.114   0.739   1.487 -1.3496 -0.3574 -0.1182
  576SOL    HW2 1728   2.244   0.667   1.407 -0.1728 -1.2722 -1.5498
  577SOL     OW 1729   2.005   0.241   2.962 -0.4761 -0.3214  0.2240
  577SOL    HW1 1730   2.091   0.250   2.908 -2.3818  1.0560 -4.3031
  577SOL    HW2 1731   1.991   0.312   3.037 -0.9479  0.9633  0.0454
  578SOL     OW 1732   1.718   1.945   1.966  0.0415 -0.4996  0.5556
  578SOL    HW1 1733   1.673   1.852   1.974  0.5594  1.3772  0.5356
  578SOL    HW2 1734   1.722   1.976   1.866 -0.0468  1.4691 -0.8212
  579SOL     OW 1735   0.751   1.641   1.049  0.0121  0.0780 -0.0009
  579SOL    HW1 1736   0.815   1.709   1.026 -4.9105 -3.7961  1.3662
  579SOL    HW2 1737   0.718   1.592   0.967 -0.6921  0.9746  0.5066
  580SOL     OW 1738   1.389   2.915   3.009 -0.3504  0.0971  0.0454
  580SOL    HW1 1739   1.350   2.835   2.962  2.4767 -0.9607  0.1780
  580SOL    HW2 1740   1.355   2.920   0.016  0.5791 -0.5793 -0.3928
  581SOL     OW 1741   1.074   0.742   1.969  0.0673 -0.1256  0.8019
  581SOL    HW1 1742   1.054   0.653   2.010  0.1389  2.6149  0.7990
  581SOL    HW2 1743   1.160   0.732   1.915  0.5709  0.7322  0.1200
  582SOL     OW 1744   0.365   0.331   1.019 -0.0103  0.2750 -0.4908
  582SOL    HW1 1745   0.352   0.427   0.990  1.0222 -2.5192  1.3498
  582SOL    HW2 1746   0.446   0.300   0.965  0.5664  1.1061 -1.6704
  583SOL     OW 1747   0.858   1.876   1.905 -0.0632  0.0382  0.2783
  583SOL    HW1 1748   0.768   1.826   1.916 -0.9794 -0.0099  0.9209
  583SOL    HW2 1749   0.925   1.832   1.970 -0.5943  0.8436  0.5903
  584SOL     OW 1750   2.549   2.488   0.217  0.0054 -0.2211  0.1687
  584SOL    HW1 1751   2.648   2.504   0.234  2.3078  0.9596  0.9057
  584SOL    HW2 1752   2.495   2.563   0.263 -1.6235 -0.2415  1.0532
  585SOL     OW 1753   2.295   0.499   2.794 -0.4656  0.3297  0.1116
  585SOL    HW1 1754   2.318   0.491   2.891 -0.0362  2.4411 -1.5026
  585SOL    HW2 1755   2.220   0.437   2.763 -2.0876 -1.4811 -1.1904
  586SOL     OW 1756   0.448   1.318   0.414  0.0014  0.5750  0.0314
  586SOL    HW1 1757   0.527   1.387   0.433  3.1723  1.7179  0.3558
  586SOL    HW2 1758   0.362   1.371   0.415 -0.7927  1.7232  0.5333
  587SOL     OW 1759   1.635   2.060   1.102  0.2841  0.4579  0.2146
  587SOL    HW1 1760   1.709   1.983   1.117  1.3932  0.7114 -0.4275
  587SOL    HW2 1761   1.542   2.023   1.129  1.4610 -2.2841  3.6645
  588SOL     OW 1762   0.560   0.590   1.279 -0.0394  0.2102 -0.1805
  588SOL    HW1 1763   0.643   0.549   1.239  0.9720  0.2669  2.4998
  588SOL    HW2 1764   0.474   0.586   1.221 -1.0707 -0.9288  0.2243
  589SOL     OW 1765   2.014   2.899   0.780  0.4244 -0.5952 -0.4131
  589SOL    HW1 1766   2.000   2.934   0.686 -1.5806 -1.7831 -3.4283
  589SOL    HW2 1767   1.935   2.835   0.798 -0.6441 -1.8605  1.9699
  590SOL     OW 1768   1.686   1.135   0.360 -0.5164  0.1668 -0.2381
  590SOL    HW1 1769   1.777   1.099   0.328  0.5392  2.0687  0.2908
  590SOL    HW2 1770   1.647   1.199   0.295  0.4975  0.0587 -1.4555
  591SOL     OW 1771   2.205   2.130   1.842 -0.1320  0.2134 -0.0306
  591SOL    HW1 1772   2.207   2.028   1.863 -1.3752 -4.1412  0.3053
  591SOL    HW2 1773   2.224   2.193   1.922  1.6723 -0.0221 -2.2396
  592SOL     OW 1774   1.364   1.975   1.155 -0.6000 -0.8201 -0.0398
  592SOL    HW1 1775   1.381   1.882   1.115  0.0269 -2.6203  0.6367
  592SOL    HW2 1776   1.262   1.994   1.163 -1.3204  1.4009 -2.6382
  593SOL     OW 1777   0.712   2.965   0.796 -0.2414  0.5007  0.3878
  593SOL    HW1 1778   0.814   2.966   0.810  0.0059  2.6188 -1.0585
  593SOL    HW2 1779   0.660   2.962   0.882 -0.7648  0.1141  0.3856
  594SOL     OW 1780   2.875   1.081   2.246  0.0893 -0.5307  0.1995
  594SOL    HW1 1781   2.895   1.115   2.149 -1.0134 -0.2842 -3.7848
  594SOL    HW2 1782   2.946   1.016   2.284  0.3307  1.2695 -0.3566
  595SOL     OW 1783   3.012   2.990   0.636  0.0943  0.0091  0.0052
  595SOL    HW1 1784   0.010   2.939   0.611 -0.3562 -1.0831  0.5145
  595SOL    HW2 1785   3.036   3.078   0.674  0.9415 -0.9037  2.1683
  596SOL     OW 1786   3.064   0.562   1.441 -0.3503 -0.5995 -0.1044
  596SOL    HW1 1787   3.063   0.662   1.472 -0.6016  0.0469  0.6027
  596SOL    HW2 1788   2.975   0.523   1.469 -3.1656 -4.1579  2.0370
  597SOL     OW 1789   2.476   1.148   0.297 -0.7374 -0.6642 -0.3730
  597SOL    HW1 1790   2.572   1.110   0.305  2.0490 -2.3190  1.5934
  597SOL    HW2 1791   2.463   1.195   0.207 -0.4977  2.8237  0.9026
  598SOL     OW 1792   0.541   0.200   2.126  0.7166 -0.5097 -0.3750
  598SOL    HW1 1793   0.575   0.283   2.078 -0.9208 -3.4906  1.4743
  598SOL    HW2 1794   0.464   0.215   2.194 -2.6741  0.7494 -1.1890
  599SOL     OW 1795   2.433   1.670   0.383  0.3897  0.1018 -0.0460
  599SOL    HW1 1796   2.363   1.712   0.449  0.5961  0.3839 -0.3623
  599SOL    HW2 1797   2.502   1.745   0.363  0.6062 -1.0476 -1.9166
  600SOL     OW 1798   0.994   0.974   0.125  0.9424  0.0593 -0.2076
  600SOL    HW1 1799   1.044   0.933   0.041 -0.1880 -2.2171  0.7550
  600SOL    HW2 1800   0.924   1.042   0.093 -1.5718  1.4178  1.3639
  601SOL     OW 1801   1.442   0.989   0.065 -0.1479  0.2257  0.1321
  601SOL    HW1 1802   1.365   1.051   0.034 -0.1708  0.8915 -0.1217
  601SOL    HW2 1803   1.422   0.886   0.039 -0.1558 -2.5096 -3.3908
  602SOL     OW 1804   0.991   2.987   1.610 -0.3882  0.0307 -0.2807
  602SOL    HW1 1805   1.011   3.080   1.655 -1.3755 -2.3612 -1.5981
  602SOL    HW2 1806   0.911   2.998   1.545  2.2241  0.1453 -1.0705
  603SOL     OW 1807   0.915   2.810   2.409 -0.1317 -0.5785 -0.4697
  603SOL    HW1 1808   0.995   2.875   2.417 -0.8707 -0.5756  0.7668
  603SOL    HW2 1809   0.898   2.782   2.315  0.4520  1.9613  2.6745
  604SOL     OW 1810   0.100   0.080   1.970 -0.2439  0.2883 -0.2903
  604SOL    HW1 1811   0.147   0.027   2.040 -1.2412  0.6947  3.4387
  604SOL    HW2 1812   0.017   0.034   1.926 -1.0282 -0.9326 -1.1191
  605SOL     OW 1813   2.604   2.739   1.579  0.0381 -0.3645  0.0666
  605SOL    HW1 1814   2.559   2.677   1.644  4.0836  2.5132 -1.2850
  605SOL    HW2 1815   2.708   2.758   1.594  1.2568 -0.1903 -0.1427
  606SOL     OW 1816   0.034   2.016   2.674 -0.6692 -0.0322 -0.2729
  606SOL    HW1 1817   0.023   2.041   2.773  2.0985  0.8136  1.9469
  606SOL    HW2 1818   0.133   2.005   2.649  0.3216 -1.0623 -0.1222
  607SOL     OW 1819   0.912   0.270   0.649  0.2252 -0.0656  0.2583
  607SOL    HW1 1820   0.906   0.362   0.602 -1.0773  0.3928  2.0488
  607SOL    HW2 1821   0.963   0.289   0.734 -2.6848  0.0995  0.0435
  608SOL     OW 1822   1.553   1.741   2.453  0.1324 -0.3595 -0.1344
  608SOL    HW1 1823   1.565   1.665   2.386 -1.0423  0.1216 -2.7816
  608SOL    HW2 1824   1.564   1.831   2.403  1.5843 -0.6833 -0.1513
  609SOL     OW 1825   3.012   0.287   1.256 -0.4746 -0.1215  0.4584
  609SOL    HW1 1826   3.071   0.372   1.246  0.5849 -1.1769 -0.3704
  609SOL    HW2 1827   3.029   0.243   1.347  0.2821  0.8320 -1.4439
  610SOL     OW 1828   0.886   2.339   0.083 -0.1920 -0.2291 -0.4004
  610SOL    HW1 1829   0.840   2.355   3.080  1.3555  1.1628  2.2047
  610SOL    HW2 1830   0.856   2.412   0.148  1.7476  1.0793  0.7739
  611SOL     OW 1831   2.051   1.481   0.520  0.1422  0.0842  0.2630
  611SOL    HW1 1832   2.075   1.517   0.430 -0.6095 -1.1590  1.7824
  611SOL    HW2 1833   1.962   1.421   0.515 -4.5811  0.3555  0.6187
  612SOL     OW 1834   0.948   2.568   2.523 -0.1372  0.0998 -0.1291
  612SOL    HW1 1835   0.929   2.650   2.462 -0.1745  0.2189 -1.3093
  612SOL    HW2 1836   0.894   2.486   2.496  1.6339 -1.2680  0.3619
  613SOL     OW 1837   1.133   1.884   0.234  0.5146 -0.1185  0.1596
  613SOL    HW1 1838   1.116   1.983   0.240 -0.0602 -3.8607  0.3335
  613SOL    HW2 1839   1.047   1.836   0.213  1.4715 -1.3699  2.6798
  614SOL     OW 1840   2.701   2.342   1.603 -0.0454 -0.2160 -0.0675
  614SOL    HW1 1841   2.675   2.310   1.509 -1.2927 -0.8410 -1.1133
  614SOL    HW2 1842   2.624   2.333   1.667 -0.7975 -0.3813 -0.2266
  615SOL     OW 1843   2.395   1.353   0.042 -0.3624 -0.0161  0.4821
  615SOL    HW1 1844   2.389   1.385   3.032 -1.8970 -0.8354 -0.2714
  615SOL    HW2 1845   2.356   1.258   0.043  1.2230  1.0950 -0.3163
  616SOL     OW 1846   1.625   0.116   0.644  0.3214  0.4292  0.2064
  616SOL    HW1 1847   1.611   0.059   0.728 -1.5788  0.4343  0.8144
  616SOL    HW2 1848   1.723   0.116   0.608  1.4259  1.8231  0.1816
  617SOL     OW 1849   0.533   1.483   2.713 -0.2790  0.0605  0.1730
  617SOL    HW1 1850   0.525   1.543   2.630  0.7745 -0.0772  1.0392
  617SOL    HW2 1851   0.608   1.416   2.701 -0.4828  0.7302  1.9327
  618SOL     OW 1852   0.511   0.562   1.806 -0.4091  0.0348 -0.6160
  618SOL    HW1 1853   0.520   0.653   1.850  0.1789  0.3924  2.1268
  618SOL    HW2 1854   0.563   0.551   1.719 -2.1477 -0.2960  1.2490
  619SOL     OW 1855   2.773   0.951   1.908 -0.5082  0.1285 -0.4169
  619SOL    HW1 1856   2.821   1.034   1.945  0.6849  3.4421 -1.5342
  619SOL    HW2 1857   2.780   0.871   1.968  3.3677 -2.0123  0.1332
  620SOL     OW 1858   2.109   1.069   2.963  0.0714 -0.2926 -0.0464
  620SOL    HW1 1859   2.017   1.079   2.915  0.5353  1.3210 -1.0926
  620SOL    HW2 1860   2.102   1.116   3.052  0.2318 -0.6763 -0.7536
  621SOL     OW 1861   2.480   2.875   1.171  0.2236  0.2012 -0.1757
  621SOL    HW1 1862   2.576   2.853   1.216  3.3364  2.9028  2.9746
  621SOL    HW2 1863   2.419   2.926   1.237 -0.1235  0.8440 -0.3093
  622SOL     OW 1864   1.722   0.495   1.961 -0.4668 -0.7490  0.5278
  622SOL    HW1 1865   1.772   0.422   1.901  3.1832 -2.9357 -2.6716
  622SOL    HW2 1866   1.649   0.540   1.912  0.0224 -1.0585  2.7962
  623SOL     OW 1867   1.446   0.957   2.385  0.6138 -0.1141 -0.3876
  623SOL    HW1 1868   1.440   1.047   2.336  1.4862 -1.4056 -0.3402
  623SOL    HW2 1869   1.489   0.974   2.475 -0.4946  0.6072  0.1493
  624SOL     OW 1870   1.865   0.130   0.500 -0.1656  0.0684  0.6400
  624SOL    HW1 1871   1.837   0.164   0.409 -1.3700 -1.0289  1.0921
  624SOL    HW2 1872   1.903   0.039   0.492 -0.9684  2.8567  1.4852
  625SOL     OW 1873   0.688   1.485   0.480  0.5213  0.2679 -0.4238
  625SOL    HW1 1874   0.757   1.419   0.509 -1.8530  1.7969 -2.5080
  625SOL    HW2 1875   0.677   1.561   0.544  2.5356 -1.1322 -4.4555
  626SOL     OW 1876   1.662   1.237   2.217 -0.2420  0.1629  0.0306
  626SOL    HW1 1877   1.697   1.284   2.133  0.2873 -0.3670  2.3018
  626SOL    HW2 1878   1.562   1.211   2.205 -0.6451 -0.3549 -0.5284
  627SOL     OW 1879   0.891   0.426   1.876  0.0155 -0.5567  0.1189
  627SOL    HW1 1880   0.981   0.401   1.924  2.8084 -0.6266  0.4896
  627SOL    HW2 1881   0.816   0.441   1.948  0.4063  1.0152  1.0611
  628SOL     OW 1882   2.075   0.863   2.176  0.2031  0.9738 -0.1681
  628SOL    HW1 1883   2.012   0.794   2.138  0.3474  1.2191 -0.3412
  628SOL    HW2 1884   2.138   0.890   2.099  0.2766 -2.2883 -3.1546
  629SOL     OW 1885   0.781   1.357   2.995  0.8116 -0.2289  0.1797
  629SOL    HW1 1886   0.775   1.442   2.943 -1.7737 -2.9449 -0.3467
  629SOL    HW2 1887   0.687   1.318   3.015  0.3537  0.4320 -2.2147
  630SOL     OW 1888   1.338   0.572   2.125 -0.3719 -0.0305  0.1445
  630SOL    HW1 1889   1.394   0.620   2.052 -0.1739  0.8032  0.2166
  630SOL    HW2 1890   1.392   0.563   2.211 -0.6172 -2.5641  0.6047
  631SOL     OW 1891   2.539   0.720   0.853  0.3778  0.4925  1.2022
  631SOL    HW1 1892   2.499   0.634   0.894 -0.1305 -1.3921 -2.7976
  631SOL    HW2 1893   2.463   0.769   0.801 -2.2042 -0.3135 -1.4946
  632SOL     OW 1894   2.661   1.809   0.628 -0.3761 -0.4541 -0.8523
  632SOL    HW1 1895   2.686   1.718   0.595 -0.3256  0.8805  0.1813
  632SOL    HW2 1896   2.716   1.886   0.590 -1.4105 -0.5030 -0.9558
  633SOL     OW 1897   0.737   1.286   0.745 -0.1089 -0.3744  0.5066
  633SOL    HW1 1898   0.748   1.224   0.825  1.3947  3.3669 -0.6538
  633SOL    HW2 1899   0.716   1.233   0.659 -2.7317 -1.2496 -1.2972
  634SOL     OW 1900   1.515   3.057   0.413 -0.3051  0.8205  0.3638
  634SOL    HW1 1901   1.423   0.011   0.421  4.4469 -0.0533  0.1056
  634SOL    HW2 1902   1.568   0.013   0.489 -2.3136 -0.2070  0.0707
  635SOL     OW 1903   2.018   0.442   1.611  0.0639 -0.2364  0.5853
  635SOL    HW1 1904   2.026   0.351   1.580 -0.0867  3.6549 -0.1655
  635SOL    HW2 1905   2.080   0.500   1.553 -0.1482  0.8662  1.4926
  636SOL     OW 1906   1.360   0.620   0.720  0.6576 -0.5616  0.2236
  636SOL    HW1 1907   1.336   0.718   0.742  0.5667 -1.7731  2.3126
  636SOL    HW2 1908   1.460   0.602   0.722 -0.6206 -0.2606  1.7469
  637SOL     OW 1909   2.044   1.589   2.876  0.1905  0.0523  0.1672
  637SOL    HW1 1910   2.044   1.655   2.803  0.8753 -0.0472  1.6042
  637SOL    HW2 1911   2.120   1.616   2.941  2.3095  2.4132  3.2339
  638SOL     OW 1912   0.918   0.073   2.624 -0.1771 -0.0101 -0.1458
  638SOL    HW1 1913   0.903   0.001   2.696 -1.2402  2.0280 -0.8520
  638SOL    HW2 1914   0.833   0.080   2.573  3.4649  2.1453  2.9477
  639SOL     OW 1915   1.174   1.945   1.496  0.0058 -0.2360 -0.1396
  639SOL    HW1 1916   1.086   1.928   1.447  0.0296 -0.7971 -1.3619
  639SOL    HW2 1917   1.242   1.869   1.476 -0.0254 -2.4988  0.2276
  640SOL     OW 1918   0.465   0.079   2.838 -0.4811 -0.3190 -0.3056
  640SOL    HW1 1919   0.384   0.060   2.902 -3.1970  0.4210  0.0544
  640SOL    HW2 1920   0.451   0.032   2.749  2.2554  1.8303 -0.1210
  641SOL     OW 1921   0.408   0.707   0.314  0.1642  0.4751  0.5274
  641SOL    HW1 1922   0.315   0.697   0.279  1.4018 -1.2837 -0.9631
  641SOL    HW2 1923   0.406   0.750   0.405  0.1216  1.0509 -0.2024
  642SOL     OW 1924   0.258   1.721   1.094  0.5180 -0.2425  0.6977
  642SOL    HW1 1925   0.265   1.822   1.084 -1.0767  0.2076 -0.6532
  642SOL    HW2 1926   0.294   1.665   1.011 -1.2598 -1.3881 -3.4377
  643SOL     OW 1927   0.918   1.790   2.696 -0.2209  0.1932 -0.5230
  643SOL    HW1 1928   0.863   1.873   2.694 -1.5361 -1.8849 -0.0059
  643SOL    HW2 1929   1.000   1.805   2.753 -1.2459  3.1788 -1.5304
  644SOL     OW 1930   1.579   2.318   0.226  0.0280  0.0515  0.3164
  644SOL    HW1 1931   1.657   2.304   0.285 -0.6371 -1.3598 -1.0101
  644SOL    HW2 1932   1.510   2.372   0.276 -0.4075 -0.3995 -1.7718
  645SOL     OW 1933   1.181   2.198   1.385  0.1621  0.4122  0.3200
  645SOL    HW1 1934   1.201   2.108   1.426  1.0498  1.2125 -1.1627
  645SOL    HW2 1935   1.243   2.216   1.305  1.8057  2.4500 -1.0259
  646SOL     OW 1936   0.557   2.560   0.195  0.0764  0.4133  0.2740
  646SOL    HW1 1937   0.644   2.545   0.245  2.5956 -1.4873  0.9597
  646SOL    HW2 1938   0.571   2.640   0.129 -1.5153  0.9610 -0.2574
  647SOL     OW 1939   0.311   2.916   2.037 -0.3711  0.2023 -0.6864
  647SOL    HW1 1940   0.232   2.939   2.099 -0.5445  0.9955  0.5569
  647SOL    HW2 1941   0.390   2.881   2.094  0.1976  0.3444  2.9192
  648SOL     OW 1942   2.600   1.066   1.077 -0.2035  0.4387  0.0045
  648SOL    HW1 1943   2.662   0.990   1.042  1.4083  0.3000 -0.8828
  648SOL    HW2 1944   2.505   1.031   1.107 -0.1805  0.2302  2.2177
  649SOL     OW 1945   2.133   2.660   2.710  0.4777 -0.1318  0.1730
  649SOL    HW1 1946   2.133   2.658   2.814  2.0384 -1.9465  2.9809
  649SOL    HW2 1947   2.138   2.757   2.673  2.4209  1.8078  0.3896
  650SOL     OW 1948   2.666   2.101   1.853 -0.8373 -0.9290 -0.2041
  650SOL    HW1 1949   2.634   2.006   1.863  2.8619  1.6513 -0.7217
  650SOL    HW2 1950   2.770   2.092   1.859  1.3547  0.7754 -0.6259
  651SOL     OW 1951   1.168   1.798   2.792  0.2435  0.0279  0.1868
  651SOL    HW1 1952   1.213   1.781   2.702 -1.2485  0.3697  0.9007
  651SOL    HW2 1953   1.240   1.774   2.854  2.3467  2.7797 -1.6908
  652SOL     OW 1954   0.668   2.973   2.307 -0.6673  0.2071 -0.2139
  652SOL    HW1 1955   0.651   3.046   2.376  0.9987 -0.2089 -1.9548
  652SOL    HW2 1956   0.765   2.981   2.277 -1.9810 -0.1541  0.9965
  653SOL     OW 1957   1.997   1.854   0.846  0.5278  0.2538  0.4643
  653SOL    HW1 1958   2.062   1.778   0.862  1.5803  0.0004  0.5228
  653SOL    HW2 1959   2.042   1.943   0.867  1.3710  0.4004  0.6396
  654SOL     OW 1960   2.350   2.809   2.204 -0.0403  0.0473 -0.3293
  654SOL    HW1 1961   2.408   2.801   2.288  1.6198 -1.7369  0.4325
  654SOL    HW2 1962   2.369   2.895   2.150 -1.6012 -0.1119  2.2576
  655SOL     OW 1963   2.424   2.172   0.939 -0.2454 -0.2795  0.1339
  655SOL    HW1 1964   2.401   2.250   1.001  2.1122  2.2066 -0.4362
  655SOL    HW2 1965   2.383   2.195   0.845  2.9032  0.3111 -1.5302
  656SOL     OW 1966   2.777   1.747   2.848 -0.0169  0.4945  0.0703
  656SOL    HW1 1967   2.775   1.848   2.870 -0.5830  0.4483 -1.0569
  656SOL    HW2 1968   2.713   1.689   2.902 -0.5352  3.7448 -0.6384
  657SOL     OW 1969   0.041   1.224   0.629 -0.2262 -0.8200 -0.5205
  657SOL    HW1 1970   3.064   1.170   0.570  0.4438  0.4808  0.4453
  657SOL    HW2 1971   0.023   1.210   0.730  0.3239  0.4440 -0.3589
  658SOL     OW 1972   1.081   1.685   1.345 -0.3267 -0.2395  0.4052
  658SOL    HW1 1973   1.096   1.639   1.254  0.8447  2.2338  0.9690
  658SOL    HW2 1974   1.025   1.773   1.342  2.2305 -1.2434 -0.6387
  659SOL     OW 1975   1.208   2.932   1.434 -0.4102 -0.3426 -0.2111
  659SOL    HW1 1976   1.196   3.019   1.382  0.3643  3.0055 -2.8999
  659SOL    HW2 1977   1.141   2.923   1.511  0.3974  1.0707  0.9883
  660SOL     OW 1978   2.374   0.479   0.899  0.2665  0.1333 -0.2112
  660SOL    HW1 1979   2.340   0.422   0.814 -1.4792 -1.0491 -3.5938
  660SOL    HW2 1980   2.292   0.513   0.947  1.1177 -3.1350 -0.2412
  661SOL     OW 1981   0.473   1.836   0.216 -0.1504  0.5504  0.5779
  661SOL    HW1 1982   0.537   1.816   0.290 -0.5827 -0.3647 -1.2909
  661SOL    HW2 1983   0.501   1.923   0.170 -1.0508  0.9886 -2.2230
  662SOL     OW 1984   2.256   0.911   1.982  0.1490  0.1257  0.0930
  662SOL    HW1 1985   2.325   0.831   1.988  2.8401 -2.7758 -1.5607
  662SOL    HW2 1986   2.204   0.918   1.892 -1.8329  2.1438  0.3326
  663SOL     OW 1987   1.742   1.363   1.150  0.1914  0.0190  0.3629
  663SOL    HW1 1988   1.796   1.335   1.067  0.4857  0.7853  2.1283
  663SOL    HW2 1989   1.791   1.345   1.237 -0.6500  0.8821 -0.1472
  664SOL     OW 1990   0.508   0.060   1.285  0.0347 -0.6430  0.3778
  664SOL    HW1 1991   0.585   0.100   1.235 -3.0191 -0.1791  0.0564
  664SOL    HW2 1992   0.532   3.087   1.361  2.3272 -0.9406  2.4511
  665SOL     OW 1993   1.380   0.399   2.846 -0.6340 -0.0689  0.1914
  665SOL    HW1 1994   1.442   0.320   2.829 -1.1076  3.1890 -0.1277
  665SOL    HW2 1995   1.408   0.478   2.790  0.3244 -1.9162  0.9972
  666SOL     OW 1996   0.867   0.495   2.240 -0.7516 -0.0514 -0.1506
  666SOL    HW1 1997   0.856   0.395   2.215 -2.6696  2.0264 -0.9295
  666SOL    HW2 1998   0.778   0.539   2.227  2.7819  0.1053 -0.7867
  667SOL     OW 1999   1.355   1.429   1.393  0.1968 -0.2084 -0.2026
  667SOL    HW1 2000   1.275   1.467   1.446 -1.0663  0.5844  0.6440
  667SOL    HW2 2001   1.324   1.402   1.301  1.4584 -0.0334 -0.3019
  668SOL     OW 2002   0.307   1.176   2.235 -0.1274 -0.1355 -0.0613
  668SOL    HW1 2003   0.368   1.106   2.192  1.6502  0.5094  0.4202
  668SOL    HW2 2004   0.323   1.264   2.183 -1.2959  1.0766 -1.9896
  669SOL     OW 2005   2.563   2.573   2.881  0.3278  0.2896  0.1821
  669SOL    HW1 2006   2.551   2.515   2.796 -2.9130  2.5201  1.3226
  669SOL    HW2 2007   2.588   2.519   2.963  2.1009  4.2611 -1.7296
  670SOL     OW 2008   2.768   1.345   1.814  0.4164 -0.2719 -0.3161
  670SOL    HW1 2009   2.854   1.336   1.759 -0.6454 -0.2238  2.5453
  670SOL    HW2 2010   2.700   1.266   1.781  0.5932 -0.3848 -2.2715
  671SOL     OW 2011   2.800   2.011   0.533  0.5527 -0.1944 -0.3810
  671SOL    HW1 2012   2.751   2.101   0.543  2.1207  1.8250  1.9686
  671SOL    HW2 2013   2.895   2.016   0.492 -2.0722  0.1406 -1.8136
  672SOL     OW 2014   1.602   0.930   1.780 -0.0057  0.1653 -0.8193
  672SOL    HW1 2015   1.661   0.991   1.838 -2.0090 -1.8515  0.5348
  672SOL    HW2 2016   1.564   0.969   1.691 -2.5248  0.2250 -0.2372
  673SOL     OW 2017   2.932   2.066   1.506  0.0435 -0.0362 -0.3224
  673SOL    HW1 2018   2.878   2.117   1.440  1.4673 -3.2193 -0.1050
  673SOL    HW2 2019   3.034   2.073   1.481  0.5337  3.3839 -2.0045
  674SOL     OW 2020   0.761   1.924   1.655 -0.5874 -0.3448 -0.1220
  674SOL    HW1 2021   0.821   1.912   1.736 -0.6017 -4.2652 -0.0123
  674SOL    HW2 2022   0.716   2.012   1.650  0.8397 -4.0796 -0.1868
  675SOL     OW 2023   2.866   0.713   1.220 -0.0708 -0.0715  0.1419
  675SOL    HW1 2024   2.960   0.723   1.185 -0.3814  1.0626 -0.4126
  675SOL    HW2 2025   2.845   0.611   1.218 -2.2700 -0.6775  1.4298
  676SOL     OW 2026   2.922   0.958   1.682 -0.1607 -0.6359  0.1742
  676SOL    HW1 2027   2.859   0.945   1.762 -0.4325 -0.2188  3.3381
  676SOL    HW2 2028   2.868   0.941   1.595  0.0927  0.5459 -1.0554
  677SOL     OW 2029   2.064   1.123   2.469  0.2353 -0.5593  0.0389
  677SOL    HW1 2030   1.968   1.141   2.485  2.2210  0.4897 -1.7300
  677SOL    HW2 2031   2.114   1.156   2.550 -0.7912 -1.8729 -3.0204
  678SOL     OW 2032   2.541   1.374   1.140  0.3575  0.4119 -0.0932
  678SOL    HW1 2033   2.566   1.333   1.048 -0.4632  0.7841 -1.8487
  678SOL    HW2 2034   2.630   1.411   1.174 -1.7448  0.3663  0.9549
  679SOL     OW 2035   0.163   2.706   0.142 -0.5501 -0.0264  0.4038
  679SOL    HW1 2036   0.218   2.631   0.101  0.4327 -0.8539 -1.7165
  679SOL    HW2 2037   0.144   2.687   0.239  2.4457  1.2928 -3.3102
  680SOL     OW 2038   0.023   1.600   1.129 -0.1615  0.3584  0.4364
  680SOL    HW1 2039   0.110   1.647   1.102  1.2740  2.5728 -2.3081
  680SOL    HW2 2040   3.050   1.657   1.187 -0.4700  0.1849  1.7059
  681SOL     OW 2041   1.171   0.059   0.812  0.4102 -0.3458  0.4685
  681SOL    HW1 2042   1.171   0.155   0.772 -0.4154  1.5117 -1.1267
  681SOL    HW2 2043   1.264   0.020   0.814 -1.2354 -1.7000  0.8793
  682SOL     OW 2044   2.076   2.607   1.649  0.2753  0.2886  0.5175
  682SOL    HW1 2045   2.147   2.537   1.627 -0.8609  0.5322 -0.4204
  682SOL    HW2 2046   2.054   2.647   1.559 -0.8376  1.1012 -2.4731
  683SOL     OW 2047   2.541   1.873   1.767 -0.2333  0.2824  1.2453
  683SOL    HW1 2048   2.552   1.927   1.681  0.1663  0.1460  1.7440
  683SOL    HW2 2049   2.582   1.777   1.754 -1.6489 -2.2348 -1.1525
  684SOL     OW 2050   0.066   1.540   1.787  0.0790  0.2329  1.1370
  684SOL    HW1 2051   0.005   1.551   1.864  2.4360 -2.0338 -2.4113
  684SOL    HW2 2052   0.150   1.604   1.789  3.0203  1.0671 -2.4421
  685SOL     OW 2053   1.520   1.293   0.186  0.2603 -0.7275 -0.4422
  685SOL    HW1 2054   1.553   1.386   0.156  1.3015 -0.6788  1.6636
  685SOL    HW2 2055   1.523   1.224   0.110  2.0379 -0.3144 -0.1870
  686SOL     OW 2056   2.922   0.563   1.938  0.4818 -0.3033  0.0341
  686SOL    HW1 2057   3.015   0.527   1.962 -0.7980 -0.6070  1.7449
  686SOL    HW2 2058   2.927   0.618   1.852  0.0525 -1.4980 -0.8102
  687SOL     OW 2059   1.528   0.170   2.796  0.1570  0.5117  0.1203
  687SOL    HW1 2060   1.468   0.084   2.795 -1.3406 -1.8015  0.8178
  687SOL    HW2 2061   1.602   0.159   2.866  1.4893  0.4579  2.6602
  688SOL     OW 2062   1.293   1.704   2.563 -0.0448 -0.1524 -0.2498
  688SOL    HW1 2063   1.217   1.686   2.503 -1.2335  0.3581 -1.2149
  688SOL    HW2 2064   1.377   1.718   2.512  0.4658  0.1422 -0.3522
  689SOL     OW 2065   2.276   1.608   1.562 -0.4212 -0.0255 -0.3823
  689SOL    HW1 2066   2.317   1.590   1.656  0.5548  0.4229  1.1487
  689SOL    HW2 2067   2.338   1.577   1.488  1.1712 -2.8743  1.9138
  690SOL     OW 2068   2.366   2.183   1.318  0.5169  0.1113 -0.1545
  690SOL    HW1 2069   2.329   2.184   1.418 -1.7206 -0.1631  2.3695
  690SOL    HW2 2070   2.315   2.113   1.260  1.0049  0.0529 -4.6503
  691SOL     OW 2071   0.224   1.617   0.703  0.2773  0.0124  0.4389
  691SOL    HW1 2072   0.283   1.679   0.651  0.1563  0.8737  0.1044
  691SOL    HW2 2073   0.137   1.669   0.738 -1.4498  1.4366 -0.4055
  692SOL     OW 2074   2.867   2.968   2.723 -0.1534  0.3497  0.1865
  692SOL    HW1 2075   2.949   2.970   2.780 -0.6913  1.3645 -0.2554
  692SOL    HW2 2076   2.851   3.059   2.679 -0.6958 -1.3284 -0.6345
  693SOL     OW 2077   0.330   1.396   2.079  0.2404 -0.0049 -0.0415
  693SOL    HW1 2078   0.321   1.365   1.983 -0.7711  2.1196 -0.9480
  693SOL    HW2 2079   0.271   1.479   2.086  1.4788 -0.4525 -0.1184
  694SOL     OW 2080   2.499   0.313   2.003  0.1171  0.0784  0.0108
  694SOL    HW1 2081   2.593   0.356   2.015  1.0837  3.0837 -0.8603
  694SOL    HW2 2082   2.462   0.338   1.911  0.1509 -0.5520  1.7120
  695SOL     OW 2083   1.516   0.722   1.949 -0.3870 -0.1294  0.3597
  695SOL    HW1 2084   1.548   0.745   2.046 -0.1062 -0.1664  0.6938
  695SOL    HW2 2085   1.540   0.806   1.890 -1.1943  0.9652  0.6206
  696SOL     OW 2086   2.215   2.958   1.664  0.7761 -0.0943 -0.1598
  696SOL    HW1 2087   2.166   3.009   1.741 -1.7782 -1.4078  0.9906
  696SOL    HW2 2088   2.155   2.957   1.587  3.9468 -1.4494  1.5741
  697SOL     OW 2089   1.114   0.427   2.071  0.5128 -0.2193 -0.0263
  697SOL    HW1 2090   1.087   0.435   2.171  0.0036 -1.6503 -0.1964
  697SOL    HW2 2091   1.202   0.473   2.057 -0.7807 -1.6134  1.5231
  698SOL     OW 2092   2.258   1.647   2.549 -0.7750 -0.2676 -0.1329
  698SOL    HW1 2093   2.294   1.553   2.583  1.9697 -1.4514  1.6996
  698SOL    HW2 2094   2.169   1.638   2.502 -2.0679  1.7154 -1.3967
  699SOL     OW 2095   2.242   0.802   0.391 -0.6834  0.0821  0.4935
  699SOL    HW1 2096   2.170   0.790   0.317 -0.2081  2.0600 -0.3246
  699SOL    HW2 2097   2.224   0.882   0.456  0.7594 -1.1892 -1.7720
  700SOL     OW 2098   1.418   3.024   0.822  0.0425 -0.4585 -0.0189
  700SOL    HW1 2099   1.477   2.972   0.756  2.2897 -0.1600 -1.2410
  700SOL    HW2 2100   1.457   3.021   0.914  0.5142  1.8939  1.3672
  701SOL     OW 2101   2.987   0.610   0.617  0.3162 -0.0434  0.1178
  701SOL    HW1 2102   2.964   0.697   0.563 -2.1390  0.5563 -1.4741
  701SOL    HW2 2103   3.007   0.634   0.713  1.8377  0.8019  0.6740
  702SOL     OW 2104   1.661   2.486   1.270 -0.9488  0.4972  0.0823
  702SOL    HW1 2105   1.626   2.396   1.300 -0.1623  0.5997 -0.4213
  702SOL    HW2 2106   1.653   2.566   1.329 -3.2870  0.7274 -1.3814
  703SOL     OW 2107   0.058   0.519   1.194  0.0457  0.3726 -0.2574
  703SOL    HW1 2108   0.033   0.541   1.293 -3.1904  1.6256  0.3760
  703SOL    HW2 2109   0.148   0.554   1.165 -1.5419 -1.1694 -0.5208
  704SOL     OW 2110   1.034   2.743   1.717  0.0025 -0.1638 -0.1754
  704SOL    HW1 2111   0.992   2.820   1.663  2.0758  1.4478  1.1252
  704SOL    HW2 2112   0.974   2.714   1.790 -2.9477 -0.7635 -1.2267
  705SOL     OW 2113   0.041   1.826   3.057 -0.1412  0.4537  0.1153
  705SOL    HW1 2114   0.124   1.773   3.086 -0.9779  1.2146  0.3050
  705SOL    HW2 2115   3.057   1.840   0.037 -0.1034  0.6887 -2.2660
  706SOL     OW 2116   0.143   0.568   0.290 -0.5060 -0.5964  0.0671
  706SOL    HW1 2117   0.144   0.506   0.207 -0.0090 -2.2574 -1.9054
  706SOL    HW2 2118   0.196   0.536   0.370 -1.6766  3.3693  0.6972
  707SOL     OW 2119   1.955   2.788   2.031 -0.3422  0.1780  0.3047
  707SOL    HW1 2120   1.954   2.691   2.048 -0.8774  1.2782 -1.4135
  707SOL    HW2 2121   1.880   2.835   2.081 -1.0560 -1.5020  3.7377
  708SOL     OW 2122   0.525   2.998   1.508 -0.8100  0.3404  0.0882
  708SOL    HW1 2123   0.522   2.903   1.542  2.0783  1.6491  1.6914
  708SOL    HW2 2124   0.460   3.059   1.563  0.6447  1.1938  2.3074
  709SOL     OW 2125   0.217   0.722   1.615  0.0298  0.0642  0.4242
  709SOL    HW1 2126   0.162   0.774   1.551  1.5366 -0.4552 -0.2615
  709SOL    HW2 2127   0.204   0.623   1.602  2.5300  3.5464  0.0655
  710SOL     OW 2128   0.223   0.571   0.577  0.2511  0.2529  0.2637
  710SOL    HW1 2129   0.154   0.493   0.581 -1.7351 -1.0753 -0.7442
  710SOL    HW2 2130   0.187   0.660   0.609 -0.2996 -0.2104 -0.6635
  711SOL     OW 2131   2.281   2.319   2.028 -0.0275 -0.1479  0.1903
  711SOL    HW1 2132   2.288   2.287   2.125 -0.0751 -0.9535  0.5617
  711SOL    HW2 2133   2.261   2.419   2.024  1.1335 -0.7143  1.1875
  712SOL     OW 2134   0.166   2.649   2.394  0.0310  0.6818 -0.4512
  712SOL    HW1 2135   0.172   2.723   2.463 -0.3048  1.9322  5.2004
  712SOL    HW2 2136   0.078   2.654   2.331  1.6281  0.7394 -0.8733
  713SOL     OW 2137   2.332   0.147   0.503 -0.0640  0.1169  0.2781
  713SOL    HW1 2138   2.330   0.237   0.546 -1.3491 -2.2681 -2.2238
  713SOL    HW2 2139   2.395   0.141   0.420 -0.2661 -1.6998 -2.7203
  714SOL     OW 2140   1.756   1.487   2.677  0.4844  0.7634 -0.7107
  714SOL    HW1 2141   1.791   1.580   2.697 -0.6439 -0.4425 -0.1348
  714SOL    HW2 2142   1.809   1.437   2.603  0.5207  1.2025 -0.8617
  715SOL     OW 2143   3.082   0.586   0.923  0.3311  0.4426  1.1352
  715SOL    HW1 2144   3.081   0.567   1.019 -1.4333  0.1368 -1.8022
  715SOL    HW2 2145   0.037   0.679   0.912 -0.1191  0.4922 -1.8653
  716SOL     OW 2146   0.870   0.584   1.660 -0.0415 -0.2911 -0.0819
  716SOL    HW1 2147   0.778   0.558   1.627  1.1400 -1.2599  2.4912
  716SOL    HW2 2148   0.890   0.544   1.750 -2.3976 -1.1085 -1.7630
  717SOL     OW 2149   1.183   0.822   2.276 -0.1474  0.4667  0.2157
  717SOL    HW1 2150   1.250   0.859   2.338 -1.0283  1.0343  0.1543
  717SOL    HW2 2151   1.213   0.826   2.180 -0.4372 -0.3385 -0.8644
  718SOL     OW 2152   1.254   0.056   0.477  0.4380  0.5973  0.0006
  718SOL    HW1 2153   1.254   0.148   0.530 -1.3669 -0.5094  1.8195
  718SOL    HW2 2154   1.184   0.063   0.401 -1.3770  0.4006 -1.7682
  719SOL     OW 2155   0.065   2.675   2.807 -0.0255  0.3996 -0.4470
  719SOL    HW1 2156   3.057   2.673   2.764 -2.4957  1.3586  0.3731
  719SOL    HW2 2157   0.090   2.578   2.833  0.1707 -3.7690 -1.8013
  720SOL     OW 2158   1.517   0.315   1.776 -0.1278 -0.6250 -0.1090
  720SOL    HW1 2159   1.463   0.285   1.857  3.2659 -0.9788  3.9765
  720SOL    HW2 2160   1.613   0.335   1.813  1.6400  0.0985  1.2098
  721SOL     OW 2161   0.086   2.830   1.031 -0.1302 -0.0697 -0.2359
  721SOL    HW1 2162   0.070   2.931   1.033  0.2107  1.4156  1.1369
  721SOL    HW2 2163   0.003   2.786   1.067  1.4097 -0.3174  1.3223
  722SOL     OW 2164   0.809   1.114   2.761 -0.3021  0.3462 -0.5673
  722SOL    HW1 2165   0.790   1.195   2.708  1.9391  0.9279 -0.7506
  722SOL    HW2 2166   0.857   1.135   2.852  1.2050  0.6281  1.7295
  723SOL     OW 2167   2.028   1.326   1.296 -0.0933 -0.7763 -0.4428
  723SOL    HW1 2168   2.113   1.350   1.238  1.9112 -0.3105 -0.7175
  723SOL    HW2 2169   2.024   1.405   1.364 -0.8435  2.0256 -1.8942
  724SOL     OW 2170   0.765   1.873   0.314  0.3285  0.0999  0.0416
  724SOL    HW1 2171   0.832   1.834   0.380 -1.2007  2.3935  0.0579
  724SOL    HW2 2172   0.802   1.864   0.219  0.2257 -0.6359 -0.0654
  725SOL     OW 2173   3.080   0.827   1.501  0.3607 -0.0544 -0.1752
  725SOL    HW1 2174   0.005   0.882   1.414 -0.9744 -0.0896  0.3489
  725SOL    HW2 2175   3.013   0.868   1.570 -1.4680  0.3304 -0.6008
  726SOL     OW 2176   2.381   1.094   3.036 -0.0829 -0.1319  0.4908
  726SOL    HW1 2177   2.289   1.075   3.003  0.1756  0.3376  0.6158
  726SOL    HW2 2178   2.450   1.028   3.015 -2.4211  1.6672  0.9153
  727SOL     OW 2179   2.191   0.837   2.424 -0.1199  0.1193  0.1679
  727SOL    HW1 2180   2.130   0.907   2.463  0.4491 -0.0394  2.2708
  727SOL    HW2 2181   2.178   0.833   2.322  0.1507  0.7209 -1.5692
  728SOL     OW 2182   1.736   2.007   1.439  0.5132  0.0158  0.1055
  728SOL    HW1 2183   1.836   2.000   1.430 -3.1264  1.3509  1.8243
  728SOL    HW2 2184   1.700   2.097   1.403  2.5842 -1.7133 -1.1786
  729SOL     OW 2185   1.827   1.086   1.862 -0.9117  0.2024 -0.2336
  729SOL    HW1 2186   1.762   1.162   1.873  0.6495 -0.4941  0.3533
  729SOL    HW2 2187   1.905   1.108   1.921 -0.4609  1.0912 -1.5393
  730SOL     OW 2188   1.549   0.668   0.982  0.0656 -0.1451  0.0169
  730SOL    HW1 2189   1.601   0.612   1.046 -1.9516 -0.3866  0.1676
  730SOL    HW2 2190   1.574   0.646   0.884  2.9303 -3.4116  1.0037
  731SOL     OW 2191   0.632   0.799   2.975  0.5286 -0.2243  0.1664
  731SOL    HW1 2192   0.709   0.765   2.918  0.5001  0.7876 -1.8664
  731SOL    HW2 2193   0.641   0.755   3.063 -1.1452  0.2043 -1.1323
  732SOL     OW 2194   0.462   0.941   0.478  0.2026 -0.1711  0.2825
  732SOL    HW1 2195   0.538   0.879   0.501 -1.3798 -0.5373 -1.0349
  732SOL    HW2 2196   0.415   0.989   0.559 -1.2885  2.7695 -0.1460
  733SOL     OW 2197   1.321   1.612   2.189 -0.3471  0.2506 -0.0569
  733SOL    HW1 2198   1.228   1.622   2.227  3.3402 -1.2968 -0.4989
  733SOL    HW2 2199   1.314   1.603   2.086 -2.1287 -2.0559  0.2978
  734SOL     OW 2200   0.407   2.357   0.159  0.8777  0.1895 -0.0520
  734SOL    HW1 2201   0.469   2.435   0.172 -1.6261 -0.7184 -2.0217
  734SOL    HW2 2202   0.456   2.275   0.126  0.5717 -2.4154  0.9472
  735SOL     OW 2203   2.594   0.309   0.935 -0.0293 -0.7036  0.0321
  735SOL    HW1 2204   2.514   0.373   0.927 -2.3306  0.7820  0.1147
  735SOL    HW2 2205   2.688   0.344   0.918  0.8163  0.8483 -0.9828
  736SOL     OW 2206   1.955   1.547   2.317  0.7509  0.1871  0.0870
  736SOL    HW1 2207   2.049   1.524   2.291 -3.8620  0.1857 -1.6757
  736SOL    HW2 2208   1.949   1.645   2.329 -3.6976 -0.6959  0.5144
  737SOL     OW 2209   0.033   0.823   0.336  0.3675  0.3526 -0.5404
  737SOL    HW1 2210   0.045   0.884   0.255  0.7084 -0.2739  1.9905
  737SOL    HW2 2211   0.079   0.734   0.307  3.0736 -0.9813 -0.8868
  738SOL     OW 2212   0.964   1.932   1.328 -0.0548 -0.1780 -0.6335
  738SOL    HW1 2213   0.882   1.875   1.301 -0.1438 -0.2731  1.5205
  738SOL    HW2 2214   0.940   2.034   1.333 -1.9949  2.6169  2.0497
  739SOL     OW 2215   1.776   2.637   2.309  0.0079  0.3283  0.3712
  739SOL    HW1 2216   1.804   2.647   2.408  0.1551  0.4110 -0.4233
  739SOL    HW2 2217   1.785   2.731   2.268 -0.4274  1.8838 -1.0693
  740SOL     OW 2218   2.372   2.363   1.119  0.0973 -0.0896  0.0072
  740SOL    HW1 2219   2.365   2.309   1.203  2.5553  0.1824 -1.6688
  740SOL    HW2 2220   2.412   2.458   1.147  0.2985  1.1099  1.4887
  741SOL     OW 2221   2.368   0.725   0.088 -0.3079 -0.2393 -0.2288
  741SOL    HW1 2222   2.359   0.625   0.070  0.2841 -0.8371  0.3617
  741SOL    HW2 2223   2.423   0.738   0.173  2.5838 -0.9117  1.4349
  742SOL     OW 2224   1.157   2.346   0.040  0.2228 -0.1502 -0.4635
  742SOL    HW1 2225   1.057   2.354   0.037 -1.8726  0.8922 -2.4895
  742SOL    HW2 2226   1.200   2.438   0.056  1.3504 -0.8933 -1.9663
  743SOL     OW 2227   2.628   1.499   2.089 -0.4006 -0.1592  0.1613
  743SOL    HW1 2228   2.722   1.482   2.133  1.4781  1.0442  1.7049
  743SOL    HW2 2229   2.628   1.457   1.997 -2.6585 -0.6538 -0.0386
  744SOL     OW 2230   3.026   0.163   0.388  0.3213 -0.1661  0.6447
  744SOL    HW1 2231   2.955   0.236   0.410  0.4828 -1.0882  0.0170
  744SOL    HW2 2232   2.980   0.114   0.311  0.9960 -1.7262 -1.3134
  745SOL     OW 2233   2.521   1.799   1.324 -0.3252 -0.2019  0.0024
  745SOL    HW1 2234   2.505   1.706   1.357 -1.6423  0.4436 -0.8747
  745SOL    HW2 2235   2.512   1.798   1.217  0.2216 -1.2461 -1.7883
  746SOL     OW 2236   0.950   1.767   0.470 -0.2764 -0.1734 -0.0141
  746SOL    HW1 2237   0.935   1.741   0.568  1.3161  0.4609 -0.8606
  746SOL    HW2 2238   0.987   1.689   0.415  1.3846  2.4636 -1.9787
  747SOL     OW 2239   1.106   1.475   1.523  0.5489  0.0042 -0.2223
  747SOL    HW1 2240   1.074   1.559   1.474  0.3335  0.7673 -0.2811
  747SOL    HW2 2241   1.030   1.403   1.516 -0.8441  0.2354 -2.9253
  748SOL     OW 2242   0.319   2.852   3.016 -0.1783 -0.0078  0.0489
  748SOL    HW1 2243   0.257   2.810   3.087  1.1003 -0.2308 -0.1621
  748SOL    HW2 2244   0.320   2.958   3.030 -2.1791  0.3049  1.3633
  749SOL     OW 2245   0.122   0.950   2.855 -0.3609  0.3440  0.5914
  749SOL    HW1 2246   0.158   0.914   2.942  1.1892 -1.0320 -0.0558
  749SOL    HW2 2247   0.194   0.937   2.783  1.7087  0.3178  1.7468
  750SOL     OW 2248   1.556   0.997   1.519 -0.1091 -0.2921  0.0354
  750SOL    HW1 2249   1.495   1.048   1.456  1.1822  0.0166 -1.1225
  750SOL    HW2 2250   1.652   1.022   1.497  0.4731 -0.0991  0.0148
  751SOL     OW 2251   2.860   0.831   0.510  0.3287 -0.2186  0.1741
  751SOL    HW1 2252   2.884   0.804   0.411  0.5374 -0.7668  1.0371
  751SOL    HW2 2253   2.894   0.920   0.539  0.4953 -2.7106 -0.3863
  752SOL     OW 2254   2.824   2.748   0.905 -0.3765  0.0060 -0.1617
  752SOL    HW1 2255   2.798   2.847   0.913 -0.1130  0.1546  0.8593
  752SOL    HW2 2256   2.874   2.719   0.992 -0.7760 -0.2684  2.5323
  753SOL     OW 2257   0.695   2.376   1.279  0.6016 -0.3988  0.0185
  753SOL    HW1 2258   0.774   2.317   1.310 -0.9716 -0.7479  0.4475
  753SOL    HW2 2259   0.633   2.314   1.226  0.0040 -0.5752 -1.4553
  754SOL     OW 2260   2.979   2.592   1.852 -0.7751  0.1831  0.2468
  754SOL    HW1 2261   2.886   2.580   1.895  0.5178  1.5279 -1.7727
  754SOL    HW2 2262   3.023   2.509   1.819  0.7987  1.5619  0.4454
  755SOL     OW 2263   2.557   0.847   2.999 -0.6023 -0.2133 -0.1050
  755SOL    HW1 2264   2.628   0.781   3.035 -1.7045  0.4092 -1.4628
  755SOL    HW2 2265   2.473   0.823   3.039  3.9912  2.2291  0.9604
  756SOL     OW 2266   1.864   2.169   0.210  0.4215 -0.2846  0.0300
  756SOL    HW1 2267   1.860   2.269   0.238  2.2785 -0.5897 -1.0224
  756SOL    HW2 2268   1.950   2.131   0.241 -0.9900 -0.1978  0.1396
  757SOL     OW 2269   2.479   0.532   0.553  0.0320 -0.4970  0.0605
  757SOL    HW1 2270   2.475   0.596   0.471 -3.4504 -2.0944  1.3675
  757SOL    HW2 2271   2.560   0.557   0.607  2.0368  1.6271 -0.8895
  758SOL     OW 2272   2.155   0.950   1.688  0.1231  0.2999 -0.1542
  758SOL    HW1 2273   2.069   0.925   1.729  2.7476  2.1702 -1.1163
  758SOL    HW2 2274   2.148   1.029   1.622  0.5982  1.3666 -3.6347
  759SOL     OW 2275   2.616   0.471   1.324  0.3349  0.0144  0.2818
  759SOL    HW1 2276   2.537   0.543   1.317 -1.3107  1.7772 -0.5861
  759SOL    HW2 2277   2.668   0.463   1.235 -0.4134  2.1148 -1.4088
  760SOL     OW 2278   0.409   1.354   1.418  0.0988 -0.5663 -0.2150
  760SOL    HW1 2279   0.383   1.454   1.405 -1.7755  1.0497  0.2988
  760SOL    HW2 2280   0.328   1.293   1.396 -0.4064 -0.5245 -0.5551
  761SOL     OW 2281   0.862   0.694   0.109 -0.5148  0.7226 -0.1069
  761SOL    HW1 2282   0.765   0.663   0.116  1.8885  2.2675  0.5755
  761SOL    HW2 2283   0.878   0.790   0.146  2.1162  2.2281  2.0294
  762SOL     OW 2284   0.735   1.800   1.271  0.0873  0.3469  0.2094
  762SOL    HW1 2285   0.730   1.717   1.205 -0.8331  0.5261 -3.2261
  762SOL    HW2 2286   0.677   1.786   1.352  1.0715  1.2349 -1.3798
  763SOL     OW 2287   1.281   0.666   1.824  0.3143 -0.1375 -1.3617
  763SOL    HW1 2288   1.268   0.648   1.725  0.1797  2.8949 -0.4415
  763SOL    HW2 2289   1.377   0.680   1.846 -2.2501 -0.8774 -0.5733
  764SOL     OW 2290   3.082   2.931   2.875  0.1985  0.1660 -0.1035
  764SOL    HW1 2291   0.002   2.925   2.976 -1.9236 -2.4047  0.8835
  764SOL    HW2 2292   0.042   2.856   2.827 -1.5536  1.1073 -2.0559
  765SOL     OW 2293   0.745   3.083   1.850 -0.3383  0.2373 -0.0895
  765SOL    HW1 2294   0.646   3.087   1.868 -0.1357  2.9321 -0.6017
  765SOL    HW2 2295   0.780   0.083   1.806  1.1834 -1.2336 -0.3933
  766SOL     OW 2296   2.763   1.887   2.288  0.2457 -0.1220  0.5077
  766SOL    HW1 2297   2.679   1.847   2.322  1.5923  1.3392  1.6451
  766SOL    HW2 2298   2.840   1.888   2.355 -0.1132  2.2668  0.0143
  767SOL     OW 2299   1.391   1.200   2.234 -0.3855 -0.1825 -0.2353
  767SOL    HW1 2300   1.339   1.255   2.303 -1.3920 -0.0838 -1.2705
  767SOL    HW2 2301   1.330   1.168   2.164  3.8236 -1.1956  2.4468
  768SOL     OW 2302   1.505   1.588   0.158 -0.4148 -0.3808 -0.1754
  768SOL    HW1 2303   1.439   1.628   0.229  0.5831  0.3339 -1.6144
  768SOL    HW2 2304   1.594   1.636   0.168 -0.7708 -1.1876  2.3090
  769SOL     OW 2305   0.373   1.545   0.913 -0.2378 -0.0681  0.8132
  769SOL    HW1 2306   0.330   1.583   0.830  0.1296 -0.6029 -0.5637
  769SOL    HW2 2307   0.471   1.528   0.897 -2.1435  1.1628  1.7999
  770SOL     OW 2308   1.587   0.827   2.194 -0.4387  0.3201 -0.3620
  770SOL    HW1 2309   1.658   0.894   2.160  1.2467  1.0364 -0.7523
  770SOL    HW2 2310   1.526   0.869   2.264 -0.6760  0.0919 -0.0354
  771SOL     OW 2311   2.541   0.074   2.388 -0.1798  0.0835 -0.3345
  771SOL    HW1 2312   2.482   0.111   2.315  0.7327  0.1928  1.7992
  771SOL    HW2 2313   2.496   0.079   2.479 -1.3876 -1.5889 -0.3771
  772SOL     OW 2314   2.503   1.734   2.141 -0.2795 -0.0011  0.5490
  772SOL    HW1 2315   2.400   1.730   2.132  0.1903 -1.4385 -1.6726
  772SOL    HW2 2316   2.539   1.646   2.099  0.9977 -1.2084  0.4617
  773SOL     OW 2317   0.927   1.279   1.498  0.2647 -0.7695 -0.3163
  773SOL    HW1 2318   0.950   1.228   1.415  0.1044 -0.2052 -0.0690
  773SOL    HW2 2319   0.831   1.309   1.491  0.6728  0.0843 -1.3147
  774SOL     OW 2320   1.155   0.782   2.957 -0.0416  0.0730  0.6302
  774SOL    HW1 2321   1.189   0.815   2.866  2.3560  0.5012  0.9961
  774SOL    HW2 2322   1.088   0.705   2.944 -0.2208  0.1085  0.2433
  775SOL     OW 2323   1.448   2.078   0.242 -0.0092  0.2324  0.2737
  775SOL    HW1 2324   1.508   2.161   0.228  0.1268  1.6892 -1.3028
  775SOL    HW2 2325   1.385   2.068   0.164  0.7597  0.3865  1.6296
  776SOL     OW 2326   0.078   1.115   1.651  0.2474 -0.0480 -0.2417
  776SOL    HW1 2327   0.162   1.113   1.705 -2.5391  0.2190  0.0410
  776SOL    HW2 2328   0.010   1.044   1.678  0.3268 -3.6114  0.0235
  777SOL     OW 2329   2.382   2.186   2.278  0.3966 -0.1887  0.0217
  777SOL    HW1 2330   2.402   2.285   2.306  1.9533  2.6454  0.3092
  777SOL    HW2 2331   2.468   2.143   2.242  3.1303  2.2981 -0.6132
  778SOL     OW 2332   1.720   1.326   1.945  0.4003  0.4356 -0.1977
  778SOL    HW1 2333   1.627   1.343   1.902 -2.6974  2.6014  1.0443
  778SOL    HW2 2334   1.771   1.410   1.952 -1.5619 -1.4082 -0.5044
  779SOL     OW 2335   2.890   1.094   0.545  0.1427 -0.3654 -0.3986
  779SOL    HW1 2336   2.818   1.088   0.613 -0.0403  1.4282 -1.3320
  779SOL    HW2 2337   2.858   1.119   0.453  2.1984 -0.0317  0.4165
  780SOL     OW 2338   2.113   2.938   2.708 -0.4276 -0.0295 -0.2545
  780SOL    HW1 2339   2.079   3.012   2.640  1.0306  2.3947 -1.4178
  780SOL    HW2 2340   2.113   2.976   2.802  1.0802 -0.2706  1.6607
  781SOL     OW 2341   2.776   1.511   1.213 -0.4369 -0.1538  0.1884
  781SOL    HW1 2342   2.822   1.559   1.136  2.6392 -1.7282 -0.5174
  781SOL    HW2 2343   2.847   1.502   1.290  0.3229  0.9398  2.7722
  782SOL     OW 2344   2.892   2.275   2.974  0.0585 -0.2569  0.3000
  782SOL    HW1 2345   2.885   2.338   3.055 -2.2991  0.6271  0.9116
  782SOL    HW2 2346   2.829   2.313   2.904 -0.8609 -0.5133  0.0071
  783SOL     OW 2347   0.632   1.503   0.847 -0.3478 -0.1240  0.0837
  783SOL    HW1 2348   0.657   1.414   0.804  0.3060  0.7970  0.7707
  783SOL    HW2 2349   0.635   1.577   0.778  0.3696  0.4517  1.1108
  784SOL     OW 2350   2.208   1.249   0.393 -0.8957 -0.1956  0.2485
  784SOL    HW1 2351   2.308   1.245   0.371  2.4258 -1.4690  1.0649
  784SOL    HW2 2352   2.189   1.331   0.453  1.1600  3.9828  0.4472
  785SOL     OW 2353   1.878   2.745   0.418 -0.8271  0.7567 -0.0977
  785SOL    HW1 2354   1.814   2.790   0.358 -0.9606 -1.9614  1.8250
  785SOL    HW2 2355   1.838   2.664   0.468 -2.1116 -2.3589 -0.8569
  786SOL     OW 2356   0.737   1.989   2.693 -0.1576 -0.8988  0.2438
  786SOL    HW1 2357   0.672   1.952   2.622 -1.1043 -0.1168 -2.6090
  786SOL    HW2 2358   0.687   2.012   2.776 -1.0074 -0.0007 -2.9160
  787SOL     OW 2359   1.651   0.469   1.147 -0.6951 -0.4287 -0.2612
  787SOL    HW1 2360   1.593   0.400   1.194  3.2648 -0.1137 -0.1092
  787SOL    HW2 2361   1.723   0.415   1.104 -2.9660  0.3848 -2.4008
  788SOL     OW 2362   0.778   1.057   3.054  0.7438  0.4285  0.0136
  788SOL    HW1 2363   0.739   0.975   3.005  0.3934 -2.8671  1.0903
  788SOL    HW2 2364   0.711   1.135   3.047  1.1719  0.8518 -0.3151
  789SOL     OW 2365   2.754   1.922   1.258  0.1773  0.0569 -0.1408
  789SOL    HW1 2366   2.688   1.862   1.310 -0.5982 -1.2315  1.5313
  789SOL    HW2 2367   2.711   1.970   1.181 -0.2278 -1.9929  1.7829
  790SOL     OW 2368   1.222   0.082   2.223 -0.1787  0.4075  0.0953
  790SOL    HW1 2369   1.172   0.148   2.287 -1.0894  1.8905  0.8196
  790SOL    HW2 2370   1.193   0.095   2.128  1.0237  1.0698  3.5011
  791SOL     OW 2371   1.060   0.550   0.240  0.3434  0.1492  0.2941
  791SOL    HW1 2372   1.042   0.446   0.225 -2.0649 -3.0688 -0.1438
  791SOL    HW2 2373   0.999   0.611   0.189  1.1755  1.0899 -0.2301
  792SOL     OW 2374   1.295   0.216   1.539 -0.3062 -0.4357  0.0177
  792SOL    HW1 2375   1.383   0.168   1.541  2.5777  0.0035  3.0190
  792SOL    HW2 2376   1.318   0.316   1.549 -0.4563  0.0700 -1.5328
  793SOL     OW 2377   0.980   2.930   0.838 -0.6380  0.1383 -0.0460
  793SOL    HW1 2378   1.047   3.009   0.838  1.6949 -0.4647  1.5043
  793SOL    HW2 2379   0.979   2.895   0.934 -1.7101  0.9058 -0.6407
  794SOL     OW 2380   0.596   1.239   1.918 -0.1004  0.4224  0.5022
  794SOL    HW1 2381   0.615   1.149   1.962  1.6922  0.8579  0.2835
  794SOL    HW2 2382   0.525   1.212   1.846 -1.2668 -2.1891 -2.3624
  795SOL     OW 2383   0.142   1.585   2.113  0.1327  0.5075 -0.9435
  795SOL    HW1 2384   0.045   1.575   2.090  3.1499  1.9440  0.1709
  795SOL    HW2 2385   0.157   1.622   2.206 -1.5669  0.8506  0.5899
  796SOL     OW 2386   1.828   1.560   1.841 -0.3772 -0.0661  0.5026
  796SOL    HW1 2387   1.929   1.571   1.851 -2.9460 -1.5960 -3.0188
  796SOL    HW2 2388   1.778   1.640   1.884  0.7460  4.5353  0.0257
  797SOL     OW 2389   0.029   0.104   2.540  0.1233  0.0842 -1.0748
  797SOL    HW1 2390   0.110   0.041   2.515  3.3103 -2.7928 -1.1018
  797SOL    HW2 2391   0.024   0.119   2.643 -1.4491  0.0719  2.0287
  798SOL     OW 2392   0.051   2.319   1.922 -0.4076  0.1096  0.1423
  798SOL    HW1 2393   3.059   2.302   1.860  1.7130 -3.4270 -1.6992
  798SOL    HW2 2394   0.129   2.265   1.887 -1.6130  1.5454 -1.4895
  799SOL     OW 2395   2.874   2.460   0.087  0.0754 -0.4313 -0.3476
  799SOL    HW1 2396   2.947   2.518   0.046 -1.2993 -0.6470  0.3142
  799SOL    HW2 2397   2.825   2.518   0.156  0.8022  0.2845 -1.8422
  800SOL     OW 2398   0.974   1.695   0.768  0.1414  0.4459 -0.1156
  800SOL    HW1 2399   0.968   1.751   0.851  0.9121 -2.8283  1.3331
  800SOL    HW2 2400   1.066   1.695   0.728  0.8706  1.0166 -1.2813
  801SOL     OW 2401   2.686   0.636   0.657 -0.0738  0.1984 -0.2484
  801SOL    HW1 2402   2.730   0.705   0.591  3.2309 -0.2406  0.9144
  801SOL    HW2 2403   2.650   0.678   0.741  2.5651  1.2693  0.1459
  802SOL     OW 2404   2.506   1.413   0.447 -0.2472 -0.0827 -0.4170
  802SOL    HW1 2405   2.469   1.509   0.443  0.2699  0.0816 -0.7888
  802SOL    HW2 2406   2.469   1.363   0.528  0.9323 -0.0687  1.0335
  803SOL     OW 2407   1.637   1.828   2.958  0.0375  0.3369  0.3361
  803SOL    HW1 2408   1.625   1.853   2.859  1.3824 -0.7555  0.4937
  803SOL    HW2 2409   1.714   1.880   3.005 -0.9711  2.3268  0.6251
  804SOL     OW 2410   2.088   2.040   0.282 -0.3398  0.0984  0.7926
  804SOL    HW1 2411   2.060   1.962   0.342 -2.9829 -0.9538  0.6860
  804SOL    HW2 2412   2.142   2.009   0.198  0.2195 -1.3753 -1.3740
  805SOL     OW 2413   2.847   1.691   2.568  0.4623  0.3708 -0.4375
  805SOL    HW1 2414   2.783   1.708   2.647  0.2181  4.7014  0.9212
  805SOL    HW2 2415   2.860   1.774   2.506  1.6363 -0.7785  1.7796
  806SOL     OW 2416   0.270   0.241   0.409 -0.5220  0.2226 -0.0907
  806SOL    HW1 2417   0.205   0.293   0.470 -3.3502  3.3551 -1.6630
  806SOL    HW2 2418   0.234   0.144   0.399  0.0339 -1.1684 -0.1221
  807SOL     OW 2419   2.360   1.397   2.637  0.0399  0.1214  0.5321
  807SOL    HW1 2420   2.297   1.320   2.668  1.1504  1.5137 -0.1165
  807SOL    HW2 2421   2.448   1.358   2.601 -0.4708 -2.8361  1.1852
  808SOL     OW 2422   0.131   1.451   0.502  0.4465  0.3385  0.0465
  808SOL    HW1 2423   0.115   1.357   0.544  0.5093  0.1905 -1.1009
  808SOL    HW2 2424   0.145   1.512   0.585  0.5029  0.3065  1.1699
  809SOL     OW 2425   2.580   0.687   2.729  0.3530 -0.3693  0.1194
  809SOL    HW1 2426   2.594   0.653   2.824 -1.1284  0.9340  1.9510
  809SOL    HW2 2427   2.485   0.724   2.705 -1.5546  0.3965 -0.8906
  810SOL     OW 2428   1.177   0.872   0.324 -0.3473 -0.0951  0.4527
  810SOL    HW1 2429   1.263   0.929   0.338  3.2492  0.2554  0.7035
  810SOL    HW2 2430   1.109   0.908   0.261 -1.0211  0.0430 -1.6585
  811SOL     OW 2431   1.586   2.446   0.860  0.0696 -0.1267  0.7983
  811SOL    HW1 2432   1.494   2.484   0.879  2.7317  2.1155  0.2312
  811SOL    HW2 2433   1.600   2.416   0.763  0.8995 -1.0031  0.5104
  812SOL     OW 2434   0.638   2.494   1.540 -0.0071  0.5468  0.3652
  812SOL    HW1 2435   0.638   2.436   1.455  0.1592 -0.7483  0.3729
  812SOL    HW2 2436   0.675   2.445   1.622  1.3025 -3.3504  1.4346
  813SOL     OW 2437   1.133   0.162   1.979 -0.0259  0.1341 -0.4561
  813SOL    HW1 2438   1.072   0.083   1.990 -0.6836 -1.6693 -3.6064
  813SOL    HW2 2439   1.090   0.255   2.009 -2.3139  2.4286  2.0498
  814SOL     OW 2440   1.378   3.026   2.747 -0.6081 -0.4124 -0.2345
  814SOL    HW1 2441   1.379   3.003   2.850  0.6814 -0.3057  0.8712
  814SOL    HW2 2442   1.428   2.956   2.690  1.3641  0.4945  1.8033
  815SOL     OW 2443   0.643   0.442   2.008  0.6025  0.0698  0.2196
  815SOL    HW1 2444   0.568   0.446   1.934 -1.6699 -0.4865 -0.1991
  815SOL    HW2 2445   0.646   0.520   2.073  1.5413 -0.1878  2.5699
  816SOL     OW 2446   2.349   0.454   0.012 -0.0452  0.0428 -0.4710
  816SOL    HW1 2447   2.314   0.423   0.099  1.0003 -1.3132 -0.4699
  816SOL    HW2 2448   2.419   0.395   3.057  1.6621 -0.6686  1.3340
  817SOL     OW 2449   1.729   0.345   2.680  0.2480 -0.1386  0.3821
  817SOL    HW1 2450   1.720   0.392   2.590 -1.3037  2.6523  1.3166
  817SOL    HW2 2451   1.676   0.257   2.690  0.5218  0.1033  1.5589
  818SOL     OW 2452   2.181   0.342   0.220  0.3325 -0.4355 -0.4154
  818SOL    HW1 2453   2.220   0.262   0.164  1.5324 -3.1972  0.1789
  818SOL    HW2 2454   2.166   0.319   0.318 -1.2107 -2.9236  1.5422
  819SOL     OW 2455   2.301   1.563   0.176  0.9033 -0.7780 -0.0357
  819SOL    HW1 2456   2.359   1.606   0.249 -0.3647 -1.4292  1.4187
  819SOL    HW2 2457   2.351   1.485   0.135 -0.9983  2.4293 -0.6440
  820SOL     OW 2458   2.898   1.889   0.117  0.3148 -0.3536  0.1487
  820SOL    HW1 2459   2.817   1.883   0.055  2.8613  1.2044  0.7652
  820SOL    HW2 2460   2.885   1.852   0.209  0.9433  1.9742 -0.6047
  821SOL     OW 2461   0.223   2.508   1.463 -0.0307 -0.6639  0.2498
  821SOL    HW1 2462   0.222   2.585   1.534  1.4381  1.5205  2.1080
  821SOL    HW2 2463   0.301   2.536   1.401 -1.1627 -0.1906 -0.9112
  822SOL     OW 2464   2.775   2.737   2.541 -0.2554  0.2975  0.2266
  822SOL    HW1 2465   2.811   2.824   2.573 -1.3946 -1.9090 -1.2425
  822SOL    HW2 2466   2.723   2.743   2.454  1.0348  1.4480  2.2917
  823SOL     OW 2467   1.481   0.029   2.296 -0.0891  0.0823  0.0007
  823SOL    HW1 2468   1.391   0.029   2.247 -0.8098 -1.1999  0.7490
  823SOL    HW2 2469   1.485   0.112   2.360 -1.0476  1.8969  1.0502
  824SOL     OW 2470   2.405   1.838   1.064 -0.4871  0.4174 -0.3993
  824SOL    HW1 2471   2.449   1.857   0.976 -0.2297 -0.4275  3.2358
  824SOL    HW2 2472   2.353   1.748   1.059 -2.0329 -1.0759  1.1988
  825SOL     OW 2473   2.841   2.179   2.564  0.0815 -0.4852 -0.3475
  825SOL    HW1 2474   2.845   2.196   2.465  1.8071 -0.2366  3.3018
  825SOL    HW2 2475   2.888   2.090   2.579 -1.6140  2.0789 -2.3518
  826SOL     OW 2476   2.889   1.414   2.201 -0.2162 -0.3255  0.5017
  826SOL    HW1 2477   2.840   1.426   2.288 -0.5091 -1.0733  0.0678
  826SOL    HW2 2478   2.965   1.345   2.208  0.4910 -2.9153  0.3355
  827SOL     OW 2479   2.498   2.547   1.772 -0.1986  0.0530  0.3011
  827SOL    HW1 2480   2.469   2.452   1.755 -1.5101 -1.0435 -0.0476
  827SOL    HW2 2481   2.418   2.609   1.757 -1.4495 -1.5005 -0.5621
  828SOL     OW 2482   2.953   3.019   1.559  0.1114 -0.0786 -0.3338
  828SOL    HW1 2483   2.990   0.027   1.549  1.8059 -0.6425  1.9742
  828SOL    HW2 2484   2.937   2.973   1.470 -1.6628  2.2376  0.3079
  829SOL     OW 2485   1.831   2.002   2.418 -0.0193  0.0028  0.2517
  829SOL    HW1 2486   1.732   2.011   2.388 -1.1483  0.6958  1.2510
  829SOL    HW2 2487   1.845   2.027   2.516  1.4530  0.8432 -0.8445
  830SOL     OW 2488   1.635   0.606   0.744  0.4848  0.0390  0.5545
  830SOL    HW1 2489   1.621   0.529   0.676 -1.0016 -1.2757  0.2510
  830SOL    HW2 2490   1.731   0.612   0.774  0.8452  2.1135 -1.7685
  831SOL     OW 2491   2.843   1.362   0.817  0.5607  0.8469 -0.1638
  831SOL    HW1 2492   2.928   1.301   0.817  0.8186 -0.8586  1.3043
  831SOL    HW2 2493   2.826   1.406   0.726 -0.2033  0.7798 -1.5594
  832SOL     OW 2494   1.565   2.408   2.023 -0.0509 -0.5632 -0.7616
  832SOL    HW1 2495   1.475   2.439   1.991 -0.1384  1.8248 -1.0000
  832SOL    HW2 2496   1.631   2.440   1.957 -3.4530  1.5933  2.1669
  833SOL     OW 2497   0.088   2.959   2.188  0.3529  0.0893  0.4609
  833SOL    HW1 2498   0.003   2.926   2.135 -2.9583  0.7907 -1.1433
  833SOL    HW2 2499   0.058   2.974   2.281  1.5262 -1.3129  0.9089
  834SOL     OW 2500   1.137   0.886   1.277  0.4341  0.2568 -0.4081
  834SOL    HW1 2501   1.153   0.981   1.309  1.3484 -1.3934 -0.8879
  834SOL    HW2 2502   1.139   0.871   1.174  0.0543  0.2312 -2.0324
  835SOL     OW 2503   0.089   0.598   2.795 -0.3126 -0.0705 -0.3615
  835SOL    HW1 2504   3.074   0.593   2.798 -0.8590  0.1825  0.6119
  835SOL    HW2 2505   0.114   0.653   2.874 -0.6650 -0.8136  0.3820
  836SOL     OW 2506   1.000   2.280   1.049  0.2157  0.2114 -0.0948
  836SOL    HW1 2507   0.941   2.364   1.032 -0.0856  1.3272  1.4395
  836SOL    HW2 2508   1.088   2.319   1.069 -2.0672 -1.4085 -0.4205
  837SOL     OW 2509   2.121   0.880   1.178  0.1429 -0.1984  0.0900
  837SOL    HW1 2510   2.062   0.959   1.141 -0.9978 -2.8786  2.2367
  837SOL    HW2 2511   2.097   0.861   1.275  1.4252  0.3453 -0.6393
  838SOL     OW 2512   1.408   1.566   2.753  0.2077  0.0151 -0.0125
  838SOL    HW1 2513   1.424   1.636   2.825  0.7462 -3.4770  0.9963
  838SOL    HW2 2514   1.365   1.604   2.670  2.8861 -2.8105  1.8057
  839SOL     OW 2515   0.492   2.120   2.897 -0.1240  0.0689 -0.1884
  839SOL    HW1 2516   0.484   2.016   2.883 -2.0889 -2.0752 -0.2910
  839SOL    HW2 2517   0.396   2.154   2.917 -1.2768  0.0567  1.3729
  840SOL     OW 2518   0.749   2.357   2.943  0.1129  0.4888 -0.0839
  840SOL    HW1 2519   0.651   2.326   2.947 -2.5013 -0.3045 -1.0553
  840SOL    HW2 2520   0.760   2.454   2.914 -0.3156 -0.4366 -2.1447
  841SOL     OW 2521   1.840   1.942   0.063 -0.5142  0.3024  0.1939
  841SOL    HW1 2522   1.937   1.931   0.028  1.4971  0.0155 -2.1923
  841SOL    HW2 2523   1.844   2.020   0.129 -1.2097  3.0350  1.9073
  842SOL     OW 2524   1.569   1.012   2.671 -0.5212  0.4599  0.4277
  842SOL    HW1 2525   1.583   0.907   2.679  0.4643  0.3353 -0.5057
  842SOL    HW2 2526   1.493   1.043   2.733 -0.8740  1.4410 -0.4558
  843SOL     OW 2527   1.524   2.880   0.636 -0.0827 -0.2822 -0.1922
  843SOL    HW1 2528   1.570   2.785   0.618  0.1669 -1.0190  1.8441
  843SOL    HW2 2529   1.516   2.930   0.547  0.4938  2.8179  2.7716
  844SOL     OW 2530   2.483   2.912   2.653 -0.1880  0.7760  0.4741
  844SOL    HW1 2531   2.453   2.877   2.741 -3.0229 -1.8388 -0.5933
  844SOL    HW2 2532   2.580   2.923   2.655 -1.8937  0.2193 -2.7416
  845SOL     OW 2533   2.925   2.901   1.310  0.4063  0.3706  0.3992
  845SOL    HW1 2534   2.913   2.971   1.236 -0.9621 -2.4391 -0.4984
  845SOL    HW2 2535   2.854   2.827   1.293 -1.0784  0.6455  1.8954
  846SOL     OW 2536   0.290   2.251   2.277  0.1755  0.7235  0.1845
  846SOL    HW1 2537   0.224   2.324   2.249 -0.2800  0.8382  2.7339
  846SOL    HW2 2538   0.279   2.228   2.372 -0.3751 -2.2490 -1.2744
  847SOL     OW 2539   1.558   0.185   1.547 -0.1728 -0.0300 -0.2110
  847SOL    HW1 2540   1.544   0.238   1.631  3.0592 -0.2398 -1.2139
  847SOL    HW2 2541   1.626   0.109   1.562  0.8987  0.3473  2.4643
  848SOL     OW 2542   2.860   0.615   0.257 -0.5431 -0.3623  0.5797
  848SOL    HW1 2543   2.963   0.617   0.281  0.4920  1.4283  0.8883
  848SOL    HW2 2544   2.826   0.526   0.216 -1.8056  1.4048  1.1835
  849SOL     OW 2545   0.604   0.662   0.122 -0.4181  0.2394 -0.5486
  849SOL    HW1 2546   0.553   0.705   0.197 -0.8677 -1.1021 -1.2736
  849SOL    HW2 2547   0.553   0.579   0.094 -1.2263 -1.3057  1.8743
  850SOL     OW 2548   0.364   2.732   1.070 -0.0764  0.4422  0.3708
  850SOL    HW1 2549   0.264   2.738   1.057  0.9979 -2.3125 -0.5619
  850SOL    HW2 2550   0.407   2.822   1.056  2.4072 -0.3953 -1.5919
  851SOL     OW 2551   1.924   0.245   2.405  0.0290 -0.0432  0.3059
  851SOL    HW1 2552   1.866   0.323   2.430  0.7186 -2.0411 -1.5174
  851SOL    HW2 2553   1.928   0.229   2.306  0.8040  0.7828  3.5192
  852SOL     OW 2554   1.548   1.518   2.315  0.6084  0.2844  0.2460
  852SOL    HW1 2555   1.541   1.470   2.407 -1.7741 -0.2716 -0.9563
  852SOL    HW2 2556   1.453   1.531   2.269  2.0832  0.8198  0.9176
  853SOL     OW 2557   0.143   2.853   0.502  0.2776  0.0738  0.1348
  853SOL    HW1 2558   0.116   2.762   0.466 -0.8296  0.3955 -0.7587
  853SOL    HW2 2559   0.220   2.844   0.572 -0.4965 -1.4252  1.3623
  854SOL     OW 2560   2.328   3.038   0.760  0.5826  0.4138 -0.1221
  854SOL    HW1 2561   2.266   0.030   0.761 -0.5835  1.3173 -0.7996
  854SOL    HW2 2562   2.319   2.987   0.672 -1.3900  2.0505  2.3038
  855SOL     OW 2563   1.368   2.154   0.708  0.2393  0.0542  0.3682
  855SOL    HW1 2564   1.332   2.167   0.610  0.0419  1.6971 -0.4649
  855SOL    HW2 2565   1.297   2.180   0.780  3.2884  0.0053 -1.8241
  856SOL     OW 2566   2.599   0.369   0.389  0.7200 -0.5250 -0.0919
  856SOL    HW1 2567   2.540   0.294   0.346 -2.5132 -0.4535 -2.8595
  856SOL    HW2 2568   2.542   0.421   0.457  0.6930  1.9791  0.9731
  857SOL     OW 2569   1.881   2.750   1.775  0.6093  0.3283  0.0265
  857SOL    HW1 2570   1.908   2.773   1.872 -0.0035 -0.6482 -0.1768
  857SOL    HW2 2571   1.958   2.692   1.729 -0.9705 -2.8254  1.9481
  858SOL     OW 2572   2.625   2.216   1.374 -0.3609 -0.3720 -0.1522
  858SOL    HW1 2573   2.691   2.240   1.300  0.6778  0.0722 -0.2394
  858SOL    HW2 2574   2.529   2.193   1.348 -1.8140 -1.7214 -1.9013
  859SOL     OW 2575   1.127   2.549   0.768  0.1057 -0.5277 -0.3878
  859SOL    HW1 2576   1.043   2.600   0.798 -0.3731  1.1856  0.5513
  859SOL    HW2 2577   1.212   2.606   0.773  2.3524  1.0996  0.1079
  860SOL     OW 2578   2.132   2.456   0.161  0.4781  0.0217 -0.0235
  860SOL    HW1 2579   2.137   2.390   0.239 -1.1595  2.5743  1.0165
  860SOL    HW2 2580   2.196   2.417   0.091  0.2359 -1.9081  0.0585
  861SOL     OW 2581   2.167   2.502   0.974  0.2665 -0.1220 -0.7085
  861SOL    HW1 2582   2.196   2.578   0.905 -0.4662  2.6405  0.1698
  861SOL    HW2 2583   2.256   2.473   1.022  4.8424 -0.7103 -0.2314
  862SOL     OW 2584   1.787   2.866   2.594 -0.6597  0.2344 -0.1363
  862SOL    HW1 2585   1.774   2.923   2.511 -0.6202  1.0114  3.2268
  862SOL    HW2 2586   1.795   2.926   2.681  0.1191  1.9475  0.0156
  863SOL     OW 2587   0.667   0.074   0.297  0.2314  0.3262 -0.7331
  863SOL    HW1 2588   0.690   0.066   0.401 -0.0085  0.5822  2.6793
  863SOL    HW2 2589   0.707   3.084   0.247 -3.3244  2.3476 -0.5363
  864SOL     OW 2590   2.602   2.544   2.082  0.7512  0.6042 -0.2475
  864SOL    HW1 2591   2.677   2.485   2.049  0.8156  1.0448  0.8760
  864SOL    HW2 2592   2.524   2.552   2.015 -0.4105 -1.3461  0.1441
  865SOL     OW 2593   0.016   2.068   2.939 -0.6557  0.0690  0.2852
  865SOL    HW1 2594   0.015   1.983   2.996 -0.5312 -1.6978  0.3601
  865SOL    HW2 2595   3.025   2.129   2.966 -2.6588 -0.5300  1.0445
  866SOL     OW 2596   2.609   0.393   2.690  0.1088 -0.2681  0.8970
  866SOL    HW1 2597   2.579   0.488   2.714 -0.0855  1.6981  1.5826
  866SOL    HW2 2598   2.588   0.385   2.589 -1.7178  1.0026 -0.2008
  867SOL     OW 2599   2.991   2.983   2.434 -0.6414  0.3620 -0.0463
  867SOL    HW1 2600   2.900   2.978   2.391  1.5216 -0.9983 -2.9561
  867SOL    HW2 2601   3.008   3.075   2.476 -1.7843 -0.7131 -1.9686
  868SOL     OW 2602   0.888   2.663   0.785  0.3022 -0.1473  0.3362
  868SOL    HW1 2603   0.925   2.757   0.789  2.4853 -0.1750 -0.5937
  868SOL    HW2 2604   0.846   2.656   0.693 -0.0583  1.1502 -1.3103
  869SOL     OW 2605   1.273   1.355   1.140 -0.1770  0.5204 -0.1787
  869SOL    HW1 2606   1.221   1.439   1.118  0.4026  3.2423  1.1178
  869SOL    HW2 2607   1.358   1.348   1.082 -1.7228 -0.8725 -2.8270
  870SOL     OW 2608   1.633   1.763   1.376  0.5317 -0.6095 -0.0002
  870SOL    HW1 2609   1.655   1.697   1.450 -1.1293 -0.8731 -0.9768
  870SOL    HW2 2610   1.671   1.858   1.397 -1.3452 -0.1825  1.7724
  871SOL     OW 2611   0.893   1.326   1.075 -0.1857 -0.2432  0.4861
  871SOL    HW1 2612   0.920   1.362   0.985  0.3755 -2.3956  1.6820
  871SOL    HW2 2613   0.811   1.375   1.111 -0.6247 -0.7547 -1.1000
  872SOL     OW 2614   1.172   0.465   0.819 -0.0887 -0.0765 -0.1189
  872SOL    HW1 2615   1.245   0.517   0.771  0.2262  0.3161  0.1194
  872SOL    HW2 2616   1.207   0.437   0.905 -0.9061  0.9357 -2.4481
  873SOL     OW 2617   1.664   0.748   2.627 -0.3648  0.3102 -0.4629
  873SOL    HW1 2618   1.720   0.686   2.688  2.2026 -2.3219  2.3432
  873SOL    HW2 2619   1.729   0.795   2.561  1.9639 -0.3756  0.8547
  874SOL     OW 2620   0.593   1.288   1.199  0.4153 -0.1866  0.2531
  874SOL    HW1 2621   0.575   1.306   1.294 -1.1517 -1.4255 -1.1441
  874SOL    HW2 2622   0.505   1.299   1.143  0.5749  1.0488 -0.3394
  875SOL     OW 2623   2.730   2.838   2.935  0.2828 -0.1836  0.1457
  875SOL    HW1 2624   2.670   2.755   2.914 -0.2148 -1.4259  0.9858
  875SOL    HW2 2625   2.770   2.883   2.850  1.9476  0.0339  0.6471
  876SOL     OW 2626   0.811   0.493   3.016  0.9643  0.1454 -0.6165
  876SOL    HW1 2627   0.809   0.423   0.004  0.1273 -1.1437  2.2415
  876SOL    HW2 2628   0.850   0.579   3.055 -0.3828  2.5060  0.8542
  877SOL     OW 2629   0.101   2.867   1.416  0.7068  0.1656 -0.5043
  877SOL    HW1 2630   0.136   2.962   1.403 -1.9092  0.4598  1.4464
  877SOL    HW2 2631   0.035   2.849   1.342  2.1339 -0.3589  2.2920
  878SOL     OW 2632   1.867   2.005   2.672  0.4832 -0.1866 -0.1732
  878SOL    HW1 2633   1.825   2.033   2.762  1.6708 -0.8515 -0.8731
  878SOL    HW2 2634   1.963   2.036   2.675 -0.0978  0.4422  0.6801
  879SOL     OW 2635   2.089   1.644   1.871 -0.1532 -0.0968 -0.5687
  879SOL    HW1 2636   2.153   1.686   1.937  0.1421 -0.5090  3.9241
  879SOL    HW2 2637   2.071   1.712   1.798  1.2710 -0.6542 -1.7154
  880SOL     OW 2638   0.902   0.986   1.008 -0.3220  0.3350  0.0326
  880SOL    HW1 2639   0.961   1.062   1.047  2.0527 -0.2105 -1.2712
  880SOL    HW2 2640   0.959   0.898   1.002 -0.6947 -1.7530 -0.3878
  881SOL     OW 2641   1.179   1.551   0.089 -0.5883 -0.6386 -0.4551
  881SOL    HW1 2642   1.217   1.637   0.128 -0.9675  0.6947 -0.4531
  881SOL    HW2 2643   1.198   1.478   0.160 -0.6987 -1.6078  0.3362
  882SOL     OW 2644   1.756   0.039   1.121 -0.7100 -0.0515 -1.0460
  882SOL    HW1 2645   1.785   0.124   1.174 -0.4770  2.4248  1.1373
  882SOL    HW2 2646   1.838   3.069   1.100 -1.0603  0.3603  1.1476
  883SOL     OW 2647   1.923   0.690   2.054 -0.2753  0.4664 -0.1520
  883SOL    HW1 2648   1.835   0.636   2.055 -1.7443 -2.1784  0.3956
  883SOL    HW2 2649   1.994   0.627   2.012  1.4879 -1.2082  2.4022
  884SOL     OW 2650   2.704   0.597   2.978 -0.1409 -0.2952  0.5012
  884SOL    HW1 2651   2.794   0.597   2.931 -1.0843 -0.6871 -0.0792
  884SOL    HW2 2652   2.696   0.524   3.048  0.5711 -1.3722  0.1284
  885SOL     OW 2653   1.099   2.260   0.802  0.2703  0.2440 -0.3283
  885SOL    HW1 2654   1.099   2.365   0.789 -1.3639  3.7850 -1.7779
  885SOL    HW2 2655   1.059   2.234   0.893 -1.4011 -1.6402  1.2262
  886SOL     OW 2656   1.344   1.108   2.791 -0.1548  0.2925  0.0891
  886SOL    HW1 2657   1.380   1.186   2.845 -1.3503  0.4611  0.5756
  886SOL    HW2 2658   1.269   1.136   2.735  0.0409 -1.1290  0.7074
  887SOL     OW 2659   1.833   3.052   1.666 -0.2235 -0.3516  0.2142
  887SOL    HW1 2660   1.887   0.012   1.742 -0.1045  0.3130  0.9865
  887SOL    HW2 2661   1.801   2.957   1.692  0.8586 -1.2450  2.7862
  888SOL     OW 2662   2.871   1.707   1.608  0.2387  0.3273  0.6406
  888SOL    HW1 2663   2.913   1.791   1.640 -0.9163 -1.9284 -2.2052
  888SOL    HW2 2664   2.911   1.667   1.524 -0.2391 -0.6766 -1.1452
  889SOL     OW 2665   2.905   2.739   0.635 -0.2086 -0.3302 -0.1948
  889SOL    HW1 2666   2.848   2.737   0.720  0.2059 -1.8623 -0.5462
  889SOL    HW2 2667   2.959   2.826   0.622  0.7412 -1.5562 -1.7563
  890SOL     OW 2668   0.505   2.021   2.259  0.2922  0.2079 -0.4474
  890SOL    HW1 2669   0.599   2.069   2.252  2.1711 -1.9404  0.0065
  890SOL    HW2 2670   0.434   2.093   2.245 -1.3989  2.4862 -1.3530
  891SOL     OW 2671   0.597   1.691   0.653  0.3552 -0.3821 -0.0698
  891SOL    HW1 2672   0.622   1.771   0.711 -0.5103 -1.2707  0.4142
  891SOL    HW2 2673   0.509   1.711   0.603 -1.5171  3.6710 -0.4982
  892SOL     OW 2674   2.716   2.501   1.205 -0.1071 -0.9350 -0.3079
  892SOL    HW1 2675   2.694   2.493   1.301  0.5327  0.1157 -1.9226
  892SOL    HW2 2676   2.762   2.418   1.179  1.0131  0.8071  1.1719
  893SOL     OW 2677   0.287   0.410   1.782 -0.6954 -0.1473 -0.1675
  893SOL    HW1 2678   0.265   0.414   1.680  2.2799 -1.2440  2.9705
  893SOL    HW2 2679   0.354   0.485   1.799 -0.3683 -0.2513 -0.6568
  894SOL     OW 2680   2.771   1.824   0.884 -0.2711 -0.3824 -0.5031
  894SOL    HW1 2681   2.711   1.804   0.804  0.8707  1.0880 -0.0524
  894SOL    HW2 2682   2.804   1.734   0.919  1.8363 -1.9589  2.4682
  895SOL     OW 2683   1.360   2.360   1.497  0.1496  0.0016 -0.3322
  895SOL    HW1 2684   1.349   2.355   1.598 -1.3468  2.1448  1.0101
  895SOL    HW2 2685   1.288   2.307   1.450 -0.5277  0.8951  0.8978
  896SOL     OW 2686   0.800   0.264   1.327  0.7021  0.3380  0.1576
  896SOL    HW1 2687   0.734   0.240   1.398  0.7673 -1.1265  1.0181
  896SOL    HW2 2688   0.898   0.267   1.359  1.1055 -2.4402 -0.9992
  897SOL     OW 2689   1.194   1.107   1.010 -0.0753  0.0426  0.4346
  897SOL    HW1 2690   1.207   1.171   1.083 -0.0373 -0.3549 -1.5366
  897SOL    HW2 2691   1.254   1.022   1.016  0.4165 -1.8721  1.2552
  898SOL     OW 2692   0.842   0.222   1.728  0.1106 -0.0428 -0.2500
  898SOL    HW1 2693   0.845   0.313   1.783  0.1603  3.0019  0.4177
  898SOL    HW2 2694   0.939   0.186   1.717 -0.0446 -1.7442  0.1877
  899SOL     OW 2695   1.517   0.369   0.323  0.1367  0.2226  0.3505
  899SOL    HW1 2696   1.599   0.361   0.260  0.6775 -1.6032 -0.5293
  899SOL    HW2 2697   1.451   0.444   0.298 -1.5204  1.2075  3.4703
  900SOL     OW 2698   1.097   0.552   2.357 -0.2389  0.2266  0.1206
  900SOL    HW1 2699   1.130   0.641   2.313 -0.8517  4.0948  0.1741
  900SOL    HW2 2700   1.002   0.532   2.328  0.7645 -2.3667  0.6374
  901SOL     OW 2701   0.592   2.094   0.367 -0.2425  0.2781 -0.5884
  901SOL    HW1 2702   0.664   2.019   0.369  1.2355 -2.6120 -0.3630
  901SOL    HW2 2703   0.573   2.110   0.264 -1.6234 -0.0300 -1.5022
  902SOL     OW 2704   1.915   0.144   0.775  0.3021  0.1612 -0.2762
  902SOL    HW1 2705   1.925   0.167   0.675  1.4149  1.0926 -0.3246
  902SOL    HW2 2706   1.861   0.058   0.786  3.0901 -0.0862 -1.6123
  903SOL     OW 2707   0.069   1.338   2.481 -0.0649 -0.3960 -0.2645
  903SOL    HW1 2708   0.068   1.439   2.496 -2.3460  0.8234 -1.1060
  903SOL    HW2 2709   0.052   1.319   2.380  0.8326 -0.1412 -0.5964
  904SOL     OW 2710   1.798   1.373   0.454 -0.5296 -0.1314  0.3518
  904SOL    HW1 2711   1.705   1.384   0.489  0.8213 -0.5776  0.7981
  904SOL    HW2 2712   1.794   1.303   0.374 -0.5472 -0.3873 -3.9709
  905SOL     OW 2713   1.961   2.646   1.377 -0.0759 -0.4628  0.3175
  905SOL    HW1 2714   1.921   2.694   1.298 -0.3745  2.6988  1.3514
  905SOL    HW2 2715   1.971   2.544   1.360  1.7108 -0.7454  1.2078
  906SOL     OW 2716   2.214   2.680   0.790 -0.4304 -0.5579 -0.1012
  906SOL    HW1 2717   2.143   2.751   0.797 -1.3224 -3.2427  0.5903
  906SOL    HW2 2718   2.296   2.727   0.833 -0.6009  0.5715 -0.8960
  907SOL     OW 2719   1.921   0.985   0.306 -0.9084 -0.6930 -1.0452
  907SOL    HW1 2720   1.925   0.886   0.287  0.7491  2.1738  1.5751
  907SOL    HW2 2721   1.990   1.011   0.382  0.5217  0.6900  2.0958
  908SOL     OW 2722   1.826   0.233   1.289 -0.2715 -0.4804 -0.4523
  908SOL    HW1 2723   1.880   0.310   1.258  2.5868 -2.6874 -0.4021
  908SOL    HW2 2724   1.724   0.245   1.293  2.2757 -0.1545  0.4083
  909SOL     OW 2725   2.426   2.815   0.896  0.1520  0.7889  0.2796
  909SOL    HW1 2726   2.393   2.902   0.854 -1.3957  0.9981 -3.0464
  909SOL    HW2 2727   2.467   2.828   0.992  2.0564 -2.7085 -0.1232
  910SOL     OW 2728   2.417   0.704   2.057 -0.2902  0.3257  0.2061
  910SOL    HW1 2729   2.337   0.650   2.097  0.1447 -0.4175  1.6878
  910SOL    HW2 2730   2.501   0.710   2.116  0.8377  1.8783 -1.0501
  911SOL     OW 2731   2.032   0.085   2.606  0.7188  0.2403  0.0224
  911SOL    HW1 2732   1.972   0.126   2.679  0.5278 -0.6291  2.3070
  911SOL    HW2 2733   2.015   0.126   2.513 -2.3397 -0.0629 -2.0557
  912SOL     OW 2734   0.582   0.871   1.295  0.0675  0.1731  0.2690
  912SOL    HW1 2735   0.675   0.902   1.304 -2.2696  1.5961 -1.6009
  912SOL    HW2 2736   0.581   0.769   1.279  0.9895 -1.7809 -0.2410
  913SOL     OW 2737   2.456   2.595   1.188  0.2135  0.1609 -0.2920
  913SOL    HW1 2738   2.432   2.694   1.215  2.1017  1.1911  1.1380
  913SOL    HW2 2739   2.553   2.589   1.156  3.0982 -0.1913 -1.4599
  914SOL     OW 2740   1.317   0.417   1.057 -0.1537 -0.1268  0.3453
  914SOL    HW1 2741   1.404   0.459   1.027 -0.2796  0.1643  0.5109
  914SOL    HW2 2742   1.333   0.312   1.065 -0.0287 -1.3985 -1.0505
  915SOL     OW 2743   0.355   1.618   1.338 -0.2871 -0.1399  0.3564
  915SOL    HW1 2744   0.345   1.615   1.235  2.0827 -1.5426  2.6419
  915SOL    HW2 2745   0.408   1.698   1.358 -1.2382 -2.5310 -0.7493
  916SOL     OW 2746   1.988   2.332   0.875 -0.6066  0.1179 -0.2046
  916SOL    HW1 2747   2.047   2.409   0.908 -2.7830  1.1698  2.7318
  916SOL    HW2 2748   1.900   2.336   0.930 -1.4833  0.3895  0.5668
  917SOL     OW 2749   1.911   2.383   2.285  0.3582  0.3990  0.4120
  917SOL    HW1 2750   1.966   2.390   2.202 -1.1335 -0.0546  0.3115
  917SOL    HW2 2751   1.871   2.475   2.304  0.2377 -2.1966  0.5728
  918SOL     OW 2752   2.007   1.800   2.377 -0.3683 -0.4460  0.3444
  918SOL    HW1 2753   2.070   1.857   2.320 -1.5503 -1.1073  3.0130
  918SOL    HW2 2754   1.929   1.861   2.400 -2.2595 -2.1650  0.7746
  919SOL     OW 2755   0.790   0.494   1.179 -0.6082  0.1321 -0.2849
  919SOL    HW1 2756   0.787   0.400   1.222  4.2745  0.1672 -0.0397
  919SOL    HW2 2757   0.876   0.542   1.207  0.7232 -0.6080  1.3609
  920SOL     OW 2758   2.832   0.743   2.117 -0.9092  0.0397 -0.0205
  920SOL    HW1 2759   2.865   0.671   2.048  0.3911 -0.6604  0.4562
  920SOL    HW2 2760   2.912   0.778   2.166 -3.9049 -2.1557  0.0292
  921SOL     OW 2761   2.584   1.261   1.520  0.4559 -0.4061 -0.0408
  921SOL    HW1 2762   2.636   1.222   1.448  0.5055  0.4236  1.5963
  921SOL    HW2 2763   2.608   1.212   1.607  3.1611  0.9268  3.4439
  922SOL     OW 2764   2.755   2.286   0.893 -0.6525  0.1677  0.4754
  922SOL    HW1 2765   2.689   2.275   0.967  1.0205  0.4145  0.7372
  922SOL    HW2 2766   2.700   2.291   0.806 -2.9079  0.2834 -0.4055
  923SOL     OW 2767   0.040   2.327   0.598  0.4765  0.0246  0.0276
  923SOL    HW1 2768   0.035   2.238   0.649 -0.8786 -1.0994  0.4074
  923SOL    HW2 2769   0.135   2.363   0.620  2.8202 -1.0594  2.1843
  924SOL     OW 2770   1.009   1.246   2.917  0.2280 -0.4551 -0.2485
  924SOL    HW1 2771   1.071   1.330   2.904  0.3715  3.3905  0.8177
  924SOL    HW2 2772   0.919   1.276   2.959  0.4411  1.8874 -1.9703
  925SOL     OW 2773   3.046   1.184   0.878 -0.1501  0.3360 -0.1538
  925SOL    HW1 2774   3.069   1.226   0.971 -0.4132 -0.7073  0.0563
  925SOL    HW2 2775   2.988   1.102   0.895  2.0889  2.3051 -0.1298
  926SOL     OW 2776   0.123   0.047   1.303 -0.5593 -0.0643  0.2160
  926SOL    HW1 2777   0.196   0.119   1.296  0.2582 -1.5979  1.5184
  926SOL    HW2 2778   0.078   0.032   1.211 -1.9027 -0.5566 -2.3559
  927SOL     OW 2779   0.550   1.927   2.517 -0.6591 -0.3211  0.9394
  927SOL    HW1 2780   0.557   1.829   2.503  0.1006  0.4265 -1.3880
  927SOL    HW2 2781   0.518   1.967   2.426  1.1881  2.1195 -3.3987
  928SOL     OW 2782   0.298   0.614   2.360  0.2420 -0.4750  0.2885
  928SOL    HW1 2783   0.345   0.527   2.383  0.3220  2.0843 -0.3711
  928SOL    HW2 2784   0.229   0.636   2.427  1.9804 -0.2091 -0.6957
  929SOL     OW 2785   2.650   2.052   1.021 -0.0580 -0.4504  0.4525
  929SOL    HW1 2786   2.560   2.093   0.993 -3.8045 -0.7163  3.2734
  929SOL    HW2 2787   2.665   1.964   0.963  0.1723  0.1826 -0.0627
  930SOL     OW 2788   1.697   0.404   2.415  0.8216  0.0425 -0.5752
  930SOL    HW1 2789   1.615   0.345   2.415  0.0599 -2.5955  1.6729
  930SOL    HW2 2790   1.685   0.480   2.345 -0.9609  1.5478  0.5581
  931SOL     OW 2791   2.453   0.879   2.540  0.4318  0.4331  0.4991
  931SOL    HW1 2792   2.391   0.868   2.457 -4.2621 -0.3925 -4.7918
  931SOL    HW2 2793   2.510   0.960   2.533  1.5236  0.6281  0.2419
  932SOL     OW 2794   1.763   0.906   0.592 -0.0336  0.4355 -0.3144
  932SOL    HW1 2795   1.777   0.961   0.508 -0.1056 -1.9736  1.2549
  932SOL    HW2 2796   1.765   0.806   0.576 -2.1708 -0.9049  0.1719
  933SOL     OW 2797   2.117   0.686   0.729  0.3477 -0.2642  0.0475
  933SOL    HW1 2798   2.101   0.651   0.635  1.9485  1.1777 -0.3284
  933SOL    HW2 2799   2.202   0.738   0.723 -2.1938  0.3460 -3.1105
  934SOL     OW 2800   2.584   1.291   2.488 -0.2451 -0.2821 -0.4120
  934SOL    HW1 2801   2.672   1.341   2.498  1.1795 -0.8123  1.6125
  934SOL    HW2 2802   2.603   1.189   2.490  0.4709  2.7227  0.0303
  935SOL     OW 2803   0.008   1.323   1.102 -0.1432 -0.0954 -0.3092
  935SOL    HW1 2804   0.021   1.422   1.122  1.8580  0.8193  1.7797
  935SOL    HW2 2805   3.043   1.280   1.176 -1.4007 -0.0077 -1.3360
  936SOL     OW 2806   0.067   2.955   0.077  0.1822 -0.3850  0.3283
  936SOL    HW1 2807   0.075   2.868   0.123 -1.3043  1.7656  2.3243
  936SOL    HW2 2808   0.150   3.012   0.088 -0.9947  0.1477 -0.0387
  937SOL     OW 2809   2.804   2.391   2.016 -0.4409 -0.1888 -0.0415
  937SOL    HW1 2810   2.791   2.330   2.101 -2.1289 -2.1226  3.8865
  937SOL    HW2 2811   2.879   2.356   1.950  2.8367 -2.7861 -2.5433
  938SOL     OW 2812   2.280   2.416   3.005  0.1295  0.1023  0.7710
  938SOL    HW1 2813   2.377   2.388   3.028 -0.5338 -0.2104 -0.4623
  938SOL    HW2 2814   2.253   2.354   2.932  1.1288 -0.0016 -0.5997
  939SOL     OW 2815   1.031   0.520   1.440  0.5401  0.4329  0.0729
  939SOL    HW1 2816   1.112   0.577   1.464 -1.8039 -0.8166 -2.3035
  939SOL    HW2 2817   0.957   0.528   1.513  2.3503  0.3959  0.0989
  940SOL     OW 2818   2.353   3.019   2.990 -0.0222 -0.2516 -0.1138
  940SOL    HW1 2819   2.251   3.018   2.977  0.3870  1.2764  1.6911
  940SOL    HW2 2820   2.392   2.927   2.957 -0.4448 -1.0316 -0.6401
  941SOL     OW 2821   2.718   2.824   2.055  0.6683 -0.1722 -0.1298
  941SOL    HW1 2822   2.652   2.890   2.019  1.8205  1.7218 -0.1422
  941SOL    HW2 2823   2.682   2.728   2.071 -0.6834 -1.9688  0.8766
  942SOL     OW 2824   1.522   3.018   1.059 -0.3093  0.1428 -0.5094
  942SOL    HW1 2825   1.475   2.940   1.111 -1.7366 -2.3996  0.6065
  942SOL    HW2 2826   1.604   3.050   1.113 -2.3351  2.0376  1.8523
  943SOL     OW 2827   1.100   1.538   2.366  0.1388  0.0123  0.1356
  943SOL    HW1 2828   1.158   1.457   2.358  1.9334  0.4753 -3.2429
  943SOL    HW2 2829   1.001   1.517   2.341 -1.3593  2.3887  2.3622
  944SOL     OW 2830   2.784   0.838   1.454 -0.3864  0.4259 -0.4025
  944SOL    HW1 2831   2.804   0.798   1.362 -0.9996 -0.1279  2.3811
  944SOL    HW2 2832   2.703   0.786   1.489 -1.0338 -3.7872  0.9688
  945SOL     OW 2833   2.824   0.140   2.655 -0.3585  0.1204  0.2423
  945SOL    HW1 2834   2.783   0.206   2.723  4.4030  1.9003  1.2208
  945SOL    HW2 2835   2.818   0.168   2.560  0.3002 -0.7580 -1.2345
  946SOL     OW 2836   0.101   1.720   1.448  0.2231  0.2255  0.2760
  946SOL    HW1 2837   0.180   1.678   1.391  5.1940  0.5794 -0.6633
  946SOL    HW2 2838   0.144   1.759   1.529 -0.4652  1.8637 -1.1978
  947SOL     OW 2839   0.347   0.299   2.941  0.1792 -0.5573 -0.3311
  947SOL    HW1 2840   0.393   0.212   2.935  0.3903  3.1545  0.5687
  947SOL    HW2 2841   0.313   0.328   2.848  3.1798  0.5190 -1.4892
  948SOL     OW 2842   2.231   1.604   1.090  0.3314 -0.4601  0.4300
  948SOL    HW1 2843   2.171   1.669   1.135  0.4666 -1.3184 -1.5741
  948SOL    HW2 2844   2.244   1.519   1.148  1.4451 -1.0167 -1.4042
  949SOL     OW 2845   0.258   1.235   2.929  0.1427 -0.2270  0.2605
  949SOL    HW1 2846   0.211   1.321   2.937 -1.7192  2.5954 -0.9477
  949SOL    HW2 2847   0.237   1.193   2.841 -1.0582 -1.1968 -0.6409
  950SOL     OW 2848   0.506   2.741   1.590 -0.3878 -0.0163  0.2718
  950SOL    HW1 2849   0.403   2.734   1.587 -1.6834  0.9367 -0.0539
  950SOL    HW2 2850   0.542   2.646   1.572  2.2739 -4.0355  0.2856
  951SOL     OW 2851   0.915   2.127   2.513  0.2189 -0.1018  0.4932
  951SOL    HW1 2852   0.843   2.093   2.577 -2.6512  3.5304 -0.1692
  951SOL    HW2 2853   1.005   2.130   2.556  0.6253  0.0636 -0.5922
  952SOL     OW 2854   0.688   1.090   0.575  0.3213 -0.1290 -0.4386
  952SOL    HW1 2855   0.593   1.082   0.537  0.2279 -2.7761  0.2061
  952SOL    HW2 2856   0.757   1.080   0.500  2.0010 -2.8369  3.8115
  953SOL     OW 2857   2.253   1.683   3.029  0.2862  0.0419 -0.4436
  953SOL    HW1 2858   2.333   1.647   2.981 -1.4812  2.7079 -0.3220
  953SOL    HW2 2859   2.256   1.650   0.039  3.4960 -0.6186 -0.4441
  954SOL     OW 2860   1.578   0.386   0.597 -0.6670 -0.2002 -0.3846
  954SOL    HW1 2861   1.556   0.379   0.501 -0.3839 -0.3403  2.2350
  954SOL    HW2 2862   1.587   0.294   0.636  1.1129  2.4047 -1.4639
  955SOL     OW 2863   0.912   1.543   0.079 -0.3205 -0.3120 -0.5176
  955SOL    HW1 2864   0.880   1.468   0.020  1.0752  0.6142  0.5701
  955SOL    HW2 2865   1.015   1.540   0.080 -1.0937 -0.7017 -1.5287
  956SOL     OW 2866   2.806   0.324   2.043 -0.1549 -0.2410  0.4433
  956SOL    HW1 2867   2.823   0.418   2.012 -2.2719 -3.5502  0.1428
  956SOL    HW2 2868   2.836   0.310   2.139 -1.1763  0.8443 -0.6012
  957SOL     OW 2869   1.930   2.083   2.125  0.3537 -0.4187  0.1976
  957SOL    HW1 2870   1.844   2.036   2.092 -1.0295  1.7479 -2.3276
  957SOL    HW2 2871   1.910   2.125   2.220 -1.1915  0.8419  2.8744
  958SOL     OW 2872   1.736   0.924   1.250  0.1103 -0.5733 -0.0429
  958SOL    HW1 2873   1.814   0.965   1.300 -1.4615  0.5126  2.4335
  958SOL    HW2 2874   1.715   0.830   1.289 -0.0965  0.8245  1.6304
  959SOL     OW 2875   1.585   2.143   2.089 -0.2414 -0.8443  0.0751
  959SOL    HW1 2876   1.650   2.074   2.047  0.8723 -2.0307 -0.6953
  959SOL    HW2 2877   1.580   2.229   2.037  0.4871 -0.2878 -0.7908
  960SOL     OW 2878   0.765   1.364   2.644 -0.0273  0.2949  0.4114
  960SOL    HW1 2879   0.854   1.406   2.652  0.9038 -1.3337 -2.4282
  960SOL    HW2 2880   0.725   1.385   2.555  1.9588  3.1190  0.8696
  961SOL     OW 2881   2.845   1.280   0.133 -0.1580 -0.0998  0.1449
  961SOL    HW1 2882   2.925   1.342   0.115 -0.0156  0.0757 -1.0164
  961SOL    HW2 2883   2.753   1.332   0.141 -2.4131  1.0642 -0.0721
  962SOL     OW 2884   0.901   1.807   0.089 -0.2070 -0.3006  0.4279
  962SOL    HW1 2885   0.910   1.704   0.086 -0.8128 -0.5261 -0.7152
  962SOL    HW2 2886   0.956   1.853   0.015 -1.9792  0.0227  0.1545
  963SOL     OW 2887   2.598   1.584   3.033  0.6178 -0.0602 -0.7146
  963SOL    HW1 2888   2.643   1.518   0.010  0.7977  0.0837 -1.3236
  963SOL    HW2 2889   2.600   1.676   3.072 -1.7452 -0.0108  0.5115
  964SOL     OW 2890   0.756   2.126   2.229 -0.1957 -0.1436  0.2696
  964SOL    HW1 2891   0.815   2.123   2.307 -1.2457  0.1638 -1.0808
  964SOL    HW2 2892   0.797   2.196   2.162  0.6592  0.2262 -1.3209
  965SOL     OW 2893   1.377   1.765   1.407  0.0941  0.4721 -0.4919
  965SOL    HW1 2894   1.481   1.774   1.389  3.8081  1.7230 -1.9048
  965SOL    HW2 2895   1.344   1.686   1.353  0.8145 -2.0904  0.6606
  966SOL     OW 2896   2.969   1.509   0.376 -0.5265 -0.1507 -0.4358
  966SOL    HW1 2897   3.052   1.481   0.425 -1.0880  1.0695 -0.4894
  966SOL    HW2 2898   2.988   1.512   0.276 -0.3345  1.0366  4.3378
  967SOL     OW 2899   1.922   2.644   2.541  0.2120  0.1700  0.3848
  967SOL    HW1 2900   1.865   2.726   2.567  1.0695  0.4767 -1.1506
  967SOL    HW2 2901   2.010   2.632   2.597  0.9030  1.6096 -2.5091
  968SOL     OW 2902   1.431   1.317   2.971 -0.2013 -0.4101 -0.0194
  968SOL    HW1 2903   1.403   1.355   3.060  2.2977  1.6309 -1.5331
  968SOL    HW2 2904   1.494   1.385   2.931 -0.7866 -0.6722  0.9635
  969SOL     OW 2905   0.113   0.991   2.422  0.0529 -0.1925 -0.7198
  969SOL    HW1 2906   0.155   1.064   2.368  0.6417 -2.3191  1.7475
  969SOL    HW2 2907   0.163   0.993   2.512  1.3099  0.0750  0.5292
  970SOL     OW 2908   2.474   0.168   0.242 -0.4409  0.3885  0.0560
  970SOL    HW1 2909   2.403   0.155   0.173  2.1890 -2.2746  1.8244
  970SOL    HW2 2910   2.538   0.087   0.257  0.7412 -1.1379 -0.2900
  971SOL     OW 2911   1.751   2.004   0.827  0.3116 -0.4797  0.5375
  971SOL    HW1 2912   1.716   2.083   0.878  1.5268  0.1799 -1.9877
  971SOL    HW2 2913   1.822   1.953   0.885 -0.3962 -1.8262  0.4515
  972SOL     OW 2914   0.279   1.947   2.594  0.3667 -0.3497  0.3781
  972SOL    HW1 2915   0.380   1.929   2.575 -2.2377 -3.4211 -2.5805
  972SOL    HW2 2916   0.245   1.863   2.638  4.0838  1.1686  0.4642
  973SOL     OW 2917   0.611   0.499   0.393 -0.2344  0.3464 -0.0510
  973SOL    HW1 2918   0.575   0.588   0.365  0.3357 -1.3393  0.5585
  973SOL    HW2 2919   0.583   0.417   0.342 -0.7621 -0.0304  1.5413
  974SOL     OW 2920   2.623   0.675   1.589  0.0637 -0.1118 -0.2652
  974SOL    HW1 2921   2.697   0.601   1.590  2.7759 -1.3345  2.5684
  974SOL    HW2 2922   2.542   0.644   1.641 -0.8797 -0.2694  1.6004
  975SOL     OW 2923   0.348   3.065   0.795 -0.1765 -0.4907 -0.2794
  975SOL    HW1 2924   0.340   2.969   0.773  2.5707 -0.4940  2.2713
  975SOL    HW2 2925   0.372   0.038   0.717  2.1987  1.0059 -0.7725
  976SOL     OW 2926   0.663   1.481   1.552  0.2201 -0.6928 -0.0705
  976SOL    HW1 2927   0.586   1.421   1.516  0.1785 -1.7965  2.9592
  976SOL    HW2 2928   0.646   1.579   1.531 -1.8959 -0.6670 -0.9481
  977SOL     OW 2929   1.300   2.189   0.433 -0.1063 -0.1357 -0.5266
  977SOL    HW1 2930   1.373   2.154   0.367  0.1604  0.2676 -0.5464
  977SOL    HW2 2931   1.228   2.120   0.448  1.2534  2.6948 -1.9682
  978SOL     OW 2932   0.322   1.055   0.057  0.5998  0.2031  0.1449
  978SOL    HW1 2933   0.311   1.145   0.010 -0.0570  1.7122 -3.1201
  978SOL    HW2 2934   0.401   1.047   0.120  0.4667 -0.3977 -1.2815
  979SOL     OW 2935   2.088   1.144   0.156  0.2252  0.0425  0.4849
  979SOL    HW1 2936   2.138   1.177   0.234 -0.7570  2.6226 -1.2296
  979SOL    HW2 2937   2.029   1.070   0.187 -1.1314  1.3119 -2.0553
  980SOL     OW 2938   0.662   1.702   1.985 -0.0618 -0.2022  0.4233
  980SOL    HW1 2939   0.609   1.637   1.929  1.5935  0.2941  0.3969
  980SOL    HW2 2940   0.597   1.766   2.025 -0.8002  0.9697  1.0751
  981SOL     OW 2941   2.199   1.491   2.252  0.1315 -0.3108  0.1335
  981SOL    HW1 2942   2.302   1.496   2.257 -2.3544 -0.1147  1.1202
  981SOL    HW2 2943   2.170   1.394   2.250 -2.5336  0.6928 -1.0276
  982SOL     OW 2944   0.254   2.164   1.825  0.3386 -0.5040 -0.2944
  982SOL    HW1 2945   0.276   2.217   1.739 -1.4352 -0.9887 -2.4814
  982SOL    HW2 2946   0.325   2.182   1.899 -3.0980  0.4434 -3.3948
  983SOL     OW 2947   1.548   2.857   2.028  0.5069  0.5358 -0.4777
  983SOL    HW1 2948   1.523   2.904   1.944 -0.2589 -1.3003 -1.2242
  983SOL    HW2 2949   1.468   2.802   2.065 -2.1629  0.7012  2.2090
  984SOL     OW 2950   0.062   0.148   2.840  0.1162 -0.3208 -0.2250
  984SOL    HW1 2951   3.064   0.189   2.877  0.7875  2.0030  0.5676
  984SOL    HW2 2952   0.052   0.051   2.860 -1.3421  5.3026  0.0493
  985SOL     OW 2953   1.486   1.333   1.807  0.7094 -0.2342 -0.4073
  985SOL    HW1 2954   1.491   1.342   1.708  0.0221 -0.9122  3.1529
  985SOL    HW2 2955   1.410   1.270   1.829 -0.3301  0.7687 -1.1466
  986SOL     OW 2956   1.686   0.370   0.105  0.0444  0.1927  0.2976
  986SOL    HW1 2957   1.790   0.383   0.111  3.0205 -0.6863  0.4758
  986SOL    HW2 2958   1.646   0.438   0.038  0.1369 -1.5896 -1.1261
  987SOL     OW 2959   0.270   2.213   2.557 -0.0377  0.3284 -0.3087
  987SOL    HW1 2960   0.364   2.242   2.590  1.9433 -0.2016  0.9278
  987SOL    HW2 2961   0.264   2.109   2.566 -0.7448 -2.7754  2.1790
  988SOL     OW 2962   2.813   0.194   1.600  0.3813  0.4215  1.0685
  988SOL    HW1 2963   2.903   0.176   1.566 -0.1570 -2.2019  2.2845
  988SOL    HW2 2964   2.739   0.180   1.530 -2.5068  0.0433 -0.5684
  989SOL     OW 2965   1.978   2.991   1.056 -0.4610 -0.4243  0.3568
  989SOL    HW1 2966   1.995   2.996   0.954  0.0675  2.7334 -2.5835
  989SOL    HW2 2967   2.040   3.063   1.097  2.4626  1.0337  1.4893
  990SOL     OW 2968   2.712   0.819   0.188  0.7827  0.2238  0.0798
  990SOL    HW1 2969   2.744   0.844   0.096 -2.3973  0.9025 -1.5215
  990SOL    HW2 2970   2.760   0.734   0.224  1.8811 -1.5898  1.1000
  991SOL     OW 2971   0.327   1.080   0.652 -0.3902 -0.0384  0.0665
  991SOL    HW1 2972   0.247   1.139   0.623 -0.0999  1.5864  2.1618
  991SOL    HW2 2973   0.369   1.115   0.733 -2.3428  0.1825 -0.6483
  992SOL     OW 2974   1.639   1.596   1.636  0.0094 -0.4952 -0.3612
  992SOL    HW1 2975   1.560   1.644   1.674  2.0163  0.3092 -0.8641
  992SOL    HW2 2976   1.722   1.591   1.697 -0.9773 -1.3282 -0.9971
  993SOL     OW 2977   2.955   2.456   0.925  0.6682  0.3583 -0.2420
  993SOL    HW1 2978   3.024   2.393   0.963  1.6310 -2.5599 -0.1864
  993SOL    HW2 2979   2.870   2.404   0.897  1.2026  0.6659 -1.5147
  994SOL     OW 2980   2.997   1.791   1.262 -0.1345 -0.0853 -0.3749
  994SOL    HW1 2981   2.912   1.845   1.264  1.6932 -0.2513  1.4386
  994SOL    HW2 2982   3.021   1.768   1.358 -2.5878  1.9020  1.4459
  995SOL     OW 2983   1.984   1.353   2.756 -0.1255  0.5859 -0.6889
  995SOL    HW1 2984   1.890   1.331   2.771 -0.6305  1.9095 -0.9848
  995SOL    HW2 2985   2.007   1.441   2.801 -0.1855  1.3238  3.2563
  996SOL     OW 2986   1.807   2.469   0.479 -0.9311 -0.2434 -0.8347
  996SOL    HW1 2987   1.816   2.485   0.379  1.2249  1.3816 -1.6061
  996SOL    HW2 2988   1.891   2.418   0.514  0.4866 -1.1588 -0.0813
  997SOL     OW 2989   1.370   1.548   1.921 -0.1310 -0.0900  0.0992
  997SOL    HW1 2990   1.275   1.552   1.885  1.2652  0.5312  4.9301
  997SOL    HW2 2991   1.425   1.488   1.861 -2.4065  4.5534  0.4464
  998SOL     OW 2992   2.912   2.486   0.512  0.1052  0.4564  0.0096
  998SOL    HW1 2993   2.990   2.425   0.544 -0.9552  1.4729  1.0419
  998SOL    HW2 2994   2.899   2.572   0.569  0.2884  3.3737  2.5288
  999SOL     OW 2995   0.732   2.962   0.100  0.1690 -0.2065  0.4784
  999SOL    HW1 2996   0.690   2.869   0.079  2.2401  1.4309  0.8185
  999SOL    HW2 2997   0.682   3.034   0.048 -1.8441 -0.6486 -0.5147
 1000SOL     OW 2998   1.051   0.291   0.155  0.4497 -0.0984 -0.3361
 1000SOL    HW1 2999   1.091   0.293   0.063 -0.6475  1.4153  0.3567
 1000SOL    HW2 3000   0.950   0.280   0.142 -2.3236  1.7170 -1.9558
   3.08810   3.08810   3.08810
