1000 SPC/Fw water molecules t= 158.00000 step= 158000
 3000
    1SOL     OW    1   2.453   2.637   0.618 -0.4636 -0.5599  0.6068
    1SOL    HW1    2   2.506   2.724   0.599 -2.2530 -1.2192  0.9793
    1SOL    HW2    3   2.360   2.661   0.643 -0.4720  1.3208 -0.6057
    2SOL     OW    4   1.329   2.016   2.422  0.4095 -0.3379  0.4406
    2SOL    HW1    5   1.399   2.088   2.450 -0.7554 -1.7270 -1.6388
    2SOL    HW2    6   1.346   1.934   2.477  1.8226  1.4956 -2.3639
    3SOL     OW    7   1.798   2.390   1.895  0.1627 -0.1633  0.2062
    3SOL    HW1    8   1.808   2.287   1.893  2.7409 -2.3436  1.3129
    3SOL    HW2    9   1.883   2.426   1.946  0.9142  1.3953  1.5233
    4SOL     OW   10   1.988   2.485   2.056 -0.2803  0.0888 -0.3551
    4SOL    HW1   11   2.049   2.408   2.051 -0.2471 -0.9246  2.1719
    4SOL    HW2   12   2.024   2.570   2.103  0.2078  2.1698  0.5152
    5SOL     OW   13   0.744   0.464   1.579  0.6478  0.0804 -0.2286
    5SOL    HW1   14   0.843   0.453   1.594  2.1126  2.4806 -4.4658
    5SOL    HW2   15   0.692   0.460   1.667 -0.8346 -1.1876  2.2334
    6SOL     OW   16   2.360   0.890   2.858 -0.1682 -0.4099 -0.1138
    6SOL    HW1   17   2.335   0.820   2.929 -1.2675 -3.4307 -0.3057
    6SOL    HW2   18   2.355   0.852   2.762 -1.2075  0.6920  0.2530
    7SOL     OW   19   0.856   0.490   1.120 -0.1010 -0.7317  0.4151
    7SOL    HW1   20   0.859   0.412   1.049 -1.1284 -0.8055 -1.1076
    7SOL    HW2   21   0.767   0.485   1.165  1.3320 -0.7895 -2.5444
    8SOL     OW   22   1.275   2.397   1.369 -0.6998 -0.1833  0.0167
    8SOL    HW1   23   1.192   2.352   1.408 -1.2343 -1.1144 -1.4924
    8SOL    HW2   24   1.363   2.357   1.408  0.0159 -0.1546  1.6649
    9SOL     OW   25   0.822   0.871   0.194  0.4664  0.0785  0.2318
    9SOL    HW1   26   0.822   0.891   0.095  0.6339 -3.3092 -2.0588
    9SOL    HW2   27   0.864   0.777   0.202 -0.5885  0.7878  0.0745
   10SOL     OW   28   0.413   2.770   2.915 -0.1236 -0.4690  0.2886
   10SOL    HW1   29   0.350   2.703   2.959  0.9657 -4.0920  0.3134
   10SOL    HW2   30   0.469   2.720   2.845 -1.0498 -0.8366  1.7417
   11SOL     OW   31   0.076   1.325   2.822 -0.4416  0.6338  0.6882
   11SOL    HW1   32   0.013   1.381   2.764 -1.6496  1.9123 -1.7290
   11SOL    HW2   33   0.099   1.363   2.912  0.4213 -1.3290 -0.8069
   12SOL     OW   34   0.790   2.990   1.336  0.0846  0.3682  0.2742
   12SOL    HW1   35   0.752   2.945   1.255  0.1940 -0.6227 -0.7717
   12SOL    HW2   36   0.790   0.013   1.328  0.6336 -1.8279  1.4187
   13SOL     OW   37   0.643   2.646   0.551 -0.2875 -0.3364  0.4235
   13SOL    HW1   38   0.705   2.611   0.617  0.1884  1.2622 -3.7071
   13SOL    HW2   39   0.677   2.734   0.516 -0.0957 -1.6585  0.4055
   14SOL     OW   40   1.448   1.767   0.834  0.5668  0.3549 -0.0464
   14SOL    HW1   41   1.372   1.836   0.818  1.0585 -5.1861  1.6167
   14SOL    HW2   42   1.458   1.760   0.936 -0.6295 -2.0146  0.3592
   15SOL     OW   43   2.571   0.787   2.225  0.3327  0.6843 -1.0054
   15SOL    HW1   44   2.548   0.737   2.312  0.8640 -0.3947  1.5058
   15SOL    HW2   45   2.505   0.864   2.203 -1.7266  1.0494  1.8200
   16SOL     OW   46   1.262   0.023   2.898  0.0990  0.0061  0.3134
   16SOL    HW1   47   1.316   3.033   2.946 -0.3490 -0.5889 -1.0934
   16SOL    HW2   48   1.324   0.097   2.866  0.9138  1.6871  0.7513
   17SOL     OW   49   0.754   2.422   1.865 -0.3247  0.4864  0.0396
   17SOL    HW1   50   0.662   2.428   1.823  0.8275 -1.1789 -0.2920
   17SOL    HW2   51   0.816   2.489   1.824 -4.0807 -0.3636  0.1823
   18SOL     OW   52   1.324   0.688   0.180  0.1170  0.2620  0.1754
   18SOL    HW1   53   1.333   0.786   0.194  1.0105  1.4614  1.6267
   18SOL    HW2   54   1.329   0.664   0.080 -0.0406 -0.3963  0.2189
   19SOL     OW   55   2.106   1.965   2.848  0.1831 -1.0261  0.6899
   19SOL    HW1   56   2.090   2.065   2.841 -2.8679 -1.2394 -0.5969
   19SOL    HW2   57   2.183   1.942   2.783  2.3301  1.3328 -0.3952
   20SOL     OW   58   2.047   1.763   2.019  0.0609 -0.0313 -0.2833
   20SOL    HW1   59   2.147   1.766   2.014  0.3269 -1.0665 -1.6241
   20SOL    HW2   60   2.005   1.669   2.034 -0.7912  1.8290  0.4914
   21SOL     OW   61   0.292   1.654   2.989 -0.1639 -0.2859  0.8026
   21SOL    HW1   62   0.340   1.719   3.050 -0.2110  0.6041  0.8789
   21SOL    HW2   63   0.305   1.683   2.893  1.9071  2.6834  3.3900
   22SOL     OW   64   2.433   0.094   1.354 -0.4324  0.4256  0.4345
   22SOL    HW1   65   2.508   0.027   1.347  1.0013  2.8729  0.6094
   22SOL    HW2   66   2.356   0.061   1.294 -3.0111 -1.3866 -0.1814
   23SOL     OW   67   2.937   1.151   1.761 -0.6533 -0.3455  0.4005
   23SOL    HW1   68   2.903   1.083   1.690  0.5435  0.8516  0.1528
   23SOL    HW2   69   3.031   1.187   1.730 -0.3992  1.9273  0.0933
   24SOL     OW   70   2.580   1.750   1.261 -0.0724  0.2844 -0.9789
   24SOL    HW1   71   2.650   1.679   1.271 -0.1583 -0.0362 -0.6098
   24SOL    HW2   72   2.511   1.748   1.334  0.1822  1.2709  0.3015
   25SOL     OW   73   1.985   3.027   2.538 -0.0201  0.4961 -0.2450
   25SOL    HW1   74   2.045   2.969   2.471  1.0605 -2.7398  1.0020
   25SOL    HW2   75   1.893   2.990   2.558 -0.7550  3.9072  0.9834
   26SOL     OW   76   1.392   2.859   0.487 -0.0199  0.3151 -0.1761
   26SOL    HW1   77   1.422   2.954   0.511  2.5276 -1.3021  1.1922
   26SOL    HW2   78   1.470   2.804   0.460  0.2046  1.1371  1.7315
   27SOL     OW   79   0.792   2.084   2.932  0.9249  0.2523 -0.0059
   27SOL    HW1   80   0.804   2.059   3.031  1.1297 -2.1228 -0.0206
   27SOL    HW2   81   0.718   2.025   2.897 -0.8816  0.8203 -2.5613
   28SOL     OW   82   2.729   1.488   1.210  0.5184  0.4842 -0.5499
   28SOL    HW1   83   2.774   1.522   1.126 -3.1254 -2.2448 -1.1242
   28SOL    HW2   84   2.629   1.479   1.197  0.5869  0.8211  0.7374
   29SOL     OW   85   2.548   2.196   2.165 -0.3303  0.2701 -0.0937
   29SOL    HW1   86   2.490   2.280   2.184 -2.0245 -0.7128 -1.1273
   29SOL    HW2   87   2.645   2.218   2.139 -0.8061  0.2690  0.2930
   30SOL     OW   88   1.193   2.666   1.047 -0.0780 -0.5109  0.3585
   30SOL    HW1   89   1.193   2.767   1.028 -1.1489  1.1522 -0.3242
   30SOL    HW2   90   1.111   2.622   1.008  0.4615  0.2295 -0.4045
   31SOL     OW   91   2.967   2.272   1.892 -0.0261 -0.5965  0.4289
   31SOL    HW1   92   2.970   2.296   1.794 -0.5419 -0.9519 -0.9364
   31SOL    HW2   93   3.052   2.297   1.944  2.1274 -2.0467  2.1364
   32SOL     OW   94   1.223   1.048   1.950  0.2321  0.1605 -0.1571
   32SOL    HW1   95   1.283   1.048   1.865 -3.1770 -0.2276 -1.4431
   32SOL    HW2   96   1.268   1.089   2.032  2.4631  0.9302 -2.9259
   33SOL     OW   97   0.643   2.998   2.409 -0.2963 -0.6805 -0.4951
   33SOL    HW1   98   0.644   2.901   2.435  0.7071  4.0573 -1.3424
   33SOL    HW2   99   0.579   3.053   2.468 -1.3323  1.7011  0.4626
   34SOL     OW  100   1.788   2.991   1.170  0.4569  0.0749  0.0534
   34SOL    HW1  101   1.865   3.045   1.216 -0.6150  1.5853 -1.4413
   34SOL    HW2  102   1.807   2.896   1.146  2.1079  1.1570 -0.9728
   35SOL     OW  103   1.992   0.589   1.343  0.0078 -0.2915 -0.0880
   35SOL    HW1  104   1.925   0.621   1.272  0.6372  0.4081 -1.1902
   35SOL    HW2  105   2.021   0.669   1.399 -1.7067 -2.1740 -0.2773
   36SOL     OW  106   2.074   2.719   2.162  0.7368 -0.6520  0.0801
   36SOL    HW1  107   2.077   2.673   2.253 -0.9261  3.2566 -0.0922
   36SOL    HW2  108   2.173   2.717   2.132  0.9128  0.9806  0.0818
   37SOL     OW  109   1.420   2.276   2.553  0.1299  0.0632 -0.7048
   37SOL    HW1  110   1.501   2.319   2.602  1.9865  1.9079  0.6935
   37SOL    HW2  111   1.342   2.264   2.616  1.1126  0.6235 -0.8673
   38SOL     OW  112   2.334   0.304   0.107  0.3611 -0.2578 -0.1908
   38SOL    HW1  113   2.406   0.231   0.114 -1.1234 -1.2582 -0.5469
   38SOL    HW2  114   2.355   0.375   0.037  1.7531  0.3396  2.9115
   39SOL     OW  115   2.034   1.898   2.246  0.6346  0.1916 -0.2072
   39SOL    HW1  116   1.945   1.910   2.293  1.5656  0.7236  0.1859
   39SOL    HW2  117   2.038   1.829   2.174 -0.3758  0.4874  0.6264
   40SOL     OW  118   0.190   2.920   2.796  0.2330 -0.3443  0.0592
   40SOL    HW1  119   0.165   2.981   2.877 -2.5072  3.7845  0.3334
   40SOL    HW2  120   0.263   2.855   2.827 -0.6352 -1.9552 -2.6788
   41SOL     OW  121   1.450   0.746   1.446  0.5166  0.2189 -0.0191
   41SOL    HW1  122   1.371   0.696   1.406  0.4870 -0.4118 -0.9247
   41SOL    HW2  123   1.539   0.692   1.439  1.1333  0.2824  0.8054
   42SOL     OW  124   0.444   0.129   1.669  0.0793 -1.0099 -0.1904
   42SOL    HW1  125   0.500   0.166   1.591  1.7218 -0.4689  0.5293
   42SOL    HW2  126   0.491   0.044   1.711 -1.7562  2.0594 -1.1042
   43SOL     OW  127   1.570   0.228   1.912 -0.4076 -0.0637 -0.0024
   43SOL    HW1  128   1.583   0.218   2.012 -0.3607 -0.4667  0.8520
   43SOL    HW2  129   1.664   0.223   1.865 -0.2101 -1.4407  0.5982
   44SOL     OW  130   0.134   2.703   2.526 -0.4769  0.1642 -0.1121
   44SOL    HW1  131   0.221   2.757   2.529  1.1537  1.7065 -0.6472
   44SOL    HW2  132   0.045   2.752   2.529  0.2167  0.9714  1.2636
   45SOL     OW  133   0.246   2.336   1.477 -0.3155 -0.0302 -0.4631
   45SOL    HW1  134   0.171   2.381   1.526  0.5959 -0.5786 -0.9674
   45SOL    HW2  135   0.343   2.368   1.508  1.3708  0.8253  0.5836
   46SOL     OW  136   2.138   2.103   2.394  0.2601 -0.5391  0.8085
   46SOL    HW1  137   2.237   2.115   2.373 -1.1926  1.0867 -0.5357
   46SOL    HW2  138   2.101   2.022   2.347 -1.2403  2.4511  0.0815
   47SOL     OW  139   1.643   1.978   1.869  0.4602 -0.0124  0.1489
   47SOL    HW1  140   1.713   2.041   1.915  2.9397 -1.0467  1.6903
   47SOL    HW2  141   1.669   1.880   1.860 -2.5734  1.0164 -0.6506
   48SOL     OW  142   0.311   1.832   0.302 -0.3980  0.0988 -0.0346
   48SOL    HW1  143   0.293   1.837   0.403 -0.6311 -0.6864 -2.6849
   48SOL    HW2  144   0.225   1.852   0.247  2.5498  1.7135  1.3453
   49SOL     OW  145   2.645   0.471   2.379 -0.4930  0.0330  0.5705
   49SOL    HW1  146   2.647   0.490   2.479 -0.7656  0.1032  1.0147
   49SOL    HW2  147   2.559   0.513   2.336 -1.4744  0.3998  0.6684
   50SOL     OW  148   1.814   0.735   1.155 -0.2455 -0.0404 -0.8012
   50SOL    HW1  149   1.822   0.835   1.158 -0.1185 -1.9196  2.3550
   50SOL    HW2  150   1.722   0.703   1.125  1.6876  0.7134  1.2325
   51SOL     OW  151   1.153   0.663   1.025 -0.2873  0.4727 -0.4178
   51SOL    HW1  152   1.084   0.725   1.069  1.3055  1.1580 -0.2498
   51SOL    HW2  153   1.234   0.721   0.994 -0.5610 -0.5893 -0.6490
   52SOL     OW  154   1.393   1.247   3.026  0.3122  0.7078 -0.1628
   52SOL    HW1  155   1.347   1.175   2.974  0.9728 -0.6134 -1.4258
   52SOL    HW2  156   1.327   1.310   3.062  2.7204 -1.9575 -1.3314
   53SOL     OW  157   1.189   2.068   2.887 -0.1738  0.3321 -0.7458
   53SOL    HW1  158   1.109   2.006   2.868 -0.4432 -1.7581 -0.4815
   53SOL    HW2  159   1.189   2.160   2.834  0.3735  3.1957 -1.6836
   54SOL     OW  160   1.667   0.575   1.498  0.3968 -0.3217  0.0248
   54SOL    HW1  161   1.683   0.497   1.431  0.8681 -2.2554 -1.7713
   54SOL    HW2  162   1.670   0.544   1.595 -0.0744  1.7530 -0.5207
   55SOL     OW  163   1.933   2.798   0.748 -0.0695  0.4321  0.4650
   55SOL    HW1  164   1.940   2.870   0.679 -0.3840  0.3901 -0.8541
   55SOL    HW2  165   1.840   2.802   0.793 -1.1578  0.2479 -2.7786
   56SOL     OW  166   0.784   2.614   1.347  1.1045 -0.4823 -0.0992
   56SOL    HW1  167   0.881   2.643   1.319 -0.5619 -2.0725 -0.4507
   56SOL    HW2  168   0.758   2.651   1.435  0.0630 -0.5183 -0.7580
   57SOL     OW  169   1.898   1.139   0.479  0.7258  0.2345  0.0555
   57SOL    HW1  170   1.843   1.117   0.400  0.3595  0.2930  2.2447
   57SOL    HW2  171   1.996   1.137   0.458  1.2308  1.2395 -0.3660
   58SOL     OW  172   0.233   1.025   2.106 -0.4746  0.2543 -0.0479
   58SOL    HW1  173   0.262   0.947   2.164 -2.4033 -0.0476  2.1672
   58SOL    HW2  174   0.147   1.063   2.147  0.7591  0.8073 -1.0995
   59SOL     OW  175   0.712   2.466   2.440  0.2456  0.9987 -0.5742
   59SOL    HW1  176   0.750   2.539   2.498 -1.2353 -1.1685 -0.3303
   59SOL    HW2  177   0.745   2.475   2.348  0.0952 -1.8407  0.5279
   60SOL     OW  178   2.624   2.730   1.009 -0.0062 -0.1753 -0.1938
   60SOL    HW1  179   2.569   2.703   1.096 -0.3845 -0.5792  1.2774
   60SOL    HW2  180   2.572   2.778   0.938  3.0077  1.3388  3.1833
   61SOL     OW  181   1.278   2.041   0.560  0.2227 -0.0182  0.6095
   61SOL    HW1  182   1.250   1.996   0.646 -0.6922 -2.9518  2.6478
   61SOL    HW2  183   1.352   2.098   0.581 -1.6666 -0.9992 -2.3335
   62SOL     OW  184   2.190   2.822   2.868  0.0900 -0.4964  0.0353
   62SOL    HW1  185   2.230   2.736   2.894  1.1256  3.5282 -2.1355
   62SOL    HW2  186   2.195   2.889   2.951  2.3658 -0.5095  0.0075
   63SOL     OW  187   1.837   0.429   0.085 -0.1639 -0.3455  0.5623
   63SOL    HW1  188   1.930   0.434   0.115 -1.4533 -1.6551 -2.4171
   63SOL    HW2  189   1.786   0.521   0.099 -0.5331  3.3229  0.4078
   64SOL     OW  190   0.950   1.310   3.043  0.9225  0.3523 -0.0069
   64SOL    HW1  191   0.925   1.347   2.954  0.1111 -0.3776  1.8470
   64SOL    HW2  192   0.869   1.268   0.004  3.1240 -1.0978 -0.8596
   65SOL     OW  193   1.316   2.358   0.591  0.0019 -0.5622  0.2686
   65SOL    HW1  194   1.384   2.393   0.528  0.5717  1.5835  1.4170
   65SOL    HW2  195   1.354   2.276   0.634 -3.6016 -1.7610  0.7953
   66SOL     OW  196   0.538   1.229   1.914 -0.1872 -0.3970  0.1723
   66SOL    HW1  197   0.584   1.250   2.000 -1.1652 -1.1679 -1.6683
   66SOL    HW2  198   0.440   1.187   1.928 -2.6981 -1.0125 -2.7049
   67SOL     OW  199   2.324   0.031   2.255  0.3967  0.2115 -0.8025
   67SOL    HW1  200   2.281   0.073   2.173 -1.7294 -0.7058  0.8894
   67SOL    HW2  201   2.343   0.098   2.328 -0.2713  1.3664  2.0061
   68SOL     OW  202   0.856   1.030   1.351  0.0976  0.0664  0.0833
   68SOL    HW1  203   0.895   1.053   1.445  2.2075  0.8632 -1.7670
   68SOL    HW2  204   0.771   0.972   1.360 -1.3047 -1.3783 -0.7598
   69SOL     OW  205   1.761   2.711   0.388  0.3266 -0.4118 -0.0186
   69SOL    HW1  206   1.738   2.799   0.435  1.4563 -0.0542 -1.0786
   69SOL    HW2  207   1.815   2.647   0.452 -1.5609  0.0372  2.2465
   70SOL     OW  208   2.775   0.991   2.384 -0.2167  0.6828 -0.0240
   70SOL    HW1  209   2.874   0.975   2.417 -0.2969 -4.2769 -0.1260
   70SOL    HW2  210   2.748   0.904   2.336  2.2741 -1.7133  0.3998
   71SOL     OW  211   2.920   1.575   2.969 -0.4079  0.4947  0.0676
   71SOL    HW1  212   2.875   1.514   2.900  0.3212 -0.9519 -0.0693
   71SOL    HW2  213   2.973   1.652   2.930  0.6475 -0.1267 -0.0590
   72SOL     OW  214   3.024   1.987   0.393 -0.4595  0.3235 -0.4827
   72SOL    HW1  215   2.923   1.991   0.383  1.7591  1.4964 -0.0480
   72SOL    HW2  216   3.042   1.942   0.483 -0.0809 -1.1018  1.2331
   73SOL     OW  217   0.820   1.565   0.475 -0.2937 -1.1026  0.0429
   73SOL    HW1  218   0.823   1.515   0.567 -0.2703 -0.4461 -0.4329
   73SOL    HW2  219   0.874   1.512   0.410 -3.0673 -1.2955  2.1972
   74SOL     OW  220   0.373   1.902   1.936 -0.0112  0.4432  0.3066
   74SOL    HW1  221   0.294   1.892   2.004  2.8784  0.7781 -0.0998
   74SOL    HW2  222   0.451   1.941   1.987  0.7492 -1.6238 -1.6294
   75SOL     OW  223   1.646   1.469   1.613 -0.1247  0.0213  0.7647
   75SOL    HW1  224   1.615   1.497   1.518 -0.0243 -2.2700 -1.4892
   75SOL    HW2  225   1.692   1.542   1.663 -1.0782 -1.8745 -1.7022
   76SOL     OW  226   2.020   2.598   1.380  0.6313 -0.3096 -0.6481
   76SOL    HW1  227   2.089   2.531   1.369  0.3369  0.7688 -0.8258
   76SOL    HW2  228   2.050   2.675   1.436 -1.1491  0.7003  2.2930
   77SOL     OW  229   2.692   0.957   1.255 -0.0886 -0.5953 -0.2437
   77SOL    HW1  230   2.793   0.969   1.246 -1.1199 -0.3359 -1.4771
   77SOL    HW2  231   2.663   0.863   1.232 -0.0662  2.4951 -0.1503
   78SOL     OW  232   1.207   0.905   0.565  0.1915  0.8533  0.5933
   78SOL    HW1  233   1.229   1.004   0.545 -1.2053  3.1480 -3.1688
   78SOL    HW2  234   1.263   0.841   0.502  1.7068 -2.7930 -1.6365
   79SOL     OW  235   2.747   1.365   1.766  0.5032 -0.1277  0.3437
   79SOL    HW1  236   2.810   1.295   1.804 -0.3703  0.3089 -0.0090
   79SOL    HW2  237   2.763   1.383   1.666 -1.9610  0.4187 -1.0959
   80SOL     OW  238   1.019   0.475   1.585  0.6027  0.6859 -0.2663
   80SOL    HW1  239   1.081   0.528   1.646  1.2019 -1.1464  2.4586
   80SOL    HW2  240   1.073   0.421   1.519 -0.5936  0.3511  3.0370
   81SOL     OW  241   0.996   2.929   0.773 -0.1628  0.4522 -0.1110
   81SOL    HW1  242   1.062   2.887   0.707 -1.4228  0.3386  4.2163
   81SOL    HW2  243   0.975   3.024   0.751 -1.6215  0.0335  0.9599
   82SOL     OW  244   1.369   0.015   1.473 -0.2456 -0.0742  0.5070
   82SOL    HW1  245   1.407   0.072   1.398  1.1830 -0.0740  0.6480
   82SOL    HW2  246   1.301   3.033   1.444  3.7263 -0.6781 -1.3143
   83SOL     OW  247   1.254   1.955   0.819  0.1633 -0.5990  0.7357
   83SOL    HW1  248   1.255   2.048   0.865 -0.4419  3.0939 -0.9660
   83SOL    HW2  249   1.213   1.883   0.880  0.5326 -0.9616 -1.3136
   84SOL     OW  250   0.366   1.701   2.733 -0.1811  0.4839  0.0706
   84SOL    HW1  251   0.307   1.637   2.677 -1.8691 -0.1025 -1.6497
   84SOL    HW2  252   0.463   1.673   2.723  0.1571 -1.5337 -0.0396
   85SOL     OW  253   0.201   2.183   1.264  0.1963  0.7127 -0.3857
   85SOL    HW1  254   0.099   2.165   1.253 -4.0858  0.9523 -0.9443
   85SOL    HW2  255   0.213   2.233   1.347 -0.8282 -2.1437 -0.9017
   86SOL     OW  256   2.507   2.497   1.489 -0.0662  0.3161  0.3507
   86SOL    HW1  257   2.602   2.469   1.468 -1.0389  0.5011 -0.5816
   86SOL    HW2  258   2.479   2.486   1.586  2.3443  0.4673 -1.0280
   87SOL     OW  259   0.087   1.952   0.674 -0.1828 -0.4719  0.5379
   87SOL    HW1  260   0.165   1.895   0.647  2.0569 -0.8660  1.7793
   87SOL    HW2  261   0.099   2.046   0.639  1.3103  1.4166  3.0055
   88SOL     OW  262   0.792   1.386   1.471 -0.1663  0.2655  0.5674
   88SOL    HW1  263   0.815   1.288   1.501  0.9482 -0.9158 -0.2640
   88SOL    HW2  264   0.794   1.403   1.369 -0.4860 -0.0941 -3.3080
   89SOL     OW  265   1.125   2.925   1.974  0.0906  0.6213  0.3475
   89SOL    HW1  266   1.065   2.996   2.017  0.1109  1.5570  1.1177
   89SOL    HW2  267   1.075   2.833   1.984  2.0752  0.7264  0.1834
   90SOL     OW  268   2.978   1.651   1.282  0.3093 -0.8327  0.1490
   90SOL    HW1  269   3.011   1.663   1.378  0.8822  1.4447  1.3482
   90SOL    HW2  270   2.917   1.572   1.275  0.3842  2.1065  1.5313
   91SOL     OW  271   1.436   1.750   1.094  0.3140  0.1064 -0.3163
   91SOL    HW1  272   1.374   1.805   1.152  0.4177 -2.7043 -2.1685
   91SOL    HW2  273   1.512   1.700   1.147  1.6051 -1.7818  1.3267
   92SOL     OW  274   2.435   2.663   1.721  0.4438  0.0339  0.2322
   92SOL    HW1  275   2.337   2.635   1.692 -1.1382  0.8389 -1.4027
   92SOL    HW2  276   2.473   2.605   1.795 -1.0817  1.2052 -2.8438
   93SOL     OW  277   2.746   1.514   2.596  0.1635 -0.8692 -0.5793
   93SOL    HW1  278   2.671   1.490   2.534 -0.5632 -0.4891  1.0192
   93SOL    HW2  279   2.742   1.447   2.674  0.4644  0.9014 -1.5253
   94SOL     OW  280   2.732   2.996   2.197  0.0650  0.2810 -0.1878
   94SOL    HW1  281   2.691   0.008   2.217 -1.8164  0.2956 -0.8964
   94SOL    HW2  282   2.747   2.988   2.095  1.6385 -1.3206 -1.2317
   95SOL     OW  283   1.373   0.401   1.815  0.2466  0.5375 -0.1365
   95SOL    HW1  284   1.439   0.333   1.858  0.1228 -0.0297  0.3864
   95SOL    HW2  285   1.409   0.493   1.827 -1.3234 -1.9059  3.6189
   96SOL     OW  286   2.947   0.336   1.485 -0.7215 -0.4117 -0.3577
   96SOL    HW1  287   2.881   0.403   1.457  1.4290  1.2518  2.3418
   96SOL    HW2  288   2.959   0.341   1.586  0.4236 -1.4845  0.5574
   97SOL     OW  289   2.009   0.314   1.406 -0.4586 -0.2088 -0.4347
   97SOL    HW1  290   1.976   0.413   1.403 -0.5835  2.5932  0.0764
   97SOL    HW2  291   2.076   0.300   1.483 -1.5077  1.2807  2.8297
   98SOL     OW  292   1.807   2.448   1.435 -0.5609 -0.3087 -0.3111
   98SOL    HW1  293   1.879   2.509   1.400  2.7349  3.1736  2.0121
   98SOL    HW2  294   1.785   2.480   1.533 -0.6792 -0.2467  0.9892
   99SOL     OW  295   2.859   0.065   1.587 -0.3353 -0.5820  0.0348
   99SOL    HW1  296   2.852   0.145   1.524  0.6293  0.9754 -3.6244
   99SOL    HW2  297   2.919   3.077   1.540 -0.1707  2.1041 -1.4610
  100SOL     OW  298   2.661   1.139   2.173  0.2284  0.0788  0.2368
  100SOL    HW1  299   2.709   1.219   2.135 -2.8379 -3.2620  0.4205
  100SOL    HW2  300   2.718   1.099   2.251 -1.1441 -1.0424 -1.8446
  101SOL     OW  301   1.440   0.661   0.716 -0.0551 -0.5045 -0.3026
  101SOL    HW1  302   1.517   0.606   0.748 -2.4382  0.8024  3.5247
  101SOL    HW2  303   1.405   0.715   0.796  1.6473  0.9097 -0.1995
  102SOL     OW  304   0.587   0.896   1.372 -0.2238 -0.2919 -0.2227
  102SOL    HW1  305   0.527   0.979   1.381 -2.0265  1.2484 -0.0294
  102SOL    HW2  306   0.567   0.822   1.442  1.6800  0.3029  2.8217
  103SOL     OW  307   2.243   0.656   3.057 -0.1429 -0.1022  0.4630
  103SOL    HW1  308   2.157   0.682   0.021  1.0137  4.1859 -1.2152
  103SOL    HW2  309   2.317   0.679   0.040 -2.9648 -2.3357 -0.4726
  104SOL     OW  310   0.028   0.139   2.059  0.4841  0.1818  0.4111
  104SOL    HW1  311   0.011   0.106   1.963  2.3683  1.8847 -0.4941
  104SOL    HW2  312   3.021   0.155   2.104  1.5145 -0.0542  1.2616
  105SOL     OW  313   1.892   0.742   1.744 -0.3723  0.1076 -0.0519
  105SOL    HW1  314   1.820   0.807   1.731  2.5331 -3.4922 -1.1972
  105SOL    HW2  315   1.982   0.782   1.719  1.4182  1.6735 -2.5692
  106SOL     OW  316   1.779   0.023   0.903 -0.2589  0.3415  0.0052
  106SOL    HW1  317   1.777   3.053   0.996 -0.0704 -1.0581  3.5320
  106SOL    HW2  318   1.725   3.045   0.840 -2.7501  1.8312  1.0122
  107SOL     OW  319   0.452   1.101   0.727 -0.3134 -0.1386  0.3931
  107SOL    HW1  320   0.421   1.072   0.635  0.6519  1.6410  0.9975
  107SOL    HW2  321   0.395   1.183   0.754  0.6923  2.4710  1.8705
  108SOL     OW  322   2.856   0.245   2.076  0.2625  0.4084 -0.3168
  108SOL    HW1  323   2.813   0.286   1.995  1.8906 -0.3892  1.0861
  108SOL    HW2  324   2.788   0.191   2.129  0.4349 -4.2190 -0.1435
  109SOL     OW  325   2.405   0.453   0.670 -0.3553  0.0303 -0.1805
  109SOL    HW1  326   2.391   0.477   0.574  3.4320 -1.7683  0.0635
  109SOL    HW2  327   2.328   0.392   0.692  0.1479 -0.5458 -0.2053
  110SOL     OW  328   0.386   2.418   2.720  0.4085 -0.2514 -0.1589
  110SOL    HW1  329   0.329   2.446   2.639 -2.4683 -0.7568  0.0685
  110SOL    HW2  330   0.441   2.334   2.700  1.4593 -0.4105  1.6048
  111SOL     OW  331   1.776   3.008   2.103 -0.7286  0.0211 -0.0131
  111SOL    HW1  332   1.821   0.009   2.146 -0.6350  0.6461 -0.5313
  111SOL    HW2  333   1.803   2.993   2.004  0.6888 -2.3848  1.3889
  112SOL     OW  334   2.031   2.643   0.186 -0.0295  0.4148  0.0420
  112SOL    HW1  335   1.977   2.725   0.171  0.3426 -0.9373  1.2463
  112SOL    HW2  336   2.116   2.650   0.130  1.5283  1.1388  2.5760
  113SOL     OW  337   2.389   2.305   1.674  0.2336 -0.0336  0.5490
  113SOL    HW1  338   2.479   2.306   1.719  1.3199  1.6011  1.1376
  113SOL    HW2  339   2.316   2.356   1.724 -0.4658  1.8208  1.3513
  114SOL     OW  340   2.801   1.079   0.857  0.2580 -0.7320  0.2790
  114SOL    HW1  341   2.707   1.078   0.823 -1.9232 -0.3526 -0.3823
  114SOL    HW2  342   2.838   0.986   0.849  0.1784  0.9100  0.4812
  115SOL     OW  343   2.905   1.730   0.133 -0.3424 -0.1044  0.5998
  115SOL    HW1  344   2.921   1.688   0.220 -1.4117 -0.6909 -1.3026
  115SOL    HW2  345   2.879   1.663   0.066 -2.2254  1.7832 -2.0195
  116SOL     OW  346   3.060   1.371   2.203 -0.3261 -0.0130 -0.4125
  116SOL    HW1  347   3.067   1.277   2.241  1.0864  0.9910 -1.1603
  116SOL    HW2  348   0.048   1.384   2.127  3.9327  1.0477  1.1573
  117SOL     OW  349   2.493   2.920   0.864 -0.8326 -0.2722  0.3839
  117SOL    HW1  350   2.394   2.923   0.853 -0.6828 -0.5073  0.1898
  117SOL    HW2  351   2.537   2.914   0.766  0.4494  1.3934 -0.0587
  118SOL     OW  352   0.409   2.105   1.466 -0.1163  0.4871  0.3520
  118SOL    HW1  353   0.436   2.079   1.565 -2.0013  0.0232 -1.2396
  118SOL    HW2  354   0.354   2.192   1.467  2.0291  0.2936 -0.9972
  119SOL     OW  355   1.757   2.116   0.506  0.3393  0.1548 -0.3561
  119SOL    HW1  356   1.721   2.029   0.545  1.8789  2.6509  1.5283
  119SOL    HW2  357   1.857   2.126   0.518 -1.8446  0.2612  2.0343
  120SOL     OW  358   0.051   1.959   2.427  0.6610  0.1961  0.4192
  120SOL    HW1  359   0.113   1.878   2.410 -1.3350  0.6865  1.0762
  120SOL    HW2  360   0.071   2.047   2.373  1.2532  1.8386  1.0974
  121SOL     OW  361   2.361   2.057   1.348 -0.3251 -0.1045 -0.1187
  121SOL    HW1  362   2.296   2.131   1.353  1.8693 -1.6439 -0.0256
  121SOL    HW2  363   2.356   2.011   1.258  1.5492  2.4181  0.8108
  122SOL     OW  364   2.164   1.249   2.222 -0.4305  0.2123 -0.7528
  122SOL    HW1  365   2.242   1.213   2.267 -4.5031  0.8516 -0.8384
  122SOL    HW2  366   2.179   1.313   2.142  1.3675  2.1486  0.5625
  123SOL     OW  367   0.132   2.862   0.670  0.1601 -0.4094 -0.1007
  123SOL    HW1  368   0.049   2.896   0.614 -1.9225  3.3906 -0.2376
  123SOL    HW2  369   0.093   2.820   0.751  3.4072  0.3309 -2.3359
  124SOL     OW  370   1.730   0.646   2.665  0.0614  0.3752 -0.3731
  124SOL    HW1  371   1.765   0.738   2.634  2.6361  1.2743  2.1196
  124SOL    HW2  372   1.632   0.627   2.641 -1.5039  2.8062 -1.4110
  125SOL     OW  373   0.539   1.434   2.849 -0.0918  0.0026  0.8519
  125SOL    HW1  374   0.579   1.524   2.810 -0.1001  1.7830 -0.1541
  125SOL    HW2  375   0.534   1.440   2.948  0.7886 -1.5466 -2.5281
  126SOL     OW  376   2.712   1.920   0.108  0.3693  0.5281  0.0282
  126SOL    HW1  377   2.752   2.011   0.076 -1.4365  2.5223 -3.5517
  126SOL    HW2  378   2.785   1.852   0.109 -1.4568  0.4232 -0.8057
  127SOL     OW  379   0.566   1.776   1.239  0.1926 -0.0091 -0.4712
  127SOL    HW1  380   0.557   1.879   1.249  0.7598  0.8778  0.9899
  127SOL    HW2  381   0.591   1.720   1.321  0.0557  2.7194 -1.6231
  128SOL     OW  382   0.930   0.628   0.170 -0.2589 -0.1733  0.3787
  128SOL    HW1  383   0.886   0.583   0.088 -1.1231  0.3851 -1.8483
  128SOL    HW2  384   1.019   0.588   0.200 -1.2197 -1.8147 -0.0909
  129SOL     OW  385   2.223   1.403   0.855 -0.0545 -0.1985  0.2319
  129SOL    HW1  386   2.170   1.433   0.770 -1.3877  1.9326 -1.0435
  129SOL    HW2  387   2.312   1.456   0.860 -0.5370 -0.2143 -0.3340
  130SOL     OW  388   2.167   1.781   0.849 -0.0157  0.0340  0.4831
  130SOL    HW1  389   2.083   1.737   0.889  2.0083 -0.2458 -0.7890
  130SOL    HW2  390   2.246   1.736   0.890 -1.9763 -2.0124 -0.5626
  131SOL     OW  391   2.743   1.043   2.737 -0.0743  0.0353 -0.4788
  131SOL    HW1  392   2.684   1.014   2.817  1.7129 -0.5354  0.8525
  131SOL    HW2  393   2.846   1.037   2.750  0.6614  0.1033 -1.1867
  132SOL     OW  394   2.518   1.712   1.863 -0.3335  0.2052 -0.5323
  132SOL    HW1  395   2.531   1.813   1.886 -0.7759 -1.6642 -0.8853
  132SOL    HW2  396   2.608   1.659   1.871  0.2770  0.7091 -1.4143
  133SOL     OW  397   2.996   0.914   0.065 -0.4010  0.9840  0.0761
  133SOL    HW1  398   2.987   0.844   0.141 -0.0591  0.1339  1.6535
  133SOL    HW2  399   0.013   0.934   0.044  3.4238 -1.7512  0.4951
  134SOL     OW  400   0.335   1.173   0.037  0.7567  0.1483  0.2998
  134SOL    HW1  401   0.304   1.256   3.064  0.6943  0.0355 -0.2333
  134SOL    HW2  402   0.394   1.120   3.061 -1.6629  2.8479  1.3895
  135SOL     OW  403   2.312   1.755   0.630  0.0035 -0.0704 -0.5046
  135SOL    HW1  404   2.246   1.776   0.707 -2.2640  0.4478  2.0124
  135SOL    HW2  405   2.274   1.786   0.542  0.3044 -2.1868  0.8119
  136SOL     OW  406   1.878   1.469   1.249  0.5441 -0.6508  0.1097
  136SOL    HW1  407   1.863   1.385   1.308 -1.9000  1.1801 -1.8531
  136SOL    HW2  408   1.953   1.453   1.188 -1.5680 -0.2740  0.5047
  137SOL     OW  409   2.562   1.703   0.736  0.3344 -0.1770 -0.1028
  137SOL    HW1  410   2.617   1.792   0.746  0.7369 -1.1968  0.1326
  137SOL    HW2  411   2.471   1.728   0.695 -0.4496  0.8389 -1.6363
  138SOL     OW  412   1.109   0.228   1.352 -0.0849  0.0810 -0.7121
  138SOL    HW1  413   1.141   0.302   1.290 -0.7291  2.4472  2.0351
  138SOL    HW2  414   1.111   0.132   1.313  0.7354  1.9892  3.2699
  139SOL     OW  415   2.319   0.031   0.239  0.1905  0.0853  0.2950
  139SOL    HW1  416   2.261   0.060   0.160 -1.2465  0.3861  0.6954
  139SOL    HW2  417   2.289   0.065   0.329 -0.2708  2.4949  0.2468
  140SOL     OW  418   1.435   2.056   2.823 -0.2783  0.0428 -0.5498
  140SOL    HW1  419   1.335   2.046   2.851  0.4456 -1.5017 -0.2469
  140SOL    HW2  420   1.478   2.137   2.871 -1.1706  2.8502  0.3373
  141SOL     OW  421   0.973   1.127   1.580 -0.3406 -0.4334  0.3111
  141SOL    HW1  422   0.934   1.176   1.660 -0.5752 -0.8156  0.6564
  141SOL    HW2  423   0.995   1.024   1.597 -1.7907 -0.7564  1.7347
  142SOL     OW  424   2.629   0.130   0.062  0.3796 -0.2203 -0.8065
  142SOL    HW1  425   2.616   0.131   0.163 -0.4252  0.7150  0.2085
  142SOL    HW2  426   2.710   0.069   0.043 -1.0908 -0.1196  1.0612
  143SOL     OW  427   0.823   2.515   3.025  0.0044  0.4992  0.0973
  143SOL    HW1  428   0.792   2.495   0.039  0.3734  0.2435 -1.6213
  143SOL    HW2  429   0.891   2.587   3.019 -0.3489 -1.5167  1.6500
  144SOL     OW  430   1.165   2.817   2.482 -0.3705  0.4086  0.5102
  144SOL    HW1  431   1.162   2.737   2.544 -1.6767  0.9479  1.7071
  144SOL    HW2  432   1.197   2.901   2.530 -1.1484  3.6758  2.5063
  145SOL     OW  433   2.366   1.520   0.055  0.1828  0.0364  0.0016
  145SOL    HW1  434   2.422   1.603   0.020  2.2404  1.4116 -0.2677
  145SOL    HW2  435   2.298   1.540   0.126  0.5117 -3.7208 -1.2986
  146SOL     OW  436   2.682   2.739   0.035 -0.9983 -0.1600 -0.3857
  146SOL    HW1  437   2.711   2.810   0.102 -2.1988 -1.6762  0.0986
  146SOL    HW2  438   2.762   2.678   0.021 -0.7146  2.2853  2.9678
  147SOL     OW  439   2.699   2.399   1.174  0.4614 -0.2813 -0.4021
  147SOL    HW1  440   2.632   2.474   1.201 -1.0119 -1.5639  0.6804
  147SOL    HW2  441   2.722   2.398   1.078  2.3491 -2.6261  1.5740
  148SOL     OW  442   1.669   0.216   0.094  0.2396  0.3382  0.1683
  148SOL    HW1  443   1.734   0.292   0.091 -1.8643 -0.2862  2.2062
  148SOL    HW2  444   1.570   0.234   0.075 -1.4724  0.3471  0.3880
  149SOL     OW  445   1.084   1.439   2.761 -0.5722 -0.0856  0.6170
  149SOL    HW1  446   1.137   1.355   2.769 -0.4004  2.3374 -2.2740
  149SOL    HW2  447   1.035   1.444   2.671  1.7931  0.6045  1.9552
  150SOL     OW  448   0.842   2.514   0.703  0.1681  0.0857 -0.6659
  150SOL    HW1  449   0.906   2.544   0.628  1.2631 -0.5733 -0.9907
  150SOL    HW2  450   0.866   2.417   0.734  0.3895  2.4885 -2.0379
  151SOL     OW  451   0.600   1.928   2.843 -0.4701  0.2638 -0.1537
  151SOL    HW1  452   0.522   1.938   2.781  1.8271  0.6727  2.1468
  151SOL    HW2  453   0.642   1.836   2.825  2.0480 -1.7085  0.3697
  152SOL     OW  454   2.839   1.020   0.377  0.4231  0.0547  0.4283
  152SOL    HW1  455   2.764   1.037   0.447 -1.9006  1.1558  2.1804
  152SOL    HW2  456   2.904   0.954   0.415 -1.6961  0.9575 -2.7046
  153SOL     OW  457   2.357   2.509   0.257  0.3836  0.6248  0.1599
  153SOL    HW1  458   2.432   2.486   0.326  0.8078 -1.8147  0.8797
  153SOL    HW2  459   2.371   2.601   0.209  0.3761  4.0544 -0.7479
  154SOL     OW  460   0.666   2.926   1.087  0.0962  0.5176 -0.2143
  154SOL    HW1  461   0.580   2.948   1.147 -0.4905 -1.6692  1.9530
  154SOL    HW2  462   0.635   2.881   1.001 -0.0282 -0.7266 -1.5037
  155SOL     OW  463   0.593   2.041   1.269  0.3842  0.3781 -0.8686
  155SOL    HW1  464   0.533   2.083   1.195  2.6779  0.4927 -2.5056
  155SOL    HW2  465   0.541   2.047   1.356 -1.4551 -0.4046  0.5624
  156SOL     OW  466   2.498   2.349   3.006 -0.0493  0.2540  0.2295
  156SOL    HW1  467   2.473   2.266   2.948  1.7712  0.4791 -1.8501
  156SOL    HW2  468   2.590   2.348   3.042  0.3438  1.5949 -0.3536
  157SOL     OW  469   1.059   2.116   1.184  0.3104  0.0225  0.3916
  157SOL    HW1  470   1.030   2.212   1.184  0.6121 -0.0045 -0.2544
  157SOL    HW2  471   0.990   2.057   1.224  1.5780  0.8137 -0.5100
  158SOL     OW  472   1.599   0.692   2.928 -0.0702  0.6985 -0.4885
  158SOL    HW1  473   1.632   0.603   2.893 -1.1587 -0.1483 -0.6229
  158SOL    HW2  474   1.576   0.759   2.859  2.1054  1.1838 -0.8965
  159SOL     OW  475   1.110   0.619   2.542 -0.1946 -0.1962  0.4607
  159SOL    HW1  476   1.028   0.575   2.584 -0.4619 -1.5124 -3.0792
  159SOL    HW2  477   1.151   0.549   2.481 -0.5807 -0.7901  0.8678
  160SOL     OW  478   1.232   1.784   0.462  0.1822  0.2206 -0.0929
  160SOL    HW1  479   1.233   1.884   0.480 -0.6854 -1.9550  2.2691
  160SOL    HW2  480   1.163   1.751   0.393 -1.1477  0.9570 -2.2573
  161SOL     OW  481   3.052   2.209   3.057  0.0111  0.6832 -0.2666
  161SOL    HW1  482   0.035   2.131   3.032  0.0971 -1.2094 -1.2924
  161SOL    HW2  483   3.073   2.247   0.068  2.2150  2.3979 -0.1594
  162SOL     OW  484   0.745   2.549   1.101 -0.0386  0.1516  0.1571
  162SOL    HW1  485   0.794   2.617   1.041  0.5302  1.3919 -0.7085
  162SOL    HW2  486   0.759   2.566   1.200  0.6696 -0.7951 -0.9550
  163SOL     OW  487   2.609   0.949   2.944 -0.1649 -0.1966  0.1004
  163SOL    HW1  488   2.511   0.915   2.924 -1.8162  0.2782  1.9857
  163SOL    HW2  489   2.653   0.886   3.012 -1.7329 -1.7925 -0.4842
  164SOL     OW  490   0.225   2.592   3.021 -0.2331 -0.8243 -0.5572
  164SOL    HW1  491   0.234   2.565   0.036  2.7676 -3.6956 -0.4533
  164SOL    HW2  492   0.134   2.565   2.986 -1.0845 -0.4182 -0.6987
  165SOL     OW  493   2.263   0.491   1.416  0.2581  0.0335  0.3734
  165SOL    HW1  494   2.261   0.432   1.501 -1.3695 -1.2412 -0.9586
  165SOL    HW2  495   2.165   0.511   1.393  0.3741 -2.3118  0.2114
  166SOL     OW  496   1.851   0.316   1.048  0.2476 -0.1169  0.2023
  166SOL    HW1  497   1.898   0.399   1.017  2.1632  1.7132  0.7656
  166SOL    HW2  498   1.793   0.267   0.977 -1.1626  1.4531  1.2879
  167SOL     OW  499   0.781   0.406   1.880 -0.2669 -0.3406 -0.0641
  167SOL    HW1  500   0.786   0.493   1.823  1.4248  3.4410  0.9965
  167SOL    HW2  501   0.815   0.438   1.970  0.4396  2.9245  0.9461
  168SOL     OW  502   2.655   0.386   1.906  0.9351 -0.3823 -0.2000
  168SOL    HW1  503   2.565   0.391   1.954 -1.3082 -0.3927 -2.0523
  168SOL    HW2  504   2.637   0.352   1.811  0.4864 -0.4695 -1.9429
  169SOL     OW  505   0.377   1.481   0.435 -0.1537 -0.0222  0.1151
  169SOL    HW1  506   0.328   1.408   0.381 -0.4046  1.2328  0.8522
  169SOL    HW2  507   0.306   1.560   0.443  1.2172  1.1063  2.0322
  170SOL     OW  508   0.245   0.988   1.676  0.3563  0.4044  0.2623
  170SOL    HW1  509   0.318   0.977   1.611  1.3757  2.5415  0.4352
  170SOL    HW2  510   0.162   0.924   1.660 -2.0906 -0.5917  0.2625
  171SOL     OW  511   1.182   1.857   1.789  0.7247  0.3735  0.0138
  171SOL    HW1  512   1.129   1.872   1.878  0.7839  0.6749  0.8030
  171SOL    HW2  513   1.115   1.865   1.715  0.4229  0.6210  0.8922
  172SOL     OW  514   0.482   2.394   1.548  0.1689 -0.5755 -0.6478
  172SOL    HW1  515   0.491   2.493   1.586  0.5266  1.2002  0.1585
  172SOL    HW2  516   0.566   2.358   1.503  0.7037 -0.1993  0.1394
  173SOL     OW  517   1.169   2.758   0.619 -0.4371  0.4377  0.4781
  173SOL    HW1  518   1.246   2.783   0.555  0.3626  0.8978 -0.7901
  173SOL    HW2  519   1.200   2.681   0.682  1.0045  1.2700 -1.1390
  174SOL     OW  520   0.883   2.732   0.250  0.2553 -0.1459 -0.2331
  174SOL    HW1  521   0.811   2.805   0.239 -0.5361 -1.1450 -0.7134
  174SOL    HW2  522   0.970   2.757   0.206  1.4392 -1.5747  1.7684
  175SOL     OW  523   1.129   1.052   3.070 -1.0446 -0.3695 -0.4575
  175SOL    HW1  524   1.105   1.032   0.089 -0.6912  0.9111  1.7908
  175SOL    HW2  525   1.069   1.123   3.028  0.0184 -0.8298  1.9922
  176SOL     OW  526   1.540   0.641   0.349  0.3239 -0.3751 -0.2291
  176SOL    HW1  527   1.442   0.655   0.315 -0.9756  0.0557 -0.0278
  176SOL    HW2  528   1.575   0.730   0.376 -3.2140 -1.5786  0.7963
  177SOL     OW  529   1.387   1.165   0.853 -0.2717 -0.0101  0.3326
  177SOL    HW1  530   1.389   1.265   0.828  0.9488  1.0359  0.0237
  177SOL    HW2  531   1.441   1.111   0.778  1.9762 -1.7486 -1.5375
  178SOL     OW  532   2.752   1.782   2.627 -0.3400 -0.1304 -0.3692
  178SOL    HW1  533   2.752   1.682   2.601  0.5792 -0.7227  1.0649
  178SOL    HW2  534   2.771   1.843   2.543  0.1732  3.7301 -0.3261
  179SOL     OW  535   0.530   3.005   2.810  0.4682 -0.2453  0.3080
  179SOL    HW1  536   0.492   2.925   2.858  0.1440  2.1888 -0.6925
  179SOL    HW2  537   0.625   3.028   2.841 -2.0038 -1.7118 -0.8461
  180SOL     OW  538   1.661   1.586   1.121  0.2602  0.1719  0.1600
  180SOL    HW1  539   1.749   1.554   1.166  1.4274  0.2873  2.3533
  180SOL    HW2  540   1.646   1.549   1.028  2.2470  1.2723 -1.7089
  181SOL     OW  541   1.001   1.282   2.339 -0.6285  0.2812  0.2597
  181SOL    HW1  542   0.987   1.184   2.326 -1.3607 -1.4306 -0.9522
  181SOL    HW2  543   1.092   1.309   2.372 -2.1458 -1.4629  0.7244
  182SOL     OW  544   2.736   0.711   2.764 -0.2170 -0.2056  0.5462
  182SOL    HW1  545   2.736   0.805   2.733  0.1423 -1.7077  2.0776
  182SOL    HW2  546   2.751   0.710   2.866 -2.6578  0.6888 -1.5660
  183SOL     OW  547   1.649   0.090   2.404  0.0199  0.1654  0.1755
  183SOL    HW1  548   1.630   0.085   2.502 -1.5379  0.9524  2.9031
  183SOL    HW2  549   1.624   0.008   2.352  0.8628  2.3129 -0.1814
  184SOL     OW  550   0.597   0.273   1.466 -0.1598  0.3940 -0.3437
  184SOL    HW1  551   0.649   0.355   1.493  2.4041  0.4274  0.8199
  184SOL    HW2  552   0.659   0.227   1.401 -0.3295 -1.7526 -0.3689
  185SOL     OW  553   2.516   1.436   0.746 -0.2474  0.1718  0.3280
  185SOL    HW1  554   2.531   1.535   0.726 -0.1633  3.7453 -1.2687
  185SOL    HW2  555   2.592   1.395   0.806  1.5872  0.0828 -0.8288
  186SOL     OW  556   0.262   2.157   2.756  0.1319 -0.0943  0.3217
  186SOL    HW1  557   0.278   2.257   2.744  0.9188 -3.0590 -2.5102
  186SOL    HW2  558   0.281   2.126   2.849 -1.2888  0.4729 -1.8469
  187SOL     OW  559   2.512   1.769   3.038 -0.2655 -0.5939  0.5775
  187SOL    HW1  560   2.594   1.815   3.079 -0.3370 -2.1728  1.0422
  187SOL    HW2  561   2.435   1.833   3.035  2.6273  3.2828  2.0315
  188SOL     OW  562   0.581   2.185   0.506 -0.4759  0.6600 -0.5344
  188SOL    HW1  563   0.672   2.150   0.469 -1.2305  1.5997 -1.3591
  188SOL    HW2  564   0.507   2.160   0.440  2.3702 -1.1707 -0.7749
  189SOL     OW  565   2.438   1.056   0.086  0.1162 -0.3848 -0.1757
  189SOL    HW1  566   2.516   0.995   0.063 -2.7206  0.2602  0.2915
  189SOL    HW2  567   2.460   1.153   0.070  0.9668 -1.2219 -1.9792
  190SOL     OW  568   1.181   1.573   2.002 -0.1877  0.2903  0.0773
  190SOL    HW1  569   1.129   1.661   1.996  0.7263  2.1273 -0.2041
  190SOL    HW2  570   1.131   1.494   1.961 -2.7157 -0.8247  0.5368
  191SOL     OW  571   2.735   0.505   1.407  0.1018 -0.2968 -0.6394
  191SOL    HW1  572   2.735   0.602   1.440  0.1405 -1.3889 -0.2874
  191SOL    HW2  573   2.734   0.501   1.306  0.7872  0.7291  2.3193
  192SOL     OW  574   2.168   0.323   1.625 -0.1692  0.0818  0.1553
  192SOL    HW1  575   2.123   0.234   1.662  1.0584  2.2598  0.3555
  192SOL    HW2  576   2.235   0.358   1.696 -0.9102  0.6848 -0.9657
  193SOL     OW  577   0.311   0.554   0.400  0.3019 -0.5711 -0.7511
  193SOL    HW1  578   0.292   0.491   0.477  0.3666  2.3167  1.3586
  193SOL    HW2  579   0.380   0.620   0.431 -2.5786 -1.3175 -0.0881
  194SOL     OW  580   1.549   2.654   1.600  0.6739 -0.1717  0.2269
  194SOL    HW1  581   1.638   2.611   1.626 -1.9094  3.3867  1.0081
  194SOL    HW2  582   1.479   2.617   1.664 -2.9465  1.6684 -1.2326
  195SOL     OW  583   2.433   0.681   0.807 -0.3832 -0.3439  0.4565
  195SOL    HW1  584   2.431   0.591   0.758  2.1707 -0.6257 -1.1019
  195SOL    HW2  585   2.358   0.737   0.769  1.1293  0.6190 -0.2037
  196SOL     OW  586   1.912   2.195   2.221 -0.6635  0.3473 -0.3493
  196SOL    HW1  587   1.940   2.136   2.298  1.2491  1.3809 -2.4007
  196SOL    HW2  588   1.837   2.257   2.255 -0.5139 -1.4666  0.5973
  197SOL     OW  589   0.400   0.039   0.018 -0.2736  0.5987  0.1596
  197SOL    HW1  590   0.437   3.042   0.074  0.5394  0.9628 -1.7471
  197SOL    HW2  591   0.305   0.017   3.072  0.5974  2.0918  0.3949
  198SOL     OW  592   1.063   1.264   0.646 -0.0171 -0.0025  0.0083
  198SOL    HW1  593   1.132   1.332   0.681 -3.4432  0.1464 -3.4576
  198SOL    HW2  594   0.992   1.246   0.717  2.8164 -0.1316 -1.3975
  199SOL     OW  595   2.418   0.724   1.690 -0.2473 -0.2024  0.0010
  199SOL    HW1  596   2.469   0.682   1.766 -1.0659  0.4547 -0.9783
  199SOL    HW2  597   2.458   0.816   1.673  3.5184  0.2279  1.5840
  200SOL     OW  598   2.645   2.665   2.315  0.7532  0.1525 -0.7263
  200SOL    HW1  599   2.615   2.735   2.381  1.2816 -3.2358 -1.6049
  200SOL    HW2  600   2.600   2.576   2.340 -1.7820 -0.5641 -1.7515
  201SOL     OW  601   2.764   3.069   1.201 -0.4801  0.0311  0.2847
  201SOL    HW1  602   2.741   2.982   1.253 -2.1790 -2.8105 -0.1383
  201SOL    HW2  603   2.677   0.018   1.150 -0.2353  0.5408 -1.9245
  202SOL     OW  604   1.987   0.536   0.672 -0.5188  0.1140 -0.2642
  202SOL    HW1  605   1.916   0.606   0.700 -1.4689 -1.5435  1.2931
  202SOL    HW2  606   2.010   0.484   0.756  1.1931  1.6378  0.7018
  203SOL     OW  607   1.579   1.812   2.122  0.1838 -0.9057 -0.2020
  203SOL    HW1  608   1.572   1.912   2.097 -0.6517 -0.7030  2.4549
  203SOL    HW2  609   1.608   1.796   2.218 -0.6008 -1.3643 -2.1020
  204SOL     OW  610   0.887   1.666   2.395 -0.6247 -0.2592 -0.3229
  204SOL    HW1  611   0.880   1.579   2.455 -1.9121 -1.3698  1.7702
  204SOL    HW2  612   0.981   1.709   2.412  0.7001  2.6505  2.1483
  205SOL     OW  613   0.880   1.697   1.384 -0.8389  0.0583  0.9576
  205SOL    HW1  614   0.897   1.619   1.318  0.2569 -0.8397 -1.0792
  205SOL    HW2  615   0.791   1.688   1.437  1.1561 -0.8817  1.4228
  206SOL     OW  616   2.913   0.469   3.020  0.3773 -0.4788 -0.1504
  206SOL    HW1  617   2.889   0.467   2.921  0.1239  1.5440 -0.3199
  206SOL    HW2  618   2.832   0.439   3.074  0.0073 -1.5487  1.2108
  207SOL     OW  619   1.644   2.551   2.038  0.4883  0.2583 -0.2364
  207SOL    HW1  620   1.714   2.606   2.092  0.6114  4.1526 -0.5593
  207SOL    HW2  621   1.687   2.497   1.964  0.3933  1.9205  1.0309
  208SOL     OW  622   0.663   2.353   1.367  0.4198  0.7593  0.2489
  208SOL    HW1  623   0.688   2.442   1.398 -0.4975 -1.9774 -1.0730
  208SOL    HW2  624   0.655   2.341   1.265  1.4341 -0.5971  1.6797
  209SOL     OW  625   1.341   1.186   2.162 -0.6966  0.1809  0.0161
  209SOL    HW1  626   1.406   1.258   2.131  1.8171  0.5201 -0.9960
  209SOL    HW2  627   1.302   1.217   2.255 -0.0632 -0.3766 -0.4029
  210SOL     OW  628   1.763   0.831   1.466 -0.5624  0.2543  0.6998
  210SOL    HW1  629   1.862   0.848   1.451 -1.2924  1.3706 -0.6982
  210SOL    HW2  630   1.744   0.733   1.476  1.3396  1.9672  1.3359
  211SOL     OW  631   0.776   2.889   0.480  0.2318 -0.4877  0.4708
  211SOL    HW1  632   0.780   2.924   0.385  1.6663  0.0369 -3.5531
  211SOL    HW2  633   0.792   2.962   0.546 -0.9752  0.6809 -0.9865
  212SOL     OW  634   1.806   1.614   0.172  0.3236 -0.1379 -0.2433
  212SOL    HW1  635   1.851   1.694   0.128 -0.0049 -1.1703  1.0119
  212SOL    HW2  636   1.841   1.538   0.111  3.0352 -2.5815 -1.0080
  213SOL     OW  637   1.378   0.160   2.502  0.0156 -0.2805 -0.1357
  213SOL    HW1  638   1.419   0.254   2.495 -1.3110 -3.0915  0.9860
  213SOL    HW2  639   1.383   0.119   2.594  2.7875 -0.0372 -0.2736
  214SOL     OW  640   1.462   1.641   1.979  0.4247 -0.0286 -0.4325
  214SOL    HW1  641   1.494   1.727   2.029 -0.3111  0.8457 -1.4705
  214SOL    HW2  642   1.360   1.630   1.989  1.5873  2.0151 -1.0210
  215SOL     OW  643   0.706   1.810   0.162  0.0314 -0.1492 -0.2609
  215SOL    HW1  644   0.786   1.876   0.157 -0.4231  1.1638 -1.0365
  215SOL    HW2  645   0.679   1.787   0.258 -0.1370  0.6616 -1.1811
  216SOL     OW  646   0.335   2.903   2.298 -0.1132 -0.0440 -0.3866
  216SOL    HW1  647   0.393   2.970   2.255  0.0254  0.4979 -0.2582
  216SOL    HW2  648   0.359   2.895   2.396  3.8317  1.9535  0.5101
  217SOL     OW  649   2.254   1.125   0.879 -0.2084  0.4563  0.0835
  217SOL    HW1  650   2.249   1.230   0.871  1.7497  2.4713 -1.3590
  217SOL    HW2  651   2.216   1.080   0.797 -0.7583  0.8412  0.5157
  218SOL     OW  652   1.770   1.745   1.774  0.0490  0.3383 -0.8078
  218SOL    HW1  653   1.783   1.713   1.869 -1.2684  2.2631  1.3108
  218SOL    HW2  654   1.862   1.740   1.729 -1.2099  2.0088 -0.8045
  219SOL     OW  655   1.816   1.264   2.879  0.0740  0.9575  0.2990
  219SOL    HW1  656   1.865   1.267   2.792 -0.9964  2.2858  0.1296
  219SOL    HW2  657   1.726   1.306   2.877  1.5072 -0.9532 -1.6449
  220SOL     OW  658   1.358   1.504   1.008 -0.4233 -0.1954  0.0301
  220SOL    HW1  659   1.367   1.602   1.042  1.8902 -2.6052  1.3549
  220SOL    HW2  660   1.449   1.475   0.972  0.0013  0.0023 -2.1290
  221SOL     OW  661   0.813   0.659   2.988  0.1656 -0.3117  0.1128
  221SOL    HW1  662   0.767   0.754   2.982 -1.4567  3.0225  1.5591
  221SOL    HW2  663   0.735   0.589   2.997 -0.9403  1.6554 -0.5365
  222SOL     OW  664   0.793   1.472   0.746  0.0452 -0.4307  0.6038
  222SOL    HW1  665   0.843   1.391   0.776  0.1143  0.9458 -0.6419
  222SOL    HW2  666   0.709   1.441   0.697 -3.7840 -1.6143 -1.5788
  223SOL     OW  667   0.900   2.874   2.755 -0.0564 -0.5818  0.3734
  223SOL    HW1  668   0.971   2.925   2.698  0.8414 -0.3741 -1.4791
  223SOL    HW2  669   0.838   2.931   2.810  2.0969 -0.6663  0.4944
  224SOL     OW  670   2.466   0.349   1.310  0.1534  0.0284  0.2528
  224SOL    HW1  671   2.398   0.413   1.344  1.8148 -0.1092  0.5603
  224SOL    HW2  672   2.450   0.255   1.338 -2.4962 -0.5322 -0.9704
  225SOL     OW  673   0.819   0.183   1.308 -0.3118 -0.1636 -0.1830
  225SOL    HW1  674   0.793   0.232   1.221  0.5594  0.2187 -0.5766
  225SOL    HW2  675   0.919   0.205   1.328 -0.8765 -2.1073  2.5526
  226SOL     OW  676   1.473   1.685   2.898  0.2068 -0.1874  0.1445
  226SOL    HW1  677   1.424   1.690   2.812  1.2026  0.8643 -0.8402
  226SOL    HW2  678   1.405   1.663   2.972 -0.5214 -2.2312  0.2966
  227SOL     OW  679   1.211   1.712   1.258 -0.2897 -0.1692 -0.0747
  227SOL    HW1  680   1.202   1.618   1.298  3.1876  1.4638 -0.6013
  227SOL    HW2  681   1.196   1.783   1.326  0.2643  1.4618 -0.3273
  228SOL     OW  682   0.493   1.704   0.690  0.1649 -0.0599  0.1923
  228SOL    HW1  683   0.536   1.616   0.690 -0.0876  0.5866 -0.7385
  228SOL    HW2  684   0.551   1.786   0.716 -2.4313 -0.1424 -0.9159
  229SOL     OW  685   1.048   0.372   3.051 -0.0361 -0.4187 -0.5222
  229SOL    HW1  686   1.042   0.451   2.984 -1.1728 -1.1734  1.4626
  229SOL    HW2  687   1.068   0.395   0.068 -2.0312 -0.9742 -0.3598
  230SOL     OW  688   1.074   0.608   2.165  0.3923  0.0749 -0.0184
  230SOL    HW1  689   1.005   0.554   2.111 -0.5843 -0.5456 -0.9746
  230SOL    HW2  690   1.135   0.545   2.213 -0.0706 -1.3747  0.9066
  231SOL     OW  691   1.120   1.794   2.393 -0.1874 -0.0025  0.0556
  231SOL    HW1  692   1.087   1.857   2.470 -2.8424  1.0827 -1.0245
  231SOL    HW2  693   1.204   1.840   2.348  1.7135 -0.1153 -0.0586
  232SOL     OW  694   2.297   1.864   1.144 -0.3997  0.7773 -0.0742
  232SOL    HW1  695   2.332   1.787   1.089 -1.8023 -0.1639  1.4772
  232SOL    HW2  696   2.215   1.840   1.200  0.6208 -0.1233 -1.9546
  233SOL     OW  697   2.417   2.887   0.372 -0.0143  0.5931 -0.4212
  233SOL    HW1  698   2.411   2.980   0.335 -1.1306  1.2128 -1.0297
  233SOL    HW2  699   2.446   2.821   0.299  0.3697  1.7301 -1.4338
  234SOL     OW  700   0.858   0.225   2.725  0.0039  0.0730  0.0326
  234SOL    HW1  701   0.939   0.234   2.667 -2.8089 -4.4740 -1.6090
  234SOL    HW2  702   0.871   0.147   2.788  0.3517  0.8619 -1.6798
  235SOL     OW  703   2.462   0.058   2.812  0.2023 -0.6267  0.5046
  235SOL    HW1  704   2.444   3.068   2.886  0.8899 -2.2702 -1.1185
  235SOL    HW2  705   2.470   0.005   2.730 -1.1687  0.7067  2.3816
  236SOL     OW  706   2.028   2.577   2.397 -0.0780  0.1352 -0.0058
  236SOL    HW1  707   2.108   2.550   2.444  2.4225 -1.0076  1.0861
  236SOL    HW2  708   1.940   2.531   2.429 -1.5442  0.6910  0.4254
  237SOL     OW  709   0.873   1.479   2.184 -0.1978 -0.1091  0.1194
  237SOL    HW1  710   0.874   1.563   2.242 -0.5069 -0.0047  1.7371
  237SOL    HW2  711   0.931   1.409   2.222 -0.0935 -0.3436 -0.7192
  238SOL     OW  712   1.916   0.110   2.328  0.3316 -0.2500  0.0568
  238SOL    HW1  713   1.815   0.118   2.353 -0.8888  1.6174 -1.2404
  238SOL    HW2  714   1.967   0.046   2.383 -0.5814 -0.3694 -3.6723
  239SOL     OW  715   0.025   1.633   1.531  0.1681  0.0991  0.4449
  239SOL    HW1  716   0.109   1.688   1.545  0.2112 -0.7206  2.9716
  239SOL    HW2  717   3.049   1.646   1.612  1.2593  0.7538  2.4621
  240SOL     OW  718   2.851   2.596   0.667 -0.8621 -0.1029 -0.1485
  240SOL    HW1  719   2.855   2.496   0.644  2.5843  0.7402 -1.9463
  240SOL    HW2  720   2.796   2.646   0.600  0.4547 -3.0982  0.6764
  241SOL     OW  721   2.024   1.436   0.646 -0.0287  0.3265 -0.0088
  241SOL    HW1  722   1.980   1.478   0.568  2.6451 -0.9139 -0.1920
  241SOL    HW2  723   1.992   1.338   0.668 -0.3661 -2.3671 -2.0623
  242SOL     OW  724   1.462   1.822   2.612  0.0016  0.2539 -0.3825
  242SOL    HW1  725   1.382   1.758   2.629 -0.3399 -0.7938 -0.4373
  242SOL    HW2  726   1.492   1.872   2.695  1.5845 -2.2148 -1.5149
  243SOL     OW  727   0.454   2.577   1.898 -0.6600  0.9017  0.0164
  243SOL    HW1  728   0.476   2.662   1.950 -2.5041  2.1776  1.4733
  243SOL    HW2  729   0.446   2.606   1.799  1.7198  1.3492 -0.1426
  244SOL     OW  730   2.099   0.045   2.799  0.4493  0.0438 -0.0416
  244SOL    HW1  731   2.078   0.126   2.735 -0.3811 -0.1494 -0.5386
  244SOL    HW2  732   2.112   3.036   2.750 -2.6790 -0.6860  2.2817
  245SOL     OW  733   1.402   2.848   0.800  0.0036  0.1031  0.0537
  245SOL    HW1  734   1.364   2.856   0.895 -1.9562 -1.0941 -0.7711
  245SOL    HW2  735   1.335   2.832   0.724 -0.3028 -0.9297  0.8595
  246SOL     OW  736   1.589   2.682   0.178  0.0041 -0.4818  0.1509
  246SOL    HW1  737   1.663   2.691   0.255 -0.2154  1.8928  3.2223
  246SOL    HW2  738   1.641   2.673   0.088  0.6956 -0.1715 -2.0208
  247SOL     OW  739   0.839   0.483   2.117 -0.0517 -0.0357  0.0138
  247SOL    HW1  740   0.763   0.554   2.122 -0.5147 -0.0918  0.0736
  247SOL    HW2  741   0.855   0.446   2.209  1.6792  0.2220 -0.9204
  248SOL     OW  742   0.678   1.687   2.092 -0.2643  0.3225  0.9915
  248SOL    HW1  743   0.755   1.625   2.096 -0.6032  1.8355  0.7926
  248SOL    HW2  744   0.679   1.731   2.001 -1.5437 -2.8776  1.3210
  249SOL     OW  745   2.340   0.478   0.419  0.1084  0.3471  0.2462
  249SOL    HW1  746   2.361   0.396   0.361  1.3762  0.6267 -2.0915
  249SOL    HW2  747   2.244   0.509   0.412 -0.6257  0.9291 -1.6402
  250SOL     OW  748   0.627   0.093   0.867  0.4768  0.0481 -0.6396
  250SOL    HW1  749   0.556   0.025   0.897 -1.6611  0.2778  0.7728
  250SOL    HW2  750   0.690   0.056   0.796 -1.7374  0.7556 -0.9845
  251SOL     OW  751   1.612   0.106   2.703  0.6179  0.3364 -0.0845
  251SOL    HW1  752   1.682   0.178   2.692 -0.1655  0.8556 -0.8857
  251SOL    HW2  753   1.649   0.016   2.733  2.0636 -0.3837 -0.0638
  252SOL     OW  754   1.747   1.601   2.044  0.5090  0.6626  0.3726
  252SOL    HW1  755   1.767   1.539   2.123 -1.1898 -0.5830 -0.6570
  252SOL    HW2  756   1.665   1.661   2.071 -2.4559 -0.8292 -1.3184
  253SOL     OW  757   2.594   2.327   1.828  0.6470  0.6828 -0.0736
  253SOL    HW1  758   2.661   2.399   1.823 -3.6536 -1.5639  2.1931
  253SOL    HW2  759   2.641   2.236   1.817  0.1682  0.2728 -0.3727
  254SOL     OW  760   3.071   1.366   1.156  0.3240 -0.4667  0.5029
  254SOL    HW1  761   3.071   1.267   1.132 -1.0353 -2.0265 -0.0546
  254SOL    HW2  762   3.058   1.377   1.255 -0.7442 -1.4655 -1.1234
  255SOL     OW  763   0.834   0.721   1.472 -0.1783  0.3275 -0.5317
  255SOL    HW1  764   0.860   0.736   1.376 -0.4301 -1.7215  1.6981
  255SOL    HW2  765   0.810   0.622   1.494  0.0343 -1.0719  0.9022
  256SOL     OW  766   1.783   2.547   1.670 -0.1919  0.1681  0.0757
  256SOL    HW1  767   1.869   2.597   1.686 -1.2984  0.9418 -1.0160
  256SOL    HW2  768   1.768   2.474   1.743 -2.1423 -2.6677  0.8107
  257SOL     OW  769   0.545   2.651   2.688 -0.2230 -0.1754  0.8538
  257SOL    HW1  770   0.622   2.637   2.623 -1.4041 -0.5885  2.3741
  257SOL    HW2  771   0.481   2.577   2.684 -1.1136  1.7657 -0.5416
  258SOL     OW  772   0.800   2.471   0.221 -0.0836  0.3459 -0.6810
  258SOL    HW1  773   0.718   2.466   0.282  0.4853  0.3966 -1.8557
  258SOL    HW2  774   0.831   2.568   0.212  1.3998  0.0880 -1.4499
  259SOL     OW  775   0.975   0.097   2.000  0.0830  0.1727  0.5417
  259SOL    HW1  776   1.042   0.155   1.950 -1.8689 -0.0887  0.6343
  259SOL    HW2  777   0.885   0.109   1.953  0.5457  0.4387 -0.2974
  260SOL     OW  778   1.549   0.597   1.125  0.2157 -0.8122  0.0302
  260SOL    HW1  779   1.571   0.537   1.202  0.8328  0.9201 -2.2087
  260SOL    HW2  780   1.478   0.666   1.147  1.1137 -0.6192  0.1251
  261SOL     OW  781   0.637   0.593   2.698 -0.0287 -0.0787 -0.0588
  261SOL    HW1  782   0.598   0.499   2.713  2.3115  1.7984  0.0829
  261SOL    HW2  783   0.737   0.588   2.683 -1.4751 -0.7092  1.7311
  262SOL     OW  784   0.127   2.317   2.020 -0.0962  0.1612 -0.3573
  262SOL    HW1  785   0.118   2.411   2.057 -0.0053  0.0919 -0.7148
  262SOL    HW2  786   0.136   2.246   2.093  1.6844 -0.7746 -2.3125
  263SOL     OW  787   2.958   1.675   2.238  0.0790  0.0913  0.6641
  263SOL    HW1  788   3.001   1.677   2.143 -0.4393 -3.6048 -2.8285
  263SOL    HW2  789   3.006   1.607   2.298 -0.9558 -0.2340  1.1135
  264SOL     OW  790   0.513   0.950   0.918 -0.1360  0.1849 -0.5621
  264SOL    HW1  791   0.501   1.024   0.846  3.0648  0.8752 -2.4371
  264SOL    HW2  792   0.433   0.931   0.976  1.8863  0.2940 -0.5405
  265SOL     OW  793   1.105   2.327   0.932  0.1550  0.2204 -0.3566
  265SOL    HW1  794   1.073   2.360   1.025  0.5003 -0.2890  1.1226
  265SOL    HW2  795   1.182   2.258   0.941 -0.9852 -1.5084  0.9195
  266SOL     OW  796   1.580   0.970   1.039  0.4105 -0.0772 -0.5863
  266SOL    HW1  797   1.503   0.911   1.074 -1.4515  3.5422 -0.3394
  266SOL    HW2  798   1.578   1.062   1.079  1.4832  0.6803  0.6416
  267SOL     OW  799   2.696   1.200   2.996 -0.2269 -0.1638  1.1129
  267SOL    HW1  800   2.776   1.176   3.058 -0.1885 -2.3546 -0.3238
  267SOL    HW2  801   2.647   1.116   2.975  3.3465  0.1466  0.7933
  268SOL     OW  802   1.558   0.427   0.494  0.0951  0.5308  0.4336
  268SOL    HW1  803   1.646   0.404   0.527 -4.4169 -0.1431 -2.0273
  268SOL    HW2  804   1.552   0.515   0.442  0.3225 -0.4402 -0.4673
  269SOL     OW  805   2.100   0.687   2.789  0.4233  0.0904  0.0166
  269SOL    HW1  806   2.152   0.664   2.881  0.4577 -0.2261  1.0844
  269SOL    HW2  807   2.016   0.744   2.808 -2.5312  3.4875  2.1458
  270SOL     OW  808   0.180   0.924   0.016 -0.6201  0.6988 -0.1522
  270SOL    HW1  809   0.215   1.019   0.029 -0.0171  1.5698 -2.1713
  270SOL    HW2  810   0.242   0.857   0.060  2.0503  0.6435  2.1681
  271SOL     OW  811   2.706   0.888   0.142  0.0143 -0.2705  0.2232
  271SOL    HW1  812   2.739   0.934   0.226 -0.6557  2.6377 -0.6553
  271SOL    HW2  813   2.737   0.794   0.138 -0.3537  1.6890 -1.3089
  272SOL     OW  814   3.001   2.616   0.268  0.3440 -0.2065 -0.3442
  272SOL    HW1  815   2.982   2.574   0.176 -0.6319 -1.0152  0.0280
  272SOL    HW2  816   3.029   2.544   0.334 -1.6170  1.0085  1.3706
  273SOL     OW  817   2.773   2.918   0.220 -0.2220 -0.0005  0.1944
  273SOL    HW1  818   2.874   2.902   0.215  0.1939  0.7843  0.4326
  273SOL    HW2  819   2.759   3.020   0.217  1.8481  1.2251 -0.6092
  274SOL     OW  820   0.621   2.315   1.091 -0.4207 -0.1928 -0.4724
  274SOL    HW1  821   0.672   2.406   1.079  1.3605  1.4430 -3.4646
  274SOL    HW2  822   0.615   2.268   1.000  0.0204  0.1340 -0.3751
  275SOL     OW  823   2.715   1.498   0.400 -0.0489 -0.3001 -0.6568
  275SOL    HW1  824   2.743   1.462   0.309 -0.0281  0.4088  1.6762
  275SOL    HW2  825   2.642   1.568   0.389 -0.5837 -0.3865 -0.9013
  276SOL     OW  826   2.966   1.014   2.065  0.3805  0.1843  0.0362
  276SOL    HW1  827   2.883   0.969   2.097 -0.6636 -0.2805 -1.6422
  276SOL    HW2  828   2.966   1.026   1.964  0.0156  1.4341  1.6219
  277SOL     OW  829   2.278   0.016   1.150  0.5007  0.0202  0.0962
  277SOL    HW1  830   2.305   3.002   1.138 -0.8055  3.4830  0.5369
  277SOL    HW2  831   2.173   0.033   1.150 -2.8492 -0.2064  3.8249
  278SOL     OW  832   1.434   2.501   2.385  0.1994 -0.1168  0.2767
  278SOL    HW1  833   1.342   2.520   2.348 -0.0630 -0.8914  3.5567
  278SOL    HW2  834   1.437   2.409   2.420 -1.4600 -0.2573 -3.8787
  279SOL     OW  835   1.677   1.803   0.508 -0.0430 -0.4995 -0.6257
  279SOL    HW1  836   1.761   1.789   0.449  1.2197  0.5646 -1.6501
  279SOL    HW2  837   1.597   1.812   0.450 -1.5155 -1.0249  4.6429
  280SOL     OW  838   0.270   1.467   1.089  0.2375  0.6320  0.2280
  280SOL    HW1  839   0.262   1.553   1.038 -1.3862 -0.8191  2.2363
  280SOL    HW2  840   0.180   1.424   1.106  1.0958 -0.6268 -0.2023
  281SOL     OW  841   3.019   0.913   2.448  0.2916 -0.1279 -0.1843
  281SOL    HW1  842   3.024   0.838   2.376  3.4985  0.1901  1.0853
  281SOL    HW2  843   0.001   0.890   2.529  0.9528  0.3593 -2.3239
  282SOL     OW  844   0.690   1.191   0.522  0.9915 -0.7655 -0.4281
  282SOL    HW1  845   0.646   1.268   0.567  1.8377  2.3348 -1.9525
  282SOL    HW2  846   0.686   1.100   0.567 -0.9350 -0.0797 -0.2046
  283SOL     OW  847   2.079   2.194   0.247  0.3008 -0.3435  0.7700
  283SOL    HW1  848   2.026   2.282   0.265  0.6664  0.0159  0.1228
  283SOL    HW2  849   2.171   2.211   0.201  0.5582  1.4579  2.9221
  284SOL     OW  850   0.979   0.176   0.368 -0.5883  0.1189  0.1000
  284SOL    HW1  851   0.980   0.120   0.285  1.4835 -1.5889  1.9702
  284SOL    HW2  852   0.917   0.253   0.353  1.6754  1.2380 -2.0306
  285SOL     OW  853   2.186   1.092   2.904 -0.0812  0.2392 -0.3245
  285SOL    HW1  854   2.265   1.023   2.919 -1.4500 -1.1061  3.2531
  285SOL    HW2  855   2.227   1.186   2.902 -0.0580  0.5629 -2.2368
  286SOL     OW  856   1.918   2.255   1.107  0.1221  0.6385 -0.1694
  286SOL    HW1  857   1.856   2.330   1.114  1.3225 -1.3027 -0.8677
  286SOL    HW2  858   1.880   2.165   1.149  1.0811 -3.8313 -0.7566
  287SOL     OW  859   1.277   0.594   0.498  0.2699 -0.1136  0.7341
  287SOL    HW1  860   1.289   0.496   0.469  1.8266  1.6970 -1.8393
  287SOL    HW2  861   1.325   0.607   0.584 -2.0615 -1.7363 -2.2366
  288SOL     OW  862   1.188   2.341   2.789 -0.0584 -0.2579 -0.6785
  288SOL    HW1  863   1.087   2.362   2.786  0.9450 -0.9429 -3.2775
  288SOL    HW2  864   1.235   2.385   2.867  0.3115 -0.0691 -1.3381
  289SOL     OW  865   3.057   1.361   1.431 -0.2155 -0.4902  0.2128
  289SOL    HW1  866   3.056   1.451   1.472 -0.5113 -3.8139 -1.2277
  289SOL    HW2  867   0.022   1.297   1.500  1.7714 -0.3439 -0.9548
  290SOL     OW  868   1.639   2.227   0.903 -0.2733  0.2619 -0.0739
  290SOL    HW1  869   1.651   2.285   0.989  0.8898  2.5905 -1.5177
  290SOL    HW2  870   1.725   2.176   0.891 -0.3107  1.7302  0.0571
  291SOL     OW  871   1.733   3.051   3.064  0.4388  0.0511 -0.0941
  291SOL    HW1  872   1.700   0.061   0.014 -1.5606  2.8663  1.0547
  291SOL    HW2  873   1.798   3.024   0.056 -1.6604  1.8189  0.2218
  292SOL     OW  874   0.750   0.129   1.832 -0.6317  0.1062  0.2852
  292SOL    HW1  875   0.818   0.116   1.758 -0.5669  0.3032  0.2640
  292SOL    HW2  876   0.742   0.227   1.838  1.1741  0.8808  1.3789
  293SOL     OW  877   2.558   2.255   0.827  0.4526 -0.0784 -0.1148
  293SOL    HW1  878   2.482   2.305   0.779 -2.1328  3.1092 -2.1401
  293SOL    HW2  879   2.619   2.319   0.875  0.1309 -1.0810 -0.3057
  294SOL     OW  880   0.562   0.817   2.293  0.6336  0.4315 -0.7248
  294SOL    HW1  881   0.463   0.833   2.298  0.3415 -0.1448 -0.9567
  294SOL    HW2  882   0.574   0.719   2.254  0.4889  3.1528 -0.9448
  295SOL     OW  883   1.599   1.427   0.909 -0.0815 -0.2808  0.0707
  295SOL    HW1  884   1.587   1.357   0.840  1.1877  0.8668  1.7373
  295SOL    HW2  885   1.669   1.492   0.873  0.4885  0.9636 -0.3184
  296SOL     OW  886   2.597   1.943   0.342 -1.0098  0.1465  0.6359
  296SOL    HW1  887   2.563   2.037   0.337  1.5590 -0.8753 -1.3116
  296SOL    HW2  888   2.645   1.912   0.252  2.3812 -2.6554 -1.3152
  297SOL     OW  889   1.927   0.167   0.269 -0.7588  0.5685  0.0535
  297SOL    HW1  890   1.837   0.178   0.223 -0.1359  1.6233  1.9503
  297SOL    HW2  891   1.988   0.245   0.241 -1.3272  1.7740  0.1663
  298SOL     OW  892   0.839   2.651   2.593 -0.1511 -0.3303 -0.1711
  298SOL    HW1  893   0.850   2.702   2.503  1.7701 -0.1275  0.8517
  298SOL    HW2  894   0.871   2.711   2.673  2.6343 -1.5677 -0.6048
  299SOL     OW  895   1.250   2.094   2.093 -0.1931 -0.1892  0.0825
  299SOL    HW1  896   1.211   2.145   2.012  0.1662 -2.7313 -1.5876
  299SOL    HW2  897   1.191   2.113   2.177 -1.9438 -2.1438 -0.3387
  300SOL     OW  898   2.738   0.089   2.803 -0.3085 -0.0062 -0.3763
  300SOL    HW1  899   2.764   0.086   2.903  1.4690  2.0412 -0.1864
  300SOL    HW2  900   2.633   0.086   2.798  0.2578 -0.1225 -0.4445
  301SOL     OW  901   1.009   1.185   1.932  0.0530 -0.0867 -0.0229
  301SOL    HW1  902   1.033   1.280   1.904  1.0053  1.7002  0.5883
  301SOL    HW2  903   1.095   1.127   1.938  4.3609 -0.3249  0.3499
  302SOL     OW  904   2.708   2.270   0.488 -0.7233 -0.1451  0.3660
  302SOL    HW1  905   2.634   2.330   0.451  0.5361  1.4896  2.0076
  302SOL    HW2  906   2.668   2.192   0.543  2.2300 -0.4879 -1.1887
  303SOL     OW  907   2.457   2.512   1.932 -0.0467 -0.2993  0.4239
  303SOL    HW1  908   2.509   2.427   1.905  1.1882 -2.8233 -0.5456
  303SOL    HW2  909   2.421   2.502   2.025  1.8926  0.3548 -2.3648
  304SOL     OW  910   0.054   0.820   1.682 -0.0371 -0.0250 -0.2546
  304SOL    HW1  911   0.066   0.733   1.728  1.0647  0.4395 -2.8337
  304SOL    HW2  912   3.037   0.842   1.676  0.2291 -0.6426 -2.2359
  305SOL     OW  913   0.508   1.451   1.447  0.1083  0.1790  0.1622
  305SOL    HW1  914   0.606   1.421   1.447 -1.6166  0.1916  0.1588
  305SOL    HW2  915   0.458   1.403   1.371 -2.9613 -2.0119  0.8472
  306SOL     OW  916   0.193   1.408   2.005 -0.7884  0.0227  0.1128
  306SOL    HW1  917   0.219   1.332   1.938  1.7878  0.1826  0.8063
  306SOL    HW2  918   0.273   1.424   2.064  1.5746 -1.0210 -1.1599
  307SOL     OW  919   0.857   0.655   1.775 -0.2201 -0.8480  0.7815
  307SOL    HW1  920   0.890   0.669   1.677  0.5191 -0.3057 -2.2259
  307SOL    HW2  921   0.928   0.676   1.844 -0.3524 -1.9353  0.7261
  308SOL     OW  922   3.005   1.111   1.074 -0.2171 -0.0794  0.0752
  308SOL    HW1  923   3.017   1.031   1.134 -0.3122 -1.1428 -1.6997
  308SOL    HW2  924   2.914   1.123   1.035  0.2217  0.3364  0.8857
  309SOL     OW  925   2.570   1.123   1.075  0.5423  0.0195  0.7870
  309SOL    HW1  926   2.608   1.055   1.136 -0.9926 -0.3630 -0.0633
  309SOL    HW2  927   2.545   1.090   0.983  0.4983  0.1743  0.1243
  310SOL     OW  928   2.688   2.287   2.695 -0.1284 -0.1898  0.0484
  310SOL    HW1  929   2.700   2.271   2.795  1.5568  1.7870 -0.1232
  310SOL    HW2  930   2.640   2.210   2.646  1.4838 -0.3022 -1.1724
  311SOL     OW  931   2.673   2.760   2.652 -0.3178  0.1352 -0.2470
  311SOL    HW1  932   2.763   2.793   2.687 -1.3968 -2.8458 -1.0058
  311SOL    HW2  933   2.614   2.841   2.622  0.9994 -0.3995 -2.7768
  312SOL     OW  934   2.125   1.862   0.158 -0.7340 -0.1732  0.8880
  312SOL    HW1  935   2.038   1.915   0.166  0.1658 -1.6152 -1.4743
  312SOL    HW2  936   2.113   1.775   0.103 -1.4990 -2.2237  1.2454
  313SOL     OW  937   2.567   2.884   0.605 -0.6630  0.4944 -0.0149
  313SOL    HW1  938   2.525   2.891   0.510 -0.3638  0.8425 -0.6965
  313SOL    HW2  939   2.649   2.942   0.620 -0.6997  2.2396 -1.0419
  314SOL     OW  940   1.508   1.162   0.168 -0.1830 -0.7368 -0.2372
  314SOL    HW1  941   1.465   1.204   0.082 -0.7770  2.0010  1.4299
  314SOL    HW2  942   1.503   1.229   0.246 -0.3232  1.7636 -0.2193
  315SOL     OW  943   1.371   2.864   1.918  0.5131 -0.4369 -0.4638
  315SOL    HW1  944   1.272   2.880   1.943  0.7409 -0.8517  0.8470
  315SOL    HW2  945   1.406   2.949   1.870 -1.7197  0.3592 -1.0396
  316SOL     OW  946   2.825   0.744   3.017  0.1470  0.7165 -0.6126
  316SOL    HW1  947   2.879   0.827   3.047 -1.1791 -0.6462  1.0096
  316SOL    HW2  948   2.888   0.664   3.016  1.8525 -0.3081  2.0808
  317SOL     OW  949   0.503   2.871   0.076 -0.1801  0.7324  0.5822
  317SOL    HW1  950   0.461   2.807   0.150 -0.1084 -1.8900  0.6099
  317SOL    HW2  951   0.497   2.836   3.059  0.9009  1.4913  1.0237
  318SOL     OW  952   2.200   2.720   0.636  0.2055 -0.3362  0.4493
  318SOL    HW1  953   2.160   2.629   0.611  0.9990  0.2804  2.3055
  318SOL    HW2  954   2.181   2.788   0.557  1.1224  1.2222 -1.9623
  319SOL     OW  955   0.969   1.895   2.843  0.1799 -0.3032 -1.1813
  319SOL    HW1  956   0.882   1.949   2.846 -0.1463 -0.2134 -1.2896
  319SOL    HW2  957   0.954   1.792   2.849  1.2207 -3.3314 -0.9079
  320SOL     OW  958   0.440   2.105   1.761 -0.2118 -0.4949 -0.3529
  320SOL    HW1  959   0.418   2.198   1.797 -0.9039  0.5723  2.0698
  320SOL    HW2  960   0.408   2.038   1.831 -0.5358 -0.6572 -0.8893
  321SOL     OW  961   1.266   0.065   2.271  0.4377 -0.2505  0.2890
  321SOL    HW1  962   1.317   0.082   2.357 -2.5161 -0.3498 -0.5191
  321SOL    HW2  963   1.330   0.034   2.204 -2.2440 -0.4002  3.1464
  322SOL     OW  964   2.774   1.397   2.131  0.4016 -0.0483  1.0403
  322SOL    HW1  965   2.870   1.389   2.158  0.5219 -1.2390  0.8851
  322SOL    HW2  966   2.715   1.450   2.190 -0.3967 -1.9406 -2.4581
  323SOL     OW  967   2.312   1.100   1.143 -0.4927 -0.4810 -0.1964
  323SOL    HW1  968   2.284   1.099   1.046 -0.6768  2.3840  1.5326
  323SOL    HW2  969   2.416   1.096   1.155 -0.7353  0.2852  0.1289
  324SOL     OW  970   2.678   0.181   2.250  0.2843 -0.3027  0.3349
  324SOL    HW1  971   2.663   0.168   2.349 -0.3088 -1.3131 -1.1994
  324SOL    HW2  972   2.634   0.263   2.202 -2.1238  3.2442 -0.9316
  325SOL     OW  973   1.148   0.870   2.648 -0.4329 -0.0333 -0.0491
  325SOL    HW1  974   1.149   0.769   2.619  2.9778  1.5207 -0.8319
  325SOL    HW2  975   1.067   0.918   2.607 -1.5623  0.8249  1.8359
  326SOL     OW  976   1.885   2.946   1.828 -0.1117 -0.0360  0.1501
  326SOL    HW1  977   1.792   2.915   1.787 -0.1962 -1.3401 -1.0594
  326SOL    HW2  978   1.944   2.866   1.836  0.2296  2.0506 -1.2132
  327SOL     OW  979   2.075   0.377   0.192  0.7240  0.1598 -0.0725
  327SOL    HW1  980   2.058   0.429   0.280  0.9372  1.4454  0.0023
  327SOL    HW2  981   2.166   0.343   0.183 -1.4201  1.0893 -0.4638
  328SOL     OW  982   0.175   1.561   2.563  0.4439  0.2753  0.1139
  328SOL    HW1  983   0.189   1.476   2.506  0.0149 -0.6617 -1.5891
  328SOL    HW2  984   0.086   1.558   2.608 -0.3997  0.6565 -0.4145
  329SOL     OW  985   2.007   0.091   1.723 -0.1321 -0.5829  0.0112
  329SOL    HW1  986   1.955   0.014   1.762  0.6566 -1.0176  1.1580
  329SOL    HW2  987   2.103   0.067   1.736  1.1604  3.2296 -1.6775
  330SOL     OW  988   0.297   1.311   0.761  0.1851 -0.3535  0.4388
  330SOL    HW1  989   0.283   1.294   0.858  1.0180  0.8701 -4.4524
  330SOL    HW2  990   0.209   1.298   0.711 -0.8185 -0.3001 -0.4884
  331SOL     OW  991   0.231   1.762   2.392 -0.5213  0.6038  0.3279
  331SOL    HW1  992   0.216   1.690   2.463  2.5259 -0.4526  2.7267
  331SOL    HW2  993   0.310   1.736   2.335 -1.8065 -0.3104  0.3075
  332SOL     OW  994   3.056   3.008   1.475  0.0686  0.3678  0.4236
  332SOL    HW1  995   3.054   2.902   1.458  0.5660 -3.0459  3.4135
  332SOL    HW2  996   0.066   3.046   1.471  0.3565  1.4401 -2.1647
  333SOL     OW  997   2.299   0.139   0.847 -0.8356 -0.3755 -0.2111
  333SOL    HW1  998   2.199   0.118   0.826  0.3292 -1.9980 -1.5911
  333SOL    HW2  999   2.291   0.210   0.921  0.4148 -0.9764  1.3601
  334SOL     OW 1000   0.594   1.991   0.729  0.5511 -0.5048  0.2890
  334SOL    HW1 1001   0.691   1.974   0.705  0.7002 -2.8157 -0.7119
  334SOL    HW2 1002   0.550   2.054   0.660  0.9919  1.2074  0.2080
  335SOL     OW 1003   0.236   2.497   0.190 -0.0457  0.0101 -0.6773
  335SOL    HW1 1004   0.167   2.475   0.266 -0.7039  1.9900  0.8253
  335SOL    HW2 1005   0.315   2.434   0.205  2.5763  0.5427  1.2600
  336SOL     OW 1006   0.033   0.014   2.379 -0.4130 -0.3883 -0.4884
  336SOL    HW1 1007   3.014   0.005   2.360 -2.4007 -0.2373  1.5550
  336SOL    HW2 1008   0.090   0.017   2.296 -0.2165  0.9103 -3.1579
  337SOL     OW 1009   2.273   2.335   2.751  0.5361  0.3350 -0.3370
  337SOL    HW1 1010   2.305   2.430   2.749 -0.9596 -0.2763  1.7659
  337SOL    HW2 1011   2.240   2.293   2.841 -0.5675 -1.4671  1.6435
  338SOL     OW 1012   0.843   0.727   0.835  0.0125 -0.2466  0.8036
  338SOL    HW1 1013   0.790   0.646   0.818 -1.8821 -0.3829  0.5868
  338SOL    HW2 1014   0.796   0.769   0.917  0.8637 -2.3019  0.1073
  339SOL     OW 1015   0.256   0.802   1.918  0.0816  0.0893 -0.0682
  339SOL    HW1 1016   0.235   0.870   1.994 -0.0866  4.4148  0.8025
  339SOL    HW2 1017   0.247   0.854   1.834  1.4075 -2.5388  1.2961
  340SOL     OW 1018   1.691   2.969   0.453 -0.2864 -0.0389 -0.0635
  340SOL    HW1 1019   1.753   3.027   0.508 -2.1723  1.3254 -3.3787
  340SOL    HW2 1020   1.661   3.018   0.367  0.2241  1.4108 -1.0950
  341SOL     OW 1021   2.020   0.957   1.169  0.2260  0.4115  0.2214
  341SOL    HW1 1022   2.082   0.881   1.141 -0.8943 -2.5900 -1.1964
  341SOL    HW2 1023   2.073   1.028   1.215 -0.4389  0.8650 -0.2165
  342SOL     OW 1024   2.418   2.750   0.139 -0.2037  0.3609  0.0032
  342SOL    HW1 1025   2.374   2.816   0.073  0.3215  0.3200 -0.1220
  342SOL    HW2 1026   2.509   2.723   0.101  0.1285  0.9513  1.7812
  343SOL     OW 1027   1.392   2.037   1.778 -0.0836  0.1041 -0.2072
  343SOL    HW1 1028   1.472   1.994   1.816 -0.7868 -0.0227  0.7137
  343SOL    HW2 1029   1.301   1.986   1.787 -2.7042  1.3471  0.0800
  344SOL     OW 1030   2.486   2.594   1.229  0.0082 -0.3778  0.0906
  344SOL    HW1 1031   2.390   2.578   1.193  0.6145  0.7247 -2.3597
  344SOL    HW2 1032   2.492   2.556   1.325 -1.1802 -1.0553 -0.6303
  345SOL     OW 1033   2.733   2.356   0.043 -0.5029  0.7380  0.0619
  345SOL    HW1 1034   2.760   2.308   3.038  1.0614  0.7678  0.1533
  345SOL    HW2 1035   2.751   2.298   0.132  1.6753 -2.7047  1.8219
  346SOL     OW 1036   2.867   1.436   0.623 -0.0841 -0.7867  0.7218
  346SOL    HW1 1037   2.802   1.502   0.586 -0.5515  0.7981 -0.3570
  346SOL    HW2 1038   2.823   1.383   0.695 -2.1927 -0.5518 -1.7097
  347SOL     OW 1039   1.858   2.131   1.959  0.1217  0.1159 -0.4580
  347SOL    HW1 1040   1.873   2.166   2.058 -0.2336  2.3057  1.8239
  347SOL    HW2 1041   1.943   2.107   1.916 -2.4436 -0.6495  0.0222
  348SOL     OW 1042   0.647   1.666   2.739  0.4618  0.6354 -0.3626
  348SOL    HW1 1043   0.657   1.696   2.642  0.2797 -0.2524 -2.0781
  348SOL    HW2 1044   0.734   1.643   2.790  1.4930 -2.1401  0.2391
  349SOL     OW 1045   2.351   1.270   1.582 -0.7501  0.1548  0.7217
  349SOL    HW1 1046   2.350   1.361   1.533 -1.2514  0.6219  0.6900
  349SOL    HW2 1047   2.431   1.209   1.555  1.9961  0.7373  3.7859
  350SOL     OW 1048   3.003   2.365   1.189 -0.1662  0.8635 -0.3645
  350SOL    HW1 1049   3.029   2.263   1.192  1.2698 -1.3788  1.4324
  350SOL    HW2 1050   2.902   2.379   1.181 -1.1353  0.2355  0.4323
  351SOL     OW 1051   0.591   0.269   2.095  0.5194 -0.1102  0.1331
  351SOL    HW1 1052   0.597   0.285   2.195  1.1441  2.6531  0.6127
  351SOL    HW2 1053   0.683   0.264   2.059 -2.0145 -0.4107  1.1415
  352SOL     OW 1054   0.637   1.717   0.970  0.1252  0.0404 -0.0560
  352SOL    HW1 1055   0.580   1.748   1.047  0.6523  1.4799 -1.2400
  352SOL    HW2 1056   0.621   1.610   0.956 -0.4554 -0.0935  1.4769
  353SOL     OW 1057   1.267   1.561   2.292  0.0636 -0.0563 -0.0274
  353SOL    HW1 1058   1.224   1.642   2.324 -0.1457 -0.7702 -1.0676
  353SOL    HW2 1059   1.222   1.531   2.204 -0.8283 -1.7844 -0.7217
  354SOL     OW 1060   1.181   0.286   0.774  0.0880 -0.2102 -0.4544
  354SOL    HW1 1061   1.194   0.260   0.876  0.8503  2.7951  3.4848
  354SOL    HW2 1062   1.150   0.384   0.765 -1.6791  1.6570  0.9129
  355SOL     OW 1063   2.573   1.028   0.520  0.3315 -0.1412  0.3842
  355SOL    HW1 1064   2.562   1.113   0.469 -0.0733 -1.6022  1.1913
  355SOL    HW2 1065   2.563   0.950   0.456 -0.2345  2.1535  0.5892
  356SOL     OW 1066   2.378   1.767   2.292 -0.1837  0.2647 -0.3346
  356SOL    HW1 1067   2.294   1.759   2.355  0.4783  1.3155  3.8645
  356SOL    HW2 1068   2.419   1.858   2.304  0.6636  1.6524 -0.5787
  357SOL     OW 1069   0.495   2.652   1.630  0.1577 -0.0670 -0.0707
  357SOL    HW1 1070   0.452   2.719   1.571  1.2037 -2.9393 -0.2137
  357SOL    HW2 1071   0.591   2.683   1.645  0.0612 -2.6569  0.3485
  358SOL     OW 1072   2.420   0.704   1.386 -0.2107  0.2552  0.4469
  358SOL    HW1 1073   2.420   0.740   1.482  2.1769 -0.8483  0.7421
  358SOL    HW2 1074   2.362   0.620   1.379  0.3583  0.8109 -1.6368
  359SOL     OW 1075   2.246   2.829   2.608 -0.2071  0.3827  0.1318
  359SOL    HW1 1076   2.178   2.870   2.544 -1.4563  1.9299  1.9710
  359SOL    HW2 1077   2.207   2.816   2.703 -0.0164 -0.0244 -1.3262
  360SOL     OW 1078   1.073   0.542   0.792 -0.3269  0.0832 -0.1158
  360SOL    HW1 1079   1.118   0.602   0.866 -0.2334 -0.3046  3.8985
  360SOL    HW2 1080   1.035   0.604   0.718 -2.8568  3.0437 -3.4901
  361SOL     OW 1081   2.028   0.171   1.172 -0.0658 -0.1799 -0.1867
  361SOL    HW1 1082   2.026   0.200   1.269 -0.8852  0.9855 -1.3437
  361SOL    HW2 1083   1.952   0.215   1.119  0.5423  0.5717  1.7902
  362SOL     OW 1084   1.260   1.194   0.469 -0.1375  0.5335 -0.3331
  362SOL    HW1 1085   1.187   1.238   0.524  0.6463  0.8823  1.0731
  362SOL    HW2 1086   1.322   1.266   0.430 -0.7658  1.8612  1.0121
  363SOL     OW 1087   2.144   1.764   2.487 -0.0505  0.2704 -0.1349
  363SOL    HW1 1088   2.088   1.689   2.525 -2.1014  0.2914  1.4085
  363SOL    HW2 1089   2.108   1.811   2.403  0.0091  1.7427 -0.8846
  364SOL     OW 1090   0.429   0.207   1.270  0.3047  0.0158 -0.3924
  364SOL    HW1 1091   0.468   0.219   1.360  0.2512  0.8746 -1.2548
  364SOL    HW2 1092   0.338   0.253   1.259 -0.7244 -0.8590  2.0102
  365SOL     OW 1093   0.393   2.730   0.267  0.0107  0.1801 -0.2617
  365SOL    HW1 1094   0.368   2.637   0.232 -1.1380 -0.2004 -1.5981
  365SOL    HW2 1095   0.383   2.738   0.365 -3.3764  1.3056 -3.3149
  366SOL     OW 1096   2.309   1.946   3.051  0.1875 -0.4135 -0.1784
  366SOL    HW1 1097   2.270   1.950   0.064 -1.0183  0.1682  1.9261
  366SOL    HW2 1098   2.238   1.954   2.977 -1.4632  0.3343  0.7360
  367SOL     OW 1099   2.580   2.513   2.561 -0.2265  0.3753 -0.4344
  367SOL    HW1 1100   2.627   2.600   2.592  0.1690 -0.3253  0.8762
  367SOL    HW2 1101   2.616   2.434   2.614 -0.4655 -1.8061  1.6342
  368SOL     OW 1102   0.227   1.696   0.955 -0.4034 -0.2282  0.3217
  368SOL    HW1 1103   0.199   1.743   1.041 -0.6347 -1.4994 -2.6088
  368SOL    HW2 1104   0.279   1.757   0.899 -1.9754 -1.7867 -0.4888
  369SOL     OW 1105   0.985   2.706   2.976 -0.3624  0.1647  0.6962
  369SOL    HW1 1106   0.980   2.749   2.882  2.1904  0.3784 -0.5457
  369SOL    HW2 1107   1.051   2.748   3.043 -1.8188 -0.5665 -1.0169
  370SOL     OW 1108   0.220   0.833   0.575  0.3078 -0.4068  0.7597
  370SOL    HW1 1109   0.250   0.927   0.550 -0.3529 -1.3704 -2.1043
  370SOL    HW2 1110   0.278   0.765   0.528 -0.2896  2.0324 -0.5386
  371SOL     OW 1111   2.026   2.600   0.934 -0.0586  0.5115  0.0319
  371SOL    HW1 1112   2.024   2.666   0.854 -3.8984 -0.7354 -1.6321
  371SOL    HW2 1113   2.004   2.509   0.895  0.9279 -3.0091  2.3303
  372SOL     OW 1114   0.124   0.885   2.640  0.8347 -0.2152  0.4784
  372SOL    HW1 1115   0.194   0.956   2.619 -2.2065 -2.0822 -1.1657
  372SOL    HW2 1116   0.144   0.837   2.728 -1.1307  0.3653 -0.1391
  373SOL     OW 1117   2.980   1.767   0.721  0.2247  0.0796  0.1291
  373SOL    HW1 1118   3.009   1.679   0.761  1.6059 -0.0192 -1.7319
  373SOL    HW2 1119   3.061   1.825   0.689  2.7185  0.7053 -1.9460
  374SOL     OW 1120   0.055   2.455   0.442  0.3431 -0.3603  0.0189
  374SOL    HW1 1121   3.051   2.437   0.503 -1.8041  0.3170 -0.6018
  374SOL    HW2 1122   0.137   2.482   0.498  0.4203 -0.5535  0.6972
  375SOL     OW 1123   0.429   0.448   0.095 -0.0836  0.0886  0.4527
  375SOL    HW1 1124   0.486   0.504   0.154 -0.2135 -0.7941 -0.2209
  375SOL    HW2 1125   0.389   0.371   0.146  0.1254  2.5657  2.2902
  376SOL     OW 1126   0.571   2.263   2.141  0.4439  0.1335 -0.1325
  376SOL    HW1 1127   0.510   2.270   2.057 -0.6180  0.3762 -1.2984
  376SOL    HW2 1128   0.641   2.333   2.131 -1.3545 -2.8132  0.1171
  377SOL     OW 1129   1.548   2.584   2.686  0.2851 -0.3463  0.3847
  377SOL    HW1 1130   1.597   2.498   2.717  2.0525  1.4221  0.3094
  377SOL    HW2 1131   1.579   2.622   2.595  0.5874  1.4817  0.4692
  378SOL     OW 1132   0.952   0.900   0.509 -0.4768 -0.0755  0.5441
  378SOL    HW1 1133   1.052   0.908   0.537 -0.1989  3.4736  2.4503
  378SOL    HW2 1134   0.943   0.805   0.479  1.9024  2.9041 -0.7381
  379SOL     OW 1135   0.671   1.795   0.438 -0.0882  0.5315 -0.1915
  379SOL    HW1 1136   0.588   1.761   0.477  3.1880 -0.7273 -1.1559
  379SOL    HW2 1137   0.741   1.720   0.446  3.5591  0.4758  0.6346
  380SOL     OW 1138   0.162   1.935   1.415 -0.1555 -0.1178 -0.1116
  380SOL    HW1 1139   0.064   1.961   1.432 -1.7395 -1.3555  3.2194
  380SOL    HW2 1140   0.234   2.010   1.407 -1.6266  0.8011 -0.3230
  381SOL     OW 1141   0.584   1.109   1.587  0.2818 -0.3003  0.3094
  381SOL    HW1 1142   0.582   1.178   1.665  0.0363  0.2226 -0.3549
  381SOL    HW2 1143   0.637   1.029   1.604 -0.9044 -0.5662  1.9079
  382SOL     OW 1144   2.349   2.117   0.452 -0.7566 -0.1976 -0.3554
  382SOL    HW1 1145   2.417   2.112   0.527 -2.5591 -0.3839  0.5563
  382SOL    HW2 1146   2.393   2.142   0.360  0.1549  0.3052  1.1861
  383SOL     OW 1147   2.786   2.003   2.138  0.9216  0.4865 -0.4738
  383SOL    HW1 1148   2.777   2.104   2.150 -0.6769 -0.6451  2.3354
  383SOL    HW2 1149   2.782   1.958   2.231  0.5404 -0.1209  2.4517
  384SOL     OW 1150   0.130   2.132   2.219  0.2328 -0.2374  0.1707
  384SOL    HW1 1151   0.218   2.178   2.242  0.8960  0.2353  0.2345
  384SOL    HW2 1152   0.144   2.039   2.187  1.3987  0.8145  0.8991
  385SOL     OW 1153   2.940   2.163   0.870  0.0724 -0.4160 -0.1436
  385SOL    HW1 1154   3.002   2.087   0.879 -0.9275 -0.6149  2.1636
  385SOL    HW2 1155   2.861   2.142   0.933  1.7881  1.3200  0.3583
  386SOL     OW 1156   1.811   0.720   0.752  0.4106 -0.1914 -0.2376
  386SOL    HW1 1157   1.811   0.818   0.791 -0.9429  0.6705  0.3365
  386SOL    HW2 1158   1.748   0.662   0.812 -0.6001 -0.8569 -0.0100
  387SOL     OW 1159   0.499   0.677   1.923 -0.8099  0.6157 -0.1351
  387SOL    HW1 1160   0.419   0.732   1.946  0.2391 -1.4398 -2.1470
  387SOL    HW2 1161   0.575   0.746   1.908 -0.2204  0.2409 -4.3214
  388SOL     OW 1162   2.249   0.938   2.454  0.7963 -0.1592 -0.2469
  388SOL    HW1 1163   2.176   0.965   2.521 -0.7311  1.6621  0.2258
  388SOL    HW2 1164   2.300   1.016   2.416  0.1999 -0.4822  3.5487
  389SOL     OW 1165   1.950   1.326   1.935 -0.3492  0.6091  0.0337
  389SOL    HW1 1166   1.931   1.378   1.848 -1.4164 -0.3725 -2.8854
  389SOL    HW2 1167   2.035   1.275   1.919 -0.3279  1.0707 -2.0224
  390SOL     OW 1168   1.867   2.868   0.141 -0.1708  0.2409 -0.4020
  390SOL    HW1 1169   1.819   2.842   0.224  1.5839  2.5242 -4.1605
  390SOL    HW2 1170   1.819   2.838   0.055 -1.3817 -0.0693 -0.1844
  391SOL     OW 1171   2.239   2.421   1.417 -0.0855  0.3867  0.7152
  391SOL    HW1 1172   2.245   2.400   1.315 -0.3956 -0.2572 -0.7973
  391SOL    HW2 1173   2.330   2.440   1.450  0.5394  0.1954 -2.0100
  392SOL     OW 1174   0.040   2.453   0.940  0.3353  0.8372  0.0165
  392SOL    HW1 1175   3.062   2.399   1.000  1.8120 -4.8233 -3.4488
  392SOL    HW2 1176   0.105   2.400   0.882 -0.8496  0.2466 -1.0059
  393SOL     OW 1177   2.049   1.657   0.028 -0.5092  0.1082  0.2418
  393SOL    HW1 1178   2.025   1.556   0.007 -0.0528 -0.0693 -2.5549
  393SOL    HW2 1179   2.019   1.707   3.025  1.7842 -0.3012 -2.7045
  394SOL     OW 1180   0.005   0.187   0.009 -0.1212  0.1155 -0.6096
  394SOL    HW1 1181   0.052   0.269   0.048 -0.0847 -1.2060  1.5692
  394SOL    HW2 1182   3.028   0.217   3.013 -1.8597  1.6366  2.8280
  395SOL     OW 1183   1.152   1.093   0.973  0.1958  0.7804 -0.2777
  395SOL    HW1 1184   1.244   1.117   0.939 -1.4016 -0.9028  1.2608
  395SOL    HW2 1185   1.101   1.038   0.908 -0.3276  1.4906  0.0064
  396SOL     OW 1186   1.412   0.539   3.017  0.1777 -0.1837 -0.1285
  396SOL    HW1 1187   1.498   0.595   2.984  2.3102 -0.5977 -2.0928
  396SOL    HW2 1188   1.361   0.521   2.931  1.0019  1.0643  0.4901
  397SOL     OW 1189   3.036   0.429   2.529 -0.4798 -0.1656  0.2034
  397SOL    HW1 1190   2.967   0.422   2.449 -0.6424  0.4020  1.1632
  397SOL    HW2 1191   0.010   0.341   2.539 -0.0603 -2.4558 -0.4268
  398SOL     OW 1192   0.734   0.172   0.136  0.1552 -0.2828 -0.5718
  398SOL    HW1 1193   0.751   0.252   0.198 -2.0353  1.5834 -2.3473
  398SOL    HW2 1194   0.725   0.204   0.038 -0.2258 -0.2928 -0.4951
  399SOL     OW 1195   2.451   2.879   1.894 -0.3260  0.0470 -0.2734
  399SOL    HW1 1196   2.438   2.804   1.827  2.9825  0.8589  3.8184
  399SOL    HW2 1197   2.537   2.919   1.870 -3.6164 -3.9049  3.2642
  400SOL     OW 1198   0.492   1.711   2.280 -0.3399 -0.1766 -0.0245
  400SOL    HW1 1199   0.541   1.715   2.367 -0.0329 -1.2075 -2.8654
  400SOL    HW2 1200   0.558   1.728   2.205 -2.5472  0.2520  1.4544
  401SOL     OW 1201   0.905   0.521   2.710  0.3036 -0.4842 -0.3619
  401SOL    HW1 1202   0.870   0.440   2.758  2.9529  0.1338 -2.1893
  401SOL    HW2 1203   0.956   0.570   2.780 -1.0444 -0.0101 -3.0449
  402SOL     OW 1204   2.920   2.092   1.505  0.6205  0.9120  0.3165
  402SOL    HW1 1205   2.914   2.176   1.561  0.2946  0.7844  0.5926
  402SOL    HW2 1206   2.851   2.024   1.534  0.1932 -1.6012 -0.1700
  403SOL     OW 1207   0.770   1.099   1.819 -0.2089 -0.6494  0.0701
  403SOL    HW1 1208   0.855   1.136   1.868  2.5704  0.4370  0.0184
  403SOL    HW2 1209   0.683   1.141   1.862  0.2046  1.8337  1.7389
  404SOL     OW 1210   2.898   2.358   1.640 -0.2787 -0.2752 -0.1797
  404SOL    HW1 1211   2.847   2.413   1.708  1.7472  0.1964 -0.6008
  404SOL    HW2 1212   2.844   2.357   1.558  0.1170  0.3718  1.6969
  405SOL     OW 1213   0.483   0.466   1.739 -0.4146 -0.2073 -0.3468
  405SOL    HW1 1214   0.474   0.550   1.797  0.0159  0.6108  1.2687
  405SOL    HW2 1215   0.457   0.374   1.789  0.8369 -1.7173  1.0749
  406SOL     OW 1216   1.771   2.396   0.121  0.3928  0.0710  0.5185
  406SOL    HW1 1217   1.822   2.434   0.199 -0.8930 -0.8009  2.3440
  406SOL    HW2 1218   1.813   2.429   0.031 -0.0401  4.1749 -0.8300
  407SOL     OW 1219   1.719   1.041   1.775 -0.4514 -0.2527  0.1537
  407SOL    HW1 1220   1.634   0.991   1.761  0.5677 -1.3470  1.3714
  407SOL    HW2 1221   1.708   1.108   1.851 -0.4198 -0.1694  0.0712
  408SOL     OW 1222   0.687   0.249   2.528 -0.7495 -0.3542 -0.6634
  408SOL    HW1 1223   0.605   0.200   2.553  1.8143  0.0394 -1.2260
  408SOL    HW2 1224   0.751   0.247   2.608 -3.1644 -2.8460  0.7465
  409SOL     OW 1225   2.942   2.323   0.613  0.3226  0.3002  0.5658
  409SOL    HW1 1226   2.853   2.308   0.570  0.8591  0.1764  1.4561
  409SOL    HW2 1227   2.957   2.269   0.697 -0.0390 -0.1123 -1.1056
  410SOL     OW 1228   2.529   1.690   0.369 -0.6473  0.5262  0.1195
  410SOL    HW1 1229   2.433   1.684   0.404  2.3058  1.1904 -0.7233
  410SOL    HW2 1230   2.551   1.791   0.362  1.7666 -1.8731 -0.8046
  411SOL     OW 1231   0.055   0.716   0.778 -0.4058  0.5605  0.5147
  411SOL    HW1 1232   0.122   0.758   0.710 -0.5348 -1.5834 -1.6332
  411SOL    HW2 1233   0.103   0.648   0.835 -0.2378 -1.0448  1.4451
  412SOL     OW 1234   1.342   0.832   0.894  0.3206 -0.2249 -1.0067
  412SOL    HW1 1235   1.251   0.869   0.864 -1.7290 -1.0634  2.4479
  412SOL    HW2 1236   1.407   0.903   0.883  0.2549  2.4297  1.0715
  413SOL     OW 1237   0.954   0.132   0.942 -0.0935 -0.3318  0.0092
  413SOL    HW1 1238   0.930   0.046   0.982  0.1878  1.3166  1.1742
  413SOL    HW2 1239   1.047   0.163   0.966 -2.4592 -0.0356  1.6426
  414SOL     OW 1240   0.038   1.727   2.866  0.2711 -0.3187 -0.1990
  414SOL    HW1 1241   0.065   1.805   2.806 -0.7528 -0.8195  0.6756
  414SOL    HW2 1242   0.099   1.724   2.944 -1.3410 -1.0801 -3.6558
  415SOL     OW 1243   0.525   2.412   2.961  0.1065  0.0287  0.2531
  415SOL    HW1 1244   0.604   2.467   2.930 -3.6766 -0.6449  0.9518
  415SOL    HW2 1245   0.438   2.426   2.914  2.4658 -1.7983 -0.6288
  416SOL     OW 1246   1.639   0.790   0.563 -0.6403  0.0950  0.2369
  416SOL    HW1 1247   1.552   0.775   0.621 -1.4028 -0.3274 -2.1306
  416SOL    HW2 1248   1.728   0.765   0.611 -0.9111  0.9345  0.9792
  417SOL     OW 1249   0.293   1.267   0.277 -0.0213 -0.3535 -0.6095
  417SOL    HW1 1250   0.311   1.232   0.183  1.8030 -0.4646  1.7314
  417SOL    HW2 1251   0.194   1.293   0.283 -1.3587  1.2431  0.9339
  418SOL     OW 1252   2.502   1.415   2.477  0.2245 -0.4195  0.4934
  418SOL    HW1 1253   2.495   1.455   2.382  2.6996 -0.6126 -0.4328
  418SOL    HW2 1254   2.535   1.320   2.475 -0.0750  3.2953  2.6712
  419SOL     OW 1255   0.236   0.471   2.874  0.2382 -1.0256 -0.6175
  419SOL    HW1 1256   0.180   0.474   2.961  0.4357 -0.8508  0.3986
  419SOL    HW2 1257   0.214   0.381   2.837 -1.7261  1.0380 -0.3713
  420SOL     OW 1258   0.558   1.450   1.012  0.0223  0.4087 -0.0092
  420SOL    HW1 1259   0.584   1.361   1.043 -1.7007  1.9338  0.0545
  420SOL    HW2 1260   0.456   1.465   1.018  0.2065 -0.2855  1.0936
  421SOL     OW 1261   0.664   2.246   0.813  0.1595  0.0040 -0.3405
  421SOL    HW1 1262   0.756   2.278   0.778 -0.6384  0.0945 -0.3512
  421SOL    HW2 1263   0.649   2.149   0.792  0.9728 -0.7140  1.0436
  422SOL     OW 1264   2.999   0.875   1.312  0.1239 -0.2763  0.1943
  422SOL    HW1 1265   0.011   0.870   1.353 -1.5095 -0.7785  0.9022
  422SOL    HW2 1266   2.991   0.824   1.223 -1.1860  0.0787 -1.4991
  423SOL     OW 1267   1.520   1.475   1.353 -0.6296  0.4016 -0.0580
  423SOL    HW1 1268   1.612   1.494   1.302  1.9562 -0.5652 -1.6204
  423SOL    HW2 1269   1.498   1.375   1.351  0.2628  1.1428  0.1478
  424SOL     OW 1270   1.802   1.059   0.228  0.6430  0.1622 -0.1267
  424SOL    HW1 1271   1.702   1.079   0.217 -1.7294 -0.9535 -0.3996
  424SOL    HW2 1272   1.847   1.071   0.140  0.2136 -0.8680 -0.7081
  425SOL     OW 1273   0.020   0.321   1.734  0.1727  0.9762 -0.2490
  425SOL    HW1 1274   0.011   0.221   1.759  0.1080 -0.0488 -0.0961
  425SOL    HW2 1275   0.102   0.337   1.670  3.4856  1.8668 -3.4163
  426SOL     OW 1276   2.496   2.949   2.616  0.1610  0.3109  0.0920
  426SOL    HW1 1277   2.409   2.897   2.599  0.4888 -1.4408  0.5594
  426SOL    HW2 1278   2.526   2.996   2.533 -0.9907 -0.3981 -0.1502
  427SOL     OW 1279   1.042   0.845   2.322 -0.4639 -0.2392  0.1286
  427SOL    HW1 1280   1.023   0.749   2.287 -1.2531 -3.4988 -1.4514
  427SOL    HW2 1281   1.005   0.919   2.260 -0.5402  2.7837  0.7451
  428SOL     OW 1282   2.106   0.988   2.159  0.3977 -0.2514  0.1461
  428SOL    HW1 1283   2.012   0.940   2.182 -3.7004 -0.1970 -0.0683
  428SOL    HW2 1284   2.117   1.077   2.212  2.8659  0.2040  3.2984
  429SOL     OW 1285   2.780   0.004   0.647  0.0467  0.3046 -0.2966
  429SOL    HW1 1286   2.834   0.046   0.723  0.0949 -3.4167 -0.0545
  429SOL    HW2 1287   2.849   3.038   0.585  2.1498 -0.2118 -0.3749
  430SOL     OW 1288   1.931   1.418   2.191  0.2531  0.6491  0.2250
  430SOL    HW1 1289   2.005   1.364   2.236  1.3229 -2.6766  2.0806
  430SOL    HW2 1290   1.930   1.394   2.090 -0.5330 -1.7219 -4.2561
  431SOL     OW 1291   0.120   1.803   1.161 -0.4237 -0.7155 -0.0801
  431SOL    HW1 1292   0.146   1.840   1.252 -0.7239  0.5816  1.0353
  431SOL    HW2 1293   0.041   1.741   1.173  0.6791  0.3478 -3.5330
  432SOL     OW 1294   1.547   2.989   2.243  0.2542 -0.4158  0.0854
  432SOL    HW1 1295   1.480   2.914   2.221 -2.2442 -0.2934 -0.0482
  432SOL    HW2 1296   1.629   2.978   2.189 -3.1101  0.3664  2.7979
  433SOL     OW 1297   1.450   0.001   1.767 -0.2247 -0.0170  0.6578
  433SOL    HW1 1298   1.448   0.012   1.667  1.3436  1.4240 -0.0369
  433SOL    HW2 1299   1.489   0.081   1.818  0.4755 -0.1369  0.7560
  434SOL     OW 1300   0.540   2.705   2.334 -0.7308 -0.2537  0.1305
  434SOL    HW1 1301   0.459   2.762   2.325  1.0532  1.8174  1.3849
  434SOL    HW2 1302   0.517   2.608   2.336  0.7529  0.6706  0.1079
  435SOL     OW 1303   0.424   2.100   0.308 -0.0723 -0.2879 -0.3163
  435SOL    HW1 1304   0.435   2.157   0.225 -0.3037  0.9907  2.2590
  435SOL    HW2 1305   0.367   2.013   0.291 -0.5662 -5.1424  1.4739
  436SOL     OW 1306   0.669   0.855   1.792  0.1279 -0.1904 -0.5469
  436SOL    HW1 1307   0.729   0.769   1.782  0.6643 -1.6218  0.3537
  436SOL    HW2 1308   0.715   0.939   1.827 -2.9634  1.3669 -0.4856
  437SOL     OW 1309   0.527   3.067   2.163 -0.4379  0.3552 -0.3568
  437SOL    HW1 1310   0.534   0.080   2.134 -0.1969 -2.7513 -1.3411
  437SOL    HW2 1311   0.596   3.047   2.243  0.6322  1.1373  0.9623
  438SOL     OW 1312   0.614   1.691   1.497  0.0096  0.6243  0.7046
  438SOL    HW1 1313   0.566   1.725   1.581  1.6777  0.9802  2.1488
  438SOL    HW2 1314   0.564   1.604   1.463 -1.6081 -1.2628  0.0900
  439SOL     OW 1315   1.873   0.794   3.017 -0.6408 -0.1028 -0.3571
  439SOL    HW1 1316   1.853   0.895   3.014  0.2380  0.9230  0.8049
  439SOL    HW2 1317   1.793   0.744   3.058 -0.3994 -1.1496 -2.2103
  440SOL     OW 1318   0.600   0.190   0.487  0.0043 -0.8010  0.4067
  440SOL    HW1 1319   0.551   0.236   0.561  1.8046 -1.1212 -0.0682
  440SOL    HW2 1320   0.544   0.187   0.399 -1.8954  2.1386 -1.5346
  441SOL     OW 1321   1.082   2.268   1.499 -0.2034  0.1504 -0.1446
  441SOL    HW1 1322   1.137   2.241   1.581 -0.1029 -1.7201 -0.3219
  441SOL    HW2 1323   0.990   2.222   1.494 -4.1140 -0.7132 -3.1057
  442SOL     OW 1324   2.925   1.662   0.407 -0.7669 -0.2899  0.1672
  442SOL    HW1 1325   2.852   1.592   0.422 -0.1952 -2.0764  0.1429
  442SOL    HW2 1326   2.894   1.750   0.445  1.8163  2.8211  2.4358
  443SOL     OW 1327   2.882   1.928   2.816  0.4458  0.6963  0.4323
  443SOL    HW1 1328   2.833   1.866   2.753 -0.9912  1.6080 -2.0052
  443SOL    HW2 1329   2.978   1.942   2.789 -3.7105  1.5023 -0.0585
  444SOL     OW 1330   1.339   0.960   0.262  0.3610  0.0301 -0.2395
  444SOL    HW1 1331   1.394   1.018   0.201 -0.1209 -1.2485  1.6071
  444SOL    HW2 1332   1.248   0.995   0.292 -2.0674 -0.4488 -1.5534
  445SOL     OW 1333   2.707   2.658   2.047  0.0840 -0.5569  0.1118
  445SOL    HW1 1334   2.703   2.757   2.013  1.0431  0.7554 -0.1502
  445SOL    HW2 1335   2.665   2.650   2.137  0.5231  2.2682  0.4394
  446SOL     OW 1336   0.021   1.286   0.559  0.2910  0.4250  0.5346
  446SOL    HW1 1337   0.003   1.190   0.588  0.9070  0.9644 -0.2137
  446SOL    HW2 1338   3.015   1.336   0.573  2.1652  0.2379  1.1798
  447SOL     OW 1339   1.151   1.788   0.995  0.2265 -0.0400 -0.2138
  447SOL    HW1 1340   1.181   1.748   1.084 -0.2011 -1.6599 -3.1998
  447SOL    HW2 1341   1.056   1.819   1.011 -0.7755  2.0643 -0.7547
  448SOL     OW 1342   1.604   1.789   1.581  0.0183  0.1405 -0.1348
  448SOL    HW1 1343   1.680   1.784   1.644  2.3941  0.8566 -1.3990
  448SOL    HW2 1344   1.520   1.756   1.627  0.3916 -0.8416  1.8956
  449SOL     OW 1345   2.879   2.485   2.545  0.4802 -0.0859 -0.0547
  449SOL    HW1 1346   2.819   2.417   2.599  0.3428  0.7974  0.7520
  449SOL    HW2 1347   2.975   2.477   2.578 -3.6249 -0.4028  0.2421
  450SOL     OW 1348   0.018   1.641   1.998 -0.2680 -0.3817  0.2171
  450SOL    HW1 1349   0.002   1.692   1.910  0.7615 -1.6901 -0.0019
  450SOL    HW2 1350   0.081   1.563   1.980 -3.8047  2.8948 -1.5387
  451SOL     OW 1351   2.274   0.816   1.197 -0.0669 -0.0969  0.2712
  451SOL    HW1 1352   2.288   0.919   1.193  1.6208  1.0743 -0.6558
  451SOL    HW2 1353   2.334   0.774   1.263  1.7440  2.1236  0.0952
  452SOL     OW 1354   0.894   1.196   0.843  0.3653  0.0800 -0.0879
  452SOL    HW1 1355   0.868   1.108   0.804  0.6107  1.5830  0.9589
  452SOL    HW2 1356   0.938   1.184   0.937  1.1368 -0.8663  3.6591
  453SOL     OW 1357   1.525   2.156   0.656  0.1028 -0.0486 -0.5027
  453SOL    HW1 1358   1.559   2.162   0.753 -0.0924  1.7215 -0.1363
  453SOL    HW2 1359   1.597   2.175   0.583 -1.3438 -0.4617 -5.0574
  454SOL     OW 1360   0.464   1.796   0.075  0.2545  0.0133 -0.3850
  454SOL    HW1 1361   0.565   1.800   0.071 -0.5867  1.5961 -3.5054
  454SOL    HW2 1362   0.432   1.790   0.174 -0.9271 -0.8369  0.7244
  455SOL     OW 1363   1.043   1.020   0.231  0.5750  0.1877  0.4384
  455SOL    HW1 1364   0.952   0.970   0.224 -1.9296  3.1340  0.6508
  455SOL    HW2 1365   1.030   1.085   0.308  0.7193 -0.5685  1.0712
  456SOL     OW 1366   2.232   2.551   1.119  0.2060  0.3574  0.4152
  456SOL    HW1 1367   2.157   2.591   1.054 -0.6652  2.2822  0.1901
  456SOL    HW2 1368   2.220   2.449   1.127  0.0371 -1.8953  0.5777
  457SOL     OW 1369   1.447   2.960   3.028 -0.2932 -0.1484  0.4084
  457SOL    HW1 1370   1.544   2.995   3.031 -1.4563  2.6162 -0.1718
  457SOL    HW2 1371   1.419   2.931   0.041  1.6981  0.1833 -1.5584
  458SOL     OW 1372   2.306   0.844   0.394  0.2972 -0.1048  0.3328
  458SOL    HW1 1373   2.284   0.802   0.482  1.1140 -0.6651  2.0014
  458SOL    HW2 1374   2.260   0.933   0.380  0.7189 -2.4458  1.1171
  459SOL     OW 1375   2.351   0.418   2.606 -0.0154  0.2600  0.3142
  459SOL    HW1 1376   2.284   0.466   2.551  1.1349  0.9966  2.2734
  459SOL    HW2 1377   2.419   0.485   2.641 -1.7644 -1.2078  0.3946
  460SOL     OW 1378   2.553   0.595   2.612 -0.1626  0.0535 -0.3758
  460SOL    HW1 1379   2.621   0.624   2.683  1.4723  1.6659 -0.7214
  460SOL    HW2 1380   2.472   0.654   2.623 -4.0605 -0.0079  3.4401
  461SOL     OW 1381   0.126   2.235   0.775  0.6692 -0.3002  0.0654
  461SOL    HW1 1382   0.100   2.169   0.852 -1.9864 -1.3127  1.3202
  461SOL    HW2 1383   0.062   2.227   0.695 -0.3178 -1.9422 -0.7136
  462SOL     OW 1384   2.899   2.771   1.663  0.9495 -0.2912 -0.2255
  462SOL    HW1 1385   2.924   2.809   1.757 -1.1715  2.6598  1.8392
  462SOL    HW2 1386   2.994   2.743   1.625  6.6221 -1.0989  1.4753
  463SOL     OW 1387   2.320   1.888   2.686  0.5343 -0.0173 -0.4083
  463SOL    HW1 1388   2.396   1.836   2.733 -0.5130  0.4951  1.5023
  463SOL    HW2 1389   2.282   1.839   2.605  1.5049  0.0880  3.0317
  464SOL     OW 1390   0.764   2.671   1.622  0.5029 -0.2344 -0.1654
  464SOL    HW1 1391   0.845   2.635   1.673  0.7866  0.6630 -0.6178
  464SOL    HW2 1392   0.783   2.771   1.602  1.6285 -0.4416 -1.1565
  465SOL     OW 1393   0.865   2.930   1.577  0.4793  0.0719  0.8270
  465SOL    HW1 1394   0.837   2.968   1.485  1.5314  1.7028  1.4397
  465SOL    HW2 1395   0.890   3.010   1.635  0.3594  0.8640  0.6920
  466SOL     OW 1396   1.456   2.600   1.848  0.1689  0.3745  0.0453
  466SOL    HW1 1397   1.525   2.577   1.919  1.9175  1.6722 -0.2450
  466SOL    HW2 1398   1.416   2.694   1.861  0.6570 -1.0603  1.2004
  467SOL     OW 1399   0.847   1.954   1.248  0.1551 -0.6388 -0.5007
  467SOL    HW1 1400   0.859   1.868   1.297 -2.0598  1.6329  0.5599
  467SOL    HW2 1401   0.751   1.986   1.239 -0.2247  1.9946  0.4569
  468SOL     OW 1402   2.876   1.892   2.392 -0.2405 -0.3946  0.6120
  468SOL    HW1 1403   2.962   1.935   2.425 -2.2237 -1.2363  0.4282
  468SOL    HW2 1404   2.894   1.810   2.329  1.2915 -0.5254 -0.4481
  469SOL     OW 1405   0.878   1.975   0.762  0.1288 -0.2417  0.1373
  469SOL    HW1 1406   0.922   1.902   0.706 -1.9060  0.6476 -1.2340
  469SOL    HW2 1407   0.871   1.937   0.852  3.2381  1.3743 -0.6973
  470SOL     OW 1408   2.129   1.238   1.750  0.3182 -0.0505  0.6211
  470SOL    HW1 1409   2.054   1.273   1.689 -0.8129 -0.3102 -0.1021
  470SOL    HW2 1410   2.216   1.247   1.699 -2.8586  0.0275 -0.0512
  471SOL     OW 1411   0.506   2.298   0.140  0.3203 -0.2532 -0.1011
  471SOL    HW1 1412   0.576   2.323   0.212 -1.2504 -2.4592 -0.4621
  471SOL    HW2 1413   0.531   2.332   0.047 -0.7404 -0.7976 -0.9420
  472SOL     OW 1414   2.886   2.003   1.896  0.2240 -0.1221  0.1107
  472SOL    HW1 1415   2.840   1.977   1.982 -0.6973  0.5108  1.1958
  472SOL    HW2 1416   2.929   2.098   1.906  2.9389 -1.1366 -0.9040
  473SOL     OW 1417   1.005   0.018   0.142  0.1640 -0.3357  0.1417
  473SOL    HW1 1418   0.927   3.033   0.154 -0.5551  2.1245 -0.7121
  473SOL    HW2 1419   1.023   0.044   0.045  0.8631  0.3166 -0.4112
  474SOL     OW 1420   2.721   2.494   0.903  0.3768 -0.7244 -0.1558
  474SOL    HW1 1421   2.710   2.583   0.958 -0.0817  1.8923  2.3163
  474SOL    HW2 1422   2.779   2.517   0.828  0.2257 -1.8002  2.9757
  475SOL     OW 1423   2.101   2.842   1.483  0.2559  0.3553  0.0239
  475SOL    HW1 1424   2.186   2.887   1.517 -0.1804  0.3835 -1.3115
  475SOL    HW2 1425   2.015   2.899   1.489 -0.1687 -0.3142 -1.7601
  476SOL     OW 1426   0.764   0.987   0.665 -0.1167 -0.0387  0.0259
  476SOL    HW1 1427   0.843   0.955   0.610 -0.7341  1.7153 -0.4860
  476SOL    HW2 1428   0.700   0.914   0.686 -0.7115  2.2577  1.7420
  477SOL     OW 1429   0.374   1.945   0.881 -0.2850 -0.6992 -0.1999
  477SOL    HW1 1430   0.371   1.992   0.971  2.0552  0.0890  1.8205
  477SOL    HW2 1431   0.469   1.947   0.843  0.6867 -0.2384 -0.3415
  478SOL     OW 1432   0.053   2.599   2.133 -0.2262 -0.0160 -0.4528
  478SOL    HW1 1433   3.055   2.571   2.192  4.1441 -0.5707 -2.3009
  478SOL    HW2 1434   0.044   2.697   2.100  2.0527 -1.3036 -1.3855
  479SOL     OW 1435   0.243   0.380   1.593  0.3795 -0.4609 -0.3606
  479SOL    HW1 1436   0.237   0.337   1.502 -2.6360 -0.3969  0.1953
  479SOL    HW2 1437   0.334   0.405   1.631 -0.2826  0.5871  1.2163
  480SOL     OW 1438   2.915   2.568   0.017  0.3705 -0.7635  0.1545
  480SOL    HW1 1439   2.988   2.533   3.031  0.3374 -2.2683 -0.7558
  480SOL    HW2 1440   2.844   2.498   0.038 -0.7976  0.9247  1.2283
  481SOL     OW 1441   2.063   2.006   1.839  0.0333 -0.6979 -0.2676
  481SOL    HW1 1442   2.060   1.931   1.907 -0.1988  0.2507 -2.4705
  481SOL    HW2 1443   2.001   1.983   1.758 -0.9426  0.7831  0.7799
  482SOL     OW 1444   1.549   2.253   2.956  0.0512  0.0807 -0.5469
  482SOL    HW1 1445   1.466   2.313   2.962 -1.4613  0.4038 -1.3393
  482SOL    HW2 1446   1.620   2.287   3.021 -1.7263 -0.3862 -0.0908
  483SOL     OW 1447   0.617   1.994   2.153  0.0609  0.1242 -0.3581
  483SOL    HW1 1448   0.700   1.964   2.104 -0.8443 -1.0522 -1.5268
  483SOL    HW2 1449   0.599   2.091   2.130 -0.4559  0.6037  0.0156
  484SOL     OW 1450   2.903   0.533   1.099  0.3936 -0.3175 -0.0572
  484SOL    HW1 1451   2.944   0.481   1.024  0.6265  3.6150  0.5113
  484SOL    HW2 1452   2.806   0.499   1.095  0.3914 -0.9958 -0.4016
  485SOL     OW 1453   2.129   1.013   0.685  0.2296 -0.4549 -0.1420
  485SOL    HW1 1454   2.153   1.041   0.591 -0.9245  0.4141 -0.7206
  485SOL    HW2 1455   2.039   1.052   0.709  0.0718 -1.3744 -2.1012
  486SOL     OW 1456   1.580   0.239   2.187 -0.3753 -0.0384 -0.4517
  486SOL    HW1 1457   1.596   0.330   2.219 -0.9136 -0.4315 -2.5557
  486SOL    HW2 1458   1.601   0.175   2.266  1.4593 -0.6855  1.1459
  487SOL     OW 1459   0.759   1.499   1.220  0.2439 -0.5676  0.5266
  487SOL    HW1 1460   0.680   1.527   1.163 -2.0805 -3.2435  1.6451
  487SOL    HW2 1461   0.813   1.420   1.179  0.2507 -0.1854  0.6585
  488SOL     OW 1462   2.287   1.361   2.906  0.4028 -0.0978 -0.2916
  488SOL    HW1 1463   2.315   1.403   2.815  0.0620  0.7041 -2.5933
  488SOL    HW2 1464   2.311   1.419   2.983 -0.9868  0.3109 -1.9939
  489SOL     OW 1465   2.270   0.190   0.460 -0.5682 -0.3894 -0.0737
  489SOL    HW1 1466   2.361   0.197   0.503 -2.1598  0.7218 -0.6573
  489SOL    HW2 1467   2.195   0.213   0.524 -2.2815 -0.9356 -0.1497
  490SOL     OW 1468   1.449   2.468   0.330  0.4798 -0.2932 -0.0991
  490SOL    HW1 1469   1.492   2.379   0.311 -1.1620  2.4162  2.0492
  490SOL    HW2 1470   1.483   2.539   0.270 -2.3381 -4.8106  1.1806
  491SOL     OW 1471   1.076   0.878   0.807 -0.3917 -0.4001 -0.0184
  491SOL    HW1 1472   0.988   0.819   0.800  0.2446 -1.8077  0.7366
  491SOL    HW2 1473   1.115   0.884   0.715 -0.9848  1.6743  1.1839
  492SOL     OW 1474   1.393   0.236   2.793  0.1668 -0.0505 -0.3492
  492SOL    HW1 1475   1.491   0.199   2.776  3.5780 -1.5142 -1.1114
  492SOL    HW2 1476   1.376   0.328   2.763  0.8757  1.1340 -0.1563
  493SOL     OW 1477   1.891   1.998   0.238  0.8250  0.2855 -0.1395
  493SOL    HW1 1478   1.953   2.077   0.250 -0.8089  1.1700 -0.2714
  493SOL    HW2 1479   1.890   1.930   0.315  1.1524 -0.6646  0.4586
  494SOL     OW 1480   0.621   0.961   0.378  0.3881  0.9715  1.0487
  494SOL    HW1 1481   0.640   1.060   0.405 -1.2599  1.2833 -0.0897
  494SOL    HW2 1482   0.706   0.923   0.334 -0.3619 -3.1435  0.8266
  495SOL     OW 1483   3.029   2.715   0.851 -0.3551 -0.0958  0.4526
  495SOL    HW1 1484   3.064   2.639   0.908  1.4119  0.1673  4.2192
  495SOL    HW2 1485   2.965   2.687   0.775  0.9940  2.1252 -1.0400
  496SOL     OW 1486   2.449   0.170   1.648 -0.1046  0.2364  0.2351
  496SOL    HW1 1487   2.442   0.139   1.551  0.1410 -1.0728 -1.3092
  496SOL    HW2 1488   2.482   0.266   1.650 -0.5903 -1.0969  1.2103
  497SOL     OW 1489   1.920   1.313   2.628 -0.2220  0.0289 -0.2941
  497SOL    HW1 1490   1.991   1.388   2.639  3.6312 -0.4102  1.3643
  497SOL    HW2 1491   1.855   1.331   2.552 -1.3574 -0.3802  0.1511
  498SOL     OW 1492   0.865   1.854   0.997 -0.2480  0.3557  0.7141
  498SOL    HW1 1493   0.860   1.903   1.083 -2.3733 -1.7489  1.8459
  498SOL    HW2 1494   0.784   1.792   0.983  0.1398  3.6086  2.7646
  499SOL     OW 1495   0.809   2.126   1.468  0.3694 -0.1173  0.0327
  499SOL    HW1 1496   0.835   2.066   1.392 -0.7872  0.0320  2.0952
  499SOL    HW2 1497   0.753   2.203   1.426  0.0462 -0.8412  2.3089
  500SOL     OW 1498   0.832   2.055   0.131 -0.4578 -0.3065 -0.1339
  500SOL    HW1 1499   0.791   2.051   0.221  0.9302  1.1610 -1.3880
  500SOL    HW2 1500   0.912   2.117   0.123 -1.5131  1.5176 -0.4778
  501SOL     OW 1501   2.576   2.894   1.316  0.7056  0.3539 -0.0599
  501SOL    HW1 1502   2.520   2.839   1.251  1.9291  1.1498 -0.7302
  501SOL    HW2 1503   2.590   2.854   1.409 -0.5740  1.9027 -0.6163
  502SOL     OW 1504   0.278   0.687   1.496  0.2110 -0.4830  0.3547
  502SOL    HW1 1505   0.224   0.617   1.545  0.0825 -1.4193  0.2316
  502SOL    HW2 1506   0.360   0.720   1.551  3.2102  2.2602  1.5520
  503SOL     OW 1507   2.153   0.805   1.698 -0.2468 -0.3930  0.0195
  503SOL    HW1 1508   2.238   0.748   1.703  0.9386 -1.0997 -0.4473
  503SOL    HW2 1509   2.160   0.871   1.774  1.7317  1.9107 -1.0481
  504SOL     OW 1510   1.041   0.753   1.949  0.3946  0.1879  0.2153
  504SOL    HW1 1511   1.057   0.730   2.046 -0.7386  0.5420 -0.2320
  504SOL    HW2 1512   1.064   0.849   1.932  1.1669  0.0644 -1.8103
  505SOL     OW 1513   0.894   0.015   2.490 -0.1965  0.3312  0.2028
  505SOL    HW1 1514   0.893   3.041   2.404 -1.6789 -1.1519 -0.1827
  505SOL    HW2 1515   0.806   0.065   2.498  1.4275 -0.8185  1.5780
  506SOL     OW 1516   0.170   0.423   0.926  0.1733  0.7027  0.4773
  506SOL    HW1 1517   0.074   0.389   0.898  0.0659  0.1444 -0.2837
  506SOL    HW2 1518   0.231   0.342   0.935 -0.1191 -0.8275 -1.5383
  507SOL     OW 1519   1.412   0.257   3.072  0.2722 -0.0850 -0.0487
  507SOL    HW1 1520   1.366   0.235   2.983  0.4982  2.2903 -0.8666
  507SOL    HW2 1521   1.421   0.366   3.075  0.8556  6.1898  1.0199
  508SOL     OW 1522   1.789   0.382   2.390 -0.2160  0.0812 -0.2486
  508SOL    HW1 1523   1.815   0.467   2.341  0.6327  0.6752  1.6091
  508SOL    HW2 1524   1.844   0.297   2.366 -0.7641 -3.4428 -2.2068
  509SOL     OW 1525   0.664   1.313   2.158  0.1711  0.8748  0.2806
  509SOL    HW1 1526   0.736   1.377   2.163 -2.1536 -1.0678  2.3482
  509SOL    HW2 1527   0.665   1.261   2.247  0.6516  1.8271  0.9575
  510SOL     OW 1528   0.010   1.033   0.692  0.1795  0.4460 -0.4513
  510SOL    HW1 1529   0.068   1.040   0.774 -1.2167 -2.4366  0.2354
  510SOL    HW2 1530   3.012   0.975   0.720 -1.2879  0.7348  3.1713
  511SOL     OW 1531   2.125   2.062   0.764 -0.6420 -0.8336  0.1442
  511SOL    HW1 1532   2.171   2.132   0.825  0.9383 -0.1366  0.1056
  511SOL    HW2 1533   2.124   1.967   0.809  0.6320 -0.0895  1.3696
  512SOL     OW 1534   0.533   1.418   0.642  0.3606  0.3283  0.5721
  512SOL    HW1 1535   0.481   1.351   0.698  2.9333  1.7273  1.9701
  512SOL    HW2 1536   0.468   1.456   0.579  2.5801 -0.8358  0.9018
  513SOL     OW 1537   0.226   2.180   0.484 -0.1035  0.1816 -0.3951
  513SOL    HW1 1538   0.303   2.175   0.418  0.6165  0.7312  0.2112
  513SOL    HW2 1539   0.242   2.250   0.551  1.5565  1.5824 -1.6022
  514SOL     OW 1540   2.467   2.013   2.340  0.5086  0.2877 -0.0445
  514SOL    HW1 1541   2.472   2.049   2.437 -1.1687 -1.3094  0.8367
  514SOL    HW2 1542   2.508   2.079   2.280  1.1350 -0.5861  1.3972
  515SOL     OW 1543   2.193   1.014   0.164  1.4088 -0.3767  0.4139
  515SOL    HW1 1544   2.156   0.914   0.166 -0.5808 -0.4360 -1.0043
  515SOL    HW2 1545   2.292   1.012   0.153  0.8234 -1.2629 -0.6480
  516SOL     OW 1546   2.026   0.227   0.555  0.3836  0.1675 -0.4870
  516SOL    HW1 1547   1.934   0.267   0.572 -1.5588  0.5167 -1.4980
  516SOL    HW2 1548   2.055   0.249   0.457  0.5121  1.1897 -2.3870
  517SOL     OW 1549   1.268   2.228   0.049  0.6978  0.5303  0.3688
  517SOL    HW1 1550   1.204   2.232   0.133  0.3216  0.7059 -0.4824
  517SOL    HW2 1551   1.233   2.174   3.049 -0.1914 -1.0905  1.8623
  518SOL     OW 1552   1.176   0.625   1.744  0.0132  0.0316  0.4298
  518SOL    HW1 1553   1.126   0.660   1.829  2.3528  1.4428 -1.4531
  518SOL    HW2 1554   1.278   0.648   1.743  2.5869 -0.9269 -1.9475
  519SOL     OW 1555   2.886   1.431   0.122 -0.6824 -0.2611  0.0860
  519SOL    HW1 1556   2.889   1.470   0.026  0.8766 -0.7563  2.0015
  519SOL    HW2 1557   2.897   1.328   0.112 -0.0432 -3.9044 -2.1005
  520SOL     OW 1558   2.376   2.009   1.623 -0.1985 -0.2638 -0.1687
  520SOL    HW1 1559   2.336   2.018   1.532  0.6684  1.3765  0.5857
  520SOL    HW2 1560   2.386   2.105   1.667 -0.0634  2.2328 -0.6372
  521SOL     OW 1561   0.889   2.807   2.373 -0.2108  0.3695 -0.0204
  521SOL    HW1 1562   0.907   2.858   2.287 -1.9025  0.5749  0.6556
  521SOL    HW2 1563   0.972   2.808   2.434  3.1853  1.3721  3.8064
  522SOL     OW 1564   1.993   0.279   2.104  0.0045 -0.2649 -0.0821
  522SOL    HW1 1565   1.959   0.242   2.191 -2.3232 -0.5800 -1.6450
  522SOL    HW2 1566   1.999   0.380   2.105  0.7656  0.6796  1.5554
  523SOL     OW 1567   1.729   2.040   1.174  0.0588 -0.6762  0.0684
  523SOL    HW1 1568   1.668   2.121   1.172  3.1214  1.6043 -0.7420
  523SOL    HW2 1569   1.703   1.962   1.232 -1.2597  0.7515  0.9493
  524SOL     OW 1570   1.195   2.515   0.213  0.4918 -0.8627 -0.5917
  524SOL    HW1 1571   1.124   2.443   0.209  1.0949  0.3857 -0.7171
  524SOL    HW2 1572   1.279   2.488   0.262 -1.5174  0.8391 -0.5028
  525SOL     OW 1573   0.083   0.441   0.009  0.0106 -0.2501 -0.4579
  525SOL    HW1 1574   3.065   0.459   3.070 -0.5669 -3.3814  2.4832
  525SOL    HW2 1575   0.117   0.500   0.082  0.2975 -1.4940  0.5574
  526SOL     OW 1576   0.968   2.624   0.480 -0.1722  0.9503 -0.1066
  526SOL    HW1 1577   1.062   2.655   0.504 -1.8767  1.9447  3.7900
  526SOL    HW2 1578   0.936   2.657   0.389 -0.8100  1.1115 -0.3216
  527SOL     OW 1579   2.800   1.895   0.500 -0.2687  0.3286  0.5225
  527SOL    HW1 1580   2.790   1.911   0.598  0.8493  0.4976 -0.8321
  527SOL    HW2 1581   2.710   1.903   0.456  2.5677  2.0780 -0.3677
  528SOL     OW 1582   3.015   0.699   2.258  0.0278  0.7586  0.2078
  528SOL    HW1 1583   2.985   0.600   2.276  0.1059 -1.4840  0.6539
  528SOL    HW2 1584   0.018   0.703   2.203  0.3234 -0.7147  1.8943
  529SOL     OW 1585   1.271   1.633   2.699  0.0624 -0.5334  0.3778
  529SOL    HW1 1586   1.316   1.558   2.649  1.8727 -1.5660 -0.7919
  529SOL    HW2 1587   1.188   1.598   2.744  0.2183 -2.8186  0.8761
  530SOL     OW 1588   1.703   1.079   2.472  0.4784  0.1501  0.1010
  530SOL    HW1 1589   1.646   1.042   2.396 -0.7471 -0.1832 -1.0954
  530SOL    HW2 1590   1.737   1.170   2.454  0.6937  0.4158  3.6101
  531SOL     OW 1591   0.588   2.035   2.426 -0.2344 -0.0296  0.2352
  531SOL    HW1 1592   0.586   1.996   2.332 -1.2377  2.8764  1.6629
  531SOL    HW2 1593   0.515   1.998   2.486 -0.9912  1.7776 -0.0906
  532SOL     OW 1594   2.185   1.125   0.438 -0.0336  0.7966 -0.1754
  532SOL    HW1 1595   2.161   1.146   0.342  1.2599  3.9118 -0.2886
  532SOL    HW2 1596   2.239   1.200   0.478 -0.0589  0.2590 -0.4526
  533SOL     OW 1597   0.006   0.058   1.772  0.3214  0.0442 -0.3296
  533SOL    HW1 1598   0.083   0.018   1.723 -0.4682 -1.6993 -0.9637
  533SOL    HW2 1599   2.997   0.058   1.722  0.0811 -1.1686  0.5319
  534SOL     OW 1600   0.596   0.168   2.971 -0.6762  0.1271  0.0074
  534SOL    HW1 1601   0.549   0.238   2.912 -1.2288 -2.5653  0.4549
  534SOL    HW2 1602   0.528   0.105   3.004 -0.5239  4.1523  2.1435
  535SOL     OW 1603   0.201   0.079   0.392 -0.7388 -0.1007  0.1058
  535SOL    HW1 1604   0.118   0.134   0.402  1.0643 -4.1184  1.5571
  535SOL    HW2 1605   0.242   0.059   0.485  2.7303 -1.1814  2.2796
  536SOL     OW 1606   0.238   1.433   1.602 -0.3809 -0.5315 -0.4122
  536SOL    HW1 1607   0.200   1.523   1.571  0.6304 -0.9108  1.4292
  536SOL    HW2 1608   0.314   1.408   1.539 -0.0518  0.8505 -0.9707
  537SOL     OW 1609   1.233   2.490   1.733 -0.4886 -0.1089  0.0980
  537SOL    HW1 1610   1.325   2.513   1.767  1.1169  2.0603  0.7098
  537SOL    HW2 1611   1.209   2.388   1.731 -1.6968 -2.8067  2.7314
  538SOL     OW 1612   0.062   1.849   0.201  0.3057 -0.1287 -0.0939
  538SOL    HW1 1613   0.030   1.922   0.269  1.0554  0.7903  0.0339
  538SOL    HW2 1614   3.056   1.792   0.176 -5.4131  0.8233 -0.9374
  539SOL     OW 1615   2.602   1.160   2.487 -0.3858  0.1236 -0.1393
  539SOL    HW1 1616   2.631   1.158   2.584  0.2456  1.0592 -1.1898
  539SOL    HW2 1617   2.656   1.088   2.435  0.4371 -4.4386  0.7220
  540SOL     OW 1618   1.725   0.724   2.014  0.3119 -0.3814  0.3989
  540SOL    HW1 1619   1.779   0.734   1.930 -0.1720  3.3335  1.1177
  540SOL    HW2 1620   1.717   0.814   2.063  0.1272  1.8357  1.4492
  541SOL     OW 1621   0.597   0.585   2.182 -0.0528 -0.4509  0.1452
  541SOL    HW1 1622   0.583   0.501   2.235  1.2776 -0.7633  1.1244
  541SOL    HW2 1623   0.578   0.568   2.085 -1.1103  0.7264  1.3292
  542SOL     OW 1624   2.175   0.114   3.042  0.1030  0.1823  0.2935
  542SOL    HW1 1625   2.206   0.208   3.051 -0.8067 -3.5968 -0.8519
  542SOL    HW2 1626   2.156   0.086   2.945  0.5200  1.6123  0.3425
  543SOL     OW 1627   1.272   0.125   0.190  0.1367 -0.3216  0.3485
  543SOL    HW1 1628   1.317   0.157   0.101  1.1626 -0.3540 -1.1572
  543SOL    HW2 1629   1.187   0.069   0.168 -0.8646 -0.1616  0.2672
  544SOL     OW 1630   2.745   1.562   1.919 -0.6500 -0.0869  0.0619
  544SOL    HW1 1631   2.765   1.532   2.013  2.0457 -1.9455 -2.0569
  544SOL    HW2 1632   2.756   1.485   1.855 -0.1319 -1.9236  1.3499
  545SOL     OW 1633   2.030   2.267   1.492  0.0806  0.0677  0.0867
  545SOL    HW1 1634   2.120   2.297   1.456 -2.4065  2.7427 -1.3412
  545SOL    HW2 1635   1.965   2.346   1.476 -0.7935  1.1091 -0.4370
  546SOL     OW 1636   0.003   3.045   2.641  0.3179 -0.3218 -0.0516
  546SOL    HW1 1637   0.022   3.050   2.539 -2.7164  0.5198 -1.8976
  546SOL    HW2 1638   0.071   2.984   2.688  1.4767  1.7138 -0.7059
  547SOL     OW 1639   1.782   0.956   0.882 -0.3543  0.1850  0.0125
  547SOL    HW1 1640   1.854   1.022   0.913  2.4309  0.6915 -2.0774
  547SOL    HW2 1641   1.702   0.948   0.948  0.3767 -1.9663 -1.2109
  548SOL     OW 1642   1.824   1.974   2.419  0.6600  0.6511  0.3421
  548SOL    HW1 1643   1.811   1.930   2.508 -0.6692  0.5321 -0.2854
  548SOL    HW2 1644   1.757   2.050   2.412 -4.2845  1.5187  1.7833
  549SOL     OW 1645   2.032   0.544   0.409 -0.0982  0.4435 -0.3231
  549SOL    HW1 1646   1.996   0.637   0.382 -1.4919 -0.9404  1.1722
  549SOL    HW2 1647   2.019   0.533   0.513  0.8640 -0.0782  0.9531
  550SOL     OW 1648   2.740   1.907   0.766 -0.2101 -0.5618  0.4457
  550SOL    HW1 1649   2.809   1.837   0.778 -1.2084 -0.1987 -0.0577
  550SOL    HW2 1650   2.743   1.973   0.843 -1.3582 -1.1852 -1.5578
  551SOL     OW 1651   1.210   2.643   2.288 -0.0395 -0.0817  0.0117
  551SOL    HW1 1652   1.280   2.688   2.232  0.8446  0.8123 -0.9863
  551SOL    HW2 1653   1.194   2.689   2.376 -1.2107 -0.5968  0.0052
  552SOL     OW 1654   3.076   2.462   2.922 -0.7462  0.2043 -0.2794
  552SOL    HW1 1655   0.012   2.366   2.957 -1.4077 -0.1362 -1.2103
  552SOL    HW2 1656   3.076   2.461   2.819  3.6829 -2.7236  1.3909
  553SOL     OW 1657   0.084   0.211   0.707 -0.1737 -0.1070  0.1561
  553SOL    HW1 1658   0.155   0.143   0.683 -2.0098 -0.8301  0.6276
  553SOL    HW2 1659   0.005   0.167   0.756  0.7343 -2.3892  1.1443
  554SOL     OW 1660   2.184   2.523   1.803 -0.4748  0.3159 -0.0359
  554SOL    HW1 1661   2.154   2.423   1.794 -1.7344 -1.2104  0.0607
  554SOL    HW2 1662   2.251   2.542   1.878  0.8653  1.9067  0.0190
  555SOL     OW 1663   1.710   2.376   2.269 -0.1256 -0.8735 -0.5064
  555SOL    HW1 1664   1.617   2.419   2.266 -0.2195 -0.7790 -0.5423
  555SOL    HW2 1665   1.780   2.434   2.210  0.4612  1.8379 -3.6741
  556SOL     OW 1666   1.230   1.447   1.369  0.5443  0.3130 -0.4362
  556SOL    HW1 1667   1.203   1.390   1.292 -2.9953  3.1205  0.4224
  556SOL    HW2 1668   1.328   1.471   1.371  1.0639 -1.4970 -3.1470
  557SOL     OW 1669   1.904   2.445   2.619 -0.1860 -0.1087  0.6185
  557SOL    HW1 1670   1.958   2.369   2.656 -1.2526  0.5510  1.5238
  557SOL    HW2 1671   1.915   2.531   2.672 -0.9600 -1.1896 -2.6833
  558SOL     OW 1672   0.129   2.869   2.085 -0.3965  0.2163  0.3092
  558SOL    HW1 1673   0.188   2.870   2.000 -1.0625  0.5441 -0.7716
  558SOL    HW2 1674   0.182   2.888   2.168  0.1916  1.7447 -3.6734
  559SOL     OW 1675   2.225   2.884   0.862 -0.6196 -0.1017  0.4409
  559SOL    HW1 1676   2.222   2.812   0.784 -1.0827 -1.2831 -1.6931
  559SOL    HW2 1677   2.156   2.958   0.853  1.7726  0.7779  0.4430
  560SOL     OW 1678   1.880   2.586   0.578  0.0495  0.3842  0.4685
  560SOL    HW1 1679   1.816   2.530   0.637 -0.9429 -0.9776  0.4082
  560SOL    HW2 1680   1.913   2.663   0.630  1.1512 -1.3934  0.7608
  561SOL     OW 1681   1.026   0.104   0.635  0.0842 -0.0949 -0.2832
  561SOL    HW1 1682   0.994   0.126   0.541 -0.8755 -0.5723  0.9862
  561SOL    HW2 1683   1.063   0.188   0.680 -0.2206 -0.1103 -0.8257
  562SOL     OW 1684   0.669   0.837   2.540 -0.2683 -0.4750 -0.2753
  562SOL    HW1 1685   0.644   0.749   2.587 -0.7373  2.7829  1.0752
  562SOL    HW2 1686   0.650   0.834   2.437 -0.1907  0.0708 -0.6530
  563SOL     OW 1687   1.630   1.775   2.390  0.0382 -0.1025 -0.2983
  563SOL    HW1 1688   1.558   1.793   2.460 -2.8062  0.7934  1.2594
  563SOL    HW2 1689   1.708   1.834   2.408  1.1082 -0.6628 -1.0593
  564SOL     OW 1690   2.622   0.692   1.181  0.1441 -0.4270  0.1727
  564SOL    HW1 1691   2.536   0.692   1.239 -2.8179 -1.7380  1.4183
  564SOL    HW2 1692   2.622   0.627   1.101 -0.3704  0.0074 -2.0370
  565SOL     OW 1693   1.074   0.635   2.900 -0.1438 -0.4486  0.1584
  565SOL    HW1 1694   1.138   0.714   2.904  0.4711 -4.2161 -0.1573
  565SOL    HW2 1695   0.980   0.654   2.939 -2.3449 -0.5133  1.0608
  566SOL     OW 1696   2.028   0.328   2.741  0.2258 -0.0117 -0.2043
  566SOL    HW1 1697   2.008   0.406   2.681 -0.2071 -1.4102 -0.0733
  566SOL    HW2 1698   2.119   0.333   2.787 -4.5099 -1.2925 -3.0396
  567SOL     OW 1699   2.167   1.471   0.319 -0.1011  0.0427 -0.0800
  567SOL    HW1 1700   2.215   1.459   0.409  3.2088  0.2380 -2.4314
  567SOL    HW2 1701   2.198   1.403   0.249  2.2699  0.6686  0.1041
  568SOL     OW 1702   1.725   1.678   2.978 -0.0556 -0.4763 -0.4140
  568SOL    HW1 1703   1.631   1.685   2.935 -1.1750 -0.2245 -2.6076
  568SOL    HW2 1704   1.731   1.727   3.066 -0.9239 -0.9437 -2.2998
  569SOL     OW 1705   1.920   1.078   3.062 -0.6806  0.3450 -0.0269
  569SOL    HW1 1706   1.885   1.144   2.997  1.3422 -1.7241 -2.5822
  569SOL    HW2 1707   2.006   1.035   3.030 -0.7950  0.9380 -0.8716
  570SOL     OW 1708   0.389   2.324   1.943 -0.1154  0.0163 -0.1661
  570SOL    HW1 1709   0.388   2.423   1.920  0.7357 -3.5006 -0.6420
  570SOL    HW2 1710   0.299   2.295   1.973  2.7764 -0.2116  0.9435
  571SOL     OW 1711   0.298   1.153   1.902 -0.1816  0.3821  0.4375
  571SOL    HW1 1712   0.266   1.098   1.815 -1.2194  0.3158 -2.7187
  571SOL    HW2 1713   0.258   1.113   1.989 -0.6100 -2.2756 -0.9866
  572SOL     OW 1714   0.987   1.791   0.593  0.2483 -0.9332  0.5066
  572SOL    HW1 1715   0.916   1.734   0.553 -0.8437 -0.3901  0.1939
  572SOL    HW2 1716   1.079   1.768   0.565  0.0554  0.9306  0.5847
  573SOL     OW 1717   1.690   1.919   0.071 -0.2002 -0.4093  0.3214
  573SOL    HW1 1718   1.610   1.980   0.094  0.5491 -2.2680 -1.0807
  573SOL    HW2 1719   1.774   1.946   0.125  1.7836 -2.5825 -0.1860
  574SOL     OW 1720   0.921   2.972   1.058 -0.1101 -0.2297 -0.2127
  574SOL    HW1 1721   0.826   2.947   1.078  4.4900  4.5779 -0.5269
  574SOL    HW2 1722   0.956   2.919   0.977 -0.2112 -0.3738 -0.6927
  575SOL     OW 1723   0.378   1.072   1.419 -0.0493  0.3537 -0.6031
  575SOL    HW1 1724   0.444   1.102   1.492  0.3146  0.9124  0.5137
  575SOL    HW2 1725   0.355   1.159   1.374  2.3045  0.1291  0.8508
  576SOL     OW 1726   2.545   0.055   1.026  0.2006  0.5005 -0.1623
  576SOL    HW1 1727   2.449   0.065   1.065 -1.4532 -0.8441 -2.3408
  576SOL    HW2 1728   2.542   3.054   0.964 -1.0330  0.2606 -1.3579
  577SOL     OW 1729   0.903   1.064   2.188 -0.2388 -0.0836 -0.5792
  577SOL    HW1 1730   0.928   1.109   2.100  2.2014 -3.2081 -1.7955
  577SOL    HW2 1731   0.812   1.093   2.236 -1.4595 -0.2940  3.7033
  578SOL     OW 1732   1.844   0.881   2.572 -0.5853 -0.3309 -0.3758
  578SOL    HW1 1733   1.787   0.956   2.533  2.2596 -0.7145  0.4805
  578SOL    HW2 1734   1.921   0.929   2.615 -1.6686  1.4120 -1.8249
  579SOL     OW 1735   2.114   2.268   1.765  0.1814  0.4484  0.2302
  579SOL    HW1 1736   2.126   2.173   1.811 -0.6833 -0.1034  1.4059
  579SOL    HW2 1737   2.081   2.256   1.671 -0.8595  1.8579 -3.0483
  580SOL     OW 1738   1.537   1.514   2.340  0.7500  0.2435 -0.1464
  580SOL    HW1 1739   1.581   1.602   2.341  1.0015 -1.2283  1.8036
  580SOL    HW2 1740   1.441   1.524   2.305  0.5663 -1.0609 -1.3017
  581SOL     OW 1741   1.256   1.271   2.431  0.0023  0.0662  0.0329
  581SOL    HW1 1742   1.275   1.179   2.467  1.6559  2.8320 -0.9947
  581SOL    HW2 1743   1.309   1.340   2.488  3.0728  2.3475  2.1051
  582SOL     OW 1744   1.019   1.421   1.824  0.1546  0.6672  0.0237
  582SOL    HW1 1745   0.920   1.439   1.814 -0.0510 -1.5137 -3.4170
  582SOL    HW2 1746   1.069   1.454   1.746  0.6171 -0.2239  4.0174
  583SOL     OW 1747   1.365   1.086   1.695 -0.2107  0.5463 -0.1969
  583SOL    HW1 1748   1.308   1.075   1.609  0.0907 -1.0207 -0.7128
  583SOL    HW2 1749   1.391   1.184   1.718 -0.2950  0.2972 -1.8915
  584SOL     OW 1750   2.166   2.794   0.380  0.9295 -0.3270  0.2308
  584SOL    HW1 1751   2.118   2.731   0.318  1.3695 -0.3875 -0.9183
  584SOL    HW2 1752   2.250   2.821   0.334 -0.0713 -1.8611 -0.5864
  585SOL     OW 1753   1.811   3.022   2.799 -0.2593  0.2729 -0.2181
  585SOL    HW1 1754   1.894   3.071   2.766  0.1373 -0.1807 -1.8983
  585SOL    HW2 1755   1.789   3.043   2.893 -3.4294 -0.3143 -1.4530
  586SOL     OW 1756   2.825   1.887   1.199  0.2701  0.1147 -0.3776
  586SOL    HW1 1757   2.886   1.826   1.256 -0.3265 -0.9740  0.5179
  586SOL    HW2 1758   2.727   1.852   1.194 -1.5998 -2.1417 -1.4469
  587SOL     OW 1759   1.228   1.915   0.033 -0.1216  0.2230 -0.2759
  587SOL    HW1 1760   1.269   1.823   0.020 -1.1717  0.8995 -1.0894
  587SOL    HW2 1761   1.191   1.956   3.026  0.3067 -0.6878  0.7219
  588SOL     OW 1762   0.307   0.187   0.952  0.8154  0.1684  0.6197
  588SOL    HW1 1763   0.379   0.214   0.887 -0.7296  0.7303  0.2410
  588SOL    HW2 1764   0.285   0.086   0.948 -0.8829  2.2032 -0.9836
  589SOL     OW 1765   1.393   0.037   0.597  0.5496  0.6056  0.1972
  589SOL    HW1 1766   1.290   0.032   0.616 -1.8369  1.6782  1.3705
  589SOL    HW2 1767   1.434   0.114   0.645  0.4686  0.8311  0.4296
  590SOL     OW 1768   1.223   0.863   2.901 -0.0610  0.5854  0.0732
  590SOL    HW1 1769   1.169   0.891   2.822  1.9297  0.7404 -0.2483
  590SOL    HW2 1770   1.186   0.925   2.975 -1.8741 -1.8042  0.6905
  591SOL     OW 1771   2.797   2.295   2.116  0.2128 -0.2655 -0.3439
  591SOL    HW1 1772   2.849   2.343   2.184 -0.7530 -1.8702  1.0722
  591SOL    HW2 1773   2.842   2.286   2.026 -1.5740 -0.8076  2.0126
  592SOL     OW 1774   2.441   1.368   1.844 -0.1392  0.3060 -0.5044
  592SOL    HW1 1775   2.392   1.319   1.764  1.0708 -1.7005 -2.8635
  592SOL    HW2 1776   2.544   1.371   1.833  3.3589  1.9280  0.5624
  593SOL     OW 1777   1.200   1.105   1.445  0.6566  0.6844  0.2136
  593SOL    HW1 1778   1.185   1.042   1.366 -1.6767  0.0276 -2.4847
  593SOL    HW2 1779   1.112   1.147   1.479  0.3069 -2.3965  1.5422
  594SOL     OW 1780   2.366   1.526   2.685  0.0218 -0.4641 -0.1082
  594SOL    HW1 1781   2.420   1.602   2.728 -0.2251  0.5406  0.8044
  594SOL    HW2 1782   2.415   1.487   2.604  0.0665 -1.2367 -0.4782
  595SOL     OW 1783   3.055   0.189   0.462  0.1876  0.0712 -0.0924
  595SOL    HW1 1784   3.076   0.199   0.563  0.6571 -0.5838  1.4654
  595SOL    HW2 1785   2.961   0.222   0.440 -0.5588  2.0058 -1.5769
  596SOL     OW 1786   2.921   1.483   0.970 -0.7214  0.0197  0.2014
  596SOL    HW1 1787   2.966   1.441   1.049 -0.4510 -2.6122 -1.4994
  596SOL    HW2 1788   2.983   1.497   0.893 -2.1047 -1.5256 -0.3511
  597SOL     OW 1789   1.412   1.623   0.588  0.2230  0.3341  0.5791
  597SOL    HW1 1790   1.418   1.678   0.674 -0.3065  0.9227  2.3097
  597SOL    HW2 1791   1.350   1.675   0.521 -0.3552 -1.5354 -1.4110
  598SOL     OW 1792   0.258   2.857   1.854  0.1680  0.0874  0.5386
  598SOL    HW1 1793   0.243   2.908   1.769  3.1807  0.9546  0.2162
  598SOL    HW2 1794   0.242   2.755   1.837 -1.1028 -5.5747 -0.7916
  599SOL     OW 1795   3.020   1.548   2.697 -0.2393  0.0756  0.4405
  599SOL    HW1 1796   2.930   1.550   2.647 -1.4788  2.6996  1.0365
  599SOL    HW2 1797   3.047   1.642   2.733  1.7787 -2.5652  2.6667
  600SOL     OW 1798   0.504   1.014   2.913  0.0649 -0.1591 -0.0698
  600SOL    HW1 1799   0.470   0.927   2.873  1.4250  2.1635 -0.1792
  600SOL    HW2 1800   0.486   1.082   2.839 -1.2676 -2.1949 -1.1718
  601SOL     OW 1801   0.690   0.866   1.089 -0.1380  0.4713  0.0071
  601SOL    HW1 1802   0.643   0.931   1.021 -3.8368  0.3376 -0.8216
  601SOL    HW2 1803   0.669   0.881   1.188  2.0348 -0.3060 -0.8077
  602SOL     OW 1804   1.079   2.373   0.458 -0.1258 -0.0403  0.2918
  602SOL    HW1 1805   1.011   2.454   0.455 -2.3854  0.7151 -1.7943
  602SOL    HW2 1806   1.162   2.391   0.513 -1.0883 -3.1090 -1.8366
  603SOL     OW 1807   1.618   2.125   2.388  0.2666 -0.3997 -0.4279
  603SOL    HW1 1808   1.575   2.193   2.445 -0.1021 -0.2274 -2.6522
  603SOL    HW2 1809   1.590   2.130   2.291  3.1196  2.1228  1.4899
  604SOL     OW 1810   0.473   0.370   2.803 -0.1943 -0.2424 -0.1555
  604SOL    HW1 1811   0.389   0.425   2.821  1.9946  3.0266 -0.4935
  604SOL    HW2 1812   0.447   0.293   2.741  2.8180  0.8789 -0.9891
  605SOL     OW 1813   2.497   0.989   1.734 -0.4288  0.1130  0.3333
  605SOL    HW1 1814   2.479   1.045   1.817 -1.8211  1.3524  0.9855
  605SOL    HW2 1815   2.553   1.040   1.664 -0.2841  2.3242 -1.3927
  606SOL     OW 1816   0.669   1.779   2.501 -0.0441  0.4010 -0.0016
  606SOL    HW1 1817   0.661   1.884   2.487  0.1076  2.6935 -1.1605
  606SOL    HW2 1818   0.752   1.746   2.449  2.3130 -3.2311 -1.0435
  607SOL     OW 1819   0.755   0.024   0.639  0.2172  0.3826 -0.0077
  607SOL    HW1 1820   0.696   0.076   0.571  0.5242 -2.1424  1.4079
  607SOL    HW2 1821   0.849   0.062   0.651  1.5132  0.2740  0.1617
  608SOL     OW 1822   2.530   1.744   1.536 -0.2740  0.4599 -0.0141
  608SOL    HW1 1823   2.463   1.799   1.589  1.8507  1.8752  2.8848
  608SOL    HW2 1824   2.501   1.646   1.531 -1.2187 -1.2894  2.8057
  609SOL     OW 1825   2.674   0.344   0.672  0.4544  0.2502  0.4649
  609SOL    HW1 1826   2.659   0.320   0.772  0.3794 -1.8643 -1.0288
  609SOL    HW2 1827   2.594   0.397   0.639  2.4932 -0.9645  2.3832
  610SOL     OW 1828   0.247   2.616   1.368  0.5347  0.3029  0.3836
  610SOL    HW1 1829   0.228   2.519   1.400 -1.4929 -0.6772 -1.9477
  610SOL    HW2 1830   0.245   2.624   1.264  1.1228 -1.1781  1.8334
  611SOL     OW 1831   1.513   1.609   0.166 -0.2064  0.3324 -0.2946
  611SOL    HW1 1832   1.610   1.577   0.180  0.2302 -0.4371  1.0239
  611SOL    HW2 1833   1.498   1.705   0.207  2.0508  2.6327  1.2480
  612SOL     OW 1834   0.739   2.738   2.099  0.1898  0.2190 -0.0876
  612SOL    HW1 1835   0.684   2.720   2.183  1.7344 -1.4946 -0.9561
  612SOL    HW2 1836   0.670   2.762   2.026 -0.0418  2.2460 -1.6445
  613SOL     OW 1837   0.465   2.599   0.966 -0.0791 -0.1437 -0.0298
  613SOL    HW1 1838   0.453   2.516   0.902  0.6325 -3.0843 -0.6709
  613SOL    HW2 1839   0.545   2.591   1.031 -2.2116  0.9696  3.0228
  614SOL     OW 1840   2.223   0.156   2.053 -0.3252  0.0658  0.6019
  614SOL    HW1 1841   2.131   0.199   2.049  0.4513 -2.1355  1.6612
  614SOL    HW2 1842   2.241   0.110   1.964  0.2189 -0.9851  0.4530
  615SOL     OW 1843   1.447   1.367   0.350  0.1103 -0.0308  0.0246
  615SOL    HW1 1844   1.446   1.439   0.275 -0.3823 -0.2246  0.6814
  615SOL    HW2 1845   1.508   1.396   0.426  0.7882  1.6377  0.5615
  616SOL     OW 1846   1.909   1.526   0.401 -0.7441 -0.0837  0.2980
  616SOL    HW1 1847   1.853   1.543   0.317  2.5681  0.2812  1.2161
  616SOL    HW2 1848   2.001   1.504   0.363 -0.4659 -0.6427 -2.1727
  617SOL     OW 1849   1.304   1.033   2.500 -0.3170  0.4081  0.4237
  617SOL    HW1 1850   1.255   0.959   2.555  1.9988  1.2391  0.6867
  617SOL    HW2 1851   1.380   0.999   2.442 -0.8060  1.4034  1.9012
  618SOL     OW 1852   0.507   2.853   1.972  0.6485  0.1373 -0.0336
  618SOL    HW1 1853   0.407   2.844   1.946 -1.1797 -0.2662  0.1997
  618SOL    HW2 1854   0.526   2.934   2.029 -1.1031 -2.6957 -0.9428
  619SOL     OW 1855   2.782   1.362   1.476 -0.1299  0.4538  0.2589
  619SOL    HW1 1856   2.877   1.332   1.455 -0.7346 -1.5379  1.4168
  619SOL    HW2 1857   2.749   1.424   1.405 -0.4756 -1.0599  3.2212
  620SOL     OW 1858   2.287   0.277   2.819  0.6664 -0.4837 -0.1800
  620SOL    HW1 1859   2.327   0.325   2.739 -0.2780 -1.3029 -1.9333
  620SOL    HW2 1860   2.311   0.178   2.808 -1.8782 -1.3681 -0.6721
  621SOL     OW 1861   2.423   2.128   2.587 -0.5897  0.0747  0.3582
  621SOL    HW1 1862   2.380   2.213   2.629 -0.9605  0.6255  1.3406
  621SOL    HW2 1863   2.402   2.048   2.643  0.1521  3.9431 -0.5819
  622SOL     OW 1864   0.925   0.954   2.549 -0.4295  0.2518 -0.6500
  622SOL    HW1 1865   0.833   0.918   2.567  0.9209  0.4429 -1.8587
  622SOL    HW2 1866   0.965   0.908   2.466 -1.9288 -1.8987 -2.2030
  623SOL     OW 1867   0.639   1.078   2.322  0.0518  0.2196 -0.1261
  623SOL    HW1 1868   0.615   1.102   2.418  1.4735 -0.6095 -1.0448
  623SOL    HW2 1869   0.615   0.981   2.303 -1.1363  2.3595  1.6613
  624SOL     OW 1870   2.728   0.532   0.234  0.0319  0.3174  0.2097
  624SOL    HW1 1871   2.711   0.464   0.159 -0.1487  2.9512  1.3865
  624SOL    HW2 1872   2.816   0.584   0.217 -0.3914 -2.8711  2.8112
  625SOL     OW 1873   1.000   2.401   1.180  0.0557 -0.3872 -0.1857
  625SOL    HW1 1874   0.903   2.429   1.174  1.6985  0.3141 -1.3712
  625SOL    HW2 1875   1.056   2.470   1.228  1.1264  1.4100  0.4580
  626SOL     OW 1876   1.973   0.577   2.569 -0.0624 -0.0077 -0.3146
  626SOL    HW1 1877   2.040   0.622   2.632 -1.0945  2.2831 -2.8100
  626SOL    HW2 1878   1.877   0.600   2.609 -1.6998 -0.2310  1.7574
  627SOL     OW 1879   1.558   2.829   2.818 -0.3151 -0.0365  0.1364
  627SOL    HW1 1880   1.491   2.882   2.879  1.7808 -0.9220 -1.5659
  627SOL    HW2 1881   1.522   2.741   2.784  1.0098 -0.5116  2.1331
  628SOL     OW 1882   2.489   2.892   2.324  0.0407  0.1236  0.2649
  628SOL    HW1 1883   2.576   2.891   2.273 -2.9627 -0.5605  1.6779
  628SOL    HW2 1884   2.434   2.974   2.289 -1.7804  1.7713 -2.3062
  629SOL     OW 1885   0.990   3.019   2.224  0.3078  0.2223 -0.0781
  629SOL    HW1 1886   1.079   3.060   2.253 -3.3716  1.2115  1.9181
  629SOL    HW2 1887   0.947   0.006   2.163 -1.9935  0.6214 -1.1597
  630SOL     OW 1888   0.913   0.375   2.354  0.2673  0.5065  0.4507
  630SOL    HW1 1889   0.830   0.351   2.409 -2.2537 -1.3350 -0.0502
  630SOL    HW2 1890   0.999   0.356   2.403  0.6846 -0.7875  0.4503
  631SOL     OW 1891   1.934   1.218   0.787  0.3334 -0.3863 -0.3822
  631SOL    HW1 1892   1.859   1.183   0.724 -3.1872 -0.2013  1.6863
  631SOL    HW2 1893   1.899   1.221   0.882 -1.3822  0.4324 -1.5749
  632SOL     OW 1894   2.542   0.418   1.631 -0.2684 -0.2531  0.3440
  632SOL    HW1 1895   2.474   0.481   1.669  0.6393 -3.3738 -1.6561
  632SOL    HW2 1896   2.593   0.456   1.550 -0.5474  1.2021 -1.9292
  633SOL     OW 1897   1.081   1.785   0.236 -0.1514  0.4245  0.0594
  633SOL    HW1 1898   1.135   1.852   0.177  1.6738 -1.7807 -1.2327
  633SOL    HW2 1899   1.003   1.751   0.178  0.0143  2.1435 -1.8603
  634SOL     OW 1900   2.655   0.010   1.763 -0.2156  0.2118 -0.1395
  634SOL    HW1 1901   2.571   0.067   1.750  0.9346 -2.0834 -1.9720
  634SOL    HW2 1902   2.713   0.017   1.677 -0.8488  1.4153 -0.3581
  635SOL     OW 1903   1.656   0.540   0.884  0.2141 -0.3064  0.0194
  635SOL    HW1 1904   1.600   0.552   0.968 -0.4590 -0.4726 -0.3199
  635SOL    HW2 1905   1.680   0.445   0.867 -1.1569  2.8457  0.7855
  636SOL     OW 1906   0.726   1.251   0.092  0.0094  0.4646  0.2113
  636SOL    HW1 1907   0.707   1.152   0.097 -0.1911  0.1625 -1.4249
  636SOL    HW2 1908   0.643   1.308   0.114 -0.6167  4.7902  0.4520
  637SOL     OW 1909   2.829   2.190   2.914  0.4544 -0.1273  0.1247
  637SOL    HW1 1910   2.828   2.087   2.889 -0.0911 -0.9629  0.5719
  637SOL    HW2 1911   2.913   2.207   2.970 -0.3020  1.4936  2.4943
  638SOL     OW 1912   1.676   2.351   2.685 -0.9116  0.0381 -0.1558
  638SOL    HW1 1913   1.750   2.408   2.643  0.2536 -0.4919  1.9583
  638SOL    HW2 1914   1.718   2.276   2.738  3.6930  0.4921  0.1954
  639SOL     OW 1915   1.721   1.811   0.774  0.2379 -0.6354  0.2575
  639SOL    HW1 1916   1.624   1.822   0.798 -2.1450 -0.0155 -0.2300
  639SOL    HW2 1917   1.714   1.798   0.671  1.5253  0.1973  0.2327
  640SOL     OW 1918   1.973   3.001   0.528 -0.1764  0.4251 -0.1226
  640SOL    HW1 1919   2.058   2.958   0.488  0.7328  0.8258  0.4258
  640SOL    HW2 1920   1.968   0.017   0.491 -2.3569 -0.3750 -1.7715
  641SOL     OW 1921   2.659   0.402   0.007  0.3040  0.5724  0.0196
  641SOL    HW1 1922   2.587   0.452   3.038  0.6237 -1.6415 -0.6088
  641SOL    HW2 1923   2.636   0.305   0.022  1.1560 -1.4084 -0.4838
  642SOL     OW 1924   0.371   0.585   1.273  0.0677  0.2493 -0.4798
  642SOL    HW1 1925   0.284   0.550   1.228 -2.0609 -1.3215 -0.9045
  642SOL    HW2 1926   0.340   0.632   1.359  1.2585  2.8167 -1.9712
  643SOL     OW 1927   0.401   1.463   2.180 -0.0580  0.0636 -0.0347
  643SOL    HW1 1928   0.487   1.428   2.144  0.4756  1.3083 -2.5632
  643SOL    HW2 1929   0.409   1.563   2.200  2.1889  1.3845  0.8083
  644SOL     OW 1930   2.131   2.411   0.582  0.2305 -0.5547  0.3680
  644SOL    HW1 1931   2.104   2.342   0.514 -2.0959 -1.8020 -3.7133
  644SOL    HW2 1932   2.070   2.404   0.662 -1.1990  0.3704 -2.2782
  645SOL     OW 1933   2.176   2.263   1.178 -0.0804  0.0277  0.2414
  645SOL    HW1 1934   2.240   2.198   1.131 -0.5396  1.1409  1.5514
  645SOL    HW2 1935   2.081   2.242   1.153 -2.0726 -0.1956 -1.6364
  646SOL     OW 1936   0.923   2.317   2.850 -0.2211  0.1721 -0.6484
  646SOL    HW1 1937   0.869   2.236   2.887 -0.1071  1.9976  0.2858
  646SOL    HW2 1938   0.903   2.401   2.909 -0.4894 -2.2141 -0.3962
  647SOL     OW 1939   0.980   2.574   1.788  0.0753  0.0374  0.5685
  647SOL    HW1 1940   1.068   2.529   1.763  0.6927 -0.8983  0.0481
  647SOL    HW2 1941   0.993   2.625   1.874  0.8132 -1.8861  0.5828
  648SOL     OW 1942   1.419   0.297   1.122  0.7002 -0.2505 -0.7779
  648SOL    HW1 1943   1.468   0.208   1.147  0.5110  0.1848  0.0329
  648SOL    HW2 1944   1.469   0.380   1.157  2.9586 -1.9720  1.9586
  649SOL     OW 1945   1.468   2.066   0.162  0.2910 -0.4316  0.1022
  649SOL    HW1 1946   1.384   2.110   0.126 -2.4496  1.3181 -2.2616
  649SOL    HW2 1947   1.535   2.127   0.216  0.3384  0.1302  0.4220
  650SOL     OW 1948   2.342   1.519   1.468  0.3408  0.1228  0.2128
  650SOL    HW1 1949   2.308   1.606   1.504  0.7418  0.2289  2.2534
  650SOL    HW2 1950   2.289   1.497   1.386  0.9909  0.1616  0.1915
  651SOL     OW 1951   1.725   2.727   3.019 -0.5996  0.1275 -0.5028
  651SOL    HW1 1952   1.689   2.789   2.948  2.9710  2.5711  1.3452
  651SOL    HW2 1953   1.766   2.643   2.979  1.4287  0.2636 -0.3408
  652SOL     OW 1954   0.134   1.986   3.037  0.1507 -0.0471 -0.0805
  652SOL    HW1 1955   0.116   1.910   0.029 -0.2535 -0.6593 -0.2769
  652SOL    HW2 1956   0.231   2.006   3.016 -3.5246  0.1816 -1.3280
  653SOL     OW 1957   2.822   2.895   0.950 -0.4915  0.0758  0.2718
  653SOL    HW1 1958   2.896   2.842   0.909 -1.3865 -0.4983 -1.6870
  653SOL    HW2 1959   2.755   2.831   0.999 -0.0574 -0.1577  1.5712
  654SOL     OW 1960   2.763   2.942   1.947 -0.1048  0.1703 -0.0375
  654SOL    HW1 1961   2.865   2.951   1.939  0.1261  2.7888 -2.2016
  654SOL    HW2 1962   2.717   3.003   1.879 -0.4430  0.7388 -0.3201
  655SOL     OW 1963   0.095   2.018   0.945 -0.0810  0.3277 -0.7115
  655SOL    HW1 1964   0.086   1.958   1.029  0.5857 -1.4665 -1.4913
  655SOL    HW2 1965   0.185   1.994   0.900  0.2094 -2.6832 -1.6069
  656SOL     OW 1966   2.873   2.994   2.418 -0.0821 -0.1641  0.0469
  656SOL    HW1 1967   2.824   2.975   2.329  1.8959  0.6684  0.1827
  656SOL    HW2 1968   2.904   2.905   2.454 -2.6439 -0.2268 -1.7734
  657SOL     OW 1969   2.821   1.329   2.779 -0.3913  0.7876  0.5683
  657SOL    HW1 1970   2.878   1.268   2.719  2.3890  0.5552 -3.5523
  657SOL    HW2 1971   2.765   1.279   2.849  0.6491  0.2731 -1.7252
  658SOL     OW 1972   2.386   1.638   0.962  0.0183  0.1487  0.2937
  658SOL    HW1 1973   2.447   1.594   1.034  1.6773  0.3152  0.2348
  658SOL    HW2 1974   2.441   1.659   0.878  2.2562  2.3496 -2.6848
  659SOL     OW 1975   1.684   0.259   0.828  0.6910 -0.3471 -0.1368
  659SOL    HW1 1976   1.695   0.162   0.855  2.8105  1.0635 -2.8349
  659SOL    HW2 1977   1.585   0.266   0.791 -1.3357  0.6918 -2.7662
  660SOL     OW 1978   1.580   1.395   2.864 -0.0055 -0.1674  0.1766
  660SOL    HW1 1979   1.507   1.351   2.917  1.8192 -0.3210  1.5011
  660SOL    HW2 1980   1.617   1.484   2.895 -0.6147 -1.3066  0.1277
  661SOL     OW 1981   0.412   2.147   1.085 -0.3760  0.8512 -0.1966
  661SOL    HW1 1982   0.481   2.220   1.097 -4.4476 -0.0659  0.1034
  661SOL    HW2 1983   0.330   2.168   1.142  0.9266 -0.9030  1.0886
  662SOL     OW 1984   2.857   0.471   2.738 -0.4531  0.2537  0.0949
  662SOL    HW1 1985   2.821   0.567   2.742  0.9624 -1.0903  0.1399
  662SOL    HW2 1986   2.932   0.464   2.672 -3.1430 -0.9251  1.6960
  663SOL     OW 1987   1.927   1.739   1.028 -0.3824  0.0519  0.1435
  663SOL    HW1 1988   1.872   1.660   1.006  0.8925 -1.2120 -1.0346
  663SOL    HW2 1989   1.870   1.821   1.011 -0.3024 -1.5337 -2.3469
  664SOL     OW 1990   0.881   1.274   1.169 -0.4081  0.6188  0.2375
  664SOL    HW1 1991   0.871   1.187   1.221 -0.4523 -1.6893 -1.0679
  664SOL    HW2 1992   0.982   1.296   1.160 -0.4596 -2.1775 -1.3094
  665SOL     OW 1993   1.672   2.647   2.417  0.2263  0.5323  0.5545
  665SOL    HW1 1994   1.594   2.582   2.406  0.9776 -0.4964  0.2695
  665SOL    HW2 1995   1.704   2.694   2.332 -0.1237 -0.1717  2.0507
  666SOL     OW 1996   2.896   2.865   2.748  0.1641 -1.2395  0.3105
  666SOL    HW1 1997   2.890   2.876   2.850 -0.2508  2.1739  0.1472
  666SOL    HW2 1998   2.946   2.948   2.709  1.0002 -1.4935  0.5915
  667SOL     OW 1999   2.286   1.428   2.053  0.0333 -0.5125  0.0809
  667SOL    HW1 2000   2.357   1.395   1.991 -1.0892 -0.2698  0.5262
  667SOL    HW2 2001   2.266   1.519   2.022 -1.6796 -1.0032 -2.2551
  668SOL     OW 2002   0.298   1.124   2.566  0.1548  0.2756  0.2066
  668SOL    HW1 2003   0.312   1.178   2.651 -2.1788  1.1827 -1.2331
  668SOL    HW2 2004   0.248   1.172   2.490 -2.3843  2.1164 -3.2422
  669SOL     OW 2005   2.059   2.213   2.644  0.6362 -0.2133  0.2646
  669SOL    HW1 2006   2.066   2.172   2.553 -0.8762  1.2173  1.9557
  669SOL    HW2 2007   2.148   2.238   2.686  0.2611 -1.2596  1.0609
  670SOL     OW 2008   2.180   0.985   1.885  0.5476  0.2255  0.1821
  670SOL    HW1 2009   2.145   0.996   1.982  2.0170  2.9542  1.3561
  670SOL    HW2 2010   2.182   1.080   1.848 -0.2728 -1.5557 -2.0632
  671SOL     OW 2011   2.534   1.310   0.102  0.1144 -0.6322 -0.4915
  671SOL    HW1 2012   2.601   1.305   0.028 -0.9065  1.3485  0.9430
  671SOL    HW2 2013   2.475   1.392   0.101 -1.2582  0.4904 -1.9167
  672SOL     OW 2014   2.361   0.920   2.119 -0.0477 -1.1753  0.2328
  672SOL    HW1 2015   2.275   0.937   2.171  3.5650 -1.3423  1.1725
  672SOL    HW2 2016   2.362   0.981   2.038  2.1686  0.2498  2.6313
  673SOL     OW 2017   2.863   0.698   1.794  0.1848  0.0664 -0.5747
  673SOL    HW1 2018   2.817   0.734   1.877  0.7431  0.4088  2.1254
  673SOL    HW2 2019   2.947   0.645   1.820 -1.5693  2.1166  0.5207
  674SOL     OW 2020   1.913   1.820   1.448 -0.9663  0.5357  0.1042
  674SOL    HW1 2021   1.838   1.814   1.378  3.0456 -0.0992 -0.6626
  674SOL    HW2 2022   1.897   1.908   1.503 -0.9992 -0.6052 -1.0769
  675SOL     OW 2023   0.611   0.512   0.885  0.3047 -0.3359  0.4568
  675SOL    HW1 2024   0.582   0.509   0.986  0.9056  0.6735  3.5143
  675SOL    HW2 2025   0.706   0.479   0.871  1.4038  3.2163  0.6565
  676SOL     OW 2026   1.622   1.226   1.132 -0.3381  0.4361 -0.0595
  676SOL    HW1 2027   1.624   1.286   1.050  0.6809 -1.9186  1.0051
  676SOL    HW2 2028   1.543   1.247   1.194  1.6003  0.8352  3.8488
  677SOL     OW 2029   2.529   1.533   2.242  0.3075  0.2501 -0.6202
  677SOL    HW1 2030   2.458   1.501   2.176 -2.3528  0.2911 -1.6934
  677SOL    HW2 2031   2.515   1.633   2.254  1.8342  0.1259  2.1865
  678SOL     OW 2032   0.089   1.563   0.532 -0.3704 -0.4203 -0.0071
  678SOL    HW1 2033   0.100   1.463   0.548 -0.8670  0.9302 -0.0267
  678SOL    HW2 2034   3.077   1.589   0.490  0.8627  1.1872 -0.7354
  679SOL     OW 2035   2.579   2.504   0.411 -0.6194  0.2961 -0.2593
  679SOL    HW1 2036   2.502   2.540   0.464 -1.9843 -1.1569  0.0152
  679SOL    HW2 2037   2.648   2.578   0.388  1.1671 -1.7752  2.1739
  680SOL     OW 2038   2.669   2.097   1.750 -0.2584  0.9748  0.2848
  680SOL    HW1 2039   2.653   2.083   1.651  0.5194  0.6519  1.4874
  680SOL    HW2 2040   2.758   2.067   1.790  0.5121 -0.2499 -2.2983
  681SOL     OW 2041   0.403   1.289   1.258  1.0658  0.2637 -0.5794
  681SOL    HW1 2042   0.476   1.243   1.207 -0.9480  1.1921 -1.8272
  681SOL    HW2 2043   0.352   1.363   1.204 -0.7090  5.2297 -0.3848
  682SOL     OW 2044   1.711   2.444   0.734  0.1784 -0.7023 -0.5423
  682SOL    HW1 2045   1.686   2.514   0.801  2.5327  0.7567 -1.8626
  682SOL    HW2 2046   1.664   2.360   0.758  1.4274  2.0049 -1.0014
  683SOL     OW 2047   2.352   1.358   0.521  0.0069  0.3239 -0.2762
  683SOL    HW1 2048   2.393   1.371   0.609  2.6743 -1.2140 -2.6733
  683SOL    HW2 2049   2.427   1.322   0.456 -0.8201 -1.7794 -0.6007
  684SOL     OW 2050   0.831   2.170   1.849  0.1567  0.1293 -0.3713
  684SOL    HW1 2051   0.790   2.260   1.871  0.8981 -0.7603  1.2481
  684SOL    HW2 2052   0.763   2.119   1.790 -1.0356  0.3840  0.6759
  685SOL     OW 2053   1.940   1.416   3.078 -0.1988 -0.1019  0.4170
  685SOL    HW1 2054   1.991   1.355   0.058 -0.0918 -1.4508 -0.2528
  685SOL    HW2 2055   1.895   1.366   2.996 -0.8862 -0.3598 -1.2085
  686SOL     OW 2056   0.508   0.290   0.728 -0.4002  0.0084 -0.8200
  686SOL    HW1 2057   0.560   0.219   0.783  0.7818 -1.4630  1.1816
  686SOL    HW2 2058   0.550   0.382   0.731  1.0336  0.5536  0.0311
  687SOL     OW 2059   1.237   2.587   2.651 -0.2817  0.2630 -0.2423
  687SOL    HW1 2060   1.192   2.516   2.708  3.1854 -2.2871 -1.1940
  687SOL    HW2 2061   1.341   2.573   2.639 -1.6026 -1.4518  0.6367
  688SOL     OW 2062   2.307   1.746   1.707  0.3085  0.2870  0.1512
  688SOL    HW1 2063   2.388   1.724   1.755 -2.7816 -1.4095  0.3628
  688SOL    HW2 2064   2.296   1.847   1.684  0.6654  2.3707 -0.5792
  689SOL     OW 2065   2.331   0.647   2.060  0.1306  0.1621 -0.0138
  689SOL    HW1 2066   2.390   0.624   1.977  1.5014 -3.0787  2.2454
  689SOL    HW2 2067   2.341   0.753   2.076 -1.2883  1.5722 -0.1256
  690SOL     OW 2068   2.031   0.841   1.448  0.5792 -0.1018 -0.5232
  690SOL    HW1 2069   2.069   0.821   1.538  0.2444  1.8070 -0.5813
  690SOL    HW2 2070   2.079   0.920   1.408 -3.0178  0.8874 -0.6703
  691SOL     OW 2071   1.177   1.951   1.405  0.1928 -0.4692 -0.2432
  691SOL    HW1 2072   1.098   1.931   1.460 -2.3416  0.8550 -0.3696
  691SOL    HW2 2073   1.165   2.039   1.356  2.9121 -1.1033  1.2123
  692SOL     OW 2074   1.777   0.122   1.420  0.7446  0.0029 -0.5338
  692SOL    HW1 2075   1.698   0.158   1.478  3.1573  0.6041  0.3129
  692SOL    HW2 2076   1.859   0.169   1.440 -0.2830 -0.5153 -1.4108
  693SOL     OW 2077   0.576   1.096   2.616 -0.2966  0.3605 -0.1524
  693SOL    HW1 2078   0.631   1.011   2.617 -0.1336 -0.3006  2.6832
  693SOL    HW2 2079   0.476   1.086   2.616 -1.6758  0.5415 -0.9081
  694SOL     OW 2080   1.867   2.733   1.151  0.5098 -0.1119  0.1149
  694SOL    HW1 2081   1.896   2.681   1.065 -1.9412  2.1235 -0.4652
  694SOL    HW2 2082   1.922   2.708   1.233 -2.8395 -0.2069  1.9660
  695SOL     OW 2083   1.488   1.370   2.009 -1.3782  0.0938 -0.2681
  695SOL    HW1 2084   1.454   1.345   1.910 -1.2466 -0.6027 -3.9600
  695SOL    HW2 2085   1.502   1.472   2.019 -1.4100  3.6957  3.2609
  696SOL     OW 2086   1.618   0.404   1.291 -0.6971 -0.2752  0.0019
  696SOL    HW1 2087   1.704   0.359   1.261 -0.0104 -1.2333  2.9213
  696SOL    HW2 2088   1.581   0.339   1.360  0.1107  1.7032  0.7303
  697SOL     OW 2089   1.201   0.175   1.020 -0.5208 -0.1597 -0.0548
  697SOL    HW1 2090   1.215   0.099   1.088  1.2238  1.1929  0.2244
  697SOL    HW2 2091   1.270   0.246   1.040  0.0053 -1.4658 -2.8681
  698SOL     OW 2092   1.696   1.211   2.017 -0.3560 -0.1631  0.0752
  698SOL    HW1 2093   1.786   1.249   1.988  1.3604  1.6106 -1.4437
  698SOL    HW2 2094   1.627   1.283   2.032  1.9143 -1.9824  1.7569
  699SOL     OW 2095   1.459   1.198   1.361 -0.2359  0.0052  0.1591
  699SOL    HW1 2096   1.367   1.159   1.376 -1.1022  0.0541 -0.0904
  699SOL    HW2 2097   1.528   1.141   1.418  0.7834 -0.7304  1.2952
  700SOL     OW 2098   1.535   0.035   0.265  0.2089 -0.2758  0.3544
  700SOL    HW1 2099   1.590   0.101   0.210 -0.5525  0.8853  1.1066
  700SOL    HW2 2100   1.441   0.058   0.233 -2.0284 -1.1197 -0.5007
  701SOL     OW 2101   0.244   3.018   1.655  0.2391 -0.4043  0.4139
  701SOL    HW1 2102   0.312   0.010   1.667 -0.5282 -2.6515 -1.7513
  701SOL    HW2 2103   0.278   2.954   1.587 -4.0068 -0.2304  0.1814
  702SOL     OW 2104   1.377   2.850   0.180 -0.0748 -0.4077 -0.0280
  702SOL    HW1 2105   1.367   2.901   0.269 -1.9407  0.2102 -1.1549
  702SOL    HW2 2106   1.456   2.782   0.183 -0.4804 -1.6222  1.1471
  703SOL     OW 2107   2.435   0.362   2.058 -0.1893 -0.3914  0.0391
  703SOL    HW1 2108   2.435   0.426   2.137  0.7510 -0.3790 -0.0645
  703SOL    HW2 2109   2.382   0.279   2.086  0.7754 -2.2349  0.2902
  704SOL     OW 2110   1.286   2.149   1.020 -0.0804  0.4805  0.1416
  704SOL    HW1 2111   1.369   2.158   1.079  1.1001  1.7050 -1.6034
  704SOL    HW2 2112   1.204   2.134   1.075 -2.3915  1.8779 -3.7719
  705SOL     OW 2113   0.012   1.107   2.273  0.0319 -0.0067 -0.3187
  705SOL    HW1 2114   3.059   1.054   2.353 -1.2541  0.6975 -1.0588
  705SOL    HW2 2115   3.042   1.077   2.189  0.4473  3.1434  3.8943
  706SOL     OW 2116   1.453   0.279   0.698 -0.6679  0.1832 -0.2433
  706SOL    HW1 2117   1.355   0.278   0.726 -1.6606 -2.0729  2.1104
  706SOL    HW2 2118   1.474   0.339   0.618  2.0901 -0.0393  0.2828
  707SOL     OW 2119   1.137   2.171   2.341  0.3547  0.4490  0.0514
  707SOL    HW1 2120   1.052   2.149   2.395  0.3381 -1.8043  3.0489
  707SOL    HW2 2121   1.212   2.121   2.390  0.4056 -1.0354  1.0564
  708SOL     OW 2122   3.004   2.091   1.245 -0.2572  0.4020  0.1352
  708SOL    HW1 2123   2.948   2.026   1.185 -3.7242 -1.2001  1.6054
  708SOL    HW2 2124   2.965   2.089   1.339  0.8323 -2.1462  1.4595
  709SOL     OW 2125   1.758   0.503   1.742  0.0632  0.0805  0.0779
  709SOL    HW1 2126   1.765   0.448   1.826  0.8963  1.0938 -0.3569
  709SOL    HW2 2127   1.809   0.590   1.742 -2.6696  0.7063 -0.0485
  710SOL     OW 2128   2.978   0.161   1.273  0.6579 -0.0523 -1.0049
  710SOL    HW1 2129   2.905   0.093   1.268  1.1974 -0.0389  2.1758
  710SOL    HW2 2130   2.962   0.237   1.342  0.9917  2.4679 -2.0848
  711SOL     OW 2131   0.405   2.371   0.830 -0.2103 -0.2929  0.0157
  711SOL    HW1 2132   0.501   2.339   0.797 -0.6351  0.6885 -2.5126
  711SOL    HW2 2133   0.339   2.296   0.836  0.1449 -0.4397 -2.2264
  712SOL     OW 2134   0.167   2.263   2.487 -0.2158  0.0738 -0.5076
  712SOL    HW1 2135   0.246   2.199   2.468  2.0913  0.9683  0.9946
  712SOL    HW2 2136   0.104   2.272   2.412  2.2868 -0.9604  2.1302
  713SOL     OW 2137   1.690   0.649   0.133 -0.1582 -0.5025  0.3909
  713SOL    HW1 2138   1.629   0.627   0.213  1.7122  1.2288  2.5251
  713SOL    HW2 2139   1.634   0.660   0.050  0.8351  0.7819  1.5006
  714SOL     OW 2140   1.463   1.828   0.315  0.0922  0.0616 -0.2329
  714SOL    HW1 2141   1.473   1.903   0.246 -1.9588 -1.1068  2.1642
  714SOL    HW2 2142   1.369   1.834   0.355 -1.2359  0.3640  1.6289
  715SOL     OW 2143   2.513   0.163   0.591 -0.3856  0.2283 -0.0725
  715SOL    HW1 2144   2.586   0.226   0.620 -4.4369 -0.9274 -2.6088
  715SOL    HW2 2145   2.474   0.106   0.664 -3.6573 -0.1499 -0.8817
  716SOL     OW 2146   0.547   0.380   2.341 -0.2876 -0.4355 -0.0889
  716SOL    HW1 2147   0.612   0.333   2.405  1.2113 -0.4498 -0.0383
  716SOL    HW2 2148   0.456   0.414   2.381 -2.1521  2.2445  0.1158
  717SOL     OW 2149   0.181   0.221   2.784 -0.0603  0.0833  0.0669
  717SOL    HW1 2150   0.209   0.175   2.703 -0.5267  0.3262  2.6218
  717SOL    HW2 2151   0.085   0.192   2.802 -2.4936 -0.6949 -0.4739
  718SOL     OW 2152   0.967   0.599   0.486 -0.3231  0.0826 -0.6895
  718SOL    HW1 2153   1.065   0.609   0.460  1.7003  1.5528  1.2840
  718SOL    HW2 2154   0.931   0.505   0.468  1.4379  1.3738 -1.0659
  719SOL     OW 2155   2.490   2.058   2.898 -0.3697 -0.2719  0.0793
  719SOL    HW1 2156   2.416   2.017   2.955 -0.5094 -0.7448  1.1438
  719SOL    HW2 2157   2.536   1.984   2.846  1.4423  0.2933 -0.1613
  720SOL     OW 2158   1.142   0.912   1.206  0.2209  0.1355 -0.2120
  720SOL    HW1 2159   1.122   0.987   1.139  0.7906  0.4162  1.6292
  720SOL    HW2 2160   1.059   0.857   1.234 -1.3955 -1.4441 -0.1665
  721SOL     OW 2161   3.016   0.823   0.482 -0.2219 -0.9334  0.5723
  721SOL    HW1 2162   2.982   0.751   0.547  2.4169 -0.1179  1.3431
  721SOL    HW2 2163   0.015   0.876   0.521  0.6634  0.6664 -3.4234
  722SOL     OW 2164   0.987   1.990   2.591 -0.5088 -0.3407 -0.7255
  722SOL    HW1 2165   0.994   1.958   2.690 -0.5929 -3.4542  2.5876
  722SOL    HW2 2166   0.937   2.077   2.592  1.1912 -0.2190 -0.0507
  723SOL     OW 2167   0.494   0.743   0.473  0.2464  0.4883 -0.0350
  723SOL    HW1 2168   0.516   0.739   0.575  0.8497  0.3624  0.9187
  723SOL    HW2 2169   0.541   0.824   0.430 -0.1598  2.2826 -2.4255
  724SOL     OW 2170   0.988   1.857   1.577 -0.4805  0.0680 -0.3156
  724SOL    HW1 2171   0.948   1.803   1.502  3.0939  2.1732 -1.2920
  724SOL    HW2 2172   0.931   1.935   1.608  0.1751 -1.6902 -0.2486
  725SOL     OW 2173   0.179   0.906   1.378 -0.2791 -0.0270  0.5835
  725SOL    HW1 2174   0.259   0.965   1.393 -0.4445 -1.6398  2.3225
  725SOL    HW2 2175   0.200   0.815   1.422 -0.6656  0.2132 -0.6271
  726SOL     OW 2176   1.800   0.354   0.583  0.0243 -0.8699 -0.0358
  726SOL    HW1 2177   1.765   0.302   0.666 -0.4237  1.3762  4.1364
  726SOL    HW2 2178   1.846   0.440   0.610 -2.6387 -0.2265 -0.0572
  727SOL     OW 2179   1.497   0.974   2.305 -0.2595 -0.3484 -0.5582
  727SOL    HW1 2180   1.449   1.051   2.263 -0.3455  1.0483  2.7160
  727SOL    HW2 2181   1.439   0.888   2.308 -2.1217 -0.0743  3.4238
  728SOL     OW 2182   1.740   2.460   1.092 -0.0408  0.1671 -0.1397
  728SOL    HW1 2183   1.748   2.532   1.019  2.5015 -4.0336  1.6822
  728SOL    HW2 2184   1.678   2.501   1.156  3.1702  1.1649 -1.8433
  729SOL     OW 2185   1.273   0.567   1.372 -0.3640  0.3223 -0.0980
  729SOL    HW1 2186   1.194   0.532   1.316 -2.2274 -0.6557  0.2075
  729SOL    HW2 2187   1.310   0.488   1.426  2.6953 -3.6672  1.9424
  730SOL     OW 2188   0.666   2.019   1.681  0.5157 -0.0374 -0.0725
  730SOL    HW1 2189   0.572   2.051   1.698  1.5616 -0.4838 -1.7512
  730SOL    HW2 2190   0.721   2.061   1.604  1.1972  1.0451  0.7844
  731SOL     OW 2191   0.463   0.174   0.253  0.1105  0.1836  0.2562
  731SOL    HW1 2192   0.364   0.172   0.265  2.4270 -0.8551 -0.8715
  731SOL    HW2 2193   0.478   0.148   0.155 -3.0719 -1.2902  1.5070
  732SOL     OW 2194   0.633   0.473   3.002 -0.1288  0.2071 -0.4981
  732SOL    HW1 2195   0.615   0.425   2.914 -4.1741 -0.0577 -2.2485
  732SOL    HW2 2196   0.552   0.447   3.056 -0.6451  3.6475 -0.5512
  733SOL     OW 2197   1.459   1.982   1.438 -0.0044 -0.2395 -0.4236
  733SOL    HW1 2198   1.363   1.953   1.421 -0.7509 -0.0037  1.8866
  733SOL    HW2 2199   1.507   1.914   1.495  0.9238  0.8318  3.1127
  734SOL     OW 2200   2.950   2.753   2.509  0.3839 -0.5048 -0.2641
  734SOL    HW1 2201   2.906   2.665   2.493  1.4178  0.2261  0.2904
  734SOL    HW2 2202   2.937   2.783   2.604 -0.6242 -0.3467  0.7288
  735SOL     OW 2203   0.903   2.695   0.890 -0.2287  0.0142 -0.6550
  735SOL    HW1 2204   0.936   2.785   0.849  0.6682  1.4631 -0.8888
  735SOL    HW2 2205   0.862   2.637   0.816 -2.2040  0.4056 -0.5345
  736SOL     OW 2206   1.453   0.688   2.559  0.3051 -0.1764 -0.4756
  736SOL    HW1 2207   1.398   0.704   2.479  0.7786 -0.1168  1.4710
  736SOL    HW2 2208   1.444   0.769   2.625  2.8655 -1.7352  2.1439
  737SOL     OW 2209   2.973   0.695   0.222 -0.1066 -0.7740  0.3359
  737SOL    HW1 2210   3.062   0.647   0.208 -0.7654 -1.8934 -2.2927
  737SOL    HW2 2211   2.977   0.743   0.313 -1.5332 -0.7654 -0.1365
  738SOL     OW 2212   0.022   2.513   1.560 -0.3445  0.7610  0.8414
  738SOL    HW1 2213   3.026   2.450   1.583  0.2111 -1.8215 -0.1249
  738SOL    HW2 2214   0.009   2.573   1.475 -2.4135 -0.9948 -2.9473
  739SOL     OW 2215   1.628   2.958   0.733 -0.1871  0.1277  0.4490
  739SOL    HW1 2216   1.533   2.929   0.759 -0.9463  0.0214 -0.9042
  739SOL    HW2 2217   1.634   2.951   0.629 -0.0550  1.2611 -2.9753
  740SOL     OW 2218   1.529   2.878   1.191 -0.7468 -0.3425  0.3246
  740SOL    HW1 2219   1.632   2.890   1.193  3.0053  1.4717  1.6703
  740SOL    HW2 2220   1.500   2.812   1.264 -0.3131  2.8723  3.5929
  741SOL     OW 2221   1.977   0.566   0.976  0.4968 -0.0057  0.2203
  741SOL    HW1 2222   1.915   0.634   1.017 -0.6877  1.7328 -4.0846
  741SOL    HW2 2223   2.075   0.599   0.989  0.3653 -0.4345 -1.9020
  742SOL     OW 2224   1.512   2.086   2.128  0.6601 -0.9217  1.0527
  742SOL    HW1 2225   1.543   2.110   2.032  2.0172  0.7150 -2.9602
  742SOL    HW2 2226   1.409   2.092   2.124 -2.1417 -0.6771 -2.5133
  743SOL     OW 2227   2.330   0.397   1.815  0.3277 -0.4740 -0.3457
  743SOL    HW1 2228   2.244   0.455   1.822 -2.8515 -1.0056 -1.8140
  743SOL    HW2 2229   2.370   0.387   1.910  1.6697 -1.4526  1.0308
  744SOL     OW 2230   2.241   0.624   1.004 -0.7385  0.3842 -0.1548
  744SOL    HW1 2231   2.302   0.647   0.924  0.3572 -2.2141 -1.5219
  744SOL    HW2 2232   2.257   0.694   1.082 -0.1765  0.9660  1.1543
  745SOL     OW 2233   2.010   1.642   1.642  0.2626  0.7665 -0.2591
  745SOL    HW1 2234   1.984   1.699   1.563  0.3189 -0.7199  2.4888
  745SOL    HW2 2235   2.109   1.630   1.642  0.7929  1.1673 -0.9131
  746SOL     OW 2236   1.078   1.525   0.828 -0.8991  0.0880 -0.1734
  746SOL    HW1 2237   0.979   1.538   0.825 -0.4650  0.7460 -0.0917
  746SOL    HW2 2238   1.121   1.607   0.866  1.1882  0.3390 -0.6211
  747SOL     OW 2239   1.874   1.171   1.061 -0.3235 -0.5037 -0.3702
  747SOL    HW1 2240   1.796   1.194   1.121  2.6244 -0.6210  0.2023
  747SOL    HW2 2241   1.929   1.098   1.107 -1.6846  1.1693  2.4153
  748SOL     OW 2242   0.226   2.957   0.213  0.0212 -0.2771  0.0852
  748SOL    HW1 2243   0.239   3.026   0.287 -0.1034 -0.2901 -1.9419
  748SOL    HW2 2244   0.300   2.887   0.226 -0.8239 -0.2800  0.6674
  749SOL     OW 2245   0.273   0.403   2.356  0.1290 -0.0305  0.4031
  749SOL    HW1 2246   0.273   0.370   2.255  2.0070 -1.5070  0.7987
  749SOL    HW2 2247   0.232   0.495   2.373 -3.0220 -0.4053 -2.5848
  750SOL     OW 2248   1.828   2.954   1.503 -0.0566  0.5035  0.2453
  750SOL    HW1 2249   1.805   3.049   1.466 -2.2382  1.8946  0.4970
  750SOL    HW2 2250   1.764   2.927   1.579  0.7751 -0.1395  1.2594
  751SOL     OW 2251   2.804   0.328   0.438 -0.5150  0.1160  0.0209
  751SOL    HW1 2252   2.798   0.416   0.386 -0.2633  1.2022  1.1949
  751SOL    HW2 2253   2.756   0.337   0.528 -1.6025 -2.5463 -4.9461
  752SOL     OW 2254   0.204   2.882   1.081  0.3436 -0.2338 -0.1924
  752SOL    HW1 2255   0.193   2.781   1.081  3.3638 -1.9372 -2.7900
  752SOL    HW2 2256   0.107   2.929   1.078 -3.2117  3.0682  2.0853
  753SOL     OW 2257   0.944   0.116   1.648  0.2532  0.4127  0.2088
  753SOL    HW1 2258   1.037   0.096   1.693  2.8766 -0.3286  0.1357
  753SOL    HW2 2259   0.951   0.135   1.546  0.2904 -0.9315 -3.5266
  754SOL     OW 2260   0.997   2.701   2.061  0.6372  0.3284  0.8459
  754SOL    HW1 2261   1.044   2.666   2.141 -0.5651  0.6552 -0.1957
  754SOL    HW2 2262   0.894   2.727   2.075 -1.1315 -0.1581  1.0734
  755SOL     OW 2263   2.545   1.266   0.378  0.8810 -0.2707 -0.2490
  755SOL    HW1 2264   2.622   1.317   0.417  0.6620  1.1888 -0.0872
  755SOL    HW2 2265   2.527   1.289   0.279  2.0562 -1.7902  0.4891
  756SOL     OW 2266   1.804   1.842   2.653  0.4141  0.3857  0.2418
  756SOL    HW1 2267   1.740   1.890   2.717 -1.4552  2.6385  2.1013
  756SOL    HW2 2268   1.885   1.801   2.699 -0.5860  0.2990 -2.0827
  757SOL     OW 2269   2.047   0.009   0.810 -0.6909  0.3071 -0.0940
  757SOL    HW1 2270   1.969   0.042   0.870  0.0073  1.9017  2.5358
  757SOL    HW2 2271   2.014   3.073   0.716  1.7564 -0.3659  2.1392
  758SOL     OW 2272   1.193   2.520   0.747  0.1244  0.1118  0.6946
  758SOL    HW1 2273   1.149   2.467   0.820  1.3418  1.3485 -2.7648
  758SOL    HW2 2274   1.244   2.450   0.692  0.1592 -2.2817  0.1494
  759SOL     OW 2275   2.648   0.416   1.127  0.4948 -0.1861 -0.3162
  759SOL    HW1 2276   2.631   0.362   1.038 -1.7962  0.4328 -0.2557
  759SOL    HW2 2277   2.583   0.387   1.196  0.9860  0.8236  5.2655
  760SOL     OW 2278   2.192   1.099   1.382  0.4367  0.1136  0.0536
  760SOL    HW1 2279   2.239   1.121   1.296  1.1733 -0.3834 -1.4735
  760SOL    HW2 2280   2.247   1.127   1.460 -0.6134 -0.9411 -1.9326
  761SOL     OW 2281   0.546   0.752   0.735  0.2310  0.1654 -0.2991
  761SOL    HW1 2282   0.527   0.817   0.814  1.4033  0.9934  2.7433
  761SOL    HW2 2283   0.579   0.668   0.779  0.3348  1.7210  0.0072
  762SOL     OW 2284   2.091   1.760   1.277 -0.2125 -0.4924  0.7863
  762SOL    HW1 2285   2.042   1.750   1.186  0.6084 -2.3186 -4.5433
  762SOL    HW2 2286   2.022   1.804   1.341 -0.0044 -0.1833 -2.3673
  763SOL     OW 2287   1.199   1.484   1.635 -0.1522 -0.1728 -0.0317
  763SOL    HW1 2288   1.200   1.472   1.534 -2.8164  2.3628 -3.0628
  763SOL    HW2 2289   1.249   1.569   1.660  0.9477 -0.3783 -2.1336
  764SOL     OW 2290   0.171   1.862   2.125 -0.4664  0.5765  0.4616
  764SOL    HW1 2291   0.089   1.820   2.082  1.8663 -0.2859 -1.2757
  764SOL    HW2 2292   0.195   1.819   2.215 -0.2308 -1.2243  0.5330
  765SOL     OW 2293   1.558   2.372   1.412 -0.0699  0.6967 -0.4995
  765SOL    HW1 2294   1.577   2.311   1.494  0.2495 -1.2449  1.7756
  765SOL    HW2 2295   1.647   2.412   1.385 -0.6678 -0.5532 -0.5357
  766SOL     OW 2296   0.259   2.572   2.312  0.3556 -0.4209  0.4853
  766SOL    HW1 2297   0.205   2.610   2.394 -1.5765  0.5033  1.0343
  766SOL    HW2 2298   0.205   2.577   2.227  1.3279  1.0342  1.4607
  767SOL     OW 2299   1.325   0.766   2.318  0.1742 -0.0909 -0.1569
  767SOL    HW1 2300   1.331   0.694   2.245  0.3778 -1.4093 -0.7184
  767SOL    HW2 2301   1.234   0.803   2.327  1.6970 -1.1763  1.9595
  768SOL     OW 2302   1.345   2.452   2.979 -0.1306 -0.3537 -0.0467
  768SOL    HW1 2303   1.398   2.537   2.992 -1.3881  2.1053  2.4998
  768SOL    HW2 2304   1.320   2.413   3.072  0.8328  0.4568  2.2406
  769SOL     OW 2305   0.008   2.748   1.390  0.3514 -0.7489  0.7148
  769SOL    HW1 2306   3.048   2.785   1.301 -0.0616  1.7121 -3.6512
  769SOL    HW2 2307   0.097   2.698   1.369 -0.5284 -0.9356  0.3071
  770SOL     OW 2308   1.314   0.511   2.760 -0.5038  0.4518  0.1160
  770SOL    HW1 2309   1.357   0.570   2.696  0.5108  1.8439  1.2225
  770SOL    HW2 2310   1.230   0.559   2.789  0.9398  0.6141 -1.0112
  771SOL     OW 2311   0.204   0.175   2.500 -0.3090 -0.4333  0.3913
  771SOL    HW1 2312   0.114   0.136   2.470 -3.3170 -1.9095  2.0466
  771SOL    HW2 2313   0.228   0.257   2.444 -0.0292  1.3498 -0.3729
  772SOL     OW 2314   2.262   0.041   1.785  0.0663 -0.1315 -0.3187
  772SOL    HW1 2315   2.332   0.100   1.743  1.6020  1.5852  1.5760
  772SOL    HW2 2316   2.299   3.028   1.805  1.4553 -1.4343  0.7929
  773SOL     OW 2317   1.066   2.274   1.940  0.1669  0.6084  0.6174
  773SOL    HW1 2318   1.049   2.338   2.015  0.7186  0.3251 -1.4141
  773SOL    HW2 2319   0.981   2.222   1.919  3.3294 -1.1165 -0.4159
  774SOL     OW 2320   1.129   0.298   1.891  0.1035 -0.3710 -0.3564
  774SOL    HW1 2321   1.213   0.353   1.884  0.1534 -1.6433 -1.5530
  774SOL    HW2 2322   1.066   0.323   1.813  1.0080  1.0739 -5.4238
  775SOL     OW 2323   2.188   2.950   0.029 -0.6236 -0.0600 -0.2563
  775SOL    HW1 2324   2.113   2.930   0.094  1.0599  0.2266 -1.4438
  775SOL    HW2 2325   2.194   3.049   0.010 -0.7432 -0.7007  0.8136
  776SOL     OW 2326   1.967   0.549   2.175 -0.3740  0.3776 -0.2524
  776SOL    HW1 2327   1.915   0.624   2.227  1.2362  0.6010 -0.4285
  776SOL    HW2 2328   2.006   0.585   2.086  0.9786  1.2042 -0.5328
  777SOL     OW 2329   2.380   1.118   2.315  0.4796 -0.0840 -0.5760
  777SOL    HW1 2330   2.464   1.155   2.359 -0.5429 -1.7589  1.1964
  777SOL    HW2 2331   2.403   1.067   2.229 -3.1711 -1.4706  0.2308
  778SOL     OW 2332   1.893   0.803   2.273  0.1382 -0.3323 -0.0729
  778SOL    HW1 2333   1.817   0.855   2.230  0.8357  0.7028  0.3697
  778SOL    HW2 2334   1.889   0.807   2.377  0.8297 -0.6161 -0.7110
  779SOL     OW 2335   0.112   3.023   3.055 -0.3493  0.0314 -0.1891
  779SOL    HW1 2336   0.148   3.002   0.070  0.9288 -0.6417  1.5524
  779SOL    HW2 2337   0.064   0.037   3.043 -0.1154  1.9900 -1.4357
  780SOL     OW 2338   2.418   0.478   2.982  0.8097  0.2708 -0.7083
  780SOL    HW1 2339   2.384   0.404   2.926 -0.8795  2.7684 -0.0005
  780SOL    HW2 2340   2.349   0.553   3.001 -0.0965  0.5793  3.2005
  781SOL     OW 2341   0.364   2.838   1.480  0.5195  0.0462 -0.3604
  781SOL    HW1 2342   0.424   2.874   1.402 -1.1672 -1.4127 -0.1870
  781SOL    HW2 2343   0.307   2.756   1.451  0.6876 -0.3738 -1.0445
  782SOL     OW 2344   1.947   2.421   0.351 -0.2845  0.5461 -0.3363
  782SOL    HW1 2345   1.927   2.438   0.450 -0.6303 -0.2878  0.6769
  782SOL    HW2 2346   1.971   2.511   0.310 -0.4791 -1.4885  1.5969
  783SOL     OW 2347   0.756   1.498   1.732 -0.3940 -0.0300 -0.3051
  783SOL    HW1 2348   0.754   1.482   1.634 -1.0607 -0.4238 -1.7051
  783SOL    HW2 2349   0.662   1.501   1.759  0.7317  0.6772 -0.9620
  784SOL     OW 2350   1.365   0.518   2.134  0.5271 -0.3149  0.4782
  784SOL    HW1 2351   1.408   0.568   2.055  1.7923  1.7308 -0.3423
  784SOL    HW2 2352   1.347   0.418   2.116 -2.8329  0.0515  1.3480
  785SOL     OW 2353   2.558   0.308   0.919  0.0025 -0.2394 -0.1070
  785SOL    HW1 2354   2.472   0.349   0.957  0.3833 -1.0926  1.7068
  785SOL    HW2 2355   2.555   0.209   0.948  0.0061 -0.3896 -0.4339
  786SOL     OW 2356   1.434   2.693   1.374  0.7706 -0.2249  0.1768
  786SOL    HW1 2357   1.494   2.680   1.452 -2.5561  1.6488 -3.7141
  786SOL    HW2 2358   1.422   2.614   1.311  0.4804  0.5560  0.0477
  787SOL     OW 2359   1.515   0.084   1.242  0.3079 -0.0402 -0.1872
  787SOL    HW1 2360   1.529   3.075   1.198  1.7509 -1.3529  2.3139
  787SOL    HW2 2361   1.585   0.092   1.313  1.4749  0.1922 -2.1490
  788SOL     OW 2362   2.873   1.160   0.118  0.4320 -0.0468 -0.3315
  788SOL    HW1 2363   2.914   1.071   0.100 -1.3569  1.2449 -0.4100
  788SOL    HW2 2364   2.810   1.148   0.195 -1.5912 -1.1197  1.4031
  789SOL     OW 2365   0.493   1.733   1.747 -0.2067  0.1549 -0.0182
  789SOL    HW1 2366   0.462   1.798   1.815 -1.2967  0.8463  0.2687
  789SOL    HW2 2367   0.474   1.636   1.762 -1.5630  0.1324 -1.0121
  790SOL     OW 2368   0.153   0.625   2.482  0.0276  0.1023  0.6691
  790SOL    HW1 2369   0.170   0.694   2.556 -0.0104 -2.1676 -0.3101
  790SOL    HW2 2370   0.072   0.562   2.499 -2.8722 -0.9985 -1.5873
  791SOL     OW 2371   2.222   0.766   0.648 -0.5560 -0.1121 -0.6635
  791SOL    HW1 2372   2.142   0.712   0.627  2.9161 -0.1718  1.7837
  791SOL    HW2 2373   2.200   0.858   0.683  1.0679 -0.1316  0.4252
  792SOL     OW 2374   1.205   2.650   1.511  0.2100  0.0127 -0.5113
  792SOL    HW1 2375   1.211   2.571   1.575 -1.0239  0.6535  0.3281
  792SOL    HW2 2376   1.295   2.670   1.470 -0.3879  1.0731  1.0067
  793SOL     OW 2377   0.391   2.998   0.906 -0.2315  0.0119  0.2362
  793SOL    HW1 2378   0.322   2.951   0.968 -1.8848  0.0623  1.2608
  793SOL    HW2 2379   0.471   2.942   0.884 -2.5082 -2.3036 -2.5558
  794SOL     OW 2380   0.247   0.796   2.261  0.1281 -0.0876  0.7169
  794SOL    HW1 2381   0.232   0.800   2.360  1.6102 -2.4722  0.3216
  794SOL    HW2 2382   0.232   0.698   2.232 -1.1820 -0.8021 -2.1741
  795SOL     OW 2383   0.534   2.274   2.554 -0.1113 -0.3224 -0.3846
  795SOL    HW1 2384   0.566   2.185   2.533  0.7489  1.5280 -2.6729
  795SOL    HW2 2385   0.589   2.345   2.504 -2.4540  0.8745 -3.3952
  796SOL     OW 2386   2.180   0.495   2.409 -0.0407  0.5322  0.9965
  796SOL    HW1 2387   2.096   0.533   2.461  0.9877  1.6157 -2.5845
  796SOL    HW2 2388   2.146   0.432   2.330 -1.2278 -3.8159 -1.0642
  797SOL     OW 2389   2.320   2.589   2.487  0.0499 -0.4793  0.3262
  797SOL    HW1 2390   2.414   2.563   2.521  0.1772  0.9818  0.9373
  797SOL    HW2 2391   2.300   2.685   2.521 -1.8374  2.1711 -0.8881
  798SOL     OW 2392   0.222   0.319   2.091  0.1185 -0.0331 -0.1269
  798SOL    HW1 2393   0.293   0.301   2.018 -1.5993 -0.5676  2.5498
  798SOL    HW2 2394   0.142   0.253   2.091 -2.0582 -2.5147  1.1046
  799SOL     OW 2395   0.772   2.434   2.142 -0.5824 -0.6924 -0.3929
  799SOL    HW1 2396   0.877   2.420   2.166  1.8641  1.3151  0.2535
  799SOL    HW2 2397   0.762   2.513   2.074 -1.9625 -0.3644 -3.8480
  800SOL     OW 2398   3.075   2.258   0.267 -0.2703  0.1672 -0.2168
  800SOL    HW1 2399   0.041   2.175   0.313  1.5024  0.6445  0.6028
  800SOL    HW2 2400   0.015   2.338   0.327  1.0476  1.1780  0.8785
  801SOL     OW 2401   1.803   1.565   0.842  0.3237  0.4210  0.0740
  801SOL    HW1 2402   1.861   1.534   0.764 -1.2234 -0.3365 -0.7344
  801SOL    HW2 2403   1.764   1.657   0.823 -1.4429 -0.0025  0.9255
  802SOL     OW 2404   0.282   0.387   0.630 -0.7328 -0.3009  0.0323
  802SOL    HW1 2405   0.361   0.340   0.665  1.1055  0.0377  0.1111
  802SOL    HW2 2406   0.198   0.332   0.648 -0.5407  2.2267 -2.6661
  803SOL     OW 2407   1.430   1.344   1.741 -0.2394  0.0839 -0.3719
  803SOL    HW1 2408   1.503   1.400   1.701  1.1530 -1.7144 -0.2614
  803SOL    HW2 2409   1.337   1.383   1.725  0.3457 -2.2210 -0.0678
  804SOL     OW 2410   1.843   2.064   0.833  0.1984 -0.3558  0.2018
  804SOL    HW1 2411   1.934   2.052   0.791  0.3491  1.2274 -0.8134
  804SOL    HW2 2412   1.783   1.986   0.807  0.1176  1.4902 -2.2725
  805SOL     OW 2413   0.080   1.958   2.714 -0.3846 -0.1715  0.1287
  805SOL    HW1 2414   0.074   1.945   2.613 -0.5848 -1.0350 -2.4851
  805SOL    HW2 2415   0.141   2.038   2.740  1.7355 -0.8482  0.3176
  806SOL     OW 2416   0.594   2.444   0.400 -0.6990 -0.3877 -0.0374
  806SOL    HW1 2417   0.608   2.352   0.445 -2.1655  0.2639  1.7997
  806SOL    HW2 2418   0.617   2.521   0.466 -0.0203  0.6585  3.4197
  807SOL     OW 2419   2.075   1.523   2.688 -0.0416  0.2905  0.1118
  807SOL    HW1 2420   2.179   1.527   2.689 -0.1239 -0.6902 -1.3719
  807SOL    HW2 2421   2.028   1.583   2.757  0.2168 -0.6662  1.8969
  808SOL     OW 2422   1.479   2.172   1.218 -0.3955  0.1619 -0.5802
  808SOL    HW1 2423   1.486   2.109   1.300  0.7963 -1.6789 -1.0395
  808SOL    HW2 2424   1.490   2.268   1.245  0.9014  1.2048  0.7464
  809SOL     OW 2425   0.166   0.607   0.190 -0.4416  0.0798  0.0111
  809SOL    HW1 2426   0.231   0.596   0.268 -0.2675 -4.3029 -1.2856
  809SOL    HW2 2427   0.218   0.649   0.116  0.9475  1.1678  1.3104
  810SOL     OW 2428   1.305   1.636   0.006 -0.4299 -0.6201  0.1661
  810SOL    HW1 2429   1.231   1.576   0.043 -1.3127  2.0661 -1.3882
  810SOL    HW2 2430   1.390   1.608   0.056  0.9843 -2.0699 -1.5748
  811SOL     OW 2431   1.968   2.374   0.798 -0.7285 -0.4437  0.2237
  811SOL    HW1 2432   2.000   2.317   0.876 -0.6475  0.8197 -1.7609
  811SOL    HW2 2433   1.867   2.361   0.784 -3.5320 -0.3209  0.3157
  812SOL     OW 2434   1.293   2.947   1.068 -0.6352 -0.1114  0.0249
  812SOL    HW1 2435   1.389   2.922   1.098  2.7115 -0.3006  0.8687
  812SOL    HW2 2436   1.230   2.968   1.147 -3.0967  0.1972 -1.0707
  813SOL     OW 2437   0.578   2.993   1.746  0.4352  0.0064  0.2925
  813SOL    HW1 2438   0.652   3.047   1.785 -2.0241  1.4749  1.9212
  813SOL    HW2 2439   0.536   2.938   1.815  4.8117  2.5182 -1.9536
  814SOL     OW 2440   1.041   2.409   2.234 -0.0961 -0.1478  0.2784
  814SOL    HW1 2441   1.074   2.320   2.271  3.6168 -3.0430  1.2102
  814SOL    HW2 2442   1.064   2.476   2.303 -1.0582 -1.9098 -0.7751
  815SOL     OW 2443   0.498   0.098   2.611 -0.0097 -0.1995 -0.0635
  815SOL    HW1 2444   0.519   0.043   2.692 -1.7321  1.7094 -1.2636
  815SOL    HW2 2445   0.403   0.110   2.594 -1.7040 -0.5135  0.8665
  816SOL     OW 2446   2.056   0.767   0.135 -0.0088  0.1874 -0.0497
  816SOL    HW1 2447   2.009   0.749   0.226  1.3744  1.0927  2.3187
  816SOL    HW2 2448   1.990   0.778   0.059  3.3563  0.7656 -0.2346
  817SOL     OW 2449   2.909   2.561   2.284 -0.3841 -0.3705  0.0598
  817SOL    HW1 2450   2.834   2.622   2.250 -0.5924  2.0694 -0.2906
  817SOL    HW2 2451   2.893   2.526   2.376 -1.4059 -2.1981  1.0191
  818SOL     OW 2452   0.943   1.204   0.430 -0.1608 -0.6273 -0.8365
  818SOL    HW1 2453   0.995   1.231   0.515 -0.3423  1.5322  0.8950
  818SOL    HW2 2454   0.839   1.183   0.452  0.4159 -1.2399 -0.2353
  819SOL     OW 2455   1.541   1.167   2.727 -0.2427 -0.4236 -0.5660
  819SOL    HW1 2456   1.605   1.155   2.648 -0.6549 -3.7454  0.6353
  819SOL    HW2 2457   1.568   1.247   2.790 -1.1855 -1.5528 -1.8361
  820SOL     OW 2458   0.532   1.523   0.029  0.4210 -0.3674  0.1074
  820SOL    HW1 2459   0.462   1.588   3.073 -0.7030 -2.1499 -2.1442
  820SOL    HW2 2460   0.555   1.537   0.130  0.6089  0.3820  0.8551
  821SOL     OW 2461   0.588   2.823   0.842  0.0581 -0.3105 -0.1162
  821SOL    HW1 2462   0.654   2.802   0.769 -0.4112 -0.0990 -0.8644
  821SOL    HW2 2463   0.538   2.740   0.870  1.7494 -0.5211  0.1258
  822SOL     OW 2464   2.342   2.565   2.914  0.8672  0.0993  0.1187
  822SOL    HW1 2465   2.395   2.491   2.952 -1.3704  1.4409 -1.3982
  822SOL    HW2 2466   2.397   2.653   2.920 -0.5452 -0.7407 -1.7879
  823SOL     OW 2467   1.095   0.190   2.535 -0.2049  0.3469 -0.1314
  823SOL    HW1 2468   1.193   0.207   2.500  1.0455  0.0020  0.9843
  823SOL    HW2 2469   1.042   0.128   2.474  0.0951 -2.9512 -0.4447
  824SOL     OW 2470   2.769   2.559   1.799  0.0394  0.4968  0.2552
  824SOL    HW1 2471   2.798   2.638   1.744  1.6589  0.8945  1.4541
  824SOL    HW2 2472   2.741   2.589   1.893  1.1241 -4.0634 -2.1730
  825SOL     OW 2473   0.053   2.453   2.646 -0.7042 -0.8050  0.1460
  825SOL    HW1 2474   0.088   2.543   2.602 -1.0818  0.9797 -0.5975
  825SOL    HW2 2475   0.102   2.377   2.603  1.9875  2.9510  1.5972
  826SOL     OW 2476   1.684   0.435   2.901 -0.2857  0.5893 -0.1674
  826SOL    HW1 2477   1.729   0.393   2.978 -0.8057  1.0595 -1.1873
  826SOL    HW2 2478   1.711   0.394   2.812 -1.3009  0.1902 -2.2483
  827SOL     OW 2479   2.927   1.753   1.771  0.0100 -0.0266  0.3852
  827SOL    HW1 2480   2.934   1.846   1.810 -2.8089 -0.8260 -0.0812
  827SOL    HW2 2481   2.847   1.699   1.812  0.1366  0.7656  0.8214
  828SOL     OW 2482   0.073   0.091   1.086  0.3252  0.4480  0.3226
  828SOL    HW1 2483   0.157   0.150   1.074  0.9278  0.1914  1.5892
  828SOL    HW2 2484   0.005   0.128   1.152 -0.6380 -0.6812 -1.8698
  829SOL     OW 2485   0.834   2.146   2.311  0.2454  0.0637 -0.3931
  829SOL    HW1 2486   0.836   2.146   2.412  0.5153 -2.1131  0.5324
  829SOL    HW2 2487   0.748   2.189   2.276 -0.3411  2.9315 -3.4934
  830SOL     OW 2488   0.520   0.727   1.582  0.3668  0.3656 -0.2231
  830SOL    HW1 2489   0.539   0.762   1.676 -0.4753  1.1374  0.9662
  830SOL    HW2 2490   0.551   0.632   1.575  1.2210 -0.2997 -1.5288
  831SOL     OW 2491   2.522   1.758   2.778  0.0473 -0.5380  0.7956
  831SOL    HW1 2492   2.600   1.766   2.711 -0.4073 -0.4042  2.7842
  831SOL    HW2 2493   2.551   1.749   2.874  0.2318 -0.5735  0.1778
  832SOL     OW 2494   1.867   2.478   2.940  0.4652 -0.0976 -0.5771
  832SOL    HW1 2495   1.851   2.382   2.906 -1.3079  1.0262 -1.0642
  832SOL    HW2 2496   1.924   2.539   2.877  1.0506 -0.3363 -1.7127
  833SOL     OW 2497   0.413   0.264   1.896 -0.0548  0.3311  0.4078
  833SOL    HW1 2498   0.404   0.202   1.812  0.3577 -1.6010 -0.7430
  833SOL    HW2 2499   0.494   0.244   1.957 -0.6123 -0.7138  0.4509
  834SOL     OW 2500   0.123   0.523   1.184  0.0631  0.2014  0.2507
  834SOL    HW1 2501   0.151   0.502   1.091 -1.9686  1.0804  1.8343
  834SOL    HW2 2502   0.021   0.519   1.193  1.6696 -0.0467 -0.9673
  835SOL     OW 2503   2.592   0.634   0.450  0.1932  0.2144 -0.2605
  835SOL    HW1 2504   2.491   0.629   0.423 -0.0817  2.2888 -0.7268
  835SOL    HW2 2505   2.650   0.614   0.368  0.1043  1.3927  1.1605
  836SOL     OW 2506   1.054   2.109   0.410 -0.2570  0.6720 -0.1120
  836SOL    HW1 2507   1.132   2.061   0.455  0.2978 -2.3399  3.1482
  836SOL    HW2 2508   1.057   2.203   0.453 -0.8469 -1.7576 -0.7657
  837SOL     OW 2509   1.934   1.801   0.427 -0.2580  0.4171 -0.5968
  837SOL    HW1 2510   1.935   1.702   0.437 -0.1970  1.2332  0.2065
  837SOL    HW2 2511   2.014   1.837   0.476  1.9360  0.9157  2.5098
  838SOL     OW 2512   1.727   0.958   2.136 -0.3435  0.1573  0.3090
  838SOL    HW1 2513   1.723   1.036   2.069  0.4024 -0.6553  1.9672
  838SOL    HW2 2514   1.649   0.960   2.208 -2.3820  0.3184 -0.4370
  839SOL     OW 2515   0.887   1.437   2.539 -0.8402 -0.1650  0.3336
  839SOL    HW1 2516   0.844   1.396   2.620  2.3483  3.2194  1.4247
  839SOL    HW2 2517   0.914   1.359   2.475 -0.0772  0.5834  0.0797
  840SOL     OW 2518   0.909   1.400   0.253  0.0566  0.0595  0.0112
  840SOL    HW1 2519   0.930   1.335   0.329 -1.1006  0.1292  0.1054
  840SOL    HW2 2520   0.860   1.347   0.182  1.3789 -0.0905 -0.7424
  841SOL     OW 2521   1.625   2.253   0.292 -0.3481  0.3488 -0.1959
  841SOL    HW1 2522   1.683   2.225   0.370  0.2271  1.9375  1.8574
  841SOL    HW2 2523   1.684   2.278   0.209 -1.9612 -0.5074  2.4078
  842SOL     OW 2524   0.373   0.735   0.017 -0.3589  0.2110 -0.2487
  842SOL    HW1 2525   0.453   0.784   3.058  0.7034  0.6555 -0.2734
  842SOL    HW2 2526   0.384   0.638   0.037 -1.8220  0.6264 -1.1401
  843SOL     OW 2527   0.654   0.224   1.104  0.3114  0.3817  0.4700
  843SOL    HW1 2528   0.556   0.198   1.116 -2.2230 -2.0821 -3.5863
  843SOL    HW2 2529   0.689   0.181   1.021  1.2702  2.3654 -0.6273
  844SOL     OW 2530   1.793   2.742   2.151  0.4825 -0.4527 -0.4378
  844SOL    HW1 2531   1.885   2.727   2.186 -2.6903 -0.8779  0.0540
  844SOL    HW2 2532   1.780   2.843   2.147  1.7188  0.9839  4.3323
  845SOL     OW 2533   0.161   2.627   1.762 -0.3483 -0.6254 -0.2881
  845SOL    HW1 2534   0.172   2.543   1.822  0.0428  0.2325  1.2235
  845SOL    HW2 2535   0.115   2.597   1.678  0.4395 -1.3000  2.0150
  846SOL     OW 2536   1.742   1.333   2.404 -0.1688 -0.3032  0.1408
  846SOL    HW1 2537   1.649   1.379   2.390 -1.9794  2.7829 -2.0164
  846SOL    HW2 2538   1.808   1.374   2.335 -0.3413  0.0796  1.2075
  847SOL     OW 2539   0.174   0.588   2.084  0.2139 -0.3047 -0.0154
  847SOL    HW1 2540   0.200   0.492   2.089 -0.5847  0.7614 -0.5814
  847SOL    HW2 2541   0.236   0.634   2.012  5.7960  0.8145 -1.1657
  848SOL     OW 2542   2.515   2.785   2.920  0.6553  0.2809 -0.0978
  848SOL    HW1 2543   2.587   2.782   2.993  0.0982  1.2778  1.3842
  848SOL    HW2 2544   2.557   2.773   2.830 -0.2593 -0.5944  1.3387
  849SOL     OW 2545   0.355   2.771   0.519  0.1375  0.1821 -0.0239
  849SOL    HW1 2546   0.430   2.779   0.586  0.1279  2.3036  1.0336
  849SOL    HW2 2547   0.271   2.801   0.558  0.7946 -2.5494 -1.0785
  850SOL     OW 2548   0.927   2.234   0.750  0.0321  0.3658  0.4006
  850SOL    HW1 2549   1.006   2.262   0.808 -3.0474  0.5016 -2.0314
  850SOL    HW2 2550   0.922   2.132   0.746 -0.5327 -0.5807 -2.9588
  851SOL     OW 2551   1.782   0.311   2.669 -0.5649  0.0669  0.2698
  851SOL    HW1 2552   1.779   0.363   2.586 -2.0853 -2.4306  5.4440
  851SOL    HW2 2553   1.875   0.317   2.717 -3.5778  0.0505 -3.2524
  852SOL     OW 2554   1.773   2.804   2.612 -0.0341  0.5051  0.5055
  852SOL    HW1 2555   1.721   2.754   2.538  0.6776 -2.2849  0.8897
  852SOL    HW2 2556   1.711   2.822   2.689  0.8452 -0.2780  1.1841
  853SOL     OW 2557   2.761   2.695   0.375  0.0856 -0.3244  0.9588
  853SOL    HW1 2558   2.841   2.636   0.356 -0.3728 -0.9237  0.8930
  853SOL    HW2 2559   2.756   2.780   0.320 -0.3654  1.4989 -0.4011
  854SOL     OW 2560   1.503   0.429   2.491 -0.3457 -0.2606  0.0455
  854SOL    HW1 2561   1.597   0.416   2.458 -3.1108 -0.2276  1.4885
  854SOL    HW2 2562   1.484   0.516   2.542 -3.9261  0.8386 -1.2044
  855SOL     OW 2563   0.296   2.472   0.571 -0.1165  0.2204 -0.2230
  855SOL    HW1 2564   0.334   2.441   0.662  0.0438 -0.1584  1.7651
  855SOL    HW2 2565   0.336   2.563   0.542 -2.0070  2.3499  2.0767
  856SOL     OW 2566   0.392   2.859   2.574 -0.2934  0.0215 -0.2027
  856SOL    HW1 2567   0.462   2.792   2.614  1.3183 -3.1046  1.4420
  856SOL    HW2 2568   0.365   2.930   2.641  0.9434 -2.9050 -2.1165
  857SOL     OW 2569   1.132   2.898   1.527 -0.3626 -0.2276 -0.1172
  857SOL    HW1 2570   1.161   2.803   1.518  1.6462  2.0510  0.8602
  857SOL    HW2 2571   1.032   2.908   1.539  1.0427  2.4787 -3.7862
  858SOL     OW 2572   2.793   1.827   1.545 -0.5366  0.3605 -0.1786
  858SOL    HW1 2573   2.852   1.786   1.623  1.0779  0.8488  0.5909
  858SOL    HW2 2574   2.698   1.793   1.551 -2.7670 -0.4714 -0.2667
  859SOL     OW 2575   2.163   2.230   2.129 -0.4131 -1.0009 -0.2301
  859SOL    HW1 2576   2.070   2.226   2.170  2.2620 -1.7350 -2.9060
  859SOL    HW2 2577   2.194   2.135   2.100 -0.3158  0.2331 -2.6933
  860SOL     OW 2578   1.313   0.307   0.405 -0.2099  0.1860 -0.0518
  860SOL    HW1 2579   1.413   0.323   0.433  5.1395  0.8523  2.7833
  860SOL    HW2 2580   1.301   0.232   0.338  0.6308  0.3911  4.1236
  861SOL     OW 2581   2.906   0.836   0.770  0.4261  0.1476  0.3703
  861SOL    HW1 2582   2.819   0.776   0.770 -1.5578 -2.2663 -0.7067
  861SOL    HW2 2583   2.995   0.782   0.781 -0.4994 -2.8623 -0.5996
  862SOL     OW 2584   1.222   0.429   2.375  0.2962 -0.0041  0.2535
  862SOL    HW1 2585   1.315   0.449   2.416  5.4961 -1.2700  0.6861
  862SOL    HW2 2586   1.224   0.367   2.291 -3.0826 -4.4794  1.0631
  863SOL     OW 2587   0.587   0.495   1.166  0.5639 -0.0858  0.5333
  863SOL    HW1 2588   0.575   0.394   1.163  1.8100  2.4130 -0.8033
  863SOL    HW2 2589   0.515   0.537   1.221 -0.5874 -2.4548 -0.4876
  864SOL     OW 2590   3.027   2.893   1.882 -0.1288 -0.2781 -0.3064
  864SOL    HW1 2591   0.005   2.864   1.963 -2.2771  1.5337  0.3310
  864SOL    HW2 2592   3.041   2.992   1.859  0.9211  0.8696  0.3402
  865SOL     OW 2593   0.748   1.314   2.726  0.1130  0.0832  0.1244
  865SOL    HW1 2594   0.700   1.388   2.781 -0.0339  2.1131 -1.0680
  865SOL    HW2 2595   0.678   1.250   2.693  0.0678 -1.5574  1.2109
  866SOL     OW 2596   3.037   2.878   0.226 -0.0484  1.0400 -0.0069
  866SOL    HW1 2597   0.055   2.906   0.234  3.2210  0.9047  0.0174
  866SOL    HW2 2598   3.032   2.770   0.226  1.6690 -1.2502 -1.0546
  867SOL     OW 2599   2.963   2.855   3.015  0.1136  0.0100 -0.3671
  867SOL    HW1 2600   2.947   2.755   3.001 -2.4728 -3.6414  0.1316
  867SOL    HW2 2601   3.059   2.873   3.039  0.4931 -1.1652 -0.8290
  868SOL     OW 2602   1.457   0.881   2.756  0.2620 -0.7620 -0.2926
  868SOL    HW1 2603   1.501   0.974   2.738  2.4111  3.4204 -0.3258
  868SOL    HW2 2604   1.374   0.880   2.816  2.8777 -1.0124 -0.2711
  869SOL     OW 2605   0.276   1.779   0.571  0.2126 -0.3294  0.3642
  869SOL    HW1 2606   0.353   1.764   0.635 -2.6948 -0.3382  0.1995
  869SOL    HW2 2607   0.213   1.699   0.566 -2.5447 -1.2807 -0.0243
  870SOL     OW 2608   2.231   1.877   0.413 -0.0152  0.1972  0.0791
  870SOL    HW1 2609   2.284   1.970   0.425  0.5267  1.1914  0.7486
  870SOL    HW2 2610   2.202   1.868   0.316  1.9170 -0.4181 -1.2364
  871SOL     OW 2611   0.597   1.185   1.095  0.0662 -0.3740  0.0342
  871SOL    HW1 2612   0.545   1.098   1.083 -0.3156  0.1908  0.1590
  871SOL    HW2 2613   0.699   1.162   1.087  2.4042 -0.1153 -0.0043
  872SOL     OW 2614   1.390   1.693   1.708  0.2332 -0.2853 -0.5406
  872SOL    HW1 2615   1.338   1.778   1.717 -0.7593  1.2951  0.0521
  872SOL    HW2 2616   1.431   1.660   1.798  0.5498 -0.9697  0.5661
  873SOL     OW 2617   0.900   2.012   2.083 -0.1637 -0.0631 -0.3609
  873SOL    HW1 2618   0.893   2.058   2.177  0.9440  2.0628  1.1371
  873SOL    HW2 2619   0.866   2.073   2.011  0.5894 -4.2515 -0.3716
  874SOL     OW 2620   1.053   2.636   1.288 -0.0635  0.2310 -0.3588
  874SOL    HW1 2621   1.115   2.635   1.365  1.8824  1.4273 -2.2282
  874SOL    HW2 2622   1.105   2.674   1.211  0.4008 -0.6354 -5.3315
  875SOL     OW 2623   2.965   0.369   0.894  0.9576  0.7913  0.4160
  875SOL    HW1 2624   2.963   0.267   0.900 -2.1010  1.1428  0.4099
  875SOL    HW2 2625   2.882   0.401   0.846 -1.4673 -0.8812 -0.9973
  876SOL     OW 2626   0.616   0.597   0.247 -0.1582 -0.1247  0.5073
  876SOL    HW1 2627   0.604   0.634   0.343  3.6802  0.4703  0.2988
  876SOL    HW2 2628   0.702   0.633   0.212 -0.6994 -0.2911  0.7544
  877SOL     OW 2629   2.927   0.800   1.047 -0.4454  0.6605 -0.0974
  877SOL    HW1 2630   2.913   0.851   0.960  1.3013  1.8141  1.2724
  877SOL    HW2 2631   2.899   0.702   1.046 -0.1695 -1.3592  3.1988
  878SOL     OW 2632   2.576   2.074   0.642  0.2238 -0.4964 -0.5618
  878SOL    HW1 2633   2.629   1.992   0.669  1.0364  0.8845 -1.6698
  878SOL    HW2 2634   2.568   2.139   0.720 -1.1470 -2.2914 -0.1468
  879SOL     OW 2635   2.470   1.443   1.127  0.8161  0.0835  0.0599
  879SOL    HW1 2636   2.374   1.451   1.158 -1.2655 -0.4565 -1.4796
  879SOL    HW2 2637   2.479   1.342   1.106  1.1038 -0.3340  1.3212
  880SOL     OW 2638   1.567   2.626   0.930 -0.0504  0.0518 -0.3195
  880SOL    HW1 2639   1.517   2.681   0.862  2.4898 -1.5125  1.6055
  880SOL    HW2 2640   1.504   2.598   1.005 -0.5433 -0.7016 -1.4853
  881SOL     OW 2641   1.012   2.277   0.191 -0.7216  0.6919  0.0328
  881SOL    HW1 2642   1.022   2.232   0.284  0.1712 -0.6542  2.7071
  881SOL    HW2 2643   0.934   2.339   0.183  3.3982 -0.7749  1.7180
  882SOL     OW 2644   1.396   0.832   1.199 -0.5493 -0.0945  0.0480
  882SOL    HW1 2645   1.297   0.860   1.195  0.9032 -1.7166  0.9325
  882SOL    HW2 2646   1.429   0.826   1.295  0.2394 -0.3351  1.3208
  883SOL     OW 2647   1.189   0.300   2.150  0.6811 -0.5862 -0.1229
  883SOL    HW1 2648   1.139   0.301   2.057 -1.1327 -0.4481 -3.2354
  883SOL    HW2 2649   1.208   0.204   2.186 -1.3223 -1.1579  1.2675
  884SOL     OW 2650   2.432   0.695   0.165 -0.0971  0.0907  0.0146
  884SOL    HW1 2651   2.414   0.770   0.227  1.3168 -2.6327  0.2484
  884SOL    HW2 2652   2.517   0.641   0.175  1.2690 -0.4484 -2.3449
  885SOL     OW 2653   1.205   1.373   0.099  0.1283  0.1602  0.2385
  885SOL    HW1 2654   1.132   1.339   0.029 -1.3892 -2.6974 -0.0938
  885SOL    HW2 2655   1.168   1.372   0.193  2.5543  1.4926 -0.8407
  886SOL     OW 2656   1.429   1.433   2.587  0.5506  0.6744  0.0536
  886SOL    HW1 2657   1.466   1.456   2.496 -0.2387 -0.7274 -1.4995
  886SOL    HW2 2658   1.504   1.408   2.654  2.4024 -0.4511  2.1913
  887SOL     OW 2659   1.331   0.304   1.550  0.0007  0.0309 -0.4590
  887SOL    HW1 2660   1.265   0.231   1.522  0.6314  0.1668 -0.2954
  887SOL    HW2 2661   1.311   0.336   1.645  1.0224  1.1368 -0.1609
  888SOL     OW 2662   2.551   0.639   1.908  0.1132  0.6872  0.4726
  888SOL    HW1 2663   2.625   0.571   1.895 -0.5030  1.3139  2.3100
  888SOL    HW2 2664   2.584   0.707   1.973 -1.2589 -1.9342 -0.4333
  889SOL     OW 2665   0.234   2.614   1.096  0.2765 -0.6374 -0.1729
  889SOL    HW1 2666   0.167   2.549   1.054 -1.8173 -1.0230  0.9042
  889SOL    HW2 2667   0.317   2.605   1.037 -0.5226 -0.8023  1.8603
  890SOL     OW 2668   2.802   2.186   0.239  0.3872  0.3697 -0.5743
  890SOL    HW1 2669   2.759   2.183   0.332  1.6134  0.7955  1.2722
  890SOL    HW2 2670   2.904   2.193   0.241  2.0499  0.3501  0.9653
  891SOL     OW 2671   0.904   1.648   2.863  0.3413 -0.2307  0.4129
  891SOL    HW1 2672   0.975   1.580   2.836  2.7120  0.2689  1.6434
  891SOL    HW2 2673   0.905   1.654   2.968  0.2244 -2.1449  0.4080
  892SOL     OW 2674   2.955   0.086   0.883 -0.2120 -0.3080  0.1458
  892SOL    HW1 2675   3.021   0.069   0.959 -0.1962 -2.1084  1.4511
  892SOL    HW2 2676   2.863   0.047   0.911 -1.6528  2.9204  0.3850
  893SOL     OW 2677   1.071   3.066   1.259 -0.1057  0.5859  0.2424
  893SOL    HW1 2678   1.043   2.993   1.326 -0.4677 -0.2414  1.0197
  893SOL    HW2 2679   1.025   3.040   1.171  0.4008 -1.4051  1.4360
  894SOL     OW 2680   2.691   0.687   0.718  0.4804 -0.1086 -0.0103
  894SOL    HW1 2681   2.600   0.692   0.768 -0.6909 -1.7524  1.4459
  894SOL    HW2 2682   2.684   0.668   0.614  0.4101  1.3740 -3.0305
  895SOL     OW 2683   2.366   2.401   2.179  0.0231  0.7521 -0.5252
  895SOL    HW1 2684   2.286   2.335   2.164 -0.7985 -1.3245  0.6443
  895SOL    HW2 2685   2.331   2.470   2.242 -1.8612 -0.1674  1.5948
  896SOL     OW 2686   1.188   0.022   1.729 -0.1119 -0.3880 -0.6639
  896SOL    HW1 2687   1.176   3.015   1.681 -2.8069  0.0123 -2.5517
  896SOL    HW2 2688   1.283   0.032   1.766 -0.5277 -1.4583 -1.9836
  897SOL     OW 2689   0.757   1.823   1.844 -0.1883  0.4700  0.2423
  897SOL    HW1 2690   0.776   1.738   1.794 -1.0527 -2.3908 -3.1528
  897SOL    HW2 2691   0.726   1.894   1.780  1.4119  0.3728 -1.0748
  898SOL     OW 2692   2.007   2.712   1.722  0.0089  0.4581  0.5477
  898SOL    HW1 2693   2.037   2.746   1.629 -0.6995  0.7141 -1.5931
  898SOL    HW2 2694   2.073   2.640   1.758 -1.3339 -3.5160 -0.1081
  899SOL     OW 2695   0.924   0.744   1.202  0.2453  0.3590 -0.4724
  899SOL    HW1 2696   0.917   0.644   1.180  1.4380 -0.3262 -0.2281
  899SOL    HW2 2697   0.840   0.785   1.162 -2.2418 -3.4589  1.8576
  900SOL     OW 2698   1.869   2.206   2.865 -0.3460 -0.1620 -0.1359
  900SOL    HW1 2699   1.816   2.128   2.897  1.0727  1.2987  0.9540
  900SOL    HW2 2700   1.905   2.190   2.772  1.1284 -2.4858 -2.2812
  901SOL     OW 2701   0.850   2.224   2.593 -0.7620  0.0291 -0.1326
  901SOL    HW1 2702   0.861   2.247   2.692  0.4320  0.0268  0.1001
  901SOL    HW2 2703   0.794   2.292   2.541  2.4654  1.6352  0.0660
  902SOL     OW 2704   2.158   1.274   0.100  0.4389  1.0352 -0.0228
  902SOL    HW1 2705   2.193   1.305   0.013  2.0543  0.8677  3.1414
  902SOL    HW2 2706   2.158   1.170   0.103 -1.9078 -2.9210 -2.4928
  903SOL     OW 2707   1.910   0.791   0.368 -0.3930  0.3497 -0.1798
  903SOL    HW1 2708   1.891   0.880   0.328 -1.4764 -0.2077  0.2883
  903SOL    HW2 2709   1.825   0.768   0.423 -0.5316 -0.3353 -0.6212
  904SOL     OW 2710   0.763   0.972   3.027 -0.1416  0.3012  0.1763
  904SOL    HW1 2711   0.676   0.970   2.981  3.1883 -1.8809  0.4766
  904SOL    HW2 2712   0.829   1.008   2.965 -2.5393 -1.1480 -0.7909
  905SOL     OW 2713   2.285   0.349   1.016 -0.4634 -0.0504  0.2516
  905SOL    HW1 2714   2.237   0.289   1.086  0.4345 -1.4913  3.2955
  905SOL    HW2 2715   2.280   0.447   1.037 -0.2220  2.7278  0.0581
  906SOL     OW 2716   2.740   2.355   1.430 -0.1651 -0.1264 -0.3353
  906SOL    HW1 2717   2.688   2.270   1.458 -0.4155  4.2914  1.5267
  906SOL    HW2 2718   2.752   2.354   1.326 -1.4563  1.0306  3.2215
  907SOL     OW 2719   1.154   0.475   0.216 -0.3654  0.1155  0.2121
  907SOL    HW1 2720   1.223   0.549   0.229  1.7299 -0.5596  2.5392
  907SOL    HW2 2721   1.169   0.401   0.287 -2.0016 -1.4389  1.2712
  908SOL     OW 2722   2.337   2.942   1.553 -0.1110  0.3264 -0.5475
  908SOL    HW1 2723   2.433   2.899   1.551 -1.4875 -3.0085  1.1343
  908SOL    HW2 2724   2.329   3.029   1.509  0.4692 -0.5824  0.5227
  909SOL     OW 2725   2.857   0.942   1.597 -0.7275 -0.9135 -0.3371
  909SOL    HW1 2726   2.852   0.928   1.500 -2.0213 -0.0662  1.5743
  909SOL    HW2 2727   2.826   0.860   1.647 -1.1101  0.5518  0.2240
  910SOL     OW 2728   1.440   2.756   2.143 -0.4088 -0.2437  0.2825
  910SOL    HW1 2729   1.500   2.674   2.123  1.9953 -0.6849 -1.2046
  910SOL    HW2 2730   1.425   2.811   2.058 -1.1571  0.7760 -1.8671
  911SOL     OW 2731   2.415   0.547   2.288  0.6510 -0.4128  0.2150
  911SOL    HW1 2732   2.395   0.588   2.198 -1.9771  0.7272  0.1967
  911SOL    HW2 2733   2.327   0.544   2.343 -3.9959 -2.6430  0.1338
  912SOL     OW 2734   2.570   1.145   1.479  0.2996 -0.4542 -0.6106
  912SOL    HW1 2735   2.643   1.218   1.479  1.0743 -0.3415  0.2106
  912SOL    HW2 2736   2.595   1.085   1.402 -0.7614  2.6504  0.0380
  913SOL     OW 2737   2.621   2.085   1.450  0.2030 -0.1317 -0.2064
  913SOL    HW1 2738   2.634   1.984   1.452 -0.2056 -0.3060 -2.5392
  913SOL    HW2 2739   2.532   2.106   1.410  0.0095 -2.2278 -2.0174
  914SOL     OW 2740   1.869   1.245   1.386 -0.1607 -0.1921 -0.0226
  914SOL    HW1 2741   1.953   1.194   1.366 -0.1310 -1.6748  1.0503
  914SOL    HW2 2742   1.801   1.187   1.438 -0.5420 -1.0250  0.0152
  915SOL     OW 2743   1.044   0.859   1.608  0.4926 -0.1305  0.3157
  915SOL    HW1 2744   1.140   0.837   1.576  4.4089  0.5365 -0.3060
  915SOL    HW2 2745   0.970   0.820   1.544  0.2848 -1.2559 -2.5081
  916SOL     OW 2746   2.599   2.810   1.566 -0.1654 -0.0943 -0.4954
  916SOL    HW1 2747   2.549   2.760   1.634 -0.8669  1.3906 -3.2771
  916SOL    HW2 2748   2.703   2.814   1.583  0.6173  0.9071  4.4455
  917SOL     OW 2749   2.468   2.131   0.217  0.0286  0.2404 -0.0227
  917SOL    HW1 2750   2.426   2.221   0.195  0.6374 -2.6717 -0.2286
  917SOL    HW2 2751   2.487   2.085   0.129  0.6895 -0.3800 -0.3734
  918SOL     OW 2752   1.982   2.664   2.775  0.0082  0.3514 -0.4457
  918SOL    HW1 2753   1.938   2.729   2.709 -0.5821  0.5122  2.0090
  918SOL    HW2 2754   2.029   2.714   2.852  4.8093  0.6676  1.4292
  919SOL     OW 2755   1.628   2.151   1.589  0.3498  0.1616  0.5863
  919SOL    HW1 2756   1.605   2.123   1.685  2.1491 -0.9767 -2.3472
  919SOL    HW2 2757   1.576   2.090   1.525 -0.1773 -1.1600 -1.2884
  920SOL     OW 2758   2.688   0.108   2.507  0.1244  0.2854 -0.6245
  920SOL    HW1 2759   2.758   0.042   2.472 -1.9021 -0.2335 -0.4694
  920SOL    HW2 2760   2.701   0.130   2.606 -1.6271  2.1757 -1.5452
  921SOL     OW 2761   0.016   0.585   1.852  0.1228 -0.2374  0.8534
  921SOL    HW1 2762   0.022   0.490   1.813  0.9516  0.2275 -1.9381
  921SOL    HW2 2763   0.059   0.590   1.945  2.3063 -0.5007 -0.0629
  922SOL     OW 2764   2.010   2.135   0.536 -0.2673 -0.1784  0.1087
  922SOL    HW1 2765   2.067   2.169   0.461  2.1343 -1.2771 -3.5796
  922SOL    HW2 2766   2.068   2.116   0.622  5.3709  0.1130  0.6464
  923SOL     OW 2767   0.407   2.098   2.986  0.4242 -0.5073 -0.8419
  923SOL    HW1 2768   0.493   2.047   2.970  1.4843 -2.6260  0.6411
  923SOL    HW2 2769   0.428   2.178   3.050 -0.3723  0.6866 -0.8644
  924SOL     OW 2770   0.779   0.353   0.348 -0.0405  0.8591  1.0310
  924SOL    HW1 2771   0.720   0.282   0.392  0.5305 -1.4029 -3.7401
  924SOL    HW2 2772   0.730   0.425   0.296 -0.5939 -1.1317  1.7936
  925SOL     OW 2773   2.539   1.076   0.790  0.1057 -0.0844  0.0341
  925SOL    HW1 2774   2.443   1.103   0.820 -0.4601  1.4948 -0.7246
  925SOL    HW2 2775   2.542   1.054   0.694 -2.1392  1.0414  3.0617
  926SOL     OW 2776   0.155   1.100   0.927  0.1208 -0.1305 -0.3084
  926SOL    HW1 2777   0.061   1.108   0.976 -1.8001 -1.6732 -0.8721
  926SOL    HW2 2778   0.198   1.011   0.955 -1.3912 -0.6038  3.8569
  927SOL     OW 2779   3.008   1.039   2.780  0.1561 -0.5391  0.2174
  927SOL    HW1 2780   3.065   0.971   2.738 -1.3375  1.5134  3.0339
  927SOL    HW2 2781   3.066   1.109   2.829 -0.1973 -1.6222 -3.4849
  928SOL     OW 2782   2.895   0.432   2.291 -0.1881  0.2649  0.0730
  928SOL    HW1 2783   2.902   0.349   2.232  1.8093 -0.6077  1.5766
  928SOL    HW2 2784   2.803   0.452   2.325 -0.6997 -1.1041 -1.5180
  929SOL     OW 2785   3.001   2.893   1.186 -0.2792 -0.4373 -0.3485
  929SOL    HW1 2786   2.998   2.967   1.258 -0.1963 -0.1336  1.5994
  929SOL    HW2 2787   2.964   2.923   1.097  1.3625 -1.1633  0.3699
  930SOL     OW 2788   1.898   1.402   1.677  0.7065 -0.2116 -0.8032
  930SOL    HW1 2789   1.939   1.486   1.635 -2.8065 -1.4172 -1.8555
  930SOL    HW2 2790   1.805   1.391   1.633 -0.0593  0.3053  1.0278
  931SOL     OW 2791   1.627   1.465   0.502  0.2072  0.0293 -0.0779
  931SOL    HW1 2792   1.722   1.496   0.472 -2.0774  2.9015  1.2773
  931SOL    HW2 2793   1.560   1.543   0.523 -2.4389  0.5907  2.8146
  932SOL     OW 2794   2.723   1.346   0.880  0.0279 -0.1338  0.2547
  932SOL    HW1 2795   2.760   1.252   0.885 -0.9183  0.9927 -0.4720
  932SOL    HW2 2796   2.791   1.405   0.925 -0.3144  1.0419 -1.8431
  933SOL     OW 2797   2.216   1.520   1.226  0.5368 -0.2309  0.0822
  933SOL    HW1 2798   2.165   1.457   1.166 -2.4483  0.3619 -0.1188
  933SOL    HW2 2799   2.158   1.601   1.249  0.1383 -2.6615  1.3186
  934SOL     OW 2800   1.652   2.882   1.707 -0.2466  0.2437 -0.0375
  934SOL    HW1 2801   1.589   2.953   1.747 -2.2527 -1.2311  2.3321
  934SOL    HW2 2802   1.599   2.797   1.674 -0.2193 -0.0470 -0.5562
  935SOL     OW 2803   0.040   1.547   0.803  0.0503 -0.1380  0.0399
  935SOL    HW1 2804   0.085   1.563   0.713 -1.3032 -1.4395  0.9353
  935SOL    HW2 2805   0.075   1.608   0.872  0.8948 -0.2285 -0.8623
  936SOL     OW 2806   0.346   1.070   0.468  0.2987 -0.4096 -0.0424
  936SOL    HW1 2807   0.290   1.145   0.427  0.4832  3.0917  0.7181
  936SOL    HW2 2808   0.404   1.031   0.401 -2.6465 -1.2027  5.1911
  937SOL     OW 2809   2.292   2.826   1.103  0.0392  0.4179 -0.6888
  937SOL    HW1 2810   2.262   2.741   1.147  0.7627 -0.2141  1.6130
  937SOL    HW2 2811   2.259   2.839   1.006 -1.0077 -1.9252 -3.4404
  938SOL     OW 2812   2.709   2.057   0.994  0.4655 -0.2294  0.4250
  938SOL    HW1 2813   2.730   2.016   1.086  0.9002  0.4839  0.8150
  938SOL    HW2 2814   2.639   2.128   0.993 -0.8112 -0.3766  1.4768
  939SOL     OW 2815   0.768   2.031   0.392  0.1444  0.1598 -0.5997
  939SOL    HW1 2816   0.735   1.936   0.419  3.2429  0.1871 -1.1300
  939SOL    HW2 2817   0.869   2.046   0.414  0.4764 -1.3874  2.0762
  940SOL     OW 2818   2.869   0.027   3.075 -0.0300 -0.2040 -0.2954
  940SOL    HW1 2819   2.952   0.064   0.037 -0.2788 -1.6421 -2.7362
  940SOL    HW2 2820   2.893   3.028   3.015  0.7092 -2.3107  0.4148
  941SOL     OW 2821   1.011   0.115   2.970 -0.7142  0.1532 -0.1210
  941SOL    HW1 2822   1.098   0.084   2.928  0.0587 -0.2712 -0.8225
  941SOL    HW2 2823   1.012   0.211   2.992 -0.3033 -1.2658 -0.2064
  942SOL     OW 2824   1.161   1.338   1.119  0.5364 -0.0032 -0.1871
  942SOL    HW1 2825   1.230   1.402   1.085  0.0293 -1.7864 -0.2008
  942SOL    HW2 2826   1.135   1.269   1.052 -2.8928  0.7649 -1.1816
  943SOL     OW 2827   1.684   1.098   1.510  0.2925  0.2058 -0.0047
  943SOL    HW1 2828   1.701   1.119   1.609 -1.4410  1.2431  3.7379
  943SOL    HW2 2829   1.688   0.997   1.489  0.2207 -2.7282 -0.0892
  944SOL     OW 2830   1.495   0.653   1.873  0.1168 -0.3246 -0.9161
  944SOL    HW1 2831   1.490   0.733   1.807 -2.0304  0.9080  1.2112
  944SOL    HW2 2832   1.584   0.658   1.922 -4.4144  1.2681 -1.2416
  945SOL     OW 2833   2.988   2.983   0.498 -0.2109 -0.2321 -0.0028
  945SOL    HW1 2834   3.016   3.079   0.480 -0.8306  3.1027 -1.2341
  945SOL    HW2 2835   2.971   2.930   0.414 -0.7373  2.5093 -1.7867
  946SOL     OW 2836   0.149   0.274   1.332 -0.0107  0.3412 -0.5094
  946SOL    HW1 2837   0.139   0.365   1.293 -1.6252  1.2044 -0.5907
  946SOL    HW2 2838   0.061   0.225   1.324 -0.8508  0.2417 -0.0403
  947SOL     OW 2839   0.731   2.974   0.190  0.2187  0.0346  0.0970
  947SOL    HW1 2840   0.653   2.936   0.131  1.8362 -0.2645 -2.2451
  947SOL    HW2 2841   0.740   3.078   0.179 -1.4408 -0.4163  0.0312
  948SOL     OW 2842   2.467   1.129   1.991  0.1853 -0.0425 -0.4533
  948SOL    HW1 2843   2.464   1.207   1.930 -0.3254 -1.9706  1.3631
  948SOL    HW2 2844   2.548   1.132   2.056  1.4301  2.3820  1.5106
  949SOL     OW 2845   0.424   0.789   2.803  0.5007 -0.3931  0.4504
  949SOL    HW1 2846   0.480   0.720   2.759 -0.9483  1.3487  1.6550
  949SOL    HW2 2847   0.337   0.756   2.843  1.0091  0.1539  2.2158
  950SOL     OW 2848   0.874   0.381   0.869  0.0918 -0.3340 -0.1486
  950SOL    HW1 2849   0.896   0.283   0.890 -2.1110 -1.3889 -2.5691
  950SOL    HW2 2850   0.958   0.428   0.836 -1.2789 -2.3733 -0.3256
  951SOL     OW 2851   1.102   1.852   2.035 -0.1710  0.3700 -0.3101
  951SOL    HW1 2852   1.181   1.914   2.061 -2.0621  1.3607 -0.4461
  951SOL    HW2 2853   1.010   1.895   2.064 -0.8353 -0.3568 -0.1199
  952SOL     OW 2854   0.888   1.632   0.059 -0.1711 -0.7363  0.1757
  952SOL    HW1 2855   0.912   1.547   0.116  1.2944  0.6268  1.3250
  952SOL    HW2 2856   0.815   1.690   0.102 -1.7522  0.3812 -1.5744
  953SOL     OW 2857   2.131   2.934   2.328  0.1032 -0.0404 -0.1886
  953SOL    HW1 2858   2.129   2.869   2.253 -1.0823  0.4160 -0.5177
  953SOL    HW2 2859   2.207   3.000   2.315 -0.9609 -0.0916  0.3419
  954SOL     OW 2860   1.639   1.258   0.686  0.8452 -0.2696 -0.3259
  954SOL    HW1 2861   1.599   1.169   0.654 -2.3147 -2.6007 -1.8271
  954SOL    HW2 2862   1.628   1.329   0.612 -1.0387  0.2351 -4.1052
  955SOL     OW 2863   0.335   2.297   2.256 -0.0902 -0.2266  0.7219
  955SOL    HW1 2864   0.432   2.273   2.235 -0.3449 -1.1569 -0.3628
  955SOL    HW2 2865   0.330   2.386   2.307 -1.3607  2.2493  1.8682
  956SOL     OW 2866   1.608   0.253   1.580  0.2904  0.0627  0.4247
  956SOL    HW1 2867   1.506   0.273   1.574  0.7733 -1.2841  2.9958
  956SOL    HW2 2868   1.644   0.327   1.643  1.3215  1.8619  2.4007
  957SOL     OW 2869   1.706   1.977   2.879 -0.1885 -0.4570  0.0252
  957SOL    HW1 2870   1.611   2.001   2.852 -1.4558 -2.9212 -0.2633
  957SOL    HW2 2871   1.711   1.961   2.979 -1.4822  0.2136  0.3402
  958SOL     OW 2872   1.211   2.231   1.724  0.3615  0.0658 -0.2753
  958SOL    HW1 2873   1.146   2.234   1.809  1.4023  0.9586  1.8096
  958SOL    HW2 2874   1.286   2.163   1.735  1.2641 -0.3695 -1.7322
  959SOL     OW 2875   2.130   2.211   2.965 -0.1531 -0.2069 -0.0761
  959SOL    HW1 2876   2.166   2.259   3.050 -0.8958  2.2618  3.7142
  959SOL    HW2 2877   2.033   2.237   2.947 -1.7989  2.4140 -0.5388
  960SOL     OW 2878   2.998   0.145   2.814 -0.0713  0.1289 -0.1974
  960SOL    HW1 2879   3.024   0.069   2.751  3.6259 -4.0099  0.4221
  960SOL    HW2 2880   2.893   0.154   2.808 -0.8963 -2.2193 -1.2636
  961SOL     OW 2881   0.898   1.058   2.804 -0.0119  0.1451  0.1488
  961SOL    HW1 2882   0.873   1.156   2.787 -1.9834  1.3902 -1.8410
  961SOL    HW2 2883   0.934   1.012   2.721 -1.1372 -1.0283 -0.5467
  962SOL     OW 2884   1.255   1.202   2.734  0.4757  0.1208 -0.3866
  962SOL    HW1 2885   1.225   1.146   2.654 -2.0189 -0.3889 -1.0253
  962SOL    HW2 2886   1.355   1.203   2.736 -2.7779 -0.8498 -0.0633
  963SOL     OW 2887   2.271   2.320   0.086 -0.3595 -0.2093 -0.1867
  963SOL    HW1 2888   2.351   2.313   0.026 -2.7312  0.5271 -1.4855
  963SOL    HW2 2889   2.292   2.402   0.142  1.1362  1.1643  1.0399
  964SOL     OW 2890   1.398   2.515   1.135  0.7393 -0.1263  0.3797
  964SOL    HW1 2891   1.368   2.445   1.200 -0.0551  0.2841  1.5772
  964SOL    HW2 2892   1.317   2.563   1.096  0.6297  1.2467 -2.2678
  965SOL     OW 2893   1.308   1.404   0.714  1.0028 -0.0932 -0.6346
  965SOL    HW1 2894   1.371   1.457   0.657 -2.6196 -2.4938  1.3667
  965SOL    HW2 2895   1.256   1.464   0.783  0.2160  2.0984 -0.4220
  966SOL     OW 2896   0.174   1.400   3.063 -0.1748  0.1908 -0.2958
  966SOL    HW1 2897   0.214   1.492   3.049 -0.0917 -2.1649  1.0922
  966SOL    HW2 2898   0.133   1.396   0.077 -0.1129  0.1546 -0.0199
  967SOL     OW 2899   1.839   0.241   1.870  0.2896 -0.4760 -0.3217
  967SOL    HW1 2900   1.880   0.243   1.963  1.4310 -1.0865 -1.3358
  967SOL    HW2 2901   1.903   0.194   1.807  0.8774  0.3986  0.1471
  968SOL     OW 2902   1.507   1.053   0.604 -0.5259  0.0774 -0.1213
  968SOL    HW1 2903   1.424   1.087   0.557 -1.5616 -0.8344 -0.8630
  968SOL    HW2 2904   1.548   0.972   0.556  0.3833  0.1325  1.6648
  969SOL     OW 2905   0.240   1.348   2.391 -0.3558  0.2797 -0.4894
  969SOL    HW1 2906   0.161   1.331   2.326 -2.1212 -0.4121 -0.9972
  969SOL    HW2 2907   0.321   1.366   2.331  3.9666 -0.7853 -0.2847
  970SOL     OW 2908   2.060   1.375   1.073  0.0668 -0.0582  0.5868
  970SOL    HW1 2909   1.996   1.302   1.044  3.4005  0.2148 -0.9468
  970SOL    HW2 2910   2.116   1.403   0.992  1.6387  1.0483 -0.8994
  971SOL     OW 2911   0.436   2.973   1.218  0.0000 -0.0332  0.2251
  971SOL    HW1 2912   0.428   3.077   1.221  0.8738 -0.7873 -0.7741
  971SOL    HW2 2913   0.352   2.934   1.175 -0.7224  1.5461  2.1219
  972SOL     OW 2914   0.156   0.732   2.859 -0.0955  0.1277  0.0456
  972SOL    HW1 2915   0.185   0.631   2.861  0.2300 -3.4551  1.9254
  972SOL    HW2 2916   0.168   0.784   2.946  0.2484  0.3033 -1.4491
  973SOL     OW 2917   0.299   0.907   1.121  0.1583 -0.4531  0.2521
  973SOL    HW1 2918   0.227   0.914   1.194  1.9094  1.9907  1.4149
  973SOL    HW2 2919   0.365   0.837   1.150 -1.0567  0.5252  0.2652
  974SOL     OW 2920   2.109   0.565   1.890  0.9637  0.1422 -0.8070
  974SOL    HW1 2921   2.047   0.609   1.827  0.1082 -0.0904 -1.7429
  974SOL    HW2 2922   2.162   0.630   1.952  1.1617  1.2497  2.2260
  975SOL     OW 2923   2.663   0.096   0.331  0.4143 -0.5885 -0.2501
  975SOL    HW1 2924   2.609   0.085   0.414 -1.9412  1.0591  0.0474
  975SOL    HW2 2925   2.723   0.174   0.350 -2.1351  1.1670  2.4501
  976SOL     OW 2926   0.092   1.222   1.658  0.1549  0.2143 -0.0816
  976SOL    HW1 2927   0.159   1.295   1.639 -1.0782 -0.0206 -1.1208
  976SOL    HW2 2928   0.124   1.126   1.646 -0.6825 -1.8543 -1.7844
  977SOL     OW 2929   1.131   2.760   0.144 -0.1370  0.1743  0.6763
  977SOL    HW1 2930   1.216   2.811   0.177  2.6232 -0.2205  0.1639
  977SOL    HW2 2931   1.147   2.660   0.149  0.1360  2.3433 -3.6057
  978SOL     OW 2932   0.595   1.522   0.300 -0.2533 -0.1896  0.4156
  978SOL    HW1 2933   0.680   1.533   0.358  2.4134 -2.4553  0.5624
  978SOL    HW2 2934   0.513   1.491   0.351  3.1911  2.9558 -2.7491
  979SOL     OW 2935   1.694   1.787   1.300 -0.5059 -0.1200 -0.2497
  979SOL    HW1 2936   1.648   1.760   1.388  1.8965 -1.0173  1.5889
  979SOL    HW2 2937   1.683   1.722   1.220 -2.4506 -1.4764  0.6835
  980SOL     OW 2938   0.468   1.464   1.774 -0.4319 -0.3951  0.0912
  980SOL    HW1 2939   0.478   1.372   1.814  2.1800 -2.1805  0.4178
  980SOL    HW2 2940   0.385   1.469   1.713  0.1760 -1.1929 -0.6162
  981SOL     OW 2941   0.027   1.333   0.272 -0.4366 -0.0691  0.2695
  981SOL    HW1 2942   0.020   1.316   0.372 -0.9319 -0.2609 -1.2244
  981SOL    HW2 2943   3.033   1.385   0.224  2.9411 -1.5487 -1.4769
  982SOL     OW 2944   2.323   2.751   2.090  0.5476 -0.2210  0.0192
  982SOL    HW1 2945   2.374   2.795   2.016 -0.0704  0.0100  2.5540
  982SOL    HW2 2946   2.361   2.781   2.180 -1.7487 -3.0750  0.7108
  983SOL     OW 2947   1.107   0.463   1.195  0.2383 -0.0805  0.2511
  983SOL    HW1 2948   1.153   0.513   1.119  3.5077 -3.2162 -2.3699
  983SOL    HW2 2949   1.004   0.473   1.180 -3.1215 -1.0936 -0.9638
  984SOL     OW 2950   1.144   3.026   2.671  0.0893  0.1486  0.2620
  984SOL    HW1 2951   1.188   3.028   2.761  1.1192  1.2547  0.1092
  984SOL    HW2 2952   1.130   0.040   2.630 -0.2558  2.0703 -1.0741
  985SOL     OW 2953   1.900   2.040   1.594  0.3471 -0.1978  0.5076
  985SOL    HW1 2954   1.806   2.084   1.616 -1.6652  1.1487  3.2667
  985SOL    HW2 2955   1.964   2.108   1.551 -2.4413 -0.5176  2.3081
  986SOL     OW 2956   2.395   0.192   2.451  0.0017  0.1468  0.3109
  986SOL    HW1 2957   2.484   0.148   2.478  0.4678  0.1382  3.1861
  986SOL    HW2 2958   2.377   0.278   2.503  0.6250 -2.1743 -2.9567
  987SOL     OW 2959   2.806   0.794   2.056  0.5438  0.1915 -0.4286
  987SOL    HW1 2960   2.885   0.759   2.113 -1.7585 -1.4309 -2.7792
  987SOL    HW2 2961   2.718   0.802   2.109 -2.4323  0.3426  0.0402
  988SOL     OW 2962   2.319   0.727   2.650 -0.4887 -0.3772  0.7890
  988SOL    HW1 2963   2.224   0.702   2.675  2.0791 -1.2981 -0.8916
  988SOL    HW2 2964   2.317   0.777   2.561  0.0378 -0.5122  1.8179
  989SOL     OW 2965   2.321   1.713   2.035 -0.5997  0.5033  0.4197
  989SOL    HW1 2966   2.363   1.743   2.126  1.8890  0.4213  0.8304
  989SOL    HW2 2967   2.389   1.711   1.962 -0.8906 -1.7426  0.1206
  990SOL     OW 2968   0.354   1.240   2.795  0.2352 -0.2585  0.4039
  990SOL    HW1 2969   0.253   1.252   2.818 -3.7186  2.0190  0.0444
  990SOL    HW2 2970   0.416   1.322   2.799  1.4052  3.6260 -1.6409
  991SOL     OW 2971   0.390   1.971   2.610  0.1436  0.4530  0.3209
  991SOL    HW1 2972   0.360   1.878   2.645 -3.5294  1.2295 -1.3641
  991SOL    HW2 2973   0.338   2.046   2.658 -0.0185  0.1330 -1.4852
  992SOL     OW 2974   2.527   1.958   1.950 -0.0904 -0.1414  0.4364
  992SOL    HW1 2975   2.551   2.028   1.879  2.5710  1.0400 -2.0772
  992SOL    HW2 2976   2.565   1.996   2.038  0.3320 -1.3398 -0.6168
  993SOL     OW 2977   0.260   0.003   0.654 -0.3083 -0.5817 -0.4212
  993SOL    HW1 2978   0.354   3.077   0.696  0.7841  3.6052  0.0979
  993SOL    HW2 2979   0.211   2.996   0.650  1.1465 -0.2281 -0.5288
  994SOL     OW 2980   0.259   1.741   1.589  0.0029  0.6311 -0.1822
  994SOL    HW1 2981   0.233   1.823   1.533 -0.3002  1.3108  2.3027
  994SOL    HW2 2982   0.335   1.761   1.649  1.5503  2.4926 -0.5359
  995SOL     OW 2983   1.965   1.729   2.853 -0.0941 -0.3527  0.1517
  995SOL    HW1 2984   1.874   1.716   2.893  2.8270  0.7235 -1.8181
  995SOL    HW2 2985   2.015   1.818   2.874  0.6207  0.5502  1.3912
  996SOL     OW 2986   2.053   1.055   2.617 -0.3617 -0.2562  0.3318
  996SOL    HW1 2987   2.107   1.074   2.698 -0.5877 -0.1964 -2.0436
  996SOL    HW2 2988   2.008   1.138   2.577 -0.1232 -0.5226  2.0704
  997SOL     OW 2989   1.465   0.845   1.700 -0.1532 -0.0023 -0.2639
  997SOL    HW1 2990   1.431   0.943   1.690 -1.6706 -2.0023 -0.9436
  997SOL    HW2 2991   1.480   0.808   1.606  1.4002  1.6087  0.0237
  998SOL     OW 2992   2.349   2.100   0.989 -0.1759  0.4130  0.6196
  998SOL    HW1 2993   2.402   2.095   0.902 -2.2711  0.0278  1.3324
  998SOL    HW2 2994   2.349   2.007   1.037 -1.3917 -3.0286 -0.5805
  999SOL     OW 2995   2.367   2.376   0.686 -0.3848  0.0057  0.1590
  999SOL    HW1 2996   2.274   2.384   0.642 -1.1096 -1.2607 -0.3398
  999SOL    HW2 2997   2.416   2.462   0.690 -1.3321 -0.4939 -0.8173
 1000SOL     OW 2998   0.786   3.064   2.908  0.5074  0.1605  0.1703
 1000SOL    HW1 2999   0.725   0.054   2.945 -2.1378  2.7992 -0.2017
 1000SOL    HW2 3000   0.884   0.002   2.927 -1.4260 -3.3366 -2.9645
   3.08002   3.08002   3.08002
