1000 SPC/Fw water molecules t= 307.00000 step= 307000
 3000
    1SOL     OW    1   2.824   0.028   0.871 -0.0813  0.1700  0.0107
    1SOL    HW1    2   2.831   3.028   0.804  1.0233  1.8309 -1.9293
    1SOL    HW2    3   2.880   0.015   0.956 -0.4331 -0.0677 -1.2247
    2SOL     OW    4   0.128   2.298   0.810 -0.2243 -0.3446 -0.3293
    2SOL    HW1    5   0.084   2.260   0.897 -1.8594 -1.4983  1.5387
    2SOL    HW2    6   0.157   2.224   0.748 -0.1345  0.2098 -0.8120
    3SOL     OW    7   0.670   2.717   2.934  0.2600  0.3142 -0.3573
    3SOL    HW1    8   0.671   2.623   2.975 -2.9035 -0.4068 -0.1793
    3SOL    HW2    9   0.610   2.726   2.852 -0.0673 -0.4439 -1.1219
    4SOL     OW   10   2.068   2.418   1.876 -0.0569  0.5612  0.7014
    4SOL    HW1   11   1.984   2.358   1.878 -1.2015  1.4556 -0.4240
    4SOL    HW2   12   2.155   2.363   1.891 -0.9626  0.0678  0.2054
    5SOL     OW   13   1.664   0.831   1.280 -0.2523 -0.1200 -0.2048
    5SOL    HW1   14   1.626   0.802   1.194  1.0512 -0.5108  0.1933
    5SOL    HW2   15   1.599   0.845   1.358 -1.4352  1.3316 -0.3469
    6SOL     OW   16   1.964   2.757   0.124  0.0933 -0.1507  0.3861
    6SOL    HW1   17   1.952   2.859   0.123  0.1648  0.5079 -0.8192
    6SOL    HW2   18   1.905   2.711   0.189 -0.0869  0.9053 -0.3206
    7SOL     OW   19   2.806   1.261   1.247 -0.3488  0.1421 -0.1278
    7SOL    HW1   20   2.792   1.358   1.268  2.2381 -1.4814 -0.3875
    7SOL    HW2   21   2.743   1.197   1.295  0.8806 -0.4358 -2.3035
    8SOL     OW   22   1.373   2.340   1.555  0.1827  0.0315  0.1590
    8SOL    HW1   23   1.432   2.395   1.619 -0.3185 -1.1045 -0.7173
    8SOL    HW2   24   1.363   2.386   1.466 -0.4633 -0.1312  0.2832
    9SOL     OW   25   1.334   2.802   2.338 -0.7433  0.0549 -0.0912
    9SOL    HW1   26   1.247   2.817   2.380  1.1904 -0.8588 -0.1698
    9SOL    HW2   27   1.332   2.786   2.240 -1.3781  0.8797  1.3914
   10SOL     OW   28   0.763   2.027   1.268  0.0455  0.1271 -0.1400
   10SOL    HW1   29   0.862   2.012   1.262 -3.1939  2.1380 -2.2614
   10SOL    HW2   30   0.733   2.119   1.242 -1.7520 -2.0013 -0.5805
   11SOL     OW   31   1.979   1.725   1.107  0.2141  0.4807  0.3942
   11SOL    HW1   32   2.065   1.758   1.152  0.0155 -1.0873  0.9292
   11SOL    HW2   33   1.981   1.745   1.008 -2.3977 -0.2003  1.5916
   12SOL     OW   34   2.340   2.634   1.556 -0.0091 -0.6552  0.1682
   12SOL    HW1   35   2.429   2.631   1.500  4.5030  1.1946  1.2808
   12SOL    HW2   36   2.361   2.675   1.643 -0.6253  0.0159 -1.2383
   13SOL     OW   37   2.401   0.040   0.419  0.2097  0.5600 -0.2002
   13SOL    HW1   38   2.395   3.062   0.504 -0.2259 -1.5778  1.4642
   13SOL    HW2   39   2.494   0.020   0.378  0.7391  0.3429  2.2287
   14SOL     OW   40   1.808   2.446   0.703 -0.0186  0.1232 -0.1243
   14SOL    HW1   41   1.721   2.493   0.700  1.6499 -0.7482  1.9264
   14SOL    HW2   42   1.792   2.347   0.720  0.0958 -0.3172 -0.2445
   15SOL     OW   43   2.854   1.843   1.965  0.4674 -0.2050  0.4321
   15SOL    HW1   44   2.940   1.885   1.932  0.6406 -0.3262  0.3799
   15SOL    HW2   45   2.827   1.892   2.050 -0.5983  1.6726  1.1930
   16SOL     OW   46   2.133   2.792   0.639 -0.1283 -0.2175 -0.1789
   16SOL    HW1   47   2.066   2.801   0.561  0.9036 -0.3704  0.0784
   16SOL    HW2   48   2.095   2.812   0.729  1.0634 -0.7511 -0.9984
   17SOL     OW   49   0.598   0.232   1.134  0.2938 -0.2686 -0.0602
   17SOL    HW1   50   0.656   0.309   1.171  0.5292  0.8962  2.4120
   17SOL    HW2   51   0.591   0.232   1.031  1.0168  0.8907  0.2694
   18SOL     OW   52   1.769   1.166   0.101  0.0323 -0.3361 -0.1938
   18SOL    HW1   53   1.769   1.171   0.203  1.7252  0.8209  0.8548
   18SOL    HW2   54   1.721   1.081   0.075  0.0867  0.8410  0.0623
   19SOL     OW   55   1.676   2.061   0.538  0.3382  0.4110  0.5625
   19SOL    HW1   56   1.703   2.097   0.631  1.3308 -2.0078  0.2548
   19SOL    HW2   57   1.757   2.073   0.474  2.7851  1.2397 -0.4200
   20SOL     OW   58   2.505   1.809   2.067 -0.4564 -0.1217  0.0446
   20SOL    HW1   59   2.422   1.828   2.117  3.1677  3.3478 -0.0660
   20SOL    HW2   60   2.504   1.853   1.976  1.8154 -3.7001 -2.0094
   21SOL     OW   61   1.856   0.566   0.767 -0.1939 -0.4086  0.2185
   21SOL    HW1   62   1.805   0.638   0.716  0.0538 -1.6715  4.3699
   21SOL    HW2   63   1.956   0.584   0.747 -0.3247  1.9064  0.0343
   22SOL     OW   64   2.222   3.005   1.495  0.0271  0.2850  0.3399
   22SOL    HW1   65   2.210   2.981   1.592  0.4001  2.1228  0.2878
   22SOL    HW2   66   2.138   3.038   1.448 -0.1610 -3.1345  0.7389
   23SOL     OW   67   3.067   0.544   2.015  0.0537 -0.7770  0.2281
   23SOL    HW1   68   3.027   0.452   2.024  0.3178  1.1984 -0.0360
   23SOL    HW2   69   2.991   0.595   1.964 -2.8379 -2.0758 -0.5565
   24SOL     OW   70   2.508   2.762   0.469 -0.5586  0.7628 -0.9178
   24SOL    HW1   71   2.448   2.825   0.517  0.5925 -2.9155 -2.9111
   24SOL    HW2   72   2.597   2.756   0.517  0.4681  1.5354 -1.1125
   25SOL     OW   73   1.527   0.160   2.183 -0.3132  0.3752  0.2581
   25SOL    HW1   74   1.468   0.113   2.250  0.8516  0.1293 -1.8728
   25SOL    HW2   75   1.501   0.141   2.087  1.4866  1.6770 -0.6159
   26SOL     OW   76   1.498   2.493   0.371  0.2033 -0.1223  0.2382
   26SOL    HW1   77   1.491   2.407   0.424 -2.6441  0.8413 -0.2964
   26SOL    HW2   78   1.575   2.488   0.306  1.2180  1.5277 -0.3856
   27SOL     OW   79   2.268   1.688   0.226 -0.1435 -0.1385 -0.5259
   27SOL    HW1   80   2.173   1.666   0.262  0.8733  1.8397  0.3015
   27SOL    HW2   81   2.282   1.659   0.131 -2.0300  2.6154  0.1666
   28SOL     OW   82   0.767   1.496   1.752  0.2134  0.5396  0.7327
   28SOL    HW1   83   0.768   1.393   1.757  1.3829  1.4595 -0.7224
   28SOL    HW2   84   0.781   1.535   1.658 -1.7625 -2.4451 -2.5655
   29SOL     OW   85   2.532   2.379   1.640  0.5416 -0.1336  0.6892
   29SOL    HW1   86   2.460   2.435   1.587  1.0432  3.1048 -1.1149
   29SOL    HW2   87   2.581   2.316   1.578  0.7422  0.8373  1.5402
   30SOL     OW   88   1.406   0.506   1.012  0.3468  0.3532  0.3920
   30SOL    HW1   89   1.323   0.529   0.953 -2.9227  2.8111 -1.3484
   30SOL    HW2   90   1.478   0.478   0.942 -2.2359  1.1806 -0.7973
   31SOL     OW   91   1.954   2.734   1.885 -0.0382  0.0063  0.4612
   31SOL    HW1   92   1.948   2.833   1.911 -0.7020  0.5395  0.2743
   31SOL    HW2   93   2.030   2.688   1.939 -1.8550 -1.5033 -1.2029
   32SOL     OW   94   1.033   1.684   0.684 -0.0358  0.0909  0.1357
   32SOL    HW1   95   0.935   1.670   0.687  0.1221  1.0865  0.2606
   32SOL    HW2   96   1.058   1.777   0.646  1.1036 -1.2913 -1.2631
   33SOL     OW   97   0.334   0.421   2.617 -0.0065  0.6372 -0.5585
   33SOL    HW1   98   0.409   0.350   2.616  0.1655  0.3694 -2.2715
   33SOL    HW2   99   0.290   0.428   2.530  0.0941 -2.1540  3.1061
   34SOL     OW  100   1.851   3.038   0.642 -0.8620 -0.3548  0.3202
   34SOL    HW1  101   1.831   3.057   0.739  2.0797  0.6306  1.5542
   34SOL    HW2  102   1.936   0.016   0.614  3.0180  0.3300 -2.8859
   35SOL     OW  103   2.152   2.558   1.175  0.0200 -0.1504 -0.2328
   35SOL    HW1  104   2.204   2.642   1.153  1.7089  0.7271 -1.0537
   35SOL    HW2  105   2.054   2.581   1.173  0.2238  0.8648 -0.7336
   36SOL     OW  106   1.812   2.426   2.654 -0.1537 -0.1016 -0.5401
   36SOL    HW1  107   1.741   2.357   2.687  0.5857  2.4405 -0.5144
   36SOL    HW2  108   1.888   2.380   2.604  0.0424 -1.0261  0.5536
   37SOL     OW  109   1.239   0.219   2.051  0.0329 -0.4236 -0.3688
   37SOL    HW1  110   1.279   0.234   1.957  2.6925  1.0123  0.6107
   37SOL    HW2  111   1.275   0.293   2.111  0.0995 -1.7302  2.1577
   38SOL     OW  112   0.272   0.096   2.647 -0.0202  0.1646  0.7741
   38SOL    HW1  113   0.221   0.074   2.562 -1.0592  0.2924  0.2716
   38SOL    HW2  114   0.370   0.085   2.633  0.1905  0.4645 -0.4980
   39SOL     OW  115   2.442   1.181   1.569  0.1952 -0.2154  0.5541
   39SOL    HW1  116   2.397   1.163   1.660 -2.2126 -2.1978  0.5559
   39SOL    HW2  117   2.408   1.264   1.527  0.5043  0.7448 -5.0218
   40SOL     OW  118   1.208   2.894   0.276 -0.3506  0.2164 -0.2756
   40SOL    HW1  119   1.225   2.996   0.275  0.8051 -0.3212 -0.7390
   40SOL    HW2  120   1.117   2.870   0.316 -3.0008 -1.0926  1.9119
   41SOL     OW  121   2.444   1.545   0.969  0.0865  0.4972  0.6154
   41SOL    HW1  122   2.450   1.522   1.071 -1.2168  0.7325  1.7195
   41SOL    HW2  123   2.476   1.466   0.912 -1.5898 -0.4681  0.3800
   42SOL     OW  124   1.017   0.366   1.164 -0.2754  0.4563 -0.1287
   42SOL    HW1  125   0.916   0.372   1.171 -0.1631 -1.0112  2.1409
   42SOL    HW2  126   1.064   0.439   1.216  0.0962 -1.3338 -1.4916
   43SOL     OW  127   2.801   1.510   2.425 -0.4203 -0.2671 -0.1151
   43SOL    HW1  128   2.726   1.576   2.404 -0.2888  2.4020 -0.9474
   43SOL    HW2  129   2.776   1.468   2.512 -1.1531 -0.2055  0.2626
   44SOL     OW  130   2.378   0.157   1.794 -0.2418  0.2219 -0.1700
   44SOL    HW1  131   2.421   0.187   1.708 -1.1559  2.6148  5.0268
   44SOL    HW2  132   2.438   0.170   1.873 -2.8840  0.5688 -2.0992
   45SOL     OW  133   0.911   3.033   1.892 -0.0570  0.3280  0.1069
   45SOL    HW1  134   0.926   3.076   1.799  2.3789 -1.8888  1.0150
   45SOL    HW2  135   1.000   3.042   1.951  3.8884 -1.0182 -2.4358
   46SOL     OW  136   1.168   2.918   2.520 -0.1909  0.6987  0.2796
   46SOL    HW1  137   1.106   2.887   2.597  1.3318  1.8589  1.2393
   46SOL    HW2  138   1.264   2.896   2.550  1.4328  1.2639  1.0099
   47SOL     OW  139   1.678   1.781   0.488 -0.0694 -0.1841 -0.3069
   47SOL    HW1  140   1.651   1.875   0.510 -1.7237 -0.2351 -1.1216
   47SOL    HW2  141   1.626   1.716   0.542 -1.7962  0.9707  2.4068
   48SOL     OW  142   1.206   2.147   0.602 -0.4167  0.0113  0.2664
   48SOL    HW1  143   1.119   2.169   0.553 -1.0783  1.0655  1.1804
   48SOL    HW2  144   1.255   2.062   0.566  1.7001  2.1353 -1.0264
   49SOL     OW  145   2.327   2.707   2.457 -0.0119 -0.1763  0.4004
   49SOL    HW1  146   2.298   2.738   2.364 -0.2900 -0.5696  0.8925
   49SOL    HW2  147   2.331   2.775   2.534  1.2899  2.5792  0.6522
   50SOL     OW  148   1.698   3.073   0.092 -0.5977 -0.0353 -0.3162
   50SOL    HW1  149   1.794   3.044   0.106  2.6653 -0.3196 -2.5041
   50SOL    HW2  150   1.687   0.070   0.021  1.2131  2.4807  2.6386
   51SOL     OW  151   2.186   0.940   0.731  0.3824 -0.3700  0.0922
   51SOL    HW1  152   2.103   0.940   0.789  0.0057 -0.1784  0.9037
   51SOL    HW2  153   2.200   1.036   0.695 -4.0172  3.6150 -0.4548
   52SOL     OW  154   1.238   1.566   1.100  0.3910  0.3334  0.2588
   52SOL    HW1  155   1.304   1.528   1.168  0.5756  0.9863  2.1502
   52SOL    HW2  156   1.147   1.531   1.124  2.2442  1.1045  0.8332
   53SOL     OW  157   0.870   1.723   2.508 -0.0563 -0.0096  0.1574
   53SOL    HW1  158   0.795   1.791   2.496  1.0384 -2.2446 -0.2969
   53SOL    HW2  159   0.949   1.759   2.559  0.1713 -1.3293 -0.2978
   54SOL     OW  160   2.604   0.712   1.547 -0.1793  0.1707  0.2261
   54SOL    HW1  161   2.680   0.749   1.606 -0.4059 -0.1442  1.2568
   54SOL    HW2  162   2.572   0.613   1.571 -1.9302 -1.6667  2.5385
   55SOL     OW  163   2.651   2.035   0.593  0.0502  0.4148 -0.2868
   55SOL    HW1  164   2.680   1.947   0.550  1.1091  1.5997 -1.5922
   55SOL    HW2  165   2.728   2.100   0.568 -2.0616  0.6232 -0.6517
   56SOL     OW  166   1.391   0.418   1.823  0.0832 -0.0997  0.2424
   56SOL    HW1  167   1.467   0.358   1.793  1.2856  1.1922 -1.3967
   56SOL    HW2  168   1.301   0.383   1.783 -0.4286  1.2391 -1.3261
   57SOL     OW  169   1.255   1.439   2.988 -0.4141  0.1713  0.1363
   57SOL    HW1  170   1.328   1.493   3.040 -1.1865  1.2398  0.5289
   57SOL    HW2  171   1.300   1.387   2.914 -0.0834  1.2481  1.3281
   58SOL     OW  172   2.875   0.618   1.847 -0.0546 -0.5002  0.3326
   58SOL    HW1  173   2.945   0.631   1.772  0.0512 -3.4075 -2.6024
   58SOL    HW2  174   2.814   0.542   1.817  0.1651 -2.0334  0.9527
   59SOL     OW  175   1.612   2.831   0.002  0.6580  0.5101  0.1806
   59SOL    HW1  176   1.678   2.839   2.997  0.3512 -1.4857  0.1828
   59SOL    HW2  177   1.606   2.925   0.038 -0.6942 -2.5488 -0.6494
   60SOL     OW  178   2.926   1.871   3.070  0.3898  0.2227 -0.2707
   60SOL    HW1  179   2.920   1.910   0.087 -2.3152  0.3509 -1.5133
   60SOL    HW2  180   2.934   1.945   3.001 -1.6873  0.0356  1.3474
   61SOL     OW  181   0.984   3.011   0.755 -0.2110  0.3482 -0.3212
   61SOL    HW1  182   1.078   2.978   0.753 -1.7019 -1.1512  1.0187
   61SOL    HW2  183   0.924   2.933   0.724 -2.1736  0.6156 -1.2829
   62SOL     OW  184   1.867   2.071   2.624  0.5117  0.1891 -0.2946
   62SOL    HW1  185   1.945   2.121   2.580  0.3939 -0.2826 -0.5510
   62SOL    HW2  186   1.778   2.107   2.588 -2.3485 -2.3089 -0.6343
   63SOL     OW  187   2.320   2.607   0.697  0.2691  0.2561 -0.1344
   63SOL    HW1  188   2.257   2.676   0.663  1.5506  0.4614  2.0765
   63SOL    HW2  189   2.373   2.560   0.621 -1.2016  0.0091 -2.9813
   64SOL     OW  190   1.366   0.825   2.498  0.1699  0.0393  0.6563
   64SOL    HW1  191   1.272   0.806   2.532  1.0483  1.3979 -1.1751
   64SOL    HW2  192   1.426   0.743   2.525  0.4376 -1.7251  0.2219
   65SOL     OW  193   1.869   1.704   2.454 -0.2698  0.5017  0.5932
   65SOL    HW1  194   1.814   1.618   2.468 -1.3136 -2.1877  0.8793
   65SOL    HW2  195   1.808   1.773   2.410  0.7415 -2.1958  2.7130
   66SOL     OW  196   0.247   0.751   1.669 -0.1337 -0.0632 -0.1785
   66SOL    HW1  197   0.255   0.849   1.644 -0.7556 -2.1336  0.5315
   66SOL    HW2  198   0.344   0.727   1.693 -0.2484 -1.1454  0.0135
   67SOL     OW  199   2.352   2.877   2.672 -0.7192  0.5027  0.5056
   67SOL    HW1  200   2.358   2.811   2.747  0.1753  0.2914 -0.8595
   67SOL    HW2  201   2.395   2.970   2.694  2.2133  0.8562  1.6952
   68SOL     OW  202   1.137   2.811   1.277  0.2664 -0.1839  0.7030
   68SOL    HW1  203   1.169   2.906   1.253 -1.8646 -1.5346 -0.2490
   68SOL    HW2  204   1.052   2.798   1.220 -0.7716 -0.0113  2.2475
   69SOL     OW  205   0.496   2.475   0.116  0.1218 -0.1507 -0.4922
   69SOL    HW1  206   0.594   2.493   0.137  1.8667 -2.2322  1.2956
   69SOL    HW2  207   0.439   2.461   0.198  2.5252  0.9262  0.0304
   70SOL     OW  208   2.582   0.119   2.312  0.1412 -0.4227 -0.0735
   70SOL    HW1  209   2.553   0.040   2.363 -0.0131 -1.3180  1.2060
   70SOL    HW2  210   2.505   0.185   2.295  1.5797  1.4408 -2.5248
   71SOL     OW  211   0.400   1.069   2.550  0.1981 -0.1905 -0.0422
   71SOL    HW1  212   0.306   1.062   2.510  2.4916  0.7989 -0.0409
   71SOL    HW2  213   0.393   1.139   2.627 -1.3804 -0.4737  0.8089
   72SOL     OW  214   2.930   2.061   2.898 -0.1445 -0.2474 -0.1407
   72SOL    HW1  215   2.855   2.131   2.892 -2.3334  0.7400 -0.4140
   72SOL    HW2  216   2.919   1.981   2.833  0.5949  0.1463 -1.0228
   73SOL     OW  217   1.491   1.038   0.629 -1.0788 -0.4052  0.5496
   73SOL    HW1  218   1.466   1.127   0.675 -0.3052  0.6480 -2.4605
   73SOL    HW2  219   1.466   1.034   0.531  2.1471  0.9977  0.6776
   74SOL     OW  220   2.348   2.687   2.877  0.1990 -0.2917 -0.1989
   74SOL    HW1  221   2.284   2.622   2.835 -0.7965  0.2784 -1.2687
   74SOL    HW2  222   2.306   2.721   2.961  2.6825  0.7861 -2.4954
   75SOL     OW  223   2.297   1.892   0.878 -0.0792 -0.4312 -0.2715
   75SOL    HW1  224   2.246   1.842   0.953 -0.8616 -0.0819  0.0696
   75SOL    HW2  225   2.392   1.859   0.855  2.3700 -0.2355  0.6631
   76SOL     OW  226   1.948   2.301   1.509  0.1521  0.5182 -0.3202
   76SOL    HW1  227   2.022   2.375   1.481 -0.2693  3.9972 -1.5687
   76SOL    HW2  228   1.992   2.224   1.558  1.1664 -1.2430 -0.9231
   77SOL     OW  229   2.522   3.027   2.050 -0.2149  0.4617  0.0181
   77SOL    HW1  230   2.525   0.051   2.032  0.7542  0.1025  3.2384
   77SOL    HW2  231   2.615   2.987   2.058 -2.6617  0.4461 -1.3257
   78SOL     OW  232   1.604   0.962   0.020 -0.2808  0.1828 -0.0985
   78SOL    HW1  233   1.533   0.912   0.077 -0.2618 -2.2513 -0.3341
   78SOL    HW2  234   1.665   0.890   3.053  3.4330 -1.8462  0.9419
   79SOL     OW  235   2.249   1.429   2.344  0.3530  1.0561 -1.1585
   79SOL    HW1  236   2.332   1.486   2.320  0.3389  1.4303 -1.4107
   79SOL    HW2  237   2.178   1.485   2.392 -1.9771  0.8126 -0.6226
   80SOL     OW  238   2.103   1.656   1.471  0.7324  0.3292 -0.3108
   80SOL    HW1  239   2.112   1.561   1.491  1.1229  0.6351  0.0164
   80SOL    HW2  240   2.105   1.711   1.556 -0.1718 -0.4495 -1.4596
   81SOL     OW  241   1.665   0.561   1.329  0.1511 -0.4714  0.2022
   81SOL    HW1  242   1.680   0.661   1.312  0.7536  1.0848  1.5436
   81SOL    HW2  243   1.566   0.538   1.326  1.7731 -0.8304 -0.1870
   82SOL     OW  244   1.682   2.466   1.513  0.8783 -0.1843  0.3704
   82SOL    HW1  245   1.688   2.379   1.457 -1.3827 -0.9872 -0.1460
   82SOL    HW2  246   1.769   2.483   1.556 -4.1644  0.3374 -3.3433
   83SOL     OW  247   3.041   0.013   0.491 -0.6388 -0.4825  1.1355
   83SOL    HW1  248   0.019   0.101   0.491 -1.1901  0.8759 -4.2687
   83SOL    HW2  249   3.006   0.005   0.392 -2.1763 -0.1678 -0.8137
   84SOL     OW  250   0.419   1.018   0.302  0.4363  0.7406 -0.0845
   84SOL    HW1  251   0.428   0.940   0.365  0.2139  2.7008  1.2442
   84SOL    HW2  252   0.512   1.039   0.259  1.2378 -2.2783 -1.7629
   85SOL     OW  253   2.810   1.961   1.540 -0.1961 -0.1562  0.7801
   85SOL    HW1  254   2.895   1.980   1.599  0.5650  2.0423 -0.0256
   85SOL    HW2  255   2.729   1.932   1.599 -0.4466  0.5967 -0.5972
   86SOL     OW  256   0.030   2.664   1.339  0.1159  0.6821  0.4945
   86SOL    HW1  257   0.099   2.593   1.309 -1.0057 -2.0503 -1.1833
   86SOL    HW2  258   0.078   2.755   1.345  2.8623 -0.6927  0.2433
   87SOL     OW  259   0.467   0.091   2.067 -0.3110  0.2014 -0.1106
   87SOL    HW1  260   0.524   0.063   1.989 -0.1315  1.0595 -2.0391
   87SOL    HW2  261   0.523   0.132   2.138  2.7206  1.0898 -1.0842
   88SOL     OW  262   0.503   2.210   0.941  0.0838  0.4702 -0.0828
   88SOL    HW1  263   0.579   2.275   0.918 -1.4959  0.0053 -1.2258
   88SOL    HW2  264   0.484   2.154   0.857 -0.2234  1.5989 -0.0529
   89SOL     OW  265   0.900   0.636   1.610 -0.4728 -0.2054 -0.6455
   89SOL    HW1  266   1.001   0.637   1.627  1.4900  0.5277 -1.2473
   89SOL    HW2  267   0.867   0.548   1.556 -2.8250 -1.6189 -1.3459
   90SOL     OW  268   2.781   0.858   1.744  0.1866  0.3674 -0.6069
   90SOL    HW1  269   2.823   0.775   1.789  2.7928 -2.6962  1.6063
   90SOL    HW2  270   2.747   0.927   1.817 -0.3430  0.3304  1.9449
   91SOL     OW  271   1.385   1.041   1.083  0.2734  0.3174  0.0511
   91SOL    HW1  272   1.385   0.983   0.997 -1.5912 -0.7409  0.4228
   91SOL    HW2  273   1.453   1.118   1.084  1.9721 -1.1495  0.3690
   92SOL     OW  274   2.420   1.171   1.031  0.0980 -0.1994  0.0244
   92SOL    HW1  275   2.397   1.228   0.951 -0.4961  2.6987  2.1873
   92SOL    HW2  276   2.365   1.085   1.023 -0.8547  1.8084 -1.8674
   93SOL     OW  277   2.413   0.658   2.569 -0.1927 -0.8690  0.0555
   93SOL    HW1  278   2.454   0.612   2.486  1.5791 -1.9156  2.9821
   93SOL    HW2  279   2.367   0.743   2.539 -1.4021 -1.0662 -0.8564
   94SOL     OW  280   2.280   1.828   2.508  0.2292 -0.0792 -0.0036
   94SOL    HW1  281   2.254   1.850   2.408 -2.0503  2.0966 -1.3113
   94SOL    HW2  282   2.273   1.915   2.564 -1.4365  0.0545  3.1083
   95SOL     OW  283   2.129   0.451   1.006 -0.9096 -0.3262  0.2252
   95SOL    HW1  284   2.099   0.372   1.066  1.4455 -1.9058  0.8382
   95SOL    HW2  285   2.181   0.516   1.064 -1.8791  1.8721  0.2472
   96SOL     OW  286   2.636   2.852   1.797 -0.3013  0.1333 -0.4132
   96SOL    HW1  287   2.540   2.828   1.821  2.7769  3.7619 -1.0539
   96SOL    HW2  288   2.639   2.937   1.739 -0.5109  0.7392 -0.6075
   97SOL     OW  289   2.376   0.799   1.309 -0.3576  0.7611 -0.7874
   97SOL    HW1  290   2.464   0.849   1.289 -2.6863  4.3274  1.1677
   97SOL    HW2  291   2.381   0.766   1.402 -0.5850  0.5035 -3.0067
   98SOL     OW  292   1.377   2.091   1.654 -0.3392  0.2046 -0.2967
   98SOL    HW1  293   1.291   2.079   1.709 -1.3635 -0.1656  1.1589
   98SOL    HW2  294   1.371   2.185   1.609 -0.7900  0.3082 -1.7312
   99SOL     OW  295   3.046   2.283   1.570  0.0268  0.3997  0.3461
   99SOL    HW1  296   2.952   2.303   1.617 -2.3450  1.4585 -0.6363
   99SOL    HW2  297   0.045   2.331   1.623  1.6077 -3.2291 -0.9881
  100SOL     OW  298   0.843   0.966   2.867 -0.2744  0.2162  0.3766
  100SOL    HW1  299   0.799   0.945   2.956 -2.2001  0.5521 -0.6319
  100SOL    HW2  300   0.926   1.023   2.888  4.5071  1.9342  1.5010
  101SOL     OW  301   2.153   0.325   2.781  0.5029 -0.1141  0.4335
  101SOL    HW1  302   2.105   0.234   2.792 -0.8613  0.7372 -1.4294
  101SOL    HW2  303   2.107   0.392   2.847 -2.2425  0.2920  3.3264
  102SOL     OW  304   0.595   0.523   1.676 -0.0355 -0.3810  0.2526
  102SOL    HW1  305   0.561   0.623   1.678  2.1285  2.6075 -0.3318
  102SOL    HW2  306   0.592   0.483   1.771  1.5218 -0.6679  1.7327
  103SOL     OW  307   0.475   0.329   2.930  0.0507  0.2162 -0.7023
  103SOL    HW1  308   0.536   0.402   2.901  0.9760  0.4126  0.8008
  103SOL    HW2  309   0.397   0.321   2.867 -0.1755 -1.4957  2.3453
  104SOL     OW  310   1.016   0.337   2.572  0.3472 -0.0755 -0.1327
  104SOL    HW1  311   1.010   0.366   2.674 -3.3427  1.4326  3.3753
  104SOL    HW2  312   1.008   0.236   2.563  0.8154 -1.4479  3.5851
  105SOL     OW  313   2.302   1.984   1.758 -0.2469 -0.0770 -0.1472
  105SOL    HW1  314   2.268   1.886   1.743  1.6786 -0.0168 -0.4732
  105SOL    HW2  315   2.390   1.981   1.808 -0.5563  0.0090  1.0567
  106SOL     OW  316   1.740   0.569   0.445 -0.4809  0.3265 -0.1002
  106SOL    HW1  317   1.714   0.472   0.441  0.8497 -3.0706 -0.3969
  106SOL    HW2  318   1.841   0.576   0.469  1.9166 -0.8965 -0.0102
  107SOL     OW  319   2.952   1.862   0.914  0.0126  0.1543 -0.1073
  107SOL    HW1  320   2.922   1.959   0.938  1.1556 -0.4577 -2.1056
  107SOL    HW2  321   3.053   1.848   0.904  0.3528 -0.9335 -0.6628
  108SOL     OW  322   2.604   2.582   1.430  0.1440 -0.1116 -0.0200
  108SOL    HW1  323   2.652   2.644   1.493 -1.0102 -1.7341  3.0064
  108SOL    HW2  324   2.661   2.523   1.372  0.2159 -2.2422  0.0144
  109SOL     OW  325   2.070   2.805   0.909  0.2249  0.1046  0.1749
  109SOL    HW1  326   1.982   2.747   0.904 -1.1832 -1.4313  1.1236
  109SOL    HW2  327   2.058   2.892   0.955  1.3163  1.1536 -1.8975
  110SOL     OW  328   0.672   1.886   2.470 -0.4913  0.5818 -0.0506
  110SOL    HW1  329   0.596   1.939   2.424 -0.9893  0.4339  0.1114
  110SOL    HW2  330   0.644   1.880   2.569 -2.3175 -1.6178 -1.5701
  111SOL     OW  331   1.744   2.288   1.878  0.0834  0.2019  0.7158
  111SOL    HW1  332   1.643   2.287   1.858  1.8121 -0.2026 -0.1194
  111SOL    HW2  333   1.785   2.195   1.859  3.9436 -0.8366 -0.0845
  112SOL     OW  334   2.193   1.951   3.055 -0.4923  0.1235  0.0111
  112SOL    HW1  335   2.225   1.995   0.065 -2.6857 -0.3300  1.6688
  112SOL    HW2  336   2.120   2.008   3.008 -0.7193 -0.0427 -1.2730
  113SOL     OW  337   1.685   1.943   1.383 -0.2000  0.0435  0.8005
  113SOL    HW1  338   1.755   1.883   1.342  1.4611  0.7441 -2.0022
  113SOL    HW2  339   1.631   1.893   1.452 -2.9986 -0.2266 -0.5189
  114SOL     OW  340   2.834   1.133   0.579 -0.3200 -0.5626 -0.0643
  114SOL    HW1  341   2.826   1.167   0.679  1.9838  1.4207 -0.1389
  114SOL    HW2  342   2.744   1.123   0.532  1.7376 -2.9760 -0.3985
  115SOL     OW  343   0.677   0.717   0.220  0.1629 -0.1148 -0.0565
  115SOL    HW1  344   0.607   0.719   0.145  3.2911  1.6577 -0.5603
  115SOL    HW2  345   0.623   0.700   0.305 -1.9946  0.7485 -2.1222
  116SOL     OW  346   2.505   1.523   2.371 -0.3881  0.1355 -0.3626
  116SOL    HW1  347   2.541   1.462   2.446 -1.6355 -0.3087  0.1614
  116SOL    HW2  348   2.508   1.619   2.406  2.5406  1.2742  0.1213
  117SOL     OW  349   0.050   2.929   0.759  0.0186 -0.4481  0.1009
  117SOL    HW1  350   0.025   2.961   0.668  1.5753 -0.1826  2.1625
  117SOL    HW2  351   3.051   2.868   0.799 -2.2596  0.0146  0.7858
  118SOL     OW  352   1.050   1.804   2.724 -0.1092 -0.1254  0.5090
  118SOL    HW1  353   1.121   1.778   2.791 -1.7402 -1.0699 -1.1890
  118SOL    HW2  354   0.960   1.803   2.769  1.9905 -0.6243 -0.6187
  119SOL     OW  355   0.483   2.198   0.340 -0.0304 -0.5697 -0.2191
  119SOL    HW1  356   0.553   2.238   0.404  2.4887  0.0213 -1.0588
  119SOL    HW2  357   0.407   2.263   0.328 -2.1604 -1.1144  0.6184
  120SOL     OW  358   1.199   0.770   3.073 -0.1151  0.2435  0.0913
  120SOL    HW1  359   1.215   0.789   2.972  0.6912  2.5840 -2.7611
  120SOL    HW2  360   1.122   0.826   0.030 -0.3389 -1.2520  1.2249
  121SOL     OW  361   1.371   2.669   0.633 -0.1459  0.4915 -0.4861
  121SOL    HW1  362   1.449   2.609   0.657 -1.5597  0.5322  0.9314
  121SOL    HW2  363   1.381   2.707   0.539 -0.7454 -0.0177 -0.9072
  122SOL     OW  364   2.157   2.490   1.435 -0.5867  0.0667 -0.2675
  122SOL    HW1  365   2.203   2.555   1.503  1.1813  1.2966  2.0396
  122SOL    HW2  366   2.150   2.537   1.342 -0.0679  2.2580 -1.7326
  123SOL     OW  367   0.799   2.090   0.645 -0.1823 -0.5004  0.3880
  123SOL    HW1  368   0.763   2.183   0.642 -0.1023 -0.3586  1.6701
  123SOL    HW2  369   0.769   2.045   0.560  0.2443 -0.4633  0.4592
  124SOL     OW  370   2.523   0.741   0.108  0.1883  0.3993  0.3035
  124SOL    HW1  371   2.525   0.665   0.040 -0.0341 -1.9186 -0.4364
  124SOL    HW2  372   2.582   0.717   0.193  1.3023 -0.4038  0.2710
  125SOL     OW  373   0.433   0.872   0.529 -0.2432  0.4658 -0.2412
  125SOL    HW1  374   0.464   0.888   0.624 -1.1156  1.0215  0.6764
  125SOL    HW2  375   0.399   0.775   0.515 -4.1570  0.2997  0.2311
  126SOL     OW  376   0.209   1.714   1.063 -0.1662  0.4549 -0.1419
  126SOL    HW1  377   0.287   1.665   1.112  1.5200 -0.3292  1.5080
  126SOL    HW2  378   0.154   1.747   1.138  0.0755 -0.7764 -2.4560
  127SOL     OW  379   1.132   2.012   2.053  0.0033 -0.0549  0.2872
  127SOL    HW1  380   1.060   1.942   2.043 -0.0612 -1.2239  0.1333
  127SOL    HW2  381   1.145   2.064   1.966  1.2554 -1.4897  1.1965
  128SOL     OW  382   1.132   1.033   0.360  0.2548  0.2594 -0.0176
  128SOL    HW1  383   1.227   1.020   0.348 -1.7758  0.2350  1.7672
  128SOL    HW2  384   1.111   1.135   0.366 -2.1192  0.3542 -0.2149
  129SOL     OW  385   2.238   1.205   0.670  0.0660  0.3359 -0.0438
  129SOL    HW1  386   2.267   1.288   0.719 -1.6741 -0.8756 -0.7376
  129SOL    HW2  387   2.222   1.225   0.570 -1.9614 -4.1857  4.2100
  130SOL     OW  388   2.567   1.582   1.368 -0.8970  0.3749 -0.1253
  130SOL    HW1  389   2.668   1.574   1.343 -0.3384  3.4945  0.6576
  130SOL    HW2  390   2.512   1.514   1.313 -0.1119 -0.8094 -1.4600
  131SOL     OW  391   3.048   2.736   2.818  0.2181 -0.7517  0.0084
  131SOL    HW1  392   3.072   2.801   2.895  0.1657  1.8863  1.6374
  131SOL    HW2  393   0.005   2.774   2.730  2.0268  0.6596  0.8569
  132SOL     OW  394   0.267   1.465   0.733 -0.2932  0.2766  0.3865
  132SOL    HW1  395   0.325   1.457   0.644  0.7117  0.3600 -1.6581
  132SOL    HW2  396   0.227   1.377   0.755  2.9389  0.2923  0.3461
  133SOL     OW  397   0.768   0.404   1.519  0.2223 -0.7604 -0.3833
  133SOL    HW1  398   0.698   0.472   1.563 -1.5800 -0.9643  3.4690
  133SOL    HW2  399   0.819   0.347   1.591  3.4529 -1.8679 -0.8450
  134SOL     OW  400   0.184   1.845   2.906  0.0530 -0.0290  0.3700
  134SOL    HW1  401   0.186   1.914   2.983 -2.1608  1.8109  1.2679
  134SOL    HW2  402   0.174   1.886   2.814  1.3568  1.4528 -1.9178
  135SOL     OW  403   1.692   0.526   1.709 -0.1099 -0.2794  0.3992
  135SOL    HW1  404   1.764   0.528   1.636 -0.7802  2.1370  1.8253
  135SOL    HW2  405   1.650   0.617   1.725 -2.3471  0.4574  0.1721
  136SOL     OW  406   2.919   1.245   0.218  0.4881  0.0201 -0.7642
  136SOL    HW1  407   2.950   1.269   0.311  1.3851 -1.5597 -0.4120
  136SOL    HW2  408   2.832   1.197   0.224 -0.3212 -1.8160 -0.5123
  137SOL     OW  409   0.111   1.216   1.015  0.2704 -0.6747 -0.2312
  137SOL    HW1  410   0.146   1.206   0.918 -0.0078  0.6043 -1.3650
  137SOL    HW2  411   0.093   1.317   1.031 -2.3598 -0.9468 -0.5991
  138SOL     OW  412   2.084   0.786   1.154  0.0958  0.2746 -0.2183
  138SOL    HW1  413   2.174   0.745   1.121 -1.1683  1.3296  0.9473
  138SOL    HW2  414   2.005   0.757   1.095 -2.8957 -0.1439  0.4554
  139SOL     OW  415   1.415   2.762   0.376  0.3089  0.1427 -0.0788
  139SOL    HW1  416   1.443   2.667   0.352  2.4498  0.0710  0.2134
  139SOL    HW2  417   1.327   2.788   0.334 -0.6921 -0.0624  2.5703
  140SOL     OW  418   1.410   1.441   1.732  0.7147  0.0244  0.2795
  140SOL    HW1  419   1.395   1.540   1.767  1.6650  1.0868  2.3507
  140SOL    HW2  420   1.325   1.393   1.702 -0.6393 -0.4849  0.4289
  141SOL     OW  421   1.505   2.079   0.317 -0.1399 -0.7055 -0.1490
  141SOL    HW1  422   1.569   2.053   0.391 -0.6871  1.5236  0.3638
  141SOL    HW2  423   1.470   1.994   0.275 -1.1289 -0.5009  2.2986
  142SOL     OW  424   1.099   0.497   0.241  0.1949 -0.1526 -0.0397
  142SOL    HW1  425   1.131   0.483   0.145 -1.5847  3.1334  0.2324
  142SOL    HW2  426   1.030   0.567   0.232  0.8178  0.1083 -0.6478
  143SOL     OW  427   0.415   1.962   2.703 -0.0646 -0.1869 -0.2307
  143SOL    HW1  428   0.359   1.999   2.779 -1.5434 -0.1528 -0.5862
  143SOL    HW2  429   0.396   2.009   2.615 -1.6259  2.3970 -2.6784
  144SOL     OW  430   1.562   2.783   1.123 -0.3559 -0.1579  0.2530
  144SOL    HW1  431   1.514   2.717   1.187  0.2993  0.1448  0.0905
  144SOL    HW2  432   1.613   2.739   1.045  1.1147 -0.3931  0.6313
  145SOL     OW  433   1.769   0.961   2.773 -0.0631 -0.1374 -0.1314
  145SOL    HW1  434   1.856   0.939   2.826  1.5772  1.8003  0.7569
  145SOL    HW2  435   1.686   0.970   2.831  1.6694 -0.4666 -0.6609
  146SOL     OW  436   0.308   2.497   0.839 -0.2159  0.0875  0.2679
  146SOL    HW1  437   0.264   2.575   0.790  0.4416 -0.2282  0.3752
  146SOL    HW2  438   0.249   2.416   0.830  1.3570 -0.4726  0.2423
  147SOL     OW  439   2.227   2.997   1.775 -0.3265  0.3030  0.3878
  147SOL    HW1  440   2.151   2.996   1.839 -0.5008 -0.7657 -1.6764
  147SOL    HW2  441   2.283   0.007   1.793  1.3076  1.2340  0.2754
  148SOL     OW  442   0.708   2.944   2.043  0.1295 -0.1391  0.4187
  148SOL    HW1  443   0.782   3.000   1.995  2.8506  0.0538 -2.0106
  148SOL    HW2  444   0.667   2.892   1.966  0.7955  1.6179 -1.8467
  149SOL     OW  445   1.787   0.237   2.511 -0.1034 -0.1711 -0.0126
  149SOL    HW1  446   1.711   0.174   2.541 -1.9273 -1.2746 -2.6199
  149SOL    HW2  447   1.755   0.289   2.429  0.0880 -0.1854 -0.1782
  150SOL     OW  448   2.971   0.037   0.245  0.2290  0.0442  0.0487
  150SOL    HW1  449   2.910   3.059   0.189 -0.9571  1.8280 -0.0471
  150SOL    HW2  450   2.975   0.139   0.229  2.0352  1.6693  3.5093
  151SOL     OW  451   0.501   1.812   0.531 -0.0849  0.1135 -0.5040
  151SOL    HW1  452   0.464   1.791   0.622 -0.5728  0.2277 -0.7312
  151SOL    HW2  453   0.436   1.781   0.458  0.0028  1.2429  0.7304
  152SOL     OW  454   2.975   0.404   0.397 -0.1066  0.1148 -0.8266
  152SOL    HW1  455   3.050   0.376   0.462  0.9692 -1.7880  0.3665
  152SOL    HW2  456   2.928   0.491   0.432 -0.3834 -0.3502  0.7086
  153SOL     OW  457   2.649   0.393   1.283  0.0398 -0.1261  0.0953
  153SOL    HW1  458   2.720   0.323   1.263 -0.5167  1.3851 -0.1198
  153SOL    HW2  459   2.603   0.437   1.198 -0.8684  1.9972 -0.3499
  154SOL     OW  460   1.127   3.007   2.039 -0.1229 -0.4106  0.0784
  154SOL    HW1  461   1.192   0.012   2.045  1.0492  0.3595  0.4572
  154SOL    HW2  462   1.173   2.923   2.031  0.3433  2.4392 -1.3977
  155SOL     OW  463   0.564   1.963   1.066 -0.4671 -0.3061  0.3885
  155SOL    HW1  464   0.501   2.043   1.050 -0.3872  0.1790 -2.8821
  155SOL    HW2  465   0.635   1.979   1.137  1.6915 -0.7575 -1.4799
  156SOL     OW  466   2.268   2.105   0.192 -0.3606 -0.3636 -0.6618
  156SOL    HW1  467   2.223   2.193   0.165 -0.9509 -1.7545 -1.7069
  156SOL    HW2  468   2.216   2.060   0.269 -0.0899 -0.1369  1.7139
  157SOL     OW  469   0.958   0.737   0.291 -0.3873  0.0541 -0.0646
  157SOL    HW1  470   0.929   0.810   0.350  0.6593 -3.7342 -0.9214
  157SOL    HW2  471   0.869   0.697   0.264  2.4418 -1.2052  0.0461
  158SOL     OW  472   2.470   0.028   2.736  0.5126  0.1572  0.1957
  158SOL    HW1  473   2.501   0.057   2.826  0.2245  0.7958 -1.1217
  158SOL    HW2  474   2.424   0.099   2.686 -0.1584  0.4692  2.2169
  159SOL     OW  475   0.085   0.327   0.793 -0.0189 -0.1988  0.5886
  159SOL    HW1  476   0.103   0.321   0.695  0.3743 -0.8212  1.2378
  159SOL    HW2  477   0.111   0.237   0.841  1.2243 -0.2908  2.5105
  160SOL     OW  478   1.437   1.819   2.320  0.1434 -0.2955  0.0119
  160SOL    HW1  479   1.414   1.756   2.399 -0.7199 -1.6517  2.3021
  160SOL    HW2  480   1.383   1.905   2.320  1.3270 -0.2308 -0.2037
  161SOL     OW  481   2.800   0.955   2.608  0.2266 -0.1737  0.2641
  161SOL    HW1  482   2.813   0.859   2.586 -0.1999 -0.5226 -0.9928
  161SOL    HW2  483   2.866   0.980   2.688 -2.2066  0.3833  1.1624
  162SOL     OW  484   0.537   2.305   1.458 -0.0868  0.0244 -0.1003
  162SOL    HW1  485   0.538   2.217   1.515 -0.7270 -2.5962 -0.0287
  162SOL    HW2  486   0.559   2.285   1.357 -0.4577 -2.7310 -4.8239
  163SOL     OW  487   1.988   0.047   2.409 -0.1983 -0.0149  0.1545
  163SOL    HW1  488   2.042   0.026   2.322  1.9072  1.9872 -0.8822
  163SOL    HW2  489   2.050   0.087   2.477 -0.2670  0.0988 -1.1923
  164SOL     OW  490   1.941   1.704   0.365 -0.1656 -0.2403 -0.2951
  164SOL    HW1  491   1.865   1.758   0.402  0.5074 -2.3456  0.7753
  164SOL    HW2  492   1.899   1.636   0.303  0.2126 -0.0353  1.5036
  165SOL     OW  493   2.984   0.362   1.434 -0.3832 -0.0034  0.5470
  165SOL    HW1  494   3.037   0.438   1.393 -0.4418 -0.2884  0.7892
  165SOL    HW2  495   2.927   0.312   1.365 -4.2249 -1.8083 -0.8902
  166SOL     OW  496   1.952   0.988   3.004  0.4661 -0.5364 -0.7739
  166SOL    HW1  497   2.050   0.970   3.040  1.1485  1.6672  0.0687
  166SOL    HW2  498   1.932   1.087   3.011  0.3136 -0.9368 -1.1901
  167SOL     OW  499   2.906   0.836   0.104 -0.2204  0.0160 -0.2837
  167SOL    HW1  500   2.869   0.741   0.081  0.1337 -1.1827 -0.2156
  167SOL    HW2  501   2.985   0.859   0.047  0.2371 -0.2191  0.2308
  168SOL     OW  502   1.655   2.867   2.637 -0.0861  0.0933  0.1675
  168SOL    HW1  503   1.565   2.884   2.679 -0.6940 -0.8126  1.7238
  168SOL    HW2  504   1.730   2.890   2.698 -1.1356 -1.7477  1.1390
  169SOL     OW  505   0.340   1.448   0.441 -0.3440 -0.2943 -0.6387
  169SOL    HW1  506   0.438   1.436   0.412 -0.1659 -1.5004  0.4318
  169SOL    HW2  507   0.287   1.367   0.414  1.0015  0.0197  0.9660
  170SOL     OW  508   0.383   0.325   1.251 -0.3817 -0.3576 -0.5544
  170SOL    HW1  509   0.417   0.373   1.336 -0.3654 -0.0260 -0.0767
  170SOL    HW2  510   0.456   0.262   1.210  1.2129 -1.0035  0.0010
  171SOL     OW  511   1.214   2.238   2.872  0.3825  0.2102  0.4461
  171SOL    HW1  512   1.204   2.182   2.785 -0.4500  0.5774 -2.1429
  171SOL    HW2  513   1.211   2.333   2.834  0.8237 -0.3161 -0.4747
  172SOL     OW  514   2.888   2.754   1.188 -0.5307 -0.1425 -0.7425
  172SOL    HW1  515   2.854   2.673   1.137  0.4511  1.1415 -0.3973
  172SOL    HW2  516   2.971   2.731   1.242  0.7780 -0.8106  3.0496
  173SOL     OW  517   1.520   0.741   2.798  0.0000 -0.2339  0.2315
  173SOL    HW1  518   1.594   0.737   2.871  0.3477 -0.9429 -1.2703
  173SOL    HW2  519   1.547   0.698   2.706  0.9207 -0.5555 -0.8392
  174SOL     OW  520   1.112   0.089   2.934  0.3183 -0.1494 -0.6000
  174SOL    HW1  521   1.073   0.019   3.000  0.7275 -0.5320 -2.1338
  174SOL    HW2  522   1.209   0.097   2.953 -2.2061  1.0697  0.7471
  175SOL     OW  523   2.186   1.975   0.633  0.1526  0.3223  0.0849
  175SOL    HW1  524   2.156   2.074   0.624  1.2443  0.9070 -0.5803
  175SOL    HW2  525   2.243   1.962   0.715  0.4851  1.9892 -0.0366
  176SOL     OW  526   1.414   0.033   2.977  0.4097 -0.8149 -0.1051
  176SOL    HW1  527   1.434   0.092   3.058  0.9672  2.8001  0.9784
  176SOL    HW2  528   1.359   3.030   3.009 -2.4307 -0.4521  1.4255
  177SOL     OW  529   1.001   1.530   0.319  0.3056  0.7620 -0.2785
  177SOL    HW1  530   1.013   1.632   0.316 -0.9009  0.1198  0.0309
  177SOL    HW2  531   1.048   1.484   0.244 -1.4386 -0.8779  0.9162
  178SOL     OW  532   2.449   2.396   2.956  0.0718 -0.1950  0.3798
  178SOL    HW1  533   2.426   2.489   2.923  0.0644 -0.7265 -2.0826
  178SOL    HW2  534   2.475   2.393   3.058 -0.0485 -1.1211  2.5156
  179SOL     OW  535   2.592   2.838   2.883  0.7760 -0.0512 -0.0253
  179SOL    HW1  536   2.515   2.782   2.842 -0.4871  1.2634 -0.3666
  179SOL    HW2  537   2.666   2.864   2.815  0.4781  2.0500 -1.6305
  180SOL     OW  538   1.634   1.565   0.896 -0.6017  0.8127 -0.0930
  180SOL    HW1  539   1.652   1.621   0.978 -2.1275 -0.8068 -0.7034
  180SOL    HW2  540   1.595   1.477   0.925  1.5619  0.1168  0.2782
  181SOL     OW  541   1.828   0.744   2.333  0.0396  0.1345  0.1589
  181SOL    HW1  542   1.816   0.844   2.347 -1.5048  0.3496 -0.7726
  181SOL    HW2  543   1.734   0.713   2.297 -1.0336  0.1493 -2.2884
  182SOL     OW  544   2.566   2.994   2.477  0.1903  0.0243 -0.1171
  182SOL    HW1  545   2.663   2.965   2.469  0.9281 -1.3016 -1.8537
  182SOL    HW2  546   2.539   3.024   2.569  0.8768  0.2946 -2.6687
  183SOL     OW  547   1.584   0.597   2.245 -0.2743  0.0571 -0.5330
  183SOL    HW1  548   1.527   0.582   2.165  0.2794 -0.0534 -2.5869
  183SOL    HW2  549   1.640   0.512   2.267  2.3101  0.5177  0.7493
  184SOL     OW  550   0.139   1.128   1.271 -0.6150 -0.4288  0.3319
  184SOL    HW1  551   0.128   1.130   1.165 -1.7965 -0.3777 -1.9035
  184SOL    HW2  552   0.156   1.033   1.305 -1.1051  0.8656 -0.5372
  185SOL     OW  553   2.006   0.525   0.487 -0.4987 -0.6420 -0.1169
  185SOL    HW1  554   2.089   0.558   0.535 -1.4336  1.9547 -1.7280
  185SOL    HW2  555   1.987   0.430   0.505  1.3137  1.4763 -2.9626
  186SOL     OW  556   0.412   2.566   2.961  0.7877 -0.3080  0.3126
  186SOL    HW1  557   0.452   2.522   3.044 -0.0399 -0.0925 -3.3250
  186SOL    HW2  558   0.409   2.666   2.971 -0.2337 -1.8985 -0.0083
  187SOL     OW  559   2.261   0.906   2.778  0.0566  0.6918  0.5680
  187SOL    HW1  560   2.275   0.914   2.679  0.6975  0.0610  1.3182
  187SOL    HW2  561   2.349   0.903   2.829 -3.6687 -1.2360 -3.8320
  188SOL     OW  562   0.005   1.431   1.301 -0.2450 -0.5395 -0.2371
  188SOL    HW1  563   3.050   1.333   1.315  1.8316 -0.1047  1.5406
  188SOL    HW2  564   0.075   1.461   1.371 -0.8110 -0.7502 -1.2747
  189SOL     OW  565   2.631   0.364   2.935 -0.1752  0.2814 -0.1469
  189SOL    HW1  566   2.646   0.396   2.842 -1.7234  1.9245  0.5152
  189SOL    HW2  567   2.550   0.412   2.975 -1.1523  0.9985 -0.1435
  190SOL     OW  568   1.422   1.079   1.811  0.4360 -0.3227 -0.3578
  190SOL    HW1  569   1.449   1.068   1.908 -1.7965  0.3460 -1.8509
  190SOL    HW2  570   1.489   1.030   1.755 -0.5593 -1.1515  1.2990
  191SOL     OW  571   0.226   0.435   1.897  0.5162 -0.2157  0.5820
  191SOL    HW1  572   0.199   0.426   1.792  0.0684  1.0641 -1.3049
  191SOL    HW2  573   0.164   0.508   1.933 -0.0656  3.0141  1.1457
  192SOL     OW  574   1.924   1.444   1.115 -0.3619 -0.0848  0.1004
  192SOL    HW1  575   1.893   1.404   1.026 -1.4432 -2.6086 -1.3104
  192SOL    HW2  576   1.935   1.546   1.106 -1.6026  1.7971 -1.2578
  193SOL     OW  577   1.579   0.764   1.019 -0.0583  0.3283 -0.1407
  193SOL    HW1  578   1.533   0.829   0.954  0.5200  1.9358  0.3799
  193SOL    HW2  579   1.538   0.668   1.009 -0.3450 -1.1967 -0.6649
  194SOL     OW  580   0.902   2.367   1.785 -0.2303  0.2389 -0.3833
  194SOL    HW1  581   0.974   2.423   1.739 -0.3683 -1.9878  0.7968
  194SOL    HW2  582   0.872   2.297   1.721  2.6727  0.4277  1.1276
  195SOL     OW  583   1.967   0.056   2.965  0.5911 -0.2170 -0.3934
  195SOL    HW1  584   1.965   0.083   2.865  0.0241  1.8026  1.5749
  195SOL    HW2  585   2.057   0.030   2.993 -5.5011  3.2855  0.3587
  196SOL     OW  586   0.752   1.996   1.874  0.1213  0.5784  0.7726
  196SOL    HW1  587   0.815   1.967   1.799  0.9391 -3.4867 -0.3149
  196SOL    HW2  588   0.756   1.926   1.947  3.8501 -0.6195  1.0526
  197SOL     OW  589   1.117   0.206   1.351  0.0872 -0.2172  0.1078
  197SOL    HW1  590   1.166   0.119   1.323 -0.5127  0.4101 -1.3856
  197SOL    HW2  591   1.083   0.258   1.271 -0.0762 -1.9780 -1.4379
  198SOL     OW  592   0.966   0.831   0.965  0.0586 -0.1530  0.6483
  198SOL    HW1  593   0.993   0.826   1.063 -1.9886  0.2662 -0.4143
  198SOL    HW2  594   0.869   0.800   0.964  0.2133  0.2947 -1.7214
  199SOL     OW  595   3.075   2.650   1.641 -0.0293  0.2730 -0.1217
  199SOL    HW1  596   0.034   2.737   1.666  2.9130 -4.8227  0.7374
  199SOL    HW2  597   3.073   2.643   1.540  0.5045 -0.6138 -0.5668
  200SOL     OW  598   1.986   2.098   2.002  0.2986  0.2145  0.5009
  200SOL    HW1  599   1.956   2.052   1.915 -0.6854 -0.6464 -0.9111
  200SOL    HW2  600   2.083   2.132   2.002  2.7875  1.4691 -2.3019
  201SOL     OW  601   0.325   1.439   1.979 -0.0137 -0.6488  0.2031
  201SOL    HW1  602   0.226   1.422   1.963 -0.1810  2.4918  2.4056
  201SOL    HW2  603   0.375   1.390   1.904  1.2486 -1.6179  0.1354
  202SOL     OW  604   2.002   0.536   0.217 -0.0100 -0.3699  0.2525
  202SOL    HW1  605   1.908   0.504   0.194  1.1293  1.6096  0.6207
  202SOL    HW2  606   2.007   0.546   0.320  1.5417  0.6023  0.3977
  203SOL     OW  607   0.935   2.386   2.050 -0.8486  0.0399  0.4971
  203SOL    HW1  608   0.868   2.449   2.095  1.3425 -1.0425 -0.5877
  203SOL    HW2  609   0.916   2.363   1.951 -0.5942 -0.1856  0.4298
  204SOL     OW  610   1.136   2.107   1.802 -0.3362 -0.1152  0.1233
  204SOL    HW1  611   1.051   2.103   1.744 -2.3702  0.6842 -1.1282
  204SOL    HW2  612   1.153   2.202   1.828  1.6755 -0.2507  1.8781
  205SOL     OW  613   1.512   1.703   2.064 -0.4406 -0.0927 -0.2793
  205SOL    HW1  614   1.438   1.684   1.996  2.1331  1.3049 -1.8149
  205SOL    HW2  615   1.474   1.748   2.147 -0.9841 -1.7876 -0.8953
  206SOL     OW  616   0.356   0.717   2.585  0.3646 -0.0604 -0.2060
  206SOL    HW1  617   0.341   0.617   2.592  1.8430  1.8916  1.6843
  206SOL    HW2  618   0.452   0.740   2.598  0.0779 -0.0587 -2.2195
  207SOL     OW  619   0.919   2.785   1.760  0.1502  0.0100  0.1938
  207SOL    HW1  620   0.910   2.873   1.811 -1.0703  3.2526  1.1524
  207SOL    HW2  621   1.004   2.781   1.698  4.0417  0.4355  1.3302
  208SOL     OW  622   0.583   2.806   1.845  0.6695  0.1784 -0.2037
  208SOL    HW1  623   0.607   2.705   1.838 -0.0567  1.6901 -0.1676
  208SOL    HW2  624   0.559   2.846   1.751 -0.3394 -0.0139 -1.5215
  209SOL     OW  625   1.561   0.398   3.006  0.0520 -0.3703 -0.6932
  209SOL    HW1  626   1.649   0.379   2.956  0.8984 -0.6511  0.6174
  209SOL    HW2  627   1.489   0.408   2.938 -0.4839 -2.1175  0.6922
  210SOL     OW  628   2.851   0.633   0.482  0.2434 -0.0317 -0.4107
  210SOL    HW1  629   2.792   0.646   0.563 -1.7350  2.4792 -0.2678
  210SOL    HW2  630   2.869   0.726   0.446  0.9377  0.8343 -0.3334
  211SOL     OW  631   0.767   0.398   1.260 -0.1681 -0.5424 -0.5385
  211SOL    HW1  632   0.760   0.500   1.254  0.8929  0.2708  1.6876
  211SOL    HW2  633   0.758   0.369   1.356  0.6275 -0.2432  0.1535
  212SOL     OW  634   1.391   1.864   1.253 -0.0755 -0.0131 -0.4599
  212SOL    HW1  635   1.427   1.854   1.157  2.2332 -0.0331 -1.4646
  212SOL    HW2  636   1.447   1.803   1.318 -0.1439  0.3237  1.1883
  213SOL     OW  637   2.150   0.298   1.737 -0.2456  0.0475 -0.0064
  213SOL    HW1  638   2.238   0.253   1.766  4.1632 -1.4412  1.3882
  213SOL    HW2  639   2.155   0.399   1.725  3.3901  1.1709 -2.6250
  214SOL     OW  640   0.886   2.385   2.734 -0.1693 -0.2416 -0.5809
  214SOL    HW1  641   0.836   2.390   2.824 -0.8719  1.8566  2.0024
  214SOL    HW2  642   0.844   2.319   2.675 -0.4322  2.5475 -0.0073
  215SOL     OW  643   3.009   1.452   1.644 -0.3994 -0.0769  0.5144
  215SOL    HW1  644   2.995   1.373   1.579 -4.2338 -1.2349 -1.5597
  215SOL    HW2  645   3.010   1.543   1.595 -0.2436  0.7215  1.0746
  216SOL     OW  646   0.622   1.010   1.548  0.7775 -0.1460  0.0894
  216SOL    HW1  647   0.554   1.065   1.599  1.6075  0.5344 -1.0165
  216SOL    HW2  648   0.575   0.972   1.467 -0.1193  3.4584  2.1631
  217SOL     OW  649   2.668   0.234   0.367  0.0495 -0.0847 -0.2251
  217SOL    HW1  650   2.713   0.187   0.449  1.2006 -0.7818  0.6304
  217SOL    HW2  651   2.729   0.257   0.290  0.5830 -1.4915 -0.8347
  218SOL     OW  652   1.719   2.018   1.080 -0.1483 -0.1455 -0.9559
  218SOL    HW1  653   1.796   2.081   1.063  1.8173  1.3314 -0.1499
  218SOL    HW2  654   1.747   1.959   1.157 -2.5203  0.9323  0.0006
  219SOL     OW  655   1.665   0.086   0.450 -0.0158 -0.6220  0.0863
  219SOL    HW1  656   1.576   0.050   0.413 -1.6182 -0.4621 -0.0123
  219SOL    HW2  657   1.709   0.033   0.526 -2.3030  2.4507  0.5763
  220SOL     OW  658   1.565   2.031   0.817  0.3616 -0.0991 -0.1899
  220SOL    HW1  659   1.507   1.949   0.786 -0.8611 -2.2476 -1.3819
  220SOL    HW2  660   1.612   2.018   0.906  0.1231  0.1412  0.6639
  221SOL     OW  661   2.661   1.078   0.150 -0.3019  0.1909  0.4800
  221SOL    HW1  662   2.587   1.129   0.095 -2.2997 -0.4119  0.9496
  221SOL    HW2  663   2.720   1.021   0.099 -4.0234  0.5637 -1.0062
  222SOL     OW  664   0.820   2.465   1.296  0.3710  0.3387  0.0946
  222SOL    HW1  665   0.778   2.509   1.372  2.6462  1.8640 -1.8062
  222SOL    HW2  666   0.916   2.493   1.282  1.7792 -1.6714  0.7443
  223SOL     OW  667   1.405   0.240   0.080 -0.3940 -0.5241  0.7967
  223SOL    HW1  668   1.405   0.308   0.156 -0.4726  0.8932 -3.0564
  223SOL    HW2  669   1.451   0.278   3.073  1.1466 -0.4610 -1.7120
  224SOL     OW  670   2.763   0.900   1.017  0.4094  0.0736  0.1090
  224SOL    HW1  671   2.687   0.888   1.080  2.7908  1.2770  1.9772
  224SOL    HW2  672   2.817   0.985   1.044 -0.6702  1.4812 -0.1587
  225SOL     OW  673   0.777   1.536   1.457  0.8781  0.0219  0.1557
  225SOL    HW1  674   0.856   1.523   1.393  0.2742  2.3423  1.2720
  225SOL    HW2  675   0.716   1.455   1.445  0.7760 -0.5931 -1.7972
  226SOL     OW  676   0.812   2.799   0.686  0.7127  0.1037 -0.0072
  226SOL    HW1  677   0.782   2.799   0.590  0.7540 -0.4176 -0.2411
  226SOL    HW2  678   0.821   2.707   0.731 -0.4689  1.3765  1.3214
  227SOL     OW  679   1.150   1.793   1.614  0.0014  0.4812  0.3967
  227SOL    HW1  680   1.115   1.706   1.655 -0.6605  1.1635  0.3783
  227SOL    HW2  681   1.245   1.811   1.644  1.5080  1.2988 -0.0967
  228SOL     OW  682   0.900   0.270   1.782 -0.1691 -0.4438 -0.3239
  228SOL    HW1  683   0.819   0.243   1.842 -0.0594 -2.9760  2.8479
  228SOL    HW2  684   0.936   0.189   1.728  1.6237 -1.0605  2.7253
  229SOL     OW  685   2.679   0.647   2.814  0.1661 -0.1238  0.0463
  229SOL    HW1  686   2.577   0.657   2.830 -2.7806  1.9192 -2.2232
  229SOL    HW2  687   2.736   0.631   2.900 -0.3135 -0.6698 -1.7349
  230SOL     OW  688   0.304   0.714   1.378  0.4508 -0.1882 -0.0742
  230SOL    HW1  689   0.280   0.648   1.301 -1.1975  0.7356  0.1903
  230SOL    HW2  690   0.316   0.670   1.467 -0.6592 -0.1824 -1.9715
  231SOL     OW  691   0.900   0.000   1.373  0.2509 -0.3529  0.6711
  231SOL    HW1  692   0.845   3.059   1.290  3.7899 -0.7268 -1.5896
  231SOL    HW2  693   0.958   0.084   1.361  0.2086  1.0681 -2.1033
  232SOL     OW  694   0.030   2.265   0.370  0.0766 -0.1147 -0.2616
  232SOL    HW1  695   0.100   2.194   0.397 -3.9497  2.6853 -1.8687
  232SOL    HW2  696   0.063   2.327   0.293  0.2135  3.1534 -1.2402
  233SOL     OW  697   1.325   2.631   2.955  0.3126  0.8725 -0.2793
  233SOL    HW1  698   1.281   2.588   2.870 -1.2619  0.0193 -1.0240
  233SOL    HW2  699   1.409   2.581   2.976 -1.1469  1.5643 -0.3158
  234SOL     OW  700   0.697   1.028   1.929 -0.1864 -0.1432 -0.4507
  234SOL    HW1  701   0.658   0.950   1.882  0.8394 -0.9003  1.2673
  234SOL    HW2  702   0.699   1.008   2.030 -0.7358  2.0882  1.9310
  235SOL     OW  703   0.050   2.187   2.655  0.1757  0.2641  0.0854
  235SOL    HW1  704   0.121   2.211   2.594 -0.2568 -2.8486 -0.4948
  235SOL    HW2  705   3.070   2.265   2.682  0.6709 -0.6836 -2.9106
  236SOL     OW  706   1.612   2.274   2.700 -0.0439  0.4271 -0.1053
  236SOL    HW1  707   1.545   2.267   2.778 -0.7622  0.4276  1.2285
  236SOL    HW2  708   1.589   2.203   2.636  1.6014  1.1747  1.9135
  237SOL     OW  709   1.957   0.956   0.889 -0.0282 -0.1576  0.0140
  237SOL    HW1  710   1.954   0.865   0.935 -2.5260  2.1599 -0.9130
  237SOL    HW2  711   1.872   0.993   0.841 -0.0749 -1.0453 -2.5608
  238SOL     OW  712   1.070   2.647   1.966  0.2051 -0.1967  1.1902
  238SOL    HW1  713   0.996   2.620   2.029  0.8439  2.6110 -1.0546
  238SOL    HW2  714   1.028   2.686   1.880 -0.3818  0.9399 -0.5523
  239SOL     OW  715   0.506   2.436   1.968 -0.1314 -0.3981  0.1808
  239SOL    HW1  716   0.525   2.336   1.982  0.1999  2.1509  0.6959
  239SOL    HW2  717   0.558   2.466   1.889 -0.6609  0.3947  1.0927
  240SOL     OW  718   2.738   0.125   0.601  0.3662  0.2583 -0.3268
  240SOL    HW1  719   2.762   0.032   0.635 -0.9961 -1.0986  0.2944
  240SOL    HW2  720   2.781   0.210   0.644 -1.9636  3.6142 -0.5979
  241SOL     OW  721   1.249   1.744   2.917 -0.2816  0.4250  0.3260
  241SOL    HW1  722   1.193   1.742   3.001 -0.5489 -0.6084  1.7169
  241SOL    HW2  723   1.303   1.657   2.908 -1.5995 -2.6804  1.0194
  242SOL     OW  724   2.443   0.938   3.011 -0.1110 -0.0311 -0.2194
  242SOL    HW1  725   2.473   0.871   0.007  0.7749  0.6568 -1.4310
  242SOL    HW2  726   2.532   0.982   2.973  0.7453 -0.6508 -0.8532
  243SOL     OW  727   1.004   0.526   2.023 -0.4172  0.5204  0.2134
  243SOL    HW1  728   0.979   0.594   1.956 -0.3057 -1.9090  2.5007
  243SOL    HW2  729   1.014   0.434   1.980 -0.6088  2.3198  0.4759
  244SOL     OW  730   1.583   2.560   3.028 -0.0845  0.2273 -0.2443
  244SOL    HW1  731   1.605   2.656   3.027  2.1289  0.8842 -1.4080
  244SOL    HW2  732   1.619   2.529   0.043  0.1827  0.3870 -1.6319
  245SOL     OW  733   1.692   2.469   0.177 -0.8012  0.0233 -0.6311
  245SOL    HW1  734   1.642   2.385   0.151 -2.4253  3.8936  0.2198
  245SOL    HW2  735   1.780   2.448   0.219 -2.6682  1.1730 -0.8099
  246SOL     OW  736   1.056   0.896   2.275 -0.4126 -0.5127  0.7435
  246SOL    HW1  737   1.143   0.931   2.237 -2.2400  0.2597 -0.3141
  246SOL    HW2  738   1.056   0.796   2.299  0.1537 -0.2357  1.1073
  247SOL     OW  739   0.185   0.728   2.812  0.1051 -0.1143 -0.5700
  247SOL    HW1  740   0.216   0.750   2.717 -0.6181  0.3517 -1.5880
  247SOL    HW2  741   0.160   0.630   2.811  0.1809 -1.0934 -1.6883
  248SOL     OW  742   0.065   1.066   1.954 -0.0862  0.5930  0.1708
  248SOL    HW1  743   3.063   1.002   1.977  3.5615  0.2432  0.0085
  248SOL    HW2  744   0.141   1.038   2.016 -0.2187 -1.4878  1.0990
  249SOL     OW  745   2.854   0.291   0.180  0.0945 -0.6034 -0.0927
  249SOL    HW1  746   2.874   0.336   0.086  0.9794  0.9648  0.3362
  249SOL    HW2  747   2.896   0.341   0.257  0.8733 -1.7494 -3.0823
  250SOL     OW  748   2.858   3.003   3.073 -1.0624 -0.2313 -0.1111
  250SOL    HW1  749   2.949   2.956   3.050  1.8093 -0.6295 -0.7754
  250SOL    HW2  750   2.775   2.945   3.070  1.0923  0.2072  2.0704
  251SOL     OW  751   1.135   1.539   2.008  0.8738 -0.4675  0.8988
  251SOL    HW1  752   1.146   1.560   2.106  0.1807 -1.2994 -0.9884
  251SOL    HW2  753   1.062   1.464   1.999 -0.4275 -0.1161 -0.3961
  252SOL     OW  754   2.187   1.819   1.231  0.3427 -0.4808 -0.5862
  252SOL    HW1  755   2.282   1.852   1.237  0.5978 -0.1627  3.1484
  252SOL    HW2  756   2.171   1.756   1.312 -0.5688  0.2639 -0.6206
  253SOL     OW  757   1.788   2.453   2.100 -0.5771  0.0978 -0.5807
  253SOL    HW1  758   1.777   2.405   2.010  0.0116  0.7753  1.0613
  253SOL    HW2  759   1.806   2.382   2.176 -1.4938 -1.1926  0.9806
  254SOL     OW  760   0.653   2.173   2.265  0.2001  0.4483 -0.3482
  254SOL    HW1  761   0.674   2.273   2.257  0.4563 -0.8648 -1.3676
  254SOL    HW2  762   0.599   2.143   2.181 -3.7704  0.2614 -4.3130
  255SOL     OW  763   1.581   0.461   0.819 -0.0802  0.1209  0.0389
  255SOL    HW1  764   1.583   0.381   0.755 -2.5891 -0.1488 -0.2363
  255SOL    HW2  765   1.663   0.517   0.791  2.0521 -0.6181  4.6344
  256SOL     OW  766   2.288   2.251   1.388 -0.5729 -0.0671  0.2317
  256SOL    HW1  767   2.237   2.336   1.387  1.8808 -0.4573  1.2858
  256SOL    HW2  768   2.311   2.228   1.292 -0.6229  0.9889 -2.5186
  257SOL     OW  769   0.380   2.339   2.772  0.3174  0.0828 -0.3572
  257SOL    HW1  770   0.291   2.289   2.779  2.0439  1.0280  1.1059
  257SOL    HW2  771   0.375   2.420   2.838 -3.2148  1.5605  0.8452
  258SOL     OW  772   0.653   0.664   2.012  0.3570 -0.1155 -0.2266
  258SOL    HW1  773   0.658   0.740   2.082 -1.2423 -1.0388  0.2851
  258SOL    HW2  774   0.725   0.680   1.936  1.0385  1.1423 -0.7716
  259SOL     OW  775   0.998   1.078   2.456  0.1528  0.4273  0.1869
  259SOL    HW1  776   1.081   1.128   2.482  0.1176 -1.8315  1.3442
  259SOL    HW2  777   1.024   0.999   2.396  0.7516  0.8118 -1.0621
  260SOL     OW  778   2.082   0.849   0.483  0.0113  0.9934  0.1510
  260SOL    HW1  779   2.133   0.860   0.572  0.9371  2.1358  1.6908
  260SOL    HW2  780   2.142   0.802   0.418 -0.9431 -0.0446  4.8059
  261SOL     OW  781   1.105   0.079   0.490  0.3326  0.6323  0.1643
  261SOL    HW1  782   1.050   0.147   0.443 -0.1378  0.0567 -0.9204
  261SOL    HW2  783   1.150   0.117   0.574  2.4083  0.8938  1.3650
  262SOL     OW  784   2.065   2.521   2.504 -0.9714  0.1035 -0.8744
  262SOL    HW1  785   2.140   2.569   2.452 -1.9660 -0.8921  1.1328
  262SOL    HW2  786   1.987   2.589   2.525 -0.3608  0.7056  1.8307
  263SOL     OW  787   0.333   1.630   2.878 -0.2293  0.1411 -0.2074
  263SOL    HW1  788   0.367   1.598   2.789  1.8268 -0.9363  0.8447
  263SOL    HW2  789   0.277   1.719   2.881 -2.5413 -0.9995  2.6981
  264SOL     OW  790   0.505   1.771   1.577 -0.1994  0.3058 -0.8416
  264SOL    HW1  791   0.413   1.809   1.566 -0.1724 -0.0571 -2.9897
  264SOL    HW2  792   0.560   1.775   1.491 -0.1527  2.4871  0.1115
  265SOL     OW  793   0.982   0.898   0.535  0.4773  0.7722  0.0781
  265SOL    HW1  794   1.045   0.948   0.471 -1.5349  0.7958  1.9913
  265SOL    HW2  795   0.915   0.963   0.576 -3.7379  1.2079 -0.8123
  266SOL     OW  796   1.319   1.952   0.039 -0.3302  0.0978 -0.3934
  266SOL    HW1  797   1.369   1.902   0.112 -1.8162 -0.0126 -0.3350
  266SOL    HW2  798   1.323   1.905   3.027  1.8515 -1.6258  1.8419
  267SOL     OW  799   0.170   0.295   2.973 -0.4613  0.4574 -0.3311
  267SOL    HW1  800   0.136   0.202   2.943  0.6882 -0.9317 -1.5642
  267SOL    HW2  801   0.211   0.290   3.067  1.4852  0.9548  1.0701
  268SOL     OW  802   0.984   0.444   2.833  0.1458  0.0097  0.0376
  268SOL    HW1  803   0.913   0.503   2.789  1.8193 -1.4012  0.3732
  268SOL    HW2  804   0.947   0.354   2.836 -0.0334  0.0580 -0.8073
  269SOL     OW  805   1.545   0.134   2.586  0.0738 -0.4370 -0.2768
  269SOL    HW1  806   1.487   0.085   2.521  3.2589  2.0691  0.6832
  269SOL    HW2  807   1.487   0.175   2.662  1.0297 -1.3078  0.1154
  270SOL     OW  808   0.802   0.591   2.700  0.1249 -0.6092  0.6498
  270SOL    HW1  809   0.779   0.525   2.624  2.0917  1.4410 -2.8162
  270SOL    HW2  810   0.809   0.688   2.665 -1.3770  1.7442 -0.4879
  271SOL     OW  811   0.195   0.933   0.164 -0.0196 -0.3377 -0.2979
  271SOL    HW1  812   0.263   1.010   0.155  0.9286  2.6098 -1.7349
  271SOL    HW2  813   0.155   0.935   0.257  0.9053 -0.6313 -2.6434
  272SOL     OW  814   2.143   1.152   2.702 -0.5023 -0.2827 -0.2548
  272SOL    HW1  815   2.209   1.191   2.637  0.8308 -1.1448  1.2690
  272SOL    HW2  816   2.180   1.064   2.743  2.1868  0.5192  1.9567
  273SOL     OW  817   2.998   0.350   2.372 -0.1216 -0.7346  0.7583
  273SOL    HW1  818   0.020   0.364   2.397 -0.7624  2.0023 -0.5086
  273SOL    HW2  819   2.955   0.318   2.459 -1.6792 -0.1821  1.8895
  274SOL     OW  820   2.630   0.007   1.675  0.0739 -0.5300 -0.3011
  274SOL    HW1  821   2.568   0.064   1.622  0.5379 -1.1984 -1.7494
  274SOL    HW2  822   2.713   0.066   1.693  0.9403  1.4554 -1.5954
  275SOL     OW  823   1.833   1.498   0.203 -0.3609  0.0754  0.2255
  275SOL    HW1  824   1.855   1.558   0.123 -0.1552 -2.7664 -0.1266
  275SOL    HW2  825   1.730   1.492   0.217 -1.3231  1.0997 -0.7507
  276SOL     OW  826   0.249   1.260   2.732  0.3794 -0.2057 -0.1765
  276SOL    HW1  827   0.192   1.335   2.765 -0.0936 -0.6259 -0.1525
  276SOL    HW2  828   0.198   1.184   2.682 -0.9439 -0.8161 -1.2332
  277SOL     OW  829   1.711   2.754   2.182  0.0952  0.0247 -0.4099
  277SOL    HW1  830   1.732   2.655   2.157 -2.6798  0.5432  0.4284
  277SOL    HW2  831   1.643   2.750   2.265 -0.6233 -0.3086  2.6855
  278SOL     OW  832   1.999   2.884   1.311  0.6907 -0.0157 -0.0391
  278SOL    HW1  833   1.929   2.827   1.354  1.8924  1.5630  4.6588
  278SOL    HW2  834   1.996   2.979   1.352 -0.2645  2.0028 -0.4573
  279SOL     OW  835   1.035   1.489   2.788  0.5427 -0.6100  0.2080
  279SOL    HW1  836   1.109   1.489   2.856  1.5690 -2.7998 -1.5167
  279SOL    HW2  837   0.956   1.548   2.815 -0.7909 -0.9241 -1.0867
  280SOL     OW  838   0.732   1.513   0.400  0.1069 -0.6940 -0.3207
  280SOL    HW1  839   0.669   1.557   0.332 -0.9093  2.4181 -2.1053
  280SOL    HW2  840   0.833   1.514   0.371 -1.7669  0.5600  0.6048
  281SOL     OW  841   3.037   2.846   1.964 -0.1322  0.5174 -0.4753
  281SOL    HW1  842   0.007   2.890   1.888 -1.4157 -4.7558  2.3577
  281SOL    HW2  843   0.016   2.770   2.001  0.9142  0.6527  0.0416
  282SOL     OW  844   0.287   2.208   1.125 -0.0306 -0.7700 -0.1003
  282SOL    HW1  845   0.370   2.222   1.069  1.4281  0.5679 -0.9324
  282SOL    HW2  846   0.213   2.169   1.067 -1.9063  0.9900  3.1793
  283SOL     OW  847   1.355   2.453   2.243 -0.3838  0.0002  0.1331
  283SOL    HW1  848   1.293   2.374   2.233  2.5650 -2.2345 -0.2548
  283SOL    HW2  849   1.446   2.423   2.276 -1.5130  1.7711  1.9520
  284SOL     OW  850   2.175   0.956   0.056 -0.4026 -0.2820  0.3246
  284SOL    HW1  851   2.190   0.990   0.151 -0.7418  0.3678  0.2069
  284SOL    HW2  852   2.256   0.964   3.068  0.2126 -0.6928 -1.0636
  285SOL     OW  853   2.753   2.651   2.488  0.0128 -0.2348  0.4695
  285SOL    HW1  854   2.766   2.710   2.571 -0.2223 -1.4557  0.4151
  285SOL    HW2  855   2.656   2.615   2.478 -2.1210  0.8832 -0.4005
  286SOL     OW  856   1.895   2.599   1.182  0.4843 -0.1999 -0.0202
  286SOL    HW1  857   1.889   2.654   1.269 -2.8728 -0.4038  0.9959
  286SOL    HW2  858   1.811   2.543   1.180  2.4343 -2.3505 -1.4024
  287SOL     OW  859   0.672   1.263   1.162 -0.4512  0.0768  0.2563
  287SOL    HW1  860   0.704   1.356   1.141  1.6349 -0.3730  1.3533
  287SOL    HW2  861   0.754   1.199   1.156 -0.8628 -1.8087  0.2076
  288SOL     OW  862   1.223   2.309   0.201  0.0809 -0.3813 -0.2605
  288SOL    HW1  863   1.177   2.398   0.237 -5.1134  0.5576 -2.3897
  288SOL    HW2  864   1.296   2.327   0.137  0.4758  0.3983 -2.3990
  289SOL     OW  865   0.172   1.842   2.417 -0.1084 -0.5214 -0.0216
  289SOL    HW1  866   0.135   1.750   2.436  1.1704  1.7844  0.2341
  289SOL    HW2  867   0.274   1.835   2.397 -0.1419  1.5766 -0.7074
  290SOL     OW  868   1.050   2.269   0.914 -0.2726  0.0030  0.3738
  290SOL    HW1  869   1.077   2.263   1.012  0.6116 -2.0262 -1.0996
  290SOL    HW2  870   1.041   2.171   0.884 -2.3500 -2.7249 -1.8916
  291SOL     OW  871   1.791   1.443   2.863  0.0511 -0.6281  0.1762
  291SOL    HW1  872   1.872   1.424   2.801  3.2888 -0.6072  1.0231
  291SOL    HW2  873   1.813   1.528   2.919  2.2845  1.7785 -1.2104
  292SOL     OW  874   1.177   1.323   1.666  0.0996  0.1215 -0.1741
  292SOL    HW1  875   1.089   1.372   1.684 -0.2321  0.3255 -0.4219
  292SOL    HW2  876   1.174   1.225   1.692 -0.6425  1.5587  1.3951
  293SOL     OW  877   1.866   2.626   0.912 -0.0094  0.3800 -0.3752
  293SOL    HW1  878   1.882   2.630   1.014 -0.6827 -1.1583  1.4091
  293SOL    HW2  879   1.873   2.531   0.871  0.7176  2.1582 -0.8960
  294SOL     OW  880   0.205   1.206   2.370  0.4407 -0.7546  0.7312
  294SOL    HW1  881   0.138   1.195   2.446  1.6951  1.2370 -0.7506
  294SOL    HW2  882   0.152   1.210   2.281  3.3343  1.1169  0.8081
  295SOL     OW  883   0.895   1.960   3.062 -0.1735  0.1704 -0.1833
  295SOL    HW1  884   0.957   2.030   0.034 -1.0710  2.0494 -2.4648
  295SOL    HW2  885   0.941   1.865   3.066  1.4838 -0.7566  0.4976
  296SOL     OW  886   1.681   1.909   2.368  0.1042  0.5537  0.4625
  296SOL    HW1  887   1.728   1.952   2.290  1.8593 -0.1716 -1.2915
  296SOL    HW2  888   1.588   1.874   2.335 -0.1087  1.6926  0.5738
  297SOL     OW  889   2.848   0.682   2.587 -0.0945  0.8747  0.0201
  297SOL    HW1  890   2.883   0.591   2.558  1.6848  0.4858 -1.7996
  297SOL    HW2  891   2.800   0.684   2.679 -1.1747  3.1392  0.3252
  298SOL     OW  892   0.994   2.104   2.495 -0.4132  0.0209 -0.7020
  298SOL    HW1  893   0.922   2.145   2.557  1.4136  1.1778  2.6038
  298SOL    HW2  894   0.956   2.075   2.406  0.4023 -0.1208 -0.3979
  299SOL     OW  895   0.894   2.620   2.615 -0.4090  0.3472 -0.4058
  299SOL    HW1  896   0.806   2.651   2.584  3.5567  0.1720  2.2106
  299SOL    HW2  897   0.887   2.528   2.655 -0.7803  1.7256  0.6700
  300SOL     OW  898   2.806   0.584   3.031  0.2077 -0.5832 -0.5896
  300SOL    HW1  899   2.740   0.510   3.059 -1.0240 -1.7915 -1.6540
  300SOL    HW2  900   2.902   0.560   3.044 -2.0200  0.4411  2.8731
  301SOL     OW  901   1.407   0.607   1.258  0.4243  0.5494 -0.0474
  301SOL    HW1  902   1.390   0.553   1.173  2.2336 -1.6354 -0.7796
  301SOL    HW2  903   1.357   0.698   1.259  1.1887 -1.2962  1.3724
  302SOL     OW  904   2.931   1.844   2.728 -0.1589  0.7549 -0.2970
  302SOL    HW1  905   3.020   1.879   2.692  0.8255 -0.4241  0.4275
  302SOL    HW2  906   2.936   1.743   2.742 -1.4830  0.7523 -1.1068
  303SOL     OW  907   2.872   2.922   2.418  0.2888  0.5016  0.6039
  303SOL    HW1  908   2.918   2.957   2.336 -1.6085 -0.0261  0.4083
  303SOL    HW2  909   2.823   2.833   2.409  0.8144 -1.2861  0.7821
  304SOL     OW  910   2.822   0.196   1.603  0.0799 -0.2075  0.4713
  304SOL    HW1  911   2.909   0.249   1.581 -0.9453  1.9076 -1.9369
  304SOL    HW2  912   2.832   0.100   1.569 -0.5993  1.6073  3.7972
  305SOL     OW  913   0.020   3.022   2.224 -0.3150 -0.4551 -0.2045
  305SOL    HW1  914   0.001   2.960   2.151  0.2262  1.3726  2.5955
  305SOL    HW2  915   0.016   0.046   2.197  0.0152  0.6345 -0.3734
  306SOL     OW  916   2.666   1.129   1.437  0.6634 -0.3925  0.5137
  306SOL    HW1  917   2.752   1.100   1.481 -1.2429  0.6262 -3.2293
  306SOL    HW2  918   2.585   1.151   1.494  0.1617 -0.7052 -1.4262
  307SOL     OW  919   2.006   0.261   1.182 -0.3326  0.2319 -0.5341
  307SOL    HW1  920   2.011   0.167   1.225 -0.3121 -2.2529  2.3066
  307SOL    HW2  921   1.905   0.292   1.172 -3.4265  1.8561 -2.2949
  308SOL     OW  922   0.237   2.068   1.360  0.4312 -0.6266 -0.6015
  308SOL    HW1  923   0.265   2.124   1.279 -0.4316  0.5308 -2.6782
  308SOL    HW2  924   0.173   1.995   1.333  0.4151 -2.5306 -2.0126
  309SOL     OW  925   2.460   1.852   1.288  0.1833 -0.4496 -0.1412
  309SOL    HW1  926   2.499   1.762   1.301  1.5111  1.3198  0.9165
  309SOL    HW2  927   2.458   1.901   1.376  0.4323 -4.5763 -1.1487
  310SOL     OW  928   2.739   1.696   2.929  0.0266 -0.0272 -0.3094
  310SOL    HW1  929   2.812   1.768   2.935  1.8485  1.6975  2.2563
  310SOL    HW2  930   2.689   1.693   3.017 -1.9447  1.9208  1.7111
  311SOL     OW  931   2.115   1.602   2.519  0.8810 -0.1973 -0.0311
  311SOL    HW1  932   2.018   1.632   2.488 -0.7759 -1.0344 -1.8820
  311SOL    HW2  933   2.179   1.680   2.539  2.0663 -2.5732  1.2931
  312SOL     OW  934   2.353   2.275   0.722  0.1441 -0.1989 -0.5397
  312SOL    HW1  935   2.429   2.232   0.771 -1.2444 -0.8945 -0.9864
  312SOL    HW2  936   2.384   2.344   0.653 -0.2841 -2.1779 -1.1340
  313SOL     OW  937   2.889   2.522   1.042  0.0706 -0.2601  0.3172
  313SOL    HW1  938   2.813   2.500   0.982  2.1870  0.3587  2.1477
  313SOL    HW2  939   2.927   2.447   1.090 -0.4682  2.0412  3.2295
  314SOL     OW  940   1.147   2.213   1.249 -0.2750 -0.2355  0.0358
  314SOL    HW1  941   1.250   2.207   1.258  0.7236  0.7221 -2.0305
  314SOL    HW2  942   1.102   2.120   1.242 -2.0956  0.4658 -0.1435
  315SOL     OW  943   0.225   2.708   2.384 -0.6394 -0.5806 -0.0522
  315SOL    HW1  944   0.190   2.658   2.466  2.2076  0.8168  1.6664
  315SOL    HW2  945   0.215   2.806   2.400 -0.9907 -0.9242 -0.1291
  316SOL     OW  946   0.151   1.859   0.846 -1.0664 -0.8591 -0.0785
  316SOL    HW1  947   0.189   1.802   0.924  3.7024 -0.6114 -1.0843
  316SOL    HW2  948   0.118   1.793   0.777 -1.0604  0.5679  2.0416
  317SOL     OW  949   2.009   0.116   0.328 -0.0144 -0.0380 -0.3907
  317SOL    HW1  950   1.927   0.163   0.302 -1.9263  1.1015 -0.1182
  317SOL    HW2  951   2.032   0.136   0.425  0.1417  2.7698 -1.9806
  318SOL     OW  952   2.801   2.812   0.276  0.5063  0.4062  0.0521
  318SOL    HW1  953   2.776   2.789   0.176 -1.5290 -0.8879 -1.2771
  318SOL    HW2  954   2.726   2.871   0.315  0.9685  2.2786  0.6151
  319SOL     OW  955   1.115   1.343   0.129 -0.3508  0.0053 -0.4780
  319SOL    HW1  956   1.175   1.377   0.048  0.2608  0.8924 -0.1388
  319SOL    HW2  957   1.029   1.295   0.100 -0.0256 -0.4018 -0.0754
  320SOL     OW  958   0.516   2.818   2.716  0.1255 -0.1561  0.1792
  320SOL    HW1  959   0.569   2.772   2.639  2.1502 -0.1231  0.1110
  320SOL    HW2  960   0.416   2.789   2.717 -0.5514 -0.5559  1.2932
  321SOL     OW  961   1.002   3.039   0.073  0.3492 -0.1697  0.1383
  321SOL    HW1  962   1.091   3.020   0.116 -0.5614 -1.9447 -0.9606
  321SOL    HW2  963   0.973   2.969   0.002  0.6078 -0.7538  0.1230
  322SOL     OW  964   2.374   1.235   1.836  0.2876  0.5316  0.1831
  322SOL    HW1  965   2.326   1.281   1.914  1.4655  2.2699 -0.9630
  322SOL    HW2  966   2.469   1.258   1.839 -5.1725  1.4009 -2.2900
  323SOL     OW  967   2.475   0.980   0.313  0.1225  0.1743 -0.5821
  323SOL    HW1  968   2.461   0.887   0.278 -0.3524  1.6063 -1.7258
  323SOL    HW2  969   2.556   1.027   0.273  2.1838  1.3551 -0.5897
  324SOL     OW  970   0.106   0.464   2.774  0.1696  0.0081 -0.2445
  324SOL    HW1  971   0.128   0.401   2.852 -1.4479  0.4052 -1.9244
  324SOL    HW2  972   0.177   0.438   2.707  0.3257  0.7367 -2.7788
  325SOL     OW  973   1.298   2.776   2.057  0.4418  0.3887  0.7065
  325SOL    HW1  974   1.375   2.738   2.001  1.8914  0.4766 -0.2304
  325SOL    HW2  975   1.208   2.732   2.043 -1.3125  0.9532  0.0338
  326SOL     OW  976   2.428   0.110   1.512  0.7600 -0.1991 -0.6985
  326SOL    HW1  977   2.355   0.035   1.511  1.2340 -1.3279  0.0667
  326SOL    HW2  978   2.480   0.119   1.425 -3.0076  0.3875  0.0618
  327SOL     OW  979   1.769   0.770   2.999  0.0600  0.2073  0.0004
  327SOL    HW1  980   1.765   0.691   3.064  2.7723  0.4060 -0.2211
  327SOL    HW2  981   1.854   0.819   3.010 -2.3149 -1.1335 -3.0599
  328SOL     OW  982   2.865   1.355   2.223 -0.5373  0.3165  0.3450
  328SOL    HW1  983   2.952   1.298   2.234 -1.2804 -2.0411  3.4278
  328SOL    HW2  984   2.863   1.427   2.294 -1.8130 -1.8577  0.8598
  329SOL     OW  985   1.529   2.525   1.726  0.1488  0.0894 -0.1500
  329SOL    HW1  986   1.572   2.573   1.805  0.7889  0.5410  1.5330
  329SOL    HW2  987   1.588   2.508   1.645 -1.1250  1.1964  1.5836
  330SOL     OW  988   2.791   1.498   1.810 -0.0677  0.0620 -0.4320
  330SOL    HW1  989   2.847   1.484   1.730 -4.9410 -1.0577 -0.6121
  330SOL    HW2  990   2.848   1.517   1.896  0.9536  1.2057  1.4635
  331SOL     OW  991   0.150   2.075   0.661  0.3402 -1.0994  0.1538
  331SOL    HW1  992   0.161   2.007   0.738  0.1537  0.6290  0.9173
  331SOL    HW2  993   0.194   2.045   0.576 -0.8903 -0.4767  1.5484
  332SOL     OW  994   0.822   0.317   0.604 -0.3462 -0.3703 -0.2411
  332SOL    HW1  995   0.737   0.375   0.617 -0.6028  3.8464  1.7551
  332SOL    HW2  996   0.904   0.365   0.641 -0.1016 -2.3190  0.2405
  333SOL     OW  997   2.075   2.797   2.244  0.0114 -0.6837  0.2338
  333SOL    HW1  998   2.057   2.723   2.176 -0.4299  0.3596  1.2183
  333SOL    HW2  999   2.027   2.774   2.334  1.7364  0.9562  1.1070
  334SOL     OW 1000   1.183   1.215   1.164  0.1032  0.3422 -0.2262
  334SOL    HW1 1001   1.265   1.149   1.158  2.4048  0.0159  0.6431
  334SOL    HW2 1002   1.175   1.267   1.250  1.3846 -2.3589 -1.6764
  335SOL     OW 1003   0.125   2.551   2.587  0.1643  0.0080 -0.4130
  335SOL    HW1 1004   0.170   2.478   2.529  0.9455 -1.1568 -0.2848
  335SOL    HW2 1005   0.059   2.509   2.653 -0.2570 -2.1598 -0.5552
  336SOL     OW 1006   2.640   2.411   1.877  0.4713  0.1629  0.0771
  336SOL    HW1 1007   2.739   2.424   1.855  1.9769  0.8284 -0.7706
  336SOL    HW2 1008   2.584   2.413   1.791 -0.7772 -0.9376  2.8510
  337SOL     OW 1009   2.078   1.543   0.555  0.0991 -0.0783 -0.0010
  337SOL    HW1 1010   2.160   1.579   0.601 -0.6819  1.0177 -0.0580
  337SOL    HW2 1011   2.039   1.615   0.492  1.6170 -0.4313 -1.9786
  338SOL     OW 1012   1.157   1.767   1.346 -0.0768 -0.9824 -0.3026
  338SOL    HW1 1013   1.147   1.774   1.449  1.2702  0.5184  2.6166
  338SOL    HW2 1014   1.238   1.820   1.316 -0.9340  0.1874  0.3464
  339SOL     OW 1015   2.892   0.629   1.079  0.3032  0.4098 -0.3643
  339SOL    HW1 1016   2.908   0.724   1.042  0.1599  1.0425  0.1846
  339SOL    HW2 1017   2.847   0.628   1.173 -3.3511 -2.4233 -0.0341
  340SOL     OW 1018   1.689   2.727   1.902 -0.1456 -0.7568 -0.0898
  340SOL    HW1 1019   1.791   2.715   1.901  1.9973  0.1942  1.9203
  340SOL    HW2 1020   1.645   2.706   1.996  0.1997 -0.2146  2.2970
  341SOL     OW 1021   2.216   1.363   0.927 -0.1950  0.2951 -0.2207
  341SOL    HW1 1022   2.290   1.430   0.914  1.0570  0.8504 -1.1902
  341SOL    HW2 1023   2.123   1.398   0.921  1.4081 -0.9248  1.2321
  342SOL     OW 1024   0.403   1.741   0.780 -0.1084  0.0500  0.7149
  342SOL    HW1 1025   0.451   1.715   0.867 -1.1621  0.9393  0.7084
  342SOL    HW2 1026   0.331   1.674   0.762 -0.8049 -0.0456  0.7719
  343SOL     OW 1027   2.473   0.927   1.654 -0.3481 -0.2918 -0.4459
  343SOL    HW1 1028   2.486   1.018   1.603 -1.8061  0.0579 -0.7371
  343SOL    HW2 1029   2.522   0.856   1.599 -0.0855  0.3558 -2.0907
  344SOL     OW 1030   2.338   0.403   0.793 -0.1293  0.1644  0.4123
  344SOL    HW1 1031   2.368   0.494   0.759  2.4606 -0.3555  1.7359
  344SOL    HW2 1032   2.387   0.327   0.742  1.8792 -1.2155 -3.0410
  345SOL     OW 1033   2.833   2.465   2.307  0.6503  0.6788 -0.6610
  345SOL    HW1 1034   2.838   2.527   2.391  0.8461 -1.7140 -0.2473
  345SOL    HW2 1035   2.747   2.489   2.260 -1.9253  0.2448  1.8742
  346SOL     OW 1036   3.052   1.259   0.456 -0.2579 -0.2012  0.1352
  346SOL    HW1 1037   2.981   1.218   0.514 -1.6124  0.6170  3.8084
  346SOL    HW2 1038   0.043   1.293   0.517 -0.8891 -3.5706  2.2939
  347SOL     OW 1039   1.830   2.713   1.416  0.2179  0.0751 -0.2114
  347SOL    HW1 1040   1.853   2.662   1.507 -1.4370 -0.6646  2.4492
  347SOL    HW2 1041   1.727   2.716   1.409 -1.8445 -1.2111  2.5183
  348SOL     OW 1042   1.151   1.079   1.709  0.4611  0.2300 -0.2079
  348SOL    HW1 1043   1.246   1.082   1.747  2.0279  0.6399 -0.7372
  348SOL    HW2 1044   1.072   1.038   1.764 -2.8277  2.9251  1.7010
  349SOL     OW 1045   2.321   1.608   1.984  0.0292 -0.2280  0.0028
  349SOL    HW1 1046   2.324   1.509   2.006  0.4449  1.4443 -0.4669
  349SOL    HW2 1047   2.403   1.659   2.017  1.4489  0.1040  2.7754
  350SOL     OW 1048   2.808   2.224   0.478 -0.3325  0.0188 -0.0304
  350SOL    HW1 1049   2.729   2.287   0.483  2.4169  1.9335 -1.6144
  350SOL    HW2 1050   2.892   2.263   0.431  0.1694 -0.6614 -3.9758
  351SOL     OW 1051   0.159   0.437   1.623  0.5542  0.6795  0.2862
  351SOL    HW1 1052   0.117   0.356   1.574 -2.1661 -1.2718  1.3421
  351SOL    HW2 1053   0.095   0.510   1.624  2.1785 -1.5756  0.6421
  352SOL     OW 1054   1.110   2.759   1.553 -0.2753  0.1266  0.2681
  352SOL    HW1 1055   1.111   2.794   1.456 -0.5014 -0.9132  2.6772
  352SOL    HW2 1056   1.198   2.772   1.600 -1.9502 -1.3120 -1.4778
  353SOL     OW 1057   0.690   1.326   2.811  0.3618  0.0501 -0.3439
  353SOL    HW1 1058   0.771   1.283   2.769 -1.6841 -0.2826  2.7221
  353SOL    HW2 1059   0.657   1.403   2.755 -1.4021 -0.9900 -0.0838
  354SOL     OW 1060   1.439   1.804   0.248  0.2647  0.5234  0.5194
  354SOL    HW1 1061   1.415   1.722   0.303  1.7560 -0.1029  1.3826
  354SOL    HW2 1062   1.527   1.802   0.195  1.4386 -1.6075 -0.6666
  355SOL     OW 1063   2.122   0.227   0.771 -0.4427  0.0661  0.6440
  355SOL    HW1 1064   2.062   0.244   0.853 -0.8146 -0.8398  1.3440
  355SOL    HW2 1065   2.216   0.270   0.781 -0.2904 -1.9146 -0.9961
  356SOL     OW 1066   0.009   1.345   0.038  0.3730  0.1748  0.5263
  356SOL    HW1 1067   0.108   1.338   0.064  0.5403 -0.8240  1.6013
  356SOL    HW2 1068   3.030   1.298   0.108  2.0090 -0.1677 -0.9096
  357SOL     OW 1069   0.072   0.160   1.648 -0.1861 -0.2927 -0.1297
  357SOL    HW1 1070   0.166   0.120   1.660 -1.3748 -1.4792  0.2098
  357SOL    HW2 1071   0.024   0.154   1.737 -0.3700  0.3316  1.0076
  358SOL     OW 1072   0.322   1.168   2.980 -0.4196  0.3170 -0.4112
  358SOL    HW1 1073   0.291   1.220   2.899  0.8719  2.2835  1.5343
  358SOL    HW2 1074   0.328   1.232   3.061  0.8787  1.1486  1.2942
  359SOL     OW 1075   2.527   2.530   2.477 -0.1809 -0.4015 -0.4245
  359SOL    HW1 1076   2.434   2.580   2.485  1.0420  0.3054 -0.6707
  359SOL    HW2 1077   2.542   2.506   2.381 -1.6453  0.5951 -1.3264
  360SOL     OW 1078   1.490   1.244   0.802  0.1827  0.3153  0.1656
  360SOL    HW1 1079   1.414   1.297   0.831  0.8237 -3.1244 -1.0166
  360SOL    HW2 1080   1.539   1.206   0.886  0.5683 -0.1993  1.0899
  361SOL     OW 1081   2.046   2.282   1.207  0.4238 -0.4568  0.1725
  361SOL    HW1 1082   2.127   2.239   1.165  0.5451  0.7189 -0.3363
  361SOL    HW2 1083   2.069   2.378   1.237 -0.8082  3.2224  1.3505
  362SOL     OW 1084   1.854   1.502   0.726  0.0633 -0.6103  0.2455
  362SOL    HW1 1085   1.929   1.568   0.713  2.2612 -0.7013 -0.3909
  362SOL    HW2 1086   1.764   1.541   0.753  1.2727  0.9447 -0.7635
  363SOL     OW 1087   2.529   2.262   0.347 -0.2958  0.5864  0.3265
  363SOL    HW1 1088   2.476   2.194   0.399 -1.2182 -1.2332 -1.7869
  363SOL    HW2 1089   2.599   2.224   0.277  2.3783 -1.5732 -0.8574
  364SOL     OW 1090   2.563   0.054   1.274 -0.4197 -0.4023  0.1693
  364SOL    HW1 1091   2.581   0.140   1.223 -0.1735  2.8791 -0.1356
  364SOL    HW2 1092   2.648   3.070   1.278  2.7657 -4.5735 -0.9448
  365SOL     OW 1093   0.673   2.873   0.967  0.6864 -0.2394  0.2004
  365SOL    HW1 1094   0.662   2.888   0.866  0.8406  2.6137 -1.1793
  365SOL    HW2 1095   0.646   2.778   0.995  0.7177 -2.3983 -1.0585
  366SOL     OW 1096   2.835   1.499   0.325 -0.7448 -0.0681  0.4413
  366SOL    HW1 1097   2.767   1.436   0.281 -1.6766  0.6888 -1.7747
  366SOL    HW2 1098   2.898   1.540   0.256  1.6403 -0.4286  2.1434
  367SOL     OW 1099   2.204   2.495   2.742 -0.1826 -0.4118 -0.0896
  367SOL    HW1 1100   2.142   2.496   2.662  2.5961  1.9455 -0.4189
  367SOL    HW2 1101   2.244   2.405   2.751 -0.3712  3.4193 -1.4966
  368SOL     OW 1102   2.553   2.122   0.824 -0.0935 -0.5029  0.1029
  368SOL    HW1 1103   2.589   2.066   0.747 -0.4814 -0.8938  1.4266
  368SOL    HW2 1104   2.535   2.058   0.904  0.9255  0.4925 -0.9743
  369SOL     OW 1105   0.819   0.981   0.788  0.1431  0.3189  0.2096
  369SOL    HW1 1106   0.893   0.924   0.837  3.2868 -1.5038  1.1344
  369SOL    HW2 1107   0.860   1.063   0.740  2.1344 -0.4878 -1.5454
  370SOL     OW 1108   0.619   0.193   0.877 -0.0420 -0.1368  0.2134
  370SOL    HW1 1109   0.696   0.192   0.810 -2.6021 -1.5291  2.6284
  370SOL    HW2 1110   0.525   0.177   0.839 -2.0058  1.5907 -0.5790
  371SOL     OW 1111   2.515   1.177   2.787 -1.0961  0.1541 -0.1133
  371SOL    HW1 1112   2.580   1.111   2.831 -2.0870 -0.1233 -0.4697
  371SOL    HW2 1113   2.489   1.152   2.692  1.0334  2.0964  1.1539
  372SOL     OW 1114   0.740   0.412   2.526  0.2751 -0.6688 -0.2450
  372SOL    HW1 1115   0.719   0.475   2.445 -1.0239 -1.1288 -1.2861
  372SOL    HW2 1116   0.834   0.381   2.504 -0.4445  1.5407 -2.2401
  373SOL     OW 1117   0.642   0.526   2.913  0.0795  1.0118  0.5353
  373SOL    HW1 1118   0.687   0.602   2.862 -0.4134  2.0135  2.3117
  373SOL    HW2 1119   0.706   0.492   2.982 -0.1278  0.0406 -3.0992
  374SOL     OW 1120   0.799   2.162   0.216  0.1058 -0.2814 -0.4363
  374SOL    HW1 1121   0.757   2.123   0.129  0.1490 -4.4227 -2.9331
  374SOL    HW2 1122   0.767   2.109   0.295 -1.1913  0.9453  3.3195
  375SOL     OW 1123   0.782   0.053   0.642 -0.4938  0.1962 -0.0756
  375SOL    HW1 1124   0.867   0.007   0.683 -0.7376 -0.0147  1.2942
  375SOL    HW2 1125   0.802   0.148   0.617 -2.4135  1.5432 -2.5382
  376SOL     OW 1126   0.049   2.249   1.944 -0.6159  0.6131 -0.6741
  376SOL    HW1 1127   3.060   2.318   1.983  0.3708  3.3760 -0.5434
  376SOL    HW2 1128   0.101   2.291   1.870  0.0598 -0.4283  0.5062
  377SOL     OW 1129   2.515   2.054   0.011  0.3846 -0.3468  0.6184
  377SOL    HW1 1130   2.434   2.074   0.064  1.9781 -1.0772 -0.7053
  377SOL    HW2 1131   2.491   1.989   3.011 -0.9619  1.8737  1.6266
  378SOL     OW 1132   1.923   0.286   0.568 -0.2681  0.7596 -0.3655
  378SOL    HW1 1133   1.825   0.290   0.586 -0.6710  0.1210  1.6430
  378SOL    HW2 1134   1.979   0.262   0.651  0.0274 -1.3640  2.2198
  379SOL     OW 1135   1.406   0.908   0.848 -0.1448  0.2309  0.1049
  379SOL    HW1 1136   1.313   0.875   0.828  1.3804  2.6648 -0.1737
  379SOL    HW2 1137   1.442   0.970   0.775  1.9800 -1.5794  0.9236
  380SOL     OW 1138   2.546   1.981   1.844 -0.0270 -0.2465  0.0863
  380SOL    HW1 1139   2.609   1.911   1.813 -0.8289  0.2074  2.4933
  380SOL    HW2 1140   2.591   2.043   1.908 -0.7299 -1.7276  1.0425
  381SOL     OW 1141   3.063   1.168   2.200 -0.0901 -0.9076 -0.3393
  381SOL    HW1 1142   3.032   1.095   2.268 -1.7009 -0.9173  1.3374
  381SOL    HW2 1143   0.002   1.133   2.103 -0.2658 -0.9412 -1.5991
  382SOL     OW 1144   2.851   2.421   0.159 -0.4991 -0.1990  0.0739
  382SOL    HW1 1145   2.789   2.340   0.166 -1.0826  0.5563  0.2107
  382SOL    HW2 1146   2.852   2.474   0.247 -0.6956  0.8348  2.0978
  383SOL     OW 1147   1.347   0.965   2.253  0.3456 -0.1229  1.0249
  383SOL    HW1 1148   1.428   1.004   2.197  1.1514  2.2367 -1.9716
  383SOL    HW2 1149   1.369   0.973   2.355  2.6422 -0.0601  1.4031
  384SOL     OW 1150   1.203   2.237   2.594  0.1775 -0.0950  0.1511
  384SOL    HW1 1151   1.259   2.308   2.548 -0.2996  0.3515 -0.3035
  384SOL    HW2 1152   1.116   2.213   2.544  2.9262  0.0461 -0.7219
  385SOL     OW 1153   2.133   2.375   0.147  0.3889  0.0313 -0.4667
  385SOL    HW1 1154   2.115   2.370   0.048 -1.2597  1.4297  2.3962
  385SOL    HW2 1155   2.227   2.402   0.165 -0.0985  1.6591 -0.7754
  386SOL     OW 1156   1.572   1.436   0.281 -0.0306  0.3091  0.4524
  386SOL    HW1 1157   1.504   1.493   0.331  1.0648 -1.9994 -1.2402
  386SOL    HW2 1158   1.632   1.378   0.345 -0.1904 -1.1660 -1.3272
  387SOL     OW 1159   2.882   1.041   1.560  0.0524  0.1410 -0.4952
  387SOL    HW1 1160   2.951   1.115   1.550  2.3592 -0.8744 -2.8560
  387SOL    HW2 1161   2.873   1.002   1.651  0.1154  1.7319 -2.4204
  388SOL     OW 1162   0.511   0.885   1.345  0.0142  0.4217  0.3944
  388SOL    HW1 1163   0.508   0.937   1.259  1.6182 -2.2714 -0.2223
  388SOL    HW2 1164   0.432   0.823   1.355 -0.2168  1.1734 -1.0247
  389SOL     OW 1165   2.262   1.347   2.057  0.4975  0.0239 -0.0048
  389SOL    HW1 1166   2.307   1.325   2.144 -1.2015 -2.0353  1.7442
  389SOL    HW2 1167   2.161   1.341   2.074 -2.8960  1.2723 -2.3621
  390SOL     OW 1168   1.320   1.928   0.483  0.4089 -0.0882  0.4307
  390SOL    HW1 1169   1.355   1.872   0.403  2.0773 -0.5569  0.4933
  390SOL    HW2 1170   1.372   1.908   0.569 -0.5810  2.4620  0.2789
  391SOL     OW 1171   1.037   1.972   0.944  0.6341 -0.3244 -0.0099
  391SOL    HW1 1172   1.105   1.902   0.919 -1.5422  0.9453  0.2204
  391SOL    HW2 1173   0.938   1.948   0.925  0.8655  3.4633 -0.2564
  392SOL     OW 1174   2.409   2.387   2.037  0.0917 -0.0105 -0.1255
  392SOL    HW1 1175   2.375   2.480   2.053 -1.9743  0.9022  0.1787
  392SOL    HW2 1176   2.500   2.384   1.992  1.2501 -2.5010  0.0043
  393SOL     OW 1177   1.469   2.191   2.910 -0.7037  0.2413  0.2025
  393SOL    HW1 1178   1.371   2.214   2.909  1.5568 -0.3112  1.6493
  393SOL    HW2 1179   1.476   2.095   2.883 -0.6142  2.4951  2.1779
  394SOL     OW 1180   0.231   0.455   2.380  0.2781  0.2720 -0.4924
  394SOL    HW1 1181   0.175   0.528   2.339 -2.5734  1.1116  2.3704
  394SOL    HW2 1182   0.281   0.407   2.304  2.6178 -2.9738 -1.4149
  395SOL     OW 1183   0.327   0.964   0.954 -0.2725 -0.0070  0.1196
  395SOL    HW1 1184   0.326   1.053   1.004 -1.5811 -2.5177 -1.1317
  395SOL    HW2 1185   0.413   0.942   0.900 -1.4394  0.1751 -0.2980
  396SOL     OW 1186   2.351   1.253   2.529 -0.3281  0.8067  0.1455
  396SOL    HW1 1187   2.420   1.192   2.483  0.8312  1.1734  1.8859
  396SOL    HW2 1188   2.308   1.318   2.464  0.2514  0.9424  2.4913
  397SOL     OW 1189   0.498   0.692   0.027  0.0502  0.1539  0.1444
  397SOL    HW1 1190   0.450   0.773   3.056  2.6325 -0.3388  3.0935
  397SOL    HW2 1191   0.531   0.623   3.039  0.3479 -1.5606  0.4285
  398SOL     OW 1192   1.108   2.659   0.554  0.0060 -0.5580  0.1685
  398SOL    HW1 1193   1.207   2.659   0.578 -2.9980 -2.8779  1.2286
  398SOL    HW2 1194   1.083   2.754   0.529  1.2777 -0.1493 -1.3595
  399SOL     OW 1195   2.046   2.563   2.089 -0.2791 -0.0685  0.4070
  399SOL    HW1 1196   1.943   2.558   2.084 -5.2498 -0.4030 -0.1218
  399SOL    HW2 1197   2.076   2.497   2.020 -0.2741  0.4137  1.0943
  400SOL     OW 1198   0.124   1.182   1.715 -0.1536  0.2260  0.0940
  400SOL    HW1 1199   0.092   1.121   1.788  2.0416 -1.8226  1.1653
  400SOL    HW2 1200   0.156   1.272   1.751  0.4383 -3.0972  1.0077
  401SOL     OW 1201   0.556   0.873   0.779 -0.1566  0.3501  0.6360
  401SOL    HW1 1202   0.562   0.792   0.837  0.2123 -2.1229  0.1617
  401SOL    HW2 1203   0.642   0.922   0.765 -3.6169  0.9327  1.3289
  402SOL     OW 1204   0.726   2.934   2.329  0.3127 -0.5078  0.4103
  402SOL    HW1 1205   0.825   2.961   2.320 -3.8376 -1.1223  0.3147
  402SOL    HW2 1206   0.687   2.918   2.235 -0.0396  0.7832  1.5985
  403SOL     OW 1207   2.712   1.799   1.749 -0.1940  0.1915  0.0578
  403SOL    HW1 1208   2.767   1.800   1.833  1.7104  2.1420 -2.6758
  403SOL    HW2 1209   2.688   1.705   1.719  2.6492 -1.1186 -1.1237
  404SOL     OW 1210   2.656   2.170   2.019 -0.3013 -0.3421 -0.1612
  404SOL    HW1 1211   2.739   2.138   2.068  2.3491 -0.2210 -0.4953
  404SOL    HW2 1212   2.676   2.248   1.962  0.3443 -2.4699  1.5335
  405SOL     OW 1213   1.982   0.078   2.703  0.0514 -0.1365  0.0219
  405SOL    HW1 1214   2.023   3.064   2.682 -1.5324  0.7979  0.3390
  405SOL    HW2 1215   1.897   0.092   2.648 -1.7044  1.5158  0.1417
  406SOL     OW 1216   1.034   1.812   0.304  0.1332 -0.0119 -0.0181
  406SOL    HW1 1217   1.048   1.904   0.266 -2.5849  1.8082 -0.2538
  406SOL    HW2 1218   1.014   1.826   0.404 -1.2963  3.1570 -0.1288
  407SOL     OW 1219   1.390   1.242   0.232  0.1251 -0.6655 -0.0515
  407SOL    HW1 1220   1.296   1.285   0.222 -0.8214 -0.2296 -0.1933
  407SOL    HW2 1221   1.461   1.309   0.235 -1.3808 -2.9002  0.2352
  408SOL     OW 1222   0.419   0.400   1.522 -0.3882  0.0286 -0.2071
  408SOL    HW1 1223   0.328   0.417   1.562  1.8000  1.5157 -2.0755
  408SOL    HW2 1224   0.489   0.459   1.571  0.8089  1.5504 -1.2469
  409SOL     OW 1225   2.747   1.439   2.851 -0.7178 -0.1461 -0.3669
  409SOL    HW1 1226   2.690   1.423   2.769 -1.0743  1.6103  1.4466
  409SOL    HW2 1227   2.723   1.531   2.889 -0.9179 -2.1153  1.4938
  410SOL     OW 1228   2.687   2.723   0.668  0.2693  0.9678  0.0449
  410SOL    HW1 1229   2.690   2.748   0.769  1.9349  1.0240 -2.5152
  410SOL    HW2 1230   2.722   2.623   0.659 -0.0485  0.4689  1.5684
  411SOL     OW 1231   0.181   0.761   0.774  0.4757  0.1485  0.4127
  411SOL    HW1 1232   0.224   0.843   0.818  1.7495 -1.5947 -0.4911
  411SOL    HW2 1233   0.081   0.767   0.777  1.2267  0.1214 -2.5237
  412SOL     OW 1234   1.422   3.042   0.461 -0.0468  0.2935 -0.0320
  412SOL    HW1 1235   1.341   0.006   0.412  1.7079  0.6694 -0.2796
  412SOL    HW2 1236   1.440   2.950   0.422 -1.8876  2.6996 -1.0006
  413SOL     OW 1237   1.857   0.593   1.987  0.1575  0.4546 -0.1637
  413SOL    HW1 1238   1.914   0.525   2.041  0.9191  0.4893  0.9888
  413SOL    HW2 1239   1.763   0.595   2.022  0.3989  0.8295 -0.1471
  414SOL     OW 1240   0.091   0.947   0.406 -0.0042 -0.2720 -0.1707
  414SOL    HW1 1241   3.075   0.910   0.377 -1.5735 -2.1597  1.0607
  414SOL    HW2 1242   0.095   0.946   0.511 -0.1791 -4.5316  1.8017
  415SOL     OW 1243   2.614   1.373   0.215  0.6166  0.0200  0.1774
  415SOL    HW1 1244   2.590   1.319   0.129 -1.2545 -1.5532  0.7243
  415SOL    HW2 1245   2.535   1.427   0.252 -3.6302 -1.9080 -0.8171
  416SOL     OW 1246   2.607   0.431   2.619 -0.3152  0.3680 -0.2373
  416SOL    HW1 1247   2.592   0.446   2.518 -1.3531 -0.3940 -3.2529
  416SOL    HW2 1248   2.631   0.517   2.671 -0.0521  4.4168 -0.2502
  417SOL     OW 1249   2.494   0.234   0.651 -0.0312 -0.2314  0.1749
  417SOL    HW1 1250   2.567   0.174   0.622  1.1513  1.9815 -0.6050
  417SOL    HW2 1251   2.463   0.285   0.567  0.7367 -0.6971 -2.0255
  418SOL     OW 1252   0.331   0.306   0.099 -0.7682 -0.1007  0.0921
  418SOL    HW1 1253   0.380   0.307   0.188  1.3551  3.3809 -1.1848
  418SOL    HW2 1254   0.388   0.311   0.011  0.9603  1.5676 -1.2366
  419SOL     OW 1255   0.725   0.712   1.026 -0.5751 -0.3068  0.4848
  419SOL    HW1 1256   0.727   0.706   1.131 -0.2801  1.4713  1.6638
  419SOL    HW2 1257   0.652   0.650   0.989 -2.2266  0.4269  2.0136
  420SOL     OW 1258   0.106   0.833   1.062 -0.4430  0.4954  0.6619
  420SOL    HW1 1259   0.180   0.893   1.026 -0.6905  0.6905 -2.0068
  420SOL    HW2 1260   0.147   0.753   1.116 -1.2498 -2.9110 -0.7849
  421SOL     OW 1261   0.659   1.876   0.093 -0.0715  0.1859  0.3179
  421SOL    HW1 1262   0.575   1.932   0.086 -0.1309  1.3256  1.5895
  421SOL    HW2 1263   0.728   1.899   0.024 -0.0787 -0.7697  1.1902
  422SOL     OW 1264   2.529   0.262   2.010 -0.1247  0.3070 -0.0776
  422SOL    HW1 1265   2.630   0.274   2.025  2.5349 -0.7332 -2.4580
  422SOL    HW2 1266   2.476   0.349   1.997 -2.1834 -1.5410  1.3822
  423SOL     OW 1267   1.899   1.658   3.050 -0.0454 -0.4890 -0.0096
  423SOL    HW1 1268   1.973   1.691   2.988  1.7556  0.9735  2.2044
  423SOL    HW2 1269   1.824   1.728   3.048  0.3616 -1.5133 -0.7256
  424SOL     OW 1270   1.466   1.465   2.263  0.2991 -0.1342  0.4784
  424SOL    HW1 1271   1.544   1.531   2.261  1.3476  4.0455 -1.3255
  424SOL    HW2 1272   1.464   1.412   2.346  0.9135  0.8171 -2.4445
  425SOL     OW 1273   2.989   2.455   2.077 -0.4221 -0.6885  0.0265
  425SOL    HW1 1274   3.067   2.516   2.087 -1.2804 -0.1898 -1.5520
  425SOL    HW2 1275   2.938   2.451   2.164  1.9556  0.4884  1.8423
  426SOL     OW 1276   2.362   2.949   0.628 -0.2699  0.2528 -0.2771
  426SOL    HW1 1277   2.272   2.905   0.634  0.6653 -0.2454 -1.6289
  426SOL    HW2 1278   2.406   2.967   0.721  2.5243  1.4012  3.9226
  427SOL     OW 1279   0.613   0.837   2.508 -0.0903  0.5410  0.5734
  427SOL    HW1 1280   0.542   0.908   2.501 -2.9280 -0.0478 -2.3445
  427SOL    HW2 1281   0.704   0.873   2.542 -3.0708  1.5115 -1.2002
  428SOL     OW 1282   2.617   1.397   2.597  0.0379 -0.2808  0.6381
  428SOL    HW1 1283   2.613   1.295   2.586  1.7930  1.2109 -1.2544
  428SOL    HW2 1284   2.538   1.428   2.658 -0.9992 -0.9531  1.5685
  429SOL     OW 1285   2.369   0.611   0.411 -0.0924  0.4481  0.7174
  429SOL    HW1 1286   2.320   0.672   0.345  2.1300 -0.0477 -0.7132
  429SOL    HW2 1287   2.372   0.508   0.389  0.4994 -2.6241 -1.0593
  430SOL     OW 1288   1.553   2.084   2.536  0.2345  0.3066 -0.0853
  430SOL    HW1 1289   1.623   2.027   2.486  1.3584  1.6966 -1.0139
  430SOL    HW2 1290   1.487   2.111   2.465 -1.0469 -0.5889 -1.1215
  431SOL     OW 1291   0.210   1.698   1.797  0.5718  0.2569 -0.7094
  431SOL    HW1 1292   0.148   1.645   1.865 -0.9265 -0.1070  0.2329
  431SOL    HW2 1293   0.275   1.637   1.746  0.5914  2.1830 -0.3194
  432SOL     OW 1294   1.359   2.088   2.332  0.3327  0.0738  0.4089
  432SOL    HW1 1295   1.413   2.071   2.247 -0.2916  0.5295  2.0879
  432SOL    HW2 1296   1.271   2.138   2.320  0.2649  0.5501 -1.1218
  433SOL     OW 1297   0.976   2.222   0.445 -0.3479  0.9422  0.3164
  433SOL    HW1 1298   0.981   2.324   0.448  3.3913 -2.4999 -1.0775
  433SOL    HW2 1299   0.941   2.196   0.350 -1.8384  1.8093 -0.8400
  434SOL     OW 1300   0.432   2.022   2.422  0.4709 -0.9658  0.0173
  434SOL    HW1 1301   0.466   2.116   2.456  1.0154  1.2035  0.9731
  434SOL    HW2 1302   0.405   2.030   2.322 -0.5148  0.3750 -1.9890
  435SOL     OW 1303   0.237   1.214   0.357 -0.3095  0.7254 -0.2165
  435SOL    HW1 1304   0.141   1.185   0.383 -0.2456 -0.8164 -0.2440
  435SOL    HW2 1305   0.303   1.138   0.349  0.8926  1.9557  0.6767
  436SOL     OW 1306   0.128   2.435   1.742 -0.0042 -0.0331 -0.5574
  436SOL    HW1 1307   0.079   2.514   1.704  1.4196 -1.2791 -1.6620
  436SOL    HW2 1308   0.206   2.405   1.683 -0.2196  0.1188  1.0244
  437SOL     OW 1309   1.023   0.248   0.291 -0.0820 -0.2600  0.2319
  437SOL    HW1 1310   1.043   0.345   0.297  2.2866 -1.9987 -0.7089
  437SOL    HW2 1311   0.948   0.232   0.223 -3.1661 -1.6735  2.6777
  438SOL     OW 1312   0.647   2.313   0.542  0.6241 -0.1165 -0.0045
  438SOL    HW1 1313   0.700   2.380   0.496 -1.8578 -2.5136  2.9049
  438SOL    HW2 1314   0.586   2.365   0.608  0.2678 -0.7851  1.5088
  439SOL     OW 1315   0.599   2.565   1.508 -0.6618  0.3714  0.3021
  439SOL    HW1 1316   0.569   2.471   1.481  0.8099 -0.8929  2.4112
  439SOL    HW2 1317   0.507   2.616   1.517 -0.5483 -1.9900  1.2988
  440SOL     OW 1318   1.645   2.933   1.712 -0.5063 -0.0279 -0.2951
  440SOL    HW1 1319   1.588   2.993   1.772 -0.9619  4.1823 -2.3049
  440SOL    HW2 1320   1.687   2.856   1.759  0.0191  1.2501 -0.5763
  441SOL     OW 1321   2.736   0.427   1.732  0.0755 -0.2808 -0.3925
  441SOL    HW1 1322   2.640   0.446   1.694 -3.6427  2.2197  0.6374
  441SOL    HW2 1323   2.777   0.339   1.695  0.6562 -0.7623 -0.5460
  442SOL     OW 1324   1.847   2.172   0.721  0.6574  0.0596 -0.2144
  442SOL    HW1 1325   1.837   2.181   0.822 -0.8977  0.2370  2.1919
  442SOL    HW2 1326   1.944   2.170   0.689  1.3827  1.7708  1.6856
  443SOL     OW 1327   2.800   0.471   2.229 -0.0288  0.3318 -0.1675
  443SOL    HW1 1328   2.880   0.424   2.277  3.2895 -1.7282 -3.0214
  443SOL    HW2 1329   2.796   0.441   2.134 -0.8587  0.2690  2.1146
  444SOL     OW 1330   2.135   1.014   1.826 -0.1057 -0.1528 -0.0930
  444SOL    HW1 1331   2.231   0.987   1.819  0.4993 -0.6175  1.1788
  444SOL    HW2 1332   2.084   0.962   1.899 -2.5984 -1.2593 -1.4519
  445SOL     OW 1333   2.749   2.373   1.275  0.1158  0.2193 -0.2422
  445SOL    HW1 1334   2.718   2.301   1.337  1.9339 -0.2192 -5.4296
  445SOL    HW2 1335   2.680   2.413   1.218  1.6757 -2.6549  0.3915
  446SOL     OW 1336   2.930   1.660   0.517 -0.0378  0.4197  0.1796
  446SOL    HW1 1337   2.923   1.591   0.445 -0.1869  1.9685  1.0104
  446SOL    HW2 1338   3.019   1.648   0.563  1.7288 -0.5949 -2.3015
  447SOL     OW 1339   0.500   1.206   0.827 -0.3052  0.4853 -0.2467
  447SOL    HW1 1340   0.453   1.174   0.914 -0.4960 -0.1665  2.6926
  447SOL    HW2 1341   0.599   1.212   0.835  0.7840 -0.8335  0.5143
  448SOL     OW 1342   1.413   1.206   1.415  0.1222  0.4298  0.0735
  448SOL    HW1 1343   1.513   1.189   1.437  2.9652  0.0447 -2.1349
  448SOL    HW2 1344   1.395   1.286   1.357 -0.7804 -1.3586 -0.2491
  449SOL     OW 1345   0.881   1.282   3.063  0.4587  0.3421  0.4724
  449SOL    HW1 1346   0.929   1.244   2.981  1.1013 -1.6009 -1.4046
  449SOL    HW2 1347   0.781   1.263   3.045 -2.6702 -2.1843  2.4326
  450SOL     OW 1348   2.401   2.138   2.165 -0.0233  0.1171 -0.1940
  450SOL    HW1 1349   2.400   2.239   2.138  1.6691  1.6861 -1.4057
  450SOL    HW2 1350   2.495   2.101   2.148  1.7740 -3.1202 -2.1452
  451SOL     OW 1351   1.741   3.046   2.338 -0.0316  0.1707  0.6427
  451SOL    HW1 1352   1.829   0.007   2.375 -1.1852 -0.3350  1.1514
  451SOL    HW2 1353   1.772   2.957   2.302 -1.2763  4.7826  2.0955
  452SOL     OW 1354   1.491   3.038   1.377  0.0304 -0.2798  0.2074
  452SOL    HW1 1355   1.487   3.068   1.284  2.3508 -0.6346  1.6738
  452SOL    HW2 1356   1.469   2.936   1.378  0.1644 -4.2051 -3.2492
  453SOL     OW 1357   1.761   1.078   0.745 -0.4347  0.1578  0.1119
  453SOL    HW1 1358   1.830   1.104   0.671  1.1921  2.9675 -0.8395
  453SOL    HW2 1359   1.679   1.034   0.704 -0.6809 -0.6255 -2.4688
  454SOL     OW 1360   0.380   1.439   0.994  0.0513 -0.2250 -0.1073
  454SOL    HW1 1361   0.318   1.461   0.914 -1.3150  0.6199 -0.2634
  454SOL    HW2 1362   0.454   1.513   0.991  0.1852 -1.5078 -0.8150
  455SOL     OW 1363   2.640   3.025   0.268  0.3828 -0.0471  0.0215
  455SOL    HW1 1364   2.604   3.015   0.173 -2.1196  1.3892 -0.9550
  455SOL    HW2 1365   2.711   0.020   0.266 -1.0700 -0.3984  0.3170
  456SOL     OW 1366   2.569   2.491   1.113 -0.4765 -0.0593  0.6455
  456SOL    HW1 1367   2.569   2.593   1.128  2.5160  0.2324 -0.7468
  456SOL    HW2 1368   2.479   2.456   1.083  0.1376 -2.8677 -2.4954
  457SOL     OW 1369   1.250   0.072   0.240  0.3639  0.1729 -0.3234
  457SOL    HW1 1370   1.317   0.130   0.189  1.9082 -0.1156  1.6531
  457SOL    HW2 1371   1.165   0.126   0.265 -0.2189 -0.6452  0.7707
  458SOL     OW 1372   2.631   0.643   0.311 -0.8080  0.1325 -0.2113
  458SOL    HW1 1373   2.708   0.602   0.367  0.7074 -2.2946  1.1700
  458SOL    HW2 1374   2.544   0.631   0.353  2.5903  1.2766  0.3742
  459SOL     OW 1375   2.040   0.347   2.524  0.5043 -0.8037 -0.1121
  459SOL    HW1 1376   1.955   0.296   2.504 -0.3553  3.5405  1.6286
  459SOL    HW2 1377   2.062   0.334   2.620 -3.3575  2.9173 -2.5728
  460SOL     OW 1378   2.780   0.198   2.499 -0.0411  0.1803  0.3095
  460SOL    HW1 1379   2.747   0.294   2.518  0.5256 -0.4165  0.7156
  460SOL    HW2 1380   2.724   0.159   2.426 -0.6834  0.4939  0.6757
  461SOL     OW 1381   1.206   1.752   0.898 -0.1477 -0.0391  0.4828
  461SOL    HW1 1382   1.221   1.698   0.980  0.0090  1.1023  1.7837
  461SOL    HW2 1383   1.162   1.697   0.826  0.4177 -1.4160 -1.5208
  462SOL     OW 1384   2.470   2.901   1.391  0.0296  0.5875  0.0369
  462SOL    HW1 1385   2.491   2.981   1.333  1.5549 -1.2695  1.4479
  462SOL    HW2 1386   2.390   2.923   1.453 -1.0235 -2.0373 -0.7056
  463SOL     OW 1387   2.558   1.080   0.551 -0.4266 -0.3636  0.2865
  463SOL    HW1 1388   2.516   1.053   0.463  0.2895 -0.9295 -0.3466
  463SOL    HW2 1389   2.575   0.998   0.610  4.2586  0.8620 -1.3005
  464SOL     OW 1390   0.334   2.588   1.090  0.6297  0.2021  0.4492
  464SOL    HW1 1391   0.335   2.550   0.995  1.4354 -0.8295  1.1929
  464SOL    HW2 1392   0.282   2.533   1.157 -0.1345  0.9333  1.7387
  465SOL     OW 1393   2.981   1.623   0.091 -0.0539  0.6550 -0.3136
  465SOL    HW1 1394   2.974   1.531   0.055  1.3582  1.2480  0.7988
  465SOL    HW2 1395   2.959   1.688   0.022 -1.1574 -2.3161  1.9390
  466SOL     OW 1396   1.345   0.505   2.882  0.5801 -0.4192  1.2253
  466SOL    HW1 1397   1.272   0.484   2.946  0.6185 -1.0438 -3.3040
  466SOL    HW2 1398   1.335   0.598   2.836 -0.2255  0.0891 -1.8988
  467SOL     OW 1399   1.042   0.631   2.286  0.0015  0.4941 -0.1877
  467SOL    HW1 1400   1.010   0.607   2.193  1.7306  0.0368  0.7638
  467SOL    HW2 1401   1.147   0.640   2.284  1.6247 -1.8769 -0.5902
  468SOL     OW 1402   0.641   0.800   2.227  0.0853  0.0562  0.2215
  468SOL    HW1 1403   0.642   0.763   2.325 -1.3794 -1.1346  0.9506
  468SOL    HW2 1404   0.712   0.875   2.216 -2.0104 -0.4276  0.7330
  469SOL     OW 1405   0.027   2.173   3.073 -0.4725  0.1548 -0.2261
  469SOL    HW1 1406   3.017   2.157   3.017 -1.7849  1.5297  1.0910
  469SOL    HW2 1407   0.032   2.273   0.023 -1.2731  3.4157  0.2565
  470SOL     OW 1408   2.400   1.954   2.867 -0.5610  0.3002 -0.1003
  470SOL    HW1 1409   2.350   2.002   2.793  1.8773 -2.9070 -2.4780
  470SOL    HW2 1410   2.332   1.928   2.936  2.3008  0.7629  1.7753
  471SOL     OW 1411   2.230   0.647   2.201 -0.3513  0.7403  0.0832
  471SOL    HW1 1412   2.258   0.739   2.173 -1.2501 -1.2825  0.8159
  471SOL    HW2 1413   2.175   0.647   2.291  2.0387  0.0966 -0.2577
  472SOL     OW 1414   0.607   2.613   1.092  0.8518 -0.2289 -0.5795
  472SOL    HW1 1415   0.635   2.681   1.169  3.0188  1.8555  1.7900
  472SOL    HW2 1416   0.505   2.599   1.092  1.5028 -0.5134 -1.4233
  473SOL     OW 1417   0.214   2.998   2.412 -0.1400 -0.8386 -0.2111
  473SOL    HW1 1418   0.306   3.035   2.384  1.4743 -1.4052 -0.8916
  473SOL    HW2 1419   0.148   2.995   2.331  1.7277  1.1788  0.1259
  474SOL     OW 1420   1.534   0.056   1.908  0.6292  0.2403  0.1079
  474SOL    HW1 1421   1.567   0.141   1.868 -2.7770 -2.2121 -1.5988
  474SOL    HW2 1422   1.596   0.001   1.968 -1.0272 -1.1008 -0.8693
  475SOL     OW 1423   1.692   2.730   0.746  0.0432 -0.8035  0.3438
  475SOL    HW1 1424   1.747   2.725   0.663 -2.3850  1.3847  0.3922
  475SOL    HW2 1425   1.753   2.694   0.821  2.4230 -3.6511 -1.1695
  476SOL     OW 1426   0.274   0.521   0.840 -0.2209 -0.1453  0.0929
  476SOL    HW1 1427   0.229   0.604   0.813  1.3873 -1.0063 -0.0997
  476SOL    HW2 1428   0.223   0.436   0.818  2.5075  2.7452  0.4492
  477SOL     OW 1429   1.441   2.267   0.501  0.2966 -0.4150  0.0257
  477SOL    HW1 1430   1.453   2.212   0.416 -1.8911  1.7051 -1.5951
  477SOL    HW2 1431   1.361   2.234   0.554  2.4467  0.6829 -1.9348
  478SOL     OW 1432   0.215   2.321   2.440  0.8990 -0.0469  0.3221
  478SOL    HW1 1433   0.310   2.349   2.449 -1.0705  0.8144 -0.4111
  478SOL    HW2 1434   0.192   2.292   2.347  0.4204  1.9376 -1.0145
  479SOL     OW 1435   2.533   0.459   1.044  0.4215 -0.2495  0.3649
  479SOL    HW1 1436   2.591   0.465   0.964  1.1344  1.3013  1.3630
  479SOL    HW2 1437   2.470   0.380   1.047 -1.3804  0.0444  0.5964
  480SOL     OW 1438   0.002   2.756   0.276  0.1500  0.0846 -0.0600
  480SOL    HW1 1439   0.055   2.822   0.218  1.3985 -0.5452  0.9178
  480SOL    HW2 1440   2.979   2.770   0.269 -0.6701 -0.1532  0.7325
  481SOL     OW 1441   2.674   2.184   1.470  0.0309 -0.1675  0.5783
  481SOL    HW1 1442   2.582   2.135   1.480 -1.1700  0.8275 -0.6723
  481SOL    HW2 1443   2.753   2.124   1.493  1.1624  1.6721 -0.7565
  482SOL     OW 1444   1.142   2.485   2.774 -0.2573  0.0065  0.4450
  482SOL    HW1 1445   1.157   2.516   2.680 -0.7989  0.3461  2.1741
  482SOL    HW2 1446   1.047   2.457   2.790  1.2380  0.0443 -1.6980
  483SOL     OW 1447   0.430   2.537   2.391  0.2520  0.0934  0.4612
  483SOL    HW1 1448   0.368   2.612   2.369  2.3305 -3.0454  3.6542
  483SOL    HW2 1449   0.491   2.514   2.311  2.3432  0.9361 -2.9917
  484SOL     OW 1450   1.183   0.663   1.656  0.2052 -0.1710  0.0171
  484SOL    HW1 1451   1.256   0.619   1.599  0.5019  0.4056  0.1271
  484SOL    HW2 1452   1.216   0.735   1.716  0.5205 -0.4403  0.7939
  485SOL     OW 1453   2.246   0.865   2.477  0.2404  0.2552 -0.0203
  485SOL    HW1 1454   2.186   0.780   2.461 -1.3752 -2.3517  0.2724
  485SOL    HW2 1455   2.236   0.931   2.403 -1.0422  0.0439  2.0230
  486SOL     OW 1456   2.313   3.057   1.043 -0.3517 -0.0266  0.3149
  486SOL    HW1 1457   2.298   2.967   1.093 -1.4778  0.2007 -1.9870
  486SOL    HW2 1458   2.378   3.055   0.962  1.5037 -0.8723 -0.7433
  487SOL     OW 1459   0.554   2.088   1.615 -0.4149 -0.5201 -0.3090
  487SOL    HW1 1460   0.483   2.020   1.637  2.1315  1.6062 -1.4783
  487SOL    HW2 1461   0.635   2.076   1.677 -0.4353  0.6615  0.9814
  488SOL     OW 1462   2.422   1.457   2.778  0.2484  0.3571  0.3872
  488SOL    HW1 1463   2.367   1.538   2.783  2.1804  1.4366  0.7132
  488SOL    HW2 1464   2.382   1.371   2.810 -0.4699 -1.1336  0.0839
  489SOL     OW 1465   1.841   0.039   0.890 -0.1866 -0.0175  0.1254
  489SOL    HW1 1466   1.921   0.014   0.950  1.8002  1.4108  0.9272
  489SOL    HW2 1467   1.846   0.140   0.872  1.3831 -1.5364 -0.5205
  490SOL     OW 1468   0.887   1.158   0.598  0.3721  0.2384 -0.2254
  490SOL    HW1 1469   0.972   1.207   0.565  1.3617 -3.3180 -0.7959
  490SOL    HW2 1470   0.807   1.207   0.556 -0.6195  2.6743 -5.6581
  491SOL     OW 1471   0.706   2.401   0.948  0.6704  0.0938 -0.1470
  491SOL    HW1 1472   0.798   2.438   0.925 -1.2624  2.1731  2.7772
  491SOL    HW2 1473   0.658   2.467   1.010  1.3439 -2.6838 -1.5779
  492SOL     OW 1474   1.285   1.754   1.913 -0.2796  0.2544 -0.1195
  492SOL    HW1 1475   1.239   1.840   1.939  0.3369 -1.0203 -1.9649
  492SOL    HW2 1476   1.241   1.677   1.962  1.8103  0.7860  2.5278
  493SOL     OW 1477   2.778   2.473   0.643  0.2081 -1.1045 -0.1904
  493SOL    HW1 1478   2.869   2.432   0.630  0.5614  0.3559 -2.0809
  493SOL    HW2 1479   2.739   2.435   0.728 -1.3185  2.0997 -1.6586
  494SOL     OW 1480   2.726   2.166   0.149 -0.7965  0.1545 -0.0952
  494SOL    HW1 1481   2.659   2.108   0.102  0.6300  0.7463  1.8930
  494SOL    HW2 1482   2.811   2.110   0.174  2.0598 -1.7043 -0.5413
  495SOL     OW 1483   2.802   2.498   2.977 -0.7288  0.1399 -0.1264
  495SOL    HW1 1484   2.756   2.423   2.931  0.6701  1.4544  1.4987
  495SOL    HW2 1485   2.833   2.472   3.070  1.0624 -0.9659 -0.4361
  496SOL     OW 1486   2.514   0.438   1.565  0.8517  0.2202  0.0171
  496SOL    HW1 1487   2.414   0.458   1.572 -4.5594 -0.1711 -1.2950
  496SOL    HW2 1488   2.534   0.382   1.482 -1.7860  2.1007 -2.0791
  497SOL     OW 1489   2.870   1.215   2.929 -0.1373  0.4150  0.2090
  497SOL    HW1 1490   2.936   1.231   3.005 -1.5687  1.5219 -0.2678
  497SOL    HW2 1491   2.825   1.301   2.894  0.0744  1.6962 -3.4005
  498SOL     OW 1492   0.086   1.412   1.877  0.3943  0.4103 -0.3324
  498SOL    HW1 1493   0.023   1.426   1.957  1.0410  1.2933  0.2610
  498SOL    HW2 1494   0.031   1.391   1.794  0.8416 -1.5270 -1.3608
  499SOL     OW 1495   0.758   2.177   2.606 -0.1783  0.6268 -0.3879
  499SOL    HW1 1496   0.660   2.193   2.577 -1.1140  0.3152 -1.5940
  499SOL    HW2 1497   0.771   2.090   2.659  2.7542  0.9362 -0.0216
  500SOL     OW 1498   1.849   0.318   3.028 -0.2862  0.1763 -0.4759
  500SOL    HW1 1499   1.914   0.397   3.014  0.2032 -1.0913 -0.5027
  500SOL    HW2 1500   1.897   0.230   3.013 -0.6267  0.1444 -0.5213
  501SOL     OW 1501   1.238   3.031   1.614  0.0380  1.2713 -0.0255
  501SOL    HW1 1502   1.294   0.013   1.558 -1.3110 -0.8670  0.5167
  501SOL    HW2 1503   1.278   2.945   1.657 -1.4725 -2.7453  1.1322
  502SOL     OW 1504   2.354   0.837   1.885  0.1638 -0.0183 -0.2259
  502SOL    HW1 1505   2.430   0.881   1.822 -0.2414  1.3750 -0.3901
  502SOL    HW2 1506   2.329   0.752   1.841  0.8120  0.3240 -0.2078
  503SOL     OW 1507   2.299   1.861   2.222  0.5389  0.1345 -0.0348
  503SOL    HW1 1508   2.310   1.958   2.232  0.2824 -1.9818  0.3000
  503SOL    HW2 1509   2.216   1.842   2.166  0.3519  1.7520 -0.3913
  504SOL     OW 1510   1.501   0.786   1.495 -0.9764 -0.2880  0.1124
  504SOL    HW1 1511   1.416   0.837   1.504 -0.1547  2.8991 -0.9442
  504SOL    HW2 1512   1.490   0.690   1.522  1.0940  2.5338 -2.1279
  505SOL     OW 1513   0.861   0.735   1.860 -0.2860  0.7248  0.0888
  505SOL    HW1 1514   0.902   0.828   1.880 -2.0062 -3.6661 -1.3500
  505SOL    HW2 1515   0.870   0.704   1.760 -0.6411  0.5227 -3.2200
  506SOL     OW 1516   0.543   0.235   2.584 -0.2979 -0.2605 -0.4858
  506SOL    HW1 1517   0.587   0.147   2.599 -1.0351  2.9098 -3.0817
  506SOL    HW2 1518   0.615   0.305   2.553  1.9677 -0.0297 -1.2318
  507SOL     OW 1519   0.138   2.991   0.186  0.5993 -0.4257 -0.1924
  507SOL    HW1 1520   0.213   3.013   0.252 -1.4779  2.6375  0.3893
  507SOL    HW2 1521   0.051   3.041   0.208 -0.0114 -0.6876  0.0136
  508SOL     OW 1522   1.268   0.987   1.481 -0.9351 -0.0821  0.9092
  508SOL    HW1 1523   1.205   1.006   1.558  2.6268  3.1784 -2.1211
  508SOL    HW2 1524   1.326   1.067   1.467 -1.2550 -2.5708  1.2392
  509SOL     OW 1525   1.434   2.179   1.275 -0.2369 -0.0880 -0.4044
  509SOL    HW1 1526   1.409   2.081   1.264  0.0113  3.6232 -2.3855
  509SOL    HW2 1527   1.531   2.179   1.312 -0.9479 -2.5987 -0.1410
  510SOL     OW 1528   2.622   1.307   1.896  0.1659  0.3567  0.2705
  510SOL    HW1 1529   2.681   1.380   1.861 -0.0271 -2.5617  0.3201
  510SOL    HW2 1530   2.587   1.328   1.989  1.8039  1.2373 -0.5029
  511SOL     OW 1531   0.810   2.237   1.533  0.1361  0.2932 -0.2933
  511SOL    HW1 1532   0.849   2.255   1.443 -3.9579  0.7998  2.1393
  511SOL    HW2 1533   0.714   2.271   1.542  1.8518 -1.4833 -0.7749
  512SOL     OW 1534   2.811   1.695   0.769 -0.6005  0.3543 -0.0492
  512SOL    HW1 1535   2.836   1.677   0.672  0.9488 -2.4315 -1.3578
  512SOL    HW2 1536   2.875   1.759   0.813 -1.7655 -0.0258  0.6266
  513SOL     OW 1537   0.099   1.486   2.847 -0.3938 -0.0970  0.4849
  513SOL    HW1 1538   0.177   1.550   2.863 -0.2511  3.0602 -2.0453
  513SOL    HW2 1539   0.062   1.453   2.931  0.3874  0.6341 -3.4320
  514SOL     OW 1540   2.811   2.229   2.424 -0.2032 -0.1619 -0.8391
  514SOL    HW1 1541   2.893   2.174   2.403 -1.6444 -1.3464 -1.1012
  514SOL    HW2 1542   2.817   2.323   2.381  0.8869  3.0478  0.8787
  515SOL     OW 1543   2.120   1.116   1.044 -0.2016  0.1572 -0.2648
  515SOL    HW1 1544   2.045   1.071   0.989  1.6598  0.3988 -0.2560
  515SOL    HW2 1545   2.151   1.197   0.996 -1.1155 -2.8037  2.6054
  516SOL     OW 1546   2.109   1.950   0.360 -0.0790  0.0167 -0.4185
  516SOL    HW1 1547   2.149   1.964   0.455 -1.8704 -0.3652  0.9137
  516SOL    HW2 1548   2.075   1.855   0.347 -0.6910  2.6094  2.8008
  517SOL     OW 1549   0.654   1.088   0.177  0.0574 -0.4023  0.1785
  517SOL    HW1 1550   0.624   1.143   0.097  0.8475 -1.3369  1.9776
  517SOL    HW2 1551   0.697   1.147   0.249 -1.7236  0.2189  0.5916
  518SOL     OW 1552   2.774   2.903   2.028  0.1191  0.1106  0.0083
  518SOL    HW1 1553   2.870   2.880   2.003  2.1436 -2.6981 -1.2485
  518SOL    HW2 1554   2.716   2.881   1.948 -0.8972 -0.4033 -0.7589
  519SOL     OW 1555   1.390   1.703   2.577 -0.0148  0.0384  0.4245
  519SOL    HW1 1556   1.377   1.782   2.642  1.5676  1.5249  0.0954
  519SOL    HW2 1557   1.465   1.642   2.607 -0.5536  0.1520 -1.4392
  520SOL     OW 1558   2.412   2.812   2.218  0.2577  0.3051 -0.0735
  520SOL    HW1 1559   2.431   2.880   2.146  0.4240  0.7965 -1.6531
  520SOL    HW2 1560   2.440   2.853   2.306  1.9820  0.5631  1.4882
  521SOL     OW 1561   0.307   1.657   2.165  0.0896 -0.0263 -0.2671
  521SOL    HW1 1562   0.384   1.663   2.228 -2.6656 -0.8250 -3.8456
  521SOL    HW2 1563   0.326   1.584   2.096 -0.4707  2.0947 -0.4482
  522SOL     OW 1564   0.662   2.547   1.781  0.3716 -0.3900 -0.2350
  522SOL    HW1 1565   0.628   2.540   1.683 -2.3098 -0.8872  0.2587
  522SOL    HW2 1566   0.761   2.520   1.789  4.0711 -4.0252  0.7242
  523SOL     OW 1567   3.004   2.298   1.269 -0.5569 -0.2890 -0.6749
  523SOL    HW1 1568   3.040   2.293   1.365  1.3817  0.5244 -2.3744
  523SOL    HW2 1569   2.904   2.319   1.266 -1.1713  1.0708  0.8527
  524SOL     OW 1570   1.515   2.435   0.704 -0.0926 -0.0143 -0.2956
  524SOL    HW1 1571   1.512   2.397   0.606 -0.7771  0.8508 -1.1727
  524SOL    HW2 1572   1.450   2.380   0.761 -1.8171 -1.1296  0.0768
  525SOL     OW 1573   2.566   0.996   1.210  0.0359 -0.7733 -0.0206
  525SOL    HW1 1574   2.602   1.042   1.290 -0.8468  2.8705 -0.0909
  525SOL    HW2 1575   2.526   1.053   1.141  0.2489 -2.1994 -0.2708
  526SOL     OW 1576   0.942   2.479   0.808  1.2623  0.0218  0.3069
  526SOL    HW1 1577   0.897   2.469   0.718 -0.4480  2.7922  1.0408
  526SOL    HW2 1578   0.984   2.390   0.835  0.4271  1.4461 -1.6919
  527SOL     OW 1579   2.108   2.242   0.645  0.3338  0.3042  0.6540
  527SOL    HW1 1580   2.077   2.327   0.596  0.5528 -0.9583 -0.5654
  527SOL    HW2 1581   2.196   2.258   0.685 -3.5589 -0.5508 -1.5076
  528SOL     OW 1582   2.263   0.432   0.152  0.3301  0.3000  0.3440
  528SOL    HW1 1583   2.166   0.462   0.169 -0.4765 -0.2589  0.7846
  528SOL    HW2 1584   2.265   0.329   0.137  2.6642 -2.0896 -1.1077
  529SOL     OW 1585   1.202   1.543   2.271  0.6447 -0.5695  0.2081
  529SOL    HW1 1586   1.295   1.517   2.253 -2.8535  1.4126  2.7922
  529SOL    HW2 1587   1.184   1.534   2.366 -2.6419  0.6526 -1.0889
  530SOL     OW 1588   2.223   1.123   2.303  0.0076 -0.8319 -0.1621
  530SOL    HW1 1589   2.317   1.111   2.265  1.3187 -0.6145 -3.6779
  530SOL    HW2 1590   2.213   1.216   2.350 -2.9958  2.5104  4.2501
  531SOL     OW 1591   0.775   0.901   0.044  0.2978 -0.4331 -0.1810
  531SOL    HW1 1592   0.720   0.985   0.067  1.5036  0.2463  1.1356
  531SOL    HW2 1593   0.748   0.822   0.103  0.3012 -1.0558  0.9722
  532SOL     OW 1594   1.624   1.328   0.586  0.7184 -1.2249 -0.7307
  532SOL    HW1 1595   1.669   1.253   0.538 -1.4357  2.2031  1.4876
  532SOL    HW2 1596   1.578   1.301   0.677 -0.5696  3.2618  0.2092
  533SOL     OW 1597   0.353   0.811   2.300  0.0819  0.2848 -0.4253
  533SOL    HW1 1598   0.454   0.816   2.296 -1.9800 -0.1988  0.1748
  533SOL    HW2 1599   0.319   0.791   2.395 -1.2300 -0.8952 -2.3884
  534SOL     OW 1600   1.376   0.272   2.727 -0.8727  0.5242 -0.5276
  534SOL    HW1 1601   1.354   0.362   2.764  0.6527 -1.4233 -0.9035
  534SOL    HW2 1602   1.296   0.206   2.726  1.2247  0.1027  1.8428
  535SOL     OW 1603   0.689   0.226   0.394  0.0134 -0.4048  0.0502
  535SOL    HW1 1604   0.694   0.124   0.399 -1.3973 -0.4204  0.0102
  535SOL    HW2 1605   0.758   0.268   0.456 -2.1619 -1.2878 -0.0138
  536SOL     OW 1606   0.818   0.463   0.037  0.5502 -0.0116  0.2065
  536SOL    HW1 1607   0.885   0.526   0.000 -0.9934 -2.2197  0.5942
  536SOL    HW2 1608   0.860   0.378   0.070 -0.7561 -1.3996 -2.0097
  537SOL     OW 1609   1.387   2.774   1.646 -0.5943  0.1288  0.6323
  537SOL    HW1 1610   1.409   2.675   1.668 -0.4327 -0.8439  0.4454
  537SOL    HW2 1611   1.473   2.824   1.621  1.3867 -1.4496  1.3645
  538SOL     OW 1612   0.353   2.854   3.012  0.3347 -0.1723  0.0648
  538SOL    HW1 1613   0.321   2.874   2.917  1.2345 -1.4520 -1.9280
  538SOL    HW2 1614   0.446   2.890   3.032  0.5882 -0.7880  0.9524
  539SOL     OW 1615   2.696   1.050   1.931  0.2728  0.3277 -0.0997
  539SOL    HW1 1616   2.627   1.001   1.985 -0.3726 -1.1248  0.9567
  539SOL    HW2 1617   2.675   1.149   1.924 -0.1331 -0.9833  1.4610
  540SOL     OW 1618   2.227   2.196   1.910  0.4417  0.4171 -0.0216
  540SOL    HW1 1619   2.302   2.252   1.954 -0.9906  1.4315 -0.8774
  540SOL    HW2 1620   2.253   2.114   1.854  0.5069  1.1926 -0.3306
  541SOL     OW 1621   0.368   2.695   1.561 -0.5136 -0.0220 -0.1566
  541SOL    HW1 1622   0.286   2.739   1.528  0.8842 -0.5944 -1.4198
  541SOL    HW2 1623   0.426   2.764   1.603 -2.6273 -1.3606  2.0954
  542SOL     OW 1624   2.825   0.360   1.984  0.1421 -0.4094 -0.2205
  542SOL    HW1 1625   2.794   0.373   1.889 -0.3832  0.9843  3.7003
  542SOL    HW2 1626   2.846   0.266   2.010 -0.3640  0.3810  1.2472
  543SOL     OW 1627   1.230   0.585   0.817 -0.0379 -0.5352  0.3768
  543SOL    HW1 1628   1.296   0.580   0.738 -1.1158 -2.0977  0.5308
  543SOL    HW2 1629   1.194   0.680   0.820 -2.7789 -0.9970 -0.5121
  544SOL     OW 1630   2.308   2.166   1.141  0.2686 -0.0534  0.3994
  544SOL    HW1 1631   2.344   2.075   1.102  1.1714 -1.5463  0.8126
  544SOL    HW2 1632   2.325   2.247   1.078 -1.4808 -0.6361 -3.3486
  545SOL     OW 1633   1.412   1.462   1.281  0.2221  0.2240  0.1107
  545SOL    HW1 1634   1.512   1.453   1.259  4.1915 -0.1802  0.7852
  545SOL    HW2 1635   1.392   1.531   1.355  0.4174 -0.3575  0.2359
  546SOL     OW 1636   2.937   0.114   2.726  0.2665  0.4234 -0.0458
  546SOL    HW1 1637   2.886   0.132   2.643  0.7414  3.0718  3.7441
  546SOL    HW2 1638   2.892   0.159   2.812 -3.0164 -3.0192 -1.7774
  547SOL     OW 1639   2.375   0.271   2.632 -0.3416 -0.2366  0.3209
  547SOL    HW1 1640   2.298   0.308   2.684  2.5265 -0.0929 -4.1755
  547SOL    HW2 1641   2.455   0.331   2.636 -1.1752 -0.4176 -0.1958
  548SOL     OW 1642   2.641   1.918   2.697 -0.2452 -0.2740 -0.2807
  548SOL    HW1 1643   2.563   1.942   2.764 -0.3026 -0.2226  1.1393
  548SOL    HW2 1644   2.714   1.862   2.747  0.2241 -2.0589  0.4707
  549SOL     OW 1645   2.391   0.639   0.670 -0.5885 -0.2107 -0.2648
  549SOL    HW1 1646   2.441   0.723   0.700  0.5715  0.2284  0.2599
  549SOL    HW2 1647   2.406   0.628   0.570  2.3220  1.8089 -1.3023
  550SOL     OW 1648   2.510   1.250   3.070  0.1752 -0.6104  0.5488
  550SOL    HW1 1649   2.511   1.212   2.970 -0.7646 -1.5768  0.1733
  550SOL    HW2 1650   2.412   1.256   0.024 -3.7291 -1.5659  0.3566
  551SOL     OW 1651   1.339   2.575   1.260  0.1784  0.2139  0.1769
  551SOL    HW1 1652   1.247   2.601   1.296  0.7064 -1.8224  0.1763
  551SOL    HW2 1653   1.336   2.494   1.197  1.2967 -1.7322 -1.8214
  552SOL     OW 1654   2.729   2.227   2.888  0.0088  0.5391 -0.3231
  552SOL    HW1 1655   2.730   2.267   2.791 -2.3673  3.5577 -1.8088
  552SOL    HW2 1656   2.631   2.230   2.913  2.1764 -0.6291 -0.8446
  553SOL     OW 1657   0.524   3.044   0.604 -0.3595 -0.0744  0.0151
  553SOL    HW1 1658   0.491   0.049   0.659  0.5676  1.6285 -0.9624
  553SOL    HW2 1659   0.618   3.023   0.634 -0.7771  1.5506 -0.9947
  554SOL     OW 1660   1.650   1.842   1.884 -0.0599  0.4300 -0.6889
  554SOL    HW1 1661   1.613   1.784   1.961 -0.4529 -1.4064  0.4381
  554SOL    HW2 1662   1.726   1.792   1.843 -0.9817 -0.0506  1.0009
  555SOL     OW 1663   1.491   2.554   2.016 -0.2511  0.4863  0.1149
  555SOL    HW1 1664   1.451   2.502   1.934 -0.8169 -0.9462 -1.5541
  555SOL    HW2 1665   1.465   2.513   2.107 -1.4194 -3.4117  2.7085
  556SOL     OW 1666   1.933   1.240   0.561  0.1675 -0.0265  0.1222
  556SOL    HW1 1667   2.033   1.247   0.550  0.5944 -0.0794  1.9398
  556SOL    HW2 1668   1.889   1.324   0.603  0.9746  0.6222 -2.1298
  557SOL     OW 1669   1.456   2.237   1.867 -0.1254 -0.0388  0.0993
  557SOL    HW1 1670   1.384   2.304   1.886  3.4901  1.8305  1.0999
  557SOL    HW2 1671   1.420   2.179   1.793  0.4011 -0.9981  0.4259
  558SOL     OW 1672   2.970   0.999   2.378 -0.4167 -0.3255  0.5421
  558SOL    HW1 1673   2.877   1.016   2.408  0.1779 -2.2462 -2.9073
  558SOL    HW2 1674   3.010   0.917   2.426 -1.7470 -0.3748 -1.5364
  559SOL     OW 1675   2.295   2.641   2.058 -0.1444 -0.3853  0.0643
  559SOL    HW1 1676   2.201   2.613   2.091  4.6426  1.8234  0.1413
  559SOL    HW2 1677   2.343   2.709   2.118  2.8776  2.5389  0.4960
  560SOL     OW 1678   0.028   2.892   2.596 -0.2135 -0.7059 -0.7220
  560SOL    HW1 1679   3.013   2.880   2.558  2.4392  0.4986  0.3434
  560SOL    HW2 1680   0.081   2.966   2.548  0.7885  2.7795 -0.4819
  561SOL     OW 1681   1.811   0.892   0.472 -0.5664 -0.0836  0.1784
  561SOL    HW1 1682   1.763   0.811   0.428 -2.3428 -2.6075 -0.2134
  561SOL    HW2 1683   1.913   0.883   0.480 -1.4894  0.8072 -0.5887
  562SOL     OW 1684   0.847   1.001   2.170  0.2115  0.4203 -0.1409
  562SOL    HW1 1685   0.930   0.968   2.216  0.4527  0.7704  1.8524
  562SOL    HW2 1686   0.841   1.101   2.186  4.6322 -0.4040  1.0618
  563SOL     OW 1687   1.543   2.245   0.096  0.2448  0.4332 -0.3797
  563SOL    HW1 1688   1.516   2.180   0.172 -0.4838 -0.2592  1.1437
  563SOL    HW2 1689   1.501   2.222   0.005 -0.6219  2.8885  1.4432
  564SOL     OW 1690   0.468   2.031   0.741 -0.1234  0.4262 -0.2825
  564SOL    HW1 1691   0.515   2.017   0.655  1.1639 -2.9517 -2.3617
  564SOL    HW2 1692   0.419   1.948   0.777  1.0612 -0.1454  1.0879
  565SOL     OW 1693   0.624   2.971   0.016  0.1626  0.0325 -0.1372
  565SOL    HW1 1694   0.668   2.892   3.044 -0.3941 -2.2673 -1.0899
  565SOL    HW2 1695   0.633   3.060   3.045  0.6675  1.4550  1.3347
  566SOL     OW 1696   1.823   2.549   2.890  0.4330 -0.3220  0.0797
  566SOL    HW1 1697   1.807   2.510   2.793 -1.2904 -1.8251 -2.7780
  566SOL    HW2 1698   1.736   2.546   2.947  0.3719 -0.9466 -1.5951
  567SOL     OW 1699   2.555   1.765   0.859 -0.2388 -0.3228  0.3075
  567SOL    HW1 1700   2.648   1.752   0.817 -0.2764 -1.6496 -1.2079
  567SOL    HW2 1701   2.520   1.677   0.893  0.3750 -0.5722  0.3517
  568SOL     OW 1702   1.501   1.047   2.594 -0.1405 -0.1593 -0.2955
  568SOL    HW1 1703   1.448   0.963   2.566  0.8656 -0.7253 -2.2649
  568SOL    HW2 1704   1.515   1.040   2.694 -4.1518 -0.1550  0.3689
  569SOL     OW 1705   2.273   1.705   1.722  0.2255 -0.1002  0.1163
  569SOL    HW1 1706   2.300   1.630   1.656 -1.0767 -2.1114  0.4995
  569SOL    HW2 1707   2.274   1.658   1.812  1.5441  1.3241  1.1007
  570SOL     OW 1708   2.900   2.489   1.798  0.1936  0.2496  0.8662
  570SOL    HW1 1709   2.941   2.490   1.887 -2.1361  1.0612 -2.3417
  570SOL    HW2 1710   2.938   2.560   1.734  0.7398 -0.2430 -1.2246
  571SOL     OW 1711   0.009   0.589   1.300 -0.4691  0.3487  0.1320
  571SOL    HW1 1712   3.074   0.555   1.209 -1.9655  0.3011  2.2614
  571SOL    HW2 1713   3.020   0.669   1.321 -1.6271  2.7624  0.7739
  572SOL     OW 1714   0.729   1.721   0.687  0.4403 -0.0712  0.5459
  572SOL    HW1 1715   0.753   1.796   0.749  0.2168 -2.0226 -1.9368
  572SOL    HW2 1716   0.668   1.752   0.614  2.8681  0.4329  1.6779
  573SOL     OW 1717   1.039   0.993   0.100 -0.0701  0.2592 -0.6362
  573SOL    HW1 1718   0.940   0.976   0.091  0.1729  0.7839  1.1745
  573SOL    HW2 1719   1.063   1.014   0.197  2.0237 -3.1115 -0.0212
  574SOL     OW 1720   0.248   0.169   0.350  0.1569 -0.1735  0.1192
  574SOL    HW1 1721   0.287   0.083   0.393 -0.3760 -2.0115  0.0602
  574SOL    HW2 1722   0.245   0.165   0.249 -1.0313  1.7615 -1.7620
  575SOL     OW 1723   1.030   1.980   1.219  0.0521  0.3012  0.3778
  575SOL    HW1 1724   1.031   1.959   1.121 -0.6147 -0.8564 -0.9838
  575SOL    HW2 1725   1.061   1.899   1.275  1.7036 -2.6151 -0.2508
  576SOL     OW 1726   3.036   0.107   1.891  0.0494 -0.0586 -0.4587
  576SOL    HW1 1727   3.022   0.007   1.898 -3.8493  1.0653 -0.6222
  576SOL    HW2 1728   0.008   0.143   1.973 -1.0200 -0.3793  1.9800
  577SOL     OW 1729   2.950   1.511   2.036 -0.0167  0.0963  0.1330
  577SOL    HW1 1730   2.956   1.591   2.100 -0.0253  1.4901 -2.5889
  577SOL    HW2 1731   2.918   1.429   2.091  0.2128 -2.5400  0.2859
  578SOL     OW 1732   0.987   3.030   2.294 -0.0586 -0.6684  0.1959
  578SOL    HW1 1733   1.003   3.019   2.197 -2.2993 -0.1948  0.9720
  578SOL    HW2 1734   1.054   2.973   2.345  0.7771 -1.0504 -1.3011
  579SOL     OW 1735   2.028   1.839   2.081  0.1214 -0.6680 -0.1780
  579SOL    HW1 1736   2.011   1.936   2.062  1.0767 -1.7374 -0.4844
  579SOL    HW2 1737   2.024   1.789   1.992  0.4567  0.9999 -2.6009
  580SOL     OW 1738   1.789   1.077   2.111 -0.6120  0.3103  0.1213
  580SOL    HW1 1739   1.853   1.007   2.074  2.3105 -1.5572 -0.9926
  580SOL    HW2 1740   1.815   1.095   2.209 -0.7961 -1.6821 -2.8295
  581SOL     OW 1741   1.205   1.260   2.511  0.3323  0.4972 -0.0667
  581SOL    HW1 1742   1.303   1.271   2.492 -0.9891 -1.0311 -2.2462
  581SOL    HW2 1743   1.168   1.347   2.494  2.6229 -1.1482 -0.1376
  582SOL     OW 1744   0.020   1.989   1.884  0.4216  0.2203  1.1101
  582SOL    HW1 1745   0.065   1.932   1.956  3.7492 -1.8549 -1.4637
  582SOL    HW2 1746   0.033   2.091   1.888 -0.9690 -2.1966 -1.2840
  583SOL     OW 1747   1.814   1.286   0.910  0.2350  0.2140 -0.7624
  583SOL    HW1 1748   1.793   1.197   0.866  0.4740  1.3613 -0.2008
  583SOL    HW2 1749   1.816   1.354   0.834 -0.8400 -0.8593 -0.0413
  584SOL     OW 1750   0.802   2.454   0.258 -0.5439  0.2856 -0.4184
  584SOL    HW1 1751   0.885   2.482   0.211 -1.1416  1.0270  1.1654
  584SOL    HW2 1752   0.801   2.351   0.252  2.0663 -0.3996  0.8436
  585SOL     OW 1753   0.296   2.407   0.287  0.3331  0.7849 -0.3207
  585SOL    HW1 1754   0.221   2.417   0.224 -0.6920  4.1010  0.8629
  585SOL    HW2 1755   0.276   2.472   0.364 -1.4478  0.5380 -0.8692
  586SOL     OW 1756   2.160   1.321   0.426 -0.6873  0.0713  0.1278
  586SOL    HW1 1757   2.106   1.271   0.356  0.8465 -0.3747  0.6392
  586SOL    HW2 1758   2.112   1.409   0.449 -1.7927 -0.3622  0.2375
  587SOL     OW 1759   2.899   2.009   0.266  0.0107  0.0108  0.1490
  587SOL    HW1 1760   2.966   2.045   0.329 -4.1856 -3.9174 -0.9605
  587SOL    HW2 1761   2.823   1.960   0.317  0.2744 -2.1258 -0.9322
  588SOL     OW 1762   2.984   0.849   0.872  0.1975  0.1467  0.5143
  588SOL    HW1 1763   3.048   0.844   0.949  0.9557  2.0101 -1.0957
  588SOL    HW2 1764   2.894   0.882   0.903 -1.9190  3.5792 -0.4575
  589SOL     OW 1765   1.372   0.361   0.539  0.3634 -0.3998 -0.0370
  589SOL    HW1 1766   1.382   0.461   0.569 -2.4247  0.2372 -0.4773
  589SOL    HW2 1767   1.317   0.313   0.610  1.4031  3.0602  0.8431
  590SOL     OW 1768   2.420   2.424   0.166 -0.4725 -0.4861 -0.5177
  590SOL    HW1 1769   2.456   2.363   0.237 -1.9021  1.1922  0.8481
  590SOL    HW2 1770   2.447   2.523   0.183  1.3512  3.2939 -1.4405
  591SOL     OW 1771   0.287   2.607   1.921 -0.4335  0.4632  0.5579
  591SOL    HW1 1772   0.379   2.570   1.946 -1.7244  0.7804  0.3073
  591SOL    HW2 1773   0.246   2.547   1.850 -1.4425 -0.4020 -1.3008
  592SOL     OW 1774   0.486   1.258   1.812  0.1256  0.2394 -0.5812
  592SOL    HW1 1775   0.461   1.213   1.899  0.4385 -0.7384 -0.1891
  592SOL    HW2 1776   0.587   1.257   1.806 -0.4805 -4.7599  0.1298
  593SOL     OW 1777   1.489   1.700   1.430  0.2340 -0.1961 -0.7605
  593SOL    HW1 1778   1.547   1.617   1.437  0.5144  0.9615 -0.5605
  593SOL    HW2 1779   1.466   1.741   1.526  2.0444  1.6056  1.2890
  594SOL     OW 1780   0.377   0.893   2.958  0.0691  0.1127 -0.2288
  594SOL    HW1 1781   0.347   0.992   2.963  1.0853  1.9597 -0.9128
  594SOL    HW2 1782   0.330   0.843   2.889  2.0875  1.9019  1.4206
  595SOL     OW 1783   1.851   0.314   0.888 -0.0284 -0.4894 -0.1983
  595SOL    HW1 1784   1.888   0.392   0.838 -1.1069 -2.7760  0.2729
  595SOL    HW2 1785   1.797   0.354   0.970 -2.3235  1.0313  0.5743
  596SOL     OW 1786   0.422   1.189   1.087  0.3334 -0.1827 -0.1012
  596SOL    HW1 1787   0.514   1.188   1.133  1.6448  1.0773 -1.9603
  596SOL    HW2 1788   0.402   1.283   1.066  3.3232 -4.6838  1.3626
  597SOL     OW 1789   2.980   2.435   2.717 -0.1329 -0.0446 -0.1229
  597SOL    HW1 1790   2.966   2.493   2.796  0.1349  1.4709 -0.7800
  597SOL    HW2 1791   2.895   2.403   2.678  1.2862  0.9263  0.5150
  598SOL     OW 1792   2.216   2.041   2.675  0.7681  0.5880 -0.0570
  598SOL    HW1 1793   2.152   2.070   2.750  1.9421 -0.2240 -0.3788
  598SOL    HW2 1794   2.252   2.123   2.631 -2.3617 -0.5469 -1.6530
  599SOL     OW 1795   1.534   0.612   0.282  0.0218 -0.7288  0.4588
  599SOL    HW1 1796   1.471   0.534   0.280 -0.9991  1.3231 -0.2043
  599SOL    HW2 1797   1.592   0.613   0.370  1.0198 -0.5520  0.3031
  600SOL     OW 1798   0.818   0.199   0.129 -0.0288  0.1454 -0.1354
  600SOL    HW1 1799   0.716   0.196   0.131  0.0079 -1.1328  0.4684
  600SOL    HW2 1800   0.860   0.101   0.122  2.4940 -2.3174 -1.3851
  601SOL     OW 1801   0.600   0.156   1.454  0.0913  0.1800 -0.0912
  601SOL    HW1 1802   0.607   0.121   1.358  1.1773  0.2044  1.2704
  601SOL    HW2 1803   0.552   0.241   1.469  0.5841  0.2833 -3.9490
  602SOL     OW 1804   0.220   2.716   0.692 -0.2062  0.4196 -0.3050
  602SOL    HW1 1805   0.191   2.671   0.606  0.2082 -0.4861 -1.4387
  602SOL    HW2 1806   0.153   2.784   0.731  2.6465 -1.4878  1.1261
  603SOL     OW 1807   0.659   2.720   2.506  0.5594 -0.4119  0.5972
  603SOL    HW1 1808   0.679   2.793   2.437  0.7692  1.3978 -1.5072
  603SOL    HW2 1809   0.606   2.648   2.469  0.8394  1.4846  1.8401
  604SOL     OW 1810   1.086   2.644   0.073 -0.0868 -0.2692  0.2281
  604SOL    HW1 1811   1.120   2.612   0.162 -1.2182  0.7343  4.3212
  604SOL    HW2 1812   1.157   2.630   3.071 -0.0828  0.1873 -3.1068
  605SOL     OW 1813   1.659   0.856   1.703 -0.2994  0.3357 -0.1135
  605SOL    HW1 1814   1.605   0.839   1.618 -1.8726  0.7246  0.1085
  605SOL    HW2 1815   1.741   0.907   1.679 -1.5136  1.9827 -1.7057
  606SOL     OW 1816   1.121   0.781   2.588  0.1151 -0.5000  0.1428
  606SOL    HW1 1817   1.138   0.685   2.552  1.6205  0.5841  0.3416
  606SOL    HW2 1818   1.020   0.804   2.585 -2.9955  0.3401 -2.6094
  607SOL     OW 1819   0.338   1.248   1.418 -0.1420 -0.7647 -0.3989
  607SOL    HW1 1820   0.287   1.196   1.345  2.9093 -0.6353  0.0590
  607SOL    HW2 1821   0.282   1.335   1.436  0.4046  0.0373  0.1357
  608SOL     OW 1822   2.580   2.108   2.518  0.1369 -0.2619 -0.0130
  608SOL    HW1 1823   2.658   2.147   2.473  1.7851  0.2739 -0.2210
  608SOL    HW2 1824   2.602   2.024   2.575  1.6588 -1.6734  0.8789
  609SOL     OW 1825   2.287   0.161   0.188 -0.0923 -0.1732  1.0086
  609SOL    HW1 1826   2.205   0.195   0.238 -1.4186  2.4666 -0.0461
  609SOL    HW2 1827   2.361   0.117   0.244  2.0975  0.7247 -1.3959
  610SOL     OW 1828   0.698   2.792   1.273 -0.0506  0.4239  0.2517
  610SOL    HW1 1829   0.773   2.806   1.207  1.1397  2.1166 -0.0841
  610SOL    HW2 1830   0.734   2.785   1.370 -0.5092  0.6538 -0.7220
  611SOL     OW 1831   0.925   1.363   0.884 -0.3187  0.0062 -0.1018
  611SOL    HW1 1832   0.870   1.395   0.798 -0.1254  0.2541 -2.0284
  611SOL    HW2 1833   0.992   1.286   0.874  0.1770 -0.4678  0.4305
  612SOL     OW 1834   0.487   0.041   2.386  0.3152  0.3598 -0.3822
  612SOL    HW1 1835   0.500   0.129   2.437 -1.0127 -1.7124  0.6810
  612SOL    HW2 1836   0.579   0.003   2.375 -1.8596  1.9142  1.0315
  613SOL     OW 1837   2.743   1.842   0.446  0.3779 -0.7931 -0.0413
  613SOL    HW1 1838   2.810   1.773   0.473  1.0158  3.5797 -2.6446
  613SOL    HW2 1839   2.672   1.812   0.374 -0.4690  0.8638 -1.1200
  614SOL     OW 1840   1.660   0.263   1.780  0.2273  0.2631  0.0092
  614SOL    HW1 1841   1.676   0.361   1.757  0.6368  0.9696  0.0342
  614SOL    HW2 1842   1.608   0.215   1.706  2.5636 -0.0902  1.9088
  615SOL     OW 1843   0.997   1.567   1.277  0.0327  0.1870 -0.2544
  615SOL    HW1 1844   1.023   1.478   1.326 -0.7286 -0.9644  1.2654
  615SOL    HW2 1845   1.057   1.645   1.297 -1.4730 -0.9330 -1.0893
  616SOL     OW 1846   1.468   1.577   3.076  1.0354  0.3041 -0.3636
  616SOL    HW1 1847   1.523   1.493   0.008  0.5743  0.0644  0.3212
  616SOL    HW2 1848   1.517   1.658   0.042 -0.1803  0.4081  1.3274
  617SOL     OW 1849   1.700   2.786   0.280 -0.4792 -0.4392 -0.0171
  617SOL    HW1 1850   1.698   2.808   0.181 -0.1429 -1.6532 -1.9684
  617SOL    HW2 1851   1.608   2.778   0.316  1.0007  1.6015  0.3760
  618SOL     OW 1852   0.861   0.898   2.617 -0.4083  0.4075  0.4181
  618SOL    HW1 1853   0.855   0.934   2.711  1.0908  1.7191 -1.6959
  618SOL    HW2 1854   0.905   0.963   2.558 -0.6137 -2.3974  1.7113
  619SOL     OW 1855   2.548   1.378   0.550 -0.0307 -0.0369  0.7343
  619SOL    HW1 1856   2.493   1.402   0.464  0.7883  1.8891  0.4789
  619SOL    HW2 1857   2.644   1.406   0.535  0.0362 -2.0377 -2.2036
  620SOL     OW 1858   2.274   2.808   0.030  0.0737  0.6506 -0.0621
  620SOL    HW1 1859   2.363   2.845   0.065  2.3235 -2.4638 -0.9085
  620SOL    HW2 1860   2.217   2.791   0.115  1.8079  1.7253  0.5908
  621SOL     OW 1861   2.254   1.310   0.091 -0.1997 -0.1770 -0.1756
  621SOL    HW1 1862   2.184   1.275   0.157  3.0310 -1.0299  0.6241
  621SOL    HW2 1863   2.198   1.330   0.010 -1.0775 -1.5680  1.0079
  622SOL     OW 1864   1.277   2.485   2.513 -0.1999 -0.3927  0.0744
  622SOL    HW1 1865   1.310   2.481   2.416  0.8351 -0.9160  0.2395
  622SOL    HW2 1866   1.348   2.528   2.571  0.0876 -1.9020 -1.3828
  623SOL     OW 1867   0.598   1.601   0.196  0.5288 -0.9253  0.0663
  623SOL    HW1 1868   0.638   1.686   0.154 -1.1380  1.2902  1.7080
  623SOL    HW2 1869   0.497   1.584   0.174  2.3038 -0.0506 -1.4317
  624SOL     OW 1870   0.653   3.050   2.716  0.6140  0.2439  0.3344
  624SOL    HW1 1871   0.644   0.024   2.806 -1.2691 -0.3772  3.2657
  624SOL    HW2 1872   0.626   2.950   2.722  0.6685  2.2958 -3.5162
  625SOL     OW 1873   1.027   1.927   0.574 -0.4634 -0.4033 -0.1541
  625SOL    HW1 1874   0.985   2.002   0.627  0.5599  2.8449  0.4741
  625SOL    HW2 1875   1.126   1.949   0.556  3.2141  0.5716  2.9784
  626SOL     OW 1876   2.459   0.158   2.978 -0.2121 -0.1518 -0.7098
  626SOL    HW1 1877   2.369   0.191   2.946  0.1459  1.0276  2.0107
  626SOL    HW2 1878   2.523   0.233   2.976 -3.4713  0.3286  1.2906
  627SOL     OW 1879   1.475   1.302   2.480  0.0989  0.2348  0.2757
  627SOL    HW1 1880   1.489   1.221   2.544  0.0543  0.0891 -2.3478
  627SOL    HW2 1881   1.520   1.386   2.522 -0.7467 -0.2379  1.0759
  628SOL     OW 1882   0.735   0.473   2.252  0.0125  0.2654  0.5987
  628SOL    HW1 1883   0.835   0.484   2.233  2.2924  1.7091  3.1559
  628SOL    HW2 1884   0.685   0.500   2.170  1.1422 -3.1140  1.3808
  629SOL     OW 1885   0.309   3.070   1.743  0.2085  0.0482 -0.2994
  629SOL    HW1 1886   0.321   3.006   1.816  0.8713  2.3395 -3.1467
  629SOL    HW2 1887   0.390   0.054   1.738  1.2126  1.1235  1.5392
  630SOL     OW 1888   2.010   0.592   1.774  0.0335 -0.6365  0.6624
  630SOL    HW1 1889   1.956   0.603   1.860  0.0271  0.3860  0.9063
  630SOL    HW2 1890   1.966   0.647   1.703 -1.8346 -2.6710  0.1065
  631SOL     OW 1891   2.199   1.053   0.335  0.3156 -0.1179  0.2124
  631SOL    HW1 1892   2.300   1.054   0.351 -1.4868 -1.5056 -0.4487
  631SOL    HW2 1893   2.155   0.987   0.395 -1.5224  0.1401  0.2593
  632SOL     OW 1894   1.966   0.368   2.110 -0.1836  0.1945  0.1025
  632SOL    HW1 1895   1.936   0.297   2.039 -1.5258 -0.1645 -0.7777
  632SOL    HW2 1896   2.050   0.337   2.152 -0.1173 -1.2286 -0.4208
  633SOL     OW 1897   0.747   2.818   0.432 -0.2386 -0.1336 -0.4610
  633SOL    HW1 1898   0.684   2.747   0.391 -2.3040 -0.1707 -3.8057
  633SOL    HW2 1899   0.707   2.909   0.404 -0.8113 -1.7640  1.6209
  634SOL     OW 1900   1.395   2.823   2.667  0.7081 -0.2932 -0.5490
  634SOL    HW1 1901   1.360   2.862   2.754 -3.7809 -0.3886 -1.8386
  634SOL    HW2 1902   1.439   2.730   2.679  0.8819 -1.6639 -1.0996
  635SOL     OW 1903   2.430   0.511   3.047 -0.3489  0.5025 -0.2128
  635SOL    HW1 1904   2.377   0.534   2.965 -0.9601  0.4649  0.0090
  635SOL    HW2 1905   2.373   0.493   0.056  1.5833 -0.8213  1.3771
  636SOL     OW 1906   0.791   1.484   1.093  0.6480  0.0341  0.0595
  636SOL    HW1 1907   0.848   1.525   1.160  1.2906 -1.0705 -2.5636
  636SOL    HW2 1908   0.850   1.442   1.020 -1.1748 -0.6739 -0.1241
  637SOL     OW 1909   0.091   2.584   0.461  0.1009 -0.3428 -0.4228
  637SOL    HW1 1910   0.016   2.529   0.500 -1.2225 -1.2578 -0.8415
  637SOL    HW2 1911   0.061   2.627   0.376  0.7184 -0.5696 -0.7515
  638SOL     OW 1912   0.366   2.968   0.404 -0.2609  0.6235  0.2610
  638SOL    HW1 1913   0.410   2.967   0.495 -1.5483  0.4449  3.3187
  638SOL    HW2 1914   0.395   2.894   0.344 -3.0343 -0.0194  2.1585
  639SOL     OW 1915   1.076   1.288   0.476 -0.0563  0.4680 -0.1144
  639SOL    HW1 1916   1.031   1.365   0.425  0.5228 -0.9830 -0.9634
  639SOL    HW2 1917   1.143   1.332   0.540  1.3311 -0.4842  1.6939
  640SOL     OW 1918   1.301   2.575   0.901 -0.1346  0.0533  0.0953
  640SOL    HW1 1919   1.383   2.524   0.941  2.7322  1.7157  0.8589
  640SOL    HW2 1920   1.331   2.616   0.812  0.5019  2.9073 -2.6917
  641SOL     OW 1921   3.023   2.380   0.607  0.0452 -0.5328  0.0928
  641SOL    HW1 1922   0.009   2.359   0.684 -1.0511 -2.3263 -4.2632
  641SOL    HW2 1923   3.056   2.336   0.521  0.8688  0.6528 -0.4626
  642SOL     OW 1924   0.984   0.032   1.629 -0.2261  0.6737 -0.0593
  642SOL    HW1 1925   1.082   3.075   1.625 -3.2812 -2.3336 -0.3097
  642SOL    HW2 1926   0.942   0.024   1.533 -0.3600  2.2533 -2.5710
  643SOL     OW 1927   0.840   2.002   2.290 -0.0293  0.2090 -0.4335
  643SOL    HW1 1928   0.784   2.085   2.291 -0.4930 -0.1007 -0.1919
  643SOL    HW2 1929   0.795   1.934   2.351  2.0994 -1.4114  0.0925
  644SOL     OW 1930   1.016   2.888   0.454  0.3465 -0.2868 -0.0082
  644SOL    HW1 1931   0.918   2.878   0.430  0.9379  0.8784  0.6993
  644SOL    HW2 1932   1.040   2.987   0.473 -0.1816  2.7864  0.6719
  645SOL     OW 1933   1.166   1.543   2.536 -0.4752 -0.9056  0.3369
  645SOL    HW1 1934   1.097   1.539   2.610  1.1636  0.8960  0.8627
  645SOL    HW2 1935   1.239   1.612   2.553  2.0504  2.3258  1.7004
  646SOL     OW 1936   0.675   1.247   0.396  0.3490  0.0869  0.8945
  646SOL    HW1 1937   0.592   1.225   0.451 -0.6663  0.7897 -2.0157
  646SOL    HW2 1938   0.690   1.348   0.391  2.6129 -0.1174  0.1308
  647SOL     OW 1939   1.067   0.238   0.946 -0.3550  0.0612 -0.0393
  647SOL    HW1 1940   1.054   0.295   1.029  1.0346  0.3193  0.0395
  647SOL    HW2 1941   1.038   0.138   0.961 -0.5534 -2.0689  0.0492
  648SOL     OW 1942   2.769   2.752   1.580 -0.0071  0.2322  0.0373
  648SOL    HW1 1943   2.710   2.785   1.659 -0.6442  0.8676  0.1882
  648SOL    HW2 1944   2.861   2.792   1.580  0.0889 -0.1035  0.0163
  649SOL     OW 1945   0.493   2.092   0.093 -0.5824  0.5435  0.4577
  649SOL    HW1 1946   0.523   2.169   0.032 -0.9711  0.4140 -0.6199
  649SOL    HW2 1947   0.487   2.125   0.189  1.0234 -0.4494 -3.3901
  650SOL     OW 1948   0.279   1.897   1.577  0.0976 -0.2565  0.2043
  650SOL    HW1 1949   0.180   1.907   1.607 -1.4618  0.7366 -2.6873
  650SOL    HW2 1950   0.310   1.961   1.504  2.9848  0.6573 -0.9719
  651SOL     OW 1951   0.038   2.924   3.016 -0.8727  0.2243  0.5467
  651SOL    HW1 1952   0.097   2.925   0.020  2.4268  0.2305 -0.4199
  651SOL    HW2 1953   0.061   2.996   2.951 -2.1444 -2.5824  2.3935
  652SOL     OW 1954   2.498   1.820   0.290 -0.3712 -0.7859 -0.1338
  652SOL    HW1 1955   2.488   1.898   0.355 -0.4757 -1.8954 -2.4952
  652SOL    HW2 1956   2.411   1.771   0.279  0.3816  1.5383  1.5170
  653SOL     OW 1957   0.140   0.217   1.184  0.0116  0.2727 -0.3016
  653SOL    HW1 1958   0.085   0.303   1.177 -2.2783  1.6634  0.0447
  653SOL    HW2 1959   0.233   0.242   1.219  3.4663  2.6454  1.5953
  654SOL     OW 1960   1.652   0.066   2.836  0.0926 -0.2642  0.4310
  654SOL    HW1 1961   1.631   0.069   2.735  1.4226 -1.1754 -0.0113
  654SOL    HW2 1962   1.567   0.068   2.895 -0.0256  1.8063  0.5044
  655SOL     OW 1963   0.921   2.780   1.114 -0.2583 -0.5266  0.5225
  655SOL    HW1 1964   0.865   2.813   1.036  2.9119 -0.2215 -1.3287
  655SOL    HW2 1965   0.976   2.700   1.076 -0.2262 -0.1660 -0.9445
  656SOL     OW 1966   0.338   2.895   1.952  0.2447 -0.1648 -0.3982
  656SOL    HW1 1967   0.408   2.955   1.990 -0.7084 -1.5483  0.0742
  656SOL    HW2 1968   0.380   2.809   1.931 -2.5630  1.0763 -0.7901
  657SOL     OW 1969   1.960   0.883   2.005  0.4721 -0.0066 -0.3790
  657SOL    HW1 1970   2.044   0.868   2.060  1.3778 -1.7210 -1.6228
  657SOL    HW2 1971   1.900   0.801   2.013  0.4942  0.1278 -3.1291
  658SOL     OW 1972   2.585   1.942   1.053  0.1005  0.3601 -0.1264
  658SOL    HW1 1973   2.557   1.926   1.148  0.0835  1.2292 -3.5593
  658SOL    HW2 1974   2.579   1.851   1.009 -3.4841 -1.8262  2.5748
  659SOL     OW 1975   2.484   2.681   0.208  0.0569 -0.2306 -0.6336
  659SOL    HW1 1976   2.579   2.697   0.173  0.6108  2.9165  1.8474
  659SOL    HW2 1977   2.474   2.708   0.307 -0.1030 -1.7456  3.4398
  660SOL     OW 1978   0.924   1.245   2.706  0.1857 -0.7139 -0.5343
  660SOL    HW1 1979   0.981   1.330   2.684 -0.0254  0.0835 -0.5536
  660SOL    HW2 1980   0.979   1.185   2.769 -0.2286 -0.1703  0.9256
  661SOL     OW 1981   2.332   2.395   0.999 -0.1818  0.7615 -0.1447
  661SOL    HW1 1982   2.297   2.489   0.999  3.0976 -3.2973  2.0102
  661SOL    HW2 1983   2.317   2.355   0.911  3.7986  0.5583  1.0582
  662SOL     OW 1984   0.470   0.604   0.415 -0.3615  0.1025  0.4078
  662SOL    HW1 1985   0.501   0.533   0.347 -1.1843 -1.9789 -1.6663
  662SOL    HW2 1986   0.371   0.587   0.426  1.0937  2.0037 -1.4812
  663SOL     OW 1987   1.015   2.336   0.006  0.1938 -0.0716  0.1020
  663SOL    HW1 1988   1.062   2.304   0.089  2.2564  0.9937  2.1049
  663SOL    HW2 1989   1.070   2.310   2.997  0.9782  2.6216 -0.3933
  664SOL     OW 1990   0.806   2.859   1.535 -0.6209  0.3216  0.4293
  664SOL    HW1 1991   0.834   2.815   1.622  1.8613  0.0488 -0.9033
  664SOL    HW2 1992   0.880   2.910   1.492 -0.6478 -0.9840  1.0021
  665SOL     OW 1993   1.808   1.607   1.772  0.1552  0.4413  0.1431
  665SOL    HW1 1994   1.759   1.529   1.723  1.5746  1.8675 -0.4281
  665SOL    HW2 1995   1.898   1.582   1.799 -1.1297  3.7684 -1.6837
  666SOL     OW 1996   0.331   2.745   0.203  1.0268 -0.4899 -0.2799
  666SOL    HW1 1997   0.233   2.760   0.225  0.8061  0.1356  1.7303
  666SOL    HW2 1998   0.354   2.791   0.115 -0.1954 -1.2752 -1.0164
  667SOL     OW 1999   1.719   1.541   1.402 -0.3136  0.6941  0.0651
  667SOL    HW1 2000   1.812   1.515   1.373  0.2390 -2.0370 -3.4505
  667SOL    HW2 2001   1.707   1.507   1.497 -0.0337  1.7361 -0.8937
  668SOL     OW 2002   0.287   0.308   2.134  0.5778  0.1467  0.4347
  668SOL    HW1 2003   0.269   0.350   2.040 -1.0066 -1.7300 -0.1119
  668SOL    HW2 2004   0.357   0.235   2.114  0.8004  2.6970 -2.8764
  669SOL     OW 2005   1.745   2.073   2.169  0.0654  0.5111 -0.3130
  669SOL    HW1 2006   1.831   2.065   2.117 -1.0403  2.0320  0.4808
  669SOL    HW2 2007   1.661   2.089   2.117  0.7076  0.4070  2.7008
  670SOL     OW 2008   2.420   2.019   0.458 -0.2472  0.1188 -0.4547
  670SOL    HW1 2009   2.505   2.029   0.517  3.8551  2.2301  1.7398
  670SOL    HW2 2010   2.338   2.000   0.518 -0.6812  1.2070  0.9628
  671SOL     OW 2011   0.648   1.312   1.424  0.2269  0.0505  0.0132
  671SOL    HW1 2012   0.652   1.273   1.324 -0.0846 -0.8095 -1.1965
  671SOL    HW2 2013   0.549   1.313   1.455 -0.0932 -5.5792 -1.7426
  672SOL     OW 2014   2.576   1.337   2.175  0.1054 -0.4161 -0.1705
  672SOL    HW1 2015   2.559   1.411   2.243  1.1633 -2.8540  0.4699
  672SOL    HW2 2016   2.672   1.309   2.180 -1.0155 -0.7539 -0.2948
  673SOL     OW 2017   2.964   1.702   2.225 -0.0904 -0.0531 -0.0549
  673SOL    HW1 2018   2.869   1.735   2.255  2.1882  0.2908  0.8588
  673SOL    HW2 2019   3.020   1.668   2.301 -0.6587 -2.1110 -3.3034
  674SOL     OW 2020   0.860   2.658   2.173  0.2241 -0.3593 -0.3462
  674SOL    HW1 2021   0.936   2.640   2.239 -0.8971 -2.3513  0.5165
  674SOL    HW2 2022   0.847   2.757   2.162  1.4316 -0.0264 -0.1118
  675SOL     OW 2023   0.883   0.922   1.537 -0.3228  0.2636 -0.3800
  675SOL    HW1 2024   0.898   0.829   1.570 -0.3298 -0.1657 -0.9972
  675SOL    HW2 2025   0.783   0.945   1.530  2.2402  0.7876 -1.3191
  676SOL     OW 2026   1.732   1.146   0.406  0.0441 -0.3014  0.0829
  676SOL    HW1 2027   1.733   1.046   0.420  1.9211  0.5621  2.7227
  676SOL    HW2 2028   1.816   1.195   0.445  0.8099  0.5165  1.9896
  677SOL     OW 2029   2.962   1.576   2.717  0.0613  0.4936  0.1427
  677SOL    HW1 2030   2.879   1.538   2.759  1.6736 -1.7558 -0.3446
  677SOL    HW2 2031   3.045   1.538   2.762  0.6694  0.2795 -0.5399
  678SOL     OW 2032   2.745   2.932   1.337 -0.1651 -0.1825  0.4693
  678SOL    HW1 2033   2.668   2.882   1.382  1.4095 -2.2101 -0.5391
  678SOL    HW2 2034   2.799   2.868   1.277  2.1772  0.6250 -0.4480
  679SOL     OW 2035   2.112   0.043   0.572 -0.0558 -0.0720 -0.0054
  679SOL    HW1 2036   2.124   0.112   0.647  0.9148  1.3401  0.3038
  679SOL    HW2 2037   2.199   0.006   0.540 -4.1118  2.5344  1.9214
  680SOL     OW 2038   0.151   2.203   2.200  0.2451 -0.0694  0.2249
  680SOL    HW1 2039   0.220   2.142   2.158 -2.3762  0.9010 -0.1334
  680SOL    HW2 2040   0.086   2.233   2.132  1.7190 -1.8764  0.4615
  681SOL     OW 2041   0.229   1.503   1.454  0.1832 -0.4777 -0.2217
  681SOL    HW1 2042   0.289   1.546   1.383 -0.0279  0.2410  0.3404
  681SOL    HW2 2043   0.259   1.529   1.546  1.2899 -0.4600 -1.3031
  682SOL     OW 2044   0.291   2.253   1.575 -0.1545  0.0797  0.0756
  682SOL    HW1 2045   0.372   2.276   1.526  0.3568 -1.9635 -0.1807
  682SOL    HW2 2046   0.233   2.176   1.547  2.1654  0.4920 -2.1461
  683SOL     OW 2047   0.021   1.701   1.533 -0.7203 -0.4039 -0.0724
  683SOL    HW1 2048   3.069   1.796   1.557 -1.7569 -0.3998 -0.4708
  683SOL    HW2 2049   0.115   1.683   1.560 -1.2240  1.2423 -1.2740
  684SOL     OW 2050   2.612   1.650   0.106  0.2128 -0.1296 -0.0715
  684SOL    HW1 2051   2.590   1.726   0.172  0.1191 -1.0536 -0.7258
  684SOL    HW2 2052   2.680   1.591   0.145  2.7732  3.2672 -1.5758
  685SOL     OW 2053   1.228   0.740   0.417 -0.5058 -0.5161  0.0123
  685SOL    HW1 2054   1.139   0.703   0.387 -1.5899 -2.5208 -2.2909
  685SOL    HW2 2055   1.257   0.815   0.355  2.8232 -3.1744 -1.1162
  686SOL     OW 2056   0.340   3.016   1.057  0.0921  0.0658 -0.0674
  686SOL    HW1 2057   0.404   2.994   1.132 -1.6046 -0.3682 -2.0587
  686SOL    HW2 2058   0.356   2.959   0.974  1.2444 -0.2390 -0.1702
  687SOL     OW 2059   0.773   1.230   2.486  0.2343  0.5693 -0.0997
  687SOL    HW1 2060   0.826   1.190   2.409 -1.0325 -0.7526 -0.9909
  687SOL    HW2 2061   0.821   1.198   2.570  1.1528 -0.9739  1.7539
  688SOL     OW 2062   1.050   1.559   1.747 -0.5081 -0.7147  0.7287
  688SOL    HW1 2063   0.955   1.568   1.789 -1.1729 -0.6147 -0.4070
  688SOL    HW2 2064   1.111   1.539   1.824  0.4423 -2.2350 -1.2907
  689SOL     OW 2065   2.256   0.385   1.306 -0.0418  0.5172  0.0631
  689SOL    HW1 2066   2.295   0.341   1.224  0.2205  1.4139  0.7244
  689SOL    HW2 2067   2.176   0.334   1.336  2.5270  2.8771 -0.2227
  690SOL     OW 2068   2.805   1.205   0.848  0.2398 -0.6903  0.6876
  690SOL    HW1 2069   2.844   1.301   0.837  1.4406  0.0596  1.4115
  690SOL    HW2 2070   2.857   1.167   0.928  0.0816  0.9682 -1.5689
  691SOL     OW 2071   0.174   2.449   1.240 -0.5303 -0.3250 -0.2627
  691SOL    HW1 2072   0.201   2.352   1.220  0.4841 -3.9295  0.1330
  691SOL    HW2 2073   0.072   2.457   1.252  1.8403  1.6438 -1.2623
  692SOL     OW 2074   2.045   3.025   1.038 -0.2879 -0.1991 -0.1286
  692SOL    HW1 2075   2.142   3.056   1.046 -1.1794 -0.9475 -1.1372
  692SOL    HW2 2076   2.005   2.987   1.124 -1.9622  1.3335  0.7429
  693SOL     OW 2077   0.479   1.539   2.663  0.1115  0.2274 -0.2790
  693SOL    HW1 2078   0.567   1.507   2.629 -1.3428 -0.3278  0.8636
  693SOL    HW2 2079   0.406   1.487   2.618 -0.3529 -0.9472  1.5062
  694SOL     OW 2080   1.887   0.977   1.227  0.1730 -0.5332  0.1483
  694SOL    HW1 2081   1.957   0.913   1.198 -0.3846  0.4145  1.0126
  694SOL    HW2 2082   1.797   0.929   1.240 -2.8509 -3.1328  2.0929
  695SOL     OW 2083   1.001   0.843   1.242 -0.3617  0.4093 -0.7445
  695SOL    HW1 2084   0.980   0.898   1.328 -0.3126  0.3673  2.1847
  695SOL    HW2 2085   1.083   0.793   1.258 -1.3817 -0.2406  0.4267
  696SOL     OW 2086   1.400   0.017   0.720 -0.0921 -0.8161 -0.2632
  696SOL    HW1 2087   1.482   3.062   0.770 -3.0436  2.5170 -0.7548
  696SOL    HW2 2088   1.416   0.036   0.621 -2.1010 -2.2420  0.0355
  697SOL     OW 2089   1.135   0.545   1.331  0.5029  0.1469  0.3999
  697SOL    HW1 2090   1.126   0.468   1.399 -4.4447 -2.7845  1.4746
  697SOL    HW2 2091   1.231   0.564   1.313 -4.0532 -1.2182  2.4494
  698SOL     OW 2092   1.534   1.056   2.053 -0.6426 -0.6308 -0.8205
  698SOL    HW1 2093   1.638   1.051   2.071 -0.1638 -0.5125  0.6625
  698SOL    HW2 2094   1.515   1.156   2.053  0.7956 -2.7140 -1.6265
  699SOL     OW 2095   1.891   0.716   0.997 -0.1445 -0.5294  0.4541
  699SOL    HW1 2096   1.890   0.652   0.913  1.4802 -0.8746  0.1689
  699SOL    HW2 2097   1.800   0.726   1.038  2.9833 -0.6115  0.9778
  700SOL     OW 2098   1.196   2.549   0.314 -0.2629 -0.1741  0.7079
  700SOL    HW1 2099   1.134   2.593   0.384  2.5006 -0.4374  0.2828
  700SOL    HW2 2100   1.291   2.533   0.342 -1.5318 -0.1303 -0.4415
  701SOL     OW 2101   2.053   2.397   2.956  0.1718 -0.0418  0.6593
  701SOL    HW1 2102   1.960   2.436   2.962 -0.1285  0.3183 -0.0881
  701SOL    HW2 2103   2.101   2.435   2.876 -0.3613 -0.2659  0.7479
  702SOL     OW 2104   1.051   0.446   0.652 -0.1611 -0.0172  0.3284
  702SOL    HW1 2105   1.107   0.361   0.656 -1.1446  3.1680  0.7158
  702SOL    HW2 2106   1.085   0.506   0.721 -1.9529 -3.1538 -0.6439
  703SOL     OW 2107   2.339   0.232   2.365  0.3756  0.0948  0.0105
  703SOL    HW1 2108   2.362   0.222   2.462  0.8184  0.8042 -3.7110
  703SOL    HW2 2109   2.251   0.284   2.364 -0.5290 -2.5223  0.7794
  704SOL     OW 2110   0.263   2.042   0.403  0.0289 -0.5708  0.5260
  704SOL    HW1 2111   0.271   1.947   0.379  1.8252  1.7610  2.9291
  704SOL    HW2 2112   0.356   2.089   0.398  2.9163 -1.2087 -1.9885
  705SOL     OW 2113   2.610   2.566   2.213  0.2286 -0.5461 -0.3508
  705SOL    HW1 2114   2.651   2.563   2.124 -3.4991 -0.4467  1.0824
  705SOL    HW2 2115   2.511   2.602   2.213 -2.7274 -0.2619  1.3255
  706SOL     OW 2116   2.325   2.674   0.977  0.0571 -0.1955 -0.4829
  706SOL    HW1 2117   2.239   2.727   0.969 -0.9034 -0.5068 -0.2510
  706SOL    HW2 2118   2.347   2.639   0.885  1.1167  0.0154  1.9004
  707SOL     OW 2119   0.616   2.496   2.212  0.1526 -0.0795 -0.7913
  707SOL    HW1 2120   0.576   2.484   2.121  3.0435  0.1899  0.5284
  707SOL    HW2 2121   0.700   2.553   2.195 -0.9529  1.1961 -0.5456
  708SOL     OW 2122   3.049   2.040   2.331  0.1772  0.2347  0.3394
  708SOL    HW1 2123   0.014   1.977   2.399 -0.8335 -1.1839 -1.8462
  708SOL    HW2 2124   0.047   2.089   2.280  2.2011  0.2237  0.0904
  709SOL     OW 2125   1.940   2.987   1.973 -0.3719 -0.3635  0.0391
  709SOL    HW1 2126   1.939   0.009   1.948 -0.5141  2.0903 -0.9011
  709SOL    HW2 2127   1.860   2.975   2.033  0.7030  0.4223  1.2892
  710SOL     OW 2128   1.541   0.605   2.533 -0.4019  0.1891 -0.2453
  710SOL    HW1 2129   1.611   0.545   2.575  1.3187 -1.6389 -0.7245
  710SOL    HW2 2130   1.528   0.578   2.437 -0.4001  0.9964  0.8948
  711SOL     OW 2131   0.744   1.997   2.827 -0.3562  0.2064  0.7598
  711SOL    HW1 2132   0.806   1.956   2.903  1.2220 -2.1690 -1.5344
  711SOL    HW2 2133   0.676   1.927   2.794  0.5266  0.6259 -0.5741
  712SOL     OW 2134   0.518   2.284   2.543  0.0388 -0.1226 -0.2030
  712SOL    HW1 2135   0.482   2.292   2.642  1.7231 -0.6036  3.2345
  712SOL    HW2 2136   0.506   2.377   2.500  0.5346 -0.5039 -1.4803
  713SOL     OW 2137   1.582   1.543   2.660  0.4745  0.2499  0.2177
  713SOL    HW1 2138   1.672   1.524   2.617 -0.1031  0.9738  0.5471
  713SOL    HW2 2139   1.588   1.533   2.759  0.1827  0.6097 -0.3661
  714SOL     OW 2140   1.509   1.329   2.025 -0.2126 -0.4664 -0.1413
  714SOL    HW1 2141   1.506   1.368   1.931  0.8753  1.2724  0.6834
  714SOL    HW2 2142   1.458   1.381   2.090  0.4677 -0.8801  0.7461
  715SOL     OW 2143   2.072   0.657   2.409  0.0173  0.1554 -0.1822
  715SOL    HW1 2144   2.073   0.573   2.469 -1.9650 -2.4129 -0.8327
  715SOL    HW2 2145   1.979   0.685   2.371 -2.5809  0.9912 -0.0432
  716SOL     OW 2146   0.007   1.970   1.614  0.1704 -0.4439 -0.4701
  716SOL    HW1 2147   0.002   1.963   1.712 -2.4881 -0.5384 -2.1458
  716SOL    HW2 2148   3.071   2.064   1.581  2.3595  1.4206 -0.7324
  717SOL     OW 2149   2.533   1.318   0.805 -0.6434  0.3430  0.6122
  717SOL    HW1 2150   2.598   1.249   0.842  2.7145 -3.6844 -0.4042
  717SOL    HW2 2151   2.538   1.319   0.702 -0.6945  1.5339 -0.6854
  718SOL     OW 2152   0.945   1.833   2.077  0.2156  0.0414  0.3900
  718SOL    HW1 2153   0.915   1.911   2.135 -1.1162  2.2576 -1.8000
  718SOL    HW2 2154   0.940   1.747   2.125  2.2394  1.0457 -1.2527
  719SOL     OW 2155   1.902   0.728   2.636 -0.4815  0.5757  0.1194
  719SOL    HW1 2156   1.890   0.730   2.538  2.6159 -0.5287  1.1380
  719SOL    HW2 2157   1.838   0.790   2.682  3.2970 -1.3342 -0.1268
  720SOL     OW 2158   0.535   0.574   0.878 -0.2643  0.1752 -0.4338
  720SOL    HW1 2159   0.584   0.546   0.797 -1.4361  0.1700 -2.0513
  720SOL    HW2 2160   0.439   0.535   0.879 -1.0409 -0.0224  2.5203
  721SOL     OW 2161   2.909   0.913   0.378  0.7389 -0.0994  0.3082
  721SOL    HW1 2162   2.889   1.009   0.411 -3.0581 -1.0432  0.5840
  721SOL    HW2 2163   2.896   0.903   0.277  1.5817  0.4108  1.3502
  722SOL     OW 2164   2.937   0.414   2.657  0.0298  0.0009 -0.4076
  722SOL    HW1 2165   2.905   0.326   2.693 -0.4917  1.4096 -0.3483
  722SOL    HW2 2166   3.025   0.438   2.704  0.7819 -2.6236  0.8100
  723SOL     OW 2167   1.780   0.274   0.281  0.0514  0.1250  0.1666
  723SOL    HW1 2168   1.742   0.276   0.186 -1.0692 -1.4858 -1.6903
  723SOL    HW2 2169   1.731   0.199   0.325  0.8874  1.5257 -1.9756
  724SOL     OW 2170   0.500   1.664   2.339  0.1812  0.1474  0.2152
  724SOL    HW1 2171   0.580   1.605   2.310  0.9678 -0.6078 -1.3770
  724SOL    HW2 2172   0.528   1.740   2.399  3.7807  3.4126 -1.8101
  725SOL     OW 2173   1.606   2.985   0.859 -0.2684 -0.4264  0.0893
  725SOL    HW1 2174   1.610   2.898   0.806  0.1205 -0.2240 -0.4510
  725SOL    HW2 2175   1.693   3.030   0.863 -2.8961 -1.9218  2.1125
  726SOL     OW 2176   1.926   2.367   0.310  0.2376  0.3979  0.0061
  726SOL    HW1 2177   2.002   2.382   0.244 -1.3363  1.0319  1.8454
  726SOL    HW2 2178   1.957   2.386   0.408 -0.0666  1.6434  1.1678
  727SOL     OW 2179   1.696   1.693   1.114  0.0582 -0.5324  0.2281
  727SOL    HW1 2180   1.649   1.684   1.207 -0.8006  0.5549  1.2800
  727SOL    HW2 2181   1.796   1.706   1.115  1.5025  2.5498 -1.8576
  728SOL     OW 2182   1.921   2.574   1.645 -0.2742  0.0731 -1.0486
  728SOL    HW1 2183   2.010   2.531   1.620  1.4183  1.0659 -0.8069
  728SOL    HW2 2184   1.937   2.641   1.724 -0.7943 -0.4255 -1.8114
  729SOL     OW 2185   2.002   2.004   1.294  0.3034 -0.0426 -0.4663
  729SOL    HW1 2186   2.028   2.101   1.271  0.3266  0.1223 -1.3969
  729SOL    HW2 2187   2.078   1.949   1.252 -0.1614 -1.6024  1.3926
  730SOL     OW 2188   1.265   0.799   2.812 -0.0751 -0.2902  0.0994
  730SOL    HW1 2189   1.217   0.801   2.721  1.2042  0.5631 -1.5015
  730SOL    HW2 2190   1.369   0.793   2.805  0.7669 -1.6671  2.2246
  731SOL     OW 2191   0.384   0.171   0.736 -0.3148  0.0717  0.1368
  731SOL    HW1 2192   0.302   0.134   0.783  3.2507  0.3189 -0.7388
  731SOL    HW2 2193   0.360   0.246   0.673  1.7023 -1.0041  1.9871
  732SOL     OW 2194   1.622   0.295   0.595  0.2518 -0.2257 -0.6810
  732SOL    HW1 2195   1.536   0.324   0.550  0.6987  0.8767 -0.7331
  732SOL    HW2 2196   1.648   0.202   0.556  0.4725 -2.4776 -3.4484
  733SOL     OW 2197   0.635   1.743   1.336 -0.0207 -0.0985  0.3520
  733SOL    HW1 2198   0.704   1.678   1.377  1.1877 -0.7344 -0.0185
  733SOL    HW2 2199   0.680   1.819   1.288 -0.7837  0.1799  0.1423
  734SOL     OW 2200   2.729   2.721   0.014 -0.1763  0.4006  0.3553
  734SOL    HW1 2201   2.644   2.751   3.037 -0.5403  0.1615 -0.6891
  734SOL    HW2 2202   2.777   2.655   3.030 -0.7165  1.8955 -0.4271
  735SOL     OW 2203   1.212   3.072   1.194  0.5718 -0.3973 -0.0922
  735SOL    HW1 2204   1.133   3.073   1.127 -2.1955  1.6854 -0.8515
  735SOL    HW2 2205   1.298   3.056   1.142 -1.2563  1.3769 -3.4356
  736SOL     OW 2206   1.885   2.098   0.269 -0.5710 -0.0230  0.5043
  736SOL    HW1 2207   1.964   2.040   0.298  1.1033  1.0198  0.5635
  736SOL    HW2 2208   1.906   2.200   0.273  2.3105 -0.1739  0.3446
  737SOL     OW 2209   0.053   1.492   1.030  0.2277 -0.4919 -0.7296
  737SOL    HW1 2210   0.112   1.572   1.039  0.0056 -2.7439  0.6360
  737SOL    HW2 2211   3.066   1.484   1.110  1.3807 -0.3983  1.6621
  738SOL     OW 2212   2.057   2.249   2.506  0.3934 -0.1941  0.1261
  738SOL    HW1 2213   2.073   2.351   2.489  2.2608  1.2886 -0.3880
  738SOL    HW2 2214   2.138   2.194   2.467  2.3544  0.5595  0.6776
  739SOL     OW 2215   1.235   1.979   2.668 -0.1971  0.5462  0.0002
  739SOL    HW1 2216   1.217   2.059   2.609 -2.1784 -1.3061  0.7043
  739SOL    HW2 2217   1.151   1.917   2.683  0.5556 -1.5999  0.5924
  740SOL     OW 2218   1.456   3.046   1.074 -0.5243 -0.9255 -0.4483
  740SOL    HW1 2219   1.493   2.959   1.110 -1.6197  1.0781 -0.6450
  740SOL    HW2 2220   1.472   3.049   0.972 -0.8302 -1.0048 -1.9474
  741SOL     OW 2221   0.199   1.192   0.744  0.3576  0.5308  0.3135
  741SOL    HW1 2222   0.283   1.172   0.690 -2.3255 -1.7123 -0.3979
  741SOL    HW2 2223   0.132   1.120   0.720  1.4224 -1.2346  0.3138
  742SOL     OW 2224   0.545   1.218   2.353 -0.3643  0.1981 -0.8970
  742SOL    HW1 2225   0.618   1.258   2.412  0.5367  1.5236  0.1053
  742SOL    HW2 2226   0.481   1.162   2.412 -0.5024 -1.1580  1.2650
  743SOL     OW 2227   1.006   0.945   1.924 -0.8411 -0.1045 -0.1945
  743SOL    HW1 2228   0.939   0.974   1.995  0.7444 -1.2810  2.4529
  743SOL    HW2 2229   1.088   0.898   1.963  0.5179  0.7651  1.8912
  744SOL     OW 2230   1.927   0.196   1.891  0.2591  0.2259 -0.0995
  744SOL    HW1 2231   1.838   0.215   1.848  0.7921 -2.0889  1.5995
  744SOL    HW2 2232   2.006   0.221   1.829 -2.2357  2.3806  0.5704
  745SOL     OW 2233   2.140   1.402   1.566 -0.0174  0.0623  0.3008
  745SOL    HW1 2234   2.232   1.439   1.572 -0.3398  0.6234 -3.3690
  745SOL    HW2 2235   2.129   1.363   1.474  1.2653  0.7571 -0.1785
  746SOL     OW 2236   2.009   1.291   0.200  0.5676  0.2801 -0.1190
  746SOL    HW1 2237   1.947   1.369   0.197 -2.6542 -0.6616  2.9849
  746SOL    HW2 2238   1.968   1.218   0.135 -0.6247 -0.9179 -0.9808
  747SOL     OW 2239   2.867   1.660   1.075  0.1369 -1.0013 -0.5222
  747SOL    HW1 2240   2.896   1.634   0.983 -0.9236  0.5084  1.7103
  747SOL    HW2 2241   2.842   1.757   1.082 -1.0316 -0.1743 -1.4189
  748SOL     OW 2242   0.265   1.703   0.415 -0.2186 -0.2648  0.1595
  748SOL    HW1 2243   0.220   1.723   0.323 -1.1763 -0.6308  1.5109
  748SOL    HW2 2244   0.285   1.607   0.425  0.2393  0.3281  1.7849
  749SOL     OW 2245   2.723   2.366   2.641  0.3809 -0.1142  0.4513
  749SOL    HW1 2246   2.726   2.303   2.561  0.2709 -0.7837  2.0376
  749SOL    HW2 2247   2.674   2.449   2.610 -0.8791  2.5812 -1.4523
  750SOL     OW 2248   2.365   0.866   0.942  0.2301 -0.3328  0.0398
  750SOL    HW1 2249   2.308   0.899   0.862 -0.3622  0.7421 -1.5821
  750SOL    HW2 2250   2.346   0.772   0.967  0.0111  2.2944  0.1714
  751SOL     OW 2251   2.511   3.005   0.017  0.0348  0.0361 -0.2904
  751SOL    HW1 2252   2.474   0.020   3.060 -0.5119 -0.1840  0.9242
  751SOL    HW2 2253   2.518   2.938   3.017 -2.3193 -1.1886  1.6406
  752SOL     OW 2254   3.032   2.732   0.929 -0.0571  0.2937  0.5981
  752SOL    HW1 2255   2.979   2.650   0.961 -2.1238 -1.3157  0.5548
  752SOL    HW2 2256   0.030   2.753   0.998  1.9109  0.0373  1.5280
  753SOL     OW 2257   1.770   1.021   2.381  0.3693  0.3912 -0.1949
  753SOL    HW1 2258   1.811   1.072   2.460 -1.0250 -0.9314  0.7014
  753SOL    HW2 2259   1.671   1.042   2.377 -0.5658 -1.2518  1.8356
  754SOL     OW 2260   2.060   2.059   1.571 -0.1324 -0.1897  0.3912
  754SOL    HW1 2261   2.059   2.008   1.481 -2.6462  0.1324 -1.9368
  754SOL    HW2 2262   2.155   2.070   1.609  1.9442  1.1740  3.3750
  755SOL     OW 2263   2.582   0.912   0.797  0.5604  0.2333  0.0099
  755SOL    HW1 2264   2.499   0.900   0.858  1.3746  1.3443  2.3867
  755SOL    HW2 2265   2.662   0.961   0.842  2.0272 -3.2876  2.2304
  756SOL     OW 2266   0.584   1.222   3.043 -0.1082  0.1097 -0.6202
  756SOL    HW1 2267   0.494   1.189   3.017  1.3297  0.8839 -3.2212
  756SOL    HW2 2268   0.626   1.259   2.956 -0.1267  0.5880 -0.3258
  757SOL     OW 2269   1.395   2.367   1.089 -0.4640  0.3011 -0.9239
  757SOL    HW1 2270   1.349   2.328   1.006 -2.9672 -0.6982 -2.4905
  757SOL    HW2 2271   1.405   2.298   1.169 -1.4178 -2.1409 -0.8275
  758SOL     OW 2272   1.128   2.475   1.649  0.1259 -0.0030  0.2066
  758SOL    HW1 2273   1.181   2.428   1.572 -0.0015  1.7506 -4.1107
  758SOL    HW2 2274   1.132   2.576   1.626  0.3458 -1.6731 -1.4203
  759SOL     OW 2275   2.928   1.109   1.063 -0.3643 -0.0166 -0.1596
  759SOL    HW1 2276   2.889   1.172   1.133 -2.4929 -0.2594 -0.2019
  759SOL    HW2 2277   3.025   1.135   1.048  1.3256  2.2832 -0.3822
  760SOL     OW 2278   2.150   1.342   1.292 -0.4608  0.1335 -0.2153
  760SOL    HW1 2279   2.180   1.244   1.296  1.4482 -3.3321  1.0309
  760SOL    HW2 2280   2.091   1.353   1.209  1.9040 -0.3016 -1.1567
  761SOL     OW 2281   1.938   3.025   0.143 -0.0412  0.8783 -0.3397
  761SOL    HW1 2282   1.979   3.073   0.221 -1.6937  1.9197 -1.0225
  761SOL    HW2 2283   1.961   3.047   0.047 -1.0213  1.1589  0.2338
  762SOL     OW 2284   2.020   1.395   2.740  0.0368  0.2446  0.6718
  762SOL    HW1 2285   2.051   1.302   2.729  0.6239 -0.2394 -0.8001
  762SOL    HW2 2286   2.069   1.454   2.669  1.6208 -2.6792 -0.8249
  763SOL     OW 2287   0.368   2.177   1.838 -0.2547  0.1817  0.0653
  763SOL    HW1 2288   0.354   2.076   1.857 -1.5369 -0.0370  0.6580
  763SOL    HW2 2289   0.345   2.215   1.745  1.2010  2.1571 -0.4774
  764SOL     OW 2290   0.046   2.425   0.128 -0.0800 -0.0846  0.1664
  764SOL    HW1 2291   3.022   2.440   0.129 -2.2465 -0.3409  1.1309
  764SOL    HW2 2292   0.088   2.463   0.038  0.4424  2.0676  0.7736
  765SOL     OW 2293   0.477   2.974   1.287  0.1307 -0.1561 -0.1135
  765SOL    HW1 2294   0.483   3.016   1.379 -0.1857  1.8352 -0.9727
  765SOL    HW2 2295   0.547   2.899   1.290 -0.9011  0.3222 -0.5446
  766SOL     OW 2296   2.834   2.033   2.173  0.1142 -0.2200 -0.1860
  766SOL    HW1 2297   2.912   2.042   2.242  2.8406 -2.8470  0.8934
  766SOL    HW2 2298   2.767   1.967   2.213  4.2785 -1.6983  0.3875
  767SOL     OW 2299   2.546   0.876   2.088  0.2697  0.0341 -0.1809
  767SOL    HW1 2300   2.477   0.840   2.027 -1.1530  2.3264  1.1052
  767SOL    HW2 2301   2.616   0.807   2.117  0.8359  0.6572 -1.5280
  768SOL     OW 2302   0.896   0.173   2.816 -0.6055  0.4475 -0.9766
  768SOL    HW1 2303   0.875   0.137   2.728 -1.0439  1.9657  4.4895
  768SOL    HW2 2304   0.982   0.130   2.853 -0.7167 -0.2805  1.1051
  769SOL     OW 2305   2.698   2.794   0.949 -0.1787 -0.4579 -0.0529
  769SOL    HW1 2306   2.784   2.842   0.972 -0.6064  2.2098 -0.7487
  769SOL    HW2 2307   2.643   2.770   1.029 -2.5118  0.1090  0.9623
  770SOL     OW 2308   0.253   2.775   2.698 -0.1981  0.4075 -0.1909
  770SOL    HW1 2309   0.204   2.851   2.661  1.7015 -1.3988  0.2765
  770SOL    HW2 2310   0.220   2.680   2.683  0.8936  0.4667 -0.1542
  771SOL     OW 2311   1.476   2.033   2.073 -0.0582 -0.2205 -0.6104
  771SOL    HW1 2312   1.466   2.105   2.003 -2.2906  1.5653 -1.5108
  771SOL    HW2 2313   1.468   1.942   2.036  0.3718  0.5348 -0.1809
  772SOL     OW 2314   1.274   2.901   0.000  0.6454 -0.4899  0.0785
  772SOL    HW1 2315   1.286   2.858   0.092  0.3473 -2.5070 -0.9360
  772SOL    HW2 2316   1.302   2.839   3.002 -0.8764 -0.1410 -0.4275
  773SOL     OW 2317   2.061   0.730   1.414  0.5389  0.2138 -0.3914
  773SOL    HW1 2318   2.076   0.822   1.451 -3.4026 -2.3688 -0.2599
  773SOL    HW2 2319   2.049   0.745   1.314 -1.7975 -2.6000 -0.5755
  774SOL     OW 2320   0.914   1.132   1.210  0.1503  0.0990 -0.0139
  774SOL    HW1 2321   1.008   1.166   1.207  1.2013  0.0086 -0.0131
  774SOL    HW2 2322   0.917   1.035   1.199  0.5074  0.5395 -0.4107
  775SOL     OW 2323   2.000   2.743   2.902 -0.2356 -0.3963  0.0750
  775SOL    HW1 2324   2.022   2.743   2.997  0.4479  0.5632 -1.3149
  775SOL    HW2 2325   1.918   2.683   2.878 -2.2242  1.4235  2.1402
  776SOL     OW 2326   2.100   0.971   1.531  0.3683  0.1259  0.2144
  776SOL    HW1 2327   2.139   0.968   1.626 -0.0853  0.0387 -0.8957
  776SOL    HW2 2328   2.159   1.023   1.466  1.4730 -1.0016  2.7451
  777SOL     OW 2329   0.287   1.007   2.091  0.4309  0.6847  0.6158
  777SOL    HW1 2330   0.291   0.938   2.169 -1.8148 -3.1957  0.2131
  777SOL    HW2 2331   0.330   1.093   2.115  0.3237 -3.4245  1.6698
  778SOL     OW 2332   0.196   0.633   0.132 -0.2698  0.1986 -0.0972
  778SOL    HW1 2333   0.292   0.625   0.108  1.1555  0.2048  1.3921
  778SOL    HW2 2334   0.175   0.733   0.147  0.8321 -0.0145  0.7942
  779SOL     OW 2335   0.863   0.074   2.555 -0.0265 -0.7057 -0.0526
  779SOL    HW1 2336   0.931   0.044   2.485  0.5161 -0.3415  0.6741
  779SOL    HW2 2337   0.815   3.070   2.594 -0.2755  1.5084  0.4964
  780SOL     OW 2338   1.890   1.136   2.590  0.1809 -0.1781 -0.6136
  780SOL    HW1 2339   1.842   1.075   2.655  1.2299 -1.6226  3.4428
  780SOL    HW2 2340   1.985   1.153   2.630  2.7545 -1.4335  1.2788
  781SOL     OW 2341   2.900   0.917   2.032  0.4273 -0.5310 -0.0825
  781SOL    HW1 2342   2.825   0.980   2.001 -1.5906 -2.2983  1.1033
  781SOL    HW2 2343   2.858   0.839   2.079  0.8006  0.5141  0.5215
  782SOL     OW 2344   0.836   1.705   2.845  0.1029  0.2340  0.6078
  782SOL    HW1 2345   0.835   1.627   2.916  3.0658 -2.6400  1.6426
  782SOL    HW2 2346   0.747   1.746   2.815 -2.3709  1.1143 -0.7601
  783SOL     OW 2347   1.092   2.463   1.280  0.0573 -0.1928  0.3473
  783SOL    HW1 2348   1.121   2.364   1.275  0.2398  0.8975  0.9583
  783SOL    HW2 2349   1.078   2.510   1.190 -0.5889  1.1166  1.3302
  784SOL     OW 2350   1.745   0.483   2.659 -0.0347  0.5566 -0.5618
  784SOL    HW1 2351   1.820   0.550   2.662 -0.0379 -1.7298 -0.7628
  784SOL    HW2 2352   1.772   0.394   2.618 -0.9335  0.9554 -1.7253
  785SOL     OW 2353   0.590   0.073   1.714 -0.1722  0.3309  0.2735
  785SOL    HW1 2354   0.618   0.106   1.621 -1.1550 -2.6658 -0.6707
  785SOL    HW2 2355   0.650   0.115   1.784 -0.6360  2.5704  2.0584
  786SOL     OW 2356   0.720   1.902   0.373  0.0818 -0.2541  0.1559
  786SOL    HW1 2357   0.649   1.854   0.423  1.0135 -0.1565 -1.7426
  786SOL    HW2 2358   0.715   1.869   0.275 -1.7486  0.0757 -1.1943
  787SOL     OW 2359   1.340   0.412   0.277 -0.3865  0.1077 -0.1469
  787SOL    HW1 2360   1.344   0.382   0.376  1.3611  1.0197  2.4357
  787SOL    HW2 2361   1.247   0.448   0.259 -0.5973  2.2890 -0.2642
  788SOL     OW 2362   2.817   1.526   1.283  0.0647 -0.0737  0.0531
  788SOL    HW1 2363   2.834   1.587   1.203 -0.3272 -0.0006  0.0485
  788SOL    HW2 2364   2.904   1.504   1.327  0.6665  2.6866 -1.0509
  789SOL     OW 2365   2.488   1.068   2.278  0.2670  0.5509 -0.1570
  789SOL    HW1 2366   2.478   0.991   2.210  0.0676 -0.6374 -0.4008
  789SOL    HW2 2367   2.516   1.158   2.238  0.2106 -2.2362  0.2123
  790SOL     OW 2368   0.555   0.410   0.249 -0.4887 -0.6729 -0.0773
  790SOL    HW1 2369   0.596   0.335   0.307  0.2317  1.9067 -2.7575
  790SOL    HW2 2370   0.631   0.447   0.190  1.1183  0.1518 -1.1473
  791SOL     OW 2371   2.848   0.189   2.985  0.1484  0.2491 -0.2527
  791SOL    HW1 2372   2.763   0.238   2.963  0.7880  0.6088  1.5093
  791SOL    HW2 2373   2.837   0.100   3.040 -3.5222 -1.4243  0.9583
  792SOL     OW 2374   1.284   0.695   2.241 -0.2008  0.2052  0.1783
  792SOL    HW1 2375   1.357   0.666   2.175  0.6854  0.0028  0.3488
  792SOL    HW2 2376   1.330   0.749   2.313  0.8784 -1.5778  1.1905
  793SOL     OW 2377   2.756   0.499   0.857 -1.1059  0.3403  0.1486
  793SOL    HW1 2378   2.802   0.435   0.792  2.8603 -0.8076  0.4031
  793SOL    HW2 2379   2.823   0.514   0.932  0.2580  0.4225 -0.0704
  794SOL     OW 2380   0.104   0.655   2.239 -0.1398  0.0731  0.5338
  794SOL    HW1 2381   0.179   0.715   2.213 -0.1871 -1.4244  2.5059
  794SOL    HW2 2382   0.054   0.614   2.157 -2.4922 -0.1652 -2.4109
  795SOL     OW 2383   0.449   1.160   0.571  0.2340  0.5159 -0.0215
  795SOL    HW1 2384   0.466   1.157   0.672  1.9055 -0.0021 -2.1665
  795SOL    HW2 2385   0.443   1.067   0.538 -0.3923 -1.4026 -0.1993
  796SOL     OW 2386   0.029   0.868   3.015 -0.1774  0.2262  0.2269
  796SOL    HW1 2387   0.089   0.895   0.019 -3.2204 -0.0218 -0.0436
  796SOL    HW2 2388   0.076   0.795   2.964  0.2193 -1.0812  3.8510
  797SOL     OW 2389   1.943   2.767   2.497  0.2470  0.6252 -0.4239
  797SOL    HW1 2390   2.013   2.814   2.558 -1.5391  0.0067 -0.6399
  797SOL    HW2 2391   1.852   2.815   2.509  0.1404 -0.2690  2.9086
  798SOL     OW 2392   0.025   0.048   1.397  0.1226  0.9059  0.1036
  798SOL    HW1 2393   0.046   0.100   1.313 -1.9522 -1.7993 -1.5277
  798SOL    HW2 2394   0.054   0.095   1.485 -0.7470 -0.2257  0.6792
  799SOL     OW 2395   2.281   0.608   1.789  0.3899 -0.0886 -0.7117
  799SOL    HW1 2396   2.182   0.598   1.810 -0.6363 -0.5180  1.2088
  799SOL    HW2 2397   2.297   0.597   1.691 -0.7725 -4.4900  2.6328
  800SOL     OW 2398   0.093   1.670   0.664 -0.4423 -0.2806  0.2302
  800SOL    HW1 2399   0.112   1.580   0.704 -2.1230  4.1269 -1.9399
  800SOL    HW2 2400   0.161   1.692   0.589  1.2924 -0.2822 -2.7090
  801SOL     OW 2401   1.386   1.581   0.412  0.5685 -0.6676  0.0420
  801SOL    HW1 2402   1.304   1.523   0.426  0.1517  0.0239  0.2006
  801SOL    HW2 2403   1.440   1.587   0.496 -2.8835  0.4071 -2.8222
  802SOL     OW 2404   1.317   1.257   2.784  0.2867 -0.2484  0.4057
  802SOL    HW1 2405   1.289   1.244   2.686  3.7814  0.0820 -1.5756
  802SOL    HW2 2406   1.394   1.197   2.818 -0.2943 -0.6253  1.0937
  803SOL     OW 2407   0.380   1.897   1.889  0.0892  0.0264  0.4179
  803SOL    HW1 2408   0.302   1.838   1.858  2.8746  0.0975  1.1287
  803SOL    HW2 2409   0.468   1.842   1.895 -0.0395 -0.8877 -0.5411
  804SOL     OW 2410   1.363   2.234   0.844 -0.4932  0.0581  0.1965
  804SOL    HW1 2411   1.438   2.164   0.837 -0.1474 -1.4131  2.3305
  804SOL    HW2 2412   1.276   2.201   0.807  2.4117  3.2529  0.3284
  805SOL     OW 2413   2.363   2.291   2.721 -0.1547  0.3986 -0.4511
  805SOL    HW1 2414   2.406   2.324   2.805 -0.9540  2.6143 -0.3485
  805SOL    HW2 2415   2.437   2.265   2.654  1.5097  0.0763  0.9493
  806SOL     OW 2416   2.911   0.295   0.763 -0.5750  0.2463 -0.3968
  806SOL    HW1 2417   2.883   0.218   0.825 -3.1682 -0.1966 -0.8988
  806SOL    HW2 2418   3.015   0.300   0.756  1.6207  0.6452 -1.1603
  807SOL     OW 2419   2.682   1.005   2.925  0.3613  0.2388 -0.2700
  807SOL    HW1 2420   2.733   0.927   2.879 -0.9286 -1.0015 -1.9967
  807SOL    HW2 2421   2.742   1.082   2.956  0.5090 -1.3243 -0.7552
  808SOL     OW 2422   0.776   1.943   0.886  0.2057 -0.1559 -0.0952
  808SOL    HW1 2423   0.771   1.989   0.795  0.3816  2.0176 -0.9638
  808SOL    HW2 2424   0.697   1.966   0.946  2.2910  2.7343 -0.3984
  809SOL     OW 2425   2.793   0.110   2.110  0.5055  0.1731  0.3104
  809SOL    HW1 2426   2.810   0.019   2.074  1.6327 -2.8423 -0.6651
  809SOL    HW2 2427   2.736   0.115   2.196 -0.4886 -2.0637  0.3658
  810SOL     OW 2428   1.688   0.776   0.699 -0.4370 -0.0577  0.3955
  810SOL    HW1 2429   1.734   0.840   0.637  0.1692 -1.6717  2.8091
  810SOL    HW2 2430   1.596   0.807   0.733  1.6717 -0.6237 -1.4024
  811SOL     OW 2431   1.683   2.989   2.068 -0.3902  0.2970 -0.4035
  811SOL    HW1 2432   1.671   3.047   2.152  0.3693 -1.1695  2.3629
  811SOL    HW2 2433   1.672   2.891   2.095  0.7433  1.4456 -1.6904
  812SOL     OW 2434   2.015   2.475   0.514  0.1071  0.0913  0.1795
  812SOL    HW1 2435   1.947   2.479   0.589  1.3057 -1.4494 -1.2286
  812SOL    HW2 2436   2.058   2.564   0.490  0.5304  0.0645  2.5013
  813SOL     OW 2437   1.146   0.404   1.730  0.0345 -0.2241 -0.1542
  813SOL    HW1 2438   1.060   0.345   1.739 -2.5326 -1.5221  2.1866
  813SOL    HW2 2439   1.120   0.500   1.718 -3.3430 -1.6477 -1.2640
  814SOL     OW 2440   0.206   2.866   1.388  0.4085 -0.4197 -0.0499
  814SOL    HW1 2441   0.291   2.874   1.332  0.3042  1.4677  0.0844
  814SOL    HW2 2442   0.160   2.955   1.390  1.1748 -0.8365 -0.8141
  815SOL     OW 2443   0.163   0.071   0.882  0.2152  0.4577  0.6364
  815SOL    HW1 2444   0.112   3.072   0.834  1.3593 -2.1995  1.2083
  815SOL    HW2 2445   0.207   0.031   0.964 -3.1893 -1.2815 -2.5453
  816SOL     OW 2446   2.692   1.821   2.268  0.4402 -0.2223  0.3265
  816SOL    HW1 2447   2.646   1.831   2.358  2.5243  0.9607 -2.5461
  816SOL    HW2 2448   2.622   1.814   2.197  2.5606  0.5174  0.5419
  817SOL     OW 2449   1.199   0.216   0.708 -0.1263 -0.5044  0.0075
  817SOL    HW1 2450   1.128   0.228   0.778  1.7263 -0.4557 -2.2503
  817SOL    HW2 2451   1.269   0.154   0.742 -1.8913  2.4557 -1.9956
  818SOL     OW 2452   1.736   0.564   0.093 -0.5020 -0.1431  0.0450
  818SOL    HW1 2453   1.707   0.473   0.056  0.5941 -1.5141  1.1145
  818SOL    HW2 2454   1.659   0.613   0.143 -0.7772  2.7051  1.9550
  819SOL     OW 2455   2.203   0.021   3.048 -0.1715  0.3180 -0.1519
  819SOL    HW1 2456   2.239   0.077   0.049  2.1985  1.1211  1.2967
  819SOL    HW2 2457   2.258   3.013   3.036  1.3149 -0.0195 -4.2897
  820SOL     OW 2458   1.516   1.103   2.882 -0.6046  0.1713  0.1067
  820SOL    HW1 2459   1.560   1.193   2.910 -1.4134 -1.0150 -1.5234
  820SOL    HW2 2460   1.531   1.030   2.954 -0.1958  0.5764 -1.2267
  821SOL     OW 2461   0.295   0.569   1.146 -0.4957 -0.2517 -0.2818
  821SOL    HW1 2462   0.353   0.490   1.165 -2.1749  1.4466 -0.2097
  821SOL    HW2 2463   0.321   0.608   1.056 -2.0992 -1.6032  0.5586
  822SOL     OW 2464   1.042   2.620   2.377 -0.0035 -0.6413  0.2021
  822SOL    HW1 2465   1.127   2.563   2.380 -1.8836 -0.6995  1.2352
  822SOL    HW2 2466   1.009   2.626   2.476  1.7946 -0.3782  3.6122
  823SOL     OW 2467   0.390   1.541   1.680 -0.1238  0.2837 -0.0179
  823SOL    HW1 2468   0.440   1.629   1.662  1.3466 -0.6577 -0.4999
  823SOL    HW2 2469   0.452   1.466   1.710 -1.6312  1.5609  0.7822
  824SOL     OW 2470   1.576   2.726   2.421 -0.3202 -0.4800  0.0293
  824SOL    HW1 2471   1.596   2.772   2.509  0.5828 -0.0244  0.2408
  824SOL    HW2 2472   1.476   2.740   2.404  0.2630  2.7496 -0.5389
  825SOL     OW 2473   1.424   1.010   0.368  0.6244  0.3826 -0.3372
  825SOL    HW1 2474   1.438   0.950   0.286 -4.2380  0.1538  0.8094
  825SOL    HW2 2475   1.418   1.102   0.331 -0.0292 -2.3068  0.5404
  826SOL     OW 2476   2.091   0.703   2.841 -0.1861 -0.1668  0.0255
  826SOL    HW1 2477   2.017   0.733   2.786  1.5180  1.1541  3.4134
  826SOL    HW2 2478   2.155   0.780   2.849 -2.4526 -2.8662 -1.2825
  827SOL     OW 2479   0.599   2.233   2.942  0.2226 -0.3680  0.3984
  827SOL    HW1 2480   0.510   2.261   2.899 -1.3883  1.8204  0.3919
  827SOL    HW2 2481   0.635   2.157   2.888 -0.0021  1.3817 -2.0878
  828SOL     OW 2482   2.953   0.803   1.444  0.1937  0.1716 -0.8319
  828SOL    HW1 2483   2.863   0.753   1.445 -0.6165 -0.8335  0.8134
  828SOL    HW2 2484   2.935   0.899   1.468  1.1606  2.7612 -0.4580
  829SOL     OW 2485   0.565   1.668   1.009 -0.0889  0.0852  0.0453
  829SOL    HW1 2486   0.542   1.761   1.036 -0.0115  0.7850  1.0277
  829SOL    HW2 2487   0.655   1.640   1.048 -0.3304  0.8649 -1.5295
  830SOL     OW 2488   0.887   1.207   1.509 -0.2597  0.5395  0.8555
  830SOL    HW1 2489   0.793   1.236   1.488  0.7403 -1.2487  0.6897
  830SOL    HW2 2490   0.894   1.108   1.512  0.3694 -2.0883 -2.9999
  831SOL     OW 2491   0.214   1.991   0.055 -0.3524  0.3995 -0.1388
  831SOL    HW1 2492   0.154   2.070   0.079 -0.4875 -2.7488 -0.1709
  831SOL    HW2 2493   0.313   2.019   0.060  2.9818  0.4876  0.1785
  832SOL     OW 2494   0.669   0.134   2.938 -0.0593  0.0167 -0.0341
  832SOL    HW1 2495   0.605   0.211   2.929  1.8574  1.2966 -1.2270
  832SOL    HW2 2496   0.756   0.172   2.905 -0.2293 -1.2278  0.1752
  833SOL     OW 2497   0.526   0.452   1.946 -0.3695 -0.0145  0.0820
  833SOL    HW1 2498   0.579   0.532   1.979 -1.9987  0.8555  0.8907
  833SOL    HW2 2499   0.427   0.460   1.953  0.4342 -2.3263  0.5219
  834SOL     OW 2500   3.000   0.387   1.047  0.3812  0.3532 -0.3553
  834SOL    HW1 2501   2.952   0.475   1.064 -2.6559 -0.6824 -2.3029
  834SOL    HW2 2502   3.062   0.395   0.969 -1.9050 -3.7404  0.0568
  835SOL     OW 2503   3.002   3.066   1.090  0.1159 -0.4713  0.7316
  835SOL    HW1 2504   0.009   0.038   1.123  2.2819  2.4195 -1.5060
  835SOL    HW2 2505   3.016   2.966   1.067  1.5049 -0.3892  2.8185
  836SOL     OW 2506   0.227   2.122   2.841  0.2317  0.4352  0.0671
  836SOL    HW1 2507   0.140   2.137   2.792 -1.2567 -0.6118 -0.4944
  836SOL    HW2 2508   0.201   2.110   2.938  1.4051  0.5146 -2.8401
  837SOL     OW 2509   1.692   1.795   2.862  0.1005  0.2804 -0.3031
  837SOL    HW1 2510   1.762   1.812   2.791 -0.9102 -0.1421 -1.4866
  837SOL    HW2 2511   1.602   1.843   2.839  1.1448 -1.5951  1.1777
  838SOL     OW 2512   0.131   0.917   1.434  0.3376 -0.0523 -0.3604
  838SOL    HW1 2513   0.196   0.839   1.420 -1.1487 -2.9855  0.3258
  838SOL    HW2 2514   0.038   0.884   1.454  1.5915 -0.2060 -2.9448
  839SOL     OW 2515   1.138   0.843   0.767 -0.1866  0.3410  0.4544
  839SOL    HW1 2516   1.060   0.822   0.826 -2.0160  1.5059 -0.1381
  839SOL    HW2 2517   1.102   0.859   0.668 -0.9506  0.3559 -0.0611
  840SOL     OW 2518   1.747   3.045   1.493  0.5607  0.3950  0.2526
  840SOL    HW1 2519   1.724   3.006   1.586  1.7750  1.8591 -1.2222
  840SOL    HW2 2520   1.660   3.046   1.442  4.6511  0.9652  0.7406
  841SOL     OW 2521   0.513   2.638   0.384 -0.1357  0.0641  0.5946
  841SOL    HW1 2522   0.426   2.642   0.336 -1.4296  0.1354  0.8407
  841SOL    HW2 2523   0.505   2.603   0.476 -0.1991 -0.6442 -1.7901
  842SOL     OW 2524   0.634   0.529   0.628  0.3613  0.0783  0.0660
  842SOL    HW1 2525   0.723   0.576   0.605 -0.7456  1.8952  0.7292
  842SOL    HW2 2526   0.566   0.574   0.563 -3.7415  1.6184 -2.5801
  843SOL     OW 2527   0.990   1.315   1.981 -0.3271 -0.3329  0.6879
  843SOL    HW1 2528   0.918   1.309   2.054 -2.6188 -0.9651 -0.5875
  843SOL    HW2 2529   0.954   1.286   1.891 -1.4582  1.2817 -1.9436
  844SOL     OW 2530   1.099   2.065   0.175 -0.3659  0.0534 -0.6222
  844SOL    HW1 2531   1.185   2.014   0.146 -0.3853 -1.4204 -2.1955
  844SOL    HW2 2532   1.128   2.156   0.212  0.2747 -0.1841 -0.9054
  845SOL     OW 2533   2.314   2.149   2.430 -0.5693  0.5152  0.1641
  845SOL    HW1 2534   2.328   2.151   2.329 -0.6967  0.4964 -1.4432
  845SOL    HW2 2535   2.397   2.111   2.472 -1.2678  0.8972 -1.2761
  846SOL     OW 2536   2.074   2.137   2.876 -0.0615  0.2085 -0.5723
  846SOL    HW1 2537   2.087   2.228   2.916 -0.2227  0.2279  0.1290
  846SOL    HW2 2538   1.992   2.126   2.817 -2.2545 -2.9078 -1.8324
  847SOL     OW 2539   2.088   2.906   2.681  0.3065 -0.1332 -0.7501
  847SOL    HW1 2540   2.187   2.900   2.666 -0.2988  1.3631  1.3900
  847SOL    HW2 2541   2.063   2.852   2.764 -0.9317  0.2037 -0.4545
  848SOL     OW 2542   0.873   0.645   0.547  0.0726 -0.5268  0.1698
  848SOL    HW1 2543   0.949   0.582   0.557  2.0622  0.1597 -1.3570
  848SOL    HW2 2544   0.910   0.739   0.527 -0.5638  2.0359  1.3291
  849SOL     OW 2545   0.755   0.018   1.129  0.6024 -0.5877 -0.2025
  849SOL    HW1 2546   0.713   3.020   1.071  0.2157 -2.2063 -0.5442
  849SOL    HW2 2547   0.695   0.100   1.115 -1.3305  0.0010 -1.1358
  850SOL     OW 2548   0.339   1.598   0.095 -0.2471 -0.0064  0.2946
  850SOL    HW1 2549   0.255   1.655   0.116  0.6826 -0.3169 -0.4981
  850SOL    HW2 2550   0.346   1.595   3.071  1.3952  2.5054  2.9648
  851SOL     OW 2551   0.007   1.022   0.688  0.3217  0.2851  0.2609
  851SOL    HW1 2552   3.006   1.047   0.631  3.2854 -1.9516  2.2405
  851SOL    HW2 2553   3.053   0.952   0.753 -0.9098  2.8547 -0.9789
  852SOL     OW 2554   1.872   2.015   1.785  0.0683  0.4015  0.0543
  852SOL    HW1 2555   1.926   2.018   1.697 -2.1967  0.7400 -0.8543
  852SOL    HW2 2556   1.802   1.940   1.790  0.5552  2.4035  1.1089
  853SOL     OW 2557   0.139   1.749   0.164 -0.4713  0.0344  0.4183
  853SOL    HW1 2558   0.048   1.717   0.129 -1.7937 -0.8874 -1.8978
  853SOL    HW2 2559   0.172   1.837   0.127 -0.5011  2.0554 -1.7371
  854SOL     OW 2560   1.689   1.174   1.494 -0.1906  0.4593 -0.3541
  854SOL    HW1 2561   1.738   1.202   1.414 -1.0967 -3.4183  1.6487
  854SOL    HW2 2562   1.745   1.122   1.563 -1.1342 -1.8717  1.0434
  855SOL     OW 2563   0.772   2.428   2.983 -0.5731  0.3199 -0.4118
  855SOL    HW1 2564   0.857   2.389   3.033  2.5868  1.1901  0.3989
  855SOL    HW2 2565   0.704   2.352   2.987  1.6844 -1.3629  0.6297
  856SOL     OW 2566   0.043   0.207   2.130 -0.3527 -0.0477  0.4085
  856SOL    HW1 2567   0.134   0.245   2.148  0.4905  0.5081  1.2104
  856SOL    HW2 2568   3.048   0.240   2.194 -0.9615 -1.6998  0.4262
  857SOL     OW 2569   0.540   0.770   1.681  0.5972  0.0664 -0.3258
  857SOL    HW1 2570   0.490   0.824   1.754  0.9230  3.0902  3.3238
  857SOL    HW2 2571   0.591   0.835   1.617  1.9400 -1.6610  2.7767
  858SOL     OW 2572   0.457   1.227   2.100 -0.3725  0.2980 -0.5517
  858SOL    HW1 2573   0.429   1.321   2.065 -0.6861 -0.6697 -4.0521
  858SOL    HW2 2574   0.470   1.220   2.200 -1.4811 -1.8883 -1.0126
  859SOL     OW 2575   2.419   0.345   0.425 -1.0032  0.2450 -0.1892
  859SOL    HW1 2576   2.513   0.323   0.394 -0.3779 -0.0822 -1.0480
  859SOL    HW2 2577   2.353   0.288   0.368 -2.5116 -1.0824  1.1438
  860SOL     OW 2578   1.773   2.906   2.886  0.7826 -0.1518  0.4521
  860SOL    HW1 2579   1.736   3.004   2.892 -1.1180  0.1396  0.9145
  860SOL    HW2 2580   1.876   2.905   2.902  2.8925  2.3646  0.9560
  861SOL     OW 2581   0.200   0.645   0.513  0.5240  0.0009 -0.3734
  861SOL    HW1 2582   0.124   0.669   0.448 -1.9573  1.9922 -0.5413
  861SOL    HW2 2583   0.212   0.707   0.593 -0.3824  0.2497 -0.5808
  862SOL     OW 2584   1.709   0.357   2.275 -0.2155 -0.0001 -0.3770
  862SOL    HW1 2585   1.794   0.357   2.215  1.4066 -2.2168 -1.5664
  862SOL    HW2 2586   1.655   0.273   2.255 -0.4597  0.5827  1.1535
  863SOL     OW 2587   2.826   2.102   0.994 -0.1519 -0.2728  0.5480
  863SOL    HW1 2588   2.733   2.068   1.009 -1.4067  0.4020  0.8509
  863SOL    HW2 2589   2.826   2.198   0.960  1.0177 -0.0978 -2.9423
  864SOL     OW 2590   2.366   2.759   1.812  0.5845  0.1302  0.4550
  864SOL    HW1 2591   2.311   2.842   1.803  0.7250 -1.6683 -1.9008
  864SOL    HW2 2592   2.329   2.712   1.898 -4.1321 -1.6659 -0.2239
  865SOL     OW 2593   1.399   0.546   1.568 -0.2992 -0.2728  0.2374
  865SOL    HW1 2594   1.404   0.520   1.668 -0.4497  0.8145  2.0931
  865SOL    HW2 2595   1.399   0.463   1.517  0.5910 -1.4694  1.2798
  866SOL     OW 2596   2.511   3.038   0.843  0.2621 -0.0888  0.3019
  866SOL    HW1 2597   2.574   0.038   0.828  0.0177  0.0175 -0.1748
  866SOL    HW2 2598   2.549   2.957   0.888  0.4861 -1.0176 -0.5119
  867SOL     OW 2599   2.850   2.944   0.650 -0.6436 -0.5171 -0.4582
  867SOL    HW1 2600   2.916   2.954   0.573 -1.9485 -0.7157 -0.6902
  867SOL    HW2 2601   2.801   2.856   0.651  2.7016  1.5581 -2.1872
  868SOL     OW 2602   1.174   2.248   2.188  0.1739 -0.4493  0.1896
  868SOL    HW1 2603   1.160   2.157   2.138 -1.3503 -1.9127 -1.1144
  868SOL    HW2 2604   1.098   2.310   2.166  0.5473  1.0457 -0.2372
  869SOL     OW 2605   1.744   2.069   0.048 -0.3264 -0.1706  0.0475
  869SOL    HW1 2606   1.698   2.160   0.037 -1.7865 -0.7080 -0.9688
  869SOL    HW2 2607   1.810   2.071   0.125  1.8187 -1.0771 -2.3891
  870SOL     OW 2608   2.495   2.441   0.570 -0.6085  0.3245  0.4796
  870SOL    HW1 2609   2.581   2.476   0.612  3.4653  2.8143  0.1538
  870SOL    HW2 2610   2.500   2.411   0.474  1.7018  2.7971  0.5315
  871SOL     OW 2611   0.336   1.047   1.614 -0.2500 -0.0920  0.2409
  871SOL    HW1 2612   0.341   1.104   1.527  2.0787 -0.6074 -1.2222
  871SOL    HW2 2613   0.256   1.086   1.660  1.8693  1.3265 -1.7592
  872SOL     OW 2614   0.739   1.482   2.578  0.1005  0.5416  0.3623
  872SOL    HW1 2615   0.785   1.570   2.555  2.5366 -1.5661  0.0938
  872SOL    HW2 2616   0.794   1.403   2.541  3.2768 -0.7342  1.2336
  873SOL     OW 2617   0.547   2.910   1.580  0.4112 -0.0354 -0.2273
  873SOL    HW1 2618   0.642   2.884   1.553  0.5753  1.6714 -0.7866
  873SOL    HW2 2619   0.538   3.002   1.628 -0.0959 -1.2675  0.3550
  874SOL     OW 2620   1.235   0.844   1.986  0.7703  0.0260  0.0538
  874SOL    HW1 2621   1.277   0.892   2.066  1.3743  1.1848  0.6116
  874SOL    HW2 2622   1.273   0.750   1.990  0.3089  0.8963  1.2711
  875SOL     OW 2623   2.528   2.743   1.148 -0.8044 -0.2174 -0.3627
  875SOL    HW1 2624   2.507   2.781   1.242 -1.5291  2.6777  1.3307
  875SOL    HW2 2625   2.441   2.726   1.099 -1.3613  0.6875 -0.6178
  876SOL     OW 2626   1.117   1.164   0.897  0.0604  0.5076  0.8701
  876SOL    HW1 2627   1.128   1.180   0.997 -2.5450  0.3560 -0.1072
  876SOL    HW2 2628   1.132   1.064   0.885  2.6424 -1.6437  3.6262
  877SOL     OW 2629   2.838   0.221   1.215  0.1897  0.9829  0.2497
  877SOL    HW1 2630   2.894   0.275   1.146  1.5606 -0.8053 -1.7139
  877SOL    HW2 2631   2.860   0.122   1.201  2.4084  1.0522 -0.6341
  878SOL     OW 2632   2.348   1.555   0.008 -0.3339  0.4038  0.0375
  878SOL    HW1 2633   2.448   1.575   0.031  2.4524  2.9019  1.0291
  878SOL    HW2 2634   2.323   1.464   0.040  1.2259  0.9985 -0.9547
  879SOL     OW 2635   2.898   1.970   1.273 -0.3564 -0.2656 -0.5065
  879SOL    HW1 2636   2.858   1.949   1.366 -0.8507  0.0834 -0.9479
  879SOL    HW2 2637   2.840   2.033   1.221 -1.8480 -1.5795 -0.1039
  880SOL     OW 2638   0.639   2.257   1.206  0.7256 -0.0163 -0.4860
  880SOL    HW1 2639   0.592   2.265   1.121  1.2860  1.4048  0.7942
  880SOL    HW2 2640   0.701   2.339   1.219 -0.9892  2.9101  1.2008
  881SOL     OW 2641   1.270   1.396   0.883 -0.3909  0.2348  0.0501
  881SOL    HW1 2642   1.214   1.312   0.861  0.8301  1.0709 -1.6918
  881SOL    HW2 2643   1.229   1.456   0.957  0.8143 -0.3837  0.4475
  882SOL     OW 2644   2.612   1.122   2.512  0.2620 -0.0181 -0.0419
  882SOL    HW1 2645   2.573   1.074   2.434 -2.1786  0.8991  0.0174
  882SOL    HW2 2646   2.684   1.066   2.555 -2.6395  1.3085 -0.7974
  883SOL     OW 2647   1.465   0.261   1.180  0.1042 -0.0296 -0.0606
  883SOL    HW1 2648   1.464   0.164   1.145 -1.4670 -1.2322 -0.9562
  883SOL    HW2 2649   1.397   0.317   1.129 -1.0653  1.7279 -2.8294
  884SOL     OW 2650   0.152   2.811   1.088 -0.1579  0.3889 -0.0563
  884SOL    HW1 2651   0.213   2.893   1.082  1.6276  0.1235 -0.7069
  884SOL    HW2 2652   0.206   2.728   1.097 -0.4286  2.8435  0.7454
  885SOL     OW 2653   1.100   1.339   1.395 -0.4568  0.2521  0.2807
  885SOL    HW1 2654   1.026   1.276   1.425  2.2057  3.3720 -1.6102
  885SOL    HW2 2655   1.172   1.349   1.468 -0.8599  1.2976  1.9445
  886SOL     OW 2656   1.093   1.141   2.886 -0.2369  0.4339 -0.8808
  886SOL    HW1 2657   1.105   1.084   2.969 -0.0930  1.9087 -1.1429
  886SOL    HW2 2658   1.174   1.187   2.864 -2.7470 -1.9154 -0.0915
  887SOL     OW 2659   1.386   0.654   0.604  0.0658 -0.0459 -0.0495
  887SOL    HW1 2660   1.310   0.691   0.545 -0.1206 -1.9048 -0.7323
  887SOL    HW2 2661   1.480   0.680   0.580 -2.0506  1.1409  0.3895
  888SOL     OW 2662   2.022   1.272   1.793  0.2617 -0.7149 -0.2244
  888SOL    HW1 2663   2.043   1.301   1.698  1.3622 -0.1627  2.1536
  888SOL    HW2 2664   2.064   1.185   1.810  0.5681  0.5647 -1.1037
  889SOL     OW 2665   2.652   2.380   0.873  0.6534 -0.1928 -0.1856
  889SOL    HW1 2666   2.604   2.299   0.842 -0.6552  1.6083  0.3379
  889SOL    HW2 2667   2.605   2.420   0.957  0.2366  1.4158  0.4141
  890SOL     OW 2668   1.411   1.807   0.720  0.7206 -0.3644 -0.4695
  890SOL    HW1 2669   1.449   1.720   0.698  1.5471 -0.7644  2.6343
  890SOL    HW2 2670   1.339   1.800   0.795 -0.1145 -0.3932 -2.2085
  891SOL     OW 2671   2.555   0.485   2.361  1.1640  0.3274 -0.5089
  891SOL    HW1 2672   2.648   0.492   2.322 -2.0356  0.9717 -0.3126
  891SOL    HW2 2673   2.495   0.431   2.300 -0.0687 -3.9565  0.9904
  892SOL     OW 2674   0.711   0.212   2.234 -0.1901  0.0785  0.2363
  892SOL    HW1 2675   0.767   0.150   2.291 -0.7449  1.4415 -1.1851
  892SOL    HW2 2676   0.718   0.312   2.255 -0.7230 -2.8051 -0.4869
  893SOL     OW 2677   1.532   0.145   1.567 -0.0357 -0.1149 -0.5024
  893SOL    HW1 2678   1.547   0.071   1.502  0.5740 -2.0204  0.0076
  893SOL    HW2 2679   1.467   0.216   1.532 -0.1794  0.1006  0.3077
  894SOL     OW 2680   2.699   0.697   0.689  0.0295 -0.2480  0.4183
  894SOL    HW1 2681   2.719   0.632   0.767 -0.3091 -2.0449 -0.1952
  894SOL    HW2 2682   2.649   0.777   0.722 -0.4573  1.8234  2.3300
  895SOL     OW 2683   1.837   2.286   2.317 -0.0182  0.4971 -0.0537
  895SOL    HW1 2684   1.909   2.261   2.381 -1.5607 -0.3447 -1.9212
  895SOL    HW2 2685   1.801   2.202   2.277  2.4876 -0.9395 -2.0055
  896SOL     OW 2686   1.970   0.057   1.372 -0.0169  0.0284  0.3271
  896SOL    HW1 2687   1.990   0.153   1.407  2.2193  1.9890 -1.3043
  896SOL    HW2 2688   1.884   0.027   1.414  0.1533 -1.5451  0.3991
  897SOL     OW 2689   0.598   1.733   1.827 -0.0916 -0.4928  0.0365
  897SOL    HW1 2690   0.577   1.754   1.728  0.0308 -0.5990 -1.9188
  897SOL    HW2 2691   0.645   1.644   1.832 -0.4187  1.9848 -0.8562
  898SOL     OW 2692   2.057   1.564   1.890 -0.6033 -0.3472 -0.4935
  898SOL    HW1 2693   2.143   1.589   1.932 -0.8143 -1.4862 -1.3635
  898SOL    HW2 2694   2.050   1.466   1.868  3.2348  2.1262 -2.7458
  899SOL     OW 2695   1.853   2.251   1.013 -0.1083 -0.0453  0.6003
  899SOL    HW1 2696   1.925   2.266   1.084  0.8101 -0.0155  2.4007
  899SOL    HW2 2697   1.771   2.311   1.036 -1.0687  0.8334 -0.9870
  900SOL     OW 2698   1.015   2.828   2.706 -0.4372 -0.2673 -0.0070
  900SOL    HW1 2699   0.990   2.832   2.806 -2.7983  1.1370 -1.5623
  900SOL    HW2 2700   0.983   2.736   2.671  0.0756  0.3282  1.0211
  901SOL     OW 2701   0.921   1.550   2.283 -0.5675 -0.1680 -0.1755
  901SOL    HW1 2702   0.915   1.622   2.356 -0.5320  0.5937 -0.9541
  901SOL    HW2 2703   1.023   1.540   2.254 -0.8346  0.5203  0.6358
  902SOL     OW 2704   2.068   0.486   2.978 -0.4526  0.3978  0.0217
  902SOL    HW1 2705   2.071   0.579   2.942  0.2215 -2.0834 -0.4219
  902SOL    HW2 2706   2.102   0.480   3.072 -1.1307 -2.2313  0.6877
  903SOL     OW 2707   2.216   0.914   2.134  0.1992 -0.0429  0.5350
  903SOL    HW1 2708   2.279   0.935   2.058 -0.5542 -1.7557  0.1548
  903SOL    HW2 2709   2.208   0.997   2.193  1.5189  2.3638 -0.9752
  904SOL     OW 2710   1.870   1.044   1.641 -0.0574 -0.4225 -0.3472
  904SOL    HW1 2711   1.938   1.026   1.566  1.1300  1.2067  0.7764
  904SOL    HW2 2712   1.916   1.050   1.730  0.3455 -0.9874  0.8015
  905SOL     OW 2713   2.131   0.571   0.742 -0.4043  0.0142  0.1817
  905SOL    HW1 2714   2.220   0.610   0.722  1.7382 -1.6950 -0.0678
  905SOL    HW2 2715   2.130   0.520   0.828  2.6304  0.6955 -3.0050
  906SOL     OW 2716   2.319   1.595   0.644 -0.5378  0.7427  0.7502
  906SOL    HW1 2717   2.356   1.513   0.595 -0.9472  1.2893 -0.7755
  906SOL    HW2 2718   2.398   1.657   0.666  2.1821 -2.2289 -1.3416
  907SOL     OW 2719   1.224   2.890   0.762 -0.0009 -0.0207  0.4140
  907SOL    HW1 2720   1.262   2.796   0.742 -0.9375 -1.9084  1.2406
  907SOL    HW2 2721   1.295   2.965   0.741  3.1526  3.6658 -1.2048
  908SOL     OW 2722   1.597   2.421   2.362  0.0246 -0.3115 -0.0474
  908SOL    HW1 2723   1.688   2.374   2.349 -0.0892 -1.5691  1.4152
  908SOL    HW2 2724   1.613   2.516   2.392 -2.0238 -1.6103  0.2875
  909SOL     OW 2725   2.349   0.480   2.041  0.5582 -0.0958  0.1235
  909SOL    HW1 2726   2.300   0.535   2.112  0.7898  1.5343  0.9598
  909SOL    HW2 2727   2.351   0.526   1.955  0.2390  0.5953  1.3863
  910SOL     OW 2728   1.228   0.515   2.544  0.2613  0.1341  0.7823
  910SOL    HW1 2729   1.315   0.470   2.558  0.9548 -1.5387  0.3608
  910SOL    HW2 2730   1.151   0.446   2.543  0.2489  1.1182  0.1618
  911SOL     OW 2731   2.996   0.995   2.795  0.0800  0.3296  0.0551
  911SOL    HW1 2732   3.055   0.938   2.855  3.1606 -0.3572 -1.3735
  911SOL    HW2 2733   2.938   1.060   2.852 -1.3108 -1.4358  4.6685
  912SOL     OW 2734   3.068   2.199   1.039  0.0898  0.6956 -0.3615
  912SOL    HW1 2735   2.985   2.145   1.015  4.4271 -0.4239  1.1691
  912SOL    HW2 2736   3.067   2.231   1.136 -0.6187  1.2703  0.2174
  913SOL     OW 2737   2.548   1.761   2.488 -0.3194  0.3287 -0.0517
  913SOL    HW1 2738   2.445   1.766   2.487  2.6147 -1.6633  0.4354
  913SOL    HW2 2739   2.583   1.783   2.579 -0.5166 -1.1000 -3.0864
  914SOL     OW 2740   1.559   1.579   0.653 -0.1173 -0.1653 -0.0700
  914SOL    HW1 2741   1.602   1.501   0.604 -0.8696 -2.0177 -1.2341
  914SOL    HW2 2742   1.569   1.572   0.756 -0.9667  0.1564  0.5202
  915SOL     OW 2743   0.100   2.657   2.111  1.2707 -0.0460  0.3149
  915SOL    HW1 2744   0.151   2.640   2.196 -2.1351  0.2970 -0.3525
  915SOL    HW2 2745   0.164   2.655   2.032 -1.0591 -1.5676  1.8188
  916SOL     OW 2746   1.002   3.074   1.023 -0.4242  0.3733  0.0931
  916SOL    HW1 2747   1.004   3.034   0.932  0.6815  1.1668  0.9214
  916SOL    HW2 2748   0.909   0.003   1.066  1.6227 -0.6200  0.4714
  917SOL     OW 2749   2.349   0.593   2.813 -0.6166 -0.5532 -0.3066
  917SOL    HW1 2750   2.247   0.593   2.833 -1.0355  1.9598  1.5063
  917SOL    HW2 2751   2.370   0.616   2.713  1.6600 -0.1324 -0.4770
  918SOL     OW 2752   1.496   2.546   2.713  0.4522 -0.2607 -0.4133
  918SOL    HW1 2753   1.551   2.531   2.798 -0.0822 -0.9503 -1.9652
  918SOL    HW2 2754   1.520   2.472   2.651 -2.2971  0.9527  2.0824
  919SOL     OW 2755   1.683   2.426   1.158  0.0061  0.2330 -0.6167
  919SOL    HW1 2756   1.679   2.386   1.253 -3.4288 -0.0753  0.2199
  919SOL    HW2 2757   1.588   2.424   1.132  2.5483 -1.6787 -0.2021
  920SOL     OW 2758   1.184   0.089   2.669 -0.1135 -0.2345  0.3604
  920SOL    HW1 2759   1.175   0.058   2.765 -0.1494  0.6322 -0.4976
  920SOL    HW2 2760   1.159   0.015   2.606  1.2790  0.5185 -2.2439
  921SOL     OW 2761   0.033   1.119   2.578 -0.5589  0.5331  0.2021
  921SOL    HW1 2762   3.041   1.081   2.513 -0.0767  1.4859 -1.8967
  921SOL    HW2 2763   0.015   1.080   2.668  2.2717 -1.8715 -2.2890
  922SOL     OW 2764   0.051   1.795   1.265 -0.7178 -0.3960 -0.1461
  922SOL    HW1 2765   3.041   1.840   1.245  2.8719  0.5132  1.3583
  922SOL    HW2 2766   0.042   1.748   1.353 -0.6647  0.7963  0.3021
  923SOL     OW 2767   0.264   1.472   2.461  0.0042 -0.6359  0.5394
  923SOL    HW1 2768   0.346   1.498   2.405 -2.7311 -4.2109  1.3105
  923SOL    HW2 2769   0.241   1.376   2.444 -1.1985  0.5598  1.4002
  924SOL     OW 2770   1.468   3.042   2.376  0.3081  0.1028  0.0939
  924SOL    HW1 2771   1.427   2.946   2.374  1.6664 -1.1830 -2.2029
  924SOL    HW2 2772   1.571   3.046   2.386  2.4708  1.3450  1.2581
  925SOL     OW 2773   2.941   1.459   0.808  0.3456  0.2667  0.2124
  925SOL    HW1 2774   2.862   1.524   0.792  0.6586  0.6993  0.7733
  925SOL    HW2 2775   2.995   1.479   0.893 -1.4727 -0.5983  3.8751
  926SOL     OW 2776   2.294   0.635   1.088 -0.1568  0.4322 -0.0801
  926SOL    HW1 2777   2.357   0.575   1.036 -1.7995  1.7863  0.4064
  926SOL    HW2 2778   2.332   0.662   1.177  2.3234 -0.1501  0.4190
  927SOL     OW 2779   1.755   0.364   1.137  0.2162  0.0591 -0.3264
  927SOL    HW1 2780   1.736   0.444   1.190 -0.0710 -2.7772 -1.0728
  927SOL    HW2 2781   1.665   0.320   1.130  0.4695  0.1722  0.3828
  928SOL     OW 2782   0.005   0.796   2.522  0.0192  0.7453  0.6097
  928SOL    HW1 2783   0.062   0.730   2.464  0.4374 -0.7815  0.4872
  928SOL    HW2 2784   2.989   0.748   2.543  1.4486  0.3429  1.7870
  929SOL     OW 2785   2.242   1.072   1.297 -0.3186  0.4311  0.3687
  929SOL    HW1 2786   2.265   0.975   1.308 -2.5257  1.2585  2.2041
  929SOL    HW2 2787   2.188   1.086   1.209  0.8415  1.1452  2.2958
  930SOL     OW 2788   1.720   2.241   1.370 -0.2406 -0.2931 -0.1863
  930SOL    HW1 2789   1.721   2.139   1.366 -0.9263 -0.1663  2.1274
  930SOL    HW2 2790   1.801   2.268   1.427  2.5459  1.8013  0.7522
  931SOL     OW 2791   1.822   1.258   1.281  0.2645 -0.0488  0.1376
  931SOL    HW1 2792   1.851   1.338   1.223  0.7818 -1.7208 -0.1130
  931SOL    HW2 2793   1.864   1.171   1.241 -1.3863 -2.4100  0.3048
  932SOL     OW 2794   3.073   0.673   1.652  0.5052  0.2262 -0.1422
  932SOL    HW1 2795   3.041   0.716   1.565  1.4434 -0.2170 -0.2602
  932SOL    HW2 2796   0.089   0.713   1.671  0.2936  0.0819  1.4892
  933SOL     OW 2797   2.417   2.059   1.509 -0.1890  0.1539 -0.4355
  933SOL    HW1 2798   2.372   2.136   1.464  1.5936 -2.8243  2.3679
  933SOL    HW2 2799   2.381   2.040   1.604  0.3650 -0.2388  0.9389
  934SOL     OW 2800   1.211   2.369   1.880 -0.5344 -0.3016  0.0535
  934SOL    HW1 2801   1.191   2.439   1.807 -0.3702 -1.9301  1.3382
  934SOL    HW2 2802   1.153   2.384   1.960  3.1389 -0.0108  0.1704
  935SOL     OW 2803   3.075   1.205   1.490 -0.1047 -0.3170  0.4294
  935SOL    HW1 2804   0.061   1.204   1.567 -0.3290 -0.9257  0.6646
  935SOL    HW2 2805   0.053   1.178   1.405  1.4814  0.1353 -2.7201
  936SOL     OW 2806   2.776   0.624   1.335  0.6821  0.5833  0.1806
  936SOL    HW1 2807   2.756   0.523   1.316 -0.1361  0.2462  0.9947
  936SOL    HW2 2808   2.689   0.665   1.370  0.9666  0.3217 -0.7743
  937SOL     OW 2809   1.344   0.310   1.432  0.5622 -0.1376  0.3750
  937SOL    HW1 2810   1.249   0.272   1.426 -1.8698  3.0278 -0.2818
  937SOL    HW2 2811   1.390   0.288   1.348 -1.7171  0.8363 -2.3972
  938SOL     OW 2812   0.364   2.891   0.828  0.9973  0.3697 -0.4039
  938SOL    HW1 2813   0.341   2.807   0.771  1.6295  1.2588 -0.3042
  938SOL    HW2 2814   0.388   2.968   0.761  0.8506  2.7496 -1.4079
  939SOL     OW 2815   0.082   1.937   2.643 -0.9224  0.2255  0.4283
  939SOL    HW1 2816   0.125   1.897   2.562  1.9249  0.2419  1.3203
  939SOL    HW2 2817   0.053   2.033   2.639  1.6821 -3.0252  1.3713
  940SOL     OW 2818   1.658   1.802   0.047  0.1225  0.1365  0.4324
  940SOL    HW1 2819   1.706   1.892   0.060  0.3185 -0.8896  1.5641
  940SOL    HW2 2820   1.671   1.776   3.023  0.7898 -1.2493  0.1742
  941SOL     OW 2821   1.937   2.828   0.444  0.4849  0.1160 -0.0362
  941SOL    HW1 2822   1.946   2.926   0.475 -2.7574 -0.9198  1.3760
  941SOL    HW2 2823   1.846   2.812   0.405  0.1486  1.1554  2.5646
  942SOL     OW 2824   1.985   1.812   0.836 -0.3215  0.7272  0.4107
  942SOL    HW1 2825   1.903   1.837   0.772 -1.3885  0.9517 -0.2688
  942SOL    HW2 2826   2.063   1.872   0.818 -0.0823  0.1178  1.6091
  943SOL     OW 2827   1.885   0.534   1.513 -0.0321 -0.2371  0.5126
  943SOL    HW1 2828   1.803   0.526   1.450  0.8437  0.5498  1.8371
  943SOL    HW2 2829   1.947   0.611   1.479 -0.1724  0.9363  2.8795
  944SOL     OW 2830   1.591   0.801   1.949  0.1847 -0.2611 -1.0830
  944SOL    HW1 2831   1.557   0.881   2.000  1.7261 -2.2477 -0.3645
  944SOL    HW2 2832   1.621   0.834   1.860  0.7855 -0.8641  0.5323
  945SOL     OW 2833   2.258   2.842   1.214 -0.2095 -0.0303 -0.2745
  945SOL    HW1 2834   2.322   2.839   1.293  1.4437  2.2239 -0.2040
  945SOL    HW2 2835   2.165   2.862   1.250  0.8443  2.3187  1.6700
  946SOL     OW 2836   0.733   1.467   0.682 -0.3403  0.2182 -0.5165
  946SOL    HW1 2837   0.731   1.569   0.702  2.6518  0.1529  0.5350
  946SOL    HW2 2838   0.719   1.443   0.588  0.8255 -1.6060  1.3913
  947SOL     OW 2839   1.060   2.564   1.038  0.8593 -0.3157  0.5927
  947SOL    HW1 2840   1.150   2.584   1.002  3.1506  1.1163 -0.4873
  947SOL    HW2 2841   1.002   2.541   0.956 -0.4910 -1.0199 -0.5403
  948SOL     OW 2842   0.409   1.618   1.268  0.4690 -0.2873  0.0345
  948SOL    HW1 2843   0.427   1.539   1.213  1.1507  1.2422 -1.0391
  948SOL    HW2 2844   0.499   1.650   1.303  0.2765 -0.8779  2.4776
  949SOL     OW 2845   0.819   1.212   1.774 -0.8519  0.2596 -0.1680
  949SOL    HW1 2846   0.792   1.138   1.839  0.4241 -1.1048  1.8469
  949SOL    HW2 2847   0.873   1.183   1.693  2.0437  0.1645  0.7728
  950SOL     OW 2848   0.771   0.706   1.281  0.1794 -0.0227  0.3241
  950SOL    HW1 2849   0.859   0.755   1.275 -2.3746 -0.4627  1.3529
  950SOL    HW2 2850   0.711   0.759   1.342  0.1746 -0.3021 -0.3937
  951SOL     OW 2851   0.577   2.149   1.999 -0.1339  0.4581  0.1943
  951SOL    HW1 2852   0.495   2.146   1.939 -0.5302 -1.7116  1.7523
  951SOL    HW2 2853   0.654   2.097   1.952 -1.0102  1.2934 -0.7349
  952SOL     OW 2854   1.023   1.713   0.034 -0.2629 -0.2636 -0.4295
  952SOL    HW1 2855   0.938   1.657   0.007 -4.0412 -3.7003 -1.2744
  952SOL    HW2 2856   1.012   1.745   0.130 -1.5847 -1.0610  0.4861
  953SOL     OW 2857   0.916   2.823   2.978  0.0699  0.1314  0.5470
  953SOL    HW1 2858   0.828   2.797   2.935  1.1772  0.1137  0.4457
  953SOL    HW2 2859   0.949   2.743   3.029  1.7266  1.2810  2.7925
  954SOL     OW 2860   1.609   1.344   3.017 -0.1773  0.0686 -0.2948
  954SOL    HW1 2861   1.653   1.279   0.006 -1.1936  0.7840 -0.4676
  954SOL    HW2 2862   1.675   1.384   2.949  1.5910 -1.9759 -2.3378
  955SOL     OW 2863   0.120   2.528   2.966  0.0506  0.0016  0.0445
  955SOL    HW1 2864   0.218   2.553   2.972  1.4389 -0.1903 -2.1872
  955SOL    HW2 2865   0.073   2.594   2.904  2.7127  1.3545 -1.2498
  956SOL     OW 2866   1.291   0.849   1.251 -0.0032  0.3489 -0.5840
  956SOL    HW1 2867   1.335   0.922   1.192  0.4401  4.5449  2.2536
  956SOL    HW2 2868   1.257   0.894   1.340 -1.9871  1.9336  4.6334
  957SOL     OW 2869   1.463   1.823   1.657  0.2275 -0.0772 -0.1273
  957SOL    HW1 2870   1.514   1.805   1.743  1.8289 -1.6282  2.0611
  957SOL    HW2 2871   1.449   1.921   1.642 -0.0729 -2.3782  1.8557
  958SOL     OW 2872   0.924   2.014   1.651  0.1394  0.3031  0.0420
  958SOL    HW1 2873   0.977   1.950   1.594 -0.8087  2.4229 -0.0399
  958SOL    HW2 2874   0.893   2.097   1.598 -0.0438 -0.9168  1.7444
  959SOL     OW 2875   1.594   1.250   1.075  0.7454 -0.1281 -0.4629
  959SOL    HW1 2876   1.666   1.284   1.016 -1.1419  1.1658  0.9331
  959SOL    HW2 2877   1.628   1.219   1.165  0.7264  5.0155  2.2232
  960SOL     OW 2878   0.282   1.345   0.104 -0.4464  0.1354  0.1622
  960SOL    HW1 2879   0.312   1.443   0.112 -0.9852  2.6296  3.2505
  960SOL    HW2 2880   0.276   1.300   0.195  3.8746 -0.5602  0.0625
  961SOL     OW 2881   0.783   1.292   2.192  0.5149  0.2191  0.0983
  961SOL    HW1 2882   0.681   1.286   2.204 -1.0724 -1.3821  0.1310
  961SOL    HW2 2883   0.822   1.372   2.239  1.4104 -1.3143  0.1641
  962SOL     OW 2884   1.189   1.467   0.627  0.3287  0.2334 -0.3428
  962SOL    HW1 2885   1.244   1.444   0.713  0.8594 -1.0178  0.7630
  962SOL    HW2 2886   1.117   1.540   0.633 -0.1421 -1.6676  1.8227
  963SOL     OW 2887   1.477   1.951   2.782 -0.3692  0.1205 -0.2893
  963SOL    HW1 2888   1.527   1.996   2.702 -2.5871 -1.3122 -0.6348
  963SOL    HW2 2889   1.376   1.947   2.769  0.2357  1.1611  0.2876
  964SOL     OW 2890   0.612   3.032   0.296  0.1084  0.0445  0.6620
  964SOL    HW1 2891   0.525   3.046   0.345  1.6699 -0.0671 -0.5880
  964SOL    HW2 2892   0.608   3.013   0.196  1.1890  0.6490 -0.5224
  965SOL     OW 2893   0.511   2.476   0.688 -0.1290 -0.9731  0.0752
  965SOL    HW1 2894   0.574   2.555   0.713  1.3906 -1.9624 -1.5730
  965SOL    HW2 2895   0.433   2.477   0.749  2.9341 -2.7392 -1.1505
  966SOL     OW 2896   0.596   1.786   2.729 -0.1292  0.0146 -0.8450
  966SOL    HW1 2897   0.515   1.848   2.732 -1.6745  1.8460 -1.9191
  966SOL    HW2 2898   0.567   1.690   2.715  1.5016  1.1560 -1.0156
  967SOL     OW 2899   2.813   2.847   2.707 -0.2849 -0.9559 -0.4180
  967SOL    HW1 2900   2.850   2.927   2.656 -0.2091 -0.0071  1.2522
  967SOL    HW2 2901   2.883   2.807   2.768 -2.2604 -1.9891 -1.5222
  968SOL     OW 2902   2.194   0.748   0.245 -0.7233 -0.3596  0.0793
  968SOL    HW1 2903   2.126   0.670   0.229  2.4314 -0.3782 -1.4775
  968SOL    HW2 2904   2.219   0.796   0.160  2.9192  1.7752 -2.1392
  969SOL     OW 2905   0.414   0.922   1.849 -0.0013  0.2213  0.6780
  969SOL    HW1 2906   0.401   0.991   1.775  0.3222 -0.3585 -1.2158
  969SOL    HW2 2907   0.358   0.942   1.931 -3.5342  2.8191 -0.0602
  970SOL     OW 2908   2.421   1.408   1.199  0.0499  0.1489 -0.1395
  970SOL    HW1 2909   2.327   1.393   1.235  0.6137 -0.8197  2.3123
  970SOL    HW2 2910   2.436   1.330   1.132  0.0294 -0.1150  0.7604
  971SOL     OW 2911   2.364   0.258   1.061 -0.1007 -0.5406 -0.2503
  971SOL    HW1 2912   2.301   0.291   0.987 -0.2907  1.4809  0.1419
  971SOL    HW2 2913   2.350   0.158   1.072 -0.5149 -0.3254  2.5733
  972SOL     OW 2914   0.044   2.927   1.704 -0.0285  0.5096 -0.6429
  972SOL    HW1 2915   0.134   2.983   1.704  4.3314  0.5476 -3.6535
  972SOL    HW2 2916   3.041   2.978   1.663  1.8915 -0.8820 -1.7423
  973SOL     OW 2917   3.062   0.491   0.020 -0.1464 -1.0321 -0.1538
  973SOL    HW1 2918   0.052   0.546   0.069 -1.5890 -2.9345  0.9389
  973SOL    HW2 2919   0.025   0.399   0.020 -0.6575 -1.1548 -0.8443
  974SOL     OW 2920   1.741   1.386   2.218 -0.4279 -0.6854  0.0138
  974SOL    HW1 2921   1.686   1.399   2.141  2.6044 -0.8296  2.9300
  974SOL    HW2 2922   1.840   1.396   2.190  1.8633 -0.2993 -1.1024
  975SOL     OW 2923   2.908   3.013   1.537 -0.4092 -0.3214  0.4292
  975SOL    HW1 2924   2.985   3.057   1.488  0.5120 -1.7646 -0.2250
  975SOL    HW2 2925   2.833   2.985   1.478  0.4948 -0.7603  3.3693
  976SOL     OW 2926   0.320   1.997   2.149 -0.1100 -0.0653 -0.2648
  976SOL    HW1 2927   0.349   1.984   2.052  1.7014  0.8484  1.9690
  976SOL    HW2 2928   0.240   1.933   2.166 -1.3757 -0.9807  0.5181
  977SOL     OW 2929   0.913   2.486   0.515 -0.8718 -0.9286 -0.2001
  977SOL    HW1 2930   0.874   2.521   0.428 -0.5585 -1.2618  0.7851
  977SOL    HW2 2931   0.990   2.550   0.546  3.1982  0.5489  0.5569
  978SOL     OW 2932   0.045   1.621   2.462 -0.2436  0.1143  0.4869
  978SOL    HW1 2933   0.120   1.554   2.463  0.2011 -1.6054 -0.6648
  978SOL    HW2 2934   3.056   1.607   2.537 -0.5702 -0.0839 -3.2308
  979SOL     OW 2935   1.548   2.666   1.386  0.6750  0.1622 -0.3320
  979SOL    HW1 2936   1.591   2.590   1.446 -1.0243  1.6077  3.0407
  979SOL    HW2 2937   1.461   2.633   1.335 -2.1246  1.3095 -2.5278
  980SOL     OW 2938   0.815   1.552   3.076 -0.5062  0.6939  0.5195
  980SOL    HW1 2939   0.833   1.453   3.070  0.9593 -0.1102  0.5582
  980SOL    HW2 2940   0.737   1.568   0.054  1.6453 -2.3447  0.7955
  981SOL     OW 2941   2.128   0.003   2.196 -0.2097  0.2542 -0.5853
  981SOL    HW1 2942   2.214   0.036   2.150  1.8437  2.1831  2.1785
  981SOL    HW2 2943   2.122   2.979   2.213  0.3102 -0.4810  0.4224
  982SOL     OW 2944   0.108   0.045   2.856  0.3560 -0.4373  0.2284
  982SOL    HW1 2945   0.005   0.052   2.829 -4.7026 -0.0457  1.8826
  982SOL    HW2 2946   0.171   0.059   2.778 -1.6122 -1.5239  0.5812
  983SOL     OW 2947   1.986   1.275   2.068  0.5947 -0.5969 -0.0326
  983SOL    HW1 2948   2.005   1.288   1.971 -0.1232 -2.5273  0.2607
  983SOL    HW2 2949   1.917   1.200   2.080 -0.6969 -2.3609  0.1822
  984SOL     OW 2950   1.434   0.595   2.024 -0.1152  0.4702 -0.0709
  984SOL    HW1 2951   1.421   0.526   1.948 -1.2883  2.5249  2.4893
  984SOL    HW2 2952   1.496   0.669   2.004 -0.9441 -1.5944 -0.0129
  985SOL     OW 2953   1.657   1.411   1.631  0.3130  0.1907 -0.1113
  985SOL    HW1 2954   1.564   1.405   1.673 -2.1038  1.4925  0.7489
  985SOL    HW2 2955   1.677   1.325   1.575 -1.1383 -0.4244 -1.7747
  986SOL     OW 2956   2.029   0.292   1.479  0.0749 -0.3680 -0.3360
  986SOL    HW1 2957   2.059   0.283   1.577 -3.2785 -2.4859 -0.8754
  986SOL    HW2 2958   1.968   0.372   1.462  0.4540 -0.1509 -1.1362
  987SOL     OW 2959   2.225   0.533   1.534  0.1926  0.0989 -0.0439
  987SOL    HW1 2960   2.158   0.594   1.492 -0.6661 -1.8884  1.3730
  987SOL    HW2 2961   2.237   0.449   1.478  2.4686 -1.0580  1.8978
  988SOL     OW 2962   2.756   0.694   2.097 -0.5180  0.4261  0.2100
  988SOL    HW1 2963   2.760   0.651   2.002  0.4825 -0.2511 -1.3744
  988SOL    HW2 2964   2.789   0.625   2.162 -1.5298 -0.3003 -1.8694
  989SOL     OW 2965   2.104   1.728   2.897 -0.7535 -0.2260  0.1552
  989SOL    HW1 2966   2.042   1.770   2.829  0.1360  0.9213 -1.1983
  989SOL    HW2 2967   2.184   1.788   2.920 -1.5998  0.0939 -0.2328
  990SOL     OW 2968   1.122   0.511   3.058  0.8140  0.0155 -0.1415
  990SOL    HW1 2969   1.071   0.497   2.972  1.4256 -2.5497  0.8018
  990SOL    HW2 2970   1.159   0.608   3.065 -0.2265 -0.7375  0.4370
  991SOL     OW 2971   1.429   0.817   0.162  0.2303 -0.4336  0.2671
  991SOL    HW1 2972   1.468   0.729   0.200 -0.4618  1.5710 -1.2340
  991SOL    HW2 2973   1.358   0.797   0.086 -1.0596  0.4774  1.3265
  992SOL     OW 2974   2.080   1.406   3.000  0.0388 -0.2680 -0.0949
  992SOL    HW1 2975   2.061   1.418   2.900  0.6719  1.5155 -0.7256
  992SOL    HW2 2976   2.068   1.501   3.041 -0.8315  1.1358  0.8015
  993SOL     OW 2977   0.154   0.348   0.535  0.2053  0.0671  0.3168
  993SOL    HW1 2978   0.197   0.291   0.458 -0.3674  0.4190  1.2779
  993SOL    HW2 2979   0.179   0.447   0.528 -2.2473 -0.8427  1.2020
  994SOL     OW 2980   0.106   1.829   2.098  0.1624 -0.5570 -0.0854
  994SOL    HW1 2981   0.032   1.775   2.142 -0.3632 -0.2940  1.8892
  994SOL    HW2 2982   0.190   1.775   2.096 -2.1859 -0.9745 -0.2769
  995SOL     OW 2983   1.772   1.417   2.494  0.3927  0.3069 -0.2331
  995SOL    HW1 2984   1.762   1.408   2.392 -0.5026 -0.6454 -2.1484
  995SOL    HW2 2985   1.824   1.341   2.531 -1.0232 -0.9590 -1.2972
  996SOL     OW 2986   1.910   1.821   2.700  0.0192  0.0673 -0.0939
  996SOL    HW1 2987   1.911   1.921   2.675 -1.0975  1.7138  0.8803
  996SOL    HW2 2988   1.916   1.765   2.615 -1.2508  2.7195 -2.0132
  997SOL     OW 2989   2.400   1.489   1.579  0.3277  0.0374  0.1184
  997SOL    HW1 2990   2.445   1.509   1.490  3.9087  2.9704 -0.6859
  997SOL    HW2 2991   2.465   1.467   1.651 -2.7923 -0.0236 -0.7353
  998SOL     OW 2992   2.384   1.467   0.352 -0.0559  0.2181 -0.2004
  998SOL    HW1 2993   2.324   1.395   0.377  2.3646  2.4165 -2.1381
  998SOL    HW2 2994   2.340   1.533   0.291 -1.6102  0.0300  3.2494
  999SOL     OW 2995   2.852   2.557   0.402  0.5665  0.1367 -0.0084
  999SOL    HW1 2996   2.812   2.539   0.496 -0.6930 -1.6092 -2.6802
  999SOL    HW2 2997   2.846   2.656   0.379 -3.8075 -0.2744 -1.7619
 1000SOL     OW 2998   0.702   0.230   1.958  0.2211 -0.3401  0.3888
 1000SOL    HW1 2999   0.728   0.219   2.055 -2.6064 -0.3342 -1.2442
 1000SOL    HW2 3000   0.619   0.287   1.962 -1.2513 -1.9837  2.1709
   3.07622   3.07622   3.07622
