1000 SPC/Fw water molecules t=  47.00000 step= 47000
 3000
    1SOL     OW    1   2.152   2.713   0.710 -0.0067 -0.4448  0.2396
    1SOL    HW1    2   2.055   2.742   0.674 -4.7030  0.3565 -1.1817
    1SOL    HW2    3   2.188   2.790   0.768  1.4233  1.6129 -1.9878
    2SOL     OW    4   1.384   0.784   2.233 -0.2440 -0.0769  0.7716
    2SOL    HW1    5   1.477   0.741   2.261  4.5363 -1.0095  3.0509
    2SOL    HW2    6   1.316   0.763   2.304  0.9399  3.3212 -1.4348
    3SOL     OW    7   1.091   2.838   2.822  0.6825  0.5148  0.2485
    3SOL    HW1    8   1.185   2.820   2.857 -0.7315  2.8251 -1.6664
    3SOL    HW2    9   1.018   2.793   2.873 -0.8186  0.2383 -1.7032
    4SOL     OW   10   1.173   1.445   2.825  0.5215  0.0689 -0.1240
    4SOL    HW1   11   1.237   1.373   2.786  0.1677 -0.8347 -1.1649
    4SOL    HW2   12   1.216   1.517   2.884 -2.5927 -0.8194 -0.3057
    5SOL     OW   13   0.851   0.835   2.116 -0.2605 -0.0793  0.2896
    5SOL    HW1   14   0.901   0.745   2.095 -0.9405  0.7437 -0.1283
    5SOL    HW2   15   0.913   0.904   2.163  1.0546  1.2441 -0.9239
    6SOL     OW   16   2.153   0.733   2.320 -0.3987 -0.2387 -0.5732
    6SOL    HW1   17   2.227   0.740   2.248  0.3364 -0.0420  0.0553
    6SOL    HW2   18   2.200   0.721   2.409 -0.4007 -0.9371  1.3399
    7SOL     OW   19   0.490   0.823   1.676  0.0529 -0.8606  0.0657
    7SOL    HW1   20   0.500   0.825   1.573  2.0157 -1.2645  1.7181
    7SOL    HW2   21   0.462   0.731   1.702 -0.1753  0.3791 -0.6803
    8SOL     OW   22   1.899   2.870   1.825 -0.5126  0.3987  0.2288
    8SOL    HW1   23   1.799   2.884   1.837  0.3142 -0.7740  1.0070
    8SOL    HW2   24   1.936   2.959   1.795 -1.8563  2.1985 -0.1281
    9SOL     OW   25   0.333   3.030   0.719  0.0287 -0.0085 -0.0905
    9SOL    HW1   26   0.404   0.006   0.765  2.7575  0.8108  0.3369
    9SOL    HW2   27   0.267   3.082   0.665  1.0402  1.6828  1.2711
   10SOL     OW   28   0.114   2.311   2.517  0.0770 -0.5671  0.3636
   10SOL    HW1   29   0.069   2.228   2.489 -0.5686  1.9761  0.1272
   10SOL    HW2   30   0.133   2.300   2.616  0.5745  1.6040 -2.4876
   11SOL     OW   31   0.677   1.520   2.830  0.6595  0.1947 -0.2847
   11SOL    HW1   32   0.619   1.490   2.905  2.0981  0.7427  0.1642
   11SOL    HW2   33   0.773   1.491   2.846 -0.6076 -0.1489  0.8187
   12SOL     OW   34   2.397   2.337   1.405  0.5843 -0.3442 -0.4336
   12SOL    HW1   35   2.377   2.340   1.304  0.2319 -0.8299  5.0243
   12SOL    HW2   36   2.349   2.409   1.456  0.8029  0.4814 -0.7309
   13SOL     OW   37   0.535   2.738   2.902  0.5933 -0.0440  0.4499
   13SOL    HW1   38   0.542   2.832   2.941 -0.5437  0.8707  0.2532
   13SOL    HW2   39   0.577   2.665   2.969 -0.2229 -1.0511 -0.3994
   14SOL     OW   40   1.154   1.613   1.423  0.1447 -0.7726 -0.0385
   14SOL    HW1   41   1.143   1.517   1.396 -0.8084  1.7026  1.3450
   14SOL    HW2   42   1.118   1.614   1.523 -2.3307 -1.3052  0.5609
   15SOL     OW   43   0.278   1.509   2.333 -0.1820 -0.2509  0.3638
   15SOL    HW1   44   0.320   1.578   2.271  1.0315 -2.3516  0.2867
   15SOL    HW2   45   0.236   1.441   2.275  0.5584 -1.5431  1.0822
   16SOL     OW   46   1.653   0.709   2.609  0.1692  0.0560 -0.2331
   16SOL    HW1   47   1.637   0.650   2.691 -1.8337  0.1939 -1.3965
   16SOL    HW2   48   1.670   0.806   2.638  0.8885  1.5593 -0.9668
   17SOL     OW   49   3.064   2.866   2.432 -0.0522 -0.1214 -0.1203
   17SOL    HW1   50   3.021   2.825   2.513  0.1869  0.5323  0.2373
   17SOL    HW2   51   0.072   2.826   2.415  0.4799 -0.9210  0.1063
   18SOL     OW   52   1.161   1.058   0.609 -0.2658  0.6583 -0.2693
   18SOL    HW1   53   1.140   1.135   0.545  0.7592 -1.1063  0.6910
   18SOL    HW2   54   1.256   1.077   0.648  0.2675 -0.6724  2.3128
   19SOL     OW   55   2.964   1.691   2.325  0.4659  0.1101  0.0745
   19SOL    HW1   56   3.010   1.751   2.257 -0.8693  1.8386  1.4732
   19SOL    HW2   57   3.026   1.659   2.397 -0.6303  0.4870  0.7623
   20SOL     OW   58   2.367   2.434   2.469 -0.4780  0.3774 -0.2113
   20SOL    HW1   59   2.318   2.380   2.397 -1.6518 -1.4313  1.9150
   20SOL    HW2   60   2.449   2.485   2.433  2.3193 -0.6509  0.1427
   21SOL     OW   61   1.563   1.839   0.649  0.2265 -0.3073  0.5411
   21SOL    HW1   62   1.608   1.913   0.595 -0.1439 -1.1603 -1.8136
   21SOL    HW2   63   1.566   1.867   0.747  0.6192 -2.3407 -0.2113
   22SOL     OW   64   2.353   2.002   1.118  0.9116  1.0500  0.0658
   22SOL    HW1   65   2.422   1.945   1.068  0.0367 -2.0037  1.1758
   22SOL    HW2   66   2.257   1.966   1.100 -0.7064  2.4865  0.5035
   23SOL     OW   67   3.043   1.280   1.314 -0.0145  0.4061 -0.2822
   23SOL    HW1   68   0.035   1.320   1.371  0.2105  0.3428 -1.3004
   23SOL    HW2   69   2.994   1.354   1.264  0.7137  1.8076 -2.4891
   24SOL     OW   70   2.195   1.320   1.976  0.1651  0.5858  0.2020
   24SOL    HW1   71   2.294   1.349   1.962  1.1678 -0.1707  0.8661
   24SOL    HW2   72   2.175   1.323   2.080  0.7184 -0.6367  1.3435
   25SOL     OW   73   1.841   3.063   2.223  0.6256  0.0160  0.0019
   25SOL    HW1   74   1.877   0.003   2.318 -0.9903  1.9730  2.9726
   25SOL    HW2   75   1.892   2.995   2.168  0.0449  0.3045 -2.9129
   26SOL     OW   76   0.727   0.308   0.364  0.4765 -0.0789  0.1444
   26SOL    HW1   77   0.657   0.344   0.298 -1.3051  0.3054  0.2886
   26SOL    HW2   78   0.819   0.300   0.320 -0.3426  0.5315  0.8705
   27SOL     OW   79   0.757   1.414   0.784 -0.7623  0.0409  0.4115
   27SOL    HW1   80   0.755   1.492   0.717 -0.1959  1.6721  0.5768
   27SOL    HW2   81   0.679   1.423   0.848  1.0363  0.5489  2.3539
   28SOL     OW   82   2.213   2.310   0.887  0.7390  0.3095  0.1946
   28SOL    HW1   83   2.232   2.305   0.984 -0.5635 -0.9978 -3.0051
   28SOL    HW2   84   2.295   2.320   0.829 -0.4714 -0.0562 -0.4620
   29SOL     OW   85   2.266   0.006   2.077  0.2088 -0.5990  0.1140
   29SOL    HW1   86   2.239   0.072   2.000  0.3166  1.9446 -0.2816
   29SOL    HW2   87   2.351   3.039   2.053 -2.1325  0.1326  0.0928
   30SOL     OW   88   0.290   2.854   1.537  0.4004 -0.2489 -0.0932
   30SOL    HW1   89   0.285   2.749   1.537 -0.1450 -3.1544 -2.5595
   30SOL    HW2   90   0.284   2.882   1.438  1.3283  0.3903  0.5056
   31SOL     OW   91   3.051   1.852   2.137 -0.1989  0.3905  0.1394
   31SOL    HW1   92   3.068   1.951   2.131  3.4297  0.2478  0.7493
   31SOL    HW2   93   2.998   1.821   2.056  2.0027 -0.2774  0.5513
   32SOL     OW   94   1.610   2.418   2.165 -0.1104  0.3035  0.2372
   32SOL    HW1   95   1.574   2.511   2.188  2.0976 -1.7627  1.6027
   32SOL    HW2   96   1.606   2.356   2.249 -0.1469  0.6144  2.6870
   33SOL     OW   97   0.354   0.199   2.797 -0.2267 -0.0184 -0.1593
   33SOL    HW1   98   0.431   0.172   2.736 -0.2692 -2.3559  0.6008
   33SOL    HW2   99   0.272   0.142   2.777  2.1330  0.8791  0.4970
   34SOL     OW  100   2.506   0.057   0.228 -0.1005 -0.2198 -0.0528
   34SOL    HW1  101   2.571   0.086   0.301  1.7094 -1.5671 -0.6935
   34SOL    HW2  102   2.460   0.141   0.186 -2.8646 -0.1092 -2.9876
   35SOL     OW  103   2.849   0.012   1.661  0.5831 -0.5793  0.1486
   35SOL    HW1  104   2.911   0.054   1.590  0.0232 -2.9735  2.2884
   35SOL    HW2  105   2.863   2.995   1.663 -0.5082  0.9592  1.5861
   36SOL     OW  106   2.570   0.010   2.346  0.1834 -0.2254 -0.3590
   36SOL    HW1  107   2.582   0.021   2.442 -3.9820  1.5089 -2.5405
   36SOL    HW2  108   2.574   0.098   2.297  1.2578 -3.4860 -2.4177
   37SOL     OW  109   1.415   3.039   3.050 -0.2642  0.3182 -0.1010
   37SOL    HW1  110   1.468   0.010   0.037  1.1177 -0.0740 -0.2027
   37SOL    HW2  111   1.323   3.018   0.008  0.7395 -0.6955 -2.0475
   38SOL     OW  112   0.169   0.782   0.017 -0.2049 -0.2223  0.0014
   38SOL    HW1  113   0.175   0.680   0.006  1.1957 -2.8386  1.0105
   38SOL    HW2  114   0.185   0.829   3.008 -2.9158 -0.6976 -1.7743
   39SOL     OW  115   1.151   1.893   2.002 -0.2925 -0.2571  0.6685
   39SOL    HW1  116   1.203   1.984   1.995  1.3258  2.8038  0.9256
   39SOL    HW2  117   1.145   1.859   2.096 -0.7375 -0.7961 -1.1010
   40SOL     OW  118   0.381   0.554   2.572 -0.1520  0.3149  0.3223
   40SOL    HW1  119   0.467   0.602   2.532  0.8205  1.8325 -0.9844
   40SOL    HW2  120   0.393   0.452   2.552  1.3555 -0.8960  1.3666
   41SOL     OW  121   1.722   1.113   2.059 -0.4106 -0.0419  0.2066
   41SOL    HW1  122   1.817   1.153   2.044 -1.3934 -1.4953 -0.5011
   41SOL    HW2  123   1.682   1.138   2.150 -0.3230  1.1883  2.3258
   42SOL     OW  124   3.038   0.110   1.477  0.1484 -0.0397 -0.0092
   42SOL    HW1  125   3.050   0.210   1.480 -0.4466  1.5820 -0.5745
   42SOL    HW2  126   0.034   0.065   1.517 -0.2639  2.5306  0.9744
   43SOL     OW  127   1.333   1.274   1.857 -0.2287 -0.3807  0.1123
   43SOL    HW1  128   1.426   1.237   1.831  2.2234  0.3183 -0.7082
   43SOL    HW2  129   1.292   1.225   1.934  3.5987  1.0254 -3.0285
   44SOL     OW  130   3.029   0.202   0.019  0.2156 -0.0724 -0.3268
   44SOL    HW1  131   0.046   0.205   3.079 -0.2632  0.5944 -3.2640
   44SOL    HW2  132   2.998   0.104   0.030  1.6064 -0.0292  2.1413
   45SOL     OW  133   0.350   1.988   1.535  0.4350 -0.3265 -0.3574
   45SOL    HW1  134   0.365   2.075   1.485  1.4307 -0.0766 -2.2178
   45SOL    HW2  135   0.436   1.940   1.552 -3.0700  1.1740 -3.2545
   46SOL     OW  136   2.473   2.967   1.861  0.5685 -0.4018  0.6897
   46SOL    HW1  137   2.502   3.064   1.868  1.6321 -0.2761  2.7422
   46SOL    HW2  138   2.512   2.918   1.781  1.6183  1.1769  1.4963
   47SOL     OW  139   0.574   1.988   1.202 -0.5934 -0.4543  0.1597
   47SOL    HW1  140   0.631   1.939   1.271 -1.1801 -2.3497  2.9961
   47SOL    HW2  141   0.499   1.927   1.172  0.2412 -0.0355  0.8255
   48SOL     OW  142   0.643   2.510   3.012  0.1106  0.2940 -0.4739
   48SOL    HW1  143   0.621   2.460   2.928  1.6277 -0.1258  1.9805
   48SOL    HW2  144   0.646   2.445   0.002  0.0141  1.4393 -0.0632
   49SOL     OW  145   2.930   1.640   1.524  0.3486  0.1746 -0.4582
   49SOL    HW1  146   3.025   1.608   1.525  1.3348 -0.5921  0.9826
   49SOL    HW2  147   2.876   1.587   1.596  2.7618  0.1503  2.6257
   50SOL     OW  148   1.546   2.931   0.698  0.0661 -0.3420  0.3784
   50SOL    HW1  149   1.610   2.976   0.766 -0.3875  0.7499  0.6423
   50SOL    HW2  150   1.447   2.951   0.724 -5.3840 -0.1156  0.2330
   51SOL     OW  151   1.007   2.882   1.196 -0.5320 -0.3428  0.2221
   51SOL    HW1  152   1.072   2.954   1.236  3.6167 -0.4561 -1.1119
   51SOL    HW2  153   0.948   2.922   1.127  2.4924  1.4553  2.8865
   52SOL     OW  154   0.666   1.100   0.470  0.3702  0.5265 -0.4239
   52SOL    HW1  155   0.637   1.092   0.374 -0.4225  1.4772 -1.0045
   52SOL    HW2  156   0.611   1.033   0.526 -0.9599 -1.1603 -1.3018
   53SOL     OW  157   1.545   0.040   2.501  0.2751  0.1039  0.2495
   53SOL    HW1  158   1.568   0.038   2.402  1.8436  0.6507 -2.4498
   53SOL    HW2  159   1.558   3.033   2.538  0.4081  1.0472 -1.8636
   54SOL     OW  160   1.984   0.450   1.783  0.1494 -0.3564  0.8832
   54SOL    HW1  161   1.913   0.488   1.721  2.6623  2.1708  1.8177
   54SOL    HW2  162   1.960   0.358   1.816 -2.5700 -1.3117  1.3764
   55SOL     OW  163   2.934   2.535   0.634 -0.2035 -0.1657  0.0590
   55SOL    HW1  164   2.931   2.614   0.701  0.0818 -0.6114  1.7654
   55SOL    HW2  165   3.023   2.529   0.587  0.1983  1.4228  3.5777
   56SOL     OW  166   0.989   2.881   1.820  0.2205  0.1603  0.5722
   56SOL    HW1  167   0.935   2.967   1.827 -0.2189  0.5428 -0.1274
   56SOL    HW2  168   0.924   2.802   1.806  2.4645  1.1769 -1.9094
   57SOL     OW  169   1.989   0.963   2.312  0.1889  0.3931 -0.7163
   57SOL    HW1  170   2.062   0.896   2.311 -0.9402  1.1831 -1.2288
   57SOL    HW2  171   1.991   1.035   2.243 -2.7380 -0.3739  0.1656
   58SOL     OW  172   0.258   0.957   2.085 -0.2879 -0.0402 -0.1406
   58SOL    HW1  173   0.233   0.863   2.105  3.0357  2.4378 -1.1286
   58SOL    HW2  174   0.262   0.974   1.984 -0.2131 -1.6664  0.7723
   59SOL     OW  175   0.998   2.413   1.920 -0.1420 -0.3935  1.1292
   59SOL    HW1  176   0.944   2.416   1.833  0.7121  0.0877 -0.9740
   59SOL    HW2  177   1.089   2.455   1.902 -0.3838 -0.3587 -0.4387
   60SOL     OW  178   2.450   2.538   0.269 -0.3521  0.4151  0.0318
   60SOL    HW1  179   2.542   2.583   0.283  0.2863 -0.3406 -0.5610
   60SOL    HW2  180   2.428   2.539   0.166 -1.9442 -1.2284 -1.5004
   61SOL     OW  181   1.282   2.465   0.643 -0.2990 -0.0189  0.0597
   61SOL    HW1  182   1.344   2.410   0.701 -2.4056  0.0131  0.1588
   61SOL    HW2  183   1.321   2.554   0.617 -2.5995 -2.0874  1.7054
   62SOL     OW  184   1.557   2.840   2.949 -0.0363 -0.1275  0.1620
   62SOL    HW1  185   1.614   2.815   3.031  1.0612 -2.8623 -1.2535
   62SOL    HW2  186   1.490   2.913   2.980  0.7747  0.3447 -1.7666
   63SOL     OW  187   2.240   0.616   0.028  0.0854  0.2551  0.2628
   63SOL    HW1  188   2.251   0.667   0.114  1.5151 -0.9074 -0.8122
   63SOL    HW2  189   2.320   0.633   3.052  4.3441 -1.1324 -0.0229
   64SOL     OW  190   1.415   0.942   2.994  0.4787  0.3970 -0.0725
   64SOL    HW1  191   1.326   0.949   2.948  2.9992 -1.2843  2.1499
   64SOL    HW2  192   1.395   0.977   0.007 -2.5585 -0.7287  0.1150
   65SOL     OW  193   0.743   2.796   1.533  0.1309 -0.2149  0.4179
   65SOL    HW1  194   0.793   2.758   1.452 -0.5464 -1.2038  2.7507
   65SOL    HW2  195   0.669   2.729   1.559  2.2482 -0.1454 -3.3844
   66SOL     OW  196   1.018   1.108   1.442 -0.0231  0.2163 -0.1231
   66SOL    HW1  197   1.070   1.091   1.358  0.3724 -2.0881  0.3669
   66SOL    HW2  198   0.920   1.080   1.438  1.2238  1.0137  2.3736
   67SOL     OW  199   2.242   2.139   1.829 -0.0921  0.3027  0.2967
   67SOL    HW1  200   2.287   2.224   1.862 -0.3717  1.1520  2.3139
   67SOL    HW2  201   2.237   2.136   1.727  0.7177  3.7573 -0.8407
   68SOL     OW  202   0.931   1.312   2.167  0.3164  0.2632 -0.1141
   68SOL    HW1  203   0.843   1.351   2.175  1.3430 -1.1554  1.5585
   68SOL    HW2  204   0.957   1.300   2.069  0.2626 -1.1505  3.1617
   69SOL     OW  205   2.725   2.648   0.321 -0.1741 -0.2465 -0.4754
   69SOL    HW1  206   2.831   2.645   0.329  3.1647 -0.0946  0.8001
   69SOL    HW2  207   2.696   2.741   0.356  1.2611  2.4568  0.1208
   70SOL     OW  208   2.429   0.778   2.214 -0.0562 -0.4962  0.7847
   70SOL    HW1  209   2.439   0.867   2.267 -0.0219  0.3908 -0.5996
   70SOL    HW2  210   2.460   0.695   2.260 -0.6415 -0.9482 -1.6180
   71SOL     OW  211   0.402   1.931   0.849 -0.6456 -0.1282  0.1714
   71SOL    HW1  212   0.396   1.880   0.938  0.4892 -1.9331  0.6489
   71SOL    HW2  213   0.392   2.034   0.859  0.8235  1.6345  0.4755
   72SOL     OW  214   2.386   1.935   0.623  0.1595 -0.6149 -0.2787
   72SOL    HW1  215   2.347   1.901   0.539 -0.5405  0.7246 -0.6926
   72SOL    HW2  216   2.456   2.010   0.607  1.2044  2.5301 -0.8141
   73SOL     OW  217   1.122   0.421   0.528  0.1797 -0.1642 -0.1612
   73SOL    HW1  218   1.164   0.448   0.443  1.9927 -0.2700  2.9870
   73SOL    HW2  219   1.138   0.493   0.593 -1.1825 -0.8144  1.9844
   74SOL     OW  220   2.666   2.248   1.941 -0.1566 -0.1656 -0.0760
   74SOL    HW1  221   2.606   2.189   2.000  1.4953 -1.2959 -0.3027
   74SOL    HW2  222   2.623   2.340   1.911 -0.0663  2.8273  0.4499
   75SOL     OW  223   1.454   1.724   1.878 -0.1468  0.0768  0.6777
   75SOL    HW1  224   1.429   1.823   1.899  0.9535 -1.0632 -0.1416
   75SOL    HW2  225   1.484   1.677   1.961  1.6109 -0.1795  1.5196
   76SOL     OW  226   1.188   1.761   0.965  0.1449 -0.4765 -0.3072
   76SOL    HW1  227   1.259   1.719   1.029 -0.0719 -0.6483 -1.7962
   76SOL    HW2  228   1.102   1.708   0.959  1.8223  1.9869  0.8867
   77SOL     OW  229   2.797   1.476   1.723 -0.2404 -0.0508 -0.6911
   77SOL    HW1  230   2.774   1.463   1.821  2.4487  0.9012 -1.0289
   77SOL    HW2  231   2.846   1.393   1.695 -0.1072  0.7040  0.8989
   78SOL     OW  232   1.527   0.661   0.425 -0.0690 -0.1359  0.3029
   78SOL    HW1  233   1.564   0.566   0.426 -0.4866  0.5291  0.2868
   78SOL    HW2  234   1.503   0.694   0.521  0.2320  2.6600  1.9516
   79SOL     OW  235   1.529   1.575   2.083 -0.0872 -0.2163 -0.2037
   79SOL    HW1  236   1.588   1.524   2.024 -5.4863  1.3238  2.0530
   79SOL    HW2  237   1.473   1.510   2.145  0.4961 -0.0221 -0.8510
   80SOL     OW  238   1.093   0.427   1.670  0.6317  0.0210 -0.5667
   80SOL    HW1  239   1.134   0.390   1.583 -0.5411 -0.8492 -0.4707
   80SOL    HW2  240   1.168   0.468   1.734  1.3602  0.0181  0.0709
   81SOL     OW  241   0.886   2.324   0.576  0.8304 -0.5487 -0.1388
   81SOL    HW1  242   0.858   2.409   0.625 -1.5763  0.7605 -1.0285
   81SOL    HW2  243   0.987   2.310   0.569 -0.0846 -0.3558  1.2739
   82SOL     OW  244   1.316   0.517   1.815  0.2611 -0.0679 -0.1467
   82SOL    HW1  245   1.366   0.519   1.722  0.1728  1.4049 -1.5094
   82SOL    HW2  246   1.367   0.460   1.886  0.4266 -0.6073  0.3948
   83SOL     OW  247   0.453   2.251   0.667  0.5765 -0.1997  0.2660
   83SOL    HW1  248   0.467   2.347   0.672 -0.7440  0.9638  2.0200
   83SOL    HW2  249   0.374   2.239   0.727  0.5894 -0.5030 -1.6691
   84SOL     OW  250   2.670   1.749   0.442  0.5723 -0.1593 -0.4809
   84SOL    HW1  251   2.690   1.651   0.436 -1.9261 -1.4206 -1.4717
   84SOL    HW2  252   2.572   1.757   0.426  3.1755  1.6388  1.2870
   85SOL     OW  253   2.366   1.953   1.389 -0.7265 -0.4053 -0.5204
   85SOL    HW1  254   2.392   1.993   1.298 -0.3754 -2.2050  0.5664
   85SOL    HW2  255   2.455   1.933   1.437  1.1450 -0.1012 -1.8292
   86SOL     OW  256   1.341   2.295   1.217 -0.2392 -0.3103 -0.0159
   86SOL    HW1  257   1.423   2.334   1.169  2.5028  1.5714  2.1615
   86SOL    HW2  258   1.307   2.361   1.288 -2.8064  0.1610  3.9053
   87SOL     OW  259   2.333   1.444   0.637  0.0141 -0.3379  0.4761
   87SOL    HW1  260   2.245   1.494   0.654  2.0558 -3.4455  1.3414
   87SOL    HW2  261   2.355   1.442   0.539  0.3063 -0.8429 -2.1287
   88SOL     OW  262   0.810   2.962   1.018  0.3798  0.7475  0.0293
   88SOL    HW1  263   0.715   2.919   1.014  0.3602 -1.0965 -0.0209
   88SOL    HW2  264   0.820   3.032   0.949  1.0533  1.5101 -0.6319
   89SOL     OW  265   0.607   0.078   1.743  0.7759 -0.2041  0.5552
   89SOL    HW1  266   0.657   0.153   1.698  1.8611  0.0721 -0.4213
   89SOL    HW2  267   0.523   0.104   1.797 -3.1244  0.2457 -0.1931
   90SOL     OW  268   0.027   2.040   0.641 -0.2483  0.5606  0.3629
   90SOL    HW1  269   3.015   2.032   0.603 -1.6465 -3.5457  1.4470
   90SOL    HW2  270   0.070   1.948   0.642 -0.8158 -2.8020 -0.7976
   91SOL     OW  271   0.945   1.637   1.005 -0.2333  0.0657 -0.0610
   91SOL    HW1  272   0.849   1.673   1.015 -0.8436  3.8250 -0.9505
   91SOL    HW2  273   0.951   1.536   1.022  0.3141 -2.6242  2.0909
   92SOL     OW  274   2.554   2.881   1.633 -0.2408 -0.1998 -0.4270
   92SOL    HW1  275   2.567   2.983   1.613  2.6526 -0.7602  1.4295
   92SOL    HW2  276   2.634   2.825   1.597  0.7028 -2.3925  2.1102
   93SOL     OW  277   0.351   1.091   2.769 -0.2852  0.4116  0.2558
   93SOL    HW1  278   0.401   1.161   2.820 -1.7311 -3.0218  0.9949
   93SOL    HW2  279   0.280   1.135   2.710 -1.6739 -1.4340 -1.5630
   94SOL     OW  280   2.558   0.167   1.938 -0.4915 -0.1853  0.3752
   94SOL    HW1  281   2.567   0.197   2.034 -1.3048  1.0868  2.4267
   94SOL    HW2  282   2.652   0.146   1.904 -1.2115 -0.2595  2.8840
   95SOL     OW  283   1.911   0.872   1.948 -0.0005  0.2531  0.6155
   95SOL    HW1  284   1.869   0.850   1.856 -2.8728 -1.3285 -4.4835
   95SOL    HW2  285   1.902   0.785   2.001 -1.8017 -1.6395 -2.3773
   96SOL     OW  286   3.029   0.376   2.021 -0.1609  0.6827 -0.7157
   96SOL    HW1  287   2.956   0.368   1.947  0.0179 -1.5244 -0.4632
   96SOL    HW2  288   3.065   0.472   2.028  0.1361  3.2476  1.2067
   97SOL     OW  289   2.243   2.762   1.532  0.2659 -0.4141 -0.3139
   97SOL    HW1  290   2.280   2.675   1.573  0.3013  0.4067  1.7532
   97SOL    HW2  291   2.195   2.745   1.442  0.9598  1.9755  0.6277
   98SOL     OW  292   2.025   2.530   1.566  0.3146  0.0408  0.2802
   98SOL    HW1  293   1.967   2.469   1.623  0.6262 -1.3013  1.0203
   98SOL    HW2  294   2.034   2.617   1.607 -1.8031 -4.8581 -2.0334
   99SOL     OW  295   2.944   0.636   1.074  0.3588  0.3132  0.2890
   99SOL    HW1  296   2.959   0.543   1.115  0.0681 -2.1725  0.6831
   99SOL    HW2  297   3.019   0.698   1.098 -0.6607  0.9111 -0.1250
  100SOL     OW  298   2.551   1.839   1.689  0.3129  0.2904  0.3774
  100SOL    HW1  299   2.483   1.857   1.761  0.5593  0.0947 -3.5862
  100SOL    HW2  300   2.643   1.808   1.727 -0.4644  0.7559  0.3775
  101SOL     OW  301   2.087   0.150   0.002 -0.0555 -0.0184 -0.5585
  101SOL    HW1  302   2.179   0.187   0.013 -3.0064 -1.0501  1.8841
  101SOL    HW2  303   2.071   0.133   2.984 -0.9540  0.3313  3.8615
  102SOL     OW  304   0.798   0.373   1.345 -0.2457 -0.2268  0.5742
  102SOL    HW1  305   0.783   0.329   1.435 -0.2673  1.3700  3.5043
  102SOL    HW2  306   0.722   0.355   1.275  0.0129  0.4041 -2.7536
  103SOL     OW  307   2.977   0.146   2.601 -0.1202  0.1713 -0.4334
  103SOL    HW1  308   3.019   0.089   2.672 -2.1855  2.3234 -1.6006
  103SOL    HW2  309   3.019   0.131   2.507  0.6751 -3.0641  0.5018
  104SOL     OW  310   0.450   2.170   1.360 -0.0101 -0.0495 -0.3883
  104SOL    HW1  311   0.485   2.104   1.290  0.7945  0.0761 -0.5090
  104SOL    HW2  312   0.517   2.247   1.375  1.2097 -0.3470 -1.8877
  105SOL     OW  313   0.639   1.674   1.988  0.0273 -0.1227 -0.7506
  105SOL    HW1  314   0.713   1.730   2.027  1.7357 -0.9027 -0.4248
  105SOL    HW2  315   0.654   1.639   1.896 -4.0006 -1.1732  1.0963
  106SOL     OW  316   1.798   0.581   0.660  0.2628  0.4002 -0.0439
  106SOL    HW1  317   1.794   0.679   0.650  0.6721 -1.9889  3.1034
  106SOL    HW2  318   1.714   0.552   0.707  2.0482 -0.4368  0.3691
  107SOL     OW  319   0.754   1.046   1.342  0.4408 -0.0487  0.2612
  107SOL    HW1  320   0.677   1.004   1.288 -0.7313  1.5127 -0.7935
  107SOL    HW2  321   0.786   1.130   1.293  0.0863 -0.2041  0.3532
  108SOL     OW  322   2.910   0.715   2.233 -0.4603  0.4464 -0.4946
  108SOL    HW1  323   2.957   0.691   2.147  2.5556  1.5009  1.3791
  108SOL    HW2  324   2.819   0.662   2.243  0.2315  1.7381  3.0129
  109SOL     OW  325   1.792   3.045   2.747  1.0669  0.2599  0.0893
  109SOL    HW1  326   1.828   2.975   2.811 -1.5714  2.4876 -1.1721
  109SOL    HW2  327   1.706   3.011   2.703 -0.9906  1.0950 -1.5721
  110SOL     OW  328   0.151   1.895   2.944  0.3263 -0.5132  0.1365
  110SOL    HW1  329   0.069   1.940   2.988 -2.9903  2.9003 -1.5369
  110SOL    HW2  330   0.238   1.919   2.988 -0.7380 -0.1834 -1.8722
  111SOL     OW  331   2.683   0.582   2.208  0.5144  0.2411 -0.4645
  111SOL    HW1  332   2.589   0.551   2.187 -1.1134 -0.9022 -2.3188
  111SOL    HW2  333   2.732   0.496   2.215 -2.1467  2.2301  0.7463
  112SOL     OW  334   2.566   2.571   1.378 -0.2146  0.7442 -0.1860
  112SOL    HW1  335   2.521   2.486   1.415  0.1729 -0.5344  1.1597
  112SOL    HW2  336   2.604   2.558   1.285  0.0846 -3.2524 -0.2544
  113SOL     OW  337   2.016   2.091   2.006 -0.0927 -0.4319 -0.2978
  113SOL    HW1  338   1.947   2.167   1.993  0.5277  0.9461 -0.3928
  113SOL    HW2  339   2.101   2.118   1.954 -0.0413  0.4719 -1.0685
  114SOL     OW  340   0.176   0.157   0.328 -0.0291 -0.1810  0.2569
  114SOL    HW1  341   0.088   0.188   0.359  1.3759 -1.2033 -3.6619
  114SOL    HW2  342   0.249   0.192   0.391 -1.0548  0.4871  0.3630
  115SOL     OW  343   2.699   1.681   0.018  0.2993  0.8072 -0.3247
  115SOL    HW1  344   2.785   1.705   3.056 -1.6970 -1.5924  0.5100
  115SOL    HW2  345   2.703   1.577   0.031  0.7987  1.0525 -2.2280
  116SOL     OW  346   0.134   1.166   1.651 -0.2317 -0.1886 -0.0681
  116SOL    HW1  347   0.141   1.217   1.745 -1.5802  2.1647  1.7922
  116SOL    HW2  348   0.071   1.092   1.653  0.9492  2.0799  1.8252
  117SOL     OW  349   2.388   0.069   1.376  0.3662 -0.5161 -0.5485
  117SOL    HW1  350   2.297   0.028   1.404 -0.8965 -1.1192 -1.5848
  117SOL    HW2  351   2.463   0.018   1.417 -0.8180  0.8509  0.6432
  118SOL     OW  352   2.882   2.307   2.098 -0.1060  0.4163 -0.1987
  118SOL    HW1  353   2.920   2.403   2.087  0.7517  3.5551 -1.1712
  118SOL    HW2  354   2.813   2.285   2.027  1.5258  3.0613 -1.7988
  119SOL     OW  355   0.689   1.624   1.092  0.2158  0.3579  0.0335
  119SOL    HW1  356   0.642   1.667   1.011  2.8523  1.6814 -0.4654
  119SOL    HW2  357   0.641   1.639   1.182  2.4769  1.2328  0.1663
  120SOL     OW  358   0.315   1.673   1.489  0.2861  0.0256  0.1079
  120SOL    HW1  359   0.284   1.690   1.587  0.3068 -0.6943  3.6728
  120SOL    HW2  360   0.274   1.733   1.422  0.0741 -2.4462  1.4483
  121SOL     OW  361   1.702   1.253   1.029  0.2717  0.0790 -0.5424
  121SOL    HW1  362   1.764   1.229   1.105 -0.7828  0.8096  0.7077
  121SOL    HW2  363   1.678   1.166   0.984  0.6756  0.8348  0.8611
  122SOL     OW  364   1.809   2.432   2.551  0.3416 -0.1351 -0.1029
  122SOL    HW1  365   1.846   2.356   2.617  0.5658 -2.6692  1.7224
  122SOL    HW2  366   1.823   2.528   2.588 -1.5362  0.8434  1.8871
  123SOL     OW  367   3.028   2.983   0.270  0.2735 -0.2998 -0.5853
  123SOL    HW1  368   0.047   2.985   0.279 -2.5009 -0.1599 -0.5827
  123SOL    HW2  369   2.980   3.044   0.339  1.5545  1.3752  2.8671
  124SOL     OW  370   0.958   1.359   0.273  0.5362  0.1361 -0.0640
  124SOL    HW1  371   0.926   1.348   0.368  0.2072  2.6021 -2.3560
  124SOL    HW2  372   0.998   1.270   0.239  0.6919 -1.1576 -3.1988
  125SOL     OW  373   0.218   1.040   2.372  0.3767 -0.0421 -0.2920
  125SOL    HW1  374   0.188   1.139   2.346  0.7181 -0.0531 -1.0238
  125SOL    HW2  375   0.232   0.990   2.285  0.3112  2.9967  1.6854
  126SOL     OW  376   3.070   2.498   0.175 -0.1983 -0.1474  0.7586
  126SOL    HW1  377   3.073   2.419   0.235  2.4492 -0.8759 -1.9817
  126SOL    HW2  378   3.060   2.588   0.219  2.5644 -1.6932  0.8361
  127SOL     OW  379   2.819   1.829   0.236 -0.0042 -0.6393 -0.2972
  127SOL    HW1  380   2.758   1.828   0.317  0.0426  0.7869  1.2316
  127SOL    HW2  381   2.789   1.766   0.164 -0.5707 -0.6462  1.0419
  128SOL     OW  382   1.220   0.762   0.784 -0.1377  0.1165  0.4758
  128SOL    HW1  383   1.214   0.792   0.687  0.6882 -2.3274  0.6613
  128SOL    HW2  384   1.209   0.838   0.853  0.5723 -0.2753 -2.1427
  129SOL     OW  385   2.632   1.982   0.977 -0.4196 -0.5901 -0.0075
  129SOL    HW1  386   2.644   2.083   0.991  0.7756  0.7530  1.1991
  129SOL    HW2  387   2.712   1.939   1.021 -1.5182  0.3994 -0.2087
  130SOL     OW  388   2.109   1.005   0.611 -0.1906  0.0262  0.5144
  130SOL    HW1  389   2.089   0.909   0.579 -0.9531 -0.0383 -0.4257
  130SOL    HW2  390   2.146   0.988   0.703  0.8143  1.3418  0.3319
  131SOL     OW  391   2.985   1.139   2.425  0.1850 -0.1442  0.8238
  131SOL    HW1  392   2.980   1.044   2.390 -2.1778 -1.0292  1.5913
  131SOL    HW2  393   3.053   1.156   2.498  1.1745  0.5223  1.8362
  132SOL     OW  394   1.376   1.436   2.262 -0.5551 -0.0699 -0.3701
  132SOL    HW1  395   1.294   1.389   2.227  0.3738  0.9119  0.2849
  132SOL    HW2  396   1.408   1.393   2.345  2.2320  0.1540 -1.4786
  133SOL     OW  397   0.130   1.267   0.274  0.4662  0.0073 -0.8611
  133SOL    HW1  398   0.175   1.357   0.272 -0.1032 -0.4707  0.1522
  133SOL    HW2  399   0.137   1.208   0.189  0.6872 -1.2918 -0.6348
  134SOL     OW  400   2.620   0.760   0.179 -0.2892  0.3334  0.9017
  134SOL    HW1  401   2.697   0.703   0.140  3.1607 -0.5025  1.0961
  134SOL    HW2  402   2.663   0.853   0.191 -1.3499 -1.6282 -1.3553
  135SOL     OW  403   1.567   0.708   3.032  0.3374 -0.1149  0.1068
  135SOL    HW1  404   1.565   0.668   2.936  0.8769 -1.5757  0.5100
  135SOL    HW2  405   1.518   0.797   3.027  0.2372 -0.6351  1.6333
  136SOL     OW  406   1.725   1.632   1.706 -0.6161 -0.8964  0.7745
  136SOL    HW1  407   1.631   1.660   1.686  0.9586  2.0096  0.7897
  136SOL    HW2  408   1.782   1.644   1.631 -5.1866  1.0320  0.4231
  137SOL     OW  409   2.433   2.332   0.737 -0.1069 -0.1978 -0.7073
  137SOL    HW1  410   2.462   2.270   0.662  0.5791 -0.2319  0.7734
  137SOL    HW2  411   2.431   2.429   0.707  0.6249 -4.1927  2.7859
  138SOL     OW  412   2.366   0.457   1.543 -0.1824  0.3966 -0.5689
  138SOL    HW1  413   2.295   0.523   1.567  0.7510  0.0612  1.7031
  138SOL    HW2  414   2.323   0.391   1.477 -2.1150  0.6307  0.9467
  139SOL     OW  415   2.495   2.932   2.784 -0.0108  0.3508  0.4856
  139SOL    HW1  416   2.402   2.891   2.799 -0.7698 -0.4560 -1.5265
  139SOL    HW2  417   2.497   3.034   2.805 -1.4585  0.6274  1.9307
  140SOL     OW  418   1.411   1.928   2.356  0.0294 -0.2201 -0.1847
  140SOL    HW1  419   1.473   1.848   2.328  0.8238 -0.9665 -0.6995
  140SOL    HW2  420   1.311   1.912   2.332 -2.2257 -0.4888 -0.6227
  141SOL     OW  421   0.912   1.083   2.355 -0.5001  0.2841 -0.0738
  141SOL    HW1  422   0.989   1.105   2.424  0.4986 -3.0565  2.4480
  141SOL    HW2  423   0.907   1.155   2.284  1.5674 -0.7285  2.2620
  142SOL     OW  424   2.678   2.747   2.380 -0.0089  0.4937  0.4575
  142SOL    HW1  425   2.743   2.776   2.306 -0.5080 -1.5922 -0.2132
  142SOL    HW2  426   2.722   2.695   2.453 -0.7534 -0.6737  1.0317
  143SOL     OW  427   1.114   2.173   0.217 -0.6919  0.3624  0.6646
  143SOL    HW1  428   1.177   2.139   0.292 -1.7294  2.2928  4.2291
  143SOL    HW2  429   1.037   2.234   0.254  0.4171 -0.4084 -0.1839
  144SOL     OW  430   1.111   2.549   0.345 -0.0015  0.8198 -0.2935
  144SOL    HW1  431   1.179   2.488   0.390 -2.3122 -1.6516 -0.6999
  144SOL    HW2  432   1.138   2.592   0.256  1.9216 -0.7371 -1.1303
  145SOL     OW  433   1.412   2.423   2.568  0.0689 -0.3625  0.5154
  145SOL    HW1  434   1.325   2.456   2.522  0.5032 -0.0745  0.6508
  145SOL    HW2  435   1.477   2.386   2.495  2.3605 -3.5463 -0.8749
  146SOL     OW  436   1.944   2.921   2.949  0.0993  0.5135  0.4814
  146SOL    HW1  437   1.998   3.001   2.939 -1.3899 -3.7986 -2.6194
  146SOL    HW2  438   1.917   2.906   3.046  1.6212  1.2574 -1.8006
  147SOL     OW  439   2.929   1.478   1.149  0.0095 -0.2758  0.1336
  147SOL    HW1  440   2.875   1.488   1.061 -2.6558  0.8696 -3.0693
  147SOL    HW2  441   3.014   1.530   1.150  2.9737  0.5625 -1.0968
  148SOL     OW  442   2.106   2.711   0.222  0.6654 -0.1280  0.0896
  148SOL    HW1  443   2.155   2.745   0.301 -1.8864 -0.8148 -1.6256
  148SOL    HW2  444   2.163   2.638   0.176 -0.0123 -0.6889 -1.7478
  149SOL     OW  445   0.601   1.788   2.905 -0.4314  0.6942  0.2919
  149SOL    HW1  446   0.634   1.691   2.892 -0.5795  1.9211  0.8850
  149SOL    HW2  447   0.550   1.820   2.820 -1.6532  1.7961 -0.2253
  150SOL     OW  448   0.651   2.616   0.898  0.2705 -0.8589  0.4749
  150SOL    HW1  449   0.565   2.560   0.915 -2.9614  1.5509 -0.8300
  150SOL    HW2  450   0.634   2.720   0.917 -4.2482  2.8125 -1.1758
  151SOL     OW  451   0.129   1.099   0.070  0.3218 -0.1984  0.3313
  151SOL    HW1  452   0.229   1.069   0.057  0.3785  0.2159 -0.5590
  151SOL    HW2  453   0.069   1.065   3.075 -1.1943 -0.9682 -0.0203
  152SOL     OW  454   2.770   2.172   0.696  0.2016  0.2163 -0.7581
  152SOL    HW1  455   2.843   2.218   0.752 -1.6000  0.8546 -2.4324
  152SOL    HW2  456   2.801   2.084   0.663  2.4699  0.8313  0.8571
  153SOL     OW  457   1.559   2.438   1.074  0.6520  0.8008  0.5403
  153SOL    HW1  458   1.561   2.497   1.153 -0.2100 -2.5040 -4.7993
  153SOL    HW2  459   1.646   2.386   1.074  3.4292  1.8744  1.8619
  154SOL     OW  460   0.577   2.749   1.268  0.2752  0.3833  0.8841
  154SOL    HW1  461   0.562   2.848   1.279 -0.3575  0.5372 -0.7341
  154SOL    HW2  462   0.662   2.727   1.320 -3.7535 -2.6526  0.9460
  155SOL     OW  463   2.829   1.921   0.598  0.0614  0.5667 -0.1027
  155SOL    HW1  464   2.833   1.874   0.685 -1.1221 -1.8937 -0.1736
  155SOL    HW2  465   2.780   1.864   0.530  1.8684 -2.0665  2.6338
  156SOL     OW  466   2.542   2.090   0.284  0.1700 -0.0426  0.3107
  156SOL    HW1  467   2.564   2.173   0.230 -0.5853  1.3467  1.6954
  156SOL    HW2  468   2.544   2.008   0.222  0.7451  0.8208 -2.0973
  157SOL     OW  469   0.397   2.310   1.652  1.0103  0.3523  0.1095
  157SOL    HW1  470   0.378   2.387   1.712 -0.4169 -3.4113 -0.7658
  157SOL    HW2  471   0.319   2.244   1.640  0.3537 -2.5933  2.8789
  158SOL     OW  472   1.368   0.373   0.919  0.1940  0.5167  0.4552
  158SOL    HW1  473   1.391   0.272   0.920 -1.4471  0.6587 -0.6109
  158SOL    HW2  474   1.392   0.416   1.007  1.1877  2.2967 -0.4721
  159SOL     OW  475   1.698   0.775   0.234  0.7268 -0.2950 -0.3273
  159SOL    HW1  476   1.620   0.762   0.298 -1.4034  0.5391 -0.3982
  159SOL    HW2  477   1.662   0.780   0.140 -1.1983  1.4388 -2.3254
  160SOL     OW  478   0.952   1.715   0.357 -0.2915  0.4545 -0.0775
  160SOL    HW1  479   1.014   1.792   0.329 -1.1280  0.1027  0.4570
  160SOL    HW2  480   0.880   1.715   0.283  0.7304 -0.3440 -0.2770
  161SOL     OW  481   2.706   2.476   2.785  0.0537  0.2349 -0.2354
  161SOL    HW1  482   2.647   2.412   2.727 -1.9850 -1.5519 -2.3030
  161SOL    HW2  483   2.781   2.430   2.842  3.1074 -1.0643  1.4488
  162SOL     OW  484   0.206   2.275   1.246  0.0737  0.4870  0.3053
  162SOL    HW1  485   0.145   2.281   1.328 -0.5217  2.0930  3.7145
  162SOL    HW2  486   0.303   2.251   1.270 -1.1213 -0.3550  0.2319
  163SOL     OW  487   0.204   0.423   2.798 -0.5862 -0.1278  0.6063
  163SOL    HW1  488   0.267   0.344   2.774 -0.1849 -0.8414  0.2551
  163SOL    HW2  489   0.185   0.483   2.715  1.3870  0.4035 -1.6633
  164SOL     OW  490   0.219   2.754   2.414 -0.4020 -0.7318  0.4167
  164SOL    HW1  491   0.317   2.767   2.379 -0.6582 -2.4623 -1.5413
  164SOL    HW2  492   0.223   2.684   2.485  0.1586 -1.2382  0.6026
  165SOL     OW  493   2.514   0.892   1.559  0.3759  0.0273  0.0066
  165SOL    HW1  494   2.484   0.866   1.464  1.8366 -3.0530 -2.4837
  165SOL    HW2  495   2.460   0.964   1.605 -4.0583 -0.7185 -0.0554
  166SOL     OW  496   1.885   1.935   1.486  0.3091  0.1443 -0.4079
  166SOL    HW1  497   1.977   1.926   1.446 -2.2987 -2.6385  0.6907
  166SOL    HW2  498   1.823   1.878   1.426 -0.1126  2.5568  1.5267
  167SOL     OW  499   0.575   0.688   2.462  0.2667 -0.7091 -0.4905
  167SOL    HW1  500   0.542   0.678   2.368  0.7260  0.0358 -2.2764
  167SOL    HW2  501   0.563   0.786   2.487  2.3510 -0.9867 -0.7174
  168SOL     OW  502   2.151   0.138   2.279  0.6208  0.2448  0.7754
  168SOL    HW1  503   2.157   0.068   2.359  1.4690 -1.9732  1.3779
  168SOL    HW2  504   2.193   0.099   2.195  2.1351 -0.2775  0.8318
  169SOL     OW  505   0.377   1.029   0.066  0.5576 -0.4792  0.1833
  169SOL    HW1  506   0.368   0.996   0.162 -0.3490  0.0207 -1.3182
  169SOL    HW2  507   0.432   0.968   0.007  2.2163 -0.4873 -1.6179
  170SOL     OW  508   0.900   1.382   1.618 -1.0853 -0.0138  0.3587
  170SOL    HW1  509   0.940   1.292   1.643  1.8242 -1.9865  0.2823
  170SOL    HW2  510   0.967   1.458   1.636 -0.5502  0.6691  1.2214
  171SOL     OW  511   1.238   2.502   1.844 -0.5228  0.0808  0.0319
  171SOL    HW1  512   1.229   2.491   1.743  0.4548  2.9337  1.9035
  171SOL    HW2  513   1.316   2.445   1.882  0.4999 -1.1540  2.9860
  172SOL     OW  514   1.165   3.078   1.978  0.6973  0.1912  0.3767
  172SOL    HW1  515   1.120   2.996   2.022 -0.3199 -3.1177  0.1052
  172SOL    HW2  516   1.242   0.031   2.034 -0.6040 -3.4100  0.8132
  173SOL     OW  517   1.406   2.239   0.794 -0.1481 -0.4949  0.3705
  173SOL    HW1  518   1.507   2.228   0.782  1.2299  0.2428 -0.4119
  173SOL    HW2  519   1.367   2.144   0.776 -1.0806 -1.2557 -0.1068
  174SOL     OW  520   2.138   3.008   0.441 -0.4412  0.2498 -0.0540
  174SOL    HW1  521   2.155   2.906   0.446 -1.0936 -2.4358  0.8625
  174SOL    HW2  522   2.070   3.029   0.364  0.3025 -1.7818 -3.4352
  175SOL     OW  523   1.218   1.283   0.456  0.0503  0.1894  0.2862
  175SOL    HW1  524   1.178   1.374   0.473  0.7351  0.4635  1.1220
  175SOL    HW2  525   1.179   1.248   0.369 -0.4871  2.3294  2.2038
  176SOL     OW  526   0.606   1.461   0.405 -0.6911 -0.1819  0.1096
  176SOL    HW1  527   0.671   1.536   0.436  0.3001  0.1209  1.2985
  176SOL    HW2  528   0.627   1.369   0.441 -1.6656  2.5110 -0.3351
  177SOL     OW  529   1.209   0.961   0.962 -0.0390  0.6400 -1.0876
  177SOL    HW1  530   1.214   1.048   0.911 -1.1552 -1.2380 -0.0274
  177SOL    HW2  531   1.270   0.954   1.046 -0.5322 -0.4138 -0.1166
  178SOL     OW  532   2.414   1.730   0.374 -0.1962  0.3156 -0.2054
  178SOL    HW1  533   2.328   1.784   0.379 -0.9189 -1.2917  2.3786
  178SOL    HW2  534   2.392   1.629   0.378 -1.6457 -2.3033  1.3499
  179SOL     OW  535   1.171   2.699   0.079 -0.2110 -0.1764 -0.2263
  179SOL    HW1  536   1.086   2.665   0.036 -3.2928 -2.0655 -1.2267
  179SOL    HW2  537   1.156   2.780   0.136  1.2786 -2.7248 -0.2176
  180SOL     OW  538   1.912   1.373   1.657 -0.1179 -0.3385 -0.2850
  180SOL    HW1  539   1.998   1.422   1.653 -4.0276 -1.7585 -0.6204
  180SOL    HW2  540   1.887   1.347   1.752  1.1460 -1.6334 -1.9678
  181SOL     OW  541   1.242   0.708   2.003 -0.4150 -0.8777 -0.2951
  181SOL    HW1  542   1.310   0.732   2.076  2.0020 -0.8323  1.0734
  181SOL    HW2  543   1.278   0.648   1.931  0.8416  2.0350  0.5136
  182SOL     OW  544   0.112   1.283   2.251 -0.2188  0.3852  0.0602
  182SOL    HW1  545   0.013   1.269   2.267  0.8230  1.1239 -1.0494
  182SOL    HW2  546   0.130   1.269   2.152  1.5097 -0.1278  1.9748
  183SOL     OW  547   1.622   0.703   2.323 -0.2250  0.2927 -0.1422
  183SOL    HW1  548   1.674   0.625   2.275  0.0976  1.4047  1.5488
  183SOL    HW2  549   1.612   0.680   2.421  0.5062 -0.4106 -2.3184
  184SOL     OW  550   0.710   0.628   1.402 -0.3846  0.2770 -0.3694
  184SOL    HW1  551   0.730   0.674   1.493  0.0092 -1.0253  1.6326
  184SOL    HW2  552   0.756   0.534   1.402  0.0223 -0.9692  1.0449
  185SOL     OW  553   2.089   1.529   0.700  0.2427  0.5100  0.3080
  185SOL    HW1  554   2.032   1.596   0.647  2.1921  1.4309  1.6088
  185SOL    HW2  555   2.032   1.463   0.753 -0.0265  3.0883  1.3917
  186SOL     OW  556   0.114   2.199   0.058  0.1786  0.1696  0.6569
  186SOL    HW1  557   0.169   2.194   0.140  0.2918  0.4673 -1.2063
  186SOL    HW2  558   0.140   2.279   3.080 -1.7506  1.9356  0.1328
  187SOL     OW  559   2.138   2.461   0.082 -0.0513 -0.2768  0.3725
  187SOL    HW1  560   2.037   2.461   0.093  0.7664  0.6905  0.3987
  187SOL    HW2  561   2.186   2.373   0.077  2.1564  1.8931  2.3091
  188SOL     OW  562   1.137   2.008   1.066 -0.0324  0.3213 -0.3851
  188SOL    HW1  563   1.041   2.043   1.088 -1.5766 -0.0048  0.0549
  188SOL    HW2  564   1.146   1.909   1.037  0.4831 -0.0930 -0.1288
  189SOL     OW  565   2.263   1.611   2.400  0.3046  0.2449  0.1285
  189SOL    HW1  566   2.170   1.643   2.366  0.9274  1.3627 -0.5994
  189SOL    HW2  567   2.314   1.695   2.440  1.1349  2.2955  0.2379
  190SOL     OW  568   1.019   2.561   2.201  0.0676 -0.5894 -0.1966
  190SOL    HW1  569   1.040   2.624   2.121  2.3663 -0.4893 -1.2150
  190SOL    HW2  570   0.920   2.570   2.238  1.3481 -1.3492 -1.0748
  191SOL     OW  571   2.484   0.833   1.262  0.6310 -0.3943 -0.4537
  191SOL    HW1  572   2.584   0.848   1.269 -0.4102 -2.4420  0.1912
  191SOL    HW2  573   2.452   0.822   1.173  3.3141 -1.7236  4.4334
  192SOL     OW  574   2.584   0.612   1.574  0.0957 -0.1205 -0.1276
  192SOL    HW1  575   2.514   0.537   1.547 -0.1602  0.0775  0.4478
  192SOL    HW2  576   2.541   0.707   1.574  1.2929  0.1009 -1.6186
  193SOL     OW  577   0.507   0.363   0.220 -0.7302 -0.7494 -0.2701
  193SOL    HW1  578   0.452   0.450   0.237 -0.4455  0.3689  1.0058
  193SOL    HW2  579   0.487   0.322   0.133  0.6447 -0.1275  2.4830
  194SOL     OW  580   1.055   2.331   1.513 -0.2158 -0.5276  0.5098
  194SOL    HW1  581   1.031   2.230   1.513 -1.6168 -0.3370 -0.9975
  194SOL    HW2  582   1.154   2.338   1.543  0.4838  1.4405 -1.7677
  195SOL     OW  583   2.513   1.222   0.251 -0.6986 -0.8761 -0.0508
  195SOL    HW1  584   2.480   1.165   0.326  0.4808  0.2941 -1.1036
  195SOL    HW2  585   2.463   1.203   0.161 -1.9237 -0.3814 -0.0650
  196SOL     OW  586   0.658   2.314   1.578 -0.7198 -0.0697  0.3711
  196SOL    HW1  587   0.651   2.336   1.478 -0.3068 -0.3587  1.6968
  196SOL    HW2  588   0.572   2.304   1.620  6.3768  2.1286 -4.2249
  197SOL     OW  589   0.165   0.700   2.183  0.7067  0.8869 -0.1670
  197SOL    HW1  590   0.200   0.610   2.151  0.3526 -0.8479  0.4521
  197SOL    HW2  591   0.154   0.701   2.283  2.4044 -1.6095 -1.6292
  198SOL     OW  592   1.573   1.017   0.480 -0.4019  0.1488 -0.3124
  198SOL    HW1  593   1.494   0.974   0.429  0.1392  3.6504  3.3867
  198SOL    HW2  594   1.633   1.070   0.415 -0.4910 -0.9923 -0.0808
  199SOL     OW  595   2.828   0.488   1.596 -0.3825  0.1109 -0.6328
  199SOL    HW1  596   2.816   0.417   1.670  0.0428 -0.7469 -0.8199
  199SOL    HW2  597   2.744   0.547   1.589  1.6845  2.2967  0.8609
  200SOL     OW  598   2.144   0.032   2.841  0.1586  0.0640 -0.0116
  200SOL    HW1  599   2.179   3.022   2.854 -0.9771  0.9768  0.9082
  200SOL    HW2  600   2.189   0.089   2.770  1.0744  1.6266 -1.2185
  201SOL     OW  601   2.543   0.203   1.166  0.6027 -0.9290 -0.0012
  201SOL    HW1  602   2.504   0.195   1.260  0.0058 -0.5986 -1.6036
  201SOL    HW2  603   2.474   0.234   1.098  0.4160  0.8508  2.3159
  202SOL     OW  604   2.979   2.719   0.301 -0.0970  0.0712 -0.0689
  202SOL    HW1  605   3.027   2.723   0.393  0.3812  1.1951 -0.7021
  202SOL    HW2  606   2.998   2.801   0.252  0.4763 -3.9438  1.4633
  203SOL     OW  607   1.282   1.615   2.994  0.5486  0.3812  0.1279
  203SOL    HW1  608   1.277   1.604   0.015 -3.7551 -1.4682  1.7546
  203SOL    HW2  609   1.374   1.634   2.962  1.0633  0.1268 -0.9970
  204SOL     OW  610   0.380   2.043   2.267  0.4095 -0.1916 -0.3421
  204SOL    HW1  611   0.463   1.993   2.230  2.1413  0.7262  1.2926
  204SOL    HW2  612   0.291   1.994   2.254 -0.7054  1.2072  1.0066
  205SOL     OW  613   0.930   0.426   0.931 -0.4850  0.2532 -0.0813
  205SOL    HW1  614   0.965   0.380   1.015  0.8382 -2.3377 -4.7075
  205SOL    HW2  615   1.013   0.449   0.874 -1.7589  2.4702 -2.8825
  206SOL     OW  616   0.420   0.679   2.826  0.3066 -0.2332 -0.1416
  206SOL    HW1  617   0.325   0.703   2.860 -1.4603 -1.3960  0.7855
  206SOL    HW2  618   0.416   0.626   2.739 -0.6916 -1.4364 -1.7493
  207SOL     OW  619   1.531   2.380   1.727 -0.1244 -0.5554 -0.4611
  207SOL    HW1  620   1.621   2.432   1.741 -0.8126 -1.3219 -1.9670
  207SOL    HW2  621   1.490   2.355   1.816  1.0367 -0.6072 -0.7907
  208SOL     OW  622   0.228   2.970   1.006 -0.4959  0.1997  0.8140
  208SOL    HW1  623   0.313   2.925   0.967  1.2730 -2.3091  0.3983
  208SOL    HW2  624   0.237   3.071   0.997 -2.0213 -1.0215  2.9179
  209SOL     OW  625   1.444   1.068   0.738 -0.3222  0.2942  0.5868
  209SOL    HW1  626   1.466   1.050   0.838  1.5912 -1.6125  3.2319
  209SOL    HW2  627   1.517   1.030   0.673 -0.1043  0.0109  0.8220
  210SOL     OW  628   2.457   0.823   0.617 -0.2612 -0.1894  0.5658
  210SOL    HW1  629   2.474   0.819   0.714  0.9637  2.0116  0.0080
  210SOL    HW2  630   2.530   0.778   0.561  0.8636 -0.9070 -0.3927
  211SOL     OW  631   1.285   0.135   0.251  0.3728 -0.5397  0.0148
  211SOL    HW1  632   1.211   0.071   0.213 -0.4800  1.6213  0.8924
  211SOL    HW2  633   1.374   0.125   0.199 -0.4754  0.3423 -0.0611
  212SOL     OW  634   1.691   2.035   0.508 -0.7199  0.0509 -0.7186
  212SOL    HW1  635   1.772   2.091   0.540  1.2400  4.2636 -0.1629
  212SOL    HW2  636   1.692   2.024   0.409  1.5286 -1.0744  2.6581
  213SOL     OW  637   2.294   0.204   2.622 -0.3914  0.8181 -0.2692
  213SOL    HW1  638   2.382   0.248   2.593 -1.3579  1.5864 -3.0563
  213SOL    HW2  639   2.212   0.259   2.603 -0.8374 -2.9674 -0.7107
  214SOL     OW  640   0.896   2.094   2.140 -0.5515  0.0670 -0.6643
  214SOL    HW1  641   0.971   2.112   2.073  0.4925 -1.2330 -1.1199
  214SOL    HW2  642   0.884   2.171   2.203  1.4899  0.9204 -1.0294
  215SOL     OW  643   0.198   1.334   1.076 -0.1195 -0.0645 -0.0872
  215SOL    HW1  644   0.137   1.404   1.114  0.3406  0.1742  1.5026
  215SOL    HW2  645   0.265   1.310   1.148  0.9661  0.8346 -0.7433
  216SOL     OW  646   0.179   2.260   2.780  0.0152 -0.5593 -0.7204
  216SOL    HW1  647   0.082   2.255   2.806  1.1542  2.1086  0.0785
  216SOL    HW2  648   0.241   2.307   2.854  1.4966  0.8023  3.0778
  217SOL     OW  649   2.690   1.141   1.468 -0.1227 -0.1006 -0.4747
  217SOL    HW1  650   2.677   1.052   1.420 -1.7259 -0.8783 -0.2419
  217SOL    HW2  651   2.639   1.134   1.561  0.8853 -0.7917  0.2647
  218SOL     OW  652   0.765   2.377   2.044  0.1937 -0.0979  0.8966
  218SOL    HW1  653   0.842   2.410   1.988 -1.5344 -1.0320 -3.0683
  218SOL    HW2  654   0.785   2.365   2.141 -0.0305 -1.5785  2.1325
  219SOL     OW  655   2.022   1.541   0.344 -0.4877 -0.1252 -0.3837
  219SOL    HW1  656   2.116   1.546   0.298 -1.2762  1.7520  1.0247
  219SOL    HW2  657   2.000   1.621   0.403  0.7267  3.3035  1.6552
  220SOL     OW  658   2.003   0.755   0.508 -0.1752 -0.1902 -0.2374
  220SOL    HW1  659   2.013   0.778   0.408 -0.7636  1.7101  1.7221
  220SOL    HW2  660   1.922   0.797   0.547  1.3123 -0.1530  0.0565
  221SOL     OW  661   2.658   0.347   0.167 -0.1710  0.8886  0.0542
  221SOL    HW1  662   2.588   0.399   0.223  0.8681 -1.6745 -0.4489
  221SOL    HW2  663   2.750   0.391   0.172  1.1701 -0.8552  1.8082
  222SOL     OW  664   1.440   1.334   0.666  0.7282 -0.2122 -0.2658
  222SOL    HW1  665   1.467   1.241   0.699  0.8900 -1.0884 -0.2621
  222SOL    HW2  666   1.352   1.332   0.617  1.8702 -1.6745  1.6729
  223SOL     OW  667   0.966   3.066   2.963 -0.5135  0.1527 -0.6112
  223SOL    HW1  668   0.885   0.012   2.909 -0.4020  2.2154 -0.4902
  223SOL    HW2  669   1.021   2.996   2.921 -0.4525  2.2501  2.0153
  224SOL     OW  670   1.178   2.758   1.379  0.5765 -0.4278  0.2788
  224SOL    HW1  671   1.106   2.789   1.316 -0.4159  2.5090  1.5958
  224SOL    HW2  672   1.171   2.805   1.468  1.5053  1.0325  1.3339
  225SOL     OW  673   0.409   2.536   1.825  0.5396 -0.5635 -0.1598
  225SOL    HW1  674   0.322   2.573   1.860  0.2715  0.3474  1.0896
  225SOL    HW2  675   0.449   2.495   1.909  0.2926 -0.4600 -3.4260
  226SOL     OW  676   1.461   1.316   0.208  0.3742 -0.0766 -0.2157
  226SOL    HW1  677   1.515   1.342   0.290 -2.9075 -1.6196 -2.9962
  226SOL    HW2  678   1.375   1.372   0.194  0.6691 -0.2314  1.1388
  227SOL     OW  679   0.353   1.469   0.797  0.3604 -0.4162  0.0694
  227SOL    HW1  680   0.404   1.515   0.712 -0.0064  2.5664 -0.1355
  227SOL    HW2  681   0.302   1.389   0.769  1.1470  1.2840 -0.1470
  228SOL     OW  682   0.007   1.686   0.807 -0.3043  0.0018 -0.6501
  228SOL    HW1  683   2.993   1.723   0.822 -0.4375 -0.1331  0.5230
  228SOL    HW2  684   0.048   1.725   0.723  1.2611  0.7664 -3.6594
  229SOL     OW  685   2.598   0.337   2.966  0.0502 -0.1097 -0.7200
  229SOL    HW1  686   2.621   0.336   3.068  1.1164  2.1168  0.4158
  229SOL    HW2  687   2.682   0.327   2.914 -1.1961  2.3470  2.0127
  230SOL     OW  688   2.262   0.990   0.839  0.3374 -0.4902 -0.1123
  230SOL    HW1  689   2.287   1.087   0.835 -1.9759 -1.2605 -0.2903
  230SOL    HW2  690   2.190   0.978   0.910 -0.3305  1.5514 -1.0477
  231SOL     OW  691   1.578   1.410   2.877 -0.1377 -0.3370  0.1770
  231SOL    HW1  692   1.562   1.507   2.856 -1.3130 -2.1186  2.0030
  231SOL    HW2  693   1.633   1.396   2.964  2.6111  1.1175  3.1213
  232SOL     OW  694   2.186   2.040   0.820 -0.3300  0.0950  0.0397
  232SOL    HW1  695   2.272   2.030   0.768 -1.7531  4.5433 -0.1215
  232SOL    HW2  696   2.180   2.138   0.849 -2.2973  0.2176 -0.2996
  233SOL     OW  697   0.558   2.842   1.008 -0.1190 -0.4022  1.0633
  233SOL    HW1  698   0.543   2.809   1.103  1.2322  1.4380 -1.9838
  233SOL    HW2  699   0.480   2.820   0.944 -0.1479  1.6799 -3.0945
  234SOL     OW  700   0.795   0.189   2.827 -0.2916 -0.5757  0.6074
  234SOL    HW1  701   0.876   0.218   2.768  2.3267  2.0289 -0.2898
  234SOL    HW2  702   0.788   0.241   2.915  0.4226  1.4430  2.6824
  235SOL     OW  703   2.883   1.000   2.192  0.8175  0.2167  0.0763
  235SOL    HW1  704   2.879   0.901   2.188  0.6788  1.4422  1.1630
  235SOL    HW2  705   2.919   1.038   2.106 -0.8401  0.8154 -0.0928
  236SOL     OW  706   1.462   2.880   1.615 -0.0823  0.3230 -0.0975
  236SOL    HW1  707   1.363   2.880   1.595  1.0330  0.1436  1.8485
  236SOL    HW2  708   1.506   2.789   1.581 -2.0702  1.0381 -3.7323
  237SOL     OW  709   0.716   1.220   2.598 -0.4132 -0.2183  0.1106
  237SOL    HW1  710   0.736   1.313   2.562  1.2386  0.6393  4.3131
  237SOL    HW2  711   0.683   1.150   2.532 -1.8646  1.3922 -1.4820
  238SOL     OW  712   0.960   0.526   2.306  0.5599  0.1242 -0.0626
  238SOL    HW1  713   0.933   0.598   2.375 -2.2060 -3.2711  1.3760
  238SOL    HW2  714   0.910   0.440   2.330  0.7246  2.3533 -0.8253
  239SOL     OW  715   0.204   2.225   2.062 -0.1609 -0.2599  0.3031
  239SOL    HW1  716   0.277   2.167   2.032 -0.5148  0.2308 -0.9228
  239SOL    HW2  717   0.236   2.316   2.106 -1.7291 -2.0708 -0.0447
  240SOL     OW  718   2.357   2.981   0.635 -0.2183 -0.0903 -0.3388
  240SOL    HW1  719   2.279   2.995   0.699 -3.3613  0.9813  2.6004
  240SOL    HW2  720   2.327   3.000   0.539 -0.8688  0.4981  0.6412
  241SOL     OW  721   2.880   0.873   0.356 -0.4021 -0.3487  0.8359
  241SOL    HW1  722   2.960   0.852   0.295 -0.7259 -0.2627 -1.9745
  241SOL    HW2  723   2.814   0.937   0.310 -1.7431 -0.4906  0.7254
  242SOL     OW  724   1.766   2.502   1.778  0.2290 -0.1043  0.1471
  242SOL    HW1  725   1.824   2.424   1.748 -1.4004  2.2467  0.5175
  242SOL    HW2  726   1.797   2.535   1.869 -0.7741 -0.3671 -4.4019
  243SOL     OW  727   0.500   2.445   2.052  0.0362 -0.2946 -0.4956
  243SOL    HW1  728   0.602   2.438   2.041  0.5018  0.4745  0.1203
  243SOL    HW2  729   0.472   2.422   2.148  0.9751 -0.9462 -1.2743
  244SOL     OW  730   2.454   0.425   2.274 -0.1120  0.3083  0.0076
  244SOL    HW1  731   2.467   0.438   2.375  0.6187  0.0957 -0.0069
  244SOL    HW2  732   2.358   0.407   2.246  1.1429 -4.6881 -0.0995
  245SOL     OW  733   1.452   3.005   1.131  0.1395  0.0763 -0.5374
  245SOL    HW1  734   1.403   2.994   1.219  1.7763  1.3121 -0.5452
  245SOL    HW2  735   1.414   3.082   1.079  2.1989 -0.1997  0.4610
  246SOL     OW  736   1.741   2.873   0.494  0.2018  0.5483 -0.6216
  246SOL    HW1  737   1.744   2.774   0.477 -1.1121 -2.2773  0.2577
  246SOL    HW2  738   1.680   2.898   0.570 -0.6338  0.9639  0.1350
  247SOL     OW  739   1.620   0.673   1.916 -0.3024  0.2428 -0.2463
  247SOL    HW1  740   1.549   0.607   1.947  3.1457 -2.7606 -2.7171
  247SOL    HW2  741   1.713   0.651   1.952  0.7971  0.0742 -1.5903
  248SOL     OW  742   3.077   2.128   1.669  0.7126  0.1126  0.0209
  248SOL    HW1  743   0.065   2.056   1.685 -1.6268 -2.8864 -1.5440
  248SOL    HW2  744   2.989   2.104   1.712 -0.0542 -1.1582  0.1357
  249SOL     OW  745   2.932   0.434   0.139  1.0583 -0.0554 -0.5134
  249SOL    HW1  746   3.015   0.465   0.187 -0.6020 -0.5757  1.0095
  249SOL    HW2  747   2.946   0.340   0.099 -0.3538 -1.0169 -0.7001
  250SOL     OW  748   2.652   0.087   2.584  0.4503  0.3103  0.0028
  250SOL    HW1  749   2.752   0.084   2.599  1.6140 -1.0405 -1.7167
  250SOL    HW2  750   2.599   0.093   2.671 -2.6371 -1.7776  2.9765
  251SOL     OW  751   1.406   0.570   0.162 -0.0092  0.4994  0.4710
  251SOL    HW1  752   1.475   0.580   0.085 -2.3958 -1.8639  1.2007
  251SOL    HW2  753   1.436   0.622   0.247  1.3539  1.5613  2.5953
  252SOL     OW  754   1.445   2.330   1.974  0.1045 -0.1784 -0.5927
  252SOL    HW1  755   1.413   2.253   2.035 -0.1855  0.9110 -1.9166
  252SOL    HW2  756   1.509   2.388   2.032  0.7154  0.9011 -2.9134
  253SOL     OW  757   2.380   2.637   1.123  0.0664 -0.2472 -0.2353
  253SOL    HW1  758   2.354   2.707   1.194 -0.2429  1.5907  4.0550
  253SOL    HW2  759   2.430   2.678   1.044  0.4679  1.9254 -1.8135
  254SOL     OW  760   2.307   1.249   0.824 -0.0468  0.9538  0.3090
  254SOL    HW1  761   2.310   1.310   0.742  1.1140  1.8666  1.0018
  254SOL    HW2  762   2.293   1.297   0.912  1.2405 -0.4583 -0.3571
  255SOL     OW  763   0.850   2.693   1.311 -0.0656  0.0879 -0.0684
  255SOL    HW1  764   0.905   2.759   1.260 -1.3860 -1.6489 -0.1673
  255SOL    HW2  765   0.887   2.599   1.295  1.5901 -1.2498  0.7567
  256SOL     OW  766   1.844   2.215   1.399  0.2355 -0.4244  0.5572
  256SOL    HW1  767   1.858   2.116   1.396 -0.2840 -1.4334 -0.1425
  256SOL    HW2  768   1.747   2.237   1.417  1.0736 -1.2502  1.8089
  257SOL     OW  769   0.547   2.481   2.412  0.6941  0.2427  0.3557
  257SOL    HW1  770   0.566   2.514   2.506  0.5170 -2.2018 -0.9106
  257SOL    HW2  771   0.601   2.537   2.352 -0.9377 -0.8407  3.1071
  258SOL     OW  772   0.862   2.555   0.732  0.2441 -0.2169 -0.6740
  258SOL    HW1  773   0.917   2.616   0.786 -5.2282 -4.9076 -2.2394
  258SOL    HW2  774   0.764   2.547   0.776 -1.3852 -1.0672  2.2688
  259SOL     OW  775   1.544   0.538   2.806  0.3164 -0.1203 -0.3239
  259SOL    HW1  776   1.546   0.445   2.841 -0.7506  1.2578 -0.3457
  259SOL    HW2  777   1.448   0.570   2.824 -2.3190  0.0220 -4.3646
  260SOL     OW  778   2.942   1.039   1.170  0.1893  0.1108  0.8577
  260SOL    HW1  779   2.977   1.113   1.224 -1.8544  0.5839  1.1562
  260SOL    HW2  780   3.004   0.992   1.103 -0.9859 -2.8102  0.3541
  261SOL     OW  781   0.851   0.309   2.443  0.3883  0.0967 -0.4363
  261SOL    HW1  782   0.925   0.254   2.483  1.0698 -1.2411 -2.2525
  261SOL    HW2  783   0.772   0.246   2.421  0.2462  0.8386 -0.3598
  262SOL     OW  784   1.176   2.350   2.195  0.3456  0.1423 -0.2573
  262SOL    HW1  785   1.111   2.428   2.182  3.6639  0.6641  0.2990
  262SOL    HW2  786   1.156   2.275   2.131  2.9348  1.8410 -0.3200
  263SOL     OW  787   0.471   2.145   3.011  0.3437 -0.0786  0.2288
  263SOL    HW1  788   0.551   2.155   3.075  1.5425  0.7572 -0.1670
  263SOL    HW2  789   0.442   2.050   3.007  0.3332  2.3262 -1.9256
  264SOL     OW  790   0.973   1.365   1.078  0.2932  0.0737 -0.2345
  264SOL    HW1  791   1.045   1.325   1.014  1.5553  0.6302  0.6771
  264SOL    HW2  792   1.013   1.402   1.166 -0.8021  0.1285 -1.5589
  265SOL     OW  793   1.140   2.260   0.552  0.4997 -0.2453  0.0142
  265SOL    HW1  794   1.206   2.215   0.483 -0.4489  1.2105  0.2494
  265SOL    HW2  795   1.183   2.350   0.575  0.5727 -0.0340  0.5800
  266SOL     OW  796   2.368   0.566   1.005  0.0328 -0.8220 -0.0214
  266SOL    HW1  797   2.459   0.523   1.015 -1.2688  0.3503  0.7301
  266SOL    HW2  798   2.383   0.657   0.964 -0.7447 -1.3017  0.1032
  267SOL     OW  799   2.910   1.369   2.787  0.8058 -0.0660  0.3265
  267SOL    HW1  800   2.943   1.362   2.884 -2.1185 -0.1971  1.8159
  267SOL    HW2  801   2.904   1.273   2.742  0.6841 -0.8416 -1.1664
  268SOL     OW  802   1.541   0.117   0.141 -0.5197  0.5999  0.6352
  268SOL    HW1  803   1.598   0.060   0.206 -0.1677 -0.5299 -2.4702
  268SOL    HW2  804   1.589   0.202   0.115 -5.1920 -2.1930  0.0405
  269SOL     OW  805   2.995   0.824   2.462  0.1788 -0.1761 -0.4340
  269SOL    HW1  806   2.947   0.780   2.386  0.1198  0.6416  1.5626
  269SOL    HW2  807   0.003   0.779   2.471 -1.1368  0.6898  1.3454
  270SOL     OW  808   2.983   1.305   3.034 -0.4203 -0.5346  0.5435
  270SOL    HW1  809   2.945   1.292   0.041  0.8909  1.4971 -4.0862
  270SOL    HW2  810   3.027   1.222   2.997 -3.4880 -0.8053 -0.5962
  271SOL     OW  811   2.627   1.604   2.558  0.3939  0.4704  0.2066
  271SOL    HW1  812   2.565   1.561   2.628  2.0470 -1.5816 -0.1819
  271SOL    HW2  813   2.646   1.531   2.492  2.6299  1.8442  1.1475
  272SOL     OW  814   2.569   2.473   1.852  0.0255  0.0895  0.0839
  272SOL    HW1  815   2.465   2.477   1.852 -1.9592  2.1211  2.2076
  272SOL    HW2  816   2.609   2.525   1.773 -0.3630 -0.1964  1.7482
  273SOL     OW  817   0.261   2.528   0.117 -0.0617  0.3579  0.4078
  273SOL    HW1  818   0.306   2.600   0.175  0.0539 -1.3777 -2.4378
  273SOL    HW2  819   0.158   2.525   0.133 -1.5956 -0.9860 -0.6923
  274SOL     OW  820   0.966   2.322   0.901 -0.2096 -0.0024 -0.0524
  274SOL    HW1  821   0.944   2.420   0.885 -0.5934  0.3067 -1.6464
  274SOL    HW2  822   1.069   2.317   0.913  1.5913  1.8747 -0.9292
  275SOL     OW  823   2.225   1.560   0.154  0.9272  0.1143 -0.4123
  275SOL    HW1  824   2.169   1.645   0.130  0.5885  0.2081  0.7679
  275SOL    HW2  825   2.236   1.491   0.077  0.5613  2.6827  0.1663
  276SOL     OW  826   2.448   1.630   1.233  0.1554  0.3300 -0.4084
  276SOL    HW1  827   2.440   1.633   1.338 -1.0755 -1.4326 -0.7243
  276SOL    HW2  828   2.539   1.669   1.200  1.1905  0.5230  1.6008
  277SOL     OW  829   2.168   0.253   0.814  0.2032  0.0565  0.8178
  277SOL    HW1  830   2.114   0.335   0.818  0.6257 -1.4825 -0.6757
  277SOL    HW2  831   2.128   0.194   0.737  0.7291  0.0188 -0.4222
  278SOL     OW  832   1.820   0.537   2.512  0.2108 -0.3120  0.1909
  278SOL    HW1  833   1.762   0.615   2.559 -2.2086  1.6655 -0.4406
  278SOL    HW2  834   1.783   0.448   2.539  2.4110 -0.6000 -0.1563
  279SOL     OW  835   1.316   2.529   1.365 -0.0878 -0.5041  0.0300
  279SOL    HW1  836   1.375   2.569   1.291  0.1006 -0.0298 -0.5613
  279SOL    HW2  837   1.247   2.603   1.392 -1.7631 -0.2172  1.3585
  280SOL     OW  838   1.172   0.815   0.513 -0.0560  0.0652 -0.2667
  280SOL    HW1  839   1.081   0.774   0.524  1.4727 -3.3994  0.9115
  280SOL    HW2  840   1.160   0.913   0.542 -4.7446 -1.4998 -4.6283
  281SOL     OW  841   2.392   1.712   2.796  0.7308 -0.3771  0.0981
  281SOL    HW1  842   2.459   1.790   2.774 -2.4130  2.4718  0.5283
  281SOL    HW2  843   2.305   1.752   2.832 -1.7496 -0.7355 -1.5844
  282SOL     OW  844   2.677   1.366   0.093  0.4597  0.1470 -0.7629
  282SOL    HW1  845   2.625   1.344   0.180 -1.8567  0.8850  2.1824
  282SOL    HW2  846   2.771   1.336   0.098 -0.7015 -0.6573  1.2957
  283SOL     OW  847   1.558   2.893   2.674  0.0809 -0.1066 -0.2581
  283SOL    HW1  848   1.547   2.809   2.617 -0.7849  3.6977  1.2085
  283SOL    HW2  849   1.566   2.881   2.776  2.3706 -0.4932 -1.0775
  284SOL     OW  850   0.805   0.083   0.060  0.0888  0.0356 -0.2393
  284SOL    HW1  851   0.822   0.184   0.058  0.0676  1.8233 -1.3383
  284SOL    HW2  852   0.862   0.033   3.072 -0.3924 -1.2803 -1.5819
  285SOL     OW  853   1.856   2.036   2.507 -0.4976 -0.7965 -0.3036
  285SOL    HW1  854   1.874   2.056   2.408  1.5591  1.3437 -3.1179
  285SOL    HW2  855   1.881   2.119   2.564 -0.7794  1.3732  4.4274
  286SOL     OW  856   1.121   1.811   0.690  0.1565  0.1645  0.7781
  286SOL    HW1  857   1.101   1.910   0.672 -1.7821 -1.3185  0.5510
  286SOL    HW2  858   1.174   1.796   0.772  1.8885 -0.6345 -3.0232
  287SOL     OW  859   1.724   0.341   1.520 -0.4152 -0.2334 -0.2721
  287SOL    HW1  860   1.709   0.305   1.614 -0.2138  1.5303  3.0595
  287SOL    HW2  861   1.777   0.425   1.531  3.2468  0.7508 -3.4651
  288SOL     OW  862   0.747   2.607   2.270  0.0774 -0.3664  0.4806
  288SOL    HW1  863   0.796   2.671   2.328 -1.9066  0.0969 -2.3762
  288SOL    HW2  864   0.735   2.654   2.178 -3.4349  2.1645  0.4517
  289SOL     OW  865   0.135   1.265   0.838  0.2779 -0.3483 -0.3207
  289SOL    HW1  866   0.033   1.260   0.836 -1.6093 -1.8648 -1.0583
  289SOL    HW2  867   0.168   1.303   0.927 -0.8175  2.2499  2.0327
  290SOL     OW  868   1.068   2.035   1.457  0.3205 -0.1654 -0.6748
  290SOL    HW1  869   1.167   2.056   1.440 -0.2541  0.1663  0.7490
  290SOL    HW2  870   1.051   1.940   1.424  0.0300 -2.1372 -1.9184
  291SOL     OW  871   1.949   2.890   0.665  0.0054  0.0234 -0.0908
  291SOL    HW1  872   1.906   2.925   0.749  1.3777 -1.9884 -2.9038
  291SOL    HW2  873   1.874   2.897   0.593  1.0276 -0.4345 -1.3409
  292SOL     OW  874   0.425   0.384   1.493  0.0995 -0.0292  0.7213
  292SOL    HW1  875   0.400   0.435   1.404 -1.6283  1.3254 -0.6418
  292SOL    HW2  876   0.424   0.440   1.578 -0.3354  0.1472  3.2689
  293SOL     OW  877   2.204   1.680   0.892  0.0408 -0.2782 -0.1405
  293SOL    HW1  878   2.299   1.701   0.863 -0.5994  0.2704  2.3464
  293SOL    HW2  879   2.159   1.610   0.830 -0.7712  0.1743 -2.6522
  294SOL     OW  880   0.769   0.236   2.136 -0.1399  0.6506  0.0951
  294SOL    HW1  881   0.867   0.259   2.119 -1.0844  1.2579  0.4272
  294SOL    HW2  882   0.758   0.217   2.236  1.3253  0.8608 -0.0352
  295SOL     OW  883   0.855   1.281   0.512 -0.4821 -0.7447  0.4952
  295SOL    HW1  884   0.776   1.216   0.493  1.0967 -1.7304 -0.1440
  295SOL    HW2  885   0.898   1.264   0.604 -0.2430 -1.0559  0.5816
  296SOL     OW  886   2.076   1.953   1.067  0.2609  0.4296  0.0470
  296SOL    HW1  887   2.098   1.858   1.098  0.7898 -0.8995  0.2855
  296SOL    HW2  888   2.102   1.960   0.969  2.2999 -0.9024 -0.3230
  297SOL     OW  889   2.030   0.330   2.792 -0.0464 -0.0071 -0.1547
  297SOL    HW1  890   2.042   0.332   2.694 -1.3655  0.1428  3.3348
  297SOL    HW2  891   2.028   0.421   2.839  0.3309  3.8493 -1.4680
  298SOL     OW  892   1.297   0.103   2.573 -0.4511 -0.1255 -0.0586
  298SOL    HW1  893   1.392   0.061   2.556  3.8032 -1.1977 -1.0310
  298SOL    HW2  894   1.300   0.134   2.668 -0.5820  0.2126  1.4508
  299SOL     OW  895   1.087   0.280   2.089 -0.7515  0.1844 -0.5034
  299SOL    HW1  896   1.150   0.356   2.123  0.7963  3.1444 -1.1972
  299SOL    HW2  897   1.093   0.188   2.138  3.1274 -1.0968  0.0377
  300SOL     OW  898   2.579   0.060   1.563 -0.2385  0.4533 -0.3506
  300SOL    HW1  899   2.679   0.061   1.570 -0.7209 -0.2110  1.5494
  300SOL    HW2  900   2.542   0.145   1.602 -1.0301  1.1263 -0.0070
  301SOL     OW  901   2.484   0.266   1.695 -0.1190 -0.0804 -0.2106
  301SOL    HW1  902   2.493   0.256   1.796  0.6725 -1.6691  1.5502
  301SOL    HW2  903   2.441   0.353   1.672  1.4489 -3.1729 -1.4084
  302SOL     OW  904   0.803   2.645   0.233 -0.0365 -0.3289 -0.1727
  302SOL    HW1  905   0.856   2.705   0.303  0.0115 -1.2512  2.2953
  302SOL    HW2  906   0.742   2.703   0.174  1.3205  0.3812 -0.7329
  303SOL     OW  907   1.758   2.076   1.666 -0.4028  0.1171  0.2046
  303SOL    HW1  908   1.657   2.078   1.640  0.4665  0.8359 -0.8533
  303SOL    HW2  909   1.799   1.999   1.613 -2.2084  1.6966 -0.7417
  304SOL     OW  910   0.605   0.322   0.889  0.3536 -0.0159 -0.5145
  304SOL    HW1  911   0.584   0.326   0.990 -0.0936 -3.8029  1.2081
  304SOL    HW2  912   0.687   0.374   0.871  0.8523  0.7553 -2.8661
  305SOL     OW  913   0.783   0.568   0.761 -0.1858 -0.2499 -0.4691
  305SOL    HW1  914   0.745   0.510   0.682 -1.1021  2.1643 -0.3234
  305SOL    HW2  915   0.849   0.512   0.821  1.1188  1.8697 -0.9390
  306SOL     OW  916   0.522   1.254   2.897 -0.2528 -0.2833 -0.3822
  306SOL    HW1  917   0.602   1.213   2.851  0.8202 -2.1864 -0.6229
  306SOL    HW2  918   0.540   1.262   2.996 -1.9947 -0.6536 -1.3579
  307SOL     OW  919   0.935   0.268   1.850 -0.2250 -0.2253  0.1876
  307SOL    HW1  920   0.974   0.301   1.760 -0.1141  0.4195  2.3833
  307SOL    HW2  921   0.998   0.273   1.928  1.4084  1.1748 -0.0026
  308SOL     OW  922   0.833   0.148   0.839  0.2287  0.3753  0.1937
  308SOL    HW1  923   0.734   0.135   0.826 -3.0325 -1.5414 -0.0540
  308SOL    HW2  924   0.874   0.206   0.766 -2.4307 -1.0270  2.3018
  309SOL     OW  925   2.364   1.001   0.433 -0.2715  0.3933 -0.0551
  309SOL    HW1  926   2.294   1.007   0.504  0.4896  0.2429 -1.4885
  309SOL    HW2  927   2.453   0.957   0.464  2.3496 -0.6357 -2.1583
  310SOL     OW  928   0.915   1.391   2.906 -0.5132  0.0387  0.3001
  310SOL    HW1  929   1.014   1.397   2.880  0.8525  0.5456 -1.4629
  310SOL    HW2  930   0.898   1.433   2.999 -0.8899  2.9664 -0.6545
  311SOL     OW  931   1.941   2.591   2.000  0.1676 -0.4908  0.1819
  311SOL    HW1  932   1.993   2.619   1.916  0.4699 -0.1838  0.1924
  311SOL    HW2  933   1.981   2.638   2.081  2.2523  2.3717 -0.5442
  312SOL     OW  934   2.151   2.480   2.888  0.0594  0.7608  0.0117
  312SOL    HW1  935   2.151   2.475   2.986 -1.5198  0.0787  1.3635
  312SOL    HW2  936   2.063   2.519   2.854  1.5862  0.3431 -0.8019
  313SOL     OW  937   0.460   0.247   3.042 -0.1435 -0.0867 -0.3499
  313SOL    HW1  938   0.508   0.338   3.041  1.2736 -2.9986 -0.4104
  313SOL    HW2  939   0.400   0.243   2.960  1.5994  0.5645  1.0930
  314SOL     OW  940   2.406   1.445   2.804  0.1724 -0.4200  0.1701
  314SOL    HW1  941   2.494   1.410   2.828  0.6781  0.3750 -2.8618
  314SOL    HW2  942   2.400   1.546   2.796  0.9886 -0.9192 -0.6532
  315SOL     OW  943   1.968   0.540   2.277 -0.3905 -0.2425  0.1790
  315SOL    HW1  944   1.915   0.531   2.363 -0.1870 -1.1041 -0.9837
  315SOL    HW2  945   2.042   0.611   2.287  1.1275  0.0912 -1.4585
  316SOL     OW  946   2.977   0.991   0.613 -0.2083 -0.0381  0.3977
  316SOL    HW1  947   2.995   0.916   0.677  0.0127 -0.8707  0.0056
  316SOL    HW2  948   2.943   0.961   0.524 -0.1084  1.5963  1.7688
  317SOL     OW  949   0.649   2.871   0.151  0.0397 -0.2536  0.1770
  317SOL    HW1  950   0.587   2.885   0.228  1.4810  2.8630 -1.5190
  317SOL    HW2  951   0.610   2.921   0.069  0.1459 -1.6515 -0.4553
  318SOL     OW  952   1.924   2.487   1.283  0.2522 -0.0714 -0.1848
  318SOL    HW1  953   1.949   2.510   1.381  3.1605 -0.7198  0.7467
  318SOL    HW2  954   2.009   2.486   1.224 -1.1961  0.4186 -0.0625
  319SOL     OW  955   1.266   1.477   0.177  0.2618  0.2534  0.2609
  319SOL    HW1  956   1.299   1.558   0.227  1.0229 -0.7345 -0.9002
  319SOL    HW2  957   1.166   1.460   0.194 -0.7234 -1.8957 -0.6430
  320SOL     OW  958   0.611   1.741   0.862 -0.3198 -0.6329 -0.0693
  320SOL    HW1  959   0.713   1.765   0.851  1.4478  0.5099 -2.8065
  320SOL    HW2  960   0.545   1.815   0.844 -1.0303 -2.6614 -2.0053
  321SOL     OW  961   2.099   2.679   1.805  0.6180 -0.5293  0.0505
  321SOL    HW1  962   2.199   2.702   1.827  0.0162 -2.4101 -1.2192
  321SOL    HW2  963   2.049   2.772   1.801  0.7682  0.4055 -1.9841
  322SOL     OW  964   1.955   2.125   2.274 -0.5399  0.0802 -0.2888
  322SOL    HW1  965   1.935   2.225   2.268  0.9451  2.1771  0.0965
  322SOL    HW2  966   1.985   2.086   2.182  1.6213  0.4609  1.6843
  323SOL     OW  967   2.446   0.280   0.790 -0.8781  0.2405  0.1537
  323SOL    HW1  968   2.344   0.282   0.801 -0.9300  0.2401 -1.1455
  323SOL    HW2  969   2.465   0.326   0.699 -0.7640 -0.8334  3.8997
  324SOL     OW  970   2.661   2.410   2.346  0.2776 -0.0926  0.0879
  324SOL    HW1  971   2.724   2.334   2.313 -1.8015  1.5679 -0.4497
  324SOL    HW2  972   2.703   2.477   2.409 -1.8910 -0.4545  0.1186
  325SOL     OW  973   1.217   0.545   2.619 -0.1572  0.2078 -0.7608
  325SOL    HW1  974   1.238   0.620   2.550  0.4502  0.1490 -1.1195
  325SOL    HW2  975   1.248   0.570   2.713  1.5057  1.7146  2.5713
  326SOL     OW  976   2.605   2.331   1.002  0.5768  0.3096 -0.9982
  326SOL    HW1  977   2.559   2.333   0.909  1.3573  0.8009 -3.6333
  326SOL    HW2  978   2.536   2.309   1.073  0.7811 -1.5913 -1.4807
  327SOL     OW  979   2.501   2.877   0.276 -0.2505  0.6346 -0.0996
  327SOL    HW1  980   2.478   2.822   0.194 -0.0556  1.6487 -0.3885
  327SOL    HW2  981   2.508   2.972   0.244  0.5267 -0.4372 -0.9667
  328SOL     OW  982   0.618   0.635   1.149 -0.8918  0.4689  0.2388
  328SOL    HW1  983   0.622   0.622   1.249 -0.2792 -1.9358 -1.4629
  328SOL    HW2  984   0.714   0.657   1.113  1.5211  1.8681 -1.5486
  329SOL     OW  985   2.002   0.428   1.470 -0.1618  0.4828  0.4432
  329SOL    HW1  986   2.035   0.504   1.529  0.0920 -0.4944  1.9153
  329SOL    HW2  987   2.081   0.384   1.420  0.9202 -0.9046 -1.1351
  330SOL     OW  988   0.671   0.511   0.525  0.2602  0.4898  0.0594
  330SOL    HW1  989   0.664   0.603   0.475 -1.1858  0.7208  2.0435
  330SOL    HW2  990   0.685   0.435   0.459 -1.6216 -1.1313  1.2287
  331SOL     OW  991   0.876   2.080   1.799 -0.1759  0.3093  0.6154
  331SOL    HW1  992   0.809   2.122   1.860  2.7064 -0.4601 -1.2048
  331SOL    HW2  993   0.835   2.062   1.706  0.8463  0.2880 -0.1735
  332SOL     OW  994   2.302   2.449   1.858  0.1883  0.3198 -0.2156
  332SOL    HW1  995   2.247   2.404   1.934 -1.5761 -0.6569 -0.1818
  332SOL    HW2  996   2.292   2.550   1.859  3.4581  0.7262 -1.4372
  333SOL     OW  997   0.050   0.119   0.892  0.2810 -0.7856 -0.2119
  333SOL    HW1  998   0.140   0.161   0.918  0.6033 -0.4786 -2.9617
  333SOL    HW2  999   0.008   0.057   0.964 -0.0531 -0.2325 -0.2831
  334SOL     OW 1000   2.961   1.531   0.558  0.0497 -0.1658  0.0311
  334SOL    HW1 1001   2.952   1.594   0.637 -0.6421 -0.6117 -0.0996
  334SOL    HW2 1002   3.040   1.470   0.574  1.1036  2.1357  0.9153
  335SOL     OW 1003   0.482   2.578   2.669  0.1806 -0.2361  0.3573
  335SOL    HW1 1004   0.473   2.629   2.755 -0.5332 -2.4844 -3.0755
  335SOL    HW2 1005   0.386   2.580   2.628 -2.2239  0.8885  2.6732
  336SOL     OW 1006   2.991   2.832   2.183  0.2900  0.4541 -0.0920
  336SOL    HW1 1007   3.005   2.862   2.277 -0.4166 -2.3092 -1.7872
  336SOL    HW2 1008   2.918   2.881   2.132  2.3932 -0.2894  1.4670
  337SOL     OW 1009   1.269   1.980   1.712 -0.1565 -0.4109  0.2612
  337SOL    HW1 1010   1.188   1.918   1.717  0.3558 -1.1050  0.2915
  337SOL    HW2 1011   1.335   1.981   1.793  1.4655 -2.0919  0.6221
  338SOL     OW 1012   1.047   0.109   2.510 -0.2320  0.0598 -0.5699
  338SOL    HW1 1013   1.040   0.094   2.408 -0.4763  1.0638  2.1972
  338SOL    HW2 1014   1.145   0.124   2.541 -0.2579  1.1830  1.6727
  339SOL     OW 1015   0.317   0.855   2.540 -0.5136  1.2242  0.1789
  339SOL    HW1 1016   0.299   0.914   2.462  0.5695 -1.3872  2.7364
  339SOL    HW2 1017   0.262   0.874   2.623  1.8393 -0.5701 -0.8213
  340SOL     OW 1018   2.263   0.312   1.358 -0.7873 -0.3988 -0.5461
  340SOL    HW1 1019   2.268   0.337   1.258 -0.9552 -2.0925 -0.4754
  340SOL    HW2 1020   2.315   0.223   1.364  0.7709  2.1747  1.1445
  341SOL     OW 1021   2.301   1.425   1.055 -0.4017  0.3012  0.1229
  341SOL    HW1 1022   2.361   1.482   0.995  0.4990 -1.3591  2.0753
  341SOL    HW2 1023   2.346   1.394   1.135 -1.7379  2.0042 -2.3156
  342SOL     OW 1024   1.971   2.681   2.845 -0.0247  0.1518 -0.9528
  342SOL    HW1 1025   1.960   2.770   2.897  1.1073  3.3529 -0.6388
  342SOL    HW2 1026   1.903   2.677   2.775  3.2021 -2.9757  1.1202
  343SOL     OW 1027   0.068   2.391   1.018  0.6181 -0.2029  0.1754
  343SOL    HW1 1028   0.143   2.359   1.079  2.2205  2.1081  0.4207
  343SOL    HW2 1029   0.105   2.455   0.952  1.6804  3.3965  1.6648
  344SOL     OW 1030   2.433   2.819   1.336  0.6624 -0.6136  0.2617
  344SOL    HW1 1031   2.482   2.728   1.350  3.7445  1.0385  1.0273
  344SOL    HW2 1032   2.378   2.833   1.419 -0.2477 -1.5954 -1.3635
  345SOL     OW 1033   2.298   2.183   0.341  0.2625  0.5107 -0.8556
  345SOL    HW1 1034   2.393   2.148   0.323 -1.7227  0.3886  0.5931
  345SOL    HW2 1035   2.301   2.273   0.394 -2.0837 -0.1734  1.7868
  346SOL     OW 1036   1.577   2.268   1.499  0.4794  0.0488 -0.5597
  346SOL    HW1 1037   1.533   2.180   1.497 -0.1311  2.1814 -1.5634
  346SOL    HW2 1038   1.555   2.312   1.592  1.1954  2.2540  2.1024
  347SOL     OW 1039   1.002   1.796   1.305  0.1941 -0.1792  0.0167
  347SOL    HW1 1040   1.050   1.721   1.341  0.6402  2.0931 -0.8950
  347SOL    HW2 1041   0.993   1.776   1.205 -3.4123 -2.8361 -1.0077
  348SOL     OW 1042   0.372   2.060   1.914 -0.2665 -0.2955  0.3166
  348SOL    HW1 1043   0.422   1.983   1.953  1.2884 -0.2097  1.8940
  348SOL    HW2 1044   0.299   2.020   1.850 -1.7139 -2.1570 -0.8525
  349SOL     OW 1045   1.474   1.705   1.611  0.5670  0.1342 -0.1107
  349SOL    HW1 1046   1.446   1.713   1.711 -0.5239 -3.5792  0.3034
  349SOL    HW2 1047   1.481   1.801   1.572  0.3083  1.3496  0.6162
  350SOL     OW 1048   2.015   2.359   0.499 -0.1197 -0.5768  0.2194
  350SOL    HW1 1049   1.981   2.415   0.421  1.1326 -1.9915 -0.4752
  350SOL    HW2 1050   2.120   2.360   0.498 -1.3170  1.7003 -2.2913
  351SOL     OW 1051   0.481   2.917   1.792 -0.0107 -0.2020  0.1647
  351SOL    HW1 1052   0.539   2.985   1.745 -1.0653  2.3152 -0.3756
  351SOL    HW2 1053   0.420   2.867   1.724 -1.2912  0.0654 -0.2382
  352SOL     OW 1054   0.657   0.797   0.784  0.1948 -0.0878 -0.1898
  352SOL    HW1 1055   0.737   0.868   0.791  0.2974  2.8366  0.7128
  352SOL    HW2 1056   0.693   0.698   0.769  0.9007  1.4867 -0.0274
  353SOL     OW 1057   1.149   1.934   2.686  0.0524  0.1958 -0.1199
  353SOL    HW1 1058   1.156   1.999   2.611 -1.2407  0.5674  0.9792
  353SOL    HW2 1059   1.055   1.898   2.698 -4.0704 -2.7107 -1.2646
  354SOL     OW 1060   1.730   2.748   2.093 -0.4662  0.2756  0.2853
  354SOL    HW1 1061   1.812   2.690   2.064  1.0908 -0.2248  0.6360
  354SOL    HW2 1062   1.694   2.796   2.015  0.6134  0.2993  1.3331
  355SOL     OW 1063   2.002   1.278   0.260 -0.1841 -0.0050 -0.6733
  355SOL    HW1 1064   2.009   1.375   0.287 -1.3571 -1.7298 -1.9227
  355SOL    HW2 1065   1.977   1.257   0.162 -0.4821  0.7975 -0.6551
  356SOL     OW 1066   0.368   1.843   1.116  0.3449 -1.0931  0.6467
  356SOL    HW1 1067   0.325   1.755   1.099  1.6193 -1.2780  1.9413
  356SOL    HW2 1068   0.300   1.921   1.110  0.7362  0.1046 -2.7604
  357SOL     OW 1069   0.237   2.907   1.276  0.3149  0.2940 -0.1294
  357SOL    HW1 1070   0.159   2.970   1.274  1.1459 -2.1926 -0.3339
  357SOL    HW2 1071   0.268   2.877   1.183  1.7337 -0.5717 -1.8106
  358SOL     OW 1072   2.136   1.825   1.385  0.0394 -0.0523  0.4871
  358SOL    HW1 1073   2.223   1.877   1.408 -1.3561  1.0847  0.0805
  358SOL    HW2 1074   2.147   1.781   1.294  0.1536  0.0279  0.1306
  359SOL     OW 1075   2.230   2.858   2.849  0.5468 -0.4653 -0.0686
  359SOL    HW1 1076   2.186   2.786   2.908 -0.0143  2.3328 -0.5076
  359SOL    HW2 1077   2.230   2.832   2.752  1.4462  0.0991  1.4254
  360SOL     OW 1078   0.990   2.733   0.930 -0.9730  0.7834 -0.1963
  360SOL    HW1 1079   0.931   2.784   0.992  2.1884  0.6521 -2.2611
  360SOL    HW2 1080   1.048   2.675   0.990 -1.8850  0.3282 -0.4954
  361SOL     OW 1081   1.865   0.432   0.464  0.1629  1.0770 -0.8487
  361SOL    HW1 1082   1.915   0.480   0.385  2.6405  2.3683 -2.6828
  361SOL    HW2 1083   1.850   0.493   0.542 -0.5136 -1.1011 -1.6118
  362SOL     OW 1084   1.424   0.813   1.186 -0.9347  0.3908 -0.0221
  362SOL    HW1 1085   1.510   0.770   1.223 -2.2999 -2.1670 -0.8724
  362SOL    HW2 1086   1.360   0.837   1.261  1.2487 -2.1322 -1.1437
  363SOL     OW 1087   2.417   1.495   2.204 -0.2768 -0.2167  0.5644
  363SOL    HW1 1088   2.347   1.538   2.263  0.0655  1.0710 -2.3502
  363SOL    HW2 1089   2.408   1.525   2.110 -2.2262  0.7532  0.0297
  364SOL     OW 1090   0.517   0.809   1.423  0.6725  0.2229  0.1108
  364SOL    HW1 1091   0.484   0.836   1.331 -0.5904  3.7273  3.2925
  364SOL    HW2 1092   0.590   0.738   1.418 -0.1290 -1.0136  0.1152
  365SOL     OW 1093   0.642   0.144   2.397  0.1296 -0.0801  0.0314
  365SOL    HW1 1094   0.606   0.111   2.488 -0.9015 -0.7451  2.5108
  365SOL    HW2 1095   0.601   0.072   2.334  2.6703  0.3130  1.5588
  366SOL     OW 1096   2.252   2.208   2.328 -0.4362  0.0536 -0.0987
  366SOL    HW1 1097   2.151   2.190   2.307 -0.2229  1.2484  0.7776
  366SOL    HW2 1098   2.283   2.163   2.414 -1.2346 -0.4079  0.4553
  367SOL     OW 1099   2.751   2.581   0.077  0.1130 -0.1379 -0.0050
  367SOL    HW1 1100   2.749   2.620   0.168 -0.7251 -0.6937 -3.1975
  367SOL    HW2 1101   2.832   2.601   0.022  1.2563 -0.3573  0.4731
  368SOL     OW 1102   2.655   1.419   1.022  0.2312 -0.2958  0.3589
  368SOL    HW1 1103   2.625   1.430   1.117 -1.2245 -0.6489  0.4457
  368SOL    HW2 1104   2.587   1.461   0.960  0.4579 -1.1288  3.1414
  369SOL     OW 1105   0.892   2.781   2.421 -0.0635  0.2012 -0.2616
  369SOL    HW1 1106   0.849   2.847   2.485 -0.3866  1.6284 -0.4636
  369SOL    HW2 1107   0.991   2.799   2.407  0.4401  0.4577 -0.6271
  370SOL     OW 1108   2.645   0.168   0.478 -0.0322 -0.3218 -0.2299
  370SOL    HW1 1109   2.628   0.261   0.518 -2.3254 -1.8204  1.4785
  370SOL    HW2 1110   2.623   0.090   0.541  3.0515 -1.0944 -2.0329
  371SOL     OW 1111   1.314   2.039   1.286 -0.5973  0.1905  0.5302
  371SOL    HW1 1112   1.348   2.135   1.265 -1.4090  1.9077 -1.8350
  371SOL    HW2 1113   1.238   2.014   1.219 -0.1557 -0.6241  1.6188
  372SOL     OW 1114   0.122   0.677   2.452  0.2225  0.4883 -0.3035
  372SOL    HW1 1115   0.099   0.577   2.454  0.0480  3.5220  0.0501
  372SOL    HW2 1116   0.219   0.698   2.475 -0.6314 -1.7313  1.2079
  373SOL     OW 1117   3.046   2.078   0.897  0.3984  0.1795  0.0595
  373SOL    HW1 1118   3.080   2.040   0.809  0.7633  0.1307  3.3868
  373SOL    HW2 1119   3.007   2.172   0.885  1.9542  1.1481 -0.3619
  374SOL     OW 1120   0.475   2.837   2.406  0.7304  0.5184 -0.2174
  374SOL    HW1 1121   0.506   2.807   2.496  1.0117 -0.3034 -0.4066
  374SOL    HW2 1122   0.539   2.905   2.373 -1.5181 -0.8501 -0.8146
  375SOL     OW 1123   0.596   0.084   2.675  0.3439  0.4571 -0.1980
  375SOL    HW1 1124   0.622   3.067   2.674  0.5511 -0.0418 -0.9851
  375SOL    HW2 1125   0.663   0.132   2.737  0.2190  3.1789 -3.2008
  376SOL     OW 1126   2.848   2.103   1.791  0.2955 -0.6833 -0.4816
  376SOL    HW1 1127   2.823   2.003   1.788  1.7373  0.1546 -0.7625
  376SOL    HW2 1128   2.781   2.154   1.854 -0.7810 -1.9681  1.7575
  377SOL     OW 1129   1.650   2.476   2.956  0.0279 -0.2424  0.2833
  377SOL    HW1 1130   1.660   2.565   3.006 -0.7461 -0.6576  2.8373
  377SOL    HW2 1131   1.556   2.444   2.954  0.2875  1.4213  0.0132
  378SOL     OW 1132   0.138   0.402   2.405 -0.1052  0.7884 -0.2287
  378SOL    HW1 1133   0.219   0.349   2.435  0.2966 -1.0874 -1.4554
  378SOL    HW2 1134   0.043   0.374   2.442  0.8683 -1.5639 -0.0109
  379SOL     OW 1135   0.367   0.939   0.310  0.8040 -0.2193 -0.1136
  379SOL    HW1 1136   0.398   1.013   0.368 -1.2415  1.9931 -2.6804
  379SOL    HW2 1137   0.300   0.883   0.363 -1.1358  0.8443 -0.4884
  380SOL     OW 1138   0.242   1.523   1.962  0.0195  0.2128 -0.3687
  380SOL    HW1 1139   0.307   1.488   1.893 -0.1464  0.9752 -1.2291
  380SOL    HW2 1140   0.295   1.574   2.037 -1.5978 -2.6546 -1.9325
  381SOL     OW 1141   0.593   1.209   2.053  1.0361 -0.1870 -0.2351
  381SOL    HW1 1142   0.572   1.120   2.094  0.8654  2.9043  1.5515
  381SOL    HW2 1143   0.642   1.190   1.970 -2.9626 -3.6993  2.5230
  382SOL     OW 1144   2.206   1.936   0.386  0.2193  1.0024  0.1465
  382SOL    HW1 1145   2.224   2.032   0.360  0.4576 -0.9838  0.4880
  382SOL    HW2 1146   2.148   1.942   0.470  3.4422 -0.2229  2.0329
  383SOL     OW 1147   0.400   1.874   3.048 -0.3011 -0.6219  0.1111
  383SOL    HW1 1148   0.417   1.888   0.067 -1.2933  2.0916  0.4985
  383SOL    HW2 1149   0.475   1.821   3.007  1.0089  1.0766 -0.3869
  384SOL     OW 1150   0.818   2.287   2.741  0.3461  0.0321 -0.4956
  384SOL    HW1 1151   0.830   2.191   2.725  2.7352  3.0917  0.8418
  384SOL    HW2 1152   0.720   2.301   2.764  3.8842 -1.1485  3.9115
  385SOL     OW 1153   2.056   1.972   0.594  0.6510  0.3651 -0.0447
  385SOL    HW1 1154   2.125   1.963   0.671 -0.7119 -2.1367  1.2694
  385SOL    HW2 1155   1.988   2.045   0.627 -0.5196  2.1944  0.0245
  386SOL     OW 1156   2.147   0.911   1.471 -0.5331  0.0517  0.0747
  386SOL    HW1 1157   2.207   0.954   1.402  0.8825 -0.2349 -0.1427
  386SOL    HW2 1158   2.187   0.937   1.562  0.1631 -0.6154  1.8935
  387SOL     OW 1159   2.769   1.373   1.970 -0.0119 -0.0667 -0.3088
  387SOL    HW1 1160   2.792   1.423   2.056 -0.4804  1.1736  1.1164
  387SOL    HW2 1161   2.817   1.281   1.963  3.4682  2.3124 -0.2551
  388SOL     OW 1162   0.402   1.638   2.136  0.2106  0.0522  0.1379
  388SOL    HW1 1163   0.491   1.646   2.088 -0.6277 -1.3018  1.3128
  388SOL    HW2 1164   0.367   1.727   2.167  2.8383 -3.1630  1.8669
  389SOL     OW 1165   1.270   1.090   2.040 -0.4592  0.4477  0.3287
  389SOL    HW1 1166   1.184   1.041   2.002 -2.8242 -1.1463 -0.8334
  389SOL    HW2 1167   1.357   1.035   2.022  1.1855 -0.5397  0.1046
  390SOL     OW 1168   2.258   0.006   1.094 -0.1507  0.3552 -0.3413
  390SOL    HW1 1169   2.352   3.052   1.105 -1.0200  0.0505 -3.2574
  390SOL    HW2 1170   2.215   0.029   1.184 -0.9690  3.3635  2.2782
  391SOL     OW 1171   1.776   1.531   1.260  0.0738 -0.7887  0.5129
  391SOL    HW1 1172   1.878   1.520   1.256  1.7689 -0.2850  0.3486
  391SOL    HW2 1173   1.744   1.451   1.315  1.7460 -1.5220  3.9709
  392SOL     OW 1174   2.691   2.884   0.462  0.0834  0.2823 -0.6798
  392SOL    HW1 1175   2.620   2.902   0.392  0.0570 -0.4094  2.3320
  392SOL    HW2 1176   2.764   2.955   0.464  2.6577  0.5500  1.5037
  393SOL     OW 1177   1.924   2.222   2.707  0.2938 -0.1707 -0.1346
  393SOL    HW1 1178   1.890   2.228   2.804  1.0321  1.7206 -0.2073
  393SOL    HW2 1179   2.024   2.240   2.702  0.7783  0.4129 -1.4168
  394SOL     OW 1180   0.221   2.562   2.597  0.0226 -0.0541  0.3859
  394SOL    HW1 1181   0.150   2.578   2.669 -1.9586  0.0080  1.1071
  394SOL    HW2 1182   0.215   2.465   2.560 -1.7429  1.4229  1.2648
  395SOL     OW 1183   0.580   0.154   0.693 -0.8812 -0.6008  0.1875
  395SOL    HW1 1184   0.514   0.169   0.618 -0.6731 -0.9455 -2.6855
  395SOL    HW2 1185   0.582   0.221   0.767  2.3807  0.8807 -0.6143
  396SOL     OW 1186   1.787   0.839   0.633 -0.6650  0.3344  0.1440
  396SOL    HW1 1187   1.815   0.890   0.717  0.6779  3.2224  0.3897
  396SOL    HW2 1188   1.700   0.881   0.598 -2.0159  1.6004 -0.9404
  397SOL     OW 1189   0.520   0.608   2.210  0.1880 -0.3914  0.1701
  397SOL    HW1 1190   0.563   0.606   2.121  0.5915  1.6131  1.3690
  397SOL    HW2 1191   0.426   0.568   2.204 -2.2726 -1.2380  1.5609
  398SOL     OW 1192   0.977   3.058   0.556  0.0922 -0.0756  0.4410
  398SOL    HW1 1193   0.943   0.073   0.554 -0.8963  0.8924 -0.6921
  398SOL    HW2 1194   1.003   3.029   0.647 -2.9290 -0.3135 -4.6418
  399SOL     OW 1195   2.222   2.968   1.713  0.3501 -0.4384  0.0333
  399SOL    HW1 1196   2.236   2.900   1.640  0.3777  2.5736 -2.5820
  399SOL    HW2 1197   2.303   2.991   1.769 -1.4743 -2.3224  2.0982
  400SOL     OW 1198   0.908   1.964   2.411  0.0145 -0.1095  0.0786
  400SOL    HW1 1199   0.848   1.953   2.492  0.3993  1.2776  2.2140
  400SOL    HW2 1200   0.847   1.991   2.333  0.7748  1.0568 -1.1800
  401SOL     OW 1201   0.625   0.882   2.682  0.5129 -0.0417 -0.3949
  401SOL    HW1 1202   0.637   0.929   2.593 -1.0703 -1.3392  0.1057
  401SOL    HW2 1203   0.525   0.869   2.698  3.6358  2.4317 -0.8226
  402SOL     OW 1204   0.232   2.180   0.802  0.0207  0.2251 -0.0957
  402SOL    HW1 1205   0.186   2.159   0.892 -0.0822  0.6042  0.9486
  402SOL    HW2 1206   0.165   2.165   0.729  0.1827  0.8172 -0.8177
  403SOL     OW 1207   2.937   1.167   1.938  0.7078  0.0197 -0.0879
  403SOL    HW1 1208   3.020   1.226   1.954 -1.1718  1.9272  0.6328
  403SOL    HW2 1209   2.961   1.099   1.864  0.1830  0.3194 -1.4818
  404SOL     OW 1210   2.815   2.550   2.536  0.4907 -0.0366 -0.0298
  404SOL    HW1 1211   2.783   2.536   2.636 -0.2878  0.4704 -0.8999
  404SOL    HW2 1212   2.912   2.545   2.528 -2.2057 -0.8057  1.0363
  405SOL     OW 1213   0.246   0.351   1.866 -0.1413 -0.4197 -0.3457
  405SOL    HW1 1214   0.293   0.265   1.881 -0.4197  3.8515 -0.2714
  405SOL    HW2 1215   0.150   0.324   1.834 -1.0185 -0.9609 -0.4860
  406SOL     OW 1216   1.566   1.613   2.540  0.2314 -0.3570 -0.4679
  406SOL    HW1 1217   1.483   1.656   2.579  0.3498  2.6386 -0.1220
  406SOL    HW2 1218   1.594   1.657   2.452  1.6049 -1.7819  3.0772
  407SOL     OW 1219   1.671   0.979   2.610 -0.8481 -0.0420 -0.2036
  407SOL    HW1 1220   1.708   1.068   2.639 -0.3531  0.4056 -2.9502
  407SOL    HW2 1221   1.680   0.962   2.513  1.6239  1.0349 -1.4641
  408SOL     OW 1222   0.572   3.024   2.237  0.0019 -0.2476 -0.3382
  408SOL    HW1 1223   0.670   3.033   2.220  1.8390 -0.7047  2.5396
  408SOL    HW2 1224   0.522   2.959   2.175 -2.1174  0.6089 -1.5013
  409SOL     OW 1225   0.186   2.045   1.095  0.8423 -0.1821  0.0338
  409SOL    HW1 1226   0.101   2.024   1.045 -0.1954 -0.6710 -0.3753
  409SOL    HW2 1227   0.176   2.132   1.148  0.6298 -1.4554 -0.4250
  410SOL     OW 1228   2.369   1.445   0.351  0.4166 -0.0529 -0.3955
  410SOL    HW1 1229   2.323   1.484   0.270 -0.0463 -1.1895  1.8005
  410SOL    HW2 1230   2.428   1.363   0.333 -2.0208 -1.0564 -2.1652
  411SOL     OW 1231   0.304   0.183   1.015  0.2141 -0.0034  0.3206
  411SOL    HW1 1232   0.354   0.139   1.093 -0.6573 -1.5115 -0.0287
  411SOL    HW2 1233   0.276   0.279   1.031 -3.0585 -2.0321  0.2540
  412SOL     OW 1234   1.776   0.590   1.657  0.4240  0.1511 -0.0314
  412SOL    HW1 1235   1.698   0.579   1.726  0.0182 -0.2023 -2.5264
  412SOL    HW2 1236   1.803   0.687   1.645 -1.6054 -3.0203  1.6350
  413SOL     OW 1237   0.685   0.385   1.923 -0.0259 -0.1166  0.0966
  413SOL    HW1 1238   0.656   0.314   1.984  2.4953  4.2884 -0.5008
  413SOL    HW2 1239   0.776   0.358   1.879  1.1798 -0.5167  0.4541
  414SOL     OW 1240   2.883   1.595   2.673 -0.5911 -0.2368  0.0150
  414SOL    HW1 1241   2.887   1.501   2.715 -0.3425 -0.6701 -0.1163
  414SOL    HW2 1242   2.798   1.609   2.619  2.6000 -1.3072 -0.7357
  415SOL     OW 1243   0.875   2.381   0.219 -0.2703  0.1555 -0.1592
  415SOL    HW1 1244   0.925   2.398   0.133 -1.3645  1.1503  0.7177
  415SOL    HW2 1245   0.842   2.469   0.252  2.3233  0.7546 -1.9987
  416SOL     OW 1246   1.791   0.247   2.802 -0.5612  0.1752 -0.2585
  416SOL    HW1 1247   1.790   0.144   2.785  0.4950 -2.1318 -1.4583
  416SOL    HW2 1248   1.884   0.302   2.807  0.7219 -0.5017 -0.0902
  417SOL     OW 1249   0.348   0.276   0.539  0.4500 -0.2514 -0.1792
  417SOL    HW1 1250   0.400   0.346   0.584 -2.9202 -0.2732  2.3522
  417SOL    HW2 1251   0.248   0.294   0.550 -1.2533 -0.2368 -1.4557
  418SOL     OW 1252   2.573   0.042   0.704  0.2972  0.4335 -0.3970
  418SOL    HW1 1253   2.499   3.054   0.684  2.8803  0.3634  0.9413
  418SOL    HW2 1254   2.529   0.116   0.755 -1.5346 -0.0032 -2.5260
  419SOL     OW 1255   0.015   2.761   0.556 -0.0497 -0.2217  0.3177
  419SOL    HW1 1256   0.113   2.767   0.585  0.3227  1.6040 -0.2202
  419SOL    HW2 1257   3.036   2.783   0.631 -1.3486 -2.0752  0.4006
  420SOL     OW 1258   0.141   1.274   1.958 -0.0609 -0.2141 -0.0013
  420SOL    HW1 1259   0.163   1.375   1.950  1.3612  1.9572 -0.3285
  420SOL    HW2 1260   0.228   1.231   1.947 -2.8073  1.1290 -0.5652
  421SOL     OW 1261   1.587   2.603   0.830  0.2932  0.5773  0.3077
  421SOL    HW1 1262   1.587   2.696   0.866 -2.7411  0.7407  2.0324
  421SOL    HW2 1263   1.565   2.535   0.901 -4.8586  0.3739 -0.1918
  422SOL     OW 1264   0.665   0.307   1.593 -0.5811  0.0398 -0.4651
  422SOL    HW1 1265   0.703   0.376   1.658  3.2846 -1.9937  1.1515
  422SOL    HW2 1266   0.575   0.337   1.561  0.8093 -1.4256 -0.1903
  423SOL     OW 1267   1.013   1.302   1.920 -0.4877  0.1787 -0.2943
  423SOL    HW1 1268   1.081   1.372   1.895 -1.8534 -0.1495  0.3205
  423SOL    HW2 1269   1.010   1.228   1.853  1.1451  3.2380  1.6183
  424SOL     OW 1270   1.806   2.278   0.186 -0.5006  0.5682 -0.0336
  424SOL    HW1 1271   1.835   2.371   0.224  1.6203  0.3200 -0.0513
  424SOL    HW2 1272   1.704   2.268   0.178  1.2602  0.1202 -0.6690
  425SOL     OW 1273   2.820   0.097   1.913  0.1560  0.3882 -0.1259
  425SOL    HW1 1274   2.896   0.093   1.974  1.1613  1.6608 -0.2385
  425SOL    HW2 1275   2.839   0.052   1.826 -1.7754 -2.0511 -0.2263
  426SOL     OW 1276   0.070   2.630   2.810  0.1304  0.3358  0.2774
  426SOL    HW1 1277   0.141   2.693   2.851  2.3527 -1.2871  2.2376
  426SOL    HW2 1278   0.026   2.567   2.877 -0.7707  1.3529  0.5624
  427SOL     OW 1279   1.139   0.523   0.006 -0.0590  0.2097 -0.4338
  427SOL    HW1 1280   1.170   0.518   0.103 -1.8453  1.2651 -1.2753
  427SOL    HW2 1281   1.151   0.442   3.029  2.3786  2.2222  0.5104
  428SOL     OW 1282   2.896   0.735   1.457  0.1832  0.5528  0.5606
  428SOL    HW1 1283   2.863   0.794   1.532  0.6990  1.0882 -0.3816
  428SOL    HW2 1284   2.900   0.638   1.481  0.1560 -0.5069 -1.9988
  429SOL     OW 1285   2.122   2.771   1.291 -0.5522 -1.0987 -0.2796
  429SOL    HW1 1286   2.027   2.808   1.281 -0.1681  0.7594 -2.7194
  429SOL    HW2 1287   2.131   2.695   1.223  0.9874  1.3062  0.1814
  430SOL     OW 1288   1.192   1.607   2.412  0.0837  1.1181  0.9082
  430SOL    HW1 1289   1.130   1.539   2.453  0.0658  0.3326 -1.1609
  430SOL    HW2 1290   1.279   1.564   2.372  1.1199  1.9568  0.2372
  431SOL     OW 1291   2.659   1.801   1.231  0.3320 -0.5963  0.1906
  431SOL    HW1 1292   2.758   1.797   1.210  1.1642  0.3781 -1.3922
  431SOL    HW2 1293   2.644   1.854   1.317  0.6206  0.7693  1.4139
  432SOL     OW 1294   1.173   2.780   2.473 -0.7121 -0.6170  0.4976
  432SOL    HW1 1295   1.194   2.679   2.455 -0.6291 -1.8920 -0.5973
  432SOL    HW2 1296   1.185   2.801   2.571 -0.1823 -2.0806  1.4940
  433SOL     OW 1297   1.952   0.289   2.163  0.2536  0.2330  0.5376
  433SOL    HW1 1298   2.007   0.236   2.230 -0.7769 -1.3650 -0.5954
  433SOL    HW2 1299   1.954   0.389   2.195 -2.0114  1.1003  0.2525
  434SOL     OW 1300   0.369   2.348   2.256 -0.2278  0.0958  0.2218
  434SOL    HW1 1301   0.438   2.389   2.322  0.5327  0.4646  1.2436
  434SOL    HW2 1302   0.351   2.252   2.273  1.6464 -1.3295 -2.0899
  435SOL     OW 1303   0.220   2.988   0.267  0.3116  0.3502  0.3102
  435SOL    HW1 1304   0.211   0.012   0.272  0.7294  1.6386  1.5720
  435SOL    HW2 1305   0.295   2.962   0.329 -1.3326 -0.8208 -0.4279
  436SOL     OW 1306   0.559   0.944   2.157  0.0726 -0.0567  0.5626
  436SOL    HW1 1307   0.474   0.920   2.109 -0.9578 -2.0890 -1.4238
  436SOL    HW2 1308   0.623   0.866   2.169 -0.3014  0.0692  1.2539
  437SOL     OW 1309   0.565   2.332   2.795 -0.1876  0.5382  0.3363
  437SOL    HW1 1310   0.513   2.404   2.748  2.4073  1.0810 -1.2275
  437SOL    HW2 1311   0.496   2.268   2.836 -0.6976 -0.6457 -0.7651
  438SOL     OW 1312   0.936   0.915   0.955  0.3746  0.2404 -0.2355
  438SOL    HW1 1313   0.884   1.001   0.944  1.2325 -2.3625 -0.9463
  438SOL    HW2 1314   1.036   0.934   0.970 -0.2312 -0.9950 -0.3641
  439SOL     OW 1315   2.609   1.400   2.383  0.2785 -0.5094  0.3135
  439SOL    HW1 1316   2.630   1.305   2.355 -1.8930 -1.0142 -2.0326
  439SOL    HW2 1317   2.535   1.441   2.323 -0.2709 -0.5902 -0.4679
  440SOL     OW 1318   0.195   0.520   3.070  0.9963  0.2357 -0.7184
  440SOL    HW1 1319   0.133   0.469   0.059 -1.0379 -1.1906  2.2303
  440SOL    HW2 1320   0.190   0.481   2.976 -1.0533  1.5339 -0.7212
  441SOL     OW 1321   0.718   1.868   1.387 -0.5688  0.0015  0.2450
  441SOL    HW1 1322   0.750   1.938   1.458 -0.1943  2.6941 -0.0794
  441SOL    HW2 1323   0.803   1.819   1.354  2.5063 -3.5384 -2.4800
  442SOL     OW 1324   1.597   1.461   0.882 -0.4702  0.1012 -0.0499
  442SOL    HW1 1325   1.622   1.379   0.944  0.6685 -1.4645  1.3937
  442SOL    HW2 1326   1.551   1.436   0.797  0.4509  1.2064  0.0234
  443SOL     OW 1327   2.291   2.078   2.565  0.0679  0.8333  0.2109
  443SOL    HW1 1328   2.388   2.052   2.583  0.6491  1.7351 -0.0148
  443SOL    HW2 1329   2.259   2.161   2.612  1.2275 -1.1117 -0.0864
  444SOL     OW 1330   1.951   1.653   2.853 -0.3369 -0.0980 -0.5675
  444SOL    HW1 1331   1.878   1.722   2.854  0.2088  1.2744 -0.5474
  444SOL    HW2 1332   2.046   1.695   2.856 -0.5586 -1.3926 -0.0597
  445SOL     OW 1333   2.823   2.661   1.924 -0.2297 -0.2481  0.2250
  445SOL    HW1 1334   2.888   2.621   1.996  2.4238 -2.2579 -2.2615
  445SOL    HW2 1335   2.725   2.668   1.955 -0.5351  1.7783 -1.6306
  446SOL     OW 1336   1.071   0.902   1.922  0.6550 -0.4433 -0.2948
  446SOL    HW1 1337   1.142   0.832   1.945  1.6877  1.7736  1.6946
  446SOL    HW2 1338   0.984   0.858   1.888  1.0502 -1.4472 -1.8092
  447SOL     OW 1339   0.863   0.687   1.077 -0.1835  0.4567 -0.2370
  447SOL    HW1 1340   0.894   0.608   1.018  0.5294 -2.9977  1.4782
  447SOL    HW2 1341   0.899   0.776   1.043 -0.8709  1.3716  2.5298
  448SOL     OW 1342   1.104   1.197   2.481 -0.7216  0.1041 -0.2667
  448SOL    HW1 1343   1.165   1.217   2.404 -2.1368  0.7480  1.3415
  448SOL    HW2 1344   1.063   1.280   2.524 -0.5111  0.3640 -1.1648
  449SOL     OW 1345   3.054   2.093   2.398 -0.0793 -0.6824  0.2255
  449SOL    HW1 1346   0.017   2.012   2.439  1.7554 -2.5900  0.4526
  449SOL    HW2 1347   3.065   2.093   2.299 -2.6801  1.0038  1.2068
  450SOL     OW 1348   2.199   1.711   1.792 -0.4189 -0.0700 -0.2537
  450SOL    HW1 1349   2.273   1.772   1.838  2.1701  0.6208  0.0626
  450SOL    HW2 1350   2.113   1.766   1.788 -2.1970  0.7189 -0.4206
  451SOL     OW 1351   2.659   1.373   1.322 -0.0129  0.2175 -0.3695
  451SOL    HW1 1352   2.753   1.399   1.292  0.6094  0.3252  0.8595
  451SOL    HW2 1353   2.662   1.278   1.357 -2.7350 -3.4616 -0.8648
  452SOL     OW 1354   0.614   1.042   1.584 -0.2710 -0.0344 -0.4342
  452SOL    HW1 1355   0.569   0.967   1.636  0.2830  1.3016 -1.7870
  452SOL    HW2 1356   0.634   1.016   1.491 -0.9981  1.1470 -0.3647
  453SOL     OW 1357   0.290   1.060   0.735 -0.1780  0.4134  0.2246
  453SOL    HW1 1358   0.238   1.054   0.645 -1.2414 -0.2058 -0.5593
  453SOL    HW2 1359   0.244   1.130   0.794 -0.1033  0.3104  1.7804
  454SOL     OW 1360   0.772   1.720   0.146 -0.0342 -0.1247  0.7982
  454SOL    HW1 1361   0.792   1.795   0.079 -1.9391 -1.4666 -1.0784
  454SOL    HW2 1362   0.678   1.727   0.181  0.2651  0.3536 -1.9475
  455SOL     OW 1363   1.649   0.678   1.207  0.2599 -0.4222 -0.4897
  455SOL    HW1 1364   1.659   0.726   1.300 -0.7386 -0.1551  0.9609
  455SOL    HW2 1365   1.748   0.666   1.177  0.3331  0.8703  2.3108
  456SOL     OW 1366   1.893   2.842   0.986 -0.6026  0.1395 -0.1838
  456SOL    HW1 1367   1.934   2.757   0.950 -2.1025 -0.6347  0.2462
  456SOL    HW2 1368   1.898   2.853   1.089 -0.1869  1.0435 -0.0728
  457SOL     OW 1369   2.106   0.343   2.503 -0.6544  0.0605 -1.0414
  457SOL    HW1 1370   2.134   0.433   2.462 -0.5374  0.5335  0.9373
  457SOL    HW2 1371   2.069   0.277   2.437  0.1952  0.3391  1.0562
  458SOL     OW 1372   2.554   0.796   2.551 -0.5601 -0.0177  0.1695
  458SOL    HW1 1373   2.528   0.874   2.488 -0.5296  1.6618  1.7663
  458SOL    HW2 1374   2.650   0.807   2.593 -0.2615 -0.3840  3.3515
  459SOL     OW 1375   2.892   1.714   1.966 -0.2239 -0.0921 -1.2095
  459SOL    HW1 1376   2.923   1.614   1.973  1.0758  0.0979  0.1638
  459SOL    HW2 1377   2.795   1.734   1.998 -1.4863  1.9065 -2.1587
  460SOL     OW 1378   0.528   0.865   2.996 -0.3596 -0.0077  0.3347
  460SOL    HW1 1379   0.619   0.885   2.960  1.7012 -1.6668  0.8823
  460SOL    HW2 1380   0.479   0.803   2.930 -0.0075  1.6772 -0.0345
  461SOL     OW 1381   3.040   2.322   0.425 -0.2739  0.5003 -0.4545
  461SOL    HW1 1382   2.941   2.360   0.428 -2.0117  1.8540  0.6400
  461SOL    HW2 1383   3.036   2.219   0.409  1.8402 -1.5705 -0.5897
  462SOL     OW 1384   0.293   2.538   1.450 -0.4876 -0.3696 -0.3342
  462SOL    HW1 1385   0.190   2.554   1.462 -2.0680  2.4980  1.1494
  462SOL    HW2 1386   0.324   2.452   1.492  0.0270 -2.0317 -0.0520
  463SOL     OW 1387   1.703   2.118   1.929 -0.2494  0.2107  0.6309
  463SOL    HW1 1388   1.734   2.104   1.834 -0.5311 -0.6600 -0.3193
  463SOL    HW2 1389   1.747   2.203   1.966 -2.4874  0.2742  2.1545
  464SOL     OW 1390   2.907   2.762   0.768  0.3589  0.0313  0.0478
  464SOL    HW1 1391   2.843   2.841   0.762 -1.3100  0.3582  2.3417
  464SOL    HW2 1392   2.958   2.751   0.851 -0.3063  0.2119 -1.5492
  465SOL     OW 1393   0.325   0.136   1.473  0.2321  0.3429  0.1507
  465SOL    HW1 1394   0.266   0.117   1.554  0.8630  0.2028 -1.0729
  465SOL    HW2 1395   0.382   0.217   1.488 -2.0270  0.3872  0.3561
  466SOL     OW 1396   1.182   2.499   2.432  0.3237 -0.0591 -0.2040
  466SOL    HW1 1397   1.177   2.481   2.333 -0.1388 -1.1148 -1.9932
  466SOL    HW2 1398   1.089   2.479   2.480 -2.2294  1.4820  0.4426
  467SOL     OW 1399   2.819   1.763   0.823 -0.8484 -0.0871  0.2938
  467SOL    HW1 1400   2.815   1.803   0.916 -4.2543  1.1093 -1.9744
  467SOL    HW2 1401   2.730   1.722   0.796  0.8876 -1.0663 -0.0177
  468SOL     OW 1402   2.086   1.923   2.665  0.2611  0.2793 -0.7386
  468SOL    HW1 1403   2.005   1.933   2.610  1.9411 -0.1835  1.6002
  468SOL    HW2 1404   2.151   1.992   2.634  0.5136  0.9074 -0.5262
  469SOL     OW 1405   1.315   2.097   0.403  0.5052 -0.0913 -0.4863
  469SOL    HW1 1406   1.401   2.156   0.410 -0.3223  1.2033  0.7451
  469SOL    HW2 1407   1.319   2.009   0.459 -1.0504  0.4802  1.8645
  470SOL     OW 1408   1.723   1.343   1.454 -0.9133  0.3125  0.0992
  470SOL    HW1 1409   1.686   1.251   1.486 -2.0329 -2.1857 -0.2426
  470SOL    HW2 1410   1.789   1.368   1.532 -1.2894 -2.0167  3.9145
  471SOL     OW 1411   0.378   2.311   0.227 -0.7810  0.1294 -0.2564
  471SOL    HW1 1412   0.338   2.396   0.192  2.4455  0.0217  0.7812
  471SOL    HW2 1413   0.472   2.296   0.187 -3.0042 -0.8028  2.2598
  472SOL     OW 1414   2.433   1.894   2.164  0.8488  0.4261  0.3686
  472SOL    HW1 1415   2.432   1.996   2.175  0.7808 -1.9548 -0.4779
  472SOL    HW2 1416   2.445   1.853   2.260 -3.3078  0.8199  2.1113
  473SOL     OW 1417   1.159   2.091   0.776  0.4890 -0.1282  0.6217
  473SOL    HW1 1418   1.139   2.153   0.698 -0.7073 -1.1010  2.0642
  473SOL    HW2 1419   1.125   2.130   0.863 -0.1310 -2.1171 -1.3497
  474SOL     OW 1420   3.020   0.375   1.172 -0.0565 -0.4090  0.7320
  474SOL    HW1 1421   3.038   0.365   1.272 -0.5750 -2.6095 -4.0487
  474SOL    HW2 1422   2.933   0.334   1.146  0.1557 -1.1412 -0.2978
  475SOL     OW 1423   2.332   2.745   1.929 -0.1606  0.2361  0.1290
  475SOL    HW1 1424   2.348   2.720   2.029 -1.1197 -0.2903 -1.5303
  475SOL    HW2 1425   2.387   2.827   1.895 -0.7740  2.9091  1.3753
  476SOL     OW 1426   0.453   0.498   0.700  0.7860  0.1518 -0.0915
  476SOL    HW1 1427   0.536   0.506   0.641 -5.0840 -0.9274  2.8583
  476SOL    HW2 1428   0.467   0.516   0.801  0.2471  0.7885  0.5172
  477SOL     OW 1429   0.838   1.872   0.851  0.2207 -0.2828  0.1197
  477SOL    HW1 1430   0.926   1.829   0.826  1.9275  1.0101 -0.1466
  477SOL    HW2 1431   0.827   1.965   0.806  1.7923  1.8059 -0.8770
  478SOL     OW 1432   1.054   2.401   2.815  0.7004  0.3556 -0.2167
  478SOL    HW1 1433   0.964   2.363   2.786 -1.0125  0.8828 -1.4220
  478SOL    HW2 1434   1.129   2.348   2.785 -1.3300  2.7705  1.8117
  479SOL     OW 1435   2.959   1.025   1.701 -0.4614 -0.3797  0.7370
  479SOL    HW1 1436   2.878   0.960   1.699 -2.3344 -2.8136  0.8075
  479SOL    HW2 1437   2.955   1.103   1.630 -2.5249  0.9584 -2.7402
  480SOL     OW 1438   3.067   2.450   3.000  0.0946 -0.1489 -0.7202
  480SOL    HW1 1439   3.058   2.458   0.021 -3.1816  0.2326 -0.0481
  480SOL    HW2 1440   2.991   2.393   2.964  2.9374 -0.4644 -2.4097
  481SOL     OW 1441   1.595   0.056   2.227 -0.0937 -0.1401  0.2049
  481SOL    HW1 1442   1.691   0.017   2.219  1.5552 -0.2434 -0.3596
  481SOL    HW2 1443   1.592   0.148   2.189 -1.0771  2.2263 -0.7717
  482SOL     OW 1444   1.580   2.085   2.824  0.0848  0.3332  0.1794
  482SOL    HW1 1445   1.652   2.159   2.841  1.3863 -1.5242 -2.8759
  482SOL    HW2 1446   1.565   2.069   2.724 -0.5743 -1.7800 -0.2628
  483SOL     OW 1447   0.922   2.636   2.937  0.1170  0.1546  0.6561
  483SOL    HW1 1448   0.846   2.616   3.004  3.1183  0.1169 -1.4220
  483SOL    HW2 1449   0.958   2.553   2.890  1.5258 -0.5648  1.8422
  484SOL     OW 1450   0.385   2.561   1.189 -0.6614  0.3681  0.1343
  484SOL    HW1 1451   0.337   2.528   1.274  0.7716  1.8481 -0.7765
  484SOL    HW2 1452   0.435   2.654   1.208 -1.3671  3.1851 -0.5326
  485SOL     OW 1453   2.213   0.594   0.589 -0.4253 -0.5424  0.0044
  485SOL    HW1 1454   2.128   0.646   0.568 -0.9404  0.1926  1.1431
  485SOL    HW2 1455   2.293   0.654   0.604 -0.2946 -0.2308  2.3426
  486SOL     OW 1456   2.014   2.789   2.488 -0.2453 -0.1438  0.0957
  486SOL    HW1 1457   1.993   2.891   2.489  1.4922  0.9559 -0.7189
  486SOL    HW2 1458   2.105   2.770   2.526  1.2328  0.6903 -2.8365
  487SOL     OW 1459   1.023   1.398   0.717  0.0294  0.8799 -0.8395
  487SOL    HW1 1460   0.932   1.395   0.765 -1.6794 -1.6503  0.0529
  487SOL    HW2 1461   1.032   1.463   0.639 -0.9507  1.4394  0.6686
  488SOL     OW 1462   2.485   0.109   2.820 -0.3206  0.3738 -0.1164
  488SOL    HW1 1463   2.406   0.160   2.783 -0.2566 -0.2559  1.7809
  488SOL    HW2 1464   2.539   0.163   2.887  0.6408 -0.0588 -1.6923
  489SOL     OW 1465   1.831   0.181   0.544  0.4853  0.2389 -0.6468
  489SOL    HW1 1466   1.917   0.159   0.591  0.8161  0.9009 -1.9997
  489SOL    HW2 1467   1.831   0.280   0.519 -2.2465  1.4006  0.0794
  490SOL     OW 1468   1.561   0.296   2.924 -0.1828  0.4536 -0.0959
  490SOL    HW1 1469   1.577   0.339   3.015  0.8462  0.7043 -1.4721
  490SOL    HW2 1470   1.653   0.261   2.892 -1.1422  1.0618  0.9214
  491SOL     OW 1471   0.645   3.036   1.266 -0.0790  0.6140 -0.1820
  491SOL    HW1 1472   0.685   3.056   1.360  1.5156 -0.9243  1.5487
  491SOL    HW2 1473   0.723   3.030   1.198 -3.8785  0.4775 -3.0915
  492SOL     OW 1474   1.702   0.033   0.349 -0.2113 -0.2020 -0.0816
  492SOL    HW1 1475   1.753   0.089   0.419 -1.3797  1.1444  0.9098
  492SOL    HW2 1476   1.704   3.014   0.378  1.3098 -2.1940  0.4221
  493SOL     OW 1477   1.228   2.077   2.912 -0.3886  0.0791 -0.8575
  493SOL    HW1 1478   1.226   1.989   2.865 -1.0089  0.7044 -0.0847
  493SOL    HW2 1479   1.263   2.148   2.847  0.2472 -1.1609 -1.5990
  494SOL     OW 1480   0.563   0.917   1.156 -0.3081  0.4903  1.0708
  494SOL    HW1 1481   0.541   0.956   1.063  0.5663 -0.5023  0.5689
  494SOL    HW2 1482   0.589   0.820   1.148  0.2576  0.1930 -0.6713
  495SOL     OW 1483   0.001   0.410   1.511  0.1089  0.5068 -0.6627
  495SOL    HW1 1484   0.076   0.476   1.518 -0.4555 -1.1061 -1.0360
  495SOL    HW2 1485   3.003   0.461   1.542  0.9553  1.5602 -0.4270
  496SOL     OW 1486   2.163   2.367   2.091  0.3877 -0.4888  0.6992
  496SOL    HW1 1487   2.088   2.347   2.152 -0.9968 -0.8445 -1.3657
  496SOL    HW2 1488   2.227   2.428   2.136 -2.2796 -1.9517  1.6486
  497SOL     OW 1489   1.714   1.230   2.713 -0.2087  0.4230  0.2532
  497SOL    HW1 1490   1.790   1.270   2.663  0.3743 -1.9208  1.8684
  497SOL    HW2 1491   1.677   1.296   2.780  1.6969  0.1733 -0.6389
  498SOL     OW 1492   0.918   2.037   0.455 -0.0206  0.5642  0.4925
  498SOL    HW1 1493   0.917   2.119   0.513 -3.1925  1.0235 -0.5496
  498SOL    HW2 1494   0.866   1.961   0.502  0.1669 -1.1595  0.7408
  499SOL     OW 1495   0.256   1.655   0.954 -0.2525  0.0156  0.1775
  499SOL    HW1 1496   0.175   1.685   0.894 -0.0106  1.3274  1.5088
  499SOL    HW2 1497   0.312   1.585   0.903  1.7927  1.4266 -1.2936
  500SOL     OW 1498   1.403   2.732   0.478 -0.1973 -0.3410  0.7674
  500SOL    HW1 1499   1.316   2.781   0.454  1.9209 -2.6669  1.0942
  500SOL    HW2 1500   1.454   2.785   0.544  0.3537 -1.3635 -3.4282
  501SOL     OW 1501   2.004   2.609   0.898  0.2195  0.0334 -0.2174
  501SOL    HW1 1502   2.070   2.622   0.822  1.4124 -2.2963  2.8093
  501SOL    HW2 1503   1.957   2.520   0.884 -1.4242 -0.9482  0.2978
  502SOL     OW 1504   0.346   0.507   1.271 -0.1317 -0.3753 -0.6362
  502SOL    HW1 1505   0.283   0.459   1.206 -2.8699  0.8021 -1.6274
  502SOL    HW2 1506   0.328   0.605   1.248  0.9778  0.7583 -0.2671
  503SOL     OW 1507   1.985   0.006   1.724 -0.0515 -0.4790 -0.0459
  503SOL    HW1 1508   1.948   0.035   1.634  0.8890  1.5600 -1.0566
  503SOL    HW2 1509   2.079   3.049   1.714  0.2998 -0.2252 -0.8902
  504SOL     OW 1510   2.167   0.757   1.829  0.1345  0.0356  0.3151
  504SOL    HW1 1511   2.088   0.778   1.891 -1.1831  0.3638  0.4522
  504SOL    HW2 1512   2.198   0.840   1.783  0.1379 -1.5913 -1.4590
  505SOL     OW 1513   1.301   0.066   2.284 -0.4394  0.0998  0.0729
  505SOL    HW1 1514   1.290   0.084   2.383  0.5347 -0.2384 -1.9315
  505SOL    HW2 1515   1.404   0.065   2.265  2.8196  1.6795  0.6623
  506SOL     OW 1516   0.575   0.625   1.923  0.2267 -1.2970  0.0046
  506SOL    HW1 1517   0.622   0.537   1.914  1.1675  2.2445 -0.4344
  506SOL    HW2 1518   0.633   0.705   1.913 -2.0547 -1.7117  0.2797
  507SOL     OW 1519   1.669   0.362   0.070  0.4428  0.6155  0.2264
  507SOL    HW1 1520   1.654   0.409   0.158  0.7055  1.1635  0.5410
  507SOL    HW2 1521   1.769   0.358   0.057 -0.9424  0.7607  0.6324
  508SOL     OW 1522   2.252   0.461   1.890  0.2859  0.0893 -0.0915
  508SOL    HW1 1523   2.325   0.523   1.874 -1.0187  1.0575 -2.3624
  508SOL    HW2 1524   2.173   0.490   1.832 -2.6441  2.4477  0.6111
  509SOL     OW 1525   0.721   1.477   2.406 -0.3776 -0.0082 -0.1610
  509SOL    HW1 1526   0.642   1.534   2.433  0.5793  0.8841 -2.8672
  509SOL    HW2 1527   0.712   1.449   2.306  1.2828  1.5532 -1.3662
  510SOL     OW 1528   2.746   0.565   0.655  0.1107 -0.0545  0.4584
  510SOL    HW1 1529   2.730   0.648   0.599  1.2371 -1.8302  0.5212
  510SOL    HW2 1530   2.845   0.552   0.669  0.8263 -0.8334  1.3158
  511SOL     OW 1531   1.470   1.451   1.475  0.2539 -0.4725  0.2981
  511SOL    HW1 1532   1.474   1.538   1.535  1.5593  0.8206  1.3435
  511SOL    HW2 1533   1.564   1.415   1.466 -1.1328  2.6374  3.5365
  512SOL     OW 1534   0.458   1.587   0.600  0.3322  0.1074 -0.0616
  512SOL    HW1 1535   0.497   1.541   0.523 -1.7034  1.8562  3.3263
  512SOL    HW2 1536   0.457   1.686   0.573  0.2142 -0.4783 -0.4407
  513SOL     OW 1537   0.562   2.249   0.938 -0.4747 -0.3442  0.4479
  513SOL    HW1 1538   0.615   2.204   0.860  2.3311  0.1026  0.1268
  513SOL    HW2 1539   0.623   2.249   1.016  3.9210 -1.9461  0.1900
  514SOL     OW 1540   0.423   2.128   0.435 -0.7112  0.0332  0.5027
  514SOL    HW1 1541   0.441   2.184   0.518  0.6968  0.1720  0.8823
  514SOL    HW2 1542   0.409   2.197   0.360  2.5434  1.9439  0.7516
  515SOL     OW 1543   0.278   2.985   0.002  0.2462 -1.0188 -0.2475
  515SOL    HW1 1544   0.220   3.070   3.074  1.0619  0.7144  1.5971
  515SOL    HW2 1545   0.266   2.940   0.091  1.3293 -1.5701 -1.8781
  516SOL     OW 1546   2.134   3.065   1.375  0.1097  0.2746  0.1436
  516SOL    HW1 1547   2.053   0.039   1.398  2.2946  0.3307 -0.2859
  516SOL    HW2 1548   2.113   2.973   1.338  2.7281 -0.3083 -0.0307
  517SOL     OW 1549   1.645   1.424   0.482 -0.4142 -0.1996 -0.3524
  517SOL    HW1 1550   1.685   1.488   0.550  1.3080  2.0439 -0.9320
  517SOL    HW2 1551   1.574   1.381   0.542  0.2052  1.6961  2.3042
  518SOL     OW 1552   1.324   0.081   0.973 -0.4311  0.0193 -0.1935
  518SOL    HW1 1553   1.226   0.083   0.977  2.3377  3.7867  0.6643
  518SOL    HW2 1554   1.350   0.039   0.881  0.2903 -3.6772 -1.2802
  519SOL     OW 1555   2.753   2.338   0.473  0.1604  0.7234  0.1107
  519SOL    HW1 1556   2.761   2.264   0.547  0.1280 -2.9911 -2.5739
  519SOL    HW2 1557   2.780   2.426   0.504 -1.2463 -2.8836 -1.6914
  520SOL     OW 1558   1.852   2.339   2.037  0.4456 -0.0694 -0.7072
  520SOL    HW1 1559   1.912   2.421   2.028  0.0143 -0.5835 -2.4526
  520SOL    HW2 1560   1.771   2.362   2.095  3.2953 -3.3388  2.2588
  521SOL     OW 1561   1.434   2.969   2.062 -0.4783 -0.3555  0.1395
  521SOL    HW1 1562   1.392   2.913   2.137 -0.4049  1.3449 -0.9033
  521SOL    HW2 1563   1.488   3.046   2.099  2.5523 -1.8644  1.2452
  522SOL     OW 1564   2.884   2.832   1.732  0.3646 -0.4059 -0.0068
  522SOL    HW1 1565   2.849   2.799   1.643  1.5317 -0.2110 -2.5389
  522SOL    HW2 1566   2.886   2.759   1.810  0.6827 -1.9534  1.2396
  523SOL     OW 1567   0.806   2.059   1.540 -0.5499 -0.4589  0.0406
  523SOL    HW1 1568   0.756   2.147   1.520 -0.5832  0.4174  0.5528
  523SOL    HW2 1569   0.898   2.063   1.499  0.8146 -1.0292 -0.6286
  524SOL     OW 1570   2.208   2.192   0.080 -0.4881  0.4691  0.5248
  524SOL    HW1 1571   2.117   2.148   0.098  1.6855  2.7832  0.8705
  524SOL    HW2 1572   2.254   2.197   0.173 -2.1366  1.9298  3.0509
  525SOL     OW 1573   2.810   0.648   0.052 -0.2926  0.0601 -0.2914
  525SOL    HW1 1574   2.855   0.556   0.069 -0.9861  0.8718 -2.7730
  525SOL    HW2 1575   2.862   0.707   3.071  2.2784 -1.0823 -2.0326
  526SOL     OW 1576   0.583   2.772   0.613 -0.0570 -0.2391 -0.1110
  526SOL    HW1 1577   0.655   2.708   0.652 -1.3220  1.6052 -1.0138
  526SOL    HW2 1578   0.617   2.864   0.620 -0.3372  1.6025  0.8899
  527SOL     OW 1579   2.738   1.439   0.405 -0.1634 -0.7756 -0.6557
  527SOL    HW1 1580   2.825   1.433   0.460  0.2199  0.1838  2.7610
  527SOL    HW2 1581   2.669   1.379   0.449 -0.0686  0.5657 -1.8725
  528SOL     OW 1582   0.914   0.751   2.476 -0.0032  0.1531  0.6024
  528SOL    HW1 1583   0.878   0.711   2.561 -1.4340  5.1942 -2.8527
  528SOL    HW2 1584   0.851   0.797   2.409 -0.6281  0.5831 -1.5667
  529SOL     OW 1585   0.437   1.526   3.072  0.0454  0.1369 -0.6694
  529SOL    HW1 1586   0.430   1.582   0.075 -1.7920  0.4351 -1.4465
  529SOL    HW2 1587   0.384   1.559   2.993  1.4183 -2.6897 -0.1217
  530SOL     OW 1588   1.503   0.957   2.013 -0.3431  0.7499  0.6459
  530SOL    HW1 1589   1.604   0.962   2.018  0.6410  1.4189  1.4415
  530SOL    HW2 1590   1.472   0.893   2.082  2.1470 -2.2001  0.4504
  531SOL     OW 1591   0.990   2.113   3.063  0.6853  0.0489  0.4286
  531SOL    HW1 1592   1.061   2.071   3.006  0.1835  0.3211  0.2933
  531SOL    HW2 1593   1.038   2.140   0.064  0.6865 -0.2273 -0.0934
  532SOL     OW 1594   2.254   1.131   2.426  0.0196  0.2662 -0.2022
  532SOL    HW1 1595   2.178   1.077   2.465  0.4058 -0.7096  2.0531
  532SOL    HW2 1596   2.275   1.208   2.489 -1.0605  1.5932 -0.9241
  533SOL     OW 1597   0.033   0.214   1.771  0.0781  0.1930  0.2537
  533SOL    HW1 1598   0.052   0.121   1.727  2.4450 -1.1475 -0.9312
  533SOL    HW2 1599   3.066   0.273   1.703 -0.5347 -0.8539 -1.3014
  534SOL     OW 1600   1.968   0.040   0.229  0.0485 -0.5614  0.4095
  534SOL    HW1 1601   2.026   0.081   0.154  0.1766  0.3334  0.7633
  534SOL    HW2 1602   1.878   0.093   0.240 -3.1530  2.7598  0.8214
  535SOL     OW 1603   0.544   2.993   3.016  0.1892 -0.2547  0.0797
  535SOL    HW1 1604   0.570   0.010   3.019 -1.1664  1.1900  0.3872
  535SOL    HW2 1605   0.440   2.982   3.008 -2.2600 -1.1664 -1.3846
  536SOL     OW 1606   0.560   1.767   1.593 -0.0704  0.0273  0.0038
  536SOL    HW1 1607   0.481   1.716   1.559  1.7572 -2.2489  0.3426
  536SOL    HW2 1608   0.610   1.826   1.526  0.6470  0.1096 -0.2254
  537SOL     OW 1609   0.022   2.562   1.501 -0.2522 -0.6215 -0.7738
  537SOL    HW1 1610   3.061   2.631   1.438  2.4612  5.1056 -2.5341
  537SOL    HW2 1611   3.059   2.557   1.594 -0.2738 -1.0862  2.4024
  538SOL     OW 1612   2.940   2.079   0.310 -0.6372 -0.3964 -0.1441
  538SOL    HW1 1613   2.864   2.131   0.273  1.9230  0.7744 -0.4263
  538SOL    HW2 1614   2.924   1.977   0.295  0.1365 -0.2099 -0.4298
  539SOL     OW 1615   2.490   0.996   2.375  0.5151  0.2167 -0.0973
  539SOL    HW1 1616   2.414   1.058   2.409 -0.4200  2.7279 -0.2565
  539SOL    HW2 1617   2.562   1.049   2.325  0.2526 -2.2876  2.0861
  540SOL     OW 1618   1.824   0.997   2.969 -0.2864  0.1670  0.0895
  540SOL    HW1 1619   1.756   1.016   2.898 -1.5499 -0.4008 -0.2038
  540SOL    HW2 1620   1.815   1.061   3.044 -0.7077 -0.1031 -1.1210
  541SOL     OW 1621   0.765   0.504   2.603 -0.5335 -0.0245 -0.1541
  541SOL    HW1 1622   0.807   0.434   2.540  0.3762 -1.0789 -0.8346
  541SOL    HW2 1623   0.693   0.552   2.551  0.0078  2.0694 -0.3430
  542SOL     OW 1624   1.550   2.653   2.252  0.1195 -0.0137 -0.8719
  542SOL    HW1 1625   1.458   2.694   2.233  1.4590 -0.0439  0.5493
  542SOL    HW2 1626   1.622   2.693   2.187  3.1965 -2.3229 -0.3712
  543SOL     OW 1627   0.929   2.708   0.494  0.0092 -0.2519 -0.0240
  543SOL    HW1 1628   0.993   2.655   0.435 -2.8718  0.2640  1.3997
  543SOL    HW2 1629   0.902   2.651   0.579 -0.8839 -0.9178 -0.7661
  544SOL     OW 1630   2.797   1.911   2.410  0.1276  0.2751 -0.7541
  544SOL    HW1 1631   2.743   1.846   2.468 -1.6595  1.8590 -0.8222
  544SOL    HW2 1632   2.876   1.870   2.365 -0.4216  0.7039 -1.8523
  545SOL     OW 1633   1.470   2.025   1.519  0.5489 -0.1172 -0.0210
  545SOL    HW1 1634   1.408   2.005   1.596 -0.5805 -0.8299 -4.1999
  545SOL    HW2 1635   1.416   2.017   1.429  0.3617  1.8095 -0.8936
  546SOL     OW 1636   0.389   0.276   2.482  0.1705  1.0149  0.1178
  546SOL    HW1 1637   0.486   0.305   2.492 -0.4012  1.3291 -0.7581
  546SOL    HW2 1638   0.370   0.179   2.458 -0.3943 -1.9805 -0.2419
  547SOL     OW 1639   0.920   0.250   0.578  0.3237  0.4161 -0.4885
  547SOL    HW1 1640   0.856   0.280   0.503 -1.2247 -0.2198 -0.3362
  547SOL    HW2 1641   1.004   0.311   0.571  2.8380  2.6232 -2.2074
  548SOL     OW 1642   1.449   1.997   3.060  0.2849  0.0256  0.0440
  548SOL    HW1 1643   1.356   2.022   3.026 -0.9766  0.2039 -1.6446
  548SOL    HW2 1644   1.515   1.988   2.984  1.8728  1.1971  0.9069
  549SOL     OW 1645   2.073   1.021   0.285 -0.1623  0.3217  0.1490
  549SOL    HW1 1646   2.044   1.118   0.294 -1.0671 -0.6182  0.2956
  549SOL    HW2 1647   2.169   1.013   0.315 -1.9929  0.8204 -1.5283
  550SOL     OW 1648   2.529   2.157   0.569  0.0600  0.0706 -0.3117
  550SOL    HW1 1649   2.548   2.157   0.467  1.8015 -1.8024  0.5323
  550SOL    HW2 1650   2.616   2.170   0.620  1.3318  0.8309 -0.1694
  551SOL     OW 1651   1.177   0.315   1.423 -0.6923  0.4617 -0.4072
  551SOL    HW1 1652   1.252   0.271   1.372 -0.5634 -0.9632 -1.6178
  551SOL    HW2 1653   1.109   0.248   1.444 -0.1725  1.0334 -1.7179
  552SOL     OW 1654   2.858   1.851   2.753 -0.0256 -0.3803 -0.3979
  552SOL    HW1 1655   2.866   1.768   2.692 -0.3602  1.2821  1.9257
  552SOL    HW2 1656   2.879   1.845   2.854 -0.0054  0.6875  0.5451
  553SOL     OW 1657   2.619   2.748   0.700 -0.3533 -0.4761  0.5800
  553SOL    HW1 1658   2.609   2.800   0.612  0.1726  0.2861  0.8026
  553SOL    HW2 1659   2.715   2.707   0.695 -1.1169  0.6732 -2.1374
  554SOL     OW 1660   1.969   1.083   1.658  0.7714  0.8824 -0.0610
  554SOL    HW1 1661   2.005   1.048   1.572 -1.2557  2.5278  1.0530
  554SOL    HW2 1662   1.919   1.167   1.635  1.2917 -1.3127 -0.9754
  555SOL     OW 1663   1.118   2.181   1.960 -0.1320  0.0835  0.0834
  555SOL    HW1 1664   1.076   2.275   1.950 -3.5787 -0.8952 -0.5967
  555SOL    HW2 1665   1.104   2.125   1.877  2.2059  1.3524 -0.3995
  556SOL     OW 1666   1.253   1.567   1.875 -0.0161 -0.1227 -0.0701
  556SOL    HW1 1667   1.318   1.644   1.878  1.7514 -1.8640 -1.4849
  556SOL    HW2 1668   1.302   1.482   1.883 -0.9967 -0.9651 -2.1683
  557SOL     OW 1669   1.599   0.021   1.576 -0.0649 -0.0083 -0.0873
  557SOL    HW1 1670   1.548   3.014   1.585  0.4339  1.8225 -0.6374
  557SOL    HW2 1671   1.658   0.026   1.491  0.2764  0.6258 -0.6091
  558SOL     OW 1672   0.854   2.992   2.133 -0.4077  0.0336 -0.2818
  558SOL    HW1 1673   0.815   2.900   2.129 -0.6889  0.4965  1.1662
  558SOL    HW2 1674   0.854   3.045   2.044 -1.6794 -0.8062 -0.6390
  559SOL     OW 1675   1.723   2.615   0.457  0.2931 -0.3675 -0.0590
  559SOL    HW1 1676   1.636   2.609   0.400 -0.4299 -0.1370 -1.2824
  559SOL    HW2 1677   1.727   2.541   0.529  1.5024 -2.7948 -0.2372
  560SOL     OW 1678   1.658   1.980   0.240  0.0285 -0.3569  0.0680
  560SOL    HW1 1679   1.662   1.901   0.177  1.2968 -0.0983  0.9835
  560SOL    HW2 1680   1.613   2.066   0.193  2.1714  1.5199 -0.6368
  561SOL     OW 1681   1.508   0.213   0.599  0.0328  0.5620 -0.4292
  561SOL    HW1 1682   1.586   0.144   0.576 -0.3679 -3.2311 -0.1243
  561SOL    HW2 1683   1.411   0.180   0.583  2.3192 -0.1602  0.4699
  562SOL     OW 1684   0.394   1.220   1.884  0.5815 -0.1703  0.2691
  562SOL    HW1 1685   0.379   1.303   1.827 -1.2366 -3.4672 -2.2463
  562SOL    HW2 1686   0.471   1.228   1.947  1.9372 -0.1766 -0.5053
  563SOL     OW 1687   1.260   2.245   2.696 -0.3723 -0.8597 -0.0724
  563SOL    HW1 1688   1.212   2.192   2.622  0.4017 -2.7713 -1.2965
  563SOL    HW2 1689   1.326   2.312   2.651 -2.5261  2.0592 -2.4357
  564SOL     OW 1690   2.986   0.842   0.847 -0.0481  0.1407 -0.0803
  564SOL    HW1 1691   3.039   0.862   0.935  0.3940  0.4486 -1.4486
  564SOL    HW2 1692   3.019   0.759   0.797  0.1401 -1.8756 -0.1160
  565SOL     OW 1693   0.607   1.351   0.047  0.2554 -0.1580 -0.1111
  565SOL    HW1 1694   0.529   1.420   0.029  0.2947 -0.5603 -0.6155
  565SOL    HW2 1695   0.687   1.400   0.071 -2.9132 -1.2246  0.1710
  566SOL     OW 1696   2.377   2.603   2.778  0.1474  0.3555 -0.1975
  566SOL    HW1 1697   2.453   2.591   2.848  1.9008 -1.4599 -1.2813
  566SOL    HW2 1698   2.292   2.555   2.810 -1.9720  0.0976  0.6281
  567SOL     OW 1699   1.257   1.314   1.598  0.0379 -0.7920  0.4505
  567SOL    HW1 1700   1.341   1.365   1.573 -0.5327  0.5443 -3.2696
  567SOL    HW2 1701   1.269   1.272   1.689 -0.1541  2.5327  0.8723
  568SOL     OW 1702   1.387   1.293   2.744 -0.1779  0.0915  0.1665
  568SOL    HW1 1703   1.409   1.194   2.751  0.8199  0.7928  0.0549
  568SOL    HW2 1704   1.462   1.339   2.798 -2.5043 -1.3230  1.9970
  569SOL     OW 1705   1.933   1.690   0.545 -0.2897  0.1682 -0.0871
  569SOL    HW1 1706   1.927   1.791   0.525 -0.8025  0.4006 -0.7311
  569SOL    HW2 1707   1.847   1.657   0.592 -1.1136 -1.7291  1.8404
  570SOL     OW 1708   2.711   2.129   2.254  0.0558 -0.2154 -0.8165
  570SOL    HW1 1709   2.775   2.194   2.210 -0.6788  0.6774  0.8402
  570SOL    HW2 1710   2.768   2.053   2.289  3.0158 -1.2717 -0.3750
  571SOL     OW 1711   2.854   1.837   1.726 -0.2579  0.1808  0.7581
  571SOL    HW1 1712   2.897   1.793   1.643  0.5455 -2.1497 -3.1109
  571SOL    HW2 1713   2.882   1.781   1.805  0.7347  2.1187 -0.4182
  572SOL     OW 1714   1.527   2.614   0.255 -0.2464  0.0538 -0.2460
  572SOL    HW1 1715   1.463   2.680   0.296  2.0569 -0.4814  0.6874
  572SOL    HW2 1716   1.476   2.541   0.208  1.0930  2.9966  0.8863
  573SOL     OW 1717   1.327   1.843   0.526  0.1811 -0.1821 -0.0418
  573SOL    HW1 1718   1.421   1.822   0.562  2.9527 -1.1874 -0.2045
  573SOL    HW2 1719   1.263   1.842   0.602  0.7405  0.1257 -1.9568
  574SOL     OW 1720   1.182   2.898   1.633  0.0022 -0.3082  0.0897
  574SOL    HW1 1721   1.220   2.981   1.676 -1.1253  0.5256 -3.5116
  574SOL    HW2 1722   1.096   2.877   1.683  0.2099 -2.3551  0.0242
  575SOL     OW 1723   0.968   0.714   1.326  0.2238  0.2984  0.2818
  575SOL    HW1 1724   0.917   0.694   1.238 -0.9878 -0.9411  0.9849
  575SOL    HW2 1725   0.908   0.760   1.392  0.5704 -0.9620  2.0359
  576SOL     OW 1726   2.792   0.218   1.075  0.6080  0.2032 -0.7595
  576SOL    HW1 1727   2.762   0.256   0.986  1.4130 -0.2556  0.1492
  576SOL    HW2 1728   2.706   0.208   1.134 -2.1233 -0.6401  0.2589
  577SOL     OW 1729   2.283   0.743   2.558  0.6413 -0.2094 -0.8519
  577SOL    HW1 1730   2.229   0.787   2.632 -0.4914  1.1629 -0.6367
  577SOL    HW2 1731   2.384   0.761   2.568  0.7924  0.4454 -1.9581
  578SOL     OW 1732   1.970   1.680   2.322  0.5451  0.1446  0.8822
  578SOL    HW1 1733   1.904   1.611   2.345  1.3894 -0.5055 -1.5389
  578SOL    HW2 1734   1.928   1.768   2.311  2.5535 -2.7891 -0.0305
  579SOL     OW 1735   0.564   1.395   0.975  0.1820 -0.5898 -0.3103
  579SOL    HW1 1736   0.598   1.472   1.032 -1.8580  0.1774 -0.3393
  579SOL    HW2 1737   0.471   1.421   0.934 -1.1309  1.9347 -1.8214
  580SOL     OW 1738   1.362   2.423   0.119  0.3101 -0.2424  0.2351
  580SOL    HW1 1739   1.279   2.387   0.167  0.9800  0.3209 -1.3621
  580SOL    HW2 1740   1.350   2.438   0.018 -0.5196 -0.3666 -2.5302
  581SOL     OW 1741   0.981   0.617   2.056  0.0128  0.2921  0.1679
  581SOL    HW1 1742   0.959   0.579   2.147  0.6336  0.4195 -0.8632
  581SOL    HW2 1743   1.082   0.645   2.048 -2.3955 -0.8673  1.1303
  582SOL     OW 1744   0.486   1.079   0.950 -0.4789 -0.0375  0.4514
  582SOL    HW1 1745   0.409   1.051   0.887  0.4014 -2.7258 -3.6296
  582SOL    HW2 1746   0.499   1.180   0.957  0.4130 -0.2080  1.5760
  583SOL     OW 1747   1.028   1.609   2.020  0.5736 -0.5666 -0.3696
  583SOL    HW1 1748   0.970   1.528   1.989  2.9511 -2.7054 -0.1242
  583SOL    HW2 1749   1.124   1.598   2.003 -3.8876  1.0192 -0.8462
  584SOL     OW 1750   2.243   2.753   0.440  0.1165  0.5457 -0.0540
  584SOL    HW1 1751   2.341   2.732   0.423  0.4613 -0.8566 -0.0191
  584SOL    HW2 1752   2.218   2.714   0.529 -0.0760 -0.9708  0.0558
  585SOL     OW 1753   1.843   0.737   2.959  0.0984 -0.1875 -0.4289
  585SOL    HW1 1754   1.848   0.838   2.969  0.0305 -0.4009 -0.3053
  585SOL    HW2 1755   1.756   0.704   3.002 -0.4650 -1.6259 -2.9530
  586SOL     OW 1756   0.115   1.758   0.580  0.7172 -0.3483  0.3664
  586SOL    HW1 1757   0.070   1.749   0.490 -0.6441  0.8873  2.6343
  586SOL    HW2 1758   0.209   1.784   0.570 -0.5560  0.6036  2.0549
  587SOL     OW 1759   1.647   2.118   0.803  0.4195 -0.4139 -0.0795
  587SOL    HW1 1760   1.725   2.155   0.752  1.9942 -0.8129  2.4159
  587SOL    HW2 1761   1.673   2.057   0.881 -2.3038  1.0206  1.9788
  588SOL     OW 1762   0.484   0.631   0.924  0.0791  0.1945 -0.1961
  588SOL    HW1 1763   0.539   0.598   1.007  2.8281 -2.8718  1.7800
  588SOL    HW2 1764   0.529   0.707   0.873 -0.6761 -1.8954 -2.0602
  589SOL     OW 1765   1.050   0.136   0.992  0.2005  0.2524 -0.2822
  589SOL    HW1 1766   0.965   0.149   0.933  2.8909 -1.6450  0.9204
  589SOL    HW2 1767   1.039   0.198   1.076 -1.4342  1.0699 -1.8188
  590SOL     OW 1768   1.382   0.877   0.351  0.3977  0.2540  0.4286
  590SOL    HW1 1769   1.296   0.866   0.406 -0.8378 -1.5175 -0.2116
  590SOL    HW2 1770   1.436   0.795   0.366 -0.1311 -0.7087 -1.1256
  591SOL     OW 1771   2.593   2.551   2.118 -0.1832 -0.0295  0.5044
  591SOL    HW1 1772   2.602   2.508   2.025  2.7237  1.2201  0.2722
  591SOL    HW2 1773   2.620   2.490   2.196 -0.4206  0.1226  2.4320
  592SOL     OW 1774   1.502   1.872   1.186 -0.5892  0.2156 -0.3466
  592SOL    HW1 1775   1.561   1.893   1.110 -0.8718 -1.2222  0.0010
  592SOL    HW2 1776   1.450   1.957   1.216 -4.0483  1.3376 -1.2761
  593SOL     OW 1777   1.064   2.983   0.807  0.2616  0.1973  0.6048
  593SOL    HW1 1778   1.031   2.902   0.852  5.8082  0.9382 -2.5537
  593SOL    HW2 1779   1.044   3.063   0.869 -0.4858  0.7313  0.1583
  594SOL     OW 1780   0.307   0.971   1.815  0.6132  0.6093  0.1737
  594SOL    HW1 1781   0.382   0.915   1.777 -0.9022  2.7342 -0.0889
  594SOL    HW2 1782   0.352   1.054   1.852  0.5212 -1.6651  0.3946
  595SOL     OW 1783   0.053   2.765   0.929 -0.0077 -0.1346  0.3923
  595SOL    HW1 1784   0.108   2.684   0.898 -4.5927  0.8292 -2.3892
  595SOL    HW2 1785   0.117   2.841   0.958 -0.3350  0.6261  3.0748
  596SOL     OW 1786   0.105   0.641   1.597  0.3710  0.0376 -0.0267
  596SOL    HW1 1787   0.191   0.616   1.638  1.0813 -0.2647 -1.6053
  596SOL    HW2 1788   0.062   0.717   1.653 -0.5151  3.1334 -0.2037
  597SOL     OW 1789   1.889   1.372   0.840 -0.6785  0.1717  0.5137
  597SOL    HW1 1790   1.876   1.319   0.751  0.0010 -1.3179 -2.9828
  597SOL    HW2 1791   1.837   1.336   0.915  2.6634 -2.4008  0.4728
  598SOL     OW 1792   0.711   2.758   2.045 -0.4363  0.0978  0.1078
  598SOL    HW1 1793   0.733   2.714   1.955  0.7526  0.0759  1.5931
  598SOL    HW2 1794   0.615   2.794   2.040 -1.3260 -1.8223  1.3063
  599SOL     OW 1795   2.493   2.012   2.967 -0.2663  0.1976  0.3052
  599SOL    HW1 1796   2.513   1.956   2.885 -0.4658 -0.2035  1.7672
  599SOL    HW2 1797   2.471   1.952   3.041  1.2335 -1.6985 -0.5988
  600SOL     OW 1798   0.847   0.991   0.148 -0.4763  0.2900  0.9522
  600SOL    HW1 1799   0.859   0.967   0.047 -1.2789 -0.1301 -4.8447
  600SOL    HW2 1800   0.751   1.006   0.167  0.5521  0.6264 -3.9809
  601SOL     OW 1801   1.103   1.149   0.217  0.6910  0.1968  0.5101
  601SOL    HW1 1802   1.024   1.085   0.207 -0.4039  1.0084  0.4467
  601SOL    HW2 1803   1.189   1.100   0.198 -2.3534  1.1053 -2.3803
  602SOL     OW 1804   1.408   2.694   1.166  0.4841  0.3853 -0.5730
  602SOL    HW1 1805   1.477   2.727   1.102  0.1367 -2.2105  0.2617
  602SOL    HW2 1806   1.390   2.767   1.236 -0.5523  1.0083  0.4225
  603SOL     OW 1807   1.032   0.044   2.265  0.5107  0.2127 -0.4840
  603SOL    HW1 1808   0.969   3.059   2.222 -0.2629  1.5826 -1.9708
  603SOL    HW2 1809   1.137   0.024   2.276  1.0145 -1.8153  0.0119
  604SOL     OW 1810   3.057   0.099   2.080  0.3228  0.3548 -0.1156
  604SOL    HW1 1811   0.035   0.087   2.158  0.4996 -0.5939  0.0170
  604SOL    HW2 1812   3.059   0.195   2.050 -0.6116 -2.2719  2.5123
  605SOL     OW 1813   2.638   2.210   1.388  0.1442  0.8364 -0.3890
  605SOL    HW1 1814   2.551   2.249   1.407  6.3566 -3.6995  1.7365
  605SOL    HW2 1815   2.711   2.238   1.452  0.8131 -1.5579 -0.8129
  606SOL     OW 1816   0.247   1.617   2.896 -0.2773 -0.5882  0.4647
  606SOL    HW1 1817   0.178   1.576   2.954  1.4039  1.4086  1.9908
  606SOL    HW2 1818   0.211   1.711   2.887 -0.2267  0.1193  1.6260
  607SOL     OW 1819   0.963   0.276   0.269  0.1265 -0.6506 -0.4069
  607SOL    HW1 1820   1.052   0.292   0.311  0.0391  0.1615 -0.7953
  607SOL    HW2 1821   0.961   0.294   0.167  0.2769 -0.3917 -0.9411
  608SOL     OW 1822   1.911   1.396   2.349 -0.8412  0.0926 -0.1978
  608SOL    HW1 1823   1.835   1.346   2.305 -2.0488  3.2352 -1.7182
  608SOL    HW2 1824   1.889   1.413   2.447  0.1672  1.7760 -1.9734
  609SOL     OW 1825   2.987   0.354   0.801 -0.0171 -0.1481 -0.1721
  609SOL    HW1 1826   3.024   0.269   0.844 -0.3235  1.7663 -0.8313
  609SOL    HW2 1827   2.889   0.341   0.809  2.5732 -1.4726  2.5989
  610SOL     OW 1828   0.313   2.376   2.975 -0.3343 -0.1981  0.6148
  610SOL    HW1 1829   0.370   2.299   3.008  0.8831 -0.2606 -0.2296
  610SOL    HW2 1830   0.289   2.439   3.054  0.0495  0.8314 -0.2271
  611SOL     OW 1831   1.765   1.218   0.390  0.2641  0.2988  0.0459
  611SOL    HW1 1832   1.841   1.237   0.329 -2.0100 -2.6525 -0.1498
  611SOL    HW2 1833   1.714   1.304   0.418 -3.5795  0.4064  2.0252
  612SOL     OW 1834   0.913   2.475   2.533 -0.1060  0.1723  0.7635
  612SOL    HW1 1835   0.881   2.411   2.611  0.4015 -1.9733  0.2867
  612SOL    HW2 1836   0.873   2.567   2.536  1.2893 -2.2274 -0.1541
  613SOL     OW 1837   1.083   1.814   2.983 -0.5503 -0.5528  0.0077
  613SOL    HW1 1838   1.111   1.719   3.002 -2.3429  0.5821  0.2132
  613SOL    HW2 1839   1.032   1.809   2.895  0.4145 -1.7281  0.8677
  614SOL     OW 1840   2.743   2.749   1.501  0.5768  0.3343 -0.1062
  614SOL    HW1 1841   2.819   2.762   1.436  0.3743 -1.5287  0.4248
  614SOL    HW2 1842   2.662   2.703   1.458 -2.2583  1.2768 -0.8517
  615SOL     OW 1843   2.241   1.395   3.017 -0.7499  0.0748 -0.5451
  615SOL    HW1 1844   2.151   1.394   2.972  3.2159 -0.3224  0.9137
  615SOL    HW2 1845   2.320   1.423   2.954  0.8973 -0.4784 -0.5687
  616SOL     OW 1846   1.759   3.075   0.790  0.2809 -0.0538 -0.0986
  616SOL    HW1 1847   1.760   0.072   0.723  1.0592 -0.0986 -0.8778
  616SOL    HW2 1848   1.826   0.016   0.865  1.7324  1.8173  0.8197
  617SOL     OW 1849   0.877   0.928   2.946  0.0538  0.1486 -0.2146
  617SOL    HW1 1850   0.869   0.852   2.878  0.1885  0.6944  0.5450
  617SOL    HW2 1851   0.850   1.015   2.905  0.5193 -1.0372 -1.0793
  618SOL     OW 1852   0.713   0.874   1.894 -0.1616  0.5883 -0.0688
  618SOL    HW1 1853   0.712   0.975   1.865 -1.3387  3.6539  0.1273
  618SOL    HW2 1854   0.767   0.864   1.979 -0.4112 -2.1920  0.6542
  619SOL     OW 1855   0.260   0.973   1.462 -0.1624 -0.6144  0.2020
  619SOL    HW1 1856   0.238   1.046   1.536  1.0709  0.6258  0.4584
  619SOL    HW2 1857   0.352   0.936   1.476 -2.0203  1.6369  0.7347
  620SOL     OW 1858   1.914   1.250   0.016 -1.0056 -0.4723 -0.2464
  620SOL    HW1 1859   1.819   1.286   0.040  0.4462 -0.5208 -0.1631
  620SOL    HW2 1860   1.948   1.292   3.014 -2.0176  1.8657  0.9163
  621SOL     OW 1861   2.514   2.985   1.131  0.4515 -0.5899  0.8428
  621SOL    HW1 1862   2.512   0.002   1.159  4.2629 -2.9752 -1.5050
  621SOL    HW2 1863   2.500   2.921   1.207 -0.9086 -0.2297  1.6307
  622SOL     OW 1864   1.724   0.969   2.337 -0.0640  0.1807  0.2643
  622SOL    HW1 1865   1.823   0.967   2.344 -1.4620 -2.0562 -0.4266
  622SOL    HW2 1866   1.692   0.870   2.325 -0.6416  0.4923 -0.2566
  623SOL     OW 1867   0.919   0.324   3.069  0.4800 -0.6034 -0.0290
  623SOL    HW1 1868   1.004   0.318   3.015  0.3916 -1.3949 -0.6921
  623SOL    HW2 1869   0.876   0.419   3.063 -3.6286  1.3484 -0.4128
  624SOL     OW 1870   1.598   0.409   0.428 -0.1970 -0.1401  0.3129
  624SOL    HW1 1871   1.548   0.335   0.475 -3.8487  0.7210 -0.9812
  624SOL    HW2 1872   1.702   0.414   0.441  0.7745 -1.1650  2.3152
  625SOL     OW 1873   0.769   1.134   0.894 -0.2369  0.0470  0.4743
  625SOL    HW1 1874   0.762   1.225   0.850 -0.1706 -2.1779 -1.4206
  625SOL    HW2 1875   0.685   1.086   0.887 -0.3304 -0.5892 -2.0790
  626SOL     OW 1876   1.345   1.057   0.137 -0.1811  0.2262 -0.0857
  626SOL    HW1 1877   1.399   1.133   0.180 -2.0012  1.8857 -1.5651
  626SOL    HW2 1878   1.339   0.982   0.206  2.2588 -1.5319  0.8270
  627SOL     OW 1879   0.833   0.019   1.872 -0.3352  0.1173 -0.0596
  627SOL    HW1 1880   0.885   0.105   1.850 -1.0082 -0.6497 -1.1715
  627SOL    HW2 1881   0.739   0.036   1.848  1.6935  0.3326 -2.2942
  628SOL     OW 1882   2.617   0.230   2.210  0.0214  0.2581  0.3329
  628SOL    HW1 1883   2.707   0.280   2.202  0.6881  1.5855  0.6449
  628SOL    HW2 1884   2.542   0.288   2.241  0.9928  0.1909  0.0513
  629SOL     OW 1885   0.819   1.154   2.819 -0.0713  0.0804  0.2555
  629SOL    HW1 1886   0.855   1.239   2.860 -1.8139 -0.9235  0.9934
  629SOL    HW2 1887   0.785   1.163   2.725 -0.4912 -0.9855  2.7981
  630SOL     OW 1888   1.231   0.468   2.217 -0.5295 -0.0788  0.0806
  630SOL    HW1 1889   1.144   0.496   2.255  1.6191 -1.7823  0.0205
  630SOL    HW2 1890   1.296   0.439   2.292 -0.5626  0.3165 -1.2859
  631SOL     OW 1891   2.718   0.879   0.889 -0.2924  0.0802 -0.2146
  631SOL    HW1 1892   2.722   0.979   0.895 -1.0540  0.2791  1.2259
  631SOL    HW2 1893   2.813   0.847   0.870  2.8998  0.2937  3.1716
  632SOL     OW 1894   2.308   1.047   1.306 -0.2619 -0.4399 -0.5189
  632SOL    HW1 1895   2.372   0.966   1.286 -1.1178  0.4932  0.5498
  632SOL    HW2 1896   2.354   1.135   1.294 -0.3496 -1.5697  1.3610
  633SOL     OW 1897   1.513   0.993   0.987 -0.0235  0.3103 -0.0963
  633SOL    HW1 1898   1.594   0.949   0.940 -0.4963  4.0405  2.2688
  633SOL    HW2 1899   1.476   0.923   1.050  2.0618  0.9965  1.0506
  634SOL     OW 1900   1.957   0.039   1.003 -0.2001  0.0891  0.1726
  634SOL    HW1 1901   1.918   3.028   0.992 -3.0053  0.2458  0.8416
  634SOL    HW2 1902   2.049   0.047   1.043 -1.7051 -0.4916 -2.2376
  635SOL     OW 1903   1.633   0.815   1.454 -0.0291 -0.3528  0.1815
  635SOL    HW1 1904   1.665   0.913   1.472 -0.1560 -0.7846 -0.6135
  635SOL    HW2 1905   1.563   0.790   1.518  1.2529  1.9466 -1.8601
  636SOL     OW 1906   0.900   0.725   0.531 -0.5682 -0.4649 -0.4230
  636SOL    HW1 1907   0.807   0.764   0.514  0.7870 -1.9318 -0.6087
  636SOL    HW2 1908   0.894   0.655   0.605  2.2113  3.3295 -0.7960
  637SOL     OW 1909   1.546   2.206   0.121 -0.0568  0.2171  0.0302
  637SOL    HW1 1910   1.496   2.296   0.127 -0.2111  1.4245 -0.0533
  637SOL    HW2 1911   1.502   2.137   0.058 -0.6287 -1.7558 -2.5527
  638SOL     OW 1912   1.334   2.672   2.952  0.3858 -0.2151 -0.0095
  638SOL    HW1 1913   1.282   2.674   3.040  1.5288  0.0859 -0.8664
  638SOL    HW2 1914   1.411   2.741   2.941  1.5262 -0.0136 -1.2261
  639SOL     OW 1915   0.842   2.030   1.084 -0.3657  0.1172  0.0941
  639SOL    HW1 1916   0.846   1.960   1.007 -0.5486 -0.3185 -1.9000
  639SOL    HW2 1917   0.770   2.009   1.151 -1.9359 -1.4029  0.6530
  640SOL     OW 1918   0.388   2.707   0.285 -0.3645 -0.3492  0.0524
  640SOL    HW1 1919   0.399   2.649   0.368  1.0674 -1.9643 -2.5009
  640SOL    HW2 1920   0.387   2.810   0.310 -2.6855  2.1000  0.4409
  641SOL     OW 1921   0.206   0.168   0.067  0.0896 -0.4248 -0.1488
  641SOL    HW1 1922   0.190   0.188   0.165  0.3227  0.7189  0.3922
  641SOL    HW2 1923   0.304   0.159   0.047 -1.5873  0.2550  0.0543
  642SOL     OW 1924   0.079   1.601   1.152  0.3016  0.5872 -0.3059
  642SOL    HW1 1925   0.144   1.621   1.075  3.2212 -3.0733 -0.9753
  642SOL    HW2 1926   0.117   1.653   1.235  0.0612 -2.1443  1.0187
  643SOL     OW 1927   0.847   1.801   2.099  0.4612  0.2917  0.3952
  643SOL    HW1 1928   0.914   1.728   2.067 -2.2443 -0.6668  1.3688
  643SOL    HW2 1929   0.883   1.898   2.094  2.5870  0.2487  1.0976
  644SOL     OW 1930   1.703   2.421   0.641  0.2126 -0.2310 -0.0987
  644SOL    HW1 1931   1.768   2.358   0.685  0.6847 -0.9366 -0.1995
  644SOL    HW2 1932   1.683   2.504   0.704  0.2444  0.5558  2.1912
  645SOL     OW 1933   1.633   2.485   1.359 -0.8330 -0.2355 -0.7320
  645SOL    HW1 1934   1.738   2.487   1.357 -1.3393 -0.9331 -2.1433
  645SOL    HW2 1935   1.603   2.398   1.399 -0.8231  0.7641 -2.7163
  646SOL     OW 1936   1.163   2.866   0.474  0.3973 -0.1516  0.1343
  646SOL    HW1 1937   1.155   2.963   0.501 -0.5901  1.8346  0.9177
  646SOL    HW2 1938   1.074   2.816   0.478 -1.6746 -2.0617  0.0519
  647SOL     OW 1939   0.452   2.853   2.059 -0.0961 -0.5393  0.3086
  647SOL    HW1 1940   0.382   2.791   2.094  0.5436  0.2665  2.1619
  647SOL    HW2 1941   0.433   2.869   1.959  1.4559 -0.4307 -1.3935
  648SOL     OW 1942   2.454   0.808   0.905 -0.1154  0.3681  0.4278
  648SOL    HW1 1943   2.388   0.878   0.878 -0.9049  0.3119  0.0553
  648SOL    HW2 1944   2.545   0.856   0.913 -0.6785  1.2046  1.1820
  649SOL     OW 1945   1.831   2.261   2.957  0.0366  0.4397 -0.4197
  649SOL    HW1 1946   1.844   2.243   3.057 -2.1657  0.0491  0.6898
  649SOL    HW2 1947   1.785   2.350   2.935  0.9531 -3.1668 -1.2084
  650SOL     OW 1948   2.439   1.663   1.510  0.4339 -0.0560 -0.3544
  650SOL    HW1 1949   2.499   1.732   1.557 -0.2382 -1.0228 -1.0741
  650SOL    HW2 1950   2.344   1.696   1.501  1.8735 -4.1386 -1.3653
  651SOL     OW 1951   1.514   1.668   2.865 -0.1503 -0.1059  0.0164
  651SOL    HW1 1952   1.577   1.745   2.885 -1.8572 -0.2077  0.4415
  651SOL    HW2 1953   1.452   1.689   2.784 -0.4573 -0.8156 -2.3822
  652SOL     OW 1954   0.899   2.964   2.630 -0.6036 -0.2729 -0.5788
  652SOL    HW1 1955   0.982   2.913   2.665  2.0275 -0.1963  0.9069
  652SOL    HW2 1956   0.925   3.054   2.592 -0.2947 -1.9299  2.9046
  653SOL     OW 1957   1.941   2.344   0.854  0.2453 -0.0468 -0.2147
  653SOL    HW1 1958   1.895   2.330   0.945 -1.1296 -1.1711  0.7540
  653SOL    HW2 1959   2.045   2.343   0.866 -0.9165  1.5335  0.6867
  654SOL     OW 1960   2.759   2.952   2.138  0.0230  0.4541 -0.2025
  654SOL    HW1 1961   2.703   2.992   2.212 -1.0311 -1.9808 -0.7030
  654SOL    HW2 1962   2.765   3.009   2.051  1.2170 -1.8400 -1.2282
  655SOL     OW 1963   2.780   2.201   1.149  0.0452  0.3787 -0.1797
  655SOL    HW1 1964   2.748   2.271   1.085  0.4144 -0.9660  3.4330
  655SOL    HW2 1965   2.723   2.204   1.234  1.1303 -0.0072  1.0323
  656SOL     OW 1966   2.960   2.112   2.694 -0.3606  0.2648 -0.4322
  656SOL    HW1 1967   2.979   2.107   2.591 -0.5512 -0.3376 -0.4522
  656SOL    HW2 1968   2.928   2.020   2.728 -1.0298 -1.2087 -1.4124
  657SOL     OW 1969   2.660   0.737   0.453  0.1929  0.1594  0.3956
  657SOL    HW1 1970   2.618   0.731   0.359 -0.7710  0.4834 -2.0246
  657SOL    HW2 1971   2.746   0.793   0.437  0.0123 -1.7630 -1.0158
  658SOL     OW 1972   1.335   1.665   1.188 -0.2616  0.3578  0.7762
  658SOL    HW1 1973   1.276   1.683   1.272 -1.5994 -0.6876  0.5456
  658SOL    HW2 1974   1.418   1.728   1.184  0.9164  0.5461  0.1107
  659SOL     OW 1975   1.170   3.077   1.278  0.3357  0.1077 -0.7217
  659SOL    HW1 1976   1.243   0.064   1.251  1.7364  3.5663  0.8358
  659SOL    HW2 1977   1.129   0.024   1.369  1.1678  0.6221  0.4757
  660SOL     OW 1978   2.094   1.253   1.068 -0.1455  0.4071 -0.0900
  660SOL    HW1 1979   2.189   1.293   1.059  1.3306 -1.4244  1.4990
  660SOL    HW2 1980   2.032   1.310   1.129 -0.5959 -1.6501 -0.6042
  661SOL     OW 1981   0.167   1.524   0.275  0.5724 -0.2770 -0.1279
  661SOL    HW1 1982   0.087   1.588   0.292 -0.2061  0.6687 -0.2227
  661SOL    HW2 1983   0.258   1.568   0.276 -1.2925  2.8401  1.9655
  662SOL     OW 1984   2.733   0.888   1.712  0.5122 -0.3673 -0.4195
  662SOL    HW1 1985   2.728   0.897   1.816 -1.6434 -1.4185  0.3961
  662SOL    HW2 1986   2.644   0.871   1.667  0.2306  1.3090 -0.5501
  663SOL     OW 1987   2.048   1.502   1.264 -0.5906 -0.3584  0.2854
  663SOL    HW1 1988   2.089   1.582   1.220  1.1022 -3.5643 -0.9570
  663SOL    HW2 1989   2.111   1.425   1.268 -1.1428 -0.6196 -3.0234
  664SOL     OW 1990   0.442   0.117   1.238 -0.0350  0.3813  0.0321
  664SOL    HW1 1991   0.380   0.107   1.324 -0.4184 -2.9708  2.4146
  664SOL    HW2 1992   0.516   0.047   1.242 -0.5177 -1.6289  1.4011
  665SOL     OW 1993   1.357   0.156   2.836  0.1666  0.0036 -0.1370
  665SOL    HW1 1994   1.432   0.216   2.868 -0.4527 -2.2892 -0.1436
  665SOL    HW2 1995   1.368   0.063   2.878  0.4511 -3.7482  0.1939
  666SOL     OW 1996   0.454   0.224   2.167  0.4311  0.1917 -0.0786
  666SOL    HW1 1997   0.394   0.307   2.177 -0.0818  0.6155 -0.7987
  666SOL    HW2 1998   0.548   0.239   2.195  0.7242  0.1059 -0.3265
  667SOL     OW 1999   1.731   1.472   1.920  0.0509  0.6503  0.0154
  667SOL    HW1 2000   1.729   1.520   1.828 -3.4438  1.9067  0.7762
  667SOL    HW2 2001   1.814   1.506   1.975  1.9775  3.3719  2.5459
  668SOL     OW 2002   0.045   1.617   2.537  0.0219 -0.2436 -0.7284
  668SOL    HW1 2003   3.047   1.608   2.603  2.2483 -1.0122 -1.0715
  668SOL    HW2 2004   0.104   1.537   2.528 -0.4596  0.2578  1.4283
  669SOL     OW 2005   2.234   3.065   2.482  0.1502  0.2586 -0.0402
  669SOL    HW1 2006   2.294   2.986   2.466 -0.9546  1.9989  0.5142
  669SOL    HW2 2007   2.271   0.055   2.550  0.6261  4.5042  0.0407
  670SOL     OW 2008   2.660   1.154   2.246 -0.0130  0.2015 -0.3268
  670SOL    HW1 2009   2.743   1.097   2.233  2.3590  2.5621 -0.3639
  670SOL    HW2 2010   2.622   1.185   2.156  0.0346  0.9040  1.0523
  671SOL     OW 2011   2.534   1.857   0.126  0.0062 -0.8806  1.1267
  671SOL    HW1 2012   2.596   1.793   0.070  2.7418 -0.2490  0.0800
  671SOL    HW2 2013   2.483   1.816   0.205 -1.7083 -0.2370  0.0347
  672SOL     OW 2014   1.932   1.576   2.053  1.0693  0.4677  0.3474
  672SOL    HW1 2015   2.021   1.546   2.017  0.6383 -0.4042 -0.6032
  672SOL    HW2 2016   1.937   1.605   2.152 -0.5468  0.6011  2.5415
  673SOL     OW 2017   2.882   1.900   1.058 -0.7903  0.0382  0.3292
  673SOL    HW1 2018   2.947   1.952   0.997 -2.3536 -0.6659 -0.3994
  673SOL    HW2 2019   2.917   1.898   1.152  2.6216 -0.9255 -0.8556
  674SOL     OW 2020   1.027   1.852   1.764  0.0880  0.2658 -0.6764
  674SOL    HW1 2021   1.079   1.855   1.854  0.5675  0.8650 -2.1108
  674SOL    HW2 2022   0.955   1.926   1.762  0.9883 -0.6834  0.3386
  675SOL     OW 2023   3.021   0.608   0.698  0.4809 -0.0835  1.0320
  675SOL    HW1 2024   0.039   0.623   0.678  1.0013 -2.0693  1.0538
  675SOL    HW2 2025   3.011   0.523   0.754  0.4040 -0.9779 -2.3189
  676SOL     OW 2026   2.929   1.242   0.740 -0.5141  0.5347 -0.1430
  676SOL    HW1 2027   2.950   1.149   0.695 -0.6555 -2.5594 -1.2332
  676SOL    HW2 2028   2.874   1.230   0.826  1.3433  2.9908  2.7331
  677SOL     OW 2029   1.605   1.730   2.288 -0.6234  0.0316 -0.2653
  677SOL    HW1 2030   1.566   1.654   2.232 -2.3948 -1.6031  2.3554
  677SOL    HW2 2031   1.654   1.799   2.230  0.1233 -0.9437 -2.6879
  678SOL     OW 2032   2.467   1.537   0.857  0.2060  0.1251  0.3380
  678SOL    HW1 2033   2.475   1.638   0.845 -4.1839 -1.3935 -1.1053
  678SOL    HW2 2034   2.419   1.498   0.771 -0.7538 -1.9170 -2.8227
  679SOL     OW 2035   0.796   2.126   0.756  0.4093  0.0702 -0.2217
  679SOL    HW1 2036   0.817   2.192   0.680 -0.7888  0.9430  0.3837
  679SOL    HW2 2037   0.846   2.156   0.836 -1.5031 -0.2786 -1.6831
  680SOL     OW 2038   0.136   1.813   1.336 -0.5613  0.3252  0.3926
  680SOL    HW1 2039   0.163   1.913   1.320  3.4670  2.4673  0.1298
  680SOL    HW2 2040   0.039   1.800   1.320  0.9814 -0.3613 -0.5576
  681SOL     OW 2041   1.016   0.363   1.176  0.6031 -0.5180 -0.0027
  681SOL    HW1 2042   0.941   0.377   1.243 -1.7675 -3.6051 -0.8601
  681SOL    HW2 2043   1.092   0.430   1.186  0.6949  0.1485 -0.6315
  682SOL     OW 2044   1.889   2.905   1.280 -0.6311  0.4096 -0.7805
  682SOL    HW1 2045   1.880   2.854   1.367 -0.1874 -2.4910  0.4859
  682SOL    HW2 2046   1.853   3.000   1.283  0.4302 -0.0315 -1.4197
  683SOL     OW 2047   2.180   1.364   1.470 -0.1685 -0.0848 -0.2944
  683SOL    HW1 2048   2.151   1.449   1.511 -1.3135 -0.4499  2.1435
  683SOL    HW2 2049   2.100   1.305   1.444  1.1892 -1.8807  0.4764
  684SOL     OW 2050   0.079   1.694   1.774 -0.0372 -0.4453 -0.1129
  684SOL    HW1 2051   0.061   1.619   1.707 -0.2618  0.0032 -0.7188
  684SOL    HW2 2052   0.089   1.661   1.866 -0.7272  2.4927 -4.7273
  685SOL     OW 2053   1.954   2.072   0.104  0.0471  0.0557 -0.1518
  685SOL    HW1 2054   1.893   2.146   0.132  1.6567 -2.2500 -0.7703
  685SOL    HW2 2055   1.898   1.988   0.086  0.8611  3.3042 -1.2283
  686SOL     OW 2056   2.714   0.346   0.850 -0.3070  0.7915  0.6221
  686SOL    HW1 2057   2.717   0.445   0.826  1.1581 -2.1119 -0.4558
  686SOL    HW2 2058   2.624   0.309   0.879 -0.9068  2.8500  0.0834
  687SOL     OW 2059   1.609   0.300   2.552  0.1882 -0.3624  0.0600
  687SOL    HW1 2060   1.617   0.200   2.532  1.0884 -0.7433  0.4239
  687SOL    HW2 2061   1.652   0.316   2.647  2.2826  0.5810  0.8393
  688SOL     OW 2062   1.131   2.154   2.482 -0.1235 -0.7655  0.5981
  688SOL    HW1 2063   1.144   2.233   2.415 -1.9661  1.2921 -4.7393
  688SOL    HW2 2064   1.064   2.087   2.441  0.4350  0.9611 -1.2125
  689SOL     OW 2065   2.535   1.461   1.667  0.1195  0.4770  0.2461
  689SOL    HW1 2066   2.482   1.513   1.598 -1.2958 -0.4335 -0.4543
  689SOL    HW2 2067   2.633   1.488   1.673 -2.1899 -0.0873 -0.3519
  690SOL     OW 2068   1.737   1.794   1.304 -0.0407  0.1881 -0.9965
  690SOL    HW1 2069   1.642   1.810   1.281  0.5889  0.2940  0.2035
  690SOL    HW2 2070   1.754   1.694   1.298 -0.1107 -1.4098  1.9237
  691SOL     OW 2071   0.103   1.388   0.580 -0.3446  0.3307 -0.1363
  691SOL    HW1 2072   0.160   1.341   0.509  2.6611 -3.0913 -0.6280
  691SOL    HW2 2073   0.106   1.341   0.669  0.1251  0.6858  4.5358
  692SOL     OW 2074   2.320   2.593   2.197 -0.3207 -0.0939 -0.4054
  692SOL    HW1 2075   2.291   2.643   2.281  0.5917 -3.6134  2.3259
  692SOL    HW2 2076   2.425   2.596   2.186  2.3044  0.2053 -1.4948
  693SOL     OW 2077   2.810   1.508   2.211 -0.8202  0.0622 -0.1263
  693SOL    HW1 2078   2.730   1.480   2.267  1.0587  0.2984 -1.2400
  693SOL    HW2 2079   2.873   1.571   2.262 -1.9963 -3.0527 -0.2419
  694SOL     OW 2080   2.208   0.173   1.863 -0.5680 -0.3586 -0.0209
  694SOL    HW1 2081   2.250   0.131   1.783 -2.3886  2.9074  2.5900
  694SOL    HW2 2082   2.194   0.273   1.852 -1.1701 -1.5134 -0.9079
  695SOL     OW 2083   1.199   0.731   2.445  0.0707  0.0838  0.4611
  695SOL    HW1 2084   1.100   0.742   2.437 -0.5136 -1.7270 -1.6363
  695SOL    HW2 2085   1.221   0.809   2.509 -0.2614 -0.9496  0.6147
  696SOL     OW 2086   1.699   0.203   1.809  0.0352  0.2030  0.3432
  696SOL    HW1 2087   1.799   0.206   1.832  1.2506  0.9280  1.2002
  696SOL    HW2 2088   1.678   0.109   1.769  0.1339 -0.2004  0.0802
  697SOL     OW 2089   1.650   0.282   2.086  0.2108  0.3210  0.2648
  697SOL    HW1 2090   1.738   0.332   2.096 -2.3151 -0.2568 -1.8299
  697SOL    HW2 2091   1.648   0.232   1.995  0.2803 -3.6743 -2.2134
  698SOL     OW 2092   1.746   1.890   2.115 -0.6848 -0.4968  0.3433
  698SOL    HW1 2093   1.803   1.829   2.058  2.5082  1.3498 -2.8567
  698SOL    HW2 2094   1.720   1.972   2.056 -1.3036  0.6299 -0.1380
  699SOL     OW 2095   1.964   0.789   0.234  0.3821  0.1611  1.1789
  699SOL    HW1 2096   1.859   0.788   0.227 -1.2426  0.2200  1.9436
  699SOL    HW2 2097   2.000   0.880   0.243  1.7322 -0.2725 -0.4502
  700SOL     OW 2098   1.262   0.165   0.529 -0.1708  0.1333 -0.0162
  700SOL    HW1 2099   1.220   0.254   0.552 -0.8578 -2.8904  1.5028
  700SOL    HW2 2100   1.267   0.145   0.428 -1.4699 -0.2710  2.7078
  701SOL     OW 2101   0.229   0.684   0.911 -0.4060 -0.1448 -0.4420
  701SOL    HW1 2102   0.324   0.663   0.939 -0.3534 -0.0619 -2.0327
  701SOL    HW2 2103   0.214   0.666   0.811  0.5696 -1.6785  0.5599
  702SOL     OW 2104   1.902   0.105   1.475  0.4430  0.6330 -0.4395
  702SOL    HW1 2105   1.817   0.062   1.439 -1.8542  1.6731  0.9591
  702SOL    HW2 2106   1.890   0.203   1.480  0.0717 -2.7077 -2.8890
  703SOL     OW 2107   2.733   0.917   1.327 -0.2733  0.5546 -0.0299
  703SOL    HW1 2108   2.783   0.951   1.245  2.8708 -0.6241 -2.3295
  703SOL    HW2 2109   2.784   0.839   1.367  0.6222  3.0568  1.4185
  704SOL     OW 2110   0.959   2.463   1.288  0.0826 -0.2300  0.2403
  704SOL    HW1 2111   1.048   2.484   1.246  1.4943 -4.3413  0.1588
  704SOL    HW2 2112   0.975   2.411   1.374 -0.3013  0.6860  2.4773
  705SOL     OW 2113   0.232   1.383   2.556  0.5209  0.0477  0.2687
  705SOL    HW1 2114   0.249   1.415   2.462  0.9501 -0.5805 -2.1622
  705SOL    HW2 2115   0.303   1.410   2.626 -0.5238 -0.8081 -1.8347
  706SOL     OW 2116   2.929   3.023   0.020  0.5071  0.0960  0.2116
  706SOL    HW1 2117   2.830   3.012   3.082  0.4262  0.0141 -1.5586
  706SOL    HW2 2118   2.950   3.004   0.112  0.8261  1.5512 -6.8486
  707SOL     OW 2119   1.535   2.666   2.520 -0.2907 -0.3323 -0.3700
  707SOL    HW1 2120   1.548   2.659   2.420 -0.8886  0.3280 -0.5980
  707SOL    HW2 2121   1.495   2.584   2.555  2.3206  0.1356 -0.6313
  708SOL     OW 2122   0.549   2.617   1.584 -0.2774  0.0197  0.7114
  708SOL    HW1 2123   0.533   2.582   1.677  0.6572  0.8218 -1.6455
  708SOL    HW2 2124   0.470   2.633   1.525 -0.3338  1.3988  0.7241
  709SOL     OW 2125   3.053   0.684   1.999  0.1533 -0.0852  0.5894
  709SOL    HW1 2126   3.059   0.749   1.920  0.3679  1.7584  1.8751
  709SOL    HW2 2127   0.040   0.712   2.070 -2.1590 -0.2540 -0.6496
  710SOL     OW 2128   0.059   0.856   1.072 -0.1773  0.1378  0.3224
  710SOL    HW1 2129   0.124   0.809   1.008 -0.0300 -0.0350  1.9674
  710SOL    HW2 2130   0.088   0.830   1.165  1.3575 -0.9941 -0.3527
  711SOL     OW 2131   2.772   2.854   1.068 -0.0845 -0.7761 -0.1316
  711SOL    HW1 2132   2.755   2.764   1.110  3.1463  2.9365  1.7603
  711SOL    HW2 2133   2.692   2.916   1.066 -2.9804  2.9116  0.6048
  712SOL     OW 2134   0.324   3.078   2.464 -0.2416 -0.0527 -0.0300
  712SOL    HW1 2135   0.268   3.077   2.550  2.4609  0.4437 -0.2159
  712SOL    HW2 2136   0.371   2.990   2.448  0.5111  2.1911 -0.2547
  713SOL     OW 2137   2.104   0.147   0.582 -0.2774  0.1721 -0.1170
  713SOL    HW1 2138   2.154   0.226   0.545 -0.6175  0.0961  1.2344
  713SOL    HW2 2139   2.114   0.064   0.523  0.2510  1.3782 -0.1174
  714SOL     OW 2140   1.836   1.847   0.059 -0.0290 -0.1880  0.2420
  714SOL    HW1 2141   1.750   1.798   0.034  0.2805  1.8319  0.2296
  714SOL    HW2 2142   1.906   1.774   0.059 -4.6237  2.9452  0.0470
  715SOL     OW 2143   0.059   0.322   0.542  0.5372  0.1276  0.0600
  715SOL    HW1 2144   0.055   0.226   0.577 -0.9349 -0.2882 -0.3913
  715SOL    HW2 2145   0.009   0.387   0.601  1.3351 -0.9508 -0.9865
  716SOL     OW 2146   0.923   0.601   1.773 -0.8889  0.3367 -0.2936
  716SOL    HW1 2147   0.971   0.524   1.730 -1.0792  0.2857  0.0508
  716SOL    HW2 2148   0.906   0.577   1.868 -1.0414  0.6681 -1.9868
  717SOL     OW 2149   0.570   0.489   2.979 -0.4037 -0.5573  0.0181
  717SOL    HW1 2150   0.522   0.562   2.925 -0.9598  0.7203 -0.2987
  717SOL    HW2 2151   0.664   0.522   2.999  1.2337  1.1996 -0.2232
  718SOL     OW 2152   1.222   0.399   0.250 -0.7706  0.1688  0.0640
  718SOL    HW1 2153   1.299   0.467   0.220  4.5935  1.0116 -0.5433
  718SOL    HW2 2154   1.256   0.304   0.240  1.4477 -0.4303 -0.8730
  719SOL     OW 2155   2.497   2.275   2.635  0.1618 -0.0240  0.0247
  719SOL    HW1 2156   2.465   2.274   2.732 -0.0491 -0.1569  2.5426
  719SOL    HW2 2157   2.443   2.338   2.575 -0.2913 -0.9559  2.9645
  720SOL     OW 2158   1.172   0.546   1.280  0.5748  0.2449 -0.2680
  720SOL    HW1 2159   1.101   0.620   1.303  0.8666  1.6190 -1.1047
  720SOL    HW2 2160   1.174   0.475   1.352  1.7120  1.1062 -0.4778
  721SOL     OW 2161   2.931   3.079   1.049  0.5222  0.4180  0.3428
  721SOL    HW1 2162   2.876   0.081   1.077 -0.4346 -0.3636 -2.6728
  721SOL    HW2 2163   2.881   2.992   1.064 -0.2951 -2.8485 -2.1520
  722SOL     OW 2164   1.049   1.434   2.593  0.1257  0.5344 -0.1876
  722SOL    HW1 2165   0.968   1.491   2.611 -1.7579 -0.8387  1.4456
  722SOL    HW2 2166   1.105   1.435   2.678  0.8182 -0.2645 -1.9871
  723SOL     OW 2167   2.302   0.312   1.077  0.1072 -0.0386  0.1508
  723SOL    HW1 2168   2.237   0.250   1.024 -0.6792 -1.5352 -1.8354
  723SOL    HW2 2169   2.288   0.406   1.042 -2.1984 -0.2841  1.4016
  724SOL     OW 2170   0.639   2.265   0.159  0.0723 -0.2416 -0.6710
  724SOL    HW1 2171   0.653   2.176   0.209  0.2619 -2.3108  2.5661
  724SOL    HW2 2172   0.715   2.325   0.177 -2.6205 -0.6637  1.3816
  725SOL     OW 2173   0.345   1.233   1.296 -0.3381 -0.2539  0.2169
  725SOL    HW1 2174   0.304   1.153   1.348 -2.6571 -1.1577  0.6803
  725SOL    HW2 2175   0.427   1.265   1.345 -2.6217  0.4053 -1.6964
  726SOL     OW 2176   2.363   0.733   0.240 -0.2008 -0.4221  0.5014
  726SOL    HW1 2177   2.324   0.827   0.245  3.4062 -2.3372  0.0624
  726SOL    HW2 2178   2.455   0.736   0.198 -2.0737 -3.9377 -1.3727
  727SOL     OW 2179   2.000   1.276   2.648  0.1657  0.1907 -0.1532
  727SOL    HW1 2180   2.061   1.332   2.595  0.8833 -2.4189  0.0862
  727SOL    HW2 2181   2.005   1.178   2.624 -0.7571  1.1868 -0.6394
  728SOL     OW 2182   1.833   2.827   1.546 -0.4578  0.1641  0.1634
  728SOL    HW1 2183   1.881   2.861   1.630 -0.9727  0.7822 -2.3970
  728SOL    HW2 2184   1.752   2.770   1.571 -0.2162  0.2690 -1.9581
  729SOL     OW 2185   2.405   0.735   1.936 -0.2350  0.0554 -0.4661
  729SOL    HW1 2186   2.392   0.732   2.039  1.2159 -0.0338  0.6440
  729SOL    HW2 2187   2.313   0.741   1.894 -0.5237 -1.4595 -1.0487
  730SOL     OW 2188   1.240   0.844   1.366  0.3564  0.0172  0.0714
  730SOL    HW1 2189   1.155   0.803   1.325 -2.3675  0.4229 -0.7354
  730SOL    HW2 2190   1.230   0.944   1.383 -1.4395 -0.6197  1.5971
  731SOL     OW 2191   0.588   0.712   0.157  0.0831 -0.1986  0.3019
  731SOL    HW1 2192   0.688   0.709   0.170 -2.3039  0.5566 -0.3719
  731SOL    HW2 2193   0.566   0.764   0.076  1.6369 -0.2710  0.7164
  732SOL     OW 2194   0.350   0.580   0.228 -0.7621 -0.2030 -0.1484
  732SOL    HW1 2195   0.326   0.544   0.136 -1.2408  0.9453  2.5137
  732SOL    HW2 2196   0.425   0.651   0.215  1.5739 -0.0471 -1.3357
  733SOL     OW 2197   1.830   1.567   2.623 -0.1552  0.5822  0.0594
  733SOL    HW1 2198   1.748   1.627   2.618 -1.0220 -1.0282  0.2815
  733SOL    HW2 2199   1.878   1.580   2.714 -0.6364  1.5877 -0.7275
  734SOL     OW 2200   0.233   2.015   2.716 -0.0718 -0.3703 -0.1476
  734SOL    HW1 2201   0.189   1.967   2.792  0.0243  0.3671 -1.6917
  734SOL    HW2 2202   0.244   2.116   2.739 -1.6590  1.0653  0.4358
  735SOL     OW 2203   2.098   0.651   1.036  0.8368  0.1942 -0.0265
  735SOL    HW1 2204   2.064   0.661   0.942 -1.8118  0.4872  3.2949
  735SOL    HW2 2205   2.192   0.615   1.030 -4.7738 -0.7602 -2.5171
  736SOL     OW 2206   1.731   1.847   2.870 -0.1931 -0.1900  0.3532
  736SOL    HW1 2207   1.796   1.880   2.942 -0.4288 -1.8293  0.3291
  736SOL    HW2 2208   1.669   1.924   2.839 -1.1789 -0.7136  1.0272
  737SOL     OW 2209   0.086   0.436   0.263 -0.6377  0.2118 -0.3639
  737SOL    HW1 2210   0.180   0.483   0.277  1.8318 -1.4366 -0.0975
  737SOL    HW2 2211   0.045   0.400   0.350 -0.4582 -1.0709 -4.4313
  738SOL     OW 2212   0.638   2.166   1.910  0.1702  0.2821  0.0526
  738SOL    HW1 2213   0.660   2.254   1.957 -1.3338  1.2260 -0.0643
  738SOL    HW2 2214   0.541   2.146   1.895 -0.5119 -0.7397  0.1529
  739SOL     OW 2215   1.298   2.809   2.215 -0.3447  0.4783  0.4372
  739SOL    HW1 2216   1.220   2.794   2.149 -1.2873  2.2679 -1.7531
  739SOL    HW2 2217   1.266   2.824   2.308  1.2489 -3.2227  0.2991
  740SOL     OW 2218   2.114   2.216   1.304 -0.2741 -0.5571  0.8242
  740SOL    HW1 2219   2.013   2.236   1.320  2.1587 -0.4303 -0.8478
  740SOL    HW2 2220   2.148   2.147   1.375  1.8523  1.5516  2.6233
  741SOL     OW 2221   1.990   0.515   0.250  0.0938  0.5359 -0.4652
  741SOL    HW1 2222   1.981   0.476   0.156  1.9903 -0.1916  0.0198
  741SOL    HW2 2223   1.990   0.617   0.246 -0.5977  1.4852 -1.5229
  742SOL     OW 2224   1.061   2.396   0.010 -0.0372  0.4680 -0.0378
  742SOL    HW1 2225   1.103   2.298   0.023  3.9475 -2.6108  1.1566
  742SOL    HW2 2226   1.036   2.415   3.000  0.8426  0.1976  2.8749
  743SOL     OW 2227   2.392   1.058   1.930 -0.4783 -0.1101  0.1700
  743SOL    HW1 2228   2.445   1.131   1.986  0.2866  0.1150  0.3644
  743SOL    HW2 2229   2.313   1.024   1.983 -1.6266  3.8686  1.3229
  744SOL     OW 2230   2.545   0.415   0.561 -0.2170  0.1569 -0.7014
  744SOL    HW1 2231   2.517   0.456   0.474  0.8992  0.0208 -0.6058
  744SOL    HW2 2232   2.612   0.478   0.614  0.5102  1.0345  1.9831
  745SOL     OW 2233   2.515   1.156   1.692  0.5796  0.2926 -0.2599
  745SOL    HW1 2234   2.478   1.115   1.778  0.4269 -0.6517 -1.5124
  745SOL    HW2 2235   2.496   1.254   1.676 -0.8036 -2.7435  0.9684
  746SOL     OW 2236   1.180   1.248   0.908 -0.4863 -0.5094  1.0756
  746SOL    HW1 2237   1.249   1.318   0.922  1.0034 -3.3132 -0.8514
  746SOL    HW2 2238   1.115   1.276   0.833 -1.1021  2.9395 -0.1020
  747SOL     OW 2239   1.064   1.601   1.688  0.0303 -0.2740  0.3918
  747SOL    HW1 2240   1.023   1.686   1.717 -0.0803 -3.7500  0.2171
  747SOL    HW2 2241   1.143   1.580   1.744  0.8090 -1.7533  0.2211
  748SOL     OW 2242   0.258   2.799   2.883 -0.7689  0.5440  1.0860
  748SOL    HW1 2243   0.352   2.772   2.869 -3.7668 -0.2916 -2.0726
  748SOL    HW2 2244   0.240   2.845   2.974  1.1056 -0.6651  0.9637
  749SOL     OW 2245   0.121   1.141   2.605 -0.3103 -0.5897  0.0876
  749SOL    HW1 2246   0.157   1.080   2.536  0.2422  0.8356  0.1088
  749SOL    HW2 2247   0.147   1.240   2.586  0.4793  2.3565  0.2891
  750SOL     OW 2248   1.961   1.187   1.936  0.3975  0.3857 -0.5334
  750SOL    HW1 2249   1.965   1.132   1.850  0.0309  0.7486  3.8178
  750SOL    HW2 2250   2.042   1.245   1.952 -2.4871  0.7426 -2.0936
  751SOL     OW 2251   2.439   0.487   0.316  0.1626 -0.1257 -0.1290
  751SOL    HW1 2252   2.368   0.430   0.365  1.8400 -1.9338  1.1793
  751SOL    HW2 2253   2.401   0.577   0.283 -0.1362 -0.1959  1.1743
  752SOL     OW 2254   0.423   2.476   0.945  0.2633  0.3908 -0.3754
  752SOL    HW1 2255   0.408   2.513   1.039  2.2496  0.1311 -1.7358
  752SOL    HW2 2256   0.480   2.388   0.949 -0.0960 -0.0782 -0.3743
  753SOL     OW 2257   0.781   2.310   1.157 -0.0349 -0.2392 -0.0453
  753SOL    HW1 2258   0.854   2.368   1.198 -0.4304 -0.7838 -1.1727
  753SOL    HW2 2259   0.817   2.216   1.125  1.8239  1.2240  0.3219
  754SOL     OW 2260   0.165   2.774   2.123 -0.3008 -0.2080  0.1214
  754SOL    HW1 2261   0.068   2.791   2.125  3.3584 -1.1482 -1.0359
  754SOL    HW2 2262   0.196   2.714   2.205 -0.5446  2.4828 -0.2447
  755SOL     OW 2263   2.221   0.373   0.430  0.3769  0.1946  0.1197
  755SOL    HW1 2264   2.159   0.395   0.346 -2.0180  0.9239 -0.8958
  755SOL    HW2 2265   2.225   0.447   0.502 -3.5179  1.9051  1.3393
  756SOL     OW 2266   2.201   2.312   2.678  0.0632  0.0880 -0.2871
  756SOL    HW1 2267   2.205   2.359   2.772  1.9950 -0.2185  1.1141
  756SOL    HW2 2268   2.220   2.380   2.609 -0.3487 -2.1167  0.7439
  757SOL     OW 2269   2.050   0.512   0.779 -0.5500  0.0691  0.0965
  757SOL    HW1 2270   2.110   0.539   0.701  0.2519  1.4498 -1.7334
  757SOL    HW2 2271   1.954   0.544   0.760 -2.3482 -2.1161  0.9446
  758SOL     OW 2272   2.141   0.645   1.576  0.1200 -0.4531 -0.0332
  758SOL    HW1 2273   2.145   0.724   1.503 -1.1194  3.3753 -3.0847
  758SOL    HW2 2274   2.143   0.687   1.671  2.2811 -1.2756 -1.2994
  759SOL     OW 2275   2.681   0.604   0.970  0.4102  0.2273  0.0847
  759SOL    HW1 2276   2.781   0.608   0.994  0.5227 -0.0851  0.5035
  759SOL    HW2 2277   2.635   0.694   0.956 -1.6407  4.5545 -0.8926
  760SOL     OW 2278   2.378   1.335   1.285 -0.2692  0.0113 -0.4632
  760SOL    HW1 2279   2.308   1.338   1.362 -2.7657 -0.6449 -3.3957
  760SOL    HW2 2280   2.468   1.372   1.311 -1.0327 -1.2885  2.1532
  761SOL     OW 2281   0.650   0.758   0.438 -0.3986 -0.2890  0.0511
  761SOL    HW1 2282   0.610   0.749   0.345  3.7816 -0.6025  0.9714
  761SOL    HW2 2283   0.589   0.817   0.495  0.0077 -0.4538 -2.0197
  762SOL     OW 2284   0.760   1.623   0.572  0.3180 -0.0786 -0.7330
  762SOL    HW1 2285   0.858   1.620   0.540  1.1959 -1.2403 -0.2644
  762SOL    HW2 2286   0.733   1.720   0.587 -2.8558  0.2501 -1.3818
  763SOL     OW 2287   1.383   1.047   1.493 -0.0846  0.3577 -0.7289
  763SOL    HW1 2288   1.424   1.029   1.401  1.1847 -1.2988  0.9957
  763SOL    HW2 2289   1.354   1.145   1.497  0.5195 -1.4853  0.7936
  764SOL     OW 2290   0.482   1.862   2.658 -0.4696 -0.2591  0.2709
  764SOL    HW1 2291   0.471   1.800   2.578  0.5575 -0.5407  0.3808
  764SOL    HW2 2292   0.405   1.928   2.673  1.9573 -2.8429  0.5664
  765SOL     OW 2293   0.798   2.689   1.793 -0.5233  0.0630 -0.1351
  765SOL    HW1 2294   0.823   2.600   1.748 -1.5155  0.8403  0.0606
  765SOL    HW2 2295   0.745   2.743   1.720 -1.5288 -1.4346  3.1002
  766SOL     OW 2296   2.434   2.189   2.134  0.0891 -0.4486 -0.2332
  766SOL    HW1 2297   2.509   2.218   2.200  0.0968 -0.0083 -1.8917
  766SOL    HW2 2298   2.351   2.220   2.171  2.5261 -0.5546 -0.6826
  767SOL     OW 2299   1.682   1.243   2.315 -0.3471 -0.4814  0.1710
  767SOL    HW1 2300   1.690   1.143   2.324 -2.9452  2.2677 -0.8648
  767SOL    HW2 2301   1.595   1.277   2.359 -1.2847  0.0524 -2.7420
  768SOL     OW 2302   1.565   1.745   0.093  0.2695  0.1838  0.1808
  768SOL    HW1 2303   1.508   1.714   0.177  0.3993  0.9369  3.3729
  768SOL    HW2 2304   1.526   1.824   0.043 -0.9231 -0.8411  1.3216
  769SOL     OW 2305   0.506   1.275   1.536 -0.2397  0.0407 -0.0736
  769SOL    HW1 2306   0.565   1.351   1.508 -0.8700 -1.0601  0.1371
  769SOL    HW2 2307   0.554   1.186   1.534  1.0035 -0.9741  0.9944
  770SOL     OW 2308   1.439   1.033   2.740 -0.3527  0.0558  0.4994
  770SOL    HW1 2309   1.439   1.000   2.837  1.2616  0.6378  1.0407
  770SOL    HW2 2310   1.524   1.005   2.691  1.5383  1.3933  2.6729
  771SOL     OW 2311   0.061   0.070   2.383  0.4752 -0.2112 -0.1013
  771SOL    HW1 2312   0.025   3.055   2.400  0.5767 -2.4783 -0.2927
  771SOL    HW2 2313   0.165   0.066   2.386  0.0750 -0.9050 -5.0276
  772SOL     OW 2314   1.947   1.875   1.844  0.6048 -0.2190 -0.8154
  772SOL    HW1 2315   1.986   1.916   1.923  0.7569 -3.0185 -2.1104
  772SOL    HW2 2316   1.865   1.929   1.810  1.6299 -0.8970 -1.8867
  773SOL     OW 2317   0.398   1.453   1.728 -0.4068  0.0672 -0.6391
  773SOL    HW1 2318   0.495   1.479   1.755  0.4185 -2.0778  1.8068
  773SOL    HW2 2319   0.399   1.394   1.644 -1.9716  0.6440 -0.3392
  774SOL     OW 2320   1.292   0.620   2.875 -0.1036 -0.3212  1.0246
  774SOL    HW1 2321   1.276   0.719   2.853  1.5094  0.1379  0.8193
  774SOL    HW2 2322   1.240   0.586   2.956  0.9704  1.1482  0.6520
  775SOL     OW 2323   1.917   2.875   0.131 -0.5654  0.0573 -0.8667
  775SOL    HW1 2324   1.930   2.963   0.185 -0.1928  1.2721 -1.7783
  775SOL    HW2 2325   1.976   2.798   0.172  1.4451 -2.5096 -1.9774
  776SOL     OW 2326   0.405   0.530   1.737 -0.1311 -0.3309 -0.3910
  776SOL    HW1 2327   0.340   0.458   1.762 -0.1502  1.0832  1.2895
  776SOL    HW2 2328   0.467   0.566   1.812  0.8610 -0.7642  3.8783
  777SOL     OW 2329   2.358   1.905   1.902  0.3800 -0.5062 -0.6151
  777SOL    HW1 2330   2.361   1.897   2.003 -1.2163  0.7602  4.5901
  777SOL    HW2 2331   2.320   2.000   1.872 -0.6652  1.3843 -1.5238
  778SOL     OW 2332   2.148   1.003   2.037  0.7831 -0.1007 -0.4473
  778SOL    HW1 2333   2.047   0.994   2.011 -3.4188 -0.2139  2.5119
  778SOL    HW2 2334   2.154   1.088   2.093  0.8796 -2.2192 -0.7759
  779SOL     OW 2335   2.724   1.020   0.185 -0.3804 -0.0317  0.0485
  779SOL    HW1 2336   2.677   1.107   0.210 -2.2528 -2.4614 -0.5287
  779SOL    HW2 2337   2.719   1.008   0.083 -0.1797  0.0657  1.3372
  780SOL     OW 2338   2.526   0.335   2.565  0.4985  0.2517 -0.1581
  780SOL    HW1 2339   2.568   0.416   2.617 -1.8468 -1.7129  0.8167
  780SOL    HW2 2340   2.595   0.259   2.550  0.7931  0.5566  1.9976
  781SOL     OW 2341   0.190   1.936   1.749 -0.7951  0.3220  0.7005
  781SOL    HW1 2342   0.221   1.948   1.653 -4.2745 -1.3645 -1.1432
  781SOL    HW2 2343   0.146   1.843   1.761 -0.2455  3.2524  0.3499
  782SOL     OW 2344   2.422   2.276   2.949 -0.0366  0.0664 -0.6117
  782SOL    HW1 2345   2.332   2.258   2.984 -1.5183 -0.1219  2.9176
  782SOL    HW2 2346   2.475   2.187   2.951 -0.2839 -0.5059 -2.2013
  783SOL     OW 2347   0.705   1.443   1.454 -0.3437  0.0653  0.3238
  783SOL    HW1 2348   0.779   1.415   1.515 -1.6778  2.1062  0.0839
  783SOL    HW2 2349   0.722   1.411   1.354 -0.2119 -0.7813  0.3797
  784SOL     OW 2350   2.112   0.836   2.771 -0.1902  0.1839  0.0857
  784SOL    HW1 2351   2.123   0.911   2.832  0.0013  1.3033 -0.5699
  784SOL    HW2 2352   2.053   0.761   2.812 -1.7106 -0.8753  3.1728
  785SOL     OW 2353   2.386   2.589   0.656 -0.3775 -0.1569 -0.3637
  785SOL    HW1 2354   2.465   2.657   0.666  2.0168  3.1463  1.0019
  785SOL    HW2 2355   2.292   2.623   0.685  0.0651  1.6295  1.1542
  786SOL     OW 2356   0.586   2.152   2.434 -0.0323  0.7438  0.4971
  786SOL    HW1 2357   0.532   2.115   2.355  2.7245 -0.3251  0.5600
  786SOL    HW2 2358   0.535   2.230   2.471  0.7695  0.1950  0.1856
  787SOL     OW 2359   1.433   0.500   1.173 -0.0023  0.3850 -0.2063
  787SOL    HW1 2360   1.343   0.550   1.193 -0.2150 -0.7042  1.9746
  787SOL    HW2 2361   1.509   0.565   1.175  0.9327 -0.1635 -0.3088
  788SOL     OW 2362   0.179   0.721   0.408 -0.2486  0.2438 -0.0829
  788SOL    HW1 2363   0.245   0.688   0.337  4.2375  0.2337 -1.3326
  788SOL    HW2 2364   0.119   0.792   0.369 -0.2977 -0.7568 -1.6847
  789SOL     OW 2365   2.979   2.098   1.293  0.2102  0.7825 -0.0037
  789SOL    HW1 2366   3.023   2.174   1.346  0.6291  0.3761 -2.3098
  789SOL    HW2 2367   2.914   2.134   1.220  0.1110 -0.7665 -1.0497
  790SOL     OW 2368   1.554   0.869   1.746  0.3752 -0.2009 -0.1270
  790SOL    HW1 2369   1.584   0.795   1.810 -0.4906  0.7135 -1.0067
  790SOL    HW2 2370   1.540   0.953   1.805  0.2938  1.6544  0.7475
  791SOL     OW 2371   1.545   0.450   0.730 -0.6450  0.1396  0.2991
  791SOL    HW1 2372   1.547   0.354   0.692 -1.4362  1.6611  0.1109
  791SOL    HW2 2373   1.496   0.438   0.820 -1.6420 -1.6328 -0.0556
  792SOL     OW 2374   1.621   2.898   1.868 -0.0855 -0.0822 -0.5109
  792SOL    HW1 2375   1.541   2.934   1.923 -2.9098 -1.4615 -0.1077
  792SOL    HW2 2376   1.585   2.860   1.780 -0.6158 -1.5216  0.1619
  793SOL     OW 2377   0.688   3.014   0.575  0.0281 -0.4193  0.7171
  793SOL    HW1 2378   0.782   3.002   0.533 -0.2325 -0.2682 -1.8261
  793SOL    HW2 2379   0.679   0.018   0.629  0.3287  1.1960  2.3994
  794SOL     OW 2380   0.672   1.008   2.426  0.6242  0.4171 -0.3261
  794SOL    HW1 2381   0.770   1.036   2.408 -0.8533  0.8039 -1.7514
  794SOL    HW2 2382   0.624   0.981   2.346  1.1605  2.5837  3.2417
  795SOL     OW 2383   0.210   1.810   2.247 -0.9641 -0.4290  0.0228
  795SOL    HW1 2384   0.126   1.817   2.194 -0.0756 -2.3975  2.6071
  795SOL    HW2 2385   0.200   1.811   2.350 -1.3711  0.8499 -1.8753
  796SOL     OW 2386   2.512   1.261   2.066 -0.3442  0.7376  0.1422
  796SOL    HW1 2387   2.582   1.312   2.011  0.1857  4.0924  1.2180
  796SOL    HW2 2388   2.461   1.326   2.126 -0.5965 -1.9785 -0.5932
  797SOL     OW 2389   2.976   2.781   2.667 -0.5526  0.2343 -0.0398
  797SOL    HW1 2390   3.041   2.715   2.714  1.2631 -0.7531  1.0315
  797SOL    HW2 2391   2.883   2.777   2.713  4.8935 -0.9743 -0.9461
  798SOL     OW 2392   3.061   2.108   2.132 -0.5097 -0.5687  0.3632
  798SOL    HW1 2393   2.986   2.172   2.105 -2.5161 -2.5947 -0.1794
  798SOL    HW2 2394   0.068   2.144   2.097  0.9755  0.7257  0.3674
  799SOL     OW 2395   2.887   2.293   2.908  0.2244  0.7617 -0.0233
  799SOL    HW1 2396   2.831   2.243   2.977  1.0992 -0.5047 -1.5100
  799SOL    HW2 2397   2.914   2.214   2.848 -0.9068  0.2252  1.7270
  800SOL     OW 2398   1.333   1.716   0.286  0.1979  0.0807  0.1523
  800SOL    HW1 2399   1.270   1.781   0.239 -0.3652  2.1928  0.1737
  800SOL    HW2 2400   1.364   1.758   0.370 -0.3017  0.1622 -1.7027
  801SOL     OW 2401   2.034   0.998   1.004 -0.0533 -0.1326  0.1716
  801SOL    HW1 2402   2.043   1.092   1.045  0.9342  2.0879 -2.4747
  801SOL    HW2 2403   2.023   0.921   1.076  0.7800 -3.2605  1.2217
  802SOL     OW 2404   2.908   1.304   0.229  0.2542  0.1097  0.2590
  802SOL    HW1 2405   2.840   1.351   0.291 -2.4049  0.3063 -0.8813
  802SOL    HW2 2406   3.001   1.296   0.266  0.0683 -0.6986 -1.6135
  803SOL     OW 2407   1.335   1.701   2.637  0.2606 -0.6186  0.1642
  803SOL    HW1 2408   1.270   1.769   2.672 -0.6354 -0.9666 -1.3819
  803SOL    HW2 2409   1.286   1.619   2.596 -1.4316 -0.4965 -0.2962
  804SOL     OW 2410   1.783   1.564   0.214  0.7144  0.4382 -0.0758
  804SOL    HW1 2411   1.713   1.638   0.198 -0.2877  0.6909 -0.3798
  804SOL    HW2 2412   1.849   1.572   0.286 -1.5520  1.9056 -2.7922
  805SOL     OW 2413   2.458   1.808   2.444  0.1553 -0.5256 -0.4354
  805SOL    HW1 2414   2.514   1.741   2.498  0.1720  0.5735  0.9141
  805SOL    HW2 2415   2.476   1.903   2.486  0.2398  3.3042  2.3508
  806SOL     OW 2416   0.453   2.952   0.388 -0.7374 -0.2132 -0.3336
  806SOL    HW1 2417   0.489   3.032   0.340 -2.0341 -1.8240  2.9814
  806SOL    HW2 2418   0.505   2.946   0.474 -0.6639  0.9535  1.4413
  807SOL     OW 2419   2.003   1.396   2.892 -0.8086  0.6667  0.1236
  807SOL    HW1 2420   1.972   1.492   2.876 -2.4123 -0.0052 -0.0540
  807SOL    HW2 2421   2.012   1.350   2.802 -0.3673  0.5109 -2.4397
  808SOL     OW 2422   3.052   1.694   0.350  0.0123 -0.2685 -0.1242
  808SOL    HW1 2423   3.019   1.619   0.414  0.3065  0.3203  2.7778
  808SOL    HW2 2424   2.974   1.742   0.306 -2.3840 -0.4676 -0.4971
  809SOL     OW 2425   2.379   1.131   0.001 -0.1053 -0.2336  0.3658
  809SOL    HW1 2426   2.305   1.062   3.072  0.0452  2.1225  1.1116
  809SOL    HW2 2427   2.348   1.220   3.061  2.6955 -5.6988  1.8491
  810SOL     OW 2428   0.593   1.107   0.195  0.3966 -0.2883  0.5767
  810SOL    HW1 2429   0.609   1.203   0.162 -0.5147 -0.5033  1.4246
  810SOL    HW2 2430   0.512   1.075   0.134  0.1329 -1.7407  0.4459
  811SOL     OW 2431   1.306   2.412   1.596  0.2879 -0.3037  0.3966
  811SOL    HW1 2432   1.326   2.468   1.512  0.0362  0.0265 -0.5249
  811SOL    HW2 2433   1.392   2.405   1.646 -2.7293  0.6701 -3.7710
  812SOL     OW 2434   0.862   2.469   1.660  0.1065 -0.1036  0.0845
  812SOL    HW1 2435   0.931   2.420   1.601  0.2885  2.0191 -0.3123
  812SOL    HW2 2436   0.778   2.417   1.640  1.1787  0.9802 -4.6577
  813SOL     OW 2437   1.489   0.481   2.060 -0.2590 -0.3684  0.1431
  813SOL    HW1 2438   1.546   0.390   2.067  0.4081 -1.2334  0.9853
  813SOL    HW2 2439   1.406   0.465   2.122 -0.1771 -2.5962  2.5144
  814SOL     OW 2440   1.397   2.391   2.925  0.1578 -0.1143 -0.4028
  814SOL    HW1 2441   1.365   2.486   2.901 -1.3085 -2.6983  0.4670
  814SOL    HW2 2442   1.376   2.330   2.845  1.7340  0.7411  0.7082
  815SOL     OW 2443   0.401   0.118   1.909  0.5604 -0.2207  0.2295
  815SOL    HW1 2444   0.435   0.166   1.989 -0.2465 -2.9876 -1.6640
  815SOL    HW2 2445   0.370   0.029   1.944 -2.0285 -1.5320  0.3773
  816SOL     OW 2446   2.033   0.573   2.926 -0.2738  0.3518 -0.0356
  816SOL    HW1 2447   2.111   0.575   2.994  0.3332 -1.8142  0.3232
  816SOL    HW2 2448   1.957   0.641   2.942  1.0302 -0.8075 -2.2743
  817SOL     OW 2449   2.220   0.391   2.154  0.0561  0.0333  0.5120
  817SOL    HW1 2450   2.231   0.401   2.049  1.3260 -1.5118 -1.5864
  817SOL    HW2 2451   2.148   0.325   2.184 -1.9578  1.4782  3.7791
  818SOL     OW 2452   1.935   0.375   0.011 -0.3577  0.1962  0.0900
  818SOL    HW1 2453   1.977   0.283   0.023  1.1346  2.5982  1.9400
  818SOL    HW2 2454   1.985   0.420   3.016 -1.2490 -1.1795  2.4362
  819SOL     OW 2455   2.160   1.827   2.904 -0.5635  0.0639  0.3075
  819SOL    HW1 2456   2.136   1.873   2.816 -0.0455  2.2633  1.2290
  819SOL    HW2 2457   2.141   1.897   2.972 -0.0604 -1.3591 -3.2244
  820SOL     OW 2458   3.008   2.027   3.047  0.0979 -0.5571  0.4739
  820SOL    HW1 2459   2.917   2.073   3.060 -1.9905 -0.3425  3.5774
  820SOL    HW2 2460   3.080   2.089   3.080  0.9325  1.8737  1.8776
  821SOL     OW 2461   0.211   2.547   0.822  0.6813  0.1962 -0.3397
  821SOL    HW1 2462   0.296   2.499   0.852 -3.3401 -2.1208 -2.3169
  821SOL    HW2 2463   0.190   2.525   0.726 -1.9282  2.3225  3.9300
  822SOL     OW 2464   2.925   2.757   3.021 -0.3909  0.3640  0.4178
  822SOL    HW1 2465   2.873   2.754   2.934 -2.3558  0.3306 -1.2456
  822SOL    HW2 2466   2.939   2.854   3.048 -0.4976 -2.9785  0.5869
  823SOL     OW 2467   1.378   0.419   2.428  0.2320  0.2378  0.2849
  823SOL    HW1 2468   1.449   0.365   2.470  1.4912  0.3774 -2.7227
  823SOL    HW2 2469   1.316   0.450   2.505 -0.5458 -0.4383 -0.8066
  824SOL     OW 2470   2.632   1.950   1.445 -0.1836 -0.3508  0.4354
  824SOL    HW1 2471   2.636   1.934   1.547  1.1430  1.1615 -1.4737
  824SOL    HW2 2472   2.666   2.041   1.425  1.2256 -0.5490  0.8473
  825SOL     OW 2473   2.558   2.053   2.545 -0.0338 -0.1236  0.1136
  825SOL    HW1 2474   2.534   2.154   2.568 -1.7917 -0.8783  1.3123
  825SOL    HW2 2475   2.624   2.041   2.464 -0.5496 -2.3019 -1.6578
  826SOL     OW 2476   2.622   1.734   2.022  0.2612  0.4948  0.2424
  826SOL    HW1 2477   2.584   1.658   1.968 -0.5719  0.8561  1.9000
  826SOL    HW2 2478   2.553   1.789   2.077 -2.8542  0.8087  0.0782
  827SOL     OW 2479   2.320   2.275   1.145  0.1135  0.4801 -0.1263
  827SOL    HW1 2480   2.233   2.276   1.202 -1.6007 -0.7820  1.1794
  827SOL    HW2 2481   2.343   2.179   1.123 -1.6097  3.7205 -1.8881
  828SOL     OW 2482   3.059   3.021   1.266 -0.1915  0.6439  0.4205
  828SOL    HW1 2483   3.018   3.044   1.178  1.0622 -0.4087  2.1702
  828SOL    HW2 2484   3.045   0.016   1.327 -0.1798 -2.3002 -0.9565
  829SOL     OW 2485   1.607   2.291   2.404 -0.3542  0.2225  0.5908
  829SOL    HW1 2486   1.606   2.209   2.460 -0.5376 -1.1137 -1.1840
  829SOL    HW2 2487   1.674   2.357   2.443 -0.6666 -2.1592 -2.0864
  830SOL     OW 2488   1.155   0.508   0.817  0.4293 -0.3112 -0.0653
  830SOL    HW1 2489   1.173   0.609   0.825  0.2250  0.2251  0.5388
  830SOL    HW2 2490   1.237   0.463   0.859 -0.3970  0.0715 -1.7054
  831SOL     OW 2491   2.649   1.369   2.907 -0.6081  0.4873 -0.2478
  831SOL    HW1 2492   2.645   1.365   3.004  3.6326 -3.3012 -2.4580
  831SOL    HW2 2493   2.742   1.395   2.871  0.4454  2.2282 -0.9252
  832SOL     OW 2494   1.426   2.004   1.927  0.5062 -0.2654  0.1608
  832SOL    HW1 2495   1.397   2.055   2.012  0.8713 -1.4730  4.0995
  832SOL    HW2 2496   1.517   2.041   1.914 -2.7969 -2.2949 -0.8325
  833SOL     OW 2497   0.034   2.948   1.875  0.2320  0.0443 -0.2227
  833SOL    HW1 2498   3.028   2.904   1.874  1.9467  1.0212 -0.7179
  833SOL    HW2 2499   0.054   2.980   1.966 -4.5518 -0.6300 -2.5909
  834SOL     OW 2500   1.003   1.140   1.711  0.0178  0.5231  0.0059
  834SOL    HW1 2501   1.045   1.134   1.613 -0.1349  0.2563 -1.8476
  834SOL    HW2 2502   1.022   1.062   1.773  0.9750 -1.4722  0.8351
  835SOL     OW 2503   2.820   0.884   2.935  0.1126 -0.0026  0.0959
  835SOL    HW1 2504   2.737   0.941   2.950 -1.8520 -2.8787 -0.2100
  835SOL    HW2 2505   2.825   0.832   2.844  1.6167 -0.4718 -1.2216
  836SOL     OW 2506   1.109   1.546   0.497 -0.3768 -0.3251  0.2360
  836SOL    HW1 2507   1.138   1.613   0.565  1.2562  0.1120 -2.3773
  836SOL    HW2 2508   1.047   1.595   0.432 -2.1384 -2.0139 -2.0974
  837SOL     OW 2509   1.324   1.330   1.253 -0.0837  0.3125  0.2866
  837SOL    HW1 2510   1.373   1.391   1.317 -0.2634  1.9756  1.7762
  837SOL    HW2 2511   1.323   1.379   1.163  1.3034 -0.6301 -0.6568
  838SOL     OW 2512   1.151   1.844   2.302 -0.1755 -0.1152 -0.5576
  838SOL    HW1 2513   1.181   1.766   2.360  1.6266  3.4520 -0.5666
  838SOL    HW2 2514   1.055   1.856   2.297  0.7709 -0.1973 -1.1570
  839SOL     OW 2515   0.718   1.999   2.616  0.1714 -0.3138 -0.5159
  839SOL    HW1 2516   0.638   1.942   2.643 -1.3917 -1.0405  0.5632
  839SOL    HW2 2517   0.696   2.054   2.533 -2.4410 -2.5943  0.2178
  840SOL     OW 2518   0.693   2.491   0.491  0.2856 -0.4017 -0.6977
  840SOL    HW1 2519   0.764   2.419   0.510 -0.7644  1.6018 -1.7421
  840SOL    HW2 2520   0.721   2.556   0.412 -0.1282  0.0562 -3.3571
  841SOL     OW 2521   1.908   2.537   0.251 -0.1406  0.3784  0.6182
  841SOL    HW1 2522   1.837   2.575   0.306  2.7721 -3.1300 -1.3663
  841SOL    HW2 2523   1.984   2.603   0.255  3.3545 -1.5407  0.5548
  842SOL     OW 2524   0.843   0.573   3.038  0.3487  0.3856  0.4975
  842SOL    HW1 2525   0.849   0.621   2.947 -0.1641 -1.5646 -1.4433
  842SOL    HW2 2526   0.890   0.622   0.028 -3.7435 -0.5215 -0.0910
  843SOL     OW 2527   1.313   3.026   0.738  0.1717  0.5887  0.2602
  843SOL    HW1 2528   1.295   3.075   0.654  1.1667 -2.2384  1.4810
  843SOL    HW2 2529   1.220   2.990   0.768 -0.9472 -0.4847 -2.1619
  844SOL     OW 2530   2.428   2.856   2.368  0.0611 -0.4387 -0.3352
  844SOL    HW1 2531   2.456   2.951   2.341  1.0211  4.9514 -1.9848
  844SOL    HW2 2532   2.510   2.800   2.377 -1.2299 -0.4273 -2.6646
  845SOL     OW 2533   2.697   2.568   1.142 -0.5259  0.2273 -0.2189
  845SOL    HW1 2534   2.796   2.547   1.161  1.6316 -1.5785  2.8137
  845SOL    HW2 2535   2.663   2.504   1.073 -2.3816 -1.2847  0.1196
  846SOL     OW 2536   0.130   1.873   2.507  0.1818 -0.3680  1.0625
  846SOL    HW1 2537   0.100   1.781   2.530 -0.1656  1.1236 -0.5843
  846SOL    HW2 2538   0.162   1.929   2.582 -1.5755 -2.9293 -1.0130
  847SOL     OW 2539   1.399   0.696   1.554 -0.3796  0.2859 -0.6140
  847SOL    HW1 2540   1.335   0.740   1.490 -1.7117 -3.3742  3.6060
  847SOL    HW2 2541   1.399   0.748   1.642  0.7009 -1.5085  2.3676
  848SOL     OW 2542   2.651   3.000   0.033 -0.2631 -0.4953  0.3989
  848SOL    HW1 2543   2.609   3.074   0.088 -3.1310 -0.3451 -0.5335
  848SOL    HW2 2544   2.599   2.916   0.034  1.8350  0.8520  1.5398
  849SOL     OW 2545   0.618   2.879   2.678 -0.0456  0.0008  0.4866
  849SOL    HW1 2546   0.590   2.814   2.754  1.4017 -0.6752 -1.7740
  849SOL    HW2 2547   0.715   2.899   2.681  0.8365  0.1357 -3.1320
  850SOL     OW 2548   1.157   2.586   1.062  0.8769 -0.0584 -0.0328
  850SOL    HW1 2549   1.185   2.501   1.014  0.7477 -1.1130 -0.0324
  850SOL    HW2 2550   1.242   2.639   1.098  0.4010  2.6790  0.7458
  851SOL     OW 2551   2.860   0.367   2.218  0.0444 -0.1757 -0.1008
  851SOL    HW1 2552   2.904   0.358   2.308 -0.9218  1.8449  0.6861
  851SOL    HW2 2553   2.928   0.368   2.140  2.2183  0.0014  0.5342
  852SOL     OW 2554   2.129   1.287   2.244  0.5495 -0.1334 -0.5637
  852SOL    HW1 2555   2.045   1.335   2.279 -1.7941  0.2472  0.5930
  852SOL    HW2 2556   2.157   1.218   2.317 -0.4025 -0.2405 -0.8204
  853SOL     OW 2557   2.901   0.034   0.483  0.2864 -1.0691 -0.1192
  853SOL    HW1 2558   2.826   0.090   0.450 -0.0113 -1.3541  0.1616
  853SOL    HW2 2559   2.903   0.034   0.587 -0.9469 -0.7972 -0.0066
  854SOL     OW 2560   2.253   0.993   1.716 -0.4728  0.0974 -0.3527
  854SOL    HW1 2561   2.320   1.023   1.789 -0.6008  0.5896  0.7156
  854SOL    HW2 2562   2.164   1.033   1.741  0.9145  1.4103 -0.2675
  855SOL     OW 2563   1.519   2.266   0.501  0.2654 -0.1595 -0.1584
  855SOL    HW1 2564   1.566   2.348   0.539  1.5984  2.1746 -1.8752
  855SOL    HW2 2565   1.565   2.177   0.530 -0.6628 -1.7822  3.3777
  856SOL     OW 2566   2.908   0.269   2.879  0.0539 -0.1639 -0.0953
  856SOL    HW1 2567   2.924   0.213   2.796 -2.4711 -1.2676 -2.0476
  856SOL    HW2 2568   2.974   0.257   2.953 -2.2355  3.6506  1.2105
  857SOL     OW 2569   1.181   0.088   1.722 -0.1396 -0.4250 -0.1876
  857SOL    HW1 2570   1.272   0.136   1.702 -2.1062 -1.7759  0.7864
  857SOL    HW2 2571   1.175   0.066   1.821 -0.2651  2.1329 -3.2652
  858SOL     OW 2572   2.281   2.135   1.565 -0.0274  0.0202  0.0931
  858SOL    HW1 2573   2.307   2.056   1.512  1.6766  3.8015  1.1297
  858SOL    HW2 2574   2.339   2.217   1.541  0.3972 -1.4846  1.7104
  859SOL     OW 2575   1.213   2.339   0.968 -0.4093  1.0685 -0.1422
  859SOL    HW1 2576   1.277   2.313   0.888  1.0997 -0.3078  0.8770
  859SOL    HW2 2577   1.253   2.309   1.058 -0.6542 -1.4606  2.7257
  860SOL     OW 2578   2.496   2.532   3.001  0.0479 -0.2914 -0.3488
  860SOL    HW1 2579   2.594   2.531   3.031 -2.1250  1.7400 -4.1409
  860SOL    HW2 2580   2.469   2.438   2.984  1.6782  2.1435 -0.8096
  861SOL     OW 2581   2.204   2.888   0.908  0.0115  1.0578  0.3733
  861SOL    HW1 2582   2.197   2.959   0.980  3.2644 -0.6446 -0.6216
  861SOL    HW2 2583   2.297   2.845   0.912  0.7695 -4.4035  1.5216
  862SOL     OW 2584   2.045   2.683   2.245  0.5693 -0.4486 -0.1898
  862SOL    HW1 2585   2.019   2.701   2.344  0.3173 -1.4441 -0.6923
  862SOL    HW2 2586   2.045   2.772   2.188 -0.6246  4.9018 -2.2265
  863SOL     OW 2587   0.211   0.618   0.654  0.0523 -0.2574 -0.4396
  863SOL    HW1 2588   0.299   0.569   0.676  0.6101 -0.3790  0.5820
  863SOL    HW2 2589   0.215   0.652   0.560  1.4159 -0.3412  2.2304
  864SOL     OW 2590   2.971   2.573   2.147  0.0517  0.7949  0.2497
  864SOL    HW1 2591   3.040   2.523   2.199  1.0559  1.8252  0.1274
  864SOL    HW2 2592   2.969   2.669   2.183  0.9434  0.2465 -0.0666
  865SOL     OW 2593   0.396   1.422   2.743 -0.1351  0.1732 -0.4785
  865SOL    HW1 2594   0.354   1.502   2.793 -0.0345  2.9285  0.5433
  865SOL    HW2 2595   0.442   1.348   2.800  2.3380 -0.6576  0.8951
  866SOL     OW 2596   2.832   0.770   2.670  0.1464  0.0450 -0.2180
  866SOL    HW1 2597   2.898   0.788   2.593 -2.8844 -0.4456 -0.9692
  866SOL    HW2 2598   2.843   0.676   2.709 -1.1165 -1.6675  1.1650
  867SOL     OW 2599   0.194   3.054   2.709 -0.0862 -0.5207  0.2014
  867SOL    HW1 2600   0.252   2.975   2.739 -2.8778  0.4651 -0.9641
  867SOL    HW2 2601   0.103   3.041   2.761 -0.9682 -1.6464 -0.3532
  868SOL     OW 2602   1.617   2.818   1.014  0.0550  0.1098  0.0477
  868SOL    HW1 2603   1.568   2.904   1.039 -0.1754  0.7270 -0.3186
  868SOL    HW2 2604   1.716   2.843   0.990 -0.6217 -1.4381  1.4081
  869SOL     OW 2605   1.350   1.460   1.031 -0.5028 -0.0524  0.2488
  869SOL    HW1 2606   1.440   1.470   0.988  2.3101  0.5685  1.1926
  869SOL    HW2 2607   1.332   1.540   1.090 -0.1775  0.3418 -2.1163
  870SOL     OW 2608   1.856   2.022   1.201 -0.2968  0.3812 -0.1903
  870SOL    HW1 2609   1.951   2.008   1.170 -2.1418 -0.4901  1.4256
  870SOL    HW2 2610   1.824   1.939   1.251 -0.3055  0.3488  0.8738
  871SOL     OW 2611   0.654   1.555   1.743  0.2003  0.4949 -0.7089
  871SOL    HW1 2612   0.632   1.638   1.688  1.1829  0.6253 -0.8221
  871SOL    HW2 2613   0.728   1.505   1.695  2.8325 -2.4267 -1.4934
  872SOL     OW 2614   1.056   1.370   1.346 -0.2163  0.3757  0.7729
  872SOL    HW1 2615   1.149   1.331   1.360 -1.6881 -0.9871 -0.7539
  872SOL    HW2 2616   0.987   1.307   1.387  0.3648  0.1330  1.4845
  873SOL     OW 2617   1.227   0.972   2.593  0.0073  0.0272  0.4653
  873SOL    HW1 2618   1.179   1.058   2.558  0.5390  2.6890  0.1001
  873SOL    HW2 2619   1.313   0.999   2.639 -0.5422  0.5311  3.6972
  874SOL     OW 2620   0.171   1.425   1.398  0.0031 -0.1716 -0.4230
  874SOL    HW1 2621   0.219   1.513   1.397  0.4474  0.8763 -2.6159
  874SOL    HW2 2622   0.223   1.356   1.345  0.3382  1.0018  0.7845
  875SOL     OW 2623   2.821   3.062   0.771  0.1511  0.0370  0.3073
  875SOL    HW1 2624   2.858   0.022   0.854 -1.8961 -0.1029 -2.4941
  875SOL    HW2 2625   2.724   0.005   0.753 -1.5025  3.0379 -0.0780
  876SOL     OW 2626   0.984   0.364   2.690  0.1993  0.0698  0.3761
  876SOL    HW1 2627   0.896   0.421   2.680 -0.7424  3.4904  0.4954
  876SOL    HW2 2628   1.064   0.420   2.661  0.9377  2.6298  2.3469
  877SOL     OW 2629   0.192   0.433   1.063 -0.6064 -0.0645  0.7033
  877SOL    HW1 2630   0.099   0.418   1.093  0.4874 -1.0944 -1.6543
  877SOL    HW2 2631   0.194   0.509   0.996 -0.2291  1.1089  0.4938
  878SOL     OW 2632   1.695   2.723   0.068 -0.0249 -0.0855  0.6258
  878SOL    HW1 2633   1.775   2.777   0.096 -1.1816  0.2785 -1.0330
  878SOL    HW2 2634   1.631   2.693   0.143  0.0459 -1.4074 -2.1013
  879SOL     OW 2635   2.096   1.591   1.586  0.4699  0.2596  0.5245
  879SOL    HW1 2636   2.083   1.651   1.509 -1.7914  0.5537 -0.2378
  879SOL    HW2 2637   2.144   1.638   1.659 -0.9186 -0.2006 -1.3052
  880SOL     OW 2638   0.789   0.778   1.616  0.1060  0.3102  0.1576
  880SOL    HW1 2639   0.859   0.716   1.653 -2.5531  1.2136 -0.8119
  880SOL    HW2 2640   0.739   0.828   1.689  0.6950  0.2426  2.9501
  881SOL     OW 2641   0.788   1.958   3.081 -0.3696  0.2371  0.3416
  881SOL    HW1 2642   0.750   1.935   2.990  0.9450 -1.2141  0.3143
  881SOL    HW2 2643   0.874   2.013   3.071  0.2944  1.2312 -0.9752
  882SOL     OW 2644   1.958   0.847   1.228  0.2037  0.3248  0.0490
  882SOL    HW1 2645   2.016   0.871   1.311  1.7643  0.8309 -0.9860
  882SOL    HW2 2646   1.952   0.747   1.217  1.0346 -0.9935 -0.2351
  883SOL     OW 2647   1.898   0.616   2.011  0.7040 -0.8094  0.0594
  883SOL    HW1 2648   1.922   0.591   2.103 -1.0295 -0.5209 -3.0587
  883SOL    HW2 2649   1.948   0.559   1.951 -2.0019  1.8945  2.3678
  884SOL     OW 2650   2.341   0.322   0.045  0.1504  0.1345  0.3087
  884SOL    HW1 2651   2.350   0.410   0.093 -1.9667 -2.7502 -2.2867
  884SOL    HW2 2652   2.422   0.302   3.066  2.8884  0.5919 -1.9901
  885SOL     OW 2653   0.410   1.891   0.563 -0.3574 -0.0804 -0.0775
  885SOL    HW1 2654   0.395   1.975   0.513  1.4026 -2.2857  2.3217
  885SOL    HW2 2655   0.411   1.910   0.665  0.2685  3.4111  1.9590
  886SOL     OW 2656   1.676   1.355   0.061 -0.4769  0.1526  0.5275
  886SOL    HW1 2657   1.583   1.335   0.111 -2.2499 -0.2199  1.3904
  886SOL    HW2 2658   1.713   1.446   0.088  0.3943  0.9178 -1.1785
  887SOL     OW 2659   1.501   0.467   1.598  0.1611 -0.1517  0.8011
  887SOL    HW1 2660   1.572   0.430   1.530 -0.0254 -0.7978 -4.5047
  887SOL    HW2 2661   1.476   0.562   1.574 -2.2586 -0.5753  2.3243
  888SOL     OW 2662   2.911   1.252   1.559 -0.2901  0.2471  0.7347
  888SOL    HW1 2663   2.963   1.247   1.473 -1.8260 -0.1581  1.2744
  888SOL    HW2 2664   2.815   1.222   1.536 -3.0561  2.0078 -1.3712
  889SOL     OW 2665   2.966   2.574   1.119 -0.2934  0.2246 -0.3821
  889SOL    HW1 2666   2.998   2.646   1.051  0.7948 -0.8227  2.0981
  889SOL    HW2 2667   3.027   2.491   1.116  2.2020 -2.5064  3.1818
  890SOL     OW 2668   0.098   2.449   2.275  0.0025  0.8494  0.2048
  890SOL    HW1 2669   0.070   2.418   2.369  1.2677 -2.4303  1.1066
  890SOL    HW2 2670   0.194   2.470   2.274 -0.9484  0.0666 -3.5354
  891SOL     OW 2671   0.425   1.630   0.268  0.2058 -0.1339 -0.4140
  891SOL    HW1 2672   0.435   1.727   0.309  0.1629  1.1289 -1.0423
  891SOL    HW2 2673   0.510   1.574   0.290 -0.3712 -0.4982 -1.7061
  892SOL     OW 2674   0.040   2.270   1.451 -0.2279  0.5697  0.9427
  892SOL    HW1 2675   0.006   2.223   1.534  0.0030  0.5284  0.7970
  892SOL    HW2 2676   0.044   2.373   1.464  2.3850 -1.1553  0.0329
  893SOL     OW 2677   0.148   3.046   1.652 -0.2195  0.6955  0.1966
  893SOL    HW1 2678   0.095   2.982   1.717 -2.1701 -4.7936  0.6704
  893SOL    HW2 2679   0.208   2.996   1.583  1.3966 -0.3600  1.0769
  894SOL     OW 2680   2.519   1.788   0.817 -0.3812  0.0054  0.3007
  894SOL    HW1 2681   2.557   1.857   0.875 -1.0692 -0.9107  3.0818
  894SOL    HW2 2682   2.493   1.823   0.725 -1.6459 -0.9772 -0.6807
  895SOL     OW 2683   2.291   2.506   1.588  0.0748  0.0121 -0.2662
  895SOL    HW1 2684   2.191   2.528   1.576 -0.4473  4.7095  2.7069
  895SOL    HW2 2685   2.321   2.473   1.681  0.4315 -2.0371  2.9248
  896SOL     OW 2686   0.772   3.062   1.504  0.1548 -0.2308 -0.8604
  896SOL    HW1 2687   0.702   0.023   1.561 -0.3449  1.2097  1.4966
  896SOL    HW2 2688   0.775   2.962   1.536 -0.8475 -1.0702  3.0106
  897SOL     OW 2689   0.750   1.304   1.221 -0.0236 -0.6458  0.2385
  897SOL    HW1 2690   0.818   1.349   1.164 -1.0187 -1.6232  0.5734
  897SOL    HW2 2691   0.659   1.295   1.172 -0.0921 -0.5414 -1.8940
  898SOL     OW 2692   1.605   2.650   1.592  0.2516  0.4136  0.3483
  898SOL    HW1 2693   1.655   2.591   1.658 -0.4426  0.3984 -1.0054
  898SOL    HW2 2694   1.591   2.606   1.499 -0.1444 -2.3597 -2.5874
  899SOL     OW 2695   1.161   0.328   2.911  0.2092 -0.3392  0.0212
  899SOL    HW1 2696   1.234   0.265   2.876  0.4067  0.6877 -0.8227
  899SOL    HW2 2697   1.099   0.365   2.840 -1.7208  0.3607 -0.0345
  900SOL     OW 2698   1.138   2.740   2.005 -0.1842 -0.1885 -0.0085
  900SOL    HW1 2699   1.203   2.677   1.964  0.5855 -1.0169  2.1581
  900SOL    HW2 2700   1.090   2.799   1.940  0.0293  0.2913 -0.3214
  901SOL     OW 2701   0.731   2.010   0.241 -0.0508 -0.9007  0.1254
  901SOL    HW1 2702   0.802   2.018   0.320 -1.2556  2.7450  0.8674
  901SOL    HW2 2703   0.773   1.992   0.149 -1.3136  2.8703  0.7041
  902SOL     OW 2704   1.487   1.107   1.248  0.3532 -0.5353  0.2014
  902SOL    HW1 2705   1.507   1.063   1.157 -0.8161 -1.0020 -1.7595
  902SOL    HW2 2706   1.449   1.205   1.238  0.8584 -1.0297 -0.2859
  903SOL     OW 2707   2.645   1.080   2.984 -0.4018 -0.1929 -0.0595
  903SOL    HW1 2708   2.670   1.165   2.933  0.1924 -1.9884 -2.5362
  903SOL    HW2 2709   2.548   1.074   3.014 -0.3598  0.1872 -0.6593
  904SOL     OW 2710   0.867   1.477   0.069  0.3222 -0.0772  0.1564
  904SOL    HW1 2711   0.838   1.574   0.097 -0.5656  1.9911  1.6489
  904SOL    HW2 2712   0.917   1.431   0.145  0.3166  2.6132  0.4870
  905SOL     OW 2713   1.693   0.018   1.295  0.1149  0.2193 -0.3666
  905SOL    HW1 2714   1.655   0.112   1.267 -1.0931  2.6193  1.1087
  905SOL    HW2 2715   1.652   3.032   1.237 -0.7178  2.1514  0.0438
  906SOL     OW 2716   2.464   2.795   0.921  0.2584 -0.0980 -0.1377
  906SOL    HW1 2717   2.516   2.762   0.841 -2.2410 -0.3118 -1.0944
  906SOL    HW2 2718   2.470   2.895   0.939 -0.2895 -0.5105 -0.8629
  907SOL     OW 2719   1.482   0.720   0.677  0.4926  0.4354  0.4105
  907SOL    HW1 2720   1.518   0.625   0.696  0.4184  2.8721 -0.4060
  907SOL    HW2 2721   1.409   0.748   0.745  0.2507  1.3196 -1.1963
  908SOL     OW 2722   1.641   0.291   1.268 -0.0576  0.4808  0.0696
  908SOL    HW1 2723   1.625   0.364   1.201 -0.5711  0.0041 -0.3238
  908SOL    HW2 2724   1.694   0.317   1.353 -2.0637 -2.3862  0.1694
  909SOL     OW 2725   1.924   0.583   1.220  0.1741 -0.0917  0.2455
  909SOL    HW1 2726   1.982   0.586   1.131  0.3690 -1.8537 -2.1000
  909SOL    HW2 2727   1.958   0.520   1.293  1.2298  1.2999 -0.7148
  910SOL     OW 2728   2.638   0.615   1.846 -0.3395 -0.3575 -0.1282
  910SOL    HW1 2729   2.624   0.609   1.744  1.1108 -1.1873  0.3348
  910SOL    HW2 2730   2.556   0.669   1.880 -2.3397  0.0730 -0.8203
  911SOL     OW 2731   2.563   0.568   2.712 -0.3835 -0.1323  0.4048
  911SOL    HW1 2732   2.556   0.636   2.635 -2.3505  1.6107  1.1011
  911SOL    HW2 2733   2.504   0.597   2.789  0.4495 -0.1090 -3.0203
  912SOL     OW 2734   0.729   1.146   1.831 -0.0682 -0.1890  0.0936
  912SOL    HW1 2735   0.808   1.207   1.808 -0.9870  0.0498  0.8098
  912SOL    HW2 2736   0.678   1.124   1.748  0.0853  1.7738  0.7169
  913SOL     OW 2737   2.800   2.302   1.590  0.0966 -0.0606 -0.4321
  913SOL    HW1 2738   2.811   2.216   1.641 -0.6473 -0.4351  0.7611
  913SOL    HW2 2739   2.849   2.383   1.624 -0.3265  1.3021 -1.1950
  914SOL     OW 2740   1.829   0.860   1.700 -0.0107  0.3417  0.8756
  914SOL    HW1 2741   1.873   0.953   1.682  1.5376 -0.4358 -0.0755
  914SOL    HW2 2742   1.732   0.864   1.691  3.8607 -2.2843 -0.5753
  915SOL     OW 2743   2.765   1.185   0.940 -0.5692 -0.2579 -0.7292
  915SOL    HW1 2744   2.799   1.128   1.020 -0.2434 -2.8960  0.8056
  915SOL    HW2 2745   2.734   1.274   0.970 -0.7593 -3.7259  0.2806
  916SOL     OW 2746   1.801   2.307   1.094 -0.3212  0.1633 -0.0622
  916SOL    HW1 2747   1.837   2.376   1.159 -0.0717  0.2654 -1.2241
  916SOL    HW2 2748   1.803   2.210   1.128 -1.2991  0.6202  1.6311
  917SOL     OW 2749   1.998   2.398   2.325 -0.6092  0.1822 -0.1056
  917SOL    HW1 2750   1.934   2.419   2.401  0.9901  1.8092  1.4962
  917SOL    HW2 2751   2.027   2.484   2.280 -0.0235 -0.9760  0.1968
  918SOL     OW 2752   1.797   2.701   2.636 -0.6732 -0.0793  0.3093
  918SOL    HW1 2753   1.702   2.708   2.601 -0.8065  0.6384  0.3364
  918SOL    HW2 2754   1.871   2.732   2.571 -0.8890 -0.9329  3.1525
  919SOL     OW 2755   1.028   0.101   1.505  0.0619 -0.2944  0.1495
  919SOL    HW1 2756   0.938   0.052   1.493 -3.3654  0.8020  1.2788
  919SOL    HW2 2757   1.067   0.096   1.601  2.4090  2.1372  0.9658
  920SOL     OW 2758   2.948   0.393   2.491  0.3486 -0.1079 -0.1966
  920SOL    HW1 2759   2.944   0.304   2.546  0.3748 -0.8549  0.3319
  920SOL    HW2 2760   2.901   0.460   2.551 -1.7856 -1.5933  0.6998
  921SOL     OW 2761   0.051   0.868   1.802 -0.1935 -0.1077 -0.1934
  921SOL    HW1 2762   0.142   0.916   1.805  1.4023 -0.6846 -1.2821
  921SOL    HW2 2763   3.069   0.930   1.761  1.5951 -2.2884 -1.4413
  922SOL     OW 2764   2.279   2.441   0.444  0.3190  0.0430 -0.1630
  922SOL    HW1 2765   2.301   2.502   0.523 -0.6691 -0.5111  0.2534
  922SOL    HW2 2766   2.339   2.465   0.369 -4.3589  0.2818 -0.5426
  923SOL     OW 2767   0.709   1.932   0.594  0.0067  0.1956  0.4039
  923SOL    HW1 2768   0.725   1.990   0.677  0.0663 -1.1676  1.5927
  923SOL    HW2 2769   0.612   1.939   0.565  1.7760 -0.3344 -1.3927
  924SOL     OW 2770   1.145   0.906   2.885  0.2410  0.0585 -0.0242
  924SOL    HW1 2771   1.132   0.943   2.794 -1.4659 -2.7350  2.4265
  924SOL    HW2 2772   1.055   0.914   2.935  0.2650 -1.3205 -0.6728
  925SOL     OW 2773   2.624   1.264   0.568  0.1788 -0.2410  0.0858
  925SOL    HW1 2774   2.700   1.293   0.630  0.6087  2.3527  0.3598
  925SOL    HW2 2775   2.541   1.250   0.628 -3.1770 -2.3926  1.1316
  926SOL     OW 2776   0.581   0.341   1.164  0.3155  0.4993 -0.4849
  926SOL    HW1 2777   0.531   0.249   1.169  0.1946 -1.9723  2.5497
  926SOL    HW2 2778   0.523   0.415   1.199 -2.0745  1.3361 -1.8192
  927SOL     OW 2779   0.467   1.581   2.509  0.0348  0.1339  0.1764
  927SOL    HW1 2780   0.448   1.561   2.605 -1.9233  3.5493 -2.1818
  927SOL    HW2 2781   0.393   1.551   2.446  0.6432  0.0250  1.5180
  928SOL     OW 2782   0.305   0.461   2.169 -0.2763  0.5459  0.0488
  928SOL    HW1 2783   0.247   0.449   2.252 -1.0670  1.5246 -0.6759
  928SOL    HW2 2784   0.266   0.410   2.088  1.6560 -3.2979 -2.0281
  929SOL     OW 2785   2.981   2.768   1.359  0.1217 -0.0833 -0.0563
  929SOL    HW1 2786   2.979   2.706   1.277 -1.7410 -1.8232  1.1950
  929SOL    HW2 2787   3.017   2.862   1.332 -2.7603  1.3173  0.9659
  930SOL     OW 2788   1.940   0.224   1.910 -0.0522 -0.1320 -0.0739
  930SOL    HW1 2789   1.995   0.146   1.867  2.3326 -1.7480 -1.9405
  930SOL    HW2 2790   1.958   0.225   2.013 -0.0637  2.7515 -0.8790
  931SOL     OW 2791   2.145   0.993   3.058 -0.0580 -0.1222  0.2378
  931SOL    HW1 2792   2.091   0.912   0.008 -0.0053  1.1039  1.9201
  931SOL    HW2 2793   2.102   1.076   0.012  1.5262 -1.7123 -1.3209
  932SOL     OW 2794   1.880   1.172   0.637 -0.0000  0.1285 -0.0146
  932SOL    HW1 2795   1.979   1.149   0.618  0.9924 -1.5624 -0.6719
  932SOL    HW2 2796   1.830   1.184   0.549 -0.0416 -0.9938  1.3275
  933SOL     OW 2797   1.826   1.648   0.972  0.0822 -0.7331 -0.0757
  933SOL    HW1 2798   1.842   1.569   0.911  1.1982 -0.2863 -1.8177
  933SOL    HW2 2799   1.811   1.615   1.070  0.3726  0.5060  1.6546
  934SOL     OW 2800   2.033   1.011   2.583  0.1447  0.1751  0.0666
  934SOL    HW1 2801   2.057   0.929   2.639 -0.4835  3.3031  0.6223
  934SOL    HW2 2802   2.003   0.981   2.485  1.0422 -0.2340 -3.1381
  935SOL     OW 2803   0.134   1.072   0.494  0.1576 -0.5134  0.4895
  935SOL    HW1 2804   0.120   1.143   0.423  0.2907  1.9864 -1.1617
  935SOL    HW2 2805   0.049   1.052   0.544 -1.7120  0.2017  0.3510
  936SOL     OW 2806   0.360   2.772   0.841  0.2104 -0.0124 -0.1235
  936SOL    HW1 2807   0.338   2.842   0.773  3.1046 -1.1516 -0.2050
  936SOL    HW2 2808   0.311   2.688   0.817  1.5970 -2.2237 -1.6762
  937SOL     OW 2809   2.975   2.493   1.727 -0.4431 -0.0139 -0.1753
  937SOL    HW1 2810   2.932   2.569   1.781 -2.4783 -0.6918  0.2750
  937SOL    HW2 2811   3.050   2.444   1.774 -2.9727  3.1015 -0.2720
  938SOL     OW 2812   2.654   2.346   0.178 -0.1433  0.6311 -0.5405
  938SOL    HW1 2813   2.687   2.434   0.134 -1.7831 -0.6148  1.2668
  938SOL    HW2 2814   2.655   2.359   0.287 -0.6344  0.9422  3.5347
  939SOL     OW 2815   1.171   1.096   1.224  0.3663 -0.3711 -0.0969
  939SOL    HW1 2816   1.115   1.093   1.136 -0.4436 -2.2251 -1.2922
  939SOL    HW2 2817   1.246   1.165   1.224  0.8496 -1.2529  1.1913
  940SOL     OW 2818   2.833   0.496   2.738 -0.2782 -0.4044  0.7747
  940SOL    HW1 2819   2.731   0.520   2.760 -1.2879  1.9527 -0.7175
  940SOL    HW2 2820   2.859   0.416   2.797  1.4611  1.1657 -1.2773
  941SOL     OW 2821   2.746   2.762   2.784 -0.5318  0.3012 -0.1578
  941SOL    HW1 2822   2.670   2.825   2.785  3.9309 -2.2679 -1.3860
  941SOL    HW2 2823   2.717   2.663   2.787  0.5877  0.2119  0.5449
  942SOL     OW 2824   1.371   0.210   1.281 -0.3594  0.2034 -0.5620
  942SOL    HW1 2825   1.451   0.265   1.303 -0.8502  3.8080 -0.9715
  942SOL    HW2 2826   1.347   0.221   1.179 -0.6117 -1.5620 -3.3124
  943SOL     OW 2827   1.177   1.274   2.208 -0.0067 -0.2083  0.3344
  943SOL    HW1 2828   1.214   1.203   2.144  0.4409  1.0964 -3.0329
  943SOL    HW2 2829   1.084   1.305   2.177  2.2077  0.3242  0.6671
  944SOL     OW 2830   2.032   1.181   1.345  0.7618 -0.0183 -0.1908
  944SOL    HW1 2831   1.936   1.151   1.317  0.2633 -2.5970 -2.2209
  944SOL    HW2 2832   2.103   1.139   1.286 -2.8807 -0.6173  0.0648
  945SOL     OW 2833   3.011   3.038   2.830  0.3367  0.0819  0.3831
  945SOL    HW1 2834   2.987   2.945   2.809 -1.9039  1.5152  0.8495
  945SOL    HW2 2835   2.981   3.062   2.923  1.1422 -1.3340  0.4618
  946SOL     OW 2836   0.042   1.457   1.644  0.1672  0.5759 -0.2621
  946SOL    HW1 2837   0.090   1.440   1.557 -1.0752 -3.5585  0.6797
  946SOL    HW2 2838   3.059   1.381   1.663 -2.4110 -0.5646  0.5017
  947SOL     OW 2839   0.932   2.939   0.263  0.1888  0.0488 -0.2033
  947SOL    HW1 2840   0.922   2.967   0.362  2.4838  1.2769  1.9438
  947SOL    HW2 2841   0.845   2.952   0.211  0.7695 -0.9397  0.5845
  948SOL     OW 2842   2.207   1.720   1.155 -0.1576  0.0407  0.2347
  948SOL    HW1 2843   2.299   1.684   1.181 -1.6615 -1.1220 -1.9310
  948SOL    HW2 2844   2.190   1.695   1.061 -0.2529  0.2771  2.6313
  949SOL     OW 2845   0.184   0.884   2.830 -0.8810  0.2353  0.1680
  949SOL    HW1 2846   0.098   0.929   2.864  1.6944  1.2641 -1.1447
  949SOL    HW2 2847   0.256   0.953   2.804  0.4243  0.5543 -2.2343
  950SOL     OW 2848   0.598   2.394   1.330  0.0083  0.0026 -0.7313
  950SOL    HW1 2849   0.556   2.484   1.311  0.9906  1.0292 -1.1143
  950SOL    HW2 2850   0.666   2.377   1.253  0.9444 -0.6430  0.7872
  951SOL     OW 2851   0.814   1.609   2.613  0.9127 -0.0271  0.1530
  951SOL    HW1 2852   0.740   1.586   2.680 -0.2177  0.5211  1.6245
  951SOL    HW2 2853   0.788   1.564   2.526 -0.9779 -2.0547  0.3569
  952SOL     OW 2854   0.493   0.930   0.597 -0.3194  0.0471  0.1131
  952SOL    HW1 2855   0.543   0.891   0.675  2.6165  1.2939 -0.1948
  952SOL    HW2 2856   0.408   0.976   0.631 -0.1089 -0.1198 -0.3704
  953SOL     OW 2857   2.259   2.711   2.573 -0.9141  0.2068 -0.3144
  953SOL    HW1 2858   2.333   2.735   2.507 -0.4640  1.6045  2.6034
  953SOL    HW2 2859   2.305   2.661   2.649  0.1886  0.4345 -1.0103
  954SOL     OW 2860   1.809   1.019   0.848  0.1073  0.1440 -0.3989
  954SOL    HW1 2861   1.890   1.016   0.910  1.9053  2.1822  0.8189
  954SOL    HW2 2862   1.837   1.075   0.769  1.1629  1.3409 -2.3183
  955SOL     OW 2863   0.493   1.906   0.241  0.4346 -0.3895  0.3540
  955SOL    HW1 2864   0.595   1.925   0.242  0.6078 -1.0479 -1.1281
  955SOL    HW2 2865   0.439   1.958   0.315  1.0902 -0.8533  2.1149
  956SOL     OW 2866   2.780   0.377   1.869  0.7392  0.3522 -0.0018
  956SOL    HW1 2867   2.723   0.463   1.867  1.1713 -0.3876  0.0243
  956SOL    HW2 2868   2.742   0.297   1.923  1.1830 -3.1259  0.5315
  957SOL     OW 2869   1.927   2.299   1.669 -0.5384  0.2843 -0.6501
  957SOL    HW1 2870   2.017   2.274   1.620  2.6359 -3.0188 -2.4856
  957SOL    HW2 2871   1.862   2.215   1.660 -0.1303  0.8912  0.2504
  958SOL     OW 2872   1.631   1.118   1.593 -0.3415 -0.7824  0.1477
  958SOL    HW1 2873   1.538   1.077   1.586 -1.3122  0.5869  0.7355
  958SOL    HW2 2874   1.637   1.175   1.676  0.2523 -2.0595 -0.7290
  959SOL     OW 2875   1.375   2.145   2.162  0.1054 -0.4539 -0.3189
  959SOL    HW1 2876   1.328   2.226   2.212 -0.3331  0.4852  2.0959
  959SOL    HW2 2877   1.378   2.069   2.226  0.7753 -0.7216 -2.0996
  960SOL     OW 2878   0.796   0.716   2.799 -0.4629 -0.1494 -0.0645
  960SOL    HW1 2879   0.730   0.788   2.767  1.8237 -1.9508  1.5252
  960SOL    HW2 2880   0.785   0.631   2.743 -1.3780 -0.7845 -0.2567
  961SOL     OW 2881   3.045   1.039   2.956  0.2198 -0.0899  0.4310
  961SOL    HW1 2882   2.972   0.978   2.988 -0.0904 -1.1639  1.4732
  961SOL    HW2 2883   3.004   1.065   2.862 -0.6850 -0.1513  1.1509
  962SOL     OW 2884   0.905   1.822   2.758  0.3894 -0.3211 -0.3546
  962SOL    HW1 2885   0.895   1.733   2.707  0.1324  0.9799  0.5848
  962SOL    HW2 2886   0.822   1.879   2.739  0.1232  3.3509 -1.5438
  963SOL     OW 2887   2.739   2.136   3.066 -0.1842 -0.5548 -0.7890
  963SOL    HW1 2888   2.668   2.062   3.049  0.3983 -1.1310 -1.2661
  963SOL    HW2 2889   2.706   2.203   0.053 -0.8014  0.6787  0.7415
  964SOL     OW 2890   0.831   2.314   2.303 -0.4230 -0.8452 -0.1382
  964SOL    HW1 2891   0.736   2.282   2.328 -1.7406 -1.3300  1.8671
  964SOL    HW2 2892   0.871   2.365   2.380 -0.9147 -0.4583 -1.6315
  965SOL     OW 2893   1.710   1.911   0.995  0.7363 -0.4079 -0.5322
  965SOL    HW1 2894   1.766   1.955   1.068  0.9241 -1.7009  1.0381
  965SOL    HW2 2895   1.758   1.822   0.979  1.6121  3.3003  1.0006
  966SOL     OW 2896   2.934   1.769   3.010 -0.0691 -0.5196 -0.4329
  966SOL    HW1 2897   2.970   1.863   3.032  0.2758 -0.3208  0.2881
  966SOL    HW2 2898   3.004   1.695   3.019  1.2144 -0.2025 -2.3172
  967SOL     OW 2899   2.046   2.935   2.089 -0.6286  0.3474 -0.6346
  967SOL    HW1 2900   2.134   2.993   2.100  2.2116 -1.6507  0.1142
  967SOL    HW2 2901   2.029   2.904   1.997  0.9323 -0.1601 -2.0273
  968SOL     OW 2902   0.866   0.708   0.193 -0.0621  0.0856 -0.0353
  968SOL    HW1 2903   0.865   0.807   0.191  2.6627  0.1103 -0.9436
  968SOL    HW2 2904   0.910   0.675   0.277 -2.6959 -1.1182  0.2978
  969SOL     OW 2905   0.687   1.433   2.146  0.0934 -0.1540  0.2151
  969SOL    HW1 2906   0.663   1.513   2.085 -0.7929  0.3611 -1.8746
  969SOL    HW2 2907   0.628   1.353   2.134  0.3250  2.0871  0.4546
  970SOL     OW 2908   2.137   2.510   1.114 -0.0453  0.1020  0.1257
  970SOL    HW1 2909   2.093   2.544   1.031  3.9315  0.0749  1.6614
  970SOL    HW2 2910   2.236   2.527   1.103 -2.2326  1.1450  2.2913
  971SOL     OW 2911   1.889   2.186   0.639  0.3444 -0.3919  0.2072
  971SOL    HW1 2912   1.906   2.229   0.728 -0.4640  0.5268 -0.3386
  971SOL    HW2 2913   1.942   2.243   0.567 -1.5858 -0.7384 -0.8585
  972SOL     OW 2914   2.970   1.110   2.726  0.5373 -0.1369  0.0310
  972SOL    HW1 2915   2.933   1.030   2.681  0.8820  0.9533  2.1776
  972SOL    HW2 2916   3.068   1.130   2.703 -3.7521  1.9173  2.1276
  973SOL     OW 2917   0.563   0.074   0.259  0.1205 -0.0657  0.7218
  973SOL    HW1 2918   0.553   0.169   0.293  0.1316  0.7339 -1.0416
  973SOL    HW2 2919   0.640   0.072   0.193  2.9927  1.8691  1.6458
  974SOL     OW 2920   2.713   0.870   1.981  0.2878  0.4989 -0.1505
  974SOL    HW1 2921   2.733   0.777   2.019  2.5420 -2.9439 -1.4982
  974SOL    HW2 2922   2.626   0.899   2.015 -2.2398 -0.2695  1.2409
  975SOL     OW 2923   0.077   0.042   0.617 -0.2765  0.2480 -0.1714
  975SOL    HW1 2924   0.061   0.042   0.716  1.6989  0.1892 -4.0194
  975SOL    HW2 2925   0.025   3.053   0.564 -3.1885 -1.7978 -2.3939
  976SOL     OW 2926   0.541   1.619   1.318 -0.7062 -0.1976  0.3075
  976SOL    HW1 2927   0.451   1.642   1.359 -0.6067 -1.9751 -3.7958
  976SOL    HW2 2928   0.614   1.597   1.388  0.6785 -0.2116  1.1950
  977SOL     OW 2929   1.120   1.867   0.174  0.0738 -0.4379  0.1481
  977SOL    HW1 2930   1.126   1.851   0.070  0.9853 -2.7285  1.4253
  977SOL    HW2 2931   1.138   1.967   0.201  1.2590 -1.1560  2.2345
  978SOL     OW 2932   0.048   0.898   0.244  0.4471  0.7543  0.0828
  978SOL    HW1 2933   0.110   0.853   0.174  2.1037  1.7518 -0.4839
  978SOL    HW2 2934   0.070   0.998   0.246 -0.6594  4.5864 -2.1672
  979SOL     OW 2935   1.711   1.629   0.678 -0.1606  0.1052 -0.6167
  979SOL    HW1 2936   1.683   1.592   0.765  1.2531  2.1520  1.5552
  979SOL    HW2 2937   1.665   1.715   0.657  0.2533 -1.5460 -1.2080
  980SOL     OW 2938   0.621   1.968   2.154 -0.0133  0.2137  0.0009
  980SOL    HW1 2939   0.645   1.876   2.126 -2.0981 -0.4200 -1.6251
  980SOL    HW2 2940   0.673   2.037   2.099 -0.8430  0.3048 -3.4417
  981SOL     OW 2941   2.297   1.376   2.557 -0.5554 -0.1038 -0.0089
  981SOL    HW1 2942   2.320   1.422   2.645  1.0311 -0.1364 -0.5132
  981SOL    HW2 2943   2.289   1.443   2.486  1.9983  1.0266  3.4210
  982SOL     OW 2944   0.083   2.327   1.830 -0.5092  0.3725  0.0800
  982SOL    HW1 2945   0.045   2.252   1.773  0.9068  1.1014 -2.2800
  982SOL    HW2 2946   0.136   2.290   1.913  2.5533 -2.9565  5.4924
  983SOL     OW 2947   1.425   0.208   1.683  0.3277 -0.6354 -0.4168
  983SOL    HW1 2948   1.465   0.301   1.680 -1.5803 -0.9365  0.8992
  983SOL    HW2 2949   1.474   0.140   1.630 -2.1196  1.9279 -1.8762
  984SOL     OW 2950   2.430   2.785   0.010  0.0973 -0.7063 -0.1348
  984SOL    HW1 2951   2.478   2.707   3.046  0.8211 -2.0798 -0.0351
  984SOL    HW2 2952   2.343   2.794   3.040 -0.2526  1.9709 -1.6357
  985SOL     OW 2953   1.618   1.245   1.834 -0.2175  0.6142 -0.4358
  985SOL    HW1 2954   1.644   1.345   1.852  2.1892 -0.5672 -0.8283
  985SOL    HW2 2955   1.649   1.183   1.913 -0.0518 -1.2649 -1.5128
  986SOL     OW 2956   1.949   3.060   2.501 -0.4330  0.2413  0.6209
  986SOL    HW1 2957   2.046   0.014   2.521  2.2701  3.4218  1.4514
  986SOL    HW2 2958   1.888   3.074   2.579  5.3028  0.0476 -1.9377
  987SOL     OW 2959   2.581   1.890   2.740  0.1880 -0.3219  0.5960
  987SOL    HW1 2960   2.669   1.848   2.769 -0.0057  2.3245  1.4323
  987SOL    HW2 2961   2.593   1.958   2.663 -0.0527 -0.3070 -2.7761
  988SOL     OW 2962   0.137   0.770   1.323  0.2835 -0.3857  0.1665
  988SOL    HW1 2963   0.070   0.729   1.389 -1.9834 -0.7508 -1.8403
  988SOL    HW2 2964   0.182   0.847   1.377 -1.7052  0.6937  1.7391
  989SOL     OW 2965   1.802   1.067   1.249  0.1107 -0.0199  0.1515
  989SOL    HW1 2966   1.850   0.978   1.239 -2.3801  2.6520  0.7209
  989SOL    HW2 2967   1.704   1.068   1.282 -2.6764  0.4343 -0.9290
  990SOL     OW 2968   2.527   0.594   3.020  0.5793  0.4907 -0.2318
  990SOL    HW1 2969   2.605   0.615   3.080 -4.5555  0.2780  0.7264
  990SOL    HW2 2970   2.523   0.496   2.992  0.9287 -3.4976 -1.0372
  991SOL     OW 2971   0.027   1.556   0.002 -0.1289 -0.0683  0.3189
  991SOL    HW1 2972   3.062   1.469   3.063 -0.2391 -1.8174 -0.4687
  991SOL    HW2 2973   0.089   1.554   0.086  0.1689  0.0173  0.6561
  992SOL     OW 2974   2.414   1.561   1.895  0.0830  0.1155 -0.1955
  992SOL    HW1 2975   2.340   1.614   1.852  1.6242 -1.4764  1.2399
  992SOL    HW2 2976   2.470   1.520   1.821  1.5073  0.2640 -0.1243
  993SOL     OW 2977   0.425   2.574   0.528  0.3508 -0.4908  0.3264
  993SOL    HW1 2978   0.511   2.525   0.513 -1.0831 -0.3691 -1.7675
  993SOL    HW2 2979   0.436   2.657   0.579 -0.6446  1.8053  1.4251
  994SOL     OW 2980   2.938   1.830   1.320  0.1274 -0.2166  0.2795
  994SOL    HW1 2981   2.910   1.767   1.393 -0.2043  1.7480  0.1307
  994SOL    HW2 2982   2.920   1.924   1.352  0.7662  0.4219 -3.7082
  995SOL     OW 2983   1.576   2.031   2.545 -0.1433 -0.3140  0.0502
  995SOL    HW1 2984   1.677   2.022   2.526  1.2297  1.4788  0.8585
  995SOL    HW2 2985   1.515   1.972   2.484  1.7225 -0.5582  2.2382
  996SOL     OW 2986   2.099   1.798   0.154 -0.0395  0.0960  0.1957
  996SOL    HW1 2987   2.040   1.873   0.111 -2.3398  3.0578 -0.9924
  996SOL    HW2 2988   2.142   1.828   0.242  2.2486  1.3304  1.2187
  997SOL     OW 2989   1.492   1.350   2.481 -0.2115  0.0120 -0.0087
  997SOL    HW1 2990   1.470   1.292   2.564 -1.4207 -0.0960  0.3414
  997SOL    HW2 2991   1.525   1.447   2.513  3.0791  1.7521  2.9308
  998SOL     OW 2992   2.952   2.331   0.836  0.0267 -0.2016  0.4479
  998SOL    HW1 2993   2.925   2.410   0.772  0.7619  1.5419 -0.1429
  998SOL    HW2 2994   3.038   2.355   0.888  1.3742  0.7080 -0.9935
  999SOL     OW 2995   0.154   2.465   0.569 -0.6375 -0.2887  0.3118
  999SOL    HW1 2996   0.080   2.402   0.549  2.5901  2.1201  2.2802
  999SOL    HW2 2997   0.218   2.482   0.486  1.9382  3.0799 -1.0699
 1000SOL     OW 2998   1.134   3.033   0.128  0.5506  0.3834 -0.3134
 1000SOL    HW1 2999   1.067   3.016   0.202 -1.5582  0.9794 -1.9940
 1000SOL    HW2 3000   1.087   3.067   0.041 -0.2728  0.8932 -1.4677
   3.08220   3.08220   3.08220
