1000 SPC/Fw water molecules t=  29.00000 step= 29000
 3000
    1SOL     OW    1   1.933   2.649   0.304  0.5865 -0.1510 -0.1622
    1SOL    HW1    2   2.013   2.587   0.319  1.4427  1.4084  0.5298
    1SOL    HW2    3   1.846   2.606   0.344  0.3028 -2.8200  1.3920
    2SOL     OW    4   1.243   0.577   2.028 -0.3647 -0.1792  0.7502
    2SOL    HW1    5   1.329   0.605   2.074 -2.7950  1.4399 -1.9745
    2SOL    HW2    6   1.161   0.593   2.089  1.7758 -0.4068 -1.9821
    3SOL     OW    7   0.947   3.003   2.834 -0.0834 -0.6278  0.0235
    3SOL    HW1    8   0.916   2.929   2.773  0.0774 -0.2033  1.4941
    3SOL    HW2    9   0.868   3.067   2.857 -0.0717  1.3607  0.1012
    4SOL     OW   10   1.474   1.587   3.108 -0.6433 -0.1474  0.2620
    4SOL    HW1   11   1.475   1.638   0.085 -1.1633  2.1778  0.3553
    4SOL    HW2   12   1.512   1.645   3.037 -1.7211 -2.0359  0.1810
    5SOL     OW   13   0.724   1.163   2.070 -0.0612 -0.0407  0.1335
    5SOL    HW1   14   0.756   1.091   2.011 -1.3830  0.9111  0.1960
    5SOL    HW2   15   0.795   1.235   2.086 -3.1851  2.0195 -0.9473
    6SOL     OW   16   2.079   0.833   2.458 -0.0864  0.1851  0.4361
    6SOL    HW1   17   2.086   0.742   2.506  0.1843  0.4839  0.5511
    6SOL    HW2   18   2.143   0.837   2.377  1.0248  0.9662 -1.6929
    7SOL     OW   19   0.388   0.784   1.065 -0.4788  0.2230  0.5437
    7SOL    HW1   20   0.407   0.772   0.966 -0.0647 -1.1953  0.6626
    7SOL    HW2   21   0.388   0.881   1.094  0.7699 -1.3717  0.5142
    8SOL     OW   22   2.050   2.776   1.850 -0.0721  0.0130 -0.3473
    8SOL    HW1   23   1.964   2.726   1.840  2.1829  0.9429  0.5990
    8SOL    HW2   24   2.042   2.874   1.820  3.7590  0.0399 -1.1101
    9SOL     OW   25   0.119   2.832   0.573  0.2514  0.8030  0.3083
    9SOL    HW1   26   0.035   2.861   0.519 -0.3594  1.2643 -0.2812
    9SOL    HW2   27   0.201   2.842   0.519 -4.4596 -1.4428  1.7981
   10SOL     OW   28   3.063   2.336   2.450  0.0289  0.4455 -0.4824
   10SOL    HW1   29   0.036   2.382   2.454  0.1834 -3.1848  0.5081
   10SOL    HW2   30   3.083   2.239   2.453  1.0896  0.6838 -0.3142
   11SOL     OW   31   0.832   1.726   3.057  0.2143 -0.8226  0.5971
   11SOL    HW1   32   0.762   1.672   3.112 -2.6361 -2.1122 -0.5538
   11SOL    HW2   33   0.878   1.806   3.102 -0.3031 -3.5679 -0.2636
   12SOL     OW   34   2.213   2.786   1.214  0.1981 -0.2381 -0.1669
   12SOL    HW1   35   2.218   2.870   1.159  0.9009  0.4176  0.3677
   12SOL    HW2   36   2.271   2.716   1.162 -0.0052 -1.3242 -0.0723
   13SOL     OW   37   0.331   0.008   2.817 -0.2787 -0.2790  0.0519
   13SOL    HW1   38   0.283   0.075   2.874  3.3697 -0.8673  1.7065
   13SOL    HW2   39   0.382   0.058   2.745 -0.5537 -0.4024  0.3174
   14SOL     OW   40   1.413   1.312   1.549 -0.0566  0.5502 -0.3209
   14SOL    HW1   41   1.373   1.323   1.641 -0.4577 -0.5430 -1.6406
   14SOL    HW2   42   1.338   1.288   1.489  0.8697 -0.6177  1.3341
   15SOL     OW   43   0.501   1.508   2.167  0.5275  0.0647 -0.4601
   15SOL    HW1   44   0.422   1.481   2.109  3.1919  0.1854 -0.7263
   15SOL    HW2   45   0.529   1.427   2.225 -1.0145  0.1533  1.1751
   16SOL     OW   46   1.534   0.784   2.811 -0.3560  0.6005  0.5687
   16SOL    HW1   47   1.448   0.787   2.862  2.0929 -1.2712 -4.6626
   16SOL    HW2   48   1.575   0.876   2.801  0.0887  0.6730  0.1426
   17SOL     OW   49   0.002   2.409   1.979 -0.3389 -0.3789  0.3401
   17SOL    HW1   50   0.009   2.510   2.015  1.3450  1.8916  1.1784
   17SOL    HW2   51   0.057   2.394   1.894 -0.4853  2.3511  1.4881
   18SOL     OW   52   1.634   1.183   0.585 -0.0642 -0.3163  0.2358
   18SOL    HW1   53   1.679   1.258   0.630 -0.3555  0.3289 -1.1300
   18SOL    HW2   54   1.585   1.125   0.652  0.8047  0.4126 -0.1766
   19SOL     OW   55   0.276   1.414   2.006  0.2253 -0.1397 -0.5501
   19SOL    HW1   56   0.316   1.323   1.985 -0.4077 -2.0880 -2.5362
   19SOL    HW2   57   0.264   1.471   1.927  0.7976  0.6439  0.1577
   20SOL     OW   58   2.209   2.290   2.822 -0.0835 -0.1679 -0.3280
   20SOL    HW1   59   2.179   2.378   2.789 -0.0895 -2.4198 -0.8549
   20SOL    HW2   60   2.276   2.299   2.899  1.8955  0.7592  1.2682
   21SOL     OW   61   1.834   1.994   0.735 -0.2046  1.0157 -0.0747
   21SOL    HW1   62   1.869   2.054   0.660 -1.5659 -3.0729  1.7415
   21SOL    HW2   63   1.837   2.044   0.822  1.4076  0.5750 -2.5617
   22SOL     OW   64   2.005   2.154   1.303 -0.1594  0.3945  0.3475
   22SOL    HW1   65   2.063   2.232   1.314 -1.5212  0.0922 -1.1201
   22SOL    HW2   66   1.996   2.091   1.386  2.0457 -0.9445 -1.0559
   23SOL     OW   67   0.179   1.095   1.292  0.5511 -0.3670  0.0570
   23SOL    HW1   68   0.132   1.149   1.361 -0.1493 -0.7404 -3.5728
   23SOL    HW2   69   0.121   1.088   1.206  0.3252 -1.0404  1.3113
   24SOL     OW   70   1.512   1.271   1.937  0.0661 -0.0108  0.6495
   24SOL    HW1   71   1.549   1.172   1.940  1.3190 -1.9051  0.5206
   24SOL    HW2   72   1.592   1.328   1.935 -3.2221 -3.9153 -2.2109
   25SOL     OW   73   1.943   0.066   2.173 -0.7645  0.1283 -0.2695
   25SOL    HW1   74   1.974   3.095   2.220  0.7891  2.5974  0.8601
   25SOL    HW2   75   1.912   0.138   2.239 -1.9723 -0.3598  0.8177
   26SOL     OW   76   0.793   3.099   0.797  0.2650 -0.7627  0.5554
   26SOL    HW1   77   0.799   0.077   0.838 -0.7999  2.9868  0.1001
   26SOL    HW2   78   0.702   3.092   0.744 -0.0921  3.5839 -1.6665
   27SOL     OW   79   1.340   1.262   0.928 -0.5965 -0.4687 -0.6664
   27SOL    HW1   80   1.358   1.349   0.875  0.7944  0.6172 -2.5185
   27SOL    HW2   81   1.373   1.274   1.025  3.8423 -2.0331 -0.5508
   28SOL     OW   82   2.336   2.367   1.120 -0.7506  0.1169  0.0915
   28SOL    HW1   83   2.309   2.322   1.207 -0.8380  0.0543  0.8720
   28SOL    HW2   84   2.294   2.459   1.104  0.8940  1.1689 -2.8665
   29SOL     OW   85   2.093   2.987   2.314 -0.5851 -0.3605 -0.1623
   29SOL    HW1   86   2.153   2.984   2.234 -0.3508 -0.4300  0.5961
   29SOL    HW2   87   2.146   2.981   2.406  2.0077  1.8899  0.2538
   30SOL     OW   88   3.111   2.881   1.940 -0.0597 -0.0039  0.4808
   30SOL    HW1   89   3.018   2.909   1.905 -0.0461  0.5830 -2.1086
   30SOL    HW2   90   0.059   2.958   1.967 -0.7234  2.0030  1.1247
   31SOL     OW   91   3.032   1.794   2.136 -0.2166 -0.5598 -0.7481
   31SOL    HW1   92   3.041   1.894   2.148  2.0153  1.9334  0.8941
   31SOL    HW2   93   2.986   1.773   2.047  3.6703 -1.2402 -1.4746
   32SOL     OW   94   1.469   2.449   2.414 -0.4979  0.2246  0.3761
   32SOL    HW1   95   1.466   2.393   2.328 -0.6346  1.5462 -1.3744
   32SOL    HW2   96   1.546   2.415   2.476  0.9245  0.6261  2.0881
   33SOL     OW   97   0.201   0.209   2.979 -0.1692 -0.4134  0.1438
   33SOL    HW1   98   0.165   0.151   3.061 -1.7279 -1.0610  1.4463
   33SOL    HW2   99   0.126   0.257   2.935 -1.2744  1.1555 -0.2798
   34SOL     OW  100   2.659   0.224   0.347 -0.2496 -0.4873 -0.3934
   34SOL    HW1  101   2.665   0.187   0.443 -1.1210 -0.3862 -1.2132
   34SOL    HW2  102   2.743   0.270   0.316 -2.1989  1.1903 -2.0283
   35SOL     OW  103   2.757   2.658   1.706 -0.2490  0.0458 -0.1981
   35SOL    HW1  104   2.737   2.591   1.780 -0.5527 -0.9620 -1.8801
   35SOL    HW2  105   2.675   2.676   1.652  3.1585  0.3897  0.7519
   36SOL     OW  106   2.403   2.955   2.324 -0.2754 -0.0803  0.0576
   36SOL    HW1  107   2.375   2.983   2.415 -0.6092 -0.4079 -5.0708
   36SOL    HW2  108   2.440   3.034   2.272 -0.8402  1.1443  0.4990
   37SOL     OW  109   1.550   3.106   0.076 -0.2003  0.4583  0.2299
   37SOL    HW1  110   1.544   0.026   0.177 -0.9397  3.7141  2.1335
   37SOL    HW2  111   1.477   3.032   0.058  1.1898 -1.8042  1.3527
   38SOL     OW  112   0.370   0.480   0.161  0.1866 -0.0756  0.2593
   38SOL    HW1  113   0.303   0.505   0.232  0.8842  1.9967 -2.3520
   38SOL    HW2  114   0.447   0.545   0.156 -0.5798 -1.4664  1.3349
   39SOL     OW  115   0.839   1.845   2.173  0.2218 -0.6805  0.0742
   39SOL    HW1  116   0.910   1.828   2.241 -0.6093 -1.2611  1.9354
   39SOL    HW2  117   0.798   1.936   2.191 -0.6877 -2.6253  0.3616
   40SOL     OW  118   0.169   0.558   2.560  0.0745 -0.4745  0.2477
   40SOL    HW1  119   0.236   0.500   2.607 -0.8286  1.2721  1.2903
   40SOL    HW2  120   0.223   0.632   2.520 -1.0766 -2.4246  0.2488
   41SOL     OW  121   1.256   0.815   1.903  0.0529 -0.1753 -0.1012
   41SOL    HW1  122   1.336   0.829   1.846 -0.1726 -0.0550 -2.0021
   41SOL    HW2  123   1.252   0.725   1.943  1.7409 -1.1761 -0.2661
   42SOL     OW  124   2.781   0.332   1.304 -0.2750 -0.3611 -0.0839
   42SOL    HW1  125   2.800   0.293   1.398 -1.7842  0.2743 -0.1889
   42SOL    HW2  126   2.691   0.380   1.303  0.9917  1.5296 -0.5700
   43SOL     OW  127   1.474   0.839   1.754 -0.1079 -0.5540  0.0676
   43SOL    HW1  128   1.532   0.908   1.714 -1.1104 -0.8091  1.0377
   43SOL    HW2  129   1.467   0.755   1.699 -0.3008  1.3777  1.7499
   44SOL     OW  130   3.054   0.332   2.997  0.1793 -0.4930  0.1006
   44SOL    HW1  131   3.085   0.371   3.084  0.1943  0.1520  3.5413
   44SOL    HW2  132   2.965   0.276   3.003 -1.6342  1.0261  1.6874
   45SOL     OW  133   0.373   1.730   1.577 -1.0270 -0.6926 -0.0914
   45SOL    HW1  134   0.413   1.751   1.669 -1.5674  1.5567  1.2882
   45SOL    HW2  135   0.447   1.726   1.507  0.5132  0.3241 -2.8740
   46SOL     OW  136   2.239   2.681   1.675 -0.2600  0.6135 -0.1639
   46SOL    HW1  137   2.197   2.733   1.751  0.2251  0.5465 -1.0793
   46SOL    HW2  138   2.276   2.594   1.708 -0.8541 -0.5955  2.8477
   47SOL     OW  139   0.097   1.933   1.261 -0.0620  0.4720 -0.3021
   47SOL    HW1  140   0.122   1.847   1.308  0.5497  0.2537  2.6971
   47SOL    HW2  141   0.070   1.919   1.165 -2.4542 -0.9503  0.5493
   48SOL     OW  142   0.743   2.781   2.763  0.0650  0.4087 -0.4510
   48SOL    HW1  143   0.731   2.695   2.704 -2.3468 -0.6978 -2.7270
   48SOL    HW2  144   0.778   2.753   2.851 -1.4486  0.5150 -4.9022
   49SOL     OW  145   2.721   1.415   1.815  0.5075 -0.5108  0.5261
   49SOL    HW1  146   2.798   1.409   1.745  0.7151 -2.3441  1.1399
   49SOL    HW2  147   2.701   1.513   1.833  1.3412 -1.6020  2.0250
   50SOL     OW  148   1.339   2.756   0.594  0.2501  0.2631 -0.1572
   50SOL    HW1  149   1.359   2.688   0.667 -3.1050  0.7699  0.5781
   50SOL    HW2  150   1.240   2.791   0.602  1.5197  0.0437 -3.7745
   51SOL     OW  151   1.073   0.363   0.931  0.0330 -0.2408  0.0342
   51SOL    HW1  152   1.059   0.355   1.032  2.3085  0.2024  0.8369
   51SOL    HW2  153   1.170   0.347   0.910 -2.4248 -0.1221  1.3579
   52SOL     OW  154   0.746   1.398   0.218 -0.0962 -0.1681 -0.5673
   52SOL    HW1  155   0.763   1.299   0.191 -1.0900 -1.1061  1.8592
   52SOL    HW2  156   0.716   1.403   0.313 -1.0220  0.7299 -1.8306
   53SOL     OW  157   1.134   2.808   2.556 -0.1946  0.3224 -0.5391
   53SOL    HW1  158   1.186   2.864   2.629 -1.9214  2.6700  1.1966
   53SOL    HW2  159   1.195   2.770   2.484 -1.4858  0.4401  0.9383
   54SOL     OW  160   2.075   0.110   1.886 -0.5375  0.5505  0.1016
   54SOL    HW1  161   2.021   0.110   1.973  1.1028  2.4926 -1.1020
   54SOL    HW2  162   2.158   0.164   1.901  0.9016  0.5230  0.0028
   55SOL     OW  163   2.759   2.490   0.155 -0.7254 -0.0284 -0.6409
   55SOL    HW1  164   2.817   2.422   0.106  1.2390  2.1526 -0.5812
   55SOL    HW2  165   2.802   2.514   0.241  1.7552  1.3669 -0.1412
   56SOL     OW  166   0.925   2.975   1.548  0.4639  0.0484 -0.1129
   56SOL    HW1  167   0.829   2.967   1.516 -0.4068 -4.7017  1.0477
   56SOL    HW2  168   0.926   2.923   1.638 -0.4008  0.4441 -1.6030
   57SOL     OW  169   1.895   1.046   2.615  0.0590 -0.1325 -0.4451
   57SOL    HW1  170   1.969   0.978   2.589 -1.7478 -1.8951 -2.0180
   57SOL    HW2  171   1.802   1.029   2.567 -0.9757  1.0523  0.2834
   58SOL     OW  172   3.098   1.025   2.034 -0.4508 -0.4263 -0.4027
   58SOL    HW1  173   0.079   0.986   2.039 -2.2216  0.2674  1.2390
   58SOL    HW2  174   3.098   1.123   2.061  2.9203  0.3954 -0.0249
   59SOL     OW  175   0.875   2.567   1.584  0.7541  0.3183 -0.6963
   59SOL    HW1  176   0.792   2.627   1.567 -1.0219  0.9801 -1.2625
   59SOL    HW2  177   0.912   2.528   1.503 -2.1217 -0.4171  4.2013
   60SOL     OW  178   2.114   2.460   0.272  0.7069  0.3459  0.4674
   60SOL    HW1  179   2.168   2.395   0.324 -0.9651 -0.5708  0.0593
   60SOL    HW2  180   2.155   2.479   0.186  1.4528 -2.1075  3.1308
   61SOL     OW  181   1.577   2.499   0.619 -0.0159  0.3739 -0.1291
   61SOL    HW1  182   1.651   2.435   0.660  2.2693 -0.2241 -0.9968
   61SOL    HW2  183   1.499   2.521   0.682  2.9664 -0.1202 -2.2831
   62SOL     OW  184   1.789   2.977   3.095 -0.3985 -0.3453 -0.4646
   62SOL    HW1  185   1.718   3.044   0.014 -0.3884  0.1346 -0.2887
   62SOL    HW2  186   1.765   2.882   0.009  1.0887 -0.0692 -1.7014
   63SOL     OW  187   2.337   0.492   0.208 -0.3312 -0.1111  0.3565
   63SOL    HW1  188   2.309   0.561   0.278 -1.4986  1.0705  1.1612
   63SOL    HW2  189   2.432   0.514   0.171  1.0037  2.0331  1.0406
   64SOL     OW  190   1.349   0.998   2.875 -0.0170  0.3454 -0.1360
   64SOL    HW1  191   1.313   0.923   2.933 -3.5201  1.2454  0.4838
   64SOL    HW2  192   1.275   1.062   2.844  0.8705  2.2873 -0.5202
   65SOL     OW  193   0.579   2.478   1.325  0.3586  0.3697 -0.2693
   65SOL    HW1  194   0.619   2.381   1.337  1.9989 -1.1473 -0.2962
   65SOL    HW2  195   0.649   2.528   1.269  0.7333 -0.2814  2.1616
   66SOL     OW  196   1.119   1.248   1.433  0.2050 -0.1069  0.1511
   66SOL    HW1  197   1.156   1.166   1.384 -0.9777  0.0150  1.9415
   66SOL    HW2  198   1.046   1.223   1.502 -0.7034 -2.2185 -1.1168
   67SOL     OW  199   2.330   1.961   1.955 -0.6182  0.1890  0.0938
   67SOL    HW1  200   2.417   2.012   1.950 -1.5219 -0.5759  2.0648
   67SOL    HW2  201   2.318   1.894   1.876 -0.4086 -3.5395 -0.4246
   68SOL     OW  202   0.661   1.326   1.705  0.2575 -0.4783  0.9102
   68SOL    HW1  203   0.632   1.316   1.803 -0.8984 -1.3715  1.6478
   68SOL    HW2  204   0.705   1.414   1.686  1.1680 -0.9282 -1.8228
   69SOL     OW  205   0.085   2.811   0.017 -0.2523  0.0355 -0.1017
   69SOL    HW1  206   0.182   2.780   0.018 -0.6383 -0.1918  0.6762
   69SOL    HW2  207   0.076   2.885   0.091 -0.2911  2.2078 -0.3004
   70SOL     OW  208   2.248   0.879   2.274  0.0846 -0.4392  0.4809
   70SOL    HW1  209   2.341   0.847   2.297  0.6074 -0.9616 -0.4426
   70SOL    HW2  210   2.238   0.900   2.172 -2.4374  2.9078 -0.0327
   71SOL     OW  211   0.620   1.827   0.850 -0.1274  0.2002 -0.1626
   71SOL    HW1  212   0.540   1.882   0.881 -0.6000 -2.8882  1.1470
   71SOL    HW2  213   0.581   1.745   0.803 -0.1179  0.4034  1.0512
   72SOL     OW  214   2.546   2.104   0.447 -0.1013  0.0330 -0.4018
   72SOL    HW1  215   2.570   2.198   0.417 -1.3364 -1.2638  0.9033
   72SOL    HW2  216   2.472   2.106   0.516  1.0170  0.7443 -3.3774
   73SOL     OW  217   1.364   0.561   0.862  0.2525  0.3401 -0.2489
   73SOL    HW1  218   1.376   0.577   0.762  0.4677 -0.7384  1.8343
   73SOL    HW2  219   1.415   0.632   0.912 -0.9731 -0.3596 -2.4884
   74SOL     OW  220   2.596   2.056   1.958  0.6741  0.3243 -0.1761
   74SOL    HW1  221   2.602   2.123   1.878  0.2786  2.0146 -3.4675
   74SOL    HW2  222   2.674   2.072   2.021  1.5189  2.4256  2.3973
   75SOL     OW  223   1.612   1.644   1.836 -0.1329  0.2414 -0.8111
   75SOL    HW1  224   1.517   1.633   1.876 -0.5046 -2.6668  2.7918
   75SOL    HW2  225   1.665   1.559   1.858 -1.7195  1.2536  0.9234
   76SOL     OW  226   1.457   1.851   1.205 -0.0743  0.2977  0.3731
   76SOL    HW1  227   1.473   1.943   1.166  0.1210  0.3940  0.3616
   76SOL    HW2  228   1.545   1.799   1.214 -1.1662 -0.5811 -3.8507
   77SOL     OW  229   2.807   1.192   1.954 -0.4080  0.1123 -0.3590
   77SOL    HW1  230   2.874   1.224   2.024 -2.2306  1.8831  1.8990
   77SOL    HW2  231   2.768   1.273   1.905 -0.1538 -0.2133  0.3978
   78SOL     OW  232   1.592   0.790   0.306 -0.1019  0.1082  0.6690
   78SOL    HW1  233   1.615   0.743   0.218  1.0202 -0.2606 -0.7885
   78SOL    HW2  234   1.592   0.731   0.387  0.2353  1.2494  1.7142
   79SOL     OW  235   1.131   1.454   2.207 -0.1590 -0.0147  0.0482
   79SOL    HW1  236   1.199   1.377   2.193  1.8792 -1.6765 -0.5232
   79SOL    HW2  237   1.042   1.435   2.161  0.2056  1.4331 -1.4947
   80SOL     OW  238   1.002   0.293   1.516 -0.6164  1.0470 -0.1430
   80SOL    HW1  239   1.005   0.393   1.487 -0.8169 -2.4455 -2.7211
   80SOL    HW2  240   1.068   0.277   1.592 -1.4939  0.8093 -0.3996
   81SOL     OW  241   0.703   2.508   0.258 -0.4288  0.1079  0.1400
   81SOL    HW1  242   0.682   2.476   0.166 -0.3875  1.1168  3.8372
   81SOL    HW2  243   0.696   2.432   0.326  1.7546  3.3803 -1.2852
   82SOL     OW  244   1.155   0.215   1.763  0.5574  0.2725  0.1981
   82SOL    HW1  245   1.136   0.127   1.715 -2.6989  0.8991  1.8326
   82SOL    HW2  246   1.102   0.213   1.856  1.3304 -1.4048  0.2684
   83SOL     OW  247   0.586   2.249   1.124  0.5792 -0.3531  0.7244
   83SOL    HW1  248   0.637   2.270   1.036 -1.3312 -3.3982 -1.7538
   83SOL    HW2  249   0.485   2.240   1.101 -0.8757 -1.9725 -0.0166
   84SOL     OW  250   2.863   1.659   0.725  0.2338 -0.3511  0.5109
   84SOL    HW1  251   2.838   1.568   0.683  2.6701  2.2797 -0.3276
   84SOL    HW2  252   2.958   1.687   0.697 -1.1136  0.8821 -1.7302
   85SOL     OW  253   2.182   1.847   1.386  0.4202 -0.1979  0.9997
   85SOL    HW1  254   2.176   1.949   1.383  0.7450  0.5056  1.1692
   85SOL    HW2  255   2.112   1.803   1.326 -0.9545 -2.5656  2.9508
   86SOL     OW  256   1.542   2.254   1.803  0.5263  0.4762 -0.4578
   86SOL    HW1  257   1.485   2.311   1.737 -1.4221  1.0352 -3.1791
   86SOL    HW2  258   1.499   2.159   1.816  1.3238 -1.6052  0.1847
   87SOL     OW  259   2.175   1.363   0.496  0.6232  0.7168 -0.0947
   87SOL    HW1  260   2.094   1.426   0.502  0.2105 -0.0414  1.0790
   87SOL    HW2  261   2.269   1.405   0.474  0.3385  1.4964  1.2075
   88SOL     OW  262   0.409   3.057   0.832 -0.2392  0.8101 -0.1712
   88SOL    HW1  263   0.475   3.088   0.760  0.0250  0.3015  2.4270
   88SOL    HW2  264   0.444   3.083   0.929 -0.5956 -2.4851 -0.1464
   89SOL     OW  265   0.718   0.435   1.603  0.3043 -0.1914 -0.0596
   89SOL    HW1  266   0.764   0.523   1.628 -3.9172  1.6953  0.8141
   89SOL    HW2  267   0.778   0.355   1.609 -0.3397 -2.3774 -2.0122
   90SOL     OW  268   3.022   1.967   0.399  0.7470 -1.0139  0.0593
   90SOL    HW1  269   3.063   1.955   0.490 -0.7240  0.0576 -0.0796
   90SOL    HW2  270   2.955   2.048   0.396  0.8628 -1.3054  0.5534
   91SOL     OW  271   1.075   1.635   1.023 -0.4828 -0.2860  0.1495
   91SOL    HW1  272   1.035   1.723   1.058  1.0898  0.9859  2.6039
   91SOL    HW2  273   1.174   1.654   1.003  1.6713  4.1850 -2.2198
   92SOL     OW  274   2.295   3.103   1.614  0.2309 -0.0300  0.2201
   92SOL    HW1  275   2.337   0.008   1.700 -1.2339  1.0151  2.1152
   92SOL    HW2  276   2.359   3.053   1.552  2.7562 -2.6089 -1.1116
   93SOL     OW  277   0.592   1.471   2.941  0.2540  0.0201  0.1723
   93SOL    HW1  278   0.612   1.519   3.027 -0.2886 -3.0696  4.0487
   93SOL    HW2  279   0.586   1.537   2.863 -1.2515  1.0871  1.0845
   94SOL     OW  280   2.547   3.078   1.782 -0.4436 -0.1480 -0.2269
   94SOL    HW1  281   2.553   0.056   1.830  0.0362  0.5613 -1.7189
   94SOL    HW2  282   2.584   3.004   1.845  1.2957 -1.2076  1.0694
   95SOL     OW  283   1.934   0.591   1.711 -0.2463  0.0867  0.0144
   95SOL    HW1  284   1.849   0.566   1.657 -1.4233  1.2499  0.5506
   95SOL    HW2  285   2.010   0.520   1.679  2.4948  1.0861 -0.6381
   96SOL     OW  286   3.018   0.349   1.878 -0.5032 -0.4128 -0.2517
   96SOL    HW1  287   3.036   0.385   1.787 -0.1844 -0.3794 -1.8139
   96SOL    HW2  288   2.926   0.379   1.901 -0.8657  1.5015 -1.9979
   97SOL     OW  289   2.167   0.179   1.475 -0.1497 -0.5306 -0.1366
   97SOL    HW1  290   2.076   0.157   1.434  1.6988 -0.7071 -0.5123
   97SOL    HW2  291   2.201   0.103   1.534  1.4017  1.0479  0.4318
   98SOL     OW  292   2.111   2.334   1.828 -0.3941 -0.1092 -1.0539
   98SOL    HW1  293   2.120   2.264   1.903  1.3018 -3.2351 -0.7263
   98SOL    HW2  294   2.202   2.378   1.816  1.6444 -2.7632  0.7461
   99SOL     OW  295   0.689   0.826   0.768 -0.7227  0.2409  0.0372
   99SOL    HW1  296   0.735   0.913   0.738 -0.3495 -1.3915 -0.8690
   99SOL    HW2  297   0.588   0.841   0.779  0.6618  0.1676 -0.5304
  100SOL     OW  298   2.651   1.675   1.903  0.4520  0.9285  0.7930
  100SOL    HW1  299   2.606   1.700   1.990 -0.1643  0.6692 -2.8748
  100SOL    HW2  300   2.636   1.747   1.835  1.9608 -3.4428 -0.3123
  101SOL     OW  301   1.970   0.143   0.111  0.0505  0.0022  0.1728
  101SOL    HW1  302   2.047   0.119   0.046  1.0280 -0.2485  0.6269
  101SOL    HW2  303   1.896   0.191   0.060 -2.5001 -1.0349 -1.1806
  102SOL     OW  304   0.105   2.944   1.093 -0.0105  0.0029  0.1978
  102SOL    HW1  305   0.021   2.996   1.065 -2.2354 -1.0667 -0.7414
  102SOL    HW2  306   0.158   2.923   1.005  0.9273  1.5583 -2.3918
  103SOL     OW  307   0.070   3.060   2.286  0.6120  0.0478  0.4866
  103SOL    HW1  308   3.081   3.049   2.280 -1.6661 -0.1119 -0.7305
  103SOL    HW2  309   0.108   2.977   2.336 -0.2674 -1.9628 -0.3713
  104SOL     OW  310   0.278   2.126   1.367  0.2799  0.8120  0.0161
  104SOL    HW1  311   0.208   2.049   1.361 -0.3642 -2.3399  1.8408
  104SOL    HW2  312   0.240   2.201   1.429 -2.8277 -1.5545 -0.5693
  105SOL     OW  313   0.657   2.048   2.190  0.0182  0.0706 -0.3862
  105SOL    HW1  314   0.660   2.144   2.228 -0.2376 -0.1937  2.3408
  105SOL    HW2  315   0.645   2.054   2.089  0.7215 -0.4497  1.7301
  106SOL     OW  316   1.952   0.113   0.771 -0.6062 -0.2338  0.0861
  106SOL    HW1  317   1.886   0.104   0.691 -0.6911  1.7578 -5.0659
  106SOL    HW2  318   1.928   0.047   0.843  1.7097  3.5281 -0.7989
  107SOL     OW  319   0.586   1.051   1.362  0.3089  0.1582  0.1802
  107SOL    HW1  320   0.516   1.031   1.291  0.0946  0.1458  2.3779
  107SOL    HW2  321   0.675   1.010   1.338 -0.5882 -0.4034  2.4543
  108SOL     OW  322   2.908   1.084   2.490  1.0141 -0.3965  0.0162
  108SOL    HW1  323   2.946   1.176   2.484  0.8041 -3.9934 -1.1692
  108SOL    HW2  324   2.887   1.056   2.395  1.2920 -1.4061  0.0591
  109SOL     OW  325   2.070   2.977   3.060  0.5265 -0.2092  0.0487
  109SOL    HW1  326   2.104   3.065   3.033 -1.6115 -0.0107 -2.6581
  109SOL    HW2  327   1.971   2.978   3.097 -1.9668 -1.7835 -0.4191
  110SOL     OW  328   0.237   2.043   0.047  0.4995 -0.2737  0.2927
  110SOL    HW1  329   0.151   1.989   0.052  2.9056  1.9720  3.5220
  110SOL    HW2  330   0.326   2.000   0.076  3.4052  1.6880  0.7467
  111SOL     OW  331   2.803   0.762   2.262  0.0274 -0.6232  0.2176
  111SOL    HW1  332   2.863   0.687   2.248 -0.5472 -0.4691 -0.7104
  111SOL    HW2  333   2.746   0.761   2.351  1.4217  2.2201  2.5447
  112SOL     OW  334   2.068   2.617   1.390 -0.4825  0.5091 -0.2361
  112SOL    HW1  335   2.033   2.665   1.471  0.8019 -2.4496 -0.5619
  112SOL    HW2  336   2.113   2.676   1.324 -1.7924 -1.0260  2.2026
  113SOL     OW  337   2.184   2.103   2.621 -0.2489  0.2268  0.2509
  113SOL    HW1  338   2.253   2.149   2.561  0.2132 -1.5701 -1.2167
  113SOL    HW2  339   2.167   2.168   2.702 -0.8724  5.1058  3.8831
  114SOL     OW  340   0.461   0.202   0.493  0.2269  0.2917 -0.2355
  114SOL    HW1  341   0.390   0.149   0.438 -0.6107 -0.1907 -2.7572
  114SOL    HW2  342   0.530   0.244   0.436 -5.3484  2.3384  0.7437
  115SOL     OW  343   3.090   1.355   3.072 -0.6915 -0.2894 -0.1749
  115SOL    HW1  344   0.055   1.410   3.104 -0.1056 -1.5261 -1.9065
  115SOL    HW2  345   3.081   1.272   0.011  1.3265  1.7781 -1.8921
  116SOL     OW  346   3.004   0.851   1.830 -0.7370 -0.4264  0.1845
  116SOL    HW1  347   3.048   0.869   1.735  1.6551 -1.1795 -2.8513
  116SOL    HW2  348   3.040   0.914   1.903  0.5591  0.1301  0.1172
  117SOL     OW  349   2.395   0.267   1.335 -0.1643 -0.3446  0.7643
  117SOL    HW1  350   2.441   0.350   1.378 -0.5108  2.8150  0.9099
  117SOL    HW2  351   2.321   0.231   1.395 -1.3473  1.8152  0.7622
  118SOL     OW  352   2.899   2.263   2.017  0.1603 -0.1282  0.2986
  118SOL    HW1  353   2.977   2.330   1.998 -2.0271  1.4010  0.0611
  118SOL    HW2  354   2.929   2.175   1.981  1.5995 -1.2682 -0.7384
  119SOL     OW  355   0.621   1.840   1.427 -0.1426 -0.0720 -0.1808
  119SOL    HW1  356   0.639   1.935   1.397  1.2516  1.7142  2.4737
  119SOL    HW2  357   0.681   1.772   1.380 -2.3841  0.4312 -0.5272
  120SOL     OW  358   0.348   1.307   1.661 -0.2343  0.4524  0.4767
  120SOL    HW1  359   0.435   1.306   1.608  2.4006  0.2348  1.3192
  120SOL    HW2  360   0.359   1.230   1.729  0.7360 -0.8694 -0.5543
  121SOL     OW  361   1.668   0.949   0.962 -0.0443 -0.3629  0.3789
  121SOL    HW1  362   1.749   1.004   0.991 -0.8962 -2.3866 -0.6936
  121SOL    HW2  363   1.604   1.014   0.916 -1.7323 -0.2215 -0.9658
  122SOL     OW  364   2.125   2.534   2.720  0.5173 -0.0447 -0.3454
  122SOL    HW1  365   2.064   2.615   2.716  2.0516  1.2441 -2.4922
  122SOL    HW2  366   2.150   2.504   2.627 -3.8904 -1.3817  1.2632
  123SOL     OW  367   3.016   2.919   0.461  0.5642 -0.2034 -0.5068
  123SOL    HW1  368   2.926   2.872   0.440 -2.8828  0.9900 -0.7199
  123SOL    HW2  369   2.991   2.994   0.526  2.9580 -1.8500  1.5566
  124SOL     OW  370   1.674   1.368   0.364 -0.4547  0.3985  0.4796
  124SOL    HW1  371   1.616   1.359   0.279 -1.2985 -0.8081 -0.9956
  124SOL    HW2  372   1.658   1.286   0.429 -1.1279 -1.9587  2.4531
  125SOL     OW  373   0.231   0.937   2.171  0.5848 -0.3332 -0.4526
  125SOL    HW1  374   0.302   0.991   2.223  1.9772 -0.0283  2.1546
  125SOL    HW2  375   0.281   0.873   2.105  1.9374 -0.2951  0.5177
  126SOL     OW  376   3.069   2.562   0.090 -0.0456  0.0520  0.3845
  126SOL    HW1  377   3.106   2.574   0.188  1.2859  2.1604 -0.5954
  126SOL    HW2  378   3.091   2.643   0.039  1.0610  0.7755  0.1709
  127SOL     OW  379   3.083   1.922   0.121  0.1884 -0.4433 -0.3183
  127SOL    HW1  380   3.067   1.943   0.220 -1.0620 -2.0719  2.4629
  127SOL    HW2  381   3.022   1.979   0.061 -2.5469  0.6393 -0.0371
  128SOL     OW  382   1.133   0.893   0.904 -0.5398 -0.1136  0.3951
  128SOL    HW1  383   1.106   0.974   0.852 -0.7568 -2.8010  2.3891
  128SOL    HW2  384   1.222   0.860   0.862 -2.4006  0.3430  0.9819
  129SOL     OW  385   2.561   1.982   1.155  0.1507 -0.1314 -0.1000
  129SOL    HW1  386   2.476   1.931   1.120 -1.7542 -0.7374 -1.0672
  129SOL    HW2  387   2.544   2.008   1.253  0.1707  3.0798  0.3034
  130SOL     OW  388   2.032   0.899   0.354  0.3744 -0.0226 -0.4536
  130SOL    HW1  389   2.094   0.980   0.349 -2.1903  0.6461  1.1332
  130SOL    HW2  390   1.931   0.932   0.373 -1.5200  0.3252  1.1419
  131SOL     OW  391   3.051   1.321   2.520 -0.7460  0.1889 -0.1980
  131SOL    HW1  392   3.033   1.396   2.459  1.5540 -0.9384 -0.1955
  131SOL    HW2  393   3.076   1.359   2.608  1.0715 -2.2773  0.4402
  132SOL     OW  394   0.909   1.354   2.011  0.2662 -0.3464 -0.3557
  132SOL    HW1  395   0.864   1.411   1.940 -0.9691 -4.7710  0.0306
  132SOL    HW2  396   0.967   1.285   1.959  0.3423 -2.9731 -3.0902
  133SOL     OW  397   0.469   1.422   0.548  0.5609  0.1125  0.1986
  133SOL    HW1  398   0.418   1.401   0.465  0.8772  0.2844  2.0206
  133SOL    HW2  399   0.563   1.373   0.549  1.6156  0.1158 -0.0775
  134SOL     OW  400   2.688   1.088   0.045 -0.1880  0.1241  0.3059
  134SOL    HW1  401   2.784   1.054   0.022  1.2782  0.4148 -1.9270
  134SOL    HW2  402   2.632   1.099   3.074  0.0020 -2.9507 -1.2842
  135SOL     OW  403   1.669   0.713   0.037 -0.2605  0.2044 -0.0365
  135SOL    HW1  404   1.714   0.746   3.064 -0.8751  2.9533 -1.8980
  135SOL    HW2  405   1.726   0.643   0.084  0.1555 -1.0040 -0.0611
  136SOL     OW  406   1.866   1.557   1.572  0.2253  0.3119 -1.1725
  136SOL    HW1  407   1.898   1.542   1.478 -2.4820 -0.6645 -0.5316
  136SOL    HW2  408   1.831   1.469   1.614 -1.6372  0.4406  0.7935
  137SOL     OW  409   2.251   2.583   0.979  0.3367  0.3561 -0.1563
  137SOL    HW1  410   2.342   2.562   0.936  0.5656 -0.3348 -1.3777
  137SOL    HW2  411   2.186   2.608   0.910  1.4626  0.6835  1.3818
  138SOL     OW  412   2.297   0.535   1.807 -0.2306  0.0915  0.2541
  138SOL    HW1  413   2.251   0.574   1.889 -2.4633 -1.9635 -0.2232
  138SOL    HW2  414   2.239   0.478   1.743  1.4935 -1.9170 -0.6429
  139SOL     OW  415   2.447   2.945   2.784  0.3288 -0.3801 -0.2656
  139SOL    HW1  416   2.346   2.966   2.798 -1.2554 -2.0429 -0.1604
  139SOL    HW2  417   2.485   2.886   2.855 -2.2036 -0.2492 -3.4784
  140SOL     OW  418   1.522   1.908   2.424 -0.4561  0.8073 -0.0162
  140SOL    HW1  419   1.520   1.913   2.319  0.8209  0.7079 -3.4676
  140SOL    HW2  420   1.435   1.867   2.461 -3.7192  0.4827  1.7152
  141SOL     OW  421   0.875   1.003   2.510  0.1422 -0.3208  0.3472
  141SOL    HW1  422   0.847   1.092   2.552 -0.6498  0.3980  0.2038
  141SOL    HW2  423   0.960   0.974   2.555  0.6169  1.5688  1.0408
  142SOL     OW  424   2.583   2.532   2.115  0.6627  0.6882  0.2671
  142SOL    HW1  425   2.552   2.626   2.139 -3.5470  0.5182 -1.8501
  142SOL    HW2  426   2.494   2.488   2.093  1.1950  2.5053 -4.4237
  143SOL     OW  427   1.048   2.390   0.290  0.0967 -0.3396  0.3945
  143SOL    HW1  428   1.087   2.470   0.236 -0.9250  1.6701  0.0739
  143SOL    HW2  429   1.042   2.419   0.390 -2.1274  0.0607  2.0897
  144SOL     OW  430   0.907   2.567   0.656 -0.0305 -0.3074 -0.0560
  144SOL    HW1  431   0.972   2.635   0.619  1.1459 -3.9946  1.5496
  144SOL    HW2  432   0.814   2.569   0.618  2.2791  0.0864  0.2620
  145SOL     OW  433   1.646   2.680   2.379 -0.4642  0.1963  0.4858
  145SOL    HW1  434   1.577   2.627   2.430  0.9371  3.7292  1.1841
  145SOL    HW2  435   1.641   2.782   2.393  0.5075  1.5029 -2.8362
  146SOL     OW  436   2.152   2.795   0.131  0.2693  0.4091  0.4475
  146SOL    HW1  437   2.065   2.753   0.167 -2.1944 -0.6707 -0.8555
  146SOL    HW2  438   2.137   2.859   0.050  1.6978  0.9645 -1.1495
  147SOL     OW  439   0.129   1.740   1.445 -0.2038  0.4540  0.0130
  147SOL    HW1  440   0.222   1.743   1.492  1.3137  1.1390  0.1497
  147SOL    HW2  441   0.096   1.644   1.428  1.0646 -1.8195  0.1565
  148SOL     OW  442   1.749   2.923   0.369  0.6306  0.4475 -0.3824
  148SOL    HW1  443   1.722   2.864   0.286 -1.8752  0.8605  2.5388
  148SOL    HW2  444   1.838   2.892   0.401 -0.5552 -1.7608 -4.1900
  149SOL     OW  445   0.570   1.848   2.982 -0.4241  0.4234 -0.1326
  149SOL    HW1  446   0.661   1.852   3.030 -1.1823  0.7080  0.2052
  149SOL    HW2  447   0.574   1.904   2.895  1.7551 -0.0400 -1.8697
  150SOL     OW  448   0.286   2.627   0.988 -0.0496 -0.5600 -0.3398
  150SOL    HW1  449   0.335   2.643   1.076 -0.3434  0.0998 -2.9053
  150SOL    HW2  450   0.242   2.709   0.950  2.7106  0.1306  1.3741
  151SOL     OW  451   0.516   1.204   3.005 -0.2571  0.5658  0.2853
  151SOL    HW1  452   0.557   1.285   2.964 -0.9319 -0.6459 -1.9425
  151SOL    HW2  453   0.414   1.218   3.007 -1.0982 -0.7532  1.7991
  152SOL     OW  454   2.985   2.193   0.896 -0.5511 -0.5805 -0.0966
  152SOL    HW1  455   2.953   2.095   0.893  2.8018  1.5299  0.0402
  152SOL    HW2  456   2.910   2.256   0.886  2.6638  0.9018  3.3141
  153SOL     OW  457   1.768   2.337   0.726 -0.5421 -0.5221  0.2377
  153SOL    HW1  458   1.831   2.287   0.661  2.3736  1.9699 -1.7944
  153SOL    HW2  459   1.732   2.275   0.796  1.7207  3.6493  0.2400
  154SOL     OW  460   0.695   2.917   1.442 -0.0492 -0.1492  0.3707
  154SOL    HW1  461   0.674   3.017   1.433  0.5702 -0.0374 -1.4368
  154SOL    HW2  462   0.710   2.871   1.350 -0.1183 -1.2401 -0.2170
  155SOL     OW  463   2.836   2.177   0.389  0.1405 -0.0002  0.0356
  155SOL    HW1  464   2.842   2.235   0.471  2.9051  1.4289  0.3590
  155SOL    HW2  465   2.741   2.145   0.372 -0.8500  0.6301 -1.4820
  156SOL     OW  466   2.475   1.976   0.077 -0.1729  0.2410  0.2053
  156SOL    HW1  467   2.569   1.962   0.041 -0.1906  4.2459 -0.3172
  156SOL    HW2  468   2.463   1.938   0.178  0.8952 -1.0827  2.3214
  157SOL     OW  469   0.353   2.787   1.670 -0.3482 -0.3439  0.3504
  157SOL    HW1  470   0.279   2.740   1.721  1.2599  3.1505  0.2674
  157SOL    HW2  471   0.428   2.804   1.733 -1.1237  1.1347  0.3543
  158SOL     OW  472   1.483   0.748   1.042  0.0232  0.2187  0.4474
  158SOL    HW1  473   1.541   0.834   1.031 -0.1389  2.9186  1.2711
  158SOL    HW2  474   1.452   0.724   1.135 -3.8776 -0.8838  1.1366
  159SOL     OW  475   1.725   1.050   0.049 -0.6345  0.3431  0.0158
  159SOL    HW1  476   1.807   1.072   0.111  1.4515  0.2542  4.2962
  159SOL    HW2  477   1.754   1.024   3.072 -0.5319  0.0657 -0.1992
  160SOL     OW  478   1.300   1.916   0.476  0.1105  0.1717 -0.1909
  160SOL    HW1  479   1.277   2.009   0.447 -0.5364 -2.6249 -0.7402
  160SOL    HW2  480   1.216   1.858   0.488 -3.3404 -1.1089 -1.1446
  161SOL     OW  481   2.450   2.134   2.434  0.4335 -0.3779 -0.2370
  161SOL    HW1  482   2.447   2.226   2.485  2.7275  1.6504 -1.3667
  161SOL    HW2  483   2.501   2.062   2.487  2.7213 -1.9106  0.2680
  162SOL     OW  484   0.202   2.350   1.505  0.5211  0.0361 -0.2878
  162SOL    HW1  485   0.104   2.389   1.500 -2.7852  1.5016 -1.9098
  162SOL    HW2  486   0.276   2.415   1.479 -1.4996 -1.3364  0.4214
  163SOL     OW  487   0.389   0.476   2.711  0.2654  0.3824  0.0177
  163SOL    HW1  488   0.331   0.521   2.779  0.2285  1.9883 -0.2176
  163SOL    HW2  489   0.479   0.525   2.700  0.7329  0.7825  0.4779
  164SOL     OW  490   0.075   2.779   2.864 -0.4883 -0.3332  0.2373
  164SOL    HW1  491   0.059   2.858   2.803 -1.9885  1.0498 -1.7563
  164SOL    HW2  492   0.070   2.811   2.961 -0.7955  1.6250  1.5710
  165SOL     OW  493   2.943   0.915   1.370 -0.3789  0.0800 -0.4181
  165SOL    HW1  494   2.842   0.916   1.369  1.4308  2.5633 -2.9202
  165SOL    HW2  495   2.982   0.842   1.313  0.2381 -1.4543  1.7507
  166SOL     OW  496   1.978   1.495   1.327 -0.3488  0.0841  0.0674
  166SOL    HW1  497   2.076   1.461   1.335  1.7699  0.1947  0.6392
  166SOL    HW2  498   1.978   1.576   1.268 -0.5516 -1.4596  0.1045
  167SOL     OW  499   0.343   0.732   2.434 -0.2369  0.3928 -0.1582
  167SOL    HW1  500   0.340   0.683   2.341 -2.1317 -2.2492 -0.8427
  167SOL    HW2  501   0.282   0.814   2.447 -1.1955 -0.2916 -1.2828
  168SOL     OW  502   2.296   0.269   2.238 -0.0772  0.1890 -0.6944
  168SOL    HW1  503   2.215   0.263   2.299  1.2708 -2.9360  2.3933
  168SOL    HW2  504   2.378   0.297   2.293 -2.1290 -4.9994  0.6306
  169SOL     OW  505   0.627   0.991   0.021 -0.5098  0.1395  0.0739
  169SOL    HW1  506   0.557   0.956   0.089 -3.0225 -0.6543  3.0943
  169SOL    HW2  507   0.589   1.070   3.083  0.7940 -0.5540  0.0456
  170SOL     OW  508   0.914   1.212   1.631 -0.5076 -0.1902  0.0267
  170SOL    HW1  509   0.823   1.252   1.649  2.2683 -0.2213 -1.8531
  170SOL    HW2  510   0.978   1.221   1.711 -1.3208 -2.9617 -4.4469
  171SOL     OW  511   1.317   2.661   1.539  0.4927 -0.6517  0.2529
  171SOL    HW1  512   1.277   2.706   1.619 -0.8809  3.2981 -0.6633
  171SOL    HW2  513   1.387   2.721   1.502  2.2767  1.3537  1.2380
  172SOL     OW  514   1.203   3.035   2.008  0.0843 -0.1008 -0.2764
  172SOL    HW1  515   1.124   3.005   2.065  0.1292 -1.7502 -0.1059
  172SOL    HW2  516   1.193   3.001   1.913  0.1985  3.0825  2.1017
  173SOL     OW  517   1.093   2.468   0.856  0.2465  0.3870 -0.2106
  173SOL    HW1  518   1.026   2.508   0.797  0.1317  0.7953  0.9698
  173SOL    HW2  519   1.041   2.402   0.919 -2.4992 -2.0667  1.4471
  174SOL     OW  520   2.331   3.072   0.495  0.6070  0.5002  0.0881
  174SOL    HW1  521   2.303   0.020   0.568 -1.4943  3.5771  2.1759
  174SOL    HW2  522   2.352   0.005   0.409  2.0266 -1.8043  1.0445
  175SOL     OW  523   1.490   1.043   0.774  0.0705  0.3777  0.5785
  175SOL    HW1  524   1.425   1.102   0.828 -2.2592 -1.0304  0.0181
  175SOL    HW2  525   1.444   0.956   0.744 -1.2501  1.4621 -2.3980
  176SOL     OW  526   1.065   1.758   0.468  0.2289 -0.1521  0.7350
  176SOL    HW1  527   1.033   1.800   0.554 -0.5657  0.1062 -1.6022
  176SOL    HW2  528   1.081   1.657   0.472 -0.9254 -2.9985 -3.0888
  177SOL     OW  529   1.806   1.480   1.076 -0.0547 -0.1757 -0.1486
  177SOL    HW1  530   1.772   1.485   0.978 -1.5411  2.2846 -3.5028
  177SOL    HW2  531   1.908   1.484   1.081 -2.5596 -2.3855 -2.7534
  178SOL     OW  532   2.267   1.654   0.077  0.1113  0.0595  0.2644
  178SOL    HW1  533   2.274   1.728   0.007 -0.3829  3.4440 -0.1539
  178SOL    HW2  534   2.353   1.607   0.098 -0.9038 -1.5551  0.4201
  179SOL     OW  535   1.332   2.922   0.122  0.1803  0.1728 -0.4519
  179SOL    HW1  536   1.349   2.826   0.144 -0.5609  2.3926  0.3931
  179SOL    HW2  537   1.278   2.924   0.033  0.9956  0.3603 -0.7460
  180SOL     OW  538   2.012   1.247   1.545  0.6175 -0.1229 -0.1066
  180SOL    HW1  539   2.015   1.307   1.628  0.9233 -0.4561 -0.3780
  180SOL    HW2  540   2.077   1.282   1.478 -1.5617 -2.1460  2.4524
  181SOL     OW  541   0.995   0.751   1.823 -0.3537 -0.1760  0.2777
  181SOL    HW1  542   1.062   0.797   1.887  0.7701 -1.4043  0.2841
  181SOL    HW2  543   0.929   0.690   1.872  1.0525  1.1665 -0.2277
  182SOL     OW  544   0.113   0.894   2.509  0.2859 -0.3840  0.4647
  182SOL    HW1  545   0.063   0.856   2.430  1.4645  1.7634  1.4811
  182SOL    HW2  546   0.129   0.993   2.494 -0.3761 -2.6394  0.7897
  183SOL     OW  547   1.412   0.684   2.480  0.1883  0.1761 -0.5187
  183SOL    HW1  548   1.490   0.650   2.544  3.5918  0.9865  0.1917
  183SOL    HW2  549   1.323   0.640   2.507  1.2324 -2.7391 -1.0724
  184SOL     OW  550   0.573   0.437   1.056 -0.5490 -0.0206 -0.4348
  184SOL    HW1  551   0.648   0.504   1.029 -1.7416 -0.1286 -0.3381
  184SOL    HW2  552   0.544   0.445   1.152  0.2740 -0.7371 -0.1757
  185SOL     OW  553   2.259   1.402   0.765 -0.2528 -0.2909  0.0535
  185SOL    HW1  554   2.335   1.474   0.776  0.8467  1.8679  1.4573
  185SOL    HW2  555   2.244   1.386   0.668  1.5350 -1.7186  1.3987
  186SOL     OW  556   0.308   2.159   0.362  0.6022 -0.1852  0.2249
  186SOL    HW1  557   0.302   2.095   0.284  1.6934  2.0126  2.2492
  186SOL    HW2  558   0.241   2.231   0.355  0.8123 -0.7074  0.9442
  187SOL     OW  559   1.943   2.126   2.972  0.3862 -0.0486 -0.1881
  187SOL    HW1  560   1.942   2.034   3.009 -0.9076  3.5136 -1.0210
  187SOL    HW2  561   2.032   2.145   2.934 -1.3054  0.6584  1.5391
  188SOL     OW  562   1.439   2.064   1.488 -0.1518  0.0542  0.3179
  188SOL    HW1  563   1.373   1.987   1.474  0.1902  1.1620 -0.1788
  188SOL    HW2  564   1.393   2.144   1.528 -0.1690  0.4840 -0.0015
  189SOL     OW  565   2.344   1.440   2.563 -0.1918  0.2155 -0.3966
  189SOL    HW1  566   2.286   1.412   2.645 -2.2403  0.7052 -1.0992
  189SOL    HW2  567   2.294   1.429   2.476  2.2071  1.8545 -1.0529
  190SOL     OW  568   0.800   2.733   2.023  0.2994  0.8639  0.6563
  190SOL    HW1  569   0.866   2.691   2.087  0.6056 -1.9619 -1.1666
  190SOL    HW2  570   0.708   2.752   2.072 -1.7422 -0.0656 -0.4492
  191SOL     OW  571   2.840   1.086   1.127 -0.7472 -0.3764  0.0212
  191SOL    HW1  572   2.805   1.041   1.212  0.0778  0.8037  1.0690
  191SOL    HW2  573   2.797   1.051   1.041 -0.1521 -0.8876  3.2421
  192SOL     OW  574   2.470   0.694   1.637 -0.4847 -0.7706  0.6085
  192SOL    HW1  575   2.406   0.662   1.705  0.2822  2.4669  0.3987
  192SOL    HW2  576   2.453   0.644   1.548  0.5394  0.2819  0.7888
  193SOL     OW  577   0.922   0.352   0.111  0.4762  0.0261 -0.1033
  193SOL    HW1  578   0.945   0.257   0.076  2.7055  0.1837  0.4498
  193SOL    HW2  579   0.881   0.410   0.037  1.7384  0.9809 -1.8071
  194SOL     OW  580   1.176   2.555   1.312 -0.3929  0.2424  0.0081
  194SOL    HW1  581   1.237   2.605   1.375 -1.6879  1.3892  0.0509
  194SOL    HW2  582   1.190   2.590   1.217 -1.7022 -3.9333  0.4294
  195SOL     OW  583   2.763   1.025   0.541 -0.1306  0.5819  0.4048
  195SOL    HW1  584   2.765   1.060   0.637  2.1761 -0.3338 -0.1326
  195SOL    HW2  585   2.690   0.961   0.519 -4.1313  1.6842  2.7563
  196SOL     OW  586   0.552   2.142   1.376  0.7001 -0.3628  0.5740
  196SOL    HW1  587   0.450   2.129   1.382  0.3305 -0.4433  1.0505
  196SOL    HW2  588   0.570   2.172   1.277  1.1094  0.1038 -0.9867
  197SOL     OW  589   2.956   0.549   2.199  0.0419 -0.2989  0.3260
  197SOL    HW1  590   3.050   0.528   2.231 -0.9753  0.2165 -0.8065
  197SOL    HW2  591   2.900   0.463   2.225  0.4959 -1.9754  3.6206
  198SOL     OW  592   2.074   1.329   0.147 -0.9369 -0.1705 -0.5713
  198SOL    HW1  593   2.156   1.362   0.091  2.0273  2.4665 -2.0232
  198SOL    HW2  594   2.025   1.413   0.183 -0.7546 -1.3606 -2.3687
  199SOL     OW  595   2.582   0.444   1.831  0.0831 -0.1545  0.0618
  199SOL    HW1  596   2.499   0.499   1.821 -0.3853  0.2360 -0.8699
  199SOL    HW2  597   2.638   0.446   1.750  0.2062  0.8211 -0.0413
  200SOL     OW  598   2.158   0.117   3.029  0.1530  0.0768  0.5390
  200SOL    HW1  599   2.234   0.145   3.091  0.1241  0.4416 -3.5432
  200SOL    HW2  600   2.179   0.179   2.948  2.5593 -2.6361  2.1877
  201SOL     OW  601   2.566   0.138   0.986  0.5684  0.4006 -0.0630
  201SOL    HW1  602   2.648   0.179   0.941 -2.7471 -0.2921 -0.6764
  201SOL    HW2  603   2.483   0.200   0.961 -2.6869  0.1565 -0.6616
  202SOL     OW  604   2.904   2.576   0.385 -0.7135 -0.2335  0.4187
  202SOL    HW1  605   3.007   2.564   0.393  1.5815 -1.8225  4.1129
  202SOL    HW2  606   2.870   2.671   0.410 -0.1690  3.4574 -0.7585
  203SOL     OW  607   1.561   1.891   0.540  0.0822 -0.1287 -0.5514
  203SOL    HW1  608   1.458   1.894   0.532 -0.5083  0.4081 -1.0367
  203SOL    HW2  609   1.589   1.904   0.639 -0.6495  0.0454  2.4654
  204SOL     OW  610   0.278   1.904   2.370  0.1519 -0.3324  0.1103
  204SOL    HW1  611   0.360   1.871   2.318  0.1360 -0.1119  0.6499
  204SOL    HW2  612   0.195   1.853   2.360 -0.5583  5.5102  0.7002
  205SOL     OW  613   0.723   0.456   0.731 -0.4432 -0.3913 -0.2120
  205SOL    HW1  614   0.706   0.549   0.769  1.1206  0.3029  2.3754
  205SOL    HW2  615   0.814   0.456   0.688  0.1883 -1.0730 -0.1837
  206SOL     OW  616   0.219   0.634   2.861 -0.2381  0.0012  0.5783
  206SOL    HW1  617   0.176   0.629   2.952  0.8163  0.6619  1.4884
  206SOL    HW2  618   0.189   0.718   2.809  2.9502  1.2186  1.2936
  207SOL     OW  619   1.174   2.589   1.978 -0.0206 -0.1848  0.0302
  207SOL    HW1  620   1.158   2.489   1.959  2.1169 -3.6759 -1.0608
  207SOL    HW2  621   1.119   2.623   2.054 -2.7671  0.4327  0.1189
  208SOL     OW  622   2.758   3.075   1.553 -0.6271  0.4878  0.0048
  208SOL    HW1  623   2.694   3.065   1.634 -0.5076  0.1846  3.4110
  208SOL    HW2  624   2.757   2.996   1.483 -0.3993 -0.9482 -1.6703
  209SOL     OW  625   1.858   0.975   0.709  0.2613  0.8374 -0.2882
  209SOL    HW1  626   1.765   0.943   0.735 -1.9162 -1.5443 -2.1175
  209SOL    HW2  627   1.871   0.976   0.610 -1.0647 -0.7151  3.3780
  210SOL     OW  628   2.624   0.935   0.282 -0.3352 -0.3801  0.0443
  210SOL    HW1  629   2.529   0.953   0.324 -2.5794  1.8596  0.9890
  210SOL    HW2  630   2.632   1.001   0.205 -2.2513 -0.9939  1.3803
  211SOL     OW  631   1.286   0.029   0.265  0.2467 -0.0393  0.7353
  211SOL    HW1  632   1.329   0.116   0.224  2.1391 -0.2285  1.8346
  211SOL    HW2  633   1.323   3.055   0.219 -0.1419  1.0775  0.0677
  212SOL     OW  634   1.937   2.167   0.559  0.3853  0.3086 -0.5708
  212SOL    HW1  635   2.029   2.179   0.605 -1.8436 -2.5189 -1.2249
  212SOL    HW2  636   1.944   2.177   0.455  0.5688 -1.4253 -0.8345
  213SOL     OW  637   2.359   0.211   0.043  0.6514  0.5172 -0.5650
  213SOL    HW1  638   2.433   0.181   3.097  1.1994  0.4251  0.6626
  213SOL    HW2  639   2.375   0.303   0.083  0.8307  2.1509 -0.8383
  214SOL     OW  640   0.896   2.395   2.002 -0.0329 -0.1089  0.5549
  214SOL    HW1  641   0.969   2.376   2.069  1.6422  2.5557 -0.5525
  214SOL    HW2  642   0.813   2.436   2.040  1.3881  1.1632 -0.7268
  215SOL     OW  643   0.426   1.147   0.912  0.1318  0.1130 -0.4595
  215SOL    HW1  644   0.409   1.245   0.943  1.1979  0.6664  1.7516
  215SOL    HW2  645   0.519   1.139   0.863  0.7422  1.7291 -4.2213
  216SOL     OW  646   0.189   2.549   2.749  0.0283 -0.7998  0.1486
  216SOL    HW1  647   0.291   2.556   2.743  1.1332  2.7710  1.5524
  216SOL    HW2  648   0.156   2.638   2.793 -1.2344  1.5560  1.0893
  217SOL     OW  649   2.879   1.337   1.302 -0.1446 -0.2890 -0.1473
  217SOL    HW1  650   2.946   1.390   1.245  3.0004 -0.5831  0.7293
  217SOL    HW2  651   2.859   1.254   1.244  1.6297  3.4724 -1.1365
  218SOL     OW  652   0.773   2.356   1.741 -0.0899  0.0591  0.1066
  218SOL    HW1  653   0.795   2.443   1.691 -0.4512  2.3393 -0.4934
  218SOL    HW2  654   0.808   2.352   1.838  1.0106  1.1650  0.7219
  219SOL     OW  655   1.939   1.588   0.526  0.0127 -0.3111  0.4578
  219SOL    HW1  656   1.995   1.616   0.451  0.3934  0.2040  0.0134
  219SOL    HW2  657   1.936   1.662   0.596 -1.6875  0.4173  0.3773
  220SOL     OW  658   1.914   0.635   0.339  0.1375 -0.1741 -0.1353
  220SOL    HW1  659   1.976   0.714   0.328  0.4961  0.8428  1.6537
  220SOL    HW2  660   1.855   0.656   0.418  1.5602  0.6307 -0.9010
  221SOL     OW  661   3.053   0.898   0.135  0.2348 -0.1722  0.2538
  221SOL    HW1  662   2.989   0.849   0.198  1.2815 -0.2423 -1.5499
  221SOL    HW2  663   3.067   0.844   0.050 -2.0342 -0.7499  0.5926
  222SOL     OW  664   1.666   1.534   0.846 -0.1995  0.2944 -0.3333
  222SOL    HW1  665   1.578   1.482   0.840  1.8628  1.2181 -1.7164
  222SOL    HW2  666   1.666   1.637   0.849  1.1752  1.3330  0.8466
  223SOL     OW  667   1.116   0.202   2.901  0.0897  0.1013 -0.3562
  223SOL    HW1  668   1.045   0.192   2.824 -2.2424  1.4126 -3.2049
  223SOL    HW2  669   1.100   0.148   2.982  1.2175  2.9094  1.7229
  224SOL     OW  670   0.818   2.878   1.169  0.5740  0.3116 -0.6859
  224SOL    HW1  671   0.750   2.920   1.105 -1.1386  1.0641  0.5821
  224SOL    HW2  672   0.910   2.915   1.158 -0.4645  2.3101  0.8793
  225SOL     OW  673   0.559   2.809   1.836 -0.3310  0.2169  0.3789
  225SOL    HW1  674   0.556   2.755   1.923 -0.9520 -0.6978  2.0219
  225SOL    HW2  675   0.607   2.895   1.852  0.2993 -1.2851 -2.5847
  226SOL     OW  676   1.572   1.613   0.440  0.2845  0.1425 -0.0235
  226SOL    HW1  677   1.600   1.709   0.469 -0.7343  2.8484 -0.1475
  226SOL    HW2  678   1.644   1.538   0.430 -0.7352 -0.1191 -0.9037
  227SOL     OW  679   0.439   1.699   1.232 -0.1332  0.5779  0.5584
  227SOL    HW1  680   0.400   1.786   1.264  0.6534 -2.9285  0.1383
  227SOL    HW2  681   0.538   1.712   1.212  1.7073  1.7364  0.4456
  228SOL     OW  682   0.106   1.992   0.674 -0.3592  0.1805 -0.0266
  228SOL    HW1  683   0.207   1.993   0.660 -0.2560 -0.6078  1.2976
  228SOL    HW2  684   0.067   2.078   0.630 -2.0462  1.8229 -0.1064
  229SOL     OW  685   2.827   0.181   3.038  0.0414 -0.8748 -0.2974
  229SOL    HW1  686   2.738   0.164   2.986  0.1283  0.2276  1.0497
  229SOL    HW2  687   2.883   0.096   3.032  2.0174 -0.6462 -0.4863
  230SOL     OW  688   2.365   0.979   0.421 -0.2500 -0.6331 -0.9766
  230SOL    HW1  689   2.294   1.041   0.383 -2.4870 -1.4539  0.2865
  230SOL    HW2  690   2.343   0.964   0.521  0.9040  2.1459  1.8425
  231SOL     OW  691   1.760   1.452   3.022  0.4585  0.2104 -0.3866
  231SOL    HW1  692   1.770   1.458   0.013  2.3760  0.5042  2.9122
  231SOL    HW2  693   1.821   1.525   2.984  1.9372 -1.2344  1.4447
  232SOL     OW  694   2.356   1.799   1.146  0.5862 -0.1396  0.0682
  232SOL    HW1  695   2.404   1.718   1.177 -0.5895  2.5910  0.6752
  232SOL    HW2  696   2.281   1.826   1.204  1.1924  1.4094  0.6929
  233SOL     OW  697   0.202   2.677   1.403  0.3417 -0.0633 -0.0868
  233SOL    HW1  698   0.270   2.647   1.479  2.7425 -0.1319 -1.7478
  233SOL    HW2  699   0.136   2.746   1.438  0.3390  1.8189  0.9746
  234SOL     OW  700   0.759   0.243   2.452  0.3421 -0.4199 -0.5001
  234SOL    HW1  701   0.855   0.211   2.455  0.5291 -2.0377 -2.6146
  234SOL    HW2  702   0.705   0.194   2.525 -0.3588 -0.1545 -0.8772
  235SOL     OW  703   2.872   1.021   2.221  0.4897 -0.1088  0.7362
  235SOL    HW1  704   2.930   1.047   2.142 -0.4461  0.8280  1.1718
  235SOL    HW2  705   2.847   0.919   2.218  0.7185 -4.5964  0.7851
  236SOL     OW  706   1.214   2.802   1.777  0.1399  0.1929 -0.1182
  236SOL    HW1  707   1.122   2.841   1.757 -1.1477  2.1538  1.1204
  236SOL    HW2  708   1.204   2.724   1.841  1.6526 -0.7661  0.1418
  237SOL     OW  709   0.535   1.655   2.730 -0.5028 -0.2831 -0.4796
  237SOL    HW1  710   0.586   1.674   2.639  2.1811 -2.1698 -3.1743
  237SOL    HW2  711   0.544   1.739   2.788  1.5513  0.8601 -0.0853
  238SOL     OW  712   1.002   0.539   2.396  0.7985 -0.3122 -0.1200
  238SOL    HW1  713   1.010   0.620   2.331  2.0834  3.5298 -2.1093
  238SOL    HW2  714   0.920   0.556   2.459 -2.3892 -0.2235  0.1892
  239SOL     OW  715   0.338   2.121   2.001  0.6007  0.1392 -0.2279
  239SOL    HW1  716   0.419   2.074   1.960 -0.1028  2.9304  0.7454
  239SOL    HW2  717   0.357   2.222   1.999  0.1371  0.1667 -0.6871
  240SOL     OW  718   2.572   2.930   0.532  0.2137  0.2529 -0.7617
  240SOL    HW1  719   2.607   2.918   0.631 -0.2916 -0.0172  3.1107
  240SOL    HW2  720   2.500   2.999   0.526  1.0698 -1.0202  0.4733
  241SOL     OW  721   0.224   0.936   0.124  0.1352  0.1908  0.2972
  241SOL    HW1  722   0.126   0.912   0.130 -1.2772  1.9565  0.9323
  241SOL    HW2  723   0.227   1.038   0.118 -2.1941 -1.5045 -0.9355
  242SOL     OW  724   1.651   2.557   1.690 -0.2810 -0.3011  0.1120
  242SOL    HW1  725   1.737   2.508   1.692 -3.1055  1.4299  0.5140
  242SOL    HW2  726   1.574   2.496   1.725  0.6412  3.2661  0.2515
  243SOL     OW  727   0.474   2.398   1.739  0.1770  0.5355 -0.0563
  243SOL    HW1  728   0.573   2.378   1.742  0.2821 -2.1344 -1.1482
  243SOL    HW2  729   0.454   2.440   1.647 -0.3564  1.5498 -0.8701
  244SOL     OW  730   2.383   0.569   2.510  0.0722  0.1935 -0.4462
  244SOL    HW1  731   2.285   0.579   2.512 -2.7792 -0.4015  0.1387
  244SOL    HW2  732   2.415   0.569   2.413 -0.9656  0.6480 -1.9822
  245SOL     OW  733   1.480   2.805   1.359  0.3860  0.1571 -0.3022
  245SOL    HW1  734   1.490   2.898   1.408 -1.5467  2.5825  1.5566
  245SOL    HW2  735   1.442   2.819   1.261  1.4498 -1.3623 -1.4484
  246SOL     OW  736   1.390   3.034   0.540  0.2689 -0.1264 -0.3159
  246SOL    HW1  737   1.336   3.090   0.611 -0.1546  2.5978 -0.3655
  246SOL    HW2  738   1.397   2.941   0.570  2.0503  1.3554  0.4094
  247SOL     OW  739   1.789   0.569   1.956 -0.9922 -0.4330  0.3004
  247SOL    HW1  740   1.720   0.499   1.938  3.7550  2.7940  3.8423
  247SOL    HW2  741   1.845   0.583   1.869  0.4923  0.7260 -0.2141
  248SOL     OW  742   2.962   2.031   1.875 -0.7790 -0.0763  0.1931
  248SOL    HW1  743   3.061   2.046   1.863  1.0823 -2.2000 -1.8183
  248SOL    HW2  744   2.950   1.929   1.886 -0.4986  2.0530  2.2349
  249SOL     OW  745   3.100   0.208   0.363 -0.3035  0.2842  0.4189
  249SOL    HW1  746   3.028   0.146   0.403  0.7604  0.3152 -1.0300
  249SOL    HW2  747   0.011   0.288   0.418  0.6708 -0.9692 -3.1084
  250SOL     OW  748   2.682   0.001   2.386  0.2935 -0.0679  0.0588
  250SOL    HW1  749   2.642   3.033   2.438  0.1072 -2.5134  0.8287
  250SOL    HW2  750   2.620   0.030   2.310 -0.3132  0.2182  0.2123
  251SOL     OW  751   1.387   0.667   0.071  0.4153 -0.0883  0.2856
  251SOL    HW1  752   1.380   0.568   0.047 -0.0742 -0.1865 -0.4534
  251SOL    HW2  753   1.486   0.694   0.069 -1.2932  0.2306  0.9314
  252SOL     OW  754   1.049   2.705   2.197 -0.3239  0.7116 -0.1121
  252SOL    HW1  755   1.134   2.702   2.245 -2.5856 -1.9460  1.1775
  252SOL    HW2  756   1.026   2.799   2.165  0.4294 -0.7443 -0.6799
  253SOL     OW  757   2.493   2.620   0.855  0.1495 -0.3040  0.2152
  253SOL    HW1  758   2.443   2.711   0.852  1.3575 -0.5046  0.0657
  253SOL    HW2  759   2.545   2.603   0.773  0.2906  0.9603  0.5646
  254SOL     OW  760   2.527   1.302   1.147 -0.0977 -0.5523 -0.1817
  254SOL    HW1  761   2.524   1.206   1.161 -0.7359  1.6460 -1.6075
  254SOL    HW2  762   2.447   1.330   1.084 -1.1473 -0.1617 -0.7675
  255SOL     OW  763   0.739   2.621   1.185 -0.4910 -0.1342 -0.3997
  255SOL    HW1  764   0.771   2.721   1.184  0.2177  2.2275  1.9192
  255SOL    HW2  765   0.724   2.585   1.090  0.2078  2.9028  1.6630
  256SOL     OW  766   2.026   1.790   1.697  0.5378  0.9769 -0.6470
  256SOL    HW1  767   1.994   1.690   1.685 -2.0192 -0.8952 -0.5603
  256SOL    HW2  768   2.127   1.792   1.701 -0.8292  0.0102 -0.8836
  257SOL     OW  769   0.182   2.462   2.491 -0.6828  0.6222  0.5027
  257SOL    HW1  770   0.273   2.439   2.460 -0.6264 -0.7453 -0.0295
  257SOL    HW2  771   0.190   2.497   2.587  0.9410  0.0947  0.2267
  258SOL     OW  772   0.701   2.762   0.793 -0.4170  0.0969 -0.0689
  258SOL    HW1  773   0.767   2.836   0.765  2.0033 -1.7121  0.5100
  258SOL    HW2  774   0.637   2.800   0.863  1.9884  1.3719 -2.7783
  259SOL     OW  775   1.485   0.356   2.791 -0.2051  0.2528 -0.7145
  259SOL    HW1  776   1.524   0.296   2.867  1.3767 -1.5443 -1.3419
  259SOL    HW2  777   1.384   0.374   2.799 -0.4146  0.1046  1.0687
  260SOL     OW  778   0.290   0.571   1.204 -0.0090 -0.6199  0.4717
  260SOL    HW1  779   0.263   0.481   1.165 -0.1038 -0.8987  1.0898
  260SOL    HW2  780   0.339   0.635   1.137  2.6049  3.6155 -1.5861
  261SOL     OW  781   0.590   0.091   2.282  0.4777  0.5046 -0.2882
  261SOL    HW1  782   0.493   0.109   2.256  0.7288 -1.1633 -1.7937
  261SOL    HW2  783   0.623   0.169   2.332  1.2764 -1.5124 -2.8822
  262SOL     OW  784   0.935   2.782   1.741  0.6316  0.6423 -0.3999
  262SOL    HW1  785   0.940   2.696   1.682 -0.5513  0.1790  0.4343
  262SOL    HW2  786   0.893   2.757   1.830  2.1127  0.8120  2.3609
  263SOL     OW  787   0.765   2.316   3.072  0.0643  0.1490 -0.8623
  263SOL    HW1  788   0.865   2.318   3.091  1.9309  0.2124  0.0933
  263SOL    HW2  789   0.715   2.279   0.034 -0.6423 -0.1611 -0.1554
  264SOL     OW  790   1.677   1.705   1.199 -0.0310 -0.0911  0.3611
  264SOL    HW1  791   1.760   1.768   1.208 -1.2603  3.8292  2.2403
  264SOL    HW2  792   1.708   1.620   1.152 -2.0867  2.5768  2.7602
  265SOL     OW  793   1.003   2.356   0.558 -0.1382  0.2336  0.6683
  265SOL    HW1  794   1.053   2.312   0.636 -0.5537  0.3544 -0.6572
  265SOL    HW2  795   0.950   2.434   0.588  0.6687 -2.6672 -2.2705
  266SOL     OW  796   2.729   0.937   0.886  0.4282 -0.2899 -0.0608
  266SOL    HW1  797   2.639   0.900   0.858  0.5561  1.9931  0.4553
  266SOL    HW2  798   2.810   0.906   0.828  1.0662  1.0023 -1.2158
  267SOL     OW  799   0.187   1.488   0.008  0.0808  0.1684  0.7949
  267SOL    HW1  800   0.269   1.536   3.085  0.0412  0.7385 -0.7702
  267SOL    HW2  801   0.119   1.556   0.047  1.3494  1.6325 -0.5076
  268SOL     OW  802   1.598   0.301   0.312 -0.1262  0.2343 -0.0515
  268SOL    HW1  803   1.603   0.199   0.305  1.5782 -0.6533 -0.4945
  268SOL    HW2  804   1.638   0.328   0.400 -1.3666 -1.3319  0.2547
  269SOL     OW  805   3.113   0.801   2.295  1.0087 -0.4015  0.4261
  269SOL    HW1  806   0.075   0.846   2.243 -1.1605  0.8519 -0.8389
  269SOL    HW2  807   3.036   0.769   2.234 -2.6975 -1.3832  0.1155
  270SOL     OW  808   0.100   1.204   0.419 -0.8835  0.3154  0.2911
  270SOL    HW1  809   0.072   1.155   0.503  2.0948 -1.1403  0.5273
  270SOL    HW2  810   0.023   1.197   0.353  2.8372 -0.5719  1.6614
  271SOL     OW  811   2.980   1.527   2.330 -0.0109  0.0329  0.0531
  271SOL    HW1  812   2.965   1.623   2.360 -1.0259 -1.1039  1.8339
  271SOL    HW2  813   3.058   1.528   2.263 -1.7569  0.5295  2.4100
  272SOL     OW  814   2.358   2.433   1.789  0.1463 -0.2433  0.0163
  272SOL    HW1  815   2.443   2.387   1.753 -0.5318 -1.0808 -2.8555
  272SOL    HW2  816   2.358   2.438   1.892 -2.9122  3.2025  1.7074
  273SOL     OW  817   0.058   2.524   0.370  0.3939 -0.3080 -0.0065
  273SOL    HW1  818   0.153   2.550   0.374 -0.5602  0.3575  2.3561
  273SOL    HW2  819   0.052   2.430   0.337  1.2713  2.1786 -3.0096
  274SOL     OW  820   0.696   2.277   0.830 -0.1385  0.1648  0.5228
  274SOL    HW1  821   0.676   2.200   0.765 -0.3249  1.1790  1.8405
  274SOL    HW2  822   0.788   2.271   0.868 -3.1362  0.6236 -2.1385
  275SOL     OW  823   1.733   1.944   2.789 -0.0681  0.6169  0.2278
  275SOL    HW1  824   1.828   1.912   2.768  0.5475 -1.2568  2.3519
  275SOL    HW2  825   1.677   1.976   2.706 -1.4781  1.6610  0.1262
  276SOL     OW  826   2.277   1.550   1.869 -0.2297 -0.2727  0.1820
  276SOL    HW1  827   2.325   1.478   1.813  1.3655  1.1559 -0.8573
  276SOL    HW2  828   2.270   1.538   1.968 -1.7266  0.8996  1.3432
  277SOL     OW  829   2.352   0.284   0.903 -0.2774  0.0125  0.2314
  277SOL    HW1  830   2.354   0.386   0.889  2.6272  0.8732  0.7525
  277SOL    HW2  831   2.311   0.261   0.994  1.3360 -1.2323 -1.2789
  278SOL     OW  832   1.592   0.576   2.660  0.2410  0.0642  0.3089
  278SOL    HW1  833   1.549   0.491   2.699 -0.2534 -0.0683  0.6808
  278SOL    HW2  834   1.554   0.660   2.706  0.9272 -0.8505  0.1337
  279SOL     OW  835   1.091   2.867   1.064  0.0294  0.4708  0.7879
  279SOL    HW1  836   1.131   2.773   1.049  2.3373  0.8211  0.4702
  279SOL    HW2  837   1.081   2.875   1.165 -0.4829 -0.5796 -1.3949
  280SOL     OW  838   1.369   1.288   0.317 -0.4268  0.5631 -0.1795
  280SOL    HW1  839   1.374   1.185   0.330  1.4508 -4.5922 -0.4125
  280SOL    HW2  840   1.424   1.315   0.237  2.3284 -0.7900 -2.0918
  281SOL     OW  841   2.407   1.491   0.458  0.3242  0.5355  0.0730
  281SOL    HW1  842   2.379   1.585   0.479  1.9416 -1.4015 -1.5110
  281SOL    HW2  843   2.488   1.489   0.397 -1.4786 -0.0951  1.4990
  282SOL     OW  844   2.898   1.161   0.363 -0.1882  0.0923  0.7582
  282SOL    HW1  845   2.873   1.088   0.429  1.3469 -1.6536 -0.9920
  282SOL    HW2  846   2.826   1.234   0.362  1.9567 -0.9526  0.3654
  283SOL     OW  847   1.759   2.927   2.822  0.4050  0.9271  0.0842
  283SOL    HW1  848   1.789   3.001   2.759  0.3031 -0.6637 -0.0112
  283SOL    HW2  849   1.759   2.957   2.918  0.0609 -0.5219  0.0635
  284SOL     OW  850   0.727   3.102   2.945 -0.1082 -0.0327  0.2195
  284SOL    HW1  851   0.669   0.066   2.954 -0.6863  0.3613 -3.9664
  284SOL    HW2  852   0.739   3.046   3.026  0.0646  2.1411 -4.3474
  285SOL     OW  853   1.957   1.605   2.901 -0.1713 -0.3164  0.2508
  285SOL    HW1  854   2.051   1.623   2.927 -3.2951 -1.8049  0.7505
  285SOL    HW2  855   1.952   1.567   2.807 -0.9412  1.8301  1.0552
  286SOL     OW  856   1.706   1.985   1.473 -0.2055 -0.3673 -0.5244
  286SOL    HW1  857   1.700   1.919   1.554 -0.5284  0.4316  1.7254
  286SOL    HW2  858   1.620   2.037   1.472 -1.7849  0.9349 -1.0956
  287SOL     OW  859   1.601   0.289   1.497 -0.4033  0.2865  0.4412
  287SOL    HW1  860   1.643   0.214   1.554 -0.7426 -1.6632  1.0756
  287SOL    HW2  861   1.505   0.311   1.516  0.5409  0.3432 -0.0940
  288SOL     OW  862   0.556   2.762   2.154  0.1716  0.2276 -0.1977
  288SOL    HW1  863   0.538   2.826   2.238  0.9180  0.4876 -1.4789
  288SOL    HW2  864   0.466   2.740   2.110  1.6325  0.5279 -4.0598
  289SOL     OW  865   0.330   1.691   0.982 -0.2290 -0.0222  0.0109
  289SOL    HW1  866   0.374   1.683   1.076  0.8380  2.9247  0.4082
  289SOL    HW2  867   0.317   1.789   0.957 -2.3388  0.1666 -0.8827
  290SOL     OW  868   0.942   1.945   1.936 -0.1044 -0.0862  0.0801
  290SOL    HW1  869   0.920   1.899   2.023 -2.6311  1.5116 -1.6487
  290SOL    HW2  870   1.031   1.991   1.936 -0.8999 -0.1240 -1.8720
  291SOL     OW  871   1.752   0.084   0.585  0.1118 -1.1136 -0.5231
  291SOL    HW1  872   1.683   0.083   0.658 -2.8115 -0.7673  0.4221
  291SOL    HW2  873   1.702   0.054   0.501  0.0431 -1.2363  1.9253
  292SOL     OW  874   0.565   0.345   1.341 -0.1526  0.3195  0.0717
  292SOL    HW1  875   0.617   0.429   1.379 -1.0532  0.3424  3.3902
  292SOL    HW2  876   0.472   0.339   1.375 -0.5629  1.8228 -0.7176
  293SOL     OW  877   2.407   1.901   0.892 -0.9178 -0.0184  0.4862
  293SOL    HW1  878   2.507   1.882   0.869  1.9803  3.3288 -1.9366
  293SOL    HW2  879   2.369   1.839   0.962 -1.5515 -0.9990 -0.6966
  294SOL     OW  880   0.207   0.162   2.378 -0.6522  0.2038 -0.0616
  294SOL    HW1  881   0.153   0.079   2.347 -2.3510  0.2986  1.7236
  294SOL    HW2  882   0.256   0.193   2.293 -0.8379 -2.9928 -2.4060
  295SOL     OW  883   1.080   1.488   0.558 -0.5255  0.2985 -0.6448
  295SOL    HW1  884   1.179   1.467   0.580  2.8692  2.9995  1.5318
  295SOL    HW2  885   1.054   1.448   0.472  1.2588 -3.2500  0.5495
  296SOL     OW  886   2.007   1.738   1.204  0.0838 -0.3019 -0.1661
  296SOL    HW1  887   2.029   1.729   1.104  0.7602  0.5470 -1.0422
  296SOL    HW2  888   1.945   1.818   1.218  0.3279 -1.9308  0.3841
  297SOL     OW  889   1.863   0.594   2.699 -0.3396  0.3477 -0.0300
  297SOL    HW1  890   1.874   0.654   2.782  2.1879 -0.0021  2.0895
  297SOL    HW2  891   1.763   0.580   2.677  1.0962  0.3305  0.0024
  298SOL     OW  892   1.207   0.062   2.612 -0.0707  0.4683  0.5558
  298SOL    HW1  893   1.227   3.106   2.683 -2.0395 -1.0481 -3.9954
  298SOL    HW2  894   1.284   0.069   2.543 -0.0371 -2.0987  0.3465
  299SOL     OW  895   0.833   0.319   1.959  0.0203 -0.0148  0.1817
  299SOL    HW1  896   0.925   0.285   1.993  0.2674 -0.1954 -0.3415
  299SOL    HW2  897   0.793   0.254   1.890 -0.6001 -2.0195  2.9017
  300SOL     OW  898   2.852   0.226   1.554 -0.1951  0.4421 -0.3427
  300SOL    HW1  899   2.951   0.247   1.559  0.7665 -1.1784  0.7863
  300SOL    HW2  900   2.828   0.131   1.585  0.6480 -1.0369 -2.4731
  301SOL     OW  901   1.985   0.844   1.791  0.2304 -0.7493 -0.0506
  301SOL    HW1  902   1.938   0.908   1.730  0.8246 -0.0426  3.4153
  301SOL    HW2  903   1.971   0.744   1.764 -1.0824  0.9072 -1.5089
  302SOL     OW  904   0.742   2.980   0.103 -0.0573  0.2892  0.1793
  302SOL    HW1  905   0.694   3.065   0.128 -2.1114  2.5970 -0.2812
  302SOL    HW2  906   0.744   2.912   0.180  0.5780 -2.6874  2.8748
  303SOL     OW  907   1.907   1.970   1.913  0.4142 -0.3043 -0.1232
  303SOL    HW1  908   1.893   2.064   1.869  0.4303  2.4962 -3.1262
  303SOL    HW2  909   1.970   1.919   1.852 -0.0857  0.3915  0.6056
  304SOL     OW  910   0.197   0.096   0.700  0.3237  0.1113 -0.5148
  304SOL    HW1  911   0.222   0.087   0.602  1.6680  0.2947  0.6012
  304SOL    HW2  912   0.267   0.051   0.754 -1.2067  1.0183  0.4003
  305SOL     OW  913   1.227   0.891   0.427  0.1182 -0.0992  0.0523
  305SOL    HW1  914   1.313   0.942   0.393  1.8419  4.8695 -1.9428
  305SOL    HW2  915   1.222   0.794   0.393 -0.2386  2.0209  2.8036
  306SOL     OW  916   0.633   1.578   0.062 -0.0565  0.1793 -0.2310
  306SOL    HW1  917   0.695   1.511   0.112 -0.2909  2.5971 -1.2173
  306SOL    HW2  918   0.594   1.646   0.127  0.0784  1.2928 -1.0759
  307SOL     OW  919   0.791   0.596   1.915 -0.5282  0.0201 -0.4026
  307SOL    HW1  920   0.731   0.592   1.995 -0.4232 -3.1366  1.5761
  307SOL    HW2  921   0.820   0.497   1.896  0.3874 -0.4745 -1.2464
  308SOL     OW  922   0.491   0.047   1.066  0.1129 -0.0741 -0.1894
  308SOL    HW1  923   0.480   0.137   1.015 -2.4862  0.2453  0.4903
  308SOL    HW2  924   0.588   0.039   1.081 -2.2940  0.1688  0.4033
  309SOL     OW  925   2.172   1.146   0.331 -0.0823  0.0427 -0.1215
  309SOL    HW1  926   2.171   1.215   0.405 -1.4435 -0.5076  1.1711
  309SOL    HW2  927   2.141   1.197   0.244 -0.9835  1.6762 -3.0658
  310SOL     OW  928   1.227   1.435   3.096  0.6865 -0.3246 -0.2551
  310SOL    HW1  929   1.320   1.458   3.062 -1.2298  0.2108 -0.3473
  310SOL    HW2  930   1.190   1.511   0.030 -1.3899 -2.9564  1.2493
  311SOL     OW  931   1.915   2.521   2.086  0.1930  0.1001  0.0033
  311SOL    HW1  932   1.902   2.415   2.091 -0.5578 -1.0304 -0.2046
  311SOL    HW2  933   1.827   2.564   2.113  0.9803  1.4099  1.9334
  312SOL     OW  934   2.553   2.953   0.204  0.1499 -0.0883 -0.0609
  312SOL    HW1  935   2.507   3.038   0.235 -1.2663  2.0594  1.1173
  312SOL    HW2  936   2.503   2.869   0.238  0.7736  1.0071  2.0375
  313SOL     OW  937   0.640   0.628   0.090 -0.0535 -0.1086 -0.3888
  313SOL    HW1  938   0.704   0.695   0.034  2.0656 -0.5975 -0.4743
  313SOL    HW2  939   0.693   0.574   0.159 -1.3959 -0.5382  3.1914
  314SOL     OW  940   2.790   1.442   2.753  0.0293 -0.0494 -0.1125
  314SOL    HW1  941   2.695   1.472   2.722 -5.0094  1.0460  1.6422
  314SOL    HW2  942   2.788   1.418   2.849  0.2585  1.5401  0.8666
  315SOL     OW  943   1.679   0.767   2.081 -0.5941  0.2652  0.0915
  315SOL    HW1  944   1.729   0.700   2.023  0.0123 -0.8409  2.2027
  315SOL    HW2  945   1.731   0.801   2.163  0.3025  2.8840 -0.4293
  316SOL     OW  946   0.004   1.061   0.625  0.3056  0.4184  0.8650
  316SOL    HW1  947   3.034   1.012   0.649 -0.4429 -0.8079 -0.9849
  316SOL    HW2  948   0.078   1.016   0.676 -2.8946  0.1917 -2.7441
  317SOL     OW  949   0.555   0.088   0.126 -0.3316 -0.2268 -0.0200
  317SOL    HW1  950   0.500   0.152   0.060 -0.5217  2.8493 -0.9906
  317SOL    HW2  951   0.591   0.141   0.201 -1.6110 -0.5002 -2.5014
  318SOL     OW  952   1.782   2.634   0.999  0.2850 -0.4742 -0.2298
  318SOL    HW1  953   1.832   2.612   1.085 -0.7309  0.9082  0.4492
  318SOL    HW2  954   1.831   2.602   0.918  1.7763 -0.7526  1.6219
  319SOL     OW  955   1.352   1.459   0.530 -0.0846 -0.4156  0.6024
  319SOL    HW1  956   1.347   1.374   0.479  1.8071  3.2381  3.6863
  319SOL    HW2  957   1.428   1.512   0.484 -0.5836 -0.2462  1.0575
  320SOL     OW  958   0.853   2.122   1.186  0.2843  0.4773 -0.5073
  320SOL    HW1  959   0.770   2.166   1.154  0.8170 -0.3270  0.2743
  320SOL    HW2  960   0.868   2.148   1.282 -1.3288 -1.3322  0.5980
  321SOL     OW  961   2.335   2.462   2.068  0.3818 -0.0083  0.6799
  321SOL    HW1  962   2.291   2.398   2.136 -1.6857  1.2070  1.2768
  321SOL    HW2  963   2.273   2.537   2.051 -1.4658 -1.1116 -1.1135
  322SOL     OW  964   2.449   2.368   2.536 -0.2133  0.0287 -0.0681
  322SOL    HW1  965   2.528   2.405   2.475 -0.2023 -0.4207  0.0991
  322SOL    HW2  966   2.448   2.406   2.628 -0.0225  0.9801 -0.4233
  323SOL     OW  967   2.532   0.831   0.732  0.1038 -0.3189 -0.0746
  323SOL    HW1  968   2.437   0.856   0.697 -2.3347 -0.4238 -0.9984
  323SOL    HW2  969   2.596   0.792   0.658  1.0302  0.4251  2.6204
  324SOL     OW  970   2.256   2.304   2.286 -0.4849  0.1579 -0.0783
  324SOL    HW1  971   2.218   2.365   2.355 -0.0520 -0.3493 -0.8640
  324SOL    HW2  972   2.319   2.239   2.331  0.3261  0.8526 -0.9357
  325SOL     OW  973   1.198   0.498   2.554  0.5468  0.1886  0.8630
  325SOL    HW1  974   1.107   0.502   2.504 -0.3990 -1.8112  0.6983
  325SOL    HW2  975   1.196   0.446   2.643  0.9492  0.5844 -2.3397
  326SOL     OW  976   2.608   2.376   1.148  0.2464  0.0117  0.4415
  326SOL    HW1  977   2.596   2.413   1.244 -3.2250  1.5558  0.7877
  326SOL    HW2  978   2.515   2.349   1.112 -0.0539  1.1652  1.3135
  327SOL     OW  979   2.817   2.940   0.132 -0.4028 -0.4184  0.1147
  327SOL    HW1  980   2.722   2.966   0.153  2.4940  2.4861 -0.6833
  327SOL    HW2  981   2.832   2.935   0.030 -3.4195 -0.2860 -0.6857
  328SOL     OW  982   0.938   0.724   0.656  0.4570  0.2083  0.1717
  328SOL    HW1  983   0.971   0.683   0.741 -1.2435  0.8786 -3.4192
  328SOL    HW2  984   0.883   0.809   0.662  0.6325 -1.0634  0.2170
  329SOL     OW  985   2.081   0.870   1.365 -0.2684 -0.4441  0.4197
  329SOL    HW1  986   2.048   0.871   1.269 -0.5067 -1.5825  2.2885
  329SOL    HW2  987   2.165   0.928   1.364  0.1978  0.8413  0.5751
  330SOL     OW  988   0.906   0.668   0.393 -0.2726 -0.3240  0.0262
  330SOL    HW1  989   0.945   0.750   0.344 -1.7587  1.0654 -2.4511
  330SOL    HW2  990   0.917   0.675   0.500  0.0259 -2.0814  2.6027
  331SOL     OW  991   0.582   1.777   1.773  0.4797  0.2123  0.0305
  331SOL    HW1  992   0.601   1.712   1.851 -0.4567  1.3424  0.7695
  331SOL    HW2  993   0.665   1.809   1.726 -1.1995 -2.1884 -2.0942
  332SOL     OW  994   1.902   2.236   2.095 -0.2604  0.1315  0.1801
  332SOL    HW1  995   1.988   2.187   2.122 -1.6760 -1.6831  1.2343
  332SOL    HW2  996   1.879   2.229   1.993  0.4344  1.0663  0.0476
  333SOL     OW  997   2.981   3.053   0.988  0.4456 -0.2557 -0.9464
  333SOL    HW1  998   2.931   0.006   1.047  0.5927  0.5210 -0.5637
  333SOL    HW2  999   2.936   2.959   1.002 -0.6183 -2.4777 -1.7161
  334SOL     OW 1000   0.014   1.736   0.718  0.2202 -0.8904  0.2745
  334SOL    HW1 1001   0.070   1.659   0.691 -0.7221  1.0977  0.7127
  334SOL    HW2 1002   0.061   1.826   0.696 -0.6139  2.4370  2.4175
  335SOL     OW 1003   0.440   2.607   2.716 -0.4744  0.4547  0.4166
  335SOL    HW1 1004   0.499   2.618   2.632 -0.3293  0.2972  0.5974
  335SOL    HW2 1005   0.451   2.694   2.775  0.4387  2.8329  1.1839
  336SOL     OW 1006   0.161   2.714   1.823  0.3261  0.0387  0.0385
  336SOL    HW1 1007   0.114   2.642   1.765 -1.2203  1.7778 -1.3436
  336SOL    HW2 1008   0.095   2.776   1.878 -1.3341 -0.2363  0.6981
  337SOL     OW 1009   1.282   2.109   2.223  0.4220 -0.3162  0.3354
  337SOL    HW1 1010   1.336   2.192   2.198  2.3968  2.7287 -0.9710
  337SOL    HW2 1011   1.343   2.034   2.248 -3.7547  0.2973 -1.2515
  338SOL     OW 1012   0.975   0.084   2.471 -0.3815  0.6645 -0.0610
  338SOL    HW1 1013   0.943   3.107   2.453  2.1904  1.2691  0.9244
  338SOL    HW2 1014   1.056   0.073   2.538 -0.5402  0.9050  1.7212
  339SOL     OW 1015   0.351   1.106   2.655 -0.4393 -0.2166  0.2543
  339SOL    HW1 1016   0.338   1.057   2.742  1.5223 -1.2611 -0.1277
  339SOL    HW2 1017   0.265   1.104   2.599  0.5464  0.6911 -0.1733
  340SOL     OW 1018   2.128   0.608   1.420  0.6300 -0.4250 -0.0619
  340SOL    HW1 1019   2.111   0.709   1.430  0.4629 -0.6145 -1.5252
  340SOL    HW2 1020   2.162   0.587   1.326 -1.4019 -2.2126  0.2887
  341SOL     OW 1021   2.160   1.099   1.093 -0.1874  0.4523 -0.1831
  341SOL    HW1 1022   2.223   1.059   1.164 -0.4097 -0.2779 -0.4237
  341SOL    HW2 1023   2.204   1.100   0.995  0.8474  0.6994 -1.4365
  342SOL     OW 1024   2.147   2.927   2.796  0.0173 -0.4139 -0.3972
  342SOL    HW1 1025   2.131   2.938   2.896  0.0416 -2.0348 -0.3360
  342SOL    HW2 1026   2.080   2.867   2.755 -2.9441  0.8651  1.9469
  343SOL     OW 1027   2.862   2.542   1.035 -0.4311 -0.9391 -0.0391
  343SOL    HW1 1028   2.947   2.517   1.089  2.6391  1.0705  0.2382
  343SOL    HW2 1029   2.780   2.494   1.073 -1.4151 -1.5557  0.6035
  344SOL     OW 1030   2.389   2.879   0.833  0.5138  0.5247 -0.0943
  344SOL    HW1 1031   2.436   2.960   0.793  0.9259  2.6083 -4.2204
  344SOL    HW2 1032   2.303   2.863   0.782 -1.7920 -0.0582 -1.3054
  345SOL     OW 1033   2.587   2.355   0.332 -0.3423 -0.4795  0.0416
  345SOL    HW1 1034   2.644   2.396   0.262  0.5196  0.2896  0.1176
  345SOL    HW2 1035   2.536   2.433   0.378  0.8856  1.2547  0.3915
  346SOL     OW 1036   1.425   1.987   1.834 -0.0183 -0.0079  0.6443
  346SOL    HW1 1037   1.492   1.921   1.883  3.9906 -0.7151  0.2021
  346SOL    HW2 1038   1.414   1.960   1.736  3.4829 -0.8452  2.7679
  347SOL     OW 1039   1.201   2.087   1.957  0.1976  0.2713  0.0876
  347SOL    HW1 1040   1.225   2.092   2.055 -0.8014 -2.7145 -1.3516
  347SOL    HW2 1041   1.272   2.047   1.898  1.7454 -1.0951 -0.7082
  348SOL     OW 1042   0.946   1.695   1.554  0.3163  0.4471 -0.0785
  348SOL    HW1 1043   0.877   1.641   1.496  0.0788 -1.0527 -2.7390
  348SOL    HW2 1044   0.909   1.784   1.579  0.4461 -1.2188  0.2708
  349SOL     OW 1045   1.676   1.353   1.622 -0.1130  0.0970 -0.5694
  349SOL    HW1 1046   1.653   1.349   1.720  1.3583 -1.0462 -0.4244
  349SOL    HW2 1047   1.590   1.345   1.566 -2.4954  0.8067  0.1712
  350SOL     OW 1048   2.307   2.369   0.558 -0.7640 -0.6570 -0.5152
  350SOL    HW1 1049   2.376   2.440   0.527  2.0029 -0.6720  0.4170
  350SOL    HW2 1050   2.292   2.298   0.486 -2.0633  0.6739  1.7032
  351SOL     OW 1051   0.302   3.111   1.792 -0.0936  0.0871 -0.1427
  351SOL    HW1 1052   0.275   3.043   1.718  1.5209  1.0817  0.0159
  351SOL    HW2 1053   0.255   3.088   1.880  1.3201  0.0377  2.9993
  352SOL     OW 1054   0.587   1.078   0.510 -0.1584  0.1224  0.4648
  352SOL    HW1 1055   0.579   1.090   0.610  1.5626  0.8217 -0.1016
  352SOL    HW2 1056   0.494   1.061   0.473 -0.8474 -2.4979  1.0619
  353SOL     OW 1057   1.169   1.854   2.796 -0.5385  0.6363  0.0300
  353SOL    HW1 1058   1.181   1.892   2.891 -0.3240  0.8592 -0.0508
  353SOL    HW2 1059   1.073   1.822   2.783  0.3344  0.1831 -1.2470
  354SOL     OW 1060   1.758   2.752   1.871  1.1062 -0.2265  0.0944
  354SOL    HW1 1061   1.732   2.727   1.971  1.5443  0.8272  4.7518
  354SOL    HW2 1062   1.699   2.702   1.806 -4.6470  1.4782 -0.1362
  355SOL     OW 1063   2.164   1.093   3.032  0.0781  0.5444 -0.4082
  355SOL    HW1 1064   2.219   1.100   2.948  2.4212 -0.2189  1.2145
  355SOL    HW2 1065   2.097   1.169   3.039  0.4358  0.8705  1.1194
  356SOL     OW 1066   0.316   2.190   1.116  0.8757  0.1384 -0.2981
  356SOL    HW1 1067   0.226   2.236   1.098 -1.3610 -1.9508 -1.1551
  356SOL    HW2 1068   0.320   2.164   1.217 -1.6247  1.5371  2.5693
  357SOL     OW 1069   2.859   2.910   1.794 -0.3701 -0.2094 -0.5463
  357SOL    HW1 1070   2.829   2.818   1.763 -1.4063 -2.0689 -1.1547
  357SOL    HW2 1071   2.879   2.973   1.715  1.7788 -2.2433 -3.9759
  358SOL     OW 1072   2.400   1.766   1.496  0.2038 -0.1884 -0.1639
  358SOL    HW1 1073   2.314   1.801   1.451  0.4499  1.1227  0.9374
  358SOL    HW2 1074   2.432   1.685   1.442 -1.0268  0.8180 -0.1746
  359SOL     OW 1075   1.887   2.545   2.450  0.2425 -0.1724  0.5511
  359SOL    HW1 1076   1.802   2.594   2.424 -5.7820 -0.9852  1.2350
  359SOL    HW2 1077   1.869   2.448   2.448 -1.0400 -1.8269  1.8840
  360SOL     OW 1078   1.040   2.978   0.807  0.5795 -0.1886 -0.4654
  360SOL    HW1 1079   0.954   3.030   0.809  2.9714 -1.8648 -1.1799
  360SOL    HW2 1080   1.065   2.943   0.897 -0.1753  0.6477 -4.8120
  361SOL     OW 1081   1.929   0.406   0.711  0.0616  0.7039 -0.5796
  361SOL    HW1 1082   1.972   0.314   0.723 -1.6483  2.0848  0.7637
  361SOL    HW2 1083   1.879   0.421   0.798  1.9084  1.0724 -1.9279
  362SOL     OW 1084   1.593   0.800   1.327 -0.3163 -0.3764  0.5025
  362SOL    HW1 1085   1.660   0.870   1.320 -0.5287 -2.2580  1.9477
  362SOL    HW2 1086   1.506   0.838   1.364 -1.3322 -1.0486  1.1090
  363SOL     OW 1087   1.937   1.562   2.094 -0.3089 -0.4743 -0.0061
  363SOL    HW1 1088   1.888   1.480   2.135  0.6206 -0.4614 -0.7020
  363SOL    HW2 1089   2.038   1.544   2.085  1.2287 -0.3729  2.5222
  364SOL     OW 1090   0.636   0.799   1.166  0.6607  0.2176 -0.4717
  364SOL    HW1 1091   0.691   0.745   1.098 -0.2940  0.8734 -0.5071
  364SOL    HW2 1092   0.538   0.809   1.138 -1.1053 -4.1147 -1.2423
  365SOL     OW 1093   0.414   0.219   2.560 -0.4079  0.3945 -0.0494
  365SOL    HW1 1094   0.407   0.299   2.622  0.9940 -0.9602 -2.0569
  365SOL    HW2 1095   0.340   0.214   2.494  1.0206  1.1897  1.2928
  366SOL     OW 1096   2.247   1.663   2.838  0.0008  0.0001  0.0170
  366SOL    HW1 1097   2.319   1.592   2.844  0.6469 -1.3118  0.0027
  366SOL    HW2 1098   2.282   1.758   2.813  0.4966  1.7275  2.5520
  367SOL     OW 1099   2.680   2.555   2.852  0.1259  0.2512  0.3476
  367SOL    HW1 1100   2.689   2.621   2.929 -1.6622 -0.4906  0.4847
  367SOL    HW2 1101   2.582   2.549   2.820  0.8416  1.5917 -0.1413
  368SOL     OW 1102   0.341   1.418   0.985 -0.4535  0.3764  0.0392
  368SOL    HW1 1103   0.255   1.364   0.985  2.0501 -1.8418 -0.0511
  368SOL    HW2 1104   0.326   1.516   0.956 -0.8353  0.0212 -0.7354
  369SOL     OW 1105   0.508   2.953   2.347  0.2601  0.6014  0.3522
  369SOL    HW1 1106   0.560   2.953   2.432 -0.7790 -1.2878 -1.1502
  369SOL    HW2 1107   0.529   3.038   2.305 -2.3319 -3.8557 -2.2687
  370SOL     OW 1108   3.031   0.485   0.663  0.5479  0.3575 -0.1951
  370SOL    HW1 1109   3.025   0.515   0.566 -0.4883  0.1038  1.9495
  370SOL    HW2 1110   2.944   0.492   0.713  0.7060  1.3679  2.0417
  371SOL     OW 1111   1.395   2.397   1.644  0.2202  0.3097  0.6924
  371SOL    HW1 1112   1.347   2.483   1.612 -0.2385  0.5442 -3.5076
  371SOL    HW2 1113   1.327   2.319   1.645 -2.8644 -3.2488 -0.7001
  372SOL     OW 1114   2.833   0.206   2.472 -0.0394  0.0028  0.6787
  372SOL    HW1 1115   2.763   0.132   2.454 -1.3606 -1.6973 -1.1425
  372SOL    HW2 1116   2.914   0.175   2.524  0.4055  1.4654 -2.6850
  373SOL     OW 1117   0.033   2.240   0.579  0.3037  0.2421 -0.6014
  373SOL    HW1 1118   0.110   2.283   0.635  0.6878  0.2044  1.7295
  373SOL    HW2 1119   3.058   2.294   0.598 -1.4626  2.4059  1.3434
  374SOL     OW 1120   0.168   2.982   2.642 -0.4391 -0.2346  0.4170
  374SOL    HW1 1121   0.235   3.037   2.692 -0.0450 -1.6731  1.4656
  374SOL    HW2 1122   0.209   2.922   2.573 -1.9460 -2.8067 -0.3651
  375SOL     OW 1123   0.633   0.133   2.667 -0.3672 -0.7118 -0.1931
  375SOL    HW1 1124   0.636   0.159   2.762  1.1174 -1.9929 -3.1417
  375SOL    HW2 1125   0.551   0.170   2.620  2.0310  0.3177  0.1975
  376SOL     OW 1126   2.750   2.077   1.706 -0.1593  0.1224  0.7207
  376SOL    HW1 1127   2.834   2.053   1.759  2.0459  0.5629  1.8084
  376SOL    HW2 1128   2.773   2.113   1.608 -0.4670  1.0633  1.6478
  377SOL     OW 1129   1.266   2.938   2.764 -0.5001 -0.2836 -0.4033
  377SOL    HW1 1130   1.256   2.936   2.863 -0.5232  0.4464 -2.2316
  377SOL    HW2 1131   1.357   2.909   2.734 -2.0425  1.4957  0.4246
  378SOL     OW 1132   3.014   0.476   2.523 -0.0706 -0.5934 -0.5092
  378SOL    HW1 1133   3.106   0.516   2.548  0.8950 -0.9149  1.2749
  378SOL    HW2 1134   3.020   0.374   2.516  1.5490  1.4074  1.7478
  379SOL     OW 1135   0.768   1.058   0.260 -0.3053 -0.5838 -0.2427
  379SOL    HW1 1136   0.722   1.001   0.187  0.4561 -2.3447  0.6024
  379SOL    HW2 1137   0.725   1.043   0.349 -0.5580 -0.8586 -1.8824
  380SOL     OW 1138   0.255   1.542   1.738 -0.0025 -0.5375 -0.1240
  380SOL    HW1 1139   0.297   1.613   1.677  2.5581 -0.2126 -2.3315
  380SOL    HW2 1140   0.274   1.450   1.701 -1.5143 -0.1783  1.5816
  381SOL     OW 1141   0.159   1.154   2.476 -0.3048  0.0725  0.2162
  381SOL    HW1 1142   0.227   1.221   2.437  0.3466 -0.5624 -0.4987
  381SOL    HW2 1143   0.071   1.204   2.481  3.7276 -0.9092  0.4469
  382SOL     OW 1144   2.314   1.754   0.477  0.0064  0.2267  0.1253
  382SOL    HW1 1145   2.402   1.787   0.434 -2.5153  0.9125 -1.4321
  382SOL    HW2 1146   2.291   1.810   0.561 -0.9730 -1.4554  0.0616
  383SOL     OW 1147   0.514   1.971   0.102 -0.0810 -0.0310 -0.5085
  383SOL    HW1 1148   0.548   1.905   0.171 -3.4772  0.1778 -1.5938
  383SOL    HW2 1149   0.508   1.924   0.015 -1.2972  2.2835 -1.0066
  384SOL     OW 1150   0.688   2.283   2.329 -0.7816  0.5515  0.9476
  384SOL    HW1 1151   0.772   2.302   2.383 -2.1596 -1.3048 -2.3081
  384SOL    HW2 1152   0.657   2.366   2.281  0.2773 -0.0181 -2.2303
  385SOL     OW 1153   2.251   1.926   0.684  0.6252  0.2482  0.5524
  385SOL    HW1 1154   2.308   1.922   0.771  1.8944 -0.1695  4.6181
  385SOL    HW2 1155   2.219   2.019   0.662  3.4037  1.4471  1.4101
  386SOL     OW 1156   2.345   1.012   1.265  0.2878 -0.7780 -0.1100
  386SOL    HW1 1157   2.399   0.995   1.184 -1.1188 -0.8609  1.3530
  386SOL    HW2 1158   2.405   1.060   1.338  1.5063  1.6047  2.7119
  387SOL     OW 1159   3.041   1.262   2.151  0.3662  0.5187  0.2169
  387SOL    HW1 1160   2.971   1.239   2.222 -4.1127  1.7901 -0.3629
  387SOL    HW2 1161   3.069   1.355   2.158  0.4623 -3.7834 -0.2534
  388SOL     OW 1162   0.500   1.763   2.248 -0.0087  0.0688 -0.6159
  388SOL    HW1 1163   0.534   1.834   2.184 -0.5797 -1.8045  1.3870
  388SOL    HW2 1164   0.496   1.664   2.211 -3.0680  2.3401 -0.8488
  389SOL     OW 1165   0.829   0.963   1.901  0.0339  0.0059  0.3397
  389SOL    HW1 1166   0.801   1.001   1.805 -0.7478  0.1526 -2.9019
  389SOL    HW2 1167   0.887   0.876   1.893  1.1278 -0.9497 -1.4538
  390SOL     OW 1168   2.465   0.021   0.761 -0.0124 -0.4078 -0.2638
  390SOL    HW1 1169   2.378   0.062   0.739 -1.0584  2.2266  1.6685
  390SOL    HW2 1170   2.492   0.040   0.860 -1.2233  0.3911  2.8100
  391SOL     OW 1171   1.546   1.584   1.392  0.0135  0.0997  0.4310
  391SOL    HW1 1172   1.615   1.538   1.443  1.1167  2.3953 -1.7037
  391SOL    HW2 1173   1.594   1.643   1.324  1.7756 -0.9071  0.1307
  392SOL     OW 1174   2.789   2.655   3.076 -0.2257  0.1306  0.2308
  392SOL    HW1 1175   2.861   2.722   3.100  1.8984  0.0022  1.1014
  392SOL    HW2 1176   2.799   2.575   0.026 -0.2802 -3.2683  1.2708
  393SOL     OW 1177   1.705   2.419   2.862 -0.2511  0.5587 -0.7610
  393SOL    HW1 1178   1.802   2.437   2.871 -1.8642 -0.2006 -0.7039
  393SOL    HW2 1179   1.651   2.501   2.882  2.0851 -1.5853 -1.7831
  394SOL     OW 1180   2.871   2.542   2.440 -0.5234 -0.3832  0.2425
  394SOL    HW1 1181   2.882   2.565   2.540 -3.5704 -2.7630  0.9208
  394SOL    HW2 1182   2.943   2.474   2.411  0.6779 -1.8777 -0.7559
  395SOL     OW 1183   0.121   0.348   0.558 -0.3078  0.0309 -0.4642
  395SOL    HW1 1184   0.037   0.398   0.597 -3.7886  3.1523  2.6214
  395SOL    HW2 1185   0.152   0.272   0.620  2.2551  1.5244  1.0295
  396SOL     OW 1186   1.699   0.663   0.529  0.3919 -0.9223 -0.1857
  396SOL    HW1 1187   1.704   0.686   0.628  1.5518 -3.4305  2.5339
  396SOL    HW2 1188   1.716   0.562   0.521  0.6854  0.7553 -1.4679
  397SOL     OW 1189   0.331   0.589   2.182  0.5480 -0.4003  0.1523
  397SOL    HW1 1190   0.390   0.508   2.184 -1.0072 -0.5825  0.1669
  397SOL    HW2 1191   0.318   0.633   2.090  1.7727 -1.0428 -0.4348
  398SOL     OW 1192   1.037   3.051   0.338  0.1976 -0.0478 -0.2738
  398SOL    HW1 1193   1.128   3.094   0.335 -2.8533  0.9415 -0.7537
  398SOL    HW2 1194   0.974   3.113   0.384 -0.0997 -0.1550  0.0820
  399SOL     OW 1195   2.253   0.287   1.967 -0.6487  0.2017 -0.0246
  399SOL    HW1 1196   2.257   0.268   2.070  1.4718 -3.6437 -0.2183
  399SOL    HW2 1197   2.253   0.388   1.946 -1.8612  0.7255  0.4941
  400SOL     OW 1198   0.872   2.217   2.578  0.2373  0.0176  0.1670
  400SOL    HW1 1199   0.821   2.273   2.635  4.6114 -1.0569 -1.3355
  400SOL    HW2 1200   0.951   2.174   2.626  2.2717 -0.4337 -0.0851
  401SOL     OW 1201   0.519   1.311   2.631 -0.3163  0.0937  0.3025
  401SOL    HW1 1202   0.521   1.362   2.716 -0.7368 -1.4339 -0.4821
  401SOL    HW2 1203   0.461   1.229   2.642  0.8304 -0.0159 -0.2874
  402SOL     OW 1204   0.331   2.570   0.357  0.0612  0.4520 -0.7504
  402SOL    HW1 1205   0.373   2.535   0.271 -2.0303  1.5160  0.1061
  402SOL    HW2 1206   0.369   2.524   0.441 -0.8695 -0.4472  0.6443
  403SOL     OW 1207   0.450   1.175   1.922 -0.5072  0.1693  0.0719
  403SOL    HW1 1208   0.516   1.161   1.999 -1.1478  0.7246 -0.4596
  403SOL    HW2 1209   0.380   1.102   1.912 -1.1454 -2.2838  0.6282
  404SOL     OW 1210   2.634   2.476   2.382  0.0214 -0.1335  0.5076
  404SOL    HW1 1211   2.731   2.496   2.412  3.0300  1.9500 -0.1032
  404SOL    HW2 1212   2.618   2.498   2.281 -1.5564 -2.1993 -0.7937
  405SOL     OW 1213   0.042   0.264   2.090 -0.2646 -0.0219  0.1508
  405SOL    HW1 1214   0.036   0.333   2.164  3.0235  0.0722 -2.9250
  405SOL    HW2 1215   3.102   0.300   2.011 -0.8697 -0.2660 -0.0443
  406SOL     OW 1216   1.203   1.434   2.694 -0.1206 -0.0310  0.3443
  406SOL    HW1 1217   1.253   1.519   2.696 -0.1101  1.7277 -3.1904
  406SOL    HW2 1218   1.104   1.454   2.674  0.3737 -1.4179  0.1493
  407SOL     OW 1219   1.850   1.035   2.892 -0.8889  0.0027  0.1708
  407SOL    HW1 1220   1.751   1.067   2.902 -1.1116  1.5684 -0.5086
  407SOL    HW2 1221   1.869   1.010   2.798 -1.9562 -1.5016  2.6130
  408SOL     OW 1222   0.243   2.879   2.411  0.7324  0.1425 -0.0046
  408SOL    HW1 1223   0.339   2.905   2.383 -0.8322 -1.1647  1.6963
  408SOL    HW2 1224   0.214   2.786   2.375  0.3311 -0.7719 -0.7223
  409SOL     OW 1225   0.052   2.304   1.065  0.0833 -0.3172 -0.7181
  409SOL    HW1 1226   3.111   2.250   1.008  2.5418  0.6798  3.2293
  409SOL    HW2 1227   0.010   2.342   1.148 -1.7714 -0.8125  1.0037
  410SOL     OW 1228   2.751   1.770   0.231  0.1001 -0.2109  0.1481
  410SOL    HW1 1229   2.837   1.724   0.272  1.4847 -1.7165  1.2957
  410SOL    HW2 1230   2.750   1.753   0.130 -0.1999  1.1395  1.3195
  411SOL     OW 1231   2.872   0.141   1.128 -0.3780  0.3384 -0.2471
  411SOL    HW1 1232   2.842   0.182   1.216  2.4701 -1.1362 -1.0163
  411SOL    HW2 1233   2.825   0.176   1.051  0.6855 -1.0159  0.1807
  412SOL     OW 1234   2.134   0.426   1.624  0.2760 -0.7204 -0.3308
  412SOL    HW1 1235   2.155   0.338   1.580 -0.2769  2.4299  0.1133
  412SOL    HW2 1236   2.150   0.501   1.556  0.5635 -0.8471  0.7423
  413SOL     OW 1237   0.508   0.330   1.996 -0.2600  0.0602  0.2041
  413SOL    HW1 1238   0.505   0.345   1.895 -0.5080 -0.5173 -0.4557
  413SOL    HW2 1239   0.590   0.373   2.035  0.5389  2.1431  0.8413
  414SOL     OW 1240   0.007   1.109   2.867 -0.2461  0.0758 -0.1243
  414SOL    HW1 1241   0.025   1.205   2.842  0.3145 -0.2407  0.7647
  414SOL    HW2 1242   3.021   1.095   2.878 -0.0318 -1.4952  2.5381
  415SOL     OW 1243   0.804   2.753   3.035  0.0340 -0.4015 -0.4180
  415SOL    HW1 1244   0.884   2.697   3.057 -2.1631  0.4550  1.7705
  415SOL    HW2 1245   0.775   2.816   3.110  0.4020 -1.6083 -1.2977
  416SOL     OW 1246   1.424   0.118   2.467 -0.0304  0.1440 -0.4045
  416SOL    HW1 1247   1.452   0.077   2.383  0.6487  0.5278  1.0198
  416SOL    HW2 1248   1.419   0.219   2.457  0.9751 -2.1697  2.8176
  417SOL     OW 1249   0.279   0.581   0.722 -0.6626  0.4073  0.4661
  417SOL    HW1 1250   0.328   0.497   0.711  0.0386  3.9276 -0.0131
  417SOL    HW2 1251   0.204   0.562   0.789 -1.9836 -1.0024  0.3413
  418SOL     OW 1252   2.647   0.140   0.603 -0.0411  0.6776  0.6198
  418SOL    HW1 1253   2.604   0.057   0.644 -0.2634  0.8693  2.1227
  418SOL    HW2 1254   2.605   0.226   0.643  0.3899  0.3838 -1.5613
  419SOL     OW 1255   0.310   2.844   0.350 -0.0876  0.3628 -0.4231
  419SOL    HW1 1256   0.312   2.902   0.267  0.3672 -0.1561  1.8523
  419SOL    HW2 1257   0.350   2.753   0.334 -0.1137  1.6434 -0.6186
  420SOL     OW 1258   0.216   1.058   1.808  0.2273  0.3661 -0.7152
  420SOL    HW1 1259   0.131   1.121   1.811 -2.7771  0.8090  1.1759
  420SOL    HW2 1260   0.191   0.970   1.770 -2.0977  1.4451  1.5940
  421SOL     OW 1261   1.935   2.538   0.812  0.3600  0.1926  0.0800
  421SOL    HW1 1262   2.018   2.561   0.759  0.5473  0.2131  1.8420
  421SOL    HW2 1263   1.874   2.475   0.762 -2.3492 -0.2505 -0.0128
  422SOL     OW 1264   0.145   0.669   1.419 -0.3849  0.4113  0.3825
  422SOL    HW1 1265   0.186   0.621   1.336  0.0784 -2.3422 -2.9875
  422SOL    HW2 1266   0.205   0.746   1.452 -0.0424  1.3270 -1.2631
  423SOL     OW 1267   0.825   1.521   1.800  0.2564  0.1285  0.4427
  423SOL    HW1 1268   0.901   1.562   1.747  2.4936  0.0941  0.2980
  423SOL    HW2 1269   0.790   1.576   1.881  0.2375 -1.6722  0.6140
  424SOL     OW 1270   1.974   2.179   0.299 -0.3706 -0.1398  0.6904
  424SOL    HW1 1271   1.944   2.237   0.219  2.7701  0.7894 -0.4315
  424SOL    HW2 1272   1.945   2.083   0.277 -1.3924 -1.3846  0.8867
  425SOL     OW 1273   2.694   2.956   1.981  0.0994 -0.8480 -0.1438
  425SOL    HW1 1274   2.715   3.059   1.991  1.3087 -2.1346 -4.3262
  425SOL    HW2 1275   2.755   2.922   1.905  1.2996 -1.6240 -1.4965
  426SOL     OW 1276   2.903   2.594   2.696  0.0900 -0.3814  0.4784
  426SOL    HW1 1277   2.995   2.558   2.730  0.1745 -1.7523 -1.2073
  426SOL    HW2 1278   2.831   2.589   2.768 -1.4169 -0.7562  1.2031
  427SOL     OW 1279   1.092   0.414   0.325 -0.2458  0.4079 -0.1115
  427SOL    HW1 1280   1.069   0.373   0.234 -0.9326 -0.0054 -0.9128
  427SOL    HW2 1281   1.014   0.469   0.353  2.6146 -2.6312 -3.3025
  428SOL     OW 1282   2.985   0.420   1.156  0.4135 -0.3117 -0.0185
  428SOL    HW1 1283   3.062   0.362   1.194  2.9680 -1.7655  1.1418
  428SOL    HW2 1284   2.904   0.381   1.203 -0.9333 -0.4309  1.2662
  429SOL     OW 1285   2.090   0.008   1.146  0.6501  0.4142  0.5134
  429SOL    HW1 1286   2.018   0.002   1.070  0.5594  2.1458 -3.8832
  429SOL    HW2 1287   2.171   3.064   1.113 -2.6137 -0.6135 -0.1913
  430SOL     OW 1288   0.908   1.703   2.531 -0.3636 -0.3508 -0.0585
  430SOL    HW1 1289   0.923   1.759   2.615 -0.0684 -1.8380 -3.7515
  430SOL    HW2 1290   0.811   1.705   2.500  1.8165  1.8750  2.7851
  431SOL     OW 1291   2.815   1.844   1.209 -0.4498 -0.7162  0.2039
  431SOL    HW1 1292   2.872   1.878   1.290  0.8798  1.3277  0.9672
  431SOL    HW2 1293   2.721   1.881   1.219  0.5968  0.9120 -2.6575
  432SOL     OW 1294   1.327   2.722   2.338 -0.6141 -0.2257  0.4740
  432SOL    HW1 1295   1.367   2.788   2.272 -0.9768 -3.1715 -0.4303
  432SOL    HW2 1296   1.377   2.638   2.326 -3.3409  4.6072 -1.8127
  433SOL     OW 1297   1.649   0.393   2.445 -0.0997  0.0508  0.3120
  433SOL    HW1 1298   1.553   0.365   2.430 -0.3391 -0.6105 -3.1087
  433SOL    HW2 1299   1.662   0.449   2.522 -1.8484 -1.0137 -4.0833
  434SOL     OW 1300   0.384   2.422   2.012 -0.5452  0.4076 -0.5045
  434SOL    HW1 1301   0.412   2.406   1.913 -2.9233 -3.5325 -0.4734
  434SOL    HW2 1302   0.327   2.511   2.030 -1.2140  3.0469  2.4836
  435SOL     OW 1303   0.253   0.113   0.355 -0.6045  0.2689  0.1746
  435SOL    HW1 1304   0.156   0.146   0.334 -1.2210 -1.0969  1.7150
  435SOL    HW2 1305   0.280   0.032   0.301  0.7332  1.1645 -1.5024
  436SOL     OW 1306   0.470   1.026   2.402 -0.0809  0.3892 -0.1004
  436SOL    HW1 1307   0.540   0.953   2.410 -0.0526  4.1944 -1.1407
  436SOL    HW2 1308   0.438   1.057   2.493  0.0004 -0.3841  3.2485
  437SOL     OW 1309   0.687   2.603   2.577 -0.2333  0.2245  0.7360
  437SOL    HW1 1310   0.775   2.596   2.526 -2.1812 -1.7122 -2.3783
  437SOL    HW2 1311   0.627   2.523   2.555 -2.6493 -1.1832  0.6661
  438SOL     OW 1312   0.894   1.054   0.744 -0.1008  0.4258  0.0304
  438SOL    HW1 1313   0.948   1.108   0.812 -0.8172  2.8613  0.7593
  438SOL    HW2 1314   0.947   1.050   0.658  0.4999 -0.9517  1.8671
  439SOL     OW 1315   2.707   1.481   2.287  0.4453 -0.9046  0.0615
  439SOL    HW1 1316   2.804   1.509   2.285  0.4227  0.3931 -0.5304
  439SOL    HW2 1317   2.671   1.439   2.373  0.1738 -1.9328 -0.5741
  440SOL     OW 1318   2.838   0.760   2.876 -0.4637 -0.1102  0.4736
  440SOL    HW1 1319   2.837   0.804   2.784 -1.2522 -1.2066 -1.3487
  440SOL    HW2 1320   2.849   0.659   2.864 -1.6035  1.0325  0.4440
  441SOL     OW 1321   1.219   2.197   1.626  0.0270  0.1165 -0.8548
  441SOL    HW1 1322   1.164   2.145   1.559  0.5820 -0.4513 -0.8123
  441SOL    HW2 1323   1.166   2.240   1.703 -0.5222  0.9406  2.8133
  442SOL     OW 1324   2.053   1.344   1.057 -0.3810 -0.7010 -0.2539
  442SOL    HW1 1325   2.078   1.262   1.110  0.4762  1.6347  1.4010
  442SOL    HW2 1326   1.987   1.321   0.986 -0.4711  1.6534 -0.4775
  443SOL     OW 1327   2.510   2.117   2.906 -0.3988 -0.4073 -0.2209
  443SOL    HW1 1328   2.589   2.077   2.965  3.5576 -0.7376  0.9882
  443SOL    HW2 1329   2.476   2.208   2.943 -3.7611  0.7650  1.2408
  444SOL     OW 1330   1.911   1.521   2.458  0.4976  0.0806  0.1158
  444SOL    HW1 1331   1.826   1.565   2.417 -2.4419 -1.5558 -1.2237
  444SOL    HW2 1332   1.950   1.578   2.534 -3.4853 -1.9587  0.2440
  445SOL     OW 1333   0.098   2.221   2.137 -0.1606 -0.0662 -0.4138
  445SOL    HW1 1334   0.188   2.197   2.094 -0.5726 -0.1748 -2.3950
  445SOL    HW2 1335   0.061   2.296   2.082 -1.5790 -1.0890  0.8220
  446SOL     OW 1336   1.146   0.834   1.586 -0.4168 -0.0518 -0.0432
  446SOL    HW1 1337   1.164   0.808   1.685 -1.2668 -0.0473 -0.5567
  446SOL    HW2 1338   1.055   0.870   1.582  1.9200 -1.4300 -0.2889
  447SOL     OW 1339   1.067   1.089   0.556  0.1750 -0.0521  0.0078
  447SOL    HW1 1340   1.053   1.162   0.487  2.5060  1.9040  4.2850
  447SOL    HW2 1341   1.114   1.011   0.510  0.6460  2.4560 -0.7423
  448SOL     OW 1342   0.777   1.230   2.632 -0.1097 -0.2591 -0.3513
  448SOL    HW1 1343   0.839   1.303   2.662  3.1358 -0.8826  1.1890
  448SOL    HW2 1344   0.681   1.266   2.629  0.2491 -0.3493  0.7095
  449SOL     OW 1345   3.087   1.982   2.564  0.6015 -0.5554 -0.3510
  449SOL    HW1 1346   0.048   2.042   2.528 -0.5009  0.4040  0.9196
  449SOL    HW2 1347   3.094   1.887   2.524  0.0467 -1.4344 -0.9194
  450SOL     OW 1348   2.249   1.553   2.149  0.0707 -0.1524 -0.0557
  450SOL    HW1 1349   2.220   1.501   2.230  2.9897 -1.3619 -4.3320
  450SOL    HW2 1350   2.301   1.639   2.166  1.3656  1.1665 -0.4855
  451SOL     OW 1351   2.680   1.483   1.435 -0.3052  0.2262  0.0605
  451SOL    HW1 1352   2.707   1.578   1.460  2.1165  1.1181 -0.2443
  451SOL    HW2 1353   2.754   1.437   1.385 -5.3197  1.5092 -0.5357
  452SOL     OW 1354   0.944   1.240   1.211 -0.0499  0.0367  0.0043
  452SOL    HW1 1355   0.907   1.144   1.225 -1.2122 -0.0956  2.4907
  452SOL    HW2 1356   0.983   1.272   1.298 -1.0302 -0.3431 -3.4384
  453SOL     OW 1357   0.453   1.649   0.684  0.0409  0.0753 -0.0992
  453SOL    HW1 1358   0.414   1.655   0.777  0.3831 -0.2339 -1.0906
  453SOL    HW2 1359   0.448   1.556   0.651  0.7051  2.5027  0.7414
  454SOL     OW 1360   1.185   1.673   0.156  0.5608  0.2281 -0.4770
  454SOL    HW1 1361   1.264   1.713   0.214  0.3294  1.3500 -0.9043
  454SOL    HW2 1362   1.120   1.610   0.206  2.1725  0.7633 -1.5327
  455SOL     OW 1363   1.807   0.630   1.115  0.7875 -0.1729 -0.4347
  455SOL    HW1 1364   1.840   0.608   1.208  2.0496 -1.4695  1.3519
  455SOL    HW2 1365   1.709   0.663   1.120 -2.2328 -1.2581 -0.3049
  456SOL     OW 1366   1.713   2.872   0.893 -0.0284  0.8031  0.4122
  456SOL    HW1 1367   1.695   2.856   0.793  1.3579  1.5278 -2.3507
  456SOL    HW2 1368   1.740   2.779   0.934  2.1241 -2.1073 -0.8668
  457SOL     OW 1369   2.135   0.613   2.614  0.2552 -0.2969  0.9654
  457SOL    HW1 1370   2.049   0.569   2.646 -0.4679 -1.5000 -2.2171
  457SOL    HW2 1371   2.213   0.611   2.676  1.0685  0.7251  0.6646
  458SOL     OW 1372   2.739   0.468   2.476  0.3446 -0.1712  0.0975
  458SOL    HW1 1373   2.721   0.368   2.466  0.5642 -1.5777  0.8400
  458SOL    HW2 1374   2.836   0.478   2.499  1.7557 -1.1411  2.0050
  459SOL     OW 1375   2.529   1.398   2.067 -0.4323 -0.5310 -0.0350
  459SOL    HW1 1376   2.576   1.401   1.975  2.7412 -0.3916  0.8485
  459SOL    HW2 1377   2.591   1.417   2.147  2.0144  0.3189  1.9537
  460SOL     OW 1378   0.792   0.788   3.048 -0.2853  0.0319  0.0808
  460SOL    HW1 1379   0.745   0.867   3.083  1.7123 -1.7357 -0.7509
  460SOL    HW2 1380   0.871   0.815   2.998 -0.4927  0.2353  1.8685
  461SOL     OW 1381   0.177   2.315   0.041  0.0098 -0.0879 -0.3974
  461SOL    HW1 1382   0.125   2.331   0.126 -0.1814  1.2424 -2.4127
  461SOL    HW2 1383   0.203   2.213   0.045 -0.5571  1.1548  0.5851
  462SOL     OW 1384   0.650   3.055   1.899 -0.2048  0.3840 -0.3309
  462SOL    HW1 1385   0.589   0.018   1.882  0.2226  0.0228 -0.7982
  462SOL    HW2 1386   0.692   3.071   1.990  0.8775  5.3666 -0.0540
  463SOL     OW 1387   1.435   2.342   2.162  0.3626 -0.5854 -0.0161
  463SOL    HW1 1388   1.513   2.279   2.140  0.1585  0.0702  3.2068
  463SOL    HW2 1389   1.429   2.414   2.085  2.0965  0.4521  1.3340
  464SOL     OW 1390   2.481   2.649   1.201 -0.0817  0.0359  0.2770
  464SOL    HW1 1391   2.550   2.724   1.195  0.9988 -0.1372 -0.1379
  464SOL    HW2 1392   2.472   2.593   1.115  0.1040 -1.3705 -0.9303
  465SOL     OW 1393   0.058   3.107   1.412  0.0576 -0.1594  0.4938
  465SOL    HW1 1394   0.043   0.038   1.505 -0.8212  1.0599 -0.6084
  465SOL    HW2 1395   0.159   3.096   1.387 -0.7987  1.0032  0.9348
  466SOL     OW 1396   1.178   2.421   2.484  0.1028  0.3187  0.5172
  466SOL    HW1 1397   1.249   2.474   2.434  1.6437  3.8053 -0.2176
  466SOL    HW2 1398   1.222   2.346   2.540 -0.0575 -0.9999  1.4438
  467SOL     OW 1399   0.034   2.266   0.266 -0.0540  0.0813  0.2575
  467SOL    HW1 1400   3.048   2.275   0.232  0.0094 -0.2817  0.5306
  467SOL    HW2 1401   0.027   2.211   0.351 -0.2094  1.2367  1.6092
  468SOL     OW 1402   1.981   1.881   3.057  0.4657  0.6681 -0.4018
  468SOL    HW1 1403   1.942   1.810   2.994 -0.2045  0.5936 -1.1456
  468SOL    HW2 1404   2.082   1.887   3.051 -0.3180 -2.0068  1.9238
  469SOL     OW 1405   1.141   2.122   0.800 -0.2359 -0.1142  0.3062
  469SOL    HW1 1406   1.192   2.113   0.891  3.8857 -0.0874 -0.4449
  469SOL    HW2 1407   1.203   2.158   0.731 -1.6497 -3.0640 -0.7080
  470SOL     OW 1408   2.045   0.638   0.972  0.1240 -0.4393 -0.0821
  470SOL    HW1 1409   1.949   0.667   0.998  0.1164 -1.4105 -1.4544
  470SOL    HW2 1410   2.074   0.688   0.886 -0.0929  1.2468 -1.9072
  471SOL     OW 1411   0.550   2.251   0.153 -0.2265  0.8753  0.2174
  471SOL    HW1 1412   0.527   2.161   0.113  1.0552  0.7505  0.6491
  471SOL    HW2 1413   0.463   2.304   0.156 -0.7999 -0.4708  0.3909
  472SOL     OW 1414   2.558   1.562   2.671 -0.0581 -0.7485  0.3174
  472SOL    HW1 1415   2.566   1.662   2.649  2.4972 -2.8956  2.2780
  472SOL    HW2 1416   2.483   1.521   2.622  2.2179  3.2031 -0.8677
  473SOL     OW 1417   1.473   2.033   0.799  0.3970  0.1905  0.0380
  473SOL    HW1 1418   1.423   2.103   0.740 -1.1055 -0.5576 -1.6999
  473SOL    HW2 1419   1.483   2.066   0.896  0.2795 -0.9277  1.5112
  474SOL     OW 1420   2.806   0.234   0.875  0.1551 -0.3188  0.1469
  474SOL    HW1 1421   2.892   0.185   0.846  0.8913 -3.6144 -1.9910
  474SOL    HW2 1422   2.799   0.321   0.822  3.2381  2.0340 -1.2199
  475SOL     OW 1423   2.282   2.861   1.455  0.5413  0.3039 -0.2371
  475SOL    HW1 1424   2.222   2.798   1.513  0.5575 -2.3607  0.4941
  475SOL    HW2 1425   2.248   2.849   1.362 -1.2131  0.6174  2.2576
  476SOL     OW 1426   0.472   0.374   0.682 -0.4776 -0.2333 -0.3774
  476SOL    HW1 1427   0.466   0.313   0.602 -0.3269  2.7819 -0.4052
  476SOL    HW2 1428   0.572   0.393   0.710 -0.0261 -1.4206  1.1694
  477SOL     OW 1429   1.236   2.276   1.278 -0.2734 -0.1263 -0.5107
  477SOL    HW1 1430   1.190   2.360   1.310  3.2552  1.7730  1.9002
  477SOL    HW2 1431   1.223   2.203   1.352  1.3929  0.0912 -2.1565
  478SOL     OW 1432   1.299   2.499   2.825  0.2995 -0.1369 -0.3396
  478SOL    HW1 1433   1.203   2.527   2.822  1.5644  1.4006  3.3194
  478SOL    HW2 1434   1.323   2.397   2.826  2.9400  2.8653  2.5819
  479SOL     OW 1435   2.746   0.927   1.917  0.4813 -0.5355  0.0248
  479SOL    HW1 1436   2.769   1.028   1.926 -1.2997  1.5380 -1.1693
  479SOL    HW2 1437   2.836   0.883   1.901 -0.0972 -2.6276 -1.8934
  480SOL     OW 1438   2.860   2.355   2.898 -0.2768 -0.4784 -0.2489
  480SOL    HW1 1439   2.926   2.360   2.825 -2.2647 -0.3970 -1.6525
  480SOL    HW2 1440   2.780   2.412   2.865 -4.3012 -0.2215 -2.1259
  481SOL     OW 1441   1.700   0.102   2.082 -0.4249  0.0029 -0.3268
  481SOL    HW1 1442   1.788   0.087   2.127 -1.8624  1.3632 -1.2251
  481SOL    HW2 1443   1.698   0.180   2.022  1.4570  0.5161  1.3856
  482SOL     OW 1444   1.610   2.167   2.930 -0.1289  0.4339  0.3016
  482SOL    HW1 1445   1.637   2.265   2.905  1.6707  2.3259  0.2742
  482SOL    HW2 1446   1.679   2.092   2.903  2.5377 -1.6538 -3.1132
  483SOL     OW 1447   1.063   2.575   2.762  0.0917  0.3269 -0.1306
  483SOL    HW1 1448   1.084   2.514   2.679 -0.0962 -0.9778 -3.0476
  483SOL    HW2 1449   1.064   2.676   2.733 -1.5975 -0.3768 -2.0887
  484SOL     OW 1450   2.884   2.748   1.462 -0.1881 -0.1217  0.6898
  484SOL    HW1 1451   2.870   2.697   1.546 -2.0396 -1.5702  1.2368
  484SOL    HW2 1452   2.984   2.778   1.440 -0.6562 -0.0964  1.5326
  485SOL     OW 1453   2.296   0.696   0.400  0.0997  0.0780 -0.3330
  485SOL    HW1 1454   2.215   0.679   0.460 -2.7594  0.0814  0.7231
  485SOL    HW2 1455   2.293   0.798   0.371 -0.5970  1.6637 -2.3528
  486SOL     OW 1456   2.294   2.718   2.264  0.1531  0.9348 -0.1240
  486SOL    HW1 1457   2.312   2.817   2.253  0.6447 -0.7299  0.2822
  486SOL    HW2 1458   2.255   2.674   2.179 -3.2853 -1.1775 -0.2459
  487SOL     OW 1459   1.415   0.587   0.562 -0.2182 -0.0037  0.6491
  487SOL    HW1 1460   1.345   0.584   0.487 -1.9438 -0.1281  2.1443
  487SOL    HW2 1461   1.480   0.505   0.567  3.2420 -0.3395  3.7940
  488SOL     OW 1462   2.596   2.890   2.567  0.0088  0.3508  0.4326
  488SOL    HW1 1463   2.551   2.809   2.521 -0.0213  1.0811 -0.3624
  488SOL    HW2 1464   2.529   2.937   2.630 -1.1855 -0.7412  1.9737
  489SOL     OW 1465   1.593   0.033   0.371  0.0960  0.4324  0.1387
  489SOL    HW1 1466   1.503   0.022   0.413 -0.4116 -0.8421  0.0421
  489SOL    HW2 1467   1.632   3.054   0.360 -0.9225  2.1641 -0.7729
  490SOL     OW 1468   1.813   0.350   3.096  0.1032  0.6185  0.7829
  490SOL    HW1 1469   1.808   0.409   0.063 -0.8479 -3.6493 -2.2494
  490SOL    HW2 1470   1.865   0.396   3.021  1.7625  1.5316 -1.8326
  491SOL     OW 1471   0.552   2.859   0.999  0.4538  0.0403  0.3863
  491SOL    HW1 1472   0.514   2.817   1.083  0.7960  0.9481 -3.1839
  491SOL    HW2 1473   0.477   2.902   0.944  0.9644  2.8913 -1.1248
  492SOL     OW 1474   1.669   2.775   0.625  0.0177  0.1363  0.0922
  492SOL    HW1 1475   1.653   2.673   0.624  0.1787 -0.0881  0.2251
  492SOL    HW2 1476   1.586   2.823   0.593  0.2140  1.1888 -1.1828
  493SOL     OW 1477   1.103   2.183   2.965 -0.1420 -0.2876 -0.0378
  493SOL    HW1 1478   1.197   2.207   2.933 -0.8763  0.8908  1.2319
  493SOL    HW2 1479   1.088   2.199   3.064 -1.2888  1.9375 -3.1384
  494SOL     OW 1480   0.646   1.162   0.762 -0.2327  0.0615 -0.0483
  494SOL    HW1 1481   0.643   1.257   0.797 -0.8179 -3.6059  1.2444
  494SOL    HW2 1482   0.740   1.119   0.759 -1.2552  0.5554  0.4316
  495SOL     OW 1483   2.748   0.474   1.626 -0.2976  0.3374  0.0059
  495SOL    HW1 1484   2.799   0.388   1.601  2.7380  0.9988  3.0962
  495SOL    HW2 1485   2.801   0.537   1.690 -1.3572  0.6195  0.0437
  496SOL     OW 1486   2.156   2.503   2.454 -0.6593 -0.2348  0.4073
  496SOL    HW1 1487   2.216   2.570   2.400  0.1103  0.4459  0.1752
  496SOL    HW2 1488   2.059   2.525   2.433  1.1928 -1.0506  0.0718
  497SOL     OW 1489   1.656   1.361   2.785  0.6948  0.3101  0.0644
  497SOL    HW1 1490   1.735   1.344   2.721  0.9106  0.1765 -2.7580
  497SOL    HW2 1491   1.693   1.401   2.870  1.1321 -0.9803  1.1348
  498SOL     OW 1492   0.947   2.244   0.946  0.2971 -0.2686 -0.4852
  498SOL    HW1 1493   1.011   2.195   0.882  0.3519 -0.9674 -1.0207
  498SOL    HW2 1494   0.935   2.185   1.031 -1.9150 -1.5976 -0.4916
  499SOL     OW 1495   0.395   1.976   0.953  0.8728 -0.5514  0.6826
  499SOL    HW1 1496   0.377   2.018   0.863 -0.2769  3.5700  0.1001
  499SOL    HW2 1497   0.346   2.038   1.021 -1.2730  0.7262  0.8317
  500SOL     OW 1498   1.189   2.604   0.175  0.2785 -0.2359  0.1046
  500SOL    HW1 1499   1.104   2.663   0.181  0.2273  0.1901  0.6439
  500SOL    HW2 1500   1.261   2.629   0.246  2.7532  1.9256  1.1265
  501SOL     OW 1501   1.940   2.827   0.556 -0.1264  0.0035  0.1790
  501SOL    HW1 1502   1.843   2.835   0.591  0.3459 -1.3609  0.0516
  501SOL    HW2 1503   1.943   2.765   0.475 -3.7951 -0.7964 -1.8169
  502SOL     OW 1504   0.235   0.323   1.139 -0.6449  0.1346  0.2421
  502SOL    HW1 1505   0.153   0.275   1.176 -0.0063  1.3227  0.5223
  502SOL    HW2 1506   0.294   0.261   1.079  3.0354 -4.1092 -4.1621
  503SOL     OW 1507   2.040   3.015   1.717 -0.2667 -0.2204 -0.1244
  503SOL    HW1 1508   2.056   3.078   1.794 -1.1883  0.6379  0.4667
  503SOL    HW2 1509   2.112   3.013   1.647 -0.3332 -0.9915  0.1586
  504SOL     OW 1510   1.885   0.997   1.989 -0.1060 -0.0957 -0.1008
  504SOL    HW1 1511   1.926   0.929   1.922  0.2369  0.5237  0.0416
  504SOL    HW2 1512   1.786   1.023   1.971 -1.7313  0.1656  0.7722
  505SOL     OW 1513   1.615   2.938   2.416  1.1022 -0.5399  0.7366
  505SOL    HW1 1514   1.704   2.980   2.440 -4.1256 -1.1361 -1.4266
  505SOL    HW2 1515   1.560   2.999   2.357  0.5274  0.9141  0.5091
  506SOL     OW 1516   0.429   0.662   1.647  0.2394  0.0750  0.4057
  506SOL    HW1 1517   0.506   0.704   1.703 -0.6285  0.7507 -0.9713
  506SOL    HW2 1518   0.443   0.674   1.545 -0.9540 -2.1473 -0.9394
  507SOL     OW 1519   1.737   0.507   0.193 -0.6003 -0.2746  0.3858
  507SOL    HW1 1520   1.694   0.424   0.236 -1.5198  1.2152  0.8444
  507SOL    HW2 1521   1.811   0.544   0.254 -2.1834 -2.3550  0.6283
  508SOL     OW 1522   2.194   0.639   2.041  0.4452  0.0671 -0.1202
  508SOL    HW1 1523   2.110   0.615   2.095 -0.6221 -0.8641  3.0557
  508SOL    HW2 1524   2.197   0.741   2.016 -0.4782  0.4808 -2.6097
  509SOL     OW 1525   0.589   1.955   2.731 -0.1265  0.5830 -0.3081
  509SOL    HW1 1526   0.501   1.963   2.682 -0.1748 -0.4332  0.3739
  509SOL    HW2 1527   0.657   1.998   2.667 -0.2156 -0.0834  2.4453
  510SOL     OW 1528   2.949   0.823   0.757 -0.3312 -0.3267  0.1500
  510SOL    HW1 1529   2.969   0.772   0.671  1.0732 -1.3513  0.2500
  510SOL    HW2 1530   3.002   0.792   0.834 -4.7582  1.8568 -1.8505
  511SOL     OW 1531   1.739   1.287   1.245  0.5254  0.6947 -0.3654
  511SOL    HW1 1532   1.749   1.312   1.340 -0.6336  0.2227 -1.7274
  511SOL    HW2 1533   1.762   1.359   1.180  1.5227  0.1680  0.9195
  512SOL     OW 1534   0.382   2.029   0.599  1.1951  0.1272  0.1493
  512SOL    HW1 1535   0.484   2.033   0.602  0.6034 -0.2762 -0.1875
  512SOL    HW2 1536   0.351   2.099   0.529  2.1722 -0.5926 -2.0861
  513SOL     OW 1537   0.426   2.457   0.846  0.1512 -1.2386  0.0631
  513SOL    HW1 1538   0.363   2.517   0.898  3.3922  0.2936  0.2122
  513SOL    HW2 1539   0.520   2.480   0.870 -1.6316 -0.3945  1.0214
  514SOL     OW 1540   0.679   2.059   0.672  0.3669  0.0530 -0.6898
  514SOL    HW1 1541   0.687   1.976   0.727  0.3238 -0.3542  0.3068
  514SOL    HW2 1542   0.743   2.058   0.592 -0.3904  1.1538 -3.0789
  515SOL     OW 1543   0.133   0.038   0.062  0.3657  0.9633 -0.0279
  515SOL    HW1 1544   0.218   3.099   0.084 -1.2121  1.6024 -2.8781
  515SOL    HW2 1545   0.060   3.110   0.119 -1.1649 -0.3992 -0.2551
  516SOL     OW 1546   1.926   0.107   1.358 -0.0164  0.0085  0.1433
  516SOL    HW1 1547   1.868   0.183   1.327  0.8512  0.5993 -0.2832
  516SOL    HW2 1548   1.988   0.068   1.286  3.0654 -2.4054 -1.1522
  517SOL     OW 1549   1.669   1.795   0.835 -0.3499  0.3613  0.4589
  517SOL    HW1 1550   1.587   1.856   0.844 -3.6018 -0.1528  2.7495
  517SOL    HW2 1551   1.745   1.854   0.800 -0.1187  0.5512  1.3164
  518SOL     OW 1552   1.453   2.844   1.090  0.1302 -0.1463 -0.0996
  518SOL    HW1 1553   1.446   2.750   1.044 -0.8152 -0.7072 -2.6366
  518SOL    HW2 1554   1.537   2.898   1.056  2.3279  2.3251 -1.5125
  519SOL     OW 1555   2.971   2.334   0.020 -0.5897  0.7029 -0.3484
  519SOL    HW1 1556   3.019   2.422   0.045  0.4744  2.2253  0.8864
  519SOL    HW2 1557   2.932   2.342   3.042 -0.6025 -0.7647  1.5699
  520SOL     OW 1558   1.949   2.030   2.459 -0.1330  0.0031 -0.2689
  520SOL    HW1 1559   2.043   2.059   2.486  0.9107  1.2463 -1.4971
  520SOL    HW2 1560   1.958   1.945   2.410  2.6230  4.6018  0.0555
  521SOL     OW 1561   0.997   2.965   2.180  0.2612 -0.0023  0.0741
  521SOL    HW1 1562   0.910   3.008   2.154  2.0597 -0.6166 -1.7055
  521SOL    HW2 1563   0.994   2.947   2.283 -1.3462 -2.5318 -0.2271
  522SOL     OW 1564   0.321   2.695   2.047 -0.3173 -0.5133  0.2651
  522SOL    HW1 1565   0.270   2.697   1.961  3.5832  0.2190  1.3451
  522SOL    HW2 1566   0.267   2.733   2.121  0.4532 -3.8132 -2.9346
  523SOL     OW 1567   1.117   2.324   1.853 -0.6643 -0.7320  0.1718
  523SOL    HW1 1568   1.022   2.334   1.893 -1.1371 -0.6104 -1.9173
  523SOL    HW2 1569   1.159   2.243   1.903  1.8717 -1.6827  0.2386
  524SOL     OW 1570   2.380   2.211   0.166  0.0292 -0.0622  0.1127
  524SOL    HW1 1571   2.407   2.123   0.127 -1.2720 -1.7880 -1.4027
  524SOL    HW2 1572   2.458   2.268   0.186 -0.9752 -0.3767  1.0539
  525SOL     OW 1573   2.871   1.012   2.924  0.1216  0.2678 -0.3643
  525SOL    HW1 1574   2.774   1.044   2.913  0.2916  0.6184  0.8913
  525SOL    HW2 1575   2.880   0.912   2.903  1.6464 -0.1597 -0.1163
  526SOL     OW 1576   0.227   2.847   0.831  0.2643  0.5725 -0.3138
  526SOL    HW1 1577   0.174   2.836   0.743  0.3857 -3.8885 -0.1858
  526SOL    HW2 1578   0.288   2.929   0.835 -1.3116 -1.9394  1.0721
  527SOL     OW 1579   3.094   1.323   0.715 -0.2084  0.4578 -0.2368
  527SOL    HW1 1580   0.004   1.248   0.651 -1.6393  0.3178  3.2041
  527SOL    HW2 1581   3.006   1.362   0.685 -1.5254  1.0028 -2.4752
  528SOL     OW 1582   0.683   0.842   2.409  0.1216  0.2691 -0.1187
  528SOL    HW1 1583   0.672   0.783   2.490 -0.6326  0.9139 -1.3681
  528SOL    HW2 1584   0.749   0.914   2.425 -1.5651 -0.1127 -0.4020
  529SOL     OW 1585   1.045   1.461   0.271 -0.0479 -0.3696  0.2550
  529SOL    HW1 1586   1.087   1.373   0.279 -2.6444  2.1220 -0.3638
  529SOL    HW2 1587   0.954   1.465   0.225 -0.0403  1.3371 -0.8648
  530SOL     OW 1588   1.135   1.017   2.055  0.0181 -0.2663  0.6529
  530SOL    HW1 1589   1.180   0.937   2.006  0.8863  0.0497 -1.7205
  530SOL    HW2 1590   1.111   0.989   2.148  2.8987  0.7627 -0.0197
  531SOL     OW 1591   0.983   2.195   0.119 -0.5025 -0.1052  0.4709
  531SOL    HW1 1592   0.960   2.110   0.160 -1.5531  1.8101 -1.2098
  531SOL    HW2 1593   1.033   2.264   0.182 -1.9583  0.2862 -1.5247
  532SOL     OW 1594   2.498   0.889   2.455  0.3727 -0.2932 -0.5705
  532SOL    HW1 1595   2.517   0.956   2.378  0.5548 -1.1011 -0.7742
  532SOL    HW2 1596   2.586   0.837   2.476  2.2069 -0.6081  1.3665
  533SOL     OW 1597   3.031   0.061   1.828 -0.0511 -0.0022 -0.1260
  533SOL    HW1 1598   2.978   0.027   1.908  1.1478  1.1115  1.1656
  533SOL    HW2 1599   3.027   0.161   1.839 -1.1865  2.2592 -2.5680
  534SOL     OW 1600   2.442   0.069   0.274 -0.0118 -0.3505  0.2182
  534SOL    HW1 1601   2.515   0.140   0.299  0.2437 -0.0710 -3.4440
  534SOL    HW2 1602   2.397   0.099   0.189  1.6257  0.2241  0.4110
  535SOL     OW 1603   0.422   0.271   3.100 -0.3582 -0.0518  0.2737
  535SOL    HW1 1604   0.414   0.362   0.033  0.0590  0.7143 -1.9849
  535SOL    HW2 1605   0.346   0.259   3.037  2.8911  3.2178  3.8601
  536SOL     OW 1606   0.839   1.922   1.676  0.2423 -0.7208  0.1209
  536SOL    HW1 1607   0.880   1.926   1.771  0.6034  1.6359 -1.0116
  536SOL    HW2 1608   0.788   2.006   1.652  0.1812 -0.9491 -1.8146
  537SOL     OW 1609   3.057   2.578   1.703 -0.2664 -0.5889 -0.1499
  537SOL    HW1 1610   2.963   2.606   1.733 -0.0263  2.7949  0.2980
  537SOL    HW2 1611   3.057   2.508   1.631 -0.9281  2.5988  0.9419
  538SOL     OW 1612   0.681   2.279   0.407  0.0059 -0.5135 -0.2998
  538SOL    HW1 1613   0.752   2.209   0.428 -1.6220  1.1805  0.3852
  538SOL    HW2 1614   0.618   2.252   0.331 -2.6869 -0.2936  1.2322
  539SOL     OW 1615   2.158   1.142   2.377  0.5278 -0.1930  0.0265
  539SOL    HW1 1616   2.167   1.044   2.396  1.1136  1.1130 -0.0268
  539SOL    HW2 1617   2.196   1.160   2.284  0.4278 -2.8424  2.6198
  540SOL     OW 1618   1.924   0.767   2.908  0.1544 -0.0017  0.0152
  540SOL    HW1 1619   1.971   0.731   2.995  0.5136 -2.2544  4.8968
  540SOL    HW2 1620   1.893   0.867   2.918  0.6724 -0.0009  0.0606
  541SOL     OW 1621   0.569   0.684   2.600 -0.4365  0.0603 -0.3466
  541SOL    HW1 1622   0.489   0.711   2.540  0.4406  0.5091 -2.1452
  541SOL    HW2 1623   0.547   0.715   2.697 -1.2279  2.5408 -2.5228
  542SOL     OW 1624   1.461   2.491   1.949  0.1226 -0.7376  0.0705
  542SOL    HW1 1625   1.373   2.539   1.941 -0.6200 -4.5676  0.0689
  542SOL    HW2 1626   1.466   2.402   1.898  1.9792 -1.8519  2.1204
  543SOL     OW 1627   0.730   2.770   0.276  0.1448 -0.9334 -0.2102
  543SOL    HW1 1628   0.712   2.670   0.269  0.0260  2.4108 -0.5119
  543SOL    HW2 1629   0.677   2.814   0.349  1.3115 -1.6317  0.4520
  544SOL     OW 1630   2.758   1.920   2.348  0.2633  0.2692  0.2676
  544SOL    HW1 1631   2.712   2.008   2.331 -2.3770  2.6525 -3.3127
  544SOL    HW2 1632   2.848   1.921   2.295  3.1248 -1.9893 -1.9802
  545SOL     OW 1633   1.337   1.646   1.928  0.4943 -0.0853 -0.5083
  545SOL    HW1 1634   1.303   1.654   2.022 -0.9579 -0.4896  0.1049
  545SOL    HW2 1635   1.296   1.716   1.864  3.0635  2.9313 -1.5531
  546SOL     OW 1636   3.104   0.230   2.559  0.7943 -0.0250 -0.1656
  546SOL    HW1 1637   3.080   0.151   2.617  2.3040 -0.0475 -1.3471
  546SOL    HW2 1638   0.057   0.208   2.487  2.2954 -0.4663 -0.7574
  547SOL     OW 1639   1.323   0.270   0.878  0.4381 -0.0741 -0.4460
  547SOL    HW1 1640   1.370   0.357   0.857 -2.2099 -1.4997  1.3314
  547SOL    HW2 1641   1.357   0.224   0.959 -0.0870 -0.6010 -1.8167
  548SOL     OW 1642   1.447   2.037   3.110  0.4508 -0.6568  0.3426
  548SOL    HW1 1643   1.446   2.101   0.078 -0.8489  0.8353 -2.0805
  548SOL    HW2 1644   1.513   2.060   3.035  0.4579 -1.2880 -0.6814
  549SOL     OW 1645   2.219   0.904   0.096 -0.3754 -0.5907 -0.5358
  549SOL    HW1 1646   2.200   0.979   0.032  0.3785 -0.6730  1.8044
  549SOL    HW2 1647   2.225   0.935   0.196  0.1256  1.0864  0.7259
  550SOL     OW 1648   2.716   2.041   0.934 -0.0681  0.0633 -0.3903
  550SOL    HW1 1649   2.701   2.144   0.923  2.0751 -1.0659  0.0996
  550SOL    HW2 1650   2.644   2.003   0.997  1.9560  0.0001  0.0423
  551SOL     OW 1651   1.001   0.344   1.183  0.0579 -0.1560 -0.7868
  551SOL    HW1 1652   0.939   0.263   1.204 -0.9974 -2.3626  1.7515
  551SOL    HW2 1653   0.978   0.418   1.251  1.9014 -1.1555 -1.4843
  552SOL     OW 1654   0.074   1.358   2.799 -0.1100 -0.3559  0.6020
  552SOL    HW1 1655   0.141   1.428   2.762  1.4586  3.6770 -0.4588
  552SOL    HW2 1656   0.025   1.380   2.887 -1.5025  0.1372 -0.5487
  553SOL     OW 1657   2.484   2.582   0.461  0.2830  0.4123  0.2267
  553SOL    HW1 1658   2.575   2.609   0.489 -2.9924  0.2336 -0.1022
  553SOL    HW2 1659   2.438   2.651   0.401 -0.4406 -1.0399 -1.7608
  554SOL     OW 1660   2.317   1.110   1.818 -0.0290 -0.3343  1.0776
  554SOL    HW1 1661   2.234   1.096   1.760  1.6036  1.4870 -2.3185
  554SOL    HW2 1662   2.400   1.058   1.786 -1.3829 -0.9197 -0.8432
  555SOL     OW 1663   1.099   2.334   2.192  0.0523  0.2166  0.4293
  555SOL    HW1 1664   1.160   2.248   2.192  0.3210 -1.4632  1.2587
  555SOL    HW2 1665   1.099   2.373   2.282 -0.5166  1.0046 -2.0535
  556SOL     OW 1666   1.095   1.224   1.857  0.0012 -0.3233 -0.0686
  556SOL    HW1 1667   1.179   1.269   1.834 -1.3297 -1.6466  1.9669
  556SOL    HW2 1668   1.114   1.131   1.897  1.4455 -0.1503 -1.1366
  557SOL     OW 1669   1.245   0.185   1.271 -0.0655 -0.2881  0.2491
  557SOL    HW1 1670   1.278   0.272   1.230 -1.9288 -3.3169 -0.9899
  557SOL    HW2 1671   1.148   0.209   1.302 -0.0913  1.6824  3.8647
  558SOL     OW 1672   0.700   0.379   2.187 -0.0748 -0.5298  0.3926
  558SOL    HW1 1673   0.738   0.345   2.266  0.4944  0.2355 -6.2490
  558SOL    HW2 1674   0.766   0.366   2.110 -0.2796  1.8428  0.4175
  559SOL     OW 1675   1.400   2.655   0.326  0.0753 -0.1011  0.2632
  559SOL    HW1 1676   1.396   2.696   0.415  1.4936  1.0644 -0.3376
  559SOL    HW2 1677   1.483   2.597   0.312 -2.2126 -3.0871  2.5529
  560SOL     OW 1678   1.530   2.154   0.233  0.6796 -0.0959  0.5043
  560SOL    HW1 1679   1.598   2.081   0.266 -1.8183  3.0195 -0.5387
  560SOL    HW2 1680   1.575   2.243   0.212  0.3086  0.7119  1.3192
  561SOL     OW 1681   1.559   0.055   0.781  0.2870 -0.3057 -0.3313
  561SOL    HW1 1682   1.604   0.071   0.875  1.9753 -0.0186 -0.5551
  561SOL    HW2 1683   1.459   0.036   0.798  0.4114 -0.5607  1.7454
  562SOL     OW 1684   0.618   0.783   1.810  0.4614 -0.2886 -0.0072
  562SOL    HW1 1685   0.698   0.727   1.828 -4.3700  0.7763  0.2388
  562SOL    HW2 1686   0.634   0.870   1.757 -1.0865 -2.6594 -0.4805
  563SOL     OW 1687   1.340   2.221   2.825 -0.2413 -0.3475 -0.3638
  563SOL    HW1 1688   1.319   2.223   2.727  3.6316 -2.6682  2.1355
  563SOL    HW2 1689   1.432   2.185   2.844  2.6727  2.2943 -0.1459
  564SOL     OW 1690   2.794   0.710   1.034 -0.2046 -0.5739 -0.3276
  564SOL    HW1 1691   2.889   0.698   1.062 -1.5311  0.9448 -2.1388
  564SOL    HW2 1692   2.784   0.789   0.970 -0.9942  0.9214 -1.9961
  565SOL     OW 1693   1.192   1.174   0.052 -0.1823  0.4212  0.4672
  565SOL    HW1 1694   1.207   1.271   0.027  0.6194  2.1214 -2.1128
  565SOL    HW2 1695   1.281   1.128   0.068 -0.5762  1.1632  1.7276
  566SOL     OW 1696   2.256   2.587   0.007 -0.3870 -0.5342  0.2033
  566SOL    HW1 1697   2.358   2.585   3.114  2.5495  0.5959 -2.0262
  566SOL    HW2 1698   2.228   2.680   0.042  1.2579 -0.0679  0.4182
  567SOL     OW 1699   1.806   1.031   1.317 -0.5520 -0.1198  0.5881
  567SOL    HW1 1700   1.766   1.124   1.294 -4.2089  1.8695 -0.4451
  567SOL    HW2 1701   1.841   1.028   1.413 -0.9000 -0.8317 -3.4816
  568SOL     OW 1702   1.456   1.371   2.608 -0.3897  0.3939 -0.2513
  568SOL    HW1 1703   1.358   1.388   2.645 -3.1974  1.6286  0.6976
  568SOL    HW2 1704   1.529   1.379   2.681 -1.4819 -1.9165 -0.1381
  569SOL     OW 1705   2.017   1.800   0.694  0.2693 -0.0563  0.2140
  569SOL    HW1 1706   2.113   1.836   0.700  3.9284  0.2308 -1.2885
  569SOL    HW2 1707   1.953   1.881   0.692  0.4280 -0.0090  1.1801
  570SOL     OW 1708   2.698   2.184   2.236 -0.3791 -0.3336 -0.0282
  570SOL    HW1 1709   2.761   2.227   2.164  1.1608  2.4219  1.1420
  570SOL    HW2 1710   2.636   2.251   2.282  0.8556 -0.8818 -3.5877
  571SOL     OW 1711   2.595   1.854   1.698  0.2822  0.3138 -0.2209
  571SOL    HW1 1712   2.643   1.941   1.726 -1.9793 -1.0976  1.7470
  571SOL    HW2 1713   2.495   1.853   1.710 -0.7310 -1.5072 -1.9186
  572SOL     OW 1714   1.551   2.589   0.036 -0.3672  0.5855  0.3790
  572SOL    HW1 1715   1.459   2.591   0.079  0.5878 -0.0790 -0.3976
  572SOL    HW2 1716   1.545   2.617   3.053 -0.8945 -0.2047 -0.1690
  573SOL     OW 1717   1.849   1.965   1.239 -0.2070 -0.1106 -0.1908
  573SOL    HW1 1718   1.919   2.040   1.238 -0.2419 -0.2406 -3.0048
  573SOL    HW2 1719   1.788   1.974   1.322 -1.5099  1.7951  1.8909
  574SOL     OW 1720   1.120   2.901   1.334  0.0749  0.5475 -0.1119
  574SOL    HW1 1721   1.053   2.918   1.408  1.1733 -0.2251 -0.1912
  574SOL    HW2 1722   1.206   2.951   1.359 -0.2555  0.8706  0.0635
  575SOL     OW 1723   0.768   0.635   0.962  0.7108  0.2109  0.2628
  575SOL    HW1 1724   0.869   0.652   0.948 -0.0172  1.9040  0.9602
  575SOL    HW2 1725   0.719   0.705   0.907 -0.4952 -0.4262  2.6211
  576SOL     OW 1726   2.561   0.495   1.411 -0.0627  0.1137 -0.7082
  576SOL    HW1 1727   2.583   0.584   1.356  1.3374  2.2607 -1.5713
  576SOL    HW2 1728   2.619   0.495   1.495  0.6013 -2.4461 -1.3478
  577SOL     OW 1729   2.431   0.383   2.701  0.3591  0.0719  0.0929
  577SOL    HW1 1730   2.498   0.407   2.771  0.9185 -0.7418 -1.7458
  577SOL    HW2 1731   2.413   0.454   2.633  1.4118 -0.6335  0.8136
  578SOL     OW 1732   1.917   1.831   2.151  0.5371  0.0975 -0.0182
  578SOL    HW1 1733   1.919   1.739   2.109  1.7924  1.4816  3.2753
  578SOL    HW2 1734   1.916   1.903   2.079 -0.9334  0.8563  2.4535
  579SOL     OW 1735   0.728   1.704   1.183 -0.1152 -0.0351 -0.3676
  579SOL    HW1 1736   0.795   1.781   1.165 -0.8733  1.0330 -1.9197
  579SOL    HW2 1737   0.765   1.616   1.143  1.6862 -0.1128 -0.2640
  580SOL     OW 1738   1.536   2.651   2.882 -0.4926 -0.2808 -0.6520
  580SOL    HW1 1739   1.450   2.603   2.853 -0.5051 -0.7972 -2.5266
  580SOL    HW2 1740   1.546   2.730   2.824 -1.9498  0.4812  3.3740
  581SOL     OW 1741   0.748   0.658   2.209  0.2649  0.6420  0.0037
  581SOL    HW1 1742   0.713   0.734   2.260  0.6344 -0.2550 -1.3388
  581SOL    HW2 1743   0.682   0.574   2.210  0.4128 -0.8847 -0.2926
  582SOL     OW 1744   0.411   0.810   0.794 -0.2926  0.2366 -0.0924
  582SOL    HW1 1745   0.374   0.723   0.752  0.4059 -1.7211 -0.8163
  582SOL    HW2 1746   0.353   0.891   0.774 -0.6973  2.5167 -1.0226
  583SOL     OW 1747   0.689   1.661   2.016  0.7025  0.0303 -0.1690
  583SOL    HW1 1748   0.734   1.727   2.076 -0.4533 -1.3000 -0.1221
  583SOL    HW2 1749   0.624   1.602   2.065 -0.2003 -0.1268  0.5629
  584SOL     OW 1750   2.357   2.765   0.315 -0.2621  0.2882  0.2622
  584SOL    HW1 1751   2.274   2.774   0.256 -3.9395 -0.5846 -1.5800
  584SOL    HW2 1752   2.350   2.824   0.404  0.1198 -0.0771 -0.0361
  585SOL     OW 1753   2.201   0.541   2.992  0.0606  0.0663  0.3824
  585SOL    HW1 1754   2.244   0.630   2.979  0.9495 -1.0217  0.3760
  585SOL    HW2 1755   2.174   0.520   3.089 -0.6084 -3.6681 -0.0601
  586SOL     OW 1756   0.569   1.768   0.296 -0.0412 -0.0887 -0.3899
  586SOL    HW1 1757   0.484   1.771   0.355 -4.3480  1.2663  0.1382
  586SOL    HW2 1758   0.651   1.755   0.359 -1.7021  1.1054 -0.8821
  587SOL     OW 1759   1.528   2.096   1.067  0.3511 -0.1765 -0.1490
  587SOL    HW1 1760   1.628   2.088   1.078  0.3214  1.3178  0.8212
  587SOL    HW2 1761   1.493   2.189   1.093 -0.3121  0.6934 -1.1153
  588SOL     OW 1762   0.419   0.263   0.934  0.1903 -0.2484  0.1479
  588SOL    HW1 1763   0.476   0.331   0.986  0.1331 -2.2202 -2.3178
  588SOL    HW2 1764   0.428   0.288   0.836 -0.7707  1.0866 -0.0426
  589SOL     OW 1765   1.387   0.045   1.092  0.2897 -0.5516 -0.9459
  589SOL    HW1 1766   1.343   3.071   1.065  2.0702  0.9272 -2.0782
  589SOL    HW2 1767   1.319   0.094   1.149 -0.5065 -2.0966 -1.9164
  590SOL     OW 1768   1.444   1.009   0.305 -0.3481 -0.2498 -0.2140
  590SOL    HW1 1769   1.503   0.924   0.316 -1.3300 -1.0508  2.5974
  590SOL    HW2 1770   1.402   1.010   0.212 -2.1704  0.0156  0.9162
  591SOL     OW 1771   2.170   2.174   2.052 -0.1850  0.3184  0.0832
  591SOL    HW1 1772   2.211   2.226   2.129  0.4568  0.8319 -0.3348
  591SOL    HW2 1773   2.233   2.092   2.023  4.0941 -3.6821  0.9202
  592SOL     OW 1774   1.438   1.781   1.560 -0.0640 -0.4234 -0.2372
  592SOL    HW1 1775   1.534   1.809   1.579  1.8952 -0.0564  0.3419
  592SOL    HW2 1776   1.439   1.693   1.512 -1.1722 -0.5795 -2.4556
  593SOL     OW 1777   0.861   0.116   0.514  0.2557 -0.0692 -0.2453
  593SOL    HW1 1778   0.807   0.073   0.587 -1.4709  0.2865 -0.8270
  593SOL    HW2 1779   0.919   0.185   0.557 -0.1612 -2.3896  1.0584
  594SOL     OW 1780   0.337   0.751   1.955 -0.2416 -0.3062  0.5382
  594SOL    HW1 1781   0.274   0.737   1.875 -0.6172  0.1861 -1.0734
  594SOL    HW2 1782   0.426   0.764   1.912 -3.0065 -2.7799 -0.7113
  595SOL     OW 1783   2.734   2.905   0.752  0.2543  0.4914 -0.3677
  595SOL    HW1 1784   2.805   2.970   0.718  0.0391  1.5086  3.2469
  595SOL    HW2 1785   2.751   2.878   0.847  0.9606  1.1985 -0.1472
  596SOL     OW 1786   0.009   0.357   1.560  0.0014  0.7367 -0.2382
  596SOL    HW1 1787   0.056   0.417   1.494  2.3354 -2.2488 -1.6327
  596SOL    HW2 1788   0.065   0.279   1.597  1.3819  0.1123  0.3464
  597SOL     OW 1789   2.206   1.136   0.824  0.1900 -0.5225 -0.2570
  597SOL    HW1 1790   2.242   1.227   0.788  1.4571  0.0168  0.3395
  597SOL    HW2 1791   2.106   1.145   0.830  0.4045  2.1306 -0.9096
  598SOL     OW 1792   0.501   0.118   1.673  0.2832  0.2109 -0.0999
  598SOL    HW1 1793   0.411   0.066   1.691 -3.6828 -1.8918 -3.0572
  598SOL    HW2 1794   0.486   0.215   1.693 -0.6536  1.8281  0.6471
  599SOL     OW 1795   2.826   1.419   3.043 -0.2415  0.4510 -0.1630
  599SOL    HW1 1796   2.927   1.414   3.059  0.1831  0.0997  0.6717
  599SOL    HW2 1797   2.777   1.346   3.092  1.3854  0.4373 -0.3027
  600SOL     OW 1798   0.983   1.011   3.025 -0.1500 -0.3599  0.0235
  600SOL    HW1 1799   0.956   1.111   3.012 -0.6769  5.3340  0.5574
  600SOL    HW2 1800   1.079   1.002   3.058  0.8544  0.0969  0.4125
  601SOL     OW 1801   1.181   1.172   2.789  0.0511 -0.0022  0.2367
  601SOL    HW1 1802   1.205   1.265   2.757 -1.6880  1.0935 -1.2640
  601SOL    HW2 1803   1.108   1.187   2.860  3.4876  0.6192  0.5295
  602SOL     OW 1804   1.333   3.061   1.413  0.4434 -0.2604 -0.0884
  602SOL    HW1 1805   1.423   3.061   1.457 -1.5932  1.9273 -3.0745
  602SOL    HW2 1806   1.310   0.033   1.360  1.3824  0.2048  1.8047
  603SOL     OW 1807   0.890   2.945   2.440 -0.7713 -0.5291 -0.1960
  603SOL    HW1 1808   0.811   2.976   2.499 -0.2933 -0.5359 -0.4215
  603SOL    HW2 1809   0.959   2.897   2.496 -0.8531 -0.1788 -2.7564
  604SOL     OW 1810   2.871   0.055   2.059  0.4515 -0.1394  0.1897
  604SOL    HW1 1811   2.854   0.144   2.102  2.0348  0.3368 -1.9559
  604SOL    HW2 1812   2.891   3.091   2.126 -1.1024 -1.4277  1.6001
  605SOL     OW 1813   2.341   2.198   1.365 -0.9441  0.7363 -0.3516
  605SOL    HW1 1814   2.395   2.123   1.410 -1.5899  1.6301  1.8180
  605SOL    HW2 1815   2.279   2.242   1.430  1.5869 -0.5478 -1.8192
  606SOL     OW 1816   3.021   1.765   2.887  0.3282  0.3244 -0.0649
  606SOL    HW1 1817   3.070   1.858   2.888  3.2192  2.4166  0.8025
  606SOL    HW2 1818   2.998   1.731   2.793  1.2100 -2.1056 -0.8557
  607SOL     OW 1819   1.030   0.312   0.636  0.7489 -0.0865  0.4156
  607SOL    HW1 1820   1.114   0.291   0.582  0.0376 -0.1337 -0.3300
  607SOL    HW2 1821   1.045   0.375   0.715 -3.6657  2.2105  1.1505
  608SOL     OW 1822   1.579   1.462   2.341 -0.5317 -0.0161  0.1052
  608SOL    HW1 1823   1.550   1.425   2.430 -0.5487 -0.7192 -3.6156
  608SOL    HW2 1824   1.606   1.560   2.348 -0.5151  0.0809  0.6430
  609SOL     OW 1825   2.772   0.505   0.767 -0.2121  0.0676 -0.2472
  609SOL    HW1 1826   2.753   0.543   0.860  0.6516 -0.0762  1.1068
  609SOL    HW2 1827   2.704   0.534   0.699  1.9442 -0.2807 -2.1086
  610SOL     OW 1828   0.617   2.537   3.070 -0.4746  0.2861 -0.2676
  610SOL    HW1 1829   0.669   2.616   3.030  1.8284 -0.4239  1.8347
  610SOL    HW2 1830   0.667   2.449   3.057  0.6414  0.3783  2.9626
  611SOL     OW 1831   1.818   1.398   0.682 -0.6260 -0.6587  0.4099
  611SOL    HW1 1832   1.871   1.450   0.612 -0.4293 -1.6509  0.0266
  611SOL    HW2 1833   1.765   1.455   0.741 -0.0231 -3.1735  1.1365
  612SOL     OW 1834   0.912   2.529   2.435  0.1543  0.2509  0.1043
  612SOL    HW1 1835   0.996   2.481   2.481  2.7784 -0.3209  0.6159
  612SOL    HW2 1836   0.945   2.602   2.370 -2.2437 -0.1481 -0.2718
  613SOL     OW 1837   1.458   1.725   0.224  0.1022  0.4064 -0.3540
  613SOL    HW1 1838   1.471   1.676   0.308  0.0009  1.1984 -1.1737
  613SOL    HW2 1839   1.516   1.810   0.220 -0.6381 -0.0569  3.7343
  614SOL     OW 1840   2.599   2.331   1.716 -0.0633  0.0920  0.1491
  614SOL    HW1 1841   2.659   2.369   1.789  0.4459  0.4467  0.7971
  614SOL    HW2 1842   2.644   2.263   1.654  1.9195 -1.7582 -0.4582
  615SOL     OW 1843   2.305   1.413   2.983  0.0496  0.1655 -0.4736
  615SOL    HW1 1844   2.287   1.499   3.037 -0.3387  0.9166  1.5456
  615SOL    HW2 1845   2.378   1.354   3.031  3.4119 -0.2953 -1.4947
  616SOL     OW 1846   1.648   0.157   1.061 -0.1864 -0.2191  0.3684
  616SOL    HW1 1847   1.680   0.205   1.147  1.0245 -2.9940  2.1962
  616SOL    HW2 1848   1.567   0.102   1.083  1.0673 -0.0938  0.1426
  617SOL     OW 1849   0.917   1.258   2.952  0.2557  0.5574 -0.9989
  617SOL    HW1 1850   0.840   1.237   2.893  0.6895  0.1053  3.3921
  617SOL    HW2 1851   0.965   1.348   2.930 -0.5773  2.0269  0.9386
  618SOL     OW 1852   0.490   0.691   1.388 -0.0382  0.7736 -0.0205
  618SOL    HW1 1853   0.421   0.639   1.343  1.3283  2.0830  0.2981
  618SOL    HW2 1854   0.561   0.714   1.322 -3.2303  1.1964 -0.3159
  619SOL     OW 1855   0.003   0.939   1.588  0.3173 -0.3459 -0.0143
  619SOL    HW1 1856   0.088   0.898   1.565  1.6656  0.0899 -1.4852
  619SOL    HW2 1857   3.048   0.917   1.519  2.3161  2.3151  2.6640
  620SOL     OW 1858   1.958   1.270   2.997  0.1797  0.2655 -0.0658
  620SOL    HW1 1859   1.903   1.196   2.953 -1.3803  0.3860 -3.2806
  620SOL    HW2 1860   1.902   1.347   3.031  2.0642 -0.9393  1.3251
  621SOL     OW 1861   2.487   0.040   1.219  0.6633  0.4815 -0.2049
  621SOL    HW1 1862   2.532   0.072   1.132  1.9359  3.0071 -1.6002
  621SOL    HW2 1863   2.471   0.124   1.272  1.3850 -0.9390 -2.2679
  622SOL     OW 1864   1.468   0.623   2.175 -0.1764  0.3277 -0.3632
  622SOL    HW1 1865   1.557   0.651   2.132 -0.2712  1.3384  1.2951
  622SOL    HW2 1866   1.471   0.622   2.275 -3.3291 -0.8904 -2.5876
  623SOL     OW 1867   0.946   0.588   2.785  0.5250 -0.2069 -0.2613
  623SOL    HW1 1868   0.890   0.566   2.702 -0.4803 -1.5938  1.6457
  623SOL    HW2 1869   0.952   0.691   2.804 -0.3312 -1.8286 -0.0848
  624SOL     OW 1870   1.693   0.386   0.554  0.0185  0.6265 -0.7927
  624SOL    HW1 1871   1.623   0.324   0.592 -0.2949 -1.5667  0.2940
  624SOL    HW2 1872   1.779   0.368   0.597 -0.7895 -0.3754 -0.0006
  625SOL     OW 1873   0.878   1.436   0.722  0.0293 -0.0500 -0.8964
  625SOL    HW1 1874   0.897   1.462   0.817 -0.4853 -3.2011 -4.3251
  625SOL    HW2 1875   0.947   1.474   0.655  2.4594  0.4483 -1.5718
  626SOL     OW 1876   1.584   1.115   2.873  0.0018  0.0201 -0.1786
  626SOL    HW1 1877   1.484   1.092   2.866 -2.3456 -0.8571 -0.6887
  626SOL    HW2 1878   1.607   1.209   2.836 -1.1242  3.7187 -2.4962
  627SOL     OW 1879   0.762   0.146   1.727 -0.6388  0.0041  0.6780
  627SOL    HW1 1880   0.806   0.053   1.734 -0.5859  0.1461  2.1096
  627SOL    HW2 1881   0.665   0.124   1.732  2.7795  0.1971  1.3378
  628SOL     OW 1882   2.538   0.365   2.281 -0.2070  0.1415 -0.4095
  628SOL    HW1 1883   2.508   0.453   2.240 -2.3467  1.3093 -0.6085
  628SOL    HW2 1884   2.592   0.385   2.364  3.1099  1.0214  0.9740
  629SOL     OW 1885   1.021   1.526   2.957  0.2310  0.0922  0.3530
  629SOL    HW1 1886   1.108   1.500   3.005  0.2525 -0.5127 -0.0478
  629SOL    HW2 1887   0.967   1.597   3.010  0.1954 -0.3390 -2.2406
  630SOL     OW 1888   1.070   0.309   2.251  0.1164  0.0971 -0.0885
  630SOL    HW1 1889   1.047   0.405   2.279  0.8827 -0.0951  3.0273
  630SOL    HW2 1890   1.102   0.248   2.322 -0.5357 -1.3162 -1.0202
  631SOL     OW 1891   2.669   1.427   0.957  0.3773 -0.0243  0.2054
  631SOL    HW1 1892   2.745   1.492   0.980 -3.5013 -0.7470  2.2175
  631SOL    HW2 1893   2.659   1.363   1.035  0.4050  1.3179 -0.1101
  632SOL     OW 1894   2.480   1.585   0.864  0.6973  0.3105  0.0282
  632SOL    HW1 1895   2.553   1.516   0.908  1.5220 -2.4337  1.2410
  632SOL    HW2 1896   2.526   1.670   0.837 -2.8335 -1.8867 -1.6426
  633SOL     OW 1897   1.082   1.201   0.914  0.3474 -0.2163  0.5748
  633SOL    HW1 1898   1.178   1.234   0.939 -2.2164 -0.8723  0.4696
  633SOL    HW2 1899   1.017   1.209   0.991  0.7217 -2.4573  0.7759
  634SOL     OW 1900   1.875   3.069   0.966  0.4663  0.2342 -0.4696
  634SOL    HW1 1901   1.813   0.022   1.006  0.3774 -1.4739  1.6278
  634SOL    HW2 1902   1.830   2.988   0.936  1.2623  0.2230  3.3757
  635SOL     OW 1903   1.884   0.504   1.354  0.4407 -0.0417 -1.0144
  635SOL    HW1 1904   1.980   0.493   1.385  0.2300  0.1050 -1.0827
  635SOL    HW2 1905   1.816   0.520   1.429 -0.5378 -0.4556  1.4486
  636SOL     OW 1906   1.335   0.820   0.695  0.2176 -0.6079 -0.5263
  636SOL    HW1 1907   1.277   0.857   0.619 -0.1278 -2.0239 -0.8426
  636SOL    HW2 1908   1.382   0.738   0.653  3.0314 -1.1956  0.6137
  637SOL     OW 1909   1.671   2.362   0.154 -0.1044 -0.0751  0.0183
  637SOL    HW1 1910   1.622   2.388   0.070  0.7481 -0.0359  0.0742
  637SOL    HW2 1911   1.771   2.344   0.141 -0.6892  2.8134  0.6774
  638SOL     OW 1912   1.136   2.928   3.024  0.2405 -0.4988 -0.5348
  638SOL    HW1 1913   1.088   2.882   3.100  0.5729  1.2277 -0.2265
  638SOL    HW2 1914   1.071   2.971   2.956  1.0755  2.1761 -1.2053
  639SOL     OW 1915   1.153   2.035   1.416  0.3776  0.3435 -0.5873
  639SOL    HW1 1916   1.157   1.940   1.378 -1.5380 -1.4782  0.8697
  639SOL    HW2 1917   1.060   2.051   1.452 -1.1257  1.5731  2.0909
  640SOL     OW 1918   0.345   3.014   0.139 -0.3689 -0.7291 -0.3519
  640SOL    HW1 1919   0.357   2.939   0.074  0.4351 -2.4816 -0.1834
  640SOL    HW2 1920   0.417   3.086   0.142 -0.8587  1.3314  1.3287
  641SOL     OW 1921   3.108   0.400   0.175  0.1786  0.0408  0.1118
  641SOL    HW1 1922   3.102   0.321   0.241  2.5604 -4.1864 -0.2236
  641SOL    HW2 1923   0.061   0.469   0.209  0.5675 -1.3685  0.8214
  642SOL     OW 1924   0.373   1.441   1.291  0.0509 -0.1358 -0.0630
  642SOL    HW1 1925   0.374   1.542   1.288 -3.3127  0.4711 -1.8544
  642SOL    HW2 1926   0.368   1.411   1.191 -0.7617  0.3694 -0.2211
  643SOL     OW 1927   0.711   2.007   2.480 -0.4795  0.1120  0.2245
  643SOL    HW1 1928   0.763   2.094   2.497  0.3531  0.7835 -1.0373
  643SOL    HW2 1929   0.658   2.023   2.392 -1.9396  0.4509  1.4470
  644SOL     OW 1930   1.689   2.557   0.359 -0.0900 -0.2481 -0.6663
  644SOL    HW1 1931   1.687   2.477   0.289  0.9698 -3.8097 -1.1464
  644SOL    HW2 1932   1.655   2.520   0.448 -2.0293  0.1449 -0.0544
  645SOL     OW 1933   1.827   2.222   1.843  0.0316 -1.1745 -0.0446
  645SOL    HW1 1934   1.727   2.219   1.815 -1.3351 -0.5253  2.6897
  645SOL    HW2 1935   1.877   2.295   1.793  0.1029  0.7264 -0.1513
  646SOL     OW 1936   0.982   2.817   0.214 -0.1134 -0.4891  0.1118
  646SOL    HW1 1937   1.018   2.903   0.256 -0.1964  0.0354  0.0906
  646SOL    HW2 1938   0.892   2.791   0.256 -2.8401 -2.6602  3.4725
  647SOL     OW 1939   0.149   0.023   2.034 -0.4955  0.2215  0.0526
  647SOL    HW1 1940   0.109   0.113   2.025  0.0143  0.2545  0.5329
  647SOL    HW2 1941   0.123   3.102   2.126  1.5304  1.1180 -2.5115
  648SOL     OW 1942   2.718   1.212   0.797 -0.0608 -0.6068  0.2204
  648SOL    HW1 1943   2.713   1.123   0.845  0.6113  3.0048  1.3061
  648SOL    HW2 1944   2.684   1.288   0.851  4.1857 -0.6341 -2.3491
  649SOL     OW 1945   1.948   2.745   2.688 -0.1090 -0.2390  0.2825
  649SOL    HW1 1946   1.906   2.722   2.599  2.1241 -1.0433 -3.3589
  649SOL    HW2 1947   1.886   2.801   2.748 -0.5389 -1.2525  1.8150
  650SOL     OW 1948   2.441   1.347   1.774  0.3646 -0.6320  0.4188
  650SOL    HW1 1949   2.396   1.257   1.795  1.3482  2.2594 -0.4786
  650SOL    HW2 1950   2.539   1.339   1.807 -2.2903 -0.1432  2.6843
  651SOL     OW 1951   1.355   1.661   2.748  0.7217  0.3380  0.1872
  651SOL    HW1 1952   1.294   1.736   2.787  1.5775 -1.3713  1.3454
  651SOL    HW2 1953   1.443   1.655   2.797 -2.2282  2.4948  0.8632
  652SOL     OW 1954   0.669   2.981   2.586  0.0125  0.4065  0.1591
  652SOL    HW1 1955   0.691   2.908   2.649 -1.7794 -0.5709 -0.1153
  652SOL    HW2 1956   0.672   3.070   2.637 -0.6776 -0.2771  0.4345
  653SOL     OW 1957   2.154   2.151   0.980  0.1778 -0.3944 -0.2653
  653SOL    HW1 1958   2.239   2.153   1.036 -1.1803  1.3068  1.1663
  653SOL    HW2 1959   2.079   2.196   1.034 -0.2374 -0.8058  2.6184
  654SOL     OW 1960   2.571   2.789   2.165  0.1924  0.0269  0.0549
  654SOL    HW1 1961   2.507   2.834   2.230 -0.8013  0.6210 -1.0519
  654SOL    HW2 1962   2.597   2.843   2.086 -0.5832 -2.7497  1.4336
  655SOL     OW 1963   2.727   2.183   1.464 -0.0325  0.4874 -0.0917
  655SOL    HW1 1964   2.757   2.157   1.368  2.0310 -2.4035  0.0744
  655SOL    HW2 1965   2.709   2.283   1.469 -0.7356 -1.8001 -1.2332
  656SOL     OW 1966   2.806   1.688   3.051  0.5082  0.0417 -0.4591
  656SOL    HW1 1967   2.866   1.721   2.978  0.3362  0.0467 -1.4550
  656SOL    HW2 1968   2.812   1.585   3.063 -1.7895  1.6375 -0.5855
  657SOL     OW 1969   0.330   1.015   0.422 -0.0866 -0.1550  0.0353
  657SOL    HW1 1970   0.242   1.061   0.388 -1.2327 -0.7739  1.9234
  657SOL    HW2 1971   0.380   0.978   0.341  3.1189 -0.7304 -1.1042
  658SOL     OW 1972   1.326   1.491   1.263  0.0114  0.6077  0.2267
  658SOL    HW1 1973   1.408   1.534   1.309  1.2394  0.4024 -0.1256
  658SOL    HW2 1974   1.237   1.503   1.316  2.0529 -2.0176 -1.3356
  659SOL     OW 1975   0.777   0.047   1.094  0.0094 -0.7144  0.0374
  659SOL    HW1 1976   0.767   0.125   1.024 -0.0887  1.6487 -2.2849
  659SOL    HW2 1977   0.839   0.082   1.169  0.2197 -0.2344 -0.8211
  660SOL     OW 1978   2.421   0.938   1.011 -0.4989  0.6254 -0.0755
  660SOL    HW1 1979   2.407   0.951   0.911  3.8337 -0.7010  1.0612
  660SOL    HW2 1980   2.429   0.839   1.026  0.4654 -2.4734  2.6589
  661SOL     OW 1981   0.343   1.728   3.083  0.1000 -0.4576 -0.2078
  661SOL    HW1 1982   0.434   1.758   3.062  0.0827  1.2481 -1.0104
  661SOL    HW2 1983   0.321   1.748   0.067 -2.1910  1.8965  2.6094
  662SOL     OW 1984   2.594   0.764   2.090  0.7217 -0.3426  0.2248
  662SOL    HW1 1985   2.684   0.772   2.135  2.3333 -1.1905 -3.8663
  662SOL    HW2 1986   2.612   0.769   1.992 -2.3715 -0.8309  3.2264
  663SOL     OW 1987   2.220   1.361   1.362  0.2318  0.1233 -0.3804
  663SOL    HW1 1988   2.257   1.339   1.272 -3.0208  2.9849 -1.4155
  663SOL    HW2 1989   2.298   1.379   1.431  1.6829 -0.2773  1.4416
  664SOL     OW 1990   0.305   3.065   1.257  0.1585  0.5696  0.6267
  664SOL    HW1 1991   0.376   3.105   1.196  1.7140  3.0965  2.1844
  664SOL    HW2 1992   0.240   3.002   1.205 -1.3115 -1.2569 -2.6208
  665SOL     OW 1993   1.579   0.235   3.023 -0.4965 -0.4740  0.3362
  665SOL    HW1 1994   1.670   0.276   3.044  2.9486  0.2286 -0.1020
  665SOL    HW2 1995   1.577   0.132   3.043 -0.4127 -1.2832 -1.2562
  666SOL     OW 1996   0.363   0.161   2.157  0.7025 -0.7054  0.1418
  666SOL    HW1 1997   0.423   0.225   2.101  1.8973  5.1281  0.1885
  666SOL    HW2 1998   0.291   0.122   2.098  1.8245  0.6392  0.9482
  667SOL     OW 1999   1.746   1.410   1.911 -0.3235 -0.1612  0.5071
  667SOL    HW1 2000   1.840   1.424   1.876  1.9651  2.7648 -0.6629
  667SOL    HW2 2001   1.749   1.422   2.013 -1.1315  4.1940 -2.4659
  668SOL     OW 2002   0.194   1.564   2.366 -0.5649 -0.3962  0.0305
  668SOL    HW1 2003   0.261   1.487   2.370  0.0882  0.8140  0.0456
  668SOL    HW2 2004   0.177   1.578   2.266  0.3253  0.4277 -3.0258
  669SOL     OW 2005   2.558   2.828   3.041  0.2832  0.4677  0.0659
  669SOL    HW1 2006   2.654   2.801   3.032  1.1566 -1.7613  1.1574
  669SOL    HW2 2007   2.548   2.869   0.019 -0.4486 -2.8165  0.8665
  670SOL     OW 2008   2.613   1.083   2.306 -0.4692  0.0234 -0.7793
  670SOL    HW1 2009   2.705   1.101   2.263  0.1293  1.2648 -1.9036
  670SOL    HW2 2010   2.580   1.161   2.368  1.4833 -2.5964  1.2138
  671SOL     OW 2011   2.514   1.858   0.336 -0.0292 -0.1259  0.1043
  671SOL    HW1 2012   2.604   1.823   0.304 -1.4149  1.4020 -1.0926
  671SOL    HW2 2013   2.524   1.954   0.375 -0.5599 -2.2453 -0.9118
  672SOL     OW 2014   1.301   1.254   2.156  0.8046 -0.2159 -0.4669
  672SOL    HW1 2015   1.380   1.268   2.094  2.0214  0.3531  2.6168
  672SOL    HW2 2016   1.233   1.194   2.116 -0.2606  1.2638 -0.6761
  673SOL     OW 2017   2.955   1.910   1.424  0.5377  0.2168  0.1694
  673SOL    HW1 2018   3.035   1.931   1.364  1.2406 -0.1178  0.5996
  673SOL    HW2 2019   2.979   1.915   1.524 -0.9258  2.1497  2.2343
  674SOL     OW 2020   1.226   1.783   1.710  0.0370 -0.1327 -0.2353
  674SOL    HW1 2021   1.313   1.784   1.651 -2.1010 -1.8097 -1.1930
  674SOL    HW2 2022   1.142   1.788   1.651  2.8535  0.7658 -0.3265
  675SOL     OW 2023   3.092   0.778   0.986 -0.1872 -0.1573  0.1037
  675SOL    HW1 2024   3.082   0.762   1.084 -0.3800 -1.3502 -0.4736
  675SOL    HW2 2025   0.050   0.713   0.949 -0.5713 -1.6906  1.3797
  676SOL     OW 2026   0.105   1.282   0.961  0.0894 -0.3469 -0.3573
  676SOL    HW1 2027   0.087   1.284   0.861 -0.9627  2.6572  1.5186
  676SOL    HW2 2028   0.070   1.195   1.001  1.5502  0.1158 -0.8635
  677SOL     OW 2029   1.715   1.702   2.351 -0.0823  0.5140 -0.8712
  677SOL    HW1 2030   1.801   1.741   2.317 -1.7462 -1.5716  1.0181
  677SOL    HW2 2031   1.654   1.773   2.391  1.6859 -1.0860  0.5747
  678SOL     OW 2032   2.869   1.639   1.026 -0.1780 -0.1566 -0.1650
  678SOL    HW1 2033   2.870   1.690   0.937  0.7624 -0.2503  1.1513
  678SOL    HW2 2034   2.836   1.697   1.103 -1.3299  2.5970 -0.9689
  679SOL     OW 2035   0.649   2.648   0.570 -0.0427 -0.0063  0.1535
  679SOL    HW1 2036   0.587   2.564   0.559 -2.5568 -0.2990  0.0348
  679SOL    HW2 2037   0.667   2.681   0.663  2.6995 -0.1737  0.1634
  680SOL     OW 2038   0.094   1.887   0.971  0.1665  0.4989 -0.0412
  680SOL    HW1 2039   0.077   1.920   0.874  1.1319 -1.3973  0.0971
  680SOL    HW2 2040   0.080   1.785   0.963  2.3607 -1.5569  1.6974
  681SOL     OW 2041   0.801   0.262   0.911 -0.1896 -0.3650  0.0566
  681SOL    HW1 2042   0.888   0.312   0.907 -1.3071  2.2268 -0.7878
  681SOL    HW2 2043   0.723   0.319   0.875  3.9425 -1.7106 -0.2184
  682SOL     OW 2044   1.555   3.013   1.527  0.3397  0.2621  0.2279
  682SOL    HW1 2045   1.497   3.010   1.609 -1.0433  0.4377 -0.2084
  682SOL    HW2 2046   1.650   3.046   1.542 -2.0212  0.4212 -0.5401
  683SOL     OW 2047   2.472   1.344   1.512 -0.5606 -0.2009  0.2924
  683SOL    HW1 2048   2.467   1.358   1.614 -0.0968 -2.9649 -1.1427
  683SOL    HW2 2049   2.537   1.415   1.474 -0.0654 -1.7694  1.3963
  684SOL     OW 2050   3.098   1.582   1.777 -0.0105 -0.0358 -0.0543
  684SOL    HW1 2051   3.047   1.521   1.712 -0.1422  0.9793  0.4304
  684SOL    HW2 2052   0.082   1.569   1.759 -0.2035  0.2182  0.0327
  685SOL     OW 2053   2.113   1.711   0.315  0.1566 -0.5726 -0.6142
  685SOL    HW1 2054   2.185   1.739   0.386 -0.0502 -2.4981  3.9321
  685SOL    HW2 2055   2.160   1.675   0.233 -0.1182  1.2319 -1.0988
  686SOL     OW 2056   3.016   0.683   1.248  0.0117 -0.3907 -0.6296
  686SOL    HW1 2057   3.090   0.679   1.317  0.2661 -0.1701 -4.2209
  686SOL    HW2 2058   2.968   0.592   1.236 -1.0328  0.4730 -2.2730
  687SOL     OW 2059   1.841   0.041   2.720  0.7425  0.1245 -0.1100
  687SOL    HW1 2060   1.894   0.129   2.729 -3.0133 -3.6798 -3.4474
  687SOL    HW2 2061   1.744   0.057   2.699  0.7328 -3.0029  0.9761
  688SOL     OW 2062   1.321   2.179   2.563  0.2363 -0.9955 -0.4040
  688SOL    HW1 2063   1.413   2.186   2.531 -1.4106 -0.8507  0.7573
  688SOL    HW2 2064   1.290   2.084   2.563 -0.7849  0.6619  1.7236
  689SOL     OW 2065   2.045   1.207   1.974 -0.2546  0.2355  0.2994
  689SOL    HW1 2066   2.137   1.209   2.020 -1.4734  5.1104 -2.3293
  689SOL    HW2 2067   1.989   1.128   1.999  1.0188 -0.0716 -0.2840
  690SOL     OW 2068   1.954   2.003   1.527  0.1315  0.2719 -0.1538
  690SOL    HW1 2069   1.856   1.987   1.501 -3.0883 -3.6595  1.1191
  690SOL    HW2 2070   1.992   1.926   1.584  1.4444 -1.2197  2.5217
  691SOL     OW 2071   0.345   1.773   0.469 -0.2113 -0.0718  0.2422
  691SOL    HW1 2072   0.346   1.867   0.508 -0.0138  0.7420  0.7258
  691SOL    HW2 2073   0.396   1.710   0.530  1.8139 -1.4088 -1.3369
  692SOL     OW 2074   2.826   2.858   2.713 -0.1694  0.0208 -0.1172
  692SOL    HW1 2075   2.737   2.876   2.664  1.5004 -1.1104 -0.9731
  692SOL    HW2 2076   2.869   2.773   2.681 -0.8306 -1.1020 -2.3659
  693SOL     OW 2077   0.034   1.538   2.138 -0.1538 -0.5689  0.6260
  693SOL    HW1 2078   0.006   1.626   2.092 -0.9532 -0.8083 -0.5357
  693SOL    HW2 2079   0.117   1.501   2.097  0.8030  1.1081 -0.2154
  694SOL     OW 2080   2.509   0.190   1.915 -0.4499  0.0369  0.3907
  694SOL    HW1 2081   2.553   0.284   1.901  0.1587  0.6988  0.1741
  694SOL    HW2 2082   2.408   0.206   1.935  0.7637 -1.8493 -0.0889
  695SOL     OW 2083   1.014   0.721   2.169 -0.2714  0.1534 -0.2740
  695SOL    HW1 2084   0.909   0.712   2.158 -1.5183  1.4852 -2.7873
  695SOL    HW2 2085   1.034   0.805   2.222  2.0610 -0.8223  0.7378
  696SOL     OW 2086   1.937   2.749   1.591  0.1681 -0.7946 -0.2209
  696SOL    HW1 2087   1.980   2.814   1.653  1.7570  1.1944 -1.9613
  696SOL    HW2 2088   1.841   2.785   1.570 -0.3541 -1.2848  2.3848
  697SOL     OW 2089   1.383   0.372   2.388  0.0184 -0.5438  0.7798
  697SOL    HW1 2090   1.329   0.432   2.450  1.4343 -2.8407 -1.2439
  697SOL    HW2 2091   1.360   0.377   2.290  0.0763  1.0162  2.9001
  698SOL     OW 2092   2.097   1.647   2.592 -0.7306 -0.1530  0.3885
  698SOL    HW1 2093   2.181   1.611   2.636 -0.1407  0.2194 -0.8502
  698SOL    HW2 2094   2.110   1.684   2.495 -0.9067 -0.3217  0.2404
  699SOL     OW 2095   1.982   0.745   0.056  0.2103 -0.0864  0.3310
  699SOL    HW1 2096   1.923   0.751   0.136 -0.7253 -2.2633  0.3643
  699SOL    HW2 2097   2.063   0.800   0.064 -1.1113 -1.2110 -1.2133
  700SOL     OW 2098   1.248   0.026   0.731  0.1798  0.0181 -0.2126
  700SOL    HW1 2099   1.246   0.130   0.746  1.2055 -0.2963 -0.0763
  700SOL    HW2 2100   1.159   3.094   0.752  2.2320  0.8862 -0.7938
  701SOL     OW 2101   0.176   0.777   0.513 -0.4212  0.6272  0.4717
  701SOL    HW1 2102   0.217   0.732   0.596  0.6601  0.8665  2.7607
  701SOL    HW2 2103   0.234   0.854   0.479  1.3013 -2.1667  1.7197
  702SOL     OW 2104   1.443   0.164   1.733 -0.4039 -0.2814 -0.0859
  702SOL    HW1 2105   1.346   0.186   1.727  1.7696 -1.2355 -0.9974
  702SOL    HW2 2106   1.460   0.066   1.730 -0.3227  0.4987  0.4456
  703SOL     OW 2107   0.019   1.048   1.081 -0.7773 -0.0142  0.3634
  703SOL    HW1 2108   3.042   1.073   1.117 -0.6384  1.9734  0.7634
  703SOL    HW2 2109   0.024   0.959   1.036  0.4422 -0.9992  0.7229
  704SOL     OW 2110   0.919   2.462   1.333 -0.0782 -0.3436  1.1190
  704SOL    HW1 2111   1.019   2.486   1.320  1.0360  0.5904 -1.6216
  704SOL    HW2 2112   0.865   2.529   1.276 -2.0384 -0.8811 -0.5070
  705SOL     OW 2113   0.262   1.786   2.842  0.0798 -0.0006 -0.4485
  705SOL    HW1 2114   0.239   1.695   2.796  2.1501 -1.0627  1.7782
  705SOL    HW2 2115   0.310   1.759   2.927 -1.2002 -0.2245 -2.1107
  706SOL     OW 2116   3.082   2.973   0.200  0.1321 -0.2639  0.4321
  706SOL    HW1 2117   2.985   2.990   0.167 -0.5307  0.8880  0.3737
  706SOL    HW2 2118   3.083   2.957   0.302  0.7305 -0.6065  0.8409
  707SOL     OW 2119   1.507   0.003   2.235  0.3307  0.3499  0.4132
  707SOL    HW1 2120   1.569   0.046   2.164 -1.2986 -1.6424  1.7944
  707SOL    HW2 2121   1.433   3.067   2.196 -2.1417  1.0568  0.9043
  708SOL     OW 2122   0.294   3.005   1.539  0.1127  0.4019 -0.3032
  708SOL    HW1 2123   0.330   3.014   1.442  1.7156 -0.1913 -0.3747
  708SOL    HW2 2124   0.322   2.916   1.581  1.2355  0.3156  0.5591
  709SOL     OW 2125   2.871   0.613   1.800 -0.0483  0.5071  0.8923
  709SOL    HW1 2126   2.936   0.684   1.835 -0.8507 -0.3392  1.2100
  709SOL    HW2 2127   2.841   0.550   1.877  2.1525  1.6689 -0.1370
  710SOL     OW 2128   0.255   1.025   0.739 -0.2262  0.3360  0.5133
  710SOL    HW1 2129   0.322   1.066   0.805 -1.2634 -0.2655  0.4507
  710SOL    HW2 2130   0.259   1.066   0.646  1.6175  0.1112 -1.7672
  711SOL     OW 2131   2.512   2.993   1.422  0.1441  0.2269 -0.3680
  711SOL    HW1 2132   2.436   2.928   1.437  0.9792 -3.0585 -0.7164
  711SOL    HW2 2133   2.513   3.044   1.334 -0.9687 -0.2604  1.1286
  712SOL     OW 2134   0.146   2.654   2.293  0.0790 -0.0532  0.2379
  712SOL    HW1 2135   0.066   2.640   2.232  0.2238 -1.1489 -3.9633
  712SOL    HW2 2136   0.171   2.577   2.356  0.3388 -0.1103 -1.2109
  713SOL     OW 2137   2.509   0.407   0.588 -0.1712  0.1685 -0.4021
  713SOL    HW1 2138   2.426   0.372   0.543  2.3053 -0.9899  0.9114
  713SOL    HW2 2139   2.555   0.466   0.514  1.1750  1.7996 -0.7110
  714SOL     OW 2140   1.676   2.077   2.562  0.6018  0.1302 -0.0495
  714SOL    HW1 2141   1.617   2.022   2.503 -2.9364  2.7304 -1.6926
  714SOL    HW2 2142   1.769   2.064   2.533 -1.7777  0.0808  0.5108
  715SOL     OW 2143   0.076   0.539   0.893 -0.6604  0.0309 -0.6289
  715SOL    HW1 2144   0.054   0.472   0.967  0.4308 -1.3178  1.4822
  715SOL    HW2 2145   0.031   0.519   0.804  1.5098  1.7718  0.5751
  716SOL     OW 2146   0.857   0.674   1.614 -0.6981  0.7582  0.3376
  716SOL    HW1 2147   0.928   0.707   1.679  0.6837  0.1352 -0.2041
  716SOL    HW2 2148   0.819   0.751   1.560 -2.0252 -0.0902  0.0835
  717SOL     OW 2149   0.788   0.534   2.542 -0.1322 -0.3849 -0.1960
  717SOL    HW1 2150   0.777   0.445   2.493 -1.0458  1.8342 -2.0614
  717SOL    HW2 2151   0.695   0.579   2.539 -0.4910 -1.1942 -0.7675
  718SOL     OW 2152   1.234   0.211   0.477  0.3588 -0.0497 -0.4140
  718SOL    HW1 2153   1.200   0.277   0.411  3.9716  0.7583 -1.0969
  718SOL    HW2 2154   1.257   0.124   0.429 -0.5923  0.2060 -1.1952
  719SOL     OW 2155   3.093   2.390   2.737 -0.8196 -0.0357  0.3858
  719SOL    HW1 2156   3.070   2.350   2.646 -1.8350 -0.8399  0.7462
  719SOL    HW2 2157   0.056   2.460   2.733  1.5629  1.3304 -1.7237
  720SOL     OW 2158   0.973   0.530   1.412  0.3815 -0.3224 -0.1761
  720SOL    HW1 2159   0.921   0.570   1.484  1.0040  0.6787  0.4624
  720SOL    HW2 2160   1.041   0.596   1.367  1.8640  1.1101 -0.1498
  721SOL     OW 2161   2.809   2.819   1.018 -0.2915 -0.4308  0.5871
  721SOL    HW1 2162   2.832   2.720   1.025 -1.1968 -2.6337  1.1683
  721SOL    HW2 2163   2.745   2.844   1.088 -1.0649  1.6157 -1.0800
  722SOL     OW 2164   0.914   1.495   2.692 -0.4365  0.1287 -0.4213
  722SOL    HW1 2165   0.924   1.523   2.792  0.8603  0.2817 -0.5923
  722SOL    HW2 2166   0.898   1.576   2.629  0.4793 -1.8709  0.0357
  723SOL     OW 2167   2.678   0.953   1.321  0.1098 -0.1125 -0.0399
  723SOL    HW1 2168   2.619   0.876   1.289  0.9588  0.0824  0.9557
  723SOL    HW2 2169   2.619   1.002   1.392 -2.7960  0.1383  0.8484
  724SOL     OW 2170   0.987   1.949   0.304  0.1558 -0.5422  0.0173
  724SOL    HW1 2171   0.980   1.929   0.206 -2.6506  0.1063 -0.7225
  724SOL    HW2 2172   1.006   1.864   0.352  0.6922  1.2767  1.0009
  725SOL     OW 2173   0.270   0.896   1.480 -0.2748  0.4502 -0.1766
  725SOL    HW1 2174   0.229   0.961   1.411  0.7543 -0.4374 -0.2494
  725SOL    HW2 2175   0.362   0.879   1.454 -1.5699  1.1749 -1.7916
  726SOL     OW 2176   2.612   1.064   2.885 -0.4056  0.2091  0.4612
  726SOL    HW1 2177   2.644   1.116   2.799 -2.4622  0.0193 -0.9441
  726SOL    HW2 2178   2.510   1.056   2.885 -1.6890 -0.9214 -1.6392
  727SOL     OW 2179   1.905   1.304   2.671 -0.0263  0.4189  0.0871
  727SOL    HW1 2180   1.929   1.361   2.588 -0.3166 -0.4552 -1.9699
  727SOL    HW2 2181   1.907   1.204   2.653 -0.1645  0.0089  0.3552
  728SOL     OW 2182   1.601   2.566   1.320  0.0901  0.0676  0.3910
  728SOL    HW1 2183   1.533   2.635   1.294  2.1328 -1.9040  1.5500
  728SOL    HW2 2184   1.621   2.564   1.420  0.0851  3.2537  0.4283
  729SOL     OW 2185   1.836   0.789   2.323 -0.5690 -0.0497  0.5879
  729SOL    HW1 2186   1.929   0.803   2.359 -0.1744 -0.7593 -1.9591
  729SOL    HW2 2187   1.776   0.833   2.386  1.4420  1.2583  0.3810
  730SOL     OW 2188   1.018   0.668   0.919  0.0135 -0.0488 -0.0530
  730SOL    HW1 2189   1.069   0.758   0.917  5.9616 -0.0057 -1.3387
  730SOL    HW2 2190   1.083   0.596   0.947 -0.2364 -0.3752 -0.1734
  731SOL     OW 2191   0.789   0.463   3.009  0.1570 -0.0664  0.1491
  731SOL    HW1 2192   0.833   0.510   2.926  0.6338  1.5519 -1.3520
  731SOL    HW2 2193   0.714   0.522   3.044  0.8388  0.4364 -1.3785
  732SOL     OW 2194   0.522   0.622   0.414  0.1909  0.5921 -0.2547
  732SOL    HW1 2195   0.545   0.545   0.351  1.4681 -1.3720 -2.0097
  732SOL    HW2 2196   0.600   0.638   0.473 -0.7283  1.5148 -0.7066
  733SOL     OW 2197   1.391   1.612   2.198 -0.7973 -0.7594  0.2977
  733SOL    HW1 2198   1.295   1.591   2.226  1.0419  0.4481 -0.7180
  733SOL    HW2 2199   1.455   1.544   2.232 -1.8799  4.0075  1.3213
  734SOL     OW 2200   0.199   2.280   2.883  0.5595  0.1014 -0.0218
  734SOL    HW1 2201   0.217   2.279   2.982  0.0241 -0.4868  2.4642
  734SOL    HW2 2202   0.116   2.329   2.858  2.6676 -0.8961  0.3343
  735SOL     OW 2203   2.374   0.545   0.802 -0.0771 -0.1564 -0.2800
  735SOL    HW1 2204   2.435   0.500   0.731 -0.7819  2.1236 -0.3283
  735SOL    HW2 2205   2.298   0.597   0.761  0.8351  1.2931  2.6640
  736SOL     OW 2206   2.150   1.406   2.370 -1.0352  0.2075 -0.1479
  736SOL    HW1 2207   2.135   1.305   2.387 -3.6795 -2.6619 -0.2228
  736SOL    HW2 2208   2.065   1.460   2.376 -0.4341  0.3478 -0.5796
  737SOL     OW 2209   3.006   0.700   0.474  0.1279 -0.0977  0.4315
  737SOL    HW1 2210   2.943   0.728   0.401  0.8084 -2.4668  3.6986
  737SOL    HW2 2211   3.098   0.742   0.482  2.6423  1.9508 -0.0912
  738SOL     OW 2212   0.685   2.132   1.606 -0.8632  0.0443 -0.3630
  738SOL    HW1 2213   0.670   2.218   1.654 -0.5579  0.4502 -2.2343
  738SOL    HW2 2214   0.623   2.126   1.521  0.0675  0.5419 -1.9435
  739SOL     OW 2215   1.396   2.893   2.141 -0.4265 -0.4426  0.6356
  739SOL    HW1 2216   1.492   2.890   2.098  0.7687 -2.2884 -2.3151
  739SOL    HW2 2217   1.335   2.951   2.080 -2.2177  1.0567 -2.0486
  740SOL     OW 2218   1.872   2.503   1.232 -0.1443 -0.1507  0.3834
  740SOL    HW1 2219   1.785   2.508   1.281 -2.5539  0.7542  0.7520
  740SOL    HW2 2220   1.942   2.555   1.287  0.8818  1.3999 -2.8660
  741SOL     OW 2221   2.295   0.346   0.451 -0.2662  0.6339  0.1099
  741SOL    HW1 2222   2.249   0.258   0.478 -1.3595 -2.4329 -0.3066
  741SOL    HW2 2223   2.269   0.379   0.361 -1.1470 -0.6879  0.5832
  742SOL     OW 2224   1.045   2.585   3.056  0.2010  0.0790 -0.0724
  742SOL    HW1 2225   1.055   2.587   2.951 -0.9572  0.7186 -0.9864
  742SOL    HW2 2226   1.128   2.585   3.110 -0.5007 -1.7572  0.0252
  743SOL     OW 2227   2.464   1.012   2.097 -0.4245  0.7586 -0.2828
  743SOL    HW1 2228   2.529   1.065   2.154 -2.7515  2.0141  1.2008
  743SOL    HW2 2229   2.499   0.917   2.077 -0.9340  1.9255  1.2185
  744SOL     OW 2230   2.704   0.737   0.551 -0.0643  0.3789 -0.2304
  744SOL    HW1 2231   2.657   0.694   0.468 -2.1124 -1.0351 -2.3913
  744SOL    HW2 2232   2.804   0.753   0.536 -1.9625 -0.4652  1.1085
  745SOL     OW 2233   2.519   1.084   1.485  0.0380 -0.5083 -0.3187
  745SOL    HW1 2234   2.550   1.047   1.576  0.1531  0.4978  1.4053
  745SOL    HW2 2235   2.494   1.185   1.492 -0.7397  0.4920 -0.1398
  746SOL     OW 2236   1.351   1.506   0.808  0.3056 -0.4954 -0.5297
  746SOL    HW1 2237   1.323   1.601   0.831 -0.0287  0.7468 -1.7556
  746SOL    HW2 2238   1.351   1.480   0.711 -2.9184 -0.8017  1.1760
  747SOL     OW 2239   1.124   1.540   1.439  0.2052  0.5659  0.0076
  747SOL    HW1 2240   1.069   1.606   1.488  1.9951  0.7659  0.3128
  747SOL    HW2 2241   1.088   1.447   1.450 -0.8364 -0.9411 -4.3781
  748SOL     OW 2242   0.399   2.795   0.002  0.3299  0.0670  0.1144
  748SOL    HW1 2243   0.408   2.808   3.013 -0.3246  3.0016 -2.9784
  748SOL    HW2 2244   0.446   2.713   0.039  0.2016 -1.2902  0.4050
  749SOL     OW 2245   0.106   0.865   2.785  0.2043  0.1814 -0.7670
  749SOL    HW1 2246   0.084   0.957   2.826  0.7626  2.2016 -0.5361
  749SOL    HW2 2247   0.119   0.878   2.686  1.4628  1.6835  2.3729
  750SOL     OW 2248   1.589   0.996   1.970  0.3428  0.0513 -0.1431
  750SOL    HW1 2249   1.555   0.943   1.893 -0.7162  0.4779 -0.8453
  750SOL    HW2 2250   1.611   0.928   2.046 -1.3553 -1.3606 -0.5503
  751SOL     OW 2251   2.851   0.765   0.260  0.1397  0.5473 -0.5424
  751SOL    HW1 2252   2.800   0.686   0.215  0.5932 -4.5590 -2.1696
  751SOL    HW2 2253   2.787   0.842   0.283  0.9355  1.3334  1.7779
  752SOL     OW 2254   2.691   2.822   1.267  0.0187  0.2359 -0.1537
  752SOL    HW1 2255   2.778   2.799   1.320 -0.0342  3.4145 -0.0755
  752SOL    HW2 2256   2.626   2.871   1.330 -2.5037  0.9305  0.1825
  753SOL     OW 2257   0.914   2.201   1.440 -0.0892  0.6601  0.1275
  753SOL    HW1 2258   0.928   2.298   1.413 -4.0805  3.4559  0.7081
  753SOL    HW2 2259   0.852   2.195   1.519  0.8829  0.9757  1.9203
  754SOL     OW 2260   3.066   2.668   2.111  0.3298 -0.3195  0.0762
  754SOL    HW1 2261   2.974   2.677   2.154 -0.3151 -1.3340  0.3905
  754SOL    HW2 2262   3.090   2.749   2.053  1.6410  0.9606  0.3747
  755SOL     OW 2263   2.552   0.602   0.376 -0.1030 -0.3152 -0.2752
  755SOL    HW1 2264   2.559   0.571   0.279  3.2074  1.1180 -1.2419
  755SOL    HW2 2265   2.459   0.644   0.392 -3.2532  2.0233  0.3599
  756SOL     OW 2266   2.396   2.306   3.033 -0.7183 -0.1579 -0.2188
  756SOL    HW1 2267   2.432   2.401   3.060 -0.3459  1.6795  0.0728
  756SOL    HW2 2268   2.366   2.255   0.005 -1.9332 -2.7491  0.4665
  757SOL     OW 2269   2.123   0.545   0.571 -0.3497 -0.0824 -0.1274
  757SOL    HW1 2270   2.193   0.482   0.533  2.3431  1.6768  0.1316
  757SOL    HW2 2271   2.040   0.496   0.611 -2.4409 -0.3328 -0.5020
  758SOL     OW 2272   2.195   0.900   1.977  0.1872  0.9081  0.2581
  758SOL    HW1 2273   2.119   0.886   1.907  2.3862 -2.7212 -1.2194
  758SOL    HW2 2274   2.264   0.972   1.947  2.5162  1.5458 -0.1167
  759SOL     OW 2275   2.604   0.681   1.216  0.2161 -0.4308 -0.4787
  759SOL    HW1 2276   2.688   0.681   1.157 -2.0229  2.0903 -0.4791
  759SOL    HW2 2277   2.521   0.676   1.159 -0.4109 -1.0825 -0.3498
  760SOL     OW 2278   0.060   1.486   1.384  0.3079 -0.0901  0.0586
  760SOL    HW1 2279   0.090   1.402   1.436 -1.3470  3.3640 -3.3641
  760SOL    HW2 2280   0.023   1.463   1.291  2.2147 -1.7332  1.9422
  761SOL     OW 2281   0.992   0.883   0.272  0.6009 -0.4224  0.1370
  761SOL    HW1 2282   0.913   0.944   0.250  0.0120  1.5703 -0.1997
  761SOL    HW2 2283   1.088   0.930   0.280  1.9566 -0.7941  0.9010
  762SOL     OW 2284   0.967   1.856   1.173  0.0877 -0.3047 -0.0296
  762SOL    HW1 2285   1.049   1.829   1.224 -1.7104 -0.1936  0.1667
  762SOL    HW2 2286   0.956   1.957   1.177 -0.6933  1.4417  0.8835
  763SOL     OW 2287   1.180   0.709   1.333  0.6867  0.4433 -0.1638
  763SOL    HW1 2288   1.172   0.747   1.431 -1.7867 -1.1319  2.9877
  763SOL    HW2 2289   1.152   0.780   1.263 -1.8562  1.2522  0.0713
  764SOL     OW 2290   0.406   2.235   2.710 -0.3882  0.0541 -1.2701
  764SOL    HW1 2291   0.386   2.138   2.674 -1.3247 -2.3636 -1.1952
  764SOL    HW2 2292   0.351   2.260   2.796 -1.7724  0.4846  1.5810
  765SOL     OW 2293   0.654   2.702   1.591 -0.3855  0.1322 -0.0714
  765SOL    HW1 2294   0.628   2.727   1.685 -2.0758  2.2594 -1.0066
  765SOL    HW2 2295   0.661   2.790   1.533 -2.2723  0.0867  3.2015
  766SOL     OW 2296   2.621   1.726   2.219 -0.0057  0.2793  0.2401
  766SOL    HW1 2297   2.668   1.795   2.280 -1.0376  0.4683  3.9635
  766SOL    HW2 2298   2.646   1.635   2.252  0.2191 -1.1418 -1.7118
  767SOL     OW 2299   1.418   1.170   2.415 -0.1515  0.2401 -0.4776
  767SOL    HW1 2300   1.422   1.237   2.488 -0.7318 -0.1566 -3.7376
  767SOL    HW2 2301   1.386   1.212   2.333  0.8158 -1.3074  1.1219
  768SOL     OW 2302   1.664   1.917   0.291 -0.3809  0.2317 -0.3357
  768SOL    HW1 2303   1.648   1.927   0.393 -1.3206  1.2771 -3.9899
  768SOL    HW2 2304   1.760   1.894   0.264  0.8673  0.1763 -0.9156
  769SOL     OW 2305   0.618   1.398   0.906  0.6552 -0.6187  0.0319
  769SOL    HW1 2306   0.535   1.457   0.902 -1.1533  1.4454 -1.4881
  769SOL    HW2 2307   0.678   1.426   0.985  1.7710  0.5204  0.0657
  770SOL     OW 2308   1.292   0.921   2.434  0.1499  0.5725 -0.7657
  770SOL    HW1 2309   1.342   1.007   2.409  0.9570  2.7453 -0.2820
  770SOL    HW2 2310   1.358   0.847   2.453  0.6152  2.2622  2.4489
  771SOL     OW 2311   2.915   3.009   2.269  0.7440 -0.1490  0.1228
  771SOL    HW1 2312   2.832   3.057   2.307  1.4009  1.2014 -2.0446
  771SOL    HW2 2313   2.895   2.912   2.261  1.1070  1.8637 -0.0175
  772SOL     OW 2314   2.127   1.789   2.339 -0.0932  0.2209  0.0959
  772SOL    HW1 2315   2.062   1.790   2.254 -3.0864 -0.2322 -2.6552
  772SOL    HW2 2316   2.222   1.809   2.312 -0.2459 -2.9033 -0.3559
  773SOL     OW 2317   0.545   1.302   1.445  0.4434 -0.3147 -0.0415
  773SOL    HW1 2318   0.476   1.356   1.392 -0.3755 -2.3539  0.4344
  773SOL    HW2 2319   0.577   1.219   1.393  2.3719 -1.3426  1.1863
  774SOL     OW 2320   1.237   0.778   2.986 -0.0544  0.1201 -0.0684
  774SOL    HW1 2321   1.178   0.723   2.932  0.8946  1.4145 -0.0764
  774SOL    HW2 2322   1.274   0.731   3.072  0.2077 -0.7107  0.8349
  775SOL     OW 2323   1.717   2.760   0.160 -0.0960  0.5786 -0.6046
  775SOL    HW1 2324   1.782   2.700   0.215  5.5488  0.1544 -1.5172
  775SOL    HW2 2325   1.645   2.700   0.115 -0.1548  1.9589  1.7072
  776SOL     OW 2326   0.187   0.744   1.726 -0.3967 -0.1986  0.1120
  776SOL    HW1 2327   0.282   0.731   1.695 -0.0362 -2.7584 -0.7715
  776SOL    HW2 2328   0.126   0.671   1.693 -1.9206  0.7467 -1.2433
  777SOL     OW 2329   2.347   1.798   2.194 -0.2297  0.2753  0.2297
  777SOL    HW1 2330   2.442   1.793   2.229 -4.6450  1.1911 -0.5302
  777SOL    HW2 2331   2.338   1.864   2.114 -0.3783 -0.7752 -0.4230
  778SOL     OW 2332   1.670   1.036   2.442 -0.2164  0.5116  0.3241
  778SOL    HW1 2333   1.588   1.088   2.456  1.9934  1.0159 -0.0042
  778SOL    HW2 2334   1.729   1.079   2.370 -1.1043 -0.3349  0.6475
  779SOL     OW 2335   3.049   1.155   0.151  0.1194  0.0775 -0.0341
  779SOL    HW1 2336   3.061   1.053   0.138 -0.3658 -0.4369 -0.8349
  779SOL    HW2 2337   2.985   1.159   0.229 -1.7227  1.2344  1.8835
  780SOL     OW 2338   2.335   0.159   2.527 -0.5557 -0.0855 -0.4189
  780SOL    HW1 2339   2.245   0.207   2.519  0.7828 -4.5242  1.1476
  780SOL    HW2 2340   2.397   0.208   2.588  1.1532 -1.4623  0.7006
  781SOL     OW 2341   0.016   1.854   1.683  0.5615  0.0814  0.1240
  781SOL    HW1 2342   0.059   1.842   1.590  0.7513  0.0311 -4.1360
  781SOL    HW2 2343   0.002   1.763   1.733  0.6057  2.9082  0.5818
  782SOL     OW 2344   2.592   2.031   2.661  0.2269  0.1568 -0.3747
  782SOL    HW1 2345   2.686   2.078   2.651  2.0317  0.0659  0.1033
  782SOL    HW2 2346   2.550   2.061   2.752  1.1165  1.9505  3.3968
  783SOL     OW 2347   0.839   1.468   1.114 -0.1479  0.0158 -0.4918
  783SOL    HW1 2348   0.874   1.375   1.146 -0.6985  1.1802  1.0252
  783SOL    HW2 2349   0.919   1.527   1.092  3.3135  0.0677 -1.0500
  784SOL     OW 2350   2.300   0.822   2.956 -0.1834 -0.1993  0.5424
  784SOL    HW1 2351   2.304   0.904   2.892  1.9481 -0.0934 -0.9723
  784SOL    HW2 2352   2.283   0.853   3.053  0.7280  0.6440 -1.3652
  785SOL     OW 2353   2.171   2.596   0.699  0.3778  0.1097  0.5085
  785SOL    HW1 2354   2.196   2.684   0.655  1.6062  1.2988  0.1264
  785SOL    HW2 2355   2.214   2.518   0.648 -0.4608 -1.2665  2.3451
  786SOL     OW 2356   0.451   2.384   2.474  0.3520 -0.3882  0.3582
  786SOL    HW1 2357   0.512   2.322   2.421  1.7225 -0.8006 -2.8529
  786SOL    HW2 2358   0.435   2.356   2.570 -0.9010  0.0710 -0.8846
  787SOL     OW 2359   1.422   0.592   1.342 -0.0242  0.1310  0.0177
  787SOL    HW1 2360   1.326   0.625   1.327  1.0218 -2.5773 -0.3841
  787SOL    HW2 2361   1.500   0.659   1.341 -2.2863  1.7452  0.1198
  788SOL     OW 2362   0.462   0.895   0.231 -0.2167 -0.3095 -0.0165
  788SOL    HW1 2363   0.494   0.807   0.266  0.7401  0.1529  1.2811
  788SOL    HW2 2364   0.375   0.895   0.180  0.7193  1.8137  1.0245
  789SOL     OW 2365   3.074   2.197   1.310  0.0190  0.6868 -0.3598
  789SOL    HW1 2366   0.008   2.127   1.261 -0.8858  0.9461 -0.5194
  789SOL    HW2 2367   2.978   2.192   1.276  0.3414 -3.9238  0.4584
  790SOL     OW 2368   1.275   0.448   1.750 -0.1812 -0.0572 -0.7271
  790SOL    HW1 2369   1.238   0.507   1.817 -1.0193 -0.0468  0.3378
  790SOL    HW2 2370   1.224   0.361   1.747  2.2429  4.0444 -0.0428
  791SOL     OW 2371   1.267   0.630   0.323 -0.3147 -0.0581  0.3048
  791SOL    HW1 2372   1.310   0.645   0.229  2.3753 -0.2338  1.6450
  791SOL    HW2 2373   1.201   0.552   0.319  1.0449  0.6589  0.4465
  792SOL     OW 2374   1.400   2.996   1.735  0.4629 -0.0219 -0.2959
  792SOL    HW1 2375   1.319   2.929   1.744  0.7628 -1.3932 -0.5332
  792SOL    HW2 2376   1.460   2.969   1.815 -2.3806 -0.1845 -1.3423
  793SOL     OW 2377   0.578   3.099   0.629 -0.6311 -0.2884  0.7590
  793SOL    HW1 2378   0.537   0.066   0.580 -3.4859  1.4447 -1.0425
  793SOL    HW2 2379   0.573   3.013   0.573 -1.3594 -1.8043 -1.6115
  794SOL     OW 2380   0.538   1.227   2.264  0.4014 -0.0710 -0.0684
  794SOL    HW1 2381   0.610   1.209   2.193  1.8259  0.7676  0.4190
  794SOL    HW2 2382   0.529   1.146   2.324  1.3705  0.8131 -4.3231
  795SOL     OW 2383   0.005   1.725   2.486  0.8006  0.0414 -0.2779
  795SOL    HW1 2384   0.043   1.649   2.434 -0.8326  0.4751 -2.2111
  795SOL    HW2 2385   3.054   1.692   2.559 -2.0150 -1.2964  0.6512
  796SOL     OW 2386   1.877   1.121   2.282  0.0046 -0.4024 -0.1022
  796SOL    HW1 2387   1.897   1.045   2.219 -1.2121 -0.2646  0.6197
  796SOL    HW2 2388   1.957   1.165   2.331  2.6198  0.9410 -2.7629
  797SOL     OW 2389   3.039   3.059   2.703  0.2940  0.2873  0.4186
  797SOL    HW1 2390   0.019   3.027   2.678  2.5124  0.2302  1.3589
  797SOL    HW2 2391   2.967   3.005   2.655  0.2747  0.8991 -1.5039
  798SOL     OW 2392   2.989   2.048   2.217  0.0153 -0.2280  0.1477
  798SOL    HW1 2393   2.923   2.119   2.246 -0.1238  0.2002 -2.1940
  798SOL    HW2 2394   3.077   2.092   2.187  3.6170  0.4466 -0.6384
  799SOL     OW 2395   2.963   2.071   3.067  0.2182 -0.0298  0.0165
  799SOL    HW1 2396   2.962   2.163   3.105  0.1885 -3.7640 -2.1424
  799SOL    HW2 2397   3.028   2.059   2.992 -0.5368  1.2364  0.8010
  800SOL     OW 2398   1.324   1.778   0.955 -0.5110 -0.1399 -0.3792
  800SOL    HW1 2399   1.370   1.858   0.907  1.7988  1.0831 -1.5949
  800SOL    HW2 2400   1.393   1.728   1.008 -1.2253  0.8734 -1.7741
  801SOL     OW 2401   2.065   0.742   0.734 -0.5241 -0.7545  0.3549
  801SOL    HW1 2402   1.961   0.738   0.744 -1.8740 -0.9211  0.8448
  801SOL    HW2 2403   2.093   0.681   0.659 -2.4104 -0.4915  2.2321
  802SOL     OW 2404   2.683   1.495   0.339  0.1564  0.3638  0.0298
  802SOL    HW1 2405   2.784   1.490   0.325 -1.3807 -3.3030  0.9708
  802SOL    HW2 2406   2.646   1.580   0.298 -1.7395 -0.0363  0.0763
  803SOL     OW 2407   1.609   1.773   2.968  0.0833 -0.0267 -0.3451
  803SOL    HW1 2408   1.641   1.838   2.896 -1.0308 -1.8461  0.8508
  803SOL    HW2 2409   1.631   1.814   3.055  1.9317 -0.0617  0.9019
  804SOL     OW 2410   1.934   1.915   0.240  0.4219 -0.6744  0.5765
  804SOL    HW1 2411   1.996   1.860   0.299 -2.2908 -0.5338 -3.0079
  804SOL    HW2 2412   1.951   1.893   0.137  0.6197  0.6710 -1.1895
  805SOL     OW 2413   2.539   1.555   0.087 -0.0109 -0.3732  0.0813
  805SOL    HW1 2414   2.638   1.543   0.096  0.8110 -0.5354 -0.1912
  805SOL    HW2 2415   2.497   1.464   0.083 -0.5540  3.0929  0.1374
  806SOL     OW 2416   0.687   0.217   0.324 -0.2144 -0.4889 -0.1584
  806SOL    HW1 2417   0.693   0.316   0.298  0.8155 -0.1657  0.5458
  806SOL    HW2 2418   0.761   0.184   0.388  0.0964  1.4400  0.5875
  807SOL     OW 2419   2.176   1.342   2.763  0.0976 -0.6424 -0.6624
  807SOL    HW1 2420   2.185   1.368   2.862 -0.2947  2.2400  2.4034
  807SOL    HW2 2421   2.078   1.330   2.742 -1.0546 -1.2505 -0.5656
  808SOL     OW 2422   0.041   1.671   0.402 -0.8181 -0.1772 -0.0651
  808SOL    HW1 2423   0.126   1.649   0.452  1.2709 -0.3704  0.7363
  808SOL    HW2 2424   3.113   1.761   0.423 -1.2962  1.1911  0.7059
  809SOL     OW 2425   2.693   0.730   2.509 -0.0157  0.4932  0.3186
  809SOL    HW1 2426   2.716   0.627   2.511  0.5581 -0.0768 -3.1774
  809SOL    HW2 2427   2.766   0.790   2.559 -0.8787  0.0766  0.8660
  810SOL     OW 2428   1.020   1.175   0.298  0.1697  0.3374  0.5233
  810SOL    HW1 2429   1.061   1.148   0.205  0.8546 -1.6738 -0.0929
  810SOL    HW2 2430   0.921   1.148   0.298  3.8507 -3.8128 -1.4711
  811SOL     OW 2431   1.215   2.611   1.049 -0.1240 -0.3737  0.6943
  811SOL    HW1 2432   1.167   2.544   0.988 -1.4975 -1.8882 -0.2120
  811SOL    HW2 2433   1.316   2.621   1.026  0.6499  1.1440 -1.0327
  812SOL     OW 2434   0.424   2.540   1.521 -0.1860 -0.6498 -0.1983
  812SOL    HW1 2435   0.489   2.518   1.441 -0.0782  0.9161  0.9826
  812SOL    HW2 2436   0.460   2.619   1.578 -0.5050  1.2292 -0.1275
  813SOL     OW 2437   1.053   0.174   2.027  0.1480 -0.5985  0.2801
  813SOL    HW1 2438   1.097   0.085   2.025 -0.8169  2.4957 -1.5138
  813SOL    HW2 2439   1.068   0.225   2.116  1.1697  0.9531  0.1306
  814SOL     OW 2440   1.522   2.848   2.704  0.0363  0.4659  0.2667
  814SOL    HW1 2441   1.613   2.884   2.732 -1.9471 -1.1419 -0.4496
  814SOL    HW2 2442   1.516   2.831   2.602  3.9129  0.4184  2.3977
  815SOL     OW 2443   0.479   0.383   1.723 -0.3710  0.0065 -0.2118
  815SOL    HW1 2444   0.430   0.469   1.704 -0.0061 -3.3372  0.0198
  815SOL    HW2 2445   0.570   0.394   1.669  3.2835 -0.4243 -0.3952
  816SOL     OW 2446   2.208   0.323   2.843  0.6888  0.0497  0.3199
  816SOL    HW1 2447   2.289   0.322   2.783 -0.4097 -2.1564  2.7197
  816SOL    HW2 2448   2.212   0.396   2.919  0.1748  2.5921 -0.9111
  817SOL     OW 2449   2.087   0.253   2.490 -0.3843  0.3772 -0.2451
  817SOL    HW1 2450   2.011   0.251   2.423  0.8530 -0.4666  1.7386
  817SOL    HW2 2451   2.051   0.260   2.588 -1.1180  0.2999  1.1346
  818SOL     OW 2452   1.979   0.150   0.394 -0.7869  0.7363 -0.0118
  818SOL    HW1 2453   1.969   0.143   0.291  1.5669 -1.7628 -0.1062
  818SOL    HW2 2454   1.893   0.138   0.451 -0.9443  1.4985 -0.1907
  819SOL     OW 2455   2.236   1.963   3.017  0.0899 -0.1832 -0.0933
  819SOL    HW1 2456   2.314   1.971   3.081 -1.5954 -0.6245  0.1112
  819SOL    HW2 2457   2.267   1.948   2.924 -2.4890  0.1814  4.2446
  820SOL     OW 2458   0.253   1.790   0.208  0.2317  0.0332  0.2033
  820SOL    HW1 2459   0.279   1.746   0.298  1.2972  1.1775  0.3615
  820SOL    HW2 2460   0.154   1.817   0.204  0.4543  1.2788  0.1239
  821SOL     OW 2461   0.028   2.593   1.162  0.3241 -0.1059 -0.0134
  821SOL    HW1 2462   0.098   2.581   1.085 -0.3390 -0.3368  0.6633
  821SOL    HW2 2463   0.065   2.650   1.240 -1.1344  2.0604  0.4047
  822SOL     OW 2464   2.405   2.576   2.762  0.2611  0.0684  0.0333
  822SOL    HW1 2465   2.419   2.613   2.665 -1.0830 -2.8903  0.5460
  822SOL    HW2 2466   2.308   2.581   2.790 -0.8748 -2.4932  0.6814
  823SOL     OW 2467   1.594   0.144   2.679  0.3296  0.3091 -0.3917
  823SOL    HW1 2468   1.515   0.110   2.625 -0.7448  0.6358  1.5827
  823SOL    HW2 2469   1.589   0.246   2.693 -1.9552 -2.0937  1.1695
  824SOL     OW 2470   2.787   1.713   1.544 -0.3726  0.2137  0.4082
  824SOL    HW1 2471   2.725   1.772   1.601  0.3194  2.7871  0.4512
  824SOL    HW2 2472   2.844   1.776   1.491 -0.3963 -2.7003 -0.0862
  825SOL     OW 2473   2.695   1.796   2.565  0.0088  0.1753  0.8200
  825SOL    HW1 2474   2.668   1.862   2.635  3.8287  0.6844 -0.9769
  825SOL    HW2 2475   2.714   1.848   2.479 -2.1365  1.0362  2.8334
  826SOL     OW 2476   2.277   1.225   2.133 -0.2145 -0.4173  0.3372
  826SOL    HW1 2477   2.331   1.139   2.124  0.0508 -0.2070  0.9267
  826SOL    HW2 2478   2.332   1.310   2.111  0.3500  0.0755 -1.0597
  827SOL     OW 2479   2.161   2.345   1.505  0.3195  0.2883 -0.2404
  827SOL    HW1 2480   2.112   2.413   1.454  0.4883 -1.4575  2.1095
  827SOL    HW2 2481   2.130   2.341   1.600  0.0438 -0.1097  0.6364
  828SOL     OW 2482   2.528   2.735   1.579 -0.1951  0.0859 -0.4780
  828SOL    HW1 2483   2.432   2.702   1.580 -0.6386  0.1775 -1.2312
  828SOL    HW2 2484   2.536   2.833   1.605 -0.9211  3.2652 -0.7352
  829SOL     OW 2485   1.593   2.317   2.616  0.2412 -0.0906 -0.1420
  829SOL    HW1 2486   1.639   2.356   2.700  1.4649  1.4754  1.3479
  829SOL    HW2 2487   1.624   2.220   2.611 -2.3851  2.4799  0.7494
  830SOL     OW 2488   1.455   0.296   0.623  0.0429  0.1378 -0.1745
  830SOL    HW1 2489   1.375   0.262   0.561 -2.7062 -2.6887 -1.5004
  830SOL    HW2 2490   1.476   0.228   0.700  3.2828  0.7782  2.4297
  831SOL     OW 2491   2.446   1.290   0.108  0.0251 -0.5110  0.2839
  831SOL    HW1 2492   2.367   1.278   0.171  0.1572  0.5650 -2.1550
  831SOL    HW2 2493   2.520   1.228   0.125 -1.0832 -1.2607  1.1436
  832SOL     OW 2494   1.654   1.858   1.966 -0.6022  0.0004  0.2511
  832SOL    HW1 2495   1.654   1.757   1.946  2.3212 -1.3739  0.2093
  832SOL    HW2 2496   1.748   1.897   1.958  2.1079  1.7494 -0.5070
  833SOL     OW 2497   2.841   2.748   2.254 -0.0914  0.3191  0.1781
  833SOL    HW1 2498   2.858   2.678   2.326  1.2647 -0.5791 -0.5424
  833SOL    HW2 2499   2.750   2.737   2.203 -0.6502 -0.2905 -0.3273
  834SOL     OW 2500   0.895   0.948   1.515  0.6806  0.4826  0.2768
  834SOL    HW1 2501   0.888   1.031   1.574 -2.1595 -1.2449 -0.4017
  834SOL    HW2 2502   0.872   0.976   1.418  0.8454 -1.5361  1.5908
  835SOL     OW 2503   2.912   0.867   2.642 -0.5002  0.5706 -0.5323
  835SOL    HW1 2504   2.999   0.818   2.625  0.2834  1.5431 -1.8011
  835SOL    HW2 2505   2.906   0.955   2.590 -0.8933  1.9863 -1.0234
  836SOL     OW 2506   1.227   2.088   1.080  0.1775 -0.1130  0.3034
  836SOL    HW1 2507   1.201   2.149   1.161  0.3517  0.3177 -0.0487
  836SOL    HW2 2508   1.265   1.998   1.114  2.4478 -1.1896 -0.8972
  837SOL     OW 2509   1.897   1.034   1.065  0.0516  0.1056 -0.0957
  837SOL    HW1 2510   1.993   1.063   1.053 -0.4511 -0.7159  0.1378
  837SOL    HW2 2511   1.873   1.036   1.169  0.4419 -1.0409  3.0639
  838SOL     OW 2512   1.249   1.890   2.515  0.0903 -0.3037 -0.2022
  838SOL    HW1 2513   1.199   1.834   2.448  0.7041  0.3970  5.0556
  838SOL    HW2 2514   1.227   1.866   2.613 -1.5574 -0.4500  1.3194
  839SOL     OW 2515   0.714   2.298   2.800 -0.1451 -0.2557  0.5392
  839SOL    HW1 2516   0.620   2.264   2.778  0.0608 -4.2323 -1.8760
  839SOL    HW2 2517   0.725   2.301   2.903 -1.2215 -0.6785 -1.3037
  840SOL     OW 2518   0.393   2.479   0.091  0.2422 -0.0449 -0.5554
  840SOL    HW1 2519   0.310   2.440   0.049  1.8375  1.3776  0.7927
  840SOL    HW2 2520   0.472   2.491   0.025  0.9736  1.4304 -3.8054
  841SOL     OW 2521   1.924   2.302   0.073 -0.1923  0.2341 -0.1555
  841SOL    HW1 2522   1.933   2.234   3.113  1.3070  1.9514 -1.8582
  841SOL    HW2 2523   1.978   2.385   0.042  2.2967  0.6684 -0.2601
  842SOL     OW 2524   0.967   0.854   2.811  0.1200  0.1812 -0.1741
  842SOL    HW1 2525   1.000   0.903   2.896  1.7903  0.7012  2.8844
  842SOL    HW2 2526   0.997   0.905   2.728 -2.4348 -1.5672 -0.6980
  843SOL     OW 2527   1.063   2.798   0.581  0.0829 -0.1008  0.6709
  843SOL    HW1 2528   1.048   2.850   0.495  0.3303 -1.4265 -0.5399
  843SOL    HW2 2529   1.052   2.858   0.666 -0.0027  2.0097  1.0384
  844SOL     OW 2530   2.215   3.016   2.554  0.1519 -0.1378  0.3175
  844SOL    HW1 2531   2.257   3.108   2.567  3.9244  0.4352  0.3228
  844SOL    HW2 2532   2.195   2.971   2.639 -0.7587  1.0255 -3.2289
  845SOL     OW 2533   2.523   2.422   1.396 -0.5053 -0.0644 -0.2247
  845SOL    HW1 2534   2.460   2.339   1.399  2.9223  1.5548  0.0475
  845SOL    HW2 2535   2.475   2.510   1.374  0.8669  0.2808 -0.4425
  846SOL     OW 2536   2.852   2.110   2.693 -0.4955 -0.3655  0.8108
  846SOL    HW1 2537   2.841   2.121   2.793 -1.4484 -0.7188  1.5312
  846SOL    HW2 2538   2.939   2.067   2.665  0.6212  0.5956 -0.2388
  847SOL     OW 2539   1.433   0.610   1.606 -0.1619  0.4052 -0.0745
  847SOL    HW1 2540   1.392   0.594   1.513  0.7019  3.0894 -0.6469
  847SOL    HW2 2541   1.393   0.544   1.676 -1.6192 -1.1599  0.7106
  848SOL     OW 2542   2.805   0.397   0.134  0.5989 -0.5269  0.2212
  848SOL    HW1 2543   2.795   0.304   0.098  1.2084  0.8488 -3.9594
  848SOL    HW2 2544   2.901   0.419   0.140 -2.3644  0.3030 -1.9443
  849SOL     OW 2545   0.638   0.247   2.926  0.2633 -0.1482  0.1638
  849SOL    HW1 2546   0.713   0.313   2.950  2.3320  1.0229  1.3813
  849SOL    HW2 2547   0.555   0.262   2.984  0.3224  0.8033  0.2867
  850SOL     OW 2548   0.707   2.521   0.918 -0.1612 -0.3931  0.0972
  850SOL    HW1 2549   0.711   2.430   0.867  0.8024 -0.7793  0.5975
  850SOL    HW2 2550   0.727   2.603   0.857  0.4789 -0.1301 -0.9097
  851SOL     OW 2551   2.484   0.068   2.176 -0.1231 -0.3992  0.4532
  851SOL    HW1 2552   2.517   0.086   2.082 -1.0278  1.1063  0.8833
  851SOL    HW2 2553   2.418   0.144   2.205 -1.2184  1.2878 -0.9428
  852SOL     OW 2554   1.764   1.354   2.178  0.3005  0.1315  0.4013
  852SOL    HW1 2555   1.686   1.387   2.234 -0.7390  0.6287  0.9128
  852SOL    HW2 2556   1.786   1.257   2.209  0.9673  1.4630 -0.4326
  853SOL     OW 2557   2.714   2.638   0.660 -0.1877  0.6846 -0.2816
  853SOL    HW1 2558   2.797   2.584   0.678 -0.3388  1.6828  1.0046
  853SOL    HW2 2559   2.724   2.732   0.696  1.7820 -2.4311 -2.1318
  854SOL     OW 2560   2.400   0.651   1.049  0.2095 -0.4626 -0.0645
  854SOL    HW1 2561   2.415   0.625   0.952 -1.9341 -0.8904 -0.5552
  854SOL    HW2 2562   2.314   0.606   1.083 -0.6328  1.4999  1.5459
  855SOL     OW 2563   1.350   2.241   0.668 -0.0252  0.2272  0.0040
  855SOL    HW1 2564   1.361   2.221   0.568 -3.3975  0.4580  0.7195
  855SOL    HW2 2565   1.372   2.339   0.688 -1.0156 -1.6771 -2.8783
  856SOL     OW 2566   2.919   0.498   2.834 -0.5512  0.0417 -0.4527
  856SOL    HW1 2567   2.936   0.520   2.738 -2.0120 -0.5541  2.0174
  856SOL    HW2 2568   2.987   0.432   2.877 -0.0527 -0.8113  2.7828
  857SOL     OW 2569   1.591   2.974   1.935  0.3307 -0.7105  0.4867
  857SOL    HW1 2570   1.651   2.913   1.879 -1.4195 -1.6876  1.1238
  857SOL    HW2 2571   1.636   3.049   1.994  2.1936 -0.1042  1.4878
  858SOL     OW 2572   2.525   1.994   1.427  0.2089 -0.8160 -0.1711
  858SOL    HW1 2573   2.613   2.011   1.470 -0.0882 -0.0376  1.6574
  858SOL    HW2 2574   2.486   1.903   1.460 -1.2021  1.1744 -1.7690
  859SOL     OW 2575   1.473   2.367   1.156  0.0768  0.0845  0.1173
  859SOL    HW1 2576   1.389   2.326   1.200 -1.2086 -3.4571 -1.3400
  859SOL    HW2 2577   1.547   2.382   1.228  1.6650  0.9394  3.1708
  860SOL     OW 2578   2.520   2.557   3.108  0.1967  0.1517 -0.0324
  860SOL    HW1 2579   2.535   2.646   3.056  2.0239  3.6296 -1.3786
  860SOL    HW2 2580   2.613   2.531   0.035  1.4617  2.8473 -1.4364
  861SOL     OW 2581   1.499   2.584   1.004  0.4720  0.2429  0.5190
  861SOL    HW1 2582   1.479   2.504   1.069 -0.3204  2.4126 -0.5984
  861SOL    HW2 2583   1.599   2.604   1.010 -0.8044  0.0346 -0.4655
  862SOL     OW 2584   1.861   3.011   2.448  0.3044  0.1426  0.5370
  862SOL    HW1 2585   1.949   2.989   2.401  0.8298  0.1751  1.5489
  862SOL    HW2 2586   1.872   3.090   2.506 -1.8180 -1.3987  0.8318
  863SOL     OW 2587   0.181   0.544   0.361 -0.1526  0.3597 -0.0237
  863SOL    HW1 2588   0.192   0.499   0.454 -0.7926  1.1522  3.3855
  863SOL    HW2 2589   0.199   0.646   0.381  1.3812  1.2174 -0.9251
  864SOL     OW 2590   2.743   2.477   1.902  0.2902  0.0653 -0.1128
  864SOL    HW1 2591   2.832   2.432   1.922  0.6385 -1.0646 -1.9657
  864SOL    HW2 2592   2.705   2.507   1.991  1.7368 -1.4012  0.1109
  865SOL     OW 2593   0.029   2.022   2.871  0.5528 -0.1141  0.1041
  865SOL    HW1 2594   0.006   2.035   2.773  0.5386  0.9867 -0.5549
  865SOL    HW2 2595   0.130   2.011   2.883 -0.0706 -0.2070 -0.6605
  866SOL     OW 2596   2.635   0.443   2.869 -0.0538 -0.2704 -0.1964
  866SOL    HW1 2597   2.740   0.453   2.866  2.0273  0.9195 -1.0204
  866SOL    HW2 2598   2.598   0.530   2.910  1.8691  2.2367 -3.3269
  867SOL     OW 2599   0.492   2.851   2.840  0.4861  0.3497  0.2577
  867SOL    HW1 2600   0.593   2.849   2.820  1.7986  0.5547  0.1007
  867SOL    HW2 2601   0.460   2.948   2.855  0.8461 -0.2976 -0.5259
  868SOL     OW 2602   1.355   2.489   0.782 -0.2819 -0.1499  0.1790
  868SOL    HW1 2603   1.406   2.527   0.862  0.5380 -1.3852 -0.7497
  868SOL    HW2 2604   1.256   2.491   0.796  0.5244  0.3628  0.6076
  869SOL     OW 2605   1.462   1.267   1.176  0.1043 -0.2980  0.1982
  869SOL    HW1 2606   1.562   1.247   1.191 -1.8344 -0.7883  2.5885
  869SOL    HW2 2607   1.426   1.350   1.228 -1.7541  1.1135  1.8261
  870SOL     OW 2608   1.803   2.106   1.004  0.3319 -0.7687 -0.0389
  870SOL    HW1 2609   1.860   2.191   1.016  0.7629 -2.3384  1.1568
  870SOL    HW2 2610   1.817   2.036   1.076 -2.0279 -0.1333  0.7912
  871SOL     OW 2611   1.211   1.789   1.302 -0.5552 -0.2629  0.4367
  871SOL    HW1 2612   1.204   1.702   1.346 -0.1217  1.0847 -4.6066
  871SOL    HW2 2613   1.303   1.806   1.260  2.3718 -2.0277  0.3094
  872SOL     OW 2614   1.273   1.074   1.269 -0.0578  0.4406 -1.2217
  872SOL    HW1 2615   1.320   1.012   1.338  0.4891 -1.0364  2.5479
  872SOL    HW2 2616   1.343   1.133   1.231 -1.7308 -1.8937 -0.9047
  873SOL     OW 2617   1.057   0.934   2.311 -0.3140  0.8419 -0.0147
  873SOL    HW1 2618   0.985   0.981   2.371 -2.7597  1.5759  3.0551
  873SOL    HW2 2619   1.153   0.944   2.350 -2.7578 -3.2835  3.2668
  874SOL     OW 2620   0.392   1.040   1.165  0.3960  0.1955 -0.5225
  874SOL    HW1 2621   0.322   1.069   1.233  1.2353 -1.3917  0.8341
  874SOL    HW2 2622   0.380   1.074   1.070 -0.8373  0.3003  1.0901
  875SOL     OW 2623   2.779   2.813   0.385  0.6892  0.4540 -0.1985
  875SOL    HW1 2624   2.692   2.846   0.429 -2.4068 -0.4019 -1.5168
  875SOL    HW2 2625   2.782   2.852   0.297  0.1534 -1.8980  1.9205
  876SOL     OW 2626   1.220   0.442   2.833 -0.3285  0.2132 -0.0744
  876SOL    HW1 2627   1.183   0.358   2.880  1.2229 -3.0072  0.5126
  876SOL    HW2 2628   1.141   0.498   2.803 -0.7228  1.1181  1.3604
  877SOL     OW 2629   3.098   2.870   1.332  0.0471 -0.5948 -0.2773
  877SOL    HW1 2630   0.007   2.956   1.374 -1.9400 -4.0409 -2.9582
  877SOL    HW2 2631   0.032   2.870   1.245  1.3299  0.9883  0.5531
  878SOL     OW 2632   2.049   2.487   2.987  0.6287  0.0029 -0.0677
  878SOL    HW1 2633   2.130   2.514   3.041 -2.9531 -1.2894  0.0080
  878SOL    HW2 2634   2.068   2.509   2.890  1.8939 -1.1207 -0.0226
  879SOL     OW 2635   2.313   1.788   1.745 -0.7223  0.3760  0.4817
  879SOL    HW1 2636   2.351   1.766   1.657  1.8474  0.4466  0.2480
  879SOL    HW2 2637   2.304   1.708   1.803  1.2102 -0.7349  1.1612
  880SOL     OW 2638   0.846   0.975   1.242  0.2404 -0.0987  0.4697
  880SOL    HW1 2639   0.938   0.950   1.211 -1.9637  0.6416 -0.2621
  880SOL    HW2 2640   0.773   0.921   1.201  2.5457  1.1766  0.4181
  881SOL     OW 2641   1.208   1.907   3.058  0.0266  0.1928 -0.3520
  881SOL    HW1 2642   1.288   1.971   3.071  0.3136  0.2146 -0.3051
  881SOL    HW2 2643   1.231   1.817   3.096 -1.8075  0.0006 -0.5983
  882SOL     OW 2644   1.812   0.402   0.955  0.4622  0.1325  0.6087
  882SOL    HW1 2645   1.824   0.478   1.020  3.1451 -0.5414 -0.2862
  882SOL    HW2 2646   1.761   0.318   0.982  3.3234  0.3750 -2.3084
  883SOL     OW 2647   1.951   0.580   2.172 -0.1634 -0.1610  0.3416
  883SOL    HW1 2648   1.914   0.659   2.222 -0.7370  0.0000 -0.4531
  883SOL    HW2 2649   1.894   0.560   2.091  0.5420  1.0803  2.1256
  884SOL     OW 2650   2.592   0.572   0.111 -0.3786  0.3732  0.3586
  884SOL    HW1 2651   2.668   0.508   0.126  1.1990  0.0491 -0.2710
  884SOL    HW2 2652   2.593   0.610   0.015 -1.1276  1.6562  0.4951
  885SOL     OW 2653   1.037   1.890   0.709 -0.1570 -0.4266 -0.5905
  885SOL    HW1 2654   1.081   1.980   0.733  0.0113 -1.3846 -2.5719
  885SOL    HW2 2655   1.011   1.830   0.790 -0.6584 -5.8854 -1.6900
  886SOL     OW 2656   1.859   1.521   0.199  0.2235 -0.2892 -0.0647
  886SOL    HW1 2657   1.818   1.446   0.252  2.1228  1.4202  1.3133
  886SOL    HW2 2658   1.838   1.618   0.233 -0.5764  2.3342  2.4442
  887SOL     OW 2659   1.705   0.522   1.596  0.2463  0.2005 -0.2652
  887SOL    HW1 2660   1.692   0.419   1.586  1.0263 -0.0304 -1.2591
  887SOL    HW2 2661   1.614   0.565   1.582  0.7524  0.2059 -1.3549
  888SOL     OW 2662   2.932   1.443   1.599  0.9517 -0.1684 -0.1950
  888SOL    HW1 2663   2.961   1.376   1.527 -0.3717  1.3625 -2.0579
  888SOL    HW2 2664   2.866   1.510   1.558  0.3257  1.6523  2.7936
  889SOL     OW 2665   2.940   2.561   0.775 -0.1876  0.6955 -0.1003
  889SOL    HW1 2666   3.039   2.580   0.761  1.0088 -0.7660 -0.5745
  889SOL    HW2 2667   2.917   2.554   0.873 -2.1556  1.4980 -2.9829
  890SOL     OW 2668   0.162   2.163   2.394  0.4118 -0.5061  0.3444
  890SOL    HW1 2669   0.194   2.066   2.394 -0.2295 -0.1896  2.9213
  890SOL    HW2 2670   0.137   2.199   2.306  1.2559  1.5745  0.0380
  891SOL     OW 2671   0.767   1.715   0.476 -0.2678  0.6811 -0.7636
  891SOL    HW1 2672   0.864   1.737   0.501  0.0695 -2.3932  0.2266
  891SOL    HW2 2673   0.719   1.656   0.543  1.4279  0.8111  2.4367
  892SOL     OW 2674   3.052   2.410   1.472 -0.1490  0.9623  0.3047
  892SOL    HW1 2675   2.967   2.445   1.441 -2.7049  2.2212  0.1660
  892SOL    HW2 2676   3.070   2.328   1.418  0.2594  0.2510 -0.4179
  893SOL     OW 2677   0.102   0.121   1.664 -0.4775 -0.0202 -0.6249
  893SOL    HW1 2678   0.028   0.092   1.735  2.7637  1.0605  1.8244
  893SOL    HW2 2679   0.193   0.089   1.699  2.2972  0.8195  2.9953
  894SOL     OW 2680   2.652   1.794   0.810  0.7098 -0.4478 -0.3201
  894SOL    HW1 2681   2.729   1.737   0.786 -1.1941  2.7378 -0.1578
  894SOL    HW2 2682   2.685   1.887   0.835 -0.1691 -0.4348 -0.6762
  895SOL     OW 2683   1.906   2.488   1.693  0.1281 -0.4467  0.4317
  895SOL    HW1 2684   1.988   2.469   1.755  1.4105  1.4323  0.9847
  895SOL    HW2 2685   1.931   2.568   1.633 -2.0643  0.0094  1.4331
  896SOL     OW 2686   0.634   0.071   1.429  1.1064  0.5458  0.6718
  896SOL    HW1 2687   0.617   0.160   1.381 -1.4744 -0.7836 -0.9532
  896SOL    HW2 2688   0.586   0.059   1.513  2.0853 -0.8555 -4.0447
  897SOL     OW 2689   1.394   0.933   1.472  0.7243 -0.0778  0.3664
  897SOL    HW1 2690   1.324   0.893   1.537 -1.7764  0.9405  2.2887
  897SOL    HW2 2691   1.469   0.980   1.528  1.1648  0.0415  1.2039
  898SOL     OW 2692   1.146   3.094   1.661  0.2293  0.5156  0.0183
  898SOL    HW1 2693   1.058   3.068   1.618  3.0076  3.1555 -0.0173
  898SOL    HW2 2694   1.228   3.078   1.602  0.6817  0.9104 -0.1449
  899SOL     OW 2695   1.366   0.414   3.073  0.0851 -0.2844  0.1319
  899SOL    HW1 2696   1.437   0.344   3.063 -2.8846 -0.2786 -0.2370
  899SOL    HW2 2697   1.330   0.435   2.979  0.7974  0.5238 -4.5012
  900SOL     OW 2698   0.779   0.033   2.110  0.3171 -0.0875  0.3690
  900SOL    HW1 2699   0.848   0.101   2.093  0.8132  1.3810 -1.4447
  900SOL    HW2 2700   0.702   0.061   2.176 -3.2752  3.1129  0.0089
  901SOL     OW 2701   0.878   2.117   0.473 -0.7234 -0.5062 -0.5505
  901SOL    HW1 2702   0.922   2.209   0.480  1.5015  1.5585 -2.6057
  901SOL    HW2 2703   0.932   2.058   0.407  2.6416 -0.1106 -0.2263
  902SOL     OW 2704   2.185   0.516   1.150 -0.0957 -0.1419  0.0127
  902SOL    HW1 2705   2.134   0.562   1.073 -2.6477  0.0082  0.7215
  902SOL    HW2 2706   2.175   0.417   1.148  1.4721 -0.1130 -0.5169
  903SOL     OW 2707   2.722   1.190   2.686  0.4393 -0.4862  0.3593
  903SOL    HW1 2708   2.764   1.285   2.693  4.5616  1.4515  1.7460
  903SOL    HW2 2709   2.767   1.134   2.623 -0.6374 -0.1148  0.3563
  904SOL     OW 2710   1.528   1.350   0.108 -0.4025 -0.4647 -0.1699
  904SOL    HW1 2711   1.559   1.271   0.049 -0.1833 -0.7363  1.8030
  904SOL    HW2 2712   1.533   1.435   0.055  1.8197 -2.8277  1.4129
  905SOL     OW 2713   1.808   0.017   1.591 -0.2340  0.0277  0.3093
  905SOL    HW1 2714   1.884   3.112   1.654 -2.1764  0.6998  0.3867
  905SOL    HW2 2715   1.845   0.036   1.496 -0.3190 -0.5513  2.6182
  906SOL     OW 2716   2.315   3.001   1.065 -0.0741  0.4037 -0.6110
  906SOL    HW1 2717   2.386   3.022   1.138 -2.1150 -2.9861  2.1778
  906SOL    HW2 2718   2.357   2.965   0.981  2.4810  1.7460  0.5757
  907SOL     OW 2719   1.781   0.966   0.442 -0.1088 -0.5978 -0.1574
  907SOL    HW1 2720   1.722   0.890   0.408  0.3737 -0.1368 -0.4532
  907SOL    HW2 2721   1.732   1.049   0.475 -1.6154  0.6899 -0.4437
  908SOL     OW 2722   1.756   0.286   1.272 -0.3006  0.5101  0.3485
  908SOL    HW1 2723   1.679   0.285   1.338  0.8695  2.0762 -0.0136
  908SOL    HW2 2724   1.809   0.375   1.273  0.5349  1.2115  0.5006
  909SOL     OW 2725   2.228   0.140   0.698  0.4619  0.0472 -0.0735
  909SOL    HW1 2726   2.126   0.130   0.702  0.1096 -0.1043  0.3891
  909SOL    HW2 2727   2.272   0.194   0.777 -0.8526 -0.6278  2.0466
  910SOL     OW 2728   2.422   0.606   2.235 -0.1816 -0.6850  0.3171
  910SOL    HW1 2729   2.488   0.675   2.198  0.3167  0.4781  2.3083
  910SOL    HW2 2730   2.346   0.601   2.173  2.5930 -1.6530  1.9425
  911SOL     OW 2731   2.554   0.199   2.958 -0.6654  0.4908  0.2232
  911SOL    HW1 2732   2.581   0.283   2.907 -0.2678 -0.3425  0.1475
  911SOL    HW2 2733   2.578   0.124   2.894 -2.1346  0.1929  2.3961
  912SOL     OW 2734   0.627   1.070   1.634 -0.3494 -0.3897  0.2629
  912SOL    HW1 2735   0.599   1.048   1.539 -0.2202 -0.0327  1.0064
  912SOL    HW2 2736   0.631   1.173   1.643 -0.4588 -0.6213  2.0669
  913SOL     OW 2737   2.777   2.509   1.390  0.2065  0.2425  0.0478
  913SOL    HW1 2738   2.808   2.603   1.413 -0.8300 -1.9197  1.1293
  913SOL    HW2 2739   2.677   2.506   1.400  0.6591  0.6914  0.2626
  914SOL     OW 2740   1.902   0.978   1.563  0.0620  0.4727  0.1817
  914SOL    HW1 2741   1.944   1.070   1.579  1.1961 -1.4309 -2.5723
  914SOL    HW2 2742   1.967   0.920   1.508  1.0908 -3.3876  1.1566
  915SOL     OW 2743   3.067   1.456   1.131  0.4862  0.3921 -0.3372
  915SOL    HW1 2744   3.017   1.530   1.077 -0.3817  1.1204 -1.4040
  915SOL    HW2 2745   0.007   1.400   1.063 -0.1512 -1.1525  3.4609
  916SOL     OW 2746   1.990   2.363   1.043 -0.4106  0.1778  0.2724
  916SOL    HW1 2747   1.950   2.397   1.130  0.2866 -0.9635 -3.3866
  916SOL    HW2 2748   2.031   2.436   0.980  1.0097  0.7487 -0.7018
  917SOL     OW 2749   1.661   2.631   2.095  0.0355  0.5044 -0.6157
  917SOL    HW1 2750   1.647   2.654   2.195 -1.2048 -3.9860 -0.7455
  917SOL    HW2 2751   1.588   2.573   2.063  2.0803  0.9336  0.2901
  918SOL     OW 2752   1.841   2.272   2.378  0.1601  0.1376  0.0731
  918SOL    HW1 2753   1.843   2.286   2.280 -0.3885 -1.7923  0.4330
  918SOL    HW2 2754   1.877   2.186   2.406 -3.5412  1.3170 -1.7198
  919SOL     OW 2755   0.882   0.137   1.334 -0.0407 -0.1709 -0.5726
  919SOL    HW1 2756   0.791   0.119   1.363 -0.1361  1.6864 -2.3791
  919SOL    HW2 2757   0.928   0.189   1.413  0.2886 -0.5886  1.8912
  920SOL     OW 2758   2.799   0.280   2.205 -0.0632 -0.3556  0.0064
  920SOL    HW1 2759   2.711   0.337   2.207 -2.0357  1.5255 -1.7333
  920SOL    HW2 2760   2.830   0.255   2.301  2.9717  1.0838  2.3408
  921SOL     OW 2761   3.072   1.169   1.743  0.3073  0.4039  0.2158
  921SOL    HW1 2762   3.050   1.105   1.666 -0.0889  2.3761 -0.5895
  921SOL    HW2 2763   2.993   1.175   1.803 -0.1221  0.7620  1.7895
  922SOL     OW 2764   2.689   2.307   0.887  0.0878  0.5581  0.4096
  922SOL    HW1 2765   2.684   2.376   0.814 -0.4437 -0.8832  0.8390
  922SOL    HW2 2766   2.651   2.354   0.969  1.4868  1.2198 -0.4332
  923SOL     OW 2767   0.492   2.430   0.551 -0.0538  0.3527  0.1354
  923SOL    HW1 2768   0.566   2.372   0.515 -1.5120 -3.2041  1.8762
  923SOL    HW2 2769   0.464   2.405   0.646 -0.4045 -1.4548 -1.2604
  924SOL     OW 2770   1.112   0.970   2.627 -0.4198  0.6041  0.3107
  924SOL    HW1 2771   1.132   1.051   2.684  0.0261  0.0691 -1.8088
  924SOL    HW2 2772   1.185   0.941   2.562  0.1648 -2.4689  1.1235
  925SOL     OW 2773   2.831   1.414   0.615 -0.0129 -0.0783 -0.1506
  925SOL    HW1 2774   2.784   1.346   0.675 -0.0332  2.2562 -0.5650
  925SOL    HW2 2775   2.770   1.443   0.540  4.0540 -0.1110  0.6145
  926SOL     OW 2776   3.056   0.102   0.783  0.3121 -0.4237 -0.0682
  926SOL    HW1 2777   0.037   0.084   0.748 -0.2525 -2.1813 -1.1658
  926SOL    HW2 2778   3.042   0.048   0.869 -1.7954 -2.4095 -0.9273
  927SOL     OW 2779   0.347   1.973   2.624 -0.2273  0.1166 -0.2790
  927SOL    HW1 2780   0.305   1.909   2.696 -2.1956 -2.1338  3.1361
  927SOL    HW2 2781   0.307   1.958   2.533 -0.5238  1.6770  1.8857
  928SOL     OW 2782   0.096   0.477   2.272  0.4286  0.7062 -0.0439
  928SOL    HW1 2783   0.099   0.455   2.371  1.3056 -2.9417  1.7383
  928SOL    HW2 2784   0.179   0.532   2.245 -1.1245  0.3181  1.1233
  929SOL     OW 2785   2.811   2.213   1.181  0.4857  0.4735 -0.3511
  929SOL    HW1 2786   2.833   2.165   1.095 -0.2438  0.3971 -0.3126
  929SOL    HW2 2787   2.727   2.272   1.158 -0.3985 -0.2629  0.9140
  930SOL     OW 2788   1.865   0.318   2.306 -0.0211 -0.4603  0.1922
  930SOL    HW1 2789   1.780   0.320   2.362  1.3532 -0.8408 -1.6906
  930SOL    HW2 2790   1.886   0.414   2.273 -1.2727 -0.1719  0.8096
  931SOL     OW 2791   2.337   1.115   2.829 -0.2346  0.3027 -0.4275
  931SOL    HW1 2792   2.307   1.208   2.809  2.2789 -3.3099 -0.1676
  931SOL    HW2 2793   2.322   1.060   2.745 -0.6316 -1.1377  2.1052
  932SOL     OW 2794   1.944   1.203   0.821 -0.1976 -0.2488  0.0902
  932SOL    HW1 2795   1.922   1.107   0.791 -1.2363 -1.6251  0.3148
  932SOL    HW2 2796   1.886   1.269   0.774 -1.3922  0.2906 -1.0361
  933SOL     OW 2797   2.321   1.493   1.079 -0.7514  0.3107  0.2287
  933SOL    HW1 2798   2.233   1.480   1.036  4.5900  1.4170  0.2172
  933SOL    HW2 2799   2.384   1.537   1.014 -0.0188  0.2012 -2.6121
  934SOL     OW 2800   2.306   0.957   2.618  0.7253 -0.3477 -0.1990
  934SOL    HW1 2801   2.383   0.935   2.550  1.1989 -0.4733  0.8299
  934SOL    HW2 2802   2.225   0.903   2.589 -2.8913  3.2241  0.9260
  935SOL     OW 2803   0.182   1.521   0.643 -0.1680 -0.5744 -0.2170
  935SOL    HW1 2804   0.258   1.462   0.604 -1.7177  1.4539 -3.3535
  935SOL    HW2 2805   0.114   1.454   0.677  0.7002 -1.0442 -2.0862
  936SOL     OW 2806   0.085   2.578   0.709  0.1030  0.4746 -0.0030
  936SOL    HW1 2807   0.117   2.662   0.665 -1.2501 -1.2783  0.9772
  936SOL    HW2 2808   0.161   2.509   0.722  0.1619  1.5156  2.4110
  937SOL     OW 2809   0.147   2.332   1.764 -0.4922  0.2432 -0.2761
  937SOL    HW1 2810   0.184   2.341   1.670  0.3204  0.9843 -0.0810
  937SOL    HW2 2811   0.120   2.238   1.784 -2.1623  4.7772  0.4182
  938SOL     OW 2812   2.714   1.967   3.017 -0.2726  0.1215 -0.6089
  938SOL    HW1 2813   2.799   2.018   3.042  3.1440  1.9933 -2.0325
  938SOL    HW2 2814   2.729   1.866   3.024 -2.2191  1.0217 -1.1532
  939SOL     OW 2815   1.095   0.908   1.158  0.1394  0.2429 -0.1416
  939SOL    HW1 2816   1.168   0.970   1.186 -1.8554 -2.2810  3.3155
  939SOL    HW2 2817   1.106   0.892   1.059  0.6553 -1.6069  0.7162
  940SOL     OW 2818   2.638   0.026   2.775 -0.1500 -0.2409  0.5222
  940SOL    HW1 2819   2.738   0.014   2.752  0.3151 -0.9714 -0.6478
  940SOL    HW2 2820   2.588   3.056   2.768  2.4142  2.2981  0.9690
  941SOL     OW 2821   2.455   2.667   2.474  0.5809 -0.3703  0.1075
  941SOL    HW1 2822   2.521   2.592   2.454 -1.1116 -0.4656 -1.3728
  941SOL    HW2 2823   2.394   2.683   2.392  0.8505 -1.1485 -0.6087
  942SOL     OW 2824   1.320   0.413   1.144 -0.4076 -0.4359  0.3306
  942SOL    HW1 2825   1.303   0.460   1.056 -0.3923  1.5225  0.0163
  942SOL    HW2 2826   1.365   0.475   1.215 -0.2028  0.4003  2.2048
  943SOL     OW 2827   0.627   1.744   2.499 -0.1783  0.7141 -0.8339
  943SOL    HW1 2828   0.562   1.743   2.419 -1.5526  0.4454  0.0080
  943SOL    HW2 2829   0.661   1.838   2.520 -1.6909  2.0535 -1.0345
  944SOL     OW 2830   2.261   0.943   0.665  0.0079  0.2212  0.0820
  944SOL    HW1 2831   2.175   0.886   0.659 -0.9071  2.7287 -0.3042
  944SOL    HW2 2832   2.242   1.022   0.729  0.5330 -0.8516  1.7956
  945SOL     OW 2833   3.035   0.009   2.982 -0.3772 -0.4378 -0.6791
  945SOL    HW1 2834   3.050   0.002   2.881  1.0256  2.3056  1.2429
  945SOL    HW2 2835   0.002   0.043   3.029 -0.2085  0.3724 -0.2800
  946SOL     OW 2836   0.109   1.249   1.516  0.2478  0.3227 -0.3317
  946SOL    HW1 2837   0.203   1.261   1.542 -2.1208  0.2211 -2.1875
  946SOL    HW2 2838   0.052   1.225   1.599 -1.5401 -0.5253  0.3709
  947SOL     OW 2839   1.001   0.091   0.055  0.2184 -0.0271 -0.4654
  947SOL    HW1 2840   1.095   0.082   0.084  1.7239  1.0991  1.1163
  947SOL    HW2 2841   0.946   0.007   0.061  2.3246  1.6081  1.1093
  948SOL     OW 2842   2.446   1.568   1.317 -0.2438 -0.0501  0.1735
  948SOL    HW1 2843   2.537   1.519   1.310  0.5358 -3.6629 -1.0933
  948SOL    HW2 2844   2.381   1.538   1.241  2.5924  1.4336 -2.3002
  949SOL     OW 2845   0.335   0.938   2.914  0.3712  0.0551 -0.6355
  949SOL    HW1 2846   0.288   1.010   2.974 -0.0682  1.0940  0.2540
  949SOL    HW2 2847   0.272   0.866   2.881 -1.2403 -0.4403  1.9996
  950SOL     OW 2848   0.425   2.737   1.218  0.0699 -0.6484 -0.2091
  950SOL    HW1 2849   0.348   2.745   1.285  0.0272  0.5826 -1.8730
  950SOL    HW2 2850   0.494   2.674   1.262 -1.0497 -0.5939 -1.7799
  951SOL     OW 2851   0.914   1.824   2.769 -0.5217  0.4167  0.1547
  951SOL    HW1 2852   0.873   1.758   2.838 -1.6591  1.3357 -1.1107
  951SOL    HW2 2853   0.893   1.918   2.805  1.2024 -1.9529  0.1433
  952SOL     OW 2854   0.714   1.325   0.503  0.1916  0.0336 -0.0074
  952SOL    HW1 2855   0.671   1.231   0.514 -1.5239 -1.3151 -1.7061
  952SOL    HW2 2856   0.796   1.335   0.562 -0.3686 -2.6464 -1.0645
  953SOL     OW 2857   2.337   1.913   2.757 -0.5655 -0.1675 -0.1818
  953SOL    HW1 2858   2.265   1.967   2.711  1.9492 -0.3938  3.9723
  953SOL    HW2 2859   2.430   1.924   2.709  3.0940 -1.5488 -1.2234
  954SOL     OW 2860   1.731   0.732   0.776 -0.0094 -0.0566  0.4309
  954SOL    HW1 2861   1.745   0.642   0.816 -3.4823  0.2769 -0.8863
  954SOL    HW2 2862   1.705   0.794   0.851  0.8982  0.9068  2.7911
  955SOL     OW 2863   0.943   1.952   0.026  0.4435  0.2533  0.0041
  955SOL    HW1 2864   0.895   2.032   3.098 -0.9223  0.5490 -0.0669
  955SOL    HW2 2865   1.038   1.945   3.103  1.0654 -0.0674 -0.0672
  956SOL     OW 2866   2.789   0.455   1.989 -0.0214  0.1111 -0.0919
  956SOL    HW1 2867   2.693   0.448   1.952 -0.6363  3.3370  3.1277
  956SOL    HW2 2868   2.802   0.392   2.064 -0.3927  3.4249 -2.0483
  957SOL     OW 2869   1.631   2.160   2.098 -0.0451  0.0896 -0.0714
  957SOL    HW1 2870   1.603   2.062   2.089  0.2382 -1.6069  1.0752
  957SOL    HW2 2871   1.731   2.164   2.113  0.7748  2.3725 -1.9006
  958SOL     OW 2872   1.622   1.021   1.611  0.2595 -0.0205 -0.6940
  958SOL    HW1 2873   1.619   1.121   1.625 -0.2382 -2.7072 -1.0989
  958SOL    HW2 2874   1.718   0.996   1.585  1.1315 -1.5599  2.6689
  959SOL     OW 2875   1.475   1.887   2.173  0.3818 -0.1472 -0.1079
  959SOL    HW1 2876   1.556   1.885   2.112  2.2099 -1.9497 -1.7128
  959SOL    HW2 2877   1.421   1.802   2.162  1.0136  0.7072 -1.4756
  960SOL     OW 2878   0.555   0.801   2.849 -0.4539  0.0459  0.2461
  960SOL    HW1 2879   0.489   0.846   2.907  2.6149  1.1642 -1.4083
  960SOL    HW2 2880   0.637   0.792   2.906  1.0131  1.9953 -1.5009
  961SOL     OW 2881   0.242   1.205   3.067  0.4412 -0.6252 -0.0546
  961SOL    HW1 2882   0.155   1.192   3.019 -1.9917  1.9806  1.4381
  961SOL    HW2 2883   0.238   1.299   3.108 -0.1607  3.1156  0.9784
  962SOL     OW 2884   0.886   2.052   2.880  0.3997 -0.4264  0.0773
  962SOL    HW1 2885   0.811   2.120   2.875  0.3526 -1.5596  0.3853
  962SOL    HW2 2886   0.974   2.094   2.900 -1.2153 -2.8379  2.4663
  963SOL     OW 2887   3.081   1.660   0.035 -0.2769  0.0505 -0.5710
  963SOL    HW1 2888   3.051   1.667   3.050  0.0868  0.2162 -0.4730
  963SOL    HW2 2889   3.071   1.754   0.074 -1.3713  1.7693  0.1551
  964SOL     OW 2890   0.637   2.493   2.132 -0.2175  0.0680  0.3781
  964SOL    HW1 2891   0.566   2.450   2.079  2.1528  0.0434 -0.4414
  964SOL    HW2 2892   0.616   2.583   2.162  1.7008 -2.8293  1.1007
  965SOL     OW 2893   1.711   1.789   1.638  0.2028  0.1491  0.1984
  965SOL    HW1 2894   1.786   1.728   1.602  2.6564 -1.7387 -1.3367
  965SOL    HW2 2895   1.670   1.745   1.720  1.7172  2.8795 -2.5152
  966SOL     OW 2896   2.947   1.547   0.266  0.0959 -0.2957 -0.1515
  966SOL    HW1 2897   3.024   1.560   0.333  5.3129 -0.7409  1.8643
  966SOL    HW2 2898   2.983   1.559   0.170  2.8622 -2.4468 -0.2503
  967SOL     OW 2899   2.150   2.648   2.049 -0.2943  0.4571 -0.2409
  967SOL    HW1 2900   2.066   2.605   2.086 -2.8098  2.9437  2.0006
  967SOL    HW2 2901   2.123   2.711   1.979  2.8161 -2.1058  1.6294
  968SOL     OW 2902   1.435   1.062   0.039  0.5762 -0.0907 -0.1298
  968SOL    HW1 2903   1.535   1.052   0.070  1.4455 -2.5193  0.9010
  968SOL    HW2 2904   1.428   1.024   3.055 -0.9928 -0.5512 -3.1011
  969SOL     OW 2905   0.351   1.351   2.403  0.0348 -0.7789  0.1618
  969SOL    HW1 2906   0.420   1.301   2.343 -2.8642 -0.2883  1.5080
  969SOL    HW2 2907   0.396   1.366   2.492  1.9553  2.8953 -1.6695
  970SOL     OW 2908   2.204   2.844   0.616  0.0163 -0.5337  0.0277
  970SOL    HW1 2909   2.240   2.934   0.578 -0.4745 -1.7010 -3.6586
  970SOL    HW2 2910   2.103   2.845   0.597  0.6396  0.9538 -0.2446
  971SOL     OW 2911   2.160   2.170   0.698 -0.3503  0.2521 -0.3279
  971SOL    HW1 2912   2.164   2.175   0.800 -3.0224  1.7078  0.5302
  971SOL    HW2 2913   2.201   2.260   0.659 -0.5346  3.7946 -1.3651
  972SOL     OW 2914   0.269   1.553   2.689 -0.0548 -0.0206 -0.4009
  972SOL    HW1 2915   0.231   1.571   2.598 -0.1396 -0.1945  1.4455
  972SOL    HW2 2916   0.366   1.582   2.692 -3.2167  2.5979 -0.8173
  973SOL     OW 2917   0.761   0.485   0.294  0.3275  0.2976 -0.0972
  973SOL    HW1 2918   0.821   0.427   0.236 -0.0768 -0.8869  1.2177
  973SOL    HW2 2919   0.822   0.563   0.333  3.4937 -1.7270 -0.7654
  974SOL     OW 2920   2.546   0.962   1.722 -0.3577  0.6543  0.4094
  974SOL    HW1 2921   2.514   0.868   1.690  3.2738  0.4010  0.3537
  974SOL    HW2 2922   2.630   0.953   1.784  2.6680 -0.8114  1.5249
  975SOL     OW 2923   2.892   3.111   0.609  0.7473 -0.3036 -0.2106
  975SOL    HW1 2924   2.946   0.033   0.690 -1.9609  1.4756  2.2125
  975SOL    HW2 2925   2.806   0.059   0.608 -2.0131  2.4607  2.9949
  976SOL     OW 2926   0.720   1.548   1.433 -0.0375 -0.1752 -0.2268
  976SOL    HW1 2927   0.643   1.483   1.444  0.0692  0.0928  1.0305
  976SOL    HW2 2928   0.744   1.552   1.337  0.1207 -0.9028  1.6666
  977SOL     OW 2929   1.318   2.188   0.388  0.4278 -0.0621  0.1742
  977SOL    HW1 2930   1.402   2.178   0.329 -0.8525  1.1148  0.9525
  977SOL    HW2 2931   1.239   2.205   0.336  0.5379 -2.2828  2.0008
  978SOL     OW 2932   3.108   0.776   3.014  0.4323  0.3716  0.2422
  978SOL    HW1 2933   3.017   0.752   2.977 -2.2743 -0.7078 -0.1659
  978SOL    HW2 2934   0.048   0.806   2.933 -1.3101  0.6671  0.4318
  979SOL     OW 2935   2.039   1.670   0.933 -0.1580 -0.2833 -0.0426
  979SOL    HW1 2936   2.093   1.587   0.909 -2.0276  0.0388  1.7340
  979SOL    HW2 2937   2.005   1.722   0.853 -1.8294 -0.7345  2.7438
  980SOL     OW 2938   0.561   2.014   1.874 -0.1289 -0.3224  0.1300
  980SOL    HW1 2939   0.553   1.919   1.832  0.5705 -1.1999 -0.3318
  980SOL    HW2 2940   0.620   2.066   1.808 -0.9418  0.0657 -0.9466
  981SOL     OW 2941   2.590   1.287   2.475 -0.0765 -0.4221  0.2361
  981SOL    HW1 2942   2.625   1.243   2.557 -0.8910  2.1167  2.9504
  981SOL    HW2 2943   2.494   1.318   2.486  0.5036 -1.1211  1.4616
  982SOL     OW 2944   0.105   2.089   1.822  0.2166  0.4636  0.3895
  982SOL    HW1 2945   0.085   2.008   1.765  0.0874  2.1333  1.3469
  982SOL    HW2 2946   0.202   2.094   1.860 -1.7949  1.1137  1.6156
  983SOL     OW 2947   1.614   0.355   1.941  0.0701  0.0394 -0.1840
  983SOL    HW1 2948   1.554   0.383   2.021 -1.8434  2.1026  2.4378
  983SOL    HW2 2949   1.562   0.302   1.865 -1.0206 -0.6745 -2.7216
  984SOL     OW 2950   2.847   2.919   2.976  0.0358 -0.1268 -0.3016
  984SOL    HW1 2951   2.923   2.988   2.991 -1.2950  2.1433 -1.3197
  984SOL    HW2 2952   2.833   2.888   2.877 -0.2352 -0.5100  0.0204
  985SOL     OW 2953   1.309   1.370   1.787  0.0244  0.2604 -0.2818
  985SOL    HW1 2954   1.299   1.471   1.785  1.6192 -0.6097  0.8748
  985SOL    HW2 2955   1.380   1.341   1.856 -2.0598 -0.7828 -1.7950
  986SOL     OW 2956   1.960   0.281   2.734 -0.3120  0.2738  0.1820
  986SOL    HW1 2957   2.035   0.309   2.794  0.2535 -0.5794 -2.2991
  986SOL    HW2 2958   1.904   0.358   2.699  0.0289 -0.0083 -0.9933
  987SOL     OW 2959   2.905   1.675   2.659  0.2734  0.3614  0.4883
  987SOL    HW1 2960   2.873   1.581   2.688  1.3400 -0.5070  0.4416
  987SOL    HW2 2961   2.824   1.734   2.634 -0.7443  1.0125 -3.1540
  988SOL     OW 2962   0.019   0.199   1.205 -0.8933 -0.1045 -0.1152
  988SOL    HW1 2963   0.043   0.129   1.277  0.8079  0.8507  1.9765
  988SOL    HW2 2964   3.040   0.181   1.166 -0.4488  5.4061  0.9799
  989SOL     OW 2965   2.228   0.230   1.122 -0.4981 -0.4097  0.3058
  989SOL    HW1 2966   2.285   0.254   1.209  0.6801  1.3749  4.2751
  989SOL    HW2 2967   2.181   0.142   1.130 -0.9463  1.3712  1.1406
  990SOL     OW 2968   2.542   0.683   2.974 -0.0048  0.1342  0.6309
  990SOL    HW1 2969   2.609   0.758   2.947  0.6418 -0.6376  0.8343
  990SOL    HW2 2970   2.444   0.714   2.971 -0.0330  1.1056 -2.0221
  991SOL     OW 2971   0.272   1.398   0.357  0.3812  0.0947 -0.1447
  991SOL    HW1 2972   0.197   1.327   0.370 -2.4823  1.8467  0.9296
  991SOL    HW2 2973   0.239   1.464   0.296 -0.5489 -1.9411  1.7440
  992SOL     OW 2974   2.021   1.393   1.793  0.1787  0.1968  0.2073
  992SOL    HW1 2975   2.088   1.465   1.802 -1.7306 -1.2959  0.4805
  992SOL    HW2 2976   2.040   1.311   1.853 -0.5114 -0.5189  1.9368
  993SOL     OW 2977   0.188   2.317   0.820 -0.9121 -0.0477 -0.4084
  993SOL    HW1 2978   0.130   2.331   0.901  1.0033 -1.5793 -0.4654
  993SOL    HW2 2979   0.285   2.336   0.840 -1.3109 -1.3565 -0.7504
  994SOL     OW 2980   2.919   1.744   1.882 -0.0300  0.1420 -0.1044
  994SOL    HW1 2981   2.825   1.709   1.916 -2.1503 -0.7354 -0.9728
  994SOL    HW2 2982   2.982   1.667   1.846  1.2599 -1.5647 -0.0089
  995SOL     OW 2983   1.997   1.893   2.733 -0.3345 -0.2769 -0.0309
  995SOL    HW1 2984   2.028   1.978   2.692 -0.2806 -0.4386 -1.8764
  995SOL    HW2 2985   2.044   1.818   2.683 -1.2749  1.4071  2.5927
  996SOL     OW 2986   2.241   2.210   0.377  0.0011  0.0529 -0.2876
  996SOL    HW1 2987   2.142   2.188   0.341 -3.2390 -2.3840 -0.8882
  996SOL    HW2 2988   2.311   2.203   0.298  0.9473 -1.1241  0.6589
  997SOL     OW 2989   1.114   1.692   2.347  0.0467  0.1948 -0.1829
  997SOL    HW1 2990   1.039   1.683   2.417  0.2484 -2.5206 -1.0626
  997SOL    HW2 2991   1.119   1.603   2.291 -0.2844 -3.9678 -0.7523
  998SOL     OW 2992   2.897   2.378   0.587 -0.6303 -0.2115 -0.2751
  998SOL    HW1 2993   2.930   2.444   0.661  2.2261  0.6612 -2.2693
  998SOL    HW2 2994   2.891   2.431   0.498 -1.1216 -0.7752 -0.5025
  999SOL     OW 2995   0.555   2.873   0.485  0.4974 -0.1589  0.6856
  999SOL    HW1 2996   0.458   2.873   0.445 -0.7522  2.1583 -0.2978
  999SOL    HW2 2997   0.576   2.795   0.541 -3.2028 -0.7967 -1.6393
 1000SOL     OW 2998   1.353   0.278   0.178 -0.3275  0.1184 -0.1607
 1000SOL    HW1 2999   1.452   0.296   0.202 -1.3749  2.2696 -0.3192
 1000SOL    HW2 3000   1.338   0.331   0.091 -0.8556  1.8632  0.3205
   3.11406   3.11406   3.11406
