1000 SPC/Fw water molecules t=   7.00000 step= 7000
 3000
    1SOL     OW    1   1.322   2.597   0.321  0.5994  0.1486 -0.0990
    1SOL    HW1    2   1.355   2.669   0.258  2.1370 -3.3321  0.1044
    1SOL    HW2    3   1.269   2.631   0.403  0.1038  0.9053  0.5772
    2SOL     OW    4   1.472   1.120   1.715  0.0436  0.1311  0.2913
    2SOL    HW1    5   1.458   1.074   1.626 -3.5231 -0.6351  0.0769
    2SOL    HW2    6   1.512   1.217   1.710  0.5249  1.3267  0.1100
    3SOL     OW    7   0.734   0.020   2.844 -0.5331 -0.3092 -0.3352
    3SOL    HW1    8   0.742   0.116   2.808  0.0101  2.3064  0.9163
    3SOL    HW2    9   0.637   3.103   2.850 -0.7495  1.0778 -1.5248
    4SOL     OW   10   1.559   1.660   3.005 -0.3628  0.2916 -0.6836
    4SOL    HW1   11   1.564   1.754   2.976  1.3560 -0.0280  2.9067
    4SOL    HW2   12   1.499   1.647   3.091 -2.9548 -2.5773  0.6417
    5SOL     OW   13   0.773   1.010   2.139 -0.1653 -0.4744  0.0113
    5SOL    HW1   14   0.811   0.918   2.135 -2.0116  0.5230 -0.1312
    5SOL    HW2   15   0.837   1.067   2.196  0.7347 -1.2693  1.0207
    6SOL     OW   16   2.405   1.034   2.434  0.0457 -0.7266 -0.2502
    6SOL    HW1   17   2.464   0.969   2.388  2.2618  1.2432 -1.1065
    6SOL    HW2   18   2.345   0.999   2.508  1.3761  0.5977  1.1477
    7SOL     OW   19   0.184   1.021   1.076 -0.4980 -0.0878 -0.2466
    7SOL    HW1   20   0.133   1.109   1.064 -0.8793 -1.3605  1.9832
    7SOL    HW2   21   0.243   0.997   0.996 -1.4507 -1.3036 -1.1406
    8SOL     OW   22   2.278   2.694   1.957 -0.4774  0.4101 -0.5091
    8SOL    HW1   23   2.248   2.751   1.882 -1.9283 -2.0110  1.2211
    8SOL    HW2   24   2.339   2.743   2.021 -0.1432  1.5620  0.3425
    9SOL     OW   25   0.057   2.605   0.487  0.1976  0.2638 -0.3540
    9SOL    HW1   26   0.083   2.538   0.561  2.5725 -1.4855 -3.0068
    9SOL    HW2   27   0.105   2.566   0.406 -0.1541 -0.7936  0.4388
   10SOL     OW   28   3.102   2.403   2.504 -0.3225 -0.2134  0.1708
   10SOL    HW1   29   0.057   2.466   2.442  3.2395  1.9931 -3.7136
   10SOL    HW2   30   0.040   2.314   2.507 -0.1430  2.1730  1.5665
   11SOL     OW   31   0.231   1.714   0.102 -0.2375 -0.7175  0.0654
   11SOL    HW1   32   0.243   1.648   0.030  0.5595 -0.1306  2.1044
   11SOL    HW2   33   0.319   1.732   0.151  0.0390 -1.4430  1.8428
   12SOL     OW   34   2.284   0.053   0.569 -0.0565  0.1601 -0.2090
   12SOL    HW1   35   2.343   0.125   0.602 -0.0702  0.5072  0.4325
   12SOL    HW2   36   2.321   0.002   0.484  0.9937 -3.9052 -4.0467
   13SOL     OW   37   0.281   0.342   2.650  0.3894 -0.2307  0.1586
   13SOL    HW1   38   0.252   0.249   2.656  0.1193  2.6705  0.3637
   13SOL    HW2   39   0.223   0.396   2.716 -1.0382 -0.7331  3.8197
   14SOL     OW   40   1.318   0.873   1.349  0.5871  0.2992  0.5320
   14SOL    HW1   41   1.234   0.916   1.389 -0.3998  0.1060  0.6363
   14SOL    HW2   42   1.336   0.889   1.249 -0.3496 -0.9368 -2.0518
   15SOL     OW   43   0.677   1.553   2.286 -0.7861 -0.6609 -0.2334
   15SOL    HW1   44   0.653   1.650   2.270 -0.9605  1.9266  0.8868
   15SOL    HW2   45   0.620   1.491   2.233  1.5398  1.1846  1.8963
   16SOL     OW   46   1.801   0.931   2.592 -0.0852  0.7515 -0.2199
   16SOL    HW1   47   1.712   0.971   2.561 -1.0320  1.0364 -1.9266
   16SOL    HW2   48   1.868   1.006   2.618 -2.9840  0.4534  2.5334
   17SOL     OW   49   0.044   2.189   2.094 -0.0280 -0.2559 -0.0190
   17SOL    HW1   50   0.042   2.288   2.078  0.7377 -0.8579 -1.5176
   17SOL    HW2   51   0.041   2.147   1.999 -0.4393 -1.8810  1.1360
   18SOL     OW   52   1.501   1.220   0.660  0.0142 -0.1939  0.1668
   18SOL    HW1   53   1.533   1.142   0.714  0.9315  0.9302 -0.2614
   18SOL    HW2   54   1.401   1.223   0.660  3.5895 -1.2413  0.7844
   19SOL     OW   55   0.227   1.212   2.029 -0.3270 -0.5482 -0.8985
   19SOL    HW1   56   0.241   1.282   1.954  1.5597  1.2972  0.2683
   19SOL    HW2   57   0.229   1.121   1.992 -1.3311  0.5344 -1.5353
   20SOL     OW   58   2.046   2.440   3.102 -0.1173  0.3049  0.2607
   20SOL    HW1   59   2.033   2.408   0.091 -0.2872 -0.2119 -0.2580
   20SOL    HW2   60   2.003   2.532   3.084 -1.7413  0.3449 -1.4396
   21SOL     OW   61   1.899   1.737   1.010  0.6345 -0.5467 -0.1206
   21SOL    HW1   62   1.828   1.709   1.078  2.5725  1.7759 -1.9344
   21SOL    HW2   63   1.996   1.707   1.036 -0.2756 -0.4620 -1.3030
   22SOL     OW   64   2.016   2.223   1.480  0.3098 -0.0738 -0.5699
   22SOL    HW1   65   1.970   2.202   1.392  0.6427  2.1984  3.5609
   22SOL    HW2   66   2.044   2.320   1.482  1.0066 -0.6576 -0.9936
   23SOL     OW   67   2.811   1.063   1.235 -0.2345 -0.0422  0.2682
   23SOL    HW1   68   2.842   0.968   1.262 -0.3234 -0.0881 -0.9075
   23SOL    HW2   69   2.740   1.052   1.166  1.4979  0.6470 -0.3075
   24SOL     OW   70   1.915   1.222   1.656  0.1149  0.2145 -0.4133
   24SOL    HW1   71   1.898   1.231   1.555 -1.8778  0.6461  1.4382
   24SOL    HW2   72   1.949   1.132   1.678  0.1884  3.3593 -0.3331
   25SOL     OW   73   1.848   0.047   2.367  0.3599  0.5628 -0.5946
   25SOL    HW1   74   1.942   0.090   2.360 -0.2456 -1.5127 -0.3584
   25SOL    HW2   75   1.768   0.106   2.385 -1.4504 -0.6954  1.8530
   26SOL     OW   76   0.552   2.950   0.690  0.5037  0.0644  0.2323
   26SOL    HW1   77   0.594   2.980   0.780  0.2397 -0.3481  0.2664
   26SOL    HW2   78   0.595   2.870   0.643  2.2231  1.3928  1.2506
   27SOL     OW   79   1.007   1.259   0.851  0.0949 -0.2948 -0.3453
   27SOL    HW1   80   1.074   1.223   0.916 -2.4115  2.0413  0.4502
   27SOL    HW2   81   0.983   1.354   0.886  0.7886  0.9172 -0.4966
   28SOL     OW   82   2.064   2.328   1.087 -0.0028  0.2316  0.4535
   28SOL    HW1   83   2.096   2.421   1.122  1.1638 -0.4180  0.3586
   28SOL    HW2   84   1.992   2.296   1.152 -0.0166 -0.5433  0.9148
   29SOL     OW   85   2.212   2.799   2.337 -0.1894 -0.6183  0.1571
   29SOL    HW1   86   2.183   2.726   2.404 -1.9692 -1.0801  2.1320
   29SOL    HW2   87   2.254   2.873   2.390 -0.1073  0.9532 -2.3672
   30SOL     OW   88   3.050   2.753   1.883 -0.3980 -0.1791  0.0294
   30SOL    HW1   89   2.950   2.755   1.913 -2.2802 -1.4938  2.1680
   30SOL    HW2   90   0.007   2.778   1.967  0.8739 -0.3707  1.6031
   31SOL     OW   91   3.106   1.840   2.316  0.1016  0.4100 -0.1131
   31SOL    HW1   92   3.014   1.884   2.326 -1.0674 -4.1848 -2.3067
   31SOL    HW2   93   0.031   1.856   2.223 -0.9491 -1.0318 -1.8602
   32SOL     OW   94   0.857   2.306   2.247  0.2962  0.0423  0.3216
   32SOL    HW1   95   0.831   2.356   2.332  2.8307  1.9521 -0.9643
   32SOL    HW2   96   0.951   2.330   2.216 -4.0622 -0.4223  2.2601
   33SOL     OW   97   0.299   0.354   3.054 -0.4810  0.2331 -0.0444
   33SOL    HW1   98   0.233   0.433   3.061  0.7172  2.2767 -0.4894
   33SOL    HW2   99   0.372   0.390   2.990 -1.2276  1.0043  1.2981
   34SOL     OW  100   2.815   0.119   3.005  0.6218  0.0373  0.3763
   34SOL    HW1  101   2.870   0.040   3.037  0.5201  0.4458 -0.3008
   34SOL    HW2  102   2.750   0.098   2.930  0.6139 -1.1177  0.4656
   35SOL     OW  103   2.932   2.729   1.626  0.7078  0.1001  0.3847
   35SOL    HW1  104   2.995   2.727   1.708  0.0103 -1.8979 -0.6706
   35SOL    HW2  105   2.914   2.821   1.604 -1.4182  1.2211 -0.4012
   36SOL     OW  106   2.349   3.063   2.361 -0.1773 -0.9827 -0.0838
   36SOL    HW1  107   2.282   3.106   2.426 -2.5523  3.1724  0.1972
   36SOL    HW2  108   2.387   0.025   2.297 -2.9484  0.2879 -0.4702
   37SOL     OW  109   1.642   2.836   0.028  0.1480  0.0398  0.2356
   37SOL    HW1  110   1.623   2.810   3.040  0.4886  1.0860 -3.4396
   37SOL    HW2  111   1.558   2.810   0.085 -0.3222  0.1648  1.5453
   38SOL     OW  112   0.437   0.295   0.676  0.5031 -0.1873 -0.1059
   38SOL    HW1  113   0.395   0.361   0.613  0.1300  2.8501 -1.0151
   38SOL    HW2  114   0.505   0.238   0.629 -0.9288  0.3424  1.0895
   39SOL     OW  115   0.939   1.938   2.242 -0.5121  0.5125 -0.3848
   39SOL    HW1  116   0.912   1.936   2.342 -1.4218 -1.2975  0.4223
   39SOL    HW2  117   1.016   1.999   2.225  1.1234 -1.0886 -1.9819
   40SOL     OW  118   0.034   0.869   0.144  0.4169 -0.1577 -0.0497
   40SOL    HW1  119   3.066   0.893   0.084 -0.2091  0.5621  1.4056
   40SOL    HW2  120   3.101   0.849   0.237  3.8203 -1.1461  2.1456
   41SOL     OW  121   1.631   0.312   2.070  0.2304  0.1141 -0.0368
   41SOL    HW1  122   1.550   0.354   2.022 -1.5260  1.8171 -0.6727
   41SOL    HW2  123   1.606   0.299   2.166  1.3732 -0.7584 -5.1042
   42SOL     OW  124   2.338   0.225   0.991  0.1846 -0.5354  0.0737
   42SOL    HW1  125   2.410   0.294   0.974 -1.0753  0.3329  0.0842
   42SOL    HW2  126   2.259   0.250   0.932 -0.2496  0.7223  0.8302
   43SOL     OW  127   1.473   0.474   1.546 -0.1749  0.1352  0.0104
   43SOL    HW1  128   1.567   0.517   1.552  0.8995 -0.6038  1.5212
   43SOL    HW2  129   1.484   0.377   1.536  0.1708 -0.0043  1.7316
   44SOL     OW  130   0.300   0.797   3.041  0.2444 -0.2027 -0.2694
   44SOL    HW1  131   0.399   0.788   3.028 -1.4606 -3.5850 -0.1088
   44SOL    HW2  132   0.281   0.888   3.083  1.4164  2.7332  2.9113
   45SOL     OW  133   0.680   1.448   1.849 -0.6695 -0.1566 -0.1665
   45SOL    HW1  134   0.718   1.393   1.772 -3.1605 -1.7819  0.4683
   45SOL    HW2  135   0.689   1.401   1.936 -0.9915  1.0263 -1.3824
   46SOL     OW  136   2.165   2.397   1.794 -0.0312 -0.0694  0.1701
   46SOL    HW1  137   2.131   2.346   1.877  1.2401 -1.9568 -0.0208
   46SOL    HW2  138   2.245   2.349   1.761 -0.7354 -1.2303 -0.5123
   47SOL     OW  139   0.370   1.794   1.643  0.0644 -0.1988  0.8877
   47SOL    HW1  140   0.450   1.827   1.582  2.7700  2.1714 -3.3506
   47SOL    HW2  141   0.349   1.882   1.688 -2.4485 -3.0926  1.8276
   48SOL     OW  142   0.880   2.662   2.955  0.0782 -0.5074  0.2200
   48SOL    HW1  143   0.890   2.645   3.055  0.2753 -2.6985  1.2826
   48SOL    HW2  144   0.789   2.690   2.933  0.6804  0.2368 -1.9955
   49SOL     OW  145   2.596   1.524   1.852  0.6600  0.9874  0.0883
   49SOL    HW1  146   2.686   1.570   1.829 -0.7417 -0.3170 -0.1316
   49SOL    HW2  147   2.612   1.434   1.900  1.1369 -0.6346 -0.6955
   50SOL     OW  148   0.783   2.805   0.589  0.3298  0.7552  0.1522
   50SOL    HW1  149   0.876   2.809   0.631 -0.2367  0.2075  2.9098
   50SOL    HW2  150   0.790   2.849   0.498 -1.1878 -1.0061  1.4010
   51SOL     OW  151   1.475   0.357   1.125  0.0162 -0.0824  0.2554
   51SOL    HW1  152   1.442   0.351   1.028 -2.2624 -2.1813 -0.0043
   51SOL    HW2  153   1.458   0.266   1.168 -1.2744 -1.3915  0.5388
   52SOL     OW  154   0.282   0.759   0.508 -0.3827  0.0258  0.8421
   52SOL    HW1  155   0.260   0.731   0.411 -0.1646 -3.4259  0.0135
   52SOL    HW2  156   0.299   0.856   0.517  0.2857 -2.6597  0.7964
   53SOL     OW  157   1.385   0.020   3.034 -0.3186 -0.2893 -0.6022
   53SOL    HW1  158   1.434   3.052   2.981 -2.2418  1.1776  1.6852
   53SOL    HW2  159   1.284   3.106   3.034  2.6987  1.8332  1.2480
   54SOL     OW  160   2.173   0.532   2.183  0.4707  0.2880  0.0370
   54SOL    HW1  161   2.178   0.455   2.252  1.7884 -2.3893  2.0573
   54SOL    HW2  162   2.117   0.502   2.103  1.2578 -0.8268  1.7619
   55SOL     OW  163   2.664   2.843   0.051  0.5466  0.4035  0.0812
   55SOL    HW1  164   2.686   2.771   0.118 -0.5739 -1.3261  0.6375
   55SOL    HW2  165   2.706   2.823   3.065 -1.0680 -1.8376 -0.0207
   56SOL     OW  166   0.780   0.276   2.286  0.2818  0.5040 -0.5391
   56SOL    HW1  167   0.682   0.271   2.273  3.4657 -1.3199 -0.3767
   56SOL    HW2  168   0.812   0.205   2.351 -0.2475 -1.4764  2.3892
   57SOL     OW  169   1.706   0.856   2.297  0.2001 -0.1178  0.6597
   57SOL    HW1  170   1.753   0.943   2.291  0.3744 -1.1239 -3.2551
   57SOL    HW2  171   1.754   0.800   2.227  0.3455 -0.2192  0.6187
   58SOL     OW  172   0.145   0.921   1.902 -0.1707  0.3153 -0.1845
   58SOL    HW1  173   0.118   0.874   1.817  0.5808  2.4402 -0.2299
   58SOL    HW2  174   0.180   0.856   1.976 -0.5436 -0.8896 -0.0028
   59SOL     OW  175   0.561   2.680   1.590 -0.6766  0.2016 -0.6505
   59SOL    HW1  176   0.531   2.730   1.674  1.1268 -0.3860  0.9424
   59SOL    HW2  177   0.597   2.743   1.517  0.8434  1.7898 -1.2483
   60SOL     OW  178   1.990   2.949   0.327  0.4417  0.3065  0.1402
   60SOL    HW1  179   1.962   2.926   0.421 -3.2652  0.3113  0.3147
   60SOL    HW2  180   2.088   2.971   0.324  1.9721 -0.4588 -1.4858
   61SOL     OW  181   1.445   2.352   0.306 -0.5595 -0.0666 -0.1070
   61SOL    HW1  182   1.484   2.320   0.392  2.0397 -0.5818  0.5153
   61SOL    HW2  183   1.366   2.414   0.314  1.1750  0.0040 -0.0362
   62SOL     OW  184   1.929   2.665   3.000 -0.7530  0.6824  0.4322
   62SOL    HW1  185   1.851   2.605   2.991  2.9446 -0.5935  0.1114
   62SOL    HW2  186   1.916   2.721   3.082 -1.1331  1.1808 -0.0355
   63SOL     OW  187   2.329   0.706   0.509  0.1625  0.3780  0.0216
   63SOL    HW1  188   2.372   0.756   0.430 -1.4196 -2.5642  2.7705
   63SOL    HW2  189   2.266   0.771   0.553  2.5970 -3.6582  1.0130
   64SOL     OW  190   1.714   1.086   0.074  0.0634  0.1306  0.5214
   64SOL    HW1  191   1.717   1.181   0.035 -2.4979  0.5199 -1.1597
   64SOL    HW2  192   1.619   1.062   0.081  0.9480 -1.5879 -0.9716
   65SOL     OW  193   0.690   2.222   1.590  0.0270  0.5399  0.2870
   65SOL    HW1  194   0.605   2.173   1.566 -0.3044 -0.5619 -0.1341
   65SOL    HW2  195   0.670   2.281   1.669  2.9466  0.3332 -2.4401
   66SOL     OW  196   1.066   1.421   1.332 -0.2772  0.6327 -0.0443
   66SOL    HW1  197   1.133   1.385   1.268 -2.4151 -1.0670  2.7941
   66SOL    HW2  198   0.979   1.438   1.281 -4.0719  2.2879  0.6829
   67SOL     OW  199   2.255   2.023   1.838 -0.4775  0.0641 -0.5636
   67SOL    HW1  200   2.234   1.953   1.907  3.3983  1.7081 -0.2782
   67SOL    HW2  201   2.185   2.032   1.767 -1.3771  0.7696  1.9549
   68SOL     OW  202   1.084   1.634   1.950 -0.4227 -0.3137  0.4135
   68SOL    HW1  203   1.055   1.569   1.871 -0.3775 -2.2336 -4.2318
   68SOL    HW2  204   1.042   1.726   1.935 -0.8680 -1.3078  2.2669
   69SOL     OW  205   2.861   0.352   0.048 -0.4878  0.1758  0.4770
   69SOL    HW1  206   2.828   0.336   0.144  0.7743 -1.2618  1.4080
   69SOL    HW2  207   2.854   0.264   3.104 -0.2393  0.0703  1.3812
   70SOL     OW  208   2.290   1.164   2.249 -0.7405  0.1268  0.0400
   70SOL    HW1  209   2.342   1.114   2.322 -0.8027  1.7748 -2.0284
   70SOL    HW2  210   2.186   1.174   2.265 -1.6385 -2.7040  0.2190
   71SOL     OW  211   0.941   2.010   0.780 -0.0032  0.1740 -0.1151
   71SOL    HW1  212   0.985   2.042   0.692  2.9981  0.2262  0.4458
   71SOL    HW2  213   1.018   1.995   0.846 -0.9189  0.5975  1.0160
   72SOL     OW  214   2.356   1.846   0.425  0.1292 -0.3229 -0.5451
   72SOL    HW1  215   2.290   1.776   0.451 -0.1280 -1.4876 -1.6092
   72SOL    HW2  216   2.356   1.920   0.498  0.0376  1.0492  2.4465
   73SOL     OW  217   0.955   0.861   0.913  0.0978 -0.0099 -0.2138
   73SOL    HW1  218   0.891   0.943   0.922  2.5564 -2.0593  3.2419
   73SOL    HW2  219   0.934   0.791   0.841  1.7081 -3.3318  0.0728
   74SOL     OW  220   2.564   2.011   1.990  0.2994  0.3829 -0.2860
   74SOL    HW1  221   2.529   1.988   2.081 -0.6068  0.1904 -3.0795
   74SOL    HW2  222   2.537   1.936   1.923  2.6511 -0.5427 -0.6446
   75SOL     OW  223   1.617   1.812   2.170  0.4506 -0.3792  0.3478
   75SOL    HW1  224   1.544   1.747   2.137 -0.4553 -6.4540 -1.1993
   75SOL    HW2  225   1.705   1.765   2.190 -2.3907  0.3796  0.2719
   76SOL     OW  226   1.309   1.690   1.104 -0.5735 -0.0024  0.1486
   76SOL    HW1  227   1.238   1.704   1.031 -1.1655 -0.1076 -1.1451
   76SOL    HW2  228   1.403   1.707   1.072 -2.6029 -1.9052  0.7261
   77SOL     OW  229   2.373   1.133   1.501  0.6204  0.0226  0.1791
   77SOL    HW1  230   2.412   1.213   1.460  1.7998  1.2111  1.9881
   77SOL    HW2  231   2.275   1.139   1.494 -1.7459  1.3419 -0.4790
   78SOL     OW  232   1.699   0.690   0.300 -0.0488 -0.2550 -0.2849
   78SOL    HW1  233   1.702   0.722   0.201  0.2964 -0.2232  0.5528
   78SOL    HW2  234   1.603   0.699   0.342  0.5648 -1.2332  0.8675
   79SOL     OW  235   1.108   1.598   2.220  0.5171  0.2485  0.1437
   79SOL    HW1  236   1.122   1.623   2.121  1.2868  0.6637  0.2744
   79SOL    HW2  237   1.051   1.666   2.270 -0.3061  2.4218  0.4660
   80SOL     OW  238   1.084   0.348   1.554  0.5032 -0.8521  0.2885
   80SOL    HW1  239   1.165   0.405   1.524  0.2791 -0.7097 -0.8091
   80SOL    HW2  240   1.118   0.253   1.568 -0.0680  1.2188 -0.9345
   81SOL     OW  241   0.389   2.417   0.357 -0.0238 -0.6248  0.8375
   81SOL    HW1  242   0.452   2.498   0.340  0.0313  3.3323  3.3041
   81SOL    HW2  243   0.413   2.391   0.455  3.1794 -4.4123 -0.1640
   82SOL     OW  244   1.186   0.086   1.700 -0.3047  0.0305  0.2742
   82SOL    HW1  245   1.177   0.133   1.787  0.8152 -0.9064 -1.5289
   82SOL    HW2  246   1.284   0.058   1.683 -1.1480 -2.5647  1.4650
   83SOL     OW  247   0.380   2.309   1.130  0.2860  0.5570  0.1889
   83SOL    HW1  248   0.315   2.341   1.202 -1.6413  0.2699 -0.0313
   83SOL    HW2  249   0.327   2.248   1.066  1.9029  0.7861 -0.9181
   84SOL     OW  250   2.691   1.339   0.844  0.4984 -0.1353 -0.7595
   84SOL    HW1  251   2.691   1.256   0.912  1.1675 -1.2023  1.8232
   84SOL    HW2  252   2.771   1.339   0.784 -3.7892 -1.8362  3.7940
   85SOL     OW  253   2.295   2.003   1.150 -0.0465 -0.6238 -0.3115
   85SOL    HW1  254   2.243   1.993   1.232 -0.4931  2.7611 -0.4802
   85SOL    HW2  255   2.386   1.963   1.151  0.6390 -1.3809 -0.2443
   86SOL     OW  256   1.355   2.292   2.051  0.3556  0.0911 -0.3680
   86SOL    HW1  257   1.312   2.329   1.968  1.2081 -0.5593  4.3886
   86SOL    HW2  258   1.435   2.233   2.040  0.3333  1.4667  1.5412
   87SOL     OW  259   2.316   1.351   0.724 -0.0301 -0.1679 -0.0744
   87SOL    HW1  260   2.250   1.333   0.648 -1.3882  2.1881  2.1181
   87SOL    HW2  261   2.399   1.403   0.698 -2.3575 -3.0539  0.7941
   88SOL     OW  262   0.433   3.086   1.012  0.5697  0.4010  0.4751
   88SOL    HW1  263   0.374   0.032   0.942 -0.0534  2.1237 -4.9298
   88SOL    HW2  264   0.527   3.078   0.977 -2.0521 -1.0290 -0.3795
   89SOL     OW  265   0.617   0.921   1.620 -0.1758  0.1385 -0.2454
   89SOL    HW1  266   0.647   0.831   1.658  1.1159 -0.3819  0.8544
   89SOL    HW2  267   0.607   0.920   1.520 -2.3813  1.2662  1.1104
   90SOL     OW  268   2.641   1.984   0.291  0.0019 -0.3438 -0.0192
   90SOL    HW1  269   2.666   2.075   0.328 -1.4248 -0.2206  0.5335
   90SOL    HW2  270   2.662   1.915   0.360  0.8875  0.0833  1.6273
   91SOL     OW  271   0.870   1.797   1.055 -0.0099 -0.4190  0.8170
   91SOL    HW1  272   0.793   1.762   0.997  1.8346  0.4819 -0.9752
   91SOL    HW2  273   0.847   1.816   1.150  4.6407 -2.3644 -2.1011
   92SOL     OW  274   2.128   3.006   1.950 -0.0377 -0.1706 -0.4299
   92SOL    HW1  275   2.207   3.062   1.985  1.0049 -1.0203  2.0805
   92SOL    HW2  276   2.099   2.943   2.026 -2.1326  1.7489  0.8558
   93SOL     OW  277   0.322   1.857   2.769  0.3350  0.1372 -0.2033
   93SOL    HW1  278   0.391   1.866   2.846 -0.7654 -1.8836  0.5596
   93SOL    HW2  279   0.364   1.826   2.684 -3.8501 -0.7660  3.8526
   94SOL     OW  280   2.368   0.021   2.024  0.0254  0.1930  0.1245
   94SOL    HW1  281   2.373   0.095   2.098 -3.4765  0.2406  0.0032
   94SOL    HW2  282   2.425   0.043   1.943  0.1147  1.3245  1.9742
   95SOL     OW  283   1.884   3.084   1.842 -0.5343 -0.7652 -0.1477
   95SOL    HW1  284   1.981   3.081   1.885  1.4381  1.9189 -2.3414
   95SOL    HW2  285   1.813   3.014   1.867  0.8889  3.5758  0.1588
   96SOL     OW  286   0.464   0.546   2.231  0.2542 -0.3400  0.0750
   96SOL    HW1  287   0.380   0.515   2.282  0.9033 -3.9549  1.0904
   96SOL    HW2  288   0.454   0.650   2.213 -1.4859  1.0945  0.0785
   97SOL     OW  289   2.042   3.047   1.486  0.0539  0.3321 -0.7198
   97SOL    HW1  290   2.027   0.040   1.488 -4.4441 -0.2501  0.8614
   97SOL    HW2  291   1.978   3.002   1.425  0.8873 -0.5860  1.8991
   98SOL     OW  292   1.923   2.163   1.740  0.2987 -0.4095  0.5563
   98SOL    HW1  293   1.945   2.205   1.654  1.5108  0.1303  1.9269
   98SOL    HW2  294   1.945   2.062   1.744  1.5140 -1.3692 -0.9181
   99SOL     OW  295   0.710   0.686   0.963  0.6140 -0.1259  0.1754
   99SOL    HW1  296   0.615   0.661   0.948 -1.1609 -0.2543 -0.3164
   99SOL    HW2  297   0.769   0.654   0.891 -2.7133  0.7921  5.6743
  100SOL     OW  298   2.871   1.970   1.978  0.1862 -0.1334  0.4396
  100SOL    HW1  299   2.826   1.889   2.013  0.6157  1.1771 -1.3897
  100SOL    HW2  300   2.824   2.052   2.009  1.0482  2.0250 -2.3751
  101SOL     OW  301   1.392   0.221   0.090 -0.2166  0.1309  0.1718
  101SOL    HW1  302   1.417   0.305   0.042  1.0719  0.5129 -0.3427
  101SOL    HW2  303   1.394   0.142   0.024 -1.0440 -3.2037 -0.3193
  102SOL     OW  304   2.916   3.037   1.319 -0.4725  0.4180 -0.0572
  102SOL    HW1  305   2.843   3.105   1.298 -0.7146  0.6946 -0.7353
  102SOL    HW2  306   2.991   3.046   1.247  0.5197 -1.3886  0.7345
  103SOL     OW  307   0.197   2.823   2.422 -0.3012 -0.2427  0.5034
  103SOL    HW1  308   0.222   2.898   2.487 -1.3028 -2.2050 -1.7690
  103SOL    HW2  309   0.232   2.842   2.328 -0.2204 -2.6496  1.0677
  104SOL     OW  310   0.433   2.174   1.478  0.3561  0.1090 -0.4687
  104SOL    HW1  311   0.434   2.261   1.423 -2.4909 -0.2541 -0.4302
  104SOL    HW2  312   0.374   2.105   1.430 -4.8311  0.7178 -1.4499
  105SOL     OW  313   0.632   1.793   2.098  0.2382  0.0852 -0.9619
  105SOL    HW1  314   0.537   1.763   2.129 -0.6422  2.0358  3.8279
  105SOL    HW2  315   0.652   1.886   2.135  0.6469  0.1747 -1.3306
  106SOL     OW  316   2.499   2.920   0.486  0.3798 -0.2208  0.5820
  106SOL    HW1  317   2.518   2.890   0.582  0.2578  1.3246 -2.3103
  106SOL    HW2  318   2.555   3.003   0.467 -1.6737 -1.6431 -0.6834
  107SOL     OW  319   0.626   1.219   0.991 -0.2212  0.6389  0.0143
  107SOL    HW1  320   0.568   1.283   1.052 -1.1882  0.0543 -0.6404
  107SOL    HW2  321   0.625   1.127   1.037 -2.8854  0.1730 -0.1359
  108SOL     OW  322   2.872   1.085   2.007  0.5055  0.4514  0.1507
  108SOL    HW1  323   2.791   1.109   1.951 -0.1863 -0.5519 -0.4666
  108SOL    HW2  324   2.960   1.093   1.959 -2.0761 -0.8634 -0.3213
  109SOL     OW  325   1.903   2.806   0.125  0.1282 -0.5044  0.2493
  109SOL    HW1  326   1.934   2.873   0.199 -0.6433  1.9840  1.1531
  109SOL    HW2  327   1.805   2.822   0.093 -1.7301  0.0394 -0.7934
  110SOL     OW  328   0.180   2.030   2.928 -0.0079  0.2854  0.4674
  110SOL    HW1  329   0.241   1.969   2.871  0.7927 -0.5282  2.3738
  110SOL    HW2  330   0.132   1.970   2.995  2.4569  0.6993 -1.1917
  111SOL     OW  331   2.888   0.946   2.427 -0.1577  0.5437  0.1744
  111SOL    HW1  332   2.831   0.865   2.455 -1.2326 -1.4194 -0.1873
  111SOL    HW2  333   2.958   0.914   2.356 -1.6150  0.9694  1.3148
  112SOL     OW  334   2.249   2.637   1.637 -0.6504 -0.5023  0.1165
  112SOL    HW1  335   2.195   2.726   1.641 -1.2450  1.2344  1.5609
  112SOL    HW2  336   2.225   2.578   1.713  1.7668  2.9653 -0.9195
  113SOL     OW  337   2.247   1.894   2.633  0.9131  0.0687 -0.1366
  113SOL    HW1  338   2.258   1.820   2.703 -0.2330 -1.1003  1.6249
  113SOL    HW2  339   2.154   1.899   2.592 -1.8660  1.0052  1.0333
  114SOL     OW  340   0.615   0.086   0.604  0.5273  0.0004 -0.2407
  114SOL    HW1  341   0.598   3.104   0.657 -3.3137  0.9299  0.2439
  114SOL    HW2  342   0.707   0.100   0.559  2.9285  2.9809  1.8194
  115SOL     OW  343   2.962   1.855   2.950 -0.4827  0.5929  0.4057
  115SOL    HW1  344   2.954   1.763   2.997 -1.7712  1.0824 -1.9623
  115SOL    HW2  345   3.005   1.922   3.015 -2.9980 -1.5449  1.5720
  116SOL     OW  346   3.076   1.341   1.739  0.5878 -0.0444  0.2363
  116SOL    HW1  347   0.072   1.345   1.733  1.3137  0.5249  0.7217
  116SOL    HW2  348   3.045   1.419   1.803 -0.1440  1.7448  0.1211
  117SOL     OW  349   2.095   0.235   1.410 -0.5104 -0.2627  0.5194
  117SOL    HW1  350   2.185   0.265   1.364 -0.8632  1.9791 -1.0660
  117SOL    HW2  351   2.024   0.278   1.356  2.1880 -1.8588 -1.9937
  118SOL     OW  352   2.848   2.441   1.992 -0.0973 -0.0787  0.3697
  118SOL    HW1  353   2.791   2.476   1.916 -1.1349  1.4255  1.6696
  118SOL    HW2  354   2.952   2.455   1.992 -1.9950  0.1489 -0.0342
  119SOL     OW  355   0.418   1.551   1.753 -0.2383 -0.1692  0.1667
  119SOL    HW1  356   0.408   1.633   1.693  3.1818  0.9778 -1.3103
  119SOL    HW2  357   0.515   1.550   1.789  1.0259  0.5397 -0.9343
  120SOL     OW  358   0.240   1.355   1.733 -0.8424 -0.0416 -0.6368
  120SOL    HW1  359   0.290   1.270   1.711  0.8528 -0.9682 -0.8789
  120SOL    HW2  360   0.305   1.433   1.730  0.1135 -1.0441 -1.1739
  121SOL     OW  361   1.544   0.986   0.795 -0.3333  0.2800 -0.1392
  121SOL    HW1  362   1.497   0.906   0.747  0.4850 -0.7136 -0.3515
  121SOL    HW2  363   1.645   0.970   0.788  1.0282 -1.5477  0.4593
  122SOL     OW  364   2.377   2.291   2.879  0.2140 -0.0819 -0.2035
  122SOL    HW1  365   2.351   2.377   2.922 -0.4630 -2.6802  2.7291
  122SOL    HW2  366   2.389   2.300   2.778 -1.2531 -0.9349  2.5491
  123SOL     OW  367   0.141   0.312   0.500  0.0776  0.2980  0.7946
  123SOL    HW1  368   0.052   0.319   0.546 -1.9161  1.1100  1.2284
  123SOL    HW2  369   0.214   0.280   0.564 -1.4024  0.3402  3.8250
  124SOL     OW  370   1.784   1.354   0.071  0.8277 -0.4160  0.3069
  124SOL    HW1  371   1.787   1.449   0.029 -0.7688  2.8193 -3.2465
  124SOL    HW2  372   1.876   1.321   0.104  1.0923  2.3946  0.9894
  125SOL     OW  373   3.065   0.798   2.279  0.0459 -0.1537 -0.9884
  125SOL    HW1  374   0.014   0.762   2.357 -1.8490  1.0343 -0.0548
  125SOL    HW2  375   0.013   0.810   2.191  0.0451 -4.5178 -2.4583
  126SOL     OW  376   2.989   2.742   0.124  0.0323 -0.2091 -0.5395
  126SOL    HW1  377   2.967   2.663   0.062 -1.2288 -1.0491  0.5528
  126SOL    HW2  378   2.961   2.721   0.221 -0.6023 -0.9197  0.5971
  127SOL     OW  379   2.590   1.828   0.059  0.0955 -0.1886 -0.1580
  127SOL    HW1  380   2.608   1.888   0.144  0.9653  0.0251  0.4765
  127SOL    HW2  381   2.549   1.870   3.082 -0.4057 -0.0957 -1.8162
  128SOL     OW  382   0.797   1.092   0.816  0.3223 -0.0631 -0.0681
  128SOL    HW1  383   0.877   1.155   0.808 -1.1237 -2.8357  1.4190
  128SOL    HW2  384   0.731   1.133   0.888 -1.2982  1.4211 -1.5509
  129SOL     OW  385   2.253   2.210   0.954 -0.8540 -0.4032  0.0514
  129SOL    HW1  386   2.275   2.128   1.008 -3.3399  0.6502 -2.0841
  129SOL    HW2  387   2.171   2.257   0.989 -1.8589  0.6027  0.7514
  130SOL     OW  388   2.012   0.844   0.142 -0.1408 -0.4674  0.6127
  130SOL    HW1  389   2.081   0.851   0.068 -0.4225 -1.3259  4.2727
  130SOL    HW2  390   1.923   0.803   0.108  1.2272 -0.0423  0.5381
  131SOL     OW  391   3.101   1.635   2.500  0.1150  0.1974  0.5162
  131SOL    HW1  392   3.092   1.705   2.423 -0.7170 -1.1077  1.3303
  131SOL    HW2  393   3.106   1.680   2.591  0.2659 -0.2596 -1.6374
  132SOL     OW  394   1.117   1.055   1.976  0.0022 -0.1048 -0.0937
  132SOL    HW1  395   1.047   1.127   1.972  0.9340 -0.0016 -0.0372
  132SOL    HW2  396   1.121   1.002   1.888  1.1708 -0.9710 -0.2484
  133SOL     OW  397   0.421   1.155   0.804  0.2152 -0.8548 -0.2556
  133SOL    HW1  398   0.519   1.165   0.840  2.4008 -1.4749 -0.8437
  133SOL    HW2  399   0.368   1.246   0.812 -0.8455  1.2591  3.3233
  134SOL     OW  400   2.978   1.613   3.050  0.1771 -0.3061 -0.4543
  134SOL    HW1  401   3.041   1.648   0.011  0.7918 -0.5390 -1.1299
  134SOL    HW2  402   3.034   1.547   3.001 -0.3173  3.3346  2.0376
  135SOL     OW  403   1.725   0.807   0.055  0.0763  0.0615 -0.4865
  135SOL    HW1  404   1.720   0.906   0.050 -0.2070  0.6977  0.4710
  135SOL    HW2  405   1.756   0.772   3.076 -3.0015  0.2986  1.4501
  136SOL     OW  406   2.186   2.016   1.413 -0.1482 -0.3323 -0.2143
  136SOL    HW1  407   2.134   1.930   1.426 -3.2721  1.1649 -1.2153
  136SOL    HW2  408   2.120   2.094   1.421 -0.5019 -1.7594  2.4940
  137SOL     OW  409   2.221   2.629   0.702  0.1256 -0.3668 -0.9884
  137SOL    HW1  410   2.248   2.718   0.750  1.6802  0.9898  0.9360
  137SOL    HW2  411   2.134   2.636   0.652  1.6592 -2.2491 -0.8175
  138SOL     OW  412   2.338   0.306   1.882 -0.2652  0.0568  0.1575
  138SOL    HW1  413   2.258   0.298   1.952  1.7137  0.9532  1.8891
  138SOL    HW2  414   2.305   0.266   1.796  0.9689  2.4782  2.2872
  139SOL     OW  415   2.742   2.498   2.853 -0.2359 -0.1598  0.1746
  139SOL    HW1  416   2.739   2.401   2.872 -0.2457  3.3633 -0.6699
  139SOL    HW2  417   2.727   2.521   2.753 -2.2935 -0.4879  0.3461
  140SOL     OW  418   1.639   2.051   2.677  0.0955  0.5039 -0.4939
  140SOL    HW1  419   1.696   2.137   2.657 -0.4988  0.0811 -0.7100
  140SOL    HW2  420   1.669   1.973   2.619 -0.3847 -1.0311 -0.3866
  141SOL     OW  421   1.160   1.216   2.471 -0.0251  0.1955  0.0187
  141SOL    HW1  422   1.201   1.221   2.562 -1.1132  1.4330  1.6667
  141SOL    HW2  423   1.213   1.269   2.403 -1.2613 -0.7183  0.2698
  142SOL     OW  424   2.103   2.578   2.142 -0.4409 -0.6220 -0.0535
  142SOL    HW1  425   2.092   2.486   2.100  1.9391  3.0864 -0.0670
  142SOL    HW2  426   2.169   2.625   2.082 -0.5271  2.3892  0.5028
  143SOL     OW  427   0.891   2.414   0.493 -0.3684 -0.4699  0.0621
  143SOL    HW1  428   0.938   2.437   0.582  1.4281 -2.1570  2.8084
  143SOL    HW2  429   0.921   2.323   0.459  0.4197 -1.7510  0.3153
  144SOL     OW  430   0.693   2.559   0.615 -0.0947  0.2544  0.6076
  144SOL    HW1  431   0.727   2.655   0.619  3.9888  0.2702 -0.4876
  144SOL    HW2  432   0.744   2.503   0.543 -0.0714  0.7736 -1.4325
  145SOL     OW  433   1.715   2.512   2.974 -0.5907  0.4223 -0.4625
  145SOL    HW1  434   1.660   2.468   2.898 -3.0095 -2.4463 -1.4762
  145SOL    HW2  435   1.680   2.478   3.062 -1.5439  1.9493  1.6011
  146SOL     OW  436   2.014   2.583   0.287  0.0265 -0.0506 -0.0210
  146SOL    HW1  437   2.016   2.669   0.226 -0.9493  1.0381 -0.6335
  146SOL    HW2  438   2.110   2.546   0.284  2.9996  1.3733 -1.1082
  147SOL     OW  439   0.345   1.544   1.999 -0.0205 -0.3019  0.3864
  147SOL    HW1  440   0.361   1.549   1.898  0.4324 -1.4891 -0.3122
  147SOL    HW2  441   0.246   1.566   2.025 -2.0594  0.2097  3.8308
  148SOL     OW  442   1.398   2.813   0.146  0.1701 -0.2256  0.1986
  148SOL    HW1  443   1.412   2.895   0.203  1.9930  0.4220 -1.2174
  148SOL    HW2  444   1.300   2.801   0.114 -0.6130 -2.4192  0.3362
  149SOL     OW  445   0.546   2.029   0.059 -0.1346 -0.4151 -1.0127
  149SOL    HW1  446   0.606   2.094   0.007 -1.0762  2.9782 -0.4727
  149SOL    HW2  447   0.465   2.081   0.105 -0.9486  1.4217 -1.6612
  150SOL     OW  448   0.316   2.649   1.252  0.0362 -0.4343 -0.6297
  150SOL    HW1  449   0.402   2.616   1.292  2.6229 -2.2764 -0.1371
  150SOL    HW2  450   0.265   2.713   1.312 -0.9043  1.7167  1.0701
  151SOL     OW  451   0.305   1.570   2.997  0.4272  0.2111  0.4357
  151SOL    HW1  452   0.298   1.542   2.898 -0.2795 -0.8625 -0.5241
  151SOL    HW2  453   0.370   1.504   3.039  1.0717  0.8487 -1.5576
  152SOL     OW  454   2.879   2.008   0.989  0.0996 -0.1269  0.1095
  152SOL    HW1  455   2.827   1.922   0.960 -3.3300 -1.4148 -1.1375
  152SOL    HW2  456   2.813   2.066   1.040  2.3348  0.4777 -0.8031
  153SOL     OW  457   1.537   2.221   0.537  0.5794  0.0310 -0.3040
  153SOL    HW1  458   1.624   2.171   0.517  2.3668 -0.4772 -2.0617
  153SOL    HW2  459   1.478   2.176   0.606  1.1666  1.6601  0.6562
  154SOL     OW  460   0.780   0.018   1.522 -0.1401  0.0247 -0.1340
  154SOL    HW1  461   0.709   0.010   1.447 -0.3118 -1.0589 -0.4672
  154SOL    HW2  462   0.783   0.113   1.561  1.1864  0.5422  0.1936
  155SOL     OW  463   2.618   2.252   0.399  0.0832 -0.7550  0.3187
  155SOL    HW1  464   2.698   2.279   0.449 -2.7491 -1.0903 -1.9166
  155SOL    HW2  465   2.536   2.238   0.469 -2.2522 -2.0324  0.7604
  156SOL     OW  466   2.299   2.025   0.227  0.1862  0.2641 -0.1682
  156SOL    HW1  467   2.348   2.113   0.217 -0.9157  1.8229  2.6979
  156SOL    HW2  468   2.338   1.962   0.298  0.8935 -0.2289  3.1837
  157SOL     OW  469   0.600   2.991   2.010  0.7379 -0.4500 -0.5283
  157SOL    HW1  470   0.627   3.090   2.027  1.5721  1.3007 -1.4724
  157SOL    HW2  471   0.563   2.946   2.095 -1.4215 -1.5496  0.1392
  158SOL     OW  472   1.205   0.571   1.150  0.2987  0.5110 -0.7285
  158SOL    HW1  473   1.190   0.667   1.118 -1.3930 -2.7270  2.5159
  158SOL    HW2  474   1.228   0.564   1.250  0.7576 -0.5999  0.3376
  159SOL     OW  475   1.867   1.052   2.950 -0.4762  0.6369  0.1691
  159SOL    HW1  476   1.864   0.960   2.911 -0.2893  0.6637 -2.6518
  159SOL    HW2  477   1.810   1.064   3.037 -0.7658 -0.9645  2.7325
  160SOL     OW  478   1.127   2.001   0.560  0.0328 -0.5791 -0.6677
  160SOL    HW1  479   1.063   2.067   0.515 -0.1848 -1.1697 -1.3721
  160SOL    HW2  480   1.157   1.930   0.495  1.1054 -0.4422  2.6886
  161SOL     OW  481   2.672   2.173   2.629 -0.4514 -0.4372  0.6710
  161SOL    HW1  482   2.695   2.248   2.567  0.5568  1.3260  2.6125
  161SOL    HW2  483   2.599   2.115   2.587 -2.2801  0.5504 -0.9185
  162SOL     OW  484   0.185   2.403   1.310  0.2809  0.0968  0.3076
  162SOL    HW1  485   0.211   2.496   1.276  0.8865  1.0957  0.8766
  162SOL    HW2  486   0.085   2.391   1.317 -0.5162 -0.9884 -0.8043
  163SOL     OW  487   0.372   0.842   2.721  0.1302  0.2178  0.0972
  163SOL    HW1  488   0.400   0.804   2.812 -0.8069 -2.2786  0.0656
  163SOL    HW2  489   0.270   0.867   2.728 -2.2096  1.7563  2.7538
  164SOL     OW  490   0.126   2.502   2.898 -0.1472  0.6289  0.3315
  164SOL    HW1  491   0.034   2.492   2.846 -1.9305 -0.1727  0.5577
  164SOL    HW2  492   0.138   2.599   2.930  0.7934  0.0097 -1.9846
  165SOL     OW  493   2.456   0.872   1.531 -0.3362 -0.4302  0.6077
  165SOL    HW1  494   2.428   0.967   1.510  0.6461 -0.8279  0.2269
  165SOL    HW2  495   2.508   0.880   1.619 -1.1935  0.3395 -1.6814
  166SOL     OW  496   2.046   1.734   1.422 -0.0670 -0.4513  0.3618
  166SOL    HW1  497   2.141   1.686   1.420  1.7188 -0.8985 -1.7699
  166SOL    HW2  498   1.964   1.669   1.413 -0.8089 -0.3793  0.7284
  167SOL     OW  499   0.135   0.573   3.087  0.5377 -0.3556  0.4009
  167SOL    HW1  500   0.058   0.585   0.038  2.1791  1.9372 -2.7086
  167SOL    HW2  501   0.186   0.669   3.074  3.2316  3.8757  1.4473
  168SOL     OW  502   2.018   0.211   2.685 -0.2529  0.4028  0.3437
  168SOL    HW1  503   1.947   0.280   2.659  0.5827  0.2026  1.1523
  168SOL    HW2  504   2.035   0.205   2.785  1.0431 -3.6571  0.6428
  169SOL     OW  505   0.475   1.229   2.918 -0.3583 -0.5363  0.2504
  169SOL    HW1  506   0.489   1.283   3.007 -1.0187  1.9649  0.2339
  169SOL    HW2  507   0.382   1.246   2.881  0.9377 -0.6844  1.9877
  170SOL     OW  508   1.197   1.194   1.692 -0.2442 -0.2757  0.2357
  170SOL    HW1  509   1.284   1.158   1.725  0.0346 -1.5960  0.3342
  170SOL    HW2  510   1.214   1.269   1.626 -0.0928 -3.4210  1.5277
  171SOL     OW  511   1.434   2.724   1.227  0.0748 -0.6518  0.1654
  171SOL    HW1  512   1.510   2.663   1.252 -2.0850  0.0706 -1.8678
  171SOL    HW2  513   1.468   2.823   1.221 -1.4544  0.8886  1.1923
  172SOL     OW  514   1.010   3.025   1.941  0.0559  0.6558  0.2687
  172SOL    HW1  515   0.941   3.019   1.866 -0.7014 -0.3537 -0.1086
  172SOL    HW2  516   1.080   2.947   1.933 -1.6706  0.0064 -0.4768
  173SOL     OW  517   0.634   2.371   0.821  0.1052  0.5946 -0.4966
  173SOL    HW1  518   0.696   2.431   0.769 -1.1040  1.7367  6.2545
  173SOL    HW2  519   0.595   2.425   0.900 -0.7333 -0.0362  0.6599
  174SOL     OW  520   2.140   0.221   0.195 -0.2720 -0.6527  0.1992
  174SOL    HW1  521   2.049   0.184   0.212  1.8604  3.1283 -0.9913
  174SOL    HW2  522   2.196   0.154   0.145  2.1253  0.7114  1.4123
  175SOL     OW  523   0.941   1.502   0.939  0.1891  0.4950 -0.0000
  175SOL    HW1  524   0.989   1.565   0.867  1.2559 -0.9200 -0.4632
  175SOL    HW2  525   0.843   1.478   0.914 -2.9300 -0.6293 -0.6412
  176SOL     OW  526   1.122   1.862   0.956 -0.1561 -1.1686 -0.0088
  176SOL    HW1  527   1.170   1.930   1.011 -1.9810  1.7051 -2.8355
  176SOL    HW2  528   1.030   1.837   1.002 -1.1433 -0.6683 -0.0875
  177SOL     OW  529   1.393   0.965   1.036 -0.0976 -0.5842 -0.9537
  177SOL    HW1  530   1.460   0.903   1.086 -1.9985  0.5894 -0.9016
  177SOL    HW2  531   1.419   0.963   0.939 -1.2700  0.1276  1.6603
  178SOL     OW  532   2.243   1.375   0.394  0.2721 -0.3418  0.2236
  178SOL    HW1  533   2.333   1.420   0.389  0.0019  2.4476  0.3856
  178SOL    HW2  534   2.172   1.419   0.335 -0.5691 -3.4005 -0.4461
  179SOL     OW  535   1.165   2.805   0.035 -0.3208 -0.3411  0.0275
  179SOL    HW1  536   1.123   2.755   0.111  1.4821  0.9360 -3.8275
  179SOL    HW2  537   1.166   2.744   3.063  1.9076  1.7549  0.6874
  180SOL     OW  538   1.866   1.294   1.405  0.2454  0.3180  0.1971
  180SOL    HW1  539   1.833   1.386   1.409  1.2950 -3.0992 -2.5761
  180SOL    HW2  540   1.959   1.289   1.363  2.1178  0.9406  0.0768
  181SOL     OW  541   0.958   1.083   1.603  0.4906  0.4193 -0.0686
  181SOL    HW1  542   1.049   1.116   1.635 -0.8928  1.6313 -0.1565
  181SOL    HW2  543   0.929   0.997   1.653 -1.6110  0.4840 -1.9404
  182SOL     OW  544   2.929   1.030   3.034  0.1144  0.3361 -0.5423
  182SOL    HW1  545   2.915   1.003   2.939  0.1735  2.0325  0.0598
  182SOL    HW2  546   2.944   1.134   3.031  1.6899 -2.1944 -1.4267
  183SOL     OW  547   1.872   0.247   1.939 -0.1186  0.1394  0.1219
  183SOL    HW1  548   1.873   0.161   1.885 -0.5426  0.9184 -0.6493
  183SOL    HW2  549   1.779   0.263   1.977 -0.9542 -1.4614 -1.9453
  184SOL     OW  550   0.986   0.713   1.299  0.0289 -0.1936 -0.4408
  184SOL    HW1  551   1.066   0.742   1.241  0.9560  4.1860  0.1884
  184SOL    HW2  552   1.005   0.719   1.399 -2.1267  1.2041 -1.5988
  185SOL     OW  553   2.307   1.122   0.438 -0.7550  0.2777 -0.5282
  185SOL    HW1  554   2.370   1.117   0.517  1.5097 -1.3020  0.6413
  185SOL    HW2  555   2.281   1.217   0.414 -0.0198  0.6822 -0.8406
  186SOL     OW  556   0.193   2.052   0.398 -0.6343  0.4295 -0.3096
  186SOL    HW1  557   0.156   2.117   0.474 -0.0564  4.3097  0.5523
  186SOL    HW2  558   0.261   2.098   0.339 -1.5955  2.2568 -1.9879
  187SOL     OW  559   1.821   2.209   2.964  0.0124 -0.3200  0.3031
  187SOL    HW1  560   1.861   2.301   2.967 -0.2452 -3.0738  0.6165
  187SOL    HW2  561   1.719   2.215   2.970  2.1996  2.9077 -1.3298
  188SOL     OW  562   1.154   2.550   1.559  0.5588 -0.1215 -0.2981
  188SOL    HW1  563   1.112   2.642   1.532 -0.8404  1.5164  0.3498
  188SOL    HW2  564   1.190   2.504   1.478  1.3788  0.8714  0.4857
  189SOL     OW  565   2.757   1.326   2.563 -0.2147 -0.1027  0.1131
  189SOL    HW1  566   2.741   1.425   2.537 -0.5155  0.1659  0.6287
  189SOL    HW2  567   2.856   1.315   2.575 -1.4505 -2.4931 -1.7740
  190SOL     OW  568   0.747   2.813   2.291  0.0371 -0.1451 -0.1445
  190SOL    HW1  569   0.744   2.727   2.237  0.1567 -1.6315  0.3479
  190SOL    HW2  570   0.820   2.875   2.262 -0.3137  0.3198  1.5257
  191SOL     OW  571   2.458   0.996   0.929 -0.5643 -0.1457 -0.3688
  191SOL    HW1  572   2.442   0.929   1.003  1.2492  2.2550  1.0777
  191SOL    HW2  573   2.374   1.042   0.907  2.0211 -1.4847  0.2255
  192SOL     OW  574   2.072   0.483   1.049 -0.0912 -0.1529 -0.7012
  192SOL    HW1  575   2.050   0.551   1.126  0.5447  0.6768  1.1143
  192SOL    HW2  576   2.011   0.403   1.065 -0.0627  1.4785 -2.5535
  193SOL     OW  577   1.046   0.066   0.301  0.0222  0.5489  0.3335
  193SOL    HW1  578   1.069   0.131   0.225  1.3552  0.1681 -1.3239
  193SOL    HW2  579   0.971   0.097   0.361  2.5885  1.3674  1.7728
  194SOL     OW  580   1.559   2.307   1.006 -0.0827  0.2405  0.3185
  194SOL    HW1  581   1.522   2.344   0.914 -0.6984  2.7238 -0.2425
  194SOL    HW2  582   1.545   2.206   1.017  0.7865  0.7450 -1.5977
  195SOL     OW  583   2.790   0.945   0.546  0.1318  0.2321 -0.7103
  195SOL    HW1  584   2.767   0.850   0.569 -1.4059 -0.2672  0.0585
  195SOL    HW2  585   2.712   1.005   0.564 -0.4364 -3.3944  0.2494
  196SOL     OW  586   0.638   2.454   1.718  0.1532  0.1715  0.1222
  196SOL    HW1  587   0.617   2.528   1.654 -0.6236 -0.5132  0.1421
  196SOL    HW2  588   0.566   2.453   1.790  0.2853 -2.4157  0.4497
  197SOL     OW  589   2.621   0.322   2.548 -0.3261 -0.2223  0.0575
  197SOL    HW1  590   2.583   0.393   2.483 -0.0446 -1.7731  1.9662
  197SOL    HW2  591   2.659   0.247   2.488  2.0856  0.0407 -1.5307
  198SOL     OW  592   2.086   1.523   0.237  0.1402  0.3834 -0.0180
  198SOL    HW1  593   2.168   1.527   0.174 -0.1451 -1.9234  0.9442
  198SOL    HW2  594   2.015   1.590   0.214  1.7726 -0.1498  2.2678
  199SOL     OW  595   2.218   0.577   1.836  0.0757  0.0108 -0.4518
  199SOL    HW1  596   2.252   0.629   1.919  0.9664  1.8488  1.1496
  199SOL    HW2  597   2.286   0.499   1.812 -1.9382  0.3409 -2.5807
  200SOL     OW  598   1.695   0.045   2.765  0.5458  0.1611  0.2856
  200SOL    HW1  599   1.737   0.084   2.850 -0.9276  0.6964  2.2155
  200SOL    HW2  600   1.637   3.074   2.788  0.4812  0.1773  0.8580
  201SOL     OW  601   2.692   0.119   1.305 -0.0385 -0.3505 -0.1056
  201SOL    HW1  602   2.613   0.076   1.265 -1.0198 -1.5266  0.3217
  201SOL    HW2  603   2.703   0.210   1.257 -0.4970  2.6844  0.9334
  202SOL     OW  604   2.913   2.976   0.460 -0.2113 -0.3893 -0.1567
  202SOL    HW1  605   2.911   3.072   0.420  2.7824 -2.0803  1.1263
  202SOL    HW2  606   2.978   2.971   0.540  0.1095  1.7627  1.5353
  203SOL     OW  607   1.739   1.814   0.591 -0.5367  0.1820  0.0744
  203SOL    HW1  608   1.650   1.853   0.600  1.3700 -1.3042 -0.7117
  203SOL    HW2  609   1.817   1.881   0.596 -1.0598  0.4944  0.9054
  204SOL     OW  610   0.392   1.727   2.205  0.5444 -0.5270 -0.2282
  204SOL    HW1  611   0.342   1.730   2.295 -1.4580  2.2602  1.3268
  204SOL    HW2  612   0.369   1.647   2.149 -0.6789  0.4502  0.1998
  205SOL     OW  613   0.834   0.574   0.752  0.5236  0.2005  0.0293
  205SOL    HW1  614   0.873   0.499   0.802 -1.8820  2.4279 -4.7648
  205SOL    HW2  615   0.831   0.559   0.650  0.2673 -1.3464 -0.5085
  206SOL     OW  616   0.508   1.073   2.678  0.9870 -0.2529  0.3383
  206SOL    HW1  617   0.432   1.010   2.662  1.2415  1.8236 -2.2975
  206SOL    HW2  618   0.508   1.118   2.773  2.3905 -0.8699  3.5402
  207SOL     OW  619   1.275   2.407   1.795 -0.2196  0.2782  0.4105
  207SOL    HW1  620   1.280   2.313   1.753  1.2675 -3.4024  0.9320
  207SOL    HW2  621   1.210   2.464   1.743  0.7302 -3.2278  0.1639
  208SOL     OW  622   2.309   0.314   1.294  0.5524 -0.3917 -0.0233
  208SOL    HW1  623   2.368   0.231   1.279 -0.8672 -1.6128 -1.9687
  208SOL    HW2  624   2.293   0.353   1.205 -0.9609 -0.1792  1.5651
  209SOL     OW  625   1.825   0.921   0.747  0.3443  0.0578  0.3659
  209SOL    HW1  626   1.884   0.850   0.786  0.3257 -0.6770 -0.4970
  209SOL    HW2  627   1.817   0.909   0.647 -1.9716 -1.0147  0.5983
  210SOL     OW  628   2.507   1.090   0.630 -0.2084  0.6128 -0.2245
  210SOL    HW1  629   2.485   1.026   0.714 -2.2583 -2.7924  2.6181
  210SOL    HW2  630   2.550   1.176   0.666  0.1094  0.8113  0.5257
  211SOL     OW  631   1.130   3.064   3.057 -0.4845  0.1420 -0.1714
  211SOL    HW1  632   1.095   0.023   0.017 -0.4610  1.3434 -2.8896
  211SOL    HW2  633   1.135   2.971   3.096 -3.1296  0.0515 -0.9722
  212SOL     OW  634   2.002   1.970   0.558  0.0746 -0.1317 -0.0217
  212SOL    HW1  635   2.042   1.996   0.651  1.0992  0.7762 -1.6202
  212SOL    HW2  636   2.056   1.895   0.515 -0.7181  0.3447  1.3805
  213SOL     OW  637   2.403   2.932   0.053 -1.1059  0.1624  0.0501
  213SOL    HW1  638   2.503   2.920   0.037 -1.6088 -2.1053 -0.8337
  213SOL    HW2  639   2.349   2.880   3.089 -0.6578  1.0288  3.0453
  214SOL     OW  640   1.095   2.406   2.151 -0.0569 -0.5107 -0.4451
  214SOL    HW1  641   1.085   2.505   2.149  0.7196 -2.7175  2.3338
  214SOL    HW2  642   1.184   2.380   2.111  0.6084 -1.1450 -1.6917
  215SOL     OW  643   0.260   1.416   1.054  0.0142 -0.4052  0.2437
  215SOL    HW1  644   0.191   1.348   1.078 -3.7173 -1.4999  1.6154
  215SOL    HW2  645   0.273   1.422   0.954  0.6021  0.0280  0.3744
  216SOL     OW  646   0.346   3.009   2.581  0.1002 -0.2833  0.0545
  216SOL    HW1  647   0.349   2.953   2.668  2.3932 -0.8191  1.4260
  216SOL    HW2  648   0.303   3.100   2.590 -0.8956  1.2912 -0.3760
  217SOL     OW  649   2.800   1.452   1.563  0.1661 -0.8340  0.2530
  217SOL    HW1  650   2.887   1.455   1.507 -0.9299  2.1706  1.6335
  217SOL    HW2  651   2.764   1.360   1.572  3.7503  1.0971  2.5419
  218SOL     OW  652   0.899   2.020   1.579 -0.1481 -0.6365 -0.4146
  218SOL    HW1  653   0.818   2.079   1.564 -1.0987 -1.5284 -1.6217
  218SOL    HW2  654   0.931   2.041   1.675  3.3051  0.4996  2.7861
  219SOL     OW  655   2.097   1.912   0.039  0.0558  0.3223 -0.3163
  219SOL    HW1  656   2.184   1.955   0.074 -3.4321  3.3503 -1.5592
  219SOL    HW2  657   2.112   1.822   3.103  1.4487  0.4056  1.3819
  220SOL     OW  658   1.771   0.154   2.992  0.0432 -0.6656 -0.1320
  220SOL    HW1  659   1.870   0.139   2.980  2.2072  0.8525 -2.0169
  220SOL    HW2  660   1.732   0.103   3.071 -2.3963  2.1690  0.8443
  221SOL     OW  661   2.837   0.863   0.110  0.0711 -0.3068 -0.1734
  221SOL    HW1  662   2.815   0.769   0.073 -1.3871 -1.1362 -0.7786
  221SOL    HW2  663   2.863   0.933   0.037 -0.2211  1.8755 -1.8456
  222SOL     OW  664   1.562   1.508   0.721 -0.4825 -0.6625  0.2772
  222SOL    HW1  665   1.576   1.412   0.703 -0.5735  0.7626 -2.6525
  222SOL    HW2  666   1.652   1.557   0.710 -0.1138  0.6693 -2.3772
  223SOL     OW  667   1.042   0.292   2.952  0.6643 -0.3557 -0.5319
  223SOL    HW1  668   1.093   0.234   2.881  3.2079 -1.4077  1.2269
  223SOL    HW2  669   1.031   0.391   2.925  0.3102 -1.7582  1.2630
  224SOL     OW  670   0.967   2.765   1.207 -0.1414  0.4700  0.6012
  224SOL    HW1  671   0.920   2.857   1.213 -0.1707  0.6036 -2.8259
  224SOL    HW2  672   0.912   2.692   1.166  0.8498  1.9503  1.8913
  225SOL     OW  673   0.956   3.010   2.220 -0.4164  0.3634 -0.3188
  225SOL    HW1  674   0.966   3.034   2.121 -2.4265  2.6897 -0.6472
  225SOL    HW2  675   0.919   3.088   2.273 -4.1617 -2.5471  0.0364
  226SOL     OW  676   1.336   1.688   0.662  0.4863  0.6370  0.6207
  226SOL    HW1  677   1.381   1.778   0.667 -1.6540 -2.1023 -1.0720
  226SOL    HW2  678   1.404   1.616   0.686  0.3103  0.4856  0.7798
  227SOL     OW  679   0.314   1.930   1.315 -0.2319 -0.5736  0.9272
  227SOL    HW1  680   0.389   1.886   1.367 -1.3456  0.2431 -0.5972
  227SOL    HW2  681   0.310   1.888   1.225  1.7913  4.3184  3.4818
  228SOL     OW  682   3.059   1.788   0.545 -1.0023 -0.1653 -0.0376
  228SOL    HW1  683   0.046   1.767   0.516 -1.5669 -0.2121 -1.0758
  228SOL    HW2  684   3.056   1.854   0.620  1.2145  0.2721  0.6103
  229SOL     OW  685   2.666   0.009   2.792  0.3991 -0.0336 -0.8328
  229SOL    HW1  686   2.587   0.073   2.788  3.2419 -2.1659  2.8650
  229SOL    HW2  687   2.635   3.021   2.815  1.4671  1.5003 -2.6490
  230SOL     OW  688   2.545   0.520   0.196 -0.2543 -0.4661 -0.5992
  230SOL    HW1  689   2.539   0.619   0.171  1.4888  0.4765 -2.6842
  230SOL    HW2  690   2.450   0.476   0.201 -6.6456 -1.1265 -1.7129
  231SOL     OW  691   1.908   1.727   0.154 -0.3297 -0.2353 -0.2193
  231SOL    HW1  692   1.870   1.711   0.060 -0.0844 -0.4231 -1.6732
  231SOL    HW2  693   1.986   1.791   0.154 -1.0863 -3.1525 -0.0211
  232SOL     OW  694   1.918   2.013   1.029 -0.5721  0.2353 -0.1027
  232SOL    HW1  695   1.933   1.911   1.027  1.8611 -2.9016  0.4171
  232SOL    HW2  696   1.976   2.049   0.956 -0.6868 -0.6140  1.5655
  233SOL     OW  697   0.487   2.831   1.799  0.2126 -0.2331 -0.3417
  233SOL    HW1  698   0.536   2.861   1.885 -0.8646  0.9310 -1.8430
  233SOL    HW2  699   0.408   2.896   1.785 -0.9827 -0.3796 -1.3943
  234SOL     OW  700   0.758   0.255   2.728 -0.0869 -0.6007 -0.2076
  234SOL    HW1  701   0.841   0.276   2.673  1.2914  1.5781  0.7693
  234SOL    HW2  702   0.726   0.342   2.765  1.0511  1.0369  0.5710
  235SOL     OW  703   2.480   1.125   1.771  0.1996 -0.0736  0.1556
  235SOL    HW1  704   2.550   1.052   1.783  0.5283  2.2150 -0.6189
  235SOL    HW2  705   2.442   1.128   1.680 -0.5362 -0.1253  2.9810
  236SOL     OW  706   1.378   2.883   1.515  0.4096 -0.1237  0.3409
  236SOL    HW1  707   1.336   2.885   1.420 -0.3889 -0.7404  0.7258
  236SOL    HW2  708   1.408   2.792   1.553  2.2670  2.5829  0.8800
  237SOL     OW  709   0.575   1.573   2.691  0.3576 -0.0271  0.2794
  237SOL    HW1  710   0.610   1.501   2.625  2.4695 -1.2851 -0.1632
  237SOL    HW2  711   0.537   1.651   2.641  0.5380 -0.8413  1.5456
  238SOL     OW  712   0.901   0.760   2.153  0.3796  0.6293  0.8911
  238SOL    HW1  713   0.997   0.785   2.145  0.9468  1.2024 -0.6086
  238SOL    HW2  714   0.884   0.714   2.244 -0.8576 -0.3502 -3.0125
  239SOL     OW  715   0.914   1.934   2.514 -0.5937  0.0939 -0.5852
  239SOL    HW1  716   0.842   1.949   2.586 -1.2127 -0.4091  0.6603
  239SOL    HW2  717   0.988   2.003   2.521  0.0495 -0.3213  2.5603
  240SOL     OW  718   2.272   2.964   0.321 -0.5005  0.6171  0.5276
  240SOL    HW1  719   2.293   2.947   0.225  0.7835  2.9840  2.6946
  240SOL    HW2  720   2.359   2.951   0.379 -1.1898 -1.6136  1.1465
  241SOL     OW  721   0.431   1.118   0.184 -0.4446 -0.2985 -0.2091
  241SOL    HW1  722   0.484   1.053   0.247  0.0430 -2.4473  1.8225
  241SOL    HW2  723   0.429   1.220   0.211 -0.2457  3.1961 -1.6989
  242SOL     OW  724   1.486   2.637   1.564  0.2898 -0.3190 -0.2483
  242SOL    HW1  725   1.479   2.546   1.522 -1.6641  0.3634  0.0362
  242SOL    HW2  726   1.580   2.671   1.565  1.5610 -0.2058 -2.9165
  243SOL     OW  727   0.837   2.537   1.895  0.4014  0.0588  0.6513
  243SOL    HW1  728   0.896   2.590   1.830 -0.1585 -3.1086  2.5106
  243SOL    HW2  729   0.755   2.494   1.845 -1.4052 -0.4509  0.9730
  244SOL     OW  730   2.278   0.584   2.569 -0.0542 -0.1544  0.3339
  244SOL    HW1  731   2.222   0.646   2.516 -2.4133 -2.7511 -0.8187
  244SOL    HW2  732   2.362   0.635   2.598 -0.1758 -1.2857  0.0826
  245SOL     OW  733   1.644   2.411   1.241  0.1888 -0.7704 -0.1766
  245SOL    HW1  734   1.628   2.340   1.310 -0.5752  1.8242 -0.5075
  245SOL    HW2  735   1.626   2.374   1.146  1.5550 -2.7120  3.1838
  246SOL     OW  736   1.489   3.045   0.267  0.1243  0.0175 -0.4216
  246SOL    HW1  737   1.563   3.003   0.325 -2.8812  0.1209 -0.9101
  246SOL    HW2  738   1.482   0.036   0.295 -3.4419 -2.7566 -0.0800
  247SOL     OW  739   1.700   0.391   1.787  0.4716 -0.2082  0.5760
  247SOL    HW1  740   1.714   0.423   1.692  1.7774 -0.2816  0.7616
  247SOL    HW2  741   1.782   0.347   1.829 -0.3323 -0.6565 -2.8777
  248SOL     OW  742   0.127   2.080   1.429  0.4044 -0.0189 -0.1498
  248SOL    HW1  743   0.205   2.033   1.386  1.2603  3.3713 -0.7732
  248SOL    HW2  744   0.079   2.017   1.492 -1.5877  0.2611  2.5571
  249SOL     OW  745   0.490   0.365   0.301  0.1862  0.6399 -0.0636
  249SOL    HW1  746   0.501   0.426   0.383  1.9589  1.1789  0.3507
  249SOL    HW2  747   0.479   0.265   0.323 -1.2741 -0.6300 -0.3230
  250SOL     OW  748   2.396   0.219   2.245  0.5037  0.2991  0.4459
  250SOL    HW1  749   2.342   0.259   2.321  2.3073 -0.3481 -3.4374
  250SOL    HW2  750   2.415   0.295   2.176  1.9984  0.0660 -2.5881
  251SOL     OW  751   1.286   0.649   3.040  0.2019  0.3313 -0.6355
  251SOL    HW1  752   1.295   0.720   3.104  1.0731 -1.5754 -1.9704
  251SOL    HW2  753   1.236   0.688   2.961 -0.3345  1.0445  0.7828
  252SOL     OW  754   1.279   2.679   2.079  0.3284  0.2771 -0.1731
  252SOL    HW1  755   1.303   2.709   2.169 -2.2932 -0.5945 -0.0330
  252SOL    HW2  756   1.358   2.684   2.013  1.6613  3.1831 -2.3823
  253SOL     OW  757   2.783   2.559   0.615  0.0148 -0.2062 -0.5098
  253SOL    HW1  758   2.719   2.590   0.691 -3.3924 -1.7425  0.1973
  253SOL    HW2  759   2.774   2.617   0.530  1.0047 -3.7186 -0.8257
  254SOL     OW  760   2.371   1.238   1.160  0.2326 -0.5169  0.0670
  254SOL    HW1  761   2.419   1.278   1.240  0.5261 -0.5265 -2.3707
  254SOL    HW2  762   2.368   1.311   1.092 -0.2145  1.5539  0.7231
  255SOL     OW  763   0.658   2.778   1.335  0.1638  0.1213  0.2043
  255SOL    HW1  764   0.690   2.847   1.270 -0.2767 -0.6835  0.9560
  255SOL    HW2  765   0.701   2.691   1.311 -2.6429  1.5978  2.3870
  256SOL     OW  766   2.181   1.715   1.749 -0.1593  0.1216  0.6479
  256SOL    HW1  767   2.113   1.643   1.772 -0.7277  1.3533 -2.2851
  256SOL    HW2  768   2.271   1.676   1.728 -2.9719 -0.8659 -2.1641
  257SOL     OW  769   0.278   2.377   2.719 -0.0634 -0.3481  0.3873
  257SOL    HW1  770   0.365   2.349   2.764  1.4872  2.4323  0.4122
  257SOL    HW2  771   0.224   2.443   2.771  1.9211  0.1030 -1.1950
  258SOL     OW  772   0.512   2.527   1.015 -0.1528  0.8288 -0.3247
  258SOL    HW1  773   0.454   2.455   1.059 -1.1532  0.6215 -0.6182
  258SOL    HW2  774   0.468   2.620   1.019 -0.1172  0.4182 -0.8829
  259SOL     OW  775   1.366   0.599   2.672  0.0529  0.3816  0.1436
  259SOL    HW1  776   1.427   0.651   2.726 -3.1199 -2.6435 -1.5552
  259SOL    HW2  777   1.419   0.556   2.594  1.0233  1.7372  2.5611
  260SOL     OW  778   0.281   0.329   1.162  0.0288 -0.8801 -0.1587
  260SOL    HW1  779   0.285   0.227   1.162 -0.1747 -2.2785  1.4381
  260SOL    HW2  780   0.304   0.366   1.070 -2.4741  2.2992 -2.5289
  261SOL     OW  781   0.870   0.105   2.477 -0.4248  0.0035  0.1019
  261SOL    HW1  782   0.840   0.029   2.539 -0.5115  1.7946  0.5553
  261SOL    HW2  783   0.935   0.166   2.526  1.2504  1.3054  0.1963
  262SOL     OW  784   1.165   2.807   1.877 -0.1321 -0.2805  0.3278
  262SOL    HW1  785   1.206   2.753   1.949 -1.9255  0.2375  0.3510
  262SOL    HW2  786   1.087   2.757   1.840  0.0496  0.4849  2.6883
  263SOL     OW  787   0.716   2.194   3.033 -0.3919 -0.3302  0.2130
  263SOL    HW1  788   0.694   2.285   3.073 -0.8021 -1.5739  1.0369
  263SOL    HW2  789   0.820   2.169   3.032 -0.4774  0.5209 -2.0805
  264SOL     OW  790   1.551   1.688   0.964  0.7707 -0.3305 -0.3149
  264SOL    HW1  791   1.585   1.781   0.933  3.5243 -1.4233  1.3655
  264SOL    HW2  792   1.580   1.616   0.898 -0.3413  0.5308 -1.3553
  265SOL     OW  793   0.968   2.169   0.404 -0.3513  0.2438  0.3060
  265SOL    HW1  794   1.021   2.150   0.319 -0.2878 -0.3906  0.4640
  265SOL    HW2  795   0.879   2.129   0.383 -0.0068 -0.1968  2.1542
  266SOL     OW  796   2.885   0.878   0.976  0.3464 -0.0566  0.1096
  266SOL    HW1  797   2.802   0.822   0.998 -0.2649 -0.4191 -0.7817
  266SOL    HW2  798   2.958   0.858   1.040 -1.7730 -0.5666  0.9188
  267SOL     OW  799   3.105   1.638   0.207  0.4234  0.4534 -0.5885
  267SOL    HW1  800   0.016   1.575   0.287 -0.9331  1.0461  3.0289
  267SOL    HW2  801   0.089   1.665   0.166 -0.6762 -0.5709 -0.0951
  268SOL     OW  802   1.388   0.462   0.381  0.2149 -0.0080 -0.4442
  268SOL    HW1  803   1.307   0.455   0.318 -1.8535  2.5159 -3.8842
  268SOL    HW2  804   1.403   0.559   0.405 -3.1525  1.1712  0.4785
  269SOL     OW  805   2.628   0.654   1.986 -0.1010  0.3930 -0.2141
  269SOL    HW1  806   2.718   0.690   2.025  1.3631  0.7494 -1.1754
  269SOL    HW2  807   2.639   0.554   1.966  2.1347 -0.6392 -0.6754
  270SOL     OW  808   2.976   0.858   0.343  0.1866 -0.3062 -0.2437
  270SOL    HW1  809   2.963   0.921   0.423  0.6608 -0.2507  1.6941
  270SOL    HW2  810   2.917   0.881   0.260 -0.9255 -0.8418  1.2074
  271SOL     OW  811   0.081   1.126   2.251  0.5272 -0.5712  0.0643
  271SOL    HW1  812   3.103   1.181   2.233  1.4901 -0.3915 -0.0903
  271SOL    HW2  813   0.152   1.135   2.179 -1.1040 -1.3310 -3.1853
  272SOL     OW  814   2.650   2.232   1.854  0.4588 -0.3780 -0.1134
  272SOL    HW1  815   2.735   2.268   1.887 -1.8751 -1.1266 -3.0355
  272SOL    HW2  816   2.628   2.141   1.894 -1.4084 -0.1305  1.6349
  273SOL     OW  817   0.076   2.371   0.067 -0.2008 -0.2102  0.0846
  273SOL    HW1  818   0.144   2.322   0.009 -1.9770 -1.2856 -1.2944
  273SOL    HW2  819   0.012   2.422   0.009  0.8104 -2.2150  2.1145
  274SOL     OW  820   0.752   2.153   0.960  0.2400  0.0488  0.3626
  274SOL    HW1  821   0.692   2.224   0.917 -2.0847 -2.0133 -1.7781
  274SOL    HW2  822   0.821   2.106   0.899 -3.2946  0.6644 -1.4538
  275SOL     OW  823   1.273   1.905   2.555 -0.0263  0.4278  0.1024
  275SOL    HW1  824   1.234   1.991   2.512 -2.8249 -1.3131 -0.0352
  275SOL    HW2  825   1.372   1.896   2.566 -2.0898  3.3345  1.0149
  276SOL     OW  826   2.930   1.552   2.085  0.3954 -0.0846 -0.1067
  276SOL    HW1  827   2.923   1.532   1.987 -0.9502  0.0457  0.7371
  276SOL    HW2  828   2.865   1.628   2.116  0.0449  0.5997 -0.6869
  277SOL     OW  829   2.168   0.230   0.791  0.2909 -0.1156  0.2374
  277SOL    HW1  830   2.208   0.310   0.747 -2.4085  1.8000 -3.1444
  277SOL    HW2  831   2.121   0.176   0.724  1.7511  0.8969 -0.7367
  278SOL     OW  832   1.278   0.228   2.347  0.2553  0.9866 -0.1527
  278SOL    HW1  833   1.301   0.184   2.436  0.0136  2.7024  0.8258
  278SOL    HW2  834   1.214   0.306   2.358 -1.6103  1.6670 -2.1101
  279SOL     OW  835   1.244   2.764   1.046  0.5143 -0.2082 -0.6776
  279SOL    HW1  836   1.326   2.744   1.109  1.1680 -1.5326  1.4913
  279SOL    HW2  837   1.160   2.760   1.097  1.3562 -0.3641  0.1101
  280SOL     OW  838   1.186   1.235   0.639  0.1201 -0.1764 -0.2695
  280SOL    HW1  839   1.176   1.162   0.566  1.5287 -2.4264 -1.7150
  280SOL    HW2  840   1.110   1.246   0.708 -3.2974  0.9534  1.7891
  281SOL     OW  841   2.102   1.709   0.468  0.2107 -0.0688  0.0682
  281SOL    HW1  842   2.112   1.672   0.563  0.1727 -1.5543 -0.0592
  281SOL    HW2  843   2.079   1.635   0.399  1.6385 -0.3728 -0.5968
  282SOL     OW  844   2.929   1.397   0.406  0.2513 -0.3391  0.2708
  282SOL    HW1  845   2.942   1.321   0.339 -1.2396  0.7257 -1.0709
  282SOL    HW2  846   2.912   1.480   0.352  1.6269  0.8022  1.3865
  283SOL     OW  847   1.676   2.738   2.764 -0.6048 -0.1204 -0.2478
  283SOL    HW1  848   1.637   2.651   2.801 -0.1209  1.1372  0.1596
  283SOL    HW2  849   1.771   2.729   2.732  1.5873 -1.6704 -0.8786
  284SOL     OW  850   0.514   0.297   2.487  0.2693 -0.0089  0.0331
  284SOL    HW1  851   0.594   0.271   2.538 -1.9785 -1.3605 -0.2422
  284SOL    HW2  852   0.433   0.321   2.552 -1.0911 -0.0987  1.3773
  285SOL     OW  853   1.828   1.608   3.041  0.0670 -0.1837  0.4221
  285SOL    HW1  854   1.731   1.615   3.013  1.1745 -0.9961  0.2194
  285SOL    HW2  855   1.888   1.571   2.967 -3.1347  0.8918  1.1410
  286SOL     OW  856   1.476   1.969   1.748  0.2682  0.4161 -0.4632
  286SOL    HW1  857   1.409   2.016   1.691 -0.5798 -2.2671  1.5923
  286SOL    HW2  858   1.494   2.028   1.829 -1.0778  0.2547 -1.7255
  287SOL     OW  859   1.857   2.957   1.295 -0.2686  0.4705 -0.1496
  287SOL    HW1  860   1.794   2.934   1.374 -1.0597  1.4301  0.7575
  287SOL    HW2  861   1.810   3.023   1.236 -0.7856 -1.0686 -0.0656
  288SOL     OW  862   0.503   2.678   2.066 -0.2110  0.0321  0.2919
  288SOL    HW1  863   0.478   2.643   1.973  1.1856 -1.4443 -1.7324
  288SOL    HW2  864   0.602   2.666   2.090  0.2635  0.9072 -0.8164
  289SOL     OW  865   0.143   1.766   0.809  0.5948 -0.1939 -0.2955
  289SOL    HW1  866   0.169   1.745   0.906  0.6527 -2.0370  1.3933
  289SOL    HW2  867   0.092   1.855   0.804 -2.1047  3.2967  1.0850
  290SOL     OW  868   1.027   2.111   1.803 -1.0271  0.1254 -0.1158
  290SOL    HW1  869   1.022   2.028   1.859  0.0916 -0.0047  1.6167
  290SOL    HW2  870   0.983   2.186   1.848  3.5861 -1.8102  1.1920
  291SOL     OW  871   1.741   0.222   0.430  0.4867  0.0553  0.6495
  291SOL    HW1  872   1.640   0.215   0.398  1.9838  1.1246  2.3681
  291SOL    HW2  873   1.802   0.173   0.367  2.4189  3.5943 -0.6136
  292SOL     OW  874   0.472   0.349   1.369 -0.1627  0.4355 -0.5240
  292SOL    HW1  875   0.416   0.325   1.287 -0.4229 -2.7241  1.8682
  292SOL    HW2  876   0.479   0.265   1.427  1.4885  0.9908  0.5607
  293SOL     OW  877   2.375   1.450   0.979 -0.4859  0.1124 -0.4054
  293SOL    HW1  878   2.457   1.501   1.013  4.0410  2.4561  2.1783
  293SOL    HW2  879   2.383   1.431   0.879 -3.2909 -0.0458  3.9341
  294SOL     OW  880   0.443   0.142   2.274  0.3267  0.3545  0.3078
  294SOL    HW1  881   0.465   0.041   2.282 -0.9093 -2.0344  0.3048
  294SOL    HW2  882   0.455   0.194   2.363 -0.0434  1.0687  0.6888
  295SOL     OW  883   0.991   1.452   0.373 -0.2767  0.4036  0.2811
  295SOL    HW1  884   1.078   1.428   0.423 -1.0420 -1.5976 -1.3892
  295SOL    HW2  885   0.927   1.375   0.390  1.6512 -1.2878  1.6967
  296SOL     OW  886   2.212   1.088   0.840 -0.0277  0.4225  0.6348
  296SOL    HW1  887   2.115   1.075   0.865  1.2393  1.4427  2.6115
  296SOL    HW2  888   2.222   1.186   0.835  1.1022 -0.0678 -0.1574
  297SOL     OW  889   1.816   0.658   2.553 -0.7442 -0.4862  0.2502
  297SOL    HW1  890   1.812   0.758   2.555  2.6114 -1.7472  1.3603
  297SOL    HW2  891   1.840   0.623   2.461 -3.5306  1.1100 -0.7608
  298SOL     OW  892   1.015   0.295   2.590 -0.3763 -0.9893 -0.3779
  298SOL    HW1  893   1.099   0.263   2.645  0.1476 -0.7729 -0.4241
  298SOL    HW2  894   1.050   0.360   2.519  0.9287 -0.2677 -0.2418
  299SOL     OW  895   1.399   0.488   2.022  0.1951  0.0032 -0.7248
  299SOL    HW1  896   1.417   0.591   2.037  0.8668  2.4148  0.2119
  299SOL    HW2  897   1.314   0.464   2.075  1.5157 -2.7267  0.6801
  300SOL     OW  898   2.565   0.102   1.826  0.2602 -0.7317 -0.0247
  300SOL    HW1  899   2.503   0.085   1.748  1.8831 -0.6452 -0.7873
  300SOL    HW2  900   2.640   0.171   1.805  1.3784 -1.4338  0.3042
  301SOL     OW  901   1.649   0.755   1.614 -0.3976  0.1792  0.2115
  301SOL    HW1  902   1.609   0.827   1.548 -1.0603 -0.6166  0.2212
  301SOL    HW2  903   1.701   0.803   1.684 -0.8883  0.6895 -0.6705
  302SOL     OW  904   0.566   2.679   2.692 -0.3023 -0.3448  0.0290
  302SOL    HW1  905   0.530   2.618   2.621  1.0054  0.5773 -0.9303
  302SOL    HW2  906   0.641   2.739   2.659  1.3469  1.0084  0.9489
  303SOL     OW  907   1.945   1.906   1.735 -0.0727  0.4758  0.0096
  303SOL    HW1  908   2.036   1.870   1.769  1.1552 -1.5013  0.0087
  303SOL    HW2  909   1.876   1.834   1.736  0.5441 -0.0225 -0.0237
  304SOL     OW  910   0.284   2.992   0.700  0.5721  0.2498  0.0199
  304SOL    HW1  911   0.386   2.985   0.695  4.0057  1.1195  1.2571
  304SOL    HW2  912   0.241   2.903   0.728  0.1460  1.4205 -1.1086
  305SOL     OW  913   1.437   0.752   0.410 -0.4395 -0.4787 -0.2789
  305SOL    HW1  914   1.404   0.843   0.384 -0.2598  2.3383 -0.0753
  305SOL    HW2  915   1.466   0.757   0.509 -2.1047 -1.0423  0.0267
  306SOL     OW  916   0.526   1.390   0.017 -0.2701  0.5227  0.1927
  306SOL    HW1  917   0.625   1.390   0.024 -2.0693  0.0728 -2.7531
  306SOL    HW2  918   0.483   1.400   0.114 -1.0525  1.5470 -1.4803
  307SOL     OW  919   0.669   0.764   1.998 -0.6037  0.5308 -0.6719
  307SOL    HW1  920   0.753   0.751   2.056  2.4676 -2.2197  3.3907
  307SOL    HW2  921   0.683   0.733   1.902  1.5734 -2.1622 -1.9332
  308SOL     OW  922   0.808   0.142   1.183 -0.2594  0.0010  0.6677
  308SOL    HW1  923   0.775   0.155   1.084 -1.1412  1.5934  0.3776
  308SOL    HW2  924   0.841   0.232   1.209 -0.5759  0.4059  2.6414
  309SOL     OW  925   2.209   0.881   3.060  0.3229  0.0803 -0.1009
  309SOL    HW1  926   2.308   0.864   3.049 -2.0185  0.4266  0.4381
  309SOL    HW2  927   2.188   0.983   3.039 -1.1015  0.7771 -1.7855
  310SOL     OW  928   1.257   1.190   0.043  0.7228  0.3136 -0.1904
  310SOL    HW1  929   1.193   1.260   3.103 -0.3008 -2.8458  2.8929
  310SOL    HW2  930   1.297   1.227   0.132  0.6859 -2.3205  2.0690
  311SOL     OW  931   1.630   2.504   2.497 -0.1156  0.4511  0.5052
  311SOL    HW1  932   1.559   2.501   2.420 -0.9904 -0.0382 -2.0493
  311SOL    HW2  933   1.692   2.585   2.486 -0.5509  2.0215  1.7346
  312SOL     OW  934   2.062   2.996   2.987  0.4382  0.9707 -0.1088
  312SOL    HW1  935   2.087   3.097   2.987  0.1836 -0.3013  0.2385
  312SOL    HW2  936   1.964   2.984   3.010 -0.9164 -1.8984  2.2480
  313SOL     OW  937   0.697   0.631   0.443  0.7532  0.2771 -0.4861
  313SOL    HW1  938   0.628   0.655   0.372  0.7162  2.0431 -0.2742
  313SOL    HW2  939   0.755   0.710   0.468 -0.7477  0.0836 -1.4893
  314SOL     OW  940   2.521   1.382   2.919 -0.3718 -0.4911 -0.0023
  314SOL    HW1  941   2.476   1.350   2.836 -1.4651 -0.7715 -1.5511
  314SOL    HW2  942   2.574   1.467   2.894  0.6699 -0.3652 -2.4232
  315SOL     OW  943   1.815   0.814   1.821  0.7514  0.5021 -0.3339
  315SOL    HW1  944   1.814   0.721   1.862  0.0273 -0.0376  0.1066
  315SOL    HW2  945   1.813   0.887   1.892  0.5199  2.4826 -3.7609
  316SOL     OW  946   0.104   0.735   0.716  0.7604  0.0249 -0.4966
  316SOL    HW1  947   0.029   0.800   0.692 -1.3318  0.8851 -0.2809
  316SOL    HW2  948   0.163   0.726   0.631  0.8889 -3.2361 -1.4123
  317SOL     OW  949   0.755   0.212   0.220  0.1250 -0.0394  0.3353
  317SOL    HW1  950   0.706   0.280   0.166  0.4266 -1.5006  1.8996
  317SOL    HW2  951   0.776   0.130   0.162  0.5735  0.7941 -2.2714
  318SOL     OW  952   2.571   2.852   1.314 -0.2106 -0.2962 -0.9705
  318SOL    HW1  953   2.578   2.899   1.407  1.0112  0.4493  0.2419
  318SOL    HW2  954   2.573   2.754   1.329  1.9286  0.1876  0.3017
  319SOL     OW  955   1.246   1.443   0.496  1.0401  0.2796  0.2120
  319SOL    HW1  956   1.234   1.367   0.565  0.1788  0.7765 -0.4290
  319SOL    HW2  957   1.288   1.529   0.539  0.0861  2.3190  0.7473
  320SOL     OW  958   0.622   2.261   1.188  0.2704  0.3529  0.3568
  320SOL    HW1  959   0.523   2.284   1.174 -0.2076  3.0086 -2.5856
  320SOL    HW2  960   0.669   2.225   1.103  0.0618 -0.8136 -0.1185
  321SOL     OW  961   2.057   2.646   2.483  0.1197  0.3066  0.3241
  321SOL    HW1  962   2.020   2.643   2.581  0.3779 -0.4404 -0.8691
  321SOL    HW2  963   1.983   2.636   2.415 -0.5757 -0.4841 -1.8188
  322SOL     OW  964   2.835   2.459   2.417 -0.2429 -0.6028 -0.2691
  322SOL    HW1  965   2.923   2.427   2.457 -0.7882 -0.1292  0.1644
  322SOL    HW2  966   2.785   2.520   2.480  0.9189 -2.2224  1.2416
  323SOL     OW  967   2.698   0.571   0.813  0.5099  1.0459  0.3432
  323SOL    HW1  968   2.775   0.515   0.854 -0.8793  0.1407  0.0450
  323SOL    HW2  969   2.738   0.619   0.732  0.8801 -0.2042  0.6505
  324SOL     OW  970   2.475   2.017   2.509  0.2424  0.0444  0.0015
  324SOL    HW1  971   2.471   1.998   2.411  0.9101  0.9713  0.7827
  324SOL    HW2  972   2.398   1.985   2.565 -0.3521  0.9259 -0.5655
  325SOL     OW  973   1.508   0.540   2.449 -0.0634  0.5722 -0.2304
  325SOL    HW1  974   1.495   0.632   2.396 -0.2870  3.3054  0.9747
  325SOL    HW2  975   1.518   0.455   2.390 -3.0876  2.3361 -0.8597
  326SOL     OW  976   2.819   2.294   0.568  0.1017  0.1013  0.5290
  326SOL    HW1  977   2.810   2.392   0.588 -2.7474 -1.0581  0.0464
  326SOL    HW2  978   2.910   2.263   0.538 -1.1037  1.7022  1.2757
  327SOL     OW  979   2.536   2.876   2.861 -0.1665 -0.1747  0.3805
  327SOL    HW1  980   2.454   2.834   2.902  0.2940  2.6010  3.1612
  327SOL    HW2  981   2.619   2.817   2.857 -2.4989 -0.8075 -1.7816
  328SOL     OW  982   1.001   0.393   0.518  0.0544  0.4558 -0.1459
  328SOL    HW1  983   0.905   0.391   0.489  1.3892 -0.4248  2.4398
  328SOL    HW2  984   1.063   0.418   0.441  3.1686 -1.2035 -0.4218
  329SOL     OW  985   2.063   0.881   1.401 -0.1044 -0.1275  0.1875
  329SOL    HW1  986   1.999   0.928   1.462 -1.6729 -0.6999 -0.3193
  329SOL    HW2  987   2.145   0.850   1.453 -1.5715  1.2945 -0.0201
  330SOL     OW  988   1.196   0.234   0.640 -0.0296  0.5010 -0.1652
  330SOL    HW1  989   1.114   0.271   0.590 -1.8548  1.2842 -0.5158
  330SOL    HW2  990   1.261   0.309   0.672 -0.3868  1.5729  1.6385
  331SOL     OW  991   0.562   2.085   1.914 -0.2752  0.3079  0.4315
  331SOL    HW1  992   0.523   2.149   1.983 -0.0845  1.3234  0.7591
  331SOL    HW2  993   0.630   2.023   1.954  0.0635 -3.0772  1.7396
  332SOL     OW  994   2.396   2.251   1.728 -0.0862 -0.1091  0.4627
  332SOL    HW1  995   2.480   2.291   1.765 -0.9911 -1.1655 -1.2864
  332SOL    HW2  996   2.376   2.166   1.778  2.7188  0.5235 -1.2975
  333SOL     OW  997   2.722   2.899   1.088 -0.2044  0.1800 -0.1666
  333SOL    HW1  998   2.671   2.880   1.176 -0.8204  0.3401  1.4874
  333SOL    HW2  999   2.732   2.998   1.073  0.7819 -2.4794  2.2348
  334SOL     OW 1000   3.058   1.518   0.951 -0.1634 -0.0334 -0.8676
  334SOL    HW1 1001   3.056   1.602   1.006 -0.3058  2.2267 -0.6003
  334SOL    HW2 1002   3.002   1.541   0.869  0.5693 -1.8633 -0.1186
  335SOL     OW 1003   0.370   2.851   2.804  0.4105  0.0187 -0.4499
  335SOL    HW1 1004   0.316   2.802   2.872 -0.2425  0.0877  1.7573
  335SOL    HW2 1005   0.458   2.806   2.781 -1.3846  2.7655  1.0196
  336SOL     OW 1006   0.128   2.863   1.705 -0.1950 -0.1666  0.1650
  336SOL    HW1 1007   0.099   2.962   1.696 -0.1691  0.2955  0.5288
  336SOL    HW2 1008   0.075   2.818   1.782  0.1079 -0.5867 -1.2597
  337SOL     OW 1009   1.119   2.129   2.476 -0.4809 -0.3198  0.1082
  337SOL    HW1 1010   1.137   2.156   2.383  1.1042  0.8678  3.2149
  337SOL    HW2 1011   1.119   2.204   2.546  2.0199  0.7200 -0.8146
  338SOL     OW 1012   1.044   2.823   2.630  0.3759  0.1336 -0.1532
  338SOL    HW1 1013   1.085   2.848   2.541 -1.6487  0.0150  1.2254
  338SOL    HW2 1014   1.026   2.900   2.694  0.2015  0.2140 -2.2750
  339SOL     OW 1015   0.023   1.451   2.868  0.2807  0.0019  0.5730
  339SOL    HW1 1016   0.056   1.509   2.790  1.0633  1.7632 -2.2413
  339SOL    HW2 1017   0.098   1.394   2.904  0.5999  0.6753  0.3215
  340SOL     OW 1018   2.034   0.610   1.365 -0.5517  0.7193  0.2782
  340SOL    HW1 1019   2.036   0.707   1.363  1.4688 -2.2440  0.9913
  340SOL    HW2 1020   2.123   0.569   1.400  1.6631  0.2534 -2.2152
  341SOL     OW 1021   1.945   1.107   0.893 -0.0108  0.2026 -0.9038
  341SOL    HW1 1022   1.941   1.198   0.843  0.1542 -2.0424  1.2441
  341SOL    HW2 1023   1.883   1.038   0.857 -1.4091 -1.6467  0.2991
  342SOL     OW 1024   2.048   2.334   2.572 -0.3178 -0.3332  0.0297
  342SOL    HW1 1025   2.122   2.284   2.624  1.7369  0.2738  0.4266
  342SOL    HW2 1026   2.092   2.409   2.517 -0.2190  1.2940 -1.8485
  343SOL     OW 1027   0.106   2.540   0.916 -0.5460  0.1784  0.0328
  343SOL    HW1 1028   0.150   2.620   0.870  0.5925  1.5981  1.3315
  343SOL    HW2 1029   0.094   2.565   1.014 -0.8809 -0.8359 -0.7357
  344SOL     OW 1030   2.611   2.641   0.821  0.1344  0.2090 -0.0417
  344SOL    HW1 1031   2.601   2.737   0.791  2.3344  0.7558  1.7935
  344SOL    HW2 1032   2.654   2.626   0.913 -0.7436  0.1509  0.1338
  345SOL     OW 1033   2.365   2.268   0.579 -0.0190  0.1549 -0.1411
  345SOL    HW1 1034   2.285   2.274   0.515 -0.8817  0.7901 -1.1849
  345SOL    HW2 1035   2.391   2.362   0.606  1.1559 -0.0144  1.2683
  346SOL     OW 1036   1.253   2.186   1.662  0.1138 -0.2653 -0.4237
  346SOL    HW1 1037   1.161   2.161   1.700 -2.7695 -0.2504 -2.9147
  346SOL    HW2 1038   1.263   2.130   1.580  1.6004  1.0455  1.2296
  347SOL     OW 1039   1.434   2.022   2.252 -0.1429  0.1119  0.8434
  347SOL    HW1 1040   1.494   1.941   2.227  1.7152  0.8159 -0.0988
  347SOL    HW2 1041   1.491   2.097   2.296 -1.0102  0.9700  1.6319
  348SOL     OW 1042   0.566   1.847   1.421 -0.1441 -0.2642  0.4613
  348SOL    HW1 1043   0.580   1.753   1.398 -0.2037  1.3765 -0.1479
  348SOL    HW2 1044   0.620   1.902   1.355  0.6960 -0.9583  3.7882
  349SOL     OW 1045   1.825   1.583   1.388 -0.1242  0.5307 -0.1191
  349SOL    HW1 1046   1.754   1.607   1.455 -0.4806 -2.2068 -2.6839
  349SOL    HW2 1047   1.788   1.574   1.294  1.2939  0.4890 -1.3251
  350SOL     OW 1048   2.518   2.291   0.873 -0.4668  0.2933  0.1549
  350SOL    HW1 1049   2.426   2.274   0.916 -1.3015  1.5216 -0.6144
  350SOL    HW2 1050   2.516   2.361   0.798  1.5270 -1.8419  2.1654
  351SOL     OW 1051   0.422   0.065   1.793 -0.2182  0.3706 -0.1491
  351SOL    HW1 1052   0.476   0.102   1.869 -1.0480  0.4860 -0.1910
  351SOL    HW2 1053   0.328   0.097   1.799 -0.8287 -1.5383  3.8954
  352SOL     OW 1054   0.834   0.989   0.202  0.2906 -0.2338  0.5181
  352SOL    HW1 1055   0.860   0.922   0.270  2.9249  0.6152  0.0394
  352SOL    HW2 1056   0.742   0.970   0.164  0.4509 -0.2346  0.5255
  353SOL     OW 1057   0.707   1.625   2.955 -0.7178  0.0669 -0.7815
  353SOL    HW1 1058   0.759   1.697   2.902  1.2255  0.1756 -1.3996
  353SOL    HW2 1059   0.646   1.566   2.898  1.5242 -0.0746 -0.9279
  354SOL     OW 1060   1.810   2.384   1.865 -0.2326 -0.1260  0.5182
  354SOL    HW1 1061   1.808   2.449   1.789 -1.2483 -3.2959 -0.2321
  354SOL    HW2 1062   1.861   2.302   1.838 -1.9370  1.3529 -0.0698
  355SOL     OW 1063   2.096   0.650   2.969  0.0444  0.0655  0.1994
  355SOL    HW1 1064   2.079   0.673   2.870 -0.9542  0.3701 -4.5582
  355SOL    HW2 1065   2.157   0.720   3.013  1.2584  0.0652  0.7527
  356SOL     OW 1066   0.701   2.019   1.279  0.0023 -0.5748  0.0819
  356SOL    HW1 1067   0.661   2.111   1.264 -0.8685 -0.3287  0.0435
  356SOL    HW2 1068   0.802   2.024   1.261  2.4778 -0.3385  1.1416
  357SOL     OW 1069   0.180   0.193   1.793  0.3191  0.6840 -0.0812
  357SOL    HW1 1070   0.128   0.222   1.876  2.3240 -1.1704  0.8580
  357SOL    HW2 1071   0.254   0.256   1.771 -1.3753  0.9739 -0.7839
  358SOL     OW 1072   2.453   1.868   1.591 -0.0186 -0.1475  0.1081
  358SOL    HW1 1073   2.361   1.900   1.590 -0.4090  0.8211 -1.1366
  358SOL    HW2 1074   2.526   1.938   1.583 -2.0404  0.0025 -0.8280
  359SOL     OW 1075   1.967   2.095   2.402  0.0114  0.6006 -0.1257
  359SOL    HW1 1076   1.920   2.132   2.318  2.8693  0.9825 -0.1338
  359SOL    HW2 1077   2.003   2.175   2.454 -0.0386  2.8652 -0.6996
  360SOL     OW 1078   1.304   2.588   0.820 -0.5771  0.1002  0.3605
  360SOL    HW1 1079   1.244   2.635   0.885 -0.9032 -0.2783  0.7284
  360SOL    HW2 1080   1.357   2.653   0.761  0.8939  2.3067  1.2274
  361SOL     OW 1081   1.885   0.075   0.234  0.4099  0.1842  0.1492
  361SOL    HW1 1082   1.808   0.058   0.169  0.4007 -0.8094 -1.2930
  361SOL    HW2 1083   1.905   3.105   0.293  1.3487  2.8030 -1.9686
  362SOL     OW 1084   1.541   0.967   1.459 -0.1687 -0.1801 -0.2137
  362SOL    HW1 1085   1.584   1.035   1.397 -0.5416 -0.4123  0.1976
  362SOL    HW2 1086   1.457   0.923   1.420 -0.1893  2.2798  0.5764
  363SOL     OW 1087   1.859   1.657   2.214  0.1908 -0.1347 -0.1702
  363SOL    HW1 1088   1.791   1.585   2.237  0.2129  2.9533  0.5504
  363SOL    HW2 1089   1.925   1.615   2.143 -0.7943  1.4711 -1.5477
  364SOL     OW 1090   0.586   0.583   1.465 -0.2451  0.0157  0.3000
  364SOL    HW1 1091   0.527   0.505   1.437 -0.7980  0.1331  2.2654
  364SOL    HW2 1092   0.636   0.613   1.382 -0.6527  0.9182 -0.5405
  365SOL     OW 1093   0.775   0.817   2.750  0.3069  0.3993 -0.0015
  365SOL    HW1 1094   0.740   0.883   2.676 -0.2336  2.5267 -0.5169
  365SOL    HW2 1095   0.848   0.860   2.802 -0.6150  0.1648  1.3045
  366SOL     OW 1096   2.083   1.306   2.796  0.0081 -0.0911 -0.5296
  366SOL    HW1 1097   2.093   1.268   2.889  0.6508  0.2612  0.6718
  366SOL    HW2 1098   2.029   1.393   2.795  0.6584  1.2243 -3.4261
  367SOL     OW 1099   2.997   2.656   2.198  0.3885 -0.4914 -0.4306
  367SOL    HW1 1100   2.949   2.638   2.288 -1.1357  0.1276  1.9402
  367SOL    HW2 1101   2.950   2.729   2.145 -1.4848  0.2416  2.7090
  368SOL     OW 1102   3.049   1.194   1.261 -0.3478  0.3175  0.0821
  368SOL    HW1 1103   3.091   1.194   1.353 -2.3711  0.6204 -0.5038
  368SOL    HW2 1104   2.956   1.157   1.263 -4.2190  3.0822 -0.9854
  369SOL     OW 1105   0.347   2.873   2.198 -0.1423  0.6133  0.1420
  369SOL    HW1 1106   0.388   2.804   2.136 -1.9355 -0.4880  1.8913
  369SOL    HW2 1107   0.412   2.912   2.263  1.9485  0.7319 -1.9517
  370SOL     OW 1108   2.857   0.229   0.619 -0.2204 -0.4422  0.0857
  370SOL    HW1 1109   2.883   0.186   0.527 -0.0408 -1.2693  2.1370
  370SOL    HW2 1110   2.917   0.310   0.634 -3.0780 -0.5048  0.0822
  371SOL     OW 1111   0.976   2.347   1.495  0.4676  0.0660  0.3409
  371SOL    HW1 1112   1.000   2.446   1.523 -0.6337  1.0866 -2.0215
  371SOL    HW2 1113   0.992   2.287   1.573 -2.2376 -1.7734  0.7195
  372SOL     OW 1114   2.252   0.332   2.443 -0.1450 -0.3692 -0.1756
  372SOL    HW1 1115   2.251   0.423   2.493  1.5707  2.9164 -0.7082
  372SOL    HW2 1116   2.287   0.258   2.507  2.3721  3.1701 -0.6741
  373SOL     OW 1117   3.079   2.003   0.745 -0.5099  0.2927  0.4416
  373SOL    HW1 1118   3.106   2.079   0.680 -1.1596  0.9565 -0.5711
  373SOL    HW2 1119   3.029   2.042   0.827 -0.3629 -0.5633 -0.5148
  374SOL     OW 1120   3.099   0.246   2.442 -0.1054  0.2773  0.6054
  374SOL    HW1 1121   3.024   0.189   2.398 -0.6110  1.3114 -1.8964
  374SOL    HW2 1122   0.065   0.272   2.376  0.5993  0.2096  0.4687
  375SOL     OW 1123   0.724   0.525   2.796  0.7178 -0.3309 -0.6586
  375SOL    HW1 1124   0.693   0.616   2.765 -0.1612 -0.4721 -0.1563
  375SOL    HW2 1125   0.820   0.534   2.820  0.7995  1.4296  1.8108
  376SOL     OW 1126   0.046   2.281   1.637  0.3590 -0.1876 -0.2482
  376SOL    HW1 1127   3.074   2.337   1.611  3.0726  0.5240  1.1210
  376SOL    HW2 1128   0.074   2.214   1.568 -1.5554  2.7389  1.4933
  377SOL     OW 1129   1.214   0.174   2.751 -0.1595  0.5556 -0.4346
  377SOL    HW1 1130   1.237   0.082   2.707  0.4122  1.3434 -1.1709
  377SOL    HW2 1131   1.288   0.243   2.752  0.2310  1.0533  1.2108
  378SOL     OW 1132   2.965   0.907   2.762 -0.4863  0.5587  0.1711
  378SOL    HW1 1133   3.060   0.910   2.800  0.0553  1.1598 -0.3970
  378SOL    HW2 1134   2.973   0.938   2.662  0.8228  1.0085 -0.4941
  379SOL     OW 1135   1.190   1.021   2.773  0.1821  0.1366 -0.3335
  379SOL    HW1 1136   1.089   1.038   2.785 -1.8467 -2.8715  0.0087
  379SOL    HW2 1137   1.238   1.111   2.775  0.6822 -0.9216  1.0673
  380SOL     OW 1138   0.031   1.868   2.006  0.2432 -0.4616  0.0960
  380SOL    HW1 1139   0.077   1.953   1.965  0.7122 -0.3528 -1.3827
  380SOL    HW2 1140   3.039   1.880   1.997 -0.3006 -1.2583  1.2537
  381SOL     OW 1141   0.033   1.180   2.720 -0.6074 -0.1225 -0.3605
  381SOL    HW1 1142   0.038   1.105   2.645 -0.0708 -2.1262 -0.4619
  381SOL    HW2 1143   0.015   1.270   2.679  2.3261  0.7096 -1.3991
  382SOL     OW 1144   1.862   2.358   0.617 -0.1875  0.1118  0.0781
  382SOL    HW1 1145   1.764   2.346   0.587 -2.7929  2.1159 -3.0262
  382SOL    HW2 1146   1.862   2.343   0.718  0.4047  0.1009  2.1323
  383SOL     OW 1147   0.710   1.640   0.290  0.0762  0.0519 -0.1666
  383SOL    HW1 1148   0.790   1.701   0.302 -0.6570  1.1432 -1.9583
  383SOL    HW2 1149   0.668   1.606   0.375  0.2296  0.3289 -1.4245
  384SOL     OW 1150   0.828   2.421   2.498 -0.1581 -0.3134  0.1013
  384SOL    HW1 1151   0.753   2.479   2.520  3.1340 -1.5316  1.8780
  384SOL    HW2 1152   0.833   2.347   2.564 -1.1289 -0.1572 -1.3837
  385SOL     OW 1153   2.361   2.010   0.627  0.3559 -0.3357 -0.3328
  385SOL    HW1 1154   2.354   1.972   0.722  0.1737 -0.2032 -0.1421
  385SOL    HW2 1155   2.362   2.111   0.620  0.8974 -2.5772 -2.7218
  386SOL     OW 1156   2.357   0.774   1.075 -0.0874  0.2630 -0.7196
  386SOL    HW1 1157   2.340   0.725   0.987  1.2810  1.9447 -1.6570
  386SOL    HW2 1158   2.276   0.825   1.105 -0.3740 -0.8570 -1.8562
  387SOL     OW 1159   0.470   0.807   2.170  0.5639  0.1904 -0.6974
  387SOL    HW1 1160   0.482   0.886   2.227 -1.7672 -1.5692 -1.5582
  387SOL    HW2 1161   0.542   0.798   2.099 -1.0412  1.4146  0.9331
  388SOL     OW 1162   0.880   1.652   2.467 -0.2260  0.1830 -0.2686
  388SOL    HW1 1163   0.867   1.751   2.453  0.4941 -1.2279  3.2325
  388SOL    HW2 1164   0.820   1.601   2.405  0.8924  2.6478  2.1378
  389SOL     OW 1165   0.893   1.231   1.917  0.2698 -0.1896  0.1002
  389SOL    HW1 1166   0.797   1.212   1.950  0.7766 -2.6268 -0.1661
  389SOL    HW2 1167   0.885   1.266   1.822  0.8837  0.2384  1.1419
  390SOL     OW 1168   2.906   2.883   0.890  0.0383  0.2024  0.0183
  390SOL    HW1 1169   2.837   2.882   0.961 -1.9162 -0.8529  2.3194
  390SOL    HW2 1170   2.925   2.977   0.863 -0.2542 -3.0141 -0.8948
  391SOL     OW 1171   1.685   1.505   1.156  0.1670  0.3205 -0.4528
  391SOL    HW1 1172   1.654   1.571   1.086  1.2337 -0.8476  0.7182
  391SOL    HW2 1173   1.760   1.442   1.122  2.1206 -2.4943 -1.1526
  392SOL     OW 1174   2.946   3.010   0.029 -0.3616 -0.0618 -0.4301
  392SOL    HW1 1175   3.006   3.065   0.087  2.0794  2.3113 -2.4474
  392SOL    HW2 1176   2.962   2.911   0.052  2.1430  0.3336  1.4064
  393SOL     OW 1177   1.456   2.237   2.799 -0.2047 -0.2431 -0.4024
  393SOL    HW1 1178   1.521   2.181   2.748 -0.0582 -0.9133 -1.3993
  393SOL    HW2 1179   1.480   2.239   2.898 -0.6018 -0.3186  1.8918
  394SOL     OW 1180   3.027   2.474   2.752 -0.0647 -0.2594 -0.4052
  394SOL    HW1 1181   3.018   2.490   2.652  0.0562 -0.4374  1.4054
  394SOL    HW2 1182   3.020   2.378   2.781  0.0278  1.0807 -0.7625
  395SOL     OW 1183   0.005   0.211   0.916 -0.3513  0.2916 -0.3196
  395SOL    HW1 1184   0.010   0.267   0.995  0.1497 -0.2537  2.5111
  395SOL    HW2 1185   0.095   0.176   0.877  0.3098 -0.4545  1.3520
  396SOL     OW 1186   2.227   0.496   0.633 -0.0835 -0.1522  0.2222
  396SOL    HW1 1187   2.126   0.492   0.613  0.8598 -0.7999  0.7535
  396SOL    HW2 1188   2.275   0.573   0.584 -1.4881  0.7619  2.6386
  397SOL     OW 1189   0.116   0.762   2.503  0.3232  0.1105 -0.2636
  397SOL    HW1 1190   0.106   0.742   2.598  0.9750  5.4534 -4.0751
  397SOL    HW2 1191   0.138   0.858   2.496 -1.4298 -0.2604  1.5359
  398SOL     OW 1192   0.796   0.062   3.102 -0.0552 -0.1631  0.3643
  398SOL    HW1 1193   0.763   0.049   3.007  2.0085 -1.9453 -0.3040
  398SOL    HW2 1194   0.875   0.124   3.101 -0.3074  0.4246  0.0996
  399SOL     OW 1195   2.137   0.254   2.059 -0.0264 -0.2501  0.3569
  399SOL    HW1 1196   2.117   0.288   2.157 -2.3267  0.5306  0.4146
  399SOL    HW2 1197   2.054   0.224   2.013 -1.9618  0.9461  0.7095
  400SOL     OW 1198   1.012   2.383   2.860  0.1755 -0.2854 -0.5195
  400SOL    HW1 1199   1.079   2.363   2.787 -0.4021  1.1202  1.5925
  400SOL    HW2 1200   1.003   2.485   2.874 -0.5125 -1.4452  1.7926
  401SOL     OW 1201   0.251   1.327   2.539 -0.5956  0.3003 -0.5513
  401SOL    HW1 1202   0.337   1.326   2.483 -1.0652 -1.1434  0.1891
  401SOL    HW2 1203   0.163   1.346   2.487 -2.8998  0.5779 -0.4512
  402SOL     OW 1204   0.192   2.805   0.233 -0.3062  0.0807 -0.2771
  402SOL    HW1 1205   0.173   2.702   0.221 -0.6735 -0.5862  1.0051
  402SOL    HW2 1206   0.163   2.851   0.317 -0.9663 -0.7570 -1.2742
  403SOL     OW 1207   0.452   1.028   1.805  0.6643  0.3336  0.4383
  403SOL    HW1 1208   0.518   0.980   1.741 -1.1380 -2.5621  0.9275
  403SOL    HW2 1209   0.378   0.967   1.826 -0.7263 -0.9262  2.0262
  404SOL     OW 1210   2.212   2.421   2.341 -0.1500  0.2041  0.6041
  404SOL    HW1 1211   2.171   2.494   2.282  0.5592  0.6432 -1.0223
  404SOL    HW2 1212   2.247   2.339   2.288 -0.0841 -1.2226 -2.0388
  405SOL     OW 1213   0.182   0.495   1.900 -0.8961  0.0523  0.0626
  405SOL    HW1 1214   0.138   0.410   1.933  1.1317 -1.0308 -0.0681
  405SOL    HW2 1215   0.233   0.484   1.813 -1.6509  1.4214  0.8306
  406SOL     OW 1216   1.199   1.695   3.014  0.4516 -0.6943  0.0602
  406SOL    HW1 1217   1.168   1.626   2.945 -0.4806 -1.0064  1.0709
  406SOL    HW2 1218   1.194   1.669   0.004  1.6660  4.2704  3.0116
  407SOL     OW 1219   2.009   0.707   2.735 -0.0082  0.2536  0.3910
  407SOL    HW1 1220   1.925   0.670   2.692  0.6975  3.1676  1.9080
  407SOL    HW2 1221   2.046   0.797   2.702  0.2194  1.6119 -0.6237
  408SOL     OW 1222   0.398   2.493   2.236 -0.0831  0.0667  0.3501
  408SOL    HW1 1223   0.300   2.498   2.245  2.6080 -0.9898  1.0404
  408SOL    HW2 1224   0.435   2.572   2.180  0.4094  0.4620 -0.9140
  409SOL     OW 1225   0.026   2.616   1.164  0.1952  0.1682  0.7790
  409SOL    HW1 1226   3.091   2.662   1.245 -0.5451 -1.2017 -1.1418
  409SOL    HW2 1227   0.004   2.516   1.176  1.2323 -1.1772  0.6705
  410SOL     OW 1228   2.800   1.811   0.419  0.3613 -0.2270 -0.0122
  410SOL    HW1 1229   2.881   1.799   0.481 -3.3076  1.5209 -1.6150
  410SOL    HW2 1230   2.810   1.740   0.344 -1.3301 -1.6598 -0.6859
  411SOL     OW 1231   2.436   0.085   1.238 -0.3126 -0.1037  0.5470
  411SOL    HW1 1232   2.402   0.124   1.148 -1.3463 -1.3079 -1.9625
  411SOL    HW2 1233   2.368   0.019   1.272 -1.3459  1.2478 -3.5479
  412SOL     OW 1234   2.234   0.170   1.651 -0.4551 -0.0174 -0.3184
  412SOL    HW1 1235   2.293   0.084   1.654  1.8324 -0.5330  0.9507
  412SOL    HW2 1236   2.235   0.210   1.559  0.4490  0.0586 -1.2885
  413SOL     OW 1237   0.193   0.274   2.238 -0.1267  0.3732 -0.2794
  413SOL    HW1 1238   0.224   0.360   2.290 -0.0447  2.2623 -0.7144
  413SOL    HW2 1239   0.282   0.218   2.227 -0.0419  1.6909  0.0392
  414SOL     OW 1240   2.684   1.398   0.093  0.0498  0.0561 -0.5491
  414SOL    HW1 1241   2.638   1.429   0.006 -0.2971  1.7984 -2.2108
  414SOL    HW2 1242   2.631   1.316   0.130 -2.2967  0.4138  0.5395
  415SOL     OW 1243   0.798   2.537   0.278  0.6355 -0.3625 -0.3782
  415SOL    HW1 1244   0.876   2.596   0.249  2.0663  0.5936 -1.7127
  415SOL    HW2 1245   0.826   2.464   0.343 -1.4048 -0.5101 -1.7668
  416SOL     OW 1246   1.509   2.875   2.515 -0.0589  0.5251  0.1051
  416SOL    HW1 1247   1.445   2.816   2.573  1.4771 -3.5472  2.6820
  416SOL    HW2 1248   1.601   2.832   2.532 -0.1239  1.2077  0.0259
  417SOL     OW 1249   0.309   0.920   1.337  0.2768  0.1218 -0.3292
  417SOL    HW1 1250   0.281   0.958   1.249  1.0810 -1.0682  2.7091
  417SOL    HW2 1251   0.411   0.929   1.353  0.1672 -0.5020  2.0513
  418SOL     OW 1252   2.762   0.054   1.026 -0.3344  0.1799  0.2678
  418SOL    HW1 1253   2.676   0.058   0.973  1.2408 -1.5712  0.7756
  418SOL    HW2 1254   2.840   0.055   0.959 -1.5054 -2.0330 -1.6694
  419SOL     OW 1255   0.237   0.064   0.274 -0.0001 -0.2265 -0.7489
  419SOL    HW1 1256   0.192   3.103   0.336 -0.0094  0.0877  0.0044
  419SOL    HW2 1257   0.336   0.078   0.294  2.3242  3.7356  3.0668
  420SOL     OW 1258   0.252   1.104   1.553  0.0300 -0.0548  0.2181
  420SOL    HW1 1259   0.265   1.031   1.485 -0.4706  1.8123 -2.0713
  420SOL    HW2 1260   0.154   1.128   1.572 -1.4076  2.5594 -2.0477
  421SOL     OW 1261   1.673   2.622   0.768  0.2154  0.0839  0.1844
  421SOL    HW1 1262   1.759   2.596   0.724  0.8596 -0.3907 -0.8871
  421SOL    HW2 1263   1.595   2.557   0.754  0.2937  3.8516  0.8385
  422SOL     OW 1264   0.166   0.394   1.425  0.0326 -0.2598 -0.0932
  422SOL    HW1 1265   0.225   0.375   1.346  0.2961  1.0822 -2.1381
  422SOL    HW2 1266   0.086   0.458   1.407 -0.6644  1.8540 -0.5550
  423SOL     OW 1267   1.072   1.353   2.122 -0.4098 -0.1729  0.5396
  423SOL    HW1 1268   1.000   1.345   2.049 -1.2580  2.2401  0.5000
  423SOL    HW2 1269   1.079   1.454   2.154 -1.1493  0.3962  2.8338
  424SOL     OW 1270   1.758   2.094   0.463 -0.1602  0.0082  0.1685
  424SOL    HW1 1271   1.733   2.048   0.376 -0.3006  2.3305 -0.8474
  424SOL    HW2 1272   1.851   2.069   0.491 -1.0256 -3.9364  0.9770
  425SOL     OW 1273   2.842   2.842   2.008  0.7721 -0.0813  0.2168
  425SOL    HW1 1274   2.764   2.791   2.051 -1.8942 -1.6412  1.0073
  425SOL    HW2 1275   2.819   2.917   1.936  1.0146  0.8736 -3.5063
  426SOL     OW 1276   3.033   2.846   2.797 -0.2080 -0.0368  0.2198
  426SOL    HW1 1277   3.093   2.812   2.868 -0.4018 -3.4486 -1.1402
  426SOL    HW2 1278   3.066   2.819   2.700  1.3985 -0.3477 -0.0862
  427SOL     OW 1279   0.861   2.922   0.337 -0.4536 -0.4521 -0.0974
  427SOL    HW1 1280   0.951   2.967   0.334 -0.1110 -1.7960 -2.3820
  427SOL    HW2 1281   0.784   2.983   0.301 -1.3666 -1.2030 -0.1050
  428SOL     OW 1282   2.853   0.528   1.547 -0.0106  0.1581  0.0582
  428SOL    HW1 1283   2.875   0.433   1.515 -0.7926  2.7204 -0.7091
  428SOL    HW2 1284   2.791   0.566   1.473 -1.5245 -1.2138  1.4859
  429SOL     OW 1285   2.039   3.100   0.643 -0.0009 -0.2606 -0.4909
  429SOL    HW1 1286   1.993   3.015   0.625  0.5985  3.2018  1.8285
  429SOL    HW2 1287   2.112   0.019   0.578 -2.7031  0.6892 -1.8415
  430SOL     OW 1288   0.894   1.715   2.757  0.2315  0.1067 -0.1091
  430SOL    HW1 1289   0.945   1.798   2.773  1.6160  0.0703 -1.7681
  430SOL    HW2 1290   0.897   1.695   2.658  2.8448 -1.4637 -0.2305
  431SOL     OW 1291   2.981   2.136   1.335  0.6639 -0.0926  0.3672
  431SOL    HW1 1292   2.924   2.055   1.356 -3.2174  0.4275 -2.3522
  431SOL    HW2 1293   3.068   2.130   1.386 -3.7153  0.7502 -2.9951
  432SOL     OW 1294   1.536   2.482   2.771 -0.5229  0.3268  0.2231
  432SOL    HW1 1295   1.580   2.499   2.679 -0.7888  1.7979 -0.4650
  432SOL    HW2 1296   1.480   2.393   2.770 -1.5152 -1.4905  0.3055
  433SOL     OW 1297   1.176   0.476   2.447 -0.1238  0.0791 -0.3418
  433SOL    HW1 1298   1.091   0.535   2.441  1.4354 -1.8421 -0.4637
  433SOL    HW2 1299   1.238   0.520   2.513 -0.4066  2.6784 -2.3158
  434SOL     OW 1300   0.751   2.559   2.149  0.5030 -0.5199 -0.0359
  434SOL    HW1 1301   0.785   2.569   2.053 -0.6656 -0.9671  0.3495
  434SOL    HW2 1302   0.774   2.466   2.182  0.1929 -0.2634  2.0561
  435SOL     OW 1303   0.346   0.093   0.033 -0.1711 -0.4752 -0.8195
  435SOL    HW1 1304   0.284   0.073   0.113  0.5050  0.0746 -0.0404
  435SOL    HW2 1305   0.327   0.188   3.102 -2.0192  2.1068 -0.1249
  436SOL     OW 1306   0.669   1.403   2.514 -0.0069  0.3478 -0.0450
  436SOL    HW1 1307   0.596   1.362   2.457 -2.9931  1.7140 -0.3122
  436SOL    HW2 1308   0.700   1.477   2.450 -1.0593 -0.6148  1.6050
  437SOL     OW 1309   1.316   2.553   2.442 -0.1340  0.0610  0.0531
  437SOL    HW1 1310   1.341   2.550   2.345  0.1715  0.5634 -3.4309
  437SOL    HW2 1311   1.217   2.570   2.445  0.4761  1.8597 -1.0056
  438SOL     OW 1312   0.740   0.987   0.572 -0.5311  0.0665 -0.0481
  438SOL    HW1 1313   0.776   1.001   0.665 -0.4973  2.0632  0.5382
  438SOL    HW2 1314   0.812   0.950   0.509 -1.2142  0.3773  3.0557
  439SOL     OW 1315   2.984   1.296   2.216 -0.2660 -0.3994 -0.1971
  439SOL    HW1 1316   2.910   1.225   2.198 -0.8282 -1.5314  1.4356
  439SOL    HW2 1317   2.957   1.381   2.167 -0.3092  3.1140 -0.2286
  440SOL     OW 1318   2.968   0.619   2.803  0.7930 -0.5632 -0.1320
  440SOL    HW1 1319   2.911   0.589   2.721  0.9122  0.4859 -2.4540
  440SOL    HW2 1320   2.973   0.723   2.793  0.9150  1.2545 -1.5402
  441SOL     OW 1321   0.772   1.743   1.605  0.3995  0.0829 -0.0409
  441SOL    HW1 1322   0.781   1.839   1.592  0.6457 -0.2190  1.2466
  441SOL    HW2 1323   0.762   1.719   1.700 -2.1052  1.9309 -0.9372
  442SOL     OW 1324   1.964   1.358   0.782 -0.3980  0.0146 -0.1334
  442SOL    HW1 1325   1.968   1.319   0.690 -1.2136  2.5646  3.0495
  442SOL    HW2 1326   1.909   1.445   0.781  0.7004  0.0723 -1.4434
  443SOL     OW 1327   2.475   1.905   2.908 -0.8988 -0.0501 -0.2168
  443SOL    HW1 1328   2.409   1.971   2.945  2.4653 -0.4022 -0.7890
  443SOL    HW2 1329   2.540   1.952   2.849 -0.4571 -2.1319  2.3125
  444SOL     OW 1330   1.760   1.275   2.816 -0.5812  0.1797  0.0032
  444SOL    HW1 1331   1.836   1.214   2.845 -1.8565  0.1203 -3.6031
  444SOL    HW2 1332   1.772   1.325   2.729 -1.7328 -0.1880 -1.3542
  445SOL     OW 1333   0.460   2.237   2.122 -0.2609  0.1532 -0.5431
  445SOL    HW1 1334   0.444   2.327   2.166  1.4730 -1.9266 -1.5432
  445SOL    HW2 1335   0.389   2.173   2.163  0.2069 -2.7817  0.6084
  446SOL     OW 1336   0.925   0.846   1.727 -0.0680  0.0542 -0.1803
  446SOL    HW1 1337   0.836   0.801   1.723  0.4497 -0.3492 -1.1326
  446SOL    HW2 1338   0.993   0.802   1.784  0.8480  2.3530 -0.1836
  447SOL     OW 1339   1.049   0.835   0.640 -0.3251 -0.2671 -0.0861
  447SOL    HW1 1340   1.111   0.910   0.618  1.4205 -0.0810  3.4438
  447SOL    HW2 1341   1.098   0.749   0.646 -1.7931  2.8085  2.6928
  448SOL     OW 1342   1.353   1.161   2.043 -0.0325 -0.1411 -0.1205
  448SOL    HW1 1343   1.254   1.135   2.023 -3.4056 -0.6904  0.8600
  448SOL    HW2 1344   1.422   1.099   1.995  0.7469 -1.2126 -3.7292
  449SOL     OW 1345   0.249   1.617   2.418 -0.1510  0.6693 -0.2231
  449SOL    HW1 1346   0.159   1.629   2.469 -1.3083 -1.1347 -0.5598
  449SOL    HW2 1347   0.238   1.536   2.355 -1.0165 -0.9567  1.8183
  450SOL     OW 1348   2.023   1.483   2.071  0.7702 -0.3012  0.6303
  450SOL    HW1 1349   2.110   1.505   2.032  0.1612 -0.2952 -0.4521
  450SOL    HW2 1350   2.046   1.453   2.164 -2.6510  2.8328 -2.7175
  451SOL     OW 1351   2.497   1.356   1.370  0.0834 -0.3015 -0.2092
  451SOL    HW1 1352   2.502   1.451   1.397  0.9953 -2.6144  0.4431
  451SOL    HW2 1353   2.587   1.316   1.365 -0.8238 -1.2498 -0.3591
  452SOL     OW 1354   0.825   1.047   1.369 -0.4034 -0.2866  0.2028
  452SOL    HW1 1355   0.870   1.069   1.457 -0.4545 -0.3401 -0.8213
  452SOL    HW2 1356   0.893   1.061   1.296  0.7871 -1.1038  1.3868
  453SOL     OW 1357   0.351   1.836   1.044 -0.2574  0.1984 -0.7803
  453SOL    HW1 1358   0.304   1.921   1.026 -0.1621 -0.1119 -0.4823
  453SOL    HW2 1359   0.445   1.839   1.004  0.8599  1.9033 -0.5257
  454SOL     OW 1360   1.363   1.299   0.271 -0.5923  0.0210  0.1461
  454SOL    HW1 1361   1.449   1.358   0.286  1.7417  0.6824  1.8658
  454SOL    HW2 1362   1.303   1.319   0.349 -1.2503  1.6611  0.4691
  455SOL     OW 1363   1.783   0.583   0.946 -0.0079  0.0421  0.1082
  455SOL    HW1 1364   1.809   0.483   0.935 -3.7363  2.8396 -3.1744
  455SOL    HW2 1365   1.853   0.644   0.912 -1.1176 -0.3885 -0.3407
  456SOL     OW 1366   1.679   2.921   0.475 -0.1090 -0.2592 -0.0119
  456SOL    HW1 1367   1.670   2.830   0.435 -0.5284 -0.1118  4.2397
  456SOL    HW2 1368   1.600   2.959   0.528 -2.9397  0.6894 -1.5014
  457SOL     OW 1369   2.019   0.953   2.215  0.0582 -0.3003 -0.1080
  457SOL    HW1 1370   2.083   0.970   2.140 -0.4121 -0.1005 -0.3728
  457SOL    HW2 1371   2.017   1.035   2.273 -0.3423 -3.1468 -1.2320
  458SOL     OW 1372   2.569   0.508   2.344 -0.6671  0.0137 -0.2023
  458SOL    HW1 1373   2.563   0.606   2.345 -0.4009 -1.5444  3.7507
  458SOL    HW2 1374   2.546   0.467   2.253  2.1162 -1.2972  0.5662
  459SOL     OW 1375   2.598   1.580   2.305  0.6292  0.3121  0.1619
  459SOL    HW1 1376   2.560   1.497   2.253 -1.1795 -1.7269 -2.1188
  459SOL    HW2 1377   2.668   1.552   2.374  0.0517 -0.0825  1.7768
  460SOL     OW 1378   0.935   1.057   2.800 -0.3895 -0.4530  0.2059
  460SOL    HW1 1379   0.885   1.101   2.722 -1.5067 -1.1468 -2.2289
  460SOL    HW2 1380   0.906   1.099   2.891 -2.5130  3.6403  3.0533
  461SOL     OW 1381   0.368   2.184   0.187  0.1288  0.3401 -0.1412
  461SOL    HW1 1382   0.388   2.271   0.244 -3.5229  0.9399 -0.1934
  461SOL    HW2 1383   0.333   2.210   0.095 -2.3977  1.4836  0.6769
  462SOL     OW 1384   1.150   2.936   2.409 -0.4739  0.0740 -0.1332
  462SOL    HW1 1385   1.232   2.905   2.357  1.8444  2.0636 -1.2430
  462SOL    HW2 1386   1.079   2.974   2.347 -0.2457  2.7595  2.4591
  463SOL     OW 1387   2.110   2.315   2.080 -0.1415 -0.0872 -0.3935
  463SOL    HW1 1388   2.022   2.261   2.088  0.0439 -1.6511 -2.5778
  463SOL    HW2 1389   2.188   2.262   2.122 -0.1954 -0.1924  2.1678
  464SOL     OW 1390   2.447   2.500   0.686  0.2501 -0.7123  0.5650
  464SOL    HW1 1391   2.354   2.538   0.715  0.2057  1.0482  1.8900
  464SOL    HW2 1392   2.513   2.558   0.737  3.9248  0.9323  0.4976
  465SOL     OW 1393   0.020   0.147   1.416 -0.4104 -0.1343  0.1847
  465SOL    HW1 1394   0.024   0.080   1.343  0.6716  0.2383 -0.5019
  465SOL    HW2 1395   0.064   0.237   1.397  0.9959  0.1194 -1.8266
  466SOL     OW 1396   1.373   2.684   2.662  0.2902  0.2601 -0.3489
  466SOL    HW1 1397   1.405   2.617   2.732 -2.3490  1.2205 -0.1434
  466SOL    HW2 1398   1.353   2.630   2.575 -1.0464 -0.7844  0.5387
  467SOL     OW 1399   3.046   2.239   0.291  0.0147 -0.4255  0.2956
  467SOL    HW1 1400   3.031   2.140   0.272  0.9438 -1.1912 -0.2271
  467SOL    HW2 1401   3.093   2.280   0.205  1.6322  0.8347 -2.3901
  468SOL     OW 1402   2.276   2.069   2.982  0.4717 -0.1239 -0.5916
  468SOL    HW1 1403   2.171   2.055   2.979 -2.6946 -0.8181 -2.1103
  468SOL    HW2 1404   2.300   2.153   2.932 -1.3715 -0.6508 -0.4125
  469SOL     OW 1405   0.801   1.824   0.622 -0.4018 -0.1215  0.2202
  469SOL    HW1 1406   0.851   1.886   0.688  0.1325  2.5981  1.7920
  469SOL    HW2 1407   0.869   1.774   0.562 -0.2467  0.7977  1.0068
  470SOL     OW 1408   1.999   0.738   0.858  0.1386 -0.1493  0.0850
  470SOL    HW1 1409   2.021   0.726   0.760  2.0292  1.1887  1.8806
  470SOL    HW2 1410   2.077   0.754   0.925 -1.5288 -1.3033  4.6440
  471SOL     OW 1411   0.362   1.859   0.426 -0.2065 -0.6233 -0.0444
  471SOL    HW1 1412   0.428   1.837   0.353 -0.1121  0.7277  2.4969
  471SOL    HW2 1413   0.290   1.928   0.397  0.4387 -0.7229 -0.2738
  472SOL     OW 1414   2.764   1.960   2.794  0.4877  0.0482 -0.0755
  472SOL    HW1 1415   2.852   1.930   2.840  2.9984 -1.2776 -0.7312
  472SOL    HW2 1416   2.782   2.024   2.718 -3.3165  0.0417 -0.4122
  473SOL     OW 1417   1.512   1.921   0.691 -0.0168  0.3370  0.3123
  473SOL    HW1 1418   1.425   1.967   0.716  1.1575 -1.5118  0.1337
  473SOL    HW2 1419   1.591   1.927   0.759  2.0128  0.2268 -0.3166
  474SOL     OW 1420   2.721   0.372   1.165 -0.2156 -0.1566  0.0697
  474SOL    HW1 1421   2.637   0.387   1.110  0.3748  0.4880 -2.5589
  474SOL    HW2 1422   2.800   0.381   1.108 -1.0228  0.7509  2.6406
  475SOL     OW 1423   2.782   3.037   1.842  0.0933  0.1238 -0.6814
  475SOL    HW1 1424   2.826   3.059   1.757 -1.2085  0.5995  2.1052
  475SOL    HW2 1425   2.681   3.060   1.846 -3.4774 -1.3397  0.0847
  476SOL     OW 1426   0.778   0.185   0.899  0.0102 -0.4969 -0.3132
  476SOL    HW1 1427   0.855   0.252   0.917 -1.4630  2.1958 -2.8621
  476SOL    HW2 1428   0.706   0.225   0.839 -1.2584 -0.7653  0.8676
  477SOL     OW 1429   1.297   2.478   1.316 -0.3660 -0.2867 -0.1066
  477SOL    HW1 1430   1.350   2.431   1.388 -3.8200  1.2207  0.2616
  477SOL    HW2 1431   1.341   2.566   1.285 -1.5079  0.5260 -1.4988
  478SOL     OW 1432   1.321   2.555   3.054 -0.3594 -0.2329 -0.2732
  478SOL    HW1 1433   1.288   2.611   2.976  0.1346 -1.7251  1.8669
  478SOL    HW2 1434   1.415   2.570   3.089 -1.6765  0.1445  1.8823
  479SOL     OW 1435   2.269   1.248   1.972 -0.5440  0.1758  0.5079
  479SOL    HW1 1436   2.290   1.218   2.071 -1.1023 -0.6855  3.1917
  479SOL    HW2 1437   2.272   1.164   1.915  2.5498  1.1840  1.3841
  480SOL     OW 1438   2.653   2.219   2.910  0.5108  0.0799  0.0880
  480SOL    HW1 1439   2.687   2.165   2.833 -2.7335 -0.1475  1.7656
  480SOL    HW2 1440   2.554   2.242   2.900  3.0442 -1.6659  0.8771
  481SOL     OW 1441   1.668   2.947   1.489  0.0284  0.4154  0.0176
  481SOL    HW1 1442   1.694   2.861   1.537 -0.9059  0.8524 -0.6928
  481SOL    HW2 1443   1.568   2.949   1.485  1.3879  0.8958  0.3256
  482SOL     OW 1444   1.501   2.474   2.229  0.1652 -0.3085  0.0229
  482SOL    HW1 1445   1.577   2.510   2.174 -0.0406  1.1433 -0.2635
  482SOL    HW2 1446   1.429   2.435   2.170 -0.2301 -0.0558  0.3173
  483SOL     OW 1447   1.135   2.687   2.870 -0.4151 -0.2558  0.0099
  483SOL    HW1 1448   1.038   2.689   2.905 -0.1735 -0.5142  3.2884
  483SOL    HW2 1449   1.149   2.721   2.778  1.0117 -0.1363 -1.2235
  484SOL     OW 1450   2.399   3.069   1.652 -0.2800  0.1079 -0.4400
  484SOL    HW1 1451   2.317   3.013   1.675  1.3231 -3.3814  2.1307
  484SOL    HW2 1452   2.462   3.018   1.590  1.6737  0.3828 -2.9516
  485SOL     OW 1453   1.975   0.516   0.549 -0.0969 -0.2514  0.1802
  485SOL    HW1 1454   2.009   0.573   0.476 -1.5328 -2.0105  3.1293
  485SOL    HW2 1455   1.875   0.504   0.546 -1.5295  2.6638  1.1965
  486SOL     OW 1456   2.371   2.531   2.535  0.2149  0.2549  0.3442
  486SOL    HW1 1457   2.369   2.632   2.544 -1.6208  1.1443 -0.4188
  486SOL    HW2 1458   2.323   2.494   2.451 -0.8427  2.5043  0.3023
  487SOL     OW 1459   1.435   0.762   0.698  0.1997  0.7542 -0.3075
  487SOL    HW1 1460   1.347   0.716   0.677 -1.1889 -0.7621  0.3904
  487SOL    HW2 1461   1.508   0.700   0.717 -2.2284 -0.3273  2.5335
  488SOL     OW 1462   2.605   2.948   2.398  0.2498  0.1827 -0.6972
  488SOL    HW1 1463   2.630   2.864   2.347 -0.0059  1.2237 -2.2355
  488SOL    HW2 1464   2.502   2.964   2.397  1.2135  2.2291  0.3513
  489SOL     OW 1465   1.124   2.659   0.492 -0.2413  0.6000 -0.3789
  489SOL    HW1 1466   1.108   2.751   0.529  2.1311 -0.9308  0.3106
  489SOL    HW2 1467   1.096   2.586   0.553 -2.2652  0.3727 -1.4430
  490SOL     OW 1468   1.475   0.432   3.063  0.0960 -0.3720  0.3553
  490SOL    HW1 1469   1.566   0.442   3.023 -0.9770 -0.8958  0.1912
  490SOL    HW2 1470   1.419   0.510   3.036  0.6619 -2.1086  1.3370
  491SOL     OW 1471   0.811   2.999   1.250 -0.0326 -0.0471  0.3097
  491SOL    HW1 1472   0.784   3.094   1.218  0.3728 -1.8567 -0.5012
  491SOL    HW2 1473   0.862   3.009   1.337 -0.4690 -1.2288  0.8883
  492SOL     OW 1474   1.596   2.656   0.443 -0.0602  0.2591 -0.1931
  492SOL    HW1 1475   1.583   2.580   0.379  1.5031 -0.9933  1.2578
  492SOL    HW2 1476   1.522   2.667   0.506  2.8264 -0.5910 -1.3776
  493SOL     OW 1477   1.004   2.106   2.934 -0.0616  0.4381  0.4552
  493SOL    HW1 1478   1.043   2.064   2.853 -1.9287  2.4434  1.4777
  493SOL    HW2 1479   0.995   2.208   2.915  2.4224  1.9472 -2.2207
  494SOL     OW 1480   0.927   0.821   0.411  0.3923  0.2211 -0.9178
  494SOL    HW1 1481   0.951   0.755   0.343 -2.5423 -0.5442  1.8012
  494SOL    HW2 1482   0.975   0.819   0.504 -0.1736 -2.0885 -0.8777
  495SOL     OW 1483   2.771   0.266   1.730  0.1967  0.0649  0.2138
  495SOL    HW1 1484   2.818   0.259   1.640 -0.2496  0.2945  0.9525
  495SOL    HW2 1485   2.761   0.362   1.761  1.1549  1.2963 -1.0066
  496SOL     OW 1486   2.363   2.260   2.618  0.5555 -0.1353  0.1843
  496SOL    HW1 1487   2.395   2.341   2.570 -3.1439 -0.7429  3.4273
  496SOL    HW2 1488   2.341   2.184   2.554 -0.3832 -2.5770 -0.9420
  497SOL     OW 1489   1.655   1.350   2.516  0.4427  0.3036  0.5235
  497SOL    HW1 1490   1.628   1.257   2.563 -1.5190 -2.9486  0.9155
  497SOL    HW2 1491   1.597   1.422   2.555  0.0404 -0.3868  0.5532
  498SOL     OW 1492   0.798   2.588   1.094 -0.1942  0.0085  0.0617
  498SOL    HW1 1493   0.699   2.592   1.067 -0.0089 -0.9123 -1.5822
  498SOL    HW2 1494   0.828   2.496   1.124  4.0566  1.6308  0.4762
  499SOL     OW 1495   0.015   2.029   1.108  0.3817  0.3811 -0.4207
  499SOL    HW1 1496   3.047   2.036   1.041  2.5507  2.7623  4.0669
  499SOL    HW2 1497   3.102   2.087   1.186 -0.5208 -0.7866  1.4056
  500SOL     OW 1498   0.594   2.663   2.967 -0.3649 -0.3523  0.1897
  500SOL    HW1 1499   0.501   2.626   2.995  0.9960 -1.3882  0.1378
  500SOL    HW2 1500   0.594   2.660   2.863 -1.5289  1.1359 -0.6250
  501SOL     OW 1501   1.688   3.098   0.083  0.0192  0.3511  0.3210
  501SOL    HW1 1502   1.688   3.002   0.053 -3.2334  1.0386  0.8571
  501SOL    HW2 1503   1.603   0.006   0.135  3.4019 -2.1529 -0.1044
  502SOL     OW 1504   2.957   0.033   0.810  0.3018  0.1504  0.4576
  502SOL    HW1 1505   2.907   0.078   0.737  1.5752  1.7003  0.8952
  502SOL    HW2 1506   3.027   0.092   0.843 -2.4377 -0.0565 -2.1434
  503SOL     OW 1507   2.015   2.889   2.171  0.4559  0.2228  0.1493
  503SOL    HW1 1508   2.090   2.844   2.227  0.2185  2.0532 -0.7085
  503SOL    HW2 1509   1.920   2.868   2.203  0.3830  1.9545 -1.9438
  504SOL     OW 1510   2.308   1.526   1.996 -0.2168  0.0471 -0.5995
  504SOL    HW1 1511   2.411   1.538   1.988 -0.0578 -1.7714 -0.0021
  504SOL    HW2 1512   2.296   1.428   1.987  1.0463  1.2647  1.9065
  505SOL     OW 1513   1.732   2.924   2.237  0.2882  0.7678 -0.7431
  505SOL    HW1 1514   1.780   3.005   2.272  0.9819 -0.2698  2.8121
  505SOL    HW2 1515   1.641   2.958   2.211  2.8433 -0.0878 -2.8670
  506SOL     OW 1516   0.211   0.739   2.084  0.2845  0.0395  0.0775
  506SOL    HW1 1517   0.211   0.644   2.046  1.5424 -0.0004  0.5298
  506SOL    HW2 1518   0.306   0.753   2.120 -0.9736  0.0354  1.5170
  507SOL     OW 1519   1.714   0.489   0.502 -0.0362 -0.0433 -0.3509
  507SOL    HW1 1520   1.699   0.567   0.440 -0.0186 -0.1182  0.1861
  507SOL    HW2 1521   1.723   0.404   0.448 -0.1400  0.0767  2.9802
  508SOL     OW 1522   1.991   0.507   1.954  0.3676  0.5194  0.9097
  508SOL    HW1 1523   2.062   0.541   1.885  0.2535 -0.5532  0.7392
  508SOL    HW2 1524   1.958   0.414   1.930 -1.9421 -0.7355 -0.3565
  509SOL     OW 1525   0.491   1.870   2.959  0.2998  0.1845  0.0900
  509SOL    HW1 1526   0.497   1.933   3.039 -1.0515  0.1674  0.9355
  509SOL    HW2 1527   0.521   1.777   2.981  0.0088  1.6093 -0.1099
  510SOL     OW 1528   0.465   0.905   0.938 -0.3253 -0.2474 -0.1403
  510SOL    HW1 1529   0.556   0.925   0.984 -0.7362 -0.9986  1.9191
  510SOL    HW2 1530   0.455   0.963   0.851 -0.9254 -0.0481 -5.0246
  511SOL     OW 1531   1.477   1.355   1.312 -0.3504 -0.1306  0.3847
  511SOL    HW1 1532   1.508   1.261   1.324  1.1416  1.8707 -2.7716
  511SOL    HW2 1533   1.538   1.403   1.246  1.2214  1.5189 -0.5003
  512SOL     OW 1534   0.627   1.887   0.952 -0.2112  0.0789  0.3965
  512SOL    HW1 1535   0.628   1.884   0.850 -0.3572  0.2585  3.6525
  512SOL    HW2 1536   0.673   1.971   0.987  0.7807 -1.3563  0.1129
  513SOL     OW 1537   0.270   2.737   0.789  0.0453 -0.0489 -0.8455
  513SOL    HW1 1538   0.342   2.716   0.715 -0.7307  0.7410  0.4059
  513SOL    HW2 1539   0.324   2.742   0.877 -0.5242  1.5082  2.8263
  514SOL     OW 1540   0.597   2.086   0.537  0.2465  0.6149 -0.6434
  514SOL    HW1 1541   0.643   2.056   0.450 -1.3800  0.7047  0.9105
  514SOL    HW2 1542   0.599   2.002   0.598 -2.7218 -0.1191 -1.3787
  515SOL     OW 1543   0.019   0.219   3.001 -0.0748 -0.2417  0.4439
  515SOL    HW1 1544   3.081   0.273   2.930  0.3154 -1.3030 -1.1625
  515SOL    HW2 1545   0.116   0.252   3.025  0.0260  0.1332  1.4268
  516SOL     OW 1546   2.200   3.062   1.254  0.2254  0.4801 -0.1921
  516SOL    HW1 1547   2.167   3.057   1.350  0.3734  1.4442 -2.2237
  516SOL    HW2 1548   2.132   0.001   1.196 -1.0482 -1.3696  2.4158
  517SOL     OW 1549   1.814   1.632   0.772 -0.2395  0.7065 -0.4787
  517SOL    HW1 1550   1.794   1.719   0.722 -3.4149  1.7059  0.8680
  517SOL    HW2 1551   1.858   1.652   0.861  1.5394 -0.5439  0.1419
  518SOL     OW 1552   1.753   2.798   0.971  0.1381 -0.0369  0.0090
  518SOL    HW1 1553   1.798   2.753   1.051  1.9687  3.3206  2.7291
  518SOL    HW2 1554   1.715   2.731   0.899 -1.7879 -1.7305 -1.4596
  519SOL     OW 1555   2.902   2.715   0.395 -0.7394 -0.7592  0.0863
  519SOL    HW1 1556   2.984   2.665   0.433  2.1372  0.5725 -0.4743
  519SOL    HW2 1557   2.899   2.814   0.431 -1.3790  1.5267  2.1329
  520SOL     OW 1558   2.048   1.847   2.256 -0.4422 -0.0414  0.2536
  520SOL    HW1 1559   2.041   1.912   2.336 -0.6251 -2.6062  1.8072
  520SOL    HW2 1560   1.972   1.783   2.249  0.0269  3.2110 -0.0151
  521SOL     OW 1561   1.428   2.933   1.843 -0.0437  0.8178  0.6171
  521SOL    HW1 1562   1.441   3.000   1.771  0.4095  2.2336 -1.4329
  521SOL    HW2 1563   1.342   2.883   1.832  1.0140 -1.7601  0.2557
  522SOL     OW 1564   0.443   2.411   1.905 -0.2274 -0.3710 -0.3781
  522SOL    HW1 1565   0.345   2.410   1.882  0.7697  1.6342 -2.1049
  522SOL    HW2 1566   0.460   2.338   1.970  0.3621  2.8457 -1.9655
  523SOL     OW 1567   0.894   2.281   1.955 -0.3113 -0.1381 -0.2347
  523SOL    HW1 1568   0.869   2.379   1.943 -1.4307  1.2347  1.3582
  523SOL    HW2 1569   0.889   2.254   2.053 -0.8711  2.3969 -0.1437
  524SOL     OW 1570   2.101   2.301   0.475  0.1463 -0.7461  0.4139
  524SOL    HW1 1571   2.067   2.241   0.398 -2.0353 -0.2342 -0.6226
  524SOL    HW2 1572   2.024   2.313   0.539 -1.6511 -2.4605  1.2099
  525SOL     OW 1573   2.728   0.724   2.501  0.1953  0.3334  0.4000
  525SOL    HW1 1574   2.791   0.646   2.528  1.3801 -4.4030  0.5832
  525SOL    HW2 1575   2.641   0.715   2.560  0.1955 -2.0116  0.1605
  526SOL     OW 1576   0.438   2.659   0.604 -0.0104 -0.0397  0.4858
  526SOL    HW1 1577   0.518   2.600   0.621  0.5968  0.3613 -2.4404
  526SOL    HW2 1578   0.431   2.682   0.506  0.8555  0.7495  0.7769
  527SOL     OW 1579   3.020   0.923   0.707 -0.0905 -0.1537 -0.0184
  527SOL    HW1 1580   2.941   0.926   0.640 -1.4040 -0.2684 -0.8022
  527SOL    HW2 1581   2.989   0.897   0.804 -1.7024  0.2481  0.5967
  528SOL     OW 1582   0.961   1.173   2.290 -0.3418 -0.0690  0.1651
  528SOL    HW1 1583   1.016   1.180   2.376  0.9655  1.0568  2.6235
  528SOL    HW2 1584   0.997   1.242   2.223 -1.1562 -0.7818  0.8860
  529SOL     OW 1585   0.781   1.282   0.278  0.2750  0.5603 -0.4866
  529SOL    HW1 1586   0.776   1.189   0.235  0.1980 -1.1773 -0.0850
  529SOL    HW2 1587   0.792   1.355   0.209  0.1644 -1.7666  0.6670
  530SOL     OW 1588   1.134   0.743   1.868  0.4892 -0.3224 -0.8008
  530SOL    HW1 1589   1.151   0.775   1.965 -0.7982 -0.9821  1.0732
  530SOL    HW2 1590   1.210   0.689   1.832  1.6938  0.7916 -2.7127
  531SOL     OW 1591   1.138   2.129   0.191 -0.0909  0.1266 -0.0587
  531SOL    HW1 1592   1.130   2.209   0.129 -0.0467  0.9127 -2.4280
  531SOL    HW2 1593   1.238   2.105   0.197  2.5281  2.5092  0.4319
  532SOL     OW 1594   2.595   0.821   2.289  0.3810  0.1269 -0.4199
  532SOL    HW1 1595   2.652   0.797   2.365  2.2422  0.5955  2.1748
  532SOL    HW2 1596   2.652   0.848   2.209 -1.3800 -1.6134  2.8314
  533SOL     OW 1597   0.038   0.281   2.016  0.3937 -0.3886 -0.5510
  533SOL    HW1 1598   0.086   0.280   2.104 -1.2625  1.1529 -1.2853
  533SOL    HW2 1599   3.054   0.242   2.031  0.3697  1.5953 -2.0222
  534SOL     OW 1600   2.296   0.101   3.095 -0.1170 -0.5838  0.5071
  534SOL    HW1 1601   2.392   0.136   3.099  0.2517  2.1297  0.2584
  534SOL    HW2 1602   2.292   0.006   0.008  0.0660  3.0228 -0.3830
  535SOL     OW 1603   0.615   0.406   0.036  0.3660  0.3729  0.4601
  535SOL    HW1 1604   0.563   0.401   0.121  2.6791 -0.6116 -1.1755
  535SOL    HW2 1605   0.568   0.370   3.061 -2.6873  0.0997 -0.0195
  536SOL     OW 1606   1.222   2.064   1.177 -0.2200 -0.2312  0.6275
  536SOL    HW1 1607   1.142   2.015   1.224  0.8132  0.1917  1.0412
  536SOL    HW2 1608   1.199   2.161   1.163 -0.3449 -1.3437 -2.0660
  537SOL     OW 1609   2.944   2.430   1.537  0.5113 -0.0557  0.2245
  537SOL    HW1 1610   2.977   2.509   1.591  0.1371 -1.0934  2.5157
  537SOL    HW2 1611   2.859   2.393   1.565  0.7766  0.9710 -2.7603
  538SOL     OW 1612   0.448   2.297   0.615 -0.3648  0.0872 -0.2622
  538SOL    HW1 1613   0.495   2.221   0.560  3.4944 -2.1359 -1.1482
  538SOL    HW2 1614   0.503   2.319   0.703  0.3960 -2.4216  2.1321
  539SOL     OW 1615   1.993   1.186   2.362 -0.6577 -0.3313  0.1652
  539SOL    HW1 1616   1.889   1.166   2.348  0.3224  0.6031  0.2490
  539SOL    HW2 1617   2.023   1.287   2.360  1.5608  0.7396  1.1408
  540SOL     OW 1618   1.806   0.700   2.914 -0.0426  0.6503 -0.2608
  540SOL    HW1 1619   1.766   0.607   2.930  2.4257  0.3576  1.4669
  540SOL    HW2 1620   1.894   0.688   2.870 -1.7217  0.3779  1.6032
  541SOL     OW 1621   0.749   1.129   2.582  0.4733 -0.5900  0.2841
  541SOL    HW1 1622   0.655   1.111   2.613 -0.5660 -0.9653  0.8238
  541SOL    HW2 1623   0.761   1.231   2.571 -0.6039 -0.5340 -0.8527
  542SOL     OW 1624   1.451   2.603   1.863 -0.0413  0.0787  0.1586
  542SOL    HW1 1625   1.387   2.527   1.849 -0.1411  0.0519 -1.6031
  542SOL    HW2 1626   1.449   2.668   1.784 -0.0745  2.5783 -1.3674
  543SOL     OW 1627   0.532   2.835   0.077 -0.5704  0.0654 -0.5184
  543SOL    HW1 1628   0.577   2.773   0.013 -0.6919 -0.3414  1.7415
  543SOL    HW2 1629   0.439   2.865   0.036 -1.7925  2.9219 -1.7423
  544SOL     OW 1630   2.863   2.214   2.163 -0.1977  0.2178 -0.3015
  544SOL    HW1 1631   2.845   2.300   2.110  0.3269 -0.1892  1.9958
  544SOL    HW2 1632   2.965   2.203   2.161  0.2142 -1.3915 -2.6367
  545SOL     OW 1633   1.546   1.717   1.803  0.7189  0.0321 -0.2441
  545SOL    HW1 1634   1.516   1.809   1.770 -0.8154 -1.2297  0.6666
  545SOL    HW2 1635   1.493   1.686   1.883 -0.2810  2.7551 -0.4913
  546SOL     OW 1636   2.849   0.472   2.596  0.4715 -0.4255  0.2636
  546SOL    HW1 1637   2.770   0.405   2.602 -2.0272  1.4516 -0.2683
  546SOL    HW2 1638   2.929   0.434   2.548 -2.0918  0.1858 -0.1515
  547SOL     OW 1639   1.596   3.013   0.955 -0.1653 -0.5541  0.1096
  547SOL    HW1 1640   1.546   3.013   1.049 -2.8895  2.4752  1.2714
  547SOL    HW2 1641   1.653   2.931   0.942 -0.2314  1.7460 -0.0056
  548SOL     OW 1642   1.301   2.082   3.024 -0.5757 -0.0531 -0.0831
  548SOL    HW1 1643   1.255   2.020   2.957 -0.8134 -0.1693  2.5373
  548SOL    HW2 1644   1.248   2.170   3.039  0.7840  1.2146  2.4727
  549SOL     OW 1645   1.997   0.415   3.083  0.8679 -0.0998  0.3656
  549SOL    HW1 1646   2.038   0.419   0.065  1.5421  1.7533 -1.9381
  549SOL    HW2 1647   2.043   0.481   3.017 -1.6474  0.0493  2.3060
  550SOL     OW 1648   2.621   1.868   0.837  0.5656  0.7662 -0.0528
  550SOL    HW1 1649   2.653   1.960   0.814  0.9906 -2.3024 -0.5692
  550SOL    HW2 1650   2.605   1.808   0.758 -0.9011  2.0371  2.7192
  551SOL     OW 1651   1.118   0.138   1.143  0.6295  0.3562 -0.0434
  551SOL    HW1 1652   1.084   0.229   1.172  0.4945 -1.0472  2.1487
  551SOL    HW2 1653   1.149   0.138   1.046 -2.2001 -0.8425  0.0605
  552SOL     OW 1654   0.078   1.744   2.755 -0.4273 -0.2258  0.0260
  552SOL    HW1 1655   0.166   1.761   2.798 -1.3964 -3.3387  2.2257
  552SOL    HW2 1656   0.002   1.759   2.815 -0.0121 -0.3136  0.2568
  553SOL     OW 1657   2.696   2.589   0.279 -0.5144 -0.5467 -0.5287
  553SOL    HW1 1658   2.771   2.630   0.333  2.9855  1.4027 -0.3976
  553SOL    HW2 1659   2.609   2.598   0.334 -0.1813  1.1542  2.0876
  554SOL     OW 1660   2.163   1.326   1.534 -0.2445 -0.2816  0.2922
  554SOL    HW1 1661   2.244   1.364   1.583 -0.5870 -0.3529 -1.7261
  554SOL    HW2 1662   2.090   1.296   1.598  0.4917 -1.0681  0.2819
  555SOL     OW 1663   0.453   2.465   2.506  0.6197 -0.2728  0.2193
  555SOL    HW1 1664   0.361   2.446   2.541 -3.6481 -0.1187  1.7965
  555SOL    HW2 1665   0.446   2.469   2.404  0.4603  0.9945 -1.3260
  556SOL     OW 1666   1.261   1.398   1.529 -0.1060  0.3656 -0.4518
  556SOL    HW1 1667   1.353   1.399   1.487 -2.1685  1.0297  2.0207
  556SOL    HW2 1668   1.190   1.374   1.466 -0.0785  1.0625  2.3812
  557SOL     OW 1669   1.477   2.993   1.223 -0.5115 -0.2015  0.0949
  557SOL    HW1 1670   1.524   3.082   1.214  1.7815  1.7833 -1.8870
  557SOL    HW2 1671   1.383   3.019   1.255 -0.8722  0.4720  1.6009
  558SOL     OW 1672   0.587   0.819   2.519  0.5441 -0.4669  0.0467
  558SOL    HW1 1673   0.613   0.721   2.521  1.1174  1.2378 -1.6936
  558SOL    HW2 1674   0.507   0.837   2.576 -0.8245  0.4915  2.6214
  559SOL     OW 1675   1.007   2.705   0.253  0.5496 -0.0300  0.3789
  559SOL    HW1 1676   0.956   2.787   0.281 -1.8190 -2.9566  2.4637
  559SOL    HW2 1677   1.042   2.658   0.336  1.3190 -0.9500 -3.4759
  560SOL     OW 1678   1.679   1.963   0.249 -0.1234  0.2434  0.0854
  560SOL    HW1 1679   1.668   1.865   0.276 -2.0771 -2.9422 -0.6517
  560SOL    HW2 1680   1.751   1.973   0.178  0.2813 -0.1996 -0.9161
  561SOL     OW 1681   1.091   2.899   0.618 -0.5615 -0.0358  0.5240
  561SOL    HW1 1682   1.151   2.967   0.571 -1.4720 -1.9060 -1.9265
  561SOL    HW2 1683   1.112   2.885   0.718 -2.6446 -1.6783  3.2863
  562SOL     OW 1684   0.566   1.011   2.309 -0.6149  0.1922  0.4016
  562SOL    HW1 1685   0.638   1.007   2.237 -0.2735 -2.7524  1.2757
  562SOL    HW2 1686   0.587   0.941   2.379 -0.3790 -0.5268 -1.6281
  563SOL     OW 1687   1.184   2.096   2.204 -0.1680  0.1213  0.6366
  563SOL    HW1 1688   1.201   2.162   2.133  2.1202 -1.9894 -0.3857
  563SOL    HW2 1689   1.278   2.058   2.231  0.1608  0.3107 -0.3707
  564SOL     OW 1690   2.448   0.689   1.319  0.2066  0.2163  0.5273
  564SOL    HW1 1691   2.412   0.718   1.231 -2.7332  0.9407 -0.4764
  564SOL    HW2 1692   2.451   0.759   1.389 -1.0366 -0.2978 -1.4108
  565SOL     OW 1693   1.416   1.032   0.335  0.3990 -0.3403  0.2922
  565SOL    HW1 1694   1.395   1.133   0.326 -0.0840  1.0098 -0.3740
  565SOL    HW2 1695   1.516   1.019   0.342 -1.4243 -1.0961  0.8210
  566SOL     OW 1696   2.303   2.525   3.055 -0.0775  0.4156 -0.0715
  566SOL    HW1 1697   2.370   2.517   0.026  0.6653 -0.4577 -0.9295
  566SOL    HW2 1698   2.215   2.481   3.077 -1.7895  1.6591 -0.5940
  567SOL     OW 1699   1.638   1.170   1.030 -0.0452  0.3228  0.7603
  567SOL    HW1 1700   1.728   1.175   0.977  0.1363 -1.6563 -2.2842
  567SOL    HW2 1701   1.577   1.093   1.012 -1.2660  0.4101 -1.8259
  568SOL     OW 1702   1.102   1.487   2.860 -0.0187 -0.2679 -0.2319
  568SOL    HW1 1703   1.082   1.432   2.940  0.8811  0.6897  0.1507
  568SOL    HW2 1704   1.019   1.490   2.794  1.7925 -0.5880 -3.1969
  569SOL     OW 1705   2.148   1.609   0.714  0.2059  0.1040 -0.1067
  569SOL    HW1 1706   2.173   1.512   0.739  0.4462  2.4464 -0.7108
  569SOL    HW2 1707   2.146   1.677   0.793  3.1068 -0.2420  0.8338
  570SOL     OW 1708   2.674   2.487   2.200 -0.2623  0.1849 -0.0883
  570SOL    HW1 1709   2.708   2.491   2.107  0.3789 -2.0882 -0.5711
  570SOL    HW2 1710   2.747   2.473   2.265 -1.9898 -1.0695  0.1109
  571SOL     OW 1711   2.868   1.847   1.718  0.2991 -0.0999  0.0795
  571SOL    HW1 1712   2.883   1.898   1.802  0.4848 -1.5948 -1.1619
  571SOL    HW2 1713   2.791   1.893   1.672  0.1946 -1.8693  0.4323
  572SOL     OW 1714   1.200   2.339   2.669 -0.4355 -0.2437  0.5466
  572SOL    HW1 1715   1.239   2.413   2.606  0.1267 -1.6147 -1.7345
  572SOL    HW2 1716   1.275   2.296   2.725 -0.0848 -2.2323  0.9971
  573SOL     OW 1717   1.641   2.163   1.368 -0.1433 -0.3957 -0.1090
  573SOL    HW1 1718   1.599   2.086   1.315  0.7411 -0.0528  0.4369
  573SOL    HW2 1719   1.668   2.132   1.459  1.5941  0.5174 -3.1632
  574SOL     OW 1720   1.032   2.758   1.473  0.6250 -0.1065  0.3620
  574SOL    HW1 1721   1.042   2.855   1.486  1.9924 -0.3269 -0.4153
  574SOL    HW2 1722   1.004   2.736   1.377  1.0686  1.7745  3.4332
  575SOL     OW 1723   0.940   0.385   0.910  0.8098  0.5597 -0.0856
  575SOL    HW1 1724   1.035   0.409   0.878 -2.4699  0.0567  3.5910
  575SOL    HW2 1725   0.939   0.387   1.009 -0.5182  0.0471  2.5334
  576SOL     OW 1726   2.270   0.524   1.444 -0.1114  0.4515 -0.1147
  576SOL    HW1 1727   2.346   0.585   1.421 -0.9871 -2.8800 -1.7306
  576SOL    HW2 1728   2.299   0.432   1.406 -0.8471  1.3140 -2.5201
  577SOL     OW 1729   2.056   0.179   2.969  1.1271  0.1779 -0.4573
  577SOL    HW1 1730   2.157   0.164   2.969  0.0894  1.9793  0.1558
  577SOL    HW2 1731   2.042   0.276   3.002  0.7218  1.5420 -1.9378
  578SOL     OW 1732   1.763   1.974   2.008  0.2048  0.2484  0.1238
  578SOL    HW1 1733   1.697   1.934   2.067  0.8033 -1.3529 -2.9797
  578SOL    HW2 1734   1.829   1.902   1.969  1.5725 -1.4480 -3.1020
  579SOL     OW 1735   0.603   1.666   1.183  0.6818 -0.1748  0.1193
  579SOL    HW1 1736   0.575   1.729   1.106 -1.5621  1.2916 -0.2925
  579SOL    HW2 1737   0.564   1.569   1.180 -0.9797  0.1541 -1.7371
  580SOL     OW 1738   1.513   2.953   2.854 -0.2697 -0.0331 -0.2579
  580SOL    HW1 1739   1.569   2.872   2.825 -0.6611  0.8850  0.8769
  580SOL    HW2 1740   1.442   2.966   2.783  0.2912  1.7316 -2.2532
  581SOL     OW 1741   1.156   0.829   2.137  0.1684 -0.4280 -0.4575
  581SOL    HW1 1742   1.261   0.809   2.142  3.4089 -2.6908 -2.0494
  581SOL    HW2 1743   1.140   0.923   2.102 -0.2041 -2.1957  0.7644
  582SOL     OW 1744   0.398   0.435   0.914  0.2190  0.4924  0.1279
  582SOL    HW1 1745   0.378   0.537   0.890  0.3466  1.6974  0.6286
  582SOL    HW2 1746   0.416   0.377   0.833 -2.0710 -0.2336 -0.8669
  583SOL     OW 1747   0.953   1.879   1.959  0.1703  0.1921  0.1452
  583SOL    HW1 1748   0.883   1.808   1.934 -1.2715 -3.8337  0.3988
  583SOL    HW2 1749   0.954   1.886   2.058  1.5576 -1.3367 -1.5321
  584SOL     OW 1750   2.461   2.628   0.431  0.5972 -0.1112  0.2669
  584SOL    HW1 1751   2.462   2.564   0.514  1.3727 -2.6502  0.0111
  584SOL    HW2 1752   2.429   2.716   0.461 -2.6823 -0.7036 -1.4011
  585SOL     OW 1753   2.270   0.410   2.785 -0.0902 -0.3090  0.1339
  585SOL    HW1 1754   2.249   0.451   2.874 -2.6325  0.1706 -1.2923
  585SOL    HW2 1755   2.243   0.473   2.713 -0.3690  1.3448  1.4239
  586SOL     OW 1756   0.425   1.385   0.261 -0.0622  0.5423 -0.5396
  586SOL    HW1 1757   0.497   1.405   0.331 -2.7642  1.4504 -3.2426
  586SOL    HW2 1758   0.340   1.435   0.284  1.5303 -0.0200 -2.4630
  587SOL     OW 1759   1.666   1.931   0.914 -0.6468  0.1108 -0.4847
  587SOL    HW1 1760   1.748   1.983   0.939 -1.9364 -3.2115 -0.2402
  587SOL    HW2 1761   1.581   1.976   0.949 -1.3284 -2.4324 -0.6702
  588SOL     OW 1762   0.720   0.697   1.259 -0.6199 -0.7298 -0.3636
  588SOL    HW1 1763   0.820   0.693   1.289 -0.7067  0.4673  0.1186
  588SOL    HW2 1764   0.723   0.697   1.159 -0.7024 -2.2507  0.6357
  589SOL     OW 1765   2.005   2.900   0.878  0.5956 -0.0268  0.7001
  589SOL    HW1 1766   2.007   2.884   0.776  0.0542  1.4631  2.3411
  589SOL    HW2 1767   1.923   2.860   0.922  0.0517  0.4685  1.4609
  590SOL     OW 1768   1.689   1.071   0.351 -0.0426  0.1516 -0.3481
  590SOL    HW1 1769   1.726   1.083   0.258 -1.0882  0.6532  0.5605
  590SOL    HW2 1770   1.682   1.158   0.405 -1.5037 -3.3780 -0.5573
  591SOL     OW 1771   2.326   2.178   2.177  0.3689 -0.5616  0.3271
  591SOL    HW1 1772   2.329   2.096   2.117  1.1318  1.2118 -0.3785
  591SOL    HW2 1773   2.413   2.201   2.216 -1.3994  2.1628 -0.2076
  592SOL     OW 1774   1.473   2.054   1.049  0.0633  0.3174 -0.1094
  592SOL    HW1 1775   1.509   1.992   1.120 -2.4985  0.1956  0.0061
  592SOL    HW2 1776   1.380   2.070   1.079  0.2224 -1.1780  1.5870
  593SOL     OW 1777   0.682   3.036   0.907 -0.1066 -0.3487  1.3690
  593SOL    HW1 1778   0.765   2.976   0.930  0.4429 -0.5806  0.2600
  593SOL    HW2 1779   0.717   0.028   0.897  1.3582  1.7365 -0.2269
  594SOL     OW 1780   2.850   0.799   2.117  0.3546  0.4095 -0.0690
  594SOL    HW1 1781   2.851   0.901   2.107 -1.2711  1.1361  1.2535
  594SOL    HW2 1782   2.922   0.779   2.186  0.9940 -0.7100  0.6357
  595SOL     OW 1783   0.150   3.003   0.457 -0.2931  0.1680  0.1678
  595SOL    HW1 1784   0.075   2.950   0.492  2.2255 -0.1292  1.6821
  595SOL    HW2 1785   0.217   3.018   0.538 -1.4716 -0.8444  1.2175
  596SOL     OW 1786   3.070   0.563   1.376  0.4521  0.5444 -0.1244
  596SOL    HW1 1787   0.017   0.643   1.402 -1.3248 -0.0823  1.1732
  596SOL    HW2 1788   2.986   0.559   1.436 -4.0541  1.8220 -0.5177
  597SOL     OW 1789   2.384   0.884   0.303 -0.2497  0.0001  0.0271
  597SOL    HW1 1790   2.461   0.858   0.235  1.1089 -1.1155 -1.1686
  597SOL    HW2 1791   2.392   0.976   0.346  0.2098 -0.0871 -2.7216
  598SOL     OW 1792   0.579   0.161   2.013  0.1095  0.2697  0.4567
  598SOL    HW1 1793   0.573   0.257   1.990  0.5218 -2.0627  1.1516
  598SOL    HW2 1794   0.531   0.138   2.097 -0.1120  2.5572  2.6585
  599SOL     OW 1795   2.497   1.667   0.236  0.5692 -0.1866  0.5095
  599SOL    HW1 1796   2.450   1.736   0.295 -0.5061  0.1001 -0.4391
  599SOL    HW2 1797   2.554   1.709   0.163 -1.8149 -0.6959  2.2096
  600SOL     OW 1798   1.070   0.904   0.089  0.3585 -0.6030  0.3283
  600SOL    HW1 1799   1.141   0.974   0.063 -0.4779 -0.1571 -1.7697
  600SOL    HW2 1800   0.984   0.947   0.113 -0.4599 -2.1753 -2.5274
  601SOL     OW 1801   1.456   1.014   3.093 -0.0901  0.2569 -0.0384
  601SOL    HW1 1802   1.373   1.065   0.002  2.7505 -0.0104  1.7157
  601SOL    HW2 1803   1.450   0.968   3.004  1.0516  0.7650  0.0933
  602SOL     OW 1804   1.047   3.006   1.528 -0.2792 -0.5744  0.2618
  602SOL    HW1 1805   1.118   3.053   1.580 -0.7770 -1.0670  1.4547
  602SOL    HW2 1806   0.953   3.034   1.560  0.4093  0.3176 -2.2040
  603SOL     OW 1807   0.786   2.788   2.553 -0.0746 -0.5975  0.2269
  603SOL    HW1 1808   0.878   2.799   2.586  0.7252  1.3048  0.6204
  603SOL    HW2 1809   0.782   2.800   2.455  0.8685 -2.0632  2.2066
  604SOL     OW 1810   2.887   0.148   2.006  0.0214  0.1907  0.0999
  604SOL    HW1 1811   2.889   0.080   2.081  0.0716  0.5274  0.6994
  604SOL    HW2 1812   2.857   0.117   1.914 -0.1851  1.5733 -1.1409
  605SOL     OW 1813   2.610   2.884   1.582  0.8479  0.0496  0.2695
  605SOL    HW1 1814   2.573   2.786   1.596  0.7230 -0.5654  1.8950
  605SOL    HW2 1815   2.701   2.884   1.624 -3.9711 -1.6441 -1.3080
  606SOL     OW 1816   2.998   2.057   2.606  0.4526  0.5857  0.1618
  606SOL    HW1 1817   2.997   2.098   2.699  0.8813 -1.7021  0.9893
  606SOL    HW2 1818   3.089   2.014   2.592 -0.0848  0.0804 -0.4039
  607SOL     OW 1819   0.875   0.125   0.539  0.2435  0.0788 -0.1787
  607SOL    HW1 1820   0.837   0.216   0.515  0.6854  0.2056 -3.1863
  607SOL    HW2 1821   0.944   0.126   0.614 -1.8229 -0.1612 -0.4276
  608SOL     OW 1822   1.554   1.839   2.499  0.1430  0.4050 -0.2181
  608SOL    HW1 1823   1.527   1.749   2.535  2.0911  1.3076 -1.6653
  608SOL    HW2 1824   1.600   1.828   2.408  2.0015 -2.9983  0.3964
  609SOL     OW 1825   2.892   0.404   0.923 -0.1311  0.4718 -0.4142
  609SOL    HW1 1826   2.908   0.310   0.885  0.9460 -2.1398 -0.7010
  609SOL    HW2 1827   2.977   0.462   0.918  0.0545 -1.9779 -0.8256
  610SOL     OW 1828   0.692   2.432   0.040 -0.1751  1.1584  0.4550
  610SOL    HW1 1829   0.641   2.509   3.097  0.4766  0.7666 -0.5728
  610SOL    HW2 1830   0.705   2.456   0.138  0.3925  0.4197 -4.4092
  611SOL     OW 1831   1.973   1.251   0.545  0.4303  0.0427  0.3025
  611SOL    HW1 1832   1.885   1.279   0.497 -1.8027  0.3721 -0.3840
  611SOL    HW2 1833   2.025   1.190   0.482 -0.2526 -2.4709 -3.5175
  612SOL     OW 1834   1.051   2.588   2.470 -0.0685  0.3868  0.0741
  612SOL    HW1 1835   1.027   2.661   2.541  0.2312  1.3940  1.5776
  612SOL    HW2 1836   0.970   2.531   2.459  0.0909  2.3621 -2.0899
  613SOL     OW 1837   1.275   1.862   0.243  0.1726  0.0677 -0.1005
  613SOL    HW1 1838   1.343   1.940   0.237  1.8082 -1.8460  2.9031
  613SOL    HW2 1839   1.185   1.891   0.200  0.2203  1.9698  1.0973
  614SOL     OW 1840   2.708   2.283   1.585 -0.2340  0.0132 -0.4645
  614SOL    HW1 1841   2.650   2.338   1.528  2.0435  1.0264  1.6971
  614SOL    HW2 1842   2.676   2.274   1.680  0.6163  0.2039 -2.2918
  615SOL     OW 1843   2.355   1.266   3.105  0.5603  0.3762 -0.1764
  615SOL    HW1 1844   2.405   1.299   3.022 -0.6274 -1.0799  1.8428
  615SOL    HW2 1845   2.263   1.240   3.083  0.5321  1.8863 -0.2155
  616SOL     OW 1846   1.587   0.117   0.744  0.0546  0.2707 -0.4748
  616SOL    HW1 1847   1.567   0.059   0.828 -1.5651 -1.3652  1.6978
  616SOL    HW2 1848   1.686   0.119   0.734 -1.5228  0.0864 -0.0169
  617SOL     OW 1849   0.311   1.498   2.743 -0.0551  0.0862  0.1542
  617SOL    HW1 1850   0.406   1.534   2.732  3.9198  1.3032  2.2931
  617SOL    HW2 1851   0.273   1.427   2.676 -1.4331 -0.1808 -0.3598
  618SOL     OW 1852   0.377   0.730   1.574  0.2495  0.1710  0.0402
  618SOL    HW1 1853   0.452   0.695   1.515  3.2768 -3.9348 -0.5639
  618SOL    HW2 1854   0.381   0.830   1.571  4.3742 -0.3027 -1.6405
  619SOL     OW 1855   2.616   0.888   1.788 -0.1369  0.5769 -0.2808
  619SOL    HW1 1856   2.711   0.854   1.758  0.6994 -0.9220  1.4966
  619SOL    HW2 1857   2.577   0.819   1.853  0.1882 -1.6890  1.3649
  620SOL     OW 1858   2.079   1.187   3.026 -0.1312  0.3315 -0.5569
  620SOL    HW1 1859   1.997   1.132   3.003 -2.7830  0.3752  1.3422
  620SOL    HW2 1860   2.062   1.221   0.013  1.0914  0.4090 -0.7501
  621SOL     OW 1861   2.342   2.825   1.151 -0.4723 -0.0552  0.2998
  621SOL    HW1 1862   2.439   2.824   1.185  0.5967  0.9415 -0.8799
  621SOL    HW2 1863   2.289   2.912   1.178  1.2966  2.4539  1.2203
  622SOL     OW 1864   1.631   0.623   1.895 -0.4425  0.5299 -0.5898
  622SOL    HW1 1865   1.653   0.529   1.860 -0.0219 -3.6127  3.5272
  622SOL    HW2 1866   1.582   0.672   1.826  0.9240 -2.7594  3.1362
  623SOL     OW 1867   1.331   0.971   2.524 -0.2329 -0.0464  0.5542
  623SOL    HW1 1868   1.288   1.036   2.457 -1.5055  2.9969 -0.1364
  623SOL    HW2 1869   1.266   0.964   2.600 -1.2702 -0.6762 -2.3418
  624SOL     OW 1870   1.862   0.204   0.688 -0.4393  0.8117 -0.1660
  624SOL    HW1 1871   1.821   0.205   0.593 -0.8669 -0.0654 -0.1694
  624SOL    HW2 1872   1.921   0.123   0.691 -1.1654  1.5627  1.7725
  625SOL     OW 1873   0.579   1.487   0.506 -0.3023 -0.1076 -0.1260
  625SOL    HW1 1874   0.655   1.420   0.530  0.9141 -0.3461  0.5664
  625SOL    HW2 1875   0.526   1.514   0.592  0.6344  1.9398  3.1868
  626SOL     OW 1876   1.739   1.135   2.296 -0.1669  0.2575  0.7944
  626SOL    HW1 1877   1.726   1.192   2.213  0.4795  2.1788 -0.7742
  626SOL    HW2 1878   1.665   1.163   2.360  0.7682 -0.1281 -0.4711
  627SOL     OW 1879   0.730   0.446   1.853  0.0006 -0.3061  0.2344
  627SOL    HW1 1880   0.810   0.447   1.916  0.7571  2.9069 -1.3572
  627SOL    HW2 1881   0.635   0.446   1.889 -2.4729  0.7235  0.4268
  628SOL     OW 1882   2.119   0.749   2.372  0.5196  0.2307  0.1961
  628SOL    HW1 1883   2.149   0.671   2.319 -1.4796 -2.2291  1.7541
  628SOL    HW2 1884   2.055   0.801   2.316 -0.0927 -2.4775 -0.4966
  629SOL     OW 1885   0.785   1.463   0.098  0.0461 -0.1009 -0.5829
  629SOL    HW1 1886   0.770   1.531   0.171 -1.0108 -2.9061 -2.1246
  629SOL    HW2 1887   0.792   1.509   0.010 -0.7176 -2.3232  4.0318
  630SOL     OW 1888   1.144   0.514   2.158 -0.4492 -0.5298  0.0432
  630SOL    HW1 1889   1.113   0.599   2.111  2.4977  0.3515  5.4098
  630SOL    HW2 1890   1.188   0.528   2.250  0.8281 -0.9795  2.7086
  631SOL     OW 1891   2.628   0.755   1.006 -0.5829  0.6240 -0.0241
  631SOL    HW1 1892   2.532   0.787   1.023 -0.8173  0.1170  0.0959
  631SOL    HW2 1893   2.646   0.681   0.937 -0.5060 -2.6149 -0.4205
  632SOL     OW 1894   2.544   1.497   0.694 -0.3249  0.3269 -0.5206
  632SOL    HW1 1895   2.610   1.439   0.748  0.4091 -1.8807  0.8043
  632SOL    HW2 1896   2.578   1.589   0.673 -0.0878  0.6343  1.5126
  633SOL     OW 1897   0.728   1.400   0.797  0.2512 -0.3190  0.2796
  633SOL    HW1 1898   0.668   1.339   0.862 -3.5672 -2.9791  0.1801
  633SOL    HW2 1899   0.757   1.339   0.718 -2.0273 -2.5221  1.2668
  634SOL     OW 1900   1.453   3.015   0.601 -0.5610  0.2739  0.0538
  634SOL    HW1 1901   1.376   3.038   0.539 -1.1466 -0.2305 -1.9952
  634SOL    HW2 1902   1.489   3.093   0.652  1.3931 -0.6029 -2.6052
  635SOL     OW 1903   1.760   0.519   1.563  0.1522  0.5323 -0.3730
  635SOL    HW1 1904   1.844   0.515   1.508 -1.6455 -1.9469 -1.7541
  635SOL    HW2 1905   1.727   0.620   1.571 -1.6435  4.2011 -1.3183
  636SOL     OW 1906   1.199   0.607   0.668 -0.0745  0.5288 -0.1218
  636SOL    HW1 1907   1.186   0.563   0.759  3.2697  0.6198  1.8400
  636SOL    HW2 1908   1.212   0.542   0.591 -0.5240 -1.0382 -3.5757
  637SOL     OW 1909   1.922   1.966   2.832 -0.3391  0.0166  0.3327
  637SOL    HW1 1910   1.893   1.885   2.882  1.1895  1.1395 -0.6933
  637SOL    HW2 1911   1.893   2.053   2.882  1.8955 -0.8580  1.6980
  638SOL     OW 1912   0.974   3.027   2.797 -0.0267  0.1838  0.1502
  638SOL    HW1 1913   1.037   3.046   2.877  1.4134 -1.6268  1.0035
  638SOL    HW2 1914   0.875   3.056   2.806 -0.8622  3.1044 -0.1787
  639SOL     OW 1915   1.334   2.045   1.440 -0.4568  0.4367 -0.2012
  639SOL    HW1 1916   1.294   1.951   1.464 -1.9365 -0.4528  2.0319
  639SOL    HW2 1917   1.315   2.072   1.342 -2.0996  0.3431 -3.8198
  640SOL     OW 1918   0.475   3.093   2.891 -0.1509 -0.4587 -0.2854
  640SOL    HW1 1919   0.455   0.034   2.980  1.2954 -1.0654 -0.9508
  640SOL    HW2 1920   0.415   3.010   2.885 -0.8985 -1.8278 -0.8772
  641SOL     OW 1921   0.519   0.774   0.255  0.1218 -0.1663  0.0049
  641SOL    HW1 1922   0.431   0.728   0.234 -1.8956  0.8961  4.1818
  641SOL    HW2 1923   0.500   0.841   0.327 -3.2940  1.1209 -0.0338
  642SOL     OW 1924   0.238   1.633   1.222 -0.1634  0.2876  0.8294
  642SOL    HW1 1925   0.321   1.681   1.188  0.4987  2.1731 -0.7693
  642SOL    HW2 1926   0.232   1.543   1.169 -0.2812 -1.2385 -1.6305
  643SOL     OW 1927   0.678   1.991   2.708  0.0764 -0.3247  0.4290
  643SOL    HW1 1928   0.620   2.047   2.639 -1.4671  1.6094 -2.8817
  643SOL    HW2 1929   0.622   1.949   2.781 -1.3635  0.1852  1.6708
  644SOL     OW 1930   1.600   2.418   0.105 -0.8004 -0.3684 -0.0394
  644SOL    HW1 1931   1.701   2.418   0.134  1.9222  1.4000 -0.7978
  644SOL    HW2 1932   1.532   2.406   0.183  0.3454 -1.9122  1.0277
  645SOL     OW 1933   1.720   2.041   1.600  0.3097  0.1276  0.2597
  645SOL    HW1 1934   1.649   2.003   1.654  1.9153  0.8725 -0.5949
  645SOL    HW2 1935   1.796   2.079   1.653  0.1966 -2.1461 -1.6647
  646SOL     OW 1936   0.542   2.636   0.284  0.2705 -0.1224  0.5043
  646SOL    HW1 1937   0.639   2.612   0.291  0.0106  0.7408 -1.2175
  646SOL    HW2 1938   0.525   2.703   0.213 -0.2897 -2.1806 -3.3136
  647SOL     OW 1939   0.083   2.849   2.100 -0.2537 -0.2667 -0.3662
  647SOL    HW1 1940   0.010   2.892   2.164 -2.8558  1.3495  2.0290
  647SOL    HW2 1941   0.178   2.886   2.117  0.5356  0.4653 -0.6851
  648SOL     OW 1942   2.705   1.090   0.977  0.6682 -0.4643 -0.3706
  648SOL    HW1 1943   2.767   1.012   0.958 -2.0706  0.5598 -0.8266
  648SOL    HW2 1944   2.610   1.060   0.958 -0.0379 -1.3398  1.7323
  649SOL     OW 1945   1.978   2.699   2.738 -0.2671 -0.4125  0.0390
  649SOL    HW1 1946   1.982   2.677   2.840  2.4665 -0.4409  0.8290
  649SOL    HW2 1947   2.035   2.782   2.723 -0.3362 -2.5363  1.0435
  650SOL     OW 1948   2.522   1.800   1.845 -0.3300 -0.2462  0.7474
  650SOL    HW1 1949   2.491   1.819   1.750  1.0540  0.1639  0.1695
  650SOL    HW2 1950   2.522   1.699   1.873  1.0916 -0.8874  1.6223
  651SOL     OW 1951   1.135   1.889   2.806 -0.1006 -0.2214  0.2020
  651SOL    HW1 1952   1.143   1.885   2.703  1.9803  0.9030  2.3968
  651SOL    HW2 1953   1.204   1.815   2.840  2.4972 -1.4865  1.3386
  652SOL     OW 1954   0.522   2.998   2.370 -0.2474 -0.1271  0.8702
  652SOL    HW1 1955   0.452   2.988   2.437  2.7462  0.6656 -3.4638
  652SOL    HW2 1956   0.607   2.947   2.401  0.4516  0.8200  0.8972
  653SOL     OW 1957   2.333   1.872   0.891 -0.0442  0.5365  0.2246
  653SOL    HW1 1958   2.311   1.912   0.978 -1.5422 -0.4261 -0.6030
  653SOL    HW2 1959   2.431   1.865   0.874  0.5768  0.3344  1.7255
  654SOL     OW 1960   2.395   2.873   2.130  0.2015 -0.4370 -0.2232
  654SOL    HW1 1961   2.319   2.861   2.199 -1.1710 -1.7323 -1.5656
  654SOL    HW2 1962   2.389   2.967   2.082  1.4838  1.1423  1.3326
  655SOL     OW 1963   2.659   2.168   1.079  0.0867 -0.1975  0.4247
  655SOL    HW1 1964   2.695   2.236   1.149  1.2058  1.8132  2.1927
  655SOL    HW2 1965   2.602   2.217   1.008 -0.8560 -0.9635  0.4366
  656SOL     OW 1966   2.752   1.690   2.766 -0.7896  0.1025  0.5140
  656SOL    HW1 1967   2.737   1.791   2.767 -0.5719  0.6900 -1.7054
  656SOL    HW2 1968   2.718   1.640   2.851 -2.3426 -0.9244  0.0188
  657SOL     OW 1969   0.051   1.203   0.476 -0.3302  0.4237 -0.3401
  657SOL    HW1 1970   3.079   1.214   0.412 -2.6424  0.1509 -0.8327
  657SOL    HW2 1971   0.032   1.210   0.577  1.7839 -0.0658  1.2339
  658SOL     OW 1972   1.403   1.703   1.347  0.1854 -0.0442 -0.1950
  658SOL    HW1 1973   1.367   1.680   1.256  1.6027  0.0474  0.2553
  658SOL    HW2 1974   1.328   1.727   1.416  0.7543  0.2372  1.5466
  659SOL     OW 1975   1.224   3.064   1.312 -0.1145 -0.4447  0.3012
  659SOL    HW1 1976   1.164   0.010   1.254  1.5247 -0.3907 -0.4892
  659SOL    HW2 1977   1.176   3.047   1.401  2.0995 -0.2608 -0.1555
  660SOL     OW 1978   2.282   0.583   0.891 -0.0594 -0.5623  0.2426
  660SOL    HW1 1979   2.281   0.554   0.791 -1.6156 -2.0880 -2.2625
  660SOL    HW2 1980   2.199   0.543   0.942 -1.0115  1.5559  1.3289
  661SOL     OW 1981   0.501   1.800   0.200  0.2190 -0.5979  0.0047
  661SOL    HW1 1982   0.575   1.738   0.232  0.5026 -1.0994 -0.1200
  661SOL    HW2 1983   0.537   1.868   0.136 -0.5262 -0.2921 -0.9414
  662SOL     OW 1984   2.144   0.930   1.969  0.0957  0.6681 -0.0906
  662SOL    HW1 1985   2.204   0.848   1.996  1.9098  0.8301  1.3400
  662SOL    HW2 1986   2.122   0.931   1.869 -0.5572 -0.0667 -3.9755
  663SOL     OW 1987   1.912   1.368   1.067  0.2923 -0.4044 -0.1537
  663SOL    HW1 1988   1.939   1.352   0.971 -1.7067 -0.8494  1.5496
  663SOL    HW2 1989   1.974   1.326   1.142 -1.0870 -1.1175  3.6742
  664SOL     OW 1990   0.315   0.065   1.243 -0.3562  0.3456  0.2332
  664SOL    HW1 1991   0.373   0.035   1.163 -0.1535 -2.1163  0.0181
  664SOL    HW2 1992   0.359   0.049   1.333 -2.0513  0.8014  0.0406
  665SOL     OW 1993   1.395   0.347   2.792 -0.0770 -0.7024  0.3903
  665SOL    HW1 1994   1.393   0.344   2.896  0.1904  1.4060  1.1757
  665SOL    HW2 1995   1.384   0.441   2.762  1.1416 -2.2860  1.2465
  666SOL     OW 1996   0.719   0.528   2.381  0.0238  0.1984  0.3997
  666SOL    HW1 1997   0.757   0.443   2.346 -1.4133  3.2616  1.7635
  666SOL    HW2 1998   0.619   0.523   2.370  0.1036 -0.9946  1.5999
  667SOL     OW 1999   1.577   1.589   1.544 -0.3116 -0.0677 -0.3271
  667SOL    HW1 2000   1.559   1.668   1.606 -0.2953 -2.8728 -3.1099
  667SOL    HW2 2001   1.528   1.601   1.459 -1.0017 -0.5601  2.9224
  668SOL     OW 2002   0.480   1.266   2.375  0.2036 -0.3058 -1.0421
  668SOL    HW1 2003   0.506   1.170   2.381  2.2433  1.0371  0.1192
  668SOL    HW2 2004   0.475   1.288   2.280  0.2936 -3.0567  1.9913
  669SOL     OW 2005   2.565   2.546   0.001  0.4224  0.1587  0.1409
  669SOL    HW1 2006   2.612   2.546   3.022 -0.3319 -3.0716  0.7466
  669SOL    HW2 2007   2.621   2.558   0.083  0.7066 -0.5532 -2.3711
  670SOL     OW 2008   2.618   1.273   1.940 -0.0758 -1.0262 -0.2003
  670SOL    HW1 2009   2.570   1.210   1.875  2.3342 -1.3342 -1.3546
  670SOL    HW2 2010   2.581   1.269   2.034  0.4468  1.0430  0.8862
  671SOL     OW 2011   2.575   1.760   0.586 -0.7928  0.1942 -0.0848
  671SOL    HW1 2012   2.492   1.798   0.544  1.1321 -1.5124 -1.1121
  671SOL    HW2 2013   2.659   1.769   0.525 -0.0799  0.3524 -2.0213
  672SOL     OW 2014   1.541   0.943   1.943 -0.8681 -0.0553  0.4438
  672SOL    HW1 2015   1.632   0.956   1.980 -1.2686  0.6999  0.2860
  672SOL    HW2 2016   1.541   0.972   1.846  0.2482 -0.4348  2.8284
  673SOL     OW 2017   2.691   1.992   1.547 -0.3819 -0.2930  0.0476
  673SOL    HW1 2018   2.695   2.090   1.535  0.2189 -2.3908 -0.2302
  673SOL    HW2 2019   2.721   1.956   1.460 -1.5657  1.7484  2.4785
  674SOL     OW 2020   1.243   1.820   1.547 -0.3084 -0.3154 -0.5015
  674SOL    HW1 2021   1.264   1.804   1.647  1.8958  0.4800 -0.5313
  674SOL    HW2 2022   1.157   1.775   1.513  2.8969  0.3118  0.1894
  675SOL     OW 2023   3.103   0.815   1.114 -0.1908  0.5317 -0.0955
  675SOL    HW1 2024   0.071   0.883   1.104 -2.3612 -1.1387  2.2410
  675SOL    HW2 2025   0.017   0.729   1.060 -1.6602 -1.9148 -2.0892
  676SOL     OW 2026   2.888   0.956   1.542 -0.2223 -0.5453 -0.0987
  676SOL    HW1 2027   2.862   0.898   1.619 -1.7010  1.5421  1.4462
  676SOL    HW2 2028   2.882   0.907   1.452 -1.5607 -0.3168 -1.6052
  677SOL     OW 2029   2.005   1.109   2.610  0.2477  0.4957 -0.1283
  677SOL    HW1 2030   1.985   1.133   2.514 -1.0459 -0.1178  1.0570
  677SOL    HW2 2031   2.031   1.187   2.669  0.9695  0.3830 -0.4032
  678SOL     OW 2032   2.622   1.555   1.070  0.0972  0.1176  0.2643
  678SOL    HW1 2033   2.653   1.492   0.998  0.6598 -0.1262 -2.0783
  678SOL    HW2 2034   2.696   1.586   1.133  1.5552  0.5770 -0.5078
  679SOL     OW 2035   0.188   2.546   0.222  0.3130  0.3602  0.7124
  679SOL    HW1 2036   0.139   2.485   0.159 -0.7069  1.0399 -0.0933
  679SOL    HW2 2037   0.271   2.505   0.262 -1.9222  1.7914 -2.1722
  680SOL     OW 2038   3.067   1.741   1.131  0.1639 -0.2846 -0.0688
  680SOL    HW1 2039   3.066   1.844   1.111  0.2363  2.2803  1.1804
  680SOL    HW2 2040   0.045   1.707   1.171 -0.9450 -2.5006 -0.8799
  681SOL     OW 2041   1.163   0.073   0.879 -0.1942 -0.4933  0.7062
  681SOL    HW1 2042   1.200   0.138   0.811 -0.9978 -0.6396  2.6557
  681SOL    HW2 2043   1.216   3.093   0.875 -2.0191  0.8840  2.4739
  682SOL     OW 2044   1.896   2.511   1.640 -0.1800 -0.0966  0.1172
  682SOL    HW1 2045   1.993   2.490   1.666  0.8448  1.2791  0.4754
  682SOL    HW2 2046   1.882   2.510   1.538 -0.9806 -0.6559 -1.8170
  683SOL     OW 2047   2.531   1.595   1.499 -0.0604 -0.0058 -0.1580
  683SOL    HW1 2048   2.507   1.690   1.521  1.7734  0.0358  3.3434
  683SOL    HW2 2049   2.625   1.570   1.530  1.4561  0.2162  0.0961
  684SOL     OW 2050   0.084   1.615   2.056 -0.1393 -0.1607 -0.3513
  684SOL    HW1 2051   3.095   1.574   2.076 -3.4828 -1.6804 -0.3672
  684SOL    HW2 2052   0.081   1.714   2.033  0.3927  1.1647 -1.1039
  685SOL     OW 2053   1.590   1.476   0.273  0.2338 -0.0853  0.3250
  685SOL    HW1 2054   1.648   1.559   0.300 -0.1655 -1.1363 -1.8841
  685SOL    HW2 2055   1.625   1.444   0.182 -0.1772  0.2355  1.0843
  686SOL     OW 2056   2.863   0.761   1.715 -1.0441 -0.5307 -0.3927
  686SOL    HW1 2057   2.960   0.766   1.748  1.1084  0.3710  1.2955
  686SOL    HW2 2058   2.845   0.662   1.696  2.9280  0.3875  2.1678
  687SOL     OW 2059   1.549   0.232   2.596 -0.3569 -0.2364  0.0265
  687SOL    HW1 2060   1.598   0.156   2.640  1.1502 -0.1380  3.0964
  687SOL    HW2 2061   1.496   0.276   2.669  0.9964 -0.4789 -3.0575
  688SOL     OW 2062   1.306   1.615   2.516 -0.0316  0.5957 -0.5431
  688SOL    HW1 2063   1.214   1.578   2.524 -2.7436  0.8053 -0.7969
  688SOL    HW2 2064   1.299   1.713   2.545 -0.9364  1.3679  4.0292
  689SOL     OW 2065   2.387   1.432   1.652  0.7311 -0.0764 -0.4649
  689SOL    HW1 2066   2.424   1.417   1.740 -2.2894  0.1781  0.1855
  689SOL    HW2 2067   2.455   1.475   1.589 -0.4602 -0.4815  1.7360
  690SOL     OW 2068   2.405   2.210   1.460 -0.4692  0.3832 -0.2264
  690SOL    HW1 2069   2.437   2.203   1.558 -1.6067 -0.1617 -2.0432
  690SOL    HW2 2070   2.345   2.132   1.433 -0.5719 -1.1036 -1.4805
  691SOL     OW 2071   0.236   1.667   0.552  0.2368 -0.3489 -0.0643
  691SOL    HW1 2072   0.296   1.732   0.501 -0.4082 -0.5108  0.2910
  691SOL    HW2 2073   0.210   1.699   0.645 -1.9010 -2.6367 -0.3611
  692SOL     OW 2074   2.746   2.857   2.633  0.3395  0.0090 -0.3130
  692SOL    HW1 2075   2.832   2.909   2.642 -0.1056  0.1103  0.8518
  692SOL    HW2 2076   2.671   2.924   2.609  0.1090  2.7599 -1.1261
  693SOL     OW 2077   0.521   1.385   2.137 -0.1165 -0.7495  0.1109
  693SOL    HW1 2078   0.557   1.313   2.077  1.1301  2.3413 -0.3201
  693SOL    HW2 2079   0.444   1.440   2.095 -1.9200  0.4181 -2.0390
  694SOL     OW 2080   2.489   0.400   2.087 -0.5067  0.3191  0.3533
  694SOL    HW1 2081   2.590   0.391   2.083  3.7409 -3.4701  1.0214
  694SOL    HW2 2082   2.443   0.369   1.999  1.4666 -0.8058  2.4504
  695SOL     OW 2083   1.429   0.765   2.082 -0.3443 -0.0817  0.0855
  695SOL    HW1 2084   1.458   0.760   2.178 -0.4259  0.4034 -2.0444
  695SOL    HW2 2085   1.479   0.837   2.027  0.9462  1.1722  0.4947
  696SOL     OW 2086   2.172   2.927   1.674 -0.2474  0.4692 -0.1509
  696SOL    HW1 2087   2.125   2.952   1.763  0.0323 -0.7339  0.5809
  696SOL    HW2 2088   2.128   2.979   1.599  2.8264 -1.0110  0.1169
  697SOL     OW 2089   0.931   0.367   2.076  0.0954 -0.0518 -0.0308
  697SOL    HW1 2090   0.888   0.342   2.163  2.4876 -0.0299  2.6439
  697SOL    HW2 2091   1.023   0.402   2.094 -1.6005 -0.6052 -0.5250
  698SOL     OW 2092   2.328   1.692   2.829  0.4578 -0.1731  0.8726
  698SOL    HW1 2093   2.340   1.616   2.756 -3.5620  0.1081 -1.8892
  698SOL    HW2 2094   2.406   1.753   2.853 -0.1051 -1.2515  0.5574
  699SOL     OW 2095   2.128   0.663   0.328 -0.2386 -0.7201  0.4023
  699SOL    HW1 2096   2.088   0.717   0.249  0.6404  3.1171  1.8577
  699SOL    HW2 2097   2.203   0.715   0.373 -0.5259 -1.7597  2.1956
  700SOL     OW 2098   1.318   2.959   0.873 -0.6542 -0.1381 -0.0142
  700SOL    HW1 2099   1.382   2.911   0.807  3.3136 -0.3703  1.4984
  700SOL    HW2 2100   1.299   2.899   0.954 -1.1861 -1.4201  3.4831
  701SOL     OW 2101   3.035   0.422   0.625  0.1379 -0.0632 -0.2226
  701SOL    HW1 2102   3.046   0.468   0.534 -0.8223 -1.0845  0.7216
  701SOL    HW2 2103   3.053   0.490   0.699 -2.5960  2.8853 -2.5053
  702SOL     OW 2104   1.851   2.509   1.378 -0.5520  0.4761  0.2074
  702SOL    HW1 2105   1.782   2.451   1.328 -1.3922 -0.2184 -0.6483
  702SOL    HW2 2106   1.897   2.573   1.308 -2.5501 -0.2175  0.7578
  703SOL     OW 2107   0.063   0.520   1.119  0.2091  0.0258  0.2882
  703SOL    HW1 2108   0.027   0.541   1.211  1.8154  0.4130 -3.7560
  703SOL    HW2 2109   0.139   0.452   1.127 -1.1835 -2.8622 -2.6469
  704SOL     OW 2110   0.959   2.734   1.741  0.4561  0.7386  0.0467
  704SOL    HW1 2111   0.991   2.732   1.641  1.8203  2.6983 -0.3640
  704SOL    HW2 2112   0.906   2.820   1.758  0.1849  1.3304  0.3577
  705SOL     OW 2113   0.041   1.913   0.040 -0.0513 -0.0605  0.5499
  705SOL    HW1 2114   0.126   1.870   0.079 -2.0796 -1.3930 -0.4452
  705SOL    HW2 2115   3.085   1.936   0.112  4.2209 -1.5795 -3.7881
  706SOL     OW 2116   0.204   0.396   0.259  0.3471  0.0746 -0.5141
  706SOL    HW1 2117   0.290   0.357   0.237 -3.9218 -0.5054  2.1429
  706SOL    HW2 2118   0.167   0.353   0.344  3.3312  0.9137 -0.9010
  707SOL     OW 2119   1.708   2.888   1.910 -0.2732  0.4319  0.5072
  707SOL    HW1 2120   1.609   2.904   1.889 -0.8752  0.6729 -1.6079
  707SOL    HW2 2121   1.724   2.866   2.008  0.4027  1.7243  1.6630
  708SOL     OW 2122   0.488   0.107   1.487  0.6622 -0.1271  0.0830
  708SOL    HW1 2123   0.488   0.009   1.457 -0.7180 -1.3899  1.4589
  708SOL    HW2 2124   0.500   0.108   1.587  1.1946 -0.6736 -0.0271
  709SOL     OW 2125   0.036   0.748   1.696 -0.5041  0.1283  0.9259
  709SOL    HW1 2126   0.048   0.791   1.602  0.6028 -0.8980 -0.3546
  709SOL    HW2 2127   0.112   0.683   1.709 -1.5755 -0.7100  0.0583
  710SOL     OW 2128   0.310   0.685   0.904  0.4273  0.3983 -0.2787
  710SOL    HW1 2129   0.235   0.727   0.848 -0.8477 -0.2122  1.0320
  710SOL    HW2 2130   0.389   0.751   0.917  2.0887  2.2326  0.5386
  711SOL     OW 2131   2.447   2.468   1.974 -0.4968  0.0640 -0.3766
  711SOL    HW1 2132   2.440   2.372   1.998  0.0892 -0.4649  2.3202
  711SOL    HW2 2133   2.363   2.527   1.983  0.3969 -1.0141  0.2355
  712SOL     OW 2134   0.135   2.576   2.316 -0.1293 -0.2620  0.2339
  712SOL    HW1 2135   0.175   2.648   2.380  1.6921 -1.2225 -1.0984
  712SOL    HW2 2136   0.064   2.619   2.256 -0.5292 -1.2656  2.3407
  713SOL     OW 2137   2.596   0.281   0.677  0.0944  0.6026 -0.1456
  713SOL    HW1 2138   2.593   0.380   0.652 -1.9331 -0.5180  0.8953
  713SOL    HW2 2139   2.692   0.249   0.662  1.6955  1.5026  2.1773
  714SOL     OW 2140   1.894   1.633   2.537  0.0008  0.5483  0.2580
  714SOL    HW1 2141   1.814   1.616   2.473  0.7519  0.5150  0.5709
  714SOL    HW2 2142   1.918   1.732   2.550  0.8422  0.4029  1.5608
  715SOL     OW 2143   0.007   0.540   0.848 -0.1967 -0.3884  0.1866
  715SOL    HW1 2144   0.017   0.542   0.949 -2.5996  1.5992 -1.1518
  715SOL    HW2 2145   0.063   0.612   0.800 -4.0269 -3.2338 -1.3751
  716SOL     OW 2146   0.713   0.667   1.707 -0.6156 -0.3311  0.7706
  716SOL    HW1 2147   0.650   0.636   1.634 -1.9879 -1.6797  0.4781
  716SOL    HW2 2148   0.756   0.581   1.748  0.5700  0.8863  0.6069
  717SOL     OW 2149   0.898   0.908   2.433  0.7830 -0.2567 -0.3989
  717SOL    HW1 2150   0.833   0.934   2.511 -3.0644  1.5882  2.8910
  717SOL    HW2 2151   0.936   0.986   2.388 -1.9084 -2.1032  0.2862
  718SOL     OW 2152   1.227   3.102   0.495  0.6260  0.3373  0.0340
  718SOL    HW1 2153   1.239   0.086   0.540 -3.6219 -3.0363 -3.1330
  718SOL    HW2 2154   1.160   3.103   0.417  0.2742 -1.7638 -1.9750
  719SOL     OW 2155   2.948   2.512   3.061  0.2957 -0.3279 -0.2112
  719SOL    HW1 2156   2.901   2.444   0.014 -1.8911 -0.5538 -0.6005
  719SOL    HW2 2157   2.901   2.517   2.971 -0.4202  1.4320  1.0823
  720SOL     OW 2158   1.341   0.602   1.759 -0.5977  0.0036 -0.4069
  720SOL    HW1 2159   1.385   0.553   1.683 -0.8831 -1.7863  1.8864
  720SOL    HW2 2160   1.377   0.563   1.844 -0.3288  1.5600  2.4181
  721SOL     OW 2161   0.069   2.862   1.022  0.1498 -0.2539 -0.4245
  721SOL    HW1 2162   0.009   2.845   0.943 -1.6124  1.4605  1.6790
  721SOL    HW2 2163   0.071   2.775   1.073  1.6382  1.6204 -2.6170
  722SOL     OW 2164   0.762   1.247   2.933 -0.1090  0.2350 -0.0940
  722SOL    HW1 2165   0.814   1.314   2.875  1.6373  0.3020 -0.6088
  722SOL    HW2 2166   0.671   1.226   2.889  1.4983  0.8047 -0.7670
  723SOL     OW 2167   2.110   1.270   1.266  0.1029  0.1289 -0.1566
  723SOL    HW1 2168   2.200   1.261   1.218  4.3889  0.8936 -0.9409
  723SOL    HW2 2169   2.119   1.288   1.365 -3.7437  0.3156 -0.9501
  724SOL     OW 2170   0.924   1.824   0.265 -0.0381  0.2112 -0.1561
  724SOL    HW1 2171   0.975   1.774   0.333  0.2689  1.0149 -2.9465
  724SOL    HW2 2172   0.973   1.843   0.182 -2.4438  1.3398  1.4105
  725SOL     OW 2173   0.076   0.801   1.416  0.2581 -0.3407 -0.2691
  725SOL    HW1 2174   0.173   0.836   1.405  1.1296  2.7142  0.0961
  725SOL    HW2 2175   0.014   0.862   1.352  0.2370  1.5560  1.3848
  726SOL     OW 2176   2.464   0.834   2.985  0.5835 -0.0840 -0.2868
  726SOL    HW1 2177   2.449   0.895   2.902 -1.5274 -1.3188 -1.8947
  726SOL    HW2 2178   2.514   0.757   2.950 -3.0714  1.3655  0.7668
  727SOL     OW 2179   2.189   0.917   2.573 -0.2796 -0.4048  0.0359
  727SOL    HW1 2180   2.121   0.989   2.583  2.5950  0.6756 -1.4225
  727SOL    HW2 2181   2.163   0.857   2.498 -0.7065  1.1660  0.4473
  728SOL     OW 2182   1.896   2.180   1.242 -0.3299  0.1275 -1.0292
  728SOL    HW1 2183   1.813   2.167   1.294  2.8980 -1.0252 -1.1347
  728SOL    HW2 2184   1.902   2.103   1.179  0.5978  2.3919  1.2545
  729SOL     OW 2185   1.815   1.005   2.013 -0.2161 -0.0741  0.1528
  729SOL    HW1 2186   1.782   1.095   2.036 -0.5398 -2.4351 -0.4138
  729SOL    HW2 2187   1.892   0.984   2.076  0.5929 -1.2787  2.6187
  730SOL     OW 2188   1.197   0.473   0.896  0.4803 -0.2369  0.5875
  730SOL    HW1 2189   1.205   0.496   0.993  1.0026  0.3017  1.3384
  730SOL    HW2 2190   1.285   0.439   0.855  0.8238  2.3783  0.8188
  731SOL     OW 2191   0.571   0.815   2.969 -0.0467  0.0636  0.1493
  731SOL    HW1 2192   0.632   0.799   2.889  0.4156  0.4562 -1.9129
  731SOL    HW2 2193   0.569   0.910   3.011  0.7439  1.2791 -0.7086
  732SOL     OW 2194   0.496   0.986   0.433  0.3107 -0.2467  0.2712
  732SOL    HW1 2195   0.578   0.979   0.489 -1.7416  0.9147 -0.2975
  732SOL    HW2 2196   0.418   1.028   0.487  0.1193 -1.8755  1.0273
  733SOL     OW 2197   1.380   1.507   2.282  0.0278 -0.2311  0.1782
  733SOL    HW1 2198   1.329   1.541   2.366 -1.2677  0.7800  1.3948
  733SOL    HW2 2199   1.355   1.548   2.188  1.3107  1.3902  1.5593
  734SOL     OW 2200   0.302   2.268   3.032 -0.1212  0.0014 -0.0700
  734SOL    HW1 2201   0.257   2.178   3.009  0.4615 -0.1849 -1.7868
  734SOL    HW2 2202   0.377   2.288   2.966  0.6928  1.9599  0.6940
  735SOL     OW 2203   2.508   0.439   0.974  0.6659 -0.5395 -0.0270
  735SOL    HW1 2204   2.427   0.492   0.946 -1.3205 -2.5137  1.1387
  735SOL    HW2 2205   2.582   0.448   0.898  2.0192  3.9682 -0.9318
  736SOL     OW 2206   2.056   1.442   2.379  0.4468 -0.5318  0.1662
  736SOL    HW1 2207   2.154   1.471   2.384  0.7885  2.6630 -0.7667
  736SOL    HW2 2208   1.996   1.512   2.420  0.8974 -0.9109  0.5468
  737SOL     OW 2209   0.253   0.715   0.245  0.0332 -0.3018  0.7416
  737SOL    HW1 2210   0.173   0.753   0.200  1.5285  2.0944 -0.2528
  737SOL    HW2 2211   0.251   0.615   0.228  0.3045 -1.5039  2.6439
  738SOL     OW 2212   1.006   1.962   1.306  0.1191  0.4073 -0.5360
  738SOL    HW1 2213   1.024   1.864   1.326  0.0995 -0.5460  1.4388
  738SOL    HW2 2214   0.979   2.012   1.392  0.7921  0.0117  2.2327
  739SOL     OW 2215   1.380   2.859   2.293  0.0980 -0.1105  0.1911
  739SOL    HW1 2216   1.452   2.861   2.369  1.1443 -2.0700 -0.0692
  739SOL    HW2 2217   1.419   2.904   2.210 -0.7109 -0.1000  2.1629
  740SOL     OW 2218   2.221   2.444   1.429 -0.2958  0.0261 -0.0998
  740SOL    HW1 2219   2.269   2.356   1.453 -1.0410  0.6321  1.4165
  740SOL    HW2 2220   2.253   2.518   1.488 -2.3666 -0.9958 -1.5629
  741SOL     OW 2221   2.365   0.454   3.044 -0.3625 -0.2142  0.2240
  741SOL    HW1 2222   2.392   0.362   3.058  0.7127  0.1591 -1.0731
  741SOL    HW2 2223   2.373   0.494   0.032  0.7702  0.5480  0.1205
  742SOL     OW 2224   1.177   2.325   3.085 -0.0966 -0.3819  0.2727
  742SOL    HW1 2225   1.099   2.347   3.024 -1.5494  1.2003  2.3001
  742SOL    HW2 2226   1.249   2.394   3.073  0.7018 -1.3130  0.8062
  743SOL     OW 2227   2.532   1.312   2.200  0.2478  0.2971 -0.5064
  743SOL    HW1 2228   2.598   1.249   2.241  1.5482  1.2943 -1.5352
  743SOL    HW2 2229   2.436   1.292   2.213 -0.4898  2.9266 -1.6990
  744SOL     OW 2230   2.909   0.147   0.377 -0.3004  0.6546 -0.3342
  744SOL    HW1 2231   2.982   0.173   0.311  1.0449  3.4070  0.7853
  744SOL    HW2 2232   2.820   0.178   0.341 -0.9903 -0.4555  2.4053
  745SOL     OW 2233   2.263   1.609   1.403  0.3270 -0.2883  0.5280
  745SOL    HW1 2234   2.296   1.510   1.413 -1.2123  0.0819  0.3521
  745SOL    HW2 2235   2.327   1.651   1.338  0.7343 -0.9288  2.8750
  746SOL     OW 2236   1.009   1.697   0.496 -0.3961  0.4502  0.1031
  746SOL    HW1 2237   1.027   1.660   0.590  1.8491 -0.4631  1.9211
  746SOL    HW2 2238   1.005   1.625   0.424 -0.0218 -0.3846  0.7217
  747SOL     OW 2239   1.044   1.506   1.698  0.3911  0.0020 -0.4451
  747SOL    HW1 2240   1.128   1.477   1.651  0.8657 -0.9674 -0.3518
  747SOL    HW2 2241   0.968   1.443   1.681 -0.3692 -1.4691 -1.4225
  748SOL     OW 2242   0.289   2.920   0.002  0.0906 -0.1122 -0.0529
  748SOL    HW1 2243   0.261   2.881   0.091  0.6573  1.7565  0.8030
  748SOL    HW2 2244   0.306   3.018   0.017  0.0343 -0.0612  1.3541
  749SOL     OW 2245   0.129   0.919   2.828  0.2591 -0.1535  0.3233
  749SOL    HW1 2246   0.170   0.876   2.913 -0.8485  1.4324  0.9302
  749SOL    HW2 2247   0.126   1.018   2.827 -1.4292 -0.3469  0.6126
  750SOL     OW 2248   1.599   1.359   1.710 -0.2059 -0.0178  0.1387
  750SOL    HW1 2249   1.589   1.436   1.647 -0.3376 -0.2814  1.0091
  750SOL    HW2 2250   1.696   1.346   1.740  3.4124 -0.6509  1.3758
  751SOL     OW 2251   3.040   0.585   0.405 -0.0038  0.6425 -0.0919
  751SOL    HW1 2252   3.062   0.529   0.323  1.4566 -1.4808  2.2883
  751SOL    HW2 2253   3.035   0.685   0.385 -0.3121  0.7637  0.6838
  752SOL     OW 2254   2.747   2.612   1.064  0.5225  0.1805 -0.0003
  752SOL    HW1 2255   2.751   2.708   1.091  2.9907 -0.5085 -0.0272
  752SOL    HW2 2256   2.818   2.593   0.991 -1.1680 -0.5170  0.3822
  753SOL     OW 2257   0.886   2.369   1.234 -0.3770  0.2459 -0.0030
  753SOL    HW1 2258   0.920   2.367   1.329 -2.3285 -1.1571 -1.5328
  753SOL    HW2 2259   0.795   2.319   1.230  3.1725 -0.3811 -0.8316
  754SOL     OW 2260   0.007   2.457   2.019  0.5139 -0.5037  0.6430
  754SOL    HW1 2261   3.097   2.544   2.073 -0.8165 -0.0928  2.4817
  754SOL    HW2 2262   0.074   2.468   1.944 -0.4700 -1.7674  1.4558
  755SOL     OW 2263   2.578   0.596   2.912 -0.0352 -0.4595  0.1326
  755SOL    HW1 2264   2.676   0.612   2.935 -0.6521 -2.4208 -2.0061
  755SOL    HW2 2265   2.529   0.522   2.968  0.1264  0.8804  0.4441
  756SOL     OW 2266   1.848   2.396   0.192 -0.1657  0.1194 -0.5066
  756SOL    HW1 2267   1.902   2.472   0.240  1.6417  0.3543  0.7891
  756SOL    HW2 2268   1.886   2.305   0.212 -0.4191 -0.0492 -2.3391
  757SOL     OW 2269   2.592   0.539   0.482  0.1130 -0.2248 -0.1327
  757SOL    HW1 2270   2.598   0.541   0.379  0.8029 -0.0564 -1.1031
  757SOL    HW2 2271   2.501   0.566   0.515  1.8436 -0.8416 -0.9359
  758SOL     OW 2272   1.989   0.952   1.690  0.0866 -0.6413  0.0312
  758SOL    HW1 2273   1.929   0.901   1.748  2.6024  2.5403 -0.3272
  758SOL    HW2 2274   2.053   0.887   1.644 -1.6530  1.3078  1.8401
  759SOL     OW 2275   2.715   0.609   1.310  0.0804  0.1685 -0.0850
  759SOL    HW1 2276   2.615   0.625   1.304 -0.6064  3.0231  0.7761
  759SOL    HW2 2277   2.731   0.521   1.263 -3.9740  1.2499 -0.7737
  760SOL     OW 2278   0.468   1.280   1.424  0.4516 -0.3719 -0.2199
  760SOL    HW1 2279   0.535   1.312   1.495  1.5857  2.7060  1.1282
  760SOL    HW2 2280   0.401   1.222   1.472  1.7159 -0.5806  0.4335
  761SOL     OW 2281   0.991   0.659   0.195  0.1447  0.0420 -0.5959
  761SOL    HW1 2282   0.911   0.633   0.143  0.4803  0.1498  2.8113
  761SOL    HW2 2283   1.043   0.733   0.156  0.0755 -3.8335  1.7832
  762SOL     OW 2284   1.026   1.719   1.418 -0.2352  0.0731 -0.2404
  762SOL    HW1 2285   1.001   1.645   1.353 -2.2280  0.0834  1.6745
  762SOL    HW2 2286   0.988   1.703   1.513  0.2224 -0.3579  1.7749
  763SOL     OW 2287   1.120   0.742   1.562  0.0218 -0.3528  0.0560
  763SOL    HW1 2288   1.204   0.759   1.613  0.7086 -2.6332  0.3622
  763SOL    HW2 2289   1.041   0.785   1.612 -0.8240  2.2173  1.8210
  764SOL     OW 2290   0.073   2.767   3.018  0.2123 -0.4045  0.5363
  764SOL    HW1 2291   0.149   2.825   3.048  0.0047 -1.1352  0.6900
  764SOL    HW2 2292   0.004   2.757   3.096 -1.4173 -1.0053  3.6493
  765SOL     OW 2293   0.800   3.005   1.792 -0.1128 -0.5396 -0.3190
  765SOL    HW1 2294   0.721   2.994   1.853 -1.2748 -1.2693 -2.1218
  765SOL    HW2 2295   0.768   3.039   1.700  1.2360  1.1943 -0.9340
  766SOL     OW 2296   2.775   1.765   2.194 -0.4586  0.1650  0.1200
  766SOL    HW1 2297   2.692   1.711   2.214 -1.0348 -1.0476  0.8365
  766SOL    HW2 2298   2.790   1.850   2.249 -0.8470 -0.2081 -0.3116
  767SOL     OW 2299   1.404   1.232   2.304  0.0106 -0.1012 -0.0441
  767SOL    HW1 2300   1.406   1.331   2.310 -1.1936 -3.7300  0.9496
  767SOL    HW2 2301   1.395   1.209   2.208 -2.7362 -0.3339  4.4534
  768SOL     OW 2302   1.729   1.684   0.363 -0.7338 -0.1713  0.2624
  768SOL    HW1 2303   1.750   1.740   0.447 -0.3065  0.0704  1.4499
  768SOL    HW2 2304   1.803   1.703   0.298 -2.6131 -2.6138  0.9453
  769SOL     OW 2305   0.290   1.401   0.780 -0.1489  0.4048 -0.0453
  769SOL    HW1 2306   0.212   1.413   0.713 -0.7449  0.9881  0.6449
  769SOL    HW2 2307   0.363   1.468   0.764 -3.3082 -1.4360  1.9729
  770SOL     OW 2308   1.463   0.800   2.380  0.5693  0.3613  0.0941
  770SOL    HW1 2309   1.561   0.837   2.351  2.8649 -1.9973 -1.8755
  770SOL    HW2 2310   1.407   0.870   2.434 -1.3420 -0.5167  0.0496
  771SOL     OW 2311   2.646   0.131   2.354  0.5070 -0.2031  0.2130
  771SOL    HW1 2312   2.567   0.168   2.304  1.7297  2.1245  0.9781
  771SOL    HW2 2313   2.644   0.028   2.356 -0.4919 -2.9831 -2.4896
  772SOL     OW 2314   2.444   1.880   2.255  0.4629  0.3077 -0.2985
  772SOL    HW1 2315   2.350   1.847   2.234 -0.9688 -2.5164 -0.6776
  772SOL    HW2 2316   2.509   1.812   2.287 -1.9617  1.8556  0.8641
  773SOL     OW 2317   0.853   1.315   1.651  0.3170 -0.0020  0.4493
  773SOL    HW1 2318   0.885   1.223   1.615 -0.7056 -0.7711  0.7002
  773SOL    HW2 2319   0.803   1.372   1.579  1.4608  0.5548  1.4005
  774SOL     OW 2320   1.171   0.760   2.814 -0.2459  0.6334  0.0033
  774SOL    HW1 2321   1.195   0.859   2.797  0.7295  2.1027 -0.1338
  774SOL    HW2 2322   1.225   0.699   2.751 -1.8396 -0.5465 -0.0326
  775SOL     OW 2323   1.548   2.213   3.055  1.0581  0.3916  0.0288
  775SOL    HW1 2324   1.566   2.289   0.012 -1.9957 -0.4544 -2.2448
  775SOL    HW2 2325   1.455   2.166   3.082 -1.7750 -0.5610  0.2920
  776SOL     OW 2326   3.082   1.159   1.535  0.0015  0.4471  0.2326
  776SOL    HW1 2327   3.010   1.084   1.548 -0.4041  0.2717  1.3208
  776SOL    HW2 2328   3.062   1.232   1.607  1.0526  1.5490  0.0908
  777SOL     OW 2329   2.582   2.231   2.275 -0.1002 -0.6713  0.3707
  777SOL    HW1 2330   2.572   2.332   2.247  1.6247  0.0996  0.5766
  777SOL    HW2 2331   2.683   2.209   2.272  1.6988 -0.8449  0.3013
  778SOL     OW 2332   1.722   1.277   2.064 -0.0653  0.3173  0.0405
  778SOL    HW1 2333   1.636   1.324   2.088  0.9327 -0.6740 -1.5580
  778SOL    HW2 2334   1.778   1.336   1.994  2.7442  1.2165 -0.6836
  779SOL     OW 2335   2.914   1.174   0.223 -0.1021  0.0494 -0.3598
  779SOL    HW1 2336   2.821   1.208   0.216  2.1136 -1.5702 -0.4016
  779SOL    HW2 2337   2.935   1.103   0.149  0.4135 -0.9508 -3.8256
  780SOL     OW 2338   2.128   2.920   2.727 -0.2150 -0.2933  0.6551
  780SOL    HW1 2339   2.050   2.953   2.668  1.8534  1.8902 -0.5456
  780SOL    HW2 2340   2.110   2.938   2.826 -1.7858 -0.5270 -0.4078
  781SOL     OW 2341   2.854   1.629   1.230  0.1540 -0.0892  0.2850
  781SOL    HW1 2342   2.938   1.683   1.202  2.1518  2.5573  0.0911
  781SOL    HW2 2343   2.886   1.566   1.307  2.5115 -2.9341  0.6369
  782SOL     OW 2344   2.848   2.162   3.071 -0.4491  0.1645 -0.0315
  782SOL    HW1 2345   2.838   2.234   0.031  2.1493 -1.2202  0.7697
  782SOL    HW2 2346   2.768   2.165   3.006  0.4787  1.3959 -0.5686
  783SOL     OW 2347   0.514   1.576   0.750  0.8896 -0.3291 -0.4697
  783SOL    HW1 2348   0.604   1.540   0.775 -6.7188  0.2339 -0.3034
  783SOL    HW2 2349   0.502   1.673   0.755  1.6961 -1.1116 -0.8323
  784SOL     OW 2350   2.538   1.193   0.217  0.2515 -0.6569 -0.1042
  784SOL    HW1 2351   2.457   1.191   0.153  0.6432  0.7111  0.0763
  784SOL    HW2 2352   2.534   1.280   0.279 -1.1678  1.3066  0.4587
  785SOL     OW 2353   1.918   2.859   0.598 -0.3049  0.0176  0.3125
  785SOL    HW1 2354   1.839   2.876   0.535  2.4197  1.4084  0.9749
  785SOL    HW2 2355   1.949   2.756   0.589 -0.5389 -1.1433 -0.2085
  786SOL     OW 2356   0.512   2.186   2.586 -0.3726 -0.2861  0.4417
  786SOL    HW1 2357   0.498   2.134   2.504  0.7492  2.1276 -1.2205
  786SOL    HW2 2358   0.511   2.289   2.572 -2.2703  1.1121 -0.0201
  787SOL     OW 2359   1.679   0.523   1.218 -0.3300  0.1350  0.2229
  787SOL    HW1 2360   1.599   0.457   1.207  0.2727 -3.2817  1.3935
  787SOL    HW2 2361   1.716   0.542   1.124 -0.8974 -0.8572  0.0355
  788SOL     OW 2362   0.613   1.037   0.003  0.4663 -0.0561  0.0121
  788SOL    HW1 2363   0.655   1.109   3.051  0.0054 -1.9440  1.7313
  788SOL    HW2 2364   0.548   1.079   0.071  2.0226  3.2324 -4.4246
  789SOL     OW 2365   2.772   1.883   1.311  0.2750 -0.0361 -0.3178
  789SOL    HW1 2366   2.819   1.793   1.298  1.5534 -1.1854  0.0714
  789SOL    HW2 2367   2.711   1.903   1.229 -1.0460 -1.0906  0.8642
  790SOL     OW 2368   1.339   0.116   2.099  0.0856 -0.5476 -0.3711
  790SOL    HW1 2369   1.287   0.120   2.186 -0.4914 -2.2420  0.4192
  790SOL    HW2 2370   1.280   0.149   2.022 -0.4717 -0.1835 -1.2857
  791SOL     OW 2371   1.133   0.447   0.276  0.5462 -0.1246  0.0958
  791SOL    HW1 2372   1.128   0.360   0.222 -0.6246 -0.8616  0.5511
  791SOL    HW2 2373   1.091   0.530   0.233  1.0071 -0.0125  2.8576
  792SOL     OW 2374   1.444   0.003   1.647  0.0944 -0.2319 -0.0989
  792SOL    HW1 2375   1.427   3.035   1.578 -0.0498 -2.7336  0.6338
  792SOL    HW2 2376   1.543   0.012   1.662  0.3520 -0.0879 -0.7781
  793SOL     OW 2377   0.978   2.991   0.962 -0.4916 -0.2086  0.0728
  793SOL    HW1 2378   1.021   3.060   0.903 -0.8652  0.4199  3.1432
  793SOL    HW2 2379   0.995   3.013   1.058  1.0658  0.6443 -2.6195
  794SOL     OW 2380   0.597   1.171   1.984 -0.5933  0.0011 -0.2308
  794SOL    HW1 2381   0.643   1.110   2.048 -0.3156  1.0922  2.3861
  794SOL    HW2 2382   0.532   1.115   1.927 -1.5325 -1.7234  1.4977
  795SOL     OW 2383   0.165   1.446   2.231  0.4056 -0.1128 -0.0751
  795SOL    HW1 2384   0.147   1.522   2.166 -0.6786 -0.3267  1.6862
  795SOL    HW2 2385   0.176   1.361   2.173 -1.4319 -0.8864  1.1491
  796SOL     OW 2386   1.864   1.372   1.856 -0.4202  0.5212 -0.1619
  796SOL    HW1 2387   1.878   1.296   1.788 -0.0311  3.1821 -1.6687
  796SOL    HW2 2388   1.949   1.375   1.911 -2.5679 -0.5041 -0.1234
  797SOL     OW 2389   0.151   0.111   2.633 -0.2889  0.5454 -0.3505
  797SOL    HW1 2390   0.088   0.158   2.574  0.5566 -1.7761 -2.1746
  797SOL    HW2 2391   0.096   0.072   2.710  1.9117 -0.9825  1.6719
  798SOL     OW 2392   0.091   2.107   1.846 -0.5218 -0.3469  0.0856
  798SOL    HW1 2393   0.046   2.176   1.785 -1.1568  0.6754  0.4464
  798SOL    HW2 2394   0.175   2.077   1.802 -1.0035  0.3627  0.4604
  799SOL     OW 2395   2.829   2.372   0.155 -0.1442  0.1491 -0.4891
  799SOL    HW1 2396   2.893   2.304   0.198  0.9668  0.4475  1.9761
  799SOL    HW2 2397   2.775   2.419   0.227  2.6356 -0.4734  3.7053
  800SOL     OW 2398   1.083   1.659   0.773 -0.4801 -0.3592 -0.3558
  800SOL    HW1 2399   1.060   1.740   0.830  0.1691  2.6627  0.9109
  800SOL    HW2 2400   1.178   1.666   0.735  1.1871 -0.7919 -0.3957
  801SOL     OW 2401   2.790   0.674   0.583  0.4911 -0.1144 -0.2199
  801SOL    HW1 2402   2.863   0.673   0.511 -1.4429  1.7901  0.0890
  801SOL    HW2 2403   2.708   0.633   0.539 -0.1117  0.4686 -2.3333
  802SOL     OW 2404   2.497   1.441   0.389  0.1590  0.7207 -0.6104
  802SOL    HW1 2405   2.518   1.518   0.324 -0.9112 -1.9862  1.0851
  802SOL    HW2 2406   2.534   1.457   0.487 -0.9791  2.0219  3.2521
  803SOL     OW 2407   1.539   1.919   2.929 -0.2222  0.4110  0.0690
  803SOL    HW1 2408   1.580   1.973   2.856  0.2305  0.6272  1.4469
  803SOL    HW2 2409   1.477   1.973   2.981  2.7672 -0.3861 -2.0453
  804SOL     OW 2410   2.011   2.168   0.251  0.0148  0.1352 -0.0519
  804SOL    HW1 2411   1.942   2.111   0.203  0.6295 -0.5959 -0.4141
  804SOL    HW2 2412   2.101   2.118   0.244  2.3118 -2.5537 -2.7600
  805SOL     OW 2413   2.777   1.598   2.516  0.0934 -0.0000 -0.7154
  805SOL    HW1 2414   2.758   1.620   2.616  1.5568  0.7426  0.9536
  805SOL    HW2 2415   2.860   1.651   2.486 -1.3821 -1.4874  1.2908
  806SOL     OW 2416   0.442   0.555   0.543 -0.0150  0.0869  0.0344
  806SOL    HW1 2417   0.537   0.596   0.540  1.2446  0.2390 -2.3547
  806SOL    HW2 2418   0.366   0.625   0.526 -0.2830  0.0713 -1.5469
  807SOL     OW 2419   2.314   1.451   2.652  0.1282 -0.1296  0.3264
  807SOL    HW1 2420   2.224   1.414   2.679 -0.3708 -1.1470 -2.9703
  807SOL    HW2 2421   2.391   1.387   2.647 -0.0211 -0.3933  2.3338
  808SOL     OW 2422   0.164   1.472   0.359 -0.6038  0.7724 -0.2679
  808SOL    HW1 2423   0.135   1.385   0.406  0.2861 -3.1497  1.6382
  808SOL    HW2 2424   0.191   1.549   0.419  1.4803  2.8447  0.9496
  809SOL     OW 2425   2.508   0.719   2.673 -0.1667 -0.1031 -0.7090
  809SOL    HW1 2426   2.535   0.661   2.757 -0.5807 -0.4203  2.4715
  809SOL    HW2 2427   2.451   0.799   2.714 -0.8533  2.5793  0.5770
  810SOL     OW 2428   1.161   1.027   0.444 -0.2439 -0.1112  0.0471
  810SOL    HW1 2429   1.240   0.992   0.388 -0.8653 -0.2829  0.1116
  810SOL    HW2 2430   1.079   1.038   0.381  0.2478  1.9750  1.9571
  811SOL     OW 2431   1.477   2.388   0.762 -0.2432  0.1349 -0.4129
  811SOL    HW1 2432   1.397   2.452   0.776  1.4080  0.2580 -0.2800
  811SOL    HW2 2433   1.464   2.329   0.682 -1.8888 -0.2942  4.1937
  812SOL     OW 2434   0.522   2.515   1.364  0.0644 -0.1402  0.4183
  812SOL    HW1 2435   0.588   2.438   1.346 -0.1006  0.8877 -1.0920
  812SOL    HW2 2436   0.511   2.537   1.465 -1.7494 -0.1008  1.9720
  813SOL     OW 2437   1.108   0.181   1.949 -0.0382 -0.3556 -0.2504
  813SOL    HW1 2438   1.052   0.090   1.943 -0.6756  0.4566  0.0251
  813SOL    HW2 2439   1.047   0.259   1.985  2.0018  1.1367  0.0697
  814SOL     OW 2440   1.303   3.068   2.616  0.3373 -0.0591  0.4589
  814SOL    HW1 2441   1.381   3.026   2.575 -2.8333  0.3488  0.2539
  814SOL    HW2 2442   1.219   3.016   2.596  3.6231  0.2552 -2.3431
  815SOL     OW 2443   0.492   0.439   1.991  0.5934  0.2093  0.1246
  815SOL    HW1 2444   0.401   0.464   1.947 -1.2184  0.9130 -0.0659
  815SOL    HW2 2445   0.489   0.487   2.083 -1.5481  0.2868  0.7994
  816SOL     OW 2446   2.526   0.226   3.045  0.1397 -0.3638  0.4600
  816SOL    HW1 2447   2.623   0.206   3.058 -1.2186 -0.5972  1.0692
  816SOL    HW2 2448   2.503   0.234   2.945  0.9513 -0.9949  0.7771
  817SOL     OW 2449   1.810   0.390   2.638  0.0925  0.4374 -0.3030
  817SOL    HW1 2450   1.816   0.491   2.618 -1.0548 -1.6222 -0.5205
  817SOL    HW2 2451   1.714   0.357   2.633 -0.3462  0.1293 -2.7424
  818SOL     OW 2452   2.281   0.465   0.222 -0.4989  0.0899  0.1986
  818SOL    HW1 2453   2.237   0.376   0.229  3.8254  4.0826  0.9448
  818SOL    HW2 2454   2.225   0.540   0.269  1.3513 -0.0817  1.1840
  819SOL     OW 2455   2.325   1.511   0.094  0.3153 -0.4161  0.0054
  819SOL    HW1 2456   2.392   1.560   0.153 -2.0436 -0.2257  0.9273
  819SOL    HW2 2457   2.354   1.420   0.069  1.1268  0.9457  1.0171
  820SOL     OW 2458   2.934   1.995   0.194  0.5535  0.2524 -0.2125
  820SOL    HW1 2459   2.892   2.042   0.112  0.6210 -1.4585  1.8145
  820SOL    HW2 2460   2.859   1.954   0.250  0.7839  1.0404 -1.2766
  821SOL     OW 2461   0.205   2.850   1.445  0.0593  0.2537  0.2571
  821SOL    HW1 2462   0.178   2.842   1.547 -1.2887  1.0317  4.6333
  821SOL    HW2 2463   0.122   2.886   1.397 -4.8504 -0.8078 -1.3894
  822SOL     OW 2464   2.674   2.594   2.586  0.0448  0.1451  0.3864
  822SOL    HW1 2465   2.705   2.690   2.595 -0.0806  2.2614 -0.5345
  822SOL    HW2 2466   2.572   2.581   2.574 -0.5467 -0.2535 -0.9160
  823SOL     OW 2467   1.532   0.281   2.321  0.3920 -0.0952 -0.0670
  823SOL    HW1 2468   1.430   0.266   2.298 -1.7630  0.4474 -0.7349
  823SOL    HW2 2469   1.543   0.264   2.419 -0.2536 -3.0059 -0.6642
  824SOL     OW 2470   2.436   1.703   1.216  0.1747  0.4862 -0.1700
  824SOL    HW1 2471   2.492   1.788   1.211  2.5223 -2.5899 -1.0755
  824SOL    HW2 2472   2.487   1.628   1.172  3.1761  0.7083 -1.4149
  825SOL     OW 2473   2.892   1.994   2.328 -0.0699 -0.4729  0.1910
  825SOL    HW1 2474   2.870   2.069   2.267 -0.8195 -1.8871  1.1079
  825SOL    HW2 2475   2.923   2.026   2.421 -1.5436 -0.3973  0.3863
  826SOL     OW 2476   2.711   1.152   2.362 -0.0690 -0.1528  0.1965
  826SOL    HW1 2477   2.739   1.226   2.435 -0.4749  0.1292  0.7667
  826SOL    HW2 2478   2.774   1.071   2.372  0.0236 -0.9020  0.5147
  827SOL     OW 2479   2.511   2.629   1.579 -0.4149  0.2280 -0.0976
  827SOL    HW1 2480   2.526   2.580   1.493  1.4947  3.4007 -0.9172
  827SOL    HW2 2481   2.407   2.632   1.596 -1.8043  1.2349 -1.1643
  828SOL     OW 2482   2.895   3.022   1.588 -0.0350  0.3956 -0.2303
  828SOL    HW1 2483   2.989   3.030   1.631 -1.7790 -1.6143 -0.9944
  828SOL    HW2 2484   2.901   3.039   1.493 -1.3976  0.0908  2.1652
  829SOL     OW 2485   1.609   2.225   2.327 -0.1014 -0.4734 -0.3934
  829SOL    HW1 2486   1.574   2.319   2.296 -0.8174  3.9360 -3.6386
  829SOL    HW2 2487   1.663   2.237   2.413  0.7090  0.7249 -3.0054
  830SOL     OW 2488   1.590   0.540   0.752 -0.7036 -0.7204  0.1170
  830SOL    HW1 2489   1.649   0.581   0.827  0.9082 -0.5532 -2.2318
  830SOL    HW2 2490   1.638   0.496   0.675 -1.1207  1.1237 -1.2677
  831SOL     OW 2491   2.884   1.341   0.661 -0.1186 -0.3179 -0.4156
  831SOL    HW1 2492   2.964   1.284   0.691 -0.0743 -2.9317 -1.2680
  831SOL    HW2 2493   2.896   1.364   0.558  1.5749 -0.3930 -0.2936
  832SOL     OW 2494   1.682   2.536   2.044  0.4976 -0.7623  0.2253
  832SOL    HW1 2495   1.607   2.569   1.980 -0.5202  0.5255  0.4887
  832SOL    HW2 2496   1.739   2.467   2.002 -1.9108  3.6911  1.4366
  833SOL     OW 2497   2.993   2.960   2.234 -0.1895 -0.0213  1.3853
  833SOL    HW1 2498   2.930   2.929   2.163  1.0935  2.1793  1.5966
  833SOL    HW2 2499   2.964   3.036   2.291 -0.1389 -1.3445 -2.9748
  834SOL     OW 2500   0.979   1.042   1.162 -0.4970 -0.1737  0.4706
  834SOL    HW1 2501   1.058   1.097   1.124 -1.4285  0.6618  0.5235
  834SOL    HW2 2502   0.983   0.950   1.122 -4.3939 -0.4633 -2.7680
  835SOL     OW 2503   0.104   0.490   2.833  0.2510  0.1510 -0.2245
  835SOL    HW1 2504   0.029   0.544   2.794 -0.7026 -0.8483  1.1975
  835SOL    HW2 2505   0.114   0.508   2.932 -1.3408 -0.7750 -1.3684
  836SOL     OW 2506   1.164   2.324   1.154 -0.1633 -0.1334 -0.2435
  836SOL    HW1 2507   1.063   2.334   1.166 -0.4758  0.5130  0.3109
  836SOL    HW2 2508   1.214   2.391   1.212 -1.0718  0.9651  3.2341
  837SOL     OW 2509   2.126   0.914   1.125  0.2765  0.2335 -0.0770
  837SOL    HW1 2510   2.106   1.000   1.078  0.4675 -0.1068 -1.1934
  837SOL    HW2 2511   2.089   0.913   1.221 -3.1975 -2.0403  0.3258
  838SOL     OW 2512   1.528   1.561   2.641 -0.0352 -0.3707  0.7018
  838SOL    HW1 2513   1.535   1.527   2.736 -0.0989 -1.8864  0.5943
  838SOL    HW2 2514   1.429   1.576   2.618 -0.5631  0.7947 -0.7118
  839SOL     OW 2515   0.499   2.240   2.851  0.3717  0.1201 -0.3679
  839SOL    HW1 2516   0.503   2.202   2.754  0.7920  1.5333 -0.6484
  839SOL    HW2 2517   0.586   2.210   2.897  0.9539  0.5426  0.1942
  840SOL     OW 2518   0.337   2.592   3.034 -0.6001  0.1017 -0.3409
  840SOL    HW1 2519   0.307   2.601   0.024  3.3547 -0.1614 -1.7758
  840SOL    HW2 2520   0.289   2.521   2.976  0.8547 -3.0723 -0.2556
  841SOL     OW 2521   1.868   2.028   0.052  0.4409 -0.0464  0.1627
  841SOL    HW1 2522   1.963   1.996   0.036 -2.8596  0.8855  1.4817
  841SOL    HW2 2523   1.838   2.091   3.087  0.3674  0.8292 -1.0796
  842SOL     OW 2524   1.549   1.069   2.635  0.2496  0.1847  0.5277
  842SOL    HW1 2525   1.529   1.067   2.736  1.3527  1.5064  0.3889
  842SOL    HW2 2526   1.463   1.035   2.584 -1.3960 -2.0834 -1.4193
  843SOL     OW 2527   1.464   2.756   0.676  0.0031  0.2164  0.9981
  843SOL    HW1 2528   1.561   2.721   0.684  0.0217 -0.1207  0.6051
  843SOL    HW2 2529   1.464   2.852   0.649 -2.5779 -1.3597  1.7084
  844SOL     OW 2530   2.371   2.807   2.628 -0.0022 -0.5684 -0.3647
  844SOL    HW1 2531   2.279   2.813   2.669 -0.1109 -1.6734 -2.4849
  844SOL    HW2 2532   2.441   2.856   2.689 -0.1321 -0.3318 -1.3903
  845SOL     OW 2533   2.996   2.761   1.355 -0.3964  0.0487  0.9822
  845SOL    HW1 2534   2.968   2.856   1.341  0.5964 -0.7894  0.3693
  845SOL    HW2 2535   2.949   2.716   1.431  2.1334 -0.5153  0.6416
  846SOL     OW 2536   0.252   2.130   2.286  0.1807  0.1002 -0.1582
  846SOL    HW1 2537   0.167   2.144   2.234 -0.9384  1.6565  3.8725
  846SOL    HW2 2538   0.240   2.165   2.380 -2.7187 -0.4423  1.7087
  847SOL     OW 2539   1.647   0.270   1.488 -0.2935 -0.2405  0.0625
  847SOL    HW1 2540   1.699   0.353   1.512  1.3562 -1.5337 -0.6237
  847SOL    HW2 2541   1.664   0.207   1.567 -1.4057  1.9886 -3.4896
  848SOL     OW 2542   3.065   0.487   0.159  0.8939  0.5102  0.0847
  848SOL    HW1 2543   0.046   0.444   0.183  1.8892 -0.5688  1.5531
  848SOL    HW2 2544   3.012   0.435   0.090 -1.6658  2.6975 -0.3833
  849SOL     OW 2545   0.756   0.626   0.047 -0.3105 -0.2349 -0.4583
  849SOL    HW1 2546   0.684   0.689   0.010 -2.2045 -1.7881 -0.5632
  849SOL    HW2 2547   0.721   0.533   0.035 -0.4636 -0.8267 -0.3739
  850SOL     OW 2548   0.410   2.768   1.033 -0.0162  0.2236  0.0466
  850SOL    HW1 2549   0.370   2.736   1.121 -0.8960  1.3456 -4.0882
  850SOL    HW2 2550   0.436   2.866   1.038 -0.1577 -1.0794  0.2412
  851SOL     OW 2551   2.008   0.302   2.314 -0.4333  0.5325 -0.6527
  851SOL    HW1 2552   1.940   0.377   2.325  2.6823  1.9441 -2.2185
  851SOL    HW2 2553   2.081   0.309   2.385 -1.7770  2.4538 -1.0579
  852SOL     OW 2554   1.654   1.506   2.300 -0.6745 -0.4338 -0.5670
  852SOL    HW1 2555   1.674   1.440   2.374  1.8052 -2.2678 -1.0438
  852SOL    HW2 2556   1.555   1.525   2.297  0.0775  2.5089 -1.6878
  853SOL     OW 2557   3.084   2.875   0.629 -0.1147  0.0543  0.2654
  853SOL    HW1 2558   0.028   2.787   0.638 -1.8647 -2.2561  0.1345
  853SOL    HW2 2559   3.013   2.877   0.702 -0.9149 -1.5848 -1.3692
  854SOL     OW 2560   2.535   0.065   0.859  0.3853  1.1628 -0.3053
  854SOL    HW1 2561   2.454   0.093   0.910  1.5002 -2.3459 -1.4755
  854SOL    HW2 2562   2.564   0.139   0.790 -0.9391  0.3463  0.9234
  855SOL     OW 2563   1.316   2.122   0.698 -0.0953 -0.3369  0.0521
  855SOL    HW1 2564   1.238   2.081   0.649  4.2329  1.2053  3.4514
  855SOL    HW2 2565   1.285   2.170   0.781  1.8070 -1.2469 -1.7223
  856SOL     OW 2566   2.701   0.263   0.258 -0.0004 -0.0217  0.2028
  856SOL    HW1 2567   2.662   0.180   0.214  1.2666 -1.2836  0.4972
  856SOL    HW2 2568   2.651   0.350   0.242  2.1843  0.1958  1.1273
  857SOL     OW 2569   1.764   2.753   1.672  0.3262  0.0232 -0.5796
  857SOL    HW1 2570   1.771   2.782   1.771  0.2236  0.0986 -0.1846
  857SOL    HW2 2571   1.812   2.662   1.656  0.7764  0.0300 -2.3887
  858SOL     OW 2572   2.555   2.451   1.385 -0.0659 -0.3483  0.3210
  858SOL    HW1 2573   2.624   2.428   1.312 -2.1863 -0.0401  1.3961
  858SOL    HW2 2574   2.497   2.369   1.410  2.1658  0.8050  0.0281
  859SOL     OW 2575   1.060   2.509   0.717 -0.4982 -0.2697  0.0912
  859SOL    HW1 2576   1.012   2.585   0.766  1.2878  2.0999 -2.4149
  859SOL    HW2 2577   1.159   2.513   0.733 -0.0116  0.4238 -2.0889
  860SOL     OW 2578   2.272   2.522   0.237  0.4228  0.1583  0.6265
  860SOL    HW1 2579   2.334   2.576   0.301  0.0629  0.3658  3.1018
  860SOL    HW2 2580   2.322   2.437   0.212 -0.6324 -1.2705  0.3169
  861SOL     OW 2581   2.147   2.584   1.223 -0.7449 -0.7441 -0.3929
  861SOL    HW1 2582   2.207   2.659   1.200  1.1791  0.5694 -0.9658
  861SOL    HW2 2583   2.189   2.518   1.289  0.6925 -1.1218 -1.5035
  862SOL     OW 2584   1.907   3.013   2.607 -0.1237  0.0631  0.6992
  862SOL    HW1 2585   1.908   3.067   2.521 -0.4839  0.7275 -1.5967
  862SOL    HW2 2586   1.851   3.058   2.677  0.4267 -0.9753 -0.3704
  863SOL     OW 2587   0.495   0.095   0.348  0.1415  0.0227 -0.5398
  863SOL    HW1 2588   0.511   0.071   0.446 -3.0650 -1.6590 -1.7048
  863SOL    HW2 2589   0.562   0.048   0.289  0.3974  0.6161  0.2561
  864SOL     OW 2590   2.661   2.540   1.821 -0.3305 -0.1226  0.2000
  864SOL    HW1 2591   2.604   2.554   1.739  1.3783  0.8674  0.0175
  864SOL    HW2 2592   2.598   2.528   1.900 -0.4291 -0.4246 -0.1911
  865SOL     OW 2593   3.034   2.154   2.867  0.0294  0.5668 -0.0517
  865SOL    HW1 2594   0.021   2.126   2.888  1.2496  0.3764  1.4834
  865SOL    HW2 2595   2.971   2.154   2.946 -1.6670 -1.1286  0.5664
  866SOL     OW 2596   2.493   0.262   2.787 -0.1462  0.0591  0.2153
  866SOL    HW1 2597   2.541   0.281   2.697 -0.7216  0.7952 -0.5378
  866SOL    HW2 2598   2.416   0.327   2.798 -0.9812 -0.9386  0.3756
  867SOL     OW 2599   2.909   0.067   2.359  0.3445  0.2712 -0.0734
  867SOL    HW1 2600   2.823   0.122   2.341 -0.2880 -3.6182  0.6460
  867SOL    HW2 2601   2.900   0.018   2.451  1.9475 -1.1161  3.5593
  868SOL     OW 2602   0.939   2.699   0.868  0.7702  0.3812  0.5386
  868SOL    HW1 2603   0.866   2.665   0.933  1.2643 -0.9367  1.6691
  868SOL    HW2 2604   0.988   2.777   0.901  1.6249 -1.8817  0.7928
  869SOL     OW 2605   1.275   1.414   1.133  0.3549 -0.4428 -0.0786
  869SOL    HW1 2606   1.262   1.517   1.116 -0.2000  0.6940  1.7436
  869SOL    HW2 2607   1.355   1.404   1.201  0.3677  1.7782 -0.9858
  870SOL     OW 2608   1.813   1.898   1.380  0.6738 -0.2423 -0.4698
  870SOL    HW1 2609   1.909   1.865   1.390  1.0451 -0.6134  0.6311
  870SOL    HW2 2610   1.786   1.940   1.474 -1.0404  1.5701  1.0764
  871SOL     OW 2611   0.857   1.543   1.213  0.2924  0.1424  0.1930
  871SOL    HW1 2612   0.912   1.568   1.128  0.0735  3.5086 -1.4064
  871SOL    HW2 2613   0.762   1.587   1.206  0.5118  0.7110  0.6486
  872SOL     OW 2614   1.162   0.826   1.064  0.1158  0.0961  0.8261
  872SOL    HW1 2615   1.099   0.836   0.983  1.1357  1.0293  1.3884
  872SOL    HW2 2616   1.247   0.873   1.041 -3.7775 -0.3702 -0.3265
  873SOL     OW 2617   1.587   0.818   2.779 -0.2447  0.0215 -0.2649
  873SOL    HW1 2618   1.674   0.773   2.811  2.4902 -1.1786  2.2377
  873SOL    HW2 2619   1.600   0.876   2.694  0.7926  2.1448 -0.4349
  874SOL     OW 2620   0.483   1.394   1.185  0.3691  0.2547 -0.4361
  874SOL    HW1 2621   0.482   1.324   1.259 -2.2849 -3.1059 -1.9503
  874SOL    HW2 2622   0.392   1.409   1.145  0.8697  0.9260 -1.4159
  875SOL     OW 2623   2.791   2.755   2.921 -0.2468 -0.0611 -0.4684
  875SOL    HW1 2624   2.770   2.662   2.886 -1.5517 -1.7213 -2.7412
  875SOL    HW2 2625   2.869   2.796   2.872 -3.4518  0.0886 -0.4984
  876SOL     OW 2626   0.977   0.570   2.879  0.2043  0.7773 -0.4577
  876SOL    HW1 2627   0.955   0.583   2.979 -0.9268 -1.2464  2.8420
  876SOL    HW2 2628   1.017   0.655   2.843 -2.8642  0.6386  1.4229
  877SOL     OW 2629   0.048   0.006   1.641  0.1129 -0.2665  0.3273
  877SOL    HW1 2630   0.095   0.061   1.714  0.0157  1.1298  0.2090
  877SOL    HW2 2631   0.064   0.058   1.551  2.3630 -0.1863 -0.8495
  878SOL     OW 2632   1.759   2.281   2.594 -0.2852  0.3327 -0.3377
  878SOL    HW1 2633   1.707   2.363   2.566  0.8074 -1.3124  1.7937
  878SOL    HW2 2634   1.857   2.305   2.594 -0.3438 -2.7479  0.5841
  879SOL     OW 2635   2.219   1.819   2.043  0.1892  0.9465  0.3472
  879SOL    HW1 2636   2.156   1.817   2.121  2.6064  2.0053 -0.3812
  879SOL    HW2 2637   2.229   1.725   1.996  0.0873 -1.3620 -1.9923
  880SOL     OW 2638   0.691   0.956   1.068 -0.7376 -0.3736 -0.0395
  880SOL    HW1 2639   0.735   0.974   1.160  0.7236 -0.0121 -1.2219
  880SOL    HW2 2640   0.722   0.871   1.017  2.5181 -1.7440 -0.3792
  881SOL     OW 2641   1.380   1.630   0.169  0.2207 -0.3577 -0.4029
  881SOL    HW1 2642   1.347   1.725   0.195  1.0248 -1.4387  2.3545
  881SOL    HW2 2643   1.450   1.595   0.232  1.1945 -0.8282 -1.4151
  882SOL     OW 2644   1.849   0.145   1.171 -0.1066  0.4261 -1.1118
  882SOL    HW1 2645   1.864   0.211   1.244  0.8569 -1.9964 -0.4992
  882SOL    HW2 2646   1.934   0.111   1.120 -3.1352 -0.7833  1.8744
  883SOL     OW 2647   1.816   0.667   2.087 -0.1494  0.1678  0.2890
  883SOL    HW1 2648   1.732   0.663   2.030  3.6029 -1.0807  4.9759
  883SOL    HW2 2649   1.887   0.595   2.055 -1.0755  0.4961  1.2909
  884SOL     OW 2650   2.841   0.605   3.048  0.0952 -0.3466 -0.3766
  884SOL    HW1 2651   2.916   0.604   2.979  0.7629 -0.6265  0.3824
  884SOL    HW2 2652   2.832   0.517   3.095 -0.8081  4.0356 -0.6594
  885SOL     OW 2653   1.194   2.294   0.876  0.1357 -0.4900  0.3537
  885SOL    HW1 2654   1.139   2.365   0.821 -0.3132  2.5070 -0.4915
  885SOL    HW2 2655   1.191   2.314   0.974  2.5413  2.1367 -1.0838
  886SOL     OW 2656   1.280   1.299   2.742  0.1853  0.5951 -0.5420
  886SOL    HW1 2657   1.355   1.307   2.813 -0.1511  0.1377 -1.5845
  886SOL    HW2 2658   1.215   1.375   2.753  0.2306  0.6478  1.3105
  887SOL     OW 2659   1.718   0.046   1.640 -0.8151 -0.6843 -0.1564
  887SOL    HW1 2660   1.786   0.036   1.715 -1.2384 -0.0277  0.9968
  887SOL    HW2 2661   1.704   3.074   1.578  1.2751 -1.0438 -1.0404
  888SOL     OW 2662   2.844   1.580   1.814  0.3244 -0.0077  0.2642
  888SOL    HW1 2663   2.885   1.670   1.799  0.8346 -4.0757 -0.1258
  888SOL    HW2 2664   2.822   1.530   1.724 -1.3758 -1.2659 -2.1521
  889SOL     OW 2665   2.943   2.529   0.897  0.2983 -0.0178 -0.0830
  889SOL    HW1 2666   2.921   2.537   0.800  0.7791  0.4376  1.8644
  889SOL    HW2 2667   3.042   2.543   0.919 -1.4597  2.8598  1.6274
  890SOL     OW 2668   0.482   1.989   2.397  0.5093  0.1250  0.2548
  890SOL    HW1 2669   0.560   2.000   2.333  1.1950 -0.3218 -0.0551
  890SOL    HW2 2670   0.400   2.017   2.351 -0.0013 -0.5224  0.0773
  891SOL     OW 2671   0.551   1.847   0.669  0.1459  0.2003 -0.3114
  891SOL    HW1 2672   0.654   1.828   0.655  0.1226  0.3948  1.9635
  891SOL    HW2 2673   0.499   1.833   0.589 -0.3124 -0.4965  1.5347
  892SOL     OW 2674   3.010   2.401   1.273 -0.2342 -0.7736 -0.3256
  892SOL    HW1 2675   2.982   2.414   1.372 -0.1010 -0.4005  0.3024
  892SOL    HW2 2676   2.996   2.304   1.254  0.3367  2.3578  2.6129
  893SOL     OW 2677   0.286   0.484   1.655  0.4602  0.1939 -0.4534
  893SOL    HW1 2678   0.221   0.444   1.584  0.1477 -0.0086 -1.4216
  893SOL    HW2 2679   0.352   0.544   1.604 -1.5732 -0.6393 -2.6931
  894SOL     OW 2680   2.924   1.602   0.742 -0.6710 -0.6695 -0.5683
  894SOL    HW1 2681   2.973   1.665   0.676  2.2248  2.2997 -0.3574
  894SOL    HW2 2682   2.903   1.510   0.713 -0.9529 -0.1286  0.1625
  895SOL     OW 2683   1.449   2.345   1.513  0.3986 -0.4393 -0.3821
  895SOL    HW1 2684   1.396   2.313   1.593 -1.5290  0.5771 -2.1429
  895SOL    HW2 2685   1.497   2.267   1.470 -1.1661 -1.8041  1.3676
  896SOL     OW 2686   0.802   0.380   1.334 -0.0179  0.5200 -0.9785
  896SOL    HW1 2687   0.702   0.398   1.318 -2.5265 -1.7960 -2.7174
  896SOL    HW2 2688   0.821   0.339   1.433 -0.0920  0.5571 -0.3171
  897SOL     OW 2689   1.188   1.169   1.051  0.2813 -0.4133  0.7136
  897SOL    HW1 2690   1.218   1.263   1.060 -0.5196 -1.4119  2.5288
  897SOL    HW2 2691   1.271   1.107   1.045  0.8116  1.3412  1.9603
  898SOL     OW 2692   0.824   0.277   1.610  0.5057  0.4161  0.2202
  898SOL    HW1 2693   0.774   0.326   1.684  0.8021  1.1938  0.9184
  898SOL    HW2 2694   0.915   0.318   1.599 -1.3267  1.5454  2.5111
  899SOL     OW 2695   1.486   0.207   0.347 -0.1741 -0.0581  0.2311
  899SOL    HW1 2696   1.445   0.223   0.251  0.0805  1.6050 -2.7988
  899SOL    HW2 2697   1.470   0.293   0.404 -2.4670  1.3167  1.1895
  900SOL     OW 2698   0.963   0.663   2.447 -0.0689 -0.3302  0.6567
  900SOL    HW1 2699   0.950   0.765   2.437 -0.1688  2.4708 -1.4047
  900SOL    HW2 2700   0.874   0.614   2.440  0.6911  0.6724  0.1426
  901SOL     OW 2701   0.731   2.026   0.312  0.3355 -0.4077 -0.0023
  901SOL    HW1 2702   0.798   1.951   0.307 -1.7919 -0.1436  1.3250
  901SOL    HW2 2703   0.685   2.038   0.225  1.0443 -0.8571  1.0928
  902SOL     OW 2704   1.834   0.311   0.936  0.0924 -0.2833 -0.2706
  902SOL    HW1 2705   1.848   0.261   0.849 -2.4574  1.1882  2.6757
  902SOL    HW2 2706   1.832   0.251   1.017 -2.2223 -3.1539 -1.4267
  903SOL     OW 2707   3.044   1.373   2.472  0.1890  0.1219  0.1884
  903SOL    HW1 2708   3.064   1.469   2.482 -2.7405 -2.6885 -0.1671
  903SOL    HW2 2709   3.021   1.342   2.375 -2.9216  2.0872 -1.0845
  904SOL     OW 2710   1.701   1.304   0.498  0.0956  0.0508  0.0012
  904SOL    HW1 2711   1.681   1.383   0.442  2.2578 -3.8098  1.1034
  904SOL    HW2 2712   1.622   1.283   0.557  2.3825  1.0511  1.5586
  905SOL     OW 2713   1.900   2.709   1.187 -0.0751  0.1409  0.2932
  905SOL    HW1 2714   1.869   2.800   1.214 -0.0716 -2.6939 -0.0687
  905SOL    HW2 2715   2.003   2.697   1.208 -1.4599 -0.7920 -1.4445
  906SOL     OW 2716   2.273   2.878   0.851 -0.2122  0.1780 -0.2317
  906SOL    HW1 2717   2.179   2.916   0.860 -3.2524 -1.5556 -1.3754
  906SOL    HW2 2718   2.307   2.857   0.945  3.1726  3.5047 -0.0505
  907SOL     OW 2719   2.042   1.049   0.334 -0.3410 -0.0436  0.2538
  907SOL    HW1 2720   2.023   0.959   0.288  5.8558 -3.4598 -1.0249
  907SOL    HW2 2721   2.137   1.044   0.373 -1.8973 -0.4844  0.4959
  908SOL     OW 2722   1.904   0.393   1.267 -0.0729 -0.0078  0.4474
  908SOL    HW1 2723   1.811   0.432   1.254  2.0880 -1.2666 -1.1560
  908SOL    HW2 2724   1.963   0.464   1.318  2.5063  0.5707 -0.9353
  909SOL     OW 2725   2.523   2.892   0.759  0.3157  0.2475  0.3077
  909SOL    HW1 2726   2.562   2.978   0.797 -0.5221 -2.2222 -1.4253
  909SOL    HW2 2727   2.426   2.888   0.789 -0.3742  1.2926  0.3063
  910SOL     OW 2728   2.339   0.724   2.032 -0.1631 -0.2657  0.2098
  910SOL    HW1 2729   2.292   0.665   2.098 -0.1587  2.5119 -1.9877
  910SOL    HW2 2730   2.443   0.728   2.029 -0.2469 -1.6373  0.3482
  911SOL     OW 2731   2.234   0.058   2.597 -0.7457 -0.8780 -0.3532
  911SOL    HW1 2732   2.163   0.121   2.625  2.2016 -2.9416 -0.7050
  911SOL    HW2 2733   2.228   3.074   2.639  0.2183  0.2349 -2.0762
  912SOL     OW 2734   0.588   0.907   1.356  0.3041 -0.3713 -0.1396
  912SOL    HW1 2735   0.668   0.968   1.353  0.4317 -2.7563 -0.0481
  912SOL    HW2 2736   0.613   0.819   1.307  1.4960  0.1202 -2.8048
  913SOL     OW 2737   2.744   2.390   1.204  0.3554  0.5729  0.1893
  913SOL    HW1 2738   2.712   2.451   1.127 -0.8935 -2.5836  3.5660
  913SOL    HW2 2739   2.840   2.421   1.226  1.7102 -0.5308  0.1944
  914SOL     OW 2740   1.472   0.710   1.146  0.7705 -0.1596 -0.2609
  914SOL    HW1 2741   1.411   0.628   1.127  0.0272 -0.9803 -3.5865
  914SOL    HW2 2742   1.557   0.682   1.199  0.7841  2.2675  1.6126
  915SOL     OW 2743   0.155   1.666   1.501 -0.0319  0.1469  0.2567
  915SOL    HW1 2744   0.180   1.650   1.404 -1.2874 -1.7435 -2.2352
  915SOL    HW2 2745   0.223   1.716   1.554 -2.0290 -0.1200 -2.4260
  916SOL     OW 2746   1.821   2.331   0.888 -0.2133  0.1068  0.2010
  916SOL    HW1 2747   1.883   2.345   0.966  1.6738 -0.7154  0.7030
  916SOL    HW2 2748   1.722   2.322   0.918 -0.2314  0.1353  1.0601
  917SOL     OW 2749   1.862   2.589   2.247 -0.2920 -0.2972 -0.1767
  917SOL    HW1 2750   1.958   2.597   2.205  1.0895  1.6570 -2.3720
  917SOL    HW2 2751   1.789   2.584   2.176 -1.9480 -0.4039  0.6634
  918SOL     OW 2752   1.981   1.890   2.589 -0.2688  0.2444  0.1471
  918SOL    HW1 2753   1.959   1.970   2.523 -0.4499  1.6999 -0.1862
  918SOL    HW2 2754   1.971   1.930   2.686  0.9791  2.1821  1.3523
  919SOL     OW 2755   1.024   0.373   1.184 -0.2941  0.3327 -0.2851
  919SOL    HW1 2756   0.944   0.401   1.241 -2.4667 -2.3322  0.6264
  919SOL    HW2 2757   1.097   0.451   1.168  3.8544  3.4840 -1.3504
  920SOL     OW 2758   2.962   0.572   1.986  0.6768 -0.3503  0.4979
  920SOL    HW1 2759   3.063   0.571   1.969 -0.9501 -0.9190 -0.0046
  920SOL    HW2 2760   2.923   0.667   1.997 -1.8789  3.1430 -2.0880
  921SOL     OW 2761   2.703   1.178   1.467  0.0789  0.1794 -0.0481
  921SOL    HW1 2762   2.737   1.155   1.371 -0.4214  2.1391  4.3024
  921SOL    HW2 2763   2.741   1.113   1.535 -2.4784  0.0220 -1.3670
  922SOL     OW 2764   2.701   2.123   0.763  0.0726 -0.1233 -0.2877
  922SOL    HW1 2765   2.624   2.185   0.788  0.0249 -2.3146 -2.3933
  922SOL    HW2 2766   2.767   2.175   0.702  1.6381 -1.1758  0.3889
  923SOL     OW 2767   0.160   2.438   0.680  0.3589  0.3572 -0.1226
  923SOL    HW1 2768   0.255   2.399   0.687  0.5630 -1.6642 -0.0544
  923SOL    HW2 2769   0.133   2.471   0.774 -0.1308  0.9982  0.7796
  924SOL     OW 2770   1.041   1.338   3.088  0.4109 -0.7853  0.1169
  924SOL    HW1 2771   1.052   1.402   0.058  1.0496  1.3443 -1.6448
  924SOL    HW2 2772   0.949   1.300   3.087 -2.2336  0.9016 -0.4614
  925SOL     OW 2773   3.097   1.176   0.736  0.0849  0.3135 -0.4801
  925SOL    HW1 2774   3.093   1.196   0.833 -0.2946 -0.0917 -3.4251
  925SOL    HW2 2775   3.066   1.078   0.719 -0.6415 -1.1468  1.0608
  926SOL     OW 2776   0.064   3.076   1.186 -0.0315  0.0207  0.3409
  926SOL    HW1 2777   0.162   3.104   1.189  0.8726  0.3387 -0.4286
  926SOL    HW2 2778   0.065   2.991   1.129 -1.1289 -1.3674  1.2678
  927SOL     OW 2779   0.461   1.756   2.531  0.3562  0.0231  0.6170
  927SOL    HW1 2780   0.393   1.695   2.487  1.8570  1.9529 -1.1532
  927SOL    HW2 2781   0.473   1.845   2.476 -1.1270  3.1708  0.1635
  928SOL     OW 2782   0.223   0.527   2.378  0.0292 -0.3301 -1.3467
  928SOL    HW1 2783   0.204   0.487   2.470 -2.4361 -0.0337  1.2313
  928SOL    HW2 2784   0.183   0.622   2.372  0.6233 -1.9765  1.2238
  929SOL     OW 2785   2.566   1.911   1.108 -0.1804  0.1640 -0.0682
  929SOL    HW1 2786   2.582   2.014   1.113  0.3815 -0.4225 -0.2972
  929SOL    HW2 2787   2.587   1.882   1.014  1.2710 -0.9277 -0.1952
  930SOL     OW 2788   1.829   0.516   2.318  0.2691  0.4280 -0.4676
  930SOL    HW1 2789   1.734   0.527   2.358  0.2410  0.9307 -0.6154
  930SOL    HW2 2790   1.838   0.563   2.232  0.2061  1.0759  2.5952
  931SOL     OW 2791   2.396   0.980   2.741  0.1501  0.2084 -0.3149
  931SOL    HW1 2792   2.310   0.951   2.695  3.2255  0.9791  2.0024
  931SOL    HW2 2793   2.436   1.052   2.683 -0.9286 -1.0736  0.7103
  932SOL     OW 2794   1.817   0.874   0.480 -0.0877 -0.2257  0.0890
  932SOL    HW1 2795   1.801   0.811   0.405 -0.0732 -0.7303  1.6061
  932SOL    HW2 2796   1.764   0.960   0.466  0.4687 -0.5936 -0.7144
  933SOL     OW 2797   2.120   0.858   0.616  0.4970  0.4110  0.5319
  933SOL    HW1 2798   2.034   0.889   0.568  1.4550  2.2563 -1.7465
  933SOL    HW2 2799   2.149   0.921   0.690  0.0347 -2.5223 -2.8839
  934SOL     OW 2800   2.501   1.229   2.622  0.1476  0.2725  0.3022
  934SOL    HW1 2801   2.598   1.260   2.615  1.6853 -0.6797  1.1128
  934SOL    HW2 2802   2.476   1.165   2.546  1.7886 -2.2035 -1.0260
  935SOL     OW 2803   0.030   1.256   1.017 -0.0918  0.1143 -0.2075
  935SOL    HW1 2804   0.004   1.352   0.989 -0.8733  1.8019  0.5847
  935SOL    HW2 2805   3.083   1.223   1.099  0.0108  0.5876 -0.3350
  936SOL     OW 2806   3.079   0.159   0.177 -0.3982 -0.1948 -0.0252
  936SOL    HW1 2807   0.071   0.147   0.201  0.3470  1.6682  1.2647
  936SOL    HW2 2808   3.069   0.197   0.085  0.8973 -0.7905  0.9989
  937SOL     OW 2809   0.196   2.467   1.795 -0.2330  0.0883 -0.2185
  937SOL    HW1 2810   0.186   2.542   1.729  0.1150  1.0125 -1.4906
  937SOL    HW2 2811   0.165   2.379   1.756 -1.8411 -2.5104 -1.2080
  938SOL     OW 2812   2.437   2.275   0.181  0.2964  0.2429 -0.3867
  938SOL    HW1 2813   2.513   2.269   0.249 -1.4219  1.6256 -0.3310
  938SOL    HW2 2814   2.464   2.289   0.085  0.2444  1.1059  0.1153
  939SOL     OW 2815   1.247   0.539   1.406 -0.6376  0.2809 -0.2000
  939SOL    HW1 2816   1.340   0.518   1.437 -3.1436  3.0743 -2.3947
  939SOL    HW2 2817   1.206   0.612   1.466 -3.0888  0.7744  1.8446
  940SOL     OW 2818   2.318   2.760   2.955 -0.4841 -0.2266  0.0669
  940SOL    HW1 2819   2.224   2.781   2.922 -1.9968 -2.6136 -0.6942
  940SOL    HW2 2820   2.331   2.664   2.979 -1.4738  2.9260 -1.2149
  941SOL     OW 2821   2.629   2.747   2.199 -0.0192 -0.1334 -0.1067
  941SOL    HW1 2822   2.537   2.785   2.183 -0.4251 -2.2791  0.4063
  941SOL    HW2 2823   2.630   2.649   2.195  2.7919  3.9387 -0.3527
  942SOL     OW 2824   1.597   0.132   1.228  0.3375  0.1092 -0.8157
  942SOL    HW1 2825   1.600   0.178   1.320 -0.0153  0.1850  2.2857
  942SOL    HW2 2826   1.687   0.135   1.187  0.2900  2.0321 -0.0119
  943SOL     OW 2827   1.081   1.470   2.540 -0.4760 -0.2159 -0.0737
  943SOL    HW1 2828   1.060   1.376   2.512 -0.4473 -1.8131  0.6741
  943SOL    HW2 2829   1.009   1.533   2.511  4.3710  1.8260 -1.7149
  944SOL     OW 2830   2.891   0.828   1.312  0.2750  0.1903  0.3097
  944SOL    HW1 2831   2.981   0.807   1.273  0.9194  2.6047  1.4022
  944SOL    HW2 2832   2.827   0.751   1.291 -0.8022 -1.8585  1.1844
  945SOL     OW 2833   2.885   0.004   2.623  0.3621  0.1063  0.6592
  945SOL    HW1 2834   2.796   0.017   2.674 -3.5002 -1.8791  3.3537
  945SOL    HW2 2835   2.969   0.008   2.686  1.2572 -0.5577 -1.2475
  946SOL     OW 2836   3.033   1.472   1.400  0.4099  0.3296  0.4584
  946SOL    HW1 2837   3.104   1.496   1.465  2.8843  1.7722  0.3879
  946SOL    HW2 2838   3.058   1.396   1.340 -2.1066 -0.4703 -1.1755
  947SOL     OW 2839   0.467   0.419   2.850 -0.1285  0.1792 -0.1431
  947SOL    HW1 2840   0.546   0.471   2.815  2.8377 -1.8293 -0.5486
  947SOL    HW2 2841   0.417   0.371   2.774 -2.3298  1.2436 -1.6344
  948SOL     OW 2842   2.129   1.665   1.087 -0.1596 -0.6364  0.0978
  948SOL    HW1 2843   2.150   1.650   1.185  2.3924 -0.1758 -2.4793
  948SOL    HW2 2844   2.212   1.648   1.026  0.3349  2.2815 -0.7311
  949SOL     OW 2845   0.205   1.229   2.919 -0.2233  0.7250  0.2399
  949SOL    HW1 2846   0.193   1.173   3.001 -1.6659  1.7967  1.2037
  949SOL    HW2 2847   0.131   1.212   2.850 -0.4186 -0.4945  0.4241
  950SOL     OW 2848   0.445   2.958   1.406 -0.7022 -0.1626 -0.2854
  950SOL    HW1 2849   0.346   2.934   1.408 -2.5023 -0.3334 -0.3612
  950SOL    HW2 2850   0.505   2.890   1.359 -0.1545 -0.7941  1.1322
  951SOL     OW 2851   0.844   2.209   2.709 -0.2865  0.2134  0.0372
  951SOL    HW1 2852   0.780   2.129   2.729  1.4943  0.5825 -1.2874
  951SOL    HW2 2853   0.874   2.257   2.790  4.2029 -1.1336 -2.7325
  952SOL     OW 2854   0.770   1.265   0.557  0.2399 -0.0178  0.2848
  952SOL    HW1 2855   0.753   1.171   0.586 -0.2509  1.0579  0.3850
  952SOL    HW2 2856   0.769   1.267   0.453  0.6221 -0.6795 -1.2591
  953SOL     OW 2857   2.168   1.655   3.032  0.0212 -0.1638 -0.1371
  953SOL    HW1 2858   2.232   1.677   2.954  1.9731  0.7698 -0.8358
  953SOL    HW2 2859   2.217   1.615   0.003  0.2007  0.0419  1.7592
  954SOL     OW 2860   1.413   0.351   0.775  0.2551 -0.5774 -0.1339
  954SOL    HW1 2861   1.469   0.434   0.762  0.5656  1.1107 -0.9118
  954SOL    HW2 2862   1.475   0.267   0.778 -0.6797  0.8274  0.1230
  955SOL     OW 2863   1.120   1.521   0.157  0.4340 -0.4795  0.4642
  955SOL    HW1 2864   1.064   1.494   0.237  0.9425  1.1564 -1.5536
  955SOL    HW2 2865   1.215   1.545   0.181  0.3314 -1.8824 -2.4385
  956SOL     OW 2866   2.758   0.396   2.025  0.3940  0.2560 -0.0576
  956SOL    HW1 2867   2.834   0.464   2.033  0.8466 -1.0931 -1.1971
  956SOL    HW2 2868   2.792   0.301   2.014  0.5179  1.0477 -0.9558
  957SOL     OW 2869   1.851   2.180   2.178 -0.0676  0.3597 -0.1249
  957SOL    HW1 2870   1.823   2.092   2.124  0.7582 -0.5829 -3.6443
  957SOL    HW2 2871   1.773   2.217   2.230 -0.0325  1.1592 -0.4224
  958SOL     OW 2872   1.680   1.132   1.314  0.4366 -0.5022 -0.4044
  958SOL    HW1 2873   1.757   1.196   1.341  1.0448  0.7769 -0.0056
  958SOL    HW2 2874   1.670   1.138   1.216  0.2871  1.7893  3.0663
  959SOL     OW 2875   1.587   2.183   1.947 -0.4774 -0.1828 -0.0606
  959SOL    HW1 2876   1.652   2.105   1.951 -1.2916 -3.7533 -0.4063
  959SOL    HW2 2877   1.647   2.266   1.929 -1.1793 -0.8888  3.1732
  960SOL     OW 2878   0.843   1.434   2.768 -0.2606  0.2991 -0.0090
  960SOL    HW1 2879   0.823   1.516   2.819  0.1527 -2.5862 -0.2569
  960SOL    HW2 2880   0.779   1.428   2.688 -1.4563  1.1498 -0.1052
  961SOL     OW 2881   2.955   1.291   3.044  0.4652 -0.0303 -0.7187
  961SOL    HW1 2882   2.983   1.349   2.962 -1.2554  0.0382 -0.0538
  961SOL    HW2 2883   2.898   1.339   0.003 -0.1445 -2.0381 -1.2526
  962SOL     OW 2884   1.047   1.888   0.016  0.1072 -0.1327  0.1094
  962SOL    HW1 2885   1.093   1.813   3.075  0.9372  1.3209  2.0495
  962SOL    HW2 2886   1.022   1.969   3.067 -1.5576  3.8389 -2.7829
  963SOL     OW 2887   2.701   1.614   3.024  0.3698 -0.2054 -0.5581
  963SOL    HW1 2888   2.800   1.609   3.063  2.4026 -2.0746  1.1292
  963SOL    HW2 2889   2.639   1.679   3.076 -0.0187  1.6676  0.5837
  964SOL     OW 2890   0.654   2.038   2.211  0.1290 -0.1904  0.1425
  964SOL    HW1 2891   0.616   2.124   2.168  0.2978  2.7194 -2.3745
  964SOL    HW2 2892   0.756   2.049   2.222  0.4012 -1.1726  2.8931
  965SOL     OW 2893   1.577   1.898   1.236 -0.2578  0.2907 -0.0404
  965SOL    HW1 2894   1.672   1.884   1.257 -0.5629 -0.0103 -4.1182
  965SOL    HW2 2895   1.518   1.837   1.287  1.5396  1.1300 -2.9509
  966SOL     OW 2896   2.831   1.613   0.241  0.1094  0.0929  0.1689
  966SOL    HW1 2897   2.922   1.641   0.204 -1.3448 -0.3861 -0.5667
  966SOL    HW2 2898   2.792   1.551   0.167 -1.3534  2.7548 -1.5057
  967SOL     OW 2899   1.762   2.775   2.476  0.0926  0.6801 -0.0930
  967SOL    HW1 2900   1.838   2.827   2.515  1.8327 -0.2029 -0.9714
  967SOL    HW2 2901   1.740   2.801   2.380 -0.1417 -0.2740  1.2375
  968SOL     OW 2902   1.519   1.407   2.872  0.3125  0.7971 -0.1114
  968SOL    HW1 2903   1.595   1.340   2.877 -1.3159  0.6602 -0.0493
  968SOL    HW2 2904   1.523   1.476   2.944 -1.8533  1.1854 -1.7546
  969SOL     OW 2905   0.170   1.018   2.493  0.1944 -0.1703 -0.4289
  969SOL    HW1 2906   0.133   1.039   2.401 -1.3434 -2.1075  0.5712
  969SOL    HW2 2907   0.258   1.070   2.516  0.6974  2.2283  0.5516
  970SOL     OW 2908   2.641   3.101   0.188 -0.5618 -0.2390 -0.4962
  970SOL    HW1 2909   2.578   3.031   0.162  1.1806  1.6422 -0.8694
  970SOL    HW2 2910   2.732   3.079   0.148  0.7567  0.4575  1.5409
  971SOL     OW 2911   2.116   2.015   0.808  0.3376 -0.3050 -0.4128
  971SOL    HW1 2912   2.159   2.107   0.798 -1.8241  0.3635  1.0639
  971SOL    HW2 2913   2.176   1.937   0.839  0.4953 -0.4205  1.2732
  972SOL     OW 2914   0.120   1.949   2.534  0.5287  0.4331 -0.5383
  972SOL    HW1 2915   0.123   1.909   2.442 -0.2944 -1.7752 -0.0965
  972SOL    HW2 2916   0.127   1.877   2.606 -0.6818 -0.0220 -0.9917
  973SOL     OW 2917   0.744   0.375   0.461  0.0279  0.1644 -0.5977
  973SOL    HW1 2918   0.740   0.325   0.373 -0.9113  2.2954  0.0007
  973SOL    HW2 2919   0.696   0.467   0.457 -2.1652  2.3268  0.2341
  974SOL     OW 2920   2.200   0.785   1.621  0.1678  0.6738  0.5030
  974SOL    HW1 2921   2.292   0.800   1.584  0.1762 -0.9224 -0.9788
  974SOL    HW2 2922   2.180   0.690   1.650  1.3211  1.1175  0.2358
  975SOL     OW 2923   0.255   0.123   0.844 -0.4877  0.3057 -0.4431
  975SOL    HW1 2924   0.242   0.026   0.819 -0.0430  2.1351  0.2657
  975SOL    HW2 2925   0.312   0.162   0.773 -0.5966  2.2578  1.4855
  976SOL     OW 2926   0.712   1.493   1.467 -0.0001 -0.6617 -0.6737
  976SOL    HW1 2927   0.759   1.504   1.378 -1.8797  0.7885 -1.5741
  976SOL    HW2 2928   0.710   1.587   1.510  1.3059  0.5908  0.7523
  977SOL     OW 2929   1.421   2.094   0.199  0.4682  0.5926 -0.4515
  977SOL    HW1 2930   1.511   2.051   0.198 -1.0569  1.0360 -1.3038
  977SOL    HW2 2931   1.424   2.192   0.220  0.4713  1.6974 -3.0017
  978SOL     OW 2932   0.226   1.043   0.028  0.0429  0.0140 -0.9242
  978SOL    HW1 2933   0.166   0.986   0.087  0.6399  2.8019 -2.5475
  978SOL    HW2 2934   0.296   1.089   0.080  0.6507 -0.3528 -1.3177
  979SOL     OW 2935   2.026   1.262   0.177  0.0968  0.4593 -0.7979
  979SOL    HW1 2936   2.055   1.348   0.224  1.3834  1.0568 -1.4303
  979SOL    HW2 2937   2.028   1.183   0.244 -1.1544  0.5810  2.8423
  980SOL     OW 2938   0.782   1.695   1.884  0.1521  0.5529 -0.1215
  980SOL    HW1 2939   0.750   1.599   1.861 -0.7211 -2.7922 -0.7830
  980SOL    HW2 2940   0.714   1.739   1.943 -1.2810  0.2674  1.8096
  981SOL     OW 2941   2.307   1.526   2.374  0.5570  0.0322 -0.2237
  981SOL    HW1 2942   2.381   1.577   2.323  2.5917  2.4858 -0.6773
  981SOL    HW2 2943   2.339   1.501   2.470 -1.3618  1.3704 -3.5287
  982SOL     OW 2944   0.349   2.069   1.722 -0.6235  0.1180  0.4360
  982SOL    HW1 2945   0.360   2.117   1.633  0.6963 -0.3779  0.1963
  982SOL    HW2 2946   0.435   2.063   1.780  1.1786  0.1245  1.6430
  983SOL     OW 2947   1.497   3.007   2.110  0.0195 -0.1889  0.2907
  983SOL    HW1 2948   1.479   2.975   2.015 -0.9630 -2.5228 -0.8130
  983SOL    HW2 2949   1.446   3.096   2.121 -0.0785  0.7901 -1.1981
  984SOL     OW 2950   0.006   3.107   2.822  0.1661  0.0168  0.2010
  984SOL    HW1 2951   3.100   0.058   2.909 -1.5105  3.8042  2.3648
  984SOL    HW2 2952   3.101   3.006   2.835 -1.6961 -2.3983  1.3452
  985SOL     OW 2953   1.483   1.399   1.962  0.3412  0.1518 -0.6040
  985SOL    HW1 2954   1.535   1.387   1.881  1.1146 -0.1582  2.3076
  985SOL    HW2 2955   1.439   1.311   1.990  2.3838  1.2660 -0.4122
  986SOL     OW 2956   1.739   0.424   2.995  0.2173  0.4666 -1.0898
  986SOL    HW1 2957   1.834   0.443   3.020 -1.3783  0.4074  0.0729
  986SOL    HW2 2958   1.725   0.322   2.984 -2.1929 -2.1263 -1.5359
  987SOL     OW 2959   0.187   2.210   2.535 -0.7436  0.3239 -0.4440
  987SOL    HW1 2960   0.200   2.269   2.618 -0.9706 -0.1728 -0.7132
  987SOL    HW2 2961   0.156   2.117   2.562  2.6543 -1.4042 -1.4936
  988SOL     OW 2962   2.886   0.276   1.478  0.1160 -0.4841  0.2904
  988SOL    HW1 2963   2.959   0.208   1.469 -3.6614  0.4590 -1.2950
  988SOL    HW2 2964   2.804   0.254   1.422  0.0170  0.1192  2.5386
  989SOL     OW 2965   2.080   0.051   1.001  0.6144 -0.3945  0.3408
  989SOL    HW1 2966   2.070   3.068   0.957 -2.4417  3.1400 -0.2249
  989SOL    HW2 2967   2.120   0.118   0.931  1.2829 -0.8976 -0.6881
  990SOL     OW 2968   2.576   0.808   0.124  0.2672  0.4141  0.2999
  990SOL    HW1 2969   2.525   0.806   0.037  0.7405  0.0746  3.3505
  990SOL    HW2 2970   2.666   0.853   0.125 -0.3422 -0.6554 -0.1201
  991SOL     OW 2971   0.265   1.021   0.587 -0.0017 -0.6694 -0.0505
  991SOL    HW1 2972   0.185   1.067   0.549  1.7304 -0.8760  0.0606
  991SOL    HW2 2973   0.282   1.032   0.687  1.1566 -1.4336 -2.2810
  992SOL     OW 2974   1.818   1.667   1.778 -0.3700  0.3119  0.2589
  992SOL    HW1 2975   1.719   1.691   1.793 -0.1474 -0.0213  1.2628
  992SOL    HW2 2976   1.833   1.568   1.755  0.5800 -0.9467  0.0351
  993SOL     OW 2977   0.252   2.130   0.962  0.1665 -0.0974  0.1744
  993SOL    HW1 2978   0.167   2.104   1.014 -1.3032 -0.3191 -1.0707
  993SOL    HW2 2979   0.234   2.133   0.862 -1.0616 -0.7133 -0.6524
  994SOL     OW 2980   0.000   1.890   1.577  0.4112  0.1628  0.3642
  994SOL    HW1 2981   3.019   1.859   1.625 -1.2967 -2.1161  0.1947
  994SOL    HW2 2982   0.057   1.811   1.556  1.3010 -1.5512 -3.0824
  995SOL     OW 2983   1.978   1.557   2.820  0.5870  0.2375  0.6096
  995SOL    HW1 2984   1.942   1.609   2.741  1.5147  2.0138  0.0834
  995SOL    HW2 2985   2.060   1.608   2.850 -2.0799 -0.3116 -0.7508
  996SOL     OW 2986   1.979   2.601   0.556  0.1877 -0.2935 -0.2360
  996SOL    HW1 2987   2.003   2.607   0.459  2.4826 -0.6670  0.8786
  996SOL    HW2 2988   1.961   2.505   0.589 -2.6979 -2.2216  1.4846
  997SOL     OW 2989   1.380   1.631   1.995  0.3906 -0.1065 -0.3336
  997SOL    HW1 2990   1.281   1.628   1.978  1.6779 -2.8468 -1.6781
  997SOL    HW2 2991   1.419   1.537   1.985  0.1456 -2.1332 -2.4016
  998SOL     OW 2992   0.037   2.221   0.552 -0.1372 -0.3256  0.3428
  998SOL    HW1 2993   0.013   2.231   0.454 -0.0156 -1.3163  0.2198
  998SOL    HW2 2994   0.084   2.304   0.591  1.0288 -0.7201  0.1213
  999SOL     OW 2995   0.653   3.049   0.186  0.4401  0.3340  0.3456
  999SOL    HW1 2996   0.588   2.981   0.153 -0.5468  1.1402  1.4674
  999SOL    HW2 2997   0.706   3.080   0.102  0.5732 -1.3469  0.6158
 1000SOL     OW 2998   1.114   0.196   0.082 -0.4705  0.3134 -0.4459
 1000SOL    HW1 2999   1.215   0.212   0.106  1.5057  1.7873  1.9013
 1000SOL    HW2 3000   1.096   0.236   3.098  1.8119 -1.6661 -1.1296
   3.10685   3.10685   3.10685
